<event>
 4    1  0.7144937E-008  0.1659602E+04  0.7816531E-02  0.8784746E-01
         -2   -1    0    0    0  501 -0.00000000000E+00  0.00000000000E+00  0.40974998802E+03  0.40974998802E+03  0.00000000000E+00 0. -1.
          2   -1    0    0  501    0  0.00000000000E+00 -0.00000000000E+00 -0.16804626833E+04  0.16804626833E+04  0.00000000000E+00 0.  1.
    2000013    1    1    2    0    0 -0.19372749040E+03  0.95414149138E+02 -0.57994893191E+03  0.10114222481E+04  0.80000000000E+03 0.  0.
   -2000013    1    1    2    0    0  0.19372749040E+03 -0.95414149138E+02 -0.69076376339E+03  0.10787904232E+04  0.80000000000E+03 0.  0.
<mgrwt>
<rscale>  0 0.16596018E+04</rscale>
<asrwt>0</asrwt>
<pdfrwt beam="2">  1        2 0.25853272E+00 0.16596018E+04</pdfrwt>
<pdfrwt beam="1">  1       -2 0.63038460E-01 0.16596018E+04</pdfrwt>
<totfact> 0.22376782E+01</totfact>
</mgrwt>
</event>
<event>
 4    1  0.7144937E-008  0.2150252E+04  0.7816531E-02  0.8539424E-01
         -2   -1    0    0    0  501 -0.00000000000E+00  0.00000000000E+00  0.65625843943E+03  0.65625843943E+03  0.00000000000E+00 0. -1.
          2   -1    0    0  501    0  0.00000000000E+00 -0.00000000000E+00 -0.17613424159E+04  0.17613424159E+04  0.00000000000E+00 0.  1.
    2000013    1    1    2    0    0 -0.32302109617E+03  0.64028605759E+03 -0.59733171286E+03  0.12292737853E+04  0.80000000000E+03 0.  0.
   -2000013    1    1    2    0    0  0.32302109617E+03 -0.64028605759E+03 -0.50775226363E+03  0.11883270700E+04  0.80000000000E+03 0.  0.
<mgrwt>
<rscale>  0 0.21502519E+04</rscale>
<asrwt>0</asrwt>
<pdfrwt beam="2">  1        2 0.27097576E+00 0.21502519E+04</pdfrwt>
<pdfrwt beam="1">  1       -2 0.10096284E+00 0.21502519E+04</pdfrwt>
<totfact> 0.67181692E+00</totfact>
</mgrwt>
</event>
<event>
 4    1  0.7144937E-008  0.2339609E+04  0.7816531E-02  0.8462466E-01
          2   -1    0    0  501    0  0.00000000000E+00  0.00000000000E+00  0.10470139570E+04  0.10470139570E+04  0.00000000000E+00 0.  1.
         -2   -1    0    0    0  501 -0.00000000000E+00 -0.00000000000E+00 -0.13069954089E+04  0.13069954089E+04  0.00000000000E+00 0. -1.
    2000013    1    1    2    0    0 -0.41495359647E+03  0.74008828548E+03 -0.22289146773E+03  0.11872648247E+04  0.80000000000E+03 0.  0.
   -2000013    1    1    2    0    0  0.41495359647E+03 -0.74008828548E+03 -0.37089984261E+02  0.11667445412E+04  0.80000000000E+03 0.  0.
<mgrwt>
<rscale>  0 0.23396089E+04</rscale>
<asrwt>0</asrwt>
<pdfrwt beam="1">  1        2 0.16107907E+00 0.23396089E+04</pdfrwt>
<pdfrwt beam="2">  1       -2 0.20107622E+00 0.23396089E+04</pdfrwt>
<totfact> 0.27795984E+00</totfact>
</mgrwt>
</event>
<event>
 4    1  0.7144937E-008  0.2281880E+04  0.7816531E-02  0.8485100E-01
          2   -1    0    0  501    0  0.00000000000E+00  0.00000000000E+00  0.98757506788E+03  0.98757506788E+03  0.00000000000E+00 0.  1.
         -2   -1    0    0    0  501 -0.00000000000E+00 -0.00000000000E+00 -0.13181213560E+04  0.13181213560E+04  0.00000000000E+00 0. -1.
    2000013    1    1    2    0    0  0.25596325308E+02 -0.47375104395E+03  0.50241765504E+03  0.10571275815E+04  0.80000000000E+03 0.  0.
   -2000013    1    1    2    0    0 -0.25596325308E+02  0.47375104395E+03 -0.83296394316E+03  0.12485688424E+04  0.80000000000E+03 0.  0.
<mgrwt>
<rscale>  0 0.22818797E+04</rscale>
<asrwt>0</asrwt>
<pdfrwt beam="1">  1        2 0.15193463E+00 0.22818797E+04</pdfrwt>
<pdfrwt beam="2">  1       -2 0.20278790E+00 0.22818797E+04</pdfrwt>
<totfact> 0.29700733E+00</totfact>
</mgrwt>
</event>
<event>
 4    1  0.7144937E-008  0.2490757E+04  0.7816531E-02  0.8406286E-01
         -1   -1    0    0    0  501 -0.00000000000E+00  0.00000000000E+00  0.17790539621E+04  0.17790539621E+04  0.00000000000E+00 0. -1.
          1   -1    0    0  501    0  0.00000000000E+00 -0.00000000000E+00 -0.87179368053E+03  0.87179368053E+03  0.00000000000E+00 0.  1.
    2000013    1    1    2    0    0  0.52477052243E+03  0.59879086815E+03  0.10137995858E+04  0.15171434359E+04  0.80000000000E+03 0.  0.
   -2000013    1    1    2    0    0 -0.52477052243E+03 -0.59879086815E+03 -0.10653930422E+03  0.11337042067E+04  0.80000000000E+03 0.  0.
<mgrwt>
<rscale>  0 0.24907573E+04</rscale>
<asrwt>0</asrwt>
<pdfrwt beam="2">  1        1 0.13412210E+00 0.24907573E+04</pdfrwt>
<pdfrwt beam="1">  1       -1 0.27370061E+00 0.24907573E+04</pdfrwt>
<totfact> 0.83468825E-01</totfact>
</mgrwt>
</event>
<event>
 4    1  0.7144937E-008  0.2898284E+04  0.7816531E-02  0.8273388E-01
          2   -1    0    0  501    0  0.00000000000E+00  0.00000000000E+00  0.14020927300E+04  0.14020927300E+04  0.00000000000E+00 0.  1.
         -2   -1    0    0    0  501 -0.00000000000E+00 -0.00000000000E+00 -0.14977699449E+04  0.14977699449E+04  0.00000000000E+00 0. -1.
    2000013    1    1    2    0    0 -0.86115657701E+03 -0.42484314009E+03  0.68599804172E+03  0.14257193472E+04  0.80000000000E+03 0.  0.
   -2000013    1    1    2    0    0  0.86115657701E+03  0.42484314009E+03 -0.78167525657E+03  0.14741433277E+04  0.80000000000E+03 0.  0.
<mgrwt>
<rscale>  0 0.28982839E+04</rscale>
<asrwt>0</asrwt>
<pdfrwt beam="1">  1        2 0.21570657E+00 0.28982839E+04</pdfrwt>
<pdfrwt beam="2">  1       -2 0.23042615E+00 0.28982839E+04</pdfrwt>
<totfact> 0.10585260E+00</totfact>
</mgrwt>
</event>
<event>
 4    1  0.7144937E-008  0.2414307E+04  0.7816531E-02  0.8434167E-01
         -2   -1    0    0    0  501 -0.00000000000E+00  0.00000000000E+00  0.85232957908E+03  0.85232957908E+03  0.00000000000E+00 0. -1.
          2   -1    0    0  501    0  0.00000000000E+00 -0.00000000000E+00 -0.17096900740E+04  0.17096900740E+04  0.00000000000E+00 0.  1.
    2000013    1    1    2    0    0  0.24259677993E+03  0.72590705048E+03 -0.93917970939E+03  0.14518446095E+04  0.80000000000E+03 0.  0.
   -2000013    1    1    2    0    0 -0.24259677993E+03 -0.72590705048E+03  0.81819214478E+02  0.11101750436E+04  0.80000000000E+03 0.  0.
<mgrwt>
<rscale>  0 0.24143069E+04</rscale>
<asrwt>0</asrwt>
<pdfrwt beam="2">  1        2 0.26302924E+00 0.24143069E+04</pdfrwt>
<pdfrwt beam="1">  1       -2 0.13112763E+00 0.24143069E+04</pdfrwt>
<totfact> 0.36968703E+00</totfact>
</mgrwt>
</event>
<event>
 4    1  0.7144937E-008  0.2760181E+04  0.7816531E-02  0.8315738E-01
         -2   -1    0    0    0  501 -0.00000000000E+00  0.00000000000E+00  0.71596153779E+03  0.71596153779E+03  0.00000000000E+00 0. -1.
          2   -1    0    0  501    0  0.00000000000E+00 -0.00000000000E+00 -0.26602673513E+04  0.26602673513E+04  0.00000000000E+00 0.  1.
    2000013    1    1    2    0    0  0.98686510022E+03  0.26857095479E+03 -0.15440730454E+04  0.20174723427E+04  0.80000000000E+03 0.  0.
   -2000013    1    1    2    0    0 -0.98686510022E+03 -0.26857095479E+03 -0.40023276806E+03  0.13587565464E+04  0.80000000000E+03 0.  0.
<mgrwt>
<rscale>  0 0.27601805E+04</rscale>
<asrwt>0</asrwt>
<pdfrwt beam="2">  1        2 0.40927189E+00 0.27601805E+04</pdfrwt>
<pdfrwt beam="1">  1       -2 0.11014793E+00 0.27601805E+04</pdfrwt>
<totfact> 0.16025226E+00</totfact>
</mgrwt>
</event>
<event>
 4    1  0.7144937E-008  0.1728266E+04  0.7816531E-02  0.8745405E-01
         -2   -1    0    0    0  501 -0.00000000000E+00  0.00000000000E+00  0.26829301059E+03  0.26829301059E+03  0.00000000000E+00 0. -1.
          2   -1    0    0  501    0  0.00000000000E+00 -0.00000000000E+00 -0.27832472065E+04  0.27832472065E+04  0.00000000000E+00 0.  1.
    2000013    1    1    2    0    0 -0.26700141752E+03  0.18768477358E+03 -0.12318633129E+04  0.15046602782E+04  0.80000000000E+03 0.  0.
   -2000013    1    1    2    0    0  0.26700141752E+03 -0.18768477358E+03 -0.12830908830E+04  0.15468799388E+04  0.80000000000E+03 0.  0.
<mgrwt>
<rscale>  0 0.17282659E+04</rscale>
<asrwt>0</asrwt>
<pdfrwt beam="2">  1        2 0.42819187E+00 0.17282659E+04</pdfrwt>
<pdfrwt beam="1">  1       -2 0.41275848E-01 0.17282659E+04</pdfrwt>
<totfact> 0.12533447E+01</totfact>
</mgrwt>
</event>
<event>
 4    1  0.7144937E-008  0.1954259E+04  0.7816531E-02  0.8628310E-01
         -2   -1    0    0    0  501 -0.00000000000E+00  0.00000000000E+00  0.49634291379E+03  0.49634291379E+03  0.00000000000E+00 0. -1.
          2   -1    0    0  501    0  0.00000000000E+00 -0.00000000000E+00 -0.19236334130E+04  0.19236334130E+04  0.00000000000E+00 0.  1.
    2000013    1    1    2    0    0 -0.20066616160E+03 -0.45364539825E+03 -0.38902693249E+03  0.10185298277E+04  0.80000000000E+03 0.  0.
   -2000013    1    1    2    0    0  0.20066616160E+03  0.45364539825E+03 -0.10382635667E+04  0.14014464990E+04  0.80000000000E+03 0.  0.
<mgrwt>
<rscale>  0 0.19542587E+04</rscale>
<asrwt>0</asrwt>
<pdfrwt beam="2">  1        2 0.29594361E+00 0.19542587E+04</pdfrwt>
<pdfrwt beam="1">  1       -2 0.76360447E-01 0.19542587E+04</pdfrwt>
<totfact> 0.10539321E+01</totfact>
</mgrwt>
</event>
<event>
 4    1  0.7144937E-008  0.1857347E+04  0.7816531E-02  0.8676383E-01
          2   -1    0    0  501    0  0.00000000000E+00  0.00000000000E+00  0.97227932588E+03  0.97227932588E+03  0.00000000000E+00 0.  1.
         -2   -1    0    0    0  501 -0.00000000000E+00 -0.00000000000E+00 -0.88702378163E+03  0.88702378163E+03  0.00000000000E+00 0. -1.
    2000013    1    1    2    0    0 -0.39655800760E+03 -0.18763599284E+03 -0.13067113117E+03  0.92170519350E+03  0.80000000000E+03 0.  0.
   -2000013    1    1    2    0    0  0.39655800760E+03  0.18763599284E+03  0.21592667542E+03  0.93759791401E+03  0.80000000000E+03 0.  0.
<mgrwt>
<rscale>  0 0.18573474E+04</rscale>
<asrwt>0</asrwt>
<pdfrwt beam="1">  1        2 0.14958144E+00 0.18573474E+04</pdfrwt>
<pdfrwt beam="2">  1       -2 0.13646520E+00 0.18573474E+04</pdfrwt>
<totfact> 0.94667810E+00</totfact>
</mgrwt>
</event>
<event>
 4    1  0.7144937E-008  0.2280896E+04  0.7816531E-02  0.8485492E-01
          2   -1    0    0  501    0  0.00000000000E+00  0.00000000000E+00  0.19222497559E+04  0.19222497559E+04  0.00000000000E+00 0.  1.
         -2   -1    0    0    0  501 -0.00000000000E+00 -0.00000000000E+00 -0.67661409946E+03  0.67661409946E+03  0.00000000000E+00 0. -1.
    2000013    1    1    2    0    0 -0.43186900290E+03  0.68755597279E+03  0.66510243612E+03  0.13196989437E+04  0.80000000000E+03 0.  0.
   -2000013    1    1    2    0    0  0.43186900290E+03 -0.68755597279E+03  0.58053322030E+03  0.12791649117E+04  0.80000000000E+03 0.  0.
<mgrwt>
<rscale>  0 0.22808957E+04</rscale>
<asrwt>0</asrwt>
<pdfrwt beam="1">  1        2 0.29573073E+00 0.22808957E+04</pdfrwt>
<pdfrwt beam="2">  1       -2 0.10409448E+00 0.22808957E+04</pdfrwt>
<totfact> 0.50296436E+00</totfact>
</mgrwt>
</event>
<event>
 4    1  0.7144937E-008  0.1895310E+04  0.7816531E-02  0.8657194E-01
         -2   -1    0    0    0  501 -0.00000000000E+00  0.00000000000E+00  0.51584209016E+03  0.51584209016E+03  0.00000000000E+00 0. -1.
          2   -1    0    0  501    0  0.00000000000E+00 -0.00000000000E+00 -0.17409395252E+04  0.17409395252E+04  0.00000000000E+00 0.  1.
    2000013    1    1    2    0    0  0.39013182495E+03  0.17606212501E+03 -0.93831250513E+03  0.13052321901E+04  0.80000000000E+03 0.  0.
   -2000013    1    1    2    0    0 -0.39013182495E+03 -0.17606212501E+03 -0.28678492989E+03  0.95154942526E+03  0.80000000000E+03 0.  0.
<mgrwt>
<rscale>  0 0.18953099E+04</rscale>
<asrwt>0</asrwt>
<pdfrwt beam="2">  1        2 0.26783685E+00 0.18953099E+04</pdfrwt>
<pdfrwt beam="1">  1       -2 0.79360322E-01 0.18953099E+04</pdfrwt>
<totfact> 0.12270692E+01</totfact>
</mgrwt>
</event>
<event>
 4    1  0.7144937E-008  0.1654078E+04  0.7816531E-02  0.8787998E-01
          2   -1    0    0  501    0  0.00000000000E+00  0.00000000000E+00  0.68442204493E+03  0.68442204493E+03  0.00000000000E+00 0.  1.
         -2   -1    0    0    0  501 -0.00000000000E+00 -0.00000000000E+00 -0.99937352514E+03  0.99937352514E+03  0.00000000000E+00 0. -1.
    2000013    1    1    2    0    0 -0.22776337098E+02 -0.20654179016E+03 -0.18653683815E+03  0.84733362060E+03  0.80000000000E+03 0.  0.
   -2000013    1    1    2    0    0  0.22776337098E+02  0.20654179016E+03 -0.12841464207E+03  0.83646194947E+03  0.80000000000E+03 0.  0.
<mgrwt>
<rscale>  0 0.16540777E+04</rscale>
<asrwt>0</asrwt>
<pdfrwt beam="1">  1        2 0.10529570E+00 0.16540777E+04</pdfrwt>
<pdfrwt beam="2">  1       -2 0.15374977E+00 0.16540777E+04</pdfrwt>
<totfact> 0.11286630E+01</totfact>
</mgrwt>
</event>
<event>
 4    1  0.7144937E-008  0.1764487E+04  0.7816531E-02  0.8725416E-01
          1   -1    0    0  501    0  0.00000000000E+00  0.00000000000E+00  0.27188536980E+04  0.27188536980E+04  0.00000000000E+00 0.  1.
         -1   -1    0    0    0  501 -0.00000000000E+00 -0.00000000000E+00 -0.28627998244E+03  0.28627998244E+03  0.00000000000E+00 0. -1.
    2000013    1    1    2    0    0 -0.10019045863E+02  0.25443230280E+03  0.75450177329E+03  0.11287644147E+04  0.80000000000E+03 0.  0.
   -2000013    1    1    2    0    0  0.10019045863E+02 -0.25443230280E+03  0.16780719423E+04  0.18763692657E+04  0.80000000000E+03 0.  0.
<mgrwt>
<rscale>  0 0.17644868E+04</rscale>
<asrwt>0</asrwt>
<pdfrwt beam="1">  1        1 0.41828517E+00 0.17644868E+04</pdfrwt>
<pdfrwt beam="2">  1       -1 0.44043076E-01 0.17644868E+04</pdfrwt>
<totfact> 0.46014809E+00</totfact>
</mgrwt>
</event>
<event>
 4    1  0.7144937E-008  0.2238496E+04  0.7816531E-02  0.8502574E-01
         -2   -1    0    0    0  501 -0.00000000000E+00  0.00000000000E+00  0.81295387358E+03  0.81295387358E+03  0.00000000000E+00 0. -1.
          2   -1    0    0  501    0  0.00000000000E+00 -0.00000000000E+00 -0.15409433666E+04  0.15409433666E+04  0.00000000000E+00 0.  1.
    2000013    1    1    2    0    0  0.44468357617E+03 -0.22693550849E+03 -0.99796239162E+03  0.13730157111E+04  0.80000000000E+03 0.  0.
   -2000013    1    1    2    0    0 -0.44468357617E+03  0.22693550849E+03  0.26997289865E+03  0.98088152900E+03  0.80000000000E+03 0.  0.
<mgrwt>
<rscale>  0 0.22384958E+04</rscale>
<asrwt>0</asrwt>
<pdfrwt beam="2">  1        2 0.23706821E+00 0.22384958E+04</pdfrwt>
<pdfrwt beam="1">  1       -2 0.12506983E+00 0.22384958E+04</pdfrwt>
<totfact> 0.52520923E+00</totfact>
</mgrwt>
</event>
<event>
 4    1  0.7144937E-008  0.2036584E+04  0.7816531E-02  0.8589705E-01
          2   -1    0    0  501    0  0.00000000000E+00  0.00000000000E+00  0.15455110853E+04  0.15455110853E+04  0.00000000000E+00 0.  1.
         -2   -1    0    0    0  501 -0.00000000000E+00 -0.00000000000E+00 -0.67092310229E+03  0.67092310229E+03  0.00000000000E+00 0. -1.
    2000013    1    1    2    0    0  0.51478803391E+03 -0.26420320758E+03  0.70851904768E+03  0.12152404271E+04  0.80000000000E+03 0.  0.
   -2000013    1    1    2    0    0 -0.51478803391E+03  0.26420320758E+03  0.16606893533E+03  0.10011937605E+04  0.80000000000E+03 0.  0.
<mgrwt>
<rscale>  0 0.20365845E+04</rscale>
<asrwt>0</asrwt>
<pdfrwt beam="1">  1        2 0.23777093E+00 0.20365845E+04</pdfrwt>
<pdfrwt beam="2">  1       -2 0.10321894E+00 0.20365845E+04</pdfrwt>
<totfact> 0.84896883E+00</totfact>
</mgrwt>
</event>
<event>
 4    1  0.7144937E-008  0.4762666E+04  0.7816531E-02  0.7866199E-01
         -2   -1    0    0    0  501 -0.00000000000E+00  0.00000000000E+00  0.19926888297E+04  0.19926888297E+04  0.00000000000E+00 0. -1.
          2   -1    0    0  501    0  0.00000000000E+00 -0.00000000000E+00 -0.28457759877E+04  0.28457759877E+04  0.00000000000E+00 0.  1.
    2000013    1    1    2    0    0 -0.39958920171E+03 -0.17669597575E+04 -0.17700613722E+04  0.26561128696E+04  0.80000000000E+03 0.  0.
   -2000013    1    1    2    0    0  0.39958920171E+03  0.17669597575E+04  0.91697421413E+03  0.21823519478E+04  0.80000000000E+03 0.  0.
<mgrwt>
<rscale>  0 0.47626656E+04</rscale>
<asrwt>0</asrwt>
<pdfrwt beam="2">  1        2 0.43781169E+00 0.47626656E+04</pdfrwt>
<pdfrwt beam="1">  1       -2 0.30656751E+00 0.47626656E+04</pdfrwt>
<totfact> 0.46598938E-02</totfact>
</mgrwt>
</event>
<event>
 4    1  0.7144937E-008  0.2353220E+04  0.7816531E-02  0.8457228E-01
         -2   -1    0    0    0  501 -0.00000000000E+00  0.00000000000E+00  0.76081650642E+03  0.76081650642E+03  0.00000000000E+00 0. -1.
          2   -1    0    0  501    0  0.00000000000E+00 -0.00000000000E+00 -0.18196379135E+04  0.18196379135E+04  0.00000000000E+00 0.  1.
    2000013    1    1    2    0    0  0.38688204969E+03  0.69689592170E+03 -0.16726424723E+03  0.11416299639E+04  0.80000000000E+03 0.  0.
   -2000013    1    1    2    0    0 -0.38688204969E+03 -0.69689592170E+03 -0.89155715988E+03  0.14388244561E+04  0.80000000000E+03 0.  0.
<mgrwt>
<rscale>  0 0.23532195E+04</rscale>
<asrwt>0</asrwt>
<pdfrwt beam="2">  1        2 0.27994429E+00 0.23532195E+04</pdfrwt>
<pdfrwt beam="1">  1       -2 0.11704870E+00 0.23532195E+04</pdfrwt>
<totfact> 0.42897246E+00</totfact>
</mgrwt>
</event>
<event>
 4    1  0.7144937E-008  0.1657037E+04  0.7816531E-02  0.8786254E-01
         -2   -1    0    0    0  501 -0.00000000000E+00  0.00000000000E+00  0.36444822168E+03  0.36444822168E+03  0.00000000000E+00 0. -1.
          2   -1    0    0  501    0  0.00000000000E+00 -0.00000000000E+00 -0.18835132519E+04  0.18835132519E+04  0.00000000000E+00 0.  1.
    2000013    1    1    2    0    0 -0.15114320348E+03  0.13157142856E+03 -0.65195930740E+03  0.10512878993E+04  0.80000000000E+03 0.  0.
   -2000013    1    1    2    0    0  0.15114320348E+03 -0.13157142856E+03 -0.86710572284E+03  0.11966735743E+04  0.80000000000E+03 0.  0.
<mgrwt>
<rscale>  0 0.16570372E+04</rscale>
<asrwt>0</asrwt>
<pdfrwt beam="2">  1        2 0.28977128E+00 0.16570372E+04</pdfrwt>
<pdfrwt beam="1">  1       -2 0.56068956E-01 0.16570372E+04</pdfrwt>
<totfact> 0.22113375E+01</totfact>
</mgrwt>
</event>
<event>
 4    1  0.7144937E-008  0.2569306E+04  0.7816531E-02  0.8378703E-01
          2   -1    0    0  501    0  0.00000000000E+00  0.00000000000E+00  0.14011882629E+04  0.14011882629E+04  0.00000000000E+00 0.  1.
         -2   -1    0    0    0  501 -0.00000000000E+00 -0.00000000000E+00 -0.11778098463E+04  0.11778098463E+04  0.00000000000E+00 0. -1.
    2000013    1    1    2    0    0 -0.92247930859E+03  0.38709264860E+03  0.13727312909E+02  0.12810141422E+04  0.80000000000E+03 0.  0.
   -2000013    1    1    2    0    0  0.92247930859E+03 -0.38709264860E+03  0.20965110361E+03  0.12979839670E+04  0.80000000000E+03 0.  0.
<mgrwt>
<rscale>  0 0.25693060E+04</rscale>
<asrwt>0</asrwt>
<pdfrwt beam="1">  1        2 0.21556743E+00 0.25693060E+04</pdfrwt>
<pdfrwt beam="2">  1       -2 0.18120151E+00 0.25693060E+04</pdfrwt>
<totfact> 0.22795682E+00</totfact>
</mgrwt>
</event>
<event>
 4    1  0.7144937E-008  0.1828725E+04  0.7816531E-02  0.8691171E-01
         -2   -1    0    0    0  501 -0.00000000000E+00  0.00000000000E+00  0.16710905261E+04  0.16710905261E+04  0.00000000000E+00 0. -1.
          2   -1    0    0  501    0  0.00000000000E+00 -0.00000000000E+00 -0.50030710409E+03  0.50030710409E+03  0.00000000000E+00 0.  1.
    2000013    1    1    2    0    0 -0.42989954006E+03 -0.86029748354E+02  0.65900690445E+03  0.11253909686E+04  0.80000000000E+03 0.  0.
   -2000013    1    1    2    0    0  0.42989954006E+03  0.86029748354E+02  0.51177651760E+03  0.10460066616E+04  0.80000000000E+03 0.  0.
<mgrwt>
<rscale>  0 0.18287247E+04</rscale>
<asrwt>0</asrwt>
<pdfrwt beam="2">  1        2 0.76970325E-01 0.18287247E+04</pdfrwt>
<pdfrwt beam="1">  1       -2 0.25709085E+00 0.18287247E+04</pdfrwt>
<totfact> 0.33695524E+00</totfact>
</mgrwt>
</event>
<event>
 4    1  0.7144937E-008  0.2183149E+04  0.7816531E-02  0.8525475E-01
          2   -1    0    0  501    0  0.00000000000E+00  0.00000000000E+00  0.25615574643E+04  0.25615574643E+04  0.00000000000E+00 0. -1.
         -2   -1    0    0    0  501 -0.00000000000E+00 -0.00000000000E+00 -0.46516019524E+03  0.46516019524E+03  0.00000000000E+00 0.  1.
    2000013    1    1    2    0    0 -0.69483078234E+03 -0.11275246781E+03  0.13763734424E+04  0.17406627439E+04  0.80000000000E+03 0.  0.
   -2000013    1    1    2    0    0  0.69483078234E+03  0.11275246781E+03  0.72002382669E+03  0.12860549157E+04  0.80000000000E+03 0.  0.
<mgrwt>
<rscale>  0 0.21831487E+04</rscale>
<asrwt>0</asrwt>
<pdfrwt beam="1">  1        2 0.39408575E+00 0.21831487E+04</pdfrwt>
<pdfrwt beam="2">  1       -2 0.71563109E-01 0.21831487E+04</pdfrwt>
<totfact> 0.51972125E+00</totfact>
</mgrwt>
</event>
<event>
 4    1  0.7144937E-008  0.1964740E+04  0.7816531E-02  0.8623286E-01
          2   -1    0    0  501    0  0.00000000000E+00  0.00000000000E+00  0.36178748405E+04  0.36178748405E+04  0.00000000000E+00 0. -1.
         -2   -1    0    0    0  501 -0.00000000000E+00 -0.00000000000E+00 -0.26674517375E+03  0.26674517375E+03  0.00000000000E+00 0.  1.
    2000013    1    1    2    0    0 -0.44287962987E+03 -0.34772619889E+03  0.18523503452E+04  0.20948168601E+04  0.80000000000E+03 0.  0.
   -2000013    1    1    2    0    0  0.44287962987E+03  0.34772619889E+03  0.14987793216E+04  0.17898031542E+04  0.80000000000E+03 0.  0.
<mgrwt>
<rscale>  0 0.19647398E+04</rscale>
<asrwt>0</asrwt>
<pdfrwt beam="1">  1        2 0.55659610E+00 0.19647398E+04</pdfrwt>
<pdfrwt beam="2">  1       -2 0.41037721E-01 0.19647398E+04</pdfrwt>
<totfact> 0.35368817E+00</totfact>
</mgrwt>
</event>
<event>
 4    1  0.7144937E-008  0.3509248E+04  0.7816531E-02  0.8111602E-01
          2   -1    0    0  501    0  0.00000000000E+00  0.00000000000E+00  0.13631995283E+04  0.13631995283E+04  0.00000000000E+00 0.  1.
         -2   -1    0    0    0  501 -0.00000000000E+00 -0.00000000000E+00 -0.22584410928E+04  0.22584410928E+04  0.00000000000E+00 0. -1.
    2000013    1    1    2    0    0 -0.13371576988E+04 -0.79152950148E+03 -0.60815387341E+03  0.18505028497E+04  0.80000000000E+03 0.  0.
   -2000013    1    1    2    0    0  0.13371576988E+04  0.79152950148E+03 -0.28708769105E+03  0.17711377714E+04  0.80000000000E+03 0.  0.
<mgrwt>
<rscale>  0 0.35092483E+04</rscale>
<asrwt>0</asrwt>
<pdfrwt beam="1">  1        2 0.20972301E+00 0.35092483E+04</pdfrwt>
<pdfrwt beam="2">  1       -2 0.34745247E+00 0.35092483E+04</pdfrwt>
<totfact> 0.20131194E-01</totfact>
</mgrwt>
</event>
<event>
 4    1  0.7144937E-008  0.1608215E+04  0.7816531E-02  0.8815517E-01
         -2   -1    0    0    0  501 -0.00000000000E+00  0.00000000000E+00  0.42378180979E+03  0.42378180979E+03  0.00000000000E+00 0. -1.
          2   -1    0    0  501    0  0.00000000000E+00 -0.00000000000E+00 -0.15257590427E+04  0.15257590427E+04  0.00000000000E+00 0.  1.
    2000013    1    1    2    0    0  0.76005504492E+02 -0.26949541482E+02 -0.56221828843E+03  0.98111799410E+03  0.80000000000E+03 0.  0.
   -2000013    1    1    2    0    0 -0.76005504492E+02  0.26949541482E+02 -0.53975894448E+03  0.96842285838E+03  0.80000000000E+03 0.  0.
<mgrwt>
<rscale>  0 0.16082151E+04</rscale>
<asrwt>0</asrwt>
<pdfrwt beam="2">  1        2 0.23473216E+00 0.16082151E+04</pdfrwt>
<pdfrwt beam="1">  1       -2 0.65197201E-01 0.16082151E+04</pdfrwt>
<totfact> 0.25513783E+01</totfact>
</mgrwt>
</event>
<event>
 4    1  0.7144937E-008  0.2061657E+04  0.7816531E-02  0.8578325E-01
         -2   -1    0    0    0  501 -0.00000000000E+00  0.00000000000E+00  0.47351049190E+03  0.47351049190E+03  0.00000000000E+00 0. -1.
          2   -1    0    0  501    0  0.00000000000E+00 -0.00000000000E+00 -0.22441044930E+04  0.22441044930E+04  0.00000000000E+00 0.  1.
    2000013    1    1    2    0    0  0.62014871908E+03 -0.11697763745E+03 -0.67965048294E+03  0.12248236528E+04  0.80000000000E+03 0.  0.
   -2000013    1    1    2    0    0 -0.62014871908E+03  0.11697763745E+03 -0.10909435182E+04  0.14927913321E+04  0.80000000000E+03 0.  0.
<mgrwt>
<rscale>  0 0.20616566E+04</rscale>
<asrwt>0</asrwt>
<pdfrwt beam="2">  1        2 0.34524685E+00 0.20616566E+04</pdfrwt>
<pdfrwt beam="1">  1       -2 0.72847768E-01 0.20616566E+04</pdfrwt>
<totfact> 0.76772548E+00</totfact>
</mgrwt>
</event>
<event>
 4    1  0.7144937E-008  0.2747976E+04  0.7816531E-02  0.8319604E-01
         -2   -1    0    0    0  501 -0.00000000000E+00  0.00000000000E+00  0.76679075210E+03  0.76679075210E+03  0.00000000000E+00 0. -1.
          2   -1    0    0  501    0  0.00000000000E+00 -0.00000000000E+00 -0.24620060157E+04  0.24620060157E+04  0.00000000000E+00 0.  1.
    2000013    1    1    2    0    0  0.99225037486E+03 -0.51026063123E+03 -0.91106405125E+03  0.16477149097E+04  0.80000000000E+03 0.  0.
   -2000013    1    1    2    0    0 -0.99225037486E+03  0.51026063123E+03 -0.78415121235E+03  0.15810818581E+04  0.80000000000E+03 0.  0.
<mgrwt>
<rscale>  0 0.27479763E+04</rscale>
<asrwt>0</asrwt>
<pdfrwt beam="2">  1        2 0.37877016E+00 0.27479763E+04</pdfrwt>
<pdfrwt beam="1">  1       -2 0.11796781E+00 0.27479763E+04</pdfrwt>
<totfact> 0.17723280E+00</totfact>
</mgrwt>
</event>
<event>
 4    1  0.7144937E-008  0.2141816E+04  0.7816531E-02  0.8543044E-01
          2   -1    0    0  501    0  0.00000000000E+00  0.00000000000E+00  0.70835317741E+03  0.70835317741E+03  0.00000000000E+00 0. -1.
         -2   -1    0    0    0  501 -0.00000000000E+00 -0.00000000000E+00 -0.16190284427E+04  0.16190284427E+04  0.00000000000E+00 0.  1.
    2000013    1    1    2    0    0 -0.27150383020E+03 -0.56599493744E+03 -0.90415485266E+02  0.10209013464E+04  0.80000000000E+03 0.  0.
   -2000013    1    1    2    0    0  0.27150383020E+03  0.56599493744E+03 -0.82025978006E+03  0.13064802738E+04  0.80000000000E+03 0.  0.
<mgrwt>
<rscale>  0 0.21418160E+04</rscale>
<asrwt>0</asrwt>
<pdfrwt beam="1">  1        2 0.10897741E+00 0.21418160E+04</pdfrwt>
<pdfrwt beam="2">  1       -2 0.24908130E+00 0.21418160E+04</pdfrwt>
<totfact> 0.24126891E+00</totfact>
</mgrwt>
</event>
<event>
 4    1  0.7144937E-008  0.3006928E+04  0.7816531E-02  0.8241755E-01
          2   -1    0    0  501    0  0.00000000000E+00  0.00000000000E+00  0.37772123467E+04  0.37772123467E+04  0.00000000000E+00 0.  1.
         -2   -1    0    0    0  501 -0.00000000000E+00 -0.00000000000E+00 -0.59843189171E+03  0.59843189171E+03  0.00000000000E+00 0. -1.
    2000013    1    1    2    0    0 -0.17516686292E+03 -0.88391334660E+03  0.28100100924E+03  0.12373147544E+04  0.80000000000E+03 0.  0.
   -2000013    1    1    2    0    0  0.17516686292E+03  0.88391334660E+03  0.28977794457E+04  0.31383294840E+04  0.80000000000E+03 0.  0.
<mgrwt>
<rscale>  0 0.30069282E+04</rscale>
<asrwt>0</asrwt>
<pdfrwt beam="1">  1        2 0.58110958E+00 0.30069282E+04</pdfrwt>
<pdfrwt beam="2">  1       -2 0.92066447E-01 0.30069282E+04</pdfrwt>
<totfact> 0.43807144E-01</totfact>
</mgrwt>
</event>
<event>
 4    1  0.7144937E-008  0.1876785E+04  0.7816531E-02  0.8666499E-01
         -2   -1    0    0    0  501 -0.00000000000E+00  0.00000000000E+00  0.89049328132E+03  0.89049328132E+03  0.00000000000E+00 0. -1.
          2   -1    0    0  501    0  0.00000000000E+00 -0.00000000000E+00 -0.98886782389E+03  0.98886782389E+03  0.00000000000E+00 0.  1.
    2000013    1    1    2    0    0 -0.13478915289E+03 -0.34934779880E+03  0.26805697816E+03  0.92307450609E+03  0.80000000000E+03 0.  0.
   -2000013    1    1    2    0    0  0.13478915289E+03  0.34934779880E+03 -0.36643152073E+03  0.95628659911E+03  0.80000000000E+03 0.  0.
<mgrwt>
<rscale>  0 0.18767846E+04</rscale>
<asrwt>0</asrwt>
<pdfrwt beam="2">  1        2 0.15213351E+00 0.18767846E+04</pdfrwt>
<pdfrwt beam="1">  1       -2 0.13699897E+00 0.18767846E+04</pdfrwt>
<totfact> 0.91284245E+00</totfact>
</mgrwt>
</event>
<event>
 4    1  0.7144937E-008  0.2777867E+04  0.7816531E-02  0.8310173E-01
         -2   -1    0    0    0  501 -0.00000000000E+00  0.00000000000E+00  0.57127356919E+03  0.57127356919E+03  0.00000000000E+00 0. -1.
          2   -1    0    0  501    0  0.00000000000E+00 -0.00000000000E+00 -0.33769032609E+04  0.33769032609E+04  0.00000000000E+00 0.  1.
    2000013    1    1    2    0    0  0.23937602344E+02 -0.10087758999E+04 -0.21426190269E+04  0.24998036162E+04  0.80000000000E+03 0.  0.
   -2000013    1    1    2    0    0 -0.23937602344E+02  0.10087758999E+04 -0.66301066481E+03  0.14483732139E+04  0.80000000000E+03 0.  0.
<mgrwt>
<rscale>  0 0.27778665E+04</rscale>
<asrwt>0</asrwt>
<pdfrwt beam="2">  1        2 0.51952359E+00 0.27778665E+04</pdfrwt>
<pdfrwt beam="1">  1       -2 0.87888239E-01 0.27778665E+04</pdfrwt>
<totfact> 0.96173903E-01</totfact>
</mgrwt>
</event>
<event>
 4    1  0.7144937E-008  0.3063630E+04  0.7816531E-02  0.8225791E-01
         -1   -1    0    0    0  501 -0.00000000000E+00  0.00000000000E+00  0.13511341234E+04  0.13511341234E+04  0.00000000000E+00 0. -1.
          1   -1    0    0  501    0  0.00000000000E+00 -0.00000000000E+00 -0.17366577457E+04  0.17366577457E+04  0.00000000000E+00 0.  1.
    2000013    1    1    2    0    0 -0.10681195630E+04 -0.17236366062E+03 -0.93056572285E+03  0.16360138132E+04  0.80000000000E+03 0.  0.
   -2000013    1    1    2    0    0  0.10681195630E+04  0.17236366062E+03  0.54504210058E+03  0.14517780560E+04  0.80000000000E+03 0.  0.
<mgrwt>
<rscale>  0 0.30636302E+04</rscale>
<asrwt>0</asrwt>
<pdfrwt beam="2">  1        1 0.26717811E+00 0.30636302E+04</pdfrwt>
<pdfrwt beam="1">  1       -1 0.20786679E+00 0.30636302E+04</pdfrwt>
<totfact> 0.50626924E-01</totfact>
</mgrwt>
</event>
<event>
 4    1  0.7144937E-008  0.2595406E+04  0.7816531E-02  0.8369763E-01
          2   -1    0    0  501    0  0.00000000000E+00  0.00000000000E+00  0.11608558029E+04  0.11608558029E+04  0.00000000000E+00 0.  1.
         -2   -1    0    0    0  501 -0.00000000000E+00 -0.00000000000E+00 -0.14506823872E+04  0.14506823872E+04  0.00000000000E+00 0. -1.
    2000013    1    1    2    0    0  0.97435134976E+03 -0.30526575460E+03 -0.18369287154E+03  0.13100728242E+04  0.80000000000E+03 0.  0.
   -2000013    1    1    2    0    0 -0.97435134976E+03  0.30526575460E+03 -0.10613371279E+03  0.13014653659E+04  0.80000000000E+03 0.  0.
<mgrwt>
<rscale>  0 0.25954060E+04</rscale>
<asrwt>0</asrwt>
<pdfrwt beam="1">  1        2 0.17859320E+00 0.25954060E+04</pdfrwt>
<pdfrwt beam="2">  1       -2 0.22318191E+00 0.25954060E+04</pdfrwt>
<totfact> 0.16696274E+00</totfact>
</mgrwt>
</event>
<event>
 4    1  0.7144937E-008  0.1939167E+04  0.7816531E-02  0.8635602E-01
          1   -1    0    0  501    0  0.00000000000E+00  0.00000000000E+00  0.11055752987E+04  0.11055752987E+04  0.00000000000E+00 0.  1.
         -1   -1    0    0    0  501 -0.00000000000E+00 -0.00000000000E+00 -0.85031951636E+03  0.85031951636E+03  0.00000000000E+00 0. -1.
    2000013    1    1    2    0    0  0.81671088745E+02  0.44568235611E+03  0.43816247630E+03  0.10184739982E+04  0.80000000000E+03 0.  0.
   -2000013    1    1    2    0    0 -0.81671088745E+02 -0.44568235611E+03 -0.18290669396E+03  0.93742081691E+03  0.80000000000E+03 0.  0.
<mgrwt>
<rscale>  0 0.19391671E+04</rscale>
<asrwt>0</asrwt>
<pdfrwt beam="1">  1        1 0.17008851E+00 0.19391671E+04</pdfrwt>
<pdfrwt beam="2">  1       -1 0.13081839E+00 0.19391671E+04</pdfrwt>
<totfact> 0.58452278E+00</totfact>
</mgrwt>
</event>
<event>
 4    1  0.7144937E-008  0.2337453E+04  0.7816531E-02  0.8463299E-01
          2   -1    0    0  501    0  0.00000000000E+00  0.00000000000E+00  0.14493887881E+04  0.14493887881E+04  0.00000000000E+00 0.  1.
         -2   -1    0    0    0  501 -0.00000000000E+00 -0.00000000000E+00 -0.94241196678E+03  0.94241196678E+03  0.00000000000E+00 0. -1.
    2000013    1    1    2    0    0  0.76152585355E+03  0.37090439115E+03  0.15954056792E+03  0.11759867711E+04  0.80000000000E+03 0.  0.
   -2000013    1    1    2    0    0 -0.76152585355E+03 -0.37090439115E+03  0.34743625341E+03  0.12158139838E+04  0.80000000000E+03 0.  0.
<mgrwt>
<rscale>  0 0.23374527E+04</rscale>
<asrwt>0</asrwt>
<pdfrwt beam="1">  1        2 0.22298289E+00 0.23374527E+04</pdfrwt>
<pdfrwt beam="2">  1       -2 0.14498646E+00 0.23374527E+04</pdfrwt>
<totfact> 0.40180161E+00</totfact>
</mgrwt>
</event>
<event>
 4    1  0.7144937E-008  0.2297996E+04  0.7816531E-02  0.8478712E-01
          2   -1    0    0  501    0  0.00000000000E+00  0.00000000000E+00  0.26355877083E+04  0.26355877083E+04  0.00000000000E+00 0.  1.
         -2   -1    0    0    0  501 -0.00000000000E+00 -0.00000000000E+00 -0.50091169658E+03  0.50091169658E+03  0.00000000000E+00 0. -1.
    2000013    1    1    2    0    0 -0.95877122423E+02 -0.25832621798E+03  0.21283299179E+04  0.22903521775E+04  0.80000000000E+03 0.  0.
   -2000013    1    1    2    0    0  0.95877122423E+02  0.25832621798E+03  0.63460938169E+01  0.84614722738E+03  0.80000000000E+03 0.  0.
<mgrwt>
<rscale>  0 0.22979963E+04</rscale>
<asrwt>0</asrwt>
<pdfrwt beam="1">  1        2 0.40547502E+00 0.22979963E+04</pdfrwt>
<pdfrwt beam="2">  1       -2 0.77063340E-01 0.22979963E+04</pdfrwt>
<totfact> 0.39530021E+00</totfact>
</mgrwt>
</event>
<event>
 4    1  0.7144937E-008  0.1759157E+04  0.7816531E-02  0.8728326E-01
         -2   -1    0    0    0  501 -0.00000000000E+00  0.00000000000E+00  0.22445786385E+03  0.22445786385E+03  0.00000000000E+00 0. -1.
          2   -1    0    0  501    0  0.00000000000E+00 -0.00000000000E+00 -0.34467854004E+04  0.34467854004E+04  0.00000000000E+00 0.  1.
    2000013    1    1    2    0    0 -0.18456252233E+03  0.43591276622E+02 -0.95886909557E+03  0.12630888593E+04  0.80000000000E+03 0.  0.
   -2000013    1    1    2    0    0  0.18456252233E+03 -0.43591276622E+02 -0.22634584410E+04  0.24081544050E+04  0.80000000000E+03 0.  0.
<mgrwt>
<rscale>  0 0.17591567E+04</rscale>
<asrwt>0</asrwt>
<pdfrwt beam="2">  1        2 0.53027462E+00 0.17591567E+04</pdfrwt>
<pdfrwt beam="1">  1       -2 0.34531983E-01 0.17591567E+04</pdfrwt>
<totfact> 0.66467267E+00</totfact>
</mgrwt>
</event>
<event>
 4    1  0.7144937E-008  0.2124954E+04  0.7816531E-02  0.8550330E-01
         -2   -1    0    0    0  501 -0.00000000000E+00  0.00000000000E+00  0.42029415478E+03  0.42029415478E+03  0.00000000000E+00 0. -1.
          2   -1    0    0  501    0  0.00000000000E+00 -0.00000000000E+00 -0.26858739884E+04  0.26858739884E+04  0.00000000000E+00 0.  1.
    2000013    1    1    2    0    0  0.10113308081E+03 -0.68503408951E+03 -0.12741921214E+04  0.16562201442E+04  0.80000000000E+03 0.  0.
   -2000013    1    1    2    0    0 -0.10113308081E+03  0.68503408951E+03 -0.99138771228E+03  0.14499479990E+04  0.80000000000E+03 0.  0.
<mgrwt>
<rscale>  0 0.21249538E+04</rscale>
<asrwt>0</asrwt>
<pdfrwt beam="2">  1        2 0.41321140E+00 0.21249538E+04</pdfrwt>
<pdfrwt beam="1">  1       -2 0.64660637E-01 0.21249538E+04</pdfrwt>
<totfact> 0.55010589E+00</totfact>
</mgrwt>
</event>
<event>
 4    1  0.7144937E-008  0.1944920E+04  0.7816531E-02  0.8632814E-01
         -1   -1    0    0    0  501 -0.00000000000E+00  0.00000000000E+00  0.97124144491E+03  0.97124144491E+03  0.00000000000E+00 0. -1.
          1   -1    0    0  501    0  0.00000000000E+00 -0.00000000000E+00 -0.97368009970E+03  0.97368009970E+03  0.00000000000E+00 0.  1.
    2000013    1    1    2    0    0 -0.22991009156E+03 -0.44972346144E+03  0.22365553659E+03  0.97217881124E+03  0.80000000000E+03 0.  0.
   -2000013    1    1    2    0    0  0.22991009156E+03  0.44972346144E+03 -0.22609419138E+03  0.97274273338E+03  0.80000000000E+03 0.  0.
<mgrwt>
<rscale>  0 0.19449200E+04</rscale>
<asrwt>0</asrwt>
<pdfrwt beam="2">  1        1 0.14979694E+00 0.19449200E+04</pdfrwt>
<pdfrwt beam="1">  1       -1 0.14942176E+00 0.19449200E+04</pdfrwt>
<totfact> 0.52154057E+00</totfact>
</mgrwt>
</event>
<event>
 4    1  0.7144937E-008  0.1921253E+04  0.7816531E-02  0.8644349E-01
          2   -1    0    0  501    0  0.00000000000E+00  0.00000000000E+00  0.36995873467E+04  0.36995873467E+04  0.00000000000E+00 0.  1.
         -2   -1    0    0    0  501 -0.00000000000E+00 -0.00000000000E+00 -0.24943401344E+03  0.24943401344E+03  0.00000000000E+00 0. -1.
    2000013    1    1    2    0    0  0.30510725839E+03 -0.16616576687E+03  0.89751871663E+03  0.12514956444E+04  0.80000000000E+03 0.  0.
   -2000013    1    1    2    0    0 -0.30510725839E+03  0.16616576687E+03  0.25526346166E+04  0.26975257157E+04  0.80000000000E+03 0.  0.
<mgrwt>
<rscale>  0 0.19212526E+04</rscale>
<asrwt>0</asrwt>
<pdfrwt beam="1">  1        2 0.56916724E+00 0.19212526E+04</pdfrwt>
<pdfrwt beam="2">  1       -2 0.38374466E-01 0.19212526E+04</pdfrwt>
<totfact> 0.35325771E+00</totfact>
</mgrwt>
</event>
<event>
 4    1  0.7144937E-008  0.2355805E+04  0.7816531E-02  0.8456237E-01
         -2   -1    0    0    0  501 -0.00000000000E+00  0.00000000000E+00  0.14500950826E+04  0.14500950826E+04  0.00000000000E+00 0.  1.
          2   -1    0    0  501    0  0.00000000000E+00 -0.00000000000E+00 -0.95680245697E+03  0.95680245697E+03  0.00000000000E+00 0. -1.
    2000013    1    1    2    0    0  0.49487712151E+03  0.64796286630E+03  0.54045093949E+03  0.12636639029E+04  0.80000000000E+03 0.  0.
   -2000013    1    1    2    0    0 -0.49487712151E+03 -0.64796286630E+03 -0.47158313838E+02  0.11432336367E+04  0.80000000000E+03 0.  0.
<mgrwt>
<rscale>  0 0.23558052E+04</rscale>
<asrwt>0</asrwt>
<pdfrwt beam="2">  1        2 0.14720038E+00 0.23558052E+04</pdfrwt>
<pdfrwt beam="1">  1       -2 0.22309155E+00 0.23558052E+04</pdfrwt>
<totfact> 0.22908179E+00</totfact>
</mgrwt>
</event>
<event>
 4    1  0.7144937E-008  0.2526644E+04  0.7816531E-02  0.8393555E-01
          1   -1    0    0  501    0  0.00000000000E+00  0.00000000000E+00  0.14045649192E+04  0.14045649192E+04  0.00000000000E+00 0.  1.
         -1   -1    0    0    0  501 -0.00000000000E+00 -0.00000000000E+00 -0.11362824118E+04  0.11362824118E+04  0.00000000000E+00 0. -1.
    2000013    1    1    2    0    0  0.96600344585E+03  0.14250713231E+03  0.83744930187E+02  0.12651024281E+04  0.80000000000E+03 0.  0.
   -2000013    1    1    2    0    0 -0.96600344585E+03 -0.14250713231E+03  0.18453757720E+03  0.12757449030E+04  0.80000000000E+03 0.  0.
<mgrwt>
<rscale>  0 0.25266440E+04</rscale>
<asrwt>0</asrwt>
<pdfrwt beam="1">  1        1 0.21608691E+00 0.25266440E+04</pdfrwt>
<pdfrwt beam="2">  1       -1 0.17481268E+00 0.25266440E+04</pdfrwt>
<totfact> 0.15338500E+00</totfact>
</mgrwt>
</event>
<event>
 4    1  0.7144937E-008  0.2227273E+04  0.7816531E-02  0.8507162E-01
         -2   -1    0    0    0  501 -0.00000000000E+00  0.00000000000E+00  0.82096319871E+03  0.82096319871E+03  0.00000000000E+00 0. -1.
          2   -1    0    0  501    0  0.00000000000E+00 -0.00000000000E+00 -0.15106474202E+04  0.15106474202E+04  0.00000000000E+00 0.  1.
    2000013    1    1    2    0    0  0.17093380046E+03  0.61596522295E+03 -0.80301428944E+03  0.13013314217E+04  0.80000000000E+03 0.  0.
   -2000013    1    1    2    0    0 -0.17093380046E+03 -0.61596522295E+03  0.11333006791E+03  0.10302791973E+04  0.80000000000E+03 0.  0.
<mgrwt>
<rscale>  0 0.22272727E+04</rscale>
<asrwt>0</asrwt>
<pdfrwt beam="2">  1        2 0.23240730E+00 0.22272727E+04</pdfrwt>
<pdfrwt beam="1">  1       -2 0.12630203E+00 0.22272727E+04</pdfrwt>
<totfact> 0.53345754E+00</totfact>
</mgrwt>
</event>
<event>
 4    1  0.7144937E-008  0.1975728E+04  0.7816531E-02  0.8618054E-01
          2   -1    0    0  501    0  0.00000000000E+00  0.00000000000E+00  0.11675285647E+04  0.11675285647E+04  0.00000000000E+00 0.  1.
         -2   -1    0    0    0  501 -0.00000000000E+00 -0.00000000000E+00 -0.83584674352E+03  0.83584674352E+03  0.00000000000E+00 0. -1.
    2000013    1    1    2    0    0  0.23770718036E+03  0.52709406272E+03  0.20565994248E+03  0.10082801528E+04  0.80000000000E+03 0.  0.
   -2000013    1    1    2    0    0 -0.23770718036E+03 -0.52709406272E+03  0.12602187875E+03  0.99509515548E+03  0.80000000000E+03 0.  0.
<mgrwt>
<rscale>  0 0.19757277E+04</rscale>
<asrwt>0</asrwt>
<pdfrwt beam="1">  1        2 0.17961978E+00 0.19757277E+04</pdfrwt>
<pdfrwt beam="2">  1       -2 0.12859181E+00 0.19757277E+04</pdfrwt>
<totfact> 0.82345959E+00</totfact>
</mgrwt>
</event>
<event>
 4    1  0.7144937E-008  0.1918589E+04  0.7816531E-02  0.8645658E-01
         -2   -1    0    0    0  501 -0.00000000000E+00  0.00000000000E+00  0.34159076310E+03  0.34159076310E+03  0.00000000000E+00 0. -1.
          2   -1    0    0  501    0  0.00000000000E+00 -0.00000000000E+00 -0.26940015628E+04  0.26940015628E+04  0.00000000000E+00 0.  1.
    2000013    1    1    2    0    0 -0.34553763249E+03 -0.14548571237E+02 -0.54206445703E+03  0.10263731251E+04  0.80000000000E+03 0.  0.
   -2000013    1    1    2    0    0  0.34553763249E+03  0.14548571237E+02 -0.18103463427E+04  0.20092192008E+04  0.80000000000E+03 0.  0.
<mgrwt>
<rscale>  0 0.19185891E+04</rscale>
<asrwt>0</asrwt>
<pdfrwt beam="2">  1        2 0.41446180E+00 0.19185891E+04</pdfrwt>
<pdfrwt beam="1">  1       -2 0.52552423E-01 0.19185891E+04</pdfrwt>
<totfact> 0.85670310E+00</totfact>
</mgrwt>
</event>
<event>
 4    1  0.7144937E-008  0.2206709E+04  0.7816531E-02  0.8515641E-01
          2   -1    0    0  501    0  0.00000000000E+00  0.00000000000E+00  0.10483393346E+04  0.10483393346E+04  0.00000000000E+00 0.  1.
         -2   -1    0    0    0  501 -0.00000000000E+00 -0.00000000000E+00 -0.11612570946E+04  0.11612570946E+04  0.00000000000E+00 0. -1.
    2000013    1    1    2    0    0  0.32863795620E+03  0.68152359620E+03 -0.12665174738E+03  0.11083853046E+04  0.80000000000E+03 0.  0.
   -2000013    1    1    2    0    0 -0.32863795620E+03 -0.68152359620E+03  0.13733987369E+02  0.11012111246E+04  0.80000000000E+03 0.  0.
<mgrwt>
<rscale>  0 0.22067093E+04</rscale>
<asrwt>0</asrwt>
<pdfrwt beam="1">  1        2 0.16128298E+00 0.22067093E+04</pdfrwt>
<pdfrwt beam="2">  1       -2 0.17865494E+00 0.22067093E+04</pdfrwt>
<totfact> 0.39707048E+00</totfact>
</mgrwt>
</event>
<event>
 4    1  0.7144937E-008  0.1957803E+04  0.7816531E-02  0.8626607E-01
         -2   -1    0    0    0  501 -0.00000000000E+00  0.00000000000E+00  0.80524387375E+03  0.80524387375E+03  0.00000000000E+00 0. -1.
          2   -1    0    0  501    0  0.00000000000E+00 -0.00000000000E+00 -0.11900101493E+04  0.11900101493E+04  0.00000000000E+00 0.  1.
    2000013    1    1    2    0    0 -0.16814338417E+03 -0.53655133783E+03 -0.23896130881E+03  0.10066091808E+04  0.80000000000E+03 0.  0.
   -2000013    1    1    2    0    0  0.16814338417E+03  0.53655133783E+03 -0.14580496673E+03  0.98864484224E+03  0.80000000000E+03 0.  0.
<mgrwt>
<rscale>  0 0.19578032E+04</rscale>
<asrwt>0</asrwt>
<pdfrwt beam="2">  1        2 0.18307848E+00 0.19578032E+04</pdfrwt>
<pdfrwt beam="1">  1       -2 0.12388367E+00 0.19578032E+04</pdfrwt>
<totfact> 0.87805726E+00</totfact>
</mgrwt>
</event>
<event>
 4    1  0.7144937E-008  0.2260606E+04  0.7816531E-02  0.8493618E-01
          1   -1    0    0  501    0  0.00000000000E+00  0.00000000000E+00  0.14564385757E+04  0.14564385757E+04  0.00000000000E+00 0.  1.
         -1   -1    0    0    0  501 -0.00000000000E+00 -0.00000000000E+00 -0.87719782383E+03  0.87719782383E+03  0.00000000000E+00 0. -1.
    2000013    1    1    2    0    0  0.35674414809E+03  0.38654926890E+03 -0.33053510679E+03  0.10128870526E+04  0.80000000000E+03 0.  0.
   -2000013    1    1    2    0    0 -0.35674414809E+03 -0.38654926890E+03  0.90977585869E+03  0.13207493470E+04  0.80000000000E+03 0.  0.
<mgrwt>
<rscale>  0 0.22606059E+04</rscale>
<asrwt>0</asrwt>
<pdfrwt beam="1">  1        1 0.22406747E+00 0.22606059E+04</pdfrwt>
<pdfrwt beam="2">  1       -1 0.13495351E+00 0.22606059E+04</pdfrwt>
<totfact> 0.29332220E+00</totfact>
</mgrwt>
</event>
<event>
 4    1  0.7144937E-008  0.2132904E+04  0.7816531E-02  0.8546886E-01
          2   -1    0    0  501    0  0.00000000000E+00  0.00000000000E+00  0.22379937277E+04  0.22379937277E+04  0.00000000000E+00 0.  1.
         -2   -1    0    0    0  501 -0.00000000000E+00 -0.00000000000E+00 -0.50818736657E+03  0.50818736657E+03  0.00000000000E+00 0. -1.
    2000013    1    1    2    0    0 -0.14451837012E+03  0.16787251992E+03  0.28786847787E+01  0.83010543250E+03  0.80000000000E+03 0.  0.
   -2000013    1    1    2    0    0  0.14451837012E+03 -0.16787251992E+03  0.17269276764E+04  0.19160756618E+04  0.80000000000E+03 0.  0.
<mgrwt>
<rscale>  0 0.21329043E+04</rscale>
<asrwt>0</asrwt>
<pdfrwt beam="1">  1        2 0.34430672E+00 0.21329043E+04</pdfrwt>
<pdfrwt beam="2">  1       -2 0.78182673E-01 0.21329043E+04</pdfrwt>
<totfact> 0.65748587E+00</totfact>
</mgrwt>
</event>
<event>
 4    1  0.7144937E-008  0.2379373E+04  0.7816531E-02  0.8447267E-01
         -2   -1    0    0    0  501 -0.00000000000E+00  0.00000000000E+00  0.11647003318E+04  0.11647003318E+04  0.00000000000E+00 0. -1.
          2   -1    0    0  501    0  0.00000000000E+00 -0.00000000000E+00 -0.12152088264E+04  0.12152088264E+04  0.00000000000E+00 0.  1.
    2000013    1    1    2    0    0  0.82663512334E+03 -0.13383025675E+03 -0.29756171529E+03  0.11957337242E+04  0.80000000000E+03 0.  0.
   -2000013    1    1    2    0    0 -0.82663512334E+03  0.13383025675E+03  0.24705322072E+03  0.11841754341E+04  0.80000000000E+03 0.  0.
<mgrwt>
<rscale>  0 0.23793731E+04</rscale>
<asrwt>0</asrwt>
<pdfrwt beam="2">  1        2 0.18695520E+00 0.23793731E+04</pdfrwt>
<pdfrwt beam="1">  1       -2 0.17918467E+00 0.23793731E+04</pdfrwt>
<totfact> 0.30692734E+00</totfact>
</mgrwt>
</event>
<event>
 4    1  0.7144937E-008  0.2585936E+04  0.7816531E-02  0.8372994E-01
          2   -1    0    0  501    0  0.00000000000E+00  0.00000000000E+00  0.39841081495E+04  0.39841081495E+04  0.00000000000E+00 0.  1.
         -2   -1    0    0    0  501 -0.00000000000E+00 -0.00000000000E+00 -0.41960878122E+03  0.41960878122E+03  0.00000000000E+00 0. -1.
    2000013    1    1    2    0    0 -0.31286093308E+03 -0.85236613147E+03  0.10067874088E+04  0.15741762519E+04  0.80000000000E+03 0.  0.
   -2000013    1    1    2    0    0  0.31286093308E+03  0.85236613147E+03  0.25577119594E+04  0.28295406788E+04  0.80000000000E+03 0.  0.
<mgrwt>
<rscale>  0 0.25859364E+04</rscale>
<asrwt>0</asrwt>
<pdfrwt beam="1">  1        2 0.61293969E+00 0.25859364E+04</pdfrwt>
<pdfrwt beam="2">  1       -2 0.64555200E-01 0.25859364E+04</pdfrwt>
<totfact> 0.69315592E-01</totfact>
</mgrwt>
</event>
<event>
 4    1  0.7144937E-008  0.4533294E+04  0.7816531E-02  0.7904834E-01
          2   -1    0    0  501    0  0.00000000000E+00  0.00000000000E+00  0.42534774723E+04  0.42534774723E+04  0.00000000000E+00 0.  1.
         -2   -1    0    0    0  501 -0.00000000000E+00 -0.00000000000E+00 -0.12078794315E+04  0.12078794315E+04  0.00000000000E+00 0. -1.
    2000013    1    1    2    0    0  0.25482600062E+03  0.16993209728E+04  0.25324776864E+02  0.18955920984E+04  0.80000000000E+03 0.  0.
   -2000013    1    1    2    0    0 -0.25482600062E+03 -0.16993209728E+04  0.30202732639E+04  0.35657648055E+04  0.80000000000E+03 0.  0.
<mgrwt>
<rscale>  0 0.45332937E+04</rscale>
<asrwt>0</asrwt>
<pdfrwt beam="1">  1        2 0.65438114E+00 0.45332937E+04</pdfrwt>
<pdfrwt beam="2">  1       -2 0.18582761E+00 0.45332937E+04</pdfrwt>
<totfact> 0.25926708E-02</totfact>
</mgrwt>
</event>
<event>
 4    1  0.7144937E-008  0.1941417E+04  0.7816531E-02  0.8634511E-01
          2   -1    0    0  501    0  0.00000000000E+00  0.00000000000E+00  0.27794829745E+04  0.27794829745E+04  0.00000000000E+00 0.  1.
         -2   -1    0    0    0  501 -0.00000000000E+00 -0.00000000000E+00 -0.33901091826E+03  0.33901091826E+03  0.00000000000E+00 0. -1.
    2000013    1    1    2    0    0 -0.49735104259E+03  0.17951404518E+03  0.14622050628E+04  0.17486071593E+04  0.80000000000E+03 0.  0.
   -2000013    1    1    2    0    0  0.49735104259E+03 -0.17951404518E+03  0.97826699347E+03  0.13698867335E+04  0.80000000000E+03 0.  0.
<mgrwt>
<rscale>  0 0.19414171E+04</rscale>
<asrwt>0</asrwt>
<pdfrwt beam="1">  1        2 0.42761275E+00 0.19414171E+04</pdfrwt>
<pdfrwt beam="2">  1       -2 0.52155528E-01 0.19414171E+04</pdfrwt>
<totfact> 0.77210816E+00</totfact>
</mgrwt>
</event>
<event>
 4    1  0.7144937E-008  0.1707677E+04  0.7816531E-02  0.8756998E-01
         -2   -1    0    0    0  501 -0.00000000000E+00  0.00000000000E+00  0.28382843284E+03  0.28382843284E+03  0.00000000000E+00 0.  1.
          2   -1    0    0  501    0  0.00000000000E+00 -0.00000000000E+00 -0.25685954827E+04  0.25685954827E+04  0.00000000000E+00 0. -1.
    2000013    1    1    2    0    0  0.20217687402E+03  0.21862368582E+03 -0.11103133526E+04  0.14005240253E+04  0.80000000000E+03 0.  0.
   -2000013    1    1    2    0    0 -0.20217687402E+03 -0.21862368582E+03 -0.11744536973E+04  0.14518998903E+04  0.80000000000E+03 0.  0.
<mgrwt>
<rscale>  0 0.17076773E+04</rscale>
<asrwt>0</asrwt>
<pdfrwt beam="2">  1        2 0.39516852E+00 0.17076773E+04</pdfrwt>
<pdfrwt beam="1">  1       -2 0.43665914E-01 0.17076773E+04</pdfrwt>
<totfact> 0.15045542E+01</totfact>
</mgrwt>
</event>
<event>
 4    1  0.7144937E-008  0.1689398E+04  0.7816531E-02  0.8767434E-01
          2   -1    0    0  501    0  0.00000000000E+00  0.00000000000E+00  0.27910733599E+04  0.27910733599E+04  0.00000000000E+00 0.  1.
         -2   -1    0    0    0  501 -0.00000000000E+00 -0.00000000000E+00 -0.25564222591E+03  0.25564222591E+03  0.00000000000E+00 0. -1.
    2000013    1    1    2    0    0 -0.23817529141E+03 -0.12838531859E+03  0.12992600232E+04  0.15496086175E+04  0.80000000000E+03 0.  0.
   -2000013    1    1    2    0    0  0.23817529141E+03  0.12838531859E+03  0.12361711108E+04  0.14971069683E+04  0.80000000000E+03 0.  0.
<mgrwt>
<rscale>  0 0.16893978E+04</rscale>
<asrwt>0</asrwt>
<pdfrwt beam="1">  1        2 0.42939588E+00 0.16893978E+04</pdfrwt>
<pdfrwt beam="2">  1       -2 0.39329575E-01 0.16893978E+04</pdfrwt>
<totfact> 0.13677150E+01</totfact>
</mgrwt>
</event>
<event>
 4    1  0.7144937E-008  0.2213083E+04  0.7816531E-02  0.8513002E-01
         -2   -1    0    0    0  501 -0.00000000000E+00  0.00000000000E+00  0.50777743578E+03  0.50777743578E+03  0.00000000000E+00 0. -1.
          2   -1    0    0  501    0  0.00000000000E+00 -0.00000000000E+00 -0.24113592677E+04  0.24113592677E+04  0.00000000000E+00 0.  1.
    2000013    1    1    2    0    0  0.62383232029E+03 -0.40043944459E+03 -0.11982613039E+04  0.16202927714E+04  0.80000000000E+03 0.  0.
   -2000013    1    1    2    0    0 -0.62383232029E+03  0.40043944459E+03 -0.70532052797E+03  0.12988439320E+04  0.80000000000E+03 0.  0.
<mgrwt>
<rscale>  0 0.22130828E+04</rscale>
<asrwt>0</asrwt>
<pdfrwt beam="2">  1        2 0.37097835E+00 0.22130828E+04</pdfrwt>
<pdfrwt beam="1">  1       -2 0.78119606E-01 0.22130828E+04</pdfrwt>
<totfact> 0.52138661E+00</totfact>
</mgrwt>
</event>
<event>
 4    1  0.7144937E-008  0.1996571E+04  0.7816531E-02  0.8608225E-01
         -1   -1    0    0    0  501 -0.00000000000E+00  0.00000000000E+00  0.10036483907E+04  0.10036483907E+04  0.00000000000E+00 0. -1.
          1   -1    0    0  501    0  0.00000000000E+00 -0.00000000000E+00 -0.99295167028E+03  0.99295167028E+03  0.00000000000E+00 0.  1.
    2000013    1    1    2    0    0 -0.50909479256E+03 -0.22638360108E+03 -0.20947395677E+03  0.99714912687E+03  0.80000000000E+03 0.  0.
   -2000013    1    1    2    0    0  0.50909479256E+03  0.22638360108E+03  0.22017067721E+03  0.99945093414E+03  0.80000000000E+03 0.  0.
<mgrwt>
<rscale>  0 0.19965714E+04</rscale>
<asrwt>0</asrwt>
<pdfrwt beam="2">  1        1 0.15276179E+00 0.19965714E+04</pdfrwt>
<pdfrwt beam="1">  1       -1 0.15440745E+00 0.19965714E+04</pdfrwt>
<totfact> 0.45862089E+00</totfact>
</mgrwt>
</event>
<event>
 4    1  0.7144937E-008  0.2344769E+04  0.7816531E-02  0.8460475E-01
          2   -1    0    0  501    0  0.00000000000E+00  0.00000000000E+00  0.60633718457E+03  0.60633718457E+03  0.00000000000E+00 0.  1.
         -2   -1    0    0    0  501 -0.00000000000E+00 -0.00000000000E+00 -0.22668670487E+04  0.22668670487E+04  0.00000000000E+00 0. -1.
    2000013    1    1    2    0    0  0.72912018430E+03  0.12656855623E+03 -0.30058580529E+03  0.11304811670E+04  0.80000000000E+03 0.  0.
   -2000013    1    1    2    0    0 -0.72912018430E+03 -0.12656855623E+03 -0.13599440589E+04  0.17427230663E+04  0.80000000000E+03 0.  0.
<mgrwt>
<rscale>  0 0.23447693E+04</rscale>
<asrwt>0</asrwt>
<pdfrwt beam="1">  1        2 0.93282645E-01 0.23447693E+04</pdfrwt>
<pdfrwt beam="2">  1       -2 0.34874877E+00 0.23447693E+04</pdfrwt>
<totfact> 0.70143297E-01</totfact>
</mgrwt>
</event>
<event>
 4    1  0.7144937E-008  0.3030609E+04  0.7816531E-02  0.8235044E-01
          2   -1    0    0  501    0  0.00000000000E+00  0.00000000000E+00  0.16510490904E+04  0.16510490904E+04  0.00000000000E+00 0.  1.
         -2   -1    0    0    0  501 -0.00000000000E+00 -0.00000000000E+00 -0.13907202795E+04  0.13907202795E+04  0.00000000000E+00 0. -1.
    2000013    1    1    2    0    0 -0.11286821286E+03  0.10261897058E+04  0.90133164962E+03  0.15868847748E+04  0.80000000000E+03 0.  0.
   -2000013    1    1    2    0    0  0.11286821286E+03 -0.10261897058E+04 -0.64100283870E+03  0.14548845951E+04  0.80000000000E+03 0.  0.
<mgrwt>
<rscale>  0 0.30306088E+04</rscale>
<asrwt>0</asrwt>
<pdfrwt beam="1">  1        2 0.25400755E+00 0.30306088E+04</pdfrwt>
<pdfrwt beam="2">  1       -2 0.21395696E+00 0.30306088E+04</pdfrwt>
<totfact> 0.96307852E-01</totfact>
</mgrwt>
</event>
<event>
 4    1  0.7144937E-008  0.3838190E+04  0.7816531E-02  0.8038009E-01
          2   -1    0    0  501    0  0.00000000000E+00  0.00000000000E+00  0.15762021179E+04  0.15762021179E+04  0.00000000000E+00 0.  1.
         -2   -1    0    0    0  501 -0.00000000000E+00 -0.00000000000E+00 -0.23365817883E+04  0.23365817883E+04  0.00000000000E+00 0. -1.
    2000013    1    1    2    0    0  0.96731250198E+02  0.15786048452E+04  0.37003029540E+03  0.18106000695E+04  0.80000000000E+03 0.  0.
   -2000013    1    1    2    0    0 -0.96731250198E+02 -0.15786048452E+04 -0.11304099658E+04  0.21021838366E+04  0.80000000000E+03 0.  0.
<mgrwt>
<rscale>  0 0.38381898E+04</rscale>
<asrwt>0</asrwt>
<pdfrwt beam="1">  1        2 0.24249263E+00 0.38381898E+04</pdfrwt>
<pdfrwt beam="2">  1       -2 0.35947412E+00 0.38381898E+04</pdfrwt>
<totfact> 0.12451287E-01</totfact>
</mgrwt>
</event>
<event>
 4    1  0.7144937E-008  0.1942794E+04  0.7816531E-02  0.8633843E-01
         -2   -1    0    0    0  501 -0.00000000000E+00  0.00000000000E+00  0.79857538873E+03  0.79857538873E+03  0.00000000000E+00 0. -1.
          2   -1    0    0  501    0  0.00000000000E+00 -0.00000000000E+00 -0.11816195093E+04  0.11816195093E+04  0.00000000000E+00 0.  1.
    2000013    1    1    2    0    0 -0.16244970079E+03  0.51322728956E+03 -0.71699996984E+02  0.96691935837E+03  0.80000000000E+03 0.  0.
   -2000013    1    1    2    0    0  0.16244970079E+03 -0.51322728956E+03 -0.31134412362E+03  0.10132755397E+04  0.80000000000E+03 0.  0.
<mgrwt>
<rscale>  0 0.19427941E+04</rscale>
<asrwt>0</asrwt>
<pdfrwt beam="2">  1        2 0.18178762E+00 0.19427941E+04</pdfrwt>
<pdfrwt beam="1">  1       -2 0.12285775E+00 0.19427941E+04</pdfrwt>
<totfact> 0.90810180E+00</totfact>
</mgrwt>
</event>
<event>
 4    1  0.7144937E-008  0.4728485E+04  0.7816531E-02  0.7871813E-01
         -2   -1    0    0    0  501 -0.00000000000E+00  0.00000000000E+00  0.19722055722E+04  0.19722055722E+04  0.00000000000E+00 0. -1.
          2   -1    0    0  501    0  0.00000000000E+00 -0.00000000000E+00 -0.28342094271E+04  0.28342094271E+04  0.00000000000E+00 0.  1.
    2000013    1    1    2    0    0  0.17584371061E+04 -0.10772915641E+04  0.41761378410E+03  0.22510129815E+04  0.80000000000E+03 0.  0.
   -2000013    1    1    2    0    0 -0.17584371061E+04  0.10772915641E+04 -0.12796176390E+04  0.25554020178E+04  0.80000000000E+03 0.  0.
<mgrwt>
<rscale>  0 0.47284854E+04</rscale>
<asrwt>0</asrwt>
<pdfrwt beam="2">  1        2 0.43603222E+00 0.47284854E+04</pdfrwt>
<pdfrwt beam="1">  1       -2 0.30341624E+00 0.47284854E+04</pdfrwt>
<totfact> 0.49653954E-02</totfact>
</mgrwt>
</event>
<event>
 4    1  0.7144937E-008  0.3512401E+04  0.7816531E-02  0.8110857E-01
          1   -1    0    0  501    0  0.00000000000E+00  0.00000000000E+00  0.23309186110E+04  0.23309186110E+04  0.00000000000E+00 0. -1.
         -1   -1    0    0    0  501 -0.00000000000E+00 -0.00000000000E+00 -0.13231867237E+04  0.13231867237E+04  0.00000000000E+00 0.  1.
    2000013    1    1    2    0    0 -0.15568667294E+04  0.12289296032E+03  0.42810013520E+03  0.18061579163E+04  0.80000000000E+03 0.  0.
   -2000013    1    1    2    0    0  0.15568667294E+04 -0.12289296032E+03  0.57963175209E+03  0.18479474183E+04  0.80000000000E+03 0.  0.
<mgrwt>
<rscale>  0 0.35124012E+04</rscale>
<asrwt>0</asrwt>
<pdfrwt beam="1">  1        1 0.35860286E+00 0.35124012E+04</pdfrwt>
<pdfrwt beam="2">  1       -1 0.20356719E+00 0.35124012E+04</pdfrwt>
<totfact> 0.20545319E-01</totfact>
</mgrwt>
</event>
<event>
 4    1  0.7144937E-008  0.1635234E+04  0.7816531E-02  0.8799190E-01
         -2   -1    0    0    0  501 -0.00000000000E+00  0.00000000000E+00  0.51710129276E+03  0.51710129276E+03  0.00000000000E+00 0. -1.
          2   -1    0    0  501    0  0.00000000000E+00 -0.00000000000E+00 -0.12927792025E+04  0.12927792025E+04  0.00000000000E+00 0.  1.
    2000013    1    1    2    0    0 -0.11333063995E+03  0.18731029170E+02 -0.25092119515E+03  0.84626008507E+03  0.80000000000E+03 0.  0.
   -2000013    1    1    2    0    0  0.11333063995E+03 -0.18731029170E+02 -0.52475671456E+03  0.96362041016E+03  0.80000000000E+03 0.  0.
<mgrwt>
<rscale>  0 0.16352343E+04</rscale>
<asrwt>0</asrwt>
<pdfrwt beam="2">  1        2 0.19888910E+00 0.16352343E+04</pdfrwt>
<pdfrwt beam="1">  1       -2 0.79554047E-01 0.16352343E+04</pdfrwt>
<totfact> 0.22348185E+01</totfact>
</mgrwt>
</event>
<event>
 4    1  0.7144937E-008  0.2331689E+04  0.7816531E-02  0.8465530E-01
         -2   -1    0    0    0  501 -0.00000000000E+00  0.00000000000E+00  0.88024414438E+03  0.88024414438E+03  0.00000000000E+00 0. -1.
          2   -1    0    0  501    0  0.00000000000E+00 -0.00000000000E+00 -0.15441097840E+04  0.15441097840E+04  0.00000000000E+00 0.  1.
    2000013    1    1    2    0    0 -0.70359377105E+02  0.69399188579E+03 -0.83340565700E+03  0.13494962648E+04  0.80000000000E+03 0.  0.
   -2000013    1    1    2    0    0  0.70359377105E+02 -0.69399188579E+03  0.16954001739E+03  0.10748576636E+04  0.80000000000E+03 0.  0.
<mgrwt>
<rscale>  0 0.23316892E+04</rscale>
<asrwt>0</asrwt>
<pdfrwt beam="2">  1        2 0.23755535E+00 0.23316892E+04</pdfrwt>
<pdfrwt beam="1">  1       -2 0.13542218E+00 0.23316892E+04</pdfrwt>
<totfact> 0.42431119E+00</totfact>
</mgrwt>
</event>
<event>
 4    1  0.7144937E-008  0.2517349E+04  0.7816531E-02  0.8396831E-01
          2   -1    0    0  501    0  0.00000000000E+00  0.00000000000E+00  0.21649879984E+04  0.21649879984E+04  0.00000000000E+00 0.  1.
         -2   -1    0    0    0  501 -0.00000000000E+00 -0.00000000000E+00 -0.73176469626E+03  0.73176469626E+03  0.00000000000E+00 0. -1.
    2000013    1    1    2    0    0  0.73396846561E+03 -0.27407937218E+03  0.13780804714E+04  0.17756505840E+04  0.80000000000E+03 0.  0.
   -2000013    1    1    2    0    0 -0.73396846561E+03  0.27407937218E+03  0.55142830738E+02  0.11211021107E+04  0.80000000000E+03 0.  0.
<mgrwt>
<rscale>  0 0.25173492E+04</rscale>
<asrwt>0</asrwt>
<pdfrwt beam="1">  1        2 0.33307507E+00 0.25173492E+04</pdfrwt>
<pdfrwt beam="2">  1       -2 0.11257918E+00 0.25173492E+04</pdfrwt>
<totfact> 0.29883339E+00</totfact>
</mgrwt>
</event>
<event>
 4    1  0.7144937E-008  0.2925052E+04  0.7816531E-02  0.8265462E-01
         -2   -1    0    0    0  501 -0.00000000000E+00  0.00000000000E+00  0.95535071529E+03  0.95535071529E+03  0.00000000000E+00 0. -1.
          2   -1    0    0  501    0  0.00000000000E+00 -0.00000000000E+00 -0.22389505606E+04  0.22389505606E+04  0.00000000000E+00 0.  1.
    2000013    1    1    2    0    0  0.65454070031E+03  0.10227465684E+04 -0.81290332843E+03  0.16659069281E+04  0.80000000000E+03 0.  0.
   -2000013    1    1    2    0    0 -0.65454070031E+03 -0.10227465684E+04 -0.47069651691E+03  0.15283943479E+04  0.80000000000E+03 0.  0.
<mgrwt>
<rscale>  0 0.29250525E+04</rscale>
<asrwt>0</asrwt>
<pdfrwt beam="2">  1        2 0.34445393E+00 0.29250525E+04</pdfrwt>
<pdfrwt beam="1">  1       -2 0.14697704E+00 0.29250525E+04</pdfrwt>
<totfact> 0.13369037E+00</totfact>
</mgrwt>
</event>
<event>
 4    1  0.7144937E-008  0.2934936E+04  0.7816531E-02  0.8262558E-01
          2   -1    0    0  501    0  0.00000000000E+00  0.00000000000E+00  0.12713330820E+04  0.12713330820E+04  0.00000000000E+00 0.  1.
         -2   -1    0    0    0  501 -0.00000000000E+00 -0.00000000000E+00 -0.16938614615E+04  0.16938614615E+04  0.00000000000E+00 0. -1.
    2000013    1    1    2    0    0 -0.42601848344E+03  0.10385180759E+04  0.29736492374E+03  0.14101196545E+04  0.80000000000E+03 0.  0.
   -2000013    1    1    2    0    0  0.42601848344E+03 -0.10385180759E+04 -0.71989330325E+03  0.15550748890E+04  0.80000000000E+03 0.  0.
<mgrwt>
<rscale>  0 0.29349359E+04</rscale>
<asrwt>0</asrwt>
<pdfrwt beam="1">  1        2 0.19558971E+00 0.29349359E+04</pdfrwt>
<pdfrwt beam="2">  1       -2 0.26059407E+00 0.29349359E+04</pdfrwt>
<totfact> 0.81816418E-01</totfact>
</mgrwt>
</event>
<event>
 4    1  0.7144937E-008  0.1849511E+04  0.7816531E-02  0.8680405E-01
         -2   -1    0    0    0  501 -0.00000000000E+00  0.00000000000E+00  0.36396238209E+03  0.36396238209E+03  0.00000000000E+00 0. -1.
          2   -1    0    0  501    0  0.00000000000E+00 -0.00000000000E+00 -0.23496172909E+04  0.23496172909E+04  0.00000000000E+00 0.  1.
    2000013    1    1    2    0    0 -0.26114792294E+03  0.37564890981E+03 -0.11051604608E+04  0.14389892235E+04  0.80000000000E+03 0.  0.
   -2000013    1    1    2    0    0  0.26114792294E+03 -0.37564890981E+03 -0.88049444798E+03  0.12745904495E+04  0.80000000000E+03 0.  0.
<mgrwt>
<rscale>  0 0.18495105E+04</rscale>
<asrwt>0</asrwt>
<pdfrwt beam="2">  1        2 0.36147958E+00 0.18495105E+04</pdfrwt>
<pdfrwt beam="1">  1       -2 0.55994213E-01 0.18495105E+04</pdfrwt>
<totfact> 0.11970569E+01</totfact>
</mgrwt>
</event>
<event>
 4    1  0.7144937E-008  0.2310024E+04  0.7816531E-02  0.8473979E-01
         -1   -1    0    0    0  501 -0.00000000000E+00  0.00000000000E+00  0.15049504395E+04  0.15049504395E+04  0.00000000000E+00 0.  1.
          1   -1    0    0  501    0  0.00000000000E+00 -0.00000000000E+00 -0.88644282739E+03  0.88644282739E+03  0.00000000000E+00 0. -1.
    2000013    1    1    2    0    0  0.52209163976E+03  0.37727985718E+03 -0.23768651437E+03  0.10542365247E+04  0.80000000000E+03 0.  0.
   -2000013    1    1    2    0    0 -0.52209163976E+03 -0.37727985718E+03  0.85619412647E+03  0.13371567422E+04  0.80000000000E+03 0.  0.
<mgrwt>
<rscale>  0 0.23100238E+04</rscale>
<asrwt>0</asrwt>
<pdfrwt beam="2">  1        1 0.13637582E+00 0.23100238E+04</pdfrwt>
<pdfrwt beam="1">  1       -1 0.23153084E+00 0.23100238E+04</pdfrwt>
<totfact> 0.15547455E+00</totfact>
</mgrwt>
</event>
<event>
 4    1  0.7144937E-008  0.1900555E+04  0.7816531E-02  0.8654580E-01
         -2   -1    0    0    0  501 -0.00000000000E+00  0.00000000000E+00  0.42089235960E+03  0.42089235960E+03  0.00000000000E+00 0.  1.
          2   -1    0    0  501    0  0.00000000000E+00 -0.00000000000E+00 -0.21455058877E+04  0.21455058877E+04  0.00000000000E+00 0. -1.
    2000013    1    1    2    0    0 -0.28633743655E+03  0.18664096957E+03 -0.34598324985E+03  0.93623094815E+03  0.80000000000E+03 0.  0.
   -2000013    1    1    2    0    0  0.28633743655E+03 -0.18664096957E+03 -0.13786302782E+04  0.16301672991E+04  0.80000000000E+03 0.  0.
<mgrwt>
<rscale>  0 0.19005547E+04</rscale>
<asrwt>0</asrwt>
<pdfrwt beam="2">  1        2 0.33007783E+00 0.19005547E+04</pdfrwt>
<pdfrwt beam="1">  1       -2 0.64752670E-01 0.19005547E+04</pdfrwt>
<totfact> 0.11423000E+01</totfact>
</mgrwt>
</event>
<event>
 4    1  0.7144937E-008  0.1651704E+04  0.7816531E-02  0.8789399E-01
          2   -1    0    0  501    0  0.00000000000E+00  0.00000000000E+00  0.70731197550E+03  0.70731197550E+03  0.00000000000E+00 0.  1.
         -2   -1    0    0    0  501 -0.00000000000E+00 -0.00000000000E+00 -0.96425818834E+03  0.96425818834E+03  0.00000000000E+00 0. -1.
    2000013    1    1    2    0    0 -0.13389658291E+03  0.13880219296E+03 -0.19885831489E+03  0.84660437814E+03  0.80000000000E+03 0.  0.
   -2000013    1    1    2    0    0  0.13389658291E+03 -0.13880219296E+03 -0.58087897959E+02  0.82496578570E+03  0.80000000000E+03 0.  0.
<mgrwt>
<rscale>  0 0.16517038E+04</rscale>
<asrwt>0</asrwt>
<pdfrwt beam="1">  1        2 0.10881723E+00 0.16517038E+04</pdfrwt>
<pdfrwt beam="2">  1       -2 0.14834741E+00 0.16517038E+04</pdfrwt>
<totfact> 0.11909971E+01</totfact>
</mgrwt>
</event>
<event>
 4    1  0.7144937E-008  0.2203567E+04  0.7816531E-02  0.8516945E-01
          2   -1    0    0  501    0  0.00000000000E+00  0.00000000000E+00  0.22430399081E+04  0.22430399081E+04  0.00000000000E+00 0.  1.
         -2   -1    0    0    0  501 -0.00000000000E+00 -0.00000000000E+00 -0.54119717635E+03  0.54119717635E+03  0.00000000000E+00 0. -1.
    2000013    1    1    2    0    0 -0.72432394771E+03 -0.48393826439E+02  0.57717383608E+03  0.12247925460E+04  0.80000000000E+03 0.  0.
   -2000013    1    1    2    0    0  0.72432394771E+03  0.48393826439E+02  0.11246688957E+04  0.15594445385E+04  0.80000000000E+03 0.  0.
<mgrwt>
<rscale>  0 0.22035670E+04</rscale>
<asrwt>0</asrwt>
<pdfrwt beam="1">  1        2 0.34508306E+00 0.22035670E+04</pdfrwt>
<pdfrwt beam="2">  1       -2 0.83261106E-01 0.22035670E+04</pdfrwt>
<totfact> 0.56345823E+00</totfact>
</mgrwt>
</event>
<event>
 4    1  0.7144937E-008  0.1927555E+04  0.7816531E-02  0.8641261E-01
          1   -1    0    0  501    0  0.00000000000E+00  0.00000000000E+00  0.13941347139E+04  0.13941347139E+04  0.00000000000E+00 0.  1.
         -1   -1    0    0    0  501 -0.00000000000E+00 -0.00000000000E+00 -0.66626761999E+03  0.66626761999E+03  0.00000000000E+00 0. -1.
    2000013    1    1    2    0    0 -0.30162491644E+03  0.35428043474E+03  0.76366972005E+02  0.92861409157E+03  0.80000000000E+03 0.  0.
   -2000013    1    1    2    0    0  0.30162491644E+03 -0.35428043474E+03  0.65150012194E+03  0.11317882424E+04  0.80000000000E+03 0.  0.
<mgrwt>
<rscale>  0 0.19275547E+04</rscale>
<asrwt>0</asrwt>
<pdfrwt beam="1">  1        1 0.21448226E+00 0.19275547E+04</pdfrwt>
<pdfrwt beam="2">  1       -1 0.10250271E+00 0.19275547E+04</pdfrwt>
<totfact> 0.65183473E+00</totfact>
</mgrwt>
</event>
<event>
 4    1  0.7144937E-008  0.2776366E+04  0.7816531E-02  0.8310643E-01
         -2   -1    0    0    0  501 -0.00000000000E+00  0.00000000000E+00  0.44293035857E+03  0.44293035857E+03  0.00000000000E+00 0. -1.
          2   -1    0    0  501    0  0.00000000000E+00 -0.00000000000E+00 -0.43506900230E+04  0.43506900230E+04  0.00000000000E+00 0.  1.
    2000013    1    1    2    0    0  0.73002020735E+03  0.31782162804E+03 -0.33492225151E+04  0.35342936418E+04  0.80000000000E+03 0.  0.
   -2000013    1    1    2    0    0 -0.73002020735E+03 -0.31782162804E+03 -0.55853714928E+03  0.12593267398E+04  0.80000000000E+03 0.  0.
<mgrwt>
<rscale>  0 0.27763665E+04</rscale>
<asrwt>0</asrwt>
<pdfrwt beam="2">  1        2 0.66933695E+00 0.27763665E+04</pdfrwt>
<pdfrwt beam="1">  1       -2 0.68143130E-01 0.27763665E+04</pdfrwt>
<totfact> 0.29354433E-01</totfact>
</mgrwt>
</event>
<event>
 4    1  0.7144937E-008  0.1739737E+04  0.7816531E-02  0.8739020E-01
          2   -1    0    0  501    0  0.00000000000E+00  0.00000000000E+00  0.67658534702E+03  0.67658534702E+03  0.00000000000E+00 0.  1.
         -2   -1    0    0    0  501 -0.00000000000E+00 -0.00000000000E+00 -0.11183678781E+04  0.11183678781E+04  0.00000000000E+00 0. -1.
    2000013    1    1    2    0    0 -0.27931823115E+03  0.17398179681E+03 -0.12642675192E+03  0.87422655157E+03  0.80000000000E+03 0.  0.
   -2000013    1    1    2    0    0  0.27931823115E+03 -0.17398179681E+03 -0.31535577912E+03  0.92072667350E+03  0.80000000000E+03 0.  0.
<mgrwt>
<rscale>  0 0.17397371E+04</rscale>
<asrwt>0</asrwt>
<pdfrwt beam="1">  1        2 0.10409006E+00 0.17397371E+04</pdfrwt>
<pdfrwt beam="2">  1       -2 0.17205659E+00 0.17397371E+04</pdfrwt>
<totfact> 0.83550707E+00</totfact>
</mgrwt>
</event>
<event>
 4    1  0.7144937E-008  0.2958699E+04  0.7816531E-02  0.8255624E-01
         -2   -1    0    0    0  501 -0.00000000000E+00  0.00000000000E+00  0.95713629625E+03  0.95713629625E+03  0.00000000000E+00 0. -1.
          2   -1    0    0  501    0  0.00000000000E+00 -0.00000000000E+00 -0.22864818128E+04  0.22864818128E+04  0.00000000000E+00 0.  1.
    2000013    1    1    2    0    0  0.56554475581E+03 -0.93899594077E+03 -0.18953223216E+02  0.13571711286E+04  0.80000000000E+03 0.  0.
   -2000013    1    1    2    0    0 -0.56554475581E+03  0.93899594077E+03 -0.13103922933E+04  0.18864469804E+04  0.80000000000E+03 0.  0.
<mgrwt>
<rscale>  0 0.29586989E+04</rscale>
<asrwt>0</asrwt>
<pdfrwt beam="2">  1        2 0.35176643E+00 0.29586989E+04</pdfrwt>
<pdfrwt beam="1">  1       -2 0.14725174E+00 0.29586989E+04</pdfrwt>
<totfact> 0.12469704E+00</totfact>
</mgrwt>
</event>
<event>
 4    1  0.7144937E-008  0.2005183E+04  0.7816531E-02  0.8604201E-01
         -2   -1    0    0    0  501 -0.00000000000E+00  0.00000000000E+00  0.78176756158E+03  0.78176756158E+03  0.00000000000E+00 0. -1.
          2   -1    0    0  501    0  0.00000000000E+00 -0.00000000000E+00 -0.12857904156E+04  0.12857904156E+04  0.00000000000E+00 0.  1.
    2000013    1    1    2    0    0 -0.59942362392E+03 -0.68907437201E+01 -0.33076178779E+03  0.10529765066E+04  0.80000000000E+03 0.  0.
   -2000013    1    1    2    0    0  0.59942362392E+03  0.68907437201E+01 -0.17326106621E+03  0.10145814705E+04  0.80000000000E+03 0.  0.
<mgrwt>
<rscale>  0 0.20051825E+04</rscale>
<asrwt>0</asrwt>
<pdfrwt beam="2">  1        2 0.19781391E+00 0.20051825E+04</pdfrwt>
<pdfrwt beam="1">  1       -2 0.12027193E+00 0.20051825E+04</pdfrwt>
<totfact> 0.82643481E+00</totfact>
</mgrwt>
</event>
<event>
 4    1  0.7144937E-008  0.2523117E+04  0.7816531E-02  0.8394796E-01
         -2   -1    0    0    0  501 -0.00000000000E+00  0.00000000000E+00  0.10025166294E+04  0.10025166294E+04  0.00000000000E+00 0. -1.
          2   -1    0    0  501    0  0.00000000000E+00 -0.00000000000E+00 -0.15875348991E+04  0.15875348991E+04  0.00000000000E+00 0.  1.
    2000013    1    1    2    0    0  0.59270879142E+03  0.77279421407E+03 -0.23613854036E+03  0.12822932656E+04  0.80000000000E+03 0.  0.
   -2000013    1    1    2    0    0 -0.59270879142E+03 -0.77279421407E+03 -0.34887972931E+03  0.13077582629E+04  0.80000000000E+03 0.  0.
<mgrwt>
<rscale>  0 0.25231172E+04</rscale>
<asrwt>0</asrwt>
<pdfrwt beam="2">  1        2 0.24423614E+00 0.25231172E+04</pdfrwt>
<pdfrwt beam="1">  1       -2 0.15423333E+00 0.25231172E+04</pdfrwt>
<totfact> 0.28069660E+00</totfact>
</mgrwt>
</event>
<event>
 4    1  0.7144937E-008  0.2234496E+04  0.7816531E-02  0.8504206E-01
          2   -1    0    0  501    0  0.00000000000E+00  0.00000000000E+00  0.19960884610E+04  0.19960884610E+04  0.00000000000E+00 0.  1.
         -2   -1    0    0    0  501 -0.00000000000E+00 -0.00000000000E+00 -0.62534463680E+03  0.62534463680E+03  0.00000000000E+00 0. -1.
    2000013    1    1    2    0    0  0.30223894621E+03 -0.21297804931E+03  0.14909659206E+04  0.17319605672E+04  0.80000000000E+03 0.  0.
   -2000013    1    1    2    0    0 -0.30223894621E+03  0.21297804931E+03 -0.12022209643E+03  0.88947253053E+03  0.80000000000E+03 0.  0.
<mgrwt>
<rscale>  0 0.22344961E+04</rscale>
<asrwt>0</asrwt>
<pdfrwt beam="1">  1        2 0.30709053E+00 0.22344961E+04</pdfrwt>
<pdfrwt beam="2">  1       -2 0.96206868E-01 0.22344961E+04</pdfrwt>
<totfact> 0.55375027E+00</totfact>
</mgrwt>
</event>
<event>
 4    1  0.7144937E-008  0.2522695E+04  0.7816531E-02  0.8394945E-01
         -2   -1    0    0    0  501 -0.00000000000E+00  0.00000000000E+00  0.34237619068E+03  0.34237619068E+03  0.00000000000E+00 0. -1.
          2   -1    0    0  501    0  0.00000000000E+00 -0.00000000000E+00 -0.46469270104E+04  0.46469270104E+04  0.00000000000E+00 0.  1.
    2000013    1    1    2    0    0  0.27194031305E+03 -0.65198394560E+03 -0.82265879871E+03  0.13475170122E+04  0.80000000000E+03 0.  0.
   -2000013    1    1    2    0    0 -0.27194031305E+03  0.65198394560E+03 -0.34818920210E+04  0.36417861889E+04  0.80000000000E+03 0.  0.
<mgrwt>
<rscale>  0 0.25226947E+04</rscale>
<asrwt>0</asrwt>
<pdfrwt beam="2">  1        2 0.71491182E+00 0.25226947E+04</pdfrwt>
<pdfrwt beam="1">  1       -2 0.52673262E-01 0.25226947E+04</pdfrwt>
<totfact> 0.26618321E-01</totfact>
</mgrwt>
</event>
<event>
 4    1  0.7144937E-008  0.2033032E+04  0.7816531E-02  0.8591331E-01
         -2   -1    0    0    0  501 -0.00000000000E+00  0.00000000000E+00  0.32498282883E+03  0.32498282883E+03  0.00000000000E+00 0. -1.
          2   -1    0    0  501    0  0.00000000000E+00 -0.00000000000E+00 -0.31795679736E+04  0.31795679736E+04  0.00000000000E+00 0.  1.
    2000013    1    1    2    0    0  0.51319836326E+03 -0.26817241623E+03 -0.10120881673E+04  0.14140761872E+04  0.80000000000E+03 0.  0.
   -2000013    1    1    2    0    0 -0.51319836326E+03  0.26817241623E+03 -0.18424969774E+04  0.20904746152E+04  0.80000000000E+03 0.  0.
<mgrwt>
<rscale>  0 0.20330322E+04</rscale>
<asrwt>0</asrwt>
<pdfrwt beam="2">  1        2 0.48916430E+00 0.20330322E+04</pdfrwt>
<pdfrwt beam="1">  1       -2 0.49997359E-01 0.20330322E+04</pdfrwt>
<totfact> 0.47037549E+00</totfact>
</mgrwt>
</event>
<event>
 4    1  0.7144937E-008  0.2983839E+04  0.7816531E-02  0.8248361E-01
          2   -1    0    0  501    0  0.00000000000E+00  0.00000000000E+00  0.17522766348E+04  0.17522766348E+04  0.00000000000E+00 0.  1.
         -2   -1    0    0    0  501 -0.00000000000E+00 -0.00000000000E+00 -0.12702466788E+04  0.12702466788E+04  0.00000000000E+00 0. -1.
    2000013    1    1    2    0    0  0.60496722887E+03 -0.55532821838E+03 -0.72606063755E+03  0.13570330974E+04  0.80000000000E+03 0.  0.
   -2000013    1    1    2    0    0 -0.60496722887E+03  0.55532821838E+03  0.12080905935E+04  0.16654902162E+04  0.80000000000E+03 0.  0.
<mgrwt>
<rscale>  0 0.29838389E+04</rscale>
<asrwt>0</asrwt>
<pdfrwt beam="1">  1        2 0.26958102E+00 0.29838389E+04</pdfrwt>
<pdfrwt beam="2">  1       -2 0.19542257E+00 0.29838389E+04</pdfrwt>
<totfact> 0.11211546E+00</totfact>
</mgrwt>
</event>
<event>
 4    1  0.7144937E-008  0.1794819E+04  0.7816531E-02  0.8709059E-01
         -2   -1    0    0    0  501 -0.00000000000E+00  0.00000000000E+00  0.83996149931E+03  0.83996149931E+03  0.00000000000E+00 0. -1.
          2   -1    0    0  501    0  0.00000000000E+00 -0.00000000000E+00 -0.95878696310E+03  0.95878696310E+03  0.00000000000E+00 0.  1.
    2000013    1    1    2    0    0  0.21887420458E+03 -0.26117919309E+03  0.16293698582E+03  0.88468579150E+03  0.80000000000E+03 0.  0.
   -2000013    1    1    2    0    0 -0.21887420458E+03  0.26117919309E+03 -0.28176244961E+03  0.91406267091E+03  0.80000000000E+03 0.  0.
<mgrwt>
<rscale>  0 0.17948194E+04</rscale>
<asrwt>0</asrwt>
<pdfrwt beam="2">  1        2 0.14750569E+00 0.17948194E+04</pdfrwt>
<pdfrwt beam="1">  1       -2 0.12922485E+00 0.17948194E+04</pdfrwt>
<totfact> 0.11156529E+01</totfact>
</mgrwt>
</event>
<event>
 4    1  0.7144937E-008  0.2019943E+04  0.7816531E-02  0.8597353E-01
         -2   -1    0    0    0  501 -0.00000000000E+00  0.00000000000E+00  0.12278199873E+04  0.12278199873E+04  0.00000000000E+00 0. -1.
          2   -1    0    0  501    0  0.00000000000E+00 -0.00000000000E+00 -0.83077507777E+03  0.83077507777E+03  0.00000000000E+00 0.  1.
    2000013    1    1    2    0    0 -0.54360762526E+03  0.61641333600E+02 -0.91050711962E+02  0.97344703831E+03  0.80000000000E+03 0.  0.
   -2000013    1    1    2    0    0  0.54360762526E+03 -0.61641333600E+02  0.48809562149E+03  0.10851480268E+04  0.80000000000E+03 0.  0.
<mgrwt>
<rscale>  0 0.20199428E+04</rscale>
<asrwt>0</asrwt>
<pdfrwt beam="2">  1        2 0.12781155E+00 0.20199428E+04</pdfrwt>
<pdfrwt beam="1">  1       -2 0.18889538E+00 0.20199428E+04</pdfrwt>
<totfact> 0.47864660E+00</totfact>
</mgrwt>
</event>
<event>
 4    1  0.7144937E-008  0.1968860E+04  0.7816531E-02  0.8621320E-01
          2   -1    0    0  501    0  0.00000000000E+00  0.00000000000E+00  0.13159574392E+04  0.13159574392E+04  0.00000000000E+00 0.  1.
         -2   -1    0    0    0  501 -0.00000000000E+00 -0.00000000000E+00 -0.73642357743E+03  0.73642357743E+03  0.00000000000E+00 0. -1.
    2000013    1    1    2    0    0 -0.11991574002E+03 -0.53771677958E+03  0.45649882005E+03  0.10732708384E+04  0.80000000000E+03 0.  0.
   -2000013    1    1    2    0    0  0.11991574002E+03  0.53771677958E+03  0.12303504175E+03  0.97911017830E+03  0.80000000000E+03 0.  0.
<mgrwt>
<rscale>  0 0.19688597E+04</rscale>
<asrwt>0</asrwt>
<pdfrwt beam="1">  1        2 0.20245499E+00 0.19688597E+04</pdfrwt>
<pdfrwt beam="2">  1       -2 0.11329593E+00 0.19688597E+04</pdfrwt>
<totfact> 0.92180038E+00</totfact>
</mgrwt>
</event>
<event>
 4    1  0.7144937E-008  0.1921408E+04  0.7816531E-02  0.8644273E-01
         -2   -1    0    0    0  501 -0.00000000000E+00  0.00000000000E+00  0.79794285314E+03  0.79794285314E+03  0.00000000000E+00 0. -1.
          2   -1    0    0  501    0  0.00000000000E+00 -0.00000000000E+00 -0.11566640029E+04  0.11566640029E+04  0.00000000000E+00 0.  1.
    2000013    1    1    2    0    0  0.47534450768E+03 -0.51390058422E+02 -0.41653802299E+03  0.10208316530E+04  0.80000000000E+03 0.  0.
   -2000013    1    1    2    0    0 -0.47534450768E+03  0.51390058422E+02  0.57816873219E+02  0.93377520310E+03  0.80000000000E+03 0.  0.
<mgrwt>
<rscale>  0 0.19214076E+04</rscale>
<asrwt>0</asrwt>
<pdfrwt beam="2">  1        2 0.17794831E+00 0.19214076E+04</pdfrwt>
<pdfrwt beam="1">  1       -2 0.12276044E+00 0.19214076E+04</pdfrwt>
<totfact> 0.94364798E+00</totfact>
</mgrwt>
</event>
<event>
 4    1  0.7144937E-008  0.1770799E+04  0.7816531E-02  0.8721984E-01
          2   -1    0    0  501    0  0.00000000000E+00  0.00000000000E+00  0.37467982156E+04  0.37467982156E+04  0.00000000000E+00 0.  1.
         -2   -1    0    0    0  501 -0.00000000000E+00 -0.00000000000E+00 -0.20922733377E+03  0.20922733377E+03  0.00000000000E+00 0. -1.
    2000013    1    1    2    0    0  0.12772611250E+03 -0.32484129860E+03  0.21008741761E+04  0.22749743147E+04  0.80000000000E+03 0.  0.
   -2000013    1    1    2    0    0 -0.12772611250E+03  0.32484129860E+03  0.14366967058E+04  0.16810512346E+04  0.80000000000E+03 0.  0.
<mgrwt>
<rscale>  0 0.17707994E+04</rscale>
<asrwt>0</asrwt>
<pdfrwt beam="1">  1        2 0.57643044E+00 0.17707994E+04</pdfrwt>
<pdfrwt beam="2">  1       -2 0.32188823E-01 0.17707994E+04</pdfrwt>
<totfact> 0.46336887E+00</totfact>
</mgrwt>
</event>
<event>
 4    1  0.7144937E-008  0.2759976E+04  0.7816531E-02  0.8315803E-01
         -1   -1    0    0    0  501 -0.00000000000E+00  0.00000000000E+00  0.75674937370E+03  0.75674937370E+03  0.00000000000E+00 0. -1.
          1   -1    0    0  501    0  0.00000000000E+00 -0.00000000000E+00 -0.25165084477E+04  0.25165084477E+04  0.00000000000E+00 0.  1.
    2000013    1    1    2    0    0  0.11426792184E+03  0.64344959561E+03  0.20532293473E+03  0.10532056056E+04  0.80000000000E+03 0.  0.
   -2000013    1    1    2    0    0 -0.11426792184E+03 -0.64344959561E+03 -0.19650820087E+04  0.22200522158E+04  0.80000000000E+03 0.  0.
<mgrwt>
<rscale>  0 0.27599755E+04</rscale>
<asrwt>0</asrwt>
<pdfrwt beam="2">  1        1 0.38715514E+00 0.27599755E+04</pdfrwt>
<pdfrwt beam="1">  1       -1 0.11642298E+00 0.27599755E+04</pdfrwt>
<totfact> 0.76344687E-01</totfact>
</mgrwt>
</event>
<event>
 4    1  0.7144937E-008  0.1726049E+04  0.7816531E-02  0.8746645E-01
          2   -1    0    0  501    0  0.00000000000E+00  0.00000000000E+00  0.13081538075E+04  0.13081538075E+04  0.00000000000E+00 0. -1.
         -2   -1    0    0    0  501 -0.00000000000E+00 -0.00000000000E+00 -0.56936083268E+03  0.56936083268E+03  0.00000000000E+00 0.  1.
    2000013    1    1    2    0    0 -0.65461207424E+02 -0.28959089899E+03  0.50981133222E+03  0.99400988572E+03  0.80000000000E+03 0.  0.
   -2000013    1    1    2    0    0  0.65461207424E+02  0.28959089899E+03  0.22898164256E+03  0.88350475442E+03  0.80000000000E+03 0.  0.
<mgrwt>
<rscale>  0 0.17260493E+04</rscale>
<asrwt>0</asrwt>
<pdfrwt beam="1">  1        2 0.20125443E+00 0.17260493E+04</pdfrwt>
<pdfrwt beam="2">  1       -2 0.87593975E-01 0.17260493E+04</pdfrwt>
<totfact> 0.17467783E+01</totfact>
</mgrwt>
</event>
<event>
 4    1  0.7144937E-008  0.2393423E+04  0.7816531E-02  0.8441970E-01
         -2   -1    0    0    0  501 -0.00000000000E+00  0.00000000000E+00  0.14850885081E+04  0.14850885081E+04  0.00000000000E+00 0. -1.
          2   -1    0    0  501    0  0.00000000000E+00 -0.00000000000E+00 -0.96433224465E+03  0.96433224465E+03  0.00000000000E+00 0.  1.
    2000013    1    1    2    0    0 -0.35325139855E+03  0.66496159152E+03  0.74598836702E+03  0.13279529783E+04  0.80000000000E+03 0.  0.
   -2000013    1    1    2    0    0  0.35325139855E+03 -0.66496159152E+03 -0.22523210355E+03  0.11214677745E+04  0.80000000000E+03 0.  0.
<mgrwt>
<rscale>  0 0.23934233E+04</rscale>
<asrwt>0</asrwt>
<pdfrwt beam="2">  1        2 0.14835881E+00 0.23934233E+04</pdfrwt>
<pdfrwt beam="1">  1       -2 0.22847516E+00 0.23934233E+04</pdfrwt>
<totfact> 0.20887441E+00</totfact>
</mgrwt>
</event>
<event>
 4    1  0.7144937E-008  0.2039440E+04  0.7816531E-02  0.8588400E-01
         -2   -1    0    0    0  501 -0.00000000000E+00  0.00000000000E+00  0.55280118501E+03  0.55280118501E+03  0.00000000000E+00 0. -1.
          2   -1    0    0  501    0  0.00000000000E+00 -0.00000000000E+00 -0.18810177148E+04  0.18810177148E+04  0.00000000000E+00 0.  1.
    2000013    1    1    2    0    0 -0.21321326486E+03 -0.56561999540E+03 -0.44263184980E+03  0.10960423486E+04  0.80000000000E+03 0.  0.
   -2000013    1    1    2    0    0  0.21321326486E+03  0.56561999540E+03 -0.88558467999E+03  0.13377765512E+04  0.80000000000E+03 0.  0.
<mgrwt>
<rscale>  0 0.20394399E+04</rscale>
<asrwt>0</asrwt>
<pdfrwt beam="2">  1        2 0.28938734E+00 0.20394399E+04</pdfrwt>
<pdfrwt beam="1">  1       -2 0.85046335E-01 0.20394399E+04</pdfrwt>
<totfact> 0.86699912E+00</totfact>
</mgrwt>
</event>
<event>
 4    1  0.7144937E-008  0.2765791E+04  0.7816531E-02  0.8313968E-01
          1   -1    0    0  501    0  0.00000000000E+00  0.00000000000E+00  0.15109380988E+04  0.15109380988E+04  0.00000000000E+00 0.  1.
         -1   -1    0    0    0  501 -0.00000000000E+00 -0.00000000000E+00 -0.12657032998E+04  0.12657032998E+04  0.00000000000E+00 0. -1.
    2000013    1    1    2    0    0 -0.11508069680E+03 -0.10770184994E+04 -0.19355773686E+03  0.13603959028E+04  0.80000000000E+03 0.  0.
   -2000013    1    1    2    0    0  0.11508069680E+03  0.10770184994E+04  0.43879253587E+03  0.14162454958E+04  0.80000000000E+03 0.  0.
<mgrwt>
<rscale>  0 0.27657905E+04</rscale>
<asrwt>0</asrwt>
<pdfrwt beam="1">  1        1 0.23245201E+00 0.27657905E+04</pdfrwt>
<pdfrwt beam="2">  1       -1 0.19472358E+00 0.27657905E+04</pdfrwt>
<totfact> 0.91398211E-01</totfact>
</mgrwt>
</event>
<event>
 4    1  0.7144937E-008  0.2033501E+04  0.7816531E-02  0.8591116E-01
          2   -1    0    0  501    0  0.00000000000E+00  0.00000000000E+00  0.26379927350E+04  0.26379927350E+04  0.00000000000E+00 0.  1.
         -2   -1    0    0    0  501 -0.00000000000E+00 -0.00000000000E+00 -0.39188183563E+03  0.39188183563E+03  0.00000000000E+00 0. -1.
    2000013    1    1    2    0    0 -0.36576190009E+03  0.49477374761E+03  0.13067440375E+04  0.16511095689E+04  0.80000000000E+03 0.  0.
   -2000013    1    1    2    0    0  0.36576190009E+03 -0.49477374761E+03  0.93936686184E+03  0.13787650017E+04  0.80000000000E+03 0.  0.
<mgrwt>
<rscale>  0 0.20335009E+04</rscale>
<asrwt>0</asrwt>
<pdfrwt beam="1">  1        2 0.40584503E+00 0.20335009E+04</pdfrwt>
<pdfrwt beam="2">  1       -2 0.60289515E-01 0.20335009E+04</pdfrwt>
<totfact> 0.68711908E+00</totfact>
</mgrwt>
</event>
<event>
 4    1  0.7144937E-008  0.2786226E+04  0.7816531E-02  0.8307558E-01
         -2   -1    0    0    0  501 -0.00000000000E+00  0.00000000000E+00  0.16576049868E+04  0.16576049868E+04  0.00000000000E+00 0. -1.
          2   -1    0    0  501    0  0.00000000000E+00 -0.00000000000E+00 -0.11708238576E+04  0.11708238576E+04  0.00000000000E+00 0.  1.
    2000013    1    1    2    0    0 -0.59971185547E+03 -0.96738916205E+03  0.16971463106E+03  0.14015345720E+04  0.80000000000E+03 0.  0.
   -2000013    1    1    2    0    0  0.59971185547E+03  0.96738916205E+03  0.31706649815E+03  0.14268942724E+04  0.80000000000E+03 0.  0.
<mgrwt>
<rscale>  0 0.27862257E+04</rscale>
<asrwt>0</asrwt>
<pdfrwt beam="2">  1        2 0.18012675E+00 0.27862257E+04</pdfrwt>
<pdfrwt beam="1">  1       -2 0.25501615E+00 0.27862257E+04</pdfrwt>
<totfact> 0.10283337E+00</totfact>
</mgrwt>
</event>
<event>
 4    1  0.7144937E-008  0.2590664E+04  0.7816531E-02  0.8371379E-01
          2   -1    0    0  501    0  0.00000000000E+00  0.00000000000E+00  0.19490985780E+04  0.19490985780E+04  0.00000000000E+00 0.  1.
         -2   -1    0    0    0  501 -0.00000000000E+00 -0.00000000000E+00 -0.86085150237E+03  0.86085150237E+03  0.00000000000E+00 0. -1.
    2000013    1    1    2    0    0 -0.73259649976E+03 -0.28953821170E+03 -0.15658934214E+03  0.11336005600E+04  0.80000000000E+03 0.  0.
   -2000013    1    1    2    0    0  0.73259649976E+03  0.28953821170E+03  0.12448364177E+04  0.16763495204E+04  0.80000000000E+03 0.  0.
<mgrwt>
<rscale>  0 0.25906636E+04</rscale>
<asrwt>0</asrwt>
<pdfrwt beam="1">  1        2 0.29986132E+00 0.25906636E+04</pdfrwt>
<pdfrwt beam="2">  1       -2 0.13243869E+00 0.25906636E+04</pdfrwt>
<totfact> 0.26154245E+00</totfact>
</mgrwt>
</event>
<event>
 4    1  0.7144937E-008  0.3910122E+04  0.7816531E-02  0.8022927E-01
          2   -1    0    0  501    0  0.00000000000E+00  0.00000000000E+00  0.31878971021E+04  0.31878971021E+04  0.00000000000E+00 0.  1.
         -2   -1    0    0    0  501 -0.00000000000E+00 -0.00000000000E+00 -0.11989921793E+04  0.11989921793E+04  0.00000000000E+00 0. -1.
    2000013    1    1    2    0    0 -0.91953030594E+03 -0.12316464814E+04  0.20102650694E+04  0.26539884491E+04  0.80000000000E+03 0.  0.
   -2000013    1    1    2    0    0  0.91953030594E+03  0.12316464814E+04 -0.21360146560E+02  0.17329008323E+04  0.80000000000E+03 0.  0.
<mgrwt>
<rscale>  0 0.39101221E+04</rscale>
<asrwt>0</asrwt>
<pdfrwt beam="1">  1        2 0.49044571E+00 0.39101221E+04</pdfrwt>
<pdfrwt beam="2">  1       -2 0.18446034E+00 0.39101221E+04</pdfrwt>
<totfact> 0.17713627E-01</totfact>
</mgrwt>
</event>
<event>
 4    1  0.7144937E-008  0.2175226E+04  0.7816531E-02  0.8528811E-01
         -2   -1    0    0    0  501 -0.00000000000E+00  0.00000000000E+00  0.29161361515E+03  0.29161361515E+03  0.00000000000E+00 0. -1.
          2   -1    0    0  501    0  0.00000000000E+00 -0.00000000000E+00 -0.40564002616E+04  0.40564002616E+04  0.00000000000E+00 0.  1.
    2000013    1    1    2    0    0  0.69955595398E+03  0.19300156429E+02 -0.14215637212E+04  0.17749913921E+04  0.80000000000E+03 0.  0.
   -2000013    1    1    2    0    0 -0.69955595398E+03 -0.19300156429E+02 -0.23432229253E+04  0.25730224846E+04  0.80000000000E+03 0.  0.
<mgrwt>
<rscale>  0 0.21752255E+04</rscale>
<asrwt>0</asrwt>
<pdfrwt beam="2">  1        2 0.62406155E+00 0.21752255E+04</pdfrwt>
<pdfrwt beam="1">  1       -2 0.44863635E-01 0.21752255E+04</pdfrwt>
<totfact> 0.13383764E+00</totfact>
</mgrwt>
</event>
<event>
 4    1  0.7144937E-008  0.1823205E+04  0.7816531E-02  0.8694056E-01
         -2   -1    0    0    0  501 -0.00000000000E+00  0.00000000000E+00  0.50665506806E+03  0.50665506806E+03  0.00000000000E+00 0. -1.
          2   -1    0    0  501    0  0.00000000000E+00 -0.00000000000E+00 -0.16402065294E+04  0.16402065294E+04  0.00000000000E+00 0.  1.
    2000013    1    1    2    0    0  0.36321584569E+03 -0.45615222710E+02 -0.28561578765E+03  0.92497723067E+03  0.80000000000E+03 0.  0.
   -2000013    1    1    2    0    0 -0.36321584569E+03  0.45615222710E+02 -0.84793567373E+03  0.12218843668E+04  0.80000000000E+03 0.  0.
<mgrwt>
<rscale>  0 0.18232048E+04</rscale>
<asrwt>0</asrwt>
<pdfrwt beam="2">  1        2 0.25233947E+00 0.18232048E+04</pdfrwt>
<pdfrwt beam="1">  1       -2 0.77946933E-01 0.18232048E+04</pdfrwt>
<totfact> 0.14621243E+01</totfact>
</mgrwt>
</event>
<event>
 4    1  0.7144937E-008  0.2548751E+04  0.7816531E-02  0.8385821E-01
          2   -1    0    0  501    0  0.00000000000E+00  0.00000000000E+00  0.31200196355E+04  0.31200196355E+04  0.00000000000E+00 0.  1.
         -2   -1    0    0    0  501 -0.00000000000E+00 -0.00000000000E+00 -0.52051997769E+03  0.52051997769E+03  0.00000000000E+00 0. -1.
    2000013    1    1    2    0    0  0.67613216698E+03 -0.72400533597E+03  0.13738888168E+04  0.18732081878E+04  0.80000000000E+03 0.  0.
   -2000013    1    1    2    0    0 -0.67613216698E+03  0.72400533597E+03  0.12256108410E+04  0.17673314254E+04  0.80000000000E+03 0.  0.
<mgrwt>
<rscale>  0 0.25487507E+04</rscale>
<asrwt>0</asrwt>
<pdfrwt beam="1">  1        2 0.48000301E+00 0.25487507E+04</pdfrwt>
<pdfrwt beam="2">  1       -2 0.80079999E-01 0.25487507E+04</pdfrwt>
<totfact> 0.17903348E+00</totfact>
</mgrwt>
</event>
<event>
 4    1  0.7144937E-008  0.3212213E+04  0.7816531E-02  0.8185599E-01
         -2   -1    0    0    0  501 -0.00000000000E+00  0.00000000000E+00  0.16302552542E+04  0.16302552542E+04  0.00000000000E+00 0. -1.
          2   -1    0    0  501    0  0.00000000000E+00 -0.00000000000E+00 -0.15823158031E+04  0.15823158031E+04  0.00000000000E+00 0.  1.
    2000013    1    1    2    0    0  0.10031627375E+04 -0.33047980042E+03 -0.88389029133E+03  0.15927380272E+04  0.80000000000E+03 0.  0.
   -2000013    1    1    2    0    0 -0.10031627375E+04  0.33047980042E+03  0.93182974245E+03  0.16198330300E+04  0.80000000000E+03 0.  0.
<mgrwt>
<rscale>  0 0.32122134E+04</rscale>
<asrwt>0</asrwt>
<pdfrwt beam="2">  1        2 0.24343320E+00 0.32122134E+04</pdfrwt>
<pdfrwt beam="1">  1       -2 0.25080850E+00 0.32122134E+04</pdfrwt>
<totfact> 0.60975545E-01</totfact>
</mgrwt>
</event>
<event>
 4    1  0.7144937E-008  0.2482805E+04  0.7816531E-02  0.8409137E-01
         -2   -1    0    0    0  501 -0.00000000000E+00  0.00000000000E+00  0.16030292032E+04  0.16030292032E+04  0.00000000000E+00 0. -1.
          2   -1    0    0  501    0  0.00000000000E+00 -0.00000000000E+00 -0.96135534930E+03  0.96135534930E+03  0.00000000000E+00 0.  1.
    2000013    1    1    2    0    0 -0.58350305298E+03 -0.70071599392E+03  0.59332736741E+03  0.13503762742E+04  0.80000000000E+03 0.  0.
   -2000013    1    1    2    0    0  0.58350305298E+03  0.70071599392E+03  0.48346486472E+02  0.12140082783E+04  0.80000000000E+03 0.  0.
<mgrwt>
<rscale>  0 0.24828054E+04</rscale>
<asrwt>0</asrwt>
<pdfrwt beam="2">  1        2 0.14790082E+00 0.24828054E+04</pdfrwt>
<pdfrwt beam="1">  1       -2 0.24661988E+00 0.24828054E+04</pdfrwt>
<totfact> 0.16067297E+00</totfact>
</mgrwt>
</event>
<event>
 4    1  0.7144937E-008  0.2368238E+04  0.7816531E-02  0.8451491E-01
          2   -1    0    0  501    0  0.00000000000E+00  0.00000000000E+00  0.11993987007E+04  0.11993987007E+04  0.00000000000E+00 0.  1.
         -2   -1    0    0    0  501 -0.00000000000E+00 -0.00000000000E+00 -0.11690343015E+04  0.11690343015E+04  0.00000000000E+00 0. -1.
    2000013    1    1    2    0    0 -0.84285893992E+03  0.21882825512E+03  0.77164906057E+02  0.11850111479E+04  0.80000000000E+03 0.  0.
   -2000013    1    1    2    0    0  0.84285893992E+03 -0.21882825512E+03 -0.46800506885E+02  0.11834218543E+04  0.80000000000E+03 0.  0.
<mgrwt>
<rscale>  0 0.23682384E+04</rscale>
<asrwt>0</asrwt>
<pdfrwt beam="1">  1        2 0.18452288E+00 0.23682384E+04</pdfrwt>
<pdfrwt beam="2">  1       -2 0.17985143E+00 0.23682384E+04</pdfrwt>
<totfact> 0.31063611E+00</totfact>
</mgrwt>
</event>
<event>
 4    1  0.7144937E-008  0.1888920E+04  0.7816531E-02  0.8660391E-01
          2   -1    0    0  501    0  0.00000000000E+00  0.00000000000E+00  0.66324477088E+03  0.66324477088E+03  0.00000000000E+00 0.  1.
         -2   -1    0    0    0  501 -0.00000000000E+00 -0.00000000000E+00 -0.13449102231E+04  0.13449102231E+04  0.00000000000E+00 0. -1.
    2000013    1    1    2    0    0  0.61010365847E+00 -0.48562845724E+03 -0.47601797530E+03  0.10499659440E+04  0.80000000000E+03 0.  0.
   -2000013    1    1    2    0    0 -0.61010365847E+00  0.48562845724E+03 -0.20564747688E+03  0.95818904996E+03  0.80000000000E+03 0.  0.
<mgrwt>
<rscale>  0 0.18889200E+04</rscale>
<asrwt>0</asrwt>
<pdfrwt beam="1">  1        2 0.10203766E+00 0.18889200E+04</pdfrwt>
<pdfrwt beam="2">  1       -2 0.20690926E+00 0.18889200E+04</pdfrwt>
<totfact> 0.49245406E+00</totfact>
</mgrwt>
</event>
<event>
 4    1  0.7144937E-008  0.3762187E+04  0.7816531E-02  0.8054318E-01
          2   -1    0    0  501    0  0.00000000000E+00  0.00000000000E+00  0.27686674127E+04  0.27686674127E+04  0.00000000000E+00 0.  1.
         -2   -1    0    0    0  501 -0.00000000000E+00 -0.00000000000E+00 -0.12780565735E+04  0.12780565735E+04  0.00000000000E+00 0. -1.
    2000013    1    1    2    0    0 -0.88559610581E+03  0.14434032360E+04  0.93413978704E+03  0.20929191351E+04  0.80000000000E+03 0.  0.
   -2000013    1    1    2    0    0  0.88559610581E+03 -0.14434032360E+04  0.55647105214E+03  0.19538048511E+04  0.80000000000E+03 0.  0.
<mgrwt>
<rscale>  0 0.37621874E+04</rscale>
<asrwt>0</asrwt>
<pdfrwt beam="1">  1        2 0.42594883E+00 0.37621874E+04</pdfrwt>
<pdfrwt beam="2">  1       -2 0.19662409E+00 0.37621874E+04</pdfrwt>
<totfact> 0.27189693E-01</totfact>
</mgrwt>
</event>
<event>
 4    1  0.7144937E-008  0.2504418E+04  0.7816531E-02  0.8401413E-01
          2   -1    0    0  501    0  0.00000000000E+00  0.00000000000E+00  0.18413255946E+04  0.18413255946E+04  0.00000000000E+00 0.  1.
         -2   -1    0    0    0  501 -0.00000000000E+00 -0.00000000000E+00 -0.85157553668E+03  0.85157553668E+03  0.00000000000E+00 0. -1.
    2000013    1    1    2    0    0 -0.70385620397E+03  0.52664441590E+03  0.91856016619E+03  0.15021719860E+04  0.80000000000E+03 0.  0.
   -2000013    1    1    2    0    0  0.70385620397E+03 -0.52664441590E+03  0.71189891728E+02  0.11907291453E+04  0.80000000000E+03 0.  0.
<mgrwt>
<rscale>  0 0.25044184E+04</rscale>
<asrwt>0</asrwt>
<pdfrwt beam="1">  1        2 0.28328086E+00 0.25044184E+04</pdfrwt>
<pdfrwt beam="2">  1       -2 0.13101162E+00 0.25044184E+04</pdfrwt>
<totfact> 0.31077744E+00</totfact>
</mgrwt>
</event>
<event>
 4    1  0.7144937E-008  0.1735039E+04  0.7816531E-02  0.8741629E-01
         -2   -1    0    0    0  501 -0.00000000000E+00  0.00000000000E+00  0.42295075056E+03  0.42295075056E+03  0.00000000000E+00 0. -1.
          2   -1    0    0  501    0  0.00000000000E+00 -0.00000000000E+00 -0.17793798827E+04  0.17793798827E+04  0.00000000000E+00 0.  1.
    2000013    1    1    2    0    0  0.14896268563E+03 -0.29100392654E+03 -0.58224065318E+03  0.10420543869E+04  0.80000000000E+03 0.  0.
   -2000013    1    1    2    0    0 -0.14896268563E+03  0.29100392654E+03 -0.77418847892E+03  0.11602762464E+04  0.80000000000E+03 0.  0.
<mgrwt>
<rscale>  0 0.17350390E+04</rscale>
<asrwt>0</asrwt>
<pdfrwt beam="2">  1        2 0.27375075E+00 0.17350390E+04</pdfrwt>
<pdfrwt beam="1">  1       -2 0.65069346E-01 0.17350390E+04</pdfrwt>
<totfact> 0.18309699E+01</totfact>
</mgrwt>
</event>
<event>
 4    1  0.7144937E-008  0.1966122E+04  0.7816531E-02  0.8622625E-01
          2   -1    0    0  501    0  0.00000000000E+00  0.00000000000E+00  0.57092940778E+03  0.57092940778E+03  0.00000000000E+00 0.  1.
         -2   -1    0    0    0  501 -0.00000000000E+00 -0.00000000000E+00 -0.16926950273E+04  0.16926950273E+04  0.00000000000E+00 0. -1.
    2000013    1    1    2    0    0  0.12572553768E+03 -0.36780003332E+03 -0.78805743437E+02  0.89291327716E+03  0.80000000000E+03 0.  0.
   -2000013    1    1    2    0    0 -0.12572553768E+03  0.36780003332E+03 -0.10429598761E+04  0.13707111579E+04  0.80000000000E+03 0.  0.
<mgrwt>
<rscale>  0 0.19661224E+04</rscale>
<asrwt>0</asrwt>
<pdfrwt beam="1">  1        2 0.87835295E-01 0.19661224E+04</pdfrwt>
<pdfrwt beam="2">  1       -2 0.26041462E+00 0.19661224E+04</pdfrwt>
<totfact> 0.27209685E+00</totfact>
</mgrwt>
</event>
<event>
 4    1  0.7144937E-008  0.2288976E+04  0.7816531E-02  0.8482280E-01
         -2   -1    0    0    0  501 -0.00000000000E+00  0.00000000000E+00  0.89004997229E+03  0.89004997229E+03  0.00000000000E+00 0. -1.
          2   -1    0    0  501    0  0.00000000000E+00 -0.00000000000E+00 -0.14716618873E+04  0.14716618873E+04  0.00000000000E+00 0.  1.
    2000013    1    1    2    0    0  0.23901896483E+03 -0.64249596566E+03  0.17052801643E+03  0.10672445530E+04  0.80000000000E+03 0.  0.
   -2000013    1    1    2    0    0 -0.23901896483E+03  0.64249596566E+03 -0.75213993142E+03  0.12944673066E+04  0.80000000000E+03 0.  0.
<mgrwt>
<rscale>  0 0.22889759E+04</rscale>
<asrwt>0</asrwt>
<pdfrwt beam="2">  1        2 0.22640952E+00 0.22889759E+04</pdfrwt>
<pdfrwt beam="1">  1       -2 0.13693077E+00 0.22889759E+04</pdfrwt>
<totfact> 0.45475402E+00</totfact>
</mgrwt>
</event>
<event>
 4    1  0.7144937E-008  0.2028419E+04  0.7816531E-02  0.8593448E-01
          2   -1    0    0  501    0  0.00000000000E+00  0.00000000000E+00  0.18984715515E+04  0.18984715515E+04  0.00000000000E+00 0.  1.
         -2   -1    0    0    0  501 -0.00000000000E+00 -0.00000000000E+00 -0.54181551391E+03  0.54181551391E+03  0.00000000000E+00 0. -1.
    2000013    1    1    2    0    0  0.32548985051E+03 -0.50863094366E+03  0.86459575847E+03  0.13236974372E+04  0.80000000000E+03 0.  0.
   -2000013    1    1    2    0    0 -0.32548985051E+03  0.50863094366E+03  0.49206027917E+03  0.11165896283E+04  0.80000000000E+03 0.  0.
<mgrwt>
<rscale>  0 0.20284194E+04</rscale>
<asrwt>0</asrwt>
<pdfrwt beam="1">  1        2 0.29207254E+00 0.20284194E+04</pdfrwt>
<pdfrwt beam="2">  1       -2 0.83356234E-01 0.20284194E+04</pdfrwt>
<totfact> 0.88826671E+00</totfact>
</mgrwt>
</event>
<event>
 4    1  0.7144937E-008  0.1817816E+04  0.7816531E-02  0.8696882E-01
          2   -1    0    0  501    0  0.00000000000E+00  0.00000000000E+00  0.17270785458E+04  0.17270785458E+04  0.00000000000E+00 0. -1.
         -2   -1    0    0    0  501 -0.00000000000E+00 -0.00000000000E+00 -0.47833032557E+03  0.47833032557E+03  0.00000000000E+00 0.  1.
    2000013    1    1    2    0    0  0.22147907307E+03 -0.19686961492E+03  0.24398907014E+03  0.88732254081E+03  0.80000000000E+03 0.  0.
   -2000013    1    1    2    0    0 -0.22147907307E+03  0.19686961492E+03  0.10047591501E+04  0.13180863306E+04  0.80000000000E+03 0.  0.
<mgrwt>
<rscale>  0 0.18178163E+04</rscale>
<asrwt>0</asrwt>
<pdfrwt beam="1">  1        2 0.26570439E+00 0.18178163E+04</pdfrwt>
<pdfrwt beam="2">  1       -2 0.73589282E-01 0.18178163E+04</pdfrwt>
<totfact> 0.14870524E+01</totfact>
</mgrwt>
</event>
<event>
 4    1  0.7144937E-008  0.1833052E+04  0.7816531E-02  0.8688918E-01
          2   -1    0    0  501    0  0.00000000000E+00  0.00000000000E+00  0.35010800854E+04  0.35010800854E+04  0.00000000000E+00 0.  1.
         -2   -1    0    0    0  501 -0.00000000000E+00 -0.00000000000E+00 -0.23993169253E+03  0.23993169253E+03  0.00000000000E+00 0. -1.
    2000013    1    1    2    0    0  0.31697667552E+03  0.13362003584E+03  0.10472596590E+04  0.13620137005E+04  0.80000000000E+03 0.  0.
   -2000013    1    1    2    0    0 -0.31697667552E+03 -0.13362003584E+03  0.22138887338E+04  0.23789980774E+04  0.80000000000E+03 0.  0.
<mgrwt>
<rscale>  0 0.18330522E+04</rscale>
<asrwt>0</asrwt>
<pdfrwt beam="1">  1        2 0.53862767E+00 0.18330522E+04</pdfrwt>
<pdfrwt beam="2">  1       -2 0.36912571E-01 0.18330522E+04</pdfrwt>
<totfact> 0.53253893E+00</totfact>
</mgrwt>
</event>
<event>
 4    1  0.7144937E-008  0.2185172E+04  0.7816531E-02  0.8524625E-01
         -2   -1    0    0    0  501 -0.00000000000E+00  0.00000000000E+00  0.80995987826E+03  0.80995987826E+03  0.00000000000E+00 0. -1.
          2   -1    0    0  501    0  0.00000000000E+00 -0.00000000000E+00 -0.14738317535E+04  0.14738317535E+04  0.00000000000E+00 0.  1.
    2000013    1    1    2    0    0  0.65185700663E+03  0.31840416501E+03 -0.50508050321E+03  0.11922269432E+04  0.80000000000E+03 0.  0.
   -2000013    1    1    2    0    0 -0.65185700663E+03 -0.31840416501E+03 -0.15879137200E+03  0.10915646885E+04  0.80000000000E+03 0.  0.
<mgrwt>
<rscale>  0 0.21851724E+04</rscale>
<asrwt>0</asrwt>
<pdfrwt beam="2">  1        2 0.22674334E+00 0.21851724E+04</pdfrwt>
<pdfrwt beam="1">  1       -2 0.12460921E+00 0.21851724E+04</pdfrwt>
<totfact> 0.58098433E+00</totfact>
</mgrwt>
</event>
<event>
 4    1  0.7144937E-008  0.2095501E+04  0.7816531E-02  0.8563228E-01
          2   -1    0    0  501    0  0.00000000000E+00  0.00000000000E+00  0.77902580754E+03  0.77902580754E+03  0.00000000000E+00 0.  1.
         -2   -1    0    0    0  501 -0.00000000000E+00 -0.00000000000E+00 -0.14091723230E+04  0.14091723230E+04  0.00000000000E+00 0. -1.
    2000013    1    1    2    0    0  0.66779872299E+03 -0.10229656601E+03 -0.27653705669E+03  0.10830016000E+04  0.80000000000E+03 0.  0.
   -2000013    1    1    2    0    0 -0.66779872299E+03  0.10229656601E+03 -0.35360945880E+03  0.11051965306E+04  0.80000000000E+03 0.  0.
<mgrwt>
<rscale>  0 0.20955015E+04</rscale>
<asrwt>0</asrwt>
<pdfrwt beam="1">  1        2 0.11985013E+00 0.20955015E+04</pdfrwt>
<pdfrwt beam="2">  1       -2 0.21679574E+00 0.20955015E+04</pdfrwt>
<totfact> 0.34056410E+00</totfact>
</mgrwt>
</event>
<event>
 4    1  0.7144937E-008  0.1794037E+04  0.7816531E-02  0.8709477E-01
          2   -1    0    0  501    0  0.00000000000E+00  0.00000000000E+00  0.17672491368E+04  0.17672491368E+04  0.00000000000E+00 0.  1.
         -2   -1    0    0    0  501 -0.00000000000E+00 -0.00000000000E+00 -0.45530755836E+03  0.45530755836E+03  0.00000000000E+00 0. -1.
    2000013    1    1    2    0    0 -0.29895852392E+03 -0.26632472448E+03  0.57438625967E+03  0.10631202346E+04  0.80000000000E+03 0.  0.
   -2000013    1    1    2    0    0  0.29895852392E+03  0.26632472448E+03  0.73755531880E+03  0.11594364606E+04  0.80000000000E+03 0.  0.
<mgrwt>
<rscale>  0 0.17940367E+04</rscale>
<asrwt>0</asrwt>
<pdfrwt beam="1">  1        2 0.27188448E+00 0.17940367E+04</pdfrwt>
<pdfrwt beam="2">  1       -2 0.70047318E-01 0.17940367E+04</pdfrwt>
<totfact> 0.15773238E+01</totfact>
</mgrwt>
</event>
<event>
 4    1  0.7144937E-008  0.2569937E+04  0.7816531E-02  0.8378485E-01
          1   -1    0    0  501    0  0.00000000000E+00  0.00000000000E+00  0.24697454969E+04  0.24697454969E+04  0.00000000000E+00 0.  1.
         -1   -1    0    0    0  501 -0.00000000000E+00 -0.00000000000E+00 -0.66854844219E+03  0.66854844219E+03  0.00000000000E+00 0. -1.
    2000013    1    1    2    0    0  0.26214233824E+03 -0.88340150802E+03  0.13921462410E+04  0.18512665898E+04  0.80000000000E+03 0.  0.
   -2000013    1    1    2    0    0 -0.26214233824E+03  0.88340150802E+03  0.40905081371E+03  0.12870273494E+04  0.80000000000E+03 0.  0.
<mgrwt>
<rscale>  0 0.25699374E+04</rscale>
<asrwt>0</asrwt>
<pdfrwt beam="1">  1        1 0.37996084E+00 0.25699374E+04</pdfrwt>
<pdfrwt beam="2">  1       -1 0.10285361E+00 0.25699374E+04</pdfrwt>
<totfact> 0.11210575E+00</totfact>
</mgrwt>
</event>
<event>
 4    1  0.7144937E-008  0.1810538E+04  0.7816531E-02  0.8700715E-01
         -2   -1    0    0    0  501 -0.00000000000E+00  0.00000000000E+00  0.23109935078E+03  0.23109935078E+03  0.00000000000E+00 0. -1.
          2   -1    0    0  501    0  0.00000000000E+00 -0.00000000000E+00 -0.35461476253E+04  0.35461476253E+04  0.00000000000E+00 0.  1.
    2000013    1    1    2    0    0  0.39130902865E+03 -0.14729290488E+03 -0.15145819712E+04  0.17631722840E+04  0.80000000000E+03 0.  0.
   -2000013    1    1    2    0    0 -0.39130902865E+03  0.14729290488E+03 -0.18004663034E+04  0.20140746921E+04  0.80000000000E+03 0.  0.
<mgrwt>
<rscale>  0 0.18105385E+04</rscale>
<asrwt>0</asrwt>
<pdfrwt beam="2">  1        2 0.54556114E+00 0.18105385E+04</pdfrwt>
<pdfrwt beam="1">  1       -2 0.35553748E-01 0.18105385E+04</pdfrwt>
<totfact> 0.53347577E+00</totfact>
</mgrwt>
</event>
<event>
 4    1  0.7144937E-008  0.2224655E+04  0.7816531E-02  0.8508236E-01
         -1   -1    0    0    0  501 -0.00000000000E+00  0.00000000000E+00  0.14067808190E+04  0.14067808190E+04  0.00000000000E+00 0.  1.
          1   -1    0    0  501    0  0.00000000000E+00 -0.00000000000E+00 -0.87950645808E+03  0.87950645808E+03  0.00000000000E+00 0. -1.
    2000013    1    1    2    0    0  0.72425435488E+03  0.26946742266E+03  0.27469409949E+03  0.11456936374E+04  0.80000000000E+03 0.  0.
   -2000013    1    1    2    0    0 -0.72425435488E+03 -0.26946742266E+03  0.25258026143E+03  0.11405936397E+04  0.80000000000E+03 0.  0.
<mgrwt>
<rscale>  0 0.22246553E+04</rscale>
<asrwt>0</asrwt>
<pdfrwt beam="2">  1        1 0.13530869E+00 0.22246553E+04</pdfrwt>
<pdfrwt beam="1">  1       -1 0.21642782E+00 0.22246553E+04</pdfrwt>
<totfact> 0.20017672E+00</totfact>
</mgrwt>
</event>
<event>
 4    1  0.7144937E-008  0.1977852E+04  0.7816531E-02  0.8617046E-01
         -2   -1    0    0    0  501 -0.00000000000E+00  0.00000000000E+00  0.17813829333E+04  0.17813829333E+04  0.00000000000E+00 0. -1.
          2   -1    0    0  501    0  0.00000000000E+00 -0.00000000000E+00 -0.54899761372E+03  0.54899761372E+03  0.00000000000E+00 0.  1.
    2000013    1    1    2    0    0  0.27204877929E+03 -0.51266804695E+03  0.65590320644E+03  0.11861905753E+04  0.80000000000E+03 0.  0.
   -2000013    1    1    2    0    0 -0.27204877929E+03  0.51266804695E+03  0.57648211316E+03  0.11441899718E+04  0.80000000000E+03 0.  0.
<mgrwt>
<rscale>  0 0.19778523E+04</rscale>
<asrwt>0</asrwt>
<pdfrwt beam="2">  1        2 0.84461172E-01 0.19778523E+04</pdfrwt>
<pdfrwt beam="1">  1       -2 0.27405891E+00 0.19778523E+04</pdfrwt>
<totfact> 0.23515319E+00</totfact>
</mgrwt>
</event>
<event>
 4    1  0.7144937E-008  0.2704272E+04  0.7816531E-02  0.8333620E-01
          2   -1    0    0  501    0  0.00000000000E+00  0.00000000000E+00  0.15109586279E+04  0.15109586279E+04  0.00000000000E+00 0.  1.
         -2   -1    0    0    0  501 -0.00000000000E+00 -0.00000000000E+00 -0.12100078606E+04  0.12100078606E+04  0.00000000000E+00 0. -1.
    2000013    1    1    2    0    0  0.78436874180E+03 -0.74039893195E+03 -0.81267604879E+01  0.13429411550E+04  0.80000000000E+03 0.  0.
   -2000013    1    1    2    0    0 -0.78436874180E+03  0.74039893195E+03  0.30907752781E+03  0.13780253335E+04  0.80000000000E+03 0.  0.
<mgrwt>
<rscale>  0 0.27042720E+04</rscale>
<asrwt>0</asrwt>
<pdfrwt beam="1">  1        2 0.23245517E+00 0.27042720E+04</pdfrwt>
<pdfrwt beam="2">  1       -2 0.18615506E+00 0.27042720E+04</pdfrwt>
<totfact> 0.18061364E+00</totfact>
</mgrwt>
</event>
<event>
 4    1  0.7144937E-008  0.1882879E+04  0.7816531E-02  0.8663426E-01
          2   -1    0    0  501    0  0.00000000000E+00  0.00000000000E+00  0.34126626583E+04  0.34126626583E+04  0.00000000000E+00 0.  1.
         -2   -1    0    0    0  501 -0.00000000000E+00 -0.00000000000E+00 -0.25971165976E+03  0.25971165976E+03  0.00000000000E+00 0. -1.
    2000013    1    1    2    0    0  0.39559145188E+03  0.24877903148E+03  0.19024012268E+04  0.21160137124E+04  0.80000000000E+03 0.  0.
   -2000013    1    1    2    0    0 -0.39559145188E+03 -0.24877903148E+03  0.12505497718E+04  0.15563606057E+04  0.80000000000E+03 0.  0.
<mgrwt>
<rscale>  0 0.18828789E+04</rscale>
<asrwt>0</asrwt>
<pdfrwt beam="1">  1        2 0.52502499E+00 0.18828789E+04</pdfrwt>
<pdfrwt beam="2">  1       -2 0.39955642E-01 0.18828789E+04</pdfrwt>
<totfact> 0.52276063E+00</totfact>
</mgrwt>
</event>
<event>
 4    1  0.7144937E-008  0.1833368E+04  0.7816531E-02  0.8688753E-01
          4   -1    0    0  501    0  0.00000000000E+00  0.00000000000E+00  0.58407226335E+03  0.58407226335E+03  0.00000000000E+00 0.  1.
         -4   -1    0    0    0  501 -0.00000000000E+00 -0.00000000000E+00 -0.14387084075E+04  0.14387084075E+04  0.00000000000E+00 0. -1.
    2000013    1    1    2    0    0 -0.32595474774E+03 -0.30439355563E+03 -0.46871428279E+03  0.10288804659E+04  0.80000000000E+03 0.  0.
   -2000013    1    1    2    0    0  0.32595474774E+03  0.30439355563E+03 -0.38592186138E+03  0.99390020494E+03  0.80000000000E+03 0.  0.
<mgrwt>
<rscale>  0 0.18333681E+04</rscale>
<asrwt>0</asrwt>
<pdfrwt beam="1">  1        4 0.89857272E-01 0.18333681E+04</pdfrwt>
<pdfrwt beam="2">  1       -4 0.22133975E+00 0.18333681E+04</pdfrwt>
<totfact> 0.19143559E-01</totfact>
</mgrwt>
</event>
<event>
 4    1  0.7144937E-008  0.2429101E+04  0.7816531E-02  0.8428688E-01
          1   -1    0    0  501    0  0.00000000000E+00  0.00000000000E+00  0.13016751108E+04  0.13016751108E+04  0.00000000000E+00 0.  1.
         -1   -1    0    0    0  501 -0.00000000000E+00 -0.00000000000E+00 -0.11332576526E+04  0.11332576526E+04  0.00000000000E+00 0. -1.
    2000013    1    1    2    0    0  0.89447352399E+03  0.26343898940E+02 -0.10159102587E+03  0.12046151347E+04  0.80000000000E+03 0.  0.
   -2000013    1    1    2    0    0 -0.89447352399E+03 -0.26343898940E+02  0.27000848405E+03  0.12303176287E+04  0.80000000000E+03 0.  0.
<mgrwt>
<rscale>  0 0.24291013E+04</rscale>
<asrwt>0</asrwt>
<pdfrwt beam="1">  1        1 0.20025771E+00 0.24291013E+04</pdfrwt>
<pdfrwt beam="2">  1       -1 0.17434733E+00 0.24291013E+04</pdfrwt>
<totfact> 0.18440262E+00</totfact>
</mgrwt>
</event>
<event>
 4    1  0.7144937E-008  0.2751938E+04  0.7816531E-02  0.8318347E-01
          2   -1    0    0  501    0  0.00000000000E+00  0.00000000000E+00  0.16244826469E+04  0.16244826469E+04  0.00000000000E+00 0.  1.
         -2   -1    0    0    0  501 -0.00000000000E+00 -0.00000000000E+00 -0.11654730721E+04  0.11654730721E+04  0.00000000000E+00 0. -1.
    2000013    1    1    2    0    0  0.93118018408E+03 -0.58797159709E+03  0.43348989814E+03  0.14285379330E+04  0.80000000000E+03 0.  0.
   -2000013    1    1    2    0    0 -0.93118018408E+03  0.58797159709E+03  0.25519676709E+02  0.13614177860E+04  0.80000000000E+03 0.  0.
<mgrwt>
<rscale>  0 0.27519381E+04</rscale>
<asrwt>0</asrwt>
<pdfrwt beam="1">  1        2 0.24992041E+00 0.27519381E+04</pdfrwt>
<pdfrwt beam="2">  1       -2 0.17930355E+00 0.27519381E+04</pdfrwt>
<totfact> 0.17310443E+00</totfact>
</mgrwt>
</event>
<event>
 4    1  0.7144937E-008  0.1687855E+04  0.7816531E-02  0.8768322E-01
         -2   -1    0    0    0  501 -0.00000000000E+00  0.00000000000E+00  0.42121439807E+03  0.42121439807E+03  0.00000000000E+00 0. -1.
          2   -1    0    0  501    0  0.00000000000E+00 -0.00000000000E+00 -0.16908575693E+04  0.16908575693E+04  0.00000000000E+00 0.  1.
    2000013    1    1    2    0    0  0.26024409993E+03  0.27580899573E+02 -0.55844036135E+03  0.10101204556E+04  0.80000000000E+03 0.  0.
   -2000013    1    1    2    0    0 -0.26024409993E+03 -0.27580899573E+02 -0.71120280986E+03  0.11019515118E+04  0.80000000000E+03 0.  0.
<mgrwt>
<rscale>  0 0.16878549E+04</rscale>
<asrwt>0</asrwt>
<pdfrwt beam="2">  1        2 0.26013192E+00 0.16878549E+04</pdfrwt>
<pdfrwt beam="1">  1       -2 0.64802217E-01 0.16878549E+04</pdfrwt>
<totfact> 0.20765835E+01</totfact>
</mgrwt>
</event>
<event>
 4    1  0.7144937E-008  0.3061373E+04  0.7816531E-02  0.8226419E-01
         -2   -1    0    0    0  501 -0.00000000000E+00  0.00000000000E+00  0.64757751359E+03  0.64757751359E+03  0.00000000000E+00 0. -1.
          2   -1    0    0  501    0  0.00000000000E+00 -0.00000000000E+00 -0.36181009777E+04  0.36181009777E+04  0.00000000000E+00 0.  1.
    2000013    1    1    2    0    0 -0.58540663548E+03  0.11621933005E+04 -0.13486910036E+04  0.20377344331E+04  0.80000000000E+03 0.  0.
   -2000013    1    1    2    0    0  0.58540663548E+03 -0.11621933005E+04 -0.16218324605E+04  0.22279440582E+04  0.80000000000E+03 0.  0.
<mgrwt>
<rscale>  0 0.30613728E+04</rscale>
<asrwt>0</asrwt>
<pdfrwt beam="2">  1        2 0.55663093E+00 0.30613728E+04</pdfrwt>
<pdfrwt beam="1">  1       -2 0.99627308E-01 0.30613728E+04</pdfrwt>
<totfact> 0.47505508E-01</totfact>
</mgrwt>
</event>
<event>
 4    1  0.7144937E-008  0.1868069E+04  0.7816531E-02  0.8670916E-01
          2   -1    0    0  501    0  0.00000000000E+00  0.00000000000E+00  0.10048982946E+04  0.10048982946E+04  0.00000000000E+00 0.  1.
         -2   -1    0    0    0  501 -0.00000000000E+00 -0.00000000000E+00 -0.86816758840E+03  0.86816758840E+03  0.00000000000E+00 0. -1.
    2000013    1    1    2    0    0  0.36712306096E+03  0.31222563251E+03  0.55844291691E+02  0.93561892478E+03  0.80000000000E+03 0.  0.
   -2000013    1    1    2    0    0 -0.36712306096E+03 -0.31222563251E+03  0.80886414538E+02  0.93744695826E+03  0.80000000000E+03 0.  0.
<mgrwt>
<rscale>  0 0.18680687E+04</rscale>
<asrwt>0</asrwt>
<pdfrwt beam="1">  1        2 0.15459974E+00 0.18680687E+04</pdfrwt>
<pdfrwt beam="2">  1       -2 0.13356424E+00 0.18680687E+04</pdfrwt>
<totfact> 0.95195370E+00</totfact>
</mgrwt>
</event>
<event>
 4    1  0.7144937E-008  0.3252043E+04  0.7816531E-02  0.8175206E-01
          2   -1    0    0  501    0  0.00000000000E+00  0.00000000000E+00  0.17797778289E+04  0.17797778289E+04  0.00000000000E+00 0.  1.
         -2   -1    0    0    0  501 -0.00000000000E+00 -0.00000000000E+00 -0.14855484949E+04  0.14855484949E+04  0.00000000000E+00 0. -1.
    2000013    1    1    2    0    0  0.31552337130E+03 -0.13627871073E+04  0.36526362224E+03  0.16523199482E+04  0.80000000000E+03 0.  0.
   -2000013    1    1    2    0    0 -0.31552337130E+03  0.13627871073E+04 -0.71034288235E+02  0.16130063756E+04  0.80000000000E+03 0.  0.
<mgrwt>
<rscale>  0 0.32520432E+04</rscale>
<asrwt>0</asrwt>
<pdfrwt beam="1">  1        2 0.27381197E+00 0.32520432E+04</pdfrwt>
<pdfrwt beam="2">  1       -2 0.22854592E+00 0.32520432E+04</pdfrwt>
<totfact> 0.64830106E-01</totfact>
</mgrwt>
</event>
<event>
 4    1  0.7144937E-008  0.2309911E+04  0.7816531E-02  0.8474024E-01
          2   -1    0    0  501    0  0.00000000000E+00  0.00000000000E+00  0.11603419379E+04  0.11603419379E+04  0.00000000000E+00 0.  1.
         -2   -1    0    0    0  501 -0.00000000000E+00 -0.00000000000E+00 -0.11495938226E+04  0.11495938226E+04  0.00000000000E+00 0. -1.
    2000013    1    1    2    0    0 -0.56639824541E+02  0.82905926963E+03 -0.52717720917E+02  0.11546975796E+04  0.80000000000E+03 0.  0.
   -2000013    1    1    2    0    0  0.56639824541E+02 -0.82905926963E+03  0.63465836242E+02  0.11552381809E+04  0.80000000000E+03 0.  0.
<mgrwt>
<rscale>  0 0.23099108E+04</rscale>
<asrwt>0</asrwt>
<pdfrwt beam="1">  1        2 0.17851414E+00 0.23099108E+04</pdfrwt>
<pdfrwt beam="2">  1       -2 0.17686059E+00 0.23099108E+04</pdfrwt>
<totfact> 0.34563403E+00</totfact>
</mgrwt>
</event>
<event>
 4    1  0.7144937E-008  0.2596837E+04  0.7816531E-02  0.8369276E-01
         -2   -1    0    0    0  501 -0.00000000000E+00  0.00000000000E+00  0.12578127091E+04  0.12578127091E+04  0.00000000000E+00 0. -1.
          2   -1    0    0  501    0  0.00000000000E+00 -0.00000000000E+00 -0.13403354652E+04  0.13403354652E+04  0.00000000000E+00 0.  1.
    2000013    1    1    2    0    0 -0.84076905059E+03  0.56953450040E+03  0.79749414407E+02  0.12952305249E+04  0.80000000000E+03 0.  0.
   -2000013    1    1    2    0    0  0.84076905059E+03 -0.56953450040E+03 -0.16227217049E+03  0.13029176493E+04  0.80000000000E+03 0.  0.
<mgrwt>
<rscale>  0 0.25968373E+04</rscale>
<asrwt>0</asrwt>
<pdfrwt beam="2">  1        2 0.20620546E+00 0.25968373E+04</pdfrwt>
<pdfrwt beam="1">  1       -2 0.19350965E+00 0.25968373E+04</pdfrwt>
<totfact> 0.20349925E+00</totfact>
</mgrwt>
</event>
<event>
 4    1  0.7144937E-008  0.2286027E+04  0.7816531E-02  0.8483451E-01
          2   -1    0    0  501    0  0.00000000000E+00  0.00000000000E+00  0.30242816722E+04  0.30242816722E+04  0.00000000000E+00 0.  1.
         -2   -1    0    0    0  501 -0.00000000000E+00 -0.00000000000E+00 -0.43199668355E+03  0.43199668355E+03  0.00000000000E+00 0. -1.
    2000013    1    1    2    0    0  0.50644128794E+03  0.52085685446E+03  0.73305813101E+03  0.13058134876E+04  0.80000000000E+03 0.  0.
   -2000013    1    1    2    0    0 -0.50644128794E+03 -0.52085685446E+03  0.18592268577E+04  0.21504648682E+04  0.80000000000E+03 0.  0.
<mgrwt>
<rscale>  0 0.22860268E+04</rscale>
<asrwt>0</asrwt>
<pdfrwt beam="1">  1        2 0.46527409E+00 0.22860268E+04</pdfrwt>
<pdfrwt beam="2">  1       -2 0.66461030E-01 0.22860268E+04</pdfrwt>
<totfact> 0.31779387E+00</totfact>
</mgrwt>
</event>
<event>
 4    1  0.7144937E-008  0.3217704E+04  0.7816531E-02  0.8184157E-01
         -2   -1    0    0    0  501 -0.00000000000E+00  0.00000000000E+00  0.14368089597E+04  0.14368089597E+04  0.00000000000E+00 0. -1.
          2   -1    0    0  501    0  0.00000000000E+00 -0.00000000000E+00 -0.18014956597E+04  0.18014956597E+04  0.00000000000E+00 0.  1.
    2000013    1    1    2    0    0  0.29880323855E+03  0.11663456883E+04 -0.89309381916E+03  0.16991945768E+04  0.80000000000E+03 0.  0.
   -2000013    1    1    2    0    0 -0.29880323855E+03 -0.11663456883E+04  0.52840711917E+03  0.15391100427E+04  0.80000000000E+03 0.  0.
<mgrwt>
<rscale>  0 0.32177042E+04</rscale>
<asrwt>0</asrwt>
<pdfrwt beam="2">  1        2 0.27715318E+00 0.32177042E+04</pdfrwt>
<pdfrwt beam="1">  1       -2 0.22104753E+00 0.32177042E+04</pdfrwt>
<totfact> 0.70492473E-01</totfact>
</mgrwt>
</event>
<event>
 4    1  0.7144937E-008  0.1946565E+04  0.7816531E-02  0.8632019E-01
         -2   -1    0    0    0  501 -0.00000000000E+00  0.00000000000E+00  0.56891664062E+03  0.56891664062E+03  0.00000000000E+00 0. -1.
          2   -1    0    0  501    0  0.00000000000E+00 -0.00000000000E+00 -0.16650566834E+04  0.16650566834E+04  0.00000000000E+00 0.  1.
    2000013    1    1    2    0    0 -0.18272817870E+02 -0.50269105308E+03 -0.81536701500E+03  0.12481408414E+04  0.80000000000E+03 0.  0.
   -2000013    1    1    2    0    0  0.18272817870E+02  0.50269105308E+03 -0.28077302776E+03  0.98583248265E+03  0.80000000000E+03 0.  0.
<mgrwt>
<rscale>  0 0.19465646E+04</rscale>
<asrwt>0</asrwt>
<pdfrwt beam="2">  1        2 0.25616256E+00 0.19465646E+04</pdfrwt>
<pdfrwt beam="1">  1       -2 0.87525638E-01 0.19465646E+04</pdfrwt>
<totfact> 0.10784023E+01</totfact>
</mgrwt>
</event>
<event>
 4    1  0.7144937E-008  0.1858913E+04  0.7816531E-02  0.8675583E-01
         -2   -1    0    0    0  501 -0.00000000000E+00  0.00000000000E+00  0.35615754976E+03  0.35615754976E+03  0.00000000000E+00 0. -1.
          2   -1    0    0  501    0  0.00000000000E+00 -0.00000000000E+00 -0.24255825732E+04  0.24255825732E+04  0.00000000000E+00 0.  1.
    2000013    1    1    2    0    0  0.43371236319E+03 -0.13733272386E+03 -0.12293803769E+04  0.15356896829E+04  0.80000000000E+03 0.  0.
   -2000013    1    1    2    0    0 -0.43371236319E+03  0.13733272386E+03 -0.84004464658E+03  0.12460504401E+04  0.80000000000E+03 0.  0.
<mgrwt>
<rscale>  0 0.18589132E+04</rscale>
<asrwt>0</asrwt>
<pdfrwt beam="2">  1        2 0.37316656E+00 0.18589132E+04</pdfrwt>
<pdfrwt beam="1">  1       -2 0.54793468E-01 0.18589132E+04</pdfrwt>
<totfact> 0.11323736E+01</totfact>
</mgrwt>
</event>
<event>
 4    1  0.7144937E-008  0.1859333E+04  0.7816531E-02  0.8675368E-01
         -1   -1    0    0    0  501 -0.00000000000E+00  0.00000000000E+00  0.20586487944E+04  0.20586487944E+04  0.00000000000E+00 0. -1.
          1   -1    0    0  501    0  0.00000000000E+00 -0.00000000000E+00 -0.41982858384E+03  0.41982858384E+03  0.00000000000E+00 0.  1.
    2000013    1    1    2    0    0 -0.43457832817E+02 -0.41116184618E+03  0.51155811615E+03  0.10356806232E+04  0.80000000000E+03 0.  0.
   -2000013    1    1    2    0    0  0.43457832817E+02  0.41116184618E+03  0.11272620944E+04  0.14427967551E+04  0.80000000000E+03 0.  0.
<mgrwt>
<rscale>  0 0.18593328E+04</rscale>
<asrwt>0</asrwt>
<pdfrwt beam="2">  1        1 0.64589014E-01 0.18593328E+04</pdfrwt>
<pdfrwt beam="1">  1       -1 0.31671519E+00 0.18593328E+04</pdfrwt>
<totfact> 0.13593821E+00</totfact>
</mgrwt>
</event>
<event>
 4    1  0.7144937E-008  0.1862680E+04  0.7816531E-02  0.8673659E-01
          2   -1    0    0  501    0  0.00000000000E+00  0.00000000000E+00  0.14649871219E+04  0.14649871219E+04  0.00000000000E+00 0.  1.
         -2   -1    0    0    0  501 -0.00000000000E+00 -0.00000000000E+00 -0.59208320343E+03  0.59208320343E+03  0.00000000000E+00 0. -1.
    2000013    1    1    2    0    0 -0.45754918815E+03  0.12236786373E+03  0.37527084062E+03  0.10025733676E+04  0.80000000000E+03 0.  0.
   -2000013    1    1    2    0    0  0.45754918815E+03 -0.12236786373E+03  0.49763307785E+03  0.10544969577E+04  0.80000000000E+03 0.  0.
<mgrwt>
<rscale>  0 0.18626801E+04</rscale>
<asrwt>0</asrwt>
<pdfrwt beam="1">  1        2 0.22538263E+00 0.18626801E+04</pdfrwt>
<pdfrwt beam="2">  1       -2 0.91089724E-01 0.18626801E+04</pdfrwt>
<totfact> 0.12829062E+01</totfact>
</mgrwt>
</event>
<event>
 4    1  0.7144937E-008  0.2196779E+04  0.7816531E-02  0.8519770E-01
         -2   -1    0    0    0  501 -0.00000000000E+00  0.00000000000E+00  0.52698497093E+03  0.52698497093E+03  0.00000000000E+00 0. -1.
          2   -1    0    0  501    0  0.00000000000E+00 -0.00000000000E+00 -0.22893629648E+04  0.22893629648E+04  0.00000000000E+00 0.  1.
    2000013    1    1    2    0    0 -0.18239269455E+03 -0.64410156973E+03 -0.13221902942E+04  0.16841380886E+04  0.80000000000E+03 0.  0.
   -2000013    1    1    2    0    0  0.18239269455E+03  0.64410156973E+03 -0.44018769965E+03  0.11322098472E+04  0.80000000000E+03 0.  0.
<mgrwt>
<rscale>  0 0.21967793E+04</rscale>
<asrwt>0</asrwt>
<pdfrwt beam="2">  1        2 0.35220968E+00 0.21967793E+04</pdfrwt>
<pdfrwt beam="1">  1       -2 0.81074611E-01 0.21967793E+04</pdfrwt>
<totfact> 0.56371761E+00</totfact>
</mgrwt>
</event>
<event>
 4    1  0.7144937E-008  0.2632094E+04  0.7816531E-02  0.8357381E-01
          2   -1    0    0  501    0  0.00000000000E+00  0.00000000000E+00  0.21776185389E+04  0.21776185389E+04  0.00000000000E+00 0.  1.
         -2   -1    0    0    0  501 -0.00000000000E+00 -0.00000000000E+00 -0.79535492980E+03  0.79535492980E+03  0.00000000000E+00 0. -1.
    2000013    1    1    2    0    0  0.18405018311E+03 -0.10042846710E+04  0.94247600552E+03  0.16033474955E+04  0.80000000000E+03 0.  0.
   -2000013    1    1    2    0    0 -0.18405018311E+03  0.10042846710E+04  0.43978760355E+03  0.13696259732E+04  0.80000000000E+03 0.  0.
<mgrwt>
<rscale>  0 0.26320939E+04</rscale>
<asrwt>0</asrwt>
<pdfrwt beam="1">  1        2 0.33501823E+00 0.26320939E+04</pdfrwt>
<pdfrwt beam="2">  1       -2 0.12236230E+00 0.26320939E+04</pdfrwt>
<totfact> 0.23718496E+00</totfact>
</mgrwt>
</event>
<event>
 4    1  0.7144937E-008  0.1935002E+04  0.7816531E-02  0.8637627E-01
         -2   -1    0    0    0  501 -0.00000000000E+00  0.00000000000E+00  0.36294073896E+03  0.36294073896E+03  0.00000000000E+00 0.  1.
          2   -1    0    0  501    0  0.00000000000E+00 -0.00000000000E+00 -0.25790927177E+04  0.25790927177E+04  0.00000000000E+00 0. -1.
    2000013    1    1    2    0    0  0.15565778899E+03  0.39306365126E+03 -0.58727744088E+03  0.10787136663E+04  0.80000000000E+03 0.  0.
   -2000013    1    1    2    0    0 -0.15565778899E+03 -0.39306365126E+03 -0.16288745379E+04  0.18633197904E+04  0.80000000000E+03 0.  0.
<mgrwt>
<rscale>  0 0.19350016E+04</rscale>
<asrwt>0</asrwt>
<pdfrwt beam="2">  1        2 0.39678349E+00 0.19350016E+04</pdfrwt>
<pdfrwt beam="1">  1       -2 0.55837037E-01 0.19350016E+04</pdfrwt>
<totfact> 0.88163242E+00</totfact>
</mgrwt>
</event>
<event>
 4    1  0.7144937E-008  0.3270708E+04  0.7816531E-02  0.8170389E-01
          2   -1    0    0  501    0  0.00000000000E+00  0.00000000000E+00  0.25764233403E+04  0.25764233403E+04  0.00000000000E+00 0.  1.
         -2   -1    0    0    0  501 -0.00000000000E+00 -0.00000000000E+00 -0.10380217541E+04  0.10380217541E+04  0.00000000000E+00 0. -1.
    2000013    1    1    2    0    0  0.30679122844E+03 -0.12777986059E+04  0.15640235043E+03  0.15463996348E+04  0.80000000000E+03 0.  0.
   -2000013    1    1    2    0    0 -0.30679122844E+03  0.12777986059E+04  0.13819992358E+04  0.20680454596E+04  0.80000000000E+03 0.  0.
<mgrwt>
<rscale>  0 0.32707085E+04</rscale>
<asrwt>0</asrwt>
<pdfrwt beam="1">  1        2 0.39637282E+00 0.32707085E+04</pdfrwt>
<pdfrwt beam="2">  1       -2 0.15969566E+00 0.32707085E+04</pdfrwt>
<totfact> 0.66582374E-01</totfact>
</mgrwt>
</event>
<event>
 4    1  0.7144937E-008  0.2251792E+04  0.7816531E-02  0.8497175E-01
          2   -1    0    0  501    0  0.00000000000E+00  0.00000000000E+00  0.29325148169E+04  0.29325148169E+04  0.00000000000E+00 0.  1.
         -2   -1    0    0    0  501 -0.00000000000E+00 -0.00000000000E+00 -0.43227124700E+03  0.43227124700E+03  0.00000000000E+00 0. -1.
    2000013    1    1    2    0    0  0.32924739955E+03  0.58862301494E+03  0.18712080843E+04  0.21438984581E+04  0.80000000000E+03 0.  0.
   -2000013    1    1    2    0    0 -0.32924739955E+03 -0.58862301494E+03  0.62903548552E+03  0.12208876057E+04  0.80000000000E+03 0.  0.
<mgrwt>
<rscale>  0 0.22517920E+04</rscale>
<asrwt>0</asrwt>
<pdfrwt beam="1">  1        2 0.45115611E+00 0.22517920E+04</pdfrwt>
<pdfrwt beam="2">  1       -2 0.66503270E-01 0.22517920E+04</pdfrwt>
<totfact> 0.36311525E+00</totfact>
</mgrwt>
</event>
<event>
 4    1  0.7144937E-008  0.1900648E+04  0.7816531E-02  0.8654534E-01
          2   -1    0    0  501    0  0.00000000000E+00  0.00000000000E+00  0.72802861957E+03  0.72802861957E+03  0.00000000000E+00 0.  1.
         -2   -1    0    0    0  501 -0.00000000000E+00 -0.00000000000E+00 -0.12404942265E+04  0.12404942265E+04  0.00000000000E+00 0. -1.
    2000013    1    1    2    0    0 -0.29103009271E+03  0.26048020188E+03  0.88157829195E+02  0.89460620012E+03  0.80000000000E+03 0.  0.
   -2000013    1    1    2    0    0  0.29103009271E+03 -0.26048020188E+03 -0.60062343612E+03  0.10739166460E+04  0.80000000000E+03 0.  0.
<mgrwt>
<rscale>  0 0.19006476E+04</rscale>
<asrwt>0</asrwt>
<pdfrwt beam="1">  1        2 0.11200440E+00 0.19006476E+04</pdfrwt>
<pdfrwt beam="2">  1       -2 0.19084527E+00 0.19006476E+04</pdfrwt>
<totfact> 0.55797534E+00</totfact>
</mgrwt>
</event>
<event>
 4    1  0.7144937E-008  0.3024158E+04  0.7816531E-02  0.8236866E-01
          2   -1    0    0  501    0  0.00000000000E+00  0.00000000000E+00  0.86073456510E+03  0.86073456510E+03  0.00000000000E+00 0.  1.
         -2   -1    0    0    0  501 -0.00000000000E+00 -0.00000000000E+00 -0.26563153988E+04  0.26563153988E+04  0.00000000000E+00 0. -1.
    2000013    1    1    2    0    0  0.45449115416E+03  0.98340237880E+03 -0.98167392634E+02  0.13502885932E+04  0.80000000000E+03 0.  0.
   -2000013    1    1    2    0    0 -0.45449115416E+03 -0.98340237880E+03 -0.16974134411E+04  0.21667613707E+04  0.80000000000E+03 0.  0.
<mgrwt>
<rscale>  0 0.30241577E+04</rscale>
<asrwt>0</asrwt>
<pdfrwt beam="1">  1        2 0.13242070E+00 0.30241577E+04</pdfrwt>
<pdfrwt beam="2">  1       -2 0.40866391E+00 0.30241577E+04</pdfrwt>
<totfact> 0.17341854E-01</totfact>
</mgrwt>
</event>
<event>
 4    1  0.7144937E-008  0.2225047E+04  0.7816531E-02  0.8508075E-01
         -2   -1    0    0    0  501 -0.00000000000E+00  0.00000000000E+00  0.58449094876E+03  0.58449094876E+03  0.00000000000E+00 0.  1.
          2   -1    0    0  501    0  0.00000000000E+00 -0.00000000000E+00 -0.21175842489E+04  0.21175842489E+04  0.00000000000E+00 0. -1.
    2000013    1    1    2    0    0  0.23708007762E+02  0.62884358262E+03 -0.13119450230E+04  0.16604836839E+04  0.80000000000E+03 0.  0.
   -2000013    1    1    2    0    0 -0.23708007762E+02 -0.62884358262E+03 -0.22114827707E+03  0.10415915137E+04  0.80000000000E+03 0.  0.
<mgrwt>
<rscale>  0 0.22250473E+04</rscale>
<asrwt>0</asrwt>
<pdfrwt beam="2">  1        2 0.32578219E+00 0.22250473E+04</pdfrwt>
<pdfrwt beam="1">  1       -2 0.89921684E-01 0.22250473E+04</pdfrwt>
<totfact> 0.55478341E+00</totfact>
</mgrwt>
</event>
<event>
 4    1  0.7144937E-008  0.2449296E+04  0.7816531E-02  0.8421275E-01
         -1   -1    0    0    0  501 -0.00000000000E+00  0.00000000000E+00  0.10160549997E+04  0.10160549997E+04  0.00000000000E+00 0. -1.
          1   -1    0    0  501    0  0.00000000000E+00 -0.00000000000E+00 -0.14760639710E+04  0.14760639710E+04  0.00000000000E+00 0.  1.
    2000013    1    1    2    0    0  0.56763882063E+02  0.30913748338E+03 -0.11175946932E+04  0.14098957480E+04  0.80000000000E+03 0.  0.
   -2000013    1    1    2    0    0 -0.56763882063E+02 -0.30913748338E+03  0.65758572193E+03  0.10822232226E+04  0.80000000000E+03 0.  0.
<mgrwt>
<rscale>  0 0.24492956E+04</rscale>
<asrwt>0</asrwt>
<pdfrwt beam="2">  1        1 0.22708676E+00 0.24492956E+04</pdfrwt>
<pdfrwt beam="1">  1       -1 0.15631615E+00 0.24492956E+04</pdfrwt>
<totfact> 0.18910498E+00</totfact>
</mgrwt>
</event>
<event>
 4    1  0.7144937E-008  0.1998875E+04  0.7816531E-02  0.8607147E-01
         -2   -1    0    0    0  501 -0.00000000000E+00  0.00000000000E+00  0.88780939556E+03  0.88780939556E+03  0.00000000000E+00 0. -1.
          2   -1    0    0  501    0  0.00000000000E+00 -0.00000000000E+00 -0.11251006277E+04  0.11251006277E+04  0.00000000000E+00 0.  1.
    2000013    1    1    2    0    0 -0.38360701800E+03  0.43595483317E+03 -0.26686588992E+03  0.10239279096E+04  0.80000000000E+03 0.  0.
   -2000013    1    1    2    0    0  0.38360701800E+03 -0.43595483317E+03  0.29574657760E+02  0.98898211369E+03  0.80000000000E+03 0.  0.
<mgrwt>
<rscale>  0 0.19988746E+04</rscale>
<asrwt>0</asrwt>
<pdfrwt beam="2">  1        2 0.17309240E+00 0.19988746E+04</pdfrwt>
<pdfrwt beam="1">  1       -2 0.13658606E+00 0.19988746E+04</pdfrwt>
<totfact> 0.74803198E+00</totfact>
</mgrwt>
</event>
<event>
 4    1  0.7144937E-008  0.1838902E+04  0.7816531E-02  0.8685881E-01
          1   -1    0    0  501    0  0.00000000000E+00  0.00000000000E+00  0.86228904973E+03  0.86228904973E+03  0.00000000000E+00 0.  1.
         -1   -1    0    0    0  501 -0.00000000000E+00 -0.00000000000E+00 -0.98040274656E+03  0.98040274656E+03  0.00000000000E+00 0. -1.
    2000013    1    1    2    0    0 -0.62166963846E+02 -0.44359557408E+03  0.99966044896E+01  0.91691967851E+03  0.80000000000E+03 0.  0.
   -2000013    1    1    2    0    0  0.62166963846E+02  0.44359557408E+03 -0.12811030132E+03  0.92577211777E+03  0.80000000000E+03 0.  0.
<mgrwt>
<rscale>  0 0.18389024E+04</rscale>
<asrwt>0</asrwt>
<pdfrwt beam="1">  1        1 0.13265985E+00 0.18389024E+04</pdfrwt>
<pdfrwt beam="2">  1       -1 0.15083119E+00 0.18389024E+04</pdfrwt>
<totfact> 0.63224332E+00</totfact>
</mgrwt>
</event>
<event>
 4    1  0.7144937E-008  0.1843427E+04  0.7816531E-02  0.8683540E-01
         -2   -1    0    0    0  501 -0.00000000000E+00  0.00000000000E+00  0.46127175973E+03  0.46127175973E+03  0.00000000000E+00 0. -1.
          2   -1    0    0  501    0  0.00000000000E+00 -0.00000000000E+00 -0.18417683895E+04  0.18417683895E+04  0.00000000000E+00 0.  1.
    2000013    1    1    2    0    0  0.41957424711E+03  0.16535651785E+03 -0.59211128544E+03  0.10926944226E+04  0.80000000000E+03 0.  0.
   -2000013    1    1    2    0    0 -0.41957424711E+03 -0.16535651785E+03 -0.78838534433E+03  0.12103457266E+04  0.80000000000E+03 0.  0.
<mgrwt>
<rscale>  0 0.18434270E+04</rscale>
<asrwt>0</asrwt>
<pdfrwt beam="2">  1        2 0.28334898E+00 0.18434270E+04</pdfrwt>
<pdfrwt beam="1">  1       -2 0.70964887E-01 0.18434270E+04</pdfrwt>
<totfact> 0.13882069E+01</totfact>
</mgrwt>
</event>
<event>
 4    1  0.7144937E-008  0.1693493E+04  0.7816531E-02  0.8765084E-01
          2   -1    0    0  501    0  0.00000000000E+00  0.00000000000E+00  0.43492995051E+03  0.43492995051E+03  0.00000000000E+00 0.  1.
         -2   -1    0    0    0  501 -0.00000000000E+00 -0.00000000000E+00 -0.16484942669E+04  0.16484942669E+04  0.00000000000E+00 0. -1.
    2000013    1    1    2    0    0  0.12616272227E+02 -0.22031347269E+03 -0.81367809056E+03  0.11622259813E+04  0.80000000000E+03 0.  0.
   -2000013    1    1    2    0    0 -0.12616272227E+02  0.22031347269E+03 -0.39988622583E+03  0.92119823610E+03  0.80000000000E+03 0.  0.
<mgrwt>
<rscale>  0 0.16934929E+04</rscale>
<asrwt>0</asrwt>
<pdfrwt beam="1">  1        2 0.66912300E-01 0.16934929E+04</pdfrwt>
<pdfrwt beam="2">  1       -2 0.25361450E+00 0.16934929E+04</pdfrwt>
<totfact> 0.42040622E+00</totfact>
</mgrwt>
</event>
<event>
 4    1  0.7144937E-008  0.2844432E+04  0.7816531E-02  0.8289605E-01
          2   -1    0    0  501    0  0.00000000000E+00  0.00000000000E+00  0.21917359636E+04  0.21917359636E+04  0.00000000000E+00 0.  1.
         -2   -1    0    0    0  501 -0.00000000000E+00 -0.00000000000E+00 -0.92287492274E+03  0.92287492274E+03  0.00000000000E+00 0. -1.
    2000013    1    1    2    0    0  0.90736670127E+03 -0.71918265872E+03  0.40959794391E+03  0.14657109206E+04  0.80000000000E+03 0.  0.
   -2000013    1    1    2    0    0 -0.90736670127E+03  0.71918265872E+03  0.85926309697E+03  0.16488999657E+04  0.80000000000E+03 0.  0.
<mgrwt>
<rscale>  0 0.28444319E+04</rscale>
<asrwt>0</asrwt>
<pdfrwt beam="1">  1        2 0.33719015E+00 0.28444319E+04</pdfrwt>
<pdfrwt beam="2">  1       -2 0.14198076E+00 0.28444319E+04</pdfrwt>
<totfact> 0.15667903E+00</totfact>
</mgrwt>
</event>
<event>
 4    1  0.7144937E-008  0.2852599E+04  0.7816531E-02  0.8287122E-01
         -2   -1    0    0    0  501 -0.00000000000E+00  0.00000000000E+00  0.84108859316E+03  0.84108859316E+03  0.00000000000E+00 0. -1.
          2   -1    0    0  501    0  0.00000000000E+00 -0.00000000000E+00 -0.24186876005E+04  0.24186876005E+04  0.00000000000E+00 0.  1.
    2000013    1    1    2    0    0 -0.83351899586E+03  0.55845141016E+03 -0.77258754505E+02  0.12855313334E+04  0.80000000000E+03 0.  0.
   -2000013    1    1    2    0    0  0.83351899586E+03 -0.55845141016E+03 -0.15003402528E+04  0.19742448602E+04  0.80000000000E+03 0.  0.
<mgrwt>
<rscale>  0 0.28525992E+04</rscale>
<asrwt>0</asrwt>
<pdfrwt beam="2">  1        2 0.37210578E+00 0.28525992E+04</pdfrwt>
<pdfrwt beam="1">  1       -2 0.12939825E+00 0.28525992E+04</pdfrwt>
<totfact> 0.14764214E+00</totfact>
</mgrwt>
</event>
<event>
 4    1  0.7144937E-008  0.1754479E+04  0.7816531E-02  0.8730889E-01
         -1   -1    0    0    0  501 -0.00000000000E+00  0.00000000000E+00  0.84258311112E+03  0.84258311112E+03  0.00000000000E+00 0. -1.
          1   -1    0    0  501    0  0.00000000000E+00 -0.00000000000E+00 -0.91332093174E+03  0.91332093174E+03  0.00000000000E+00 0.  1.
    2000013    1    1    2    0    0 -0.10445916116E+03 -0.30309319518E+03  0.12838428828E+03  0.87135510947E+03  0.80000000000E+03 0.  0.
   -2000013    1    1    2    0    0  0.10445916116E+03  0.30309319518E+03 -0.19912210890E+03  0.88454893339E+03  0.80000000000E+03 0.  0.
<mgrwt>
<rscale>  0 0.17544786E+04</rscale>
<asrwt>0</asrwt>
<pdfrwt beam="2">  1        1 0.14051091E+00 0.17544786E+04</pdfrwt>
<pdfrwt beam="1">  1       -1 0.12962817E+00 0.17544786E+04</pdfrwt>
<totfact> 0.85883119E+00</totfact>
</mgrwt>
</event>
<event>
 4    1  0.7144937E-008  0.1978860E+04  0.7816531E-02  0.8616569E-01
         -2   -1    0    0    0  501 -0.00000000000E+00  0.00000000000E+00  0.27459145777E+04  0.27459145777E+04  0.00000000000E+00 0. -1.
          2   -1    0    0  501    0  0.00000000000E+00 -0.00000000000E+00 -0.35651930519E+03  0.35651930519E+03  0.00000000000E+00 0.  1.
    2000013    1    1    2    0    0 -0.22242106196E+03  0.13848583702E+03  0.20098302685E+04  0.21790060037E+04  0.80000000000E+03 0.  0.
   -2000013    1    1    2    0    0  0.22242106196E+03 -0.13848583702E+03  0.37956500403E+03  0.92342787923E+03  0.80000000000E+03 0.  0.
<mgrwt>
<rscale>  0 0.19788598E+04</rscale>
<asrwt>0</asrwt>
<pdfrwt beam="2">  1        2 0.54849126E-01 0.19788598E+04</pdfrwt>
<pdfrwt beam="1">  1       -2 0.42244838E+00 0.19788598E+04</pdfrwt>
<totfact> 0.44625123E-01</totfact>
</mgrwt>
</event>
<event>
 4    1  0.7144937E-008  0.2108226E+04  0.7816531E-02  0.8557628E-01
          2   -1    0    0  501    0  0.00000000000E+00  0.00000000000E+00  0.63672744953E+03  0.63672744953E+03  0.00000000000E+00 0. -1.
         -2   -1    0    0    0  501 -0.00000000000E+00 -0.00000000000E+00 -0.17451014637E+04  0.17451014637E+04  0.00000000000E+00 0.  1.
    2000013    1    1    2    0    0 -0.20332363111E+03  0.28776927319E+03 -0.12197047644E+04  0.15006103311E+04  0.80000000000E+03 0.  0.
   -2000013    1    1    2    0    0  0.20332363111E+03 -0.28776927319E+03  0.11133075019E+03  0.88121858213E+03  0.80000000000E+03 0.  0.
<mgrwt>
<rscale>  0 0.21082258E+04</rscale>
<asrwt>0</asrwt>
<pdfrwt beam="1">  1        2 0.97958071E-01 0.21082258E+04</pdfrwt>
<pdfrwt beam="2">  1       -2 0.26847714E+00 0.21082258E+04</pdfrwt>
<totfact> 0.21034740E+00</totfact>
</mgrwt>
</event>
<event>
 4    1  0.7144937E-008  0.2594073E+04  0.7816531E-02  0.8370217E-01
         -2   -1    0    0    0  501 -0.00000000000E+00  0.00000000000E+00  0.18616388896E+04  0.18616388896E+04  0.00000000000E+00 0. -1.
          2   -1    0    0  501    0  0.00000000000E+00 -0.00000000000E+00 -0.90366839517E+03  0.90366839517E+03  0.00000000000E+00 0.  1.
    2000013    1    1    2    0    0 -0.99623754733E+02  0.90136138254E+03 -0.20934626970E+02  0.12094690955E+04  0.80000000000E+03 0.  0.
   -2000013    1    1    2    0    0  0.99623754733E+02 -0.90136138254E+03  0.97890512142E+03  0.15558381893E+04  0.80000000000E+03 0.  0.
<mgrwt>
<rscale>  0 0.25940734E+04</rscale>
<asrwt>0</asrwt>
<pdfrwt beam="2">  1        2 0.13902591E+00 0.25940734E+04</pdfrwt>
<pdfrwt beam="1">  1       -2 0.28640598E+00 0.25940734E+04</pdfrwt>
<totfact> 0.99304968E-01</totfact>
</mgrwt>
</event>
<event>
 4    1  0.7144937E-008  0.2115361E+04  0.7816531E-02  0.8554507E-01
          2   -1    0    0  501    0  0.00000000000E+00  0.00000000000E+00  0.31782506217E+04  0.31782506217E+04  0.00000000000E+00 0.  1.
         -2   -1    0    0    0  501 -0.00000000000E+00 -0.00000000000E+00 -0.35198238748E+03  0.35198238748E+03  0.00000000000E+00 0. -1.
    2000013    1    1    2    0    0  0.54887840316E+03  0.36506987457E+03  0.10624967012E+04  0.14843997961E+04  0.80000000000E+03 0.  0.
   -2000013    1    1    2    0    0 -0.54887840316E+03 -0.36506987457E+03  0.17637715330E+04  0.20458332130E+04  0.80000000000E+03 0.  0.
<mgrwt>
<rscale>  0 0.21153612E+04</rscale>
<asrwt>0</asrwt>
<pdfrwt beam="1">  1        2 0.48896162E+00 0.21153612E+04</pdfrwt>
<pdfrwt beam="2">  1       -2 0.54151139E-01 0.21153612E+04</pdfrwt>
<totfact> 0.39696357E+00</totfact>
</mgrwt>
</event>
<event>
 4    1  0.7144937E-008  0.1725054E+04  0.7816531E-02  0.8747203E-01
         -2   -1    0    0    0  501 -0.00000000000E+00  0.00000000000E+00  0.51274146170E+03  0.51274146170E+03  0.00000000000E+00 0. -1.
          2   -1    0    0  501    0  0.00000000000E+00 -0.00000000000E+00 -0.14509316784E+04  0.14509316784E+04  0.00000000000E+00 0.  1.
    2000013    1    1    2    0    0 -0.75693942388E+02  0.28859376044E+03 -0.60821739714E+03  0.10483054582E+04  0.80000000000E+03 0.  0.
   -2000013    1    1    2    0    0  0.75693942388E+02 -0.28859376044E+03 -0.32997281959E+03  0.91536768194E+03  0.80000000000E+03 0.  0.
<mgrwt>
<rscale>  0 0.17250540E+04</rscale>
<asrwt>0</asrwt>
<pdfrwt beam="2">  1        2 0.22322026E+00 0.17250540E+04</pdfrwt>
<pdfrwt beam="1">  1       -2 0.78883302E-01 0.17250540E+04</pdfrwt>
<totfact> 0.18336485E+01</totfact>
</mgrwt>
</event>
<event>
 4    1  0.7144937E-008  0.2581093E+04  0.7816531E-02  0.8374652E-01
         -2   -1    0    0    0  501 -0.00000000000E+00  0.00000000000E+00  0.73452089147E+03  0.73452089147E+03  0.00000000000E+00 0. -1.
          2   -1    0    0  501    0  0.00000000000E+00 -0.00000000000E+00 -0.22674782547E+04  0.22674782547E+04  0.00000000000E+00 0.  1.
    2000013    1    1    2    0    0 -0.77280974871E+02 -0.10063378931E+04 -0.67041530565E+03  0.14519452422E+04  0.80000000000E+03 0.  0.
   -2000013    1    1    2    0    0  0.77280974871E+02  0.10063378931E+04 -0.86254205756E+03  0.15500539040E+04  0.80000000000E+03 0.  0.
<mgrwt>
<rscale>  0 0.25810929E+04</rscale>
<asrwt>0</asrwt>
<pdfrwt beam="2">  1        2 0.34884281E+00 0.25810929E+04</pdfrwt>
<pdfrwt beam="1">  1       -2 0.11300322E+00 0.25810929E+04</pdfrwt>
<totfact> 0.25785689E+00</totfact>
</mgrwt>
</event>
<event>
 4    1  0.7144937E-008  0.2373667E+04  0.7816531E-02  0.8449428E-01
         -2   -1    0    0    0  501 -0.00000000000E+00  0.00000000000E+00  0.12241765582E+04  0.12241765582E+04  0.00000000000E+00 0. -1.
          2   -1    0    0  501    0  0.00000000000E+00 -0.00000000000E+00 -0.11506296929E+04  0.11506296929E+04  0.00000000000E+00 0.  1.
    2000013    1    1    2    0    0  0.40887943298E+03 -0.66413210306E+03 -0.36381859138E+03  0.11749969398E+04  0.80000000000E+03 0.  0.
   -2000013    1    1    2    0    0 -0.40887943298E+03  0.66413210306E+03  0.43736545665E+03  0.11998093114E+04  0.80000000000E+03 0.  0.
<mgrwt>
<rscale>  0 0.23736671E+04</rscale>
<asrwt>0</asrwt>
<pdfrwt beam="2">  1        2 0.17701995E+00 0.23736671E+04</pdfrwt>
<pdfrwt beam="1">  1       -2 0.18833485E+00 0.23736671E+04</pdfrwt>
<totfact> 0.29073062E+00</totfact>
</mgrwt>
</event>
<event>
 4    1  0.7144937E-008  0.2143768E+04  0.7816531E-02  0.8542205E-01
          2   -1    0    0  501    0  0.00000000000E+00  0.00000000000E+00  0.85403184139E+03  0.85403184139E+03  0.00000000000E+00 0.  1.
         -2   -1    0    0    0  501 -0.00000000000E+00 -0.00000000000E+00 -0.13453071926E+04  0.13453071926E+04  0.00000000000E+00 0. -1.
    2000013    1    1    2    0    0 -0.61594399204E+03  0.33859725891E+03 -0.37086774865E+03  0.11276426704E+04  0.80000000000E+03 0.  0.
   -2000013    1    1    2    0    0  0.61594399204E+03 -0.33859725891E+03 -0.12040760260E+03  0.10716963636E+04  0.80000000000E+03 0.  0.
<mgrwt>
<rscale>  0 0.21437679E+04</rscale>
<asrwt>0</asrwt>
<pdfrwt beam="1">  1        2 0.13138951E+00 0.21437679E+04</pdfrwt>
<pdfrwt beam="2">  1       -2 0.20697034E+00 0.21437679E+04</pdfrwt>
<totfact> 0.34670506E+00</totfact>
</mgrwt>
</event>
<event>
 4    1  0.7144937E-008  0.2853094E+04  0.7816531E-02  0.8286972E-01
         -2   -1    0    0    0  501 -0.00000000000E+00  0.00000000000E+00  0.12416477095E+04  0.12416477095E+04  0.00000000000E+00 0.  1.
          2   -1    0    0  501    0  0.00000000000E+00 -0.00000000000E+00 -0.16389802338E+04  0.16389802338E+04  0.00000000000E+00 0. -1.
    2000013    1    1    2    0    0  0.63962304304E+03  0.63576462049E+03 -0.96873372821E+03  0.15465313854E+04  0.80000000000E+03 0.  0.
   -2000013    1    1    2    0    0 -0.63962304304E+03 -0.63576462049E+03  0.57140120392E+03  0.13340965579E+04  0.80000000000E+03 0.  0.
<mgrwt>
<rscale>  0 0.28530938E+04</rscale>
<asrwt>0</asrwt>
<pdfrwt beam="2">  1        2 0.25215081E+00 0.28530938E+04</pdfrwt>
<pdfrwt beam="1">  1       -2 0.19102272E+00 0.28530938E+04</pdfrwt>
<totfact> 0.14021515E+00</totfact>
</mgrwt>
</event>
<event>
 4    1  0.7144937E-008  0.2454032E+04  0.7816531E-02  0.8419547E-01
         -2   -1    0    0    0  501 -0.00000000000E+00  0.00000000000E+00  0.67844673182E+03  0.67844673182E+03  0.00000000000E+00 0. -1.
          2   -1    0    0  501    0  0.00000000000E+00 -0.00000000000E+00 -0.22191403820E+04  0.22191403820E+04  0.00000000000E+00 0.  1.
    2000013    1    1    2    0    0  0.19205234181E+02  0.85031203545E+03 -0.32514297651E+03  0.12120715135E+04  0.80000000000E+03 0.  0.
   -2000013    1    1    2    0    0 -0.19205234181E+02 -0.85031203545E+03 -0.12155506736E+04  0.16855156003E+04  0.80000000000E+03 0.  0.
<mgrwt>
<rscale>  0 0.24540322E+04</rscale>
<asrwt>0</asrwt>
<pdfrwt beam="2">  1        2 0.34140621E+00 0.24540322E+04</pdfrwt>
<pdfrwt beam="1">  1       -2 0.10437642E+00 0.24540322E+04</pdfrwt>
<totfact> 0.33622141E+00</totfact>
</mgrwt>
</event>
<event>
 4    1  0.7144937E-008  0.2600740E+04  0.7816531E-02  0.8367950E-01
         -2   -1    0    0    0  501 -0.00000000000E+00  0.00000000000E+00  0.12692705738E+04  0.12692705738E+04  0.00000000000E+00 0. -1.
          2   -1    0    0  501    0  0.00000000000E+00 -0.00000000000E+00 -0.13322313393E+04  0.13322313393E+04  0.00000000000E+00 0.  1.
    2000013    1    1    2    0    0  0.51801791110E+03  0.74642890252E+03  0.44348857420E+03  0.12892559010E+04  0.80000000000E+03 0.  0.
   -2000013    1    1    2    0    0 -0.51801791110E+03 -0.74642890252E+03 -0.50644933967E+03  0.13122460121E+04  0.80000000000E+03 0.  0.
<mgrwt>
<rscale>  0 0.26007399E+04</rscale>
<asrwt>0</asrwt>
<pdfrwt beam="2">  1        2 0.20495867E+00 0.26007399E+04</pdfrwt>
<pdfrwt beam="1">  1       -2 0.19527240E+00 0.26007399E+04</pdfrwt>
<totfact> 0.20015950E+00</totfact>
</mgrwt>
</event>
<event>
 4    1  0.7144937E-008  0.2093134E+04  0.7816531E-02  0.8564274E-01
          2   -1    0    0  501    0  0.00000000000E+00  0.00000000000E+00  0.14378904757E+04  0.14378904757E+04  0.00000000000E+00 0.  1.
         -2   -1    0    0    0  501 -0.00000000000E+00 -0.00000000000E+00 -0.76174278787E+03  0.76174278787E+03  0.00000000000E+00 0. -1.
    2000013    1    1    2    0    0  0.28714768175E+02 -0.45613010546E+03 -0.18359422512E+03  0.93946051036E+03  0.80000000000E+03 0.  0.
   -2000013    1    1    2    0    0 -0.28714768175E+02  0.45613010546E+03  0.85974191290E+03  0.12601727532E+04  0.80000000000E+03 0.  0.
<mgrwt>
<rscale>  0 0.20931342E+04</rscale>
<asrwt>0</asrwt>
<pdfrwt beam="1">  1        2 0.22121392E+00 0.20931342E+04</pdfrwt>
<pdfrwt beam="2">  1       -2 0.11719120E+00 0.20931342E+04</pdfrwt>
<totfact> 0.71481906E+00</totfact>
</mgrwt>
</event>
<event>
 4    1  0.7144937E-008  0.2163534E+04  0.7816531E-02  0.8533761E-01
          2   -1    0    0  501    0  0.00000000000E+00  0.00000000000E+00  0.14608415205E+04  0.14608415205E+04  0.00000000000E+00 0.  1.
         -2   -1    0    0    0  501 -0.00000000000E+00 -0.00000000000E+00 -0.80105838999E+03  0.80105838999E+03  0.00000000000E+00 0. -1.
    2000013    1    1    2    0    0 -0.69225174314E+03 -0.22041486159E+03  0.38136595759E+03  0.11459647380E+04  0.80000000000E+03 0.  0.
   -2000013    1    1    2    0    0  0.69225174314E+03  0.22041486159E+03  0.27841717295E+03  0.11159351725E+04  0.80000000000E+03 0.  0.
<mgrwt>
<rscale>  0 0.21635336E+04</rscale>
<asrwt>0</asrwt>
<pdfrwt beam="1">  1        2 0.22474485E+00 0.21635336E+04</pdfrwt>
<pdfrwt beam="2">  1       -2 0.12323975E+00 0.21635336E+04</pdfrwt>
<totfact> 0.60861055E+00</totfact>
</mgrwt>
</event>
<event>
 4    1  0.7144937E-008  0.1778696E+04  0.7816531E-02  0.8717711E-01
          2   -1    0    0  501    0  0.00000000000E+00  0.00000000000E+00  0.64909807698E+03  0.64909807698E+03  0.00000000000E+00 0.  1.
         -2   -1    0    0    0  501 -0.00000000000E+00 -0.00000000000E+00 -0.12185215498E+04  0.12185215498E+04  0.00000000000E+00 0. -1.
    2000013    1    1    2    0    0 -0.14368191689E+03  0.27471494823E+03 -0.38853538581E+02  0.85884945915E+03  0.80000000000E+03 0.  0.
   -2000013    1    1    2    0    0  0.14368191689E+03 -0.27471494823E+03 -0.53056993429E+03  0.10087701677E+04  0.80000000000E+03 0.  0.
<mgrwt>
<rscale>  0 0.17786961E+04</rscale>
<asrwt>0</asrwt>
<pdfrwt beam="1">  1        2 0.99861244E-01 0.17786961E+04</pdfrwt>
<pdfrwt beam="2">  1       -2 0.18746485E+00 0.17786961E+04</pdfrwt>
<totfact> 0.68612283E+00</totfact>
</mgrwt>
</event>
<event>
 4    1  0.7144937E-008  0.1940728E+04  0.7816531E-02  0.8634845E-01
          2   -1    0    0  501    0  0.00000000000E+00  0.00000000000E+00  0.30523678978E+04  0.30523678978E+04  0.00000000000E+00 0.  1.
         -2   -1    0    0    0  501 -0.00000000000E+00 -0.00000000000E+00 -0.30848373535E+03  0.30848373535E+03  0.00000000000E+00 0. -1.
    2000013    1    1    2    0    0 -0.42266944191E+02 -0.53029060587E+03  0.11356918166E+04  0.14875451333E+04  0.80000000000E+03 0.  0.
   -2000013    1    1    2    0    0  0.42266944191E+02  0.53029060587E+03  0.16081923458E+04  0.18733064999E+04  0.80000000000E+03 0.  0.
<mgrwt>
<rscale>  0 0.19407275E+04</rscale>
<asrwt>0</asrwt>
<pdfrwt beam="1">  1        2 0.46959504E+00 0.19407275E+04</pdfrwt>
<pdfrwt beam="2">  1       -2 0.47459038E-01 0.19407275E+04</pdfrwt>
<totfact> 0.63578182E+00</totfact>
</mgrwt>
</event>
<event>
 4    1  0.7144937E-008  0.1760816E+04  0.7816531E-02  0.8727419E-01
          2   -1    0    0  501    0  0.00000000000E+00  0.00000000000E+00  0.37897182318E+04  0.37897182318E+04  0.00000000000E+00 0.  1.
         -2   -1    0    0    0  501 -0.00000000000E+00 -0.00000000000E+00 -0.20453189008E+03  0.20453189008E+03  0.00000000000E+00 0. -1.
    2000013    1    1    2    0    0 -0.36608691234E+03  0.23755869944E+02  0.17401608272E+04  0.19500624793E+04  0.80000000000E+03 0.  0.
   -2000013    1    1    2    0    0  0.36608691234E+03 -0.23755869944E+02  0.18450255145E+04  0.20441876425E+04  0.80000000000E+03 0.  0.
<mgrwt>
<rscale>  0 0.17608160E+04</rscale>
<asrwt>0</asrwt>
<pdfrwt beam="1">  1        2 0.58303352E+00 0.17608160E+04</pdfrwt>
<pdfrwt beam="2">  1       -2 0.31466447E-01 0.17608160E+04</pdfrwt>
<totfact> 0.44962069E+00</totfact>
</mgrwt>
</event>
<event>
 4    1  0.7144937E-008  0.1852439E+04  0.7816531E-02  0.8678900E-01
          2   -1    0    0  501    0  0.00000000000E+00  0.00000000000E+00  0.22872030192E+04  0.22872030192E+04  0.00000000000E+00 0.  1.
         -2   -1    0    0    0  501 -0.00000000000E+00 -0.00000000000E+00 -0.37507925458E+03  0.37507925458E+03  0.00000000000E+00 0. -1.
    2000013    1    1    2    0    0  0.30228144147E+03  0.28115403388E+03  0.12691578618E+04  0.15560152116E+04  0.80000000000E+03 0.  0.
   -2000013    1    1    2    0    0 -0.30228144147E+03 -0.28115403388E+03  0.64296590280E+03  0.11062670621E+04  0.80000000000E+03 0.  0.
<mgrwt>
<rscale>  0 0.18524388E+04</rscale>
<asrwt>0</asrwt>
<pdfrwt beam="1">  1        2 0.35187738E+00 0.18524388E+04</pdfrwt>
<pdfrwt beam="2">  1       -2 0.57704502E-01 0.18524388E+04</pdfrwt>
<totfact> 0.12191791E+01</totfact>
</mgrwt>
</event>
<event>
 4    1  0.7144937E-008  0.2437466E+04  0.7816531E-02  0.8425609E-01
          2   -1    0    0  501    0  0.00000000000E+00  0.00000000000E+00  0.83033218732E+03  0.83033218732E+03  0.00000000000E+00 0.  1.
         -2   -1    0    0    0  501 -0.00000000000E+00 -0.00000000000E+00 -0.17888144808E+04  0.17888144808E+04  0.00000000000E+00 0. -1.
    2000013    1    1    2    0    0  0.82402873969E+03 -0.51711882774E+02 -0.91388127306E+03  0.14686308127E+04  0.80000000000E+03 0.  0.
   -2000013    1    1    2    0    0 -0.82402873969E+03  0.51711882774E+02 -0.44601020419E+02  0.11505158555E+04  0.80000000000E+03 0.  0.
<mgrwt>
<rscale>  0 0.24374661E+04</rscale>
<asrwt>0</asrwt>
<pdfrwt beam="1">  1        2 0.12774341E+00 0.24374661E+04</pdfrwt>
<pdfrwt beam="2">  1       -2 0.27520223E+00 0.24374661E+04</pdfrwt>
<totfact> 0.13232807E+00</totfact>
</mgrwt>
</event>
<event>
 4    1  0.7144937E-008  0.2809814E+04  0.7816531E-02  0.8300228E-01
         -2   -1    0    0    0  501 -0.00000000000E+00  0.00000000000E+00  0.73117060909E+03  0.73117060909E+03  0.00000000000E+00 0. -1.
          2   -1    0    0  501    0  0.00000000000E+00 -0.00000000000E+00 -0.26994579346E+04  0.26994579346E+04  0.00000000000E+00 0.  1.
    2000013    1    1    2    0    0 -0.97104988658E+03  0.54647043743E+03 -0.13548698192E+04  0.19280145353E+04  0.80000000000E+03 0.  0.
   -2000013    1    1    2    0    0  0.97104988658E+03 -0.54647043743E+03 -0.61341750631E+03  0.15026140084E+04  0.80000000000E+03 0.  0.
<mgrwt>
<rscale>  0 0.28098144E+04</rscale>
<asrwt>0</asrwt>
<pdfrwt beam="2">  1        2 0.41530122E+00 0.28098144E+04</pdfrwt>
<pdfrwt beam="1">  1       -2 0.11248779E+00 0.28098144E+04</pdfrwt>
<totfact> 0.14373381E+00</totfact>
</mgrwt>
</event>
<event>
 4    1  0.7144937E-008  0.1928265E+04  0.7816531E-02  0.8640914E-01
          2   -1    0    0  501    0  0.00000000000E+00  0.00000000000E+00  0.20124946467E+04  0.20124946467E+04  0.00000000000E+00 0.  1.
         -2   -1    0    0    0  501 -0.00000000000E+00 -0.00000000000E+00 -0.46188993353E+03  0.46188993353E+03  0.00000000000E+00 0. -1.
    2000013    1    1    2    0    0  0.27277218821E+03  0.10236724579E+03  0.19477215509E+03  0.87339562174E+03  0.80000000000E+03 0.  0.
   -2000013    1    1    2    0    0 -0.27277218821E+03 -0.10236724579E+03  0.13558325580E+04  0.16009889585E+04  0.80000000000E+03 0.  0.
<mgrwt>
<rscale>  0 0.19282645E+04</rscale>
<asrwt>0</asrwt>
<pdfrwt beam="1">  1        2 0.30961456E+00 0.19282645E+04</pdfrwt>
<pdfrwt beam="2">  1       -2 0.71059991E-01 0.19282645E+04</pdfrwt>
<totfact> 0.11050727E+01</totfact>
</mgrwt>
</event>
<event>
 4    1  0.7144937E-008  0.2134246E+04  0.7816531E-02  0.8546306E-01
         -2   -1    0    0    0  501 -0.00000000000E+00  0.00000000000E+00  0.89168509004E+03  0.89168509004E+03  0.00000000000E+00 0. -1.
          2   -1    0    0  501    0  0.00000000000E+00 -0.00000000000E+00 -0.12770785764E+04  0.12770785764E+04  0.00000000000E+00 0.  1.
    2000013    1    1    2    0    0 -0.23809473573E+03  0.59226969181E+03 -0.49970788808E+03  0.11389383058E+04  0.80000000000E+03 0.  0.
   -2000013    1    1    2    0    0  0.23809473573E+03 -0.59226969181E+03  0.11431440170E+03  0.10298253607E+04  0.80000000000E+03 0.  0.
<mgrwt>
<rscale>  0 0.21342464E+04</rscale>
<asrwt>0</asrwt>
<pdfrwt beam="2">  1        2 0.19647363E+00 0.21342464E+04</pdfrwt>
<pdfrwt beam="1">  1       -2 0.13718232E+00 0.21342464E+04</pdfrwt>
<totfact> 0.59331671E+00</totfact>
</mgrwt>
</event>
<event>
 4    1  0.7144937E-008  0.2110175E+04  0.7816531E-02  0.8556774E-01
          1   -1    0    0  501    0  0.00000000000E+00  0.00000000000E+00  0.66774936615E+03  0.66774936615E+03  0.00000000000E+00 0. -1.
         -1   -1    0    0    0  501 -0.00000000000E+00 -0.00000000000E+00 -0.16671075850E+04  0.16671075850E+04  0.00000000000E+00 0.  1.
    2000013    1    1    2    0    0  0.50719401000E+03  0.46013616301E+03 -0.42763931624E+03  0.11365942271E+04  0.80000000000E+03 0.  0.
   -2000013    1    1    2    0    0 -0.50719401000E+03 -0.46013616301E+03 -0.57171890265E+03  0.11982627241E+04  0.80000000000E+03 0.  0.
<mgrwt>
<rscale>  0 0.21101754E+04</rscale>
<asrwt>0</asrwt>
<pdfrwt beam="1">  1        1 0.10273067E+00 0.21101754E+04</pdfrwt>
<pdfrwt beam="2">  1       -1 0.25647809E+00 0.21101754E+04</pdfrwt>
<totfact> 0.17004469E+00</totfact>
</mgrwt>
</event>
<event>
 4    1  0.7144937E-008  0.1846796E+04  0.7816531E-02  0.8681802E-01
          2   -1    0    0  501    0  0.00000000000E+00  0.00000000000E+00  0.74509811710E+03  0.74509811710E+03  0.00000000000E+00 0.  1.
         -2   -1    0    0    0  501 -0.00000000000E+00 -0.00000000000E+00 -0.11443651420E+04  0.11443651420E+04  0.00000000000E+00 0. -1.
    2000013    1    1    2    0    0  0.45264513489E+03 -0.67542943865E+02 -0.25764125105E+03  0.95698938429E+03  0.80000000000E+03 0.  0.
   -2000013    1    1    2    0    0 -0.45264513489E+03  0.67542943865E+02 -0.14162577386E+03  0.93247387482E+03  0.80000000000E+03 0.  0.
<mgrwt>
<rscale>  0 0.18467965E+04</rscale>
<asrwt>0</asrwt>
<pdfrwt beam="1">  1        2 0.11463048E+00 0.18467965E+04</pdfrwt>
<pdfrwt beam="2">  1       -2 0.17605618E+00 0.18467965E+04</pdfrwt>
<totfact> 0.68666573E+00</totfact>
</mgrwt>
</event>
<event>
 4    1  0.7144937E-008  0.2663713E+04  0.7816531E-02  0.8346876E-01
         -2   -1    0    0    0  501 -0.00000000000E+00  0.00000000000E+00  0.45423958206E+03  0.45423958206E+03  0.00000000000E+00 0. -1.
          2   -1    0    0  501    0  0.00000000000E+00 -0.00000000000E+00 -0.39050798212E+04  0.39050798212E+04  0.00000000000E+00 0.  1.
    2000013    1    1    2    0    0  0.91609819854E+03 -0.50244391898E+03 -0.20614369841E+04  0.24456508828E+04  0.80000000000E+03 0.  0.
   -2000013    1    1    2    0    0 -0.91609819854E+03  0.50244391898E+03 -0.13894032550E+04  0.19136685204E+04  0.80000000000E+03 0.  0.
<mgrwt>
<rscale>  0 0.26637131E+04</rscale>
<asrwt>0</asrwt>
<pdfrwt beam="2">  1        2 0.60078154E+00 0.26637131E+04</pdfrwt>
<pdfrwt beam="1">  1       -2 0.69883009E-01 0.26637131E+04</pdfrwt>
<totfact> 0.66965358E-01</totfact>
</mgrwt>
</event>
<event>
 4    1  0.7144937E-008  0.2498304E+04  0.7816531E-02  0.8403590E-01
          2   -1    0    0  501    0  0.00000000000E+00  0.00000000000E+00  0.10063992785E+04  0.10063992785E+04  0.00000000000E+00 0.  1.
         -2   -1    0    0    0  501 -0.00000000000E+00 -0.00000000000E+00 -0.15504585205E+04  0.15504585205E+04  0.00000000000E+00 0. -1.
    2000013    1    1    2    0    0 -0.77057382525E+03  0.30882619078E+03  0.22009668396E+03  0.11737121396E+04  0.80000000000E+03 0.  0.
   -2000013    1    1    2    0    0  0.77057382525E+03 -0.30882619078E+03 -0.76415592592E+03  0.13831456595E+04  0.80000000000E+03 0.  0.
<mgrwt>
<rscale>  0 0.24983037E+04</rscale>
<asrwt>0</asrwt>
<pdfrwt beam="1">  1        2 0.15483066E+00 0.24983037E+04</pdfrwt>
<pdfrwt beam="2">  1       -2 0.23853208E+00 0.24983037E+04</pdfrwt>
<totfact> 0.16833337E+00</totfact>
</mgrwt>
</event>
<event>
 4    1  0.7144937E-008  0.1962040E+04  0.7816531E-02  0.8624577E-01
         -2   -1    0    0    0  501 -0.00000000000E+00  0.00000000000E+00  0.51779054694E+03  0.51779054694E+03  0.00000000000E+00 0. -1.
          2   -1    0    0  501    0  0.00000000000E+00 -0.00000000000E+00 -0.18586676860E+04  0.18586676860E+04  0.00000000000E+00 0.  1.
    2000013    1    1    2    0    0  0.35302495512E+03 -0.23370546707E+03 -0.11287139954E+04  0.14468034240E+04  0.80000000000E+03 0.  0.
   -2000013    1    1    2    0    0 -0.35302495512E+03  0.23370546707E+03 -0.21216314367E+03  0.92965480895E+03  0.80000000000E+03 0.  0.
<mgrwt>
<rscale>  0 0.19620403E+04</rscale>
<asrwt>0</asrwt>
<pdfrwt beam="2">  1        2 0.28594887E+00 0.19620403E+04</pdfrwt>
<pdfrwt beam="1">  1       -2 0.79660084E-01 0.19620403E+04</pdfrwt>
<totfact> 0.10410798E+01</totfact>
</mgrwt>
</event>
<event>
 4    1  0.7144937E-008  0.2307401E+04  0.7816531E-02  0.8475009E-01
         -2   -1    0    0    0  501 -0.00000000000E+00  0.00000000000E+00  0.14399358122E+04  0.14399358122E+04  0.00000000000E+00 0. -1.
          2   -1    0    0  501    0  0.00000000000E+00 -0.00000000000E+00 -0.92436428479E+03  0.92436428479E+03  0.00000000000E+00 0.  1.
    2000013    1    1    2    0    0  0.21494798722E+03 -0.71012391843E+03 -0.12635435204E+03  0.10983824648E+04  0.80000000000E+03 0.  0.
   -2000013    1    1    2    0    0 -0.21494798722E+03  0.71012391843E+03  0.64192587945E+03  0.12659176322E+04  0.80000000000E+03 0.  0.
<mgrwt>
<rscale>  0 0.23074013E+04</rscale>
<asrwt>0</asrwt>
<pdfrwt beam="2">  1        2 0.14220989E+00 0.23074013E+04</pdfrwt>
<pdfrwt beam="1">  1       -2 0.22152859E+00 0.23074013E+04</pdfrwt>
<totfact> 0.24720840E+00</totfact>
</mgrwt>
</event>
<event>
 4    1  0.7144937E-008  0.3523261E+04  0.7816531E-02  0.8108299E-01
         -2   -1    0    0    0  501 -0.00000000000E+00  0.00000000000E+00  0.11329131462E+04  0.11329131462E+04  0.00000000000E+00 0. -1.
          2   -1    0    0  501    0  0.00000000000E+00 -0.00000000000E+00 -0.27392592368E+04  0.27392592368E+04  0.00000000000E+00 0.  1.
    2000013    1    1    2    0    0 -0.80444034837E+03 -0.13088681340E+04 -0.11560333264E+04  0.20824680353E+04  0.80000000000E+03 0.  0.
   -2000013    1    1    2    0    0  0.80444034837E+03  0.13088681340E+04 -0.45031276425E+03  0.17897043477E+04  0.80000000000E+03 0.  0.
<mgrwt>
<rscale>  0 0.35232614E+04</rscale>
<asrwt>0</asrwt>
<pdfrwt beam="2">  1        2 0.42142449E+00 0.35232614E+04</pdfrwt>
<pdfrwt beam="1">  1       -2 0.17429433E+00 0.35232614E+04</pdfrwt>
<totfact> 0.40991969E-01</totfact>
</mgrwt>
</event>
<event>
 4    1  0.7144937E-008  0.2007239E+04  0.7816531E-02  0.8603244E-01
          2   -1    0    0  501    0  0.00000000000E+00  0.00000000000E+00  0.27244927283E+04  0.27244927283E+04  0.00000000000E+00 0.  1.
         -2   -1    0    0    0  501 -0.00000000000E+00 -0.00000000000E+00 -0.36970252922E+03  0.36970252922E+03  0.00000000000E+00 0. -1.
    2000013    1    1    2    0    0 -0.50566355352E+03 -0.30688800188E+02  0.16900847583E+04  0.19372722891E+04  0.80000000000E+03 0.  0.
   -2000013    1    1    2    0    0  0.50566355352E+03  0.30688800188E+02  0.66470544071E+03  0.11569229684E+04  0.80000000000E+03 0.  0.
<mgrwt>
<rscale>  0 0.20072388E+04</rscale>
<asrwt>0</asrwt>
<pdfrwt beam="1">  1        2 0.41915272E+00 0.20072388E+04</pdfrwt>
<pdfrwt beam="2">  1       -2 0.56877314E-01 0.20072388E+04</pdfrwt>
<totfact> 0.69183058E+00</totfact>
</mgrwt>
</event>
<event>
 4    1  0.7144937E-008  0.2306281E+04  0.7816531E-02  0.8475449E-01
         -2   -1    0    0    0  501 -0.00000000000E+00  0.00000000000E+00  0.55661984612E+03  0.55661984612E+03  0.00000000000E+00 0. -1.
          2   -1    0    0  501    0  0.00000000000E+00 -0.00000000000E+00 -0.23889433573E+04  0.23889433573E+04  0.00000000000E+00 0.  1.
    2000013    1    1    2    0    0  0.57856738507E+03  0.53033056679E+03 -0.12629905692E+04  0.16885306947E+04  0.80000000000E+03 0.  0.
   -2000013    1    1    2    0    0 -0.57856738507E+03 -0.53033056679E+03 -0.56933294205E+03  0.12570325087E+04  0.80000000000E+03 0.  0.
<mgrwt>
<rscale>  0 0.23062812E+04</rscale>
<asrwt>0</asrwt>
<pdfrwt beam="2">  1        2 0.36752975E+00 0.23062812E+04</pdfrwt>
<pdfrwt beam="1">  1       -2 0.85633822E-01 0.23062812E+04</pdfrwt>
<totfact> 0.43298971E+00</totfact>
</mgrwt>
</event>
<event>
 4    1  0.7144937E-008  0.3275952E+04  0.7816531E-02  0.8169041E-01
         -2   -1    0    0    0  501 -0.00000000000E+00  0.00000000000E+00  0.13096620950E+04  0.13096620950E+04  0.00000000000E+00 0. -1.
          2   -1    0    0  501    0  0.00000000000E+00 -0.00000000000E+00 -0.20485937039E+04  0.20485937039E+04  0.00000000000E+00 0.  1.
    2000013    1    1    2    0    0  0.13660177958E+03 -0.12648307352E+04 -0.10373782297E+04  0.18260915712E+04  0.80000000000E+03 0.  0.
   -2000013    1    1    2    0    0 -0.13660177958E+03  0.12648307352E+04  0.29844662081E+03  0.15321642276E+04  0.80000000000E+03 0.  0.
<mgrwt>
<rscale>  0 0.32759521E+04</rscale>
<asrwt>0</asrwt>
<pdfrwt beam="2">  1        2 0.31516826E+00 0.32759521E+04</pdfrwt>
<pdfrwt beam="1">  1       -2 0.20148648E+00 0.32759521E+04</pdfrwt>
<totfact> 0.68320494E-01</totfact>
</mgrwt>
</event>
<event>
 4    1  0.7144937E-008  0.2245105E+04  0.7816531E-02  0.8499885E-01
          2   -1    0    0  501    0  0.00000000000E+00  0.00000000000E+00  0.29026272555E+04  0.29026272555E+04  0.00000000000E+00 0.  1.
         -2   -1    0    0    0  501 -0.00000000000E+00 -0.00000000000E+00 -0.43413240093E+03  0.43413240093E+03  0.00000000000E+00 0. -1.
    2000013    1    1    2    0    0  0.73331734574E+03  0.27110950931E+03  0.13742210434E+04  0.17719306340E+04  0.80000000000E+03 0.  0.
   -2000013    1    1    2    0    0 -0.73331734574E+03 -0.27110950931E+03  0.10942738111E+04  0.15648290224E+04  0.80000000000E+03 0.  0.
<mgrwt>
<rscale>  0 0.22451054E+04</rscale>
<asrwt>0</asrwt>
<pdfrwt beam="1">  1        2 0.44655803E+00 0.22451054E+04</pdfrwt>
<pdfrwt beam="2">  1       -2 0.66789602E-01 0.22451054E+04</pdfrwt>
<totfact> 0.37556668E+00</totfact>
</mgrwt>
</event>
<event>
 4    1  0.7144937E-008  0.1831781E+04  0.7816531E-02  0.8689579E-01
         -2   -1    0    0    0  501 -0.00000000000E+00  0.00000000000E+00  0.48775529901E+03  0.48775529901E+03  0.00000000000E+00 0. -1.
          2   -1    0    0  501    0  0.00000000000E+00 -0.00000000000E+00 -0.17198280880E+04  0.17198280880E+04  0.00000000000E+00 0.  1.
    2000013    1    1    2    0    0  0.13015826345E+03 -0.22754949956E+03 -0.10507879939E+04  0.13464305985E+04  0.80000000000E+03 0.  0.
   -2000013    1    1    2    0    0 -0.13015826345E+03  0.22754949956E+03 -0.18128479506E+03  0.86115278854E+03  0.80000000000E+03 0.  0.
<mgrwt>
<rscale>  0 0.18317808E+04</rscale>
<asrwt>0</asrwt>
<pdfrwt beam="2">  1        2 0.26458894E+00 0.18317808E+04</pdfrwt>
<pdfrwt beam="1">  1       -2 0.75039275E-01 0.18317808E+04</pdfrwt>
<totfact> 0.14358382E+01</totfact>
</mgrwt>
</event>
<event>
 4    1  0.7144937E-008  0.1788963E+04  0.7816531E-02  0.8712191E-01
         -2   -1    0    0    0  501 -0.00000000000E+00  0.00000000000E+00  0.83926831917E+03  0.83926831917E+03  0.00000000000E+00 0. -1.
          2   -1    0    0  501    0  0.00000000000E+00 -0.00000000000E+00 -0.95332683894E+03  0.95332683894E+03  0.00000000000E+00 0.  1.
    2000013    1    1    2    0    0  0.77461448574E+01 -0.39992184405E+03 -0.67025970138E+02  0.89693364569E+03  0.80000000000E+03 0.  0.
   -2000013    1    1    2    0    0 -0.77461448574E+01  0.39992184405E+03 -0.47032549631E+02  0.89566151242E+03  0.80000000000E+03 0.  0.
<mgrwt>
<rscale>  0 0.17889628E+04</rscale>
<asrwt>0</asrwt>
<pdfrwt beam="2">  1        2 0.14666567E+00 0.17889628E+04</pdfrwt>
<pdfrwt beam="1">  1       -2 0.12911820E+00 0.17889628E+04</pdfrwt>
<totfact> 0.11277855E+01</totfact>
</mgrwt>
</event>
<event>
 4    1  0.7144937E-008  0.2124265E+04  0.7816531E-02  0.8550629E-01
         -2   -1    0    0    0  501 -0.00000000000E+00  0.00000000000E+00  0.71949240492E+03  0.71949240492E+03  0.00000000000E+00 0. -1.
          2   -1    0    0  501    0  0.00000000000E+00 -0.00000000000E+00 -0.15679460386E+04  0.15679460386E+04  0.00000000000E+00 0.  1.
    2000013    1    1    2    0    0 -0.26087171974E+03  0.44936814765E+03  0.78703590101E+02  0.95717294225E+03  0.80000000000E+03 0.  0.
   -2000013    1    1    2    0    0  0.26087171974E+03 -0.44936814765E+03 -0.92715722382E+03  0.13302655013E+04  0.80000000000E+03 0.  0.
<mgrwt>
<rscale>  0 0.21242648E+04</rscale>
<asrwt>0</asrwt>
<pdfrwt beam="2">  1        2 0.24122246E+00 0.21242648E+04</pdfrwt>
<pdfrwt beam="1">  1       -2 0.11069114E+00 0.21242648E+04</pdfrwt>
<totfact> 0.69185585E+00</totfact>
</mgrwt>
</event>
<event>
 4    1  0.7144937E-008  0.2142926E+04  0.7816531E-02  0.8542566E-01
          2   -1    0    0  501    0  0.00000000000E+00  0.00000000000E+00  0.14816301552E+04  0.14816301552E+04  0.00000000000E+00 0.  1.
         -2   -1    0    0    0  501 -0.00000000000E+00 -0.00000000000E+00 -0.77484431942E+03  0.77484431942E+03  0.00000000000E+00 0. -1.
    2000013    1    1    2    0    0 -0.40774499707E+03  0.56015905064E+03  0.17719889090E+03  0.10730487368E+04  0.80000000000E+03 0.  0.
   -2000013    1    1    2    0    0  0.40774499707E+03 -0.56015905064E+03  0.52958694486E+03  0.11834257378E+04  0.80000000000E+03 0.  0.
<mgrwt>
<rscale>  0 0.21429258E+04</rscale>
<asrwt>0</asrwt>
<pdfrwt beam="1">  1        2 0.22794310E+00 0.21429258E+04</pdfrwt>
<pdfrwt beam="2">  1       -2 0.11920682E+00 0.21429258E+04</pdfrwt>
<totfact> 0.64463351E+00</totfact>
</mgrwt>
</event>
<event>
 4    1  0.7144937E-008  0.2170250E+04  0.7816531E-02  0.8530914E-01
         -2   -1    0    0    0  501 -0.00000000000E+00  0.00000000000E+00  0.93407267033E+03  0.93407267033E+03  0.00000000000E+00 0. -1.
          2   -1    0    0  501    0  0.00000000000E+00 -0.00000000000E+00 -0.12606047803E+04  0.12606047803E+04  0.00000000000E+00 0.  1.
    2000013    1    1    2    0    0  0.26577775066E+03 -0.45065460193E+03  0.35609914823E+03  0.10200656775E+04  0.80000000000E+03 0.  0.
   -2000013    1    1    2    0    0 -0.26577775066E+03  0.45065460193E+03 -0.68263125822E+03  0.11746117732E+04  0.80000000000E+03 0.  0.
<mgrwt>
<rscale>  0 0.21702502E+04</rscale>
<asrwt>0</asrwt>
<pdfrwt beam="2">  1        2 0.19393919E+00 0.21702502E+04</pdfrwt>
<pdfrwt beam="1">  1       -2 0.14370349E+00 0.21702502E+04</pdfrwt>
<totfact> 0.53601925E+00</totfact>
</mgrwt>
</event>
<event>
 4    1  0.7144937E-008  0.2102829E+04  0.7816531E-02  0.8559998E-01
         -2   -1    0    0    0  501 -0.00000000000E+00  0.00000000000E+00  0.12421746427E+04  0.12421746427E+04  0.00000000000E+00 0. -1.
          2   -1    0    0  501    0  0.00000000000E+00 -0.00000000000E+00 -0.88994936489E+03  0.88994936489E+03  0.00000000000E+00 0.  1.
    2000013    1    1    2    0    0  0.19502112896E+03  0.19049061554E+03 -0.45802219088E+03  0.96130340824E+03  0.80000000000E+03 0.  0.
   -2000013    1    1    2    0    0 -0.19502112896E+03 -0.19049061554E+03  0.81024746867E+03  0.11708205993E+04  0.80000000000E+03 0.  0.
<mgrwt>
<rscale>  0 0.21028291E+04</rscale>
<asrwt>0</asrwt>
<pdfrwt beam="2">  1        2 0.13691529E+00 0.21028291E+04</pdfrwt>
<pdfrwt beam="1">  1       -2 0.19110379E+00 0.21028291E+04</pdfrwt>
<totfact> 0.41802678E+00</totfact>
</mgrwt>
</event>
<event>
 4    1  0.7144937E-008  0.2056368E+04  0.7816531E-02  0.8580711E-01
          2   -1    0    0  501    0  0.00000000000E+00  0.00000000000E+00  0.14062675439E+04  0.14062675439E+04  0.00000000000E+00 0.  1.
         -2   -1    0    0    0  501 -0.00000000000E+00 -0.00000000000E+00 -0.75175055735E+03  0.75175055735E+03  0.00000000000E+00 0. -1.
    2000013    1    1    2    0    0 -0.62817363650E+03 -0.13019645026E+03  0.24866188768E+03  0.10551710608E+04  0.80000000000E+03 0.  0.
   -2000013    1    1    2    0    0  0.62817363650E+03  0.13019645026E+03  0.40585509886E+03  0.11028470404E+04  0.80000000000E+03 0.  0.
<mgrwt>
<rscale>  0 0.20563681E+04</rscale>
<asrwt>0</asrwt>
<pdfrwt beam="1">  1        2 0.21634885E+00 0.20563681E+04</pdfrwt>
<pdfrwt beam="2">  1       -2 0.11565393E+00 0.20563681E+04</pdfrwt>
<totfact> 0.77197869E+00</totfact>
</mgrwt>
</event>
<event>
 4    1  0.7144937E-008  0.1856033E+04  0.7816531E-02  0.8677057E-01
          1   -1    0    0  501    0  0.00000000000E+00  0.00000000000E+00  0.13938359727E+04  0.13938359727E+04  0.00000000000E+00 0. -1.
         -1   -1    0    0    0  501 -0.00000000000E+00 -0.00000000000E+00 -0.61787342356E+03  0.61787342356E+03  0.00000000000E+00 0.  1.
    2000013    1    1    2    0    0  0.53120047626E+02  0.44051867247E+03  0.21889741606E+03  0.94063516786E+03  0.80000000000E+03 0.  0.
   -2000013    1    1    2    0    0 -0.53120047626E+02 -0.44051867247E+03  0.55706513307E+03  0.10710742284E+04  0.80000000000E+03 0.  0.
<mgrwt>
<rscale>  0 0.18560325E+04</rscale>
<asrwt>0</asrwt>
<pdfrwt beam="1">  1        1 0.21443630E+00 0.18560325E+04</pdfrwt>
<pdfrwt beam="2">  1       -1 0.95057450E-01 0.18560325E+04</pdfrwt>
<totfact> 0.77925749E+00</totfact>
</mgrwt>
</event>
<event>
 4    1  0.7144937E-008  0.2128536E+04  0.7816531E-02  0.8548776E-01
          2   -1    0    0  501    0  0.00000000000E+00  0.00000000000E+00  0.24824207323E+04  0.24824207323E+04  0.00000000000E+00 0.  1.
         -2   -1    0    0    0  501 -0.00000000000E+00 -0.00000000000E+00 -0.45627509305E+03  0.45627509305E+03  0.00000000000E+00 0. -1.
    2000013    1    1    2    0    0 -0.21409201025E+03  0.58244500646E+03  0.56021918741E+03  0.11571184522E+04  0.80000000000E+03 0.  0.
   -2000013    1    1    2    0    0  0.21409201025E+03 -0.58244500646E+03  0.14659264518E+04  0.17815773731E+04  0.80000000000E+03 0.  0.
<mgrwt>
<rscale>  0 0.21285364E+04</rscale>
<asrwt>0</asrwt>
<pdfrwt beam="1">  1        2 0.38191087E+00 0.21285364E+04</pdfrwt>
<pdfrwt beam="2">  1       -2 0.70196170E-01 0.21285364E+04</pdfrwt>
<totfact> 0.60549251E+00</totfact>
</mgrwt>
</event>
<event>
 4    1  0.7144937E-008  0.1852300E+04  0.7816531E-02  0.8678971E-01
         -2   -1    0    0    0  501 -0.00000000000E+00  0.00000000000E+00  0.59775051662E+03  0.59775051662E+03  0.00000000000E+00 0. -1.
          2   -1    0    0  501    0  0.00000000000E+00 -0.00000000000E+00 -0.14349690438E+04  0.14349690438E+04  0.00000000000E+00 0.  1.
    2000013    1    1    2    0    0  0.38555051266E+02 -0.46124758046E+03 -0.48369614304E+03  0.10431671876E+04  0.80000000000E+03 0.  0.
   -2000013    1    1    2    0    0 -0.38555051266E+02  0.46124758046E+03 -0.35352238410E+03  0.98955237280E+03  0.80000000000E+03 0.  0.
<mgrwt>
<rscale>  0 0.18522996E+04</rscale>
<asrwt>0</asrwt>
<pdfrwt beam="2">  1        2 0.22076447E+00 0.18522996E+04</pdfrwt>
<pdfrwt beam="1">  1       -2 0.91961618E-01 0.18522996E+04</pdfrwt>
<totfact> 0.13063015E+01</totfact>
</mgrwt>
</event>
<event>
 4    1  0.7144937E-008  0.2808895E+04  0.7816531E-02  0.8300512E-01
          2   -1    0    0  501    0  0.00000000000E+00  0.00000000000E+00  0.17600227882E+04  0.17600227882E+04  0.00000000000E+00 0.  1.
         -2   -1    0    0    0  501 -0.00000000000E+00 -0.00000000000E+00 -0.11207088386E+04  0.11207088386E+04  0.00000000000E+00 0. -1.
    2000013    1    1    2    0    0 -0.90061585072E+03  0.61279055864E+03 -0.72015750314E+02  0.13534428128E+04  0.80000000000E+03 0.  0.
   -2000013    1    1    2    0    0  0.90061585072E+03 -0.61279055864E+03  0.71132969996E+03  0.15272888140E+04  0.80000000000E+03 0.  0.
<mgrwt>
<rscale>  0 0.28088952E+04</rscale>
<asrwt>0</asrwt>
<pdfrwt beam="1">  1        2 0.27077274E+00 0.28088952E+04</pdfrwt>
<pdfrwt beam="2">  1       -2 0.17241674E+00 0.28088952E+04</pdfrwt>
<totfact> 0.16181340E+00</totfact>
</mgrwt>
</event>
<event>
 4    1  0.7144937E-008  0.1886734E+04  0.7816531E-02  0.8661488E-01
          2   -1    0    0  501    0  0.00000000000E+00  0.00000000000E+00  0.27701145390E+04  0.27701145390E+04  0.00000000000E+00 0.  1.
         -2   -1    0    0    0  501 -0.00000000000E+00 -0.00000000000E+00 -0.32126520238E+03  0.32126520238E+03  0.00000000000E+00 0. -1.
    2000013    1    1    2    0    0  0.40183065187E+03  0.67153364381E+02  0.74964937324E+03  0.11695946434E+04  0.80000000000E+03 0.  0.
   -2000013    1    1    2    0    0 -0.40183065187E+03 -0.67153364381E+02  0.16991999633E+04  0.19217850979E+04  0.80000000000E+03 0.  0.
<mgrwt>
<rscale>  0 0.18867341E+04</rscale>
<asrwt>0</asrwt>
<pdfrwt beam="1">  1        2 0.42617145E+00 0.18867341E+04</pdfrwt>
<pdfrwt beam="2">  1       -2 0.49425418E-01 0.18867341E+04</pdfrwt>
<totfact> 0.87736628E+00</totfact>
</mgrwt>
</event>
<event>
 4    1  0.7144937E-008  0.2202371E+04  0.7816531E-02  0.8517442E-01
          2   -1    0    0  501    0  0.00000000000E+00  0.00000000000E+00  0.26754304935E+03  0.26754304935E+03  0.00000000000E+00 0.  1.
         -2   -1    0    0    0  501 -0.00000000000E+00 -0.00000000000E+00 -0.45323900759E+04  0.45323900759E+04  0.00000000000E+00 0. -1.
    2000013    1    1    2    0    0  0.36438616506E+02 -0.64333154914E+03 -0.29971039664E+04  0.31682543206E+04  0.80000000000E+03 0.  0.
   -2000013    1    1    2    0    0 -0.36438616506E+02  0.64333154914E+03 -0.12677430602E+04  0.16316788047E+04  0.80000000000E+03 0.  0.
<mgrwt>
<rscale>  0 0.22023710E+04</rscale>
<asrwt>0</asrwt>
<pdfrwt beam="1">  1        2 0.41160468E-01 0.22023710E+04</pdfrwt>
<pdfrwt beam="2">  1       -2 0.69729080E+00 0.22023710E+04</pdfrwt>
<totfact> 0.26264184E-02</totfact>
</mgrwt>
</event>
<event>
 4    1  0.7144937E-008  0.2471529E+04  0.7816531E-02  0.8413199E-01
          2   -1    0    0  501    0  0.00000000000E+00  0.00000000000E+00  0.11543228265E+04  0.11543228265E+04  0.00000000000E+00 0.  1.
         -2   -1    0    0    0  501 -0.00000000000E+00 -0.00000000000E+00 -0.13229521963E+04  0.13229521963E+04  0.00000000000E+00 0. -1.
    2000013    1    1    2    0    0 -0.81356916958E+03  0.15973663034E+03  0.36360605090E+03  0.12081473192E+04  0.80000000000E+03 0.  0.
   -2000013    1    1    2    0    0  0.81356916958E+03 -0.15973663034E+03 -0.53223542069E+03  0.12691277035E+04  0.80000000000E+03 0.  0.
<mgrwt>
<rscale>  0 0.24715290E+04</rscale>
<asrwt>0</asrwt>
<pdfrwt beam="1">  1        2 0.17758813E+00 0.24715290E+04</pdfrwt>
<pdfrwt beam="2">  1       -2 0.20353111E+00 0.24715290E+04</pdfrwt>
<totfact> 0.22748447E+00</totfact>
</mgrwt>
</event>
<event>
 4    1  0.7144937E-008  0.2964409E+04  0.7816531E-02  0.8253968E-01
          1   -1    0    0  501    0  0.00000000000E+00  0.00000000000E+00  0.17608373766E+04  0.17608373766E+04  0.00000000000E+00 0.  1.
         -1   -1    0    0    0  501 -0.00000000000E+00 -0.00000000000E+00 -0.12476617568E+04  0.12476617568E+04  0.00000000000E+00 0. -1.
    2000013    1    1    2    0    0  0.88282819677E+03  0.88157370991E+03  0.23702354456E+03  0.15009123864E+04  0.80000000000E+03 0.  0.
   -2000013    1    1    2    0    0 -0.88282819677E+03 -0.88157370991E+03  0.27615207517E+03  0.15075867470E+04  0.80000000000E+03 0.  0.
<mgrwt>
<rscale>  0 0.29644085E+04</rscale>
<asrwt>0</asrwt>
<pdfrwt beam="1">  1        1 0.27089806E+00 0.29644085E+04</pdfrwt>
<pdfrwt beam="2">  1       -1 0.19194796E+00 0.29644085E+04</pdfrwt>
<totfact> 0.63321151E-01</totfact>
</mgrwt>
</event>
<event>
 4    1  0.7144937E-008  0.2363249E+04  0.7816531E-02  0.8453392E-01
         -2   -1    0    0    0  501 -0.00000000000E+00  0.00000000000E+00  0.39117271118E+03  0.39117271118E+03  0.00000000000E+00 0. -1.
          2   -1    0    0  501    0  0.00000000000E+00 -0.00000000000E+00 -0.35693593613E+04  0.35693593613E+04  0.00000000000E+00 0.  1.
    2000013    1    1    2    0    0 -0.38206398937E+03  0.62644600772E+03 -0.80692276982E+03  0.13526018812E+04  0.80000000000E+03 0.  0.
   -2000013    1    1    2    0    0  0.38206398937E+03 -0.62644600772E+03 -0.23712638803E+04  0.26079301913E+04  0.80000000000E+03 0.  0.
<mgrwt>
<rscale>  0 0.23632486E+04</rscale>
<asrwt>0</asrwt>
<pdfrwt beam="2">  1        2 0.54913222E+00 0.23632486E+04</pdfrwt>
<pdfrwt beam="1">  1       -2 0.60180416E-01 0.23632486E+04</pdfrwt>
<totfact> 0.16898738E+00</totfact>
</mgrwt>
</event>
<event>
 4    1  0.7144937E-008  0.2766156E+04  0.7816531E-02  0.8313853E-01
         -2   -1    0    0    0  501 -0.00000000000E+00  0.00000000000E+00  0.61833887611E+03  0.61833887611E+03  0.00000000000E+00 0. -1.
          2   -1    0    0  501    0  0.00000000000E+00 -0.00000000000E+00 -0.30936194121E+04  0.30936194121E+04  0.00000000000E+00 0.  1.
    2000013    1    1    2    0    0  0.48847282297E+03  0.88479710226E+03 -0.56475971337E+03  0.14072757885E+04  0.80000000000E+03 0.  0.
   -2000013    1    1    2    0    0 -0.48847282297E+03 -0.88479710226E+03 -0.19105208226E+04  0.23046824998E+04  0.80000000000E+03 0.  0.
<mgrwt>
<rscale>  0 0.27661563E+04</rscale>
<asrwt>0</asrwt>
<pdfrwt beam="2">  1        2 0.47594144E+00 0.27661563E+04</pdfrwt>
<pdfrwt beam="1">  1       -2 0.95129059E-01 0.27661563E+04</pdfrwt>
<totfact> 0.12310030E+00</totfact>
</mgrwt>
</event>
<event>
 4    1  0.7144937E-008  0.1869339E+04  0.7816531E-02  0.8670271E-01
         -1   -1    0    0    0  501 -0.00000000000E+00  0.00000000000E+00  0.11247417088E+04  0.11247417088E+04  0.00000000000E+00 0.  1.
          1   -1    0    0  501    0  0.00000000000E+00 -0.00000000000E+00 -0.77671782258E+03  0.77671782258E+03  0.00000000000E+00 0. -1.
    2000013    1    1    2    0    0  0.20282774233E+03  0.39331718541E+03  0.37169491830E+03  0.98691165445E+03  0.80000000000E+03 0.  0.
   -2000013    1    1    2    0    0 -0.20282774233E+03 -0.39331718541E+03 -0.23671032110E+02  0.91454787691E+03  0.80000000000E+03 0.  0.
<mgrwt>
<rscale>  0 0.18693388E+04</rscale>
<asrwt>0</asrwt>
<pdfrwt beam="2">  1        1 0.11949505E+00 0.18693388E+04</pdfrwt>
<pdfrwt beam="1">  1       -1 0.17303719E+00 0.18693388E+04</pdfrwt>
<totfact> 0.50825571E+00</totfact>
</mgrwt>
</event>
<event>
 4    1  0.7144937E-008  0.2181104E+04  0.7816531E-02  0.8526334E-01
          2   -1    0    0  501    0  0.00000000000E+00  0.00000000000E+00  0.20106414261E+04  0.20106414261E+04  0.00000000000E+00 0.  1.
         -2   -1    0    0    0  501 -0.00000000000E+00 -0.00000000000E+00 -0.59150454253E+03  0.59150454253E+03  0.00000000000E+00 0. -1.
    2000013    1    1    2    0    0 -0.33568159379E+03  0.53845614075E+03  0.25263787369E+03  0.10518759638E+04  0.80000000000E+03 0.  0.
   -2000013    1    1    2    0    0  0.33568159379E+03 -0.53845614075E+03  0.11664990099E+04  0.15502700049E+04  0.80000000000E+03 0.  0.
<mgrwt>
<rscale>  0 0.21811039E+04</rscale>
<asrwt>0</asrwt>
<pdfrwt beam="1">  1        2 0.30932945E+00 0.21811039E+04</pdfrwt>
<pdfrwt beam="2">  1       -2 0.91000699E-01 0.21811039E+04</pdfrwt>
<totfact> 0.62147214E+00</totfact>
</mgrwt>
</event>
<event>
 4    1  0.7144937E-008  0.1954725E+04  0.7816531E-02  0.8628086E-01
          2   -1    0    0  501    0  0.00000000000E+00  0.00000000000E+00  0.24795552571E+04  0.24795552571E+04  0.00000000000E+00 0.  1.
         -2   -1    0    0    0  501 -0.00000000000E+00 -0.00000000000E+00 -0.38524553929E+03  0.38524553929E+03  0.00000000000E+00 0. -1.
    2000013    1    1    2    0    0  0.15007276598E+03  0.36264655666E+03  0.16355859535E+04  0.18625723533E+04  0.80000000000E+03 0.  0.
   -2000013    1    1    2    0    0 -0.15007276598E+03 -0.36264655666E+03  0.45872376436E+03  0.10022284431E+04  0.80000000000E+03 0.  0.
<mgrwt>
<rscale>  0 0.19547251E+04</rscale>
<asrwt>0</asrwt>
<pdfrwt beam="1">  1        2 0.38147003E+00 0.19547251E+04</pdfrwt>
<pdfrwt beam="2">  1       -2 0.59268546E-01 0.19547251E+04</pdfrwt>
<totfact> 0.88719201E+00</totfact>
</mgrwt>
</event>
<event>
 4    1  0.7144937E-008  0.2274500E+04  0.7816531E-02  0.8488044E-01
          2   -1    0    0  501    0  0.00000000000E+00  0.00000000000E+00  0.25605164599E+04  0.25605164599E+04  0.00000000000E+00 0.  1.
         -2   -1    0    0    0  501 -0.00000000000E+00 -0.00000000000E+00 -0.50510803549E+03  0.50510803549E+03  0.00000000000E+00 0. -1.
    2000013    1    1    2    0    0 -0.18593039528E+03 -0.74930271275E+03  0.70503409790E+03  0.13164717036E+04  0.80000000000E+03 0.  0.
   -2000013    1    1    2    0    0  0.18593039528E+03  0.74930271275E+03  0.13503743265E+04  0.17491527917E+04  0.80000000000E+03 0.  0.
<mgrwt>
<rscale>  0 0.22744999E+04</rscale>
<asrwt>0</asrwt>
<pdfrwt beam="1">  1        2 0.39392560E+00 0.22744999E+04</pdfrwt>
<pdfrwt beam="2">  1       -2 0.77708930E-01 0.22744999E+04</pdfrwt>
<totfact> 0.43027615E+00</totfact>
</mgrwt>
</event>
<event>
 4    1  0.7144937E-008  0.1785825E+04  0.7816531E-02  0.8713874E-01
          2   -1    0    0  501    0  0.00000000000E+00  0.00000000000E+00  0.38474719981E+04  0.38474719981E+04  0.00000000000E+00 0.  1.
         -2   -1    0    0    0  501 -0.00000000000E+00 -0.00000000000E+00 -0.20722506571E+03  0.20722506571E+03  0.00000000000E+00 0. -1.
    2000013    1    1    2    0    0 -0.30976184205E+03 -0.24284966610E+03  0.19305234107E+04  0.21264639660E+04  0.80000000000E+03 0.  0.
   -2000013    1    1    2    0    0  0.30976184205E+03  0.24284966610E+03  0.17097235216E+04  0.19282330978E+04  0.80000000000E+03 0.  0.
<mgrwt>
<rscale>  0 0.17858249E+04</rscale>
<asrwt>0</asrwt>
<pdfrwt beam="1">  1        2 0.59191871E+00 0.17858249E+04</pdfrwt>
<pdfrwt beam="2">  1       -2 0.31880782E-01 0.17858249E+04</pdfrwt>
<totfact> 0.39553758E+00</totfact>
</mgrwt>
</event>
<event>
 4    1  0.7144937E-008  0.2051729E+04  0.7816531E-02  0.8582810E-01
         -2   -1    0    0    0  501 -0.00000000000E+00  0.00000000000E+00  0.62571318429E+03  0.62571318429E+03  0.00000000000E+00 0. -1.
          2   -1    0    0  501    0  0.00000000000E+00 -0.00000000000E+00 -0.16819181344E+04  0.16819181344E+04  0.00000000000E+00 0.  1.
    2000013    1    1    2    0    0 -0.29098664194E+03  0.56328479283E+03 -0.64299723779E+03  0.12064030966E+04  0.80000000000E+03 0.  0.
   -2000013    1    1    2    0    0  0.29098664194E+03 -0.56328479283E+03 -0.41320771228E+03  0.11012282221E+04  0.80000000000E+03 0.  0.
<mgrwt>
<rscale>  0 0.20517294E+04</rscale>
<asrwt>0</asrwt>
<pdfrwt beam="2">  1        2 0.25875663E+00 0.20517294E+04</pdfrwt>
<pdfrwt beam="1">  1       -2 0.96263569E-01 0.20517294E+04</pdfrwt>
<totfact> 0.83910428E+00</totfact>
</mgrwt>
</event>
<event>
 4    1  0.7144937E-008  0.2466604E+04  0.7816531E-02  0.8414981E-01
         -2   -1    0    0    0  501 -0.00000000000E+00  0.00000000000E+00  0.16538030987E+04  0.16538030987E+04  0.00000000000E+00 0. -1.
          2   -1    0    0  501    0  0.00000000000E+00 -0.00000000000E+00 -0.91971847484E+03  0.91971847484E+03  0.00000000000E+00 0.  1.
    2000013    1    1    2    0    0 -0.38607718314E+03 -0.85292292442E+03  0.43703332996E+03  0.13067253873E+04  0.80000000000E+03 0.  0.
   -2000013    1    1    2    0    0  0.38607718314E+03  0.85292292442E+03  0.29705129394E+03  0.12667961863E+04  0.80000000000E+03 0.  0.
<mgrwt>
<rscale>  0 0.24666035E+04</rscale>
<asrwt>0</asrwt>
<pdfrwt beam="2">  1        2 0.14149515E+00 0.24666035E+04</pdfrwt>
<pdfrwt beam="1">  1       -2 0.25443125E+00 0.24666035E+04</pdfrwt>
<totfact> 0.15348232E+00</totfact>
</mgrwt>
</event>
<event>
 4    1  0.7144937E-008  0.1945046E+04  0.7816531E-02  0.8632753E-01
          2   -1    0    0  501    0  0.00000000000E+00  0.00000000000E+00  0.17702840144E+04  0.17702840144E+04  0.00000000000E+00 0.  1.
         -2   -1    0    0    0  501 -0.00000000000E+00 -0.00000000000E+00 -0.53426501066E+03  0.53426501066E+03  0.00000000000E+00 0. -1.
    2000013    1    1    2    0    0 -0.33370863837E+03 -0.31458130818E+03  0.98411619207E+03  0.13486317267E+04  0.80000000000E+03 0.  0.
   -2000013    1    1    2    0    0  0.33370863837E+03  0.31458130818E+03  0.25190281166E+03  0.95591729836E+03  0.80000000000E+03 0.  0.
<mgrwt>
<rscale>  0 0.19450458E+04</rscale>
<asrwt>0</asrwt>
<pdfrwt beam="1">  1        2 0.27235138E+00 0.19450458E+04</pdfrwt>
<pdfrwt beam="2">  1       -2 0.82194618E-01 0.19450458E+04</pdfrwt>
<totfact> 0.10875689E+01</totfact>
</mgrwt>
</event>
<event>
 4    1  0.7144937E-008  0.2062942E+04  0.7816531E-02  0.8577746E-01
          2   -1    0    0  501    0  0.00000000000E+00  0.00000000000E+00  0.36849054224E+04  0.36849054224E+04  0.00000000000E+00 0.  1.
         -2   -1    0    0    0  501 -0.00000000000E+00 -0.00000000000E+00 -0.28872708243E+03  0.28872708243E+03  0.00000000000E+00 0. -1.
    2000013    1    1    2    0    0 -0.33738197855E+03 -0.55121136561E+03  0.15455491484E+04  0.18564435728E+04  0.80000000000E+03 0.  0.
   -2000013    1    1    2    0    0  0.33738197855E+03  0.55121136561E+03  0.18506291916E+04  0.21171889320E+04  0.80000000000E+03 0.  0.
<mgrwt>
<rscale>  0 0.20629416E+04</rscale>
<asrwt>0</asrwt>
<pdfrwt beam="1">  1        2 0.56690849E+00 0.20629416E+04</pdfrwt>
<pdfrwt beam="2">  1       -2 0.44419554E-01 0.20629416E+04</pdfrwt>
<totfact> 0.26776711E+00</totfact>
</mgrwt>
</event>
<event>
 4    1  0.7144937E-008  0.1715442E+04  0.7816531E-02  0.8752606E-01
         -2   -1    0    0    0  501 -0.00000000000E+00  0.00000000000E+00  0.35321517479E+03  0.35321517479E+03  0.00000000000E+00 0. -1.
          2   -1    0    0  501    0  0.00000000000E+00 -0.00000000000E+00 -0.20828247834E+04  0.20828247834E+04  0.00000000000E+00 0.  1.
    2000013    1    1    2    0    0  0.44801960744E+02 -0.76163004242E+02 -0.12857705148E+04  0.15169093037E+04  0.80000000000E+03 0.  0.
   -2000013    1    1    2    0    0 -0.44801960744E+02  0.76163004242E+02 -0.44383909388E+03  0.91913065456E+03  0.80000000000E+03 0.  0.
<mgrwt>
<rscale>  0 0.17154420E+04</rscale>
<asrwt>0</asrwt>
<pdfrwt beam="2">  1        2 0.32043459E+00 0.17154420E+04</pdfrwt>
<pdfrwt beam="1">  1       -2 0.54340795E-01 0.17154420E+04</pdfrwt>
<totfact> 0.18204537E+01</totfact>
</mgrwt>
</event>
<event>
 4    1  0.7144937E-008  0.2044610E+04  0.7816531E-02  0.8586044E-01
         -2   -1    0    0    0  501 -0.00000000000E+00  0.00000000000E+00  0.17080829606E+04  0.17080829606E+04  0.00000000000E+00 0. -1.
          2   -1    0    0  501    0  0.00000000000E+00 -0.00000000000E+00 -0.61185976845E+03  0.61185976845E+03  0.00000000000E+00 0.  1.
    2000013    1    1    2    0    0  0.50773208798E+03 -0.32004514892E+03  0.78850612863E+03  0.12735629884E+04  0.80000000000E+03 0.  0.
   -2000013    1    1    2    0    0 -0.50773208798E+03  0.32004514892E+03  0.30771706353E+03  0.10463797407E+04  0.80000000000E+03 0.  0.
<mgrwt>
<rscale>  0 0.20446097E+04</rscale>
<asrwt>0</asrwt>
<pdfrwt beam="2">  1        2 0.94132273E-01 0.20446097E+04</pdfrwt>
<pdfrwt beam="1">  1       -2 0.26278199E+00 0.20446097E+04</pdfrwt>
<totfact> 0.24052871E+00</totfact>
</mgrwt>
</event>
<event>
 4    1  0.7144937E-008  0.2350538E+04  0.7816531E-02  0.8458257E-01
          2   -1    0    0  501    0  0.00000000000E+00  0.00000000000E+00  0.26387602755E+04  0.26387602755E+04  0.00000000000E+00 0.  1.
         -2   -1    0    0    0  501 -0.00000000000E+00 -0.00000000000E+00 -0.52344928902E+03  0.52344928902E+03  0.00000000000E+00 0. -1.
    2000013    1    1    2    0    0  0.42800282044E+03 -0.46609769497E+03  0.18430507590E+04  0.21064827500E+04  0.80000000000E+03 0.  0.
   -2000013    1    1    2    0    0 -0.42800282044E+03  0.46609769497E+03  0.27226022749E+03  0.10557268146E+04  0.80000000000E+03 0.  0.
<mgrwt>
<rscale>  0 0.23505380E+04</rscale>
<asrwt>0</asrwt>
<pdfrwt beam="1">  1        2 0.40596311E+00 0.23505380E+04</pdfrwt>
<pdfrwt beam="2">  1       -2 0.80530662E-01 0.23505380E+04</pdfrwt>
<totfact> 0.35503784E+00</totfact>
</mgrwt>
</event>
<event>
 4    1  0.7144937E-008  0.1848164E+04  0.7816531E-02  0.8681097E-01
         -2   -1    0    0    0  501 -0.00000000000E+00  0.00000000000E+00  0.20693621348E+04  0.20693621348E+04  0.00000000000E+00 0. -1.
          2   -1    0    0  501    0  0.00000000000E+00 -0.00000000000E+00 -0.41265267666E+03  0.41265267666E+03  0.00000000000E+00 0.  1.
    2000013    1    1    2    0    0  0.18874626505E+03 -0.33096010837E+03  0.47618077454E+03  0.10059363180E+04  0.80000000000E+03 0.  0.
   -2000013    1    1    2    0    0 -0.18874626505E+03  0.33096010837E+03  0.11805286836E+04  0.14760784934E+04  0.80000000000E+03 0.  0.
<mgrwt>
<rscale>  0 0.18481643E+04</rscale>
<asrwt>0</asrwt>
<pdfrwt beam="2">  1        2 0.63485028E-01 0.18481643E+04</pdfrwt>
<pdfrwt beam="1">  1       -2 0.31836340E+00 0.18481643E+04</pdfrwt>
<totfact> 0.17732088E+00</totfact>
</mgrwt>
</event>
<event>
 4    1  0.7144937E-008  0.2313682E+04  0.7816531E-02  0.8472546E-01
          2   -1    0    0  501    0  0.00000000000E+00  0.00000000000E+00  0.18211627982E+04  0.18211627982E+04  0.00000000000E+00 0.  1.
         -2   -1    0    0    0  501 -0.00000000000E+00 -0.00000000000E+00 -0.73484972970E+03  0.73484972970E+03  0.00000000000E+00 0. -1.
    2000013    1    1    2    0    0 -0.81038138463E+03 -0.48374481487E+02  0.32436564208E+03  0.11850194719E+04  0.80000000000E+03 0.  0.
   -2000013    1    1    2    0    0  0.81038138463E+03  0.48374481487E+02  0.76194742644E+03  0.13709930560E+04  0.80000000000E+03 0.  0.
<mgrwt>
<rscale>  0 0.23136819E+04</rscale>
<asrwt>0</asrwt>
<pdfrwt beam="1">  1        2 0.28017889E+00 0.23136819E+04</pdfrwt>
<pdfrwt beam="2">  1       -2 0.11305381E+00 0.23136819E+04</pdfrwt>
<totfact> 0.46756144E+00</totfact>
</mgrwt>
</event>
<event>
 4    1  0.7144937E-008  0.2047144E+04  0.7816531E-02  0.8584891E-01
          1   -1    0    0  501    0  0.00000000000E+00  0.00000000000E+00  0.36473479856E+04  0.36473479856E+04  0.00000000000E+00 0.  1.
         -1   -1    0    0    0  501 -0.00000000000E+00 -0.00000000000E+00 -0.28724959770E+03  0.28724959770E+03  0.00000000000E+00 0. -1.
    2000013    1    1    2    0    0 -0.23659795102E+03 -0.58318460387E+03  0.18872002771E+04  0.21442032923E+04  0.80000000000E+03 0.  0.
   -2000013    1    1    2    0    0  0.23659795102E+03  0.58318460387E+03  0.14728981108E+04  0.17903942911E+04  0.80000000000E+03 0.  0.
<mgrwt>
<rscale>  0 0.20471436E+04</rscale>
<asrwt>0</asrwt>
<pdfrwt beam="1">  1        1 0.56113043E+00 0.20471436E+04</pdfrwt>
<pdfrwt beam="2">  1       -1 0.44192248E-01 0.20471436E+04</pdfrwt>
<totfact> 0.89590489E-01</totfact>
</mgrwt>
</event>
<event>
 4    1  0.7144937E-008  0.2392458E+04  0.7816531E-02  0.8442333E-01
         -2   -1    0    0    0  501 -0.00000000000E+00  0.00000000000E+00  0.54760379583E+03  0.54760379583E+03  0.00000000000E+00 0. -1.
          2   -1    0    0  501    0  0.00000000000E+00 -0.00000000000E+00 -0.26131368221E+04  0.26131368221E+04  0.00000000000E+00 0.  1.
    2000013    1    1    2    0    0  0.47678154752E+03 -0.75047814425E+03 -0.10055130456E+04  0.15625602625E+04  0.80000000000E+03 0.  0.
   -2000013    1    1    2    0    0 -0.47678154752E+03  0.75047814425E+03 -0.10600199807E+04  0.15981803554E+04  0.80000000000E+03 0.  0.
<mgrwt>
<rscale>  0 0.23924579E+04</rscale>
<asrwt>0</asrwt>
<pdfrwt beam="2">  1        2 0.40202104E+00 0.23924579E+04</pdfrwt>
<pdfrwt beam="1">  1       -2 0.84246739E-01 0.23924579E+04</pdfrwt>
<totfact> 0.33074155E+00</totfact>
</mgrwt>
</event>
<event>
 4    1  0.7144937E-008  0.1808420E+04  0.7816531E-02  0.8701835E-01
         -2   -1    0    0    0  501 -0.00000000000E+00  0.00000000000E+00  0.48285569428E+03  0.48285569428E+03  0.00000000000E+00 0. -1.
          2   -1    0    0  501    0  0.00000000000E+00 -0.00000000000E+00 -0.16932505806E+04  0.16932505806E+04  0.00000000000E+00 0.  1.
    2000013    1    1    2    0    0  0.33335289551E+03  0.23573258239E+03 -0.47955755175E+03  0.10181696562E+04  0.80000000000E+03 0.  0.
   -2000013    1    1    2    0    0 -0.33335289551E+03 -0.23573258239E+03 -0.73083733462E+03  0.11579366187E+04  0.80000000000E+03 0.  0.
<mgrwt>
<rscale>  0 0.18084200E+04</rscale>
<asrwt>0</asrwt>
<pdfrwt beam="2">  1        2 0.26050009E+00 0.18084200E+04</pdfrwt>
<pdfrwt beam="1">  1       -2 0.74285492E-01 0.18084200E+04</pdfrwt>
<totfact> 0.15220617E+01</totfact>
</mgrwt>
</event>
<event>
 4    1  0.7144937E-008  0.1991774E+04  0.7816531E-02  0.8610476E-01
          2   -1    0    0  501    0  0.00000000000E+00  0.00000000000E+00  0.13819491292E+04  0.13819491292E+04  0.00000000000E+00 0.  1.
         -2   -1    0    0    0  501 -0.00000000000E+00 -0.00000000000E+00 -0.71767531211E+03  0.71767531211E+03  0.00000000000E+00 0. -1.
    2000013    1    1    2    0    0  0.31387680927E+03  0.49799778211E+03  0.40866493383E+03  0.10740239618E+04  0.80000000000E+03 0.  0.
   -2000013    1    1    2    0    0 -0.31387680927E+03 -0.49799778211E+03  0.25560888328E+03  0.10256004795E+04  0.80000000000E+03 0.  0.
<mgrwt>
<rscale>  0 0.19917739E+04</rscale>
<asrwt>0</asrwt>
<pdfrwt beam="1">  1        2 0.21260756E+00 0.19917739E+04</pdfrwt>
<pdfrwt beam="2">  1       -2 0.11041159E+00 0.19917739E+04</pdfrwt>
<totfact> 0.89721813E+00</totfact>
</mgrwt>
</event>
<event>
 4    1  0.7144937E-008  0.1857115E+04  0.7816531E-02  0.8676502E-01
         -2   -1    0    0    0  501 -0.00000000000E+00  0.00000000000E+00  0.15897696248E+04  0.15897696248E+04  0.00000000000E+00 0. -1.
          2   -1    0    0  501    0  0.00000000000E+00 -0.00000000000E+00 -0.54235494753E+03  0.54235494753E+03  0.00000000000E+00 0.  1.
    2000013    1    1    2    0    0  0.15542532557E+03  0.44312032946E+03  0.47627655325E+03  0.10427617242E+04  0.80000000000E+03 0.  0.
   -2000013    1    1    2    0    0 -0.15542532557E+03 -0.44312032946E+03  0.57113812400E+03  0.10893628481E+04  0.80000000000E+03 0.  0.
<mgrwt>
<rscale>  0 0.18571154E+04</rscale>
<asrwt>0</asrwt>
<pdfrwt beam="2">  1        2 0.83439223E-01 0.18571154E+04</pdfrwt>
<pdfrwt beam="1">  1       -2 0.24457994E+00 0.18571154E+04</pdfrwt>
<totfact> 0.36496364E+00</totfact>
</mgrwt>
</event>
<event>
 4    1  0.7144937E-008  0.2724132E+04  0.7816531E-02  0.8327217E-01
          2   -1    0    0  501    0  0.00000000000E+00  0.00000000000E+00  0.71011007007E+03  0.71011007007E+03  0.00000000000E+00 0.  1.
         -2   -1    0    0    0  501 -0.00000000000E+00 -0.00000000000E+00 -0.26125867707E+04  0.26125867707E+04  0.00000000000E+00 0. -1.
    2000013    1    1    2    0    0  0.74588319324E+02  0.55707744836E+03 -0.21079389829E+04  0.23236405609E+04  0.80000000000E+03 0.  0.
   -2000013    1    1    2    0    0 -0.74588319324E+02 -0.55707744836E+03  0.20546228225E+03  0.99905627983E+03  0.80000000000E+03 0.  0.
<mgrwt>
<rscale>  0 0.27241323E+04</rscale>
<asrwt>0</asrwt>
<pdfrwt beam="1">  1        2 0.10924771E+00 0.27241323E+04</pdfrwt>
<pdfrwt beam="2">  1       -2 0.40193642E+00 0.27241323E+04</pdfrwt>
<totfact> 0.25386038E-01</totfact>
</mgrwt>
</event>
<event>
 4    1  0.7144937E-008  0.3279028E+04  0.7816531E-02  0.8168252E-01
          2   -1    0    0  501    0  0.00000000000E+00  0.00000000000E+00  0.27505369047E+04  0.27505369047E+04  0.00000000000E+00 0.  1.
         -2   -1    0    0    0  501 -0.00000000000E+00 -0.00000000000E+00 -0.97726606099E+03  0.97726606099E+03  0.00000000000E+00 0. -1.
    2000013    1    1    2    0    0 -0.56810349970E+03  0.10529482743E+04 -0.60473221750E+01  0.14392630840E+04  0.80000000000E+03 0.  0.
   -2000013    1    1    2    0    0  0.56810349970E+03 -0.10529482743E+04  0.17793181659E+04  0.22885398817E+04  0.80000000000E+03 0.  0.
<mgrwt>
<rscale>  0 0.32790281E+04</rscale>
<asrwt>0</asrwt>
<pdfrwt beam="1">  1        2 0.42315952E+00 0.32790281E+04</pdfrwt>
<pdfrwt beam="2">  1       -2 0.15034863E+00 0.32790281E+04</pdfrwt>
<totfact> 0.61680125E-01</totfact>
</mgrwt>
</event>
<event>
 4    1  0.7144937E-008  0.2709310E+04  0.7816531E-02  0.8331990E-01
          1   -1    0    0  501    0  0.00000000000E+00  0.00000000000E+00  0.10245064237E+04  0.10245064237E+04  0.00000000000E+00 0. -1.
         -1   -1    0    0    0  501 -0.00000000000E+00 -0.00000000000E+00 -0.17911948908E+04  0.17911948908E+04  0.00000000000E+00 0.  1.
    2000013    1    1    2    0    0  0.25191740010E+03  0.10626275287E+04 -0.33189224265E+03  0.13938407735E+04  0.80000000000E+03 0.  0.
   -2000013    1    1    2    0    0 -0.25191740010E+03 -0.10626275287E+04 -0.43479622437E+03  0.14218605410E+04  0.80000000000E+03 0.  0.
<mgrwt>
<rscale>  0 0.27093104E+04</rscale>
<asrwt>0</asrwt>
<pdfrwt beam="1">  1        1 0.15761638E+00 0.27093104E+04</pdfrwt>
<pdfrwt beam="2">  1       -1 0.27556844E+00 0.27093104E+04</pdfrwt>
<totfact> 0.60065685E-01</totfact>
</mgrwt>
</event>
<event>
 4    1  0.7144937E-008  0.2067975E+04  0.7816531E-02  0.8575483E-01
         -2   -1    0    0    0  501 -0.00000000000E+00  0.00000000000E+00  0.37757201911E+03  0.37757201911E+03  0.00000000000E+00 0. -1.
          2   -1    0    0  501    0  0.00000000000E+00 -0.00000000000E+00 -0.28315923743E+04  0.28315923743E+04  0.00000000000E+00 0.  1.
    2000013    1    1    2    0    0 -0.38703457660E+03  0.40694754170E+03 -0.70367446388E+03  0.12043918865E+04  0.80000000000E+03 0.  0.
   -2000013    1    1    2    0    0  0.38703457660E+03 -0.40694754170E+03 -0.17503458913E+04  0.20047725069E+04  0.80000000000E+03 0.  0.
<mgrwt>
<rscale>  0 0.20679749E+04</rscale>
<asrwt>0</asrwt>
<pdfrwt beam="2">  1        2 0.43562958E+00 0.20679749E+04</pdfrwt>
<pdfrwt beam="1">  1       -2 0.58088005E-01 0.20679749E+04</pdfrwt>
<totfact> 0.56763696E+00</totfact>
</mgrwt>
</event>
<event>
 4    1  0.7144937E-008  0.1928008E+04  0.7816531E-02  0.8641039E-01
         -2   -1    0    0    0  501 -0.00000000000E+00  0.00000000000E+00  0.55185101443E+03  0.55185101443E+03  0.00000000000E+00 0. -1.
          2   -1    0    0  501    0  0.00000000000E+00 -0.00000000000E+00 -0.16839760582E+04  0.16839760582E+04  0.00000000000E+00 0.  1.
    2000013    1    1    2    0    0 -0.38705306298E+03  0.21875329429E+03 -0.21500861061E+03  0.94015518930E+03  0.80000000000E+03 0.  0.
   -2000013    1    1    2    0    0  0.38705306298E+03 -0.21875329429E+03 -0.91711643317E+03  0.12956718834E+04  0.80000000000E+03 0.  0.
<mgrwt>
<rscale>  0 0.19280082E+04</rscale>
<asrwt>0</asrwt>
<pdfrwt beam="2">  1        2 0.25907324E+00 0.19280082E+04</pdfrwt>
<pdfrwt beam="1">  1       -2 0.84900158E-01 0.19280082E+04</pdfrwt>
<totfact> 0.11301130E+01</totfact>
</mgrwt>
</event>
<event>
 4    1  0.7144937E-008  0.2429819E+04  0.7816531E-02  0.8428423E-01
         -2   -1    0    0    0  501 -0.00000000000E+00  0.00000000000E+00  0.99628389559E+03  0.99628389559E+03  0.00000000000E+00 0. -1.
          2   -1    0    0  501    0  0.00000000000E+00 -0.00000000000E+00 -0.14815107245E+04  0.14815107245E+04  0.00000000000E+00 0.  1.
    2000013    1    1    2    0    0 -0.48844229866E+02 -0.79855906272E+03  0.20875794660E+03  0.11505052002E+04  0.80000000000E+03 0.  0.
   -2000013    1    1    2    0    0  0.48844229866E+02  0.79855906272E+03 -0.69398477551E+03  0.13272894199E+04  0.80000000000E+03 0.  0.
<mgrwt>
<rscale>  0 0.24298192E+04</rscale>
<asrwt>0</asrwt>
<pdfrwt beam="2">  1        2 0.22792473E+00 0.24298192E+04</pdfrwt>
<pdfrwt beam="1">  1       -2 0.15327445E+00 0.24298192E+04</pdfrwt>
<totfact> 0.33001338E+00</totfact>
</mgrwt>
</event>
<event>
 4    1  0.7144937E-008  0.3476396E+04  0.7816531E-02  0.8119407E-01
         -2   -1    0    0    0  501 -0.00000000000E+00  0.00000000000E+00  0.60721899556E+03  0.60721899556E+03  0.00000000000E+00 0. -1.
          2   -1    0    0  501    0  0.00000000000E+00 -0.00000000000E+00 -0.49756879353E+04  0.49756879353E+04  0.00000000000E+00 0.  1.
    2000013    1    1    2    0    0 -0.11917188878E+04 -0.46941425540E+02 -0.37568613556E+04  0.40219901355E+04  0.80000000000E+03 0.  0.
   -2000013    1    1    2    0    0  0.11917188878E+04  0.46941425540E+02 -0.61160758418E+03  0.15609167954E+04  0.80000000000E+03 0.  0.
<mgrwt>
<rscale>  0 0.34763960E+04</rscale>
<asrwt>0</asrwt>
<pdfrwt beam="2">  1        2 0.76549048E+00 0.34763960E+04</pdfrwt>
<pdfrwt beam="1">  1       -2 0.93418304E-01 0.34763960E+04</pdfrwt>
<totfact> 0.29186937E-02</totfact>
</mgrwt>
</event>
<event>
 4    1  0.7144937E-008  0.2159107E+04  0.7816531E-02  0.8535644E-01
         -2   -1    0    0    0  501 -0.00000000000E+00  0.00000000000E+00  0.11341917478E+04  0.11341917478E+04  0.00000000000E+00 0.  1.
          2   -1    0    0  501    0  0.00000000000E+00 -0.00000000000E+00 -0.10275469453E+04  0.10275469453E+04  0.00000000000E+00 0. -1.
    2000013    1    1    2    0    0 -0.48231884903E+03  0.40278823917E+03  0.41510129065E+03  0.10987169423E+04  0.80000000000E+03 0.  0.
   -2000013    1    1    2    0    0  0.48231884903E+03 -0.40278823917E+03 -0.30845648810E+03  0.10630217509E+04  0.80000000000E+03 0.  0.
<mgrwt>
<rscale>  0 0.21591065E+04</rscale>
<asrwt>0</asrwt>
<pdfrwt beam="2">  1        2 0.15808414E+00 0.21591065E+04</pdfrwt>
<pdfrwt beam="1">  1       -2 0.17449104E+00 0.21591065E+04</pdfrwt>
<totfact> 0.43936619E+00</totfact>
</mgrwt>
</event>
<event>
 4    1  0.7144937E-008  0.2527587E+04  0.7816531E-02  0.8393223E-01
          2   -1    0    0  501    0  0.00000000000E+00  0.00000000000E+00  0.86964338462E+03  0.86964338462E+03  0.00000000000E+00 0.  1.
         -2   -1    0    0    0  501 -0.00000000000E+00 -0.00000000000E+00 -0.18365847563E+04  0.18365847563E+04  0.00000000000E+00 0. -1.
    2000013    1    1    2    0    0  0.53483787947E+03 -0.79724250797E+03 -0.28166415970E+03  0.12810081470E+04  0.80000000000E+03 0.  0.
   -2000013    1    1    2    0    0 -0.53483787947E+03  0.79724250797E+03 -0.68527721201E+03  0.14252199939E+04  0.80000000000E+03 0.  0.
<mgrwt>
<rscale>  0 0.25275868E+04</rscale>
<asrwt>0</asrwt>
<pdfrwt beam="1">  1        2 0.13379129E+00 0.25275868E+04</pdfrwt>
<pdfrwt beam="2">  1       -2 0.28255150E+00 0.25275868E+04</pdfrwt>
<totfact> 0.11120592E+00</totfact>
</mgrwt>
</event>
<event>
 4    1  0.7144937E-008  0.5140351E+04  0.7816531E-02  0.7807214E-01
         -2   -1    0    0    0  501 -0.00000000000E+00  0.00000000000E+00  0.21175956394E+04  0.21175956394E+04  0.00000000000E+00 0. -1.
          2   -1    0    0  501    0  0.00000000000E+00 -0.00000000000E+00 -0.31194821954E+04  0.31194821954E+04  0.00000000000E+00 0.  1.
    2000013    1    1    2    0    0 -0.91404016306E+03 -0.12561058961E+04 -0.24212259587E+04  0.29859013019E+04  0.80000000000E+03 0.  0.
   -2000013    1    1    2    0    0  0.91404016306E+03  0.12561058961E+04  0.14193394027E+04  0.22511765328E+04  0.80000000000E+03 0.  0.
<mgrwt>
<rscale>  0 0.51403509E+04</rscale>
<asrwt>0</asrwt>
<pdfrwt beam="2">  1        2 0.47992034E+00 0.51403509E+04</pdfrwt>
<pdfrwt beam="1">  1       -2 0.32578395E+00 0.51403509E+04</pdfrwt>
<totfact> 0.23194859E-02</totfact>
</mgrwt>
</event>
<event>
 4    1  0.7144937E-008  0.2792348E+04  0.7816531E-02  0.8305648E-01
         -2   -1    0    0    0  501 -0.00000000000E+00  0.00000000000E+00  0.45553693430E+03  0.45553693430E+03  0.00000000000E+00 0. -1.
          2   -1    0    0  501    0  0.00000000000E+00 -0.00000000000E+00 -0.42791294046E+04  0.42791294046E+04  0.00000000000E+00 0.  1.
    2000013    1    1    2    0    0  0.11146927754E+04 -0.25784296350E+03 -0.18834990863E+04  0.23444811335E+04  0.80000000000E+03 0.  0.
   -2000013    1    1    2    0    0 -0.11146927754E+04  0.25784296350E+03 -0.19400933840E+04  0.23901852054E+04  0.80000000000E+03 0.  0.
<mgrwt>
<rscale>  0 0.27923478E+04</rscale>
<asrwt>0</asrwt>
<pdfrwt beam="2">  1        2 0.65832759E+00 0.27923478E+04</pdfrwt>
<pdfrwt beam="1">  1       -2 0.70082607E-01 0.27923478E+04</pdfrwt>
<totfact> 0.32011438E-01</totfact>
</mgrwt>
</event>
<event>
 4    1  0.7144937E-008  0.2120106E+04  0.7816531E-02  0.8552438E-01
          2   -1    0    0  501    0  0.00000000000E+00  0.00000000000E+00  0.50314704390E+03  0.50314704390E+03  0.00000000000E+00 0.  1.
         -2   -1    0    0    0  501 -0.00000000000E+00 -0.00000000000E+00 -0.22333682740E+04  0.22333682740E+04  0.00000000000E+00 0. -1.
    2000013    1    1    2    0    0  0.58971538158E+03 -0.18326378892E+03 -0.12780737907E+04  0.16293625938E+04  0.80000000000E+03 0.  0.
   -2000013    1    1    2    0    0 -0.58971538158E+03  0.18326378892E+03 -0.45214743948E+03  0.11071527242E+04  0.80000000000E+03 0.  0.
<mgrwt>
<rscale>  0 0.21201063E+04</rscale>
<asrwt>0</asrwt>
<pdfrwt beam="1">  1        2 0.77407238E-01 0.21201063E+04</pdfrwt>
<pdfrwt beam="2">  1       -2 0.34359512E+00 0.21201063E+04</pdfrwt>
<totfact> 0.96173539E-01</totfact>
</mgrwt>
</event>
<event>
 4    1  0.7144937E-008  0.2938824E+04  0.7816531E-02  0.8261419E-01
          2   -1    0    0  501    0  0.00000000000E+00  0.00000000000E+00  0.13823790209E+04  0.13823790209E+04  0.00000000000E+00 0.  1.
         -2   -1    0    0    0  501 -0.00000000000E+00 -0.00000000000E+00 -0.15619247983E+04  0.15619247983E+04  0.00000000000E+00 0. -1.
    2000013    1    1    2    0    0 -0.52311615350E+03 -0.10395904925E+04 -0.49645235945E+03  0.14969515180E+04  0.80000000000E+03 0.  0.
   -2000013    1    1    2    0    0  0.52311615350E+03  0.10395904925E+04  0.31690658202E+03  0.14473523012E+04  0.80000000000E+03 0.  0.
<mgrwt>
<rscale>  0 0.29388243E+04</rscale>
<asrwt>0</asrwt>
<pdfrwt beam="1">  1        2 0.21267370E+00 0.29388243E+04</pdfrwt>
<pdfrwt beam="2">  1       -2 0.24029612E+00 0.29388243E+04</pdfrwt>
<totfact> 0.93996631E-01</totfact>
</mgrwt>
</event>
<event>
 4    1  0.7144937E-008  0.2606215E+04  0.7816531E-02  0.8366093E-01
         -1   -1    0    0    0  501 -0.00000000000E+00  0.00000000000E+00  0.42238099690E+03  0.42238099690E+03  0.00000000000E+00 0. -1.
          1   -1    0    0  501    0  0.00000000000E+00 -0.00000000000E+00 -0.40202793041E+04  0.40202793041E+04  0.00000000000E+00 0.  1.
    2000013    1    1    2    0    0 -0.47240910850E+03  0.43588366200E+03 -0.43000005417E+03  0.11126836833E+04  0.80000000000E+03 0.  0.
   -2000013    1    1    2    0    0  0.47240910850E+03 -0.43588366200E+03 -0.31678982531E+04  0.33299766177E+04  0.80000000000E+03 0.  0.
<mgrwt>
<rscale>  0 0.26062153E+04</rscale>
<asrwt>0</asrwt>
<pdfrwt beam="2">  1        1 0.61850448E+00 0.26062153E+04</pdfrwt>
<pdfrwt beam="1">  1       -1 0.64981695E-01 0.26062153E+04</pdfrwt>
<totfact> 0.19495094E-01</totfact>
</mgrwt>
</event>
<event>
 4    1  0.7144937E-008  0.2264155E+04  0.7816531E-02  0.8492190E-01
         -2   -1    0    0    0  501 -0.00000000000E+00  0.00000000000E+00  0.70890093602E+03  0.70890093602E+03  0.00000000000E+00 0. -1.
          2   -1    0    0  501    0  0.00000000000E+00 -0.00000000000E+00 -0.18078674304E+04  0.18078674304E+04  0.00000000000E+00 0.  1.
    2000013    1    1    2    0    0  0.14999296667E+03  0.67119184193E+03 -0.93058445453E+02  0.10590827413E+04  0.80000000000E+03 0.  0.
   -2000013    1    1    2    0    0 -0.14999296667E+03 -0.67119184193E+03 -0.10059080490E+04  0.14576856251E+04  0.80000000000E+03 0.  0.
<mgrwt>
<rscale>  0 0.22641545E+04</rscale>
<asrwt>0</asrwt>
<pdfrwt beam="2">  1        2 0.27813345E+00 0.22641545E+04</pdfrwt>
<pdfrwt beam="1">  1       -2 0.10906168E+00 0.22641545E+04</pdfrwt>
<totfact> 0.52104733E+00</totfact>
</mgrwt>
</event>
<event>
 4    1  0.7144937E-008  0.2492790E+04  0.7816531E-02  0.8405558E-01
          2   -1    0    0  501    0  0.00000000000E+00  0.00000000000E+00  0.33109407691E+04  0.33109407691E+04  0.00000000000E+00 0.  1.
         -2   -1    0    0    0  501 -0.00000000000E+00 -0.00000000000E+00 -0.46920228418E+03  0.46920228418E+03  0.00000000000E+00 0. -1.
    2000013    1    1    2    0    0 -0.83448833210E+03  0.33596199826E+03  0.93122486152E+03  0.15219792980E+04  0.80000000000E+03 0.  0.
   -2000013    1    1    2    0    0  0.83448833210E+03 -0.33596199826E+03  0.19105136234E+04  0.22581637554E+04  0.80000000000E+03 0.  0.
<mgrwt>
<rscale>  0 0.24927904E+04</rscale>
<asrwt>0</asrwt>
<pdfrwt beam="1">  1        2 0.50937549E+00 0.24927904E+04</pdfrwt>
<pdfrwt beam="2">  1       -2 0.72184969E-01 0.24927904E+04</pdfrwt>
<totfact> 0.16998101E+00</totfact>
</mgrwt>
</event>
<event>
 4    1  0.7144937E-008  0.1658767E+04  0.7816531E-02  0.8785237E-01
         -2   -1    0    0    0  501 -0.00000000000E+00  0.00000000000E+00  0.15358143198E+04  0.15358143198E+04  0.00000000000E+00 0.  1.
          2   -1    0    0  501    0  0.00000000000E+00 -0.00000000000E+00 -0.44789070281E+03  0.44789070281E+03  0.00000000000E+00 0. -1.
    2000013    1    1    2    0    0  0.14756240049E+03  0.11003536629E+03  0.68543383826E+03  0.10694400360E+04  0.80000000000E+03 0.  0.
   -2000013    1    1    2    0    0 -0.14756240049E+03 -0.11003536629E+03  0.40248977878E+03  0.91426498669E+03  0.80000000000E+03 0.  0.
<mgrwt>
<rscale>  0 0.16587670E+04</rscale>
<asrwt>0</asrwt>
<pdfrwt beam="2">  1        2 0.68906263E-01 0.16587670E+04</pdfrwt>
<pdfrwt beam="1">  1       -2 0.23627912E+00 0.16587670E+04</pdfrwt>
<totfact> 0.52130005E+00</totfact>
</mgrwt>
</event>
<event>
 4    1  0.7144937E-008  0.2163272E+04  0.7816531E-02  0.8533873E-01
         -2   -1    0    0    0  501 -0.00000000000E+00  0.00000000000E+00  0.10225846887E+04  0.10225846887E+04  0.00000000000E+00 0. -1.
          2   -1    0    0  501    0  0.00000000000E+00 -0.00000000000E+00 -0.11440970229E+04  0.11440970229E+04  0.00000000000E+00 0.  1.
    2000013    1    1    2    0    0  0.44080877702E+03  0.37429676894E+03 -0.50363601492E+03  0.11081785437E+04  0.80000000000E+03 0.  0.
   -2000013    1    1    2    0    0 -0.44080877702E+03 -0.37429676894E+03  0.38212368072E+03  0.10585031679E+04  0.80000000000E+03 0.  0.
<mgrwt>
<rscale>  0 0.21632717E+04</rscale>
<asrwt>0</asrwt>
<pdfrwt beam="2">  1        2 0.17601493E+00 0.21632717E+04</pdfrwt>
<pdfrwt beam="1">  1       -2 0.15732072E+00 0.21632717E+04</pdfrwt>
<totfact> 0.49495167E+00</totfact>
</mgrwt>
</event>
<event>
 4    1  0.7144937E-008  0.2272612E+04  0.7816531E-02  0.8488799E-01
         -2   -1    0    0    0  501 -0.00000000000E+00  0.00000000000E+00  0.53276740697E+03  0.53276740697E+03  0.00000000000E+00 0. -1.
          2   -1    0    0  501    0  0.00000000000E+00 -0.00000000000E+00 -0.24235543560E+04  0.24235543560E+04  0.00000000000E+00 0.  1.
    2000013    1    1    2    0    0  0.31987340740E+03  0.55848786490E+03 -0.31215566273E+03  0.10731583526E+04  0.80000000000E+03 0.  0.
   -2000013    1    1    2    0    0 -0.31987340740E+03 -0.55848786490E+03 -0.15786312863E+04  0.18831634103E+04  0.80000000000E+03 0.  0.
<mgrwt>
<rscale>  0 0.22726115E+04</rscale>
<asrwt>0</asrwt>
<pdfrwt beam="2">  1        2 0.37285451E+00 0.22726115E+04</pdfrwt>
<pdfrwt beam="1">  1       -2 0.81964217E-01 0.22726115E+04</pdfrwt>
<totfact> 0.45820118E+00</totfact>
</mgrwt>
</event>
<event>
 4    1  0.7144937E-008  0.1750331E+04  0.7816531E-02  0.8733168E-01
         -1   -1    0    0    0  501 -0.00000000000E+00  0.00000000000E+00  0.42781870789E+03  0.42781870789E+03  0.00000000000E+00 0.  1.
          1   -1    0    0  501    0  0.00000000000E+00 -0.00000000000E+00 -0.17902790105E+04  0.17902790105E+04  0.00000000000E+00 0. -1.
    2000013    1    1    2    0    0  0.74145910443E+02  0.34698838558E+03 -0.68634600227E+03  0.11121912563E+04  0.80000000000E+03 0.  0.
   -2000013    1    1    2    0    0 -0.74145910443E+02 -0.34698838558E+03 -0.67611430036E+03  0.11059064621E+04  0.80000000000E+03 0.  0.
<mgrwt>
<rscale>  0 0.17503312E+04</rscale>
<asrwt>0</asrwt>
<pdfrwt beam="2">  1        1 0.27542754E+00 0.17503312E+04</pdfrwt>
<pdfrwt beam="1">  1       -1 0.65818264E-01 0.17503312E+04</pdfrwt>
<totfact> 0.91710103E+00</totfact>
</mgrwt>
</event>
<event>
 4    1  0.7144937E-008  0.1830103E+04  0.7816531E-02  0.8690453E-01
         -2   -1    0    0    0  501 -0.00000000000E+00  0.00000000000E+00  0.40010059130E+03  0.40010059130E+03  0.00000000000E+00 0. -1.
          2   -1    0    0  501    0  0.00000000000E+00 -0.00000000000E+00 -0.20927708162E+04  0.20927708162E+04  0.00000000000E+00 0.  1.
    2000013    1    1    2    0    0  0.43481992317E+03  0.89630256929E+02 -0.82627438465E+03  0.12328143848E+04  0.80000000000E+03 0.  0.
   -2000013    1    1    2    0    0 -0.43481992317E+03 -0.89630256929E+02 -0.86639584026E+03  0.12600570227E+04  0.80000000000E+03 0.  0.
<mgrwt>
<rscale>  0 0.18301026E+04</rscale>
<asrwt>0</asrwt>
<pdfrwt beam="2">  1        2 0.32196475E+00 0.18301026E+04</pdfrwt>
<pdfrwt beam="1">  1       -2 0.61553936E-01 0.18301026E+04</pdfrwt>
<totfact> 0.13703138E+01</totfact>
</mgrwt>
</event>
<event>
 4    1  0.7144937E-008  0.3000995E+04  0.7816531E-02  0.8243447E-01
          2   -1    0    0  501    0  0.00000000000E+00  0.00000000000E+00  0.17955089503E+04  0.17955089503E+04  0.00000000000E+00 0.  1.
         -2   -1    0    0    0  501 -0.00000000000E+00 -0.00000000000E+00 -0.12539576635E+04  0.12539576635E+04  0.00000000000E+00 0. -1.
    2000013    1    1    2    0    0 -0.58190702087E+03  0.11024735717E+04  0.51428867853E+03  0.15679785082E+04  0.80000000000E+03 0.  0.
   -2000013    1    1    2    0    0  0.58190702087E+03 -0.11024735717E+04  0.27262608314E+02  0.14814881056E+04  0.80000000000E+03 0.  0.
<mgrwt>
<rscale>  0 0.30009946E+04</rscale>
<asrwt>0</asrwt>
<pdfrwt beam="1">  1        2 0.27623215E+00 0.30009946E+04</pdfrwt>
<pdfrwt beam="2">  1       -2 0.19291656E+00 0.30009946E+04</pdfrwt>
<totfact> 0.11008841E+00</totfact>
</mgrwt>
</event>
<event>
 4    1  0.7144937E-008  0.2231726E+04  0.7816531E-02  0.8505338E-01
          2   -1    0    0  501    0  0.00000000000E+00  0.00000000000E+00  0.90406301145E+03  0.90406301145E+03  0.00000000000E+00 0.  1.
         -2   -1    0    0    0  501 -0.00000000000E+00 -0.00000000000E+00 -0.13772825947E+04  0.13772825947E+04  0.00000000000E+00 0. -1.
    2000013    1    1    2    0    0  0.73955697124E+02  0.13107320473E+03  0.54357665726E+03  0.97883870605E+03  0.80000000000E+03 0.  0.
   -2000013    1    1    2    0    0 -0.73955697124E+02 -0.13107320473E+03 -0.10167962405E+04  0.13025069001E+04  0.80000000000E+03 0.  0.
<mgrwt>
<rscale>  0 0.22317260E+04</rscale>
<asrwt>0</asrwt>
<pdfrwt beam="1">  1        2 0.13908662E+00 0.22317260E+04</pdfrwt>
<pdfrwt beam="2">  1       -2 0.21188963E+00 0.22317260E+04</pdfrwt>
<totfact> 0.29567252E+00</totfact>
</mgrwt>
</event>
<event>
 4    1  0.7144937E-008  0.2255559E+04  0.7816531E-02  0.8495653E-01
         -2   -1    0    0    0  501 -0.00000000000E+00  0.00000000000E+00  0.11312574134E+04  0.11312574134E+04  0.00000000000E+00 0. -1.
          2   -1    0    0  501    0  0.00000000000E+00 -0.00000000000E+00 -0.11243119781E+04  0.11243119781E+04  0.00000000000E+00 0.  1.
    2000013    1    1    2    0    0 -0.43633993053E+03 -0.13756196898E+03  0.65352997414E+03  0.11297863769E+04  0.80000000000E+03 0.  0.
   -2000013    1    1    2    0    0  0.43633993053E+03  0.13756196898E+03 -0.64658453880E+03  0.11257830147E+04  0.80000000000E+03 0.  0.
<mgrwt>
<rscale>  0 0.22555587E+04</rscale>
<asrwt>0</asrwt>
<pdfrwt beam="2">  1        2 0.17297107E+00 0.22555587E+04</pdfrwt>
<pdfrwt beam="1">  1       -2 0.17403960E+00 0.22555587E+04</pdfrwt>
<totfact> 0.38217993E+00</totfact>
</mgrwt>
</event>
<event>
 4    1  0.7144937E-008  0.2465878E+04  0.7816531E-02  0.8415243E-01
          2   -1    0    0  501    0  0.00000000000E+00  0.00000000000E+00  0.10380044639E+04  0.10380044639E+04  0.00000000000E+00 0.  1.
         -2   -1    0    0    0  501 -0.00000000000E+00 -0.00000000000E+00 -0.14644820552E+04  0.14644820552E+04  0.00000000000E+00 0. -1.
    2000013    1    1    2    0    0 -0.82306671609E+03  0.12899744770E+03 -0.65098897182E+03  0.13258453160E+04  0.80000000000E+03 0.  0.
   -2000013    1    1    2    0    0  0.82306671609E+03 -0.12899744770E+03  0.22451138059E+03  0.11766412030E+04  0.80000000000E+03 0.  0.
<mgrwt>
<rscale>  0 0.24658783E+04</rscale>
<asrwt>0</asrwt>
<pdfrwt beam="1">  1        2 0.15969300E+00 0.24658783E+04</pdfrwt>
<pdfrwt beam="2">  1       -2 0.22530493E+00 0.24658783E+04</pdfrwt>
<totfact> 0.19490315E+00</totfact>
</mgrwt>
</event>
<event>
 4    1  0.7144937E-008  0.2583815E+04  0.7816531E-02  0.8373720E-01
         -1   -1    0    0    0  501 -0.00000000000E+00  0.00000000000E+00  0.11255557669E+04  0.11255557669E+04  0.00000000000E+00 0.  1.
          1   -1    0    0  501    0  0.00000000000E+00 -0.00000000000E+00 -0.14828446793E+04  0.14828446793E+04  0.00000000000E+00 0. -1.
    2000013    1    1    2    0    0  0.19065442348E+03 -0.90204440752E+03 -0.60574361758E+03  0.13627026648E+04  0.80000000000E+03 0.  0.
   -2000013    1    1    2    0    0 -0.19065442348E+03  0.90204440752E+03  0.24845470520E+03  0.12456977815E+04  0.80000000000E+03 0.  0.
<mgrwt>
<rscale>  0 0.25838145E+04</rscale>
<asrwt>0</asrwt>
<pdfrwt beam="2">  1        1 0.22812995E+00 0.25838145E+04</pdfrwt>
<pdfrwt beam="1">  1       -1 0.17316243E+00 0.25838145E+04</pdfrwt>
<totfact> 0.13834444E+00</totfact>
</mgrwt>
</event>
<event>
 4    1  0.7144937E-008  0.2181997E+04  0.7816531E-02  0.8525959E-01
          2   -1    0    0  501    0  0.00000000000E+00  0.00000000000E+00  0.95903250797E+03  0.95903250797E+03  0.00000000000E+00 0.  1.
         -2   -1    0    0    0  501 -0.00000000000E+00 -0.00000000000E+00 -0.12411231763E+04  0.12411231763E+04  0.00000000000E+00 0. -1.
    2000013    1    1    2    0    0 -0.12603376608E+03  0.68431412976E+03 -0.40029814574E+03  0.11333176712E+04  0.80000000000E+03 0.  0.
   -2000013    1    1    2    0    0  0.12603376608E+03 -0.68431412976E+03  0.11820747742E+03  0.10668380131E+04  0.80000000000E+03 0.  0.
<mgrwt>
<rscale>  0 0.21819968E+04</rscale>
<asrwt>0</asrwt>
<pdfrwt beam="1">  1        2 0.14754346E+00 0.21819968E+04</pdfrwt>
<pdfrwt beam="2">  1       -2 0.19094203E+00 0.21819968E+04</pdfrwt>
<totfact> 0.37439251E+00</totfact>
</mgrwt>
</event>
<event>
 4    1  0.7144937E-008  0.2148269E+04  0.7816531E-02  0.8540273E-01
         -1   -1    0    0    0  501 -0.00000000000E+00  0.00000000000E+00  0.16809617613E+04  0.16809617613E+04  0.00000000000E+00 0.  1.
          1   -1    0    0  501    0  0.00000000000E+00 -0.00000000000E+00 -0.68637216296E+03  0.68637216296E+03  0.00000000000E+00 0. -1.
    2000013    1    1    2    0    0 -0.12196310900E+03  0.30643302493E+03  0.11985764542E+04  0.14782968969E+04  0.80000000000E+03 0.  0.
   -2000013    1    1    2    0    0  0.12196310900E+03 -0.30643302493E+03 -0.20398685585E+03  0.88903702740E+03  0.80000000000E+03 0.  0.
<mgrwt>
<rscale>  0 0.21482694E+04</rscale>
<asrwt>0</asrwt>
<pdfrwt beam="2">  1        1 0.10559572E+00 0.21482694E+04</pdfrwt>
<pdfrwt beam="1">  1       -1 0.25860950E+00 0.21482694E+04</pdfrwt>
<totfact> 0.15749424E+00</totfact>
</mgrwt>
</event>
<event>
 4    1  0.7144937E-008  0.2284443E+04  0.7816531E-02  0.8484080E-01
         -2   -1    0    0    0  501 -0.00000000000E+00  0.00000000000E+00  0.11682474376E+04  0.11682474376E+04  0.00000000000E+00 0. -1.
          2   -1    0    0  501    0  0.00000000000E+00 -0.00000000000E+00 -0.11167750680E+04  0.11167750680E+04  0.00000000000E+00 0.  1.
    2000013    1    1    2    0    0  0.47382621799E+02  0.62784281441E+03 -0.49231215016E+03  0.11308417067E+04  0.80000000000E+03 0.  0.
   -2000013    1    1    2    0    0 -0.47382621799E+02 -0.62784281441E+03  0.54378451979E+03  0.11541807988E+04  0.80000000000E+03 0.  0.
<mgrwt>
<rscale>  0 0.22844427E+04</rscale>
<asrwt>0</asrwt>
<pdfrwt beam="2">  1        2 0.17181155E+00 0.22844427E+04</pdfrwt>
<pdfrwt beam="1">  1       -2 0.17973037E+00 0.22844427E+04</pdfrwt>
<totfact> 0.35165462E+00</totfact>
</mgrwt>
</event>
<event>
 4    1  0.7144937E-008  0.3441286E+04  0.7816531E-02  0.8127847E-01
         -2   -1    0    0    0  501 -0.00000000000E+00  0.00000000000E+00  0.27921038231E+04  0.27921038231E+04  0.00000000000E+00 0. -1.
          2   -1    0    0  501    0  0.00000000000E+00 -0.00000000000E+00 -0.10603517171E+04  0.10603517171E+04  0.00000000000E+00 0.  1.
    2000013    1    1    2    0    0  0.13698080410E+04  0.59788905962E+03  0.53611953243E+03  0.17779959364E+04  0.80000000000E+03 0.  0.
   -2000013    1    1    2    0    0 -0.13698080410E+04 -0.59788905962E+03  0.11956325737E+04  0.20744596038E+04  0.80000000000E+03 0.  0.
<mgrwt>
<rscale>  0 0.34412859E+04</rscale>
<asrwt>0</asrwt>
<pdfrwt beam="2">  1        2 0.16313103E+00 0.34412859E+04</pdfrwt>
<pdfrwt beam="1">  1       -2 0.42955443E+00 0.34412859E+04</pdfrwt>
<totfact> 0.90161664E-02</totfact>
</mgrwt>
</event>
<event>
 4    1  0.7144937E-008  0.1954567E+04  0.7816531E-02  0.8628162E-01
          2   -1    0    0  501    0  0.00000000000E+00  0.00000000000E+00  0.71656039651E+03  0.71656039651E+03  0.00000000000E+00 0.  1.
         -2   -1    0    0    0  501 -0.00000000000E+00 -0.00000000000E+00 -0.13328711715E+04  0.13328711715E+04  0.00000000000E+00 0. -1.
    2000013    1    1    2    0    0  0.18232806234E+03 -0.46778298520E+03 -0.44937067725E+02  0.94556003702E+03  0.80000000000E+03 0.  0.
   -2000013    1    1    2    0    0 -0.18232806234E+03  0.46778298520E+03 -0.57137370726E+03  0.11038715310E+04  0.80000000000E+03 0.  0.
<mgrwt>
<rscale>  0 0.19545666E+04</rscale>
<asrwt>0</asrwt>
<pdfrwt beam="1">  1        2 0.11024006E+00 0.19545666E+04</pdfrwt>
<pdfrwt beam="2">  1       -2 0.20505710E+00 0.19545666E+04</pdfrwt>
<totfact> 0.45680644E+00</totfact>
</mgrwt>
</event>
<event>
 4    1  0.7144937E-008  0.1802151E+04  0.7816531E-02  0.8705157E-01
          2   -1    0    0  501    0  0.00000000000E+00  0.00000000000E+00  0.29059759457E+04  0.29059759457E+04  0.00000000000E+00 0.  1.
         -2   -1    0    0    0  501 -0.00000000000E+00 -0.00000000000E+00 -0.27940239397E+03  0.27940239397E+03  0.00000000000E+00 0. -1.
    2000013    1    1    2    0    0  0.21086353265E+03 -0.31290800644E+03  0.10093835617E+04  0.13420991113E+04  0.80000000000E+03 0.  0.
   -2000013    1    1    2    0    0 -0.21086353265E+03  0.31290800644E+03  0.16171899900E+04  0.18432792284E+04  0.80000000000E+03 0.  0.
<mgrwt>
<rscale>  0 0.18021505E+04</rscale>
<asrwt>0</asrwt>
<pdfrwt beam="1">  1        2 0.44707320E+00 0.18021505E+04</pdfrwt>
<pdfrwt beam="2">  1       -2 0.42984986E-01 0.18021505E+04</pdfrwt>
<totfact> 0.96796650E+00</totfact>
</mgrwt>
</event>
<event>
 4    1  0.7144937E-008  0.1945775E+04  0.7816531E-02  0.8632401E-01
         -2   -1    0    0    0  501 -0.00000000000E+00  0.00000000000E+00  0.53628609177E+03  0.53628609177E+03  0.00000000000E+00 0. -1.
          2   -1    0    0  501    0  0.00000000000E+00 -0.00000000000E+00 -0.17649341865E+04  0.17649341865E+04  0.00000000000E+00 0.  1.
    2000013    1    1    2    0    0  0.60523088559E+02  0.35705048297E+03 -0.11906447433E+03  0.88618533089E+03  0.80000000000E+03 0.  0.
   -2000013    1    1    2    0    0 -0.60523088559E+02 -0.35705048297E+03 -0.11095836204E+04  0.14150349473E+04  0.80000000000E+03 0.  0.
<mgrwt>
<rscale>  0 0.19457746E+04</rscale>
<asrwt>0</asrwt>
<pdfrwt beam="2">  1        2 0.27152834E+00 0.19457746E+04</pdfrwt>
<pdfrwt beam="1">  1       -2 0.82505551E-01 0.19457746E+04</pdfrwt>
<totfact> 0.10856484E+01</totfact>
</mgrwt>
</event>
<event>
 4    1  0.7144937E-008  0.1966000E+04  0.7816531E-02  0.8622684E-01
          2   -1    0    0  501    0  0.00000000000E+00  0.00000000000E+00  0.68283699785E+03  0.68283699785E+03  0.00000000000E+00 0.  1.
         -2   -1    0    0    0  501 -0.00000000000E+00 -0.00000000000E+00 -0.14151099471E+04  0.14151099471E+04  0.00000000000E+00 0. -1.
    2000013    1    1    2    0    0  0.71698369302E+02  0.56581945229E+03 -0.39983294539E+03  0.10607349777E+04  0.80000000000E+03 0.  0.
   -2000013    1    1    2    0    0 -0.71698369302E+02 -0.56581945229E+03 -0.33244000382E+03  0.10372119672E+04  0.80000000000E+03 0.  0.
<mgrwt>
<rscale>  0 0.19660004E+04</rscale>
<asrwt>0</asrwt>
<pdfrwt beam="1">  1        2 0.10505185E+00 0.19660004E+04</pdfrwt>
<pdfrwt beam="2">  1       -2 0.21770922E+00 0.19660004E+04</pdfrwt>
<totfact> 0.40231476E+00</totfact>
</mgrwt>
</event>
<event>
 4    1  0.7144937E-008  0.1860738E+04  0.7816531E-02  0.8674650E-01
         -2   -1    0    0    0  501 -0.00000000000E+00  0.00000000000E+00  0.19136879306E+03  0.19136879306E+03  0.00000000000E+00 0. -1.
          2   -1    0    0  501    0  0.00000000000E+00 -0.00000000000E+00 -0.45231345446E+04  0.45231345446E+04  0.00000000000E+00 0.  1.
    2000013    1    1    2    0    0 -0.24436926792E+03 -0.40035840958E+03 -0.19765578942E+04  0.21832966598E+04  0.80000000000E+03 0.  0.
   -2000013    1    1    2    0    0  0.24436926792E+03  0.40035840958E+03 -0.23552078573E+04  0.25312066779E+04  0.80000000000E+03 0.  0.
<mgrwt>
<rscale>  0 0.18607383E+04</rscale>
<asrwt>0</asrwt>
<pdfrwt beam="2">  1        2 0.69586686E+00 0.18607383E+04</pdfrwt>
<pdfrwt beam="1">  1       -2 0.29441352E-01 0.18607383E+04</pdfrwt>
<totfact> 0.11900309E+00</totfact>
</mgrwt>
</event>
<event>
 4    1  0.7144937E-008  0.2903122E+04  0.7816531E-02  0.8271949E-01
         -2   -1    0    0    0  501 -0.00000000000E+00  0.00000000000E+00  0.67389270175E+03  0.67389270175E+03  0.00000000000E+00 0. -1.
          2   -1    0    0  501    0  0.00000000000E+00 -0.00000000000E+00 -0.31266545531E+04  0.31266545531E+04  0.00000000000E+00 0.  1.
    2000013    1    1    2    0    0  0.20275432740E+03 -0.10431437249E+04 -0.19872191767E+04  0.23912963439E+04  0.80000000000E+03 0.  0.
   -2000013    1    1    2    0    0 -0.20275432740E+03  0.10431437249E+04 -0.46554267464E+03  0.14092509110E+04  0.80000000000E+03 0.  0.
<mgrwt>
<rscale>  0 0.29031222E+04</rscale>
<asrwt>0</asrwt>
<pdfrwt beam="2">  1        2 0.48102377E+00 0.29031222E+04</pdfrwt>
<pdfrwt beam="1">  1       -2 0.10367580E+00 0.29031222E+04</pdfrwt>
<totfact> 0.94547103E-01</totfact>
</mgrwt>
</event>
<event>
 4    1  0.7144937E-008  0.1993422E+04  0.7816531E-02  0.8609702E-01
         -2   -1    0    0    0  501 -0.00000000000E+00  0.00000000000E+00  0.63854963269E+03  0.63854963269E+03  0.00000000000E+00 0. -1.
          2   -1    0    0  501    0  0.00000000000E+00 -0.00000000000E+00 -0.15557637808E+04  0.15557637808E+04  0.00000000000E+00 0.  1.
    2000013    1    1    2    0    0 -0.36025325136E+03  0.36716366820E+03 -0.13050739989E+03  0.96001236751E+03  0.80000000000E+03 0.  0.
   -2000013    1    1    2    0    0  0.36025325136E+03 -0.36716366820E+03 -0.78670674819E+03  0.12343010459E+04  0.80000000000E+03 0.  0.
<mgrwt>
<rscale>  0 0.19934216E+04</rscale>
<asrwt>0</asrwt>
<pdfrwt beam="2">  1        2 0.23934827E+00 0.19934216E+04</pdfrwt>
<pdfrwt beam="1">  1       -2 0.98238405E-01 0.19934216E+04</pdfrwt>
<totfact> 0.94559515E+00</totfact>
</mgrwt>
</event>
<event>
 4    1  0.7144937E-008  0.1939694E+04  0.7816531E-02  0.8635347E-01
         -1   -1    0    0    0  501 -0.00000000000E+00  0.00000000000E+00  0.60934828932E+03  0.60934828932E+03  0.00000000000E+00 0. -1.
          1   -1    0    0  501    0  0.00000000000E+00 -0.00000000000E+00 -0.15436209017E+04  0.15436209017E+04  0.00000000000E+00 0.  1.
    2000013    1    1    2    0    0  0.35284951060E+03 -0.12196696040E+02 -0.15493160075E+01  0.87444493074E+03  0.80000000000E+03 0.  0.
   -2000013    1    1    2    0    0 -0.35284951060E+03  0.12196696040E+02 -0.93272329639E+03  0.12785242603E+04  0.80000000000E+03 0.  0.
<mgrwt>
<rscale>  0 0.19396935E+04</rscale>
<asrwt>0</asrwt>
<pdfrwt beam="2">  1        1 0.23748014E+00 0.19396935E+04</pdfrwt>
<pdfrwt beam="1">  1       -1 0.93745892E-01 0.19396935E+04</pdfrwt>
<totfact> 0.62767857E+00</totfact>
</mgrwt>
</event>
<event>
 4    1  0.7144937E-008  0.2442212E+04  0.7816531E-02  0.8423867E-01
         -2   -1    0    0    0  501 -0.00000000000E+00  0.00000000000E+00  0.10055740236E+04  0.10055740236E+04  0.00000000000E+00 0. -1.
          2   -1    0    0  501    0  0.00000000000E+00 -0.00000000000E+00 -0.14828342028E+04  0.14828342028E+04  0.00000000000E+00 0.  1.
    2000013    1    1    2    0    0  0.68552280676E+03  0.53267087382E+02  0.38808238376E+03  0.11240048211E+04  0.80000000000E+03 0.  0.
   -2000013    1    1    2    0    0 -0.68552280676E+03 -0.53267087382E+02 -0.86534256292E+03  0.13644034053E+04  0.80000000000E+03 0.  0.
<mgrwt>
<rscale>  0 0.24422117E+04</rscale>
<asrwt>0</asrwt>
<pdfrwt beam="2">  1        2 0.22812834E+00 0.24422117E+04</pdfrwt>
<pdfrwt beam="1">  1       -2 0.15470370E+00 0.24422117E+04</pdfrwt>
<totfact> 0.32103550E+00</totfact>
</mgrwt>
</event>
<event>
 4    1  0.7144937E-008  0.2705264E+04  0.7816531E-02  0.8333299E-01
         -3   -1    0    0    0  501 -0.00000000000E+00  0.00000000000E+00  0.85379274838E+03  0.85379274838E+03  0.00000000000E+00 0. -1.
          3   -1    0    0  501    0  0.00000000000E+00 -0.00000000000E+00 -0.21429250995E+04  0.21429250995E+04  0.00000000000E+00 0.  1.
    2000013    1    1    2    0    0 -0.98381930467E+03 -0.34171470018E+03 -0.28571359284E+03  0.13439872089E+04  0.80000000000E+03 0.  0.
   -2000013    1    1    2    0    0  0.98381930467E+03  0.34171470018E+03 -0.10034187583E+04  0.16527306390E+04  0.80000000000E+03 0.  0.
<mgrwt>
<rscale>  0 0.27052644E+04</rscale>
<asrwt>0</asrwt>
<pdfrwt beam="2">  1        3 0.32968078E+00 0.27052644E+04</pdfrwt>
<pdfrwt beam="1">  1       -3 0.13135273E+00 0.27052644E+04</pdfrwt>
<totfact> 0.27433975E-02</totfact>
</mgrwt>
</event>
<event>
 4    1  0.7144937E-008  0.2172805E+04  0.7816531E-02  0.8529833E-01
         -2   -1    0    0    0  501 -0.00000000000E+00  0.00000000000E+00  0.39336068198E+03  0.39336068198E+03  0.00000000000E+00 0. -1.
          2   -1    0    0  501    0  0.00000000000E+00 -0.00000000000E+00 -0.30004793199E+04  0.30004793199E+04  0.00000000000E+00 0.  1.
    2000013    1    1    2    0    0 -0.20624002854E+03 -0.70370095219E+03 -0.13822892284E+04  0.17573996388E+04  0.80000000000E+03 0.  0.
   -2000013    1    1    2    0    0  0.20624002854E+03  0.70370095219E+03 -0.12248294095E+04  0.16364403631E+04  0.80000000000E+03 0.  0.
<mgrwt>
<rscale>  0 0.21728052E+04</rscale>
<asrwt>0</asrwt>
<pdfrwt beam="2">  1        2 0.46161220E+00 0.21728052E+04</pdfrwt>
<pdfrwt beam="1">  1       -2 0.60517028E-01 0.21728052E+04</pdfrwt>
<totfact> 0.40594168E+00</totfact>
</mgrwt>
</event>
<event>
 4    1  0.7144937E-008  0.2211036E+04  0.7816531E-02  0.8513849E-01
         -2   -1    0    0    0  501 -0.00000000000E+00  0.00000000000E+00  0.41323503140E+03  0.41323503140E+03  0.00000000000E+00 0. -1.
          2   -1    0    0  501    0  0.00000000000E+00 -0.00000000000E+00 -0.29575671622E+04  0.29575671622E+04  0.00000000000E+00 0.  1.
    2000013    1    1    2    0    0 -0.63320838153E+03  0.32010645114E+03 -0.16999859124E+04  0.20083259439E+04  0.80000000000E+03 0.  0.
   -2000013    1    1    2    0    0  0.63320838153E+03 -0.32010645114E+03 -0.84434621837E+03  0.13624762497E+04  0.80000000000E+03 0.  0.
<mgrwt>
<rscale>  0 0.22110363E+04</rscale>
<asrwt>0</asrwt>
<pdfrwt beam="2">  1        2 0.45501034E+00 0.22110363E+04</pdfrwt>
<pdfrwt beam="1">  1       -2 0.63574619E-01 0.22110363E+04</pdfrwt>
<totfact> 0.38738103E+00</totfact>
</mgrwt>
</event>
<event>
 4    1  0.7144937E-008  0.2640726E+04  0.7816531E-02  0.8354498E-01
         -2   -1    0    0    0  501 -0.00000000000E+00  0.00000000000E+00  0.11246950261E+04  0.11246950261E+04  0.00000000000E+00 0. -1.
          2   -1    0    0  501    0  0.00000000000E+00 -0.00000000000E+00 -0.15500726758E+04  0.15500726758E+04  0.00000000000E+00 0.  1.
    2000013    1    1    2    0    0  0.17539352585E+03  0.64646740444E+03 -0.10322396252E+04  0.14677198771E+04  0.80000000000E+03 0.  0.
   -2000013    1    1    2    0    0 -0.17539352585E+03 -0.64646740444E+03  0.60686197555E+03  0.12070478248E+04  0.80000000000E+03 0.  0.
<mgrwt>
<rscale>  0 0.26407264E+04</rscale>
<asrwt>0</asrwt>
<pdfrwt beam="2">  1        2 0.23847272E+00 0.26407264E+04</pdfrwt>
<pdfrwt beam="1">  1       -2 0.17303000E+00 0.26407264E+04</pdfrwt>
<totfact> 0.21275997E+00</totfact>
</mgrwt>
</event>
<event>
 4    1  0.7144937E-008  0.2029304E+04  0.7816531E-02  0.8593042E-01
         -2   -1    0    0    0  501 -0.00000000000E+00  0.00000000000E+00  0.18739762764E+04  0.18739762764E+04  0.00000000000E+00 0. -1.
          2   -1    0    0  501    0  0.00000000000E+00 -0.00000000000E+00 -0.54937634379E+03  0.54937634379E+03  0.00000000000E+00 0.  1.
    2000013    1    1    2    0    0  0.29297806110E+03 -0.54489105385E+03  0.56400056936E+03  0.11579460467E+04  0.80000000000E+03 0.  0.
   -2000013    1    1    2    0    0 -0.29297806110E+03  0.54489105385E+03  0.76059936328E+03  0.12654065735E+04  0.80000000000E+03 0.  0.
<mgrwt>
<rscale>  0 0.20293036E+04</rscale>
<asrwt>0</asrwt>
<pdfrwt beam="2">  1        2 0.84519439E-01 0.20293036E+04</pdfrwt>
<pdfrwt beam="1">  1       -2 0.28830404E+00 0.20293036E+04</pdfrwt>
<totfact> 0.19158927E+00</totfact>
</mgrwt>
</event>
<event>
 4    1  0.7144937E-008  0.2013402E+04  0.7816531E-02  0.8600380E-01
         -2   -1    0    0    0  501 -0.00000000000E+00  0.00000000000E+00  0.29250556717E+03  0.29250556717E+03  0.00000000000E+00 0. -1.
          2   -1    0    0  501    0  0.00000000000E+00 -0.00000000000E+00 -0.34647090721E+04  0.34647090721E+04  0.00000000000E+00 0.  1.
    2000013    1    1    2    0    0 -0.12643944882E+03 -0.58945150917E+03 -0.17727743118E+04  0.20362143248E+04  0.80000000000E+03 0.  0.
   -2000013    1    1    2    0    0  0.12643944882E+03  0.58945150917E+03 -0.13994291931E+04  0.17210003144E+04  0.80000000000E+03 0.  0.
<mgrwt>
<rscale>  0 0.20134018E+04</rscale>
<asrwt>0</asrwt>
<pdfrwt beam="2">  1        2 0.53303220E+00 0.20134018E+04</pdfrwt>
<pdfrwt beam="1">  1       -2 0.45000854E-01 0.20134018E+04</pdfrwt>
<totfact> 0.37588749E+00</totfact>
</mgrwt>
</event>
<event>
 4    1  0.7144937E-008  0.1838354E+04  0.7816531E-02  0.8686165E-01
          1   -1    0    0  501    0  0.00000000000E+00  0.00000000000E+00  0.13313115488E+04  0.13313115488E+04  0.00000000000E+00 0. -1.
         -1   -1    0    0    0  501 -0.00000000000E+00 -0.00000000000E+00 -0.63462684578E+03  0.63462684578E+03  0.00000000000E+00 0.  1.
    2000013    1    1    2    0    0 -0.24183813266E+03  0.15637628001E+03  0.72178687009E+03  0.11153096024E+04  0.80000000000E+03 0.  0.
   -2000013    1    1    2    0    0  0.24183813266E+03 -0.15637628001E+03 -0.25102167038E+02  0.85062879222E+03  0.80000000000E+03 0.  0.
<mgrwt>
<rscale>  0 0.18383537E+04</rscale>
<asrwt>0</asrwt>
<pdfrwt beam="1">  1        1 0.20481716E+00 0.18383537E+04</pdfrwt>
<pdfrwt beam="2">  1       -1 0.97634899E-01 0.18383537E+04</pdfrwt>
<totfact> 0.81344325E+00</totfact>
</mgrwt>
</event>
<event>
 4    1  0.7144937E-008  0.2472353E+04  0.7816531E-02  0.8412902E-01
          2   -1    0    0  501    0  0.00000000000E+00  0.00000000000E+00  0.33220663151E+04  0.33220663151E+04  0.00000000000E+00 0.  1.
         -2   -1    0    0    0  501 -0.00000000000E+00 -0.00000000000E+00 -0.45999458356E+03  0.45999458356E+03  0.00000000000E+00 0. -1.
    2000013    1    1    2    0    0 -0.18218704440E+02  0.73203835979E+03  0.23385225345E+04  0.25777703012E+04  0.80000000000E+03 0.  0.
   -2000013    1    1    2    0    0  0.18218704440E+02 -0.73203835979E+03  0.52354919705E+03  0.12042905975E+04  0.80000000000E+03 0.  0.
<mgrwt>
<rscale>  0 0.24723531E+04</rscale>
<asrwt>0</asrwt>
<pdfrwt beam="1">  1        2 0.51108711E+00 0.24723531E+04</pdfrwt>
<pdfrwt beam="2">  1       -2 0.70768399E-01 0.24723531E+04</pdfrwt>
<totfact> 0.17483766E+00</totfact>
</mgrwt>
</event>
<event>
 4    1  0.7144937E-008  0.2325571E+04  0.7816531E-02  0.8467907E-01
          2   -1    0    0  501    0  0.00000000000E+00  0.00000000000E+00  0.24475290992E+04  0.24475290992E+04  0.00000000000E+00 0.  1.
         -2   -1    0    0    0  501 -0.00000000000E+00 -0.00000000000E+00 -0.55242230507E+03  0.55242230507E+03  0.00000000000E+00 0. -1.
    2000013    1    1    2    0    0  0.35080315711E+03  0.72769297123E+03  0.12621345867E+04  0.16987005711E+04  0.80000000000E+03 0.  0.
   -2000013    1    1    2    0    0 -0.35080315711E+03 -0.72769297123E+03  0.63297220748E+03  0.13012508332E+04  0.80000000000E+03 0.  0.
<mgrwt>
<rscale>  0 0.23255706E+04</rscale>
<asrwt>0</asrwt>
<pdfrwt beam="1">  1        2 0.37654293E+00 0.23255706E+04</pdfrwt>
<pdfrwt beam="2">  1       -2 0.84988048E-01 0.23255706E+04</pdfrwt>
<totfact> 0.40703864E+00</totfact>
</mgrwt>
</event>
<event>
 4    1  0.7144937E-008  0.2058799E+04  0.7816531E-02  0.8579613E-01
         -2   -1    0    0    0  501 -0.00000000000E+00  0.00000000000E+00  0.57408021494E+03  0.57408021494E+03  0.00000000000E+00 0. -1.
          2   -1    0    0  501    0  0.00000000000E+00 -0.00000000000E+00 -0.18458461933E+04  0.18458461933E+04  0.00000000000E+00 0.  1.
    2000013    1    1    2    0    0 -0.41015540365E+03 -0.49706984922E+03 -0.71347664480E+03  0.12507417051E+04  0.80000000000E+03 0.  0.
   -2000013    1    1    2    0    0  0.41015540365E+03  0.49706984922E+03 -0.55828933357E+03  0.11691847032E+04  0.80000000000E+03 0.  0.
<mgrwt>
<rscale>  0 0.20587994E+04</rscale>
<asrwt>0</asrwt>
<pdfrwt beam="2">  1        2 0.28397634E+00 0.20587994E+04</pdfrwt>
<pdfrwt beam="1">  1       -2 0.88320031E-01 0.20587994E+04</pdfrwt>
<totfact> 0.83043823E+00</totfact>
</mgrwt>
</event>
<event>
 4    1  0.7144937E-008  0.2787153E+04  0.7816531E-02  0.8307268E-01
         -2   -1    0    0    0  501 -0.00000000000E+00  0.00000000000E+00  0.11075936467E+04  0.11075936467E+04  0.00000000000E+00 0. -1.
          2   -1    0    0  501    0  0.00000000000E+00 -0.00000000000E+00 -0.17534009336E+04  0.17534009336E+04  0.00000000000E+00 0.  1.
    2000013    1    1    2    0    0 -0.69087603829E+02 -0.82605186705E+03  0.48204067537E+03  0.12487986214E+04  0.80000000000E+03 0.  0.
   -2000013    1    1    2    0    0  0.69087603829E+02  0.82605186705E+03 -0.11278479622E+04  0.16121959589E+04  0.80000000000E+03 0.  0.
<mgrwt>
<rscale>  0 0.27871532E+04</rscale>
<asrwt>0</asrwt>
<pdfrwt beam="2">  1        2 0.26975399E+00 0.27871532E+04</pdfrwt>
<pdfrwt beam="1">  1       -2 0.17039902E+00 0.27871532E+04</pdfrwt>
<totfact> 0.16895209E+00</totfact>
</mgrwt>
</event>
<event>
 4    1  0.7144937E-008  0.3632129E+04  0.7816531E-02  0.8083171E-01
         -2   -1    0    0    0  501 -0.00000000000E+00  0.00000000000E+00  0.21751558382E+04  0.21751558382E+04  0.00000000000E+00 0. -1.
          2   -1    0    0  501    0  0.00000000000E+00 -0.00000000000E+00 -0.15162549799E+04  0.15162549799E+04  0.00000000000E+00 0.  1.
    2000013    1    1    2    0    0  0.13637914983E+04 -0.42611002918E+03  0.11275014830E+04  0.19881540690E+04  0.80000000000E+03 0.  0.
   -2000013    1    1    2    0    0 -0.13637914983E+04  0.42611002918E+03 -0.46860062465E+03  0.17032567491E+04  0.80000000000E+03 0.  0.
<mgrwt>
<rscale>  0 0.36321293E+04</rscale>
<asrwt>0</asrwt>
<pdfrwt beam="2">  1        2 0.23327000E+00 0.36321293E+04</pdfrwt>
<pdfrwt beam="1">  1       -2 0.33463936E+00 0.36321293E+04</pdfrwt>
<totfact> 0.19616913E-01</totfact>
</mgrwt>
</event>
<event>
 4    1  0.7144937E-008  0.1944441E+04  0.7816531E-02  0.8633046E-01
         -2   -1    0    0    0  501 -0.00000000000E+00  0.00000000000E+00  0.51823255015E+03  0.51823255015E+03  0.00000000000E+00 0. -1.
          2   -1    0    0  501    0  0.00000000000E+00 -0.00000000000E+00 -0.18239161448E+04  0.18239161448E+04  0.00000000000E+00 0.  1.
    2000013    1    1    2    0    0  0.10531049921E+03  0.47921270356E+03 -0.34698078823E+03  0.10005652322E+04  0.80000000000E+03 0.  0.
   -2000013    1    1    2    0    0 -0.10531049921E+03 -0.47921270356E+03 -0.95870280645E+03  0.13415834628E+04  0.80000000000E+03 0.  0.
<mgrwt>
<rscale>  0 0.19444410E+04</rscale>
<asrwt>0</asrwt>
<pdfrwt beam="2">  1        2 0.28060248E+00 0.19444410E+04</pdfrwt>
<pdfrwt beam="1">  1       -2 0.79728086E-01 0.19444410E+04</pdfrwt>
<totfact> 0.10878172E+01</totfact>
</mgrwt>
</event>
<event>
 4    1  0.7144937E-008  0.2667884E+04  0.7816531E-02  0.8345501E-01
          2   -1    0    0  501    0  0.00000000000E+00  0.00000000000E+00  0.32771016211E+04  0.32771016211E+04  0.00000000000E+00 0.  1.
         -2   -1    0    0    0  501 -0.00000000000E+00 -0.00000000000E+00 -0.54298034441E+03  0.54298034441E+03  0.00000000000E+00 0. -1.
    2000013    1    1    2    0    0  0.30360048943E+03  0.42573014164E+03  0.34582173296E+02  0.95635523598E+03  0.80000000000E+03 0.  0.
   -2000013    1    1    2    0    0 -0.30360048943E+03 -0.42573014164E+03  0.26995391033E+04  0.28637267295E+04  0.80000000000E+03 0.  0.
<mgrwt>
<rscale>  0 0.26678844E+04</rscale>
<asrwt>0</asrwt>
<pdfrwt beam="1">  1        2 0.50416947E+00 0.26678844E+04</pdfrwt>
<pdfrwt beam="2">  1       -2 0.83535439E-01 0.26678844E+04</pdfrwt>
<totfact> 0.12720407E+00</totfact>
</mgrwt>
</event>
<event>
 4    1  0.7144937E-008  0.2511649E+04  0.7816531E-02  0.8398847E-01
          2   -1    0    0  501    0  0.00000000000E+00  0.00000000000E+00  0.13908769766E+04  0.13908769766E+04  0.00000000000E+00 0.  1.
         -2   -1    0    0    0  501 -0.00000000000E+00 -0.00000000000E+00 -0.11338855260E+04  0.11338855260E+04  0.00000000000E+00 0. -1.
    2000013    1    1    2    0    0 -0.15258525125E+03  0.95593431707E+03  0.12687646023E+03  0.12622164290E+04  0.80000000000E+03 0.  0.
   -2000013    1    1    2    0    0  0.15258525125E+03 -0.95593431707E+03  0.13011499039E+03  0.12625460737E+04  0.80000000000E+03 0.  0.
<mgrwt>
<rscale>  0 0.25116491E+04</rscale>
<asrwt>0</asrwt>
<pdfrwt beam="1">  1        2 0.21398107E+00 0.25116491E+04</pdfrwt>
<pdfrwt beam="2">  1       -2 0.17444393E+00 0.25116491E+04</pdfrwt>
<totfact> 0.25875349E+00</totfact>
</mgrwt>
</event>
<event>
 4    1  0.7144937E-008  0.2191880E+04  0.7816531E-02  0.8521816E-01
          2   -1    0    0  501    0  0.00000000000E+00  0.00000000000E+00  0.15219429400E+04  0.15219429400E+04  0.00000000000E+00 0.  1.
         -2   -1    0    0    0  501 -0.00000000000E+00 -0.00000000000E+00 -0.78917812879E+03  0.78917812879E+03  0.00000000000E+00 0. -1.
    2000013    1    1    2    0    0 -0.72325660707E+03 -0.17072764355E+03  0.46549633033E+03  0.11869856282E+04  0.80000000000E+03 0.  0.
   -2000013    1    1    2    0    0  0.72325660707E+03  0.17072764355E+03  0.26726848084E+03  0.11241354406E+04  0.80000000000E+03 0.  0.
<mgrwt>
<rscale>  0 0.21918796E+04</rscale>
<asrwt>0</asrwt>
<pdfrwt beam="1">  1        2 0.23414507E+00 0.21918796E+04</pdfrwt>
<pdfrwt beam="2">  1       -2 0.12141202E+00 0.21918796E+04</pdfrwt>
<totfact> 0.58206132E+00</totfact>
</mgrwt>
</event>
<event>
 4    1  0.7144937E-008  0.2003277E+04  0.7816531E-02  0.8605090E-01
         -1   -1    0    0    0  501 -0.00000000000E+00  0.00000000000E+00  0.37179110368E+03  0.37179110368E+03  0.00000000000E+00 0. -1.
          1   -1    0    0  501    0  0.00000000000E+00 -0.00000000000E+00 -0.26985028724E+04  0.26985028724E+04  0.00000000000E+00 0.  1.
    2000013    1    1    2    0    0 -0.27962766093E+03 -0.42023110869E+03 -0.16681810322E+04  0.19177105542E+04  0.80000000000E+03 0.  0.
   -2000013    1    1    2    0    0  0.27962766093E+03  0.42023110869E+03 -0.65853073651E+03  0.11525834219E+04  0.80000000000E+03 0.  0.
<mgrwt>
<rscale>  0 0.20032767E+04</rscale>
<asrwt>0</asrwt>
<pdfrwt beam="2">  1        1 0.41515430E+00 0.20032767E+04</pdfrwt>
<pdfrwt beam="1">  1       -1 0.57198629E-01 0.20032767E+04</pdfrwt>
<totfact> 0.28263146E+00</totfact>
</mgrwt>
</event>
<event>
 4    1  0.7144937E-008  0.2288755E+04  0.7816531E-02  0.8482368E-01
          1   -1    0    0  501    0  0.00000000000E+00  0.00000000000E+00  0.10985094095E+04  0.10985094095E+04  0.00000000000E+00 0.  1.
         -1   -1    0    0    0  501 -0.00000000000E+00 -0.00000000000E+00 -0.11921604656E+04  0.11921604656E+04  0.00000000000E+00 0. -1.
    2000013    1    1    2    0    0  0.41273896646E+03  0.69715511883E+03  0.68252315991E+02  0.11406301297E+04  0.80000000000E+03 0.  0.
   -2000013    1    1    2    0    0 -0.41273896646E+03 -0.69715511883E+03 -0.16190337204E+03  0.11500397454E+04  0.80000000000E+03 0.  0.
<mgrwt>
<rscale>  0 0.22887547E+04</rscale>
<asrwt>0</asrwt>
<pdfrwt beam="1">  1        1 0.16900145E+00 0.22887547E+04</pdfrwt>
<pdfrwt beam="2">  1       -1 0.18340930E+00 0.22887547E+04</pdfrwt>
<totfact> 0.22627091E+00</totfact>
</mgrwt>
</event>
<event>
 4    1  0.7144937E-008  0.2442002E+04  0.7816531E-02  0.8423944E-01
         -2   -1    0    0    0  501 -0.00000000000E+00  0.00000000000E+00  0.14608004260E+04  0.14608004260E+04  0.00000000000E+00 0. -1.
          2   -1    0    0  501    0  0.00000000000E+00 -0.00000000000E+00 -0.10205661074E+04  0.10205661074E+04  0.00000000000E+00 0.  1.
    2000013    1    1    2    0    0  0.74157530903E+03  0.54779695043E+03  0.24935540377E+03  0.12458706013E+04  0.80000000000E+03 0.  0.
   -2000013    1    1    2    0    0 -0.74157530903E+03 -0.54779695043E+03  0.19087891483E+03  0.12354959320E+04  0.80000000000E+03 0.  0.
<mgrwt>
<rscale>  0 0.24420020E+04</rscale>
<asrwt>0</asrwt>
<pdfrwt beam="2">  1        2 0.15701017E+00 0.24420020E+04</pdfrwt>
<pdfrwt beam="1">  1       -2 0.22473853E+00 0.24420020E+04</pdfrwt>
<totfact> 0.20197919E+00</totfact>
</mgrwt>
</event>
<event>
 4    1  0.7144937E-008  0.1718862E+04  0.7816531E-02  0.8750679E-01
         -2   -1    0    0    0  501 -0.00000000000E+00  0.00000000000E+00  0.11040180715E+04  0.11040180715E+04  0.00000000000E+00 0. -1.
          2   -1    0    0  501    0  0.00000000000E+00 -0.00000000000E+00 -0.66903068052E+03  0.66903068052E+03  0.00000000000E+00 0.  1.
    2000013    1    1    2    0    0  0.15467706265E+03  0.24192326171E+03  0.86323256519E+02  0.85434393711E+03  0.80000000000E+03 0.  0.
   -2000013    1    1    2    0    0 -0.15467706265E+03 -0.24192326171E+03  0.34866413445E+03  0.91870481490E+03  0.80000000000E+03 0.  0.
<mgrwt>
<rscale>  0 0.17188624E+04</rscale>
<asrwt>0</asrwt>
<pdfrwt beam="2">  1        2 0.10292780E+00 0.17188624E+04</pdfrwt>
<pdfrwt beam="1">  1       -2 0.16984893E+00 0.17188624E+04</pdfrwt>
<totfact> 0.87990524E+00</totfact>
</mgrwt>
</event>
<event>
 4    1  0.7144937E-008  0.2814709E+04  0.7816531E-02  0.8298716E-01
         -2   -1    0    0    0  501 -0.00000000000E+00  0.00000000000E+00  0.13504059601E+04  0.13504059601E+04  0.00000000000E+00 0. -1.
          2   -1    0    0  501    0  0.00000000000E+00 -0.00000000000E+00 -0.14667051023E+04  0.14667051023E+04  0.00000000000E+00 0.  1.
    2000013    1    1    2    0    0 -0.56722877735E+03 -0.97377693345E+03 -0.32419080169E+03  0.14195385440E+04  0.80000000000E+03 0.  0.
   -2000013    1    1    2    0    0  0.56722877735E+03  0.97377693345E+03  0.20789165948E+03  0.13975725184E+04  0.80000000000E+03 0.  0.
<mgrwt>
<rscale>  0 0.28147094E+04</rscale>
<asrwt>0</asrwt>
<pdfrwt beam="2">  1        2 0.22564694E+00 0.28147094E+04</pdfrwt>
<pdfrwt beam="1">  1       -2 0.20775476E+00 0.28147094E+04</pdfrwt>
<totfact> 0.13642163E+00</totfact>
</mgrwt>
</event>
<event>
 4    1  0.7144937E-008  0.3327800E+04  0.7816531E-02  0.8155857E-01
         -2   -1    0    0    0  501 -0.00000000000E+00  0.00000000000E+00  0.14214355777E+04  0.14214355777E+04  0.00000000000E+00 0. -1.
          2   -1    0    0  501    0  0.00000000000E+00 -0.00000000000E+00 -0.19477236325E+04  0.19477236325E+04  0.00000000000E+00 0.  1.
    2000013    1    1    2    0    0  0.35408082689E+03  0.14151248624E+04 -0.23809673461E+03  0.16806670292E+04  0.80000000000E+03 0.  0.
   -2000013    1    1    2    0    0 -0.35408082689E+03 -0.14151248624E+04 -0.28819132014E+03  0.16884921810E+04  0.80000000000E+03 0.  0.
<mgrwt>
<rscale>  0 0.33278003E+04</rscale>
<asrwt>0</asrwt>
<pdfrwt beam="2">  1        2 0.29964979E+00 0.33278003E+04</pdfrwt>
<pdfrwt beam="1">  1       -2 0.21868240E+00 0.33278003E+04</pdfrwt>
<totfact> 0.59985822E-01</totfact>
</mgrwt>
</event>
<event>
 4    1  0.7144937E-008  0.2167717E+04  0.7816531E-02  0.8531986E-01
          1   -1    0    0  501    0  0.00000000000E+00  0.00000000000E+00  0.20950173705E+04  0.20950173705E+04  0.00000000000E+00 0. -1.
         -1   -1    0    0    0  501 -0.00000000000E+00 -0.00000000000E+00 -0.56073493628E+03  0.56073493628E+03  0.00000000000E+00 0.  1.
    2000013    1    1    2    0    0 -0.57235683390E+03  0.18697842459E+03  0.25875159686E+03  0.10341690701E+04  0.80000000000E+03 0.  0.
   -2000013    1    1    2    0    0  0.57235683390E+03 -0.18697842459E+03  0.12755308374E+04  0.16215832367E+04  0.80000000000E+03 0.  0.
<mgrwt>
<rscale>  0 0.21677172E+04</rscale>
<asrwt>0</asrwt>
<pdfrwt beam="1">  1        1 0.32231036E+00 0.21677172E+04</pdfrwt>
<pdfrwt beam="2">  1       -1 0.86266914E-01 0.21677172E+04</pdfrwt>
<totfact> 0.31126372E+00</totfact>
</mgrwt>
</event>
<event>
 4    1  0.7144937E-008  0.2165059E+04  0.7816531E-02  0.8533114E-01
         -2   -1    0    0    0  501 -0.00000000000E+00  0.00000000000E+00  0.46682970113E+03  0.46682970113E+03  0.00000000000E+00 0. -1.
          2   -1    0    0  501    0  0.00000000000E+00 -0.00000000000E+00 -0.25102733542E+04  0.25102733542E+04  0.00000000000E+00 0.  1.
    2000013    1    1    2    0    0 -0.57511221837E+03 -0.27421489097E+02 -0.40621320190E+03  0.10660746537E+04  0.80000000000E+03 0.  0.
   -2000013    1    1    2    0    0  0.57511221837E+03  0.27421489097E+02 -0.16372304512E+04  0.19110284017E+04  0.80000000000E+03 0.  0.
<mgrwt>
<rscale>  0 0.21650590E+04</rscale>
<asrwt>0</asrwt>
<pdfrwt beam="2">  1        2 0.38619590E+00 0.21650590E+04</pdfrwt>
<pdfrwt beam="1">  1       -2 0.71819954E-01 0.21650590E+04</pdfrwt>
<totfact> 0.55317629E+00</totfact>
</mgrwt>
</event>
<event>
 4    1  0.7144937E-008  0.3645874E+04  0.7816531E-02  0.8080064E-01
          2   -1    0    0  501    0  0.00000000000E+00  0.00000000000E+00  0.25534043334E+04  0.25534043334E+04  0.00000000000E+00 0.  1.
         -2   -1    0    0    0  501 -0.00000000000E+00 -0.00000000000E+00 -0.13014385042E+04  0.13014385042E+04  0.00000000000E+00 0. -1.
    2000013    1    1    2    0    0 -0.92483252217E+03 -0.12824915473E+04  0.17368002470E+03  0.17805236628E+04  0.80000000000E+03 0.  0.
   -2000013    1    1    2    0    0  0.92483252217E+03  0.12824915473E+04  0.10782858045E+04  0.20743191748E+04  0.80000000000E+03 0.  0.
<mgrwt>
<rscale>  0 0.36458737E+04</rscale>
<asrwt>0</asrwt>
<pdfrwt beam="1">  1        2 0.39283144E+00 0.36458737E+04</pdfrwt>
<pdfrwt beam="2">  1       -2 0.20022131E+00 0.36458737E+04</pdfrwt>
<totfact> 0.34876007E-01</totfact>
</mgrwt>
</event>
<event>
 4    1  0.7144937E-008  0.1838261E+04  0.7816531E-02  0.8686213E-01
         -2   -1    0    0    0  501 -0.00000000000E+00  0.00000000000E+00  0.76358280408E+03  0.76358280408E+03  0.00000000000E+00 0. -1.
          2   -1    0    0  501    0  0.00000000000E+00 -0.00000000000E+00 -0.11063649124E+04  0.11063649124E+04  0.00000000000E+00 0.  1.
    2000013    1    1    2    0    0  0.10130505830E+03  0.41392508668E+03 -0.16434985637E+02  0.90656869623E+03  0.80000000000E+03 0.  0.
   -2000013    1    1    2    0    0 -0.10130505830E+03 -0.41392508668E+03 -0.32634712271E+03  0.96337902028E+03  0.80000000000E+03 0.  0.
<mgrwt>
<rscale>  0 0.18382614E+04</rscale>
<asrwt>0</asrwt>
<pdfrwt beam="2">  1        2 0.17020999E+00 0.18382614E+04</pdfrwt>
<pdfrwt beam="1">  1       -2 0.11747428E+00 0.18382614E+04</pdfrwt>
<totfact> 0.11374650E+01</totfact>
</mgrwt>
</event>
<event>
 4    1  0.7144937E-008  0.2591916E+04  0.7816531E-02  0.8370952E-01
          2   -1    0    0  501    0  0.00000000000E+00  0.00000000000E+00  0.23124328158E+04  0.23124328158E+04  0.00000000000E+00 0.  1.
         -2   -1    0    0    0  501 -0.00000000000E+00 -0.00000000000E+00 -0.72629458658E+03  0.72629458658E+03  0.00000000000E+00 0. -1.
    2000013    1    1    2    0    0 -0.65043940072E+02 -0.88887970759E+03  0.21256663521E+03  0.12163562073E+04  0.80000000000E+03 0.  0.
   -2000013    1    1    2    0    0  0.65043940072E+02  0.88887970759E+03  0.13735715940E+04  0.18223711951E+04  0.80000000000E+03 0.  0.
<mgrwt>
<rscale>  0 0.25919162E+04</rscale>
<asrwt>0</asrwt>
<pdfrwt beam="1">  1        2 0.35575889E+00 0.25919162E+04</pdfrwt>
<pdfrwt beam="2">  1       -2 0.11173763E+00 0.25919162E+04</pdfrwt>
<totfact> 0.24968027E+00</totfact>
</mgrwt>
</event>
<event>
 4    1  0.7144937E-008  0.1939978E+04  0.7816531E-02  0.8635209E-01
          2   -1    0    0  501    0  0.00000000000E+00  0.00000000000E+00  0.13695357283E+04  0.13695357283E+04  0.00000000000E+00 0.  1.
         -2   -1    0    0    0  501 -0.00000000000E+00 -0.00000000000E+00 -0.68700580446E+03  0.68700580446E+03  0.00000000000E+00 0. -1.
    2000013    1    1    2    0    0 -0.42489981603E+03  0.78878122032E+02 -0.16845084019E+02  0.90942034761E+03  0.80000000000E+03 0.  0.
   -2000013    1    1    2    0    0  0.42489981603E+03 -0.78878122032E+02  0.69937500786E+03  0.11471211851E+04  0.80000000000E+03 0.  0.
<mgrwt>
<rscale>  0 0.19399783E+04</rscale>
<asrwt>0</asrwt>
<pdfrwt beam="1">  1        2 0.21069780E+00 0.19399783E+04</pdfrwt>
<pdfrwt beam="2">  1       -2 0.10569320E+00 0.19399783E+04</pdfrwt>
<totfact> 0.10178189E+01</totfact>
</mgrwt>
</event>
<event>
 4    1  0.7144937E-008  0.2172262E+04  0.7816531E-02  0.8530063E-01
         -2   -1    0    0    0  501 -0.00000000000E+00  0.00000000000E+00  0.45814008278E+03  0.45814008278E+03  0.00000000000E+00 0. -1.
          2   -1    0    0  501    0  0.00000000000E+00 -0.00000000000E+00 -0.25749337127E+04  0.25749337127E+04  0.00000000000E+00 0.  1.
    2000013    1    1    2    0    0  0.11627950326E+03 -0.64640436528E+03 -0.59885315899E+03  0.11958196488E+04  0.80000000000E+03 0.  0.
   -2000013    1    1    2    0    0 -0.11627950326E+03  0.64640436528E+03 -0.15179404709E+04  0.18372541467E+04  0.80000000000E+03 0.  0.
<mgrwt>
<rscale>  0 0.21722618E+04</rscale>
<asrwt>0</asrwt>
<pdfrwt beam="2">  1        2 0.39614364E+00 0.21722618E+04</pdfrwt>
<pdfrwt beam="1">  1       -2 0.70483090E-01 0.21722618E+04</pdfrwt>
<totfact> 0.52824716E+00</totfact>
</mgrwt>
</event>
<event>
 4    1  0.7144937E-008  0.2880369E+04  0.7816531E-02  0.8278742E-01
         -2   -1    0    0    0  501 -0.00000000000E+00  0.00000000000E+00  0.16560889917E+04  0.16560889917E+04  0.00000000000E+00 0. -1.
          2   -1    0    0  501    0  0.00000000000E+00 -0.00000000000E+00 -0.12524275658E+04  0.12524275658E+04  0.00000000000E+00 0.  1.
    2000013    1    1    2    0    0  0.84603884103E+03  0.82642773364E+03  0.11931825094E+02  0.14279029687E+04  0.80000000000E+03 0.  0.
   -2000013    1    1    2    0    0 -0.84603884103E+03 -0.82642773364E+03  0.39172960077E+03  0.14806135889E+04  0.80000000000E+03 0.  0.
<mgrwt>
<rscale>  0 0.28803691E+04</rscale>
<asrwt>0</asrwt>
<pdfrwt beam="2">  1        2 0.19268116E+00 0.28803691E+04</pdfrwt>
<pdfrwt beam="1">  1       -2 0.25478292E+00 0.28803691E+04</pdfrwt>
<totfact> 0.91522755E-01</totfact>
</mgrwt>
</event>
<event>
 4    1  0.7144937E-008  0.2740939E+04  0.7816531E-02  0.8321843E-01
          2   -1    0    0  501    0  0.00000000000E+00  0.00000000000E+00  0.27702769237E+04  0.27702769237E+04  0.00000000000E+00 0. -1.
         -2   -1    0    0    0  501 -0.00000000000E+00 -0.00000000000E+00 -0.67797775325E+03  0.67797775325E+03  0.00000000000E+00 0.  1.
    2000013    1    1    2    0    0 -0.62354795329E+02  0.81155468742E+03  0.91619851848E+02  0.11449468671E+04  0.80000000000E+03 0.  0.
   -2000013    1    1    2    0    0  0.62354795329E+02 -0.81155468742E+03  0.20006793186E+04  0.23033078099E+04  0.80000000000E+03 0.  0.
<mgrwt>
<rscale>  0 0.27409386E+04</rscale>
<asrwt>0</asrwt>
<pdfrwt beam="1">  1        2 0.42619644E+00 0.27409386E+04</pdfrwt>
<pdfrwt beam="2">  1       -2 0.10430427E+00 0.27409386E+04</pdfrwt>
<totfact> 0.15734001E+00</totfact>
</mgrwt>
</event>
<event>
 4    1  0.7144937E-008  0.1881679E+04  0.7816531E-02  0.8664030E-01
          1   -1    0    0  501    0  0.00000000000E+00  0.00000000000E+00  0.86068544323E+03  0.86068544323E+03  0.00000000000E+00 0.  1.
         -1   -1    0    0    0  501 -0.00000000000E+00 -0.00000000000E+00 -0.10284584102E+04  0.10284584102E+04  0.00000000000E+00 0. -1.
    2000013    1    1    2    0    0 -0.26769201992E+03  0.41115742267E+03 -0.16765159609E+02  0.93861094939E+03  0.80000000000E+03 0.  0.
   -2000013    1    1    2    0    0  0.26769201992E+03 -0.41115742267E+03 -0.15100780733E+03  0.95053290402E+03  0.80000000000E+03 0.  0.
<mgrwt>
<rscale>  0 0.18816792E+04</rscale>
<asrwt>0</asrwt>
<pdfrwt beam="1">  1        1 0.13241315E+00 0.18816792E+04</pdfrwt>
<pdfrwt beam="2">  1       -1 0.15822437E+00 0.18816792E+04</pdfrwt>
<totfact> 0.55420432E+00</totfact>
</mgrwt>
</event>
<event>
 4    1  0.7144937E-008  0.1983206E+04  0.7816531E-02  0.8614513E-01
          2   -1    0    0  501    0  0.00000000000E+00  0.00000000000E+00  0.13491099422E+04  0.13491099422E+04  0.00000000000E+00 0.  1.
         -2   -1    0    0    0  501 -0.00000000000E+00 -0.00000000000E+00 -0.72883350046E+03  0.72883350046E+03  0.00000000000E+00 0. -1.
    2000013    1    1    2    0    0 -0.56307671600E+03  0.16085025461E+03  0.29058308611E+03  0.10331344164E+04  0.80000000000E+03 0.  0.
   -2000013    1    1    2    0    0  0.56307671600E+03 -0.16085025461E+03  0.32969335563E+03  0.10448090262E+04  0.80000000000E+03 0.  0.
<mgrwt>
<rscale>  0 0.19832060E+04</rscale>
<asrwt>0</asrwt>
<pdfrwt beam="1">  1        2 0.20755538E+00 0.19832060E+04</pdfrwt>
<pdfrwt beam="2">  1       -2 0.11212823E+00 0.19832060E+04</pdfrwt>
<totfact> 0.90335244E+00</totfact>
</mgrwt>
</event>
<event>
 4    1  0.7144937E-008  0.2309527E+04  0.7816531E-02  0.8474174E-01
         -2   -1    0    0    0  501 -0.00000000000E+00  0.00000000000E+00  0.16395061309E+04  0.16395061309E+04  0.00000000000E+00 0. -1.
          2   -1    0    0  501    0  0.00000000000E+00 -0.00000000000E+00 -0.81334163659E+03  0.81334163659E+03  0.00000000000E+00 0.  1.
    2000013    1    1    2    0    0  0.31379890877E+03  0.29714580586E+03 -0.34292975382E+03  0.97178505913E+03  0.80000000000E+03 0.  0.
   -2000013    1    1    2    0    0 -0.31379890877E+03 -0.29714580586E+03  0.11690942482E+04  0.14810627084E+04  0.80000000000E+03 0.  0.
<mgrwt>
<rscale>  0 0.23095269E+04</rscale>
<asrwt>0</asrwt>
<pdfrwt beam="2">  1        2 0.12512948E+00 0.23095269E+04</pdfrwt>
<pdfrwt beam="1">  1       -2 0.25223171E+00 0.23095269E+04</pdfrwt>
<totfact> 0.19000724E+00</totfact>
</mgrwt>
</event>
<event>
 4    1  0.7144937E-008  0.2697482E+04  0.7816531E-02  0.8335822E-01
          2   -1    0    0  501    0  0.00000000000E+00  0.00000000000E+00  0.12509199039E+04  0.12509199039E+04  0.00000000000E+00 0. -1.
         -2   -1    0    0    0  501 -0.00000000000E+00 -0.00000000000E+00 -0.14542114204E+04  0.14542114204E+04  0.00000000000E+00 0.  1.
    2000013    1    1    2    0    0 -0.23302702665E+03 -0.75728185671E+03  0.64297222069E+03  0.12966073740E+04  0.80000000000E+03 0.  0.
   -2000013    1    1    2    0    0  0.23302702665E+03  0.75728185671E+03 -0.84626373726E+03  0.14085239503E+04  0.80000000000E+03 0.  0.
<mgrwt>
<rscale>  0 0.26974818E+04</rscale>
<asrwt>0</asrwt>
<pdfrwt beam="1">  1        2 0.19244922E+00 0.26974818E+04</pdfrwt>
<pdfrwt beam="2">  1       -2 0.22372483E+00 0.26974818E+04</pdfrwt>
<totfact> 0.14512058E+00</totfact>
</mgrwt>
</event>
<event>
 4    1  0.7144937E-008  0.1797187E+04  0.7816531E-02  0.8707797E-01
         -1   -1    0    0    0  501 -0.00000000000E+00  0.00000000000E+00  0.86366465800E+03  0.86366465800E+03  0.00000000000E+00 0. -1.
          1   -1    0    0  501    0  0.00000000000E+00 -0.00000000000E+00 -0.93493460180E+03  0.93493460180E+03  0.00000000000E+00 0.  1.
    2000013    1    1    2    0    0 -0.59368064797E+02  0.28053298168E+03 -0.32783475562E+03  0.91087811913E+03  0.80000000000E+03 0.  0.
   -2000013    1    1    2    0    0  0.59368064797E+02 -0.28053298168E+03  0.25656481181E+03  0.88772114067E+03  0.80000000000E+03 0.  0.
<mgrwt>
<rscale>  0 0.17971867E+04</rscale>
<asrwt>0</asrwt>
<pdfrwt beam="2">  1        1 0.14383609E+00 0.17971867E+04</pdfrwt>
<pdfrwt beam="1">  1       -1 0.13287149E+00 0.17971867E+04</pdfrwt>
<totfact> 0.77187185E+00</totfact>
</mgrwt>
</event>
<event>
 4    1  0.7144937E-008  0.2692404E+04  0.7816531E-02  0.8337474E-01
         -2   -1    0    0    0  501 -0.00000000000E+00  0.00000000000E+00  0.16932281721E+04  0.16932281721E+04  0.00000000000E+00 0. -1.
          2   -1    0    0  501    0  0.00000000000E+00 -0.00000000000E+00 -0.10702987995E+04  0.10702987995E+04  0.00000000000E+00 0.  1.
    2000013    1    1    2    0    0 -0.57718360406E+03 -0.69242333504E+03  0.92703123220E+03  0.15205189552E+04  0.80000000000E+03 0.  0.
   -2000013    1    1    2    0    0  0.57718360406E+03  0.69242333504E+03 -0.30410185968E+03  0.12430080164E+04  0.80000000000E+03 0.  0.
<mgrwt>
<rscale>  0 0.26924042E+04</rscale>
<asrwt>0</asrwt>
<pdfrwt beam="2">  1        2 0.16466135E+00 0.26924042E+04</pdfrwt>
<pdfrwt beam="1">  1       -2 0.26049664E+00 0.26924042E+04</pdfrwt>
<totfact> 0.11055279E+00</totfact>
</mgrwt>
</event>
<event>
 4    1  0.7144937E-008  0.2208668E+04  0.7816531E-02  0.8514829E-01
         -2   -1    0    0    0  501 -0.00000000000E+00  0.00000000000E+00  0.45679963633E+03  0.45679963633E+03  0.00000000000E+00 0. -1.
          2   -1    0    0  501    0  0.00000000000E+00 -0.00000000000E+00 -0.26697767898E+04  0.26697767898E+04  0.00000000000E+00 0.  1.
    2000013    1    1    2    0    0  0.51340758999E+03 -0.46265645141E+03 -0.15584039989E+04  0.18831519772E+04  0.80000000000E+03 0.  0.
   -2000013    1    1    2    0    0 -0.51340758999E+03  0.46265645141E+03 -0.65457315461E+03  0.12434244489E+04  0.80000000000E+03 0.  0.
<mgrwt>
<rscale>  0 0.22086675E+04</rscale>
<asrwt>0</asrwt>
<pdfrwt beam="2">  1        2 0.41073489E+00 0.22086675E+04</pdfrwt>
<pdfrwt beam="1">  1       -2 0.70276868E-01 0.22086675E+04</pdfrwt>
<totfact> 0.46606137E+00</totfact>
</mgrwt>
</event>
<event>
 4    1  0.7144937E-008  0.2459987E+04  0.7816531E-02  0.8417381E-01
          2   -1    0    0  501    0  0.00000000000E+00  0.00000000000E+00  0.10661216089E+04  0.10661216089E+04  0.00000000000E+00 0.  1.
         -2   -1    0    0    0  501 -0.00000000000E+00 -0.00000000000E+00 -0.14190542532E+04  0.14190542532E+04  0.00000000000E+00 0. -1.
    2000013    1    1    2    0    0 -0.72622253842E+03 -0.58610947067E+03 -0.13173066498E+03  0.12362347896E+04  0.80000000000E+03 0.  0.
   -2000013    1    1    2    0    0  0.72622253842E+03  0.58610947067E+03 -0.22120197934E+03  0.12489410725E+04  0.80000000000E+03 0.  0.
<mgrwt>
<rscale>  0 0.24599873E+04</rscale>
<asrwt>0</asrwt>
<pdfrwt beam="1">  1        2 0.16401871E+00 0.24599873E+04</pdfrwt>
<pdfrwt beam="2">  1       -2 0.21831604E+00 0.24599873E+04</pdfrwt>
<totfact> 0.20726394E+00</totfact>
</mgrwt>
</event>
<event>
 4    1  0.7144937E-008  0.2314676E+04  0.7816531E-02  0.8472157E-01
         -2   -1    0    0    0  501 -0.00000000000E+00  0.00000000000E+00  0.69838491077E+03  0.69838491077E+03  0.00000000000E+00 0. -1.
          2   -1    0    0  501    0  0.00000000000E+00 -0.00000000000E+00 -0.19178989497E+04  0.19178989497E+04  0.00000000000E+00 0.  1.
    2000013    1    1    2    0    0  0.56611768551E+03  0.91515386355E+02  0.78305940936E+02  0.98741891828E+03  0.80000000000E+03 0.  0.
   -2000013    1    1    2    0    0 -0.56611768551E+03 -0.91515386355E+02 -0.12978199799E+04  0.16288649422E+04  0.80000000000E+03 0.  0.
<mgrwt>
<rscale>  0 0.23146764E+04</rscale>
<asrwt>0</asrwt>
<pdfrwt beam="2">  1        2 0.29506137E+00 0.23146764E+04</pdfrwt>
<pdfrwt beam="1">  1       -2 0.10744383E+00 0.23146764E+04</pdfrwt>
<totfact> 0.46738083E+00</totfact>
</mgrwt>
</event>
<event>
 4    1  0.7144937E-008  0.2016327E+04  0.7816531E-02  0.8599025E-01
          2   -1    0    0  501    0  0.00000000000E+00  0.00000000000E+00  0.17549863351E+04  0.17549863351E+04  0.00000000000E+00 0.  1.
         -2   -1    0    0    0  501 -0.00000000000E+00 -0.00000000000E+00 -0.57914627372E+03  0.57914627372E+03  0.00000000000E+00 0. -1.
    2000013    1    1    2    0    0 -0.39076780317E+03 -0.47179793547E+03  0.54950830569E+03  0.11477160563E+04  0.80000000000E+03 0.  0.
   -2000013    1    1    2    0    0  0.39076780317E+03  0.47179793547E+03  0.62633175574E+03  0.11864165525E+04  0.80000000000E+03 0.  0.
<mgrwt>
<rscale>  0 0.20163272E+04</rscale>
<asrwt>0</asrwt>
<pdfrwt beam="1">  1        2 0.26999790E+00 0.20163272E+04</pdfrwt>
<pdfrwt beam="2">  1       -2 0.89099427E-01 0.20163272E+04</pdfrwt>
<totfact> 0.91723978E+00</totfact>
</mgrwt>
</event>
<event>
 4    1  0.7144937E-008  0.2101736E+04  0.7816531E-02  0.8560479E-01
         -2   -1    0    0    0  501 -0.00000000000E+00  0.00000000000E+00  0.58690371960E+03  0.58690371960E+03  0.00000000000E+00 0. -1.
          2   -1    0    0  501    0  0.00000000000E+00 -0.00000000000E+00 -0.18816088882E+04  0.18816088882E+04  0.00000000000E+00 0.  1.
    2000013    1    1    2    0    0  0.12335152795E+03 -0.65323470459E+03 -0.47159890283E+03  0.11420756122E+04  0.80000000000E+03 0.  0.
   -2000013    1    1    2    0    0 -0.12335152795E+03  0.65323470459E+03 -0.82310626581E+03  0.13264369957E+04  0.80000000000E+03 0.  0.
<mgrwt>
<rscale>  0 0.21017357E+04</rscale>
<asrwt>0</asrwt>
<pdfrwt beam="2">  1        2 0.28947829E+00 0.21017357E+04</pdfrwt>
<pdfrwt beam="1">  1       -2 0.90292879E-01 0.21017357E+04</pdfrwt>
<totfact> 0.75130966E+00</totfact>
</mgrwt>
</event>
<event>
 4    1  0.7144937E-008  0.2144414E+04  0.7816531E-02  0.8541927E-01
         -2   -1    0    0    0  501 -0.00000000000E+00  0.00000000000E+00  0.61728063914E+03  0.61728063914E+03  0.00000000000E+00 0. -1.
          2   -1    0    0  501    0  0.00000000000E+00 -0.00000000000E+00 -0.18624072879E+04  0.18624072879E+04  0.00000000000E+00 0.  1.
    2000013    1    1    2    0    0 -0.15150262170E+03  0.51076156737E+03 -0.11720383702E+04  0.15157520787E+04  0.80000000000E+03 0.  0.
   -2000013    1    1    2    0    0  0.15150262170E+03 -0.51076156737E+03 -0.73088278561E+02  0.96393584825E+03  0.80000000000E+03 0.  0.
<mgrwt>
<rscale>  0 0.21444141E+04</rscale>
<asrwt>0</asrwt>
<pdfrwt beam="2">  1        2 0.28652419E+00 0.21444141E+04</pdfrwt>
<pdfrwt beam="1">  1       -2 0.94966254E-01 0.21444141E+04</pdfrwt>
<totfact> 0.68236557E+00</totfact>
</mgrwt>
</event>
<event>
 4    1  0.7144937E-008  0.2141462E+04  0.7816531E-02  0.8543196E-01
         -2   -1    0    0    0  501 -0.00000000000E+00  0.00000000000E+00  0.88734441740E+03  0.88734441740E+03  0.00000000000E+00 0. -1.
          2   -1    0    0  501    0  0.00000000000E+00 -0.00000000000E+00 -0.12920174630E+04  0.12920174630E+04  0.00000000000E+00 0.  1.
    2000013    1    1    2    0    0 -0.13292443810E+03 -0.21924076529E+03 -0.87796025683E+03  0.12151335861E+04  0.80000000000E+03 0.  0.
   -2000013    1    1    2    0    0  0.13292443810E+03  0.21924076529E+03  0.47328721118E+03  0.96422829438E+03  0.80000000000E+03 0.  0.
<mgrwt>
<rscale>  0 0.21414616E+04</rscale>
<asrwt>0</asrwt>
<pdfrwt beam="2">  1        2 0.19877192E+00 0.21414616E+04</pdfrwt>
<pdfrwt beam="1">  1       -2 0.13651453E+00 0.21414616E+04</pdfrwt>
<totfact> 0.58849689E+00</totfact>
</mgrwt>
</event>
<event>
 4    1  0.7144937E-008  0.2116165E+04  0.7816531E-02  0.8554156E-01
         -2   -1    0    0    0  501 -0.00000000000E+00  0.00000000000E+00  0.11911674932E+04  0.11911674932E+04  0.00000000000E+00 0. -1.
          2   -1    0    0  501    0  0.00000000000E+00 -0.00000000000E+00 -0.93986644124E+03  0.93986644124E+03  0.00000000000E+00 0.  1.
    2000013    1    1    2    0    0 -0.52766987474E+03  0.42541316928E+03 -0.17214169157E+02  0.10486697235E+04  0.80000000000E+03 0.  0.
   -2000013    1    1    2    0    0  0.52766987474E+03 -0.42541316928E+03  0.26851522115E+03  0.10823642110E+04  0.80000000000E+03 0.  0.
<mgrwt>
<rscale>  0 0.21161648E+04</rscale>
<asrwt>0</asrwt>
<pdfrwt beam="2">  1        2 0.14459484E+00 0.21161648E+04</pdfrwt>
<pdfrwt beam="1">  1       -2 0.18325654E+00 0.21161648E+04</pdfrwt>
<totfact> 0.43685914E+00</totfact>
</mgrwt>
</event>
<event>
 4    1  0.7144937E-008  0.1696512E+04  0.7816531E-02  0.8763356E-01
         -2   -1    0    0    0  501 -0.00000000000E+00  0.00000000000E+00  0.51893042903E+03  0.51893042903E+03  0.00000000000E+00 0. -1.
          2   -1    0    0  501    0  0.00000000000E+00 -0.00000000000E+00 -0.13865796230E+04  0.13865796230E+04  0.00000000000E+00 0.  1.
    2000013    1    1    2    0    0  0.89984782633E+02 -0.26133196207E+03 -0.49683063318E+03  0.98144400429E+03  0.80000000000E+03 0.  0.
   -2000013    1    1    2    0    0 -0.89984782633E+02  0.26133196207E+03 -0.37081856076E+03  0.92406604770E+03  0.80000000000E+03 0.  0.
<mgrwt>
<rscale>  0 0.16965121E+04</rscale>
<asrwt>0</asrwt>
<pdfrwt beam="2">  1        2 0.21331994E+00 0.16965121E+04</pdfrwt>
<pdfrwt beam="1">  1       -2 0.79835451E-01 0.16965121E+04</pdfrwt>
<totfact> 0.19470018E+01</totfact>
</mgrwt>
</event>
<event>
 4    1  0.7144937E-008  0.2480914E+04  0.7816531E-02  0.8409817E-01
         -2   -1    0    0    0  501 -0.00000000000E+00  0.00000000000E+00  0.98648259075E+03  0.98648259075E+03  0.00000000000E+00 0. -1.
          2   -1    0    0  501    0  0.00000000000E+00 -0.00000000000E+00 -0.15598183630E+04  0.15598183630E+04  0.00000000000E+00 0.  1.
    2000013    1    1    2    0    0  0.87918676746E+03 -0.34243062643E+03 -0.38132413889E+03  0.12944636746E+04  0.80000000000E+03 0.  0.
   -2000013    1    1    2    0    0 -0.87918676746E+03  0.34243062643E+03 -0.19201163331E+03  0.12518372791E+04  0.80000000000E+03 0.  0.
<mgrwt>
<rscale>  0 0.24809141E+04</rscale>
<asrwt>0</asrwt>
<pdfrwt beam="2">  1        2 0.23997206E+00 0.24809141E+04</pdfrwt>
<pdfrwt beam="1">  1       -2 0.15176655E+00 0.24809141E+04</pdfrwt>
<totfact> 0.30478707E+00</totfact>
</mgrwt>
</event>
<event>
 4    1  0.7144937E-008  0.2295081E+04  0.7816531E-02  0.8479863E-01
         -2   -1    0    0    0  501 -0.00000000000E+00  0.00000000000E+00  0.54458762236E+03  0.54458762236E+03  0.00000000000E+00 0. -1.
          2   -1    0    0  501    0  0.00000000000E+00 -0.00000000000E+00 -0.24180662986E+04  0.24180662986E+04  0.00000000000E+00 0.  1.
    2000013    1    1    2    0    0  0.19882969673E+03  0.69350397784E+03 -0.14471935929E+04  0.18041203704E+04  0.80000000000E+03 0.  0.
   -2000013    1    1    2    0    0 -0.19882969673E+03 -0.69350397784E+03 -0.42628508343E+03  0.11585335506E+04  0.80000000000E+03 0.  0.
<mgrwt>
<rscale>  0 0.22950808E+04</rscale>
<asrwt>0</asrwt>
<pdfrwt beam="2">  1        2 0.37201020E+00 0.22950808E+04</pdfrwt>
<pdfrwt beam="1">  1       -2 0.83782711E-01 0.22950808E+04</pdfrwt>
<totfact> 0.43832287E+00</totfact>
</mgrwt>
</event>
<event>
 4    1  0.7144937E-008  0.2106682E+04  0.7816531E-02  0.8558306E-01
          2   -1    0    0  501    0  0.00000000000E+00  0.00000000000E+00  0.90919693684E+03  0.90919693684E+03  0.00000000000E+00 0.  1.
         -2   -1    0    0    0  501 -0.00000000000E+00 -0.00000000000E+00 -0.12203376728E+04  0.12203376728E+04  0.00000000000E+00 0. -1.
    2000013    1    1    2    0    0 -0.66687109595E+03  0.12388434848E+03 -0.25390295499E+03  0.10791344221E+04  0.80000000000E+03 0.  0.
   -2000013    1    1    2    0    0  0.66687109595E+03 -0.12388434848E+03 -0.57237780967E+02  0.10504001875E+04  0.80000000000E+03 0.  0.
<mgrwt>
<rscale>  0 0.21066820E+04</rscale>
<asrwt>0</asrwt>
<pdfrwt beam="1">  1        2 0.13987645E+00 0.21066820E+04</pdfrwt>
<pdfrwt beam="2">  1       -2 0.18774426E+00 0.21066820E+04</pdfrwt>
<totfact> 0.42720096E+00</totfact>
</mgrwt>
</event>
<event>
 4    1  0.7144937E-008  0.1912070E+04  0.7816531E-02  0.8648871E-01
         -1   -1    0    0    0  501 -0.00000000000E+00  0.00000000000E+00  0.66571285653E+03  0.66571285653E+03  0.00000000000E+00 0. -1.
          1   -1    0    0  501    0  0.00000000000E+00 -0.00000000000E+00 -0.13729694172E+04  0.13729694172E+04  0.00000000000E+00 0.  1.
    2000013    1    1    2    0    0  0.30300749086E+03 -0.42613851603E+03 -0.32760257219E+03  0.10103123377E+04  0.80000000000E+03 0.  0.
   -2000013    1    1    2    0    0 -0.30300749086E+03  0.42613851603E+03 -0.37965398845E+03  0.10283699360E+04  0.80000000000E+03 0.  0.
<mgrwt>
<rscale>  0 0.19120705E+04</rscale>
<asrwt>0</asrwt>
<pdfrwt beam="2">  1        1 0.21122606E+00 0.19120705E+04</pdfrwt>
<pdfrwt beam="1">  1       -1 0.10241736E+00 0.19120705E+04</pdfrwt>
<totfact> 0.67682172E+00</totfact>
</mgrwt>
</event>
<event>
 4    1  0.7144937E-008  0.2163848E+04  0.7816531E-02  0.8533628E-01
         -2   -1    0    0    0  501 -0.00000000000E+00  0.00000000000E+00  0.76975911676E+03  0.76975911676E+03  0.00000000000E+00 0. -1.
          2   -1    0    0  501    0  0.00000000000E+00 -0.00000000000E+00 -0.15206835583E+04  0.15206835583E+04  0.00000000000E+00 0.  1.
    2000013    1    1    2    0    0 -0.43755942468E+03  0.21480598182E+03 -0.94838603804E+03  0.13330551141E+04  0.80000000000E+03 0.  0.
   -2000013    1    1    2    0    0  0.43755942468E+03 -0.21480598182E+03  0.19746159648E+03  0.95738756104E+03  0.80000000000E+03 0.  0.
<mgrwt>
<rscale>  0 0.21638485E+04</rscale>
<asrwt>0</asrwt>
<pdfrwt beam="2">  1        2 0.23395131E+00 0.21638485E+04</pdfrwt>
<pdfrwt beam="1">  1       -2 0.11842448E+00 0.21638485E+04</pdfrwt>
<totfact> 0.62171252E+00</totfact>
</mgrwt>
</event>
<event>
 4    1  0.7144937E-008  0.2279408E+04  0.7816531E-02  0.8486085E-01
          2   -1    0    0  501    0  0.00000000000E+00  0.00000000000E+00  0.70517893928E+03  0.70517893928E+03  0.00000000000E+00 0.  1.
         -2   -1    0    0    0  501 -0.00000000000E+00 -0.00000000000E+00 -0.18419802023E+04  0.18419802023E+04  0.00000000000E+00 0. -1.
    2000013    1    1    2    0    0 -0.45260834758E+03  0.61168421042E+03 -0.25250420793E+03  0.11325944837E+04  0.80000000000E+03 0.  0.
   -2000013    1    1    2    0    0  0.45260834758E+03 -0.61168421042E+03 -0.88429705514E+03  0.14145646579E+04  0.80000000000E+03 0.  0.
<mgrwt>
<rscale>  0 0.22794084E+04</rscale>
<asrwt>0</asrwt>
<pdfrwt beam="1">  1        2 0.10848907E+00 0.22794084E+04</pdfrwt>
<pdfrwt beam="2">  1       -2 0.28338157E+00 0.22794084E+04</pdfrwt>
<totfact> 0.14806258E+00</totfact>
</mgrwt>
</event>
<event>
 4    1  0.7144937E-008  0.2337798E+04  0.7816531E-02  0.8463165E-01
          2   -1    0    0  501    0  0.00000000000E+00  0.00000000000E+00  0.18633506255E+04  0.18633506255E+04  0.00000000000E+00 0.  1.
         -2   -1    0    0    0  501 -0.00000000000E+00 -0.00000000000E+00 -0.73326259217E+03  0.73326259217E+03  0.00000000000E+00 0. -1.
    2000013    1    1    2    0    0  0.44363730632E+03  0.36142163379E+03 -0.13645072364E+03  0.99300476177E+03  0.80000000000E+03 0.  0.
   -2000013    1    1    2    0    0 -0.44363730632E+03 -0.36142163379E+03  0.12665387570E+04  0.16036084559E+04  0.80000000000E+03 0.  0.
<mgrwt>
<rscale>  0 0.23377984E+04</rscale>
<asrwt>0</asrwt>
<pdfrwt beam="1">  1        2 0.28666933E+00 0.23377984E+04</pdfrwt>
<pdfrwt beam="2">  1       -2 0.11280963E+00 0.23377984E+04</pdfrwt>
<totfact> 0.44447350E+00</totfact>
</mgrwt>
</event>
<event>
 4    1  0.7144937E-008  0.2681424E+04  0.7816531E-02  0.8341057E-01
         -2   -1    0    0    0  501 -0.00000000000E+00  0.00000000000E+00  0.97714025565E+03  0.97714025565E+03  0.00000000000E+00 0. -1.
          2   -1    0    0  501    0  0.00000000000E+00 -0.00000000000E+00 -0.18395605210E+04  0.18395605210E+04  0.00000000000E+00 0.  1.
    2000013    1    1    2    0    0  0.17151723500E+03  0.10429070681E+04 -0.64244017404E+03  0.14730250140E+04  0.80000000000E+03 0.  0.
   -2000013    1    1    2    0    0 -0.17151723500E+03 -0.10429070681E+04 -0.21998009129E+03  0.13436757627E+04  0.80000000000E+03 0.  0.
<mgrwt>
<rscale>  0 0.26814240E+04</rscale>
<asrwt>0</asrwt>
<pdfrwt beam="2">  1        2 0.28300931E+00 0.26814240E+04</pdfrwt>
<pdfrwt beam="1">  1       -2 0.15032927E+00 0.26814240E+04</pdfrwt>
<totfact> 0.21472934E+00</totfact>
</mgrwt>
</event>
<event>
 4    1  0.7144937E-008  0.2471367E+04  0.7816531E-02  0.8413258E-01
         -2   -1    0    0    0  501 -0.00000000000E+00  0.00000000000E+00  0.12196257914E+04  0.12196257914E+04  0.00000000000E+00 0. -1.
          2   -1    0    0  501    0  0.00000000000E+00 -0.00000000000E+00 -0.12519524865E+04  0.12519524865E+04  0.00000000000E+00 0.  1.
    2000013    1    1    2    0    0 -0.60094672619E+03 -0.65249307651E+03 -0.33246458748E+03  0.12399261609E+04  0.80000000000E+03 0.  0.
   -2000013    1    1    2    0    0  0.60094672619E+03  0.65249307651E+03  0.30013789238E+03  0.12316521169E+04  0.80000000000E+03 0.  0.
<mgrwt>
<rscale>  0 0.24713669E+04</rscale>
<asrwt>0</asrwt>
<pdfrwt beam="2">  1        2 0.19260808E+00 0.24713669E+04</pdfrwt>
<pdfrwt beam="1">  1       -2 0.18763474E+00 0.24713669E+04</pdfrwt>
<totfact> 0.25358757E+00</totfact>
</mgrwt>
</event>
<event>
 4    1  0.7144937E-008  0.2668037E+04  0.7816531E-02  0.8345451E-01
         -2   -1    0    0    0  501 -0.00000000000E+00  0.00000000000E+00  0.10759728520E+04  0.10759728520E+04  0.00000000000E+00 0. -1.
          2   -1    0    0  501    0  0.00000000000E+00 -0.00000000000E+00 -0.16539500623E+04  0.16539500623E+04  0.00000000000E+00 0.  1.
    2000013    1    1    2    0    0 -0.80668092273E+03 -0.55347492061E+03 -0.72614185545E+03  0.14575152120E+04  0.80000000000E+03 0.  0.
   -2000013    1    1    2    0    0  0.80668092273E+03  0.55347492061E+03  0.14816464523E+03  0.12724077023E+04  0.80000000000E+03 0.  0.
<mgrwt>
<rscale>  0 0.26680370E+04</rscale>
<asrwt>0</asrwt>
<pdfrwt beam="2">  1        2 0.25445386E+00 0.26680370E+04</pdfrwt>
<pdfrwt beam="1">  1       -2 0.16553428E+00 0.26680370E+04</pdfrwt>
<totfact> 0.21002367E+00</totfact>
</mgrwt>
</event>
<event>
 4    1  0.7144937E-008  0.1990384E+04  0.7816531E-02  0.8611130E-01
         -2   -1    0    0    0  501 -0.00000000000E+00  0.00000000000E+00  0.78959744997E+03  0.78959744997E+03  0.00000000000E+00 0. -1.
          2   -1    0    0  501    0  0.00000000000E+00 -0.00000000000E+00 -0.12543184982E+04  0.12543184982E+04  0.00000000000E+00 0.  1.
    2000013    1    1    2    0    0  0.48964799660E+03  0.29081461320E+03 -0.66529178673E+02  0.98425323542E+03  0.80000000000E+03 0.  0.
   -2000013    1    1    2    0    0 -0.48964799660E+03 -0.29081461320E+03 -0.39819186958E+03  0.10596627128E+04  0.80000000000E+03 0.  0.
<mgrwt>
<rscale>  0 0.19903836E+04</rscale>
<asrwt>0</asrwt>
<pdfrwt beam="2">  1        2 0.19297207E+00 0.19903836E+04</pdfrwt>
<pdfrwt beam="1">  1       -2 0.12147653E+00 0.19903836E+04</pdfrwt>
<totfact> 0.84224766E+00</totfact>
</mgrwt>
</event>
<event>
 4    1  0.7144937E-008  0.1888285E+04  0.7816531E-02  0.8660710E-01
         -2   -1    0    0    0  501 -0.00000000000E+00  0.00000000000E+00  0.52533919927E+03  0.52533919927E+03  0.00000000000E+00 0. -1.
          2   -1    0    0  501    0  0.00000000000E+00 -0.00000000000E+00 -0.16968183316E+04  0.16968183316E+04  0.00000000000E+00 0.  1.
    2000013    1    1    2    0    0 -0.24852923617E+03 -0.17921201603E+03 -0.11867477689E+03  0.86485110313E+03  0.80000000000E+03 0.  0.
   -2000013    1    1    2    0    0  0.24852923617E+03  0.17921201603E+03 -0.10528043554E+04  0.13573064277E+04  0.80000000000E+03 0.  0.
<mgrwt>
<rscale>  0 0.18882851E+04</rscale>
<asrwt>0</asrwt>
<pdfrwt beam="2">  1        2 0.26104898E+00 0.18882851E+04</pdfrwt>
<pdfrwt beam="1">  1       -2 0.80821414E-01 0.18882851E+04</pdfrwt>
<totfact> 0.12468794E+01</totfact>
</mgrwt>
</event>
<event>
 4    1  0.7144937E-008  0.1672887E+04  0.7816531E-02  0.8776981E-01
         -2   -1    0    0    0  501 -0.00000000000E+00  0.00000000000E+00  0.91208821954E+03  0.91208821954E+03  0.00000000000E+00 0. -1.
          2   -1    0    0  501    0  0.00000000000E+00 -0.00000000000E+00 -0.76707268423E+03  0.76707268423E+03  0.00000000000E+00 0.  1.
    2000013    1    1    2    0    0  0.10867962530E+03  0.19617689769E+03 -0.24505207423E+02  0.83120222650E+03  0.80000000000E+03 0.  0.
   -2000013    1    1    2    0    0 -0.10867962530E+03 -0.19617689769E+03  0.16952074274E+03  0.84795867727E+03  0.80000000000E+03 0.  0.
<mgrwt>
<rscale>  0 0.16728873E+04</rscale>
<asrwt>0</asrwt>
<pdfrwt beam="2">  1        2 0.11801118E+00 0.16728873E+04</pdfrwt>
<pdfrwt beam="1">  1       -2 0.14032127E+00 0.16728873E+04</pdfrwt>
<totfact> 0.12392754E+01</totfact>
</mgrwt>
</event>
<event>
 4    1  0.7144937E-008  0.1830379E+04  0.7816531E-02  0.8690309E-01
          2   -1    0    0  501    0  0.00000000000E+00  0.00000000000E+00  0.37766046590E+04  0.37766046590E+04  0.00000000000E+00 0.  1.
         -2   -1    0    0    0  501 -0.00000000000E+00 -0.00000000000E+00 -0.22177903604E+03  0.22177903604E+03  0.00000000000E+00 0. -1.
    2000013    1    1    2    0    0 -0.30383677843E+03 -0.32385887344E+03  0.18194534154E+04  0.20365687046E+04  0.80000000000E+03 0.  0.
   -2000013    1    1    2    0    0  0.30383677843E+03  0.32385887344E+03  0.17353722075E+04  0.19618149904E+04  0.80000000000E+03 0.  0.
<mgrwt>
<rscale>  0 0.18303789E+04</rscale>
<asrwt>0</asrwt>
<pdfrwt beam="1">  1        2 0.58101605E+00 0.18303789E+04</pdfrwt>
<pdfrwt beam="2">  1       -2 0.34119854E-01 0.18303789E+04</pdfrwt>
<totfact> 0.39177961E+00</totfact>
</mgrwt>
</event>
<event>
 4    1  0.7144937E-008  0.1764338E+04  0.7816531E-02  0.8725497E-01
          2   -1    0    0  501    0  0.00000000000E+00  0.00000000000E+00  0.24397338824E+04  0.24397338824E+04  0.00000000000E+00 0.  1.
         -2   -1    0    0    0  501 -0.00000000000E+00 -0.00000000000E+00 -0.31897835886E+03  0.31897835886E+03  0.00000000000E+00 0. -1.
    2000013    1    1    2    0    0 -0.30285928997E+03 -0.14671456750E+03  0.81328309612E+03  0.11894025005E+04  0.80000000000E+03 0.  0.
   -2000013    1    1    2    0    0  0.30285928997E+03  0.14671456750E+03  0.13074724274E+04  0.15693097407E+04  0.80000000000E+03 0.  0.
<mgrwt>
<rscale>  0 0.17643382E+04</rscale>
<asrwt>0</asrwt>
<pdfrwt beam="1">  1        2 0.37534366E+00 0.17643382E+04</pdfrwt>
<pdfrwt beam="2">  1       -2 0.49073595E-01 0.17643382E+04</pdfrwt>
<totfact> 0.14054317E+01</totfact>
</mgrwt>
</event>
<event>
 4    1  0.7144937E-008  0.2192008E+04  0.7816531E-02  0.8521762E-01
          2   -1    0    0  501    0  0.00000000000E+00  0.00000000000E+00  0.17079307126E+04  0.17079307126E+04  0.00000000000E+00 0.  1.
         -2   -1    0    0    0  501 -0.00000000000E+00 -0.00000000000E+00 -0.70332168758E+03  0.70332168758E+03  0.00000000000E+00 0. -1.
    2000013    1    1    2    0    0  0.55176039609E+03  0.33550299873E+03  0.92005568908E+03  0.13796754212E+04  0.80000000000E+03 0.  0.
   -2000013    1    1    2    0    0 -0.55176039609E+03 -0.33550299873E+03  0.84553335897E+02  0.10315769789E+04  0.80000000000E+03 0.  0.
<mgrwt>
<rscale>  0 0.21920079E+04</rscale>
<asrwt>0</asrwt>
<pdfrwt beam="1">  1        2 0.26275857E+00 0.21920079E+04</pdfrwt>
<pdfrwt beam="2">  1       -2 0.10820334E+00 0.21920079E+04</pdfrwt>
<totfact> 0.60713566E+00</totfact>
</mgrwt>
</event>
<event>
 4    1  0.7144937E-008  0.1786854E+04  0.7816531E-02  0.8713322E-01
          2   -1    0    0  501    0  0.00000000000E+00  0.00000000000E+00  0.58871184288E+03  0.58871184288E+03  0.00000000000E+00 0. -1.
         -2   -1    0    0    0  501 -0.00000000000E+00 -0.00000000000E+00 -0.13558615459E+04  0.13558615459E+04  0.00000000000E+00 0.  1.
    2000013    1    1    2    0    0 -0.11235637590E+03 -0.34716054008E+03 -0.21127316519E+03  0.90431230563E+03  0.80000000000E+03 0.  0.
   -2000013    1    1    2    0    0  0.11235637590E+03  0.34716054008E+03 -0.55587653783E+03  0.10402610831E+04  0.80000000000E+03 0.  0.
<mgrwt>
<rscale>  0 0.17868539E+04</rscale>
<asrwt>0</asrwt>
<pdfrwt beam="1">  1        2 0.90571054E-01 0.17868539E+04</pdfrwt>
<pdfrwt beam="2">  1       -2 0.20859408E+00 0.17868539E+04</pdfrwt>
<totfact> 0.56032052E+00</totfact>
</mgrwt>
</event>
<event>
 4    1  0.7144937E-008  0.1906893E+04  0.7816531E-02  0.8651433E-01
         -1   -1    0    0    0  501 -0.00000000000E+00  0.00000000000E+00  0.15052751330E+04  0.15052751330E+04  0.00000000000E+00 0.  1.
          1   -1    0    0  501    0  0.00000000000E+00 -0.00000000000E+00 -0.60391634019E+03  0.60391634019E+03  0.00000000000E+00 0. -1.
    2000013    1    1    2    0    0  0.70995964082E+02 -0.51009552375E+03  0.38229507309E+03  0.10253718317E+04  0.80000000000E+03 0.  0.
   -2000013    1    1    2    0    0 -0.70995964082E+02  0.51009552375E+03  0.51906371977E+03  0.10838196416E+04  0.80000000000E+03 0.  0.
<mgrwt>
<rscale>  0 0.19068930E+04</rscale>
<asrwt>0</asrwt>
<pdfrwt beam="2">  1        1 0.92910207E-01 0.19068930E+04</pdfrwt>
<pdfrwt beam="1">  1       -1 0.23158079E+00 0.19068930E+04</pdfrwt>
<totfact> 0.29227542E+00</totfact>
</mgrwt>
</event>
<event>
 4    1  0.7144937E-008  0.2354672E+04  0.7816531E-02  0.8456671E-01
          2   -1    0    0  501    0  0.00000000000E+00  0.00000000000E+00  0.11973285285E+04  0.11973285285E+04  0.00000000000E+00 0.  1.
         -2   -1    0    0    0  501 -0.00000000000E+00 -0.00000000000E+00 -0.11576777342E+04  0.11576777342E+04  0.00000000000E+00 0. -1.
    2000013    1    1    2    0    0  0.77806877522E+03 -0.21052829499E+03  0.33036481998E+03  0.11827316248E+04  0.80000000000E+03 0.  0.
   -2000013    1    1    2    0    0 -0.77806877522E+03  0.21052829499E+03 -0.29071402574E+03  0.11722746379E+04  0.80000000000E+03 0.  0.
<mgrwt>
<rscale>  0 0.23546724E+04</rscale>
<asrwt>0</asrwt>
<pdfrwt beam="1">  1        2 0.18420439E+00 0.23546724E+04</pdfrwt>
<pdfrwt beam="2">  1       -2 0.17810427E+00 0.23546724E+04</pdfrwt>
<totfact> 0.32069765E+00</totfact>
</mgrwt>
</event>
<event>
 4    1  0.7144937E-008  0.2260350E+04  0.7816531E-02  0.8493721E-01
         -1   -1    0    0    0  501 -0.00000000000E+00  0.00000000000E+00  0.79361728256E+03  0.79361728256E+03  0.00000000000E+00 0. -1.
          1   -1    0    0  501    0  0.00000000000E+00 -0.00000000000E+00 -0.16094605600E+04  0.16094605600E+04  0.00000000000E+00 0.  1.
    2000013    1    1    2    0    0 -0.76649355019E+03 -0.14703189206E+02 -0.17122658816E+03  0.11211811142E+04  0.80000000000E+03 0.  0.
   -2000013    1    1    2    0    0  0.76649355019E+03  0.14703189206E+02 -0.64461668933E+03  0.12818967285E+04  0.80000000000E+03 0.  0.
<mgrwt>
<rscale>  0 0.22603502E+04</rscale>
<asrwt>0</asrwt>
<pdfrwt beam="2">  1        1 0.24760931E+00 0.22603502E+04</pdfrwt>
<pdfrwt beam="1">  1       -1 0.12209497E+00 0.22603502E+04</pdfrwt>
<totfact> 0.29577721E+00</totfact>
</mgrwt>
</event>
<event>
 4    1  0.7144937E-008  0.2604390E+04  0.7816531E-02  0.8366711E-01
          2   -1    0    0  501    0  0.00000000000E+00  0.00000000000E+00  0.10887807964E+04  0.10887807964E+04  0.00000000000E+00 0.  1.
         -2   -1    0    0    0  501 -0.00000000000E+00 -0.00000000000E+00 -0.15574413995E+04  0.15574413995E+04  0.00000000000E+00 0. -1.
    2000013    1    1    2    0    0 -0.10189481633E+04 -0.27074498292E+02 -0.36572837540E+03  0.13463824244E+04  0.80000000000E+03 0.  0.
   -2000013    1    1    2    0    0  0.10189481633E+04  0.27074498292E+02 -0.10293222774E+03  0.12998397715E+04  0.80000000000E+03 0.  0.
<mgrwt>
<rscale>  0 0.26043904E+04</rscale>
<asrwt>0</asrwt>
<pdfrwt beam="1">  1        2 0.16750474E+00 0.26043904E+04</pdfrwt>
<pdfrwt beam="2">  1       -2 0.23960637E+00 0.26043904E+04</pdfrwt>
<totfact> 0.14580632E+00</totfact>
</mgrwt>
</event>
<event>
 4    1  0.7144937E-008  0.1926159E+04  0.7816531E-02  0.8641944E-01
          2   -1    0    0  501    0  0.00000000000E+00  0.00000000000E+00  0.10549718189E+04  0.10549718189E+04  0.00000000000E+00 0.  1.
         -2   -1    0    0    0  501 -0.00000000000E+00 -0.00000000000E+00 -0.87919136331E+03  0.87919136331E+03  0.00000000000E+00 0. -1.
    2000013    1    1    2    0    0  0.43237412863E+03  0.82423995267E+02 -0.21961919806E+03  0.93913454534E+03  0.80000000000E+03 0.  0.
   -2000013    1    1    2    0    0 -0.43237412863E+03 -0.82423995267E+02  0.39539965365E+03  0.99502863688E+03  0.80000000000E+03 0.  0.
<mgrwt>
<rscale>  0 0.19261590E+04</rscale>
<asrwt>0</asrwt>
<pdfrwt beam="1">  1        2 0.16230336E+00 0.19261590E+04</pdfrwt>
<pdfrwt beam="2">  1       -2 0.13526021E+00 0.19261590E+04</pdfrwt>
<totfact> 0.85271238E+00</totfact>
</mgrwt>
</event>
<event>
 4    1  0.7144937E-008  0.2848816E+04  0.7816531E-02  0.8288271E-01
         -1   -1    0    0    0  501 -0.00000000000E+00  0.00000000000E+00  0.14483487328E+04  0.14483487328E+04  0.00000000000E+00 0.  1.
          1   -1    0    0  501    0  0.00000000000E+00 -0.00000000000E+00 -0.14008634817E+04  0.14008634817E+04  0.00000000000E+00 0. -1.
    2000013    1    1    2    0    0 -0.62539306861E+03 -0.44883548578E+03  0.91626171493E+03  0.14394809182E+04  0.80000000000E+03 0.  0.
   -2000013    1    1    2    0    0  0.62539306861E+03  0.44883548578E+03 -0.86877646381E+03  0.14097312963E+04  0.80000000000E+03 0.  0.
<mgrwt>
<rscale>  0 0.28488165E+04</rscale>
<asrwt>0</asrwt>
<pdfrwt beam="2">  1        1 0.21551746E+00 0.28488165E+04</pdfrwt>
<pdfrwt beam="1">  1       -1 0.22282288E+00 0.28488165E+04</pdfrwt>
<totfact> 0.69693656E-01</totfact>
</mgrwt>
</event>
<event>
 4    1  0.7144937E-008  0.1758180E+04  0.7816531E-02  0.8728860E-01
          2   -1    0    0  501    0  0.00000000000E+00  0.00000000000E+00  0.68850945748E+03  0.68850945748E+03  0.00000000000E+00 0.  1.
         -2   -1    0    0    0  501 -0.00000000000E+00 -0.00000000000E+00 -0.11224236850E+04  0.11224236850E+04  0.00000000000E+00 0. -1.
    2000013    1    1    2    0    0  0.76018691893E+02  0.34220259096E+03 -0.31953369234E+03  0.93004474909E+03  0.80000000000E+03 0.  0.
   -2000013    1    1    2    0    0 -0.76018691893E+02 -0.34220259096E+03 -0.11438053517E+03  0.88088839339E+03  0.80000000000E+03 0.  0.
<mgrwt>
<rscale>  0 0.17581801E+04</rscale>
<asrwt>0</asrwt>
<pdfrwt beam="1">  1        2 0.10592453E+00 0.17581801E+04</pdfrwt>
<pdfrwt beam="2">  1       -2 0.17268057E+00 0.17581801E+04</pdfrwt>
<totfact> 0.80793074E+00</totfact>
</mgrwt>
</event>
<event>
 4    1  0.7144937E-008  0.2881923E+04  0.7816531E-02  0.8278276E-01
          2   -1    0    0  501    0  0.00000000000E+00  0.00000000000E+00  0.35918236571E+04  0.35918236571E+04  0.00000000000E+00 0.  1.
         -2   -1    0    0    0  501 -0.00000000000E+00 -0.00000000000E+00 -0.57808257928E+03  0.57808257928E+03  0.00000000000E+00 0. -1.
    2000013    1    1    2    0    0 -0.76071445804E+03  0.85017263101E+03  0.20382868075E+04  0.24690267514E+04  0.80000000000E+03 0.  0.
   -2000013    1    1    2    0    0  0.76071445804E+03 -0.85017263101E+03  0.97545427032E+03  0.17008794851E+04  0.80000000000E+03 0.  0.
<mgrwt>
<rscale>  0 0.28819234E+04</rscale>
<asrwt>0</asrwt>
<pdfrwt beam="1">  1        2 0.55258824E+00 0.28819234E+04</pdfrwt>
<pdfrwt beam="2">  1       -2 0.88935783E-01 0.28819234E+04</pdfrwt>
<totfact> 0.65675854E-01</totfact>
</mgrwt>
</event>
<event>
 4    1  0.7144937E-008  0.2268001E+04  0.7816531E-02  0.8490646E-01
          1   -1    0    0  501    0  0.00000000000E+00  0.00000000000E+00  0.84289866293E+03  0.84289866293E+03  0.00000000000E+00 0.  1.
         -1   -1    0    0    0  501 -0.00000000000E+00 -0.00000000000E+00 -0.15256363132E+04  0.15256363132E+04  0.00000000000E+00 0. -1.
    2000013    1    1    2    0    0 -0.40503399534E+03 -0.27189315172E+03  0.32567626663E+03  0.99198964409E+03  0.80000000000E+03 0.  0.
   -2000013    1    1    2    0    0  0.40503399534E+03  0.27189315172E+03 -0.10084139169E+04  0.13765453320E+04  0.80000000000E+03 0.  0.
<mgrwt>
<rscale>  0 0.22680007E+04</rscale>
<asrwt>0</asrwt>
<pdfrwt beam="1">  1        1 0.12967672E+00 0.22680007E+04</pdfrwt>
<pdfrwt beam="2">  1       -1 0.23471328E+00 0.22680007E+04</pdfrwt>
<totfact> 0.16167792E+00</totfact>
</mgrwt>
</event>
<event>
 4    1  0.7144937E-008  0.2450060E+04  0.7816531E-02  0.8420996E-01
          2   -1    0    0  501    0  0.00000000000E+00  0.00000000000E+00  0.34693049566E+04  0.34693049566E+04  0.00000000000E+00 0.  1.
         -2   -1    0    0    0  501 -0.00000000000E+00 -0.00000000000E+00 -0.43256468554E+03  0.43256468554E+03  0.00000000000E+00 0. -1.
    2000013    1    1    2    0    0  0.56642462408E+03  0.37693814124E+03  0.51394576921E+03  0.11692131845E+04  0.80000000000E+03 0.  0.
   -2000013    1    1    2    0    0 -0.56642462408E+03 -0.37693814124E+03  0.25227945019E+04  0.27326564577E+04  0.80000000000E+03 0.  0.
<mgrwt>
<rscale>  0 0.24500603E+04</rscale>
<asrwt>0</asrwt>
<pdfrwt beam="1">  1        2 0.53373921E+00 0.24500603E+04</pdfrwt>
<pdfrwt beam="2">  1       -2 0.66548415E-01 0.24500603E+04</pdfrwt>
<totfact> 0.15895309E+00</totfact>
</mgrwt>
</event>
<event>
 4    1  0.7144937E-008  0.2810294E+04  0.7816531E-02  0.8300080E-01
          2   -1    0    0  501    0  0.00000000000E+00  0.00000000000E+00  0.20375103153E+04  0.20375103153E+04  0.00000000000E+00 0.  1.
         -2   -1    0    0    0  501 -0.00000000000E+00 -0.00000000000E+00 -0.96904432239E+03  0.96904432239E+03  0.00000000000E+00 0. -1.
    2000013    1    1    2    0    0 -0.28470354489E+02  0.11541305747E+04  0.49130790660E+03  0.14880226489E+04  0.80000000000E+03 0.  0.
   -2000013    1    1    2    0    0  0.28470354489E+02 -0.11541305747E+04  0.57715808633E+03  0.15185319888E+04  0.80000000000E+03 0.  0.
<mgrwt>
<rscale>  0 0.28102938E+04</rscale>
<asrwt>0</asrwt>
<pdfrwt beam="1">  1        2 0.31346312E+00 0.28102938E+04</pdfrwt>
<pdfrwt beam="2">  1       -2 0.14908374E+00 0.28102938E+04</pdfrwt>
<totfact> 0.16859272E+00</totfact>
</mgrwt>
</event>
<event>
 4    1  0.7144937E-008  0.2339185E+04  0.7816531E-02  0.8462629E-01
          2   -1    0    0  501    0  0.00000000000E+00  0.00000000000E+00  0.16936249151E+04  0.16936249151E+04  0.00000000000E+00 0.  1.
         -2   -1    0    0    0  501 -0.00000000000E+00 -0.00000000000E+00 -0.80770341863E+03  0.80770341863E+03  0.00000000000E+00 0. -1.
    2000013    1    1    2    0    0  0.46765703406E+03 -0.18225278009E+03 -0.29481118719E+03  0.98935979980E+03  0.80000000000E+03 0.  0.
   -2000013    1    1    2    0    0 -0.46765703406E+03  0.18225278009E+03  0.11807326837E+04  0.15119685339E+04  0.80000000000E+03 0.  0.
<mgrwt>
<rscale>  0 0.23391850E+04</rscale>
<asrwt>0</asrwt>
<pdfrwt beam="1">  1        2 0.26055768E+00 0.23391850E+04</pdfrwt>
<pdfrwt beam="2">  1       -2 0.12426206E+00 0.23391850E+04</pdfrwt>
<totfact> 0.43490661E+00</totfact>
</mgrwt>
</event>
<event>
 4    1  0.7144937E-008  0.1658863E+04  0.7816531E-02  0.8785181E-01
          2   -1    0    0  501    0  0.00000000000E+00  0.00000000000E+00  0.98193525103E+03  0.98193525103E+03  0.00000000000E+00 0.  1.
         -2   -1    0    0    0  501 -0.00000000000E+00 -0.00000000000E+00 -0.70061288167E+03  0.70061288167E+03  0.00000000000E+00 0. -1.
    2000013    1    1    2    0    0 -0.51837871455E+02 -0.16654766224E+03  0.27495709987E+03  0.86372836904E+03  0.80000000000E+03 0.  0.
   -2000013    1    1    2    0    0  0.51837871455E+02  0.16654766224E+03  0.63652694921E+01  0.81881976367E+03  0.80000000000E+03 0.  0.
<mgrwt>
<rscale>  0 0.16588628E+04</rscale>
<asrwt>0</asrwt>
<pdfrwt beam="1">  1        2 0.15106696E+00 0.16588628E+04</pdfrwt>
<pdfrwt beam="2">  1       -2 0.10778660E+00 0.16588628E+04</pdfrwt>
<totfact> 0.17048946E+01</totfact>
</mgrwt>
</event>
<event>
 4    1  0.7144937E-008  0.1841206E+04  0.7816531E-02  0.8684688E-01
         -2   -1    0    0    0  501 -0.00000000000E+00  0.00000000000E+00  0.76947743167E+03  0.76947743167E+03  0.00000000000E+00 0. -1.
          2   -1    0    0  501    0  0.00000000000E+00 -0.00000000000E+00 -0.11014096426E+04  0.11014096426E+04  0.00000000000E+00 0.  1.
    2000013    1    1    2    0    0  0.31363966796E+03 -0.48729962531E+02 -0.49798323404E+03  0.99434991424E+03  0.80000000000E+03 0.  0.
   -2000013    1    1    2    0    0 -0.31363966796E+03  0.48729962531E+02  0.16605102314E+03  0.87653715999E+03  0.80000000000E+03 0.  0.
<mgrwt>
<rscale>  0 0.18412060E+04</rscale>
<asrwt>0</asrwt>
<pdfrwt beam="2">  1        2 0.16944764E+00 0.18412060E+04</pdfrwt>
<pdfrwt beam="1">  1       -2 0.11838114E+00 0.18412060E+04</pdfrwt>
<totfact> 0.11237923E+01</totfact>
</mgrwt>
</event>
<event>
 4    1  0.7144937E-008  0.2174360E+04  0.7816531E-02  0.8529176E-01
          2   -1    0    0  501    0  0.00000000000E+00  0.00000000000E+00  0.65452424001E+03  0.65452424001E+03  0.00000000000E+00 0.  1.
         -2   -1    0    0    0  501 -0.00000000000E+00 -0.00000000000E+00 -0.18058316454E+04  0.18058316454E+04  0.00000000000E+00 0. -1.
    2000013    1    1    2    0    0  0.65581472810E+03 -0.32431170133E+03 -0.66820123166E+03  0.12734849521E+04  0.80000000000E+03 0.  0.
   -2000013    1    1    2    0    0 -0.65581472810E+03  0.32431170133E+03 -0.48310617371E+03  0.11868709333E+04  0.80000000000E+03 0.  0.
<mgrwt>
<rscale>  0 0.21743602E+04</rscale>
<asrwt>0</asrwt>
<pdfrwt beam="1">  1        2 0.10069604E+00 0.21743602E+04</pdfrwt>
<pdfrwt beam="2">  1       -2 0.27782025E+00 0.21743602E+04</pdfrwt>
<totfact> 0.17733045E+00</totfact>
</mgrwt>
</event>
<event>
 4    1  0.7144937E-008  0.1746725E+04  0.7816531E-02  0.8735155E-01
          1   -1    0    0  501    0  0.00000000000E+00  0.00000000000E+00  0.24236673877E+04  0.24236673877E+04  0.00000000000E+00 0.  1.
         -1   -1    0    0    0  501 -0.00000000000E+00 -0.00000000000E+00 -0.31471413384E+03  0.31471413384E+03  0.00000000000E+00 0. -1.
    2000013    1    1    2    0    0  0.17066831747E+03  0.20350119472E+03  0.69621857543E+03  0.10932797975E+04  0.80000000000E+03 0.  0.
   -2000013    1    1    2    0    0 -0.17066831747E+03 -0.20350119472E+03  0.14127346784E+04  0.16451017241E+04  0.80000000000E+03 0.  0.
<mgrwt>
<rscale>  0 0.17467254E+04</rscale>
<asrwt>0</asrwt>
<pdfrwt beam="1">  1        1 0.37287189E+00 0.17467254E+04</pdfrwt>
<pdfrwt beam="2">  1       -1 0.48417561E-01 0.17467254E+04</pdfrwt>
<totfact> 0.61951484E+00</totfact>
</mgrwt>
</event>
<event>
 4    1  0.7144937E-008  0.2300863E+04  0.7816531E-02  0.8477581E-01
          2   -1    0    0  501    0  0.00000000000E+00  0.00000000000E+00  0.13658188134E+04  0.13658188134E+04  0.00000000000E+00 0.  1.
         -2   -1    0    0    0  501 -0.00000000000E+00 -0.00000000000E+00 -0.96901033037E+03  0.96901033037E+03  0.00000000000E+00 0. -1.
    2000013    1    1    2    0    0  0.69263738885E+03  0.29812637073E+03  0.54232734165E+03  0.12258649317E+04  0.80000000000E+03 0.  0.
   -2000013    1    1    2    0    0 -0.69263738885E+03 -0.29812637073E+03 -0.14551885861E+03  0.11089642120E+04  0.80000000000E+03 0.  0.
<mgrwt>
<rscale>  0 0.23008629E+04</rscale>
<asrwt>0</asrwt>
<pdfrwt beam="1">  1        2 0.21012597E+00 0.23008629E+04</pdfrwt>
<pdfrwt beam="2">  1       -2 0.14907851E+00 0.23008629E+04</pdfrwt>
<totfact> 0.41807451E+00</totfact>
</mgrwt>
</event>
<event>
 4    1  0.7144937E-008  0.2487551E+04  0.7816531E-02  0.8407434E-01
         -2   -1    0    0    0  501 -0.00000000000E+00  0.00000000000E+00  0.10603259585E+04  0.10603259585E+04  0.00000000000E+00 0. -1.
          2   -1    0    0  501    0  0.00000000000E+00 -0.00000000000E+00 -0.14589637853E+04  0.14589637853E+04  0.00000000000E+00 0.  1.
    2000013    1    1    2    0    0  0.86321075809E+03  0.39494682601E+03 -0.12178252202E+03  0.12473759621E+04  0.80000000000E+03 0.  0.
   -2000013    1    1    2    0    0 -0.86321075809E+03 -0.39494682601E+03 -0.27685530477E+03  0.12719137817E+04  0.80000000000E+03 0.  0.
<mgrwt>
<rscale>  0 0.24875507E+04</rscale>
<asrwt>0</asrwt>
<pdfrwt beam="2">  1        2 0.22445597E+00 0.24875507E+04</pdfrwt>
<pdfrwt beam="1">  1       -2 0.16312707E+00 0.24875507E+04</pdfrwt>
<totfact> 0.28568291E+00</totfact>
</mgrwt>
</event>
<event>
 4    1  0.7144937E-008  0.2341971E+04  0.7816531E-02  0.8461554E-01
          2   -1    0    0  501    0  0.00000000000E+00  0.00000000000E+00  0.14709637514E+04  0.14709637514E+04  0.00000000000E+00 0.  1.
         -2   -1    0    0    0  501 -0.00000000000E+00 -0.00000000000E+00 -0.93218242873E+03  0.93218242873E+03  0.00000000000E+00 0. -1.
    2000013    1    1    2    0    0  0.48321825188E+03 -0.50835688990E+01  0.99328338778E+03  0.13638686191E+04  0.80000000000E+03 0.  0.
   -2000013    1    1    2    0    0 -0.48321825188E+03  0.50835688990E+01 -0.45450206516E+03  0.10392775610E+04  0.80000000000E+03 0.  0.
<mgrwt>
<rscale>  0 0.23419706E+04</rscale>
<asrwt>0</asrwt>
<pdfrwt beam="1">  1        2 0.22630212E+00 0.23419706E+04</pdfrwt>
<pdfrwt beam="2">  1       -2 0.14341268E+00 0.23419706E+04</pdfrwt>
<totfact> 0.40181913E+00</totfact>
</mgrwt>
</event>
<event>
 4    1  0.7144937E-008  0.1793649E+04  0.7816531E-02  0.8709684E-01
          2   -1    0    0  501    0  0.00000000000E+00  0.00000000000E+00  0.78616921876E+03  0.78616921876E+03  0.00000000000E+00 0.  1.
         -2   -1    0    0    0  501 -0.00000000000E+00 -0.00000000000E+00 -0.10230545330E+04  0.10230545330E+04  0.00000000000E+00 0. -1.
    2000013    1    1    2    0    0  0.14245085739E+03 -0.24280728490E+03 -0.41260206095E+03  0.94312675981E+03  0.80000000000E+03 0.  0.
   -2000013    1    1    2    0    0 -0.14245085739E+03  0.24280728490E+03  0.17571674672E+03  0.86609699194E+03  0.80000000000E+03 0.  0.
<mgrwt>
<rscale>  0 0.17936488E+04</rscale>
<asrwt>0</asrwt>
<pdfrwt beam="1">  1        2 0.12094911E+00 0.17936488E+04</pdfrwt>
<pdfrwt beam="2">  1       -2 0.15739300E+00 0.17936488E+04</pdfrwt>
<totfact> 0.87665355E+00</totfact>
</mgrwt>
</event>
<event>
 4    1  0.7144937E-008  0.2271110E+04  0.7816531E-02  0.8489400E-01
         -1   -1    0    0    0  501 -0.00000000000E+00  0.00000000000E+00  0.90721840994E+03  0.90721840994E+03  0.00000000000E+00 0. -1.
          1   -1    0    0  501    0  0.00000000000E+00 -0.00000000000E+00 -0.14213616771E+04  0.14213616771E+04  0.00000000000E+00 0.  1.
    2000013    1    1    2    0    0 -0.76609295496E+03  0.21171731827E+03 -0.12042177581E+03  0.11341181784E+04  0.80000000000E+03 0.  0.
   -2000013    1    1    2    0    0  0.76609295496E+03 -0.21171731827E+03 -0.39372149138E+03  0.11944619087E+04  0.80000000000E+03 0.  0.
<mgrwt>
<rscale>  0 0.22711103E+04</rscale>
<asrwt>0</asrwt>
<pdfrwt beam="2">  1        1 0.21867103E+00 0.22711103E+04</pdfrwt>
<pdfrwt beam="1">  1       -1 0.13957206E+00 0.22711103E+04</pdfrwt>
<totfact> 0.28418438E+00</totfact>
</mgrwt>
</event>
<event>
 4    1  0.7144937E-008  0.2111847E+04  0.7816531E-02  0.8556043E-01
         -2   -1    0    0    0  501 -0.00000000000E+00  0.00000000000E+00  0.87066259605E+03  0.87066259605E+03  0.00000000000E+00 0.  1.
          2   -1    0    0  501    0  0.00000000000E+00 -0.00000000000E+00 -0.12806042382E+04  0.12806042382E+04  0.00000000000E+00 0. -1.
    2000013    1    1    2    0    0 -0.13982433339E+03 -0.61928369766E+03  0.68197129751E+02  0.10235790106E+04  0.80000000000E+03 0.  0.
   -2000013    1    1    2    0    0  0.13982433339E+03  0.61928369766E+03 -0.47813877186E+03  0.11276878236E+04  0.80000000000E+03 0.  0.
<mgrwt>
<rscale>  0 0.21118468E+04</rscale>
<asrwt>0</asrwt>
<pdfrwt beam="2">  1        2 0.19701603E+00 0.21118468E+04</pdfrwt>
<pdfrwt beam="1">  1       -2 0.13394809E+00 0.21118468E+04</pdfrwt>
<totfact> 0.62888453E+00</totfact>
</mgrwt>
</event>
<event>
 4    1  0.7144937E-008  0.2139392E+04  0.7816531E-02  0.8544087E-01
          2   -1    0    0  501    0  0.00000000000E+00  0.00000000000E+00  0.16763340581E+04  0.16763340581E+04  0.00000000000E+00 0.  1.
         -2   -1    0    0    0  501 -0.00000000000E+00 -0.00000000000E+00 -0.68259036160E+03  0.68259036160E+03  0.00000000000E+00 0. -1.
    2000013    1    1    2    0    0  0.60242661346E+03 -0.24790052917E+03  0.18524528344E+03  0.10481833389E+04  0.80000000000E+03 0.  0.
   -2000013    1    1    2    0    0 -0.60242661346E+03  0.24790052917E+03  0.80849841308E+03  0.13107410808E+04  0.80000000000E+03 0.  0.
<mgrwt>
<rscale>  0 0.21393919E+04</rscale>
<asrwt>0</asrwt>
<pdfrwt beam="1">  1        2 0.25789755E+00 0.21393919E+04</pdfrwt>
<pdfrwt beam="2">  1       -2 0.10501390E+00 0.21393919E+04</pdfrwt>
<totfact> 0.68244171E+00</totfact>
</mgrwt>
</event>
<event>
 4    1  0.7144937E-008  0.1729268E+04  0.7816531E-02  0.8744846E-01
          2   -1    0    0  501    0  0.00000000000E+00  0.00000000000E+00  0.30122642911E+04  0.30122642911E+04  0.00000000000E+00 0.  1.
         -2   -1    0    0    0  501 -0.00000000000E+00 -0.00000000000E+00 -0.24818271747E+03  0.24818271747E+03  0.00000000000E+00 0. -1.
    2000013    1    1    2    0    0  0.18236122091E+03 -0.18666727610E+03  0.10073547670E+04  0.13125791075E+04  0.80000000000E+03 0.  0.
   -2000013    1    1    2    0    0 -0.18236122091E+03  0.18666727610E+03  0.17567268067E+04  0.19478679011E+04  0.80000000000E+03 0.  0.
<mgrwt>
<rscale>  0 0.17292680E+04</rscale>
<asrwt>0</asrwt>
<pdfrwt beam="1">  1        2 0.46342525E+00 0.17292680E+04</pdfrwt>
<pdfrwt beam="2">  1       -2 0.38181959E-01 0.17292680E+04</pdfrwt>
<totfact> 0.10566432E+01</totfact>
</mgrwt>
</event>
<event>
 4    1  0.7144937E-008  0.2351472E+04  0.7816531E-02  0.8457898E-01
         -2   -1    0    0    0  501 -0.00000000000E+00  0.00000000000E+00  0.66150460355E+03  0.66150460355E+03  0.00000000000E+00 0. -1.
          2   -1    0    0  501    0  0.00000000000E+00 -0.00000000000E+00 -0.20897135677E+04  0.20897135677E+04  0.00000000000E+00 0.  1.
    2000013    1    1    2    0    0  0.14184324202E+03  0.81300871201E+03 -0.42453883586E+03  0.12252901266E+04  0.80000000000E+03 0.  0.
   -2000013    1    1    2    0    0 -0.14184324202E+03 -0.81300871201E+03 -0.10036701283E+04  0.15259280447E+04  0.80000000000E+03 0.  0.
<mgrwt>
<rscale>  0 0.23514720E+04</rscale>
<asrwt>0</asrwt>
<pdfrwt beam="2">  1        2 0.32149439E+00 0.23514720E+04</pdfrwt>
<pdfrwt beam="1">  1       -2 0.10176994E+00 0.23514720E+04</pdfrwt>
<totfact> 0.42581017E+00</totfact>
</mgrwt>
</event>
<event>
 4    1  0.7144937E-008  0.2652436E+04  0.7816531E-02  0.8350605E-01
         -2   -1    0    0    0  501 -0.00000000000E+00  0.00000000000E+00  0.10919217663E+04  0.10919217663E+04  0.00000000000E+00 0. -1.
          2   -1    0    0  501    0  0.00000000000E+00 -0.00000000000E+00 -0.16107874148E+04  0.16107874148E+04  0.00000000000E+00 0.  1.
    2000013    1    1    2    0    0  0.12611263837E+03  0.10446156581E+04 -0.14908635666E+03  0.13301702945E+04  0.80000000000E+03 0.  0.
   -2000013    1    1    2    0    0 -0.12611263837E+03 -0.10446156581E+04 -0.36977929180E+03  0.13725388866E+04  0.80000000000E+03 0.  0.
<mgrwt>
<rscale>  0 0.26524357E+04</rscale>
<asrwt>0</asrwt>
<pdfrwt beam="2">  1        2 0.24781345E+00 0.26524357E+04</pdfrwt>
<pdfrwt beam="1">  1       -2 0.16798796E+00 0.26524357E+04</pdfrwt>
<totfact> 0.21343266E+00</totfact>
</mgrwt>
</event>
<event>
 4    1  0.7144937E-008  0.2883570E+04  0.7816531E-02  0.8277783E-01
          2   -1    0    0  501    0  0.00000000000E+00  0.00000000000E+00  0.26259682051E+04  0.26259682051E+04  0.00000000000E+00 0. -1.
         -2   -1    0    0    0  501 -0.00000000000E+00 -0.00000000000E+00 -0.79161036359E+03  0.79161036359E+03  0.00000000000E+00 0.  1.
    2000013    1    1    2    0    0 -0.98927897155E+03  0.16793800117E+02  0.17208293957E+04  0.21401422206E+04  0.80000000000E+03 0.  0.
   -2000013    1    1    2    0    0  0.98927897155E+03 -0.16793800117E+02  0.11352844574E+03  0.12774363480E+04  0.80000000000E+03 0.  0.
<mgrwt>
<rscale>  0 0.28835698E+04</rscale>
<asrwt>0</asrwt>
<pdfrwt beam="1">  1        2 0.40399511E+00 0.28835698E+04</pdfrwt>
<pdfrwt beam="2">  1       -2 0.12178621E+00 0.28835698E+04</pdfrwt>
<totfact> 0.12991038E+00</totfact>
</mgrwt>
</event>
<event>
 4    1  0.7144937E-008  0.2747256E+04  0.7816531E-02  0.8319833E-01
          1   -1    0    0  501    0  0.00000000000E+00  0.00000000000E+00  0.17856593283E+04  0.17856593283E+04  0.00000000000E+00 0.  1.
         -1   -1    0    0    0  501 -0.00000000000E+00 -0.00000000000E+00 -0.10566706807E+04  0.10566706807E+04  0.00000000000E+00 0. -1.
    2000013    1    1    2    0    0 -0.47296245225E+03  0.85866533406E+03 -0.18866173949E+03  0.12792939025E+04  0.80000000000E+03 0.  0.
   -2000013    1    1    2    0    0  0.47296245225E+03 -0.85866533406E+03  0.91765038713E+03  0.15630361065E+04  0.80000000000E+03 0.  0.
<mgrwt>
<rscale>  0 0.27472560E+04</rscale>
<asrwt>0</asrwt>
<pdfrwt beam="1">  1        1 0.27471682E+00 0.27472560E+04</pdfrwt>
<pdfrwt beam="2">  1       -1 0.16256472E+00 0.27472560E+04</pdfrwt>
<totfact> 0.10127012E+00</totfact>
</mgrwt>
</event>
<event>
 4    1  0.7144937E-008  0.1950844E+04  0.7816531E-02  0.8629954E-01
          2   -1    0    0  501    0  0.00000000000E+00  0.00000000000E+00  0.86271181693E+03  0.86271181693E+03  0.00000000000E+00 0.  1.
         -2   -1    0    0    0  501 -0.00000000000E+00 -0.00000000000E+00 -0.11028576089E+04  0.11028576089E+04  0.00000000000E+00 0. -1.
    2000013    1    1    2    0    0  0.33472039893E+03 -0.94616891357E+02 -0.55978216801E+03  0.10365067184E+04  0.80000000000E+03 0.  0.
   -2000013    1    1    2    0    0 -0.33472039893E+03  0.94616891357E+02  0.31963637601E+03  0.92906270749E+03  0.80000000000E+03 0.  0.
<mgrwt>
<rscale>  0 0.19508442E+04</rscale>
<asrwt>0</asrwt>
<pdfrwt beam="1">  1        2 0.13272490E+00 0.19508442E+04</pdfrwt>
<pdfrwt beam="2">  1       -2 0.16967040E+00 0.19508442E+04</pdfrwt>
<totfact> 0.62135268E+00</totfact>
</mgrwt>
</event>
<event>
 4    1  0.7144937E-008  0.1989148E+04  0.7816531E-02  0.8611711E-01
          2   -1    0    0  501    0  0.00000000000E+00  0.00000000000E+00  0.22930265979E+04  0.22930265979E+04  0.00000000000E+00 0.  1.
         -2   -1    0    0    0  501 -0.00000000000E+00 -0.00000000000E+00 -0.43138500731E+03  0.43138500731E+03  0.00000000000E+00 0. -1.
    2000013    1    1    2    0    0 -0.30180649779E+03  0.49629232858E+03  0.10795009811E+04  0.14638017645E+04  0.80000000000E+03 0.  0.
   -2000013    1    1    2    0    0  0.30180649779E+03 -0.49629232858E+03  0.78214060950E+03  0.12606098407E+04  0.80000000000E+03 0.  0.
<mgrwt>
<rscale>  0 0.19891479E+04</rscale>
<asrwt>0</asrwt>
<pdfrwt beam="1">  1        2 0.35277332E+00 0.19891479E+04</pdfrwt>
<pdfrwt beam="2">  1       -2 0.66366925E-01 0.19891479E+04</pdfrwt>
<totfact> 0.88813956E+00</totfact>
</mgrwt>
</event>
<event>
 4    1  0.7144937E-008  0.1768479E+04  0.7816531E-02  0.8723244E-01
          2   -1    0    0  501    0  0.00000000000E+00  0.00000000000E+00  0.32515126062E+04  0.32515126062E+04  0.00000000000E+00 0.  1.
         -2   -1    0    0    0  501 -0.00000000000E+00 -0.00000000000E+00 -0.24046629415E+03  0.24046629415E+03  0.00000000000E+00 0. -1.
    2000013    1    1    2    0    0 -0.14042131731E+03  0.29577166900E+03  0.18732389948E+04  0.20630616467E+04  0.80000000000E+03 0.  0.
   -2000013    1    1    2    0    0  0.14042131731E+03 -0.29577166900E+03  0.11378073173E+04  0.14289172537E+04  0.80000000000E+03 0.  0.
<mgrwt>
<rscale>  0 0.17684787E+04</rscale>
<asrwt>0</asrwt>
<pdfrwt beam="1">  1        2 0.50023268E+00 0.17684787E+04</pdfrwt>
<pdfrwt beam="2">  1       -2 0.36994817E-01 0.17684787E+04</pdfrwt>
<totfact> 0.78663094E+00</totfact>
</mgrwt>
</event>
<event>
 4    1  0.7144937E-008  0.1933853E+04  0.7816531E-02  0.8638187E-01
          2   -1    0    0  501    0  0.00000000000E+00  0.00000000000E+00  0.26018089423E+04  0.26018089423E+04  0.00000000000E+00 0.  1.
         -2   -1    0    0    0  501 -0.00000000000E+00 -0.00000000000E+00 -0.35934495960E+03  0.35934495960E+03  0.00000000000E+00 0. -1.
    2000013    1    1    2    0    0  0.42616443620E+01 -0.53517872980E+03  0.12625071926E+04  0.15875638084E+04  0.80000000000E+03 0.  0.
   -2000013    1    1    2    0    0 -0.42616443620E+01  0.53517872980E+03  0.97995679012E+03  0.13735900935E+04  0.80000000000E+03 0.  0.
<mgrwt>
<rscale>  0 0.19338531E+04</rscale>
<asrwt>0</asrwt>
<pdfrwt beam="1">  1        2 0.40027829E+00 0.19338531E+04</pdfrwt>
<pdfrwt beam="2">  1       -2 0.55283842E-01 0.19338531E+04</pdfrwt>
<totfact> 0.87306993E+00</totfact>
</mgrwt>
</event>
<event>
 4    1  0.7144937E-008  0.2199945E+04  0.7816531E-02  0.8518451E-01
         -2   -1    0    0    0  501 -0.00000000000E+00  0.00000000000E+00  0.43072250042E+03  0.43072250042E+03  0.00000000000E+00 0. -1.
          2   -1    0    0  501    0  0.00000000000E+00 -0.00000000000E+00 -0.28090940228E+04  0.28090940228E+04  0.00000000000E+00 0.  1.
    2000013    1    1    2    0    0  0.59478807751E+03  0.46301783099E+03 -0.12513466992E+04  0.16655410324E+04  0.80000000000E+03 0.  0.
   -2000013    1    1    2    0    0 -0.59478807751E+03 -0.46301783099E+03 -0.11270248232E+04  0.15742754908E+04  0.80000000000E+03 0.  0.
<mgrwt>
<rscale>  0 0.21999455E+04</rscale>
<asrwt>0</asrwt>
<pdfrwt beam="2">  1        2 0.43216831E+00 0.21999455E+04</pdfrwt>
<pdfrwt beam="1">  1       -2 0.66265001E-01 0.21999455E+04</pdfrwt>
<totfact> 0.43736516E+00</totfact>
</mgrwt>
</event>
<event>
 4    1  0.7144937E-008  0.2079572E+04  0.7816531E-02  0.8570296E-01
          2   -1    0    0  501    0  0.00000000000E+00  0.00000000000E+00  0.35657519099E+04  0.35657519099E+04  0.00000000000E+00 0.  1.
         -2   -1    0    0    0  501 -0.00000000000E+00 -0.00000000000E+00 -0.30320523673E+03  0.30320523673E+03  0.00000000000E+00 0. -1.
    2000013    1    1    2    0    0  0.38350991533E+03  0.53106656534E+03  0.18354420348E+04  0.21066463906E+04  0.80000000000E+03 0.  0.
   -2000013    1    1    2    0    0 -0.38350991533E+03 -0.53106656534E+03  0.14271046384E+04  0.17623107561E+04  0.80000000000E+03 0.  0.
<mgrwt>
<rscale>  0 0.20795717E+04</rscale>
<asrwt>0</asrwt>
<pdfrwt beam="1">  1        2 0.54857719E+00 0.20795717E+04</pdfrwt>
<pdfrwt beam="2">  1       -2 0.46646962E-01 0.20795717E+04</pdfrwt>
<totfact> 0.29532756E+00</totfact>
</mgrwt>
</event>
<event>
 4    1  0.7144937E-008  0.1674381E+04  0.7816531E-02  0.8776112E-01
         -2   -1    0    0    0  501 -0.00000000000E+00  0.00000000000E+00  0.56485292943E+03  0.56485292943E+03  0.00000000000E+00 0.  1.
          2   -1    0    0  501    0  0.00000000000E+00 -0.00000000000E+00 -0.12408331496E+04  0.12408331496E+04  0.00000000000E+00 0. -1.
    2000013    1    1    2    0    0  0.15896423640E+03 -0.10377533440E+03 -0.16799169635E+03  0.83920209635E+03  0.80000000000E+03 0.  0.
   -2000013    1    1    2    0    0 -0.15896423640E+03  0.10377533440E+03 -0.50798852386E+03  0.96648398272E+03  0.80000000000E+03 0.  0.
<mgrwt>
<rscale>  0 0.16743814E+04</rscale>
<asrwt>0</asrwt>
<pdfrwt beam="2">  1        2 0.19089741E+00 0.16743814E+04</pdfrwt>
<pdfrwt beam="1">  1       -2 0.86900452E-01 0.16743814E+04</pdfrwt>
<totfact> 0.19564031E+01</totfact>
</mgrwt>
</event>
<event>
 4    1  0.7144937E-008  0.1998099E+04  0.7816531E-02  0.8607510E-01
          2   -1    0    0  501    0  0.00000000000E+00  0.00000000000E+00  0.18181782440E+04  0.18181782440E+04  0.00000000000E+00 0.  1.
         -2   -1    0    0    0  501 -0.00000000000E+00 -0.00000000000E+00 -0.54895580109E+03  0.54895580109E+03  0.00000000000E+00 0. -1.
    2000013    1    1    2    0    0 -0.36363516389E+03  0.46827629749E+03  0.73075600902E+03  0.12351184429E+04  0.80000000000E+03 0.  0.
   -2000013    1    1    2    0    0  0.36363516389E+03 -0.46827629749E+03  0.53846643389E+03  0.11320156022E+04  0.80000000000E+03 0.  0.
<mgrwt>
<rscale>  0 0.19980986E+04</rscale>
<asrwt>0</asrwt>
<pdfrwt beam="1">  1        2 0.27971973E+00 0.19980986E+04</pdfrwt>
<pdfrwt beam="2">  1       -2 0.84454740E-01 0.19980986E+04</pdfrwt>
<totfact> 0.95777328E+00</totfact>
</mgrwt>
</event>
<event>
 4    1  0.7144937E-008  0.2428459E+04  0.7816531E-02  0.8428925E-01
          2   -1    0    0  501    0  0.00000000000E+00  0.00000000000E+00  0.28316819020E+04  0.28316819020E+04  0.00000000000E+00 0.  1.
         -2   -1    0    0    0  501 -0.00000000000E+00 -0.00000000000E+00 -0.52066344146E+03  0.52066344146E+03  0.00000000000E+00 0. -1.
    2000013    1    1    2    0    0 -0.78333613969E+03  0.23074473565E+03  0.17204701279E+04  0.20656418136E+04  0.80000000000E+03 0.  0.
   -2000013    1    1    2    0    0  0.78333613969E+03 -0.23074473565E+03  0.59054833261E+03  0.12867035299E+04  0.80000000000E+03 0.  0.
<mgrwt>
<rscale>  0 0.24284590E+04</rscale>
<asrwt>0</asrwt>
<pdfrwt beam="1">  1        2 0.43564336E+00 0.24284590E+04</pdfrwt>
<pdfrwt beam="2">  1       -2 0.80102070E-01 0.24284590E+04</pdfrwt>
<totfact> 0.27358563E+00</totfact>
</mgrwt>
</event>
<event>
 4    1  0.7144937E-008  0.1769201E+04  0.7816531E-02  0.8722852E-01
         -2   -1    0    0    0  501 -0.00000000000E+00  0.00000000000E+00  0.38077011540E+03  0.38077011540E+03  0.00000000000E+00 0. -1.
          2   -1    0    0  501    0  0.00000000000E+00 -0.00000000000E+00 -0.20550924643E+04  0.20550924643E+04  0.00000000000E+00 0.  1.
    2000013    1    1    2    0    0 -0.14625529408E+03  0.34119597011E+03 -0.93167624661E+03  0.12828974743E+04  0.80000000000E+03 0.  0.
   -2000013    1    1    2    0    0  0.14625529408E+03 -0.34119597011E+03 -0.74264610234E+03  0.11529651054E+04  0.80000000000E+03 0.  0.
<mgrwt>
<rscale>  0 0.17692007E+04</rscale>
<asrwt>0</asrwt>
<pdfrwt beam="2">  1        2 0.31616807E+00 0.17692007E+04</pdfrwt>
<pdfrwt beam="1">  1       -2 0.58580018E-01 0.17692007E+04</pdfrwt>
<totfact> 0.16051772E+01</totfact>
</mgrwt>
</event>
<event>
 4    1  0.7144937E-008  0.1711787E+04  0.7816531E-02  0.8754670E-01
         -4   -1    0    0    0  501 -0.00000000000E+00  0.00000000000E+00  0.47527328561E+03  0.47527328561E+03  0.00000000000E+00 0. -1.
          4   -1    0    0  501    0  0.00000000000E+00 -0.00000000000E+00 -0.15413318050E+04  0.15413318050E+04  0.00000000000E+00 0.  1.
    2000013    1    1    2    0    0  0.24828842411E+03  0.62850523668E+02 -0.33960860287E+03  0.90605261051E+03  0.80000000000E+03 0.  0.
   -2000013    1    1    2    0    0 -0.24828842411E+03 -0.62850523668E+02 -0.72644991657E+03  0.11105524801E+04  0.80000000000E+03 0.  0.
<mgrwt>
<rscale>  0 0.17117872E+04</rscale>
<asrwt>0</asrwt>
<pdfrwt beam="2">  1        4 0.23712797E+00 0.17117872E+04</pdfrwt>
<pdfrwt beam="1">  1       -4 0.73118966E-01 0.17117872E+04</pdfrwt>
<totfact> 0.24583356E-01</totfact>
</mgrwt>
</event>
<event>
 4    1  0.7144937E-008  0.1655001E+04  0.7816531E-02  0.8787454E-01
          2   -1    0    0  501    0  0.00000000000E+00  0.00000000000E+00  0.25706423251E+04  0.25706423251E+04  0.00000000000E+00 0.  1.
         -2   -1    0    0    0  501 -0.00000000000E+00 -0.00000000000E+00 -0.26637575431E+03  0.26637575431E+03  0.00000000000E+00 0. -1.
    2000013    1    1    2    0    0  0.49207733814E+02  0.13037030168E+01  0.15048345245E+04  0.17049780194E+04  0.80000000000E+03 0.  0.
   -2000013    1    1    2    0    0 -0.49207733814E+02 -0.13037030168E+01  0.79943204630E+03  0.11320400600E+04  0.80000000000E+03 0.  0.
<mgrwt>
<rscale>  0 0.16550007E+04</rscale>
<asrwt>0</asrwt>
<pdfrwt beam="1">  1        2 0.39548342E+00 0.16550007E+04</pdfrwt>
<pdfrwt beam="2">  1       -2 0.40980887E-01 0.16550007E+04</pdfrwt>
<totfact> 0.17088598E+01</totfact>
</mgrwt>
</event>
<event>
 4    1  0.7144937E-008  0.3231320E+04  0.7816531E-02  0.8180594E-01
          2   -1    0    0  501    0  0.00000000000E+00  0.00000000000E+00  0.17875854669E+04  0.17875854669E+04  0.00000000000E+00 0.  1.
         -2   -1    0    0    0  501 -0.00000000000E+00 -0.00000000000E+00 -0.14602698870E+04  0.14602698870E+04  0.00000000000E+00 0. -1.
    2000013    1    1    2    0    0 -0.13897594186E+04  0.12444161974E+03  0.97721794825E+01  0.16084192407E+04  0.80000000000E+03 0.  0.
   -2000013    1    1    2    0    0  0.13897594186E+04 -0.12444161974E+03  0.31754340040E+03  0.16394361133E+04  0.80000000000E+03 0.  0.
<mgrwt>
<rscale>  0 0.32313200E+04</rscale>
<asrwt>0</asrwt>
<pdfrwt beam="1">  1        2 0.27501315E+00 0.32313200E+04</pdfrwt>
<pdfrwt beam="2">  1       -2 0.22465691E+00 0.32313200E+04</pdfrwt>
<totfact> 0.68013481E-01</totfact>
</mgrwt>
</event>
<event>
 4    1  0.7144937E-008  0.1917942E+04  0.7816531E-02  0.8645977E-01
          2   -1    0    0  501    0  0.00000000000E+00  0.00000000000E+00  0.20849557155E+04  0.20849557155E+04  0.00000000000E+00 0.  1.
         -2   -1    0    0    0  501 -0.00000000000E+00 -0.00000000000E+00 -0.44107672050E+03  0.44107672050E+03  0.00000000000E+00 0. -1.
    2000013    1    1    2    0    0  0.20457561273E+03  0.40154326043E+03  0.11863072143E+04  0.15001376530E+04  0.80000000000E+03 0.  0.
   -2000013    1    1    2    0    0 -0.20457561273E+03 -0.40154326043E+03  0.45757178078E+03  0.10258947830E+04  0.80000000000E+03 0.  0.
<mgrwt>
<rscale>  0 0.19179421E+04</rscale>
<asrwt>0</asrwt>
<pdfrwt beam="1">  1        2 0.32076241E+00 0.19179421E+04</pdfrwt>
<pdfrwt beam="2">  1       -2 0.67857958E-01 0.19179421E+04</pdfrwt>
<totfact> 0.11144622E+01</totfact>
</mgrwt>
</event>
<event>
 4    1  0.7144937E-008  0.1838736E+04  0.7816531E-02  0.8685967E-01
          2   -1    0    0  501    0  0.00000000000E+00  0.00000000000E+00  0.22643639076E+04  0.22643639076E+04  0.00000000000E+00 0.  1.
         -2   -1    0    0    0  501 -0.00000000000E+00 -0.00000000000E+00 -0.37327794768E+03  0.37327794768E+03  0.00000000000E+00 0. -1.
    2000013    1    1    2    0    0 -0.32295673313E+03  0.30779055410E+03  0.10585040147E+04  0.13998095677E+04  0.80000000000E+03 0.  0.
   -2000013    1    1    2    0    0  0.32295673313E+03 -0.30779055410E+03  0.83258194526E+03  0.12378322876E+04  0.80000000000E+03 0.  0.
<mgrwt>
<rscale>  0 0.18387356E+04</rscale>
<asrwt>0</asrwt>
<pdfrwt beam="1">  1        2 0.34836367E+00 0.18387356E+04</pdfrwt>
<pdfrwt beam="2">  1       -2 0.57427378E-01 0.18387356E+04</pdfrwt>
<totfact> 0.12701609E+01</totfact>
</mgrwt>
</event>
<event>
 4    1  0.7144937E-008  0.2900359E+04  0.7816531E-02  0.8272771E-01
          2   -1    0    0  501    0  0.00000000000E+00  0.00000000000E+00  0.21807510214E+04  0.21807510214E+04  0.00000000000E+00 0.  1.
         -2   -1    0    0    0  501 -0.00000000000E+00 -0.00000000000E+00 -0.96435588376E+03  0.96435588376E+03  0.00000000000E+00 0. -1.
    2000013    1    1    2    0    0  0.72536773448E+03 -0.90507053111E+03  0.98023672979E+03  0.17164425603E+04  0.80000000000E+03 0.  0.
   -2000013    1    1    2    0    0 -0.72536773448E+03  0.90507053111E+03  0.23615840783E+03  0.14286643448E+04  0.80000000000E+03 0.  0.
<mgrwt>
<rscale>  0 0.29003587E+04</rscale>
<asrwt>0</asrwt>
<pdfrwt beam="1">  1        2 0.33550016E+00 0.29003587E+04</pdfrwt>
<pdfrwt beam="2">  1       -2 0.14836244E+00 0.29003587E+04</pdfrwt>
<totfact> 0.14093529E+00</totfact>
</mgrwt>
</event>
<event>
 4    1  0.7144937E-008  0.2603266E+04  0.7816531E-02  0.8367093E-01
          2   -1    0    0  501    0  0.00000000000E+00  0.00000000000E+00  0.24485231548E+04  0.24485231548E+04  0.00000000000E+00 0.  1.
         -2   -1    0    0    0  501 -0.00000000000E+00 -0.00000000000E+00 -0.69194713873E+03  0.69194713873E+03  0.00000000000E+00 0. -1.
    2000013    1    1    2    0    0  0.60598383878E+03 -0.82828105292E+03  0.84047151790E+03  0.15490830474E+04  0.80000000000E+03 0.  0.
   -2000013    1    1    2    0    0 -0.60598383878E+03  0.82828105292E+03  0.91610449822E+03  0.15913872461E+04  0.80000000000E+03 0.  0.
<mgrwt>
<rscale>  0 0.26032661E+04</rscale>
<asrwt>0</asrwt>
<pdfrwt beam="1">  1        2 0.37669586E+00 0.26032661E+04</pdfrwt>
<pdfrwt beam="2">  1       -2 0.10645341E+00 0.26032661E+04</pdfrwt>
<totfact> 0.23441315E+00</totfact>
</mgrwt>
</event>
<event>
 4    1  0.7144937E-008  0.2011235E+04  0.7816531E-02  0.8601386E-01
          2   -1    0    0  501    0  0.00000000000E+00  0.00000000000E+00  0.29507981040E+04  0.29507981040E+04  0.00000000000E+00 0.  1.
         -2   -1    0    0    0  501 -0.00000000000E+00 -0.00000000000E+00 -0.34270936720E+03  0.34270936720E+03  0.00000000000E+00 0. -1.
    2000013    1    1    2    0    0  0.53440447799E+03  0.28321415665E+03  0.11829566488E+04  0.15508658348E+04  0.80000000000E+03 0.  0.
   -2000013    1    1    2    0    0 -0.53440447799E+03 -0.28321415665E+03  0.14251320880E+04  0.17426416364E+04  0.80000000000E+03 0.  0.
<mgrwt>
<rscale>  0 0.20112346E+04</rscale>
<asrwt>0</asrwt>
<pdfrwt beam="1">  1        2 0.45396892E+00 0.20112346E+04</pdfrwt>
<pdfrwt beam="2">  1       -2 0.52724520E-01 0.20112346E+04</pdfrwt>
<totfact> 0.58989605E+00</totfact>
</mgrwt>
</event>
<event>
 4    1  0.7144937E-008  0.1792689E+04  0.7816531E-02  0.8710197E-01
          4   -1    0    0  501    0  0.00000000000E+00  0.00000000000E+00  0.11744008906E+04  0.11744008906E+04  0.00000000000E+00 0.  1.
         -4   -1    0    0    0  501 -0.00000000000E+00 -0.00000000000E+00 -0.68412231909E+03  0.68412231909E+03  0.00000000000E+00 0. -1.
    2000013    1    1    2    0    0 -0.21694429373E+03 -0.34112894170E+03  0.24543132412E+03  0.92933864458E+03  0.80000000000E+03 0.  0.
   -2000013    1    1    2    0    0  0.21694429373E+03  0.34112894170E+03  0.24484724736E+03  0.92918456508E+03  0.80000000000E+03 0.  0.
<mgrwt>
<rscale>  0 0.17926894E+04</rscale>
<asrwt>0</asrwt>
<pdfrwt beam="1">  1        4 0.18067706E+00 0.17926894E+04</pdfrwt>
<pdfrwt beam="2">  1       -4 0.10524959E+00 0.17926894E+04</pdfrwt>
<totfact> 0.24533927E-01</totfact>
</mgrwt>
</event>
<event>
 4    1  0.7144937E-008  0.1633979E+04  0.7816531E-02  0.8799941E-01
         -2   -1    0    0    0  501 -0.00000000000E+00  0.00000000000E+00  0.35199872361E+03  0.35199872361E+03  0.00000000000E+00 0. -1.
          2   -1    0    0  501    0  0.00000000000E+00 -0.00000000000E+00 -0.18962337990E+04  0.18962337990E+04  0.00000000000E+00 0.  1.
    2000013    1    1    2    0    0  0.33599092895E+02  0.11702027756E+03 -0.61736890087E+03  0.10178246431E+04  0.80000000000E+03 0.  0.
   -2000013    1    1    2    0    0 -0.33599092895E+02 -0.11702027756E+03 -0.92686617447E+03  0.12304078794E+04  0.80000000000E+03 0.  0.
<mgrwt>
<rscale>  0 0.16339790E+04</rscale>
<asrwt>0</asrwt>
<pdfrwt beam="2">  1        2 0.29172828E+00 0.16339790E+04</pdfrwt>
<pdfrwt beam="1">  1       -2 0.54153650E-01 0.16339790E+04</pdfrwt>
<totfact> 0.23432191E+01</totfact>
</mgrwt>
</event>
<event>
 4    1  0.7144937E-008  0.1697249E+04  0.7816531E-02  0.8762935E-01
          1   -1    0    0  501    0  0.00000000000E+00  0.00000000000E+00  0.93437113321E+03  0.93437113321E+03  0.00000000000E+00 0.  1.
         -1   -1    0    0    0  501 -0.00000000000E+00 -0.00000000000E+00 -0.77074687543E+03  0.77074687543E+03  0.00000000000E+00 0. -1.
    2000013    1    1    2    0    0  0.26568511498E+03  0.69242403603E+02  0.15127414109E+03  0.85922462519E+03  0.80000000000E+03 0.  0.
   -2000013    1    1    2    0    0 -0.26568511498E+03 -0.69242403603E+02  0.12350116696E+02  0.84589338345E+03  0.80000000000E+03 0.  0.
<mgrwt>
<rscale>  0 0.16972491E+04</rscale>
<asrwt>0</asrwt>
<pdfrwt beam="1">  1        1 0.14374941E+00 0.16972491E+04</pdfrwt>
<pdfrwt beam="2">  1       -1 0.11857644E+00 0.16972491E+04</pdfrwt>
<totfact> 0.10353838E+01</totfact>
</mgrwt>
</event>
<event>
 4    1  0.7144937E-008  0.2352619E+04  0.7816531E-02  0.8457459E-01
         -2   -1    0    0    0  501 -0.00000000000E+00  0.00000000000E+00  0.10900815559E+04  0.10900815559E+04  0.00000000000E+00 0. -1.
          2   -1    0    0  501    0  0.00000000000E+00 -0.00000000000E+00 -0.12693577709E+04  0.12693577709E+04  0.00000000000E+00 0.  1.
    2000013    1    1    2    0    0 -0.59839041512E+03  0.37662757115E+03  0.40553832654E+03  0.11420948956E+04  0.80000000000E+03 0.  0.
   -2000013    1    1    2    0    0  0.59839041512E+03 -0.37662757115E+03 -0.58481454158E+03  0.12173444313E+04  0.80000000000E+03 0.  0.
<mgrwt>
<rscale>  0 0.23526185E+04</rscale>
<asrwt>0</asrwt>
<pdfrwt beam="2">  1        2 0.19528581E+00 0.23526185E+04</pdfrwt>
<pdfrwt beam="1">  1       -2 0.16770485E+00 0.23526185E+04</pdfrwt>
<totfact> 0.34428237E+00</totfact>
</mgrwt>
</event>
<event>
 4    1  0.7144937E-008  0.2125709E+04  0.7816531E-02  0.8550002E-01
          2   -1    0    0  501    0  0.00000000000E+00  0.00000000000E+00  0.22045148176E+04  0.22045148176E+04  0.00000000000E+00 0.  1.
         -2   -1    0    0    0  501 -0.00000000000E+00 -0.00000000000E+00 -0.51243001044E+03  0.51243001044E+03  0.00000000000E+00 0. -1.
    2000013    1    1    2    0    0 -0.39313759521E+03  0.31624047930E+03  0.22631867863E+03  0.97251496328E+03  0.80000000000E+03 0.  0.
   -2000013    1    1    2    0    0  0.39313759521E+03 -0.31624047930E+03  0.14657661285E+04  0.17444298647E+04  0.80000000000E+03 0.  0.
<mgrwt>
<rscale>  0 0.21257089E+04</rscale>
<asrwt>0</asrwt>
<pdfrwt beam="1">  1        2 0.33915612E+00 0.21257089E+04</pdfrwt>
<pdfrwt beam="2">  1       -2 0.78835387E-01 0.21257089E+04</pdfrwt>
<totfact> 0.67440408E+00</totfact>
</mgrwt>
</event>
<event>
 4    1  0.7144937E-008  0.2174863E+04  0.7816531E-02  0.8528964E-01
         -2   -1    0    0    0  501 -0.00000000000E+00  0.00000000000E+00  0.19332974979E+04  0.19332974979E+04  0.00000000000E+00 0. -1.
          2   -1    0    0  501    0  0.00000000000E+00 -0.00000000000E+00 -0.61165299821E+03  0.61165299821E+03  0.00000000000E+00 0.  1.
    2000013    1    1    2    0    0 -0.42963644273E+03  0.55032476123E+03  0.93540610251E+03  0.14150722216E+04  0.80000000000E+03 0.  0.
   -2000013    1    1    2    0    0  0.42963644273E+03 -0.55032476123E+03  0.38623839716E+03  0.11298782745E+04  0.80000000000E+03 0.  0.
<mgrwt>
<rscale>  0 0.21748629E+04</rscale>
<asrwt>0</asrwt>
<pdfrwt beam="2">  1        2 0.94100462E-01 0.21748629E+04</pdfrwt>
<pdfrwt beam="1">  1       -2 0.29743038E+00 0.21748629E+04</pdfrwt>
<totfact> 0.14632935E+00</totfact>
</mgrwt>
</event>
<event>
 4    1  0.7144937E-008  0.2628678E+04  0.7816531E-02  0.8358525E-01
          2   -1    0    0  501    0  0.00000000000E+00  0.00000000000E+00  0.22644352451E+04  0.22644352451E+04  0.00000000000E+00 0.  1.
         -2   -1    0    0    0  501 -0.00000000000E+00 -0.00000000000E+00 -0.76287784346E+03  0.76287784346E+03  0.00000000000E+00 0. -1.
    2000013    1    1    2    0    0  0.38209048438E+03 -0.61284527244E+03  0.16171329219E+04  0.19433711311E+04  0.80000000000E+03 0.  0.
   -2000013    1    1    2    0    0 -0.38209048438E+03  0.61284527244E+03 -0.11557552024E+03  0.10839419574E+04  0.80000000000E+03 0.  0.
<mgrwt>
<rscale>  0 0.26286784E+04</rscale>
<asrwt>0</asrwt>
<pdfrwt beam="1">  1        2 0.34837465E+00 0.26286784E+04</pdfrwt>
<pdfrwt beam="2">  1       -2 0.11736582E+00 0.26286784E+04</pdfrwt>
<totfact> 0.23506325E+00</totfact>
</mgrwt>
</event>
<event>
 4    1  0.7144937E-008  0.2448796E+04  0.7816531E-02  0.8421458E-01
          2   -1    0    0  501    0  0.00000000000E+00  0.00000000000E+00  0.32999114729E+04  0.32999114729E+04  0.00000000000E+00 0.  1.
         -2   -1    0    0    0  501 -0.00000000000E+00 -0.00000000000E+00 -0.45430008460E+03  0.45430008460E+03  0.00000000000E+00 0. -1.
    2000013    1    1    2    0    0 -0.63418681508E+03  0.64823302228E+03  0.11289045157E+04  0.16543350245E+04  0.80000000000E+03 0.  0.
   -2000013    1    1    2    0    0  0.63418681508E+03 -0.64823302228E+03  0.17167068725E+04  0.20998765330E+04  0.80000000000E+03 0.  0.
<mgrwt>
<rscale>  0 0.24487957E+04</rscale>
<asrwt>0</asrwt>
<pdfrwt beam="1">  1        2 0.50767867E+00 0.24487957E+04</pdfrwt>
<pdfrwt beam="2">  1       -2 0.69892323E-01 0.24487957E+04</pdfrwt>
<totfact> 0.18628220E+00</totfact>
</mgrwt>
</event>
<event>
 4    1  0.7144937E-008  0.2697552E+04  0.7816531E-02  0.8335800E-01
          2   -1    0    0  501    0  0.00000000000E+00  0.00000000000E+00  0.16278896057E+04  0.16278896057E+04  0.00000000000E+00 0.  1.
         -2   -1    0    0    0  501 -0.00000000000E+00 -0.00000000000E+00 -0.11175185004E+04  0.11175185004E+04  0.00000000000E+00 0. -1.
    2000013    1    1    2    0    0 -0.47336167027E+03 -0.51437555238E+03 -0.59054599100E+03  0.12154826396E+04  0.80000000000E+03 0.  0.
   -2000013    1    1    2    0    0  0.47336167027E+03  0.51437555238E+03  0.11009170963E+04  0.15299254664E+04  0.80000000000E+03 0.  0.
<mgrwt>
<rscale>  0 0.26975520E+04</rscale>
<asrwt>0</asrwt>
<pdfrwt beam="1">  1        2 0.25044456E+00 0.26975520E+04</pdfrwt>
<pdfrwt beam="2">  1       -2 0.17192592E+00 0.26975520E+04</pdfrwt>
<totfact> 0.19500099E+00</totfact>
</mgrwt>
</event>
<event>
 4    1  0.7144937E-008  0.1818426E+04  0.7816531E-02  0.8696562E-01
         -2   -1    0    0    0  501 -0.00000000000E+00  0.00000000000E+00  0.40014833515E+03  0.40014833515E+03  0.00000000000E+00 0. -1.
          2   -1    0    0  501    0  0.00000000000E+00 -0.00000000000E+00 -0.20659034598E+04  0.20659034598E+04  0.00000000000E+00 0.  1.
    2000013    1    1    2    0    0  0.60228042207E+01  0.39199609899E+03 -0.10791241373E+04  0.13993591817E+04  0.80000000000E+03 0.  0.
   -2000013    1    1    2    0    0 -0.60228042207E+01 -0.39199609899E+03 -0.58663098737E+03  0.10666926132E+04  0.80000000000E+03 0.  0.
<mgrwt>
<rscale>  0 0.18184255E+04</rscale>
<asrwt>0</asrwt>
<pdfrwt beam="2">  1        2 0.31783131E+00 0.18184255E+04</pdfrwt>
<pdfrwt beam="1">  1       -2 0.61561281E-01 0.18184255E+04</pdfrwt>
<totfact> 0.14194366E+01</totfact>
</mgrwt>
</event>
<event>
 4    1  0.7144937E-008  0.1839299E+04  0.7816531E-02  0.8685675E-01
          2   -1    0    0  501    0  0.00000000000E+00  0.00000000000E+00  0.24795447846E+04  0.24795447846E+04  0.00000000000E+00 0.  1.
         -2   -1    0    0    0  501 -0.00000000000E+00 -0.00000000000E+00 -0.34109297862E+03  0.34109297862E+03  0.00000000000E+00 0. -1.
    2000013    1    1    2    0    0 -0.23034945011E+03 -0.29685117452E+03  0.14589194515E+04  0.17057630125E+04  0.80000000000E+03 0.  0.
   -2000013    1    1    2    0    0  0.23034945011E+03  0.29685117452E+03  0.67953235452E+03  0.11148747507E+04  0.80000000000E+03 0.  0.
<mgrwt>
<rscale>  0 0.18392991E+04</rscale>
<asrwt>0</asrwt>
<pdfrwt beam="1">  1        2 0.38146842E+00 0.18392991E+04</pdfrwt>
<pdfrwt beam="2">  1       -2 0.52475844E-01 0.18392991E+04</pdfrwt>
<totfact> 0.11548212E+01</totfact>
</mgrwt>
</event>
<event>
 4    1  0.7144937E-008  0.2953176E+04  0.7816531E-02  0.8257230E-01
         -2   -1    0    0    0  501 -0.00000000000E+00  0.00000000000E+00  0.11706241105E+04  0.11706241105E+04  0.00000000000E+00 0. -1.
          2   -1    0    0  501    0  0.00000000000E+00 -0.00000000000E+00 -0.18625206440E+04  0.18625206440E+04  0.00000000000E+00 0.  1.
    2000013    1    1    2    0    0  0.54522420957E+03 -0.99073247060E+03  0.17926113044E+03  0.13967658429E+04  0.80000000000E+03 0.  0.
   -2000013    1    1    2    0    0 -0.54522420957E+03  0.99073247060E+03 -0.87115766389E+03  0.16363789116E+04  0.80000000000E+03 0.  0.
<mgrwt>
<rscale>  0 0.29531756E+04</rscale>
<asrwt>0</asrwt>
<pdfrwt beam="2">  1        2 0.28654164E+00 0.29531756E+04</pdfrwt>
<pdfrwt beam="1">  1       -2 0.18009602E+00 0.29531756E+04</pdfrwt>
<totfact> 0.12395037E+00</totfact>
</mgrwt>
</event>
<event>
 4    1  0.7144937E-008  0.2041495E+04  0.7816531E-02  0.8587462E-01
         -2   -1    0    0    0  501 -0.00000000000E+00  0.00000000000E+00  0.41207446967E+03  0.41207446967E+03  0.00000000000E+00 0. -1.
          2   -1    0    0  501    0  0.00000000000E+00 -0.00000000000E+00 -0.25284879662E+04  0.25284879662E+04  0.00000000000E+00 0.  1.
    2000013    1    1    2    0    0  0.38286853940E+03 -0.38073122774E+03 -0.15367583596E+04  0.18147095751E+04  0.80000000000E+03 0.  0.
   -2000013    1    1    2    0    0 -0.38286853940E+03  0.38073122774E+03 -0.57965513691E+03  0.11258528607E+04  0.80000000000E+03 0.  0.
<mgrwt>
<rscale>  0 0.20414949E+04</rscale>
<asrwt>0</asrwt>
<pdfrwt beam="2">  1        2 0.38899815E+00 0.20414949E+04</pdfrwt>
<pdfrwt beam="1">  1       -2 0.63396072E-01 0.20414949E+04</pdfrwt>
<totfact> 0.71506948E+00</totfact>
</mgrwt>
</event>
<event>
 4    1  0.7144937E-008  0.1675783E+04  0.7816531E-02  0.8775298E-01
         -2   -1    0    0    0  501 -0.00000000000E+00  0.00000000000E+00  0.37939065677E+03  0.37939065677E+03  0.00000000000E+00 0. -1.
          2   -1    0    0  501    0  0.00000000000E+00 -0.00000000000E+00 -0.18504983108E+04  0.18504983108E+04  0.00000000000E+00 0.  1.
    2000013    1    1    2    0    0 -0.62433025502E+01 -0.23839516042E+03 -0.63968624470E+03  0.10516984943E+04  0.80000000000E+03 0.  0.
   -2000013    1    1    2    0    0  0.62433025502E+01  0.23839516042E+03 -0.83142140937E+03  0.11781904733E+04  0.80000000000E+03 0.  0.
<mgrwt>
<rscale>  0 0.16757825E+04</rscale>
<asrwt>0</asrwt>
<pdfrwt beam="2">  1        2 0.28469205E+00 0.16757825E+04</pdfrwt>
<pdfrwt beam="1">  1       -2 0.58367793E-01 0.16757825E+04</pdfrwt>
<totfact> 0.21170351E+01</totfact>
</mgrwt>
</event>
<event>
 4    1  0.7144937E-008  0.2027473E+04  0.7816531E-02  0.8593883E-01
         -2   -1    0    0    0  501 -0.00000000000E+00  0.00000000000E+00  0.61648555783E+03  0.61648555783E+03  0.00000000000E+00 0. -1.
          2   -1    0    0  501    0  0.00000000000E+00 -0.00000000000E+00 -0.16669678624E+04  0.16669678624E+04  0.00000000000E+00 0.  1.
    2000013    1    1    2    0    0 -0.33129804981E+03  0.52320786977E+03 -0.59785400675E+03  0.11751316038E+04  0.80000000000E+03 0.  0.
   -2000013    1    1    2    0    0  0.33129804981E+03 -0.52320786977E+03 -0.45262829779E+03  0.11083218164E+04  0.80000000000E+03 0.  0.
<mgrwt>
<rscale>  0 0.20274729E+04</rscale>
<asrwt>0</asrwt>
<pdfrwt beam="2">  1        2 0.25645659E+00 0.20274729E+04</pdfrwt>
<pdfrwt beam="1">  1       -2 0.94843933E-01 0.20274729E+04</pdfrwt>
<totfact> 0.88739327E+00</totfact>
</mgrwt>
</event>
<event>
 4    1  0.7144937E-008  0.1877402E+04  0.7816531E-02  0.8666187E-01
         -2   -1    0    0    0  501 -0.00000000000E+00  0.00000000000E+00  0.70618537892E+03  0.70618537892E+03  0.00000000000E+00 0. -1.
          2   -1    0    0  501    0  0.00000000000E+00 -0.00000000000E+00 -0.12477733427E+04  0.12477733427E+04  0.00000000000E+00 0.  1.
    2000013    1    1    2    0    0 -0.41897470721E+01 -0.46097703309E+03 -0.94653500740E+02  0.92815767207E+03  0.80000000000E+03 0.  0.
   -2000013    1    1    2    0    0  0.41897470721E+01  0.46097703309E+03 -0.44693446306E+03  0.10258010496E+04  0.80000000000E+03 0.  0.
<mgrwt>
<rscale>  0 0.18774017E+04</rscale>
<asrwt>0</asrwt>
<pdfrwt beam="2">  1        2 0.19196513E+00 0.18774017E+04</pdfrwt>
<pdfrwt beam="1">  1       -2 0.10864391E+00 0.18774017E+04</pdfrwt>
<totfact> 0.11272149E+01</totfact>
</mgrwt>
</event>
<event>
 4    1  0.7144937E-008  0.2061073E+04  0.7816531E-02  0.8578587E-01
         -1   -1    0    0    0  501 -0.00000000000E+00  0.00000000000E+00  0.46138169898E+03  0.46138169898E+03  0.00000000000E+00 0. -1.
          1   -1    0    0  501    0  0.00000000000E+00 -0.00000000000E+00 -0.23017941508E+04  0.23017941508E+04  0.00000000000E+00 0.  1.
    2000013    1    1    2    0    0  0.19002636210E+03  0.54091601144E+03 -0.13297203035E+04  0.16543446543E+04  0.80000000000E+03 0.  0.
   -2000013    1    1    2    0    0 -0.19002636210E+03 -0.54091601144E+03 -0.51069214836E+03  0.11088311955E+04  0.80000000000E+03 0.  0.
<mgrwt>
<rscale>  0 0.20610732E+04</rscale>
<asrwt>0</asrwt>
<pdfrwt beam="2">  1        1 0.35412217E+00 0.20610732E+04</pdfrwt>
<pdfrwt beam="1">  1       -1 0.70981801E-01 0.20610732E+04</pdfrwt>
<totfact> 0.34337222E+00</totfact>
</mgrwt>
</event>
<event>
 4    1  0.7144937E-008  0.2112320E+04  0.7816531E-02  0.8555836E-01
          2   -1    0    0  501    0  0.00000000000E+00  0.00000000000E+00  0.23745602867E+04  0.23745602867E+04  0.00000000000E+00 0.  1.
         -2   -1    0    0    0  501 -0.00000000000E+00 -0.00000000000E+00 -0.46976034473E+03  0.46976034473E+03  0.00000000000E+00 0. -1.
    2000013    1    1    2    0    0 -0.67937367845E+03 -0.66874703489E+02  0.10833222835E+04  0.15098370742E+04  0.80000000000E+03 0.  0.
   -2000013    1    1    2    0    0  0.67937367845E+03  0.66874703489E+02  0.82147765849E+03  0.13344835572E+04  0.80000000000E+03 0.  0.
<mgrwt>
<rscale>  0 0.21123203E+04</rscale>
<asrwt>0</asrwt>
<pdfrwt beam="1">  1        2 0.36531696E+00 0.21123203E+04</pdfrwt>
<pdfrwt beam="2">  1       -2 0.72270823E-01 0.21123203E+04</pdfrwt>
<totfact> 0.65602443E+00</totfact>
</mgrwt>
</event>
<event>
 4    1  0.7144937E-008  0.3777964E+04  0.7816531E-02  0.8050900E-01
         -2   -1    0    0    0  501 -0.00000000000E+00  0.00000000000E+00  0.16143754375E+04  0.16143754375E+04  0.00000000000E+00 0. -1.
          2   -1    0    0  501    0  0.00000000000E+00 -0.00000000000E+00 -0.22102987864E+04  0.22102987864E+04  0.00000000000E+00 0.  1.
    2000013    1    1    2    0    0  0.41951740616E+03 -0.11674723732E+04 -0.14912058179E+04  0.20982567497E+04  0.80000000000E+03 0.  0.
   -2000013    1    1    2    0    0 -0.41951740616E+03  0.11674723732E+04  0.89528246892E+03  0.17264174742E+04  0.80000000000E+03 0.  0.
<mgrwt>
<rscale>  0 0.37779635E+04</rscale>
<asrwt>0</asrwt>
<pdfrwt beam="2">  1        2 0.34004597E+00 0.37779635E+04</pdfrwt>
<pdfrwt beam="1">  1       -2 0.24836545E+00 0.37779635E+04</pdfrwt>
<totfact> 0.26920004E-01</totfact>
</mgrwt>
</event>
<event>
 4    1  0.7144937E-008  0.4678697E+04  0.7816531E-02  0.7880078E-01
          2   -1    0    0  501    0  0.00000000000E+00  0.00000000000E+00  0.24999902213E+04  0.24999902213E+04  0.00000000000E+00 0.  1.
         -2   -1    0    0    0  501 -0.00000000000E+00 -0.00000000000E+00 -0.21890286937E+04  0.21890286937E+04  0.00000000000E+00 0. -1.
    2000013    1    1    2    0    0  0.18029520370E+04 -0.98282630675E+03 -0.63108626006E+03  0.22923467156E+04  0.80000000000E+03 0.  0.
   -2000013    1    1    2    0    0 -0.18029520370E+04  0.98282630675E+03  0.94204778757E+03  0.23966721994E+04  0.80000000000E+03 0.  0.
<mgrwt>
<rscale>  0 0.46786965E+04</rscale>
<asrwt>0</asrwt>
<pdfrwt beam="1">  1        2 0.38461388E+00 0.46786965E+04</pdfrwt>
<pdfrwt beam="2">  1       -2 0.33677365E+00 0.46786965E+04</pdfrwt>
<totfact> 0.48972941E-02</totfact>
</mgrwt>
</event>
<event>
 4    1  0.7144937E-008  0.1879379E+04  0.7816531E-02  0.8665189E-01
         -2   -1    0    0    0  501 -0.00000000000E+00  0.00000000000E+00  0.20773147655E+03  0.20773147655E+03  0.00000000000E+00 0. -1.
          2   -1    0    0  501    0  0.00000000000E+00 -0.00000000000E+00 -0.42507602718E+04  0.42507602718E+04  0.00000000000E+00 0.  1.
    2000013    1    1    2    0    0  0.22211761509E+02 -0.46546120566E+03 -0.24030763883E+04  0.25752521477E+04  0.80000000000E+03 0.  0.
   -2000013    1    1    2    0    0 -0.22211761509E+02  0.46546120566E+03 -0.16399524070E+04  0.18832396006E+04  0.80000000000E+03 0.  0.
<mgrwt>
<rscale>  0 0.18793794E+04</rscale>
<asrwt>0</asrwt>
<pdfrwt beam="2">  1        2 0.65396312E+00 0.18793794E+04</pdfrwt>
<pdfrwt beam="1">  1       -2 0.31958689E-01 0.18793794E+04</pdfrwt>
<totfact> 0.18224149E+00</totfact>
</mgrwt>
</event>
<event>
 4    1  0.7144937E-008  0.2465397E+04  0.7816531E-02  0.8415418E-01
         -2   -1    0    0    0  501 -0.00000000000E+00  0.00000000000E+00  0.89390768862E+03  0.89390768862E+03  0.00000000000E+00 0. -1.
          2   -1    0    0  501    0  0.00000000000E+00 -0.00000000000E+00 -0.16998911325E+04  0.16998911325E+04  0.00000000000E+00 0.  1.
    2000013    1    1    2    0    0 -0.18349609404E+03  0.91944777930E+03 -0.37968585269E+03  0.12896574670E+04  0.80000000000E+03 0.  0.
   -2000013    1    1    2    0    0  0.18349609404E+03 -0.91944777930E+03 -0.42629759121E+03  0.13041413542E+04  0.80000000000E+03 0.  0.
<mgrwt>
<rscale>  0 0.24653971E+04</rscale>
<asrwt>0</asrwt>
<pdfrwt beam="2">  1        2 0.26152171E+00 0.24653971E+04</pdfrwt>
<pdfrwt beam="1">  1       -2 0.13752426E+00 0.24653971E+04</pdfrwt>
<totfact> 0.33005772E+00</totfact>
</mgrwt>
</event>
<event>
 4    1  0.7144937E-008  0.2339620E+04  0.7816531E-02  0.8462462E-01
          1   -1    0    0  501    0  0.00000000000E+00  0.00000000000E+00  0.30644120040E+04  0.30644120040E+04  0.00000000000E+00 0. -1.
         -1   -1    0    0    0  501 -0.00000000000E+00 -0.00000000000E+00 -0.44656360241E+03  0.44656360241E+03  0.00000000000E+00 0.  1.
    2000013    1    1    2    0    0  0.83307542479E+03 -0.16397414385E+03  0.11785075222E+04  0.16582467136E+04  0.80000000000E+03 0.  0.
   -2000013    1    1    2    0    0 -0.83307542479E+03  0.16397414385E+03  0.14393408795E+04  0.18527288929E+04  0.80000000000E+03 0.  0.
<mgrwt>
<rscale>  0 0.23396195E+04</rscale>
<asrwt>0</asrwt>
<pdfrwt beam="1">  1        1 0.47144799E+00 0.23396195E+04</pdfrwt>
<pdfrwt beam="2">  1       -1 0.68702094E-01 0.23396195E+04</pdfrwt>
<totfact> 0.10360472E+00</totfact>
</mgrwt>
</event>
<event>
 4    1  0.7144937E-008  0.2905948E+04  0.7816531E-02  0.8271110E-01
         -2   -1    0    0    0  501 -0.00000000000E+00  0.00000000000E+00  0.86859445147E+03  0.86859445147E+03  0.00000000000E+00 0. -1.
          2   -1    0    0  501    0  0.00000000000E+00 -0.00000000000E+00 -0.24305163894E+04  0.24305163894E+04  0.00000000000E+00 0.  1.
    2000013    1    1    2    0    0 -0.38254763998E+03  0.11437424335E+04 -0.92742558961E+03  0.17188972265E+04  0.80000000000E+03 0.  0.
   -2000013    1    1    2    0    0  0.38254763998E+03 -0.11437424335E+04 -0.63449634829E+03  0.15802136143E+04  0.80000000000E+03 0.  0.
<mgrwt>
<rscale>  0 0.29059477E+04</rscale>
<asrwt>0</asrwt>
<pdfrwt beam="2">  1        2 0.37392559E+00 0.29059477E+04</pdfrwt>
<pdfrwt beam="1">  1       -2 0.13362992E+00 0.29059477E+04</pdfrwt>
<totfact> 0.13335060E+00</totfact>
</mgrwt>
</event>
<event>
 4    1  0.7144937E-008  0.2539808E+04  0.7816531E-02  0.8388939E-01
         -1   -1    0    0    0  501 -0.00000000000E+00  0.00000000000E+00  0.19549383123E+04  0.19549383123E+04  0.00000000000E+00 0.  1.
          1   -1    0    0  501    0  0.00000000000E+00 -0.00000000000E+00 -0.82491440776E+03  0.82491440776E+03  0.00000000000E+00 0. -1.
    2000013    1    1    2    0    0 -0.98284817326E+03  0.79437807791E+02  0.54436411844E+03  0.13815329133E+04  0.80000000000E+03 0.  0.
   -2000013    1    1    2    0    0  0.98284817326E+03 -0.79437807791E+02  0.58565978607E+03  0.13983198068E+04  0.80000000000E+03 0.  0.
<mgrwt>
<rscale>  0 0.25398085E+04</rscale>
<asrwt>0</asrwt>
<pdfrwt beam="2">  1        1 0.12690991E+00 0.25398085E+04</pdfrwt>
<pdfrwt beam="1">  1       -1 0.30075974E+00 0.25398085E+04</pdfrwt>
<totfact> 0.60822374E-01</totfact>
</mgrwt>
</event>
<event>
 4    1  0.7144937E-008  0.1748374E+04  0.7816531E-02  0.8734246E-01
          2   -1    0    0  501    0  0.00000000000E+00  0.00000000000E+00  0.20387490333E+04  0.20387490333E+04  0.00000000000E+00 0.  1.
         -2   -1    0    0    0  501 -0.00000000000E+00 -0.00000000000E+00 -0.37483927890E+03  0.37483927890E+03  0.00000000000E+00 0. -1.
    2000013    1    1    2    0    0 -0.30690812907E+03 -0.16142430413E+03  0.91874730520E+03  0.12666282077E+04  0.80000000000E+03 0.  0.
   -2000013    1    1    2    0    0  0.30690812907E+03  0.16142430413E+03  0.74516244915E+03  0.11469601045E+04  0.80000000000E+03 0.  0.
<mgrwt>
<rscale>  0 0.17483744E+04</rscale>
<asrwt>0</asrwt>
<pdfrwt beam="1">  1        2 0.31365369E+00 0.17483744E+04</pdfrwt>
<pdfrwt beam="2">  1       -2 0.57667583E-01 0.17483744E+04</pdfrwt>
<totfact> 0.16970583E+01</totfact>
</mgrwt>
</event>
<event>
 4    1  0.7144937E-008  0.1854147E+04  0.7816531E-02  0.8678023E-01
          1   -1    0    0  501    0  0.00000000000E+00  0.00000000000E+00  0.11845402057E+04  0.11845402057E+04  0.00000000000E+00 0.  1.
         -1   -1    0    0    0  501 -0.00000000000E+00 -0.00000000000E+00 -0.72556883340E+03  0.72556883340E+03  0.00000000000E+00 0. -1.
    2000013    1    1    2    0    0  0.44213588430E+03 -0.10406809262E+03  0.11134601211E+03  0.92666727713E+03  0.80000000000E+03 0.  0.
   -2000013    1    1    2    0    0 -0.44213588430E+03  0.10406809262E+03  0.34762536015E+03  0.98344176193E+03  0.80000000000E+03 0.  0.
<mgrwt>
<rscale>  0 0.18541472E+04</rscale>
<asrwt>0</asrwt>
<pdfrwt beam="1">  1        1 0.18223695E+00 0.18541472E+04</pdfrwt>
<pdfrwt beam="2">  1       -1 0.11162597E+00 0.18541472E+04</pdfrwt>
<totfact> 0.75942183E+00</totfact>
</mgrwt>
</event>
<event>
 4    1  0.7144937E-008  0.2561834E+04  0.7816531E-02  0.8381282E-01
          2   -1    0    0  501    0  0.00000000000E+00  0.00000000000E+00  0.33148913328E+04  0.33148913328E+04  0.00000000000E+00 0.  1.
         -2   -1    0    0    0  501 -0.00000000000E+00 -0.00000000000E+00 -0.49496278989E+03  0.49496278989E+03  0.00000000000E+00 0. -1.
    2000013    1    1    2    0    0  0.56377532636E+03  0.27001958010E+03  0.24846097150E+03  0.10452205732E+04  0.80000000000E+03 0.  0.
   -2000013    1    1    2    0    0 -0.56377532636E+03 -0.27001958010E+03  0.25714675714E+04  0.27646335495E+04  0.80000000000E+03 0.  0.
<mgrwt>
<rscale>  0 0.25618336E+04</rscale>
<asrwt>0</asrwt>
<pdfrwt beam="1">  1        2 0.50998327E+00 0.25618336E+04</pdfrwt>
<pdfrwt beam="2">  1       -2 0.76148124E-01 0.25618336E+04</pdfrwt>
<totfact> 0.14919727E+00</totfact>
</mgrwt>
</event>
<event>
 4    1  0.7144937E-008  0.2411214E+04  0.7816531E-02  0.8435317E-01
         -2   -1    0    0    0  501 -0.00000000000E+00  0.00000000000E+00  0.68021034395E+03  0.68021034395E+03  0.00000000000E+00 0. -1.
          2   -1    0    0  501    0  0.00000000000E+00 -0.00000000000E+00 -0.21368214024E+04  0.21368214024E+04  0.00000000000E+00 0.  1.
    2000013    1    1    2    0    0 -0.79815032297E+03  0.38844828498E+03 -0.91505895459E+03  0.15050810272E+04  0.80000000000E+03 0.  0.
   -2000013    1    1    2    0    0  0.79815032297E+03 -0.38844828498E+03 -0.54155210385E+03  0.13119507191E+04  0.80000000000E+03 0.  0.
<mgrwt>
<rscale>  0 0.24112138E+04</rscale>
<asrwt>0</asrwt>
<pdfrwt beam="2">  1        2 0.32874176E+00 0.24112138E+04</pdfrwt>
<pdfrwt beam="1">  1       -2 0.10464774E+00 0.24112138E+04</pdfrwt>
<totfact> 0.37301601E+00</totfact>
</mgrwt>
</event>
<event>
 4    1  0.7144937E-008  0.1896433E+04  0.7816531E-02  0.8656634E-01
         -2   -1    0    0    0  501 -0.00000000000E+00  0.00000000000E+00  0.83188172418E+03  0.83188172418E+03  0.00000000000E+00 0. -1.
          2   -1    0    0  501    0  0.00000000000E+00 -0.00000000000E+00 -0.10808202622E+04  0.10808202622E+04  0.00000000000E+00 0.  1.
    2000013    1    1    2    0    0  0.15602444377E+03  0.47171938467E+03 -0.23610675739E+03  0.97088063417E+03  0.80000000000E+03 0.  0.
   -2000013    1    1    2    0    0 -0.15602444377E+03 -0.47171938467E+03 -0.12831780665E+02  0.94182135223E+03  0.80000000000E+03 0.  0.
<mgrwt>
<rscale>  0 0.18964331E+04</rscale>
<asrwt>0</asrwt>
<pdfrwt beam="2">  1        2 0.16628004E+00 0.18964331E+04</pdfrwt>
<pdfrwt beam="1">  1       -2 0.12798181E+00 0.18964331E+04</pdfrwt>
<totfact> 0.94788222E+00</totfact>
</mgrwt>
</event>
<event>
 4    1  0.7144937E-008  0.1777119E+04  0.7816531E-02  0.8718563E-01
          2   -1    0    0  501    0  0.00000000000E+00  0.00000000000E+00  0.85079562038E+03  0.85079562038E+03  0.00000000000E+00 0.  1.
         -2   -1    0    0    0  501 -0.00000000000E+00 -0.00000000000E+00 -0.92800009525E+03  0.92800009525E+03  0.00000000000E+00 0. -1.
    2000013    1    1    2    0    0 -0.34086734587E+03  0.18069097345E+03 -0.12145480955E+02  0.88824956407E+03  0.80000000000E+03 0.  0.
   -2000013    1    1    2    0    0  0.34086734587E+03 -0.18069097345E+03 -0.65058993918E+02  0.89054615156E+03  0.80000000000E+03 0.  0.
<mgrwt>
<rscale>  0 0.17771195E+04</rscale>
<asrwt>0</asrwt>
<pdfrwt beam="1">  1        2 0.13089163E+00 0.17771195E+04</pdfrwt>
<pdfrwt beam="2">  1       -2 0.14276924E+00 0.17771195E+04</pdfrwt>
<totfact> 0.10228591E+01</totfact>
</mgrwt>
</event>
<event>
 4    1  0.7144937E-008  0.2081308E+04  0.7816531E-02  0.8569522E-01
          2   -1    0    0  501    0  0.00000000000E+00  0.00000000000E+00  0.10598277268E+04  0.10598277268E+04  0.00000000000E+00 0.  1.
         -2   -1    0    0    0  501 -0.00000000000E+00 -0.00000000000E+00 -0.10218269159E+04  0.10218269159E+04  0.00000000000E+00 0. -1.
    2000013    1    1    2    0    0  0.34287957166E+03  0.18344718191E+03  0.55922117794E+03  0.10506891049E+04  0.80000000000E+03 0.  0.
   -2000013    1    1    2    0    0 -0.34287957166E+03 -0.18344718191E+03 -0.52122036708E+03  0.10309655379E+04  0.80000000000E+03 0.  0.
<mgrwt>
<rscale>  0 0.20813078E+04</rscale>
<asrwt>0</asrwt>
<pdfrwt beam="1">  1        2 0.16305042E+00 0.20813078E+04</pdfrwt>
<pdfrwt beam="2">  1       -2 0.15720414E+00 0.20813078E+04</pdfrwt>
<totfact> 0.56280699E+00</totfact>
</mgrwt>
</event>
<event>
 4    1  0.7144937E-008  0.1825538E+04  0.7816531E-02  0.8692835E-01
          2   -1    0    0  501    0  0.00000000000E+00  0.00000000000E+00  0.24706344339E+04  0.24706344339E+04  0.00000000000E+00 0.  1.
         -2   -1    0    0    0  501 -0.00000000000E+00 -0.00000000000E+00 -0.33722001039E+03  0.33722001039E+03  0.00000000000E+00 0. -1.
    2000013    1    1    2    0    0 -0.42225431285E+03  0.95818305827E+02  0.11824996231E+04  0.14919065692E+04  0.80000000000E+03 0.  0.
   -2000013    1    1    2    0    0  0.42225431285E+03 -0.95818305827E+02  0.95091480040E+03  0.13159478751E+04  0.80000000000E+03 0.  0.
<mgrwt>
<rscale>  0 0.18255381E+04</rscale>
<asrwt>0</asrwt>
<pdfrwt beam="1">  1        2 0.38009759E+00 0.18255381E+04</pdfrwt>
<pdfrwt beam="2">  1       -2 0.51880003E-01 0.18255381E+04</pdfrwt>
<totfact> 0.11977717E+01</totfact>
</mgrwt>
</event>
<event>
 4    1  0.7144937E-008  0.1918396E+04  0.7816531E-02  0.8645754E-01
          2   -1    0    0  501    0  0.00000000000E+00  0.00000000000E+00  0.16938919877E+04  0.16938919877E+04  0.00000000000E+00 0.  1.
         -2   -1    0    0    0  501 -0.00000000000E+00 -0.00000000000E+00 -0.54316354851E+03  0.54316354851E+03  0.00000000000E+00 0. -1.
    2000013    1    1    2    0    0  0.41959240093E+03 -0.29024843593E+03  0.73927782017E+03  0.12028439769E+04  0.80000000000E+03 0.  0.
   -2000013    1    1    2    0    0 -0.41959240093E+03  0.29024843593E+03  0.41145061905E+03  0.10342115593E+04  0.80000000000E+03 0.  0.
<mgrwt>
<rscale>  0 0.19183956E+04</rscale>
<asrwt>0</asrwt>
<pdfrwt beam="1">  1        2 0.26059876E+00 0.19183956E+04</pdfrwt>
<pdfrwt beam="2">  1       -2 0.83563624E-01 0.19183956E+04</pdfrwt>
<totfact> 0.11577262E+01</totfact>
</mgrwt>
</event>
<event>
 4    1  0.7144937E-008  0.2422432E+04  0.7816531E-02  0.8431153E-01
          2   -1    0    0  501    0  0.00000000000E+00  0.00000000000E+00  0.26185100195E+04  0.26185100195E+04  0.00000000000E+00 0.  1.
         -2   -1    0    0    0  501 -0.00000000000E+00 -0.00000000000E+00 -0.56025924224E+03  0.56025924224E+03  0.00000000000E+00 0. -1.
    2000013    1    1    2    0    0  0.76037724080E+03 -0.49728678377E+03  0.10812314444E+04  0.16231232640E+04  0.80000000000E+03 0.  0.
   -2000013    1    1    2    0    0 -0.76037724080E+03  0.49728678377E+03  0.97701933291E+03  0.15556459978E+04  0.80000000000E+03 0.  0.
<mgrwt>
<rscale>  0 0.24224322E+04</rscale>
<asrwt>0</asrwt>
<pdfrwt beam="1">  1        2 0.40284769E+00 0.24224322E+04</pdfrwt>
<pdfrwt beam="2">  1       -2 0.86193731E-01 0.24224322E+04</pdfrwt>
<totfact> 0.31089331E+00</totfact>
</mgrwt>
</event>
<event>
 4    1  0.7144937E-008  0.2698321E+04  0.7816531E-02  0.8335550E-01
          2   -1    0    0  501    0  0.00000000000E+00  0.00000000000E+00  0.20589912487E+04  0.20589912487E+04  0.00000000000E+00 0.  1.
         -2   -1    0    0    0  501 -0.00000000000E+00 -0.00000000000E+00 -0.88404163203E+03  0.88404163203E+03  0.00000000000E+00 0. -1.
    2000013    1    1    2    0    0  0.98628157649E+03  0.31576696000E+03  0.94553680879E+03  0.16144658491E+04  0.80000000000E+03 0.  0.
   -2000013    1    1    2    0    0 -0.98628157649E+03 -0.31576696000E+03  0.22941280791E+03  0.13285670317E+04  0.80000000000E+03 0.  0.
<mgrwt>
<rscale>  0 0.26983209E+04</rscale>
<asrwt>0</asrwt>
<pdfrwt beam="1">  1        2 0.31676788E+00 0.26983209E+04</pdfrwt>
<pdfrwt beam="2">  1       -2 0.13600641E+00 0.26983209E+04</pdfrwt>
<totfact> 0.21037761E+00</totfact>
</mgrwt>
</event>
<event>
 4    1  0.7144937E-008  0.1699888E+04  0.7816531E-02  0.8761428E-01
          2   -1    0    0  501    0  0.00000000000E+00  0.00000000000E+00  0.23946920190E+04  0.23946920190E+04  0.00000000000E+00 0.  1.
         -2   -1    0    0    0  501 -0.00000000000E+00 -0.00000000000E+00 -0.30166915435E+03  0.30166915435E+03  0.00000000000E+00 0. -1.
    2000013    1    1    2    0    0  0.22683064505E+03  0.17379799530E+03  0.10898594387E+04  0.13818290346E+04  0.80000000000E+03 0.  0.
   -2000013    1    1    2    0    0 -0.22683064505E+03 -0.17379799530E+03  0.10031634260E+04  0.13145321388E+04  0.80000000000E+03 0.  0.
<mgrwt>
<rscale>  0 0.16998879E+04</rscale>
<asrwt>0</asrwt>
<pdfrwt beam="1">  1        2 0.36841414E+00 0.16998879E+04</pdfrwt>
<pdfrwt beam="2">  1       -2 0.46410641E-01 0.16998879E+04</pdfrwt>
<totfact> 0.16787810E+01</totfact>
</mgrwt>
</event>
<event>
 4    1  0.7144937E-008  0.1768546E+04  0.7816531E-02  0.8723208E-01
          2   -1    0    0  501    0  0.00000000000E+00  0.00000000000E+00  0.63569646548E+03  0.63569646548E+03  0.00000000000E+00 0.  1.
         -2   -1    0    0    0  501 -0.00000000000E+00 -0.00000000000E+00 -0.12300502254E+04  0.12300502254E+04  0.00000000000E+00 0. -1.
    2000013    1    1    2    0    0 -0.32652722417E+03  0.13342353446E+03 -0.43680171422E+03  0.97735234446E+03  0.80000000000E+03 0.  0.
   -2000013    1    1    2    0    0  0.32652722417E+03 -0.13342353446E+03 -0.15755204572E+03  0.88839434644E+03  0.80000000000E+03 0.  0.
<mgrwt>
<rscale>  0 0.17685458E+04</rscale>
<asrwt>0</asrwt>
<pdfrwt beam="1">  1        2 0.97799457E-01 0.17685458E+04</pdfrwt>
<pdfrwt beam="2">  1       -2 0.18923849E+00 0.17685458E+04</pdfrwt>
<totfact> 0.68543484E+00</totfact>
</mgrwt>
</event>
<event>
 4    1  0.7144937E-008  0.2683956E+04  0.7816531E-02  0.8340229E-01
          2   -1    0    0  501    0  0.00000000000E+00  0.00000000000E+00  0.25064997201E+04  0.25064997201E+04  0.00000000000E+00 0.  1.
         -2   -1    0    0    0  501 -0.00000000000E+00 -0.00000000000E+00 -0.71849399425E+03  0.71849399425E+03  0.00000000000E+00 0. -1.
    2000013    1    1    2    0    0  0.10313256942E+04  0.25831089052E+03  0.68399121301E+03  0.14960618915E+04  0.80000000000E+03 0.  0.
   -2000013    1    1    2    0    0 -0.10313256942E+04 -0.25831089052E+03  0.11040145128E+04  0.17289318229E+04  0.80000000000E+03 0.  0.
<mgrwt>
<rscale>  0 0.26839560E+04</rscale>
<asrwt>0</asrwt>
<pdfrwt beam="1">  1        2 0.38561534E+00 0.26839560E+04</pdfrwt>
<pdfrwt beam="2">  1       -2 0.11053754E+00 0.26839560E+04</pdfrwt>
<totfact> 0.19678842E+00</totfact>
</mgrwt>
</event>
<event>
 4    1  0.7144937E-008  0.2056506E+04  0.7816531E-02  0.8580649E-01
         -2   -1    0    0    0  501 -0.00000000000E+00  0.00000000000E+00  0.38711402249E+03  0.38711402249E+03  0.00000000000E+00 0. -1.
          2   -1    0    0  501    0  0.00000000000E+00 -0.00000000000E+00 -0.27312472066E+04  0.27312472066E+04  0.00000000000E+00 0.  1.
    2000013    1    1    2    0    0 -0.31375768122E+03 -0.55867501896E+03 -0.10475564304E+04  0.14655838885E+04  0.80000000000E+03 0.  0.
   -2000013    1    1    2    0    0  0.31375768122E+03  0.55867501896E+03 -0.12965767537E+04  0.16527773406E+04  0.80000000000E+03 0.  0.
<mgrwt>
<rscale>  0 0.20565059E+04</rscale>
<asrwt>0</asrwt>
<pdfrwt beam="2">  1        2 0.42019188E+00 0.20565059E+04</pdfrwt>
<pdfrwt beam="1">  1       -2 0.59556003E-01 0.20565059E+04</pdfrwt>
<totfact> 0.61956377E+00</totfact>
</mgrwt>
</event>
<event>
 4    1  0.7144937E-008  0.2039665E+04  0.7816531E-02  0.8588297E-01
          2   -1    0    0  501    0  0.00000000000E+00  0.00000000000E+00  0.14293549049E+04  0.14293549049E+04  0.00000000000E+00 0.  1.
         -2   -1    0    0    0  501 -0.00000000000E+00 -0.00000000000E+00 -0.72764149812E+03  0.72764149812E+03  0.00000000000E+00 0. -1.
    2000013    1    1    2    0    0  0.43206834743E+03  0.45558231461E+03  0.43153167031E+03  0.11047433569E+04  0.80000000000E+03 0.  0.
   -2000013    1    1    2    0    0 -0.43206834743E+03 -0.45558231461E+03  0.27018173646E+03  0.10522530461E+04  0.80000000000E+03 0.  0.
<mgrwt>
<rscale>  0 0.20396646E+04</rscale>
<asrwt>0</asrwt>
<pdfrwt beam="1">  1        2 0.21990075E+00 0.20396646E+04</pdfrwt>
<pdfrwt beam="2">  1       -2 0.11194485E+00 0.20396646E+04</pdfrwt>
<totfact> 0.81193807E+00</totfact>
</mgrwt>
</event>
<event>
 4    1  0.7144937E-008  0.1695049E+04  0.7816531E-02  0.8764193E-01
          2   -1    0    0  501    0  0.00000000000E+00  0.00000000000E+00  0.13250963488E+04  0.13250963488E+04  0.00000000000E+00 0.  1.
         -2   -1    0    0    0  501 -0.00000000000E+00 -0.00000000000E+00 -0.54207204663E+03  0.54207204663E+03  0.00000000000E+00 0. -1.
    2000013    1    1    2    0    0  0.10978542530E+03  0.25721371621E+03  0.38129957835E+03  0.92930140636E+03  0.80000000000E+03 0.  0.
   -2000013    1    1    2    0    0 -0.10978542530E+03 -0.25721371621E+03  0.40172472379E+03  0.93786698903E+03  0.80000000000E+03 0.  0.
<mgrwt>
<rscale>  0 0.16950489E+04</rscale>
<asrwt>0</asrwt>
<pdfrwt beam="1">  1        2 0.20386098E+00 0.16950489E+04</pdfrwt>
<pdfrwt beam="2">  1       -2 0.83395700E-01 0.16950489E+04</pdfrwt>
<totfact> 0.19147287E+01</totfact>
</mgrwt>
</event>
<event>
 4    1  0.7144937E-008  0.1828702E+04  0.7816531E-02  0.8691183E-01
          2   -1    0    0  501    0  0.00000000000E+00  0.00000000000E+00  0.16835491231E+04  0.16835491231E+04  0.00000000000E+00 0.  1.
         -2   -1    0    0    0  501 -0.00000000000E+00 -0.00000000000E+00 -0.49659266270E+03  0.49659266270E+03  0.00000000000E+00 0. -1.
    2000013    1    1    2    0    0 -0.28060710800E+03  0.30179600345E+03  0.78651182796E+03  0.11951661107E+04  0.80000000000E+03 0.  0.
   -2000013    1    1    2    0    0  0.28060710800E+03 -0.30179600345E+03  0.40044463240E+03  0.98497567502E+03  0.80000000000E+03 0.  0.
<mgrwt>
<rscale>  0 0.18287024E+04</rscale>
<asrwt>0</asrwt>
<pdfrwt beam="1">  1        2 0.25900755E+00 0.18287024E+04</pdfrwt>
<pdfrwt beam="2">  1       -2 0.76398872E-01 0.18287024E+04</pdfrwt>
<totfact> 0.14456713E+01</totfact>
</mgrwt>
</event>
<event>
 4    1  0.7144937E-008  0.1726074E+04  0.7816531E-02  0.8746632E-01
         -2   -1    0    0    0  501 -0.00000000000E+00  0.00000000000E+00  0.44974414598E+03  0.44974414598E+03  0.00000000000E+00 0. -1.
          2   -1    0    0  501    0  0.00000000000E+00 -0.00000000000E+00 -0.16561250253E+04  0.16561250253E+04  0.00000000000E+00 0.  1.
    2000013    1    1    2    0    0 -0.20421820652E+03  0.22446530822E+03 -0.74091273236E+03  0.11318310066E+04  0.80000000000E+03 0.  0.
   -2000013    1    1    2    0    0  0.20421820652E+03 -0.22446530822E+03 -0.46546814694E+03  0.97403816469E+03  0.80000000000E+03 0.  0.
<mgrwt>
<rscale>  0 0.17260736E+04</rscale>
<asrwt>0</asrwt>
<pdfrwt beam="2">  1        2 0.25478846E+00 0.17260736E+04</pdfrwt>
<pdfrwt beam="1">  1       -2 0.69191407E-01 0.17260736E+04</pdfrwt>
<totfact> 0.18782923E+01</totfact>
</mgrwt>
</event>
<event>
 4    1  0.7144937E-008  0.2043776E+04  0.7816531E-02  0.8586423E-01
         -2   -1    0    0    0  501 -0.00000000000E+00  0.00000000000E+00  0.38241971600E+03  0.38241971600E+03  0.00000000000E+00 0. -1.
          2   -1    0    0  501    0  0.00000000000E+00 -0.00000000000E+00 -0.27306509856E+04  0.27306509856E+04  0.00000000000E+00 0.  1.
    2000013    1    1    2    0    0 -0.48701869566E+03  0.38814326193E+03 -0.97897781937E+03  0.14093402614E+04  0.80000000000E+03 0.  0.
   -2000013    1    1    2    0    0  0.48701869566E+03 -0.38814326193E+03 -0.13692534502E+04  0.17037304401E+04  0.80000000000E+03 0.  0.
<mgrwt>
<rscale>  0 0.20437757E+04</rscale>
<asrwt>0</asrwt>
<pdfrwt beam="2">  1        2 0.42010017E+00 0.20437757E+04</pdfrwt>
<pdfrwt beam="1">  1       -2 0.58833800E-01 0.20437757E+04</pdfrwt>
<totfact> 0.63694300E+00</totfact>
</mgrwt>
</event>
<event>
 4    1  0.7144937E-008  0.3806491E+04  0.7816531E-02  0.8044763E-01
         -1   -1    0    0    0  501 -0.00000000000E+00  0.00000000000E+00  0.23770611703E+04  0.23770611703E+04  0.00000000000E+00 0. -1.
          1   -1    0    0  501    0  0.00000000000E+00 -0.00000000000E+00 -0.15238747132E+04  0.15238747132E+04  0.00000000000E+00 0.  1.
    2000013    1    1    2    0    0  0.16449219688E+04 -0.41336513444E+03  0.75978212625E+03  0.20233407763E+04  0.80000000000E+03 0.  0.
   -2000013    1    1    2    0    0 -0.16449219688E+04  0.41336513444E+03  0.93404330865E+02  0.18775951072E+04  0.80000000000E+03 0.  0.
<mgrwt>
<rscale>  0 0.38064910E+04</rscale>
<asrwt>0</asrwt>
<pdfrwt beam="2">  1        1 0.23444226E+00 0.38064910E+04</pdfrwt>
<pdfrwt beam="1">  1       -1 0.36570172E+00 0.38064910E+04</pdfrwt>
<totfact> 0.61111799E-02</totfact>
</mgrwt>
</event>
<event>
 4    1  0.7144937E-008  0.2021465E+04  0.7816531E-02  0.8596650E-01
          2   -1    0    0  501    0  0.00000000000E+00  0.00000000000E+00  0.68234133303E+03  0.68234133303E+03  0.00000000000E+00 0.  1.
         -2   -1    0    0    0  501 -0.00000000000E+00 -0.00000000000E+00 -0.14971690641E+04  0.14971690641E+04  0.00000000000E+00 0. -1.
    2000013    1    1    2    0    0  0.32129633709E+03  0.46803733121E+03 -0.14488103856E+03  0.99160516082E+03  0.80000000000E+03 0.  0.
   -2000013    1    1    2    0    0 -0.32129633709E+03 -0.46803733121E+03 -0.66994669249E+03  0.11879052363E+04  0.80000000000E+03 0.  0.
<mgrwt>
<rscale>  0 0.20214651E+04</rscale>
<asrwt>0</asrwt>
<pdfrwt beam="1">  1        2 0.10497559E+00 0.20214651E+04</pdfrwt>
<pdfrwt beam="2">  1       -2 0.23033370E+00 0.20214651E+04</pdfrwt>
<totfact> 0.33379733E+00</totfact>
</mgrwt>
</event>
<event>
 4    1  0.7144937E-008  0.1841646E+04  0.7816531E-02  0.8684461E-01
          2   -1    0    0  501    0  0.00000000000E+00  0.00000000000E+00  0.12532860581E+04  0.12532860581E+04  0.00000000000E+00 0.  1.
         -2   -1    0    0    0  501 -0.00000000000E+00 -0.00000000000E+00 -0.67655347580E+03  0.67655347580E+03  0.00000000000E+00 0. -1.
    2000013    1    1    2    0    0 -0.12649524335E+01  0.45384281142E+03  0.24220991497E+03  0.95112593304E+03  0.80000000000E+03 0.  0.
   -2000013    1    1    2    0    0  0.12649524335E+01 -0.45384281142E+03  0.33452266735E+03  0.97871360088E+03  0.80000000000E+03 0.  0.
<mgrwt>
<rscale>  0 0.18416460E+04</rscale>
<asrwt>0</asrwt>
<pdfrwt beam="1">  1        2 0.19281324E+00 0.18416460E+04</pdfrwt>
<pdfrwt beam="2">  1       -2 0.10408515E+00 0.18416460E+04</pdfrwt>
<totfact> 0.12440124E+01</totfact>
</mgrwt>
</event>
<event>
 4    1  0.7144937E-008  0.1987067E+04  0.7816531E-02  0.8612691E-01
          2   -1    0    0  501    0  0.00000000000E+00  0.00000000000E+00  0.38663084418E+04  0.38663084418E+04  0.00000000000E+00 0.  1.
         -2   -1    0    0    0  501 -0.00000000000E+00 -0.00000000000E+00 -0.25531045776E+03  0.25531045776E+03  0.00000000000E+00 0. -1.
    2000013    1    1    2    0    0 -0.57169376360E+03 -0.14023478004E+03  0.17542936222E+04  0.20159478331E+04  0.80000000000E+03 0.  0.
   -2000013    1    1    2    0    0  0.57169376360E+03  0.14023478004E+03  0.18567043618E+04  0.21056710664E+04  0.80000000000E+03 0.  0.
<mgrwt>
<rscale>  0 0.19870672E+04</rscale>
<asrwt>0</asrwt>
<pdfrwt beam="1">  1        2 0.59481664E+00 0.19870672E+04</pdfrwt>
<pdfrwt beam="2">  1       -2 0.39278535E-01 0.19870672E+04</pdfrwt>
<totfact> 0.25125873E+00</totfact>
</mgrwt>
</event>
<event>
 4    1  0.7144937E-008  0.1786040E+04  0.7816531E-02  0.8713758E-01
         -2   -1    0    0    0  501 -0.00000000000E+00  0.00000000000E+00  0.18742699437E+03  0.18742699437E+03  0.00000000000E+00 0. -1.
          2   -1    0    0  501    0  0.00000000000E+00 -0.00000000000E+00 -0.42549108729E+04  0.42549108729E+04  0.00000000000E+00 0.  1.
    2000013    1    1    2    0    0 -0.47470869495E+02 -0.36691724933E+03 -0.23907596702E+04  0.25480607434E+04  0.80000000000E+03 0.  0.
   -2000013    1    1    2    0    0  0.47470869495E+02  0.36691724933E+03 -0.16767242083E+04  0.18942771239E+04  0.80000000000E+03 0.  0.
<mgrwt>
<rscale>  0 0.17860405E+04</rscale>
<asrwt>0</asrwt>
<pdfrwt beam="2">  1        2 0.65460168E+00 0.17860405E+04</pdfrwt>
<pdfrwt beam="1">  1       -2 0.28834922E-01 0.17860405E+04</pdfrwt>
<totfact> 0.22129546E+00</totfact>
</mgrwt>
</event>
<event>
 4    1  0.7144937E-008  0.1999855E+04  0.7816531E-02  0.8606689E-01
          2   -1    0    0  501    0  0.00000000000E+00  0.00000000000E+00  0.15330002808E+04  0.15330002808E+04  0.00000000000E+00 0. -1.
         -2   -1    0    0    0  501 -0.00000000000E+00 -0.00000000000E+00 -0.65222090951E+03  0.65222090951E+03  0.00000000000E+00 0.  1.
    2000013    1    1    2    0    0  0.98547626178E+02  0.54143503107E+03  0.70124593830E+03  0.11977518080E+04  0.80000000000E+03 0.  0.
   -2000013    1    1    2    0    0 -0.98547626178E+02 -0.54143503107E+03  0.17953343298E+03  0.98746938234E+03  0.80000000000E+03 0.  0.
<mgrwt>
<rscale>  0 0.19998548E+04</rscale>
<asrwt>0</asrwt>
<pdfrwt beam="1">  1        2 0.23584620E+00 0.19998548E+04</pdfrwt>
<pdfrwt beam="2">  1       -2 0.10034168E+00 0.19998548E+04</pdfrwt>
<totfact> 0.92582916E+00</totfact>
</mgrwt>
</event>
<event>
 4    1  0.7144937E-008  0.2497478E+04  0.7816531E-02  0.8403884E-01
          2   -1    0    0  501    0  0.00000000000E+00  0.00000000000E+00  0.18709816575E+04  0.18709816575E+04  0.00000000000E+00 0.  1.
         -2   -1    0    0    0  501 -0.00000000000E+00 -0.00000000000E+00 -0.83343915712E+03  0.83343915712E+03  0.00000000000E+00 0. -1.
    2000013    1    1    2    0    0  0.91128170868E+03 -0.24304019545E+03  0.33169478062E+03  0.12804391109E+04  0.80000000000E+03 0.  0.
   -2000013    1    1    2    0    0 -0.91128170868E+03  0.24304019545E+03  0.70584771980E+03  0.14239817038E+04  0.80000000000E+03 0.  0.
<mgrwt>
<rscale>  0 0.24974782E+04</rscale>
<asrwt>0</asrwt>
<pdfrwt beam="1">  1        2 0.28784333E+00 0.24974782E+04</pdfrwt>
<pdfrwt beam="2">  1       -2 0.12822141E+00 0.24974782E+04</pdfrwt>
<totfact> 0.31616188E+00</totfact>
</mgrwt>
</event>
<event>
 4    1  0.7144937E-008  0.2309396E+04  0.7816531E-02  0.8474226E-01
         -2   -1    0    0    0  501 -0.00000000000E+00  0.00000000000E+00  0.65590796438E+03  0.65590796438E+03  0.00000000000E+00 0. -1.
          2   -1    0    0  501    0  0.00000000000E+00 -0.00000000000E+00 -0.20327959966E+04  0.20327959966E+04  0.00000000000E+00 0.  1.
    2000013    1    1    2    0    0 -0.22185882121E+03  0.63215024022E+03 -0.11276975964E+03  0.10495486084E+04  0.80000000000E+03 0.  0.
   -2000013    1    1    2    0    0  0.22185882121E+03 -0.63215024022E+03 -0.12641182726E+04  0.16391553526E+04  0.80000000000E+03 0.  0.
<mgrwt>
<rscale>  0 0.23093957E+04</rscale>
<asrwt>0</asrwt>
<pdfrwt beam="2">  1        2 0.31273784E+00 0.23093957E+04</pdfrwt>
<pdfrwt beam="1">  1       -2 0.10090892E+00 0.23093957E+04</pdfrwt>
<totfact> 0.46911906E+00</totfact>
</mgrwt>
</event>
<event>
 4    1  0.7144937E-008  0.1836643E+04  0.7816531E-02  0.8687052E-01
          2   -1    0    0  501    0  0.00000000000E+00  0.00000000000E+00  0.16909210141E+04  0.16909210141E+04  0.00000000000E+00 0.  1.
         -2   -1    0    0    0  501 -0.00000000000E+00 -0.00000000000E+00 -0.49873074428E+03  0.49873074428E+03  0.00000000000E+00 0. -1.
    2000013    1    1    2    0    0 -0.38873007715E+03  0.10604047143E+03  0.83737611863E+03  0.12261950981E+04  0.80000000000E+03 0.  0.
   -2000013    1    1    2    0    0  0.38873007715E+03 -0.10604047143E+03  0.35481415124E+03  0.96345666036E+03  0.80000000000E+03 0.  0.
<mgrwt>
<rscale>  0 0.18366429E+04</rscale>
<asrwt>0</asrwt>
<pdfrwt beam="1">  1        2 0.26014169E+00 0.18366429E+04</pdfrwt>
<pdfrwt beam="2">  1       -2 0.76727808E-01 0.18366429E+04</pdfrwt>
<totfact> 0.14175124E+01</totfact>
</mgrwt>
</event>
<event>
 4    1  0.7144937E-008  0.2368993E+04  0.7816531E-02  0.8451204E-01
         -2   -1    0    0    0  501 -0.00000000000E+00  0.00000000000E+00  0.66427138773E+03  0.66427138773E+03  0.00000000000E+00 0. -1.
          2   -1    0    0  501    0  0.00000000000E+00 -0.00000000000E+00 -0.21121366375E+04  0.21121366375E+04  0.00000000000E+00 0.  1.
    2000013    1    1    2    0    0 -0.21352849472E+03 -0.84048627648E+03 -0.84696430096E+03  0.14523636343E+04  0.80000000000E+03 0.  0.
   -2000013    1    1    2    0    0  0.21352849472E+03  0.84048627648E+03 -0.60090094881E+03  0.13240443910E+04  0.80000000000E+03 0.  0.
<mgrwt>
<rscale>  0 0.23689930E+04</rscale>
<asrwt>0</asrwt>
<pdfrwt beam="2">  1        2 0.32494409E+00 0.23689930E+04</pdfrwt>
<pdfrwt beam="1">  1       -2 0.10219560E+00 0.23689930E+04</pdfrwt>
<totfact> 0.40899829E+00</totfact>
</mgrwt>
</event>
<event>
 4    1  0.7144937E-008  0.2153535E+04  0.7816531E-02  0.8538021E-01
         -2   -1    0    0    0  501 -0.00000000000E+00  0.00000000000E+00  0.42114886006E+03  0.42114886006E+03  0.00000000000E+00 0. -1.
          2   -1    0    0  501    0  0.00000000000E+00 -0.00000000000E+00 -0.27530121613E+04  0.27530121613E+04  0.00000000000E+00 0.  1.
    2000013    1    1    2    0    0 -0.17133455354E+01  0.71781289763E+03 -0.12611074339E+04  0.16570003776E+04  0.80000000000E+03 0.  0.
   -2000013    1    1    2    0    0  0.17133455354E+01 -0.71781289763E+03 -0.10707558674E+04  0.15171606438E+04  0.80000000000E+03 0.  0.
<mgrwt>
<rscale>  0 0.21535347E+04</rscale>
<asrwt>0</asrwt>
<pdfrwt beam="2">  1        2 0.42354032E+00 0.21535347E+04</pdfrwt>
<pdfrwt beam="1">  1       -2 0.64792134E-01 0.21535347E+04</pdfrwt>
<totfact> 0.49821712E+00</totfact>
</mgrwt>
</event>
<event>
 4    1  0.7144937E-008  0.2118210E+04  0.7816531E-02  0.8553264E-01
         -2   -1    0    0    0  501 -0.00000000000E+00  0.00000000000E+00  0.99305858216E+03  0.99305858216E+03  0.00000000000E+00 0. -1.
          2   -1    0    0  501    0  0.00000000000E+00 -0.00000000000E+00 -0.11295440851E+04  0.11295440851E+04  0.00000000000E+00 0.  1.
    2000013    1    1    2    0    0 -0.24310305772E+03 -0.62716820312E+03  0.10318039588E+03  0.10502786515E+04  0.80000000000E+03 0.  0.
   -2000013    1    1    2    0    0  0.24310305772E+03  0.62716820312E+03 -0.23966589881E+03  0.10723240157E+04  0.80000000000E+03 0.  0.
<mgrwt>
<rscale>  0 0.21182100E+04</rscale>
<asrwt>0</asrwt>
<pdfrwt beam="2">  1        2 0.17377601E+00 0.21182100E+04</pdfrwt>
<pdfrwt beam="1">  1       -2 0.15277824E+00 0.21182100E+04</pdfrwt>
<totfact> 0.54859816E+00</totfact>
</mgrwt>
</event>
<event>
 4    1  0.7144937E-008  0.2063090E+04  0.7816531E-02  0.8577679E-01
         -2   -1    0    0    0  501 -0.00000000000E+00  0.00000000000E+00  0.81747378020E+03  0.81747378020E+03  0.00000000000E+00 0. -1.
          2   -1    0    0  501    0  0.00000000000E+00 -0.00000000000E+00 -0.13016743885E+04  0.13016743885E+04  0.00000000000E+00 0.  1.
    2000013    1    1    2    0    0  0.50969056241E+00 -0.60308184824E+03 -0.49449367543E+03  0.11172430221E+04  0.80000000000E+03 0.  0.
   -2000013    1    1    2    0    0 -0.50969056241E+00  0.60308184824E+03  0.10293067135E+02  0.10019051466E+04  0.80000000000E+03 0.  0.
<mgrwt>
<rscale>  0 0.20630896E+04</rscale>
<asrwt>0</asrwt>
<pdfrwt beam="2">  1        2 0.20025760E+00 0.20630896E+04</pdfrwt>
<pdfrwt beam="1">  1       -2 0.12576520E+00 0.20630896E+04</pdfrwt>
<totfact> 0.72001325E+00</totfact>
</mgrwt>
</event>
<event>
 4    1  0.7144937E-008  0.3450069E+04  0.7816531E-02  0.8125726E-01
         -2   -1    0    0    0  501 -0.00000000000E+00  0.00000000000E+00  0.12277027554E+04  0.12277027554E+04  0.00000000000E+00 0. -1.
          2   -1    0    0  501    0  0.00000000000E+00 -0.00000000000E+00 -0.24238304612E+04  0.24238304612E+04  0.00000000000E+00 0.  1.
    2000013    1    1    2    0    0 -0.12772226317E+04 -0.77739448475E+03 -0.93293070267E+03  0.19354584810E+04  0.80000000000E+03 0.  0.
   -2000013    1    1    2    0    0  0.12772226317E+04  0.77739448475E+03 -0.26319700317E+03  0.17160747356E+04  0.80000000000E+03 0.  0.
<mgrwt>
<rscale>  0 0.34500686E+04</rscale>
<asrwt>0</asrwt>
<pdfrwt beam="2">  1        2 0.37289700E+00 0.34500686E+04</pdfrwt>
<pdfrwt beam="1">  1       -2 0.18887735E+00 0.34500686E+04</pdfrwt>
<totfact> 0.50124153E-01</totfact>
</mgrwt>
</event>
<event>
 4    1  0.7144937E-008  0.1741628E+04  0.7816531E-02  0.8737972E-01
         -2   -1    0    0    0  501 -0.00000000000E+00  0.00000000000E+00  0.56572827935E+03  0.56572827935E+03  0.00000000000E+00 0. -1.
          2   -1    0    0  501    0  0.00000000000E+00 -0.00000000000E+00 -0.13404264239E+04  0.13404264239E+04  0.00000000000E+00 0.  1.
    2000013    1    1    2    0    0  0.24997353107E+03 -0.58715678251E+02 -0.63784301219E+03  0.10548829344E+04  0.80000000000E+03 0.  0.
   -2000013    1    1    2    0    0 -0.24997353107E+03  0.58715678251E+02 -0.13685513231E+03  0.85127176879E+03  0.80000000000E+03 0.  0.
<mgrwt>
<rscale>  0 0.17416281E+04</rscale>
<asrwt>0</asrwt>
<pdfrwt beam="2">  1        2 0.20621945E+00 0.17416281E+04</pdfrwt>
<pdfrwt beam="1">  1       -2 0.87035120E-01 0.17416281E+04</pdfrwt>
<totfact> 0.16955998E+01</totfact>
</mgrwt>
</event>
<event>
 4    1  0.7144937E-008  0.2338209E+04  0.7816531E-02  0.8463006E-01
         -2   -1    0    0    0  501 -0.00000000000E+00  0.00000000000E+00  0.44529940919E+03  0.44529940919E+03  0.00000000000E+00 0. -1.
          2   -1    0    0  501    0  0.00000000000E+00 -0.00000000000E+00 -0.30694071653E+04  0.30694071653E+04  0.00000000000E+00 0.  1.
    2000013    1    1    2    0    0  0.80180901260E+03  0.14271735633E+03 -0.16909558334E+04  0.20402444870E+04  0.80000000000E+03 0.  0.
   -2000013    1    1    2    0    0 -0.80180901260E+03 -0.14271735633E+03 -0.93315192277E+03  0.14744620875E+04  0.80000000000E+03 0.  0.
<mgrwt>
<rscale>  0 0.23382089E+04</rscale>
<asrwt>0</asrwt>
<pdfrwt beam="2">  1        2 0.47221649E+00 0.23382089E+04</pdfrwt>
<pdfrwt beam="1">  1       -2 0.68507601E-01 0.23382089E+04</pdfrwt>
<totfact> 0.27740748E+00</totfact>
</mgrwt>
</event>
<event>
 4    1  0.7144937E-008  0.2958651E+04  0.7816531E-02  0.8255638E-01
         -3   -1    0    0    0  501 -0.00000000000E+00  0.00000000000E+00  0.19406128651E+04  0.19406128651E+04  0.00000000000E+00 0. -1.
          3   -1    0    0  501    0  0.00000000000E+00 -0.00000000000E+00 -0.11276870237E+04  0.11276870237E+04  0.00000000000E+00 0.  1.
    2000013    1    1    2    0    0  0.12404217215E+04 -0.97824167349E+02  0.39223095483E+03  0.15303792788E+04  0.80000000000E+03 0.  0.
   -2000013    1    1    2    0    0 -0.12404217215E+04  0.97824167349E+02  0.42069488658E+03  0.15379206100E+04  0.80000000000E+03 0.  0.
<mgrwt>
<rscale>  0 0.29586510E+04</rscale>
<asrwt>0</asrwt>
<pdfrwt beam="2">  1        3 0.17349031E+00 0.29586510E+04</pdfrwt>
<pdfrwt beam="1">  1       -3 0.29855583E+00 0.29586510E+04</pdfrwt>
<totfact> 0.18962662E-02</totfact>
</mgrwt>
</event>
<event>
 4    1  0.7144937E-008  0.2054829E+04  0.7816531E-02  0.8581407E-01
         -2   -1    0    0    0  501 -0.00000000000E+00  0.00000000000E+00  0.66605296663E+03  0.66605296663E+03  0.00000000000E+00 0. -1.
          2   -1    0    0  501    0  0.00000000000E+00 -0.00000000000E+00 -0.15848291929E+04  0.15848291929E+04  0.00000000000E+00 0.  1.
    2000013    1    1    2    0    0 -0.63833846268E+03  0.24790104832E+01 -0.55796322952E+03  0.11656779589E+04  0.80000000000E+03 0.  0.
   -2000013    1    1    2    0    0  0.63833846268E+03 -0.24790104832E+01 -0.36081299680E+03  0.10852042006E+04  0.80000000000E+03 0.  0.
<mgrwt>
<rscale>  0 0.20548286E+04</rscale>
<asrwt>0</asrwt>
<pdfrwt beam="2">  1        2 0.24381987E+00 0.20548286E+04</pdfrwt>
<pdfrwt beam="1">  1       -2 0.10246969E+00 0.20548286E+04</pdfrwt>
<totfact> 0.81984477E+00</totfact>
</mgrwt>
</event>
<event>
 4    1  0.7144937E-008  0.2092794E+04  0.7816531E-02  0.8564424E-01
         -2   -1    0    0    0  501 -0.00000000000E+00  0.00000000000E+00  0.15808910150E+04  0.15808910150E+04  0.00000000000E+00 0. -1.
          2   -1    0    0  501    0  0.00000000000E+00 -0.00000000000E+00 -0.69261383400E+03  0.69261383400E+03  0.00000000000E+00 0.  1.
    2000013    1    1    2    0    0  0.54863098861E+03  0.38071642736E+03  0.34104397741E+03  0.10964725050E+04  0.80000000000E+03 0.  0.
   -2000013    1    1    2    0    0 -0.54863098861E+03 -0.38071642736E+03  0.54723320364E+03  0.11770323440E+04  0.80000000000E+03 0.  0.
<mgrwt>
<rscale>  0 0.20927943E+04</rscale>
<asrwt>0</asrwt>
<pdfrwt beam="2">  1        2 0.10655597E+00 0.20927943E+04</pdfrwt>
<pdfrwt beam="1">  1       -2 0.24321400E+00 0.20927943E+04</pdfrwt>
<totfact> 0.27087684E+00</totfact>
</mgrwt>
</event>
<event>
 4    1  0.7144937E-008  0.1958813E+04  0.7816531E-02  0.8626123E-01
          3   -1    0    0  501    0  0.00000000000E+00  0.00000000000E+00  0.43764608305E+03  0.43764608305E+03  0.00000000000E+00 0.  1.
         -3   -1    0    0    0  501 -0.00000000000E+00 -0.00000000000E+00 -0.21918111306E+04  0.21918111306E+04  0.00000000000E+00 0. -1.
    2000013    1    1    2    0    0 -0.58313853484E+02  0.56001803706E+03 -0.94028601324E+03  0.13568929560E+04  0.80000000000E+03 0.  0.
   -2000013    1    1    2    0    0  0.58313853484E+02 -0.56001803706E+03 -0.81387903427E+03  0.12725642576E+04  0.80000000000E+03 0.  0.
<mgrwt>
<rscale>  0 0.19588135E+04</rscale>
<asrwt>0</asrwt>
<pdfrwt beam="1">  1        3 0.67330164E-01 0.19588135E+04</pdfrwt>
<pdfrwt beam="2">  1       -3 0.33720173E+00 0.19588135E+04</pdfrwt>
<totfact> 0.12221072E-01</totfact>
</mgrwt>
</event>
<event>
 4    1  0.7144937E-008  0.1719504E+04  0.7816531E-02  0.8750318E-01
         -2   -1    0    0    0  501 -0.00000000000E+00  0.00000000000E+00  0.23820526323E+03  0.23820526323E+03  0.00000000000E+00 0. -1.
          2   -1    0    0  501    0  0.00000000000E+00 -0.00000000000E+00 -0.31030949541E+04  0.31030949541E+04  0.00000000000E+00 0.  1.
    2000013    1    1    2    0    0 -0.83205129612E+02 -0.22439881293E+03 -0.10347072402E+04  0.13296228765E+04  0.80000000000E+03 0.  0.
   -2000013    1    1    2    0    0  0.83205129612E+02  0.22439881293E+03 -0.18301824507E+04  0.20116773408E+04  0.80000000000E+03 0.  0.
<mgrwt>
<rscale>  0 0.17195041E+04</rscale>
<asrwt>0</asrwt>
<pdfrwt beam="2">  1        2 0.47739922E+00 0.17195041E+04</pdfrwt>
<pdfrwt beam="1">  1       -2 0.36646964E-01 0.17195041E+04</pdfrwt>
<totfact> 0.10035592E+01</totfact>
</mgrwt>
</event>
<event>
 4    1  0.7144937E-008  0.2461469E+04  0.7816531E-02  0.8416842E-01
         -2   -1    0    0    0  501 -0.00000000000E+00  0.00000000000E+00  0.10432460383E+04  0.10432460383E+04  0.00000000000E+00 0. -1.
          2   -1    0    0  501    0  0.00000000000E+00 -0.00000000000E+00 -0.14519181993E+04  0.14519181993E+04  0.00000000000E+00 0.  1.
    2000013    1    1    2    0    0  0.17914368989E+03 -0.78632266678E+03 -0.68443536270E+03  0.13262155042E+04  0.80000000000E+03 0.  0.
   -2000013    1    1    2    0    0 -0.17914368989E+03  0.78632266678E+03  0.27576320170E+03  0.11689487334E+04  0.80000000000E+03 0.  0.
<mgrwt>
<rscale>  0 0.24614694E+04</rscale>
<asrwt>0</asrwt>
<pdfrwt beam="2">  1        2 0.22337203E+00 0.24614694E+04</pdfrwt>
<pdfrwt beam="1">  1       -2 0.16049939E+00 0.24614694E+04</pdfrwt>
<totfact> 0.30208031E+00</totfact>
</mgrwt>
</event>
<event>
 4    1  0.7144937E-008  0.1748364E+04  0.7816531E-02  0.8734251E-01
         -2   -1    0    0    0  501 -0.00000000000E+00  0.00000000000E+00  0.16674677971E+03  0.16674677971E+03  0.00000000000E+00 0. -1.
          2   -1    0    0  501    0  0.00000000000E+00 -0.00000000000E+00 -0.45829606069E+04  0.45829606069E+04  0.00000000000E+00 0.  1.
    2000013    1    1    2    0    0 -0.23347093375E+03 -0.25007722416E+03 -0.19784467594E+04  0.21613187814E+04  0.80000000000E+03 0.  0.
   -2000013    1    1    2    0    0  0.23347093375E+03  0.25007722416E+03 -0.24377670678E+04  0.25883886052E+04  0.80000000000E+03 0.  0.
<mgrwt>
<rscale>  0 0.17483637E+04</rscale>
<asrwt>0</asrwt>
<pdfrwt beam="2">  1        2 0.70507081E+00 0.17483637E+04</pdfrwt>
<pdfrwt beam="1">  1       -2 0.25653353E-01 0.17483637E+04</pdfrwt>
<totfact> 0.13549755E+00</totfact>
</mgrwt>
</event>
<event>
 4    1  0.7144937E-008  0.2394887E+04  0.7816531E-02  0.8441420E-01
          2   -1    0    0  501    0  0.00000000000E+00  0.00000000000E+00  0.41164187173E+04  0.41164187173E+04  0.00000000000E+00 0.  1.
         -2   -1    0    0    0  501 -0.00000000000E+00 -0.00000000000E+00 -0.34832957981E+03  0.34832957981E+03  0.00000000000E+00 0. -1.
    2000013    1    1    2    0    0 -0.53321987529E+03  0.25279612034E+03  0.31285724988E+04  0.32827115612E+04  0.80000000000E+03 0.  0.
   -2000013    1    1    2    0    0  0.53321987529E+03 -0.25279612034E+03  0.63951663869E+03  0.11820367359E+04  0.80000000000E+03 0.  0.
<mgrwt>
<rscale>  0 0.23948866E+04</rscale>
<asrwt>0</asrwt>
<pdfrwt beam="1">  1        2 0.63329516E+00 0.23948866E+04</pdfrwt>
<pdfrwt beam="2">  1       -2 0.53589169E-01 0.23948866E+04</pdfrwt>
<totfact> 0.81360168E-01</totfact>
</mgrwt>
</event>
<event>
 4    1  0.7144937E-008  0.2858304E+04  0.7816531E-02  0.8285392E-01
         -2   -1    0    0    0  501 -0.00000000000E+00  0.00000000000E+00  0.27860871105E+04  0.27860871105E+04  0.00000000000E+00 0. -1.
          2   -1    0    0  501    0  0.00000000000E+00 -0.00000000000E+00 -0.73309836272E+03  0.73309836272E+03  0.00000000000E+00 0.  1.
    2000013    1    1    2    0    0 -0.11954056927E+02  0.11652734169E+04  0.12861342969E+04  0.19110589905E+04  0.80000000000E+03 0.  0.
   -2000013    1    1    2    0    0  0.11954056927E+02 -0.11652734169E+04  0.76685445093E+03  0.16081264827E+04  0.80000000000E+03 0.  0.
<mgrwt>
<rscale>  0 0.28583043E+04</rscale>
<asrwt>0</asrwt>
<pdfrwt beam="2">  1        2 0.11278436E+00 0.28583043E+04</pdfrwt>
<pdfrwt beam="1">  1       -2 0.42862878E+00 0.28583043E+04</pdfrwt>
<totfact> 0.16066015E-01</totfact>
</mgrwt>
</event>
<event>
 4    1  0.7144937E-008  0.1955416E+04  0.7816531E-02  0.8627753E-01
          2   -1    0    0  501    0  0.00000000000E+00  0.00000000000E+00  0.15319318431E+04  0.15319318431E+04  0.00000000000E+00 0.  1.
         -2   -1    0    0    0  501 -0.00000000000E+00 -0.00000000000E+00 -0.62399199983E+03  0.62399199983E+03  0.00000000000E+00 0. -1.
    2000013    1    1    2    0    0 -0.50927473023E+03  0.23660995012E+03  0.48025098304E+03  0.10890298554E+04  0.80000000000E+03 0.  0.
   -2000013    1    1    2    0    0  0.50927473023E+03 -0.23660995012E+03  0.42768886021E+03  0.10668939875E+04  0.80000000000E+03 0.  0.
<mgrwt>
<rscale>  0 0.19554163E+04</rscale>
<asrwt>0</asrwt>
<pdfrwt beam="1">  1        2 0.23568182E+00 0.19554163E+04</pdfrwt>
<pdfrwt beam="2">  1       -2 0.95998770E-01 0.19554163E+04</pdfrwt>
<totfact> 0.10327506E+01</totfact>
</mgrwt>
</event>
<event>
 4    1  0.7144937E-008  0.2184615E+04  0.7816531E-02  0.8524859E-01
         -2   -1    0    0    0  501 -0.00000000000E+00  0.00000000000E+00  0.63362082265E+03  0.63362082265E+03  0.00000000000E+00 0. -1.
          2   -1    0    0  501    0  0.00000000000E+00 -0.00000000000E+00 -0.18830444015E+04  0.18830444015E+04  0.00000000000E+00 0.  1.
    2000013    1    1    2    0    0 -0.61675191847E+03  0.19152766574E+03 -0.10496563061E+04  0.14693005603E+04  0.80000000000E+03 0.  0.
   -2000013    1    1    2    0    0  0.61675191847E+03 -0.19152766574E+03 -0.19976727273E+03  0.10473646638E+04  0.80000000000E+03 0.  0.
<mgrwt>
<rscale>  0 0.21846154E+04</rscale>
<asrwt>0</asrwt>
<pdfrwt beam="2">  1        2 0.28969914E+00 0.21846154E+04</pdfrwt>
<pdfrwt beam="1">  1       -2 0.97480127E-01 0.21846154E+04</pdfrwt>
<totfact> 0.62303109E+00</totfact>
</mgrwt>
</event>
<event>
 4    1  0.7144937E-008  0.3051074E+04  0.7816531E-02  0.8229295E-01
          2   -1    0    0  501    0  0.00000000000E+00  0.00000000000E+00  0.10056381963E+04  0.10056381963E+04  0.00000000000E+00 0.  1.
         -2   -1    0    0    0  501 -0.00000000000E+00 -0.00000000000E+00 -0.23142154740E+04  0.23142154740E+04  0.00000000000E+00 0. -1.
    2000013    1    1    2    0    0 -0.80511990611E+03 -0.98849997083E+03 -0.92503202964E+03  0.17666449874E+04  0.80000000000E+03 0.  0.
   -2000013    1    1    2    0    0  0.80511990611E+03  0.98849997083E+03 -0.38354524803E+03  0.15532086830E+04  0.80000000000E+03 0.  0.
<mgrwt>
<rscale>  0 0.30510742E+04</rscale>
<asrwt>0</asrwt>
<pdfrwt beam="1">  1        2 0.15471357E+00 0.30510742E+04</pdfrwt>
<pdfrwt beam="2">  1       -2 0.35603315E+00 0.30510742E+04</pdfrwt>
<totfact> 0.30332703E-01</totfact>
</mgrwt>
</event>
<event>
 4    1  0.7144937E-008  0.2059739E+04  0.7816531E-02  0.8579189E-01
          2   -1    0    0  501    0  0.00000000000E+00  0.00000000000E+00  0.32915955765E+04  0.32915955765E+04  0.00000000000E+00 0. -1.
         -2   -1    0    0    0  501 -0.00000000000E+00 -0.00000000000E+00 -0.32222405531E+03  0.32222405531E+03  0.00000000000E+00 0.  1.
    2000013    1    1    2    0    0 -0.44752217526E+03 -0.39633011959E+03  0.10433396433E+04  0.14442684211E+04  0.80000000000E+03 0.  0.
   -2000013    1    1    2    0    0  0.44752217526E+03  0.39633011959E+03  0.19260318779E+04  0.21695512107E+04  0.80000000000E+03 0.  0.
<mgrwt>
<rscale>  0 0.20597391E+04</rscale>
<asrwt>0</asrwt>
<pdfrwt beam="1">  1        2 0.50639930E+00 0.20597391E+04</pdfrwt>
<pdfrwt beam="2">  1       -2 0.49572934E-01 0.20597391E+04</pdfrwt>
<totfact> 0.40319177E+00</totfact>
</mgrwt>
</event>
<event>
 4    1  0.7144937E-008  0.3841401E+04  0.7816531E-02  0.8037328E-01
          2   -1    0    0  501    0  0.00000000000E+00  0.00000000000E+00  0.27059080283E+04  0.27059080283E+04  0.00000000000E+00 0.  1.
         -2   -1    0    0    0  501 -0.00000000000E+00 -0.00000000000E+00 -0.13633465737E+04  0.13633465737E+04  0.00000000000E+00 0. -1.
    2000013    1    1    2    0    0  0.17369591773E+04 -0.17707144366E+03  0.69948636445E+03  0.20439331334E+04  0.80000000000E+03 0.  0.
   -2000013    1    1    2    0    0 -0.17369591773E+04  0.17707144366E+03  0.64307509017E+03  0.20253214686E+04  0.80000000000E+03 0.  0.
<mgrwt>
<rscale>  0 0.38414010E+04</rscale>
<asrwt>0</asrwt>
<pdfrwt beam="1">  1        2 0.41629354E+00 0.38414010E+04</pdfrwt>
<pdfrwt beam="2">  1       -2 0.20974563E+00 0.38414010E+04</pdfrwt>
<totfact> 0.24188863E-01</totfact>
</mgrwt>
</event>
<event>
 4    1  0.7144937E-008  0.1785893E+04  0.7816531E-02  0.8713838E-01
          2   -1    0    0  501    0  0.00000000000E+00  0.00000000000E+00  0.85517154276E+03  0.85517154276E+03  0.00000000000E+00 0.  1.
         -2   -1    0    0    0  501 -0.00000000000E+00 -0.00000000000E+00 -0.93239002689E+03  0.93239002689E+03  0.00000000000E+00 0. -1.
    2000013    1    1    2    0    0  0.12978718139E+03  0.37323296432E+03 -0.73367176867E+02  0.89528224642E+03  0.80000000000E+03 0.  0.
   -2000013    1    1    2    0    0 -0.12978718139E+03 -0.37323296432E+03 -0.38513072581E+01  0.89227932324E+03  0.80000000000E+03 0.  0.
<mgrwt>
<rscale>  0 0.17858930E+04</rscale>
<asrwt>0</asrwt>
<pdfrwt beam="1">  1        2 0.13156485E+00 0.17858930E+04</pdfrwt>
<pdfrwt beam="2">  1       -2 0.14344462E+00 0.17858930E+04</pdfrwt>
<totfact> 0.10025269E+01</totfact>
</mgrwt>
</event>
<event>
 4    1  0.7144937E-008  0.1930235E+04  0.7816531E-02  0.8639951E-01
          2   -1    0    0  501    0  0.00000000000E+00  0.00000000000E+00  0.15976678757E+04  0.15976678757E+04  0.00000000000E+00 0.  1.
         -2   -1    0    0    0  501 -0.00000000000E+00 -0.00000000000E+00 -0.58300731066E+03  0.58300731066E+03  0.00000000000E+00 0. -1.
    2000013    1    1    2    0    0 -0.13034271576E+03 -0.49536319842E+03  0.31468252030E+03  0.10006992608E+04  0.80000000000E+03 0.  0.
   -2000013    1    1    2    0    0  0.13034271576E+03  0.49536319842E+03  0.69997804478E+03  0.11799759256E+04  0.80000000000E+03 0.  0.
<mgrwt>
<rscale>  0 0.19302353E+04</rscale>
<asrwt>0</asrwt>
<pdfrwt beam="1">  1        2 0.24579506E+00 0.19302353E+04</pdfrwt>
<pdfrwt beam="2">  1       -2 0.89693433E-01 0.19302353E+04</pdfrwt>
<totfact> 0.11131833E+01</totfact>
</mgrwt>
</event>
<event>
 4    1  0.7144937E-008  0.1945343E+04  0.7816531E-02  0.8632610E-01
          2   -1    0    0  501    0  0.00000000000E+00  0.00000000000E+00  0.56662534291E+03  0.56662534291E+03  0.00000000000E+00 0.  1.
         -2   -1    0    0    0  501 -0.00000000000E+00 -0.00000000000E+00 -0.16696921305E+04  0.16696921305E+04  0.00000000000E+00 0. -1.
    2000013    1    1    2    0    0  0.19900634850E+03  0.40236378980E+03 -0.92330976545E+03  0.13015379630E+04  0.80000000000E+03 0.  0.
   -2000013    1    1    2    0    0 -0.19900634850E+03 -0.40236378980E+03 -0.17975702211E+03  0.93477951041E+03  0.80000000000E+03 0.  0.
<mgrwt>
<rscale>  0 0.19453430E+04</rscale>
<asrwt>0</asrwt>
<pdfrwt beam="1">  1        2 0.87173132E-01 0.19453430E+04</pdfrwt>
<pdfrwt beam="2">  1       -2 0.25687571E+00 0.19453430E+04</pdfrwt>
<totfact> 0.28908782E+00</totfact>
</mgrwt>
</event>
<event>
 4    1  0.7144937E-008  0.2722783E+04  0.7816531E-02  0.8327650E-01
         -2   -1    0    0    0  501 -0.00000000000E+00  0.00000000000E+00  0.12577672449E+04  0.12577672449E+04  0.00000000000E+00 0. -1.
          2   -1    0    0  501    0  0.00000000000E+00 -0.00000000000E+00 -0.14735527258E+04  0.14735527258E+04  0.00000000000E+00 0.  1.
    2000013    1    1    2    0    0  0.54524655113E+03 -0.95564394914E+03 -0.54460417175E+02  0.13614386127E+04  0.80000000000E+03 0.  0.
   -2000013    1    1    2    0    0 -0.54524655113E+03  0.95564394914E+03 -0.16132506373E+03  0.13698813581E+04  0.80000000000E+03 0.  0.
<mgrwt>
<rscale>  0 0.27227827E+04</rscale>
<asrwt>0</asrwt>
<pdfrwt beam="2">  1        2 0.22670042E+00 0.27227827E+04</pdfrwt>
<pdfrwt beam="1">  1       -2 0.19350265E+00 0.27227827E+04</pdfrwt>
<totfact> 0.16898100E+00</totfact>
</mgrwt>
</event>
<event>
 4    1  0.7144937E-008  0.2027506E+04  0.7816531E-02  0.8593868E-01
         -2   -1    0    0    0  501 -0.00000000000E+00  0.00000000000E+00  0.28941626718E+04  0.28941626718E+04  0.00000000000E+00 0. -1.
          2   -1    0    0  501    0  0.00000000000E+00 -0.00000000000E+00 -0.35509243784E+03  0.35509243784E+03  0.00000000000E+00 0.  1.
    2000013    1    1    2    0    0 -0.27285213838E+03  0.53465555795E+03  0.10043061168E+04  0.14173692642E+04  0.80000000000E+03 0.  0.
   -2000013    1    1    2    0    0  0.27285213838E+03 -0.53465555795E+03  0.15347641172E+04  0.18318858453E+04  0.80000000000E+03 0.  0.
<mgrwt>
<rscale>  0 0.20275061E+04</rscale>
<asrwt>0</asrwt>
<pdfrwt beam="2">  1        2 0.54629608E-01 0.20275061E+04</pdfrwt>
<pdfrwt beam="1">  1       -2 0.44525578E+00 0.20275061E+04</pdfrwt>
<totfact> 0.31498724E-01</totfact>
</mgrwt>
</event>
<event>
 4    1  0.7144937E-008  0.2167416E+04  0.7816531E-02  0.8532114E-01
          1   -1    0    0  501    0  0.00000000000E+00  0.00000000000E+00  0.10446547630E+04  0.10446547630E+04  0.00000000000E+00 0.  1.
         -1   -1    0    0    0  501 -0.00000000000E+00 -0.00000000000E+00 -0.11242211681E+04  0.11242211681E+04  0.00000000000E+00 0. -1.
    2000013    1    1    2    0    0 -0.10806947013E+03  0.70922177896E+03  0.10084065623E+03  0.10792791020E+04  0.80000000000E+03 0.  0.
   -2000013    1    1    2    0    0  0.10806947013E+03 -0.70922177896E+03 -0.18040706129E+03  0.10895968291E+04  0.80000000000E+03 0.  0.
<mgrwt>
<rscale>  0 0.21674160E+04</rscale>
<asrwt>0</asrwt>
<pdfrwt beam="1">  1        1 0.16071612E+00 0.21674160E+04</pdfrwt>
<pdfrwt beam="2">  1       -1 0.17295710E+00 0.21674160E+04</pdfrwt>
<totfact> 0.29902111E+00</totfact>
</mgrwt>
</event>
<event>
 4    1  0.7144937E-008  0.1941873E+04  0.7816531E-02  0.8634290E-01
         -2   -1    0    0    0  501 -0.00000000000E+00  0.00000000000E+00  0.13798404514E+04  0.13798404514E+04  0.00000000000E+00 0. -1.
          2   -1    0    0  501    0  0.00000000000E+00 -0.00000000000E+00 -0.68320771227E+03  0.68320771227E+03  0.00000000000E+00 0.  1.
    2000013    1    1    2    0    0  0.40642858879E+03 -0.36652581275E+03  0.40834221524E+03  0.10517931042E+04  0.80000000000E+03 0.  0.
   -2000013    1    1    2    0    0 -0.40642858879E+03  0.36652581275E+03  0.28829052386E+03  0.10112550595E+04  0.80000000000E+03 0.  0.
<mgrwt>
<rscale>  0 0.19418729E+04</rscale>
<asrwt>0</asrwt>
<pdfrwt beam="2">  1        2 0.10510888E+00 0.19418729E+04</pdfrwt>
<pdfrwt beam="1">  1       -2 0.21228315E+00 0.19418729E+04</pdfrwt>
<totfact> 0.43629432E+00</totfact>
</mgrwt>
</event>
<event>
 4    1  0.7144937E-008  0.2300427E+04  0.7816531E-02  0.8477753E-01
          2   -1    0    0  501    0  0.00000000000E+00  0.00000000000E+00  0.96110444327E+03  0.96110444327E+03  0.00000000000E+00 0.  1.
         -2   -1    0    0    0  501 -0.00000000000E+00 -0.00000000000E+00 -0.13765319811E+04  0.13765319811E+04  0.00000000000E+00 0. -1.
    2000013    1    1    2    0    0 -0.60909324245E+03  0.35458341472E+03 -0.64628134091E+03  0.12467572128E+04  0.80000000000E+03 0.  0.
   -2000013    1    1    2    0    0  0.60909324245E+03 -0.35458341472E+03  0.23085380304E+03  0.10908792116E+04  0.80000000000E+03 0.  0.
<mgrwt>
<rscale>  0 0.23004269E+04</rscale>
<asrwt>0</asrwt>
<pdfrwt beam="1">  1        2 0.14786222E+00 0.23004269E+04</pdfrwt>
<pdfrwt beam="2">  1       -2 0.21177415E+00 0.23004269E+04</pdfrwt>
<totfact> 0.26988656E+00</totfact>
</mgrwt>
</event>
<event>
 4    1  0.7144937E-008  0.1919418E+04  0.7816531E-02  0.8645251E-01
          2   -1    0    0  501    0  0.00000000000E+00  0.00000000000E+00  0.14705802962E+04  0.14705802962E+04  0.00000000000E+00 0.  1.
         -2   -1    0    0    0  501 -0.00000000000E+00 -0.00000000000E+00 -0.62631160178E+03  0.62631160178E+03  0.00000000000E+00 0. -1.
    2000013    1    1    2    0    0  0.35487906967E+03 -0.12943617992E+03  0.15790334147E+02  0.88484021914E+03  0.80000000000E+03 0.  0.
   -2000013    1    1    2    0    0 -0.35487906967E+03  0.12943617992E+03  0.82847836031E+03  0.12120516789E+04  0.80000000000E+03 0.  0.
<mgrwt>
<rscale>  0 0.19194181E+04</rscale>
<asrwt>0</asrwt>
<pdfrwt beam="1">  1        2 0.22624312E+00 0.19194181E+04</pdfrwt>
<pdfrwt beam="2">  1       -2 0.96355631E-01 0.19194181E+04</pdfrwt>
<totfact> 0.11121347E+01</totfact>
</mgrwt>
</event>
<event>
 4    1  0.7144937E-008  0.1852799E+04  0.7816531E-02  0.8678715E-01
          2   -1    0    0  501    0  0.00000000000E+00  0.00000000000E+00  0.15943299462E+04  0.15943299462E+04  0.00000000000E+00 0.  1.
         -2   -1    0    0    0  501 -0.00000000000E+00 -0.00000000000E+00 -0.53829261362E+03  0.53829261362E+03  0.00000000000E+00 0. -1.
    2000013    1    1    2    0    0 -0.29918891504E+03  0.27440478151E+03  0.79401322872E+03  0.11980271276E+04  0.80000000000E+03 0.  0.
   -2000013    1    1    2    0    0  0.29918891504E+03 -0.27440478151E+03  0.26202410386E+03  0.93459543226E+03  0.80000000000E+03 0.  0.
<mgrwt>
<rscale>  0 0.18527990E+04</rscale>
<asrwt>0</asrwt>
<pdfrwt beam="1">  1        2 0.24528153E+00 0.18527990E+04</pdfrwt>
<pdfrwt beam="2">  1       -2 0.82814249E-01 0.18527990E+04</pdfrwt>
<totfact> 0.13500739E+01</totfact>
</mgrwt>
</event>
<event>
 4    1  0.7144937E-008  0.1940056E+04  0.7816531E-02  0.8635171E-01
         -2   -1    0    0    0  501 -0.00000000000E+00  0.00000000000E+00  0.11806861322E+04  0.11806861322E+04  0.00000000000E+00 0. -1.
          2   -1    0    0  501    0  0.00000000000E+00 -0.00000000000E+00 -0.79695583983E+03  0.79695583983E+03  0.00000000000E+00 0.  1.
    2000013    1    1    2    0    0 -0.32538031098E+03 -0.39406100764E+03  0.39522512411E+03  0.10282797884E+04  0.80000000000E+03 0.  0.
   -2000013    1    1    2    0    0  0.32538031098E+03  0.39406100764E+03 -0.11494831745E+02  0.94936218361E+03  0.80000000000E+03 0.  0.
<mgrwt>
<rscale>  0 0.19400564E+04</rscale>
<asrwt>0</asrwt>
<pdfrwt beam="2">  1        2 0.12260859E+00 0.19400564E+04</pdfrwt>
<pdfrwt beam="1">  1       -2 0.18164402E+00 0.19400564E+04</pdfrwt>
<totfact> 0.57066698E+00</totfact>
</mgrwt>
</event>
<event>
 4    1  0.7144937E-008  0.1808162E+04  0.7816531E-02  0.8701971E-01
         -2   -1    0    0    0  501 -0.00000000000E+00  0.00000000000E+00  0.40042327594E+03  0.40042327594E+03  0.00000000000E+00 0. -1.
          2   -1    0    0  501    0  0.00000000000E+00 -0.00000000000E+00 -0.20412462941E+04  0.20412462941E+04  0.00000000000E+00 0.  1.
    2000013    1    1    2    0    0 -0.28708055447E+03 -0.30788268960E+03 -0.83725222385E+03  0.12321518907E+04  0.80000000000E+03 0.  0.
   -2000013    1    1    2    0    0  0.28708055447E+03  0.30788268960E+03 -0.80357079435E+03  0.12095176794E+04  0.80000000000E+03 0.  0.
<mgrwt>
<rscale>  0 0.18081621E+04</rscale>
<asrwt>0</asrwt>
<pdfrwt beam="2">  1        2 0.31403789E+00 0.18081621E+04</pdfrwt>
<pdfrwt beam="1">  1       -2 0.61603581E-01 0.18081621E+04</pdfrwt>
<totfact> 0.14641517E+01</totfact>
</mgrwt>
</event>
<event>
 4    1  0.7144937E-008  0.2467847E+04  0.7816531E-02  0.8414531E-01
         -2   -1    0    0    0  501 -0.00000000000E+00  0.00000000000E+00  0.48757086190E+03  0.48757086190E+03  0.00000000000E+00 0. -1.
          2   -1    0    0  501    0  0.00000000000E+00 -0.00000000000E+00 -0.31227605148E+04  0.31227605148E+04  0.00000000000E+00 0.  1.
    2000013    1    1    2    0    0  0.18441058973E+03  0.51530219132E+03 -0.24346428889E+04  0.26205017860E+04  0.80000000000E+03 0.  0.
   -2000013    1    1    2    0    0 -0.18441058973E+03 -0.51530219132E+03 -0.20054676396E+03  0.98982959065E+03  0.80000000000E+03 0.  0.
<mgrwt>
<rscale>  0 0.24678469E+04</rscale>
<asrwt>0</asrwt>
<pdfrwt beam="2">  1        2 0.48042468E+00 0.24678469E+04</pdfrwt>
<pdfrwt beam="1">  1       -2 0.75010905E-01 0.24678469E+04</pdfrwt>
<totfact> 0.20781369E+00</totfact>
</mgrwt>
</event>
<event>
 4    1  0.7144937E-008  0.2221139E+04  0.7816531E-02  0.8509681E-01
         -2   -1    0    0    0  501 -0.00000000000E+00  0.00000000000E+00  0.10845728046E+04  0.10845728046E+04  0.00000000000E+00 0. -1.
          2   -1    0    0  501    0  0.00000000000E+00 -0.00000000000E+00 -0.11371891420E+04  0.11371891420E+04  0.00000000000E+00 0.  1.
    2000013    1    1    2    0    0  0.68409781089E+03  0.12275358218E+03  0.30590871862E+03  0.11030133276E+04  0.80000000000E+03 0.  0.
   -2000013    1    1    2    0    0 -0.68409781089E+03 -0.12275358218E+03 -0.35852505603E+03  0.11187486190E+04  0.80000000000E+03 0.  0.
<mgrwt>
<rscale>  0 0.22211388E+04</rscale>
<asrwt>0</asrwt>
<pdfrwt beam="2">  1        2 0.17495218E+00 0.22211388E+04</pdfrwt>
<pdfrwt beam="1">  1       -2 0.16685736E+00 0.22211388E+04</pdfrwt>
<totfact> 0.42336033E+00</totfact>
</mgrwt>
</event>
<event>
 4    1  0.7144937E-008  0.2173588E+04  0.7816531E-02  0.8529502E-01
         -2   -1    0    0    0  501 -0.00000000000E+00  0.00000000000E+00  0.42232653800E+03  0.42232653800E+03  0.00000000000E+00 0. -1.
          2   -1    0    0  501    0  0.00000000000E+00 -0.00000000000E+00 -0.27967018111E+04  0.27967018111E+04  0.00000000000E+00 0.  1.
    2000013    1    1    2    0    0 -0.70180325610E+03 -0.16987747078E+03 -0.13952380656E+04  0.17629734612E+04  0.80000000000E+03 0.  0.
   -2000013    1    1    2    0    0  0.70180325610E+03  0.16987747078E+03 -0.97913720756E+03  0.14560548879E+04  0.80000000000E+03 0.  0.
<mgrwt>
<rscale>  0 0.21735882E+04</rscale>
<asrwt>0</asrwt>
<pdfrwt beam="2">  1        2 0.43026181E+00 0.21735882E+04</pdfrwt>
<pdfrwt beam="1">  1       -2 0.64973315E-01 0.21735882E+04</pdfrwt>
<totfact> 0.46532898E+00</totfact>
</mgrwt>
</event>
<event>
 4    1  0.7144937E-008  0.2146929E+04  0.7816531E-02  0.8540848E-01
         -2   -1    0    0    0  501 -0.00000000000E+00  0.00000000000E+00  0.10309553188E+04  0.10309553188E+04  0.00000000000E+00 0.  1.
          2   -1    0    0  501    0  0.00000000000E+00 -0.00000000000E+00 -0.11177260348E+04  0.11177260348E+04  0.00000000000E+00 0. -1.
    2000013    1    1    2    0    0 -0.71192038198E+03  0.24048699947E+02  0.26790574149E+02  0.10715067452E+04  0.80000000000E+03 0.  0.
   -2000013    1    1    2    0    0  0.71192038198E+03 -0.24048699947E+02 -0.11356129014E+03  0.10771746083E+04  0.80000000000E+03 0.  0.
<mgrwt>
<rscale>  0 0.21469286E+04</rscale>
<asrwt>0</asrwt>
<pdfrwt beam="2">  1        2 0.17195785E+00 0.21469286E+04</pdfrwt>
<pdfrwt beam="1">  1       -2 0.15860851E+00 0.21469286E+04</pdfrwt>
<totfact> 0.50309250E+00</totfact>
</mgrwt>
</event>
<event>
 4    1  0.7144937E-008  0.3402463E+04  0.7816531E-02  0.8137302E-01
          2   -1    0    0  501    0  0.00000000000E+00  0.00000000000E+00  0.19032304835E+04  0.19032304835E+04  0.00000000000E+00 0.  1.
         -2   -1    0    0    0  501 -0.00000000000E+00 -0.00000000000E+00 -0.15206713054E+04  0.15206713054E+04  0.00000000000E+00 0. -1.
    2000013    1    1    2    0    0 -0.13519896335E+04  0.56563472847E+03  0.51947781246E+03  0.17486211176E+04  0.80000000000E+03 0.  0.
   -2000013    1    1    2    0    0  0.13519896335E+04 -0.56563472847E+03 -0.13691863435E+03  0.16752806713E+04  0.80000000000E+03 0.  0.
<mgrwt>
<rscale>  0 0.34024626E+04</rscale>
<asrwt>0</asrwt>
<pdfrwt beam="1">  1        2 0.29280469E+00 0.34024626E+04</pdfrwt>
<pdfrwt beam="2">  1       -2 0.23394943E+00 0.34024626E+04</pdfrwt>
<totfact> 0.50597237E-01</totfact>
</mgrwt>
</event>
<event>
 4    1  0.7144937E-008  0.3440769E+04  0.7816531E-02  0.8127972E-01
         -2   -1    0    0    0  501 -0.00000000000E+00  0.00000000000E+00  0.13667330540E+04  0.13667330540E+04  0.00000000000E+00 0. -1.
          2   -1    0    0  501    0  0.00000000000E+00 -0.00000000000E+00 -0.21655457448E+04  0.21655457448E+04  0.00000000000E+00 0.  1.
    2000013    1    1    2    0    0  0.62067613895E+03  0.89463418473E+03  0.69386447768E+03  0.15188999662E+04  0.80000000000E+03 0.  0.
   -2000013    1    1    2    0    0 -0.62067613895E+03 -0.89463418473E+03 -0.14926771685E+04  0.20133788326E+04  0.80000000000E+03 0.  0.
<mgrwt>
<rscale>  0 0.34407691E+04</rscale>
<asrwt>0</asrwt>
<pdfrwt beam="2">  1        2 0.33316089E+00 0.34407691E+04</pdfrwt>
<pdfrwt beam="1">  1       -2 0.21026662E+00 0.34407691E+04</pdfrwt>
<totfact> 0.50851276E-01</totfact>
</mgrwt>
</event>
<event>
 4    1  0.7144937E-008  0.3209645E+04  0.7816531E-02  0.8186274E-01
         -2   -1    0    0    0  501 -0.00000000000E+00  0.00000000000E+00  0.12126565096E+04  0.12126565096E+04  0.00000000000E+00 0. -1.
          2   -1    0    0  501    0  0.00000000000E+00 -0.00000000000E+00 -0.21238132423E+04  0.21238132423E+04  0.00000000000E+00 0.  1.
    2000013    1    1    2    0    0 -0.11764674931E+04  0.72690999025E+03 -0.29798984405E+03  0.16251990166E+04  0.80000000000E+03 0.  0.
   -2000013    1    1    2    0    0  0.11764674931E+04 -0.72690999025E+03 -0.61316688860E+03  0.17112707353E+04  0.80000000000E+03 0.  0.
<mgrwt>
<rscale>  0 0.32096454E+04</rscale>
<asrwt>0</asrwt>
<pdfrwt beam="2">  1        2 0.32674049E+00 0.32096454E+04</pdfrwt>
<pdfrwt beam="1">  1       -2 0.18656254E+00 0.32096454E+04</pdfrwt>
<totfact> 0.78395549E-01</totfact>
</mgrwt>
</event>
<event>
 4    1  0.7144937E-008  0.2472964E+04  0.7816531E-02  0.8412681E-01
          2   -1    0    0  501    0  0.00000000000E+00  0.00000000000E+00  0.11569821806E+04  0.11569821806E+04  0.00000000000E+00 0.  1.
         -2   -1    0    0    0  501 -0.00000000000E+00 -0.00000000000E+00 -0.13214442810E+04  0.13214442810E+04  0.00000000000E+00 0. -1.
    2000013    1    1    2    0    0  0.79607590032E+03  0.13467595059E+03  0.40568420223E+03  0.12068364109E+04  0.80000000000E+03 0.  0.
   -2000013    1    1    2    0    0 -0.79607590032E+03 -0.13467595059E+03 -0.57014630264E+03  0.12715900507E+04  0.80000000000E+03 0.  0.
<mgrwt>
<rscale>  0 0.24729638E+04</rscale>
<asrwt>0</asrwt>
<pdfrwt beam="1">  1        2 0.17799726E+00 0.24729638E+04</pdfrwt>
<pdfrwt beam="2">  1       -2 0.20329912E+00 0.24729638E+04</pdfrwt>
<totfact> 0.22740590E+00</totfact>
</mgrwt>
</event>
<event>
 4    1  0.7144937E-008  0.1834198E+04  0.7816531E-02  0.8688322E-01
          3   -1    0    0  501    0  0.00000000000E+00  0.00000000000E+00  0.19464501775E+04  0.19464501775E+04  0.00000000000E+00 0.  1.
         -3   -1    0    0    0  501 -0.00000000000E+00 -0.00000000000E+00 -0.43210490424E+03  0.43210490424E+03  0.00000000000E+00 0. -1.
    2000013    1    1    2    0    0  0.43308769918E+03 -0.11603903994E+03  0.76544094154E+03  0.11945416899E+04  0.80000000000E+03 0.  0.
   -2000013    1    1    2    0    0 -0.43308769918E+03  0.11603903994E+03  0.74890433173E+03  0.11840133918E+04  0.80000000000E+03 0.  0.
<mgrwt>
<rscale>  0 0.18341981E+04</rscale>
<asrwt>0</asrwt>
<pdfrwt beam="1">  1        3 0.29945387E+00 0.18341981E+04</pdfrwt>
<pdfrwt beam="2">  1       -3 0.66477679E-01 0.18341981E+04</pdfrwt>
<totfact> 0.20969514E-01</totfact>
</mgrwt>
</event>
<event>
 4    1  0.7144937E-008  0.2625271E+04  0.7816531E-02  0.8359668E-01
          1   -1    0    0  501    0  0.00000000000E+00  0.00000000000E+00  0.20157838027E+04  0.20157838027E+04  0.00000000000E+00 0. -1.
         -1   -1    0    0    0  501 -0.00000000000E+00 -0.00000000000E+00 -0.85476003134E+03  0.85476003134E+03  0.00000000000E+00 0.  1.
    2000013    1    1    2    0    0 -0.68258274533E+02  0.95444274096E+03  0.13315251907E+03  0.12543323846E+04  0.80000000000E+03 0.  0.
   -2000013    1    1    2    0    0  0.68258274533E+02 -0.95444274096E+03  0.10278712523E+04  0.16162114494E+04  0.80000000000E+03 0.  0.
<mgrwt>
<rscale>  0 0.26252706E+04</rscale>
<asrwt>0</asrwt>
<pdfrwt beam="1">  1        1 0.31012058E+00 0.26252706E+04</pdfrwt>
<pdfrwt beam="2">  1       -1 0.13150154E+00 0.26252706E+04</pdfrwt>
<totfact> 0.12583830E+00</totfact>
</mgrwt>
</event>
<event>
 4    1  0.7144937E-008  0.2955560E+04  0.7816531E-02  0.8256536E-01
          2   -1    0    0  501    0  0.00000000000E+00  0.00000000000E+00  0.24901295483E+04  0.24901295483E+04  0.00000000000E+00 0.  1.
         -2   -1    0    0    0  501 -0.00000000000E+00 -0.00000000000E+00 -0.87699597674E+03  0.87699597674E+03  0.00000000000E+00 0. -1.
    2000013    1    1    2    0    0  0.84768129476E+03  0.81042896701E+03  0.33895316482E+03  0.14595368909E+04  0.80000000000E+03 0.  0.
   -2000013    1    1    2    0    0 -0.84768129476E+03 -0.81042896701E+03  0.12741804068E+04  0.19075886341E+04  0.80000000000E+03 0.  0.
<mgrwt>
<rscale>  0 0.29555599E+04</rscale>
<asrwt>0</asrwt>
<pdfrwt beam="1">  1        2 0.38309685E+00 0.29555599E+04</pdfrwt>
<pdfrwt beam="2">  1       -2 0.13492246E+00 0.29555599E+04</pdfrwt>
<totfact> 0.11970626E+00</totfact>
</mgrwt>
</event>
<event>
 4    1  0.7144937E-008  0.3009071E+04  0.7816531E-02  0.8241145E-01
         -2   -1    0    0    0  501 -0.00000000000E+00  0.00000000000E+00  0.15597556375E+04  0.15597556375E+04  0.00000000000E+00 0. -1.
          2   -1    0    0  501    0  0.00000000000E+00 -0.00000000000E+00 -0.14512701104E+04  0.14512701104E+04  0.00000000000E+00 0.  1.
    2000013    1    1    2    0    0  0.65809989772E+03 -0.72924219318E+03  0.86639626848E+03  0.15347742980E+04  0.80000000000E+03 0.  0.
   -2000013    1    1    2    0    0 -0.65809989772E+03  0.72924219318E+03 -0.75791074139E+03  0.14762514500E+04  0.80000000000E+03 0.  0.
<mgrwt>
<rscale>  0 0.30090708E+04</rscale>
<asrwt>0</asrwt>
<pdfrwt beam="2">  1        2 0.22327232E+00 0.30090708E+04</pdfrwt>
<pdfrwt beam="1">  1       -2 0.23996241E+00 0.30090708E+04</pdfrwt>
<totfact> 0.85763459E-01</totfact>
</mgrwt>
</event>
<event>
 4    1  0.7144937E-008  0.2773897E+04  0.7816531E-02  0.8311418E-01
         -2   -1    0    0    0  501 -0.00000000000E+00  0.00000000000E+00  0.11619769563E+04  0.11619769563E+04  0.00000000000E+00 0. -1.
          2   -1    0    0  501    0  0.00000000000E+00 -0.00000000000E+00 -0.16554768393E+04  0.16554768393E+04  0.00000000000E+00 0.  1.
    2000013    1    1    2    0    0 -0.47757185546E+03  0.95713070465E+03 -0.62604630183E+03  0.14751637316E+04  0.80000000000E+03 0.  0.
   -2000013    1    1    2    0    0  0.47757185546E+03 -0.95713070465E+03  0.13254641880E+03  0.13422900640E+04  0.80000000000E+03 0.  0.
<mgrwt>
<rscale>  0 0.27738969E+04</rscale>
<asrwt>0</asrwt>
<pdfrwt beam="2">  1        2 0.25468874E+00 0.27738969E+04</pdfrwt>
<pdfrwt beam="1">  1       -2 0.17876569E+00 0.27738969E+04</pdfrwt>
<totfact> 0.16747555E+00</totfact>
</mgrwt>
</event>
<event>
 4    1  0.7144937E-008  0.1969005E+04  0.7816531E-02  0.8621251E-01
         -2   -1    0    0    0  501 -0.00000000000E+00  0.00000000000E+00  0.48934368274E+03  0.48934368274E+03  0.00000000000E+00 0. -1.
          2   -1    0    0  501    0  0.00000000000E+00 -0.00000000000E+00 -0.19807036954E+04  0.19807036954E+04  0.00000000000E+00 0.  1.
    2000013    1    1    2    0    0 -0.47466281628E+03  0.11210543325E+03 -0.36648194289E+03  0.10060722796E+04  0.80000000000E+03 0.  0.
   -2000013    1    1    2    0    0  0.47466281628E+03 -0.11210543325E+03 -0.11248780698E+04  0.14639750986E+04  0.80000000000E+03 0.  0.
<mgrwt>
<rscale>  0 0.19690047E+04</rscale>
<asrwt>0</asrwt>
<pdfrwt beam="2">  1        2 0.30472364E+00 0.19690047E+04</pdfrwt>
<pdfrwt beam="1">  1       -2 0.75283644E-01 0.19690047E+04</pdfrwt>
<totfact> 0.10099506E+01</totfact>
</mgrwt>
</event>
<event>
 4    1  0.7144937E-008  0.2271289E+04  0.7816531E-02  0.8489328E-01
         -2   -1    0    0    0  501 -0.00000000000E+00  0.00000000000E+00  0.18543932763E+04  0.18543932763E+04  0.00000000000E+00 0. -1.
          2   -1    0    0  501    0  0.00000000000E+00 -0.00000000000E+00 -0.69547703829E+03  0.69547703829E+03  0.00000000000E+00 0.  1.
    2000013    1    1    2    0    0  0.40914198834E+03 -0.36412245612E+03  0.12433495749E+04  0.15766738708E+04  0.80000000000E+03 0.  0.
   -2000013    1    1    2    0    0 -0.40914198834E+03  0.36412245612E+03 -0.84433336889E+02  0.97319644371E+03  0.80000000000E+03 0.  0.
<mgrwt>
<rscale>  0 0.22712886E+04</rscale>
<asrwt>0</asrwt>
<pdfrwt beam="2">  1        2 0.10699647E+00 0.22712886E+04</pdfrwt>
<pdfrwt beam="1">  1       -2 0.28529127E+00 0.22712886E+04</pdfrwt>
<totfact> 0.14679839E+00</totfact>
</mgrwt>
</event>
<event>
 4    1  0.7144937E-008  0.1776237E+04  0.7816531E-02  0.8719039E-01
         -2   -1    0    0    0  501 -0.00000000000E+00  0.00000000000E+00  0.37821641613E+03  0.37821641613E+03  0.00000000000E+00 0. -1.
          2   -1    0    0  501    0  0.00000000000E+00 -0.00000000000E+00 -0.20854590615E+04  0.20854590615E+04  0.00000000000E+00 0.  1.
    2000013    1    1    2    0    0 -0.30912732482E+03  0.21756172011E+03 -0.95981707351E+03  0.13054277535E+04  0.80000000000E+03 0.  0.
   -2000013    1    1    2    0    0  0.30912732482E+03 -0.21756172011E+03 -0.74742557190E+03  0.11582477242E+04  0.80000000000E+03 0.  0.
<mgrwt>
<rscale>  0 0.17762374E+04</rscale>
<asrwt>0</asrwt>
<pdfrwt beam="2">  1        2 0.32083986E+00 0.17762374E+04</pdfrwt>
<pdfrwt beam="1">  1       -2 0.58187140E-01 0.17762374E+04</pdfrwt>
<totfact> 0.15649248E+01</totfact>
</mgrwt>
</event>
<event>
 4    1  0.7144937E-008  0.2697840E+04  0.7816531E-02  0.8335706E-01
         -2   -1    0    0    0  501 -0.00000000000E+00  0.00000000000E+00  0.13518746985E+04  0.13518746985E+04  0.00000000000E+00 0. -1.
          2   -1    0    0  501    0  0.00000000000E+00 -0.00000000000E+00 -0.13459713542E+04  0.13459713542E+04  0.00000000000E+00 0.  1.
    2000013    1    1    2    0    0 -0.10201263110E+04 -0.55372399798E+02  0.37154558992E+03  0.13497295723E+04  0.80000000000E+03 0.  0.
   -2000013    1    1    2    0    0  0.10201263110E+04  0.55372399798E+02 -0.36564224562E+03  0.13481164804E+04  0.80000000000E+03 0.  0.
<mgrwt>
<rscale>  0 0.26978396E+04</rscale>
<asrwt>0</asrwt>
<pdfrwt beam="2">  1        2 0.20707252E+00 0.26978396E+04</pdfrwt>
<pdfrwt beam="1">  1       -2 0.20798072E+00 0.26978396E+04</pdfrwt>
<totfact> 0.16095344E+00</totfact>
</mgrwt>
</event>
<event>
 4    1  0.7144937E-008  0.2342340E+04  0.7816531E-02  0.8461412E-01
          2   -1    0    0  501    0  0.00000000000E+00  0.00000000000E+00  0.10902158842E+04  0.10902158842E+04  0.00000000000E+00 0.  1.
         -2   -1    0    0    0  501 -0.00000000000E+00 -0.00000000000E+00 -0.12581348580E+04  0.12581348580E+04  0.00000000000E+00 0. -1.
    2000013    1    1    2    0    0  0.31862684734E+03  0.77432580351E+03 -0.25915085733E+03  0.11867024415E+04  0.80000000000E+03 0.  0.
   -2000013    1    1    2    0    0 -0.31862684734E+03 -0.77432580351E+03  0.91231883486E+02  0.11616483006E+04  0.80000000000E+03 0.  0.
<mgrwt>
<rscale>  0 0.23423395E+04</rscale>
<asrwt>0</asrwt>
<pdfrwt beam="1">  1        2 0.16772552E+00 0.23423395E+04</pdfrwt>
<pdfrwt beam="2">  1       -2 0.19355921E+00 0.23423395E+04</pdfrwt>
<totfact> 0.29282704E+00</totfact>
</mgrwt>
</event>
<event>
 4    1  0.7144937E-008  0.2225379E+04  0.7816531E-02  0.8507939E-01
         -1   -1    0    0    0  501 -0.00000000000E+00  0.00000000000E+00  0.21286423185E+04  0.21286423185E+04  0.00000000000E+00 0. -1.
          1   -1    0    0  501    0  0.00000000000E+00 -0.00000000000E+00 -0.58162772805E+03  0.58162772805E+03  0.00000000000E+00 0.  1.
    2000013    1    1    2    0    0 -0.61584093305E+03 -0.15555021657E+02  0.13428965873E+04  0.16801408446E+04  0.80000000000E+03 0.  0.
   -2000013    1    1    2    0    0  0.61584093305E+03  0.15555021657E+02  0.20411800315E+03  0.10301292020E+04  0.80000000000E+03 0.  0.
<mgrwt>
<rscale>  0 0.22253785E+04</rscale>
<asrwt>0</asrwt>
<pdfrwt beam="2">  1        1 0.89481190E-01 0.22253785E+04</pdfrwt>
<pdfrwt beam="1">  1       -1 0.32748343E+00 0.22253785E+04</pdfrwt>
<totfact> 0.71297059E-01</totfact>
</mgrwt>
</event>
<event>
 4    1  0.7144937E-008  0.2415088E+04  0.7816531E-02  0.8433876E-01
         -1   -1    0    0    0  501 -0.00000000000E+00  0.00000000000E+00  0.14803151465E+04  0.14803151465E+04  0.00000000000E+00 0. -1.
          1   -1    0    0  501    0  0.00000000000E+00 -0.00000000000E+00 -0.98503497290E+03  0.98503497290E+03  0.00000000000E+00 0.  1.
    2000013    1    1    2    0    0 -0.55692375151E+03  0.70800115804E+03  0.33139945717E+03  0.12495020228E+04  0.80000000000E+03 0.  0.
   -2000013    1    1    2    0    0  0.55692375151E+03 -0.70800115804E+03  0.16388071644E+03  0.12158480966E+04  0.80000000000E+03 0.  0.
<mgrwt>
<rscale>  0 0.24150877E+04</rscale>
<asrwt>0</asrwt>
<pdfrwt beam="2">  1        1 0.15154384E+00 0.24150877E+04</pdfrwt>
<pdfrwt beam="1">  1       -1 0.22774079E+00 0.24150877E+04</pdfrwt>
<totfact> 0.13593774E+00</totfact>
</mgrwt>
</event>
<event>
 4    1  0.7144937E-008  0.1834402E+04  0.7816531E-02  0.8688216E-01
          1   -1    0    0  501    0  0.00000000000E+00  0.00000000000E+00  0.89077605541E+03  0.89077605541E+03  0.00000000000E+00 0.  1.
         -1   -1    0    0    0  501 -0.00000000000E+00 -0.00000000000E+00 -0.94441023748E+03  0.94441023748E+03  0.00000000000E+00 0. -1.
    2000013    1    1    2    0    0  0.18151651209E+03  0.25396588597E+03 -0.34915209444E+03  0.92701353844E+03  0.80000000000E+03 0.  0.
   -2000013    1    1    2    0    0 -0.18151651209E+03 -0.25396588597E+03  0.29551791237E+03  0.90817275445E+03  0.80000000000E+03 0.  0.
<mgrwt>
<rscale>  0 0.18344024E+04</rscale>
<asrwt>0</asrwt>
<pdfrwt beam="1">  1        1 0.13704247E+00 0.18344024E+04</pdfrwt>
<pdfrwt beam="2">  1       -1 0.14529388E+00 0.18344024E+04</pdfrwt>
<totfact> 0.66216230E+00</totfact>
</mgrwt>
</event>
<event>
 4    1  0.7144937E-008  0.2416722E+04  0.7816531E-02  0.8433269E-01
          2   -1    0    0  501    0  0.00000000000E+00  0.00000000000E+00  0.26879353611E+04  0.26879353611E+04  0.00000000000E+00 0.  1.
         -2   -1    0    0    0  501 -0.00000000000E+00 -0.00000000000E+00 -0.54321863576E+03  0.54321863576E+03  0.00000000000E+00 0. -1.
    2000013    1    1    2    0    0 -0.56014928160E+03 -0.48262391927E+03  0.17714993034E+04  0.20796400763E+04  0.80000000000E+03 0.  0.
   -2000013    1    1    2    0    0  0.56014928160E+03  0.48262391927E+03  0.37321742193E+03  0.11515139205E+04  0.80000000000E+03 0.  0.
<mgrwt>
<rscale>  0 0.24167222E+04</rscale>
<asrwt>0</asrwt>
<pdfrwt beam="1">  1        2 0.41352851E+00 0.24167222E+04</pdfrwt>
<pdfrwt beam="2">  1       -2 0.83572099E-01 0.24167222E+04</pdfrwt>
<totfact> 0.30359898E+00</totfact>
</mgrwt>
</event>
<event>
 4    1  0.7144937E-008  0.2772302E+04  0.7816531E-02  0.8311919E-01
          1   -1    0    0  501    0  0.00000000000E+00  0.00000000000E+00  0.31172035371E+04  0.31172035371E+04  0.00000000000E+00 0.  1.
         -1   -1    0    0    0  501 -0.00000000000E+00 -0.00000000000E+00 -0.61639043048E+03  0.61639043048E+03  0.00000000000E+00 0. -1.
    2000013    1    1    2    0    0 -0.99403368321E+03  0.53528625705E+03  0.13612995932E+04  0.19410746824E+04  0.80000000000E+03 0.  0.
   -2000013    1    1    2    0    0  0.99403368321E+03 -0.53528625705E+03  0.11395135135E+04  0.17925192852E+04  0.80000000000E+03 0.  0.
<mgrwt>
<rscale>  0 0.27723019E+04</rscale>
<asrwt>0</asrwt>
<pdfrwt beam="1">  1        1 0.47956977E+00 0.27723019E+04</pdfrwt>
<pdfrwt beam="2">  1       -1 0.94829299E-01 0.27723019E+04</pdfrwt>
<totfact> 0.45696351E-01</totfact>
</mgrwt>
</event>
<event>
 4    1  0.7144937E-008  0.2827404E+04  0.7816531E-02  0.8294811E-01
         -2   -1    0    0    0  501 -0.00000000000E+00  0.00000000000E+00  0.17315042037E+04  0.17315042037E+04  0.00000000000E+00 0. -1.
          2   -1    0    0  501    0  0.00000000000E+00 -0.00000000000E+00 -0.11542296309E+04  0.11542296309E+04  0.00000000000E+00 0.  1.
    2000013    1    1    2    0    0 -0.21621782062E+03 -0.11397237219E+04  0.17301673892E+03  0.14197376871E+04  0.80000000000E+03 0.  0.
   -2000013    1    1    2    0    0  0.21621782062E+03  0.11397237219E+04  0.40425783390E+03  0.14659961475E+04  0.80000000000E+03 0.  0.
<mgrwt>
<rscale>  0 0.28274041E+04</rscale>
<asrwt>0</asrwt>
<pdfrwt beam="2">  1        2 0.17757379E+00 0.28274041E+04</pdfrwt>
<pdfrwt beam="1">  1       -2 0.26638526E+00 0.28274041E+04</pdfrwt>
<totfact> 0.89356784E-01</totfact>
</mgrwt>
</event>
<event>
 4    1  0.7144937E-008  0.2534614E+04  0.7816531E-02  0.8390757E-01
         -2   -1    0    0    0  501 -0.00000000000E+00  0.00000000000E+00  0.10577334651E+04  0.10577334651E+04  0.00000000000E+00 0. -1.
          2   -1    0    0  501    0  0.00000000000E+00 -0.00000000000E+00 -0.15184041053E+04  0.15184041053E+04  0.00000000000E+00 0.  1.
    2000013    1    1    2    0    0 -0.56530108230E+03 -0.55945676906E+03 -0.81729929638E+03  0.13930309867E+04  0.80000000000E+03 0.  0.
   -2000013    1    1    2    0    0  0.56530108230E+03  0.55945676906E+03  0.35662865614E+03  0.11831065837E+04  0.80000000000E+03 0.  0.
<mgrwt>
<rscale>  0 0.25346138E+04</rscale>
<asrwt>0</asrwt>
<pdfrwt beam="2">  1        2 0.23360063E+00 0.25346138E+04</pdfrwt>
<pdfrwt beam="1">  1       -2 0.16272823E+00 0.25346138E+04</pdfrwt>
<totfact> 0.26514084E+00</totfact>
</mgrwt>
</event>
<event>
 4    1  0.7144937E-008  0.2402063E+04  0.7816531E-02  0.8438732E-01
         -2   -1    0    0    0  501 -0.00000000000E+00  0.00000000000E+00  0.15254108888E+04  0.15254108888E+04  0.00000000000E+00 0. -1.
          2   -1    0    0  501    0  0.00000000000E+00 -0.00000000000E+00 -0.94563128380E+03  0.94563128380E+03  0.00000000000E+00 0.  1.
    2000013    1    1    2    0    0 -0.69533690611E+03 -0.17982184007E+03 -0.26087919689E+03  0.11062943833E+04  0.80000000000E+03 0.  0.
   -2000013    1    1    2    0    0  0.69533690611E+03  0.17982184007E+03  0.84065880187E+03  0.13647477893E+04  0.80000000000E+03 0.  0.
<mgrwt>
<rscale>  0 0.24020627E+04</rscale>
<asrwt>0</asrwt>
<pdfrwt beam="2">  1        2 0.14548174E+00 0.24020627E+04</pdfrwt>
<pdfrwt beam="1">  1       -2 0.23467860E+00 0.24020627E+04</pdfrwt>
<totfact> 0.19638068E+00</totfact>
</mgrwt>
</event>
<event>
 4    1  0.7144937E-008  0.2758786E+04  0.7816531E-02  0.8316179E-01
          1   -1    0    0  501    0  0.00000000000E+00  0.00000000000E+00  0.18838978002E+04  0.18838978002E+04  0.00000000000E+00 0.  1.
         -1   -1    0    0    0  501 -0.00000000000E+00 -0.00000000000E+00 -0.10099936290E+04  0.10099936290E+04  0.00000000000E+00 0. -1.
    2000013    1    1    2    0    0 -0.41007078641E+03  0.80432755977E+03 -0.26486006969E+03  0.12350108217E+04  0.80000000000E+03 0.  0.
   -2000013    1    1    2    0    0  0.41007078641E+03 -0.80432755977E+03  0.11387642409E+04  0.16588806074E+04  0.80000000000E+03 0.  0.
<mgrwt>
<rscale>  0 0.27587858E+04</rscale>
<asrwt>0</asrwt>
<pdfrwt beam="1">  1        1 0.28983043E+00 0.27587858E+04</pdfrwt>
<pdfrwt beam="2">  1       -1 0.15538364E+00 0.27587858E+04</pdfrwt>
<totfact> 0.98383920E-01</totfact>
</mgrwt>
</event>
<event>
 4    1  0.7144937E-008  0.2969009E+04  0.7816531E-02  0.8252636E-01
          2   -1    0    0  501    0  0.00000000000E+00  0.00000000000E+00  0.36183134107E+04  0.36183134107E+04  0.00000000000E+00 0.  1.
         -2   -1    0    0    0  501 -0.00000000000E+00 -0.00000000000E+00 -0.60905561951E+03  0.60905561951E+03  0.00000000000E+00 0. -1.
    2000013    1    1    2    0    0 -0.11227879503E+04  0.41070983120E+03  0.98260719799E+03  0.17420827341E+04  0.80000000000E+03 0.  0.
   -2000013    1    1    2    0    0  0.11227879503E+04 -0.41070983120E+03  0.20266505932E+04  0.24852862961E+04  0.80000000000E+03 0.  0.
<mgrwt>
<rscale>  0 0.29690093E+04</rscale>
<asrwt>0</asrwt>
<pdfrwt beam="1">  1        2 0.55666358E+00 0.29690093E+04</pdfrwt>
<pdfrwt beam="2">  1       -2 0.93700867E-01 0.29690093E+04</pdfrwt>
<totfact> 0.55280474E-01</totfact>
</mgrwt>
</event>
<event>
 4    1  0.7144937E-008  0.2652467E+04  0.7816531E-02  0.8350594E-01
          2   -1    0    0  501    0  0.00000000000E+00  0.00000000000E+00  0.11907686732E+04  0.11907686732E+04  0.00000000000E+00 0.  1.
         -2   -1    0    0    0  501 -0.00000000000E+00 -0.00000000000E+00 -0.14771096293E+04  0.14771096293E+04  0.00000000000E+00 0. -1.
    2000013    1    1    2    0    0 -0.22741922352E+03  0.90264099962E+03  0.36215831772E+03  0.12797026704E+04  0.80000000000E+03 0.  0.
   -2000013    1    1    2    0    0  0.22741922352E+03 -0.90264099962E+03 -0.64849927389E+03  0.13881756321E+04  0.80000000000E+03 0.  0.
<mgrwt>
<rscale>  0 0.26524674E+04</rscale>
<asrwt>0</asrwt>
<pdfrwt beam="1">  1        2 0.18319518E+00 0.26524674E+04</pdfrwt>
<pdfrwt beam="2">  1       -2 0.22724763E+00 0.26524674E+04</pdfrwt>
<totfact> 0.15030602E+00</totfact>
</mgrwt>
</event>
<event>
 4    1  0.7144937E-008  0.1905663E+04  0.7816531E-02  0.8652043E-01
          2   -1    0    0  501    0  0.00000000000E+00  0.00000000000E+00  0.23047514821E+04  0.23047514821E+04  0.00000000000E+00 0.  1.
         -2   -1    0    0    0  501 -0.00000000000E+00 -0.00000000000E+00 -0.39392006081E+03  0.39392006081E+03  0.00000000000E+00 0. -1.
    2000013    1    1    2    0    0 -0.30876756782E+03  0.41419187536E+03  0.91073401235E+03  0.13176982818E+04  0.80000000000E+03 0.  0.
   -2000013    1    1    2    0    0  0.30876756782E+03 -0.41419187536E+03  0.10000974089E+04  0.13809732611E+04  0.80000000000E+03 0.  0.
<mgrwt>
<rscale>  0 0.19056630E+04</rscale>
<asrwt>0</asrwt>
<pdfrwt beam="1">  1        2 0.35457714E+00 0.19056630E+04</pdfrwt>
<pdfrwt beam="2">  1       -2 0.60603088E-01 0.19056630E+04</pdfrwt>
<totfact> 0.10698107E+01</totfact>
</mgrwt>
</event>
<event>
 4    1  0.7144937E-008  0.1936637E+04  0.7816531E-02  0.8636832E-01
         -2   -1    0    0    0  501 -0.00000000000E+00  0.00000000000E+00  0.74523183646E+03  0.74523183646E+03  0.00000000000E+00 0. -1.
          2   -1    0    0  501    0  0.00000000000E+00 -0.00000000000E+00 -0.12581866154E+04  0.12581866154E+04  0.00000000000E+00 0.  1.
    2000013    1    1    2    0    0  0.45509964220E+03 -0.27283546800E+03 -0.12527390050E+03  0.96811591613E+03  0.80000000000E+03 0.  0.
   -2000013    1    1    2    0    0 -0.45509964220E+03  0.27283546800E+03 -0.38768087841E+03  0.10353025357E+04  0.80000000000E+03 0.  0.
<mgrwt>
<rscale>  0 0.19366370E+04</rscale>
<asrwt>0</asrwt>
<pdfrwt beam="2">  1        2 0.19356717E+00 0.19366370E+04</pdfrwt>
<pdfrwt beam="1">  1       -2 0.11465105E+00 0.19366370E+04</pdfrwt>
<totfact> 0.97050305E+00</totfact>
</mgrwt>
</event>
<event>
 4    1  0.7144937E-008  0.1896471E+04  0.7816531E-02  0.8656615E-01
         -2   -1    0    0    0  501 -0.00000000000E+00  0.00000000000E+00  0.38352912780E+03  0.38352912780E+03  0.00000000000E+00 0. -1.
          2   -1    0    0  501    0  0.00000000000E+00 -0.00000000000E+00 -0.23444138806E+04  0.23444138806E+04  0.00000000000E+00 0.  1.
    2000013    1    1    2    0    0  0.38396821951E+03  0.27557732181E+03 -0.70836761927E+03  0.11684002473E+04  0.80000000000E+03 0.  0.
   -2000013    1    1    2    0    0 -0.38396821951E+03 -0.27557732181E+03 -0.12525171335E+04  0.15595427611E+04  0.80000000000E+03 0.  0.
<mgrwt>
<rscale>  0 0.18964715E+04</rscale>
<asrwt>0</asrwt>
<pdfrwt beam="2">  1        2 0.36067906E+00 0.18964715E+04</pdfrwt>
<pdfrwt beam="1">  1       -2 0.59004481E-01 0.18964715E+04</pdfrwt>
<totfact> 0.10756325E+01</totfact>
</mgrwt>
</event>
<event>
 4    1  0.7144937E-008  0.1828349E+04  0.7816531E-02  0.8691367E-01
          2   -1    0    0  501    0  0.00000000000E+00  0.00000000000E+00  0.10933984524E+04  0.10933984524E+04  0.00000000000E+00 0.  1.
         -2   -1    0    0    0  501 -0.00000000000E+00 -0.00000000000E+00 -0.76432783873E+03  0.76432783873E+03  0.00000000000E+00 0. -1.
    2000013    1    1    2    0    0 -0.39334261151E+03  0.12953532210E+03  0.32265407791E+03  0.95687170702E+03  0.80000000000E+03 0.  0.
   -2000013    1    1    2    0    0  0.39334261151E+03 -0.12953532210E+03  0.64165357265E+01  0.90085458407E+03  0.80000000000E+03 0.  0.
<mgrwt>
<rscale>  0 0.18283488E+04</rscale>
<asrwt>0</asrwt>
<pdfrwt beam="1">  1        2 0.16821515E+00 0.18283488E+04</pdfrwt>
<pdfrwt beam="2">  1       -2 0.11758890E+00 0.18283488E+04</pdfrwt>
<totfact> 0.11567883E+01</totfact>
</mgrwt>
</event>
<event>
 4    1  0.7144937E-008  0.1636545E+04  0.7816531E-02  0.8798407E-01
          2   -1    0    0  501    0  0.00000000000E+00  0.00000000000E+00  0.13504752758E+04  0.13504752758E+04  0.00000000000E+00 0. -1.
         -2   -1    0    0    0  501 -0.00000000000E+00 -0.00000000000E+00 -0.49580288571E+03  0.49580288571E+03  0.00000000000E+00 0.  1.
    2000013    1    1    2    0    0 -0.11300705542E+03  0.12680201975E+03  0.45761184306E+03  0.93715417392E+03  0.80000000000E+03 0.  0.
   -2000013    1    1    2    0    0  0.11300705542E+03 -0.12680201975E+03  0.39706054701E+03  0.90912398757E+03  0.80000000000E+03 0.  0.
<mgrwt>
<rscale>  0 0.16365446E+04</rscale>
<asrwt>0</asrwt>
<pdfrwt beam="1">  1        2 0.20776543E+00 0.16365446E+04</pdfrwt>
<pdfrwt beam="2">  1       -2 0.76277368E-01 0.16365446E+04</pdfrwt>
<totfact> 0.22725707E+01</totfact>
</mgrwt>
</event>
<event>
 4    1  0.7144937E-008  0.1824898E+04  0.7816531E-02  0.8693170E-01
         -1   -1    0    0    0  501 -0.00000000000E+00  0.00000000000E+00  0.41718682455E+03  0.41718682455E+03  0.00000000000E+00 0. -1.
          1   -1    0    0  501    0  0.00000000000E+00 -0.00000000000E+00 -0.19956612357E+04  0.19956612357E+04  0.00000000000E+00 0.  1.
    2000013    1    1    2    0    0 -0.34297131678E+03  0.20447083862E+03 -0.54859306652E+03  0.10489957105E+04  0.80000000000E+03 0.  0.
   -2000013    1    1    2    0    0  0.34297131678E+03 -0.20447083862E+03 -0.10298813447E+04  0.13638523498E+04  0.80000000000E+03 0.  0.
<mgrwt>
<rscale>  0 0.18248984E+04</rscale>
<asrwt>0</asrwt>
<pdfrwt beam="2">  1        1 0.30702480E+00 0.18248984E+04</pdfrwt>
<pdfrwt beam="1">  1       -1 0.64182589E-01 0.18248984E+04</pdfrwt>
<totfact> 0.69550863E+00</totfact>
</mgrwt>
</event>
<event>
 4    1  0.7144937E-008  0.1808479E+04  0.7816531E-02  0.8701803E-01
          2   -1    0    0  501    0  0.00000000000E+00  0.00000000000E+00  0.76321396192E+03  0.76321396192E+03  0.00000000000E+00 0.  1.
         -2   -1    0    0    0  501 -0.00000000000E+00 -0.00000000000E+00 -0.10713234779E+04  0.10713234779E+04  0.00000000000E+00 0. -1.
    2000013    1    1    2    0    0 -0.29428846552E+03 -0.22823144347E+03 -0.35426565814E+03  0.95089402631E+03  0.80000000000E+03 0.  0.
   -2000013    1    1    2    0    0  0.29428846552E+03  0.22823144347E+03  0.46156142205E+02  0.88364341348E+03  0.80000000000E+03 0.  0.
<mgrwt>
<rscale>  0 0.18084790E+04</rscale>
<asrwt>0</asrwt>
<pdfrwt beam="1">  1        2 0.11741753E+00 0.18084790E+04</pdfrwt>
<pdfrwt beam="2">  1       -2 0.16481899E+00 0.18084790E+04</pdfrwt>
<totfact> 0.80262282E+00</totfact>
</mgrwt>
</event>
<event>
 4    1  0.7144937E-008  0.2911247E+04  0.7816531E-02  0.8269539E-01
          2   -1    0    0  501    0  0.00000000000E+00  0.00000000000E+00  0.32861971701E+04  0.32861971701E+04  0.00000000000E+00 0.  1.
         -2   -1    0    0    0  501 -0.00000000000E+00 -0.00000000000E+00 -0.64476942537E+03  0.64476942537E+03  0.00000000000E+00 0. -1.
    2000013    1    1    2    0    0  0.97927176385E+03 -0.48538058433E+03  0.20406390211E+04  0.24492397011E+04  0.80000000000E+03 0.  0.
   -2000013    1    1    2    0    0 -0.97927176385E+03  0.48538058433E+03  0.60078872371E+03  0.14817268944E+04  0.80000000000E+03 0.  0.
<mgrwt>
<rscale>  0 0.29112468E+04</rscale>
<asrwt>0</asrwt>
<pdfrwt beam="1">  1        2 0.50556879E+00 0.29112468E+04</pdfrwt>
<pdfrwt beam="2">  1       -2 0.99195297E-01 0.29112468E+04</pdfrwt>
<totfact> 0.82548963E-01</totfact>
</mgrwt>
</event>
<event>
 4    1  0.7144937E-008  0.1834108E+04  0.7816531E-02  0.8688369E-01
          2   -1    0    0  501    0  0.00000000000E+00  0.00000000000E+00  0.25903442422E+04  0.25903442422E+04  0.00000000000E+00 0.  1.
         -2   -1    0    0    0  501 -0.00000000000E+00 -0.00000000000E+00 -0.32466250785E+03  0.32466250785E+03  0.00000000000E+00 0. -1.
    2000013    1    1    2    0    0  0.15119378483E+01 -0.38296800354E+03  0.15032640484E+04  0.17454138698E+04  0.80000000000E+03 0.  0.
   -2000013    1    1    2    0    0 -0.15119378483E+01  0.38296800354E+03  0.76241768600E+03  0.11695928803E+04  0.80000000000E+03 0.  0.
<mgrwt>
<rscale>  0 0.18341076E+04</rscale>
<asrwt>0</asrwt>
<pdfrwt beam="1">  1        2 0.39851449E+00 0.18341076E+04</pdfrwt>
<pdfrwt beam="2">  1       -2 0.49948080E-01 0.18341076E+04</pdfrwt>
<totfact> 0.11023735E+01</totfact>
</mgrwt>
</event>
<event>
 4    1  0.7144937E-008  0.2725713E+04  0.7816531E-02  0.8326710E-01
         -2   -1    0    0    0  501 -0.00000000000E+00  0.00000000000E+00  0.27898875879E+04  0.27898875879E+04  0.00000000000E+00 0. -1.
          2   -1    0    0  501    0  0.00000000000E+00 -0.00000000000E+00 -0.66575351899E+03  0.66575351899E+03  0.00000000000E+00 0.  1.
    2000013    1    1    2    0    0  0.28000030068E+03 -0.83220547494E+03  0.21500314856E+03  0.12071422761E+04  0.80000000000E+03 0.  0.
   -2000013    1    1    2    0    0 -0.28000030068E+03  0.83220547494E+03  0.19091309203E+04  0.22484988308E+04  0.80000000000E+03 0.  0.
<mgrwt>
<rscale>  0 0.27257127E+04</rscale>
<asrwt>0</asrwt>
<pdfrwt beam="2">  1        2 0.10242362E+00 0.27257127E+04</pdfrwt>
<pdfrwt beam="1">  1       -2 0.42921347E+00 0.27257127E+04</pdfrwt>
<totfact> 0.18192454E-01</totfact>
</mgrwt>
</event>
<event>
 4    1  0.7144937E-008  0.1733327E+04  0.7816531E-02  0.8742582E-01
         -2   -1    0    0    0  501 -0.00000000000E+00  0.00000000000E+00  0.26288094349E+03  0.26288094349E+03  0.00000000000E+00 0. -1.
          2   -1    0    0  501    0  0.00000000000E+00 -0.00000000000E+00 -0.28572086789E+04  0.28572086789E+04  0.00000000000E+00 0.  1.
    2000013    1    1    2    0    0 -0.38723288246E+02  0.28031618944E+03 -0.98008243684E+03  0.12963943235E+04  0.80000000000E+03 0.  0.
   -2000013    1    1    2    0    0  0.38723288246E+02 -0.28031618944E+03 -0.16142452986E+04  0.18236952988E+04  0.80000000000E+03 0.  0.
<mgrwt>
<rscale>  0 0.17333271E+04</rscale>
<asrwt>0</asrwt>
<pdfrwt beam="2">  1        2 0.43957056E+00 0.17333271E+04</pdfrwt>
<pdfrwt beam="1">  1       -2 0.40443223E-01 0.17333271E+04</pdfrwt>
<totfact> 0.11764278E+01</totfact>
</mgrwt>
</event>
<event>
 4    1  0.7144937E-008  0.2075264E+04  0.7816531E-02  0.8572219E-01
         -2   -1    0    0    0  501 -0.00000000000E+00  0.00000000000E+00  0.19397118955E+04  0.19397118955E+04  0.00000000000E+00 0. -1.
          2   -1    0    0  501    0  0.00000000000E+00 -0.00000000000E+00 -0.55507209344E+03  0.55507209344E+03  0.00000000000E+00 0.  1.
    2000013    1    1    2    0    0  0.45236214424E+03 -0.45133085942E+03  0.48991190847E+03  0.11350527443E+04  0.80000000000E+03 0.  0.
   -2000013    1    1    2    0    0 -0.45236214424E+03  0.45133085942E+03  0.89472789361E+03  0.13597312447E+04  0.80000000000E+03 0.  0.
<mgrwt>
<rscale>  0 0.20752638E+04</rscale>
<asrwt>0</asrwt>
<pdfrwt beam="2">  1        2 0.85395708E-01 0.20752638E+04</pdfrwt>
<pdfrwt beam="1">  1       -2 0.29841721E+00 0.20752638E+04</pdfrwt>
<totfact> 0.16355565E+00</totfact>
</mgrwt>
</event>
<event>
 4    1  0.7144937E-008  0.3297688E+04  0.7816531E-02  0.8163484E-01
         -2   -1    0    0    0  501 -0.00000000000E+00  0.00000000000E+00  0.99042648410E+03  0.99042648410E+03  0.00000000000E+00 0. -1.
          2   -1    0    0  501    0  0.00000000000E+00 -0.00000000000E+00 -0.27449658739E+04  0.27449658739E+04  0.00000000000E+00 0.  1.
    2000013    1    1    2    0    0 -0.19171762268E+03 -0.13793834711E+04 -0.45460406691E+03  0.16691672369E+04  0.80000000000E+03 0.  0.
   -2000013    1    1    2    0    0  0.19171762268E+03  0.13793834711E+04 -0.12999353229E+04  0.20662251210E+04  0.80000000000E+03 0.  0.
<mgrwt>
<rscale>  0 0.32976882E+04</rscale>
<asrwt>0</asrwt>
<pdfrwt beam="2">  1        2 0.42230244E+00 0.32976882E+04</pdfrwt>
<pdfrwt beam="1">  1       -2 0.15237331E+00 0.32976882E+04</pdfrwt>
<totfact> 0.59893092E-01</totfact>
</mgrwt>
</event>
<event>
 4    1  0.7144937E-008  0.3011146E+04  0.7816531E-02  0.8240555E-01
         -2   -1    0    0    0  501 -0.00000000000E+00  0.00000000000E+00  0.79429432417E+03  0.79429432417E+03  0.00000000000E+00 0. -1.
          2   -1    0    0  501    0  0.00000000000E+00 -0.00000000000E+00 -0.28537912495E+04  0.28537912495E+04  0.00000000000E+00 0.  1.
    2000013    1    1    2    0    0  0.11906089225E+04  0.35210006181E+03 -0.13834358558E+04  0.20237141169E+04  0.80000000000E+03 0.  0.
   -2000013    1    1    2    0    0 -0.11906089225E+04 -0.35210006181E+03 -0.67606106947E+03  0.16243714567E+04  0.80000000000E+03 0.  0.
<mgrwt>
<rscale>  0 0.30111461E+04</rscale>
<asrwt>0</asrwt>
<pdfrwt beam="2">  1        2 0.43904480E+00 0.30111461E+04</pdfrwt>
<pdfrwt beam="1">  1       -2 0.12219913E+00 0.30111461E+04</pdfrwt>
<totfact> 0.93034693E-01</totfact>
</mgrwt>
</event>
<event>
 4    1  0.7144937E-008  0.2059366E+04  0.7816531E-02  0.8579357E-01
          2   -1    0    0  501    0  0.00000000000E+00  0.00000000000E+00  0.64512383951E+03  0.64512383951E+03  0.00000000000E+00 0.  1.
         -2   -1    0    0    0  501 -0.00000000000E+00 -0.00000000000E+00 -0.16434781610E+04  0.16434781610E+04  0.00000000000E+00 0. -1.
    2000013    1    1    2    0    0 -0.14313696319E+03 -0.63008393120E+03 -0.55748663699E+03  0.11697372786E+04  0.80000000000E+03 0.  0.
   -2000013    1    1    2    0    0  0.14313696319E+03  0.63008393120E+03 -0.44086768445E+03  0.11188647218E+04  0.80000000000E+03 0.  0.
<mgrwt>
<rscale>  0 0.20593659E+04</rscale>
<asrwt>0</asrwt>
<pdfrwt beam="1">  1        2 0.99249822E-01 0.20593659E+04</pdfrwt>
<pdfrwt beam="2">  1       -2 0.25284279E+00 0.20593659E+04</pdfrwt>
<totfact> 0.25897373E+00</totfact>
</mgrwt>
</event>
<event>
 4    1  0.7144937E-008  0.2076788E+04  0.7816531E-02  0.8571538E-01
          2   -1    0    0  501    0  0.00000000000E+00  0.00000000000E+00  0.21226986326E+04  0.21226986326E+04  0.00000000000E+00 0.  1.
         -2   -1    0    0    0  501 -0.00000000000E+00 -0.00000000000E+00 -0.50796734375E+03  0.50796734375E+03  0.00000000000E+00 0. -1.
    2000013    1    1    2    0    0  0.56911574326E+03  0.30598101494E+03  0.62492362434E+03  0.12033480988E+04  0.80000000000E+03 0.  0.
   -2000013    1    1    2    0    0 -0.56911574326E+03 -0.30598101494E+03  0.98980766452E+03  0.14273178775E+04  0.80000000000E+03 0.  0.
<mgrwt>
<rscale>  0 0.20767875E+04</rscale>
<asrwt>0</asrwt>
<pdfrwt beam="1">  1        2 0.32656902E+00 0.20767875E+04</pdfrwt>
<pdfrwt beam="2">  1       -2 0.78148823E-01 0.20767875E+04</pdfrwt>
<totfact> 0.76755122E+00</totfact>
</mgrwt>
</event>
<event>
 4    1  0.7144937E-008  0.1709977E+04  0.7816531E-02  0.8755695E-01
         -2   -1    0    0    0  501 -0.00000000000E+00  0.00000000000E+00  0.68415792534E+03  0.68415792534E+03  0.00000000000E+00 0. -1.
          2   -1    0    0  501    0  0.00000000000E+00 -0.00000000000E+00 -0.10684742203E+04  0.10684742203E+04  0.00000000000E+00 0.  1.
    2000013    1    1    2    0    0 -0.15109697790E+03 -0.25990493381E+03 -0.16655021856E+03  0.87070077906E+03  0.80000000000E+03 0.  0.
   -2000013    1    1    2    0    0  0.15109697790E+03  0.25990493381E+03 -0.21776607642E+03  0.88193136660E+03  0.80000000000E+03 0.  0.
<mgrwt>
<rscale>  0 0.17099767E+04</rscale>
<asrwt>0</asrwt>
<pdfrwt beam="2">  1        2 0.16438065E+00 0.17099767E+04</pdfrwt>
<pdfrwt beam="1">  1       -2 0.10525507E+00 0.17099767E+04</pdfrwt>
<totfact> 0.15839720E+01</totfact>
</mgrwt>
</event>
<event>
 4    1  0.7144937E-008  0.1984786E+04  0.7816531E-02  0.8613767E-01
         -2   -1    0    0    0  501 -0.00000000000E+00  0.00000000000E+00  0.99596782985E+03  0.99596782985E+03  0.00000000000E+00 0. -1.
          2   -1    0    0  501    0  0.00000000000E+00 -0.00000000000E+00 -0.98883069221E+03  0.98883069221E+03  0.00000000000E+00 0.  1.
    2000013    1    1    2    0    0 -0.39172920844E+03 -0.16140424025E+03  0.41019197573E+03  0.99386143827E+03  0.80000000000E+03 0.  0.
   -2000013    1    1    2    0    0  0.39172920844E+03  0.16140424025E+03 -0.40305483809E+03  0.99093708379E+03  0.80000000000E+03 0.  0.
<mgrwt>
<rscale>  0 0.19847857E+04</rscale>
<asrwt>0</asrwt>
<pdfrwt beam="2">  1        2 0.15212780E+00 0.19847857E+04</pdfrwt>
<pdfrwt beam="1">  1       -2 0.15322582E+00 0.19847857E+04</pdfrwt>
<totfact> 0.67435827E+00</totfact>
</mgrwt>
</event>
<event>
 4    1  0.7144937E-008  0.1739638E+04  0.7816531E-02  0.8739075E-01
         -2   -1    0    0    0  501 -0.00000000000E+00  0.00000000000E+00  0.29859995467E+03  0.29859995467E+03  0.00000000000E+00 0. -1.
          2   -1    0    0  501    0  0.00000000000E+00 -0.00000000000E+00 -0.25337737987E+04  0.25337737987E+04  0.00000000000E+00 0.  1.
    2000013    1    1    2    0    0  0.26227435245E+03 -0.20664963148E+03 -0.12337776821E+04  0.15078790651E+04  0.80000000000E+03 0.  0.
   -2000013    1    1    2    0    0 -0.26227435245E+03  0.20664963148E+03 -0.10013961620E+04  0.13244946883E+04  0.80000000000E+03 0.  0.
<mgrwt>
<rscale>  0 0.17396376E+04</rscale>
<asrwt>0</asrwt>
<pdfrwt beam="2">  1        2 0.38981136E+00 0.17396376E+04</pdfrwt>
<pdfrwt beam="1">  1       -2 0.45938454E-01 0.17396376E+04</pdfrwt>
<totfact> 0.14204037E+01</totfact>
</mgrwt>
</event>
<event>
 4    1  0.7144937E-008  0.2694642E+04  0.7816531E-02  0.8336745E-01
         -2   -1    0    0    0  501 -0.00000000000E+00  0.00000000000E+00  0.60336797826E+03  0.60336797826E+03  0.00000000000E+00 0. -1.
          2   -1    0    0  501    0  0.00000000000E+00 -0.00000000000E+00 -0.30085692183E+04  0.30085692183E+04  0.00000000000E+00 0.  1.
    2000013    1    1    2    0    0  0.57208704248E+03 -0.52853001368E+03 -0.19181198752E+03  0.11328810167E+04  0.80000000000E+03 0.  0.
   -2000013    1    1    2    0    0 -0.57208704248E+03  0.52853001368E+03 -0.22133892525E+04  0.24790561798E+04  0.80000000000E+03 0.  0.
<mgrwt>
<rscale>  0 0.26946423E+04</rscale>
<asrwt>0</asrwt>
<pdfrwt beam="2">  1        2 0.46285681E+00 0.26946423E+04</pdfrwt>
<pdfrwt beam="1">  1       -2 0.92825842E-01 0.26946423E+04</pdfrwt>
<totfact> 0.14843930E+00</totfact>
</mgrwt>
</event>
<event>
 4    1  0.7144937E-008  0.1891827E+04  0.7816531E-02  0.8658936E-01
          2   -1    0    0  501    0  0.00000000000E+00  0.00000000000E+00  0.10621874323E+04  0.10621874323E+04  0.00000000000E+00 0.  1.
         -2   -1    0    0    0  501 -0.00000000000E+00 -0.00000000000E+00 -0.84236726437E+03  0.84236726437E+03  0.00000000000E+00 0. -1.
    2000013    1    1    2    0    0 -0.23375246601E+03 -0.44733807669E+03  0.10931330115E+03  0.95220846879E+03  0.80000000000E+03 0.  0.
   -2000013    1    1    2    0    0  0.23375246601E+03  0.44733807669E+03  0.11050686682E+03  0.95234622792E+03  0.80000000000E+03 0.  0.
<mgrwt>
<rscale>  0 0.18918265E+04</rscale>
<asrwt>0</asrwt>
<pdfrwt beam="1">  1        2 0.16341345E+00 0.18918265E+04</pdfrwt>
<pdfrwt beam="2">  1       -2 0.12959496E+00 0.18918265E+04</pdfrwt>
<totfact> 0.94359330E+00</totfact>
</mgrwt>
</event>
<event>
 4    1  0.7144937E-008  0.3209739E+04  0.7816531E-02  0.8186250E-01
         -2   -1    0    0    0  501 -0.00000000000E+00  0.00000000000E+00  0.99285795961E+03  0.99285795961E+03  0.00000000000E+00 0. -1.
          2   -1    0    0  501    0  0.00000000000E+00 -0.00000000000E+00 -0.25941334599E+04  0.25941334599E+04  0.00000000000E+00 0.  1.
    2000013    1    1    2    0    0  0.13548785882E+04 -0.21668507422E+03 -0.10578105010E+04  0.19083006750E+04  0.80000000000E+03 0.  0.
   -2000013    1    1    2    0    0 -0.13548785882E+04  0.21668507422E+03 -0.54346499921E+03  0.16786907445E+04  0.80000000000E+03 0.  0.
<mgrwt>
<rscale>  0 0.32097390E+04</rscale>
<asrwt>0</asrwt>
<pdfrwt beam="2">  1        2 0.39909745E+00 0.32097390E+04</pdfrwt>
<pdfrwt beam="1">  1       -2 0.15274738E+00 0.32097390E+04</pdfrwt>
<totfact> 0.73662842E-01</totfact>
</mgrwt>
</event>
<event>
 4    1  0.7144937E-008  0.1942244E+04  0.7816531E-02  0.8634110E-01
         -1   -1    0    0    0  501 -0.00000000000E+00  0.00000000000E+00  0.71370140113E+03  0.71370140113E+03  0.00000000000E+00 0. -1.
          1   -1    0    0  501    0  0.00000000000E+00 -0.00000000000E+00 -0.13213905467E+04  0.13213905467E+04  0.00000000000E+00 0.  1.
    2000013    1    1    2    0    0  0.13932950962E+03 -0.48037092043E+03 -0.62828288989E+02  0.94557724557E+03  0.80000000000E+03 0.  0.
   -2000013    1    1    2    0    0 -0.13932950962E+03  0.48037092043E+03 -0.54486085659E+03  0.10895147023E+04  0.80000000000E+03 0.  0.
<mgrwt>
<rscale>  0 0.19422444E+04</rscale>
<asrwt>0</asrwt>
<pdfrwt beam="2">  1        1 0.20329085E+00 0.19422444E+04</pdfrwt>
<pdfrwt beam="1">  1       -1 0.10980022E+00 0.19422444E+04</pdfrwt>
<totfact> 0.62403863E+00</totfact>
</mgrwt>
</event>
<event>
 4    1  0.7144937E-008  0.2064159E+04  0.7816531E-02  0.8577198E-01
          2   -1    0    0  501    0  0.00000000000E+00  0.00000000000E+00  0.10592520081E+04  0.10592520081E+04  0.00000000000E+00 0.  1.
         -2   -1    0    0    0  501 -0.00000000000E+00 -0.00000000000E+00 -0.10056044070E+04  0.10056044070E+04  0.00000000000E+00 0. -1.
    2000013    1    1    2    0    0 -0.61714405315E+03  0.66542430921E+02 -0.17297799504E+03  0.10272371022E+04  0.80000000000E+03 0.  0.
   -2000013    1    1    2    0    0  0.61714405315E+03 -0.66542430921E+02  0.22662559615E+03  0.10376193128E+04  0.80000000000E+03 0.  0.
<mgrwt>
<rscale>  0 0.20641594E+04</rscale>
<asrwt>0</asrwt>
<pdfrwt beam="1">  1        2 0.16296185E+00 0.20641594E+04</pdfrwt>
<pdfrwt beam="2">  1       -2 0.15470837E+00 0.20641594E+04</pdfrwt>
<totfact> 0.58896134E+00</totfact>
</mgrwt>
</event>
<event>
 4    1  0.7144937E-008  0.2472945E+04  0.7816531E-02  0.8412688E-01
         -2   -1    0    0    0  501 -0.00000000000E+00  0.00000000000E+00  0.61334273233E+03  0.61334273233E+03  0.00000000000E+00 0. -1.
          2   -1    0    0  501    0  0.00000000000E+00 -0.00000000000E+00 -0.24926760906E+04  0.24926760906E+04  0.00000000000E+00 0.  1.
    2000013    1    1    2    0    0  0.81889660110E+03 -0.29164759690E+02 -0.35401171064E+03  0.11986519586E+04  0.80000000000E+03 0.  0.
   -2000013    1    1    2    0    0 -0.81889660110E+03  0.29164759690E+02 -0.15253216476E+04  0.19073668643E+04  0.80000000000E+03 0.  0.
<mgrwt>
<rscale>  0 0.24729454E+04</rscale>
<asrwt>0</asrwt>
<pdfrwt beam="2">  1        2 0.38348863E+00 0.24729454E+04</pdfrwt>
<pdfrwt beam="1">  1       -2 0.94360419E-01 0.24729454E+04</pdfrwt>
<totfact> 0.29747133E+00</totfact>
</mgrwt>
</event>
<event>
 4    1  0.7144937E-008  0.3068344E+04  0.7816531E-02  0.8224480E-01
         -2   -1    0    0    0  501 -0.00000000000E+00  0.00000000000E+00  0.16795946590E+04  0.16795946590E+04  0.00000000000E+00 0. -1.
          2   -1    0    0  501    0  0.00000000000E+00 -0.00000000000E+00 -0.14013404613E+04  0.14013404613E+04  0.00000000000E+00 0.  1.
    2000013    1    1    2    0    0 -0.44889528486E+03  0.11051289731E+04 -0.40240681250E+03  0.14915590054E+04  0.80000000000E+03 0.  0.
   -2000013    1    1    2    0    0  0.44889528486E+03 -0.11051289731E+04  0.68066101025E+03  0.15893761149E+04  0.80000000000E+03 0.  0.
<mgrwt>
<rscale>  0 0.30683441E+04</rscale>
<asrwt>0</asrwt>
<pdfrwt beam="2">  1        2 0.21559084E+00 0.30683441E+04</pdfrwt>
<pdfrwt beam="1">  1       -2 0.25839918E+00 0.30683441E+04</pdfrwt>
<totfact> 0.70169420E-01</totfact>
</mgrwt>
</event>
<event>
 4    1  0.7144937E-008  0.4246062E+04  0.7816531E-02  0.7956668E-01
         -2   -1    0    0    0  501 -0.00000000000E+00  0.00000000000E+00  0.31212692710E+04  0.31212692710E+04  0.00000000000E+00 0. -1.
          2   -1    0    0  501    0  0.00000000000E+00 -0.00000000000E+00 -0.14440473804E+04  0.14440473804E+04  0.00000000000E+00 0.  1.
    2000013    1    1    2    0    0 -0.76818784773E+03  0.13148549306E+04 -0.49925555742E+03  0.17911482824E+04  0.80000000000E+03 0.  0.
   -2000013    1    1    2    0    0  0.76818784773E+03 -0.13148549306E+04  0.21764774480E+04  0.27741683690E+04  0.80000000000E+03 0.  0.
<mgrwt>
<rscale>  0 0.42460620E+04</rscale>
<asrwt>0</asrwt>
<pdfrwt beam="2">  1        2 0.22216114E+00 0.42460620E+04</pdfrwt>
<pdfrwt beam="1">  1       -2 0.48019527E+00 0.42460620E+04</pdfrwt>
<totfact> 0.23294887E-02</totfact>
</mgrwt>
</event>
<event>
 4    1  0.7144937E-008  0.2279731E+04  0.7816531E-02  0.8485956E-01
          2   -1    0    0  501    0  0.00000000000E+00  0.00000000000E+00  0.11739639341E+04  0.11739639341E+04  0.00000000000E+00 0.  1.
         -2   -1    0    0    0  501 -0.00000000000E+00 -0.00000000000E+00 -0.11067579283E+04  0.11067579283E+04  0.00000000000E+00 0. -1.
    2000013    1    1    2    0    0  0.72658244831E+03  0.35704953090E+03 -0.28773661846E+02  0.11385228787E+04  0.80000000000E+03 0.  0.
   -2000013    1    1    2    0    0 -0.72658244831E+03 -0.35704953090E+03  0.95979667634E+02  0.11421989837E+04  0.80000000000E+03 0.  0.
<mgrwt>
<rscale>  0 0.22797315E+04</rscale>
<asrwt>0</asrwt>
<pdfrwt beam="1">  1        2 0.18060984E+00 0.22797315E+04</pdfrwt>
<pdfrwt beam="2">  1       -2 0.17027045E+00 0.22797315E+04</pdfrwt>
<totfact> 0.37836434E+00</totfact>
</mgrwt>
</event>
<event>
 4    1  0.7144937E-008  0.3029241E+04  0.7816531E-02  0.8235430E-01
         -2   -1    0    0    0  501 -0.00000000000E+00  0.00000000000E+00  0.53730745977E+03  0.53730745977E+03  0.00000000000E+00 0. -1.
          2   -1    0    0  501    0  0.00000000000E+00 -0.00000000000E+00 -0.42695772610E+04  0.42695772610E+04  0.00000000000E+00 0.  1.
    2000013    1    1    2    0    0  0.47116060289E+02 -0.12595992525E+04 -0.14607461306E+04  0.20886812725E+04  0.80000000000E+03 0.  0.
   -2000013    1    1    2    0    0 -0.47116060289E+02  0.12595992525E+04 -0.22715236707E+04  0.27182034483E+04  0.80000000000E+03 0.  0.
<mgrwt>
<rscale>  0 0.30292413E+04</rscale>
<asrwt>0</asrwt>
<pdfrwt beam="2">  1        2 0.65685807E+00 0.30292413E+04</pdfrwt>
<pdfrwt beam="1">  1       -2 0.82662683E-01 0.30292413E+04</pdfrwt>
<totfact> 0.22121970E-01</totfact>
</mgrwt>
</event>
<event>
 4    1  0.7144937E-008  0.2104105E+04  0.7816531E-02  0.8559437E-01
         -2   -1    0    0    0  501 -0.00000000000E+00  0.00000000000E+00  0.35591717324E+03  0.35591717324E+03  0.00000000000E+00 0. -1.
          2   -1    0    0  501    0  0.00000000000E+00 -0.00000000000E+00 -0.31097516267E+04  0.31097516267E+04  0.00000000000E+00 0.  1.
    2000013    1    1    2    0    0 -0.59875197071E+03  0.31629028066E+03 -0.15267085943E+04  0.18518592268E+04  0.80000000000E+03 0.  0.
   -2000013    1    1    2    0    0  0.59875197071E+03 -0.31629028066E+03 -0.12271258592E+04  0.16138095731E+04  0.80000000000E+03 0.  0.
<mgrwt>
<rscale>  0 0.21041046E+04</rscale>
<asrwt>0</asrwt>
<pdfrwt beam="2">  1        2 0.47842332E+00 0.21041046E+04</pdfrwt>
<pdfrwt beam="1">  1       -2 0.54756489E-01 0.21041046E+04</pdfrwt>
<totfact> 0.42975997E+00</totfact>
</mgrwt>
</event>
<event>
 4    1  0.7144937E-008  0.1909461E+04  0.7816531E-02  0.8650161E-01
         -2   -1    0    0    0  501 -0.00000000000E+00  0.00000000000E+00  0.10791582492E+04  0.10791582492E+04  0.00000000000E+00 0. -1.
          2   -1    0    0  501    0  0.00000000000E+00 -0.00000000000E+00 -0.84464980200E+03  0.84464980200E+03  0.00000000000E+00 0.  1.
    2000013    1    1    2    0    0 -0.80197557398E+02  0.20341636269E+03  0.59377817449E+03  0.10199913653E+04  0.80000000000E+03 0.  0.
   -2000013    1    1    2    0    0  0.80197557398E+02 -0.20341636269E+03 -0.35926972726E+03  0.90381668592E+03  0.80000000000E+03 0.  0.
<mgrwt>
<rscale>  0 0.19094615E+04</rscale>
<asrwt>0</asrwt>
<pdfrwt beam="2">  1        2 0.12994612E+00 0.19094615E+04</pdfrwt>
<pdfrwt beam="1">  1       -2 0.16602435E+00 0.19094615E+04</pdfrwt>
<totfact> 0.68161084E+00</totfact>
</mgrwt>
</event>
<event>
 4    1  0.7144937E-008  0.2034105E+04  0.7816531E-02  0.8590840E-01
          2   -1    0    0  501    0  0.00000000000E+00  0.00000000000E+00  0.17802781967E+04  0.17802781967E+04  0.00000000000E+00 0.  1.
         -2   -1    0    0    0  501 -0.00000000000E+00 -0.00000000000E+00 -0.58103018340E+03  0.58103018340E+03  0.00000000000E+00 0. -1.
    2000013    1    1    2    0    0 -0.54423324282E+03 -0.13809533980E+03  0.27306298881E+03  0.10148022178E+04  0.80000000000E+03 0.  0.
   -2000013    1    1    2    0    0  0.54423324282E+03  0.13809533980E+03  0.92618502452E+03  0.13465061623E+04  0.80000000000E+03 0.  0.
<mgrwt>
<rscale>  0 0.20341046E+04</rscale>
<asrwt>0</asrwt>
<pdfrwt beam="1">  1        2 0.27388895E+00 0.20341046E+04</pdfrwt>
<pdfrwt beam="2">  1       -2 0.89389260E-01 0.20341046E+04</pdfrwt>
<totfact> 0.88014448E+00</totfact>
</mgrwt>
</event>
<event>
 4    1  0.7144937E-008  0.1809074E+04  0.7816531E-02  0.8701489E-01
         -2   -1    0    0    0  501 -0.00000000000E+00  0.00000000000E+00  0.82329244276E+03  0.82329244276E+03  0.00000000000E+00 0. -1.
          2   -1    0    0  501    0  0.00000000000E+00 -0.00000000000E+00 -0.99379875057E+03  0.99379875057E+03  0.00000000000E+00 0.  1.
    2000013    1    1    2    0    0  0.11639487887E+03 -0.37469148324E+03 -0.24165297117E+03  0.92322133528E+03  0.80000000000E+03 0.  0.
   -2000013    1    1    2    0    0 -0.11639487887E+03  0.37469148324E+03  0.71146663364E+02  0.89386985806E+03  0.80000000000E+03 0.  0.
<mgrwt>
<rscale>  0 0.18090738E+04</rscale>
<asrwt>0</asrwt>
<pdfrwt beam="2">  1        2 0.15289212E+00 0.18090738E+04</pdfrwt>
<pdfrwt beam="1">  1       -2 0.12666038E+00 0.18090738E+04</pdfrwt>
<totfact> 0.11123754E+01</totfact>
</mgrwt>
</event>
<event>
 4    1  0.7144937E-008  0.2637675E+04  0.7816531E-02  0.8355515E-01
         -2   -1    0    0    0  501 -0.00000000000E+00  0.00000000000E+00  0.55224774770E+03  0.55224774770E+03  0.00000000000E+00 0.  1.
          2   -1    0    0  501    0  0.00000000000E+00 -0.00000000000E+00 -0.31495514990E+04  0.31495514990E+04  0.00000000000E+00 0. -1.
    2000013    1    1    2    0    0 -0.51579559155E+03 -0.44483734916E+03 -0.17994152938E+03  0.10659757565E+04  0.80000000000E+03 0.  0.
   -2000013    1    1    2    0    0  0.51579559155E+03  0.44483734916E+03 -0.24173622219E+04  0.26358234902E+04  0.80000000000E+03 0.  0.
<mgrwt>
<rscale>  0 0.26376753E+04</rscale>
<asrwt>0</asrwt>
<pdfrwt beam="2">  1        2 0.48454638E+00 0.26376753E+04</pdfrwt>
<pdfrwt beam="1">  1       -2 0.84961192E-01 0.26376753E+04</pdfrwt>
<totfact> 0.14873078E+00</totfact>
</mgrwt>
</event>
<event>
 4    1  0.7144937E-008  0.2239587E+04  0.7816531E-02  0.8502130E-01
         -2   -1    0    0    0  501 -0.00000000000E+00  0.00000000000E+00  0.14331224722E+04  0.14331224722E+04  0.00000000000E+00 0. -1.
          2   -1    0    0  501    0  0.00000000000E+00 -0.00000000000E+00 -0.87496863817E+03  0.87496863817E+03  0.00000000000E+00 0.  1.
    2000013    1    1    2    0    0 -0.36816435093E+03  0.17438742501E+03  0.96886387225E+03  0.13208531963E+04  0.80000000000E+03 0.  0.
   -2000013    1    1    2    0    0  0.36816435093E+03 -0.17438742501E+03 -0.41071003826E+03  0.98723791400E+03  0.80000000000E+03 0.  0.
<mgrwt>
<rscale>  0 0.22395868E+04</rscale>
<asrwt>0</asrwt>
<pdfrwt beam="2">  1        2 0.13461056E+00 0.22395868E+04</pdfrwt>
<pdfrwt beam="1">  1       -2 0.22048038E+00 0.22395868E+04</pdfrwt>
<totfact> 0.27262321E+00</totfact>
</mgrwt>
</event>
<event>
 4    1  0.7144937E-008  0.2386724E+04  0.7816531E-02  0.8444491E-01
          2   -1    0    0  501    0  0.00000000000E+00  0.00000000000E+00  0.67761239917E+03  0.67761239917E+03  0.00000000000E+00 0.  1.
         -2   -1    0    0    0  501 -0.00000000000E+00 -0.00000000000E+00 -0.21016622464E+04  0.21016622464E+04  0.00000000000E+00 0. -1.
    2000013    1    1    2    0    0 -0.73402082096E+03 -0.44849658490E+03 -0.95677661421E+03  0.15150436435E+04  0.80000000000E+03 0.  0.
   -2000013    1    1    2    0    0  0.73402082096E+03  0.44849658490E+03 -0.46727323305E+03  0.12642310021E+04  0.80000000000E+03 0.  0.
<mgrwt>
<rscale>  0 0.23867236E+04</rscale>
<asrwt>0</asrwt>
<pdfrwt beam="1">  1        2 0.10424806E+00 0.23867236E+04</pdfrwt>
<pdfrwt beam="2">  1       -2 0.32333266E+00 0.23867236E+04</pdfrwt>
<totfact> 0.87796043E-01</totfact>
</mgrwt>
</event>
<event>
 4    1  0.7144937E-008  0.3309344E+04  0.7816531E-02  0.8160522E-01
          2   -1    0    0  501    0  0.00000000000E+00  0.00000000000E+00  0.19307117689E+04  0.19307117689E+04  0.00000000000E+00 0.  1.
         -2   -1    0    0    0  501 -0.00000000000E+00 -0.00000000000E+00 -0.14180982325E+04  0.14180982325E+04  0.00000000000E+00 0. -1.
    2000013    1    1    2    0    0 -0.10623990245E+04 -0.96320508201E+03  0.50203483864E+02  0.16428560823E+04  0.80000000000E+03 0.  0.
   -2000013    1    1    2    0    0  0.10623990245E+04  0.96320508201E+03  0.46241005249E+03  0.17059539191E+04  0.80000000000E+03 0.  0.
<mgrwt>
<rscale>  0 0.33093437E+04</rscale>
<asrwt>0</asrwt>
<pdfrwt beam="1">  1        2 0.29703258E+00 0.33093437E+04</pdfrwt>
<pdfrwt beam="2">  1       -2 0.21816896E+00 0.33093437E+04</pdfrwt>
<totfact> 0.61861142E-01</totfact>
</mgrwt>
</event>
<event>
 4    1  0.7144937E-008  0.1852236E+04  0.7816531E-02  0.8679004E-01
         -2   -1    0    0    0  501 -0.00000000000E+00  0.00000000000E+00  0.11059599186E+04  0.11059599186E+04  0.00000000000E+00 0. -1.
          2   -1    0    0  501    0  0.00000000000E+00 -0.00000000000E+00 -0.77552065250E+03  0.77552065250E+03  0.00000000000E+00 0.  1.
    2000013    1    1    2    0    0 -0.77482895879E+02 -0.43874105658E+03  0.24477195792E+02  0.91602207779E+03  0.80000000000E+03 0.  0.
   -2000013    1    1    2    0    0  0.77482895879E+02  0.43874105658E+03  0.30596207033E+03  0.96545849334E+03  0.80000000000E+03 0.  0.
<mgrwt>
<rscale>  0 0.18522362E+04</rscale>
<asrwt>0</asrwt>
<pdfrwt beam="2">  1        2 0.11931087E+00 0.18522362E+04</pdfrwt>
<pdfrwt beam="1">  1       -2 0.17014768E+00 0.18522362E+04</pdfrwt>
<totfact> 0.71709801E+00</totfact>
</mgrwt>
</event>
<event>
 4    1  0.7144937E-008  0.1839685E+04  0.7816531E-02  0.8685476E-01
          2   -1    0    0  501    0  0.00000000000E+00  0.00000000000E+00  0.12644679755E+04  0.12644679755E+04  0.00000000000E+00 0.  1.
         -2   -1    0    0    0  501 -0.00000000000E+00 -0.00000000000E+00 -0.66914292086E+03  0.66914292086E+03  0.00000000000E+00 0. -1.
    2000013    1    1    2    0    0  0.15375539088E+03  0.38980838142E+03  0.48127717341E+03  0.10233371937E+04  0.80000000000E+03 0.  0.
   -2000013    1    1    2    0    0 -0.15375539088E+03 -0.38980838142E+03  0.11404788122E+03  0.91027370261E+03  0.80000000000E+03 0.  0.
<mgrwt>
<rscale>  0 0.18396845E+04</rscale>
<asrwt>0</asrwt>
<pdfrwt beam="1">  1        2 0.19453354E+00 0.18396845E+04</pdfrwt>
<pdfrwt beam="2">  1       -2 0.10294506E+00 0.18396845E+04</pdfrwt>
<totfact> 0.12582307E+01</totfact>
</mgrwt>
</event>
<event>
 4    1  0.7144937E-008  0.2619502E+04  0.7816531E-02  0.8361607E-01
         -2   -1    0    0    0  501 -0.00000000000E+00  0.00000000000E+00  0.66528735875E+03  0.66528735875E+03  0.00000000000E+00 0. -1.
          2   -1    0    0  501    0  0.00000000000E+00 -0.00000000000E+00 -0.25785066148E+04  0.25785066148E+04  0.00000000000E+00 0.  1.
    2000013    1    1    2    0    0  0.67128957498E+03  0.79037949153E+03 -0.94313399663E+03  0.16139489365E+04  0.80000000000E+03 0.  0.
   -2000013    1    1    2    0    0 -0.67128957498E+03 -0.79037949153E+03 -0.97008525939E+03  0.16298450370E+04  0.80000000000E+03 0.  0.
<mgrwt>
<rscale>  0 0.26195021E+04</rscale>
<asrwt>0</asrwt>
<pdfrwt beam="2">  1        2 0.39669333E+00 0.26195021E+04</pdfrwt>
<pdfrwt beam="1">  1       -2 0.10235190E+00 0.26195021E+04</pdfrwt>
<totfact> 0.21616968E+00</totfact>
</mgrwt>
</event>
<event>
 4    1  0.7144937E-008  0.2362763E+04  0.7816531E-02  0.8453578E-01
         -2   -1    0    0    0  501 -0.00000000000E+00  0.00000000000E+00  0.19595021937E+04  0.19595021937E+04  0.00000000000E+00 0. -1.
          2   -1    0    0  501    0  0.00000000000E+00 -0.00000000000E+00 -0.71225331500E+03  0.71225331500E+03  0.00000000000E+00 0.  1.
    2000013    1    1    2    0    0  0.39142679210E+03  0.43291510677E+03  0.13521036065E+04  0.16759518447E+04  0.80000000000E+03 0.  0.
   -2000013    1    1    2    0    0 -0.39142679210E+03 -0.43291510677E+03 -0.10485472776E+03  0.99580366397E+03  0.80000000000E+03 0.  0.
<mgrwt>
<rscale>  0 0.23627627E+04</rscale>
<asrwt>0</asrwt>
<pdfrwt beam="2">  1        2 0.10957743E+00 0.23627627E+04</pdfrwt>
<pdfrwt beam="1">  1       -2 0.30146187E+00 0.23627627E+04</pdfrwt>
<totfact> 0.11259072E+00</totfact>
</mgrwt>
</event>
<event>
 4    1  0.7144937E-008  0.3544920E+04  0.7816531E-02  0.8103226E-01
          2   -1    0    0  501    0  0.00000000000E+00  0.00000000000E+00  0.23260585942E+04  0.23260585942E+04  0.00000000000E+00 0.  1.
         -2   -1    0    0    0  501 -0.00000000000E+00 -0.00000000000E+00 -0.13506171926E+04  0.13506171926E+04  0.00000000000E+00 0. -1.
    2000013    1    1    2    0    0  0.11330330410E+04  0.95368615657E+03  0.10636368856E+04  0.19911314828E+04  0.80000000000E+03 0.  0.
   -2000013    1    1    2    0    0 -0.11330330410E+04 -0.95368615657E+03 -0.88195483949E+02  0.16855443040E+04  0.80000000000E+03 0.  0.
<mgrwt>
<rscale>  0 0.35449202E+04</rscale>
<asrwt>0</asrwt>
<pdfrwt beam="1">  1        2 0.35785517E+00 0.35449202E+04</pdfrwt>
<pdfrwt beam="2">  1       -2 0.20778726E+00 0.35449202E+04</pdfrwt>
<totfact> 0.42448929E-01</totfact>
</mgrwt>
</event>
<event>
 4    1  0.7144937E-008  0.2317460E+04  0.7816531E-02  0.8471069E-01
          2   -1    0    0  501    0  0.00000000000E+00  0.00000000000E+00  0.86416496884E+03  0.86416496884E+03  0.00000000000E+00 0.  1.
         -2   -1    0    0    0  501 -0.00000000000E+00 -0.00000000000E+00 -0.15537019148E+04  0.15537019148E+04  0.00000000000E+00 0. -1.
    2000013    1    1    2    0    0  0.74224289865E+03  0.37006673041E+03 -0.21792442826E+03  0.11727595499E+04  0.80000000000E+03 0.  0.
   -2000013    1    1    2    0    0 -0.74224289865E+03 -0.37006673041E+03 -0.47161251769E+03  0.12451073337E+04  0.80000000000E+03 0.  0.
<mgrwt>
<rscale>  0 0.23174596E+04</rscale>
<asrwt>0</asrwt>
<pdfrwt beam="1">  1        2 0.13294846E+00 0.23174596E+04</pdfrwt>
<pdfrwt beam="2">  1       -2 0.23903106E+00 0.23174596E+04</pdfrwt>
<totfact> 0.21091966E+00</totfact>
</mgrwt>
</event>
<event>
 4    1  0.7144937E-008  0.2233542E+04  0.7816531E-02  0.8504596E-01
         -2   -1    0    0    0  501 -0.00000000000E+00  0.00000000000E+00  0.42033382119E+03  0.42033382119E+03  0.00000000000E+00 0. -1.
          2   -1    0    0  501    0  0.00000000000E+00 -0.00000000000E+00 -0.29671116177E+04  0.29671116177E+04  0.00000000000E+00 0.  1.
    2000013    1    1    2    0    0  0.72389132111E+03  0.74903920990E+02 -0.16957304835E+04  0.20112511317E+04  0.80000000000E+03 0.  0.
   -2000013    1    1    2    0    0 -0.72389132111E+03 -0.74903920990E+02 -0.85104731306E+03  0.13761943072E+04  0.80000000000E+03 0.  0.
<mgrwt>
<rscale>  0 0.22335419E+04</rscale>
<asrwt>0</asrwt>
<pdfrwt beam="2">  1        2 0.45647872E+00 0.22335419E+04</pdfrwt>
<pdfrwt beam="1">  1       -2 0.64666741E-01 0.22335419E+04</pdfrwt>
<totfact> 0.36769371E+00</totfact>
</mgrwt>
</event>
<event>
 4    1  0.7144937E-008  0.2107300E+04  0.7816531E-02  0.8558034E-01
          2   -1    0    0  501    0  0.00000000000E+00  0.00000000000E+00  0.32649345352E+04  0.32649345352E+04  0.00000000000E+00 0.  1.
         -2   -1    0    0    0  501 -0.00000000000E+00 -0.00000000000E+00 -0.34003086377E+03  0.34003086377E+03  0.00000000000E+00 0. -1.
    2000013    1    1    2    0    0 -0.54520234455E+03 -0.25756891366E+03  0.90393623551E+03  0.13493287441E+04  0.80000000000E+03 0.  0.
   -2000013    1    1    2    0    0  0.54520234455E+03  0.25756891366E+03  0.20209674359E+04  0.22556366549E+04  0.80000000000E+03 0.  0.
<mgrwt>
<rscale>  0 0.21073002E+04</rscale>
<asrwt>0</asrwt>
<pdfrwt beam="1">  1        2 0.50229760E+00 0.21073002E+04</pdfrwt>
<pdfrwt beam="2">  1       -2 0.52312443E-01 0.21073002E+04</pdfrwt>
<totfact> 0.37445905E+00</totfact>
</mgrwt>
</event>
<event>
 4    1  0.7144937E-008  0.1890359E+04  0.7816531E-02  0.8659670E-01
          2   -1    0    0  501    0  0.00000000000E+00  0.00000000000E+00  0.22842734372E+04  0.22842734372E+04  0.00000000000E+00 0.  1.
         -2   -1    0    0    0  501 -0.00000000000E+00 -0.00000000000E+00 -0.39109351895E+03  0.39109351895E+03  0.00000000000E+00 0. -1.
    2000013    1    1    2    0    0  0.46259169864E+03  0.19838356218E+03  0.94068310974E+03  0.13335035922E+04  0.80000000000E+03 0.  0.
   -2000013    1    1    2    0    0 -0.46259169864E+03 -0.19838356218E+03  0.95249680855E+03  0.13418633640E+04  0.80000000000E+03 0.  0.
<mgrwt>
<rscale>  0 0.18903593E+04</rscale>
<asrwt>0</asrwt>
<pdfrwt beam="1">  1        2 0.35142667E+00 0.18903593E+04</pdfrwt>
<pdfrwt beam="2">  1       -2 0.60168235E-01 0.18903593E+04</pdfrwt>
<totfact> 0.11170756E+01</totfact>
</mgrwt>
</event>
<event>
 4    1  0.7144937E-008  0.2270396E+04  0.7816531E-02  0.8489686E-01
          2   -1    0    0  501    0  0.00000000000E+00  0.00000000000E+00  0.32532670835E+04  0.32532670835E+04  0.00000000000E+00 0.  1.
         -2   -1    0    0    0  501 -0.00000000000E+00 -0.00000000000E+00 -0.39611695397E+03  0.39611695397E+03  0.00000000000E+00 0. -1.
    2000013    1    1    2    0    0 -0.35945108732E+03 -0.59682952625E+03  0.77909954195E+03  0.13162092022E+04  0.80000000000E+03 0.  0.
   -2000013    1    1    2    0    0  0.35945108732E+03  0.59682952625E+03  0.20780505876E+04  0.23331748353E+04  0.80000000000E+03 0.  0.
<mgrwt>
<rscale>  0 0.22703958E+04</rscale>
<asrwt>0</asrwt>
<pdfrwt beam="1">  1        2 0.50050261E+00 0.22703958E+04</pdfrwt>
<pdfrwt beam="2">  1       -2 0.60941072E-01 0.22703958E+04</pdfrwt>
<totfact> 0.27294403E+00</totfact>
</mgrwt>
</event>
<event>
 4    1  0.7144937E-008  0.3361523E+04  0.7816531E-02  0.8147415E-01
          1   -1    0    0  501    0  0.00000000000E+00  0.00000000000E+00  0.16611615838E+04  0.16611615838E+04  0.00000000000E+00 0.  1.
         -1   -1    0    0    0  501 -0.00000000000E+00 -0.00000000000E+00 -0.17005922014E+04  0.17005922014E+04  0.00000000000E+00 0. -1.
    2000013    1    1    2    0    0  0.71758192141E+03 -0.11999618890E+04  0.46003228045E+03  0.16752498464E+04  0.80000000000E+03 0.  0.
   -2000013    1    1    2    0    0 -0.71758192141E+03  0.11999618890E+04 -0.49946289802E+03  0.16865039388E+04  0.80000000000E+03 0.  0.
<mgrwt>
<rscale>  0 0.33615225E+04</rscale>
<asrwt>0</asrwt>
<pdfrwt beam="1">  1        1 0.25556332E+00 0.33615225E+04</pdfrwt>
<pdfrwt beam="2">  1       -1 0.26162957E+00 0.33615225E+04</pdfrwt>
<totfact> 0.24485714E-01</totfact>
</mgrwt>
</event>
<event>
 4    1  0.7144937E-008  0.2126879E+04  0.7816531E-02  0.8549495E-01
          2   -1    0    0  501    0  0.00000000000E+00  0.00000000000E+00  0.24330037084E+04  0.24330037084E+04  0.00000000000E+00 0.  1.
         -2   -1    0    0    0  501 -0.00000000000E+00 -0.00000000000E+00 -0.46481785875E+03  0.46481785875E+03  0.00000000000E+00 0. -1.
    2000013    1    1    2    0    0 -0.25336972633E+03 -0.32432951455E+03  0.21153453300E+03  0.92419300521E+03  0.80000000000E+03 0.  0.
   -2000013    1    1    2    0    0  0.25336972633E+03  0.32432951455E+03  0.17566513166E+04  0.19736285619E+04  0.80000000000E+03 0.  0.
<mgrwt>
<rscale>  0 0.21268790E+04</rscale>
<asrwt>0</asrwt>
<pdfrwt beam="1">  1        2 0.37430826E+00 0.21268790E+04</pdfrwt>
<pdfrwt beam="2">  1       -2 0.71510441E-01 0.21268790E+04</pdfrwt>
<totfact> 0.62086731E+00</totfact>
</mgrwt>
</event>
<event>
 4    1  0.7144937E-008  0.1915869E+04  0.7816531E-02  0.8646997E-01
         -2   -1    0    0    0  501 -0.00000000000E+00  0.00000000000E+00  0.47264206770E+03  0.47264206770E+03  0.00000000000E+00 0. -1.
          2   -1    0    0  501    0  0.00000000000E+00 -0.00000000000E+00 -0.19415090181E+04  0.19415090181E+04  0.00000000000E+00 0.  1.
    2000013    1    1    2    0    0 -0.32962015181E+02  0.44405129640E+03 -0.10894339265E+04  0.14230721445E+04  0.80000000000E+03 0.  0.
   -2000013    1    1    2    0    0  0.32962015181E+02 -0.44405129640E+03 -0.37943302393E+03  0.99107894132E+03  0.80000000000E+03 0.  0.
<mgrwt>
<rscale>  0 0.19158693E+04</rscale>
<asrwt>0</asrwt>
<pdfrwt beam="2">  1        2 0.29869370E+00 0.19158693E+04</pdfrwt>
<pdfrwt beam="1">  1       -2 0.72714164E-01 0.19158693E+04</pdfrwt>
<totfact> 0.11516448E+01</totfact>
</mgrwt>
</event>
<event>
 4    1  0.7144937E-008  0.2005456E+04  0.7816531E-02  0.8604074E-01
          4   -1    0    0  501    0  0.00000000000E+00  0.00000000000E+00  0.88629363502E+03  0.88629363502E+03  0.00000000000E+00 0.  1.
         -4   -1    0    0    0  501 -0.00000000000E+00 -0.00000000000E+00 -0.11344585972E+04  0.11344585972E+04  0.00000000000E+00 0. -1.
    2000013    1    1    2    0    0  0.58074540881E+03 -0.13554343729E+03 -0.22396564769E+03  0.10226425889E+04  0.80000000000E+03 0.  0.
   -2000013    1    1    2    0    0 -0.58074540881E+03  0.13554343729E+03 -0.24199314459E+02  0.99810964331E+03  0.80000000000E+03 0.  0.
<mgrwt>
<rscale>  0 0.20054560E+04</rscale>
<asrwt>0</asrwt>
<pdfrwt beam="1">  1        4 0.13635287E+00 0.20054560E+04</pdfrwt>
<pdfrwt beam="2">  1       -4 0.17453209E+00 0.20054560E+04</pdfrwt>
<totfact> 0.13963391E-01</totfact>
</mgrwt>
</event>
<event>
 4    1  0.7144937E-008  0.1814909E+04  0.7816531E-02  0.8698411E-01
          2   -1    0    0  501    0  0.00000000000E+00  0.00000000000E+00  0.17527420354E+04  0.17527420354E+04  0.00000000000E+00 0.  1.
         -2   -1    0    0    0  501 -0.00000000000E+00 -0.00000000000E+00 -0.46982011099E+03  0.46982011099E+03  0.00000000000E+00 0. -1.
    2000013    1    1    2    0    0 -0.40800365673E+03  0.24059744389E+02  0.48450196827E+03  0.10206801715E+04  0.80000000000E+03 0.  0.
   -2000013    1    1    2    0    0  0.40800365673E+03 -0.24059744389E+02  0.79841995613E+03  0.12018819749E+04  0.80000000000E+03 0.  0.
<mgrwt>
<rscale>  0 0.18149088E+04</rscale>
<asrwt>0</asrwt>
<pdfrwt beam="1">  1        2 0.26965262E+00 0.18149088E+04</pdfrwt>
<pdfrwt beam="2">  1       -2 0.72280018E-01 0.18149088E+04</pdfrwt>
<totfact> 0.14974687E+01</totfact>
</mgrwt>
</event>
<event>
 4    1  0.7144937E-008  0.1804723E+04  0.7816531E-02  0.8703792E-01
         -2   -1    0    0    0  501 -0.00000000000E+00  0.00000000000E+00  0.82351732493E+03  0.82351732493E+03  0.00000000000E+00 0. -1.
          2   -1    0    0  501    0  0.00000000000E+00 -0.00000000000E+00 -0.98875452590E+03  0.98875452590E+03  0.00000000000E+00 0.  1.
    2000013    1    1    2    0    0  0.29258677360E+03  0.13759206984E+03 -0.34776445218E+03  0.93031108344E+03  0.80000000000E+03 0.  0.
   -2000013    1    1    2    0    0 -0.29258677360E+03 -0.13759206984E+03  0.18252725121E+03  0.88196076738E+03  0.80000000000E+03 0.  0.
<mgrwt>
<rscale>  0 0.18047232E+04</rscale>
<asrwt>0</asrwt>
<pdfrwt beam="2">  1        2 0.15211608E+00 0.18047232E+04</pdfrwt>
<pdfrwt beam="1">  1       -2 0.12669497E+00 0.18047232E+04</pdfrwt>
<totfact> 0.11203687E+01</totfact>
</mgrwt>
</event>
<event>
 4    1  0.7144937E-008  0.1911012E+04  0.7816531E-02  0.8649395E-01
         -2   -1    0    0    0  501 -0.00000000000E+00  0.00000000000E+00  0.63168700954E+03  0.63168700954E+03  0.00000000000E+00 0. -1.
          2   -1    0    0  501    0  0.00000000000E+00 -0.00000000000E+00 -0.14453224086E+04  0.14453224086E+04  0.00000000000E+00 0.  1.
    2000013    1    1    2    0    0  0.40855062062E+03  0.29549247608E+03 -0.25794521725E+03  0.98018628236E+03  0.80000000000E+03 0.  0.
   -2000013    1    1    2    0    0 -0.40855062062E+03 -0.29549247608E+03 -0.55569018185E+03  0.10968231358E+04  0.80000000000E+03 0.  0.
<mgrwt>
<rscale>  0 0.19110117E+04</rscale>
<asrwt>0</asrwt>
<pdfrwt beam="2">  1        2 0.22235729E+00 0.19110117E+04</pdfrwt>
<pdfrwt beam="1">  1       -2 0.97182617E-01 0.19110117E+04</pdfrwt>
<totfact> 0.11274251E+01</totfact>
</mgrwt>
</event>
<event>
 4    1  0.7144937E-008  0.1660065E+04  0.7816531E-02  0.8784475E-01
         -2   -1    0    0    0  501 -0.00000000000E+00  0.00000000000E+00  0.57580746784E+03  0.57580746784E+03  0.00000000000E+00 0. -1.
          2   -1    0    0  501    0  0.00000000000E+00 -0.00000000000E+00 -0.11964998610E+04  0.11964998610E+04  0.00000000000E+00 0.  1.
    2000013    1    1    2    0    0 -0.18897044831E+03 -0.11321834449E+03 -0.28832820204E+03  0.87844258546E+03  0.80000000000E+03 0.  0.
   -2000013    1    1    2    0    0  0.18897044831E+03  0.11321834449E+03 -0.33236419108E+03  0.89386474333E+03  0.80000000000E+03 0.  0.
<mgrwt>
<rscale>  0 0.16600645E+04</rscale>
<asrwt>0</asrwt>
<pdfrwt beam="2">  1        2 0.18407690E+00 0.16600645E+04</pdfrwt>
<pdfrwt beam="1">  1       -2 0.88585765E-01 0.16600645E+04</pdfrwt>
<totfact> 0.19915888E+01</totfact>
</mgrwt>
</event>
<event>
 4    1  0.7144937E-008  0.1874070E+04  0.7816531E-02  0.8667872E-01
         -1   -1    0    0    0  501 -0.00000000000E+00  0.00000000000E+00  0.64059983836E+03  0.64059983836E+03  0.00000000000E+00 0. -1.
          1   -1    0    0  501    0  0.00000000000E+00 -0.00000000000E+00 -0.13706442422E+04  0.13706442422E+04  0.00000000000E+00 0.  1.
    2000013    1    1    2    0    0  0.13597141859E+03 -0.46832520987E+03 -0.38085870155E+03  0.10113703967E+04  0.80000000000E+03 0.  0.
   -2000013    1    1    2    0    0 -0.13597141859E+03  0.46832520987E+03 -0.34918570226E+03  0.99987368379E+03  0.80000000000E+03 0.  0.
<mgrwt>
<rscale>  0 0.18740699E+04</rscale>
<asrwt>0</asrwt>
<pdfrwt beam="2">  1        1 0.21086834E+00 0.18740699E+04</pdfrwt>
<pdfrwt beam="1">  1       -1 0.98553822E-01 0.18740699E+04</pdfrwt>
<totfact> 0.74451094E+00</totfact>
</mgrwt>
</event>
<event>
 4    1  0.7144937E-008  0.3492848E+04  0.7816531E-02  0.8115487E-01
         -1   -1    0    0    0  501 -0.00000000000E+00  0.00000000000E+00  0.10880540906E+04  0.10880540906E+04  0.00000000000E+00 0. -1.
          1   -1    0    0  501    0  0.00000000000E+00 -0.00000000000E+00 -0.28031664782E+04  0.28031664782E+04  0.00000000000E+00 0.  1.
    2000013    1    1    2    0    0 -0.20242525923E+02  0.15362504560E+04 -0.11054714144E+04  0.20548825445E+04  0.80000000000E+03 0.  0.
   -2000013    1    1    2    0    0  0.20242525923E+02 -0.15362504560E+04 -0.60964097319E+03  0.18363380244E+04  0.80000000000E+03 0.  0.
<mgrwt>
<rscale>  0 0.34928480E+04</rscale>
<asrwt>0</asrwt>
<pdfrwt beam="2">  1        1 0.43125637E+00 0.34928480E+04</pdfrwt>
<pdfrwt beam="1">  1       -1 0.16739294E+00 0.34928480E+04</pdfrwt>
<totfact> 0.17399781E-01</totfact>
</mgrwt>
</event>
<event>
 4    1  0.7144937E-008  0.2660111E+04  0.7816531E-02  0.8348065E-01
          2   -1    0    0  501    0  0.00000000000E+00  0.00000000000E+00  0.90024801502E+03  0.90024801502E+03  0.00000000000E+00 0.  1.
         -2   -1    0    0    0  501 -0.00000000000E+00 -0.00000000000E+00 -0.19650670721E+04  0.19650670721E+04  0.00000000000E+00 0. -1.
    2000013    1    1    2    0    0 -0.78844269973E+03 -0.32375283865E+03  0.15103626447E+03  0.11786728742E+04  0.80000000000E+03 0.  0.
   -2000013    1    1    2    0    0  0.78844269973E+03  0.32375283865E+03 -0.12158553215E+04  0.16866422129E+04  0.80000000000E+03 0.  0.
<mgrwt>
<rscale>  0 0.26601111E+04</rscale>
<asrwt>0</asrwt>
<pdfrwt beam="1">  1        2 0.13849970E+00 0.26601111E+04</pdfrwt>
<pdfrwt beam="2">  1       -2 0.30231801E+00 0.26601111E+04</pdfrwt>
<totfact> 0.79363640E-01</totfact>
</mgrwt>
</event>
<event>
 4    1  0.7144937E-008  0.2141749E+04  0.7816531E-02  0.8543072E-01
          2   -1    0    0  501    0  0.00000000000E+00  0.00000000000E+00  0.93011509824E+03  0.93011509824E+03  0.00000000000E+00 0.  1.
         -2   -1    0    0    0  501 -0.00000000000E+00 -0.00000000000E+00 -0.12329358372E+04  0.12329358372E+04  0.00000000000E+00 0. -1.
    2000013    1    1    2    0    0 -0.43567091582E+03  0.56042443428E+03 -0.20568069959E+03  0.10891231536E+04  0.80000000000E+03 0.  0.
   -2000013    1    1    2    0    0  0.43567091582E+03 -0.56042443428E+03 -0.97140039348E+02  0.10739277819E+04  0.80000000000E+03 0.  0.
<mgrwt>
<rscale>  0 0.21417490E+04</rscale>
<asrwt>0</asrwt>
<pdfrwt beam="1">  1        2 0.14309463E+00 0.21417490E+04</pdfrwt>
<pdfrwt beam="2">  1       -2 0.18968244E+00 0.21417490E+04</pdfrwt>
<totfact> 0.40023757E+00</totfact>
</mgrwt>
</event>
<event>
 4    1  0.7144937E-008  0.1865487E+04  0.7816531E-02  0.8672229E-01
          2   -1    0    0  501    0  0.00000000000E+00  0.00000000000E+00  0.87983672620E+03  0.87983672620E+03  0.00000000000E+00 0.  1.
         -2   -1    0    0    0  501 -0.00000000000E+00 -0.00000000000E+00 -0.98883155703E+03  0.98883155703E+03  0.00000000000E+00 0. -1.
    2000013    1    1    2    0    0  0.25749174494E+03  0.36999328833E+03  0.10952947484E+03  0.92476685602E+03  0.80000000000E+03 0.  0.
   -2000013    1    1    2    0    0 -0.25749174494E+03 -0.36999328833E+03 -0.21852430567E+03  0.94390142721E+03  0.80000000000E+03 0.  0.
<mgrwt>
<rscale>  0 0.18654869E+04</rscale>
<asrwt>0</asrwt>
<pdfrwt beam="1">  1        2 0.13535950E+00 0.18654869E+04</pdfrwt>
<pdfrwt beam="2">  1       -2 0.15212793E+00 0.18654869E+04</pdfrwt>
<totfact> 0.82005800E+00</totfact>
</mgrwt>
</event>
<event>
 4    1  0.7144937E-008  0.2118449E+04  0.7816531E-02  0.8553160E-01
         -2   -1    0    0    0  501 -0.00000000000E+00  0.00000000000E+00  0.32320672442E+03  0.32320672442E+03  0.00000000000E+00 0. -1.
          2   -1    0    0  501    0  0.00000000000E+00 -0.00000000000E+00 -0.34713288054E+04  0.34713288054E+04  0.00000000000E+00 0.  1.
    2000013    1    1    2    0    0  0.18449747086E+03  0.51431189284E+03 -0.80698019445E+03  0.12608620361E+04  0.80000000000E+03 0.  0.
   -2000013    1    1    2    0    0 -0.18449747086E+03 -0.51431189284E+03 -0.23411418865E+04  0.25336734937E+04  0.80000000000E+03 0.  0.
<mgrwt>
<rscale>  0 0.21184493E+04</rscale>
<asrwt>0</asrwt>
<pdfrwt beam="2">  1        2 0.53405054E+00 0.21184493E+04</pdfrwt>
<pdfrwt beam="1">  1       -2 0.49724116E-01 0.21184493E+04</pdfrwt>
<totfact> 0.30105838E+00</totfact>
</mgrwt>
</event>
<event>
 4    1  0.7144937E-008  0.2285356E+04  0.7816531E-02  0.8483717E-01
         -2   -1    0    0    0  501 -0.00000000000E+00  0.00000000000E+00  0.92725885454E+03  0.92725885454E+03  0.00000000000E+00 0. -1.
          2   -1    0    0  501    0  0.00000000000E+00 -0.00000000000E+00 -0.14081433996E+04  0.14081433996E+04  0.00000000000E+00 0.  1.
    2000013    1    1    2    0    0 -0.51700468638E+03 -0.62690721085E+03 -0.16530014332E+03  0.11522285512E+04  0.80000000000E+03 0.  0.
   -2000013    1    1    2    0    0  0.51700468638E+03  0.62690721085E+03 -0.31558440174E+03  0.11831737030E+04  0.80000000000E+03 0.  0.
<mgrwt>
<rscale>  0 0.22853564E+04</rscale>
<asrwt>0</asrwt>
<pdfrwt beam="2">  1        2 0.21663745E+00 0.22853564E+04</pdfrwt>
<pdfrwt beam="1">  1       -2 0.14265521E+00 0.22853564E+04</pdfrwt>
<totfact> 0.44447368E+00</totfact>
</mgrwt>
</event>
<event>
 4    1  0.7144937E-008  0.2635583E+04  0.7816531E-02  0.8356214E-01
         -1   -1    0    0    0  501 -0.00000000000E+00  0.00000000000E+00  0.74140443610E+03  0.74140443610E+03  0.00000000000E+00 0. -1.
          1   -1    0    0  501    0  0.00000000000E+00 -0.00000000000E+00 -0.23422774037E+04  0.23422774037E+04  0.00000000000E+00 0.  1.
    2000013    1    1    2    0    0 -0.75111893709E+03  0.61108145674E+03 -0.33393099681E+03  0.12996576915E+04  0.80000000000E+03 0.  0.
   -2000013    1    1    2    0    0  0.75111893709E+03 -0.61108145674E+03 -0.12669419708E+04  0.17840241483E+04  0.80000000000E+03 0.  0.
<mgrwt>
<rscale>  0 0.26355833E+04</rscale>
<asrwt>0</asrwt>
<pdfrwt beam="2">  1        1 0.36035037E+00 0.26355833E+04</pdfrwt>
<pdfrwt beam="1">  1       -1 0.11406222E+00 0.26355833E+04</pdfrwt>
<totfact> 0.10696401E+00</totfact>
</mgrwt>
</event>
<event>
 4    1  0.7144937E-008  0.3222250E+04  0.7816531E-02  0.8182966E-01
          2   -1    0    0  501    0  0.00000000000E+00  0.00000000000E+00  0.24722990248E+04  0.24722990248E+04  0.00000000000E+00 0.  1.
         -2   -1    0    0    0  501 -0.00000000000E+00 -0.00000000000E+00 -0.10499227643E+04  0.10499227643E+04  0.00000000000E+00 0. -1.
    2000013    1    1    2    0    0  0.87352630109E+03 -0.10826223760E+04  0.55428584127E+03  0.16977491574E+04  0.80000000000E+03 0.  0.
   -2000013    1    1    2    0    0 -0.87352630109E+03  0.10826223760E+04  0.86809041929E+03  0.18244726317E+04  0.80000000000E+03 0.  0.
<mgrwt>
<rscale>  0 0.32222495E+04</rscale>
<asrwt>0</asrwt>
<pdfrwt beam="1">  1        2 0.38035370E+00 0.32222495E+04</pdfrwt>
<pdfrwt beam="2">  1       -2 0.16152658E+00 0.32222495E+04</pdfrwt>
<totfact> 0.74505989E-01</totfact>
</mgrwt>
</event>
<event>
 4    1  0.7144937E-008  0.1970310E+04  0.7816531E-02  0.8620629E-01
         -2   -1    0    0    0  501 -0.00000000000E+00  0.00000000000E+00  0.12658505480E+04  0.12658505480E+04  0.00000000000E+00 0. -1.
          2   -1    0    0  501    0  0.00000000000E+00 -0.00000000000E+00 -0.76670185335E+03  0.76670185335E+03  0.00000000000E+00 0.  1.
    2000013    1    1    2    0    0 -0.52786505066E+03  0.22440035753E+03  0.28996383157E+03  0.10261949404E+04  0.80000000000E+03 0.  0.
   -2000013    1    1    2    0    0  0.52786505066E+03 -0.22440035753E+03  0.20918486308E+03  0.10063574609E+04  0.80000000000E+03 0.  0.
<mgrwt>
<rscale>  0 0.19703096E+04</rscale>
<asrwt>0</asrwt>
<pdfrwt beam="2">  1        2 0.11795413E+00 0.19703096E+04</pdfrwt>
<pdfrwt beam="1">  1       -2 0.19474624E+00 0.19703096E+04</pdfrwt>
<totfact> 0.48862688E+00</totfact>
</mgrwt>
</event>
<event>
 4    1  0.7144937E-008  0.1885425E+04  0.7816531E-02  0.8662146E-01
         -2   -1    0    0    0  501 -0.00000000000E+00  0.00000000000E+00  0.34375418499E+03  0.34375418499E+03  0.00000000000E+00 0. -1.
          2   -1    0    0  501    0  0.00000000000E+00 -0.00000000000E+00 -0.25852972843E+04  0.25852972843E+04  0.00000000000E+00 0.  1.
    2000013    1    1    2    0    0  0.23847303269E+03  0.43570374806E+03 -0.11902405796E+04  0.15176889604E+04  0.80000000000E+03 0.  0.
   -2000013    1    1    2    0    0 -0.23847303269E+03 -0.43570374806E+03 -0.10513025198E+04  0.14113625089E+04  0.80000000000E+03 0.  0.
<mgrwt>
<rscale>  0 0.18854249E+04</rscale>
<asrwt>0</asrwt>
<pdfrwt beam="2">  1        2 0.39773804E+00 0.18854249E+04</pdfrwt>
<pdfrwt beam="1">  1       -2 0.52885260E-01 0.18854249E+04</pdfrwt>
<totfact> 0.98275106E+00</totfact>
</mgrwt>
</event>
<event>
 4    1  0.7144937E-008  0.1862014E+04  0.7816531E-02  0.8673999E-01
         -2   -1    0    0    0  501 -0.00000000000E+00  0.00000000000E+00  0.60179239066E+03  0.60179239066E+03  0.00000000000E+00 0. -1.
          2   -1    0    0  501    0  0.00000000000E+00 -0.00000000000E+00 -0.14403212088E+04  0.14403212088E+04  0.00000000000E+00 0.  1.
    2000013    1    1    2    0    0 -0.36574019069E+03  0.16212813478E+03 -0.13597234136E+03  0.90473194748E+03  0.80000000000E+03 0.  0.
   -2000013    1    1    2    0    0  0.36574019069E+03 -0.16212813478E+03 -0.70255647674E+03  0.11373816519E+04  0.80000000000E+03 0.  0.
<mgrwt>
<rscale>  0 0.18620143E+04</rscale>
<asrwt>0</asrwt>
<pdfrwt beam="2">  1        2 0.22158788E+00 0.18620143E+04</pdfrwt>
<pdfrwt beam="1">  1       -2 0.92583445E-01 0.18620143E+04</pdfrwt>
<totfact> 0.12760261E+01</totfact>
</mgrwt>
</event>
<event>
 4    1  0.7144937E-008  0.2117953E+04  0.7816531E-02  0.8553376E-01
          1   -1    0    0  501    0  0.00000000000E+00  0.00000000000E+00  0.14923530694E+04  0.14923530694E+04  0.00000000000E+00 0.  1.
         -1   -1    0    0    0  501 -0.00000000000E+00 -0.00000000000E+00 -0.75145167242E+03  0.75145167242E+03  0.00000000000E+00 0. -1.
    2000013    1    1    2    0    0 -0.22109246591E+02  0.57255665760E+03  0.78500984405E+03  0.12587892596E+04  0.80000000000E+03 0.  0.
   -2000013    1    1    2    0    0  0.22109246591E+02 -0.57255665760E+03 -0.44108447103E+02  0.98501548214E+03  0.80000000000E+03 0.  0.
<mgrwt>
<rscale>  0 0.21179530E+04</rscale>
<asrwt>0</asrwt>
<pdfrwt beam="1">  1        1 0.22959278E+00 0.21179530E+04</pdfrwt>
<pdfrwt beam="2">  1       -1 0.11560795E+00 0.21179530E+04</pdfrwt>
<totfact> 0.41212166E+00</totfact>
</mgrwt>
</event>
<event>
 4    1  0.7144937E-008  0.2217481E+04  0.7816531E-02  0.8511187E-01
         -2   -1    0    0    0  501 -0.00000000000E+00  0.00000000000E+00  0.66025951801E+03  0.66025951801E+03  0.00000000000E+00 0. -1.
          2   -1    0    0  501    0  0.00000000000E+00 -0.00000000000E+00 -0.18618528092E+04  0.18618528092E+04  0.00000000000E+00 0.  1.
    2000013    1    1    2    0    0 -0.52811579137E+02 -0.45990616588E+03 -0.12972979964E+04  0.15928856945E+04  0.80000000000E+03 0.  0.
   -2000013    1    1    2    0    0  0.52811579137E+02  0.45990616588E+03  0.95704705214E+02  0.92922663269E+03  0.80000000000E+03 0.  0.
<mgrwt>
<rscale>  0 0.22174815E+04</rscale>
<asrwt>0</asrwt>
<pdfrwt beam="2">  1        2 0.28643889E+00 0.22174815E+04</pdfrwt>
<pdfrwt beam="1">  1       -2 0.10157839E+00 0.22174815E+04</pdfrwt>
<totfact> 0.57908395E+00</totfact>
</mgrwt>
</event>
<event>
 4    1  0.7144937E-008  0.2142420E+04  0.7816531E-02  0.8542784E-01
          2   -1    0    0  501    0  0.00000000000E+00  0.00000000000E+00  0.75272617455E+03  0.75272617455E+03  0.00000000000E+00 0. -1.
         -2   -1    0    0    0  501 -0.00000000000E+00 -0.00000000000E+00 -0.15244460926E+04  0.15244460926E+04  0.00000000000E+00 0.  1.
    2000013    1    1    2    0    0 -0.45978728593E+03 -0.54011252022E+03 -0.45608034452E+03  0.11623833978E+04  0.80000000000E+03 0.  0.
   -2000013    1    1    2    0    0  0.45978728593E+03  0.54011252022E+03 -0.31563957350E+03  0.11147888693E+04  0.80000000000E+03 0.  0.
<mgrwt>
<rscale>  0 0.21424196E+04</rscale>
<asrwt>0</asrwt>
<pdfrwt beam="1">  1        2 0.11580403E+00 0.21424196E+04</pdfrwt>
<pdfrwt beam="2">  1       -2 0.23453017E+00 0.21424196E+04</pdfrwt>
<totfact> 0.27447605E+00</totfact>
</mgrwt>
</event>
<event>
 4    1  0.7144937E-008  0.3502314E+04  0.7816531E-02  0.8113242E-01
         -2   -1    0    0    0  501 -0.00000000000E+00  0.00000000000E+00  0.22083910594E+04  0.22083910594E+04  0.00000000000E+00 0.  1.
          2   -1    0    0  501    0  0.00000000000E+00 -0.00000000000E+00 -0.13885901997E+04  0.13885901997E+04  0.00000000000E+00 0. -1.
    2000013    1    1    2    0    0  0.69204157671E+03 -0.12337758953E+04  0.10797773137E+04  0.19511646653E+04  0.80000000000E+03 0.  0.
   -2000013    1    1    2    0    0 -0.69204157671E+03  0.12337758953E+04 -0.25997645401E+03  0.16458165938E+04  0.80000000000E+03 0.  0.
<mgrwt>
<rscale>  0 0.35023136E+04</rscale>
<asrwt>0</asrwt>
<pdfrwt beam="2">  1        2 0.21362926E+00 0.35023136E+04</pdfrwt>
<pdfrwt beam="1">  1       -2 0.33975247E+00 0.35023136E+04</pdfrwt>
<totfact> 0.21771102E-01</totfact>
</mgrwt>
</event>
<event>
 4    1  0.7144937E-008  0.2016745E+04  0.7816531E-02  0.8598832E-01
         -1   -1    0    0    0  501 -0.00000000000E+00  0.00000000000E+00  0.13112265760E+04  0.13112265760E+04  0.00000000000E+00 0. -1.
          1   -1    0    0  501    0  0.00000000000E+00 -0.00000000000E+00 -0.77546844966E+03  0.77546844966E+03  0.00000000000E+00 0.  1.
    2000013    1    1    2    0    0  0.56465050153E+03 -0.80582018521E+02  0.33091813110E+02  0.98306597880E+03  0.80000000000E+03 0.  0.
   -2000013    1    1    2    0    0 -0.56465050153E+03  0.80582018521E+02  0.50266631321E+03  0.11036290468E+04  0.80000000000E+03 0.  0.
<mgrwt>
<rscale>  0 0.20167447E+04</rscale>
<asrwt>0</asrwt>
<pdfrwt beam="2">  1        1 0.11930284E+00 0.20167447E+04</pdfrwt>
<pdfrwt beam="1">  1       -1 0.20172717E+00 0.20167447E+04</pdfrwt>
<totfact> 0.31516801E+00</totfact>
</mgrwt>
</event>
<event>
 4    1  0.7144937E-008  0.1976444E+04  0.7816531E-02  0.8617714E-01
          2   -1    0    0  501    0  0.00000000000E+00  0.00000000000E+00  0.18744752350E+04  0.18744752350E+04  0.00000000000E+00 0.  1.
         -2   -1    0    0    0  501 -0.00000000000E+00 -0.00000000000E+00 -0.52098978690E+03  0.52098978690E+03  0.00000000000E+00 0. -1.
    2000013    1    1    2    0    0  0.55939515167E+03 -0.15209426185E+03  0.70456227560E+03  0.12134511117E+04  0.80000000000E+03 0.  0.
   -2000013    1    1    2    0    0 -0.55939515167E+03  0.15209426185E+03  0.64892317254E+03  0.11820139103E+04  0.80000000000E+03 0.  0.
<mgrwt>
<rscale>  0 0.19764437E+04</rscale>
<asrwt>0</asrwt>
<pdfrwt beam="1">  1        2 0.28838080E+00 0.19764437E+04</pdfrwt>
<pdfrwt beam="2">  1       -2 0.80152276E-01 0.19764437E+04</pdfrwt>
<totfact> 0.10050450E+01</totfact>
</mgrwt>
</event>
<event>
 4    1  0.7144937E-008  0.1906470E+04  0.7816531E-02  0.8651643E-01
         -2   -1    0    0    0  501 -0.00000000000E+00  0.00000000000E+00  0.37171630581E+03  0.37171630581E+03  0.00000000000E+00 0. -1.
          2   -1    0    0  501    0  0.00000000000E+00 -0.00000000000E+00 -0.24444893985E+04  0.24444893985E+04  0.00000000000E+00 0.  1.
    2000013    1    1    2    0    0  0.16554960947E+03  0.90486010828E+02 -0.17495193148E+04  0.19329801407E+04  0.80000000000E+03 0.  0.
   -2000013    1    1    2    0    0 -0.16554960947E+03 -0.90486010828E+02 -0.32325377788E+03  0.88322556364E+03  0.80000000000E+03 0.  0.
<mgrwt>
<rscale>  0 0.19064696E+04</rscale>
<asrwt>0</asrwt>
<pdfrwt beam="2">  1        2 0.37607529E+00 0.19064696E+04</pdfrwt>
<pdfrwt beam="1">  1       -2 0.57187124E-01 0.19064696E+04</pdfrwt>
<totfact> 0.10060857E+01</totfact>
</mgrwt>
</event>
<event>
 4    1  0.7144937E-008  0.1852448E+04  0.7816531E-02  0.8678895E-01
         -1   -1    0    0    0  501 -0.00000000000E+00  0.00000000000E+00  0.26955607518E+03  0.26955607518E+03  0.00000000000E+00 0.  1.
          1   -1    0    0  501    0  0.00000000000E+00 -0.00000000000E+00 -0.31826056851E+04  0.31826056851E+04  0.00000000000E+00 0. -1.
    2000013    1    1    2    0    0  0.44825497638E+03 -0.12713185515E+03 -0.15090914495E+04  0.17704383738E+04  0.80000000000E+03 0.  0.
   -2000013    1    1    2    0    0 -0.44825497638E+03  0.12713185515E+03 -0.14039581604E+04  0.16817233865E+04  0.80000000000E+03 0.  0.
<mgrwt>
<rscale>  0 0.18524478E+04</rscale>
<asrwt>0</asrwt>
<pdfrwt beam="2">  1        1 0.48963163E+00 0.18524478E+04</pdfrwt>
<pdfrwt beam="1">  1       -1 0.41470166E-01 0.18524478E+04</pdfrwt>
<totfact> 0.23541840E+00</totfact>
</mgrwt>
</event>
<event>
 4    1  0.7144937E-008  0.2094674E+04  0.7816531E-02  0.8563593E-01
          2   -1    0    0  501    0  0.00000000000E+00  0.00000000000E+00  0.12991546585E+04  0.12991546585E+04  0.00000000000E+00 0.  1.
         -2   -1    0    0    0  501 -0.00000000000E+00 -0.00000000000E+00 -0.84432942068E+03  0.84432942068E+03  0.00000000000E+00 0. -1.
    2000013    1    1    2    0    0  0.22387573262E+03 -0.63772214315E+03  0.21694565103E+03  0.10695210568E+04  0.80000000000E+03 0.  0.
   -2000013    1    1    2    0    0 -0.22387573262E+03  0.63772214315E+03  0.23787958679E+03  0.10739630223E+04  0.80000000000E+03 0.  0.
<mgrwt>
<rscale>  0 0.20946737E+04</rscale>
<asrwt>0</asrwt>
<pdfrwt beam="1">  1        2 0.19986995E+00 0.20946737E+04</pdfrwt>
<pdfrwt beam="2">  1       -2 0.12989684E+00 0.20946737E+04</pdfrwt>
<totfact> 0.66412479E+00</totfact>
</mgrwt>
</event>
<event>
 4    1  0.7144937E-008  0.1841461E+04  0.7816531E-02  0.8684557E-01
          2   -1    0    0  501    0  0.00000000000E+00  0.00000000000E+00  0.94088827952E+03  0.94088827952E+03  0.00000000000E+00 0.  1.
         -2   -1    0    0    0  501 -0.00000000000E+00 -0.00000000000E+00 -0.90100426498E+03  0.90100426498E+03  0.00000000000E+00 0. -1.
    2000013    1    1    2    0    0  0.22160832332E+03  0.36696735271E+03  0.17479777848E+03  0.92429949166E+03  0.80000000000E+03 0.  0.
   -2000013    1    1    2    0    0 -0.22160832332E+03 -0.36696735271E+03 -0.13491376394E+03  0.91759305284E+03  0.80000000000E+03 0.  0.
<mgrwt>
<rscale>  0 0.18414607E+04</rscale>
<asrwt>0</asrwt>
<pdfrwt beam="1">  1        2 0.14475204E+00 0.18414607E+04</pdfrwt>
<pdfrwt beam="2">  1       -2 0.13861604E+00 0.18414607E+04</pdfrwt>
<totfact> 0.95456113E+00</totfact>
</mgrwt>
</event>
<event>
 4    1  0.7144937E-008  0.2243865E+04  0.7816531E-02  0.8500389E-01
          2   -1    0    0  501    0  0.00000000000E+00  0.00000000000E+00  0.26365991506E+04  0.26365991506E+04  0.00000000000E+00 0.  1.
         -2   -1    0    0    0  501 -0.00000000000E+00 -0.00000000000E+00 -0.47740745952E+03  0.47740745952E+03  0.00000000000E+00 0. -1.
    2000013    1    1    2    0    0 -0.42212885960E+03 -0.59934945834E+03  0.14753453473E+04  0.18314083218E+04  0.80000000000E+03 0.  0.
   -2000013    1    1    2    0    0  0.42212885960E+03  0.59934945834E+03  0.68384634380E+03  0.12825982883E+04  0.80000000000E+03 0.  0.
<mgrwt>
<rscale>  0 0.22438646E+04</rscale>
<asrwt>0</asrwt>
<pdfrwt beam="1">  1        2 0.40563063E+00 0.22438646E+04</pdfrwt>
<pdfrwt beam="2">  1       -2 0.73447303E-01 0.22438646E+04</pdfrwt>
<totfact> 0.44120726E+00</totfact>
</mgrwt>
</event>
<event>
 4    1  0.7144937E-008  0.2643018E+04  0.7816531E-02  0.8353734E-01
         -2   -1    0    0    0  501 -0.00000000000E+00  0.00000000000E+00  0.11142849693E+04  0.11142849693E+04  0.00000000000E+00 0. -1.
          2   -1    0    0  501    0  0.00000000000E+00 -0.00000000000E+00 -0.15672705750E+04  0.15672705750E+04  0.00000000000E+00 0.  1.
    2000013    1    1    2    0    0  0.48976090995E+03  0.92649991717E+03 -0.31790760518E+03  0.13562201484E+04  0.80000000000E+03 0.  0.
   -2000013    1    1    2    0    0 -0.48976090995E+03 -0.92649991717E+03 -0.13507800061E+03  0.13253353959E+04  0.80000000000E+03 0.  0.
<mgrwt>
<rscale>  0 0.26430180E+04</rscale>
<asrwt>0</asrwt>
<pdfrwt beam="2">  1        2 0.24111855E+00 0.26430180E+04</pdfrwt>
<pdfrwt beam="1">  1       -2 0.17142846E+00 0.26430180E+04</pdfrwt>
<totfact> 0.21353101E+00</totfact>
</mgrwt>
</event>
<event>
 4    1  0.7144937E-008  0.1780791E+04  0.7816531E-02  0.8716582E-01
         -1   -1    0    0    0  501 -0.00000000000E+00  0.00000000000E+00  0.11621841070E+04  0.11621841070E+04  0.00000000000E+00 0. -1.
          1   -1    0    0  501    0  0.00000000000E+00 -0.00000000000E+00 -0.68216713652E+03  0.68216713652E+03  0.00000000000E+00 0.  1.
    2000013    1    1    2    0    0  0.12933709008E+03  0.58254538679E+02 -0.13724824148E+03  0.82398953509E+03  0.80000000000E+03 0.  0.
   -2000013    1    1    2    0    0 -0.12933709008E+03 -0.58254538679E+02  0.61726521198E+03  0.10203617084E+04  0.80000000000E+03 0.  0.
<mgrwt>
<rscale>  0 0.17807906E+04</rscale>
<asrwt>0</asrwt>
<pdfrwt beam="2">  1        1 0.10494879E+00 0.17807906E+04</pdfrwt>
<pdfrwt beam="1">  1       -1 0.17879755E+00 0.17807906E+04</pdfrwt>
<totfact> 0.56843458E+00</totfact>
</mgrwt>
</event>
<event>
 4    1  0.7144937E-008  0.1738304E+04  0.7816531E-02  0.8739815E-01
         -2   -1    0    0    0  501 -0.00000000000E+00  0.00000000000E+00  0.90896006693E+03  0.90896006693E+03  0.00000000000E+00 0. -1.
          2   -1    0    0  501    0  0.00000000000E+00 -0.00000000000E+00 -0.83108762158E+03  0.83108762158E+03  0.00000000000E+00 0.  1.
    2000013    1    1    2    0    0 -0.10286839154E+03 -0.20158982352E+03 -0.21470515316E+03  0.85867261847E+03  0.80000000000E+03 0.  0.
   -2000013    1    1    2    0    0  0.10286839154E+03  0.20158982352E+03  0.29257759852E+03  0.88137507003E+03  0.80000000000E+03 0.  0.
<mgrwt>
<rscale>  0 0.17383043E+04</rscale>
<asrwt>0</asrwt>
<pdfrwt beam="2">  1        2 0.12785963E+00 0.17383043E+04</pdfrwt>
<pdfrwt beam="1">  1       -2 0.13984001E+00 0.17383043E+04</pdfrwt>
<totfact> 0.11181143E+01</totfact>
</mgrwt>
</event>
<event>
 4    1  0.7144937E-008  0.3099645E+04  0.7816531E-02  0.8215835E-01
          2   -1    0    0  501    0  0.00000000000E+00  0.00000000000E+00  0.37133243149E+04  0.37133243149E+04  0.00000000000E+00 0.  1.
         -2   -1    0    0    0  501 -0.00000000000E+00 -0.00000000000E+00 -0.64684605391E+03  0.64684605391E+03  0.00000000000E+00 0. -1.
    2000013    1    1    2    0    0  0.95625271620E+03  0.92030654934E+03  0.14997800056E+04  0.21565536087E+04  0.80000000000E+03 0.  0.
   -2000013    1    1    2    0    0 -0.95625271620E+03 -0.92030654934E+03  0.15666982555E+04  0.22036167602E+04  0.80000000000E+03 0.  0.
<mgrwt>
<rscale>  0 0.30996446E+04</rscale>
<asrwt>0</asrwt>
<pdfrwt beam="1">  1        2 0.57128065E+00 0.30996446E+04</pdfrwt>
<pdfrwt beam="2">  1       -2 0.99514780E-01 0.30996446E+04</pdfrwt>
<totfact> 0.40434252E-01</totfact>
</mgrwt>
</event>
<event>
 4    1  0.7144937E-008  0.1636990E+04  0.7816531E-02  0.8798140E-01
         -2   -1    0    0    0  501 -0.00000000000E+00  0.00000000000E+00  0.24567280058E+03  0.24567280058E+03  0.00000000000E+00 0. -1.
          2   -1    0    0  501    0  0.00000000000E+00 -0.00000000000E+00 -0.27269360843E+04  0.27269360843E+04  0.00000000000E+00 0.  1.
    2000013    1    1    2    0    0 -0.10628053866E+03 -0.44887089853E+02 -0.10065029849E+04  0.12908751537E+04  0.80000000000E+03 0.  0.
   -2000013    1    1    2    0    0  0.10628053866E+03  0.44887089853E+02 -0.14747602988E+04  0.16817337312E+04  0.80000000000E+03 0.  0.
<mgrwt>
<rscale>  0 0.16369900E+04</rscale>
<asrwt>0</asrwt>
<pdfrwt beam="2">  1        2 0.41952860E+00 0.16369900E+04</pdfrwt>
<pdfrwt beam="1">  1       -2 0.37795818E-01 0.16369900E+04</pdfrwt>
<totfact> 0.16217515E+01</totfact>
</mgrwt>
</event>
<event>
 4    1  0.7144937E-008  0.2702916E+04  0.7816531E-02  0.8334060E-01
          2   -1    0    0  501    0  0.00000000000E+00  0.00000000000E+00  0.17843357355E+04  0.17843357355E+04  0.00000000000E+00 0.  1.
         -2   -1    0    0    0  501 -0.00000000000E+00 -0.00000000000E+00 -0.10235957111E+04  0.10235957111E+04  0.00000000000E+00 0. -1.
    2000013    1    1    2    0    0  0.52889974868E+03 -0.86571458141E+03  0.79231373550E+03  0.15155717522E+04  0.80000000000E+03 0.  0.
   -2000013    1    1    2    0    0 -0.52889974868E+03  0.86571458141E+03 -0.31573711086E+02  0.12923596945E+04  0.80000000000E+03 0.  0.
<mgrwt>
<rscale>  0 0.27029158E+04</rscale>
<asrwt>0</asrwt>
<pdfrwt beam="1">  1        2 0.27451319E+00 0.27029158E+04</pdfrwt>
<pdfrwt beam="2">  1       -2 0.15747626E+00 0.27029158E+04</pdfrwt>
<totfact> 0.20311321E+00</totfact>
</mgrwt>
</event>
<event>
 4    1  0.7144937E-008  0.1746183E+04  0.7816531E-02  0.8735454E-01
          2   -1    0    0  501    0  0.00000000000E+00  0.00000000000E+00  0.28411835891E+04  0.28411835891E+04  0.00000000000E+00 0.  1.
         -2   -1    0    0    0  501 -0.00000000000E+00 -0.00000000000E+00 -0.26829972316E+03  0.26829972316E+03  0.00000000000E+00 0. -1.
    2000013    1    1    2    0    0 -0.61043414511E+02 -0.24555463790E+03  0.17162789454E+04  0.19104022605E+04  0.80000000000E+03 0.  0.
   -2000013    1    1    2    0    0  0.61043414511E+02  0.24555463790E+03  0.85660492049E+03  0.11990810517E+04  0.80000000000E+03 0.  0.
<mgrwt>
<rscale>  0 0.17461830E+04</rscale>
<asrwt>0</asrwt>
<pdfrwt beam="1">  1        2 0.43710515E+00 0.17461830E+04</pdfrwt>
<pdfrwt beam="2">  1       -2 0.41276882E-01 0.17461830E+04</pdfrwt>
<totfact> 0.11544618E+01</totfact>
</mgrwt>
</event>
<event>
 4    1  0.7144937E-008  0.2519180E+04  0.7816531E-02  0.8396184E-01
         -2   -1    0    0    0  501 -0.00000000000E+00  0.00000000000E+00  0.43346750792E+03  0.43346750792E+03  0.00000000000E+00 0. -1.
          2   -1    0    0  501    0  0.00000000000E+00 -0.00000000000E+00 -0.36601752584E+04  0.36601752584E+04  0.00000000000E+00 0.  1.
    2000013    1    1    2    0    0  0.86678322289E+03 -0.36677495293E+03 -0.20138077175E+04  0.23624687394E+04  0.80000000000E+03 0.  0.
   -2000013    1    1    2    0    0 -0.86678322289E+03  0.36677495293E+03 -0.12129000331E+04  0.17311740270E+04  0.80000000000E+03 0.  0.
<mgrwt>
<rscale>  0 0.25191801E+04</rscale>
<asrwt>0</asrwt>
<pdfrwt beam="2">  1        2 0.56310390E+00 0.25191801E+04</pdfrwt>
<pdfrwt beam="1">  1       -2 0.66687308E-01 0.25191801E+04</pdfrwt>
<totfact> 0.11505411E+00</totfact>
</mgrwt>
</event>
<event>
 4    1  0.7144937E-008  0.2057976E+04  0.7816531E-02  0.8579984E-01
          2   -1    0    0  501    0  0.00000000000E+00  0.00000000000E+00  0.11548323593E+04  0.11548323593E+04  0.00000000000E+00 0.  1.
         -2   -1    0    0    0  501 -0.00000000000E+00 -0.00000000000E+00 -0.91685749162E+03  0.91685749162E+03  0.00000000000E+00 0. -1.
    2000013    1    1    2    0    0  0.45110201137E+03  0.46073823663E+03  0.17452710544E+03  0.10422247636E+04  0.80000000000E+03 0.  0.
   -2000013    1    1    2    0    0 -0.45110201137E+03 -0.46073823663E+03  0.63447762200E+02  0.10294650873E+04  0.80000000000E+03 0.  0.
<mgrwt>
<rscale>  0 0.20579764E+04</rscale>
<asrwt>0</asrwt>
<pdfrwt beam="1">  1        2 0.17766652E+00 0.20579764E+04</pdfrwt>
<pdfrwt beam="2">  1       -2 0.14105500E+00 0.20579764E+04</pdfrwt>
<totfact> 0.65682553E+00</totfact>
</mgrwt>
</event>
<event>
 4    1  0.7144937E-008  0.2723234E+04  0.7816531E-02  0.8327506E-01
         -2   -1    0    0    0  501 -0.00000000000E+00  0.00000000000E+00  0.98858795046E+03  0.98858795046E+03  0.00000000000E+00 0. -1.
          2   -1    0    0  501    0  0.00000000000E+00 -0.00000000000E+00 -0.18754030220E+04  0.18754030220E+04  0.00000000000E+00 0.  1.
    2000013    1    1    2    0    0  0.95181075866E+03 -0.13617042406E+03 -0.10092845009E+04  0.16072153896E+04  0.80000000000E+03 0.  0.
   -2000013    1    1    2    0    0 -0.95181075866E+03  0.13617042406E+03  0.12246942934E+03  0.12567755829E+04  0.80000000000E+03 0.  0.
<mgrwt>
<rscale>  0 0.27232340E+04</rscale>
<asrwt>0</asrwt>
<pdfrwt beam="2">  1        2 0.28852354E+00 0.27232340E+04</pdfrwt>
<pdfrwt beam="1">  1       -2 0.15209045E+00 0.27232340E+04</pdfrwt>
<totfact> 0.19817631E+00</totfact>
</mgrwt>
</event>
<event>
 4    1  0.7144937E-008  0.2476640E+04  0.7816531E-02  0.8411355E-01
         -2   -1    0    0    0  501 -0.00000000000E+00  0.00000000000E+00  0.90960594066E+03  0.90960594066E+03  0.00000000000E+00 0.  1.
          2   -1    0    0  501    0  0.00000000000E+00 -0.00000000000E+00 -0.16858244155E+04  0.16858244155E+04  0.00000000000E+00 0. -1.
    2000013    1    1    2    0    0 -0.83224830413E+03 -0.33982793016E+03 -0.69420752541E+03  0.13892603608E+04  0.80000000000E+03 0.  0.
   -2000013    1    1    2    0    0  0.83224830413E+03  0.33982793016E+03 -0.82010949453E+02  0.12061699953E+04  0.80000000000E+03 0.  0.
<mgrwt>
<rscale>  0 0.24766396E+04</rscale>
<asrwt>0</asrwt>
<pdfrwt beam="2">  1        2 0.25935760E+00 0.24766396E+04</pdfrwt>
<pdfrwt beam="1">  1       -2 0.13993938E+00 0.24766396E+04</pdfrwt>
<totfact> 0.32093068E+00</totfact>
</mgrwt>
</event>
<event>
 4    1  0.7144937E-008  0.1952174E+04  0.7816531E-02  0.8629313E-01
         -2   -1    0    0    0  501 -0.00000000000E+00  0.00000000000E+00  0.32661447195E+03  0.32661447195E+03  0.00000000000E+00 0. -1.
          2   -1    0    0  501    0  0.00000000000E+00 -0.00000000000E+00 -0.29170350591E+04  0.29170350591E+04  0.00000000000E+00 0.  1.
    2000013    1    1    2    0    0 -0.20712928811E+03 -0.51856229667E+03 -0.12443637008E+04  0.15812180170E+04  0.80000000000E+03 0.  0.
   -2000013    1    1    2    0    0  0.20712928811E+03  0.51856229667E+03 -0.13460568864E+04  0.16624315141E+04  0.80000000000E+03 0.  0.
<mgrwt>
<rscale>  0 0.19521740E+04</rscale>
<asrwt>0</asrwt>
<pdfrwt beam="2">  1        2 0.44877460E+00 0.19521740E+04</pdfrwt>
<pdfrwt beam="1">  1       -2 0.50248383E-01 0.19521740E+04</pdfrwt>
<totfact> 0.68671067E+00</totfact>
</mgrwt>
</event>
<event>
 4    1  0.7144937E-008  0.1735491E+04  0.7816531E-02  0.8741377E-01
         -2   -1    0    0    0  501 -0.00000000000E+00  0.00000000000E+00  0.34246285602E+03  0.34246285602E+03  0.00000000000E+00 0. -1.
          2   -1    0    0  501    0  0.00000000000E+00 -0.00000000000E+00 -0.21987270509E+04  0.21987270509E+04  0.00000000000E+00 0.  1.
    2000013    1    1    2    0    0 -0.31892477498E+03 -0.87664537617E+02 -0.84046944339E+03  0.12065599730E+04  0.80000000000E+03 0.  0.
   -2000013    1    1    2    0    0  0.31892477498E+03  0.87664537617E+02 -0.10157947515E+04  0.13346299339E+04  0.80000000000E+03 0.  0.
<mgrwt>
<rscale>  0 0.17354911E+04</rscale>
<asrwt>0</asrwt>
<pdfrwt beam="2">  1        2 0.33826569E+00 0.17354911E+04</pdfrwt>
<pdfrwt beam="1">  1       -2 0.52686594E-01 0.17354911E+04</pdfrwt>
<totfact> 0.16687784E+01</totfact>
</mgrwt>
</event>
<event>
 4    1  0.7144937E-008  0.2134628E+04  0.7816531E-02  0.8546141E-01
         -2   -1    0    0    0  501 -0.00000000000E+00  0.00000000000E+00  0.75181032426E+03  0.75181032426E+03  0.00000000000E+00 0. -1.
          2   -1    0    0  501    0  0.00000000000E+00 -0.00000000000E+00 -0.15152214158E+04  0.15152214158E+04  0.00000000000E+00 0.  1.
    2000013    1    1    2    0    0  0.31840979315E+02 -0.70577403916E+03 -0.37605963541E+03  0.11316146392E+04  0.80000000000E+03 0.  0.
   -2000013    1    1    2    0    0 -0.31840979315E+02  0.70577403916E+03 -0.38735145612E+03  0.11354171008E+04  0.80000000000E+03 0.  0.
<mgrwt>
<rscale>  0 0.21346279E+04</rscale>
<asrwt>0</asrwt>
<pdfrwt beam="2">  1        2 0.23311099E+00 0.21346279E+04</pdfrwt>
<pdfrwt beam="1">  1       -2 0.11566313E+00 0.21346279E+04</pdfrwt>
<totfact> 0.66502997E+00</totfact>
</mgrwt>
</event>
<event>
 4    1  0.7144937E-008  0.3545715E+04  0.7816531E-02  0.8103041E-01
          1   -1    0    0  501    0  0.00000000000E+00  0.00000000000E+00  0.26893636214E+04  0.26893636214E+04  0.00000000000E+00 0.  1.
         -1   -1    0    0    0  501 -0.00000000000E+00 -0.00000000000E+00 -0.11686865226E+04  0.11686865226E+04  0.00000000000E+00 0. -1.
    2000013    1    1    2    0    0 -0.63244976143E+03 -0.10918818517E+04 -0.27810144297E+03  0.15197167800E+04  0.80000000000E+03 0.  0.
   -2000013    1    1    2    0    0  0.63244976143E+03  0.10918818517E+04  0.17987785418E+04  0.23383333640E+04  0.80000000000E+03 0.  0.
<mgrwt>
<rscale>  0 0.35457146E+04</rscale>
<asrwt>0</asrwt>
<pdfrwt beam="1">  1        1 0.41374825E+00 0.35457146E+04</pdfrwt>
<pdfrwt beam="2">  1       -1 0.17979793E+00 0.35457146E+04</pdfrwt>
<totfact> 0.16939313E-01</totfact>
</mgrwt>
</event>
<event>
 4    1  0.7144937E-008  0.2903088E+04  0.7816531E-02  0.8271959E-01
          2   -1    0    0  501    0  0.00000000000E+00  0.00000000000E+00  0.18755787353E+04  0.18755787353E+04  0.00000000000E+00 0.  1.
         -2   -1    0    0    0  501 -0.00000000000E+00 -0.00000000000E+00 -0.11233755595E+04  0.11233755595E+04  0.00000000000E+00 0. -1.
    2000013    1    1    2    0    0  0.11660983914E+04 -0.31098339972E+03  0.27033312490E+03  0.14729481090E+04  0.80000000000E+03 0.  0.
   -2000013    1    1    2    0    0 -0.11660983914E+04  0.31098339972E+03  0.48187005094E+03  0.15260061859E+04  0.80000000000E+03 0.  0.
<mgrwt>
<rscale>  0 0.29030875E+04</rscale>
<asrwt>0</asrwt>
<pdfrwt beam="1">  1        2 0.28855057E+00 0.29030875E+04</pdfrwt>
<pdfrwt beam="2">  1       -2 0.17282701E+00 0.29030875E+04</pdfrwt>
<totfact> 0.13759542E+00</totfact>
</mgrwt>
</event>
<event>
 4    1  0.7144937E-008  0.2613243E+04  0.7816531E-02  0.8363717E-01
         -2   -1    0    0    0  501 -0.00000000000E+00  0.00000000000E+00  0.90915904752E+03  0.90915904752E+03  0.00000000000E+00 0. -1.
          2   -1    0    0  501    0  0.00000000000E+00 -0.00000000000E+00 -0.18778443801E+04  0.18778443801E+04  0.00000000000E+00 0.  1.
    2000013    1    1    2    0    0 -0.99889372202E+03 -0.12984320425E+03 -0.23971970489E+03  0.13084775361E+04  0.80000000000E+03 0.  0.
   -2000013    1    1    2    0    0  0.99889372202E+03  0.12984320425E+03 -0.72896562771E+03  0.14785258915E+04  0.80000000000E+03 0.  0.
<mgrwt>
<rscale>  0 0.26132426E+04</rscale>
<asrwt>0</asrwt>
<pdfrwt beam="2">  1        2 0.28889913E+00 0.26132426E+04</pdfrwt>
<pdfrwt beam="1">  1       -2 0.13987062E+00 0.26132426E+04</pdfrwt>
<totfact> 0.24852506E+00</totfact>
</mgrwt>
</event>
<event>
 4    1  0.7144937E-008  0.2397488E+04  0.7816531E-02  0.8440445E-01
          2   -1    0    0  501    0  0.00000000000E+00  0.00000000000E+00  0.21203049513E+04  0.21203049513E+04  0.00000000000E+00 0.  1.
         -2   -1    0    0    0  501 -0.00000000000E+00 -0.00000000000E+00 -0.67772679152E+03  0.67772679152E+03  0.00000000000E+00 0. -1.
    2000013    1    1    2    0    0  0.68985677267E+03 -0.27338194671E+03  0.13005445669E+04  0.16976619881E+04  0.80000000000E+03 0.  0.
   -2000013    1    1    2    0    0 -0.68985677267E+03  0.27338194671E+03  0.14203359297E+03  0.11003697547E+04  0.80000000000E+03 0.  0.
<mgrwt>
<rscale>  0 0.23974882E+04</rscale>
<asrwt>0</asrwt>
<pdfrwt beam="1">  1        2 0.32620076E+00 0.23974882E+04</pdfrwt>
<pdfrwt beam="2">  1       -2 0.10426566E+00 0.23974882E+04</pdfrwt>
<totfact> 0.38484286E+00</totfact>
</mgrwt>
</event>
<event>
 4    1  0.7144937E-008  0.2927045E+04  0.7816531E-02  0.8264876E-01
          1   -1    0    0  501    0  0.00000000000E+00  0.00000000000E+00  0.13151608932E+04  0.13151608932E+04  0.00000000000E+00 0.  1.
         -1   -1    0    0    0  501 -0.00000000000E+00 -0.00000000000E+00 -0.16286210039E+04  0.16286210039E+04  0.00000000000E+00 0. -1.
    2000013    1    1    2    0    0  0.36173982938E+03 -0.11046420587E+04  0.23383161718E+03  0.14303031172E+04  0.80000000000E+03 0.  0.
   -2000013    1    1    2    0    0 -0.36173982938E+03  0.11046420587E+04 -0.54729172788E+03  0.15134787800E+04  0.80000000000E+03 0.  0.
<mgrwt>
<rscale>  0 0.29270454E+04</rscale>
<asrwt>0</asrwt>
<pdfrwt beam="1">  1        1 0.20233245E+00 0.29270454E+04</pdfrwt>
<pdfrwt beam="2">  1       -1 0.25055708E+00 0.29270454E+04</pdfrwt>
<totfact> 0.52235934E-01</totfact>
</mgrwt>
</event>
<event>
 4    1  0.7144937E-008  0.1662041E+04  0.7816531E-02  0.8783315E-01
          2   -1    0    0  501    0  0.00000000000E+00  0.00000000000E+00  0.73234880787E+03  0.73234880787E+03  0.00000000000E+00 0.  1.
         -2   -1    0    0    0  501 -0.00000000000E+00 -0.00000000000E+00 -0.94298709927E+03  0.94298709927E+03  0.00000000000E+00 0. -1.
    2000013    1    1    2    0    0  0.53175714017E+01  0.19994052733E+03 -0.15834431895E+01  0.82462536847E+03  0.80000000000E+03 0.  0.
   -2000013    1    1    2    0    0 -0.53175714017E+01 -0.19994052733E+03 -0.20905484821E+03  0.85071053866E+03  0.80000000000E+03 0.  0.
<mgrwt>
<rscale>  0 0.16620415E+04</rscale>
<asrwt>0</asrwt>
<pdfrwt beam="1">  1        2 0.11266905E+00 0.16620415E+04</pdfrwt>
<pdfrwt beam="2">  1       -2 0.14507494E+00 0.16620415E+04</pdfrwt>
<totfact> 0.12072293E+01</totfact>
</mgrwt>
</event>
<event>
 4    1  0.7144937E-008  0.2675658E+04  0.7816531E-02  0.8342946E-01
          2   -1    0    0  501    0  0.00000000000E+00  0.00000000000E+00  0.31126559842E+04  0.31126559842E+04  0.00000000000E+00 0.  1.
         -2   -1    0    0    0  501 -0.00000000000E+00 -0.00000000000E+00 -0.57500310303E+03  0.57500310303E+03  0.00000000000E+00 0. -1.
    2000013    1    1    2    0    0  0.71095406377E+03 -0.77586302424E+03  0.98514054519E+03  0.16486118424E+04  0.80000000000E+03 0.  0.
   -2000013    1    1    2    0    0 -0.71095406377E+03  0.77586302424E+03  0.15525123360E+04  0.20390472448E+04  0.80000000000E+03 0.  0.
<mgrwt>
<rscale>  0 0.26756583E+04</rscale>
<asrwt>0</asrwt>
<pdfrwt beam="1">  1        2 0.47887014E+00 0.26756583E+04</pdfrwt>
<pdfrwt beam="2">  1       -2 0.88462018E-01 0.26756583E+04</pdfrwt>
<totfact> 0.14274938E+00</totfact>
</mgrwt>
</event>
<event>
 4    1  0.7144937E-008  0.1879988E+04  0.7816531E-02  0.8664882E-01
         -2   -1    0    0    0  501 -0.00000000000E+00  0.00000000000E+00  0.70063340821E+03  0.70063340821E+03  0.00000000000E+00 0. -1.
          2   -1    0    0  501    0  0.00000000000E+00 -0.00000000000E+00 -0.12611289335E+04  0.12611289335E+04  0.00000000000E+00 0.  1.
    2000013    1    1    2    0    0  0.48390435490E+03 -0.44084951733E+02 -0.18998583809E+03  0.95509241769E+03  0.80000000000E+03 0.  0.
   -2000013    1    1    2    0    0 -0.48390435490E+03  0.44084951733E+02 -0.37050968725E+03  0.10066699241E+04  0.80000000000E+03 0.  0.
<mgrwt>
<rscale>  0 0.18799884E+04</rscale>
<asrwt>0</asrwt>
<pdfrwt beam="2">  1        2 0.19401983E+00 0.18799884E+04</pdfrwt>
<pdfrwt beam="1">  1       -2 0.10778976E+00 0.18799884E+04</pdfrwt>
<totfact> 0.11280283E+01</totfact>
</mgrwt>
</event>
<event>
 4    1  0.7144937E-008  0.2169640E+04  0.7816531E-02  0.8531172E-01
          2   -1    0    0  501    0  0.00000000000E+00  0.00000000000E+00  0.45459935591E+03  0.45459935591E+03  0.00000000000E+00 0.  1.
         -2   -1    0    0    0  501 -0.00000000000E+00 -0.00000000000E+00 -0.25887286775E+04  0.25887286775E+04  0.00000000000E+00 0. -1.
    2000013    1    1    2    0    0 -0.36303315899E+03 -0.63639580661E+03 -0.10761217468E+04  0.15280152850E+04  0.80000000000E+03 0.  0.
   -2000013    1    1    2    0    0  0.36303315899E+03  0.63639580661E+03 -0.10580075747E+04  0.15153127484E+04  0.80000000000E+03 0.  0.
<mgrwt>
<rscale>  0 0.21696400E+04</rscale>
<asrwt>0</asrwt>
<pdfrwt beam="1">  1        2 0.69938362E-01 0.21696400E+04</pdfrwt>
<pdfrwt beam="2">  1       -2 0.39826595E+00 0.21696400E+04</pdfrwt>
<totfact> 0.48075654E-01</totfact>
</mgrwt>
</event>
<event>
 4    1  0.7144937E-008  0.3304034E+04  0.7816531E-02  0.8161870E-01
          2   -1    0    0  501    0  0.00000000000E+00  0.00000000000E+00  0.29283410108E+04  0.29283410108E+04  0.00000000000E+00 0.  1.
         -2   -1    0    0    0  501 -0.00000000000E+00 -0.00000000000E+00 -0.93198162358E+03  0.93198162358E+03  0.00000000000E+00 0. -1.
    2000013    1    1    2    0    0  0.30337534496E+03 -0.13472074756E+04  0.49952470748E+03  0.16722827260E+04  0.80000000000E+03 0.  0.
   -2000013    1    1    2    0    0 -0.30337534496E+03  0.13472074756E+04  0.14968346797E+04  0.21880399084E+04  0.80000000000E+03 0.  0.
<mgrwt>
<rscale>  0 0.33040339E+04</rscale>
<asrwt>0</asrwt>
<pdfrwt beam="1">  1        2 0.45051400E+00 0.33040339E+04</pdfrwt>
<pdfrwt beam="2">  1       -2 0.14338179E+00 0.33040339E+04</pdfrwt>
<totfact> 0.54337673E-01</totfact>
</mgrwt>
</event>
<event>
 4    1  0.7144937E-008  0.2395916E+04  0.7816531E-02  0.8441034E-01
         -2   -1    0    0    0  501 -0.00000000000E+00  0.00000000000E+00  0.37653874240E+03  0.37653874240E+03  0.00000000000E+00 0. -1.
          2   -1    0    0  501    0  0.00000000000E+00 -0.00000000000E+00 -0.38113018265E+04  0.38113018265E+04  0.00000000000E+00 0.  1.
    2000013    1    1    2    0    0 -0.18896537705E+02  0.40594525292E+03 -0.33007282244E+03  0.95608404213E+03  0.80000000000E+03 0.  0.
   -2000013    1    1    2    0    0  0.18896537705E+02 -0.40594525292E+03 -0.31046902616E+04  0.32317565267E+04  0.80000000000E+03 0.  0.
<mgrwt>
<rscale>  0 0.23959155E+04</rscale>
<asrwt>0</asrwt>
<pdfrwt beam="2">  1        2 0.58635413E+00 0.23959155E+04</pdfrwt>
<pdfrwt beam="1">  1       -2 0.57929037E-01 0.23959155E+04</pdfrwt>
<totfact> 0.12122316E+00</totfact>
</mgrwt>
</event>
<event>
 4    1  0.7144937E-008  0.3795300E+04  0.7816531E-02  0.8047164E-01
          2   -1    0    0  501    0  0.00000000000E+00  0.00000000000E+00  0.22193801832E+04  0.22193801832E+04  0.00000000000E+00 0.  1.
         -2   -1    0    0    0  501 -0.00000000000E+00 -0.00000000000E+00 -0.16225592895E+04  0.16225592895E+04  0.00000000000E+00 0. -1.
    2000013    1    1    2    0    0  0.16426411638E+04  0.51212643716E+03  0.27505195729E+03  0.19173411433E+04  0.80000000000E+03 0.  0.
   -2000013    1    1    2    0    0 -0.16426411638E+04 -0.51212643716E+03  0.32176893642E+03  0.19245983293E+04  0.80000000000E+03 0.  0.
<mgrwt>
<rscale>  0 0.37953002E+04</rscale>
<asrwt>0</asrwt>
<pdfrwt beam="1">  1        2 0.34144311E+00 0.37953002E+04</pdfrwt>
<pdfrwt beam="2">  1       -2 0.24962451E+00 0.37953002E+04</pdfrwt>
<totfact> 0.26096684E-01</totfact>
</mgrwt>
</event>
<event>
 4    1  0.7144937E-008  0.1965851E+04  0.7816531E-02  0.8622755E-01
          2   -1    0    0  501    0  0.00000000000E+00  0.00000000000E+00  0.31275252444E+04  0.31275252444E+04  0.00000000000E+00 0.  1.
         -2   -1    0    0    0  501 -0.00000000000E+00 -0.00000000000E+00 -0.30891605595E+03  0.30891605595E+03  0.00000000000E+00 0. -1.
    2000013    1    1    2    0    0 -0.19082841255E+02 -0.48799218520E+03  0.19268101368E+04  0.21426847251E+04  0.80000000000E+03 0.  0.
   -2000013    1    1    2    0    0  0.19082841255E+02  0.48799218520E+03  0.89179905166E+03  0.12937565753E+04  0.80000000000E+03 0.  0.
<mgrwt>
<rscale>  0 0.19658512E+04</rscale>
<asrwt>0</asrwt>
<pdfrwt beam="1">  1        2 0.48115771E+00 0.19658512E+04</pdfrwt>
<pdfrwt beam="2">  1       -2 0.47525549E-01 0.19658512E+04</pdfrwt>
<totfact> 0.56666939E+00</totfact>
</mgrwt>
</event>
<event>
 4    1  0.7144937E-008  0.2427953E+04  0.7816531E-02  0.8429112E-01
          1   -1    0    0  501    0  0.00000000000E+00  0.00000000000E+00  0.10935327637E+04  0.10935327637E+04  0.00000000000E+00 0.  1.
         -1   -1    0    0    0  501 -0.00000000000E+00 -0.00000000000E+00 -0.13476860773E+04  0.13476860773E+04  0.00000000000E+00 0. -1.
    2000013    1    1    2    0    0 -0.20411142384E+03  0.88989145126E+03 -0.11394342233E+03  0.12192421301E+04  0.80000000000E+03 0.  0.
   -2000013    1    1    2    0    0  0.20411142384E+03 -0.88989145126E+03 -0.14020989128E+03  0.12219767109E+04  0.80000000000E+03 0.  0.
<mgrwt>
<rscale>  0 0.24279529E+04</rscale>
<asrwt>0</asrwt>
<pdfrwt beam="1">  1        1 0.16823581E+00 0.24279529E+04</pdfrwt>
<pdfrwt beam="2">  1       -1 0.20733632E+00 0.24279529E+04</pdfrwt>
<totfact> 0.15363699E+00</totfact>
</mgrwt>
</event>
<event>
 4    1  0.7144937E-008  0.2133736E+04  0.7816531E-02  0.8546526E-01
          2   -1    0    0  501    0  0.00000000000E+00  0.00000000000E+00  0.27829026949E+04  0.27829026949E+04  0.00000000000E+00 0.  1.
         -2   -1    0    0    0  501 -0.00000000000E+00 -0.00000000000E+00 -0.40899987706E+03  0.40899987706E+03  0.00000000000E+00 0. -1.
    2000013    1    1    2    0    0 -0.32003243474E+03  0.60211974782E+03  0.14596769965E+04  0.17987845575E+04  0.80000000000E+03 0.  0.
   -2000013    1    1    2    0    0  0.32003243474E+03 -0.60211974782E+03  0.91422582138E+03  0.13931180146E+04  0.80000000000E+03 0.  0.
<mgrwt>
<rscale>  0 0.21337356E+04</rscale>
<asrwt>0</asrwt>
<pdfrwt beam="1">  1        2 0.42813886E+00 0.21337356E+04</pdfrwt>
<pdfrwt beam="2">  1       -2 0.62923060E-01 0.21337356E+04</pdfrwt>
<totfact> 0.50984995E+00</totfact>
</mgrwt>
</event>
<event>
 4    1  0.7144937E-008  0.1795609E+04  0.7816531E-02  0.8708638E-01
         -2   -1    0    0    0  501 -0.00000000000E+00  0.00000000000E+00  0.55903195485E+03  0.55903195485E+03  0.00000000000E+00 0.  1.
          2   -1    0    0  501    0  0.00000000000E+00 -0.00000000000E+00 -0.14418729327E+04  0.14418729327E+04  0.00000000000E+00 0. -1.
    2000013    1    1    2    0    0  0.38660244550E+03  0.84907073298E+02 -0.54935770172E+03  0.10480765938E+04  0.80000000000E+03 0.  0.
   -2000013    1    1    2    0    0 -0.38660244550E+03 -0.84907073298E+02 -0.33348327612E+03  0.95282829377E+03  0.80000000000E+03 0.  0.
<mgrwt>
<rscale>  0 0.17956091E+04</rscale>
<asrwt>0</asrwt>
<pdfrwt beam="2">  1        2 0.22182660E+00 0.17956091E+04</pdfrwt>
<pdfrwt beam="1">  1       -2 0.86004917E-01 0.17956091E+04</pdfrwt>
<totfact> 0.15172160E+01</totfact>
</mgrwt>
</event>
<event>
 4    1  0.7144937E-008  0.2199753E+04  0.7816531E-02  0.8518531E-01
          1   -1    0    0  501    0  0.00000000000E+00  0.00000000000E+00  0.70769195439E+03  0.70769195439E+03  0.00000000000E+00 0.  1.
         -1   -1    0    0    0  501 -0.00000000000E+00 -0.00000000000E+00 -0.17093991358E+04  0.17093991358E+04  0.00000000000E+00 0. -1.
    2000013    1    1    2    0    0 -0.52534112907E+03  0.51874520611E+03 -0.67336232637E+03  0.12800377781E+04  0.80000000000E+03 0.  0.
   -2000013    1    1    2    0    0  0.52534112907E+03 -0.51874520611E+03 -0.32834485504E+03  0.11370533121E+04  0.80000000000E+03 0.  0.
<mgrwt>
<rscale>  0 0.21997527E+04</rscale>
<asrwt>0</asrwt>
<pdfrwt beam="1">  1        1 0.10887569E+00 0.21997527E+04</pdfrwt>
<pdfrwt beam="2">  1       -1 0.26298448E+00 0.21997527E+04</pdfrwt>
<totfact> 0.14017777E+00</totfact>
</mgrwt>
</event>
<event>
 4    1  0.7144937E-008  0.1857114E+04  0.7816531E-02  0.8676503E-01
         -2   -1    0    0    0  501 -0.00000000000E+00  0.00000000000E+00  0.14789993241E+04  0.14789993241E+04  0.00000000000E+00 0. -1.
          2   -1    0    0  501    0  0.00000000000E+00 -0.00000000000E+00 -0.58297378993E+03  0.58297378993E+03  0.00000000000E+00 0.  1.
    2000013    1    1    2    0    0  0.44923761777E+03 -0.30814653204E+02  0.29314986042E+03  0.96369124762E+03  0.80000000000E+03 0.  0.
   -2000013    1    1    2    0    0 -0.44923761777E+03  0.30814653204E+02  0.60287567375E+03  0.10982818664E+04  0.80000000000E+03 0.  0.
<mgrwt>
<rscale>  0 0.18571137E+04</rscale>
<asrwt>0</asrwt>
<pdfrwt beam="2">  1        2 0.89688276E-01 0.18571137E+04</pdfrwt>
<pdfrwt beam="1">  1       -2 0.22753836E+00 0.18571137E+04</pdfrwt>
<totfact> 0.42728688E+00</totfact>
</mgrwt>
</event>
<event>
 4    1  0.7144937E-008  0.1930381E+04  0.7816531E-02  0.8639880E-01
          1   -1    0    0  501    0  0.00000000000E+00  0.00000000000E+00  0.11635856382E+04  0.11635856382E+04  0.00000000000E+00 0.  1.
         -1   -1    0    0    0  501 -0.00000000000E+00 -0.00000000000E+00 -0.80062276658E+03  0.80062276658E+03  0.00000000000E+00 0. -1.
    2000013    1    1    2    0    0 -0.51212250040E+03  0.13630234283E+03  0.76005087054E+02  0.96261339973E+03  0.80000000000E+03 0.  0.
   -2000013    1    1    2    0    0  0.51212250040E+03 -0.13630234283E+03  0.28695778461E+03  0.10015950051E+04  0.80000000000E+03 0.  0.
<mgrwt>
<rscale>  0 0.19303815E+04</rscale>
<asrwt>0</asrwt>
<pdfrwt beam="1">  1        1 0.17901317E+00 0.19303815E+04</pdfrwt>
<pdfrwt beam="2">  1       -1 0.12317273E+00 0.19303815E+04</pdfrwt>
<totfact> 0.61576562E+00</totfact>
</mgrwt>
</event>
<event>
 4    1  0.7144937E-008  0.2491542E+04  0.7816531E-02  0.8406005E-01
          2   -1    0    0  501    0  0.00000000000E+00  0.00000000000E+00  0.19605549313E+04  0.19605549313E+04  0.00000000000E+00 0.  1.
         -2   -1    0    0    0  501 -0.00000000000E+00 -0.00000000000E+00 -0.79158448297E+03  0.79158448297E+03  0.00000000000E+00 0. -1.
    2000013    1    1    2    0    0 -0.72359380881E+01 -0.91163224595E+03  0.27046368886E+03  0.12426891476E+04  0.80000000000E+03 0.  0.
   -2000013    1    1    2    0    0  0.72359380881E+01  0.91163224595E+03  0.89850675948E+03  0.15094502666E+04  0.80000000000E+03 0.  0.
<mgrwt>
<rscale>  0 0.24915416E+04</rscale>
<asrwt>0</asrwt>
<pdfrwt beam="1">  1        2 0.30162383E+00 0.24915416E+04</pdfrwt>
<pdfrwt beam="2">  1       -2 0.12178223E+00 0.24915416E+04</pdfrwt>
<totfact> 0.32103596E+00</totfact>
</mgrwt>
</event>
<event>
 4    1  0.7144937E-008  0.3012397E+04  0.7816531E-02  0.8240200E-01
          1   -1    0    0  501    0  0.00000000000E+00  0.00000000000E+00  0.27146540457E+04  0.27146540457E+04  0.00000000000E+00 0.  1.
         -1   -1    0    0    0  501 -0.00000000000E+00 -0.00000000000E+00 -0.83569901651E+03  0.83569901651E+03  0.00000000000E+00 0. -1.
    2000013    1    1    2    0    0 -0.63462033639E+03 -0.80572995972E+03  0.18344930178E+04  0.22488460089E+04  0.80000000000E+03 0.  0.
   -2000013    1    1    2    0    0  0.63462033639E+03  0.80572995972E+03  0.44462011377E+02  0.13015070533E+04  0.80000000000E+03 0.  0.
<mgrwt>
<rscale>  0 0.30123969E+04</rscale>
<asrwt>0</asrwt>
<pdfrwt beam="1">  1        1 0.41763908E+00 0.30123969E+04</pdfrwt>
<pdfrwt beam="2">  1       -1 0.12856908E+00 0.30123969E+04</pdfrwt>
<totfact> 0.42461653E-01</totfact>
</mgrwt>
</event>
<event>
 4    1  0.7144937E-008  0.2096909E+04  0.7816531E-02  0.8562606E-01
         -2   -1    0    0    0  501 -0.00000000000E+00  0.00000000000E+00  0.56856774079E+03  0.56856774079E+03  0.00000000000E+00 0. -1.
          2   -1    0    0  501    0  0.00000000000E+00 -0.00000000000E+00 -0.19333797161E+04  0.19333797161E+04  0.00000000000E+00 0.  1.
    2000013    1    1    2    0    0 -0.22078851325E+03  0.61391256654E+03 -0.46362747886E+03  0.11316300836E+04  0.80000000000E+03 0.  0.
   -2000013    1    1    2    0    0  0.22078851325E+03 -0.61391256654E+03 -0.90118449649E+03  0.13703173733E+04  0.80000000000E+03 0.  0.
<mgrwt>
<rscale>  0 0.20969095E+04</rscale>
<asrwt>0</asrwt>
<pdfrwt beam="2">  1        2 0.29744303E+00 0.20969095E+04</pdfrwt>
<pdfrwt beam="1">  1       -2 0.87471960E-01 0.20969095E+04</pdfrwt>
<totfact> 0.75679157E+00</totfact>
</mgrwt>
</event>
<event>
 4    1  0.7144937E-008  0.2398129E+04  0.7816531E-02  0.8440204E-01
          2   -1    0    0  501    0  0.00000000000E+00  0.00000000000E+00  0.22142923302E+04  0.22142923302E+04  0.00000000000E+00 0.  1.
         -2   -1    0    0    0  501 -0.00000000000E+00 -0.00000000000E+00 -0.64930715132E+03  0.64930715132E+03  0.00000000000E+00 0. -1.
    2000013    1    1    2    0    0 -0.26092958595E+02  0.58183013649E+03 -0.26104994534E+02  0.98989323715E+03  0.80000000000E+03 0.  0.
   -2000013    1    1    2    0    0  0.26092958595E+02 -0.58183013649E+03  0.15910901734E+04  0.18737062443E+04  0.80000000000E+03 0.  0.
<mgrwt>
<rscale>  0 0.23981291E+04</rscale>
<asrwt>0</asrwt>
<pdfrwt beam="1">  1        2 0.34066036E+00 0.23981291E+04</pdfrwt>
<pdfrwt beam="2">  1       -2 0.99893409E-01 0.23981291E+04</pdfrwt>
<totfact> 0.37747523E+00</totfact>
</mgrwt>
</event>
<event>
 4    1  0.7144937E-008  0.2439701E+04  0.7816531E-02  0.8424788E-01
          2   -1    0    0  501    0  0.00000000000E+00  0.00000000000E+00  0.84795208136E+03  0.84795208136E+03  0.00000000000E+00 0.  1.
         -2   -1    0    0    0  501 -0.00000000000E+00 -0.00000000000E+00 -0.17548576388E+04  0.17548576388E+04  0.00000000000E+00 0. -1.
    2000013    1    1    2    0    0 -0.87866287173E+03  0.22208571061E+03 -0.27924239782E+03  0.12407041637E+04  0.80000000000E+03 0.  0.
   -2000013    1    1    2    0    0  0.87866287173E+03 -0.22208571061E+03 -0.62766315960E+03  0.13621055565E+04  0.80000000000E+03 0.  0.
<mgrwt>
<rscale>  0 0.24397010E+04</rscale>
<asrwt>0</asrwt>
<pdfrwt beam="1">  1        2 0.13045417E+00 0.24397010E+04</pdfrwt>
<pdfrwt beam="2">  1       -2 0.26997809E+00 0.24397010E+04</pdfrwt>
<totfact> 0.13837129E+00</totfact>
</mgrwt>
</event>
<event>
 4    1  0.7144937E-008  0.2666034E+04  0.7816531E-02  0.8346110E-01
         -1   -1    0    0    0  501 -0.00000000000E+00  0.00000000000E+00  0.11799568050E+04  0.11799568050E+04  0.00000000000E+00 0. -1.
          1   -1    0    0  501    0  0.00000000000E+00 -0.00000000000E+00 -0.15059321725E+04  0.15059321725E+04  0.00000000000E+00 0.  1.
    2000013    1    1    2    0    0  0.39768340881E+03 -0.84494278630E+03 -0.68146049441E+03  0.14058694147E+04  0.80000000000E+03 0.  0.
   -2000013    1    1    2    0    0 -0.39768340881E+03  0.84494278630E+03  0.35548512688E+03  0.12800195628E+04  0.80000000000E+03 0.  0.
<mgrwt>
<rscale>  0 0.26660344E+04</rscale>
<asrwt>0</asrwt>
<pdfrwt beam="2">  1        1 0.23168187E+00 0.26660344E+04</pdfrwt>
<pdfrwt beam="1">  1       -1 0.18153182E+00 0.26660344E+04</pdfrwt>
<totfact> 0.11514862E+00</totfact>
</mgrwt>
</event>
<event>
 4    1  0.7144937E-008  0.2181385E+04  0.7816531E-02  0.8526216E-01
          2   -1    0    0  501    0  0.00000000000E+00  0.00000000000E+00  0.11565523572E+04  0.11565523572E+04  0.00000000000E+00 0.  1.
         -2   -1    0    0    0  501 -0.00000000000E+00 -0.00000000000E+00 -0.10285831487E+04  0.10285831487E+04  0.00000000000E+00 0. -1.
    2000013    1    1    2    0    0  0.13450915667E+03 -0.61208854091E+03 -0.33275841045E+03  0.10693330888E+04  0.80000000000E+03 0.  0.
   -2000013    1    1    2    0    0 -0.13450915667E+03  0.61208854091E+03  0.46072761893E+03  0.11158024171E+04  0.80000000000E+03 0.  0.
<mgrwt>
<rscale>  0 0.21813851E+04</rscale>
<asrwt>0</asrwt>
<pdfrwt beam="1">  1        2 0.17793113E+00 0.21813851E+04</pdfrwt>
<pdfrwt beam="2">  1       -2 0.15824356E+00 0.21813851E+04</pdfrwt>
<totfact> 0.47804186E+00</totfact>
</mgrwt>
</event>
<event>
 4    1  0.7144937E-008  0.2107144E+04  0.7816531E-02  0.8558103E-01
         -1   -1    0    0    0  501 -0.00000000000E+00  0.00000000000E+00  0.80556730077E+03  0.80556730077E+03  0.00000000000E+00 0. -1.
          1   -1    0    0  501    0  0.00000000000E+00 -0.00000000000E+00 -0.13779279416E+04  0.13779279416E+04  0.00000000000E+00 0.  1.
    2000013    1    1    2    0    0 -0.15041350964E+03  0.34836915921E+03 -0.87785883746E+03  0.12468445907E+04  0.80000000000E+03 0.  0.
   -2000013    1    1    2    0    0  0.15041350964E+03 -0.34836915921E+03  0.30549819666E+03  0.93665065160E+03  0.80000000000E+03 0.  0.
<mgrwt>
<rscale>  0 0.21071437E+04</rscale>
<asrwt>0</asrwt>
<pdfrwt beam="2">  1        1 0.21198891E+00 0.21071437E+04</pdfrwt>
<pdfrwt beam="1">  1       -1 0.12393343E+00 0.21071437E+04</pdfrwt>
<totfact> 0.41842360E+00</totfact>
</mgrwt>
</event>
<event>
 4    1  0.7144937E-008  0.1845891E+04  0.7816531E-02  0.8682269E-01
         -2   -1    0    0    0  501 -0.00000000000E+00  0.00000000000E+00  0.39598039285E+04  0.39598039285E+04  0.00000000000E+00 0.  1.
          2   -1    0    0  501    0  0.00000000000E+00 -0.00000000000E+00 -0.21511871548E+03  0.21511871548E+03  0.00000000000E+00 0. -1.
    2000013    1    1    2    0    0 -0.43506315299E+03 -0.12296144051E+03  0.20672786894E+04  0.22623086974E+04  0.80000000000E+03 0.  0.
   -2000013    1    1    2    0    0  0.43506315299E+03  0.12296144051E+03  0.16774065236E+04  0.19126139465E+04  0.80000000000E+03 0.  0.
<mgrwt>
<rscale>  0 0.18458905E+04</rscale>
<asrwt>0</asrwt>
<pdfrwt beam="2">  1        2 0.33095190E-01 0.18458905E+04</pdfrwt>
<pdfrwt beam="1">  1       -2 0.60920055E+00 0.18458905E+04</pdfrwt>
<totfact> 0.68599160E-02</totfact>
</mgrwt>
</event>
<event>
 4    1  0.7144937E-008  0.2377297E+04  0.7816531E-02  0.8448052E-01
          1   -1    0    0  501    0  0.00000000000E+00  0.00000000000E+00  0.11935617982E+04  0.11935617982E+04  0.00000000000E+00 0. -1.
         -1   -1    0    0    0  501 -0.00000000000E+00 -0.00000000000E+00 -0.11837557484E+04  0.11837557484E+04  0.00000000000E+00 0.  1.
    2000013    1    1    2    0    0 -0.35815464974E+03  0.80281827077E+03 -0.47774833530E+01  0.11886188428E+04  0.80000000000E+03 0.  0.
   -2000013    1    1    2    0    0  0.35815464974E+03 -0.80281827077E+03  0.14583533197E+02  0.11886987038E+04  0.80000000000E+03 0.  0.
<mgrwt>
<rscale>  0 0.23772973E+04</rscale>
<asrwt>0</asrwt>
<pdfrwt beam="1">  1        1 0.18362489E+00 0.23772973E+04</pdfrwt>
<pdfrwt beam="2">  1       -1 0.18211627E+00 0.23772973E+04</pdfrwt>
<totfact> 0.19492841E+00</totfact>
</mgrwt>
</event>
<event>
 4    1  0.7144937E-008  0.2534562E+04  0.7816531E-02  0.8390775E-01
         -2   -1    0    0    0  501 -0.00000000000E+00  0.00000000000E+00  0.60470585384E+03  0.60470585384E+03  0.00000000000E+00 0. -1.
          2   -1    0    0  501    0  0.00000000000E+00 -0.00000000000E+00 -0.26558381249E+04  0.26558381249E+04  0.00000000000E+00 0.  1.
    2000013    1    1    2    0    0 -0.83697542914E+03  0.42196788371E+03 -0.14059156675E+04  0.18695410207E+04  0.80000000000E+03 0.  0.
   -2000013    1    1    2    0    0  0.83697542914E+03 -0.42196788371E+03 -0.64521660358E+03  0.13910029581E+04  0.80000000000E+03 0.  0.
<mgrwt>
<rscale>  0 0.25345618E+04</rscale>
<asrwt>0</asrwt>
<pdfrwt beam="2">  1        2 0.40859048E+00 0.25345618E+04</pdfrwt>
<pdfrwt beam="1">  1       -2 0.93031670E-01 0.25345618E+04</pdfrwt>
<totfact> 0.24548470E+00</totfact>
</mgrwt>
</event>
<event>
 4    1  0.7144937E-008  0.1971247E+04  0.7816531E-02  0.8620183E-01
          2   -1    0    0  501    0  0.00000000000E+00  0.00000000000E+00  0.47633451005E+03  0.47633451005E+03  0.00000000000E+00 0.  1.
         -2   -1    0    0    0  501 -0.00000000000E+00 -0.00000000000E+00 -0.20394357944E+04  0.20394357944E+04  0.00000000000E+00 0. -1.
    2000013    1    1    2    0    0  0.25858866431E+03 -0.23305796148E+02 -0.14373436446E+04  0.16653432109E+04  0.80000000000E+03 0.  0.
   -2000013    1    1    2    0    0 -0.25858866431E+03  0.23305796148E+02 -0.12575763972E+03  0.85042709352E+03  0.80000000000E+03 0.  0.
<mgrwt>
<rscale>  0 0.19712470E+04</rscale>
<asrwt>0</asrwt>
<pdfrwt beam="1">  1        2 0.73282231E-01 0.19712470E+04</pdfrwt>
<pdfrwt beam="2">  1       -2 0.31375936E+00 0.19712470E+04</pdfrwt>
<totfact> 0.15895820E+00</totfact>
</mgrwt>
</event>
<event>
 4    1  0.7144937E-008  0.1997426E+04  0.7816531E-02  0.8607825E-01
         -1   -1    0    0    0  501 -0.00000000000E+00  0.00000000000E+00  0.87709277309E+03  0.87709277309E+03  0.00000000000E+00 0. -1.
          1   -1    0    0  501    0  0.00000000000E+00 -0.00000000000E+00 -0.11371976573E+04  0.11371976573E+04  0.00000000000E+00 0.  1.
    2000013    1    1    2    0    0  0.58962611720E+03 -0.61124289441E+02 -0.20837873481E+03  0.10172594723E+04  0.80000000000E+03 0.  0.
   -2000013    1    1    2    0    0 -0.58962611720E+03  0.61124289441E+02 -0.51726149380E+02  0.99703095808E+03  0.80000000000E+03 0.  0.
<mgrwt>
<rscale>  0 0.19974262E+04</rscale>
<asrwt>0</asrwt>
<pdfrwt beam="2">  1        1 0.17495349E+00 0.19974262E+04</pdfrwt>
<pdfrwt beam="1">  1       -1 0.13493735E+00 0.19974262E+04</pdfrwt>
<totfact> 0.50885599E+00</totfact>
</mgrwt>
</event>
<event>
 4    1  0.7144937E-008  0.2462594E+04  0.7816531E-02  0.8416434E-01
         -2   -1    0    0    0  501 -0.00000000000E+00  0.00000000000E+00  0.86075135772E+03  0.86075135772E+03  0.00000000000E+00 0. -1.
          2   -1    0    0  501    0  0.00000000000E+00 -0.00000000000E+00 -0.17613598195E+04  0.17613598195E+04  0.00000000000E+00 0.  1.
    2000013    1    1    2    0    0 -0.57428295827E+03  0.26184408453E+03  0.28564742679E+03  0.10582805361E+04  0.80000000000E+03 0.  0.
   -2000013    1    1    2    0    0  0.57428295827E+03 -0.26184408453E+03 -0.11862558885E+04  0.15638306410E+04  0.80000000000E+03 0.  0.
<mgrwt>
<rscale>  0 0.24625944E+04</rscale>
<asrwt>0</asrwt>
<pdfrwt beam="2">  1        2 0.27097843E+00 0.24625944E+04</pdfrwt>
<pdfrwt beam="1">  1       -2 0.13242329E+00 0.24625944E+04</pdfrwt>
<totfact> 0.33614196E+00</totfact>
</mgrwt>
</event>
<event>
 4    1  0.7144937E-008  0.1980454E+04  0.7816531E-02  0.8615814E-01
          2   -1    0    0  501    0  0.00000000000E+00  0.00000000000E+00  0.67771293868E+03  0.67771293868E+03  0.00000000000E+00 0.  1.
         -2   -1    0    0    0  501 -0.00000000000E+00 -0.00000000000E+00 -0.14468515222E+04  0.14468515222E+04  0.00000000000E+00 0. -1.
    2000013    1    1    2    0    0 -0.44137124218E+03 -0.60537229765E+02  0.19789067918E+02  0.91589570193E+03  0.80000000000E+03 0.  0.
   -2000013    1    1    2    0    0  0.44137124218E+03  0.60537229765E+02 -0.78892765140E+03  0.12086687589E+04  0.80000000000E+03 0.  0.
<mgrwt>
<rscale>  0 0.19804545E+04</rscale>
<asrwt>0</asrwt>
<pdfrwt beam="1">  1        2 0.10426353E+00 0.19804545E+04</pdfrwt>
<pdfrwt beam="2">  1       -2 0.22259254E+00 0.19804545E+04</pdfrwt>
<totfact> 0.37777849E+00</totfact>
</mgrwt>
</event>
<event>
 4    1  0.7144937E-008  0.4201693E+04  0.7816531E-02  0.7965050E-01
         -2   -1    0    0    0  501 -0.00000000000E+00  0.00000000000E+00  0.26093030511E+04  0.26093030511E+04  0.00000000000E+00 0.  1.
          2   -1    0    0  501    0  0.00000000000E+00 -0.00000000000E+00 -0.16914689422E+04  0.16914689422E+04  0.00000000000E+00 0. -1.
    2000013    1    1    2    0    0 -0.16133730504E+04 -0.10776557640E+04  0.36052262744E+03  0.21293874965E+04  0.80000000000E+03 0.  0.
   -2000013    1    1    2    0    0  0.16133730504E+04  0.10776557640E+04  0.55731148150E+03  0.21713844968E+04  0.80000000000E+03 0.  0.
<mgrwt>
<rscale>  0 0.42016926E+04</rscale>
<asrwt>0</asrwt>
<pdfrwt beam="2">  1        2 0.26022599E+00 0.42016926E+04</pdfrwt>
<pdfrwt beam="1">  1       -2 0.40143124E+00 0.42016926E+04</pdfrwt>
<totfact> 0.55886065E-02</totfact>
</mgrwt>
</event>
<event>
 4    1  0.7144937E-008  0.1951098E+04  0.7816531E-02  0.8629832E-01
          2   -1    0    0  501    0  0.00000000000E+00  0.00000000000E+00  0.16248409681E+04  0.16248409681E+04  0.00000000000E+00 0.  1.
         -2   -1    0    0    0  501 -0.00000000000E+00 -0.00000000000E+00 -0.58571627081E+03  0.58571627081E+03  0.00000000000E+00 0. -1.
    2000013    1    1    2    0    0  0.42362723870E+03 -0.28663411080E+03  0.26602596451E+03  0.98609784740E+03  0.80000000000E+03 0.  0.
   -2000013    1    1    2    0    0 -0.42362723870E+03  0.28663411080E+03  0.77309873276E+03  0.12244593915E+04  0.80000000000E+03 0.  0.
<mgrwt>
<rscale>  0 0.19510979E+04</rscale>
<asrwt>0</asrwt>
<pdfrwt beam="1">  1        2 0.24997553E+00 0.19510979E+04</pdfrwt>
<pdfrwt beam="2">  1       -2 0.90110196E-01 0.19510979E+04</pdfrwt>
<totfact> 0.10616575E+01</totfact>
</mgrwt>
</event>
<event>
 4    1  0.7144937E-008  0.1792400E+04  0.7816531E-02  0.8710351E-01
          2   -1    0    0  501    0  0.00000000000E+00  0.00000000000E+00  0.70675771140E+03  0.70675771140E+03  0.00000000000E+00 0.  1.
         -2   -1    0    0    0  501 -0.00000000000E+00 -0.00000000000E+00 -0.11364218007E+04  0.11364218007E+04  0.00000000000E+00 0. -1.
    2000013    1    1    2    0    0 -0.87046867410E+02 -0.39416039728E+03 -0.19905814458E+03  0.91791269783E+03  0.80000000000E+03 0.  0.
   -2000013    1    1    2    0    0  0.87046867410E+02  0.39416039728E+03 -0.23060594477E+03  0.92526681432E+03  0.80000000000E+03 0.  0.
<mgrwt>
<rscale>  0 0.17924005E+04</rscale>
<asrwt>0</asrwt>
<pdfrwt beam="1">  1        2 0.10873196E+00 0.17924005E+04</pdfrwt>
<pdfrwt beam="2">  1       -2 0.17483412E+00 0.17924005E+04</pdfrwt>
<totfact> 0.75273249E+00</totfact>
</mgrwt>
</event>
<event>
 4    1  0.7144937E-008  0.2279476E+04  0.7816531E-02  0.8486058E-01
         -2   -1    0    0    0  501 -0.00000000000E+00  0.00000000000E+00  0.40789994300E+03  0.40789994300E+03  0.00000000000E+00 0. -1.
          2   -1    0    0  501    0  0.00000000000E+00 -0.00000000000E+00 -0.31846115300E+04  0.31846115300E+04  0.00000000000E+00 0.  1.
    2000013    1    1    2    0    0  0.34645014183E+03  0.70886092618E+03 -0.10872923199E+04  0.15635587940E+04  0.80000000000E+03 0.  0.
   -2000013    1    1    2    0    0 -0.34645014183E+03 -0.70886092618E+03 -0.16894192671E+04  0.20289526790E+04  0.80000000000E+03 0.  0.
<mgrwt>
<rscale>  0 0.22794761E+04</rscale>
<asrwt>0</asrwt>
<pdfrwt beam="2">  1        2 0.48994024E+00 0.22794761E+04</pdfrwt>
<pdfrwt beam="1">  1       -2 0.62753836E-01 0.22794761E+04</pdfrwt>
<totfact> 0.28413473E+00</totfact>
</mgrwt>
</event>
<event>
 4    1  0.7144937E-008  0.2073783E+04  0.7816531E-02  0.8572881E-01
          2   -1    0    0  501    0  0.00000000000E+00  0.00000000000E+00  0.78280349407E+03  0.78280349407E+03  0.00000000000E+00 0.  1.
         -2   -1    0    0    0  501 -0.00000000000E+00 -0.00000000000E+00 -0.13734534093E+04  0.13734534093E+04  0.00000000000E+00 0. -1.
    2000013    1    1    2    0    0  0.15113311658E+03  0.61934696938E+03 -0.47151067687E+03  0.11263898996E+04  0.80000000000E+03 0.  0.
   -2000013    1    1    2    0    0 -0.15113311658E+03 -0.61934696938E+03 -0.11913923835E+03  0.10298670038E+04  0.80000000000E+03 0.  0.
<mgrwt>
<rscale>  0 0.20737831E+04</rscale>
<asrwt>0</asrwt>
<pdfrwt beam="1">  1        2 0.12043131E+00 0.20737831E+04</pdfrwt>
<pdfrwt beam="2">  1       -2 0.21130052E+00 0.20737831E+04</pdfrwt>
<totfact> 0.36759403E+00</totfact>
</mgrwt>
</event>
<event>
 4    1  0.7144937E-008  0.2005983E+04  0.7816531E-02  0.8603829E-01
          2   -1    0    0  501    0  0.00000000000E+00  0.00000000000E+00  0.21298725612E+04  0.21298725612E+04  0.00000000000E+00 0.  1.
         -2   -1    0    0    0  501 -0.00000000000E+00 -0.00000000000E+00 -0.47232489250E+03  0.47232489250E+03  0.00000000000E+00 0. -1.
    2000013    1    1    2    0    0 -0.48645996280E+03  0.29799932185E+03  0.56756892102E+03  0.11347164277E+04  0.80000000000E+03 0.  0.
   -2000013    1    1    2    0    0  0.48645996280E+03 -0.29799932185E+03  0.10899787477E+04  0.14674810260E+04  0.80000000000E+03 0.  0.
<mgrwt>
<rscale>  0 0.20059829E+04</rscale>
<asrwt>0</asrwt>
<pdfrwt beam="1">  1        2 0.32767270E+00 0.20059829E+04</pdfrwt>
<pdfrwt beam="2">  1       -2 0.72665369E-01 0.20059829E+04</pdfrwt>
<totfact> 0.89908545E+00</totfact>
</mgrwt>
</event>
<event>
 4    1  0.7144937E-008  0.2162883E+04  0.7816531E-02  0.8534038E-01
         -2   -1    0    0    0  501 -0.00000000000E+00  0.00000000000E+00  0.84966341566E+03  0.84966341566E+03  0.00000000000E+00 0. -1.
          2   -1    0    0  501    0  0.00000000000E+00 -0.00000000000E+00 -0.13764454234E+04  0.13764454234E+04  0.00000000000E+00 0.  1.
    2000013    1    1    2    0    0  0.72399144261E+03 -0.65643819996E+02 -0.23015779528E+03  0.11051901786E+04  0.80000000000E+03 0.  0.
   -2000013    1    1    2    0    0 -0.72399144261E+03  0.65643819996E+02 -0.29662421250E+03  0.11209186605E+04  0.80000000000E+03 0.  0.
<mgrwt>
<rscale>  0 0.21628826E+04</rscale>
<asrwt>0</asrwt>
<pdfrwt beam="2">  1        2 0.21176083E+00 0.21628826E+04</pdfrwt>
<pdfrwt beam="1">  1       -2 0.13071745E+00 0.21628826E+04</pdfrwt>
<totfact> 0.58628254E+00</totfact>
</mgrwt>
</event>
<event>
 4    1  0.7144937E-008  0.2766431E+04  0.7816531E-02  0.8313767E-01
          2   -1    0    0  501    0  0.00000000000E+00  0.00000000000E+00  0.90724830094E+03  0.90724830094E+03  0.00000000000E+00 0.  1.
         -2   -1    0    0    0  501 -0.00000000000E+00 -0.00000000000E+00 -0.21088873811E+04  0.21088873811E+04  0.00000000000E+00 0. -1.
    2000013    1    1    2    0    0  0.10086327924E+04 -0.25237832792E+03 -0.12278003982E+03  0.13176152202E+04  0.80000000000E+03 0.  0.
   -2000013    1    1    2    0    0 -0.10086327924E+04  0.25237832792E+03 -0.10788590403E+04  0.16985204618E+04  0.80000000000E+03 0.  0.
<mgrwt>
<rscale>  0 0.27664305E+04</rscale>
<asrwt>0</asrwt>
<pdfrwt beam="1">  1        2 0.13957666E+00 0.27664305E+04</pdfrwt>
<pdfrwt beam="2">  1       -2 0.32444421E+00 0.27664305E+04</pdfrwt>
<totfact> 0.56855813E-01</totfact>
</mgrwt>
</event>
<event>
 4    1  0.7144937E-008  0.2197974E+04  0.7816531E-02  0.8519272E-01
          2   -1    0    0  501    0  0.00000000000E+00  0.00000000000E+00  0.12662403093E+04  0.12662403093E+04  0.00000000000E+00 0.  1.
         -2   -1    0    0    0  501 -0.00000000000E+00 -0.00000000000E+00 -0.95382592587E+03  0.95382592587E+03  0.00000000000E+00 0. -1.
    2000013    1    1    2    0    0 -0.23573179032E+03 -0.56914442408E+03  0.59447853592E+03  0.11717079765E+04  0.80000000000E+03 0.  0.
   -2000013    1    1    2    0    0  0.23573179032E+03  0.56914442408E+03 -0.28206415251E+03  0.10483582587E+04  0.80000000000E+03 0.  0.
<mgrwt>
<rscale>  0 0.21979744E+04</rscale>
<asrwt>0</asrwt>
<pdfrwt beam="1">  1        2 0.19480620E+00 0.21979744E+04</pdfrwt>
<pdfrwt beam="2">  1       -2 0.14674245E+00 0.21979744E+04</pdfrwt>
<totfact> 0.50232220E+00</totfact>
</mgrwt>
</event>
<event>
 4    1  0.7144937E-008  0.2025215E+04  0.7816531E-02  0.8594922E-01
         -2   -1    0    0    0  501 -0.00000000000E+00  0.00000000000E+00  0.87584905599E+03  0.87584905599E+03  0.00000000000E+00 0.  1.
          2   -1    0    0  501    0  0.00000000000E+00 -0.00000000000E+00 -0.11707195084E+04  0.11707195084E+04  0.00000000000E+00 0. -1.
    2000013    1    1    2    0    0  0.27708823900E+03 -0.51733929597E+03  0.57073863082E+02  0.99381852729E+03  0.80000000000E+03 0.  0.
   -2000013    1    1    2    0    0 -0.27708823900E+03  0.51733929597E+03 -0.35194431545E+03  0.10527500371E+04  0.80000000000E+03 0.  0.
<mgrwt>
<rscale>  0 0.20252146E+04</rscale>
<asrwt>0</asrwt>
<pdfrwt beam="2">  1        2 0.18011069E+00 0.20252146E+04</pdfrwt>
<pdfrwt beam="1">  1       -2 0.13474601E+00 0.20252146E+04</pdfrwt>
<totfact> 0.72503425E+00</totfact>
</mgrwt>
</event>
<event>
 4    1  0.7144937E-008  0.2230212E+04  0.7816531E-02  0.8505957E-01
         -2   -1    0    0    0  501 -0.00000000000E+00  0.00000000000E+00  0.44653328221E+03  0.44653328221E+03  0.00000000000E+00 0. -1.
          2   -1    0    0  501    0  0.00000000000E+00 -0.00000000000E+00 -0.27847012531E+04  0.27847012531E+04  0.00000000000E+00 0.  1.
    2000013    1    1    2    0    0  0.55042710743E+03  0.34188136142E+03 -0.17899089286E+04  0.20648551616E+04  0.80000000000E+03 0.  0.
   -2000013    1    1    2    0    0 -0.55042710743E+03 -0.34188136142E+03 -0.54825904232E+03  0.11663793737E+04  0.80000000000E+03 0.  0.
<mgrwt>
<rscale>  0 0.22302124E+04</rscale>
<asrwt>0</asrwt>
<pdfrwt beam="2">  1        2 0.42841557E+00 0.22302124E+04</pdfrwt>
<pdfrwt beam="1">  1       -2 0.68697429E-01 0.22302124E+04</pdfrwt>
<totfact> 0.41734532E+00</totfact>
</mgrwt>
</event>
<event>
 4    1  0.7144937E-008  0.1824841E+04  0.7816531E-02  0.8693200E-01
          1   -1    0    0  501    0  0.00000000000E+00  0.00000000000E+00  0.39942015865E+04  0.39942015865E+04  0.00000000000E+00 0. -1.
         -1   -1    0    0    0  501 -0.00000000000E+00 -0.00000000000E+00 -0.20842982113E+03  0.20842982113E+03  0.00000000000E+00 0.  1.
    2000013    1    1    2    0    0  0.35840544044E+03  0.23986820449E+03  0.17069326362E+04  0.19338071879E+04  0.80000000000E+03 0.  0.
   -2000013    1    1    2    0    0 -0.35840544044E+03 -0.23986820449E+03  0.20788391292E+04  0.22688242198E+04  0.80000000000E+03 0.  0.
<mgrwt>
<rscale>  0 0.18248405E+04</rscale>
<asrwt>0</asrwt>
<pdfrwt beam="1">  1        1 0.61449250E+00 0.18248405E+04</pdfrwt>
<pdfrwt beam="2">  1       -1 0.32066129E-01 0.18248405E+04</pdfrwt>
<totfact> 0.83854253E-01</totfact>
</mgrwt>
</event>
<event>
 4    1  0.7144937E-008  0.2073457E+04  0.7816531E-02  0.8573027E-01
         -2   -1    0    0    0  501 -0.00000000000E+00  0.00000000000E+00  0.51384667279E+03  0.51384667279E+03  0.00000000000E+00 0. -1.
          2   -1    0    0  501    0  0.00000000000E+00 -0.00000000000E+00 -0.20916864728E+04  0.20916864728E+04  0.00000000000E+00 0.  1.
    2000013    1    1    2    0    0  0.58940117595E+03  0.52184015752E+01 -0.11603870150E+04  0.15277169248E+04  0.80000000000E+03 0.  0.
   -2000013    1    1    2    0    0 -0.58940117595E+03 -0.52184015752E+01 -0.41745278498E+03  0.10778162207E+04  0.80000000000E+03 0.  0.
<mgrwt>
<rscale>  0 0.20734571E+04</rscale>
<asrwt>0</asrwt>
<pdfrwt beam="2">  1        2 0.32179792E+00 0.20734571E+04</pdfrwt>
<pdfrwt beam="1">  1       -2 0.79053335E-01 0.20734571E+04</pdfrwt>
<totfact> 0.77869046E+00</totfact>
</mgrwt>
</event>
<event>
 4    1  0.7144937E-008  0.2150908E+04  0.7816531E-02  0.8539144E-01
         -2   -1    0    0    0  501 -0.00000000000E+00  0.00000000000E+00  0.48660111431E+03  0.48660111431E+03  0.00000000000E+00 0. -1.
          2   -1    0    0  501    0  0.00000000000E+00 -0.00000000000E+00 -0.23768975218E+04  0.23768975218E+04  0.00000000000E+00 0.  1.
    2000013    1    1    2    0    0  0.42464422223E+03 -0.22931514556E+03 -0.23606142596E+03  0.96365613591E+03  0.80000000000E+03 0.  0.
   -2000013    1    1    2    0    0 -0.42464422223E+03  0.22931514556E+03 -0.16542349815E+04  0.18998425002E+04  0.80000000000E+03 0.  0.
<mgrwt>
<rscale>  0 0.21509077E+04</rscale>
<asrwt>0</asrwt>
<pdfrwt beam="2">  1        2 0.36567654E+00 0.21509077E+04</pdfrwt>
<pdfrwt beam="1">  1       -2 0.74861711E-01 0.21509077E+04</pdfrwt>
<totfact> 0.60309140E+00</totfact>
</mgrwt>
</event>
<event>
 4    1  0.7144937E-008  0.1875664E+04  0.7816531E-02  0.8667066E-01
         -2   -1    0    0    0  501 -0.00000000000E+00  0.00000000000E+00  0.57315724103E+03  0.57315724103E+03  0.00000000000E+00 0. -1.
          2   -1    0    0  501    0  0.00000000000E+00 -0.00000000000E+00 -0.15345330330E+04  0.15345330330E+04  0.00000000000E+00 0.  1.
    2000013    1    1    2    0    0 -0.19718328075E+03 -0.44475502864E+03 -0.54057653171E+03  0.10811619991E+04  0.80000000000E+03 0.  0.
   -2000013    1    1    2    0    0  0.19718328075E+03  0.44475502864E+03 -0.42079926021E+03  0.10265282749E+04  0.80000000000E+03 0.  0.
<mgrwt>
<rscale>  0 0.18756638E+04</rscale>
<asrwt>0</asrwt>
<pdfrwt beam="2">  1        2 0.23608200E+00 0.18756638E+04</pdfrwt>
<pdfrwt beam="1">  1       -2 0.88178038E-01 0.18756638E+04</pdfrwt>
<totfact> 0.12617274E+01</totfact>
</mgrwt>
</event>
<event>
 4    1  0.7144937E-008  0.2208749E+04  0.7816531E-02  0.8514796E-01
          2   -1    0    0  501    0  0.00000000000E+00  0.00000000000E+00  0.88379606976E+03  0.88379606976E+03  0.00000000000E+00 0.  1.
         -2   -1    0    0    0  501 -0.00000000000E+00 -0.00000000000E+00 -0.13800046551E+04  0.13800046551E+04  0.00000000000E+00 0. -1.
    2000013    1    1    2    0    0  0.70617191735E+03 -0.28425499779E+03 -0.26119004738E+03  0.11347686643E+04  0.80000000000E+03 0.  0.
   -2000013    1    1    2    0    0 -0.70617191735E+03  0.28425499779E+03 -0.23501853798E+03  0.11290320606E+04  0.80000000000E+03 0.  0.
<mgrwt>
<rscale>  0 0.22087487E+04</rscale>
<asrwt>0</asrwt>
<pdfrwt beam="1">  1        2 0.13596863E+00 0.22087487E+04</pdfrwt>
<pdfrwt beam="2">  1       -2 0.21230841E+00 0.22087487E+04</pdfrwt>
<totfact> 0.30388655E+00</totfact>
</mgrwt>
</event>
<event>
 4    1  0.7144937E-008  0.2702332E+04  0.7816531E-02  0.8334249E-01
         -2   -1    0    0    0  501 -0.00000000000E+00  0.00000000000E+00  0.13508572117E+04  0.13508572117E+04  0.00000000000E+00 0. -1.
          2   -1    0    0  501    0  0.00000000000E+00 -0.00000000000E+00 -0.13514746553E+04  0.13514746553E+04  0.00000000000E+00 0.  1.
    2000013    1    1    2    0    0 -0.11677226802E+00 -0.10866151118E+04  0.69811674839E+02  0.13511499120E+04  0.80000000000E+03 0.  0.
   -2000013    1    1    2    0    0  0.11677226802E+00  0.10866151118E+04 -0.70429118376E+02  0.13511819550E+04  0.80000000000E+03 0.  0.
<mgrwt>
<rscale>  0 0.27023318E+04</rscale>
<asrwt>0</asrwt>
<pdfrwt beam="2">  1        2 0.20791918E+00 0.27023318E+04</pdfrwt>
<pdfrwt beam="1">  1       -2 0.20782419E+00 0.27023318E+04</pdfrwt>
<totfact> 0.16009251E+00</totfact>
</mgrwt>
</event>
<event>
 4    1  0.7144937E-008  0.1787696E+04  0.7816531E-02  0.8712870E-01
         -2   -1    0    0    0  501 -0.00000000000E+00  0.00000000000E+00  0.46966011530E+03  0.46966011530E+03  0.00000000000E+00 0. -1.
          2   -1    0    0  501    0  0.00000000000E+00 -0.00000000000E+00 -0.17011538822E+04  0.17011538822E+04  0.00000000000E+00 0.  1.
    2000013    1    1    2    0    0 -0.34558741019E+03 -0.19850347774E+03 -0.62958358987E+03  0.10932565048E+04  0.80000000000E+03 0.  0.
   -2000013    1    1    2    0    0  0.34558741019E+03  0.19850347774E+03 -0.60191017702E+03  0.10775574926E+04  0.80000000000E+03 0.  0.
<mgrwt>
<rscale>  0 0.17876959E+04</rscale>
<asrwt>0</asrwt>
<pdfrwt beam="2">  1        2 0.26171598E+00 0.17876959E+04</pdfrwt>
<pdfrwt beam="1">  1       -2 0.72255403E-01 0.17876959E+04</pdfrwt>
<totfact> 0.16044222E+01</totfact>
</mgrwt>
</event>
<event>
 4    1  0.7144937E-008  0.2072920E+04  0.7816531E-02  0.8573267E-01
          2   -1    0    0  501    0  0.00000000000E+00  0.00000000000E+00  0.72371516793E+03  0.72371516793E+03  0.00000000000E+00 0.  1.
         -2   -1    0    0    0  501 -0.00000000000E+00 -0.00000000000E+00 -0.14843536175E+04  0.14843536175E+04  0.00000000000E+00 0. -1.
    2000013    1    1    2    0    0 -0.51848513406E+03 -0.39845006506E+03 -0.46724832872E+03  0.11339798452E+04  0.80000000000E+03 0.  0.
   -2000013    1    1    2    0    0  0.51848513406E+03  0.39845006506E+03 -0.29339012087E+03  0.10740889403E+04  0.80000000000E+03 0.  0.
<mgrwt>
<rscale>  0 0.20729199E+04</rscale>
<asrwt>0</asrwt>
<pdfrwt beam="1">  1        2 0.11134080E+00 0.20729199E+04</pdfrwt>
<pdfrwt beam="2">  1       -2 0.22836209E+00 0.20729199E+04</pdfrwt>
<totfact> 0.31736093E+00</totfact>
</mgrwt>
</event>
<event>
 4    1  0.7144937E-008  0.1682505E+04  0.7816531E-02  0.8771406E-01
         -2   -1    0    0    0  501 -0.00000000000E+00  0.00000000000E+00  0.55087121919E+03  0.55087121919E+03  0.00000000000E+00 0. -1.
          2   -1    0    0  501    0  0.00000000000E+00 -0.00000000000E+00 -0.12847029062E+04  0.12847029062E+04  0.00000000000E+00 0.  1.
    2000013    1    1    2    0    0  0.51020950759E+02 -0.25475675406E+03 -0.35142108867E+03  0.91159252011E+03  0.80000000000E+03 0.  0.
   -2000013    1    1    2    0    0 -0.51020950759E+02  0.25475675406E+03 -0.38241059833E+03  0.92398160526E+03  0.80000000000E+03 0.  0.
<mgrwt>
<rscale>  0 0.16825051E+04</rscale>
<asrwt>0</asrwt>
<pdfrwt beam="2">  1        2 0.19764660E+00 0.16825051E+04</pdfrwt>
<pdfrwt beam="1">  1       -2 0.84749419E-01 0.16825051E+04</pdfrwt>
<totfact> 0.19507623E+01</totfact>
</mgrwt>
</event>
<event>
 4    1  0.7144937E-008  0.2195538E+04  0.7816531E-02  0.8520288E-01
         -2   -1    0    0    0  501 -0.00000000000E+00  0.00000000000E+00  0.53493852448E+03  0.53493852448E+03  0.00000000000E+00 0. -1.
          2   -1    0    0  501    0  0.00000000000E+00 -0.00000000000E+00 -0.22527754014E+04  0.22527754014E+04  0.00000000000E+00 0.  1.
    2000013    1    1    2    0    0 -0.73360299291E+03 -0.94270044081E+02 -0.68839686775E+03  0.12887786621E+04  0.80000000000E+03 0.  0.
   -2000013    1    1    2    0    0  0.73360299291E+03  0.94270044081E+02 -0.10294400092E+04  0.14989352637E+04  0.80000000000E+03 0.  0.
<mgrwt>
<rscale>  0 0.21955376E+04</rscale>
<asrwt>0</asrwt>
<pdfrwt beam="2">  1        2 0.34658084E+00 0.21955376E+04</pdfrwt>
<pdfrwt beam="1">  1       -2 0.82298234E-01 0.21955376E+04</pdfrwt>
<totfact> 0.57161705E+00</totfact>
</mgrwt>
</event>
<event>
 4    1  0.7144937E-008  0.2162896E+04  0.7816531E-02  0.8534032E-01
         -2   -1    0    0    0  501 -0.00000000000E+00  0.00000000000E+00  0.66621673057E+03  0.66621673057E+03  0.00000000000E+00 0. -1.
          2   -1    0    0  501    0  0.00000000000E+00 -0.00000000000E+00 -0.17554800251E+04  0.17554800251E+04  0.00000000000E+00 0.  1.
    2000013    1    1    2    0    0  0.48271470955E+03 -0.25697935369E+03 -0.10821571284E+04  0.14526238087E+04  0.80000000000E+03 0.  0.
   -2000013    1    1    2    0    0 -0.48271470955E+03  0.25697935369E+03 -0.71061661763E+01  0.96907294702E+03  0.80000000000E+03 0.  0.
<mgrwt>
<rscale>  0 0.21628964E+04</rscale>
<asrwt>0</asrwt>
<pdfrwt beam="2">  1        2 0.27007385E+00 0.21628964E+04</pdfrwt>
<pdfrwt beam="1">  1       -2 0.10249488E+00 0.21628964E+04</pdfrwt>
<totfact> 0.65230428E+00</totfact>
</mgrwt>
</event>
<event>
 4    1  0.7144937E-008  0.2598137E+04  0.7816531E-02  0.8368834E-01
         -2   -1    0    0    0  501 -0.00000000000E+00  0.00000000000E+00  0.29014976726E+04  0.29014976726E+04  0.00000000000E+00 0. -1.
          2   -1    0    0  501    0  0.00000000000E+00 -0.00000000000E+00 -0.58162354965E+03  0.58162354965E+03  0.00000000000E+00 0.  1.
    2000013    1    1    2    0    0 -0.90370051677E+03 -0.40311032597E+03  0.15105728003E+04  0.19750956291E+04  0.80000000000E+03 0.  0.
   -2000013    1    1    2    0    0  0.90370051677E+03  0.40311032597E+03  0.80930132265E+03  0.15080255932E+04  0.80000000000E+03 0.  0.
<mgrwt>
<rscale>  0 0.25981373E+04</rscale>
<asrwt>0</asrwt>
<pdfrwt beam="2">  1        2 0.89480548E-01 0.25981373E+04</pdfrwt>
<pdfrwt beam="1">  1       -2 0.44638425E+00 0.25981373E+04</pdfrwt>
<totfact> 0.16690994E-01</totfact>
</mgrwt>
</event>
<event>
 4    1  0.7144937E-008  0.2530951E+04  0.7816531E-02  0.8392041E-01
         -2   -1    0    0    0  501 -0.00000000000E+00  0.00000000000E+00  0.17859720791E+04  0.17859720791E+04  0.00000000000E+00 0. -1.
          2   -1    0    0  501    0  0.00000000000E+00 -0.00000000000E+00 -0.89667012843E+03  0.89667012843E+03  0.00000000000E+00 0.  1.
    2000013    1    1    2    0    0  0.51443058299E+03  0.65264875597E+03  0.99626378934E+03  0.15241819974E+04  0.80000000000E+03 0.  0.
   -2000013    1    1    2    0    0 -0.51443058299E+03 -0.65264875597E+03 -0.10696183868E+03  0.11584602101E+04  0.80000000000E+03 0.  0.
<mgrwt>
<rscale>  0 0.25309507E+04</rscale>
<asrwt>0</asrwt>
<pdfrwt beam="2">  1        2 0.13794925E+00 0.25309507E+04</pdfrwt>
<pdfrwt beam="1">  1       -2 0.27476493E+00 0.25309507E+04</pdfrwt>
<totfact> 0.11884787E+00</totfact>
</mgrwt>
</event>
<event>
 4    1  0.7144937E-008  0.4022449E+04  0.7816531E-02  0.8000033E-01
         -2   -1    0    0    0  501 -0.00000000000E+00  0.00000000000E+00  0.19951250722E+04  0.19951250722E+04  0.00000000000E+00 0. -1.
          2   -1    0    0  501    0  0.00000000000E+00 -0.00000000000E+00 -0.20274540188E+04  0.20274540188E+04  0.00000000000E+00 0.  1.
    2000013    1    1    2    0    0 -0.32107582630E+03 -0.18143602572E+04 -0.11632516607E+03  0.20120945240E+04  0.80000000000E+03 0.  0.
   -2000013    1    1    2    0    0  0.32107582630E+03  0.18143602572E+04  0.83996219471E+02  0.20104845670E+04  0.80000000000E+03 0.  0.
<mgrwt>
<rscale>  0 0.40224492E+04</rscale>
<asrwt>0</asrwt>
<pdfrwt beam="2">  1        2 0.31191600E+00 0.40224492E+04</pdfrwt>
<pdfrwt beam="1">  1       -2 0.30694232E+00 0.40224492E+04</pdfrwt>
<totfact> 0.14635898E-01</totfact>
</mgrwt>
</event>
<event>
 4    1  0.7144937E-008  0.3411878E+04  0.7816531E-02  0.8134997E-01
          2   -1    0    0  501    0  0.00000000000E+00  0.00000000000E+00  0.14693708549E+04  0.14693708549E+04  0.00000000000E+00 0.  1.
         -2   -1    0    0    0  501 -0.00000000000E+00 -0.00000000000E+00 -0.19805943868E+04  0.19805943868E+04  0.00000000000E+00 0. -1.
    2000013    1    1    2    0    0 -0.13607654033E+04  0.14729651869E+03 -0.89260356743E+03  0.18193734844E+04  0.80000000000E+03 0.  0.
   -2000013    1    1    2    0    0  0.13607654033E+04 -0.14729651869E+03  0.38138003551E+03  0.16305917572E+04  0.80000000000E+03 0.  0.
<mgrwt>
<rscale>  0 0.34118779E+04</rscale>
<asrwt>0</asrwt>
<pdfrwt beam="1">  1        2 0.22605706E+00 0.34118779E+04</pdfrwt>
<pdfrwt beam="2">  1       -2 0.30470683E+00 0.34118779E+04</pdfrwt>
<totfact> 0.32514087E-01</totfact>
</mgrwt>
</event>
<event>
 4    1  0.7144937E-008  0.2500176E+04  0.7816531E-02  0.8402923E-01
          2   -1    0    0  501    0  0.00000000000E+00  0.00000000000E+00  0.20424301254E+04  0.20424301254E+04  0.00000000000E+00 0.  1.
         -2   -1    0    0    0  501 -0.00000000000E+00 -0.00000000000E+00 -0.76512793341E+03  0.76512793341E+03  0.00000000000E+00 0. -1.
    2000013    1    1    2    0    0  0.35145017683E+03  0.88988220647E+03  0.54262281427E+03  0.13600908377E+04  0.80000000000E+03 0.  0.
   -2000013    1    1    2    0    0 -0.35145017683E+03 -0.88988220647E+03  0.73467937771E+03  0.14474672211E+04  0.80000000000E+03 0.  0.
<mgrwt>
<rscale>  0 0.25001763E+04</rscale>
<asrwt>0</asrwt>
<pdfrwt beam="1">  1        2 0.31422002E+00 0.25001763E+04</pdfrwt>
<pdfrwt beam="2">  1       -2 0.11771199E+00 0.25001763E+04</pdfrwt>
<totfact> 0.31427158E+00</totfact>
</mgrwt>
</event>
<event>
 4    1  0.7144937E-008  0.3523698E+04  0.7816531E-02  0.8108197E-01
          3   -1    0    0  501    0  0.00000000000E+00  0.00000000000E+00  0.23453119878E+04  0.23453119878E+04  0.00000000000E+00 0. -1.
         -3   -1    0    0    0  501 -0.00000000000E+00 -0.00000000000E+00 -0.13235389901E+04  0.13235389901E+04  0.00000000000E+00 0.  1.
    2000013    1    1    2    0    0  0.12298685176E+03 -0.15532337323E+04  0.31210016794E+03  0.17790636042E+04  0.80000000000E+03 0.  0.
   -2000013    1    1    2    0    0 -0.12298685176E+03  0.15532337323E+04  0.70967282971E+03  0.18897873738E+04  0.80000000000E+03 0.  0.
<mgrwt>
<rscale>  0 0.35236980E+04</rscale>
<asrwt>0</asrwt>
<pdfrwt beam="1">  1        3 0.36081723E+00 0.35236980E+04</pdfrwt>
<pdfrwt beam="2">  1       -3 0.20362138E+00 0.35236980E+04</pdfrwt>
<totfact> 0.53081443E-03</totfact>
</mgrwt>
</event>
<event>
 4    1  0.7144937E-008  0.2304808E+04  0.7816531E-02  0.8476028E-01
          2   -1    0    0  501    0  0.00000000000E+00  0.00000000000E+00  0.56236722306E+03  0.56236722306E+03  0.00000000000E+00 0.  1.
         -2   -1    0    0    0  501 -0.00000000000E+00 -0.00000000000E+00 -0.23615077574E+04  0.23615077574E+04  0.00000000000E+00 0. -1.
    2000013    1    1    2    0    0  0.17489370032E+03 -0.80787840236E+03 -0.81186946795E+03  0.14079727811E+04  0.80000000000E+03 0.  0.
   -2000013    1    1    2    0    0 -0.17489370032E+03  0.80787840236E+03 -0.98727106642E+03  0.15159021994E+04  0.80000000000E+03 0.  0.
<mgrwt>
<rscale>  0 0.23048076E+04</rscale>
<asrwt>0</asrwt>
<pdfrwt beam="1">  1        2 0.86518036E-01 0.23048076E+04</pdfrwt>
<pdfrwt beam="2">  1       -2 0.36330888E+00 0.23048076E+04</pdfrwt>
<totfact> 0.62316632E-01</totfact>
</mgrwt>
</event>
<event>
 4    1  0.7144937E-008  0.1866321E+04  0.7816531E-02  0.8671805E-01
          2   -1    0    0  501    0  0.00000000000E+00  0.00000000000E+00  0.23009733133E+04  0.23009733133E+04  0.00000000000E+00 0.  1.
         -2   -1    0    0    0  501 -0.00000000000E+00 -0.00000000000E+00 -0.37844341901E+03  0.37844341901E+03  0.00000000000E+00 0. -1.
    2000013    1    1    2    0    0  0.42888310241E+03 -0.58551740784E+01  0.65063865915E+03  0.11168283948E+04  0.80000000000E+03 0.  0.
   -2000013    1    1    2    0    0 -0.42888310241E+03  0.58551740784E+01  0.12718912352E+04  0.15625883376E+04  0.80000000000E+03 0.  0.
<mgrwt>
<rscale>  0 0.18663207E+04</rscale>
<asrwt>0</asrwt>
<pdfrwt beam="1">  1        2 0.35399589E+00 0.18663207E+04</pdfrwt>
<pdfrwt beam="2">  1       -2 0.58222066E-01 0.18663207E+04</pdfrwt>
<totfact> 0.11738788E+01</totfact>
</mgrwt>
</event>
<event>
 4    1  0.7144937E-008  0.2138285E+04  0.7816531E-02  0.8544564E-01
         -2   -1    0    0    0  501 -0.00000000000E+00  0.00000000000E+00  0.52543442537E+03  0.52543442537E+03  0.00000000000E+00 0. -1.
          2   -1    0    0  501    0  0.00000000000E+00 -0.00000000000E+00 -0.21754678677E+04  0.21754678677E+04  0.00000000000E+00 0.  1.
    2000013    1    1    2    0    0 -0.64392197970E+03  0.29724351893E+03 -0.81397015815E+03  0.13437025876E+04  0.80000000000E+03 0.  0.
   -2000013    1    1    2    0    0  0.64392197970E+03 -0.29724351893E+03 -0.83606328423E+03  0.13571997055E+04  0.80000000000E+03 0.  0.
<mgrwt>
<rscale>  0 0.21382850E+04</rscale>
<asrwt>0</asrwt>
<pdfrwt beam="2">  1        2 0.33468737E+00 0.21382850E+04</pdfrwt>
<pdfrwt beam="1">  1       -2 0.80836065E-01 0.21382850E+04</pdfrwt>
<totfact> 0.66117600E+00</totfact>
</mgrwt>
</event>
<event>
 4    1  0.7144937E-008  0.2654255E+04  0.7816531E-02  0.8350002E-01
          1   -1    0    0  501    0  0.00000000000E+00  0.00000000000E+00  0.12686505326E+04  0.12686505326E+04  0.00000000000E+00 0.  1.
         -1   -1    0    0    0  501 -0.00000000000E+00 -0.00000000000E+00 -0.13883004130E+04  0.13883004130E+04  0.00000000000E+00 0. -1.
    2000013    1    1    2    0    0  0.10339805843E+04 -0.14406458397E+03  0.11754869775E+03  0.13204878452E+04  0.80000000000E+03 0.  0.
   -2000013    1    1    2    0    0 -0.10339805843E+04  0.14406458397E+03 -0.23719857811E+03  0.13364631003E+04  0.80000000000E+03 0.  0.
<mgrwt>
<rscale>  0 0.26542555E+04</rscale>
<asrwt>0</asrwt>
<pdfrwt beam="1">  1        1 0.19517701E+00 0.26542555E+04</pdfrwt>
<pdfrwt beam="2">  1       -1 0.21358468E+00 0.26542555E+04</pdfrwt>
<totfact> 0.10152140E+00</totfact>
</mgrwt>
</event>
<event>
 4    1  0.7144937E-008  0.1688298E+04  0.7816531E-02  0.8768066E-01
         -2   -1    0    0    0  501 -0.00000000000E+00  0.00000000000E+00  0.39781235447E+03  0.39781235447E+03  0.00000000000E+00 0. -1.
          2   -1    0    0  501    0  0.00000000000E+00 -0.00000000000E+00 -0.17912662573E+04  0.17912662573E+04  0.00000000000E+00 0.  1.
    2000013    1    1    2    0    0 -0.26404287634E+03  0.22165557614E+02 -0.63349909235E+03  0.10542917303E+04  0.80000000000E+03 0.  0.
   -2000013    1    1    2    0    0  0.26404287634E+03 -0.22165557614E+02 -0.75995481048E+03  0.11347868815E+04  0.80000000000E+03 0.  0.
<mgrwt>
<rscale>  0 0.16882984E+04</rscale>
<asrwt>0</asrwt>
<pdfrwt beam="2">  1        2 0.27557943E+00 0.16882984E+04</pdfrwt>
<pdfrwt beam="1">  1       -2 0.61201900E-01 0.16882984E+04</pdfrwt>
<totfact> 0.20635090E+01</totfact>
</mgrwt>
</event>
<event>
 4    1  0.7144937E-008  0.1792704E+04  0.7816531E-02  0.8710189E-01
          2   -1    0    0  501    0  0.00000000000E+00  0.00000000000E+00  0.13263244385E+04  0.13263244385E+04  0.00000000000E+00 0.  1.
         -2   -1    0    0    0  501 -0.00000000000E+00 -0.00000000000E+00 -0.60576960920E+03  0.60576960920E+03  0.00000000000E+00 0. -1.
    2000013    1    1    2    0    0  0.70913115190E+01 -0.37420138704E+03  0.52503661131E+03  0.10274922910E+04  0.80000000000E+03 0.  0.
   -2000013    1    1    2    0    0 -0.70913115190E+01  0.37420138704E+03  0.19551821801E+03  0.90460175676E+03  0.80000000000E+03 0.  0.
<mgrwt>
<rscale>  0 0.17927041E+04</rscale>
<asrwt>0</asrwt>
<pdfrwt beam="1">  1        2 0.20404991E+00 0.17927041E+04</pdfrwt>
<pdfrwt beam="2">  1       -2 0.93195325E-01 0.17927041E+04</pdfrwt>
<totfact> 0.14694384E+01</totfact>
</mgrwt>
</event>
<event>
 4    1  0.7144937E-008  0.3100696E+04  0.7816531E-02  0.8215547E-01
          3   -1    0    0  501    0  0.00000000000E+00  0.00000000000E+00  0.15455977506E+04  0.15455977506E+04  0.00000000000E+00 0. -1.
         -3   -1    0    0    0  501 -0.00000000000E+00 -0.00000000000E+00 -0.15551125979E+04  0.15551125979E+04  0.00000000000E+00 0.  1.
    2000013    1    1    2    0    0 -0.10635964612E+04 -0.71074122083E+03 -0.36139339426E+03  0.15514495482E+04  0.80000000000E+03 0.  0.
   -2000013    1    1    2    0    0  0.10635964612E+04  0.71074122083E+03  0.35187854700E+03  0.15492608002E+04  0.80000000000E+03 0.  0.
<mgrwt>
<rscale>  0 0.31006957E+04</rscale>
<asrwt>0</asrwt>
<pdfrwt beam="1">  1        3 0.23778427E+00 0.31006957E+04</pdfrwt>
<pdfrwt beam="2">  1       -3 0.23924809E+00 0.31006957E+04</pdfrwt>
<totfact> 0.16166697E-02</totfact>
</mgrwt>
</event>
<event>
 4    1  0.7144937E-008  0.1727388E+04  0.7816531E-02  0.8745896E-01
         -2   -1    0    0    0  501 -0.00000000000E+00  0.00000000000E+00  0.64375189076E+03  0.64375189076E+03  0.00000000000E+00 0. -1.
          2   -1    0    0  501    0  0.00000000000E+00 -0.00000000000E+00 -0.11587805962E+04  0.11587805962E+04  0.00000000000E+00 0.  1.
    2000013    1    1    2    0    0  0.12899431099E+03 -0.22088965805E+03 -0.47421822093E+02  0.84123754226E+03  0.80000000000E+03 0.  0.
   -2000013    1    1    2    0    0 -0.12899431099E+03  0.22088965805E+03 -0.46760688330E+03  0.96129494465E+03  0.80000000000E+03 0.  0.
<mgrwt>
<rscale>  0 0.17273879E+04</rscale>
<asrwt>0</asrwt>
<pdfrwt beam="2">  1        2 0.17827394E+00 0.17273879E+04</pdfrwt>
<pdfrwt beam="1">  1       -2 0.99038754E-01 0.17273879E+04</pdfrwt>
<totfact> 0.16095667E+01</totfact>
</mgrwt>
</event>
<event>
 4    1  0.7144937E-008  0.1872185E+04  0.7816531E-02  0.8668827E-01
         -2   -1    0    0    0  501 -0.00000000000E+00  0.00000000000E+00  0.38125049771E+03  0.38125049771E+03  0.00000000000E+00 0. -1.
          2   -1    0    0  501    0  0.00000000000E+00 -0.00000000000E+00 -0.22984073512E+04  0.22984073512E+04  0.00000000000E+00 0.  1.
    2000013    1    1    2    0    0  0.38239457697E+03 -0.11611639682E+03 -0.56254440279E+03  0.10564870256E+04  0.80000000000E+03 0.  0.
   -2000013    1    1    2    0    0 -0.38239457697E+03  0.11611639682E+03 -0.13546124507E+04  0.16231708233E+04  0.80000000000E+03 0.  0.
<mgrwt>
<rscale>  0 0.18721848E+04</rscale>
<asrwt>0</asrwt>
<pdfrwt beam="2">  1        2 0.35360112E+00 0.18721848E+04</pdfrwt>
<pdfrwt beam="1">  1       -2 0.58653924E-01 0.18721848E+04</pdfrwt>
<totfact> 0.11590743E+01</totfact>
</mgrwt>
</event>
<event>
 4    1  0.7144937E-008  0.2675447E+04  0.7816531E-02  0.8343016E-01
         -2   -1    0    0    0  501 -0.00000000000E+00  0.00000000000E+00  0.14101098812E+04  0.14101098812E+04  0.00000000000E+00 0. -1.
          2   -1    0    0  501    0  0.00000000000E+00 -0.00000000000E+00 -0.12690529708E+04  0.12690529708E+04  0.00000000000E+00 0.  1.
    2000013    1    1    2    0    0  0.39783917647E+03 -0.91147615710E+03 -0.33057665547E+03  0.13184633937E+04  0.80000000000E+03 0.  0.
   -2000013    1    1    2    0    0 -0.39783917647E+03  0.91147615710E+03  0.47163356591E+03  0.13606994583E+04  0.80000000000E+03 0.  0.
<mgrwt>
<rscale>  0 0.26754470E+04</rscale>
<asrwt>0</asrwt>
<pdfrwt beam="2">  1        2 0.19523892E+00 0.26754470E+04</pdfrwt>
<pdfrwt beam="1">  1       -2 0.21693998E+00 0.26754470E+04</pdfrwt>
<totfact> 0.15661326E+00</totfact>
</mgrwt>
</event>
<event>
 4    1  0.7144937E-008  0.1984078E+04  0.7816531E-02  0.8614101E-01
          2   -1    0    0  501    0  0.00000000000E+00  0.00000000000E+00  0.42268203272E+04  0.42268203272E+04  0.00000000000E+00 0.  1.
         -2   -1    0    0    0  501 -0.00000000000E+00 -0.00000000000E+00 -0.23283247033E+03  0.23283247033E+03  0.00000000000E+00 0. -1.
    2000013    1    1    2    0    0 -0.75888460240E+02 -0.19747164705E+03  0.76712511482E+03  0.11283771761E+04  0.80000000000E+03 0.  0.
   -2000013    1    1    2    0    0  0.75888460240E+02  0.19747164705E+03  0.32268627421E+04  0.33312756214E+04  0.80000000000E+03 0.  0.
<mgrwt>
<rscale>  0 0.19840776E+04</rscale>
<asrwt>0</asrwt>
<pdfrwt beam="1">  1        2 0.65027999E+00 0.19840776E+04</pdfrwt>
<pdfrwt beam="2">  1       -2 0.35820383E-01 0.19840776E+04</pdfrwt>
<totfact> 0.15223363E+00</totfact>
</mgrwt>
</event>
<event>
 4    1  0.7144937E-008  0.1997589E+04  0.7816531E-02  0.8607749E-01
          2   -1    0    0  501    0  0.00000000000E+00  0.00000000000E+00  0.89851440432E+03  0.89851440432E+03  0.00000000000E+00 0.  1.
         -2   -1    0    0    0  501 -0.00000000000E+00 -0.00000000000E+00 -0.11102660090E+04  0.11102660090E+04  0.00000000000E+00 0. -1.
    2000013    1    1    2    0    0 -0.32246592641E+03  0.37332064426E+03  0.23400812460E+03  0.96856201634E+03  0.80000000000E+03 0.  0.
   -2000013    1    1    2    0    0  0.32246592641E+03 -0.37332064426E+03 -0.44575972924E+03  0.10402183969E+04  0.80000000000E+03 0.  0.
<mgrwt>
<rscale>  0 0.19975885E+04</rscale>
<asrwt>0</asrwt>
<pdfrwt beam="1">  1        2 0.13823299E+00 0.19975885E+04</pdfrwt>
<pdfrwt beam="2">  1       -2 0.17081015E+00 0.19975885E+04</pdfrwt>
<totfact> 0.57420711E+00</totfact>
</mgrwt>
</event>
<event>
 4    1  0.7144937E-008  0.2574712E+04  0.7816531E-02  0.8376842E-01
         -2   -1    0    0    0  501 -0.00000000000E+00  0.00000000000E+00  0.78981734302E+03  0.78981734302E+03  0.00000000000E+00 0. -1.
          2   -1    0    0  501    0  0.00000000000E+00 -0.00000000000E+00 -0.20983155569E+04  0.20983155569E+04  0.00000000000E+00 0.  1.
    2000013    1    1    2    0    0  0.65074500105E+03 -0.67352965758E+03 -0.23427418453E+03  0.12537925066E+04  0.80000000000E+03 0.  0.
   -2000013    1    1    2    0    0 -0.65074500105E+03  0.67352965758E+03 -0.10742240293E+04  0.16343403933E+04  0.80000000000E+03 0.  0.
<mgrwt>
<rscale>  0 0.25747124E+04</rscale>
<asrwt>0</asrwt>
<pdfrwt beam="2">  1        2 0.32281778E+00 0.25747124E+04</pdfrwt>
<pdfrwt beam="1">  1       -2 0.12151036E+00 0.25747124E+04</pdfrwt>
<totfact> 0.26865305E+00</totfact>
</mgrwt>
</event>
<event>
 4    1  0.7144937E-008  0.1895861E+04  0.7816531E-02  0.8656919E-01
          2   -1    0    0  501    0  0.00000000000E+00  0.00000000000E+00  0.21461179299E+04  0.21461179299E+04  0.00000000000E+00 0.  1.
         -2   -1    0    0    0  501 -0.00000000000E+00 -0.00000000000E+00 -0.41869650726E+03  0.41869650726E+03  0.00000000000E+00 0. -1.
    2000013    1    1    2    0    0  0.16701792212E+03 -0.46387466482E+03  0.10321249402E+04  0.13958354427E+04  0.80000000000E+03 0.  0.
   -2000013    1    1    2    0    0 -0.16701792212E+03  0.46387466482E+03  0.69529648245E+03  0.11689789945E+04  0.80000000000E+03 0.  0.
<mgrwt>
<rscale>  0 0.18958608E+04</rscale>
<asrwt>0</asrwt>
<pdfrwt beam="1">  1        2 0.33017198E+00 0.18958608E+04</pdfrwt>
<pdfrwt beam="2">  1       -2 0.64414849E-01 0.18958608E+04</pdfrwt>
<totfact> 0.11547434E+01</totfact>
</mgrwt>
</event>
<event>
 4    1  0.7144937E-008  0.2045608E+04  0.7816531E-02  0.8585589E-01
         -2   -1    0    0    0  501 -0.00000000000E+00  0.00000000000E+00  0.29599441544E+03  0.29599441544E+03  0.00000000000E+00 0.  1.
          2   -1    0    0  501    0  0.00000000000E+00 -0.00000000000E+00 -0.35342845548E+04  0.35342845548E+04  0.00000000000E+00 0. -1.
    2000013    1    1    2    0    0 -0.13987642425E+03  0.61925883207E+03 -0.15152022941E+04  0.18272615869E+04  0.80000000000E+03 0.  0.
   -2000013    1    1    2    0    0  0.13987642425E+03 -0.61925883207E+03 -0.17230878453E+04  0.20030173833E+04  0.80000000000E+03 0.  0.
<mgrwt>
<rscale>  0 0.20456085E+04</rscale>
<asrwt>0</asrwt>
<pdfrwt beam="2">  1        2 0.54373611E+00 0.20456085E+04</pdfrwt>
<pdfrwt beam="1">  1       -2 0.45537600E-01 0.20456085E+04</pdfrwt>
<totfact> 0.32728901E+00</totfact>
</mgrwt>
</event>
<event>
 4    1  0.7144937E-008  0.3715352E+04  0.7816531E-02  0.8064568E-01
          1   -1    0    0  501    0  0.00000000000E+00  0.00000000000E+00  0.23202584040E+04  0.23202584040E+04  0.00000000000E+00 0.  1.
         -1   -1    0    0    0  501 -0.00000000000E+00 -0.00000000000E+00 -0.14873171539E+04  0.14873171539E+04  0.00000000000E+00 0. -1.
    2000013    1    1    2    0    0  0.10663830588E+04 -0.12894606491E+04  0.30860335791E+03  0.18801908483E+04  0.80000000000E+03 0.  0.
   -2000013    1    1    2    0    0 -0.10663830588E+04  0.12894606491E+04  0.52433789218E+03  0.19273847096E+04  0.80000000000E+03 0.  0.
<mgrwt>
<rscale>  0 0.37153520E+04</rscale>
<asrwt>0</asrwt>
<pdfrwt beam="1">  1        1 0.35696283E+00 0.37153520E+04</pdfrwt>
<pdfrwt beam="2">  1       -1 0.22881802E+00 0.37153520E+04</pdfrwt>
<totfact> 0.13883214E-01</totfact>
</mgrwt>
</event>
<event>
 4    1  0.7144937E-008  0.2670107E+04  0.7816531E-02  0.8344770E-01
         -2   -1    0    0    0  501 -0.00000000000E+00  0.00000000000E+00  0.14558313705E+04  0.14558313705E+04  0.00000000000E+00 0. -1.
          2   -1    0    0  501    0  0.00000000000E+00 -0.00000000000E+00 -0.12242956100E+04  0.12242956100E+04  0.00000000000E+00 0.  1.
    2000013    1    1    2    0    0  0.64650614683E+03  0.18557042007E+02  0.96987430582E+03  0.14138496139E+04  0.80000000000E+03 0.  0.
   -2000013    1    1    2    0    0 -0.64650614683E+03 -0.18557042007E+02 -0.73833854534E+03  0.12662773666E+04  0.80000000000E+03 0.  0.
<mgrwt>
<rscale>  0 0.26701071E+04</rscale>
<asrwt>0</asrwt>
<pdfrwt beam="2">  1        2 0.18835317E+00 0.26701071E+04</pdfrwt>
<pdfrwt beam="1">  1       -2 0.22397406E+00 0.26701071E+04</pdfrwt>
<totfact> 0.15028158E+00</totfact>
</mgrwt>
</event>
<event>
 4    1  0.7144937E-008  0.2337698E+04  0.7816531E-02  0.8463204E-01
          2   -1    0    0  501    0  0.00000000000E+00  0.00000000000E+00  0.25160788890E+04  0.25160788890E+04  0.00000000000E+00 0.  1.
         -2   -1    0    0    0  501 -0.00000000000E+00 -0.00000000000E+00 -0.54299114071E+03  0.54299114071E+03  0.00000000000E+00 0. -1.
    2000013    1    1    2    0    0 -0.60119740648E+03  0.75704675412E+02  0.17706444153E+04  0.20352766802E+04  0.80000000000E+03 0.  0.
   -2000013    1    1    2    0    0  0.60119740648E+03 -0.75704675412E+02  0.20244333297E+03  0.10237933495E+04  0.80000000000E+03 0.  0.
<mgrwt>
<rscale>  0 0.23376985E+04</rscale>
<asrwt>0</asrwt>
<pdfrwt beam="1">  1        2 0.38708905E+00 0.23376985E+04</pdfrwt>
<pdfrwt beam="2">  1       -2 0.83537100E-01 0.23376985E+04</pdfrwt>
<totfact> 0.38596965E+00</totfact>
</mgrwt>
</event>
<event>
 4    1  0.7144937E-008  0.2554329E+04  0.7816531E-02  0.8383882E-01
          2   -1    0    0  501    0  0.00000000000E+00  0.00000000000E+00  0.18593092005E+04  0.18593092005E+04  0.00000000000E+00 0.  1.
         -2   -1    0    0    0  501 -0.00000000000E+00 -0.00000000000E+00 -0.87728792120E+03  0.87728792120E+03  0.00000000000E+00 0. -1.
    2000013    1    1    2    0    0  0.77881525468E+03 -0.55203771298E+03  0.18826823430E+03  0.12596601786E+04  0.80000000000E+03 0.  0.
   -2000013    1    1    2    0    0 -0.77881525468E+03  0.55203771298E+03  0.79375304498E+03  0.14769369431E+04  0.80000000000E+03 0.  0.
<mgrwt>
<rscale>  0 0.25543293E+04</rscale>
<asrwt>0</asrwt>
<pdfrwt beam="1">  1        2 0.28604757E+00 0.25543293E+04</pdfrwt>
<pdfrwt beam="2">  1       -2 0.13496737E+00 0.25543293E+04</pdfrwt>
<totfact> 0.28039165E+00</totfact>
</mgrwt>
</event>
<event>
 4    1  0.7144937E-008  0.2461598E+04  0.7816531E-02  0.8416796E-01
         -2   -1    0    0    0  501 -0.00000000000E+00  0.00000000000E+00  0.14464609604E+04  0.14464609604E+04  0.00000000000E+00 0. -1.
          2   -1    0    0  501    0  0.00000000000E+00 -0.00000000000E+00 -0.10472911390E+04  0.10472911390E+04  0.00000000000E+00 0.  1.
    2000013    1    1    2    0    0 -0.21522260988E+03  0.52199316292E+03  0.95502530947E+03  0.13677978563E+04  0.80000000000E+03 0.  0.
   -2000013    1    1    2    0    0  0.21522260988E+03 -0.52199316292E+03 -0.55585548803E+03  0.11259542431E+04  0.80000000000E+03 0.  0.
<mgrwt>
<rscale>  0 0.24615976E+04</rscale>
<asrwt>0</asrwt>
<pdfrwt beam="2">  1        2 0.16112171E+00 0.24615976E+04</pdfrwt>
<pdfrwt beam="1">  1       -2 0.22253246E+00 0.24615976E+04</pdfrwt>
<totfact> 0.20025240E+00</totfact>
</mgrwt>
</event>
<event>
 4    1  0.7144937E-008  0.2178668E+04  0.7816531E-02  0.8527360E-01
          1   -1    0    0  501    0  0.00000000000E+00  0.00000000000E+00  0.16005356637E+04  0.16005356637E+04  0.00000000000E+00 0.  1.
         -1   -1    0    0    0  501 -0.00000000000E+00 -0.00000000000E+00 -0.74140703595E+03  0.74140703595E+03  0.00000000000E+00 0. -1.
    2000013    1    1    2    0    0  0.21851940805E+03 -0.32603826925E+03 -0.24396821005E+03  0.92388969700E+03  0.80000000000E+03 0.  0.
   -2000013    1    1    2    0    0 -0.21851940805E+03  0.32603826925E+03  0.11030968378E+04  0.14180530026E+04  0.80000000000E+03 0.  0.
<mgrwt>
<rscale>  0 0.21786679E+04</rscale>
<asrwt>0</asrwt>
<pdfrwt beam="1">  1        1 0.24623626E+00 0.21786679E+04</pdfrwt>
<pdfrwt beam="2">  1       -1 0.11406262E+00 0.21786679E+04</pdfrwt>
<totfact> 0.35647647E+00</totfact>
</mgrwt>
</event>
<event>
 4    1  0.7144937E-008  0.1949275E+04  0.7816531E-02  0.8630711E-01
         -2   -1    0    0    0  501 -0.00000000000E+00  0.00000000000E+00  0.28550736507E+03  0.28550736507E+03  0.00000000000E+00 0. -1.
          2   -1    0    0  501    0  0.00000000000E+00 -0.00000000000E+00 -0.33271225003E+04  0.33271225003E+04  0.00000000000E+00 0.  1.
    2000013    1    1    2    0    0  0.80493776604E+02  0.53128173244E+03 -0.12510972782E+04  0.15792352348E+04  0.80000000000E+03 0.  0.
   -2000013    1    1    2    0    0 -0.80493776604E+02 -0.53128173244E+03 -0.17905178571E+04  0.20333946306E+04  0.80000000000E+03 0.  0.
<mgrwt>
<rscale>  0 0.19492747E+04</rscale>
<asrwt>0</asrwt>
<pdfrwt beam="2">  1        2 0.51186501E+00 0.19492747E+04</pdfrwt>
<pdfrwt beam="1">  1       -2 0.43924209E-01 0.19492747E+04</pdfrwt>
<totfact> 0.49218375E+00</totfact>
</mgrwt>
</event>
<event>
 4    1  0.7144937E-008  0.3535228E+04  0.7816531E-02  0.8105492E-01
          2   -1    0    0  501    0  0.00000000000E+00  0.00000000000E+00  0.16877157504E+04  0.16877157504E+04  0.00000000000E+00 0.  1.
         -2   -1    0    0    0  501 -0.00000000000E+00 -0.00000000000E+00 -0.18512944183E+04  0.18512944183E+04  0.00000000000E+00 0. -1.
    2000013    1    1    2    0    0  0.13072042351E+04 -0.24200617300E+03 -0.92951817331E+03  0.18086884570E+04  0.80000000000E+03 0.  0.
   -2000013    1    1    2    0    0 -0.13072042351E+04  0.24200617300E+03  0.76593950545E+03  0.17303217117E+04  0.80000000000E+03 0.  0.
<mgrwt>
<rscale>  0 0.35352277E+04</rscale>
<asrwt>0</asrwt>
<pdfrwt beam="1">  1        2 0.25964858E+00 0.35352277E+04</pdfrwt>
<pdfrwt beam="2">  1       -2 0.28481453E+00 0.35352277E+04</pdfrwt>
<totfact> 0.32126885E-01</totfact>
</mgrwt>
</event>
<event>
 4    1  0.7144937E-008  0.2722974E+04  0.7816531E-02  0.8327589E-01
         -2   -1    0    0    0  501 -0.00000000000E+00  0.00000000000E+00  0.21225806988E+04  0.21225806988E+04  0.00000000000E+00 0. -1.
          2   -1    0    0  501    0  0.00000000000E+00 -0.00000000000E+00 -0.87329848920E+03  0.87329848920E+03  0.00000000000E+00 0.  1.
    2000013    1    1    2    0    0 -0.77466616087E+03  0.21511082286E+03  0.14532971263E+04  0.18434893177E+04  0.80000000000E+03 0.  0.
   -2000013    1    1    2    0    0  0.77466616087E+03 -0.21511082286E+03 -0.20401491678E+03  0.11523898703E+04  0.80000000000E+03 0.  0.
<mgrwt>
<rscale>  0 0.27229738E+04</rscale>
<asrwt>0</asrwt>
<pdfrwt beam="2">  1        2 0.13435361E+00 0.27229738E+04</pdfrwt>
<pdfrwt beam="1">  1       -2 0.32655088E+00 0.27229738E+04</pdfrwt>
<totfact> 0.58399818E-01</totfact>
</mgrwt>
</event>
<event>
 4    1  0.7144937E-008  0.2646681E+04  0.7816531E-02  0.8352516E-01
         -2   -1    0    0    0  501 -0.00000000000E+00  0.00000000000E+00  0.10347026499E+04  0.10347026499E+04  0.00000000000E+00 0. -1.
          2   -1    0    0  501    0  0.00000000000E+00 -0.00000000000E+00 -0.16924955977E+04  0.16924955977E+04  0.00000000000E+00 0.  1.
    2000013    1    1    2    0    0 -0.10086336116E+04  0.18998385594E+03 -0.81178949917E+02  0.13038503173E+04  0.80000000000E+03 0.  0.
   -2000013    1    1    2    0    0  0.10086336116E+04 -0.18998385594E+03 -0.57661399792E+03  0.14233479303E+04  0.80000000000E+03 0.  0.
<mgrwt>
<rscale>  0 0.26466807E+04</rscale>
<asrwt>0</asrwt>
<pdfrwt beam="2">  1        2 0.26038394E+00 0.26466807E+04</pdfrwt>
<pdfrwt beam="1">  1       -2 0.15918502E+00 0.26466807E+04</pdfrwt>
<totfact> 0.22288943E+00</totfact>
</mgrwt>
</event>
<event>
 4    1  0.7144937E-008  0.3044257E+04  0.7816531E-02  0.8231205E-01
          2   -1    0    0  501    0  0.00000000000E+00  0.00000000000E+00  0.19807496811E+04  0.19807496811E+04  0.00000000000E+00 0.  1.
         -2   -1    0    0    0  501 -0.00000000000E+00 -0.00000000000E+00 -0.11696959080E+04  0.11696959080E+04  0.00000000000E+00 0. -1.
    2000013    1    1    2    0    0  0.12836128408E+04 -0.15215802644E+03  0.32496012202E+03  0.15544816084E+04  0.80000000000E+03 0.  0.
   -2000013    1    1    2    0    0 -0.12836128408E+04  0.15215802644E+03  0.48609365106E+03  0.15959639807E+04  0.80000000000E+03 0.  0.
<mgrwt>
<rscale>  0 0.30442568E+04</rscale>
<asrwt>0</asrwt>
<pdfrwt beam="1">  1        2 0.30473072E+00 0.30442568E+04</pdfrwt>
<pdfrwt beam="2">  1       -2 0.17995322E+00 0.30442568E+04</pdfrwt>
<totfact> 0.10599811E+00</totfact>
</mgrwt>
</event>
<event>
 4    1  0.7144937E-008  0.1967004E+04  0.7816531E-02  0.8622205E-01
         -2   -1    0    0    0  501 -0.00000000000E+00  0.00000000000E+00  0.49704397859E+03  0.49704397859E+03  0.00000000000E+00 0. -1.
          2   -1    0    0  501    0  0.00000000000E+00 -0.00000000000E+00 -0.19460575799E+04  0.19460575799E+04  0.00000000000E+00 0.  1.
    2000013    1    1    2    0    0  0.33935789684E+03  0.23505985004E+03 -0.12164233025E+04  0.15133084834E+04  0.80000000000E+03 0.  0.
   -2000013    1    1    2    0    0 -0.33935789684E+03 -0.23505985004E+03 -0.23259029880E+03  0.92979307502E+03  0.80000000000E+03 0.  0.
<mgrwt>
<rscale>  0 0.19670040E+04</rscale>
<asrwt>0</asrwt>
<pdfrwt beam="2">  1        2 0.29939347E+00 0.19670040E+04</pdfrwt>
<pdfrwt beam="1">  1       -2 0.76468304E-01 0.19670040E+04</pdfrwt>
<totfact> 0.10198648E+01</totfact>
</mgrwt>
</event>
<event>
 4    1  0.7144937E-008  0.1970147E+04  0.7816531E-02  0.8620707E-01
          2   -1    0    0  501    0  0.00000000000E+00  0.00000000000E+00  0.44341261526E+03  0.44341261526E+03  0.00000000000E+00 0.  1.
         -2   -1    0    0    0  501 -0.00000000000E+00 -0.00000000000E+00 -0.21884119099E+04  0.21884119099E+04  0.00000000000E+00 0. -1.
    2000013    1    1    2    0    0  0.13611043606E+03  0.54162517008E+03 -0.10541243141E+04  0.14363362925E+04  0.80000000000E+03 0.  0.
   -2000013    1    1    2    0    0 -0.13611043606E+03 -0.54162517008E+03 -0.69087498058E+03  0.11954882327E+04  0.80000000000E+03 0.  0.
<mgrwt>
<rscale>  0 0.19701466E+04</rscale>
<asrwt>0</asrwt>
<pdfrwt beam="1">  1        2 0.68217325E-01 0.19701466E+04</pdfrwt>
<pdfrwt beam="2">  1       -2 0.33667876E+00 0.19701466E+04</pdfrwt>
<totfact> 0.12452195E+00</totfact>
</mgrwt>
</event>
<event>
 4    1  0.7144937E-008  0.2328361E+04  0.7816531E-02  0.8466822E-01
         -1   -1    0    0    0  501 -0.00000000000E+00  0.00000000000E+00  0.74691415301E+03  0.74691415301E+03  0.00000000000E+00 0. -1.
          1   -1    0    0  501    0  0.00000000000E+00 -0.00000000000E+00 -0.18145540372E+04  0.18145540372E+04  0.00000000000E+00 0.  1.
    2000013    1    1    2    0    0  0.70272909730E+03 -0.46260727695E+03 -0.62898106696E+03  0.13203979928E+04  0.80000000000E+03 0.  0.
   -2000013    1    1    2    0    0 -0.70272909730E+03  0.46260727695E+03 -0.43865881724E+03  0.12410701974E+04  0.80000000000E+03 0.  0.
<mgrwt>
<rscale>  0 0.23283609E+04</rscale>
<asrwt>0</asrwt>
<pdfrwt beam="2">  1        1 0.27916216E+00 0.23283609E+04</pdfrwt>
<pdfrwt beam="1">  1       -1 0.11490987E+00 0.23283609E+04</pdfrwt>
<totfact> 0.24690257E+00</totfact>
</mgrwt>
</event>
<event>
 4    1  0.7144937E-008  0.2037563E+04  0.7816531E-02  0.8589257E-01
          1   -1    0    0  501    0  0.00000000000E+00  0.00000000000E+00  0.81082670719E+03  0.81082670719E+03  0.00000000000E+00 0.  1.
         -1   -1    0    0    0  501 -0.00000000000E+00 -0.00000000000E+00 -0.12800714031E+04  0.12800714031E+04  0.00000000000E+00 0. -1.
    2000013    1    1    2    0    0  0.54832911666E+03 -0.30832266659E+03 -0.18661756663E+03  0.10346756995E+04  0.80000000000E+03 0.  0.
   -2000013    1    1    2    0    0 -0.54832911666E+03  0.30832266659E+03 -0.28262712929E+03  0.10562224108E+04  0.80000000000E+03 0.  0.
<mgrwt>
<rscale>  0 0.20375633E+04</rscale>
<asrwt>0</asrwt>
<pdfrwt beam="1">  1        1 0.12474257E+00 0.20375633E+04</pdfrwt>
<pdfrwt beam="2">  1       -1 0.19693406E+00 0.20375633E+04</pdfrwt>
<totfact> 0.31613594E+00</totfact>
</mgrwt>
</event>
<event>
 4    1  0.7144937E-008  0.2185043E+04  0.7816531E-02  0.8524680E-01
          2   -1    0    0  501    0  0.00000000000E+00  0.00000000000E+00  0.10174891641E+04  0.10174891641E+04  0.00000000000E+00 0.  1.
         -2   -1    0    0    0  501 -0.00000000000E+00 -0.00000000000E+00 -0.11730867272E+04  0.11730867272E+04  0.00000000000E+00 0. -1.
    2000013    1    1    2    0    0 -0.62067277659E+03  0.30824418761E+03 -0.34932378825E+03  0.11145744855E+04  0.80000000000E+03 0.  0.
   -2000013    1    1    2    0    0  0.62067277659E+03 -0.30824418761E+03  0.19372622514E+03  0.10760014057E+04  0.80000000000E+03 0.  0.
<mgrwt>
<rscale>  0 0.21850428E+04</rscale>
<asrwt>0</asrwt>
<pdfrwt beam="1">  1        2 0.15653679E+00 0.21850428E+04</pdfrwt>
<pdfrwt beam="2">  1       -2 0.18047488E+00 0.21850428E+04</pdfrwt>
<totfact> 0.40419396E+00</totfact>
</mgrwt>
</event>
<event>
 4    1  0.7144937E-008  0.1808799E+04  0.7816531E-02  0.8701634E-01
          2   -1    0    0  501    0  0.00000000000E+00  0.00000000000E+00  0.95989004308E+03  0.95989004308E+03  0.00000000000E+00 0.  1.
         -2   -1    0    0    0  501 -0.00000000000E+00 -0.00000000000E+00 -0.85211717766E+03  0.85211717766E+03  0.00000000000E+00 0. -1.
    2000013    1    1    2    0    0 -0.40069307416E+03 -0.23216743195E+02  0.18390427012E+03  0.91373668932E+03  0.80000000000E+03 0.  0.
   -2000013    1    1    2    0    0  0.40069307416E+03  0.23216743195E+02 -0.76131404696E+02  0.89827053142E+03  0.80000000000E+03 0.  0.
<mgrwt>
<rscale>  0 0.18087994E+04</rscale>
<asrwt>0</asrwt>
<pdfrwt beam="1">  1        2 0.14767539E+00 0.18087994E+04</pdfrwt>
<pdfrwt beam="2">  1       -2 0.13109495E+00 0.18087994E+04</pdfrwt>
<totfact> 0.10727439E+01</totfact>
</mgrwt>
</event>
<event>
 4    1  0.7144937E-008  0.2532771E+04  0.7816531E-02  0.8391403E-01
          2   -1    0    0  501    0  0.00000000000E+00  0.00000000000E+00  0.11098033806E+04  0.11098033806E+04  0.00000000000E+00 0. -1.
         -2   -1    0    0    0  501 -0.00000000000E+00 -0.00000000000E+00 -0.14450597740E+04  0.14450597740E+04  0.00000000000E+00 0.  1.
    2000013    1    1    2    0    0 -0.48822488796E+03 -0.43773197784E+03 -0.90458916466E+03  0.13741376869E+04  0.80000000000E+03 0.  0.
   -2000013    1    1    2    0    0  0.48822488796E+03  0.43773197784E+03  0.56933277133E+03  0.11807254677E+04  0.80000000000E+03 0.  0.
<mgrwt>
<rscale>  0 0.25327710E+04</rscale>
<asrwt>0</asrwt>
<pdfrwt beam="1">  1        2 0.17073898E+00 0.25327710E+04</pdfrwt>
<pdfrwt beam="2">  1       -2 0.22231689E+00 0.25327710E+04</pdfrwt>
<totfact> 0.18258912E+00</totfact>
</mgrwt>
</event>
<event>
 4    1  0.7144937E-008  0.2201052E+04  0.7816531E-02  0.8517990E-01
          2   -1    0    0  501    0  0.00000000000E+00  0.00000000000E+00  0.49998942618E+03  0.49998942618E+03  0.00000000000E+00 0.  1.
         -2   -1    0    0    0  501 -0.00000000000E+00 -0.00000000000E+00 -0.24223657918E+04  0.24223657918E+04  0.00000000000E+00 0. -1.
    2000013    1    1    2    0    0 -0.72740799647E+03  0.91635921311E+02 -0.12046978376E+04  0.16213625182E+04  0.80000000000E+03 0.  0.
   -2000013    1    1    2    0    0  0.72740799647E+03 -0.91635921311E+02 -0.71767852802E+03  0.13009926998E+04  0.80000000000E+03 0.  0.
<mgrwt>
<rscale>  0 0.22010518E+04</rscale>
<asrwt>0</asrwt>
<pdfrwt beam="1">  1        2 0.76921451E-01 0.22010518E+04</pdfrwt>
<pdfrwt beam="2">  1       -2 0.37267166E+00 0.22010518E+04</pdfrwt>
<totfact> 0.62918703E-01</totfact>
</mgrwt>
</event>
<event>
 4    1  0.7144937E-008  0.2109470E+04  0.7816531E-02  0.8557083E-01
         -1   -1    0    0    0  501 -0.00000000000E+00  0.00000000000E+00  0.82658118068E+03  0.82658118068E+03  0.00000000000E+00 0.  1.
          1   -1    0    0  501    0  0.00000000000E+00 -0.00000000000E+00 -0.13458641408E+04  0.13458641408E+04  0.00000000000E+00 0. -1.
    2000013    1    1    2    0    0  0.50303797910E+03 -0.55480723502E+02  0.21936849541E+03  0.97172416656E+03  0.80000000000E+03 0.  0.
   -2000013    1    1    2    0    0 -0.50303797910E+03  0.55480723502E+02 -0.73865145551E+03  0.12007211549E+04  0.80000000000E+03 0.  0.
<mgrwt>
<rscale>  0 0.21094700E+04</rscale>
<asrwt>0</asrwt>
<pdfrwt beam="2">  1        1 0.20705602E+00 0.21094700E+04</pdfrwt>
<pdfrwt beam="1">  1       -1 0.12716634E+00 0.21094700E+04</pdfrwt>
<totfact> 0.41333505E+00</totfact>
</mgrwt>
</event>
<event>
 4    1  0.7144937E-008  0.1894032E+04  0.7816531E-02  0.8657833E-01
         -1   -1    0    0    0  501 -0.00000000000E+00  0.00000000000E+00  0.10749713493E+04  0.10749713493E+04  0.00000000000E+00 0. -1.
          1   -1    0    0  501    0  0.00000000000E+00 -0.00000000000E+00 -0.83429128465E+03  0.83429128465E+03  0.00000000000E+00 0.  1.
    2000013    1    1    2    0    0  0.34752751527E+03  0.62134206673E+02 -0.24618138221E+03  0.90842793135E+03  0.80000000000E+03 0.  0.
   -2000013    1    1    2    0    0 -0.34752751527E+03 -0.62134206673E+02  0.48686144687E+03  0.10008347026E+04  0.80000000000E+03 0.  0.
<mgrwt>
<rscale>  0 0.18940319E+04</rscale>
<asrwt>0</asrwt>
<pdfrwt beam="2">  1        1 0.12835250E+00 0.18940319E+04</pdfrwt>
<pdfrwt beam="1">  1       -1 0.16538021E+00 0.18940319E+04</pdfrwt>
<totfact> 0.51472036E+00</totfact>
</mgrwt>
</event>
<event>
 4    1  0.7144937E-008  0.3085780E+04  0.7816531E-02  0.8219651E-01
         -2   -1    0    0    0  501 -0.00000000000E+00  0.00000000000E+00  0.13521820514E+04  0.13521820514E+04  0.00000000000E+00 0. -1.
          2   -1    0    0  501    0  0.00000000000E+00 -0.00000000000E+00 -0.17604949369E+04  0.17604949369E+04  0.00000000000E+00 0.  1.
    2000013    1    1    2    0    0  0.17758849716E+03  0.11379988380E+04 -0.85313876273E+03  0.16414703098E+04  0.80000000000E+03 0.  0.
   -2000013    1    1    2    0    0 -0.17758849716E+03 -0.11379988380E+04  0.44482587730E+03  0.14712066785E+04  0.80000000000E+03 0.  0.
<mgrwt>
<rscale>  0 0.30857801E+04</rscale>
<asrwt>0</asrwt>
<pdfrwt beam="2">  1        2 0.27084537E+00 0.30857801E+04</pdfrwt>
<pdfrwt beam="1">  1       -2 0.20802801E+00 0.30857801E+04</pdfrwt>
<totfact> 0.90973214E-01</totfact>
</mgrwt>
</event>
<event>
 4    1  0.7144937E-008  0.2063906E+04  0.7816531E-02  0.8577312E-01
         -2   -1    0    0    0  501 -0.00000000000E+00  0.00000000000E+00  0.86230752835E+03  0.86230752835E+03  0.00000000000E+00 0. -1.
          2   -1    0    0  501    0  0.00000000000E+00 -0.00000000000E+00 -0.12349735415E+04  0.12349735415E+04  0.00000000000E+00 0.  1.
    2000013    1    1    2    0    0  0.21030262666E+03  0.55994965068E+03  0.77002672593E+02  0.10018484005E+04  0.80000000000E+03 0.  0.
   -2000013    1    1    2    0    0 -0.21030262666E+03 -0.55994965068E+03 -0.44966868577E+03  0.10954326693E+04  0.80000000000E+03 0.  0.
<mgrwt>
<rscale>  0 0.20639060E+04</rscale>
<asrwt>0</asrwt>
<pdfrwt beam="2">  1        2 0.18999593E+00 0.20639060E+04</pdfrwt>
<pdfrwt beam="1">  1       -2 0.13266270E+00 0.20639060E+04</pdfrwt>
<totfact> 0.68840287E+00</totfact>
</mgrwt>
</event>
<event>
 4    1  0.7144937E-008  0.2676713E+04  0.7816531E-02  0.8342600E-01
          2   -1    0    0  501    0  0.00000000000E+00  0.00000000000E+00  0.92682733086E+03  0.92682733086E+03  0.00000000000E+00 0.  1.
         -2   -1    0    0    0  501 -0.00000000000E+00 -0.00000000000E+00 -0.19326127345E+04  0.19326127345E+04  0.00000000000E+00 0. -1.
    2000013    1    1    2    0    0  0.95583147795E+03 -0.29453058784E+03 -0.91778176764E+03  0.15756539767E+04  0.80000000000E+03 0.  0.
   -2000013    1    1    2    0    0 -0.95583147795E+03  0.29453058784E+03 -0.88003636013E+02  0.12837860886E+04  0.80000000000E+03 0.  0.
<mgrwt>
<rscale>  0 0.26767131E+04</rscale>
<asrwt>0</asrwt>
<pdfrwt beam="1">  1        2 0.14258882E+00 0.26767131E+04</pdfrwt>
<pdfrwt beam="2">  1       -2 0.29732503E+00 0.26767131E+04</pdfrwt>
<totfact> 0.81603264E-01</totfact>
</mgrwt>
</event>
<event>
 4    1  0.7144937E-008  0.1980472E+04  0.7816531E-02  0.8615805E-01
         -2   -1    0    0    0  501 -0.00000000000E+00  0.00000000000E+00  0.97573526189E+03  0.97573526189E+03  0.00000000000E+00 0. -1.
          2   -1    0    0  501    0  0.00000000000E+00 -0.00000000000E+00 -0.10049522676E+04  0.10049522676E+04  0.00000000000E+00 0.  1.
    2000013    1    1    2    0    0 -0.51809264281E+03 -0.23439958230E+03  0.11657060204E+03  0.98840874944E+03  0.80000000000E+03 0.  0.
   -2000013    1    1    2    0    0  0.51809264281E+03  0.23439958230E+03 -0.14578760773E+03  0.99227878002E+03  0.80000000000E+03 0.  0.
<mgrwt>
<rscale>  0 0.19804720E+04</rscale>
<asrwt>0</asrwt>
<pdfrwt beam="2">  1        2 0.15460804E+00 0.19804720E+04</pdfrwt>
<pdfrwt beam="1">  1       -2 0.15011312E+00 0.19804720E+04</pdfrwt>
<totfact> 0.69566719E+00</totfact>
</mgrwt>
</event>
<event>
 4    1  0.7144937E-008  0.2317513E+04  0.7816531E-02  0.8471048E-01
          1   -1    0    0  501    0  0.00000000000E+00  0.00000000000E+00  0.21463809767E+04  0.21463809767E+04  0.00000000000E+00 0.  1.
         -1   -1    0    0    0  501 -0.00000000000E+00 -0.00000000000E+00 -0.62557217679E+03  0.62557217679E+03  0.00000000000E+00 0. -1.
    2000013    1    1    2    0    0  0.71066406151E+03 -0.42631555164E+03  0.91135766595E+03  0.14687958174E+04  0.80000000000E+03 0.  0.
   -2000013    1    1    2    0    0 -0.71066406151E+03  0.42631555164E+03  0.60945113394E+03  0.13031573361E+04  0.80000000000E+03 0.  0.
<mgrwt>
<rscale>  0 0.23175126E+04</rscale>
<asrwt>0</asrwt>
<pdfrwt beam="1">  1        1 0.33021245E+00 0.23175126E+04</pdfrwt>
<pdfrwt beam="2">  1       -1 0.96241874E-01 0.23175126E+04</pdfrwt>
<totfact> 0.22235991E+00</totfact>
</mgrwt>
</event>
<event>
 4    1  0.7144937E-008  0.2065245E+04  0.7816531E-02  0.8576710E-01
          2   -1    0    0  501    0  0.00000000000E+00  0.00000000000E+00  0.95688698528E+03  0.95688698528E+03  0.00000000000E+00 0.  1.
         -2   -1    0    0    0  501 -0.00000000000E+00 -0.00000000000E+00 -0.11143518628E+04  0.11143518628E+04  0.00000000000E+00 0. -1.
    2000013    1    1    2    0    0 -0.31212232352E+03 -0.56533859096E+03  0.17883704559E+02  0.10282742310E+04  0.80000000000E+03 0.  0.
   -2000013    1    1    2    0    0  0.31212232352E+03  0.56533859096E+03 -0.17534858210E+03  0.10429646171E+04  0.80000000000E+03 0.  0.
<mgrwt>
<rscale>  0 0.20652446E+04</rscale>
<asrwt>0</asrwt>
<pdfrwt beam="1">  1        2 0.14721338E+00 0.20652446E+04</pdfrwt>
<pdfrwt beam="2">  1       -2 0.17143875E+00 0.20652446E+04</pdfrwt>
<totfact> 0.51678096E+00</totfact>
</mgrwt>
</event>
<event>
 4    1  0.7144937E-008  0.1884407E+04  0.7816531E-02  0.8662657E-01
          2   -1    0    0  501    0  0.00000000000E+00  0.00000000000E+00  0.23384125000E+04  0.23384125000E+04  0.00000000000E+00 0.  1.
         -2   -1    0    0    0  501 -0.00000000000E+00 -0.00000000000E+00 -0.37963666959E+03  0.37963666959E+03  0.00000000000E+00 0. -1.
    2000013    1    1    2    0    0  0.18805371047E+03  0.21284789661E+03  0.38980725561E+03  0.93414031154E+03  0.80000000000E+03 0.  0.
   -2000013    1    1    2    0    0 -0.18805371047E+03 -0.21284789661E+03  0.15689685748E+04  0.17839088581E+04  0.80000000000E+03 0.  0.
<mgrwt>
<rscale>  0 0.18844067E+04</rscale>
<asrwt>0</asrwt>
<pdfrwt beam="1">  1        2 0.35975576E+00 0.18844067E+04</pdfrwt>
<pdfrwt beam="2">  1       -2 0.58405643E-01 0.18844067E+04</pdfrwt>
<totfact> 0.11087809E+01</totfact>
</mgrwt>
</event>
<event>
 4    1  0.7144937E-008  0.2354859E+04  0.7816531E-02  0.8456600E-01
          2   -1    0    0  501    0  0.00000000000E+00  0.00000000000E+00  0.19281846446E+04  0.19281846446E+04  0.00000000000E+00 0.  1.
         -2   -1    0    0    0  501 -0.00000000000E+00 -0.00000000000E+00 -0.71898702410E+03  0.71898702410E+03  0.00000000000E+00 0. -1.
    2000013    1    1    2    0    0 -0.61968107211E+03 -0.58634866696E+03  0.75762264290E+03  0.13934853639E+04  0.80000000000E+03 0.  0.
   -2000013    1    1    2    0    0  0.61968107211E+03  0.58634866696E+03  0.45157497757E+03  0.12536863048E+04  0.80000000000E+03 0.  0.
<mgrwt>
<rscale>  0 0.23548586E+04</rscale>
<asrwt>0</asrwt>
<pdfrwt beam="1">  1        2 0.29664379E+00 0.23548586E+04</pdfrwt>
<pdfrwt beam="2">  1       -2 0.11061339E+00 0.23548586E+04</pdfrwt>
<totfact> 0.42853011E+00</totfact>
</mgrwt>
</event>
<event>
 4    1  0.7144937E-008  0.3046634E+04  0.7816531E-02  0.8230538E-01
         -2   -1    0    0    0  501 -0.00000000000E+00  0.00000000000E+00  0.11448106826E+04  0.11448106826E+04  0.00000000000E+00 0. -1.
          2   -1    0    0  501    0  0.00000000000E+00 -0.00000000000E+00 -0.20269681291E+04  0.20269681291E+04  0.00000000000E+00 0.  1.
    2000013    1    1    2    0    0  0.65816027749E+03  0.49927064178E+03  0.59898142377E+03  0.12966205577E+04  0.80000000000E+03 0.  0.
   -2000013    1    1    2    0    0 -0.65816027749E+03 -0.49927064178E+03 -0.14811388702E+04  0.18751582540E+04  0.80000000000E+03 0.  0.
<mgrwt>
<rscale>  0 0.30466341E+04</rscale>
<asrwt>0</asrwt>
<pdfrwt beam="2">  1        2 0.31184125E+00 0.30466341E+04</pdfrwt>
<pdfrwt beam="1">  1       -2 0.17612472E+00 0.30466341E+04</pdfrwt>
<totfact> 0.10619804E+00</totfact>
</mgrwt>
</event>
<event>
 4    1  0.7144937E-008  0.2198755E+04  0.7816531E-02  0.8518946E-01
         -2   -1    0    0    0  501 -0.00000000000E+00  0.00000000000E+00  0.69933269281E+03  0.69933269281E+03  0.00000000000E+00 0. -1.
          2   -1    0    0  501    0  0.00000000000E+00 -0.00000000000E+00 -0.17282633258E+04  0.17282633258E+04  0.00000000000E+00 0.  1.
    2000013    1    1    2    0    0 -0.22066090938E+03 -0.44557552345E+03 -0.11403927871E+04  0.14790958363E+04  0.80000000000E+03 0.  0.
   -2000013    1    1    2    0    0  0.22066090938E+03  0.44557552345E+03  0.11146215415E+03  0.94850018230E+03  0.80000000000E+03 0.  0.
<mgrwt>
<rscale>  0 0.21987551E+04</rscale>
<asrwt>0</asrwt>
<pdfrwt beam="2">  1        2 0.26588666E+00 0.21987551E+04</pdfrwt>
<pdfrwt beam="1">  1       -2 0.10758965E+00 0.21987551E+04</pdfrwt>
<totfact> 0.59937055E+00</totfact>
</mgrwt>
</event>
<event>
 4    1  0.7144937E-008  0.2099053E+04  0.7816531E-02  0.8561661E-01
         -1   -1    0    0    0  501 -0.00000000000E+00  0.00000000000E+00  0.14657654397E+04  0.14657654397E+04  0.00000000000E+00 0. -1.
          1   -1    0    0  501    0  0.00000000000E+00 -0.00000000000E+00 -0.75148866302E+03  0.75148866302E+03  0.00000000000E+00 0.  1.
    2000013    1    1    2    0    0  0.57486890967E+03  0.35594298322E+03  0.42669824622E+03  0.11310353946E+04  0.80000000000E+03 0.  0.
   -2000013    1    1    2    0    0 -0.57486890967E+03 -0.35594298322E+03  0.28757853045E+03  0.10862187081E+04  0.80000000000E+03 0.  0.
<mgrwt>
<rscale>  0 0.20990532E+04</rscale>
<asrwt>0</asrwt>
<pdfrwt beam="2">  1        1 0.11561364E+00 0.20990532E+04</pdfrwt>
<pdfrwt beam="1">  1       -1 0.22550237E+00 0.20990532E+04</pdfrwt>
<totfact> 0.22705785E+00</totfact>
</mgrwt>
</event>
<event>
 4    1  0.7144937E-008  0.2348488E+04  0.7816531E-02  0.8459045E-01
          2   -1    0    0  501    0  0.00000000000E+00  0.00000000000E+00  0.22994468966E+04  0.22994468966E+04  0.00000000000E+00 0.  1.
         -2   -1    0    0    0  501 -0.00000000000E+00 -0.00000000000E+00 -0.59964359919E+03  0.59964359919E+03  0.00000000000E+00 0. -1.
    2000013    1    1    2    0    0 -0.14417130267E+03  0.62589426482E+03  0.14472962352E+03  0.10360867045E+04  0.80000000000E+03 0.  0.
   -2000013    1    1    2    0    0  0.14417130267E+03 -0.62589426482E+03  0.15550736739E+04  0.18630037913E+04  0.80000000000E+03 0.  0.
<mgrwt>
<rscale>  0 0.23484877E+04</rscale>
<asrwt>0</asrwt>
<pdfrwt beam="1">  1        2 0.35376106E+00 0.23484877E+04</pdfrwt>
<pdfrwt beam="2">  1       -2 0.92252862E-01 0.23484877E+04</pdfrwt>
<totfact> 0.40881445E+00</totfact>
</mgrwt>
</event>
<event>
 4    1  0.7144937E-008  0.4357771E+04  0.7816531E-02  0.7936021E-01
         -2   -1    0    0    0  501 -0.00000000000E+00  0.00000000000E+00  0.19406787165E+04  0.19406787165E+04  0.00000000000E+00 0. -1.
          2   -1    0    0  501    0  0.00000000000E+00 -0.00000000000E+00 -0.24463306296E+04  0.24463306296E+04  0.00000000000E+00 0.  1.
    2000013    1    1    2    0    0 -0.13887136501E+04 -0.14230619050E+04 -0.64777311569E+03  0.22390267522E+04  0.80000000000E+03 0.  0.
   -2000013    1    1    2    0    0  0.13887136501E+04  0.14230619050E+04  0.14212120267E+03  0.21479825939E+04  0.80000000000E+03 0.  0.
<mgrwt>
<rscale>  0 0.43577709E+04</rscale>
<asrwt>0</asrwt>
<pdfrwt beam="2">  1        2 0.37635856E+00 0.43577709E+04</pdfrwt>
<pdfrwt beam="1">  1       -2 0.29856595E+00 0.43577709E+04</pdfrwt>
<totfact> 0.92945889E-02</totfact>
</mgrwt>
</event>
<event>
 4    1  0.7144937E-008  0.1669605E+04  0.7816531E-02  0.8778892E-01
         -2   -1    0    0    0  501 -0.00000000000E+00  0.00000000000E+00  0.93149019015E+03  0.93149019015E+03  0.00000000000E+00 0. -1.
          2   -1    0    0  501    0  0.00000000000E+00 -0.00000000000E+00 -0.74815101542E+03  0.74815101542E+03  0.00000000000E+00 0.  1.
    2000013    1    1    2    0    0  0.32256434668E+02 -0.23311889458E+03  0.52571656829E+02  0.83555291615E+03  0.80000000000E+03 0.  0.
   -2000013    1    1    2    0    0 -0.32256434668E+02  0.23311889458E+03  0.13076751790E+03  0.84408828941E+03  0.80000000000E+03 0.  0.
<mgrwt>
<rscale>  0 0.16696051E+04</rscale>
<asrwt>0</asrwt>
<pdfrwt beam="2">  1        2 0.11510016E+00 0.16696051E+04</pdfrwt>
<pdfrwt beam="1">  1       -2 0.14330618E+00 0.16696051E+04</pdfrwt>
<totfact> 0.12120972E+01</totfact>
</mgrwt>
</event>
<event>
 4    1  0.7144937E-008  0.2092411E+04  0.7816531E-02  0.8564594E-01
         -2   -1    0    0    0  501 -0.00000000000E+00  0.00000000000E+00  0.17254939315E+04  0.17254939315E+04  0.00000000000E+00 0. -1.
          2   -1    0    0  501    0  0.00000000000E+00 -0.00000000000E+00 -0.63433798521E+03  0.63433798521E+03  0.00000000000E+00 0.  1.
    2000013    1    1    2    0    0  0.27134747062E+03  0.61650684049E+03  0.57819103964E+03  0.11949958211E+04  0.80000000000E+03 0.  0.
   -2000013    1    1    2    0    0 -0.27134747062E+03 -0.61650684049E+03  0.51296490668E+03  0.11648360956E+04  0.80000000000E+03 0.  0.
<mgrwt>
<rscale>  0 0.20924114E+04</rscale>
<asrwt>0</asrwt>
<pdfrwt beam="2">  1        2 0.97590460E-01 0.20924114E+04</pdfrwt>
<pdfrwt beam="1">  1       -2 0.26546060E+00 0.20924114E+04</pdfrwt>
<totfact> 0.22076460E+00</totfact>
</mgrwt>
</event>
<event>
 4    1  0.7144937E-008  0.2130347E+04  0.7816531E-02  0.8547992E-01
         -1   -1    0    0    0  501 -0.00000000000E+00  0.00000000000E+00  0.84110431303E+03  0.84110431303E+03  0.00000000000E+00 0. -1.
          1   -1    0    0  501    0  0.00000000000E+00 -0.00000000000E+00 -0.13489341760E+04  0.13489341760E+04  0.00000000000E+00 0.  1.
    2000013    1    1    2    0    0 -0.50589642583E+03  0.41742602814E+03  0.70050401022E+01  0.10345166761E+04  0.80000000000E+03 0.  0.
   -2000013    1    1    2    0    0  0.50589642583E+03 -0.41742602814E+03 -0.51483490309E+03  0.11555218129E+04  0.80000000000E+03 0.  0.
<mgrwt>
<rscale>  0 0.21303468E+04</rscale>
<asrwt>0</asrwt>
<pdfrwt beam="2">  1        1 0.20752833E+00 0.21303468E+04</pdfrwt>
<pdfrwt beam="1">  1       -1 0.12940066E+00 0.21303468E+04</pdfrwt>
<totfact> 0.39291679E+00</totfact>
</mgrwt>
</event>
<event>
 4    1  0.7144937E-008  0.2143275E+04  0.7816531E-02  0.8542417E-01
         -1   -1    0    0    0  501 -0.00000000000E+00  0.00000000000E+00  0.20510116479E+04  0.20510116479E+04  0.00000000000E+00 0. -1.
          1   -1    0    0  501    0  0.00000000000E+00 -0.00000000000E+00 -0.55992198504E+03  0.55992198504E+03  0.00000000000E+00 0.  1.
    2000013    1    1    2    0    0  0.42051186410E+03 -0.40757372136E+03  0.12410685579E+04  0.15884576581E+04  0.80000000000E+03 0.  0.
   -2000013    1    1    2    0    0 -0.42051186410E+03  0.40757372136E+03  0.25002110496E+03  0.10224759748E+04  0.80000000000E+03 0.  0.
<mgrwt>
<rscale>  0 0.21432746E+04</rscale>
<asrwt>0</asrwt>
<pdfrwt beam="2">  1        1 0.86141845E-01 0.21432746E+04</pdfrwt>
<pdfrwt beam="1">  1       -1 0.31554025E+00 0.21432746E+04</pdfrwt>
<totfact> 0.90743776E-01</totfact>
</mgrwt>
</event>
<event>
 4    1  0.7144937E-008  0.2273685E+04  0.7816531E-02  0.8488369E-01
         -2   -1    0    0    0  501 -0.00000000000E+00  0.00000000000E+00  0.44068513332E+03  0.44068513332E+03  0.00000000000E+00 0. -1.
          2   -1    0    0  501    0  0.00000000000E+00 -0.00000000000E+00 -0.29327319627E+04  0.29327319627E+04  0.00000000000E+00 0.  1.
    2000013    1    1    2    0    0  0.37324792997E+03 -0.65746014174E+03 -0.82416931952E+03  0.13750719699E+04  0.80000000000E+03 0.  0.
   -2000013    1    1    2    0    0 -0.37324792997E+03  0.65746014174E+03 -0.16678775099E+04  0.19983451261E+04  0.80000000000E+03 0.  0.
<mgrwt>
<rscale>  0 0.22736854E+04</rscale>
<asrwt>0</asrwt>
<pdfrwt beam="2">  1        2 0.45118955E+00 0.22736854E+04</pdfrwt>
<pdfrwt beam="1">  1       -2 0.67797711E-01 0.22736854E+04</pdfrwt>
<totfact> 0.34750256E+00</totfact>
</mgrwt>
</event>
<event>
 4    1  0.7144937E-008  0.2230493E+04  0.7816531E-02  0.8505843E-01
          1   -1    0    0  501    0  0.00000000000E+00  0.00000000000E+00  0.27133712697E+04  0.27133712697E+04  0.00000000000E+00 0.  1.
         -1   -1    0    0    0  501 -0.00000000000E+00 -0.00000000000E+00 -0.45838703177E+03  0.45838703177E+03  0.00000000000E+00 0. -1.
    2000013    1    1    2    0    0 -0.77561701910E+03  0.44755130826E+02  0.11470631009E+04  0.15997932803E+04  0.80000000000E+03 0.  0.
   -2000013    1    1    2    0    0  0.77561701910E+03 -0.44755130826E+02  0.11079211370E+04  0.15719650212E+04  0.80000000000E+03 0.  0.
<mgrwt>
<rscale>  0 0.22304925E+04</rscale>
<asrwt>0</asrwt>
<pdfrwt beam="1">  1        1 0.41744173E+00 0.22304925E+04</pdfrwt>
<pdfrwt beam="2">  1       -1 0.70521083E-01 0.22304925E+04</pdfrwt>
<totfact> 0.17746545E+00</totfact>
</mgrwt>
</event>
<event>
 4    1  0.7144937E-008  0.3559847E+04  0.7816531E-02  0.8099752E-01
         -2   -1    0    0    0  501 -0.00000000000E+00  0.00000000000E+00  0.17916719772E+04  0.17916719772E+04  0.00000000000E+00 0. -1.
          2   -1    0    0  501    0  0.00000000000E+00 -0.00000000000E+00 -0.17682523889E+04  0.17682523889E+04  0.00000000000E+00 0.  1.
    2000013    1    1    2    0    0 -0.64538543057E+03  0.85234426150E+03  0.11886444179E+04  0.17877048544E+04  0.80000000000E+03 0.  0.
   -2000013    1    1    2    0    0  0.64538543057E+03 -0.85234426150E+03 -0.11652248297E+04  0.17722195117E+04  0.80000000000E+03 0.  0.
<mgrwt>
<rscale>  0 0.35598473E+04</rscale>
<asrwt>0</asrwt>
<pdfrwt beam="2">  1        2 0.27203883E+00 0.35598473E+04</pdfrwt>
<pdfrwt beam="1">  1       -2 0.27564184E+00 0.35598473E+04</pdfrwt>
<totfact> 0.32899186E-01</totfact>
</mgrwt>
</event>
<event>
 4    1  0.7144937E-008  0.2381593E+04  0.7816531E-02  0.8446427E-01
         -1   -1    0    0    0  501 -0.00000000000E+00  0.00000000000E+00  0.56525237506E+03  0.56525237506E+03  0.00000000000E+00 0.  1.
          1   -1    0    0  501    0  0.00000000000E+00 -0.00000000000E+00 -0.25086066382E+04  0.25086066382E+04  0.00000000000E+00 0. -1.
    2000013    1    1    2    0    0  0.30680119792E+03  0.75780029795E+03 -0.54437329843E+03  0.12667795999E+04  0.80000000000E+03 0.  0.
   -2000013    1    1    2    0    0 -0.30680119792E+03 -0.75780029795E+03 -0.13989809647E+04  0.18070794133E+04  0.80000000000E+03 0.  0.
<mgrwt>
<rscale>  0 0.23815926E+04</rscale>
<asrwt>0</asrwt>
<pdfrwt beam="2">  1        1 0.38593948E+00 0.23815926E+04</pdfrwt>
<pdfrwt beam="1">  1       -1 0.86961904E-01 0.23815926E+04</pdfrwt>
<totfact> 0.15620045E+00</totfact>
</mgrwt>
</event>
<event>
 4    1  0.7144937E-008  0.2741413E+04  0.7816531E-02  0.8321692E-01
         -2   -1    0    0    0  501 -0.00000000000E+00  0.00000000000E+00  0.21290490304E+04  0.21290490304E+04  0.00000000000E+00 0. -1.
          2   -1    0    0  501    0  0.00000000000E+00 -0.00000000000E+00 -0.88247659164E+03  0.88247659164E+03  0.00000000000E+00 0.  1.
    2000013    1    1    2    0    0  0.68230386014E+03  0.47481879777E+02  0.15878954068E+04  0.19050472197E+04  0.80000000000E+03 0.  0.
   -2000013    1    1    2    0    0 -0.68230386014E+03 -0.47481879777E+02 -0.34132296797E+03  0.11064784024E+04  0.80000000000E+03 0.  0.
<mgrwt>
<rscale>  0 0.27414127E+04</rscale>
<asrwt>0</asrwt>
<pdfrwt beam="2">  1        2 0.13576563E+00 0.27414127E+04</pdfrwt>
<pdfrwt beam="1">  1       -2 0.32754600E+00 0.27414127E+04</pdfrwt>
<totfact> 0.56659150E-01</totfact>
</mgrwt>
</event>
<event>
 4    1  0.7144937E-008  0.1912366E+04  0.7816531E-02  0.8648725E-01
          2   -1    0    0  501    0  0.00000000000E+00  0.00000000000E+00  0.17401549838E+04  0.17401549838E+04  0.00000000000E+00 0. -1.
         -2   -1    0    0    0  501 -0.00000000000E+00 -0.00000000000E+00 -0.52540495982E+03  0.52540495982E+03  0.00000000000E+00 0.  1.
    2000013    1    1    2    0    0  0.51771348413E+03  0.75299004672E+02  0.57862663395E+03  0.11173656399E+04  0.80000000000E+03 0.  0.
   -2000013    1    1    2    0    0 -0.51771348413E+03 -0.75299004672E+02  0.63612339007E+03  0.11481943037E+04  0.80000000000E+03 0.  0.
<mgrwt>
<rscale>  0 0.19123661E+04</rscale>
<asrwt>0</asrwt>
<pdfrwt beam="1">  1        2 0.26771615E+00 0.19123661E+04</pdfrwt>
<pdfrwt beam="2">  1       -2 0.80831533E-01 0.19123661E+04</pdfrwt>
<totfact> 0.11769365E+01</totfact>
</mgrwt>
</event>
<event>
 4    1  0.7144937E-008  0.2098199E+04  0.7816531E-02  0.8562037E-01
          2   -1    0    0  501    0  0.00000000000E+00  0.00000000000E+00  0.45025482382E+04  0.45025482382E+04  0.00000000000E+00 0.  1.
         -2   -1    0    0    0  501 -0.00000000000E+00 -0.00000000000E+00 -0.24444155289E+03  0.24444155289E+03  0.00000000000E+00 0. -1.
    2000013    1    1    2    0    0 -0.25891121072E+03 -0.26571969154E+03  0.84331887370E+03  0.12201756809E+04  0.80000000000E+03 0.  0.
   -2000013    1    1    2    0    0  0.25891121072E+03  0.26571969154E+03  0.34147878116E+04  0.35268141101E+04  0.80000000000E+03 0.  0.
<mgrwt>
<rscale>  0 0.20981991E+04</rscale>
<asrwt>0</asrwt>
<pdfrwt beam="1">  1        2 0.69269967E+00 0.20981991E+04</pdfrwt>
<pdfrwt beam="2">  1       -2 0.37606396E-01 0.20981991E+04</pdfrwt>
<totfact> 0.76303517E-01</totfact>
</mgrwt>
</event>
<event>
 4    1  0.7144937E-008  0.1942482E+04  0.7816531E-02  0.8633995E-01
          2   -1    0    0  501    0  0.00000000000E+00  0.00000000000E+00  0.29833922000E+04  0.29833922000E+04  0.00000000000E+00 0.  1.
         -2   -1    0    0    0  501 -0.00000000000E+00 -0.00000000000E+00 -0.31618664909E+03  0.31618664909E+03  0.00000000000E+00 0. -1.
    2000013    1    1    2    0    0  0.19863851130E+03  0.30049112694E+03  0.62594684254E+03  0.10777576839E+04  0.80000000000E+03 0.  0.
   -2000013    1    1    2    0    0 -0.19863851130E+03 -0.30049112694E+03  0.20412587083E+04  0.22218211651E+04  0.80000000000E+03 0.  0.
<mgrwt>
<rscale>  0 0.19424817E+04</rscale>
<asrwt>0</asrwt>
<pdfrwt beam="1">  1        2 0.45898340E+00 0.19424817E+04</pdfrwt>
<pdfrwt beam="2">  1       -2 0.48644102E-01 0.19424817E+04</pdfrwt>
<totfact> 0.66799481E+00</totfact>
</mgrwt>
</event>
<event>
 4    1  0.7144937E-008  0.2417847E+04  0.7816531E-02  0.8432852E-01
         -1   -1    0    0    0  501 -0.00000000000E+00  0.00000000000E+00  0.85943478827E+03  0.85943478827E+03  0.00000000000E+00 0. -1.
          1   -1    0    0  501    0  0.00000000000E+00 -0.00000000000E+00 -0.17005313689E+04  0.17005313689E+04  0.00000000000E+00 0.  1.
    2000013    1    1    2    0    0 -0.15268556740E+03  0.54149807209E+03  0.33182803399E+03  0.10327840475E+04  0.80000000000E+03 0.  0.
   -2000013    1    1    2    0    0  0.15268556740E+03 -0.54149807209E+03 -0.11729246146E+04  0.15271821097E+04  0.80000000000E+03 0.  0.
<mgrwt>
<rscale>  0 0.24178468E+04</rscale>
<asrwt>0</asrwt>
<pdfrwt beam="2">  1        1 0.26162021E+00 0.24178468E+04</pdfrwt>
<pdfrwt beam="1">  1       -1 0.13222074E+00 0.24178468E+04</pdfrwt>
<totfact> 0.20698076E+00</totfact>
</mgrwt>
</event>
<event>
 4    1  0.7144937E-008  0.1795331E+04  0.7816531E-02  0.8708786E-01
          2   -1    0    0  501    0  0.00000000000E+00  0.00000000000E+00  0.59407709476E+03  0.59407709476E+03  0.00000000000E+00 0.  1.
         -2   -1    0    0    0  501 -0.00000000000E+00 -0.00000000000E+00 -0.13563956476E+04  0.13563956476E+04  0.00000000000E+00 0. -1.
    2000013    1    1    2    0    0 -0.32894302185E+03  0.23493262309E+03 -0.43445711257E+03  0.99606718231E+03  0.80000000000E+03 0.  0.
   -2000013    1    1    2    0    0  0.32894302185E+03 -0.23493262309E+03 -0.32786144027E+03  0.95440556004E+03  0.80000000000E+03 0.  0.
<mgrwt>
<rscale>  0 0.17953313E+04</rscale>
<asrwt>0</asrwt>
<pdfrwt beam="1">  1        2 0.91396476E-01 0.17953313E+04</pdfrwt>
<pdfrwt beam="2">  1       -2 0.20867625E+00 0.17953313E+04</pdfrwt>
<totfact> 0.55316963E+00</totfact>
</mgrwt>
</event>
<event>
 4    1  0.7144937E-008  0.2138614E+04  0.7816531E-02  0.8544422E-01
          2   -1    0    0  501    0  0.00000000000E+00  0.00000000000E+00  0.22739929116E+04  0.22739929116E+04  0.00000000000E+00 0.  1.
         -2   -1    0    0    0  501 -0.00000000000E+00 -0.00000000000E+00 -0.50282373949E+03  0.50282373949E+03  0.00000000000E+00 0. -1.
    2000013    1    1    2    0    0 -0.18146158866E+03  0.35286349057E+03  0.16493116402E+04  0.18755452107E+04  0.80000000000E+03 0.  0.
   -2000013    1    1    2    0    0  0.18146158866E+03 -0.35286349057E+03  0.12185753196E+03  0.90127144037E+03  0.80000000000E+03 0.  0.
<mgrwt>
<rscale>  0 0.21386141E+04</rscale>
<asrwt>0</asrwt>
<pdfrwt beam="1">  1        2 0.34984506E+00 0.21386141E+04</pdfrwt>
<pdfrwt beam="2">  1       -2 0.77357500E-01 0.21386141E+04</pdfrwt>
<totfact> 0.64215872E+00</totfact>
</mgrwt>
</event>
<event>
 4    1  0.7144937E-008  0.1986758E+04  0.7816531E-02  0.8612837E-01
          2   -1    0    0  501    0  0.00000000000E+00  0.00000000000E+00  0.98518314459E+03  0.98518314459E+03  0.00000000000E+00 0.  1.
         -2   -1    0    0    0  501 -0.00000000000E+00 -0.00000000000E+00 -0.10016426722E+04  0.10016426722E+04  0.00000000000E+00 0. -1.
    2000013    1    1    2    0    0  0.18717056252E+03 -0.54591734621E+03 -0.12546394157E+03  0.99438411542E+03  0.80000000000E+03 0.  0.
   -2000013    1    1    2    0    0 -0.18717056252E+03  0.54591734621E+03  0.10900441396E+03  0.99244170138E+03  0.80000000000E+03 0.  0.
<mgrwt>
<rscale>  0 0.19867576E+04</rscale>
<asrwt>0</asrwt>
<pdfrwt beam="1">  1        2 0.15156664E+00 0.19867576E+04</pdfrwt>
<pdfrwt beam="2">  1       -2 0.15409887E+00 0.19867576E+04</pdfrwt>
<totfact> 0.66769970E+00</totfact>
</mgrwt>
</event>
<event>
 4    1  0.7144937E-008  0.1762138E+04  0.7816531E-02  0.8726697E-01
          2   -1    0    0  501    0  0.00000000000E+00  0.00000000000E+00  0.13418799158E+04  0.13418799158E+04  0.00000000000E+00 0.  1.
         -2   -1    0    0    0  501 -0.00000000000E+00 -0.00000000000E+00 -0.57850388075E+03  0.57850388075E+03  0.00000000000E+00 0. -1.
    2000013    1    1    2    0    0  0.23516697142E+03 -0.27513448596E+03  0.46087891641E+03  0.99167124865E+03  0.80000000000E+03 0.  0.
   -2000013    1    1    2    0    0 -0.23516697142E+03  0.27513448596E+03  0.30249711863E+03  0.92871254788E+03  0.80000000000E+03 0.  0.
<mgrwt>
<rscale>  0 0.17621382E+04</rscale>
<asrwt>0</asrwt>
<pdfrwt beam="1">  1        2 0.20644306E+00 0.17621382E+04</pdfrwt>
<pdfrwt beam="2">  1       -2 0.89000598E-01 0.17621382E+04</pdfrwt>
<totfact> 0.16050839E+01</totfact>
</mgrwt>
</event>
<event>
 4    1  0.7144937E-008  0.2475573E+04  0.7816531E-02  0.8411740E-01
          2   -1    0    0  501    0  0.00000000000E+00  0.00000000000E+00  0.17093875521E+04  0.17093875521E+04  0.00000000000E+00 0.  1.
         -2   -1    0    0    0  501 -0.00000000000E+00 -0.00000000000E+00 -0.89629477083E+03  0.89629477083E+03  0.00000000000E+00 0. -1.
    2000013    1    1    2    0    0 -0.10824842640E+03  0.87872680736E+03  0.75283072350E+03  0.14108978071E+04  0.80000000000E+03 0.  0.
   -2000013    1    1    2    0    0  0.10824842640E+03 -0.87872680736E+03  0.60262057812E+02  0.11947845159E+04  0.80000000000E+03 0.  0.
<mgrwt>
<rscale>  0 0.24755728E+04</rscale>
<asrwt>0</asrwt>
<pdfrwt beam="1">  1        2 0.26298270E+00 0.24755728E+04</pdfrwt>
<pdfrwt beam="2">  1       -2 0.13789150E+00 0.24755728E+04</pdfrwt>
<totfact> 0.32355060E+00</totfact>
</mgrwt>
</event>
<event>
 4    1  0.7144937E-008  0.2956682E+04  0.7816531E-02  0.8256210E-01
          2   -1    0    0  501    0  0.00000000000E+00  0.00000000000E+00  0.14786017672E+04  0.14786017672E+04  0.00000000000E+00 0.  1.
         -2   -1    0    0    0  501 -0.00000000000E+00 -0.00000000000E+00 -0.14780800881E+04  0.14780800881E+04  0.00000000000E+00 0. -1.
    2000013    1    1    2    0    0 -0.92548368538E+03  0.75913889538E+03  0.33593913708E+03  0.14784001550E+04  0.80000000000E+03 0.  0.
   -2000013    1    1    2    0    0  0.92548368538E+03 -0.75913889538E+03 -0.33541745805E+03  0.14782817003E+04  0.80000000000E+03 0.  0.
<mgrwt>
<rscale>  0 0.29566818E+04</rscale>
<asrwt>0</asrwt>
<pdfrwt beam="1">  1        2 0.22747719E+00 0.29566818E+04</pdfrwt>
<pdfrwt beam="2">  1       -2 0.22739694E+00 0.29566818E+04</pdfrwt>
<totfact> 0.99547413E-01</totfact>
</mgrwt>
</event>
<event>
 4    1  0.7144937E-008  0.2504566E+04  0.7816531E-02  0.8401361E-01
          2   -1    0    0  501    0  0.00000000000E+00  0.00000000000E+00  0.19713569763E+04  0.19713569763E+04  0.00000000000E+00 0.  1.
         -2   -1    0    0    0  501 -0.00000000000E+00 -0.00000000000E+00 -0.79549913326E+03  0.79549913326E+03  0.00000000000E+00 0. -1.
    2000013    1    1    2    0    0 -0.49974420210E+03  0.81567478812E+03  0.71457846474E+03  0.14372515472E+04  0.80000000000E+03 0.  0.
   -2000013    1    1    2    0    0  0.49974420210E+03 -0.81567478812E+03  0.46127937828E+03  0.13296045624E+04  0.80000000000E+03 0.  0.
<mgrwt>
<rscale>  0 0.25045660E+04</rscale>
<asrwt>0</asrwt>
<pdfrwt beam="1">  1        2 0.30328569E+00 0.25045660E+04</pdfrwt>
<pdfrwt beam="2">  1       -2 0.12238448E+00 0.25045660E+04</pdfrwt>
<totfact> 0.31241269E+00</totfact>
</mgrwt>
</event>
<event>
 4    1  0.7144937E-008  0.1989946E+04  0.7816531E-02  0.8611336E-01
         -2   -1    0    0    0  501 -0.00000000000E+00  0.00000000000E+00  0.64549542152E+03  0.64549542152E+03  0.00000000000E+00 0. -1.
          2   -1    0    0  501    0  0.00000000000E+00 -0.00000000000E+00 -0.15336612174E+04  0.15336612174E+04  0.00000000000E+00 0.  1.
    2000013    1    1    2    0    0  0.10118316449E+03 -0.24707493899E+03 -0.10221865210E+04  0.13251978501E+04  0.80000000000E+03 0.  0.
   -2000013    1    1    2    0    0 -0.10118316449E+03  0.24707493899E+03  0.13402072511E+03  0.85395878883E+03  0.80000000000E+03 0.  0.
<mgrwt>
<rscale>  0 0.19899460E+04</rscale>
<asrwt>0</asrwt>
<pdfrwt beam="2">  1        2 0.23594788E+00 0.19899460E+04</pdfrwt>
<pdfrwt beam="1">  1       -2 0.99306989E-01 0.19899460E+04</pdfrwt>
<totfact> 0.94879879E+00</totfact>
</mgrwt>
</event>
<event>
 4    1  0.7144937E-008  0.1977078E+04  0.7816531E-02  0.8617413E-01
         -2   -1    0    0    0  501 -0.00000000000E+00  0.00000000000E+00  0.86799876348E+03  0.86799876348E+03  0.00000000000E+00 0. -1.
          2   -1    0    0  501    0  0.00000000000E+00 -0.00000000000E+00 -0.11258185692E+04  0.11258185692E+04  0.00000000000E+00 0.  1.
    2000013    1    1    2    0    0  0.55103608633E+03  0.14137696651E+03 -0.24643376721E+03  0.10121056352E+04  0.80000000000E+03 0.  0.
   -2000013    1    1    2    0    0 -0.55103608633E+03 -0.14137696651E+03 -0.11386038465E+02  0.98171169748E+03  0.80000000000E+03 0.  0.
<mgrwt>
<rscale>  0 0.19770778E+04</rscale>
<asrwt>0</asrwt>
<pdfrwt beam="2">  1        2 0.17320286E+00 0.19770778E+04</pdfrwt>
<pdfrwt beam="1">  1       -2 0.13353827E+00 0.19770778E+04</pdfrwt>
<totfact> 0.79308791E+00</totfact>
</mgrwt>
</event>
<event>
 4    1  0.7144937E-008  0.1982167E+04  0.7816531E-02  0.8615004E-01
          2   -1    0    0  501    0  0.00000000000E+00  0.00000000000E+00  0.25460864504E+04  0.25460864504E+04  0.00000000000E+00 0.  1.
         -2   -1    0    0    0  501 -0.00000000000E+00 -0.00000000000E+00 -0.38578691112E+03  0.38578691112E+03  0.00000000000E+00 0. -1.
    2000013    1    1    2    0    0 -0.45769028180E+03 -0.54044353211E+02  0.54716035738E+03  0.10732127668E+04  0.80000000000E+03 0.  0.
   -2000013    1    1    2    0    0  0.45769028180E+03  0.54044353211E+02  0.16131391819E+04  0.18586605947E+04  0.80000000000E+03 0.  0.
<mgrwt>
<rscale>  0 0.19821673E+04</rscale>
<asrwt>0</asrwt>
<pdfrwt beam="1">  1        2 0.39170560E+00 0.19821673E+04</pdfrwt>
<pdfrwt beam="2">  1       -2 0.59351834E-01 0.19821673E+04</pdfrwt>
<totfact> 0.80752289E+00</totfact>
</mgrwt>
</event>
<event>
 4    1  0.7144937E-008  0.2889884E+04  0.7816531E-02  0.8275894E-01
          2   -1    0    0  501    0  0.00000000000E+00  0.00000000000E+00  0.10831985779E+04  0.10831985779E+04  0.00000000000E+00 0.  1.
         -2   -1    0    0    0  501 -0.00000000000E+00 -0.00000000000E+00 -0.19274925722E+04  0.19274925722E+04  0.00000000000E+00 0. -1.
    2000013    1    1    2    0    0 -0.10171093752E+04 -0.40228416803E+03 -0.94462280667E+03  0.16518644859E+04  0.80000000000E+03 0.  0.
   -2000013    1    1    2    0    0  0.10171093752E+04  0.40228416803E+03  0.10032881235E+03  0.13588266643E+04  0.80000000000E+03 0.  0.
<mgrwt>
<rscale>  0 0.28898839E+04</rscale>
<asrwt>0</asrwt>
<pdfrwt beam="1">  1        2 0.16664594E+00 0.28898839E+04</pdfrwt>
<pdfrwt beam="2">  1       -2 0.29653731E+00 0.28898839E+04</pdfrwt>
<totfact> 0.64324343E-01</totfact>
</mgrwt>
</event>
<event>
 4    1  0.7144937E-008  0.1984404E+04  0.7816531E-02  0.8613947E-01
          2   -1    0    0  501    0  0.00000000000E+00  0.00000000000E+00  0.44196814358E+03  0.44196814358E+03  0.00000000000E+00 0.  1.
         -2   -1    0    0    0  501 -0.00000000000E+00 -0.00000000000E+00 -0.22274563249E+04  0.22274563249E+04  0.00000000000E+00 0. -1.
    2000013    1    1    2    0    0  0.89364009991E+02  0.55291027877E+03 -0.65678077449E+03  0.11768843139E+04  0.80000000000E+03 0.  0.
   -2000013    1    1    2    0    0 -0.89364009991E+02 -0.55291027877E+03 -0.11287074068E+04  0.14925401545E+04  0.80000000000E+03 0.  0.
<mgrwt>
<rscale>  0 0.19844039E+04</rscale>
<asrwt>0</asrwt>
<pdfrwt beam="1">  1        2 0.67995099E-01 0.19844039E+04</pdfrwt>
<pdfrwt beam="2">  1       -2 0.34268559E+00 0.19844039E+04</pdfrwt>
<totfact> 0.11449833E+00</totfact>
</mgrwt>
</event>
<event>
 4    1  0.7144937E-008  0.1951093E+04  0.7816531E-02  0.8629834E-01
          2   -1    0    0  501    0  0.00000000000E+00  0.00000000000E+00  0.14132542854E+04  0.14132542854E+04  0.00000000000E+00 0. -1.
         -2   -1    0    0    0  501 -0.00000000000E+00 -0.00000000000E+00 -0.67340402237E+03  0.67340402237E+03  0.00000000000E+00 0.  1.
    2000013    1    1    2    0    0 -0.44437771044E+03 -0.71070334023E+02  0.16561245620E+02  0.91803965970E+03  0.80000000000E+03 0.  0.
   -2000013    1    1    2    0    0  0.44437771044E+03  0.71070334023E+02  0.72328901738E+03  0.11686186481E+04  0.80000000000E+03 0.  0.
<mgrwt>
<rscale>  0 0.19510932E+04</rscale>
<asrwt>0</asrwt>
<pdfrwt beam="1">  1        2 0.21742374E+00 0.19510932E+04</pdfrwt>
<pdfrwt beam="2">  1       -2 0.10360062E+00 0.19510932E+04</pdfrwt>
<totfact> 0.10070199E+01</totfact>
</mgrwt>
</event>
<event>
 4    1  0.7144937E-008  0.1949724E+04  0.7816531E-02  0.8630494E-01
         -2   -1    0    0    0  501 -0.00000000000E+00  0.00000000000E+00  0.38246470315E+03  0.38246470315E+03  0.00000000000E+00 0.  1.
          2   -1    0    0  501    0  0.00000000000E+00 -0.00000000000E+00 -0.24848198516E+04  0.24848198516E+04  0.00000000000E+00 0. -1.
    2000013    1    1    2    0    0  0.50718058527E+03  0.17680718629E+03 -0.83373121412E+03  0.12742058957E+04  0.80000000000E+03 0.  0.
   -2000013    1    1    2    0    0 -0.50718058527E+03 -0.17680718629E+03 -0.12686239343E+04  0.15930786591E+04  0.80000000000E+03 0.  0.
<mgrwt>
<rscale>  0 0.19497240E+04</rscale>
<asrwt>0</asrwt>
<pdfrwt beam="2">  1        2 0.38227995E+00 0.19497240E+04</pdfrwt>
<pdfrwt beam="1">  1       -2 0.58840727E-01 0.19497240E+04</pdfrwt>
<totfact> 0.89494545E+00</totfact>
</mgrwt>
</event>
<event>
 4    1  0.7144937E-008  0.1876634E+04  0.7816531E-02  0.8666576E-01
         -2   -1    0    0    0  501 -0.00000000000E+00  0.00000000000E+00  0.32172045184E+03  0.32172045184E+03  0.00000000000E+00 0. -1.
          2   -1    0    0  501    0  0.00000000000E+00 -0.00000000000E+00 -0.27366563906E+04  0.27366563906E+04  0.00000000000E+00 0.  1.
    2000013    1    1    2    0    0 -0.25681858738E+03 -0.35656142171E+03 -0.85285431592E+03  0.12491806589E+04  0.80000000000E+03 0.  0.
   -2000013    1    1    2    0    0  0.25681858738E+03  0.35656142171E+03 -0.15620816228E+04  0.18091961836E+04  0.80000000000E+03 0.  0.
<mgrwt>
<rscale>  0 0.18766335E+04</rscale>
<asrwt>0</asrwt>
<pdfrwt beam="2">  1        2 0.42102407E+00 0.18766335E+04</pdfrwt>
<pdfrwt beam="1">  1       -2 0.49495453E-01 0.18766335E+04</pdfrwt>
<totfact> 0.91694607E+00</totfact>
</mgrwt>
</event>
<event>
 4    1  0.7144937E-008  0.1973509E+04  0.7816531E-02  0.8619107E-01
         -2   -1    0    0    0  501 -0.00000000000E+00  0.00000000000E+00  0.30741031579E+03  0.30741031579E+03  0.00000000000E+00 0. -1.
          2   -1    0    0  501    0  0.00000000000E+00 -0.00000000000E+00 -0.31673765765E+04  0.31673765765E+04  0.00000000000E+00 0.  1.
    2000013    1    1    2    0    0 -0.20850531887E+03 -0.39628994728E+03 -0.78746912805E+03  0.12085643624E+04  0.80000000000E+03 0.  0.
   -2000013    1    1    2    0    0  0.20850531887E+03  0.39628994728E+03 -0.20724971326E+04  0.22662225299E+04  0.80000000000E+03 0.  0.
<mgrwt>
<rscale>  0 0.19735088E+04</rscale>
<asrwt>0</asrwt>
<pdfrwt beam="2">  1        2 0.48728875E+00 0.19735088E+04</pdfrwt>
<pdfrwt beam="1">  1       -2 0.47293891E-01 0.19735088E+04</pdfrwt>
<totfact> 0.53912763E+00</totfact>
</mgrwt>
</event>
<event>
 4    1  0.7144937E-008  0.2525814E+04  0.7816531E-02  0.8393846E-01
          2   -1    0    0  501    0  0.00000000000E+00  0.00000000000E+00  0.24851730168E+04  0.24851730168E+04  0.00000000000E+00 0.  1.
         -2   -1    0    0    0  501 -0.00000000000E+00 -0.00000000000E+00 -0.64177991541E+03  0.64177991541E+03  0.00000000000E+00 0. -1.
    2000013    1    1    2    0    0  0.51081773994E+03  0.82000109000E+03  0.11036341639E+04  0.16707318512E+04  0.80000000000E+03 0.  0.
   -2000013    1    1    2    0    0 -0.51081773994E+03 -0.82000109000E+03  0.73975893749E+03  0.14562210810E+04  0.80000000000E+03 0.  0.
<mgrwt>
<rscale>  0 0.25258140E+04</rscale>
<asrwt>0</asrwt>
<pdfrwt beam="1">  1        2 0.38233431E+00 0.25258140E+04</pdfrwt>
<pdfrwt beam="2">  1       -2 0.98735373E-01 0.25258140E+04</pdfrwt>
<totfact> 0.26895241E+00</totfact>
</mgrwt>
</event>
<event>
 4    1  0.7144937E-008  0.2098188E+04  0.7816531E-02  0.8562042E-01
         -2   -1    0    0    0  501 -0.00000000000E+00  0.00000000000E+00  0.71361372148E+03  0.71361372148E+03  0.00000000000E+00 0. -1.
          2   -1    0    0  501    0  0.00000000000E+00 -0.00000000000E+00 -0.15422890025E+04  0.15422890025E+04  0.00000000000E+00 0.  1.
    2000013    1    1    2    0    0 -0.46041168839E+03 -0.25226585801E+03 -0.87676143401E+03  0.12978164732E+04  0.80000000000E+03 0.  0.
   -2000013    1    1    2    0    0  0.46041168839E+03  0.25226585801E+03  0.48086152943E+02  0.95808625083E+03  0.80000000000E+03 0.  0.
<mgrwt>
<rscale>  0 0.20981884E+04</rscale>
<asrwt>0</asrwt>
<pdfrwt beam="2">  1        2 0.23727523E+00 0.20981884E+04</pdfrwt>
<pdfrwt beam="1">  1       -2 0.10978673E+00 0.20981884E+04</pdfrwt>
<totfact> 0.73114318E+00</totfact>
</mgrwt>
</event>
<event>
 4    1  0.7144937E-008  0.2684304E+04  0.7816531E-02  0.8340116E-01
         -2   -1    0    0    0  501 -0.00000000000E+00  0.00000000000E+00  0.11602349675E+04  0.11602349675E+04  0.00000000000E+00 0. -1.
          2   -1    0    0  501    0  0.00000000000E+00 -0.00000000000E+00 -0.15525921219E+04  0.15525921219E+04  0.00000000000E+00 0.  1.
    2000013    1    1    2    0    0 -0.97702015350E+03  0.38658334789E+03 -0.43821580584E+03  0.13914194758E+04  0.80000000000E+03 0.  0.
   -2000013    1    1    2    0    0  0.97702015350E+03 -0.38658334789E+03  0.45858651452E+02  0.13214076135E+04  0.80000000000E+03 0.  0.
<mgrwt>
<rscale>  0 0.26843038E+04</rscale>
<asrwt>0</asrwt>
<pdfrwt beam="2">  1        2 0.23886032E+00 0.26843038E+04</pdfrwt>
<pdfrwt beam="1">  1       -2 0.17849769E+00 0.26843038E+04</pdfrwt>
<totfact> 0.19346172E+00</totfact>
</mgrwt>
</event>
<event>
 4    1  0.7144937E-008  0.2714318E+04  0.7816531E-02  0.8330374E-01
         -2   -1    0    0    0  501 -0.00000000000E+00  0.00000000000E+00  0.66122392784E+03  0.66122392784E+03  0.00000000000E+00 0.  1.
          2   -1    0    0  501    0  0.00000000000E+00 -0.00000000000E+00 -0.27855628209E+04  0.27855628209E+04  0.00000000000E+00 0. -1.
    2000013    1    1    2    0    0  0.51596207119E+03  0.96464504415E+03 -0.97127178888E+03  0.16673709269E+04  0.80000000000E+03 0.  0.
   -2000013    1    1    2    0    0 -0.51596207119E+03 -0.96464504415E+03 -0.11530671041E+04  0.17794158218E+04  0.80000000000E+03 0.  0.
<mgrwt>
<rscale>  0 0.27143182E+04</rscale>
<asrwt>0</asrwt>
<pdfrwt beam="2">  1        2 0.42854813E+00 0.27143182E+04</pdfrwt>
<pdfrwt beam="1">  1       -2 0.10172676E+00 0.27143182E+04</pdfrwt>
<totfact> 0.16389794E+00</totfact>
</mgrwt>
</event>
<event>
 4    1  0.7144937E-008  0.2562644E+04  0.7816531E-02  0.8381002E-01
          1   -1    0    0  501    0  0.00000000000E+00  0.00000000000E+00  0.31428060724E+04  0.31428060724E+04  0.00000000000E+00 0.  1.
         -1   -1    0    0    0  501 -0.00000000000E+00 -0.00000000000E+00 -0.52239494748E+03  0.52239494748E+03  0.00000000000E+00 0. -1.
    2000013    1    1    2    0    0  0.89984734695E+03  0.17318951418E+03  0.73442672966E+03  0.14209512577E+04  0.80000000000E+03 0.  0.
   -2000013    1    1    2    0    0 -0.89984734695E+03 -0.17318951418E+03  0.18859843952E+04  0.22442497621E+04  0.80000000000E+03 0.  0.
<mgrwt>
<rscale>  0 0.25626440E+04</rscale>
<asrwt>0</asrwt>
<pdfrwt beam="1">  1        1 0.48350862E+00 0.25626440E+04</pdfrwt>
<pdfrwt beam="2">  1       -1 0.80368455E-01 0.25626440E+04</pdfrwt>
<totfact> 0.64019046E-01</totfact>
</mgrwt>
</event>
<event>
 4    1  0.7144937E-008  0.2502256E+04  0.7816531E-02  0.8402182E-01
         -2   -1    0    0    0  501 -0.00000000000E+00  0.00000000000E+00  0.13124310896E+04  0.13124310896E+04  0.00000000000E+00 0. -1.
          2   -1    0    0  501    0  0.00000000000E+00 -0.00000000000E+00 -0.11926879918E+04  0.11926879918E+04  0.00000000000E+00 0.  1.
    2000013    1    1    2    0    0  0.42167240235E+03  0.34697262264E+03 -0.73294577180E+03  0.12146633773E+04  0.80000000000E+03 0.  0.
   -2000013    1    1    2    0    0 -0.42167240235E+03 -0.34697262264E+03  0.85268886961E+03  0.12904557041E+04  0.80000000000E+03 0.  0.
<mgrwt>
<rscale>  0 0.25022556E+04</rscale>
<asrwt>0</asrwt>
<pdfrwt beam="2">  1        2 0.18349046E+00 0.25022556E+04</pdfrwt>
<pdfrwt beam="1">  1       -2 0.20191248E+00 0.25022556E+04</pdfrwt>
<totfact> 0.22044457E+00</totfact>
</mgrwt>
</event>
<event>
 4    1  0.7144937E-008  0.1960972E+04  0.7816531E-02  0.8625088E-01
         -2   -1    0    0    0  501 -0.00000000000E+00  0.00000000000E+00  0.64422251867E+03  0.64422251867E+03  0.00000000000E+00 0. -1.
          2   -1    0    0  501    0  0.00000000000E+00 -0.00000000000E+00 -0.14922678693E+04  0.14922678693E+04  0.00000000000E+00 0.  1.
    2000013    1    1    2    0    0 -0.37346931060E+03 -0.15201987593E+03 -0.85813740340E+03  0.12405600234E+04  0.80000000000E+03 0.  0.
   -2000013    1    1    2    0    0  0.37346931060E+03  0.15201987593E+03  0.10092052717E+02  0.89593036457E+03  0.80000000000E+03 0.  0.
<mgrwt>
<rscale>  0 0.19609718E+04</rscale>
<asrwt>0</asrwt>
<pdfrwt beam="2">  1        2 0.22957967E+00 0.19609718E+04</pdfrwt>
<pdfrwt beam="1">  1       -2 0.99111158E-01 0.19609718E+04</pdfrwt>
<totfact> 0.10082888E+01</totfact>
</mgrwt>
</event>
<event>
 4    1  0.7144937E-008  0.1705389E+04  0.7816531E-02  0.8758297E-01
          2   -1    0    0  501    0  0.00000000000E+00  0.00000000000E+00  0.38509675492E+04  0.38509675492E+04  0.00000000000E+00 0.  1.
         -2   -1    0    0    0  501 -0.00000000000E+00 -0.00000000000E+00 -0.18880661281E+03  0.18880661281E+03  0.00000000000E+00 0. -1.
    2000013    1    1    2    0    0 -0.25403997495E+03  0.82287022770E+02  0.15335055222E+04  0.17501276095E+04  0.80000000000E+03 0.  0.
   -2000013    1    1    2    0    0  0.25403997495E+03 -0.82287022770E+02  0.21286554141E+04  0.22896465524E+04  0.80000000000E+03 0.  0.
<mgrwt>
<rscale>  0 0.17053893E+04</rscale>
<asrwt>0</asrwt>
<pdfrwt beam="1">  1        2 0.59245649E+00 0.17053893E+04</pdfrwt>
<pdfrwt beam="2">  1       -2 0.29047174E-01 0.17053893E+04</pdfrwt>
<totfact> 0.47181780E+00</totfact>
</mgrwt>
</event>
<event>
 4    1  0.7144937E-008  0.2662897E+04  0.7816531E-02  0.8347145E-01
         -1   -1    0    0    0  501 -0.00000000000E+00  0.00000000000E+00  0.18537595039E+04  0.18537595039E+04  0.00000000000E+00 0.  1.
          1   -1    0    0  501    0  0.00000000000E+00 -0.00000000000E+00 -0.95630263671E+03  0.95630263671E+03  0.00000000000E+00 0. -1.
    2000013    1    1    2    0    0  0.10521740199E+04  0.14232722621E+03  0.37098258077E+03  0.13802011747E+04  0.80000000000E+03 0.  0.
   -2000013    1    1    2    0    0 -0.10521740199E+04 -0.14232722621E+03  0.52647428647E+03  0.14298609659E+04  0.80000000000E+03 0.  0.
<mgrwt>
<rscale>  0 0.26628970E+04</rscale>
<asrwt>0</asrwt>
<pdfrwt beam="2">  1        1 0.14712348E+00 0.26628970E+04</pdfrwt>
<pdfrwt beam="1">  1       -1 0.28519377E+00 0.26628970E+04</pdfrwt>
<totfact> 0.59111119E-01</totfact>
</mgrwt>
</event>
<event>
 4    1  0.7144937E-008  0.2989552E+04  0.7816531E-02  0.8246721E-01
          2   -1    0    0  501    0  0.00000000000E+00  0.00000000000E+00  0.43460264519E+04  0.43460264519E+04  0.00000000000E+00 0.  1.
         -2   -1    0    0    0  501 -0.00000000000E+00 -0.00000000000E+00 -0.51411461439E+03  0.51411461439E+03  0.00000000000E+00 0. -1.
    2000013    1    1    2    0    0 -0.49739782371E+03 -0.10649930391E+04  0.26657953318E+04  0.30212711760E+04  0.80000000000E+03 0.  0.
   -2000013    1    1    2    0    0  0.49739782371E+03  0.10649930391E+04  0.11661165057E+04  0.18388698902E+04  0.80000000000E+03 0.  0.
<mgrwt>
<rscale>  0 0.29895523E+04</rscale>
<asrwt>0</asrwt>
<pdfrwt beam="1">  1        2 0.66861943E+00 0.29895523E+04</pdfrwt>
<pdfrwt beam="2">  1       -2 0.79094559E-01 0.29895523E+04</pdfrwt>
<totfact> 0.20915305E-01</totfact>
</mgrwt>
</event>
<event>
 4    1  0.7144937E-008  0.3396033E+04  0.7816531E-02  0.8138881E-01
         -2   -1    0    0    0  501 -0.00000000000E+00  0.00000000000E+00  0.18823929536E+04  0.18823929536E+04  0.00000000000E+00 0. -1.
          2   -1    0    0  501    0  0.00000000000E+00 -0.00000000000E+00 -0.15316990064E+04  0.15316990064E+04  0.00000000000E+00 0.  1.
    2000013    1    1    2    0    0  0.61204129552E+03  0.99659314498E+03  0.11159865408E+04  0.18036680413E+04  0.80000000000E+03 0.  0.
   -2000013    1    1    2    0    0 -0.61204129552E+03 -0.99659314498E+03 -0.76529259364E+03  0.16104239187E+04  0.80000000000E+03 0.  0.
<mgrwt>
<rscale>  0 0.33960326E+04</rscale>
<asrwt>0</asrwt>
<pdfrwt beam="2">  1        2 0.23564600E+00 0.33960326E+04</pdfrwt>
<pdfrwt beam="1">  1       -2 0.28959892E+00 0.33960326E+04</pdfrwt>
<totfact> 0.37143882E-01</totfact>
</mgrwt>
</event>
<event>
 4    1  0.7144937E-008  0.1766536E+04  0.7816531E-02  0.8724300E-01
          4   -1    0    0  501    0  0.00000000000E+00  0.00000000000E+00  0.76649016676E+03  0.76649016676E+03  0.00000000000E+00 0.  1.
         -4   -1    0    0    0  501 -0.00000000000E+00 -0.00000000000E+00 -0.10178373355E+04  0.10178373355E+04  0.00000000000E+00 0. -1.
    2000013    1    1    2    0    0 -0.25137388815E+03  0.27009486779E+03 -0.61613712074E+02  0.88314003350E+03  0.80000000000E+03 0.  0.
   -2000013    1    1    2    0    0  0.25137388815E+03 -0.27009486779E+03 -0.18973345665E+03  0.90118746875E+03  0.80000000000E+03 0.  0.
<mgrwt>
<rscale>  0 0.17665359E+04</rscale>
<asrwt>0</asrwt>
<pdfrwt beam="1">  1        4 0.11792156E+00 0.17665359E+04</pdfrwt>
<pdfrwt beam="2">  1       -4 0.15659036E+00 0.17665359E+04</pdfrwt>
<totfact> 0.27791299E-01</totfact>
</mgrwt>
</event>
<event>
 4    1  0.7144937E-008  0.4283772E+04  0.7816531E-02  0.7949626E-01
          2   -1    0    0  501    0  0.00000000000E+00  0.00000000000E+00  0.26110746314E+04  0.26110746314E+04  0.00000000000E+00 0. -1.
         -2   -1    0    0    0  501 -0.00000000000E+00 -0.00000000000E+00 -0.17570064635E+04  0.17570064635E+04  0.00000000000E+00 0.  1.
    2000013    1    1    2    0    0 -0.10933808701E+04 -0.12032351351E+04 -0.73755535474E+03  0.19563344343E+04  0.80000000000E+03 0.  0.
   -2000013    1    1    2    0    0  0.10933808701E+04  0.12032351351E+04  0.15916235226E+04  0.24117466607E+04  0.80000000000E+03 0.  0.
<mgrwt>
<rscale>  0 0.42837717E+04</rscale>
<asrwt>0</asrwt>
<pdfrwt beam="1">  1        2 0.40170379E+00 0.42837717E+04</pdfrwt>
<pdfrwt beam="2">  1       -2 0.27030869E+00 0.42837717E+04</pdfrwt>
<totfact> 0.11154153E-01</totfact>
</mgrwt>
</event>
<event>
 4    1  0.7144937E-008  0.2070250E+04  0.7816531E-02  0.8574463E-01
          1   -1    0    0  501    0  0.00000000000E+00  0.00000000000E+00  0.14818974503E+04  0.14818974503E+04  0.00000000000E+00 0. -1.
         -1   -1    0    0    0  501 -0.00000000000E+00 -0.00000000000E+00 -0.72304832703E+03  0.72304832703E+03  0.00000000000E+00 0.  1.
    2000013    1    1    2    0    0 -0.11959443606E+03 -0.63811240167E+03  0.27295447690E+03  0.10658303865E+04  0.80000000000E+03 0.  0.
   -2000013    1    1    2    0    0  0.11959443606E+03  0.63811240167E+03  0.48589464638E+03  0.11391153909E+04  0.80000000000E+03 0.  0.
<mgrwt>
<rscale>  0 0.20702497E+04</rscale>
<asrwt>0</asrwt>
<pdfrwt beam="1">  1        1 0.22798422E+00 0.20702497E+04</pdfrwt>
<pdfrwt beam="2">  1       -1 0.11123820E+00 0.20702497E+04</pdfrwt>
<totfact> 0.46142985E+00</totfact>
</mgrwt>
</event>
<event>
 4    1  0.7144937E-008  0.2001542E+04  0.7816531E-02  0.8605900E-01
          2   -1    0    0  501    0  0.00000000000E+00  0.00000000000E+00  0.21283242335E+04  0.21283242335E+04  0.00000000000E+00 0.  1.
         -2   -1    0    0    0  501 -0.00000000000E+00 -0.00000000000E+00 -0.47057792289E+03  0.47057792289E+03  0.00000000000E+00 0. -1.
    2000013    1    1    2    0    0  0.12287116293E+03  0.58309413412E+03  0.72462204400E+03  0.12329530399E+04  0.80000000000E+03 0.  0.
   -2000013    1    1    2    0    0 -0.12287116293E+03 -0.58309413412E+03  0.93312426659E+03  0.13659491165E+04  0.80000000000E+03 0.  0.
<mgrwt>
<rscale>  0 0.20015418E+04</rscale>
<asrwt>0</asrwt>
<pdfrwt beam="1">  1        2 0.32743449E+00 0.20015418E+04</pdfrwt>
<pdfrwt beam="2">  1       -2 0.72396605E-01 0.20015418E+04</pdfrwt>
<totfact> 0.90859639E+00</totfact>
</mgrwt>
</event>
<event>
 4    1  0.7144937E-008  0.1648527E+04  0.7816531E-02  0.8791278E-01
         -2   -1    0    0    0  501 -0.00000000000E+00  0.00000000000E+00  0.26927219016E+03  0.26927219016E+03  0.00000000000E+00 0. -1.
          2   -1    0    0  501    0  0.00000000000E+00 -0.00000000000E+00 -0.25231364848E+04  0.25231364848E+04  0.00000000000E+00 0.  1.
    2000013    1    1    2    0    0 -0.10864464522E+03 -0.13600413398E+03 -0.12886042145E+04  0.15266963042E+04  0.80000000000E+03 0.  0.
   -2000013    1    1    2    0    0  0.10864464522E+03  0.13600413398E+03 -0.96526008012E+03  0.12657123708E+04  0.80000000000E+03 0.  0.
<mgrwt>
<rscale>  0 0.16485272E+04</rscale>
<asrwt>0</asrwt>
<pdfrwt beam="2">  1        2 0.38817483E+00 0.16485272E+04</pdfrwt>
<pdfrwt beam="1">  1       -2 0.41426493E-01 0.16485272E+04</pdfrwt>
<totfact> 0.17835782E+01</totfact>
</mgrwt>
</event>
<event>
 4    1  0.7144937E-008  0.1748172E+04  0.7816531E-02  0.8734357E-01
         -2   -1    0    0    0  501 -0.00000000000E+00  0.00000000000E+00  0.96822223049E+03  0.96822223049E+03  0.00000000000E+00 0. -1.
          2   -1    0    0  501    0  0.00000000000E+00 -0.00000000000E+00 -0.78910182558E+03  0.78910182558E+03  0.00000000000E+00 0.  1.
    2000013    1    1    2    0    0  0.19907104845E+03  0.28988322186E+03  0.10874848653E+03  0.88061785013E+03  0.80000000000E+03 0.  0.
   -2000013    1    1    2    0    0 -0.19907104845E+03 -0.28988322186E+03  0.70371918388E+02  0.87670620594E+03  0.80000000000E+03 0.  0.
<mgrwt>
<rscale>  0 0.17481715E+04</rscale>
<asrwt>0</asrwt>
<pdfrwt beam="2">  1        2 0.12140028E+00 0.17481715E+04</pdfrwt>
<pdfrwt beam="1">  1       -2 0.14895727E+00 0.17481715E+04</pdfrwt>
<totfact> 0.10145547E+01</totfact>
</mgrwt>
</event>
<event>
 4    1  0.7144937E-008  0.2145368E+04  0.7816531E-02  0.8541518E-01
         -2   -1    0    0    0  501 -0.00000000000E+00  0.00000000000E+00  0.70321673857E+03  0.70321673857E+03  0.00000000000E+00 0. -1.
          2   -1    0    0  501    0  0.00000000000E+00 -0.00000000000E+00 -0.16362675118E+04  0.16362675118E+04  0.00000000000E+00 0.  1.
    2000013    1    1    2    0    0  0.41364661012E+03 -0.57757722048E+03 -0.38239743221E+03  0.11361895792E+04  0.80000000000E+03 0.  0.
   -2000013    1    1    2    0    0 -0.41364661012E+03  0.57757722048E+03 -0.55065334099E+03  0.12032946712E+04  0.80000000000E+03 0.  0.
<mgrwt>
<rscale>  0 0.21453678E+04</rscale>
<asrwt>0</asrwt>
<pdfrwt beam="2">  1        2 0.25173346E+00 0.21453678E+04</pdfrwt>
<pdfrwt beam="1">  1       -2 0.10818719E+00 0.21453678E+04</pdfrwt>
<totfact> 0.66844048E+00</totfact>
</mgrwt>
</event>
<event>
 4    1  0.7144937E-008  0.2027920E+04  0.7816531E-02  0.8593677E-01
          2   -1    0    0  501    0  0.00000000000E+00  0.00000000000E+00  0.25877585124E+04  0.25877585124E+04  0.00000000000E+00 0.  1.
         -2   -1    0    0    0  501 -0.00000000000E+00 -0.00000000000E+00 -0.39729926588E+03  0.39729926588E+03  0.00000000000E+00 0. -1.
    2000013    1    1    2    0    0 -0.13074597554E+03  0.53598875107E+03  0.66927986917E+03  0.11799635565E+04  0.80000000000E+03 0.  0.
   -2000013    1    1    2    0    0  0.13074597554E+03 -0.53598875107E+03  0.15211793773E+04  0.18050942217E+04  0.80000000000E+03 0.  0.
<mgrwt>
<rscale>  0 0.20279197E+04</rscale>
<asrwt>0</asrwt>
<pdfrwt beam="1">  1        2 0.39811668E+00 0.20279197E+04</pdfrwt>
<pdfrwt beam="2">  1       -2 0.61122965E-01 0.20279197E+04</pdfrwt>
<totfact> 0.71465560E+00</totfact>
</mgrwt>
</event>
<event>
 4    1  0.7144937E-008  0.2718055E+04  0.7816531E-02  0.8329170E-01
         -2   -1    0    0    0  501 -0.00000000000E+00  0.00000000000E+00  0.87916110063E+03  0.87916110063E+03  0.00000000000E+00 0. -1.
          2   -1    0    0  501    0  0.00000000000E+00 -0.00000000000E+00 -0.21008165419E+04  0.21008165419E+04  0.00000000000E+00 0.  1.
    2000013    1    1    2    0    0 -0.39213527569E+03  0.77905626039E+03 -0.13432262347E+04  0.17902389363E+04  0.80000000000E+03 0.  0.
   -2000013    1    1    2    0    0  0.39213527569E+03 -0.77905626039E+03  0.12157079347E+03  0.11897387062E+04  0.80000000000E+03 0.  0.
<mgrwt>
<rscale>  0 0.27180553E+04</rscale>
<asrwt>0</asrwt>
<pdfrwt beam="2">  1        2 0.32320254E+00 0.27180553E+04</pdfrwt>
<pdfrwt beam="1">  1       -2 0.13525556E+00 0.27180553E+04</pdfrwt>
<totfact> 0.20187465E+00</totfact>
</mgrwt>
</event>
<event>
 4    1  0.7144937E-008  0.2399277E+04  0.7816531E-02  0.8439774E-01
          2   -1    0    0  501    0  0.00000000000E+00  0.00000000000E+00  0.14825376795E+04  0.14825376795E+04  0.00000000000E+00 0.  1.
         -2   -1    0    0    0  501 -0.00000000000E+00 -0.00000000000E+00 -0.97072244004E+03  0.97072244004E+03  0.00000000000E+00 0. -1.
    2000013    1    1    2    0    0 -0.42128491010E+03 -0.73550224850E+03 -0.34540010425E+02  0.11660349675E+04  0.80000000000E+03 0.  0.
   -2000013    1    1    2    0    0  0.42128491010E+03  0.73550224850E+03  0.54635524985E+03  0.12872251521E+04  0.80000000000E+03 0.  0.
<mgrwt>
<rscale>  0 0.23992771E+04</rscale>
<asrwt>0</asrwt>
<pdfrwt beam="1">  1        2 0.22808272E+00 0.23992771E+04</pdfrwt>
<pdfrwt beam="2">  1       -2 0.14934191E+00 0.23992771E+04</pdfrwt>
<totfact> 0.35405908E+00</totfact>
</mgrwt>
</event>
<event>
 4    1  0.7144937E-008  0.2365317E+04  0.7816531E-02  0.8452604E-01
          2   -1    0    0  501    0  0.00000000000E+00  0.00000000000E+00  0.24767590369E+04  0.24767590369E+04  0.00000000000E+00 0.  1.
         -2   -1    0    0    0  501 -0.00000000000E+00 -0.00000000000E+00 -0.56472233860E+03  0.56472233860E+03  0.00000000000E+00 0. -1.
    2000013    1    1    2    0    0  0.82949039675E+03 -0.21407277010E+03  0.75352120752E+03  0.13934402317E+04  0.80000000000E+03 0.  0.
   -2000013    1    1    2    0    0 -0.82949039675E+03  0.21407277010E+03  0.11585154907E+04  0.16480411437E+04  0.80000000000E+03 0.  0.
<mgrwt>
<rscale>  0 0.23653170E+04</rscale>
<asrwt>0</asrwt>
<pdfrwt beam="1">  1        2 0.38103985E+00 0.23653170E+04</pdfrwt>
<pdfrwt beam="2">  1       -2 0.86880361E-01 0.23653170E+04</pdfrwt>
<totfact> 0.37109380E+00</totfact>
</mgrwt>
</event>
<event>
 4    1  0.7144937E-008  0.2025383E+04  0.7816531E-02  0.8594844E-01
         -2   -1    0    0    0  501 -0.00000000000E+00  0.00000000000E+00  0.50566897845E+03  0.50566897845E+03  0.00000000000E+00 0. -1.
          2   -1    0    0  501    0  0.00000000000E+00 -0.00000000000E+00 -0.20280941651E+04  0.20280941651E+04  0.00000000000E+00 0.  1.
    2000013    1    1    2    0    0  0.39251838531E+02 -0.61881773946E+03 -0.80209963958E+03  0.12914487730E+04  0.80000000000E+03 0.  0.
   -2000013    1    1    2    0    0 -0.39251838531E+02  0.61881773946E+03 -0.72032554710E+03  0.12423143706E+04  0.80000000000E+03 0.  0.
<mgrwt>
<rscale>  0 0.20253832E+04</rscale>
<asrwt>0</asrwt>
<pdfrwt beam="2">  1        2 0.31201448E+00 0.20253832E+04</pdfrwt>
<pdfrwt beam="1">  1       -2 0.77795228E-01 0.20253832E+04</pdfrwt>
<totfact> 0.87935683E+00</totfact>
</mgrwt>
</event>
<event>
 4    1  0.7144937E-008  0.1851664E+04  0.7816531E-02  0.8679298E-01
         -2   -1    0    0    0  501 -0.00000000000E+00  0.00000000000E+00  0.36066326732E+03  0.36066326732E+03  0.00000000000E+00 0. -1.
          2   -1    0    0  501    0  0.00000000000E+00 -0.00000000000E+00 -0.23766350757E+04  0.23766350757E+04  0.00000000000E+00 0.  1.
    2000013    1    1    2    0    0  0.41800267251E+03 -0.18065439961E+03 -0.86162221484E+03  0.12608549034E+04  0.80000000000E+03 0.  0.
   -2000013    1    1    2    0    0 -0.41800267251E+03  0.18065439961E+03 -0.11543495936E+04  0.14764434396E+04  0.80000000000E+03 0.  0.
<mgrwt>
<rscale>  0 0.18516641E+04</rscale>
<asrwt>0</asrwt>
<pdfrwt beam="2">  1        2 0.36563616E+00 0.18516641E+04</pdfrwt>
<pdfrwt beam="1">  1       -2 0.55486657E-01 0.18516641E+04</pdfrwt>
<totfact> 0.11773082E+01</totfact>
</mgrwt>
</event>
<event>
 4    1  0.7144937E-008  0.1856137E+04  0.7816531E-02  0.8677003E-01
         -2   -1    0    0    0  501 -0.00000000000E+00  0.00000000000E+00  0.68434722034E+03  0.68434722034E+03  0.00000000000E+00 0. -1.
          2   -1    0    0  501    0  0.00000000000E+00 -0.00000000000E+00 -0.12585882840E+04  0.12585882840E+04  0.00000000000E+00 0.  1.
    2000013    1    1    2    0    0 -0.42144298826E+03  0.12146831421E+03 -0.10903959208E+03  0.91883533691E+03  0.80000000000E+03 0.  0.
   -2000013    1    1    2    0    0  0.42144298826E+03 -0.12146831421E+03 -0.46520147155E+03  0.10241001674E+04  0.80000000000E+03 0.  0.
<mgrwt>
<rscale>  0 0.18561373E+04</rscale>
<asrwt>0</asrwt>
<pdfrwt beam="2">  1        2 0.19362896E+00 0.18561373E+04</pdfrwt>
<pdfrwt beam="1">  1       -2 0.10528419E+00 0.18561373E+04</pdfrwt>
<totfact> 0.12001971E+01</totfact>
</mgrwt>
</event>
<event>
 4    1  0.7144937E-008  0.3284737E+04  0.7816531E-02  0.8166790E-01
          2   -1    0    0  501    0  0.00000000000E+00  0.00000000000E+00  0.34645101379E+04  0.34645101379E+04  0.00000000000E+00 0.  1.
         -2   -1    0    0    0  501 -0.00000000000E+00 -0.00000000000E+00 -0.77857287875E+03  0.77857287875E+03  0.00000000000E+00 0. -1.
    2000013    1    1    2    0    0 -0.56484289304E+03 -0.80947280556E+03  0.26873151593E+04  0.29725336806E+04  0.80000000000E+03 0.  0.
   -2000013    1    1    2    0    0  0.56484289304E+03  0.80947280556E+03 -0.13779001711E+01  0.12705493361E+04  0.80000000000E+03 0.  0.
<mgrwt>
<rscale>  0 0.32847366E+04</rscale>
<asrwt>0</asrwt>
<pdfrwt beam="1">  1        2 0.53300155E+00 0.32847366E+04</pdfrwt>
<pdfrwt beam="2">  1       -2 0.11978044E+00 0.32847366E+04</pdfrwt>
<totfact> 0.38340273E-01</totfact>
</mgrwt>
</event>
<event>
 4    1  0.7144937E-008  0.2668277E+04  0.7816531E-02  0.8345372E-01
          2   -1    0    0  501    0  0.00000000000E+00  0.00000000000E+00  0.32625009565E+03  0.32625009565E+03  0.00000000000E+00 0.  1.
         -2   -1    0    0    0  501 -0.00000000000E+00 -0.00000000000E+00 -0.54557097523E+04  0.54557097523E+04  0.00000000000E+00 0. -1.
    2000013    1    1    2    0    0  0.30748273849E+03  0.92176869367E+03 -0.35233900083E+04  0.37414543041E+04  0.80000000000E+03 0.  0.
   -2000013    1    1    2    0    0 -0.30748273849E+03 -0.92176869367E+03 -0.16060696483E+04  0.20405055438E+04  0.80000000000E+03 0.  0.
<mgrwt>
<rscale>  0 0.26682772E+04</rscale>
<asrwt>0</asrwt>
<pdfrwt beam="1">  1        2 0.50192324E-01 0.26682772E+04</pdfrwt>
<pdfrwt beam="2">  1       -2 0.83933994E+00 0.26682772E+04</pdfrwt>
<totfact> 0.36216739E-03</totfact>
</mgrwt>
</event>
<event>
 4    1  0.7144937E-008  0.3730481E+04  0.7816531E-02  0.8061240E-01
          2   -1    0    0  501    0  0.00000000000E+00  0.00000000000E+00  0.29323719581E+04  0.29323719581E+04  0.00000000000E+00 0.  1.
         -2   -1    0    0    0  501 -0.00000000000E+00 -0.00000000000E+00 -0.11864529429E+04  0.11864529429E+04  0.00000000000E+00 0. -1.
    2000013    1    1    2    0    0 -0.73063322091E+03  0.15050975302E+04  0.65220055768E+03  0.19658354576E+04  0.80000000000E+03 0.  0.
   -2000013    1    1    2    0    0  0.73063322091E+03 -0.15050975302E+04  0.10937184575E+04  0.21529894434E+04  0.80000000000E+03 0.  0.
<mgrwt>
<rscale>  0 0.37304806E+04</rscale>
<asrwt>0</asrwt>
<pdfrwt beam="1">  1        2 0.45113415E+00 0.37304806E+04</pdfrwt>
<pdfrwt beam="2">  1       -2 0.18253122E+00 0.37304806E+04</pdfrwt>
<totfact> 0.26935669E-01</totfact>
</mgrwt>
</event>
<event>
 4    1  0.7144937E-008  0.2874214E+04  0.7816531E-02  0.8280591E-01
          2   -1    0    0  501    0  0.00000000000E+00  0.00000000000E+00  0.18645414222E+04  0.18645414222E+04  0.00000000000E+00 0.  1.
         -2   -1    0    0    0  501 -0.00000000000E+00 -0.00000000000E+00 -0.11076589810E+04  0.11076589810E+04  0.00000000000E+00 0. -1.
    2000013    1    1    2    0    0 -0.38605578014E+02  0.11665184352E+04  0.11884424948E+03  0.14199928190E+04  0.80000000000E+03 0.  0.
   -2000013    1    1    2    0    0  0.38605578014E+02 -0.11665184352E+04  0.63803819170E+03  0.15522075842E+04  0.80000000000E+03 0.  0.
<mgrwt>
<rscale>  0 0.28742137E+04</rscale>
<asrwt>0</asrwt>
<pdfrwt beam="1">  1        2 0.28685253E+00 0.28742137E+04</pdfrwt>
<pdfrwt beam="2">  1       -2 0.17040907E+00 0.28742137E+04</pdfrwt>
<totfact> 0.14550521E+00</totfact>
</mgrwt>
</event>
<event>
 4    1  0.7144937E-008  0.2609568E+04  0.7816531E-02  0.8364958E-01
          2   -1    0    0  501    0  0.00000000000E+00  0.00000000000E+00  0.28576558440E+04  0.28576558440E+04  0.00000000000E+00 0.  1.
         -2   -1    0    0    0  501 -0.00000000000E+00 -0.00000000000E+00 -0.59575467378E+03  0.59575467378E+03  0.00000000000E+00 0. -1.
    2000013    1    1    2    0    0 -0.10092130378E+04  0.11092741696E+03  0.89553306574E+03  0.15725124226E+04  0.80000000000E+03 0.  0.
   -2000013    1    1    2    0    0  0.10092130378E+04 -0.11092741696E+03  0.13663681045E+04  0.18808980952E+04  0.80000000000E+03 0.  0.
<mgrwt>
<rscale>  0 0.26095684E+04</rscale>
<asrwt>0</asrwt>
<pdfrwt beam="1">  1        2 0.43963935E+00 0.26095684E+04</pdfrwt>
<pdfrwt beam="2">  1       -2 0.91654567E-01 0.26095684E+04</pdfrwt>
<totfact> 0.19097125E+00</totfact>
</mgrwt>
</event>
<event>
 4    1  0.7144937E-008  0.2296061E+04  0.7816531E-02  0.8479476E-01
         -1   -1    0    0    0  501 -0.00000000000E+00  0.00000000000E+00  0.17313304527E+04  0.17313304527E+04  0.00000000000E+00 0. -1.
          1   -1    0    0  501    0  0.00000000000E+00 -0.00000000000E+00 -0.76124942114E+03  0.76124942114E+03  0.00000000000E+00 0.  1.
    2000013    1    1    2    0    0  0.73709544469E+03  0.33246554406E+03  0.65367862627E+03  0.13119217884E+04  0.80000000000E+03 0.  0.
   -2000013    1    1    2    0    0 -0.73709544469E+03 -0.33246554406E+03  0.31640240532E+03  0.11806580854E+04  0.80000000000E+03 0.  0.
<mgrwt>
<rscale>  0 0.22960612E+04</rscale>
<asrwt>0</asrwt>
<pdfrwt beam="2">  1        1 0.11711530E+00 0.22960612E+04</pdfrwt>
<pdfrwt beam="1">  1       -1 0.26635853E+00 0.22960612E+04</pdfrwt>
<totfact> 0.11803927E+00</totfact>
</mgrwt>
</event>
<event>
 4    1  0.7144937E-008  0.2366158E+04  0.7816531E-02  0.8452283E-01
          2   -1    0    0  501    0  0.00000000000E+00  0.00000000000E+00  0.92850193521E+03  0.92850193521E+03  0.00000000000E+00 0.  1.
         -2   -1    0    0    0  501 -0.00000000000E+00 -0.00000000000E+00 -0.15074556690E+04  0.15074556690E+04  0.00000000000E+00 0. -1.
    2000013    1    1    2    0    0  0.65714319535E+03  0.48530453146E+02 -0.87681782174E+03  0.13575720521E+04  0.80000000000E+03 0.  0.
   -2000013    1    1    2    0    0 -0.65714319535E+03 -0.48530453146E+02  0.29786408798E+03  0.10783855521E+04  0.80000000000E+03 0.  0.
<mgrwt>
<rscale>  0 0.23661576E+04</rscale>
<asrwt>0</asrwt>
<pdfrwt beam="1">  1        2 0.14284645E+00 0.23661576E+04</pdfrwt>
<pdfrwt beam="2">  1       -2 0.23191625E+00 0.23661576E+04</pdfrwt>
<totfact> 0.21036511E+00</totfact>
</mgrwt>
</event>
<event>
 4    1  0.7144937E-008  0.4937294E+04  0.7816531E-02  0.7838254E-01
          2   -1    0    0  501    0  0.00000000000E+00  0.00000000000E+00  0.32762314052E+04  0.32762314052E+04  0.00000000000E+00 0.  1.
         -2   -1    0    0    0  501 -0.00000000000E+00 -0.00000000000E+00 -0.18601305123E+04  0.18601305123E+04  0.00000000000E+00 0. -1.
    2000013    1    1    2    0    0  0.95565389265E+03 -0.20280257855E+04  0.27412053368E+02  0.23805281703E+04  0.80000000000E+03 0.  0.
   -2000013    1    1    2    0    0 -0.95565389265E+03  0.20280257855E+04  0.13886888395E+04  0.27558337472E+04  0.80000000000E+03 0.  0.
<mgrwt>
<rscale>  0 0.49372940E+04</rscale>
<asrwt>0</asrwt>
<pdfrwt beam="1">  1        2 0.50403560E+00 0.49372940E+04</pdfrwt>
<pdfrwt beam="2">  1       -2 0.28617392E+00 0.49372940E+04</pdfrwt>
<totfact> 0.32597115E-02</totfact>
</mgrwt>
</event>
<event>
 4    1  0.7144937E-008  0.1882965E+04  0.7816531E-02  0.8663382E-01
         -2   -1    0    0    0  501 -0.00000000000E+00  0.00000000000E+00  0.30919457940E+03  0.30919457940E+03  0.00000000000E+00 0. -1.
          2   -1    0    0  501    0  0.00000000000E+00 -0.00000000000E+00 -0.28667692602E+04  0.28667692602E+04  0.00000000000E+00 0.  1.
    2000013    1    1    2    0    0  0.91687170739E+02 -0.30828318900E+03 -0.64108662705E+03  0.10744473581E+04  0.80000000000E+03 0.  0.
   -2000013    1    1    2    0    0 -0.91687170739E+02  0.30828318900E+03 -0.19164880537E+04  0.21015164815E+04  0.80000000000E+03 0.  0.
<mgrwt>
<rscale>  0 0.18829652E+04</rscale>
<asrwt>0</asrwt>
<pdfrwt beam="2">  1        2 0.44104143E+00 0.18829652E+04</pdfrwt>
<pdfrwt beam="1">  1       -2 0.47568397E-01 0.18829652E+04</pdfrwt>
<totfact> 0.82907797E+00</totfact>
</mgrwt>
</event>
<event>
 4    1  0.7144937E-008  0.2046668E+04  0.7816531E-02  0.8585107E-01
          2   -1    0    0  501    0  0.00000000000E+00  0.00000000000E+00  0.17557195751E+04  0.17557195751E+04  0.00000000000E+00 0.  1.
         -2   -1    0    0    0  501 -0.00000000000E+00 -0.00000000000E+00 -0.59645769601E+03  0.59645769601E+03  0.00000000000E+00 0. -1.
    2000013    1    1    2    0    0  0.47647361339E+03 -0.19621426861E+03  0.10122294957E+04  0.13892932359E+04  0.80000000000E+03 0.  0.
   -2000013    1    1    2    0    0 -0.47647361339E+03  0.19621426861E+03  0.14703238343E+03  0.96288403520E+03  0.80000000000E+03 0.  0.
<mgrwt>
<rscale>  0 0.20466680E+04</rscale>
<asrwt>0</asrwt>
<pdfrwt beam="1">  1        2 0.27011070E+00 0.20466680E+04</pdfrwt>
<pdfrwt beam="2">  1       -2 0.91762724E-01 0.20466680E+04</pdfrwt>
<totfact> 0.85395982E+00</totfact>
</mgrwt>
</event>
<event>
 4    1  0.7144937E-008  0.2220529E+04  0.7816531E-02  0.8509932E-01
          2   -1    0    0  501    0  0.00000000000E+00  0.00000000000E+00  0.79088028776E+03  0.79088028776E+03  0.00000000000E+00 0.  1.
         -2   -1    0    0    0  501 -0.00000000000E+00 -0.00000000000E+00 -0.15586272525E+04  0.15586272525E+04  0.00000000000E+00 0. -1.
    2000013    1    1    2    0    0 -0.16895350708E+03 -0.68495425591E+03 -0.70996260099E+03  0.12813096874E+04  0.80000000000E+03 0.  0.
   -2000013    1    1    2    0    0  0.16895350708E+03  0.68495425591E+03 -0.57784363809E+02  0.10681978529E+04  0.80000000000E+03 0.  0.
<mgrwt>
<rscale>  0 0.22205293E+04</rscale>
<asrwt>0</asrwt>
<pdfrwt beam="1">  1        2 0.12167389E+00 0.22205293E+04</pdfrwt>
<pdfrwt beam="2">  1       -2 0.23978881E+00 0.22205293E+04</pdfrwt>
<totfact> 0.23706095E+00</totfact>
</mgrwt>
</event>
<event>
 4    1  0.7144937E-008  0.2872885E+04  0.7816531E-02  0.8280991E-01
         -1   -1    0    0    0  501 -0.00000000000E+00  0.00000000000E+00  0.15086924769E+04  0.15086924769E+04  0.00000000000E+00 0.  1.
          1   -1    0    0  501    0  0.00000000000E+00 -0.00000000000E+00 -0.13676525901E+04  0.13676525901E+04  0.00000000000E+00 0. -1.
    2000013    1    1    2    0    0  0.62784955525E+03 -0.23744770761E+03 -0.91696944146E+03  0.13897515729E+04  0.80000000000E+03 0.  0.
   -2000013    1    1    2    0    0 -0.62784955525E+03  0.23744770761E+03  0.10580093283E+04  0.14865934941E+04  0.80000000000E+03 0.  0.
<mgrwt>
<rscale>  0 0.28728851E+04</rscale>
<asrwt>0</asrwt>
<pdfrwt beam="2">  1        1 0.21040809E+00 0.28728851E+04</pdfrwt>
<pdfrwt beam="1">  1       -1 0.23210653E+00 0.28728851E+04</pdfrwt>
<totfact> 0.63676051E-01</totfact>
</mgrwt>
</event>
<event>
 4    1  0.7144937E-008  0.2486591E+04  0.7816531E-02  0.8407778E-01
          1   -1    0    0  501    0  0.00000000000E+00  0.00000000000E+00  0.36105185875E+04  0.36105185875E+04  0.00000000000E+00 0.  1.
         -1   -1    0    0    0  501 -0.00000000000E+00 -0.00000000000E+00 -0.42813334902E+03  0.42813334902E+03  0.00000000000E+00 0. -1.
    2000013    1    1    2    0    0  0.85912005766E+03 -0.33990867784E+03  0.19621239682E+04  0.23116132136E+04  0.80000000000E+03 0.  0.
   -2000013    1    1    2    0    0 -0.85912005766E+03  0.33990867784E+03  0.12202612703E+04  0.17270387230E+04  0.80000000000E+03 0.  0.
<mgrwt>
<rscale>  0 0.24865908E+04</rscale>
<asrwt>0</asrwt>
<pdfrwt beam="1">  1        1 0.55546438E+00 0.24865908E+04</pdfrwt>
<pdfrwt beam="2">  1       -1 0.65866672E-01 0.24865908E+04</pdfrwt>
<totfact> 0.42446035E-01</totfact>
</mgrwt>
</event>
<event>
 4    1  0.7144937E-008  0.2463137E+04  0.7816531E-02  0.8416237E-01
         -2   -1    0    0    0  501 -0.00000000000E+00  0.00000000000E+00  0.15337322873E+04  0.15337322873E+04  0.00000000000E+00 0. -1.
          2   -1    0    0  501    0  0.00000000000E+00 -0.00000000000E+00 -0.98893452444E+03  0.98893452444E+03  0.00000000000E+00 0.  1.
    2000013    1    1    2    0    0  0.30225554020E+03  0.88520471351E+03  0.22876625951E+03  0.12519104592E+04  0.80000000000E+03 0.  0.
   -2000013    1    1    2    0    0 -0.30225554020E+03 -0.88520471351E+03  0.31603150338E+03  0.12707563525E+04  0.80000000000E+03 0.  0.
<mgrwt>
<rscale>  0 0.24631369E+04</rscale>
<asrwt>0</asrwt>
<pdfrwt beam="2">  1        2 0.15214377E+00 0.24631369E+04</pdfrwt>
<pdfrwt beam="1">  1       -2 0.23595881E+00 0.24631369E+04</pdfrwt>
<totfact> 0.17974517E+00</totfact>
</mgrwt>
</event>
<event>
 4    1  0.7144937E-008  0.1860756E+04  0.7816531E-02  0.8674641E-01
         -2   -1    0    0    0  501 -0.00000000000E+00  0.00000000000E+00  0.43195577377E+03  0.43195577377E+03  0.00000000000E+00 0. -1.
          2   -1    0    0  501    0  0.00000000000E+00 -0.00000000000E+00 -0.20039166100E+04  0.20039166100E+04  0.00000000000E+00 0.  1.
    2000013    1    1    2    0    0 -0.23510942506E+03 -0.11711360248E+03 -0.13040363324E+04  0.15522573220E+04  0.80000000000E+03 0.  0.
   -2000013    1    1    2    0    0  0.23510942506E+03  0.11711360248E+03 -0.26792450393E+03  0.88361506180E+03  0.80000000000E+03 0.  0.
<mgrwt>
<rscale>  0 0.18607561E+04</rscale>
<asrwt>0</asrwt>
<pdfrwt beam="2">  1        2 0.30829486E+00 0.18607561E+04</pdfrwt>
<pdfrwt beam="1">  1       -2 0.66454734E-01 0.18607561E+04</pdfrwt>
<totfact> 0.12998634E+01</totfact>
</mgrwt>
</event>
<event>
 4    1  0.7144937E-008  0.2633400E+04  0.7816531E-02  0.8356944E-01
          2   -1    0    0  501    0  0.00000000000E+00  0.00000000000E+00  0.20794534422E+04  0.20794534422E+04  0.00000000000E+00 0.  1.
         -2   -1    0    0    0  501 -0.00000000000E+00 -0.00000000000E+00 -0.83372812621E+03  0.83372812621E+03  0.00000000000E+00 0. -1.
    2000013    1    1    2    0    0 -0.65472314341E+03  0.77162017752E+03  0.33093439107E+03  0.13317573593E+04  0.80000000000E+03 0.  0.
   -2000013    1    1    2    0    0  0.65472314341E+03 -0.77162017752E+03  0.91479092493E+03  0.15814242091E+04  0.80000000000E+03 0.  0.
<mgrwt>
<rscale>  0 0.26333999E+04</rscale>
<asrwt>0</asrwt>
<pdfrwt beam="1">  1        2 0.31991591E+00 0.26333999E+04</pdfrwt>
<pdfrwt beam="2">  1       -2 0.12826587E+00 0.26333999E+04</pdfrwt>
<totfact> 0.23912832E+00</totfact>
</mgrwt>
</event>
<event>
 4    1  0.7144937E-008  0.2250558E+04  0.7816531E-02  0.8497675E-01
         -1   -1    0    0    0  501 -0.00000000000E+00  0.00000000000E+00  0.67446199757E+03  0.67446199757E+03  0.00000000000E+00 0. -1.
          1   -1    0    0  501    0  0.00000000000E+00 -0.00000000000E+00 -0.18774262166E+04  0.18774262166E+04  0.00000000000E+00 0.  1.
    2000013    1    1    2    0    0 -0.31478737867E+03 -0.71858054277E+03 -0.71933890655E+03  0.13315019913E+04  0.80000000000E+03 0.  0.
   -2000013    1    1    2    0    0  0.31478737867E+03  0.71858054277E+03 -0.48362531247E+03  0.12203862229E+04  0.80000000000E+03 0.  0.
<mgrwt>
<rscale>  0 0.22505578E+04</rscale>
<asrwt>0</asrwt>
<pdfrwt beam="2">  1        1 0.28883481E+00 0.22505578E+04</pdfrwt>
<pdfrwt beam="1">  1       -1 0.10376338E+00 0.22505578E+04</pdfrwt>
<totfact> 0.28668456E+00</totfact>
</mgrwt>
</event>
<event>
 4    1  0.7144937E-008  0.1934983E+04  0.7816531E-02  0.8637636E-01
          2   -1    0    0  501    0  0.00000000000E+00  0.00000000000E+00  0.45712546550E+03  0.45712546550E+03  0.00000000000E+00 0.  1.
         -2   -1    0    0    0  501 -0.00000000000E+00 -0.00000000000E+00 -0.20476653550E+04  0.20476653550E+04  0.00000000000E+00 0. -1.
    2000013    1    1    2    0    0  0.25273673739E+03 -0.45575851881E+03 -0.99767368624E+03  0.13809216017E+04  0.80000000000E+03 0.  0.
   -2000013    1    1    2    0    0 -0.25273673739E+03  0.45575851881E+03 -0.59286620323E+03  0.11238692187E+04  0.80000000000E+03 0.  0.
<mgrwt>
<rscale>  0 0.19349832E+04</rscale>
<asrwt>0</asrwt>
<pdfrwt beam="1">  1        2 0.70326994E-01 0.19349832E+04</pdfrwt>
<pdfrwt beam="2">  1       -2 0.31502544E+00 0.19349832E+04</pdfrwt>
<totfact> 0.16421670E+00</totfact>
</mgrwt>
</event>
<event>
 4    1  0.7144937E-008  0.1712586E+04  0.7816531E-02  0.8754218E-01
         -1   -1    0    0    0  501 -0.00000000000E+00  0.00000000000E+00  0.18809034840E+04  0.18809034840E+04  0.00000000000E+00 0. -1.
          1   -1    0    0  501    0  0.00000000000E+00 -0.00000000000E+00 -0.38983283465E+03  0.38983283465E+03  0.00000000000E+00 0.  1.
    2000013    1    1    2    0    0 -0.80584628654E+02 -0.29196827522E+03  0.79686332275E+03  0.11690725004E+04  0.80000000000E+03 0.  0.
   -2000013    1    1    2    0    0  0.80584628654E+02  0.29196827522E+03  0.69420732665E+03  0.11016638183E+04  0.80000000000E+03 0.  0.
<mgrwt>
<rscale>  0 0.17125863E+04</rscale>
<asrwt>0</asrwt>
<pdfrwt beam="2">  1        1 0.59974283E-01 0.17125863E+04</pdfrwt>
<pdfrwt beam="1">  1       -1 0.28936976E+00 0.17125863E+04</pdfrwt>
<totfact> 0.22870495E+00</totfact>
</mgrwt>
</event>
<event>
 4    1  0.7144937E-008  0.1745903E+04  0.7816531E-02  0.8735609E-01
          2   -1    0    0  501    0  0.00000000000E+00  0.00000000000E+00  0.12445458339E+04  0.12445458339E+04  0.00000000000E+00 0.  1.
         -2   -1    0    0    0  501 -0.00000000000E+00 -0.00000000000E+00 -0.61230731432E+03  0.61230731432E+03  0.00000000000E+00 0. -1.
    2000013    1    1    2    0    0 -0.43674841622E+02  0.27389005127E+03  0.90202721254E+02  0.85150442330E+03  0.80000000000E+03 0.  0.
   -2000013    1    1    2    0    0  0.43674841622E+02 -0.27389005127E+03  0.54203579828E+03  0.10053487249E+04  0.80000000000E+03 0.  0.
<mgrwt>
<rscale>  0 0.17459032E+04</rscale>
<asrwt>0</asrwt>
<pdfrwt beam="1">  1        2 0.19146859E+00 0.17459032E+04</pdfrwt>
<pdfrwt beam="2">  1       -2 0.94201126E-01 0.17459032E+04</pdfrwt>
<totfact> 0.16062707E+01</totfact>
</mgrwt>
</event>
<event>
 4    1  0.7144937E-008  0.2045630E+04  0.7816531E-02  0.8585579E-01
         -1   -1    0    0    0  501 -0.00000000000E+00  0.00000000000E+00  0.95712087070E+03  0.95712087070E+03  0.00000000000E+00 0. -1.
          1   -1    0    0  501    0  0.00000000000E+00 -0.00000000000E+00 -0.10930179699E+04  0.10930179699E+04  0.00000000000E+00 0.  1.
    2000013    1    1    2    0    0  0.31205572275E+02 -0.59720225144E+03  0.15282317714E+03  0.10104351737E+04  0.80000000000E+03 0.  0.
   -2000013    1    1    2    0    0 -0.31205572275E+02  0.59720225144E+03 -0.28872027630E+03  0.10397036668E+04  0.80000000000E+03 0.  0.
<mgrwt>
<rscale>  0 0.20456298E+04</rscale>
<asrwt>0</asrwt>
<pdfrwt beam="2">  1        1 0.16815661E+00 0.20456298E+04</pdfrwt>
<pdfrwt beam="1">  1       -1 0.14724937E+00 0.20456298E+04</pdfrwt>
<totfact> 0.43488714E+00</totfact>
</mgrwt>
</event>
<event>
 4    1  0.7144937E-008  0.2406192E+04  0.7816531E-02  0.8437189E-01
          2   -1    0    0  501    0  0.00000000000E+00  0.00000000000E+00  0.26555778871E+04  0.26555778871E+04  0.00000000000E+00 0. -1.
         -2   -1    0    0    0  501 -0.00000000000E+00 -0.00000000000E+00 -0.54505643152E+03  0.54505643152E+03  0.00000000000E+00 0.  1.
    2000013    1    1    2    0    0  0.83306567718E+03  0.25542805683E+03  0.13472855904E+04  0.17928804692E+04  0.80000000000E+03 0.  0.
   -2000013    1    1    2    0    0 -0.83306567718E+03 -0.25542805683E+03  0.76323586521E+03  0.14077538495E+04  0.80000000000E+03 0.  0.
<mgrwt>
<rscale>  0 0.24061919E+04</rscale>
<asrwt>0</asrwt>
<pdfrwt beam="1">  1        2 0.40855044E+00 0.24061919E+04</pdfrwt>
<pdfrwt beam="2">  1       -2 0.83854837E-01 0.24061919E+04</pdfrwt>
<totfact> 0.31517278E+00</totfact>
</mgrwt>
</event>
<event>
 4    1  0.7144937E-008  0.2186388E+04  0.7816531E-02  0.8524115E-01
         -4   -1    0    0    0  501 -0.00000000000E+00  0.00000000000E+00  0.75228966940E+03  0.75228966940E+03  0.00000000000E+00 0. -1.
          4   -1    0    0  501    0  0.00000000000E+00 -0.00000000000E+00 -0.15885816152E+04  0.15885816152E+04  0.00000000000E+00 0.  1.
    2000013    1    1    2    0    0 -0.32234347384E+02 -0.66472548181E+03 -0.59556669133E+02  0.10423272117E+04  0.80000000000E+03 0.  0.
   -2000013    1    1    2    0    0  0.32234347384E+02  0.66472548181E+03 -0.77673527662E+03  0.12985440729E+04  0.80000000000E+03 0.  0.
<mgrwt>
<rscale>  0 0.21863884E+04</rscale>
<asrwt>0</asrwt>
<pdfrwt beam="2">  1        4 0.24439717E+00 0.21863884E+04</pdfrwt>
<pdfrwt beam="1">  1       -4 0.11573687E+00 0.21863884E+04</pdfrwt>
<totfact> 0.72494148E-02</totfact>
</mgrwt>
</event>
<event>
 4    1  0.7144937E-008  0.2163117E+04  0.7816531E-02  0.8533938E-01
          2   -1    0    0  501    0  0.00000000000E+00  0.00000000000E+00  0.71965591500E+03  0.71965591500E+03  0.00000000000E+00 0.  1.
         -2   -1    0    0    0  501 -0.00000000000E+00 -0.00000000000E+00 -0.16254556271E+04  0.16254556271E+04  0.00000000000E+00 0. -1.
    2000013    1    1    2    0    0 -0.46211778171E+03  0.55473875454E+03 -0.55273940110E+03  0.12111188115E+04  0.80000000000E+03 0.  0.
   -2000013    1    1    2    0    0  0.46211778171E+03 -0.55473875454E+03 -0.35306031100E+03  0.11339927306E+04  0.80000000000E+03 0.  0.
<mgrwt>
<rscale>  0 0.21631170E+04</rscale>
<asrwt>0</asrwt>
<pdfrwt beam="1">  1        2 0.11071629E+00 0.21631170E+04</pdfrwt>
<pdfrwt beam="2">  1       -2 0.25007010E+00 0.21631170E+04</pdfrwt>
<totfact> 0.23274524E+00</totfact>
</mgrwt>
</event>
<event>
 4    1  0.7144937E-008  0.2177726E+04  0.7816531E-02  0.8527757E-01
         -2   -1    0    0    0  501 -0.00000000000E+00  0.00000000000E+00  0.25910668732E+03  0.25910668732E+03  0.00000000000E+00 0. -1.
          2   -1    0    0  501    0  0.00000000000E+00 -0.00000000000E+00 -0.45758079281E+04  0.45758079281E+04  0.00000000000E+00 0.  1.
    2000013    1    1    2    0    0  0.72521990364E+03 -0.69741759616E+02 -0.18881223663E+04  0.21761925218E+04  0.80000000000E+03 0.  0.
   -2000013    1    1    2    0    0 -0.72521990364E+03  0.69741759616E+02 -0.24285788745E+04  0.26587220936E+04  0.80000000000E+03 0.  0.
<mgrwt>
<rscale>  0 0.21777258E+04</rscale>
<asrwt>0</asrwt>
<pdfrwt beam="2">  1        2 0.70397043E+00 0.21777258E+04</pdfrwt>
<pdfrwt beam="1">  1       -2 0.39862568E-01 0.21777258E+04</pdfrwt>
<totfact> 0.57133607E-01</totfact>
</mgrwt>
</event>
<event>
 4    1  0.7144937E-008  0.3438123E+04  0.7816531E-02  0.8128612E-01
          2   -1    0    0  501    0  0.00000000000E+00  0.00000000000E+00  0.21566555828E+04  0.21566555828E+04  0.00000000000E+00 0.  1.
         -2   -1    0    0    0  501 -0.00000000000E+00 -0.00000000000E+00 -0.13702573231E+04  0.13702573231E+04  0.00000000000E+00 0. -1.
    2000013    1    1    2    0    0  0.41532166963E+03 -0.14172366427E+04  0.76888267905E+03  0.18472228791E+04  0.80000000000E+03 0.  0.
   -2000013    1    1    2    0    0 -0.41532166963E+03  0.14172366427E+04  0.17515580612E+02  0.16796900269E+04  0.80000000000E+03 0.  0.
<mgrwt>
<rscale>  0 0.34381234E+04</rscale>
<asrwt>0</asrwt>
<pdfrwt beam="1">  1        2 0.33179317E+00 0.34381234E+04</pdfrwt>
<pdfrwt beam="2">  1       -2 0.21080882E+00 0.34381234E+04</pdfrwt>
<totfact> 0.51038029E-01</totfact>
</mgrwt>
</event>
<event>
 4    1  0.7144937E-008  0.2349171E+04  0.7816531E-02  0.8458782E-01
         -2   -1    0    0    0  501 -0.00000000000E+00  0.00000000000E+00  0.53411075107E+03  0.53411075107E+03  0.00000000000E+00 0. -1.
          2   -1    0    0  501    0  0.00000000000E+00 -0.00000000000E+00 -0.25830809323E+04  0.25830809323E+04  0.00000000000E+00 0.  1.
    2000013    1    1    2    0    0 -0.70342091250E+03 -0.43356966428E+03 -0.70805225965E+03  0.13506004725E+04  0.80000000000E+03 0.  0.
   -2000013    1    1    2    0    0  0.70342091250E+03  0.43356966428E+03 -0.13409179216E+04  0.17665912109E+04  0.80000000000E+03 0.  0.
<mgrwt>
<rscale>  0 0.23491712E+04</rscale>
<asrwt>0</asrwt>
<pdfrwt beam="2">  1        2 0.39739707E+00 0.23491712E+04</pdfrwt>
<pdfrwt beam="1">  1       -2 0.82170884E-01 0.23491712E+04</pdfrwt>
<totfact> 0.36583794E+00</totfact>
</mgrwt>
</event>
<event>
 4    1  0.7144937E-008  0.3600377E+04  0.7816531E-02  0.8090405E-01
         -2   -1    0    0    0  501 -0.00000000000E+00  0.00000000000E+00  0.80790309704E+03  0.80790309704E+03  0.00000000000E+00 0. -1.
          2   -1    0    0  501    0  0.00000000000E+00 -0.00000000000E+00 -0.40112209956E+04  0.40112209956E+04  0.00000000000E+00 0.  1.
    2000013    1    1    2    0    0 -0.12350462521E+04  0.95237556040E+03 -0.10525136308E+04  0.20445398983E+04  0.80000000000E+03 0.  0.
   -2000013    1    1    2    0    0  0.12350462521E+04 -0.95237556040E+03 -0.21508042678E+04  0.27745841943E+04  0.80000000000E+03 0.  0.
<mgrwt>
<rscale>  0 0.36003766E+04</rscale>
<asrwt>0</asrwt>
<pdfrwt beam="2">  1        2 0.61711093E+00 0.36003766E+04</pdfrwt>
<pdfrwt beam="1">  1       -2 0.12429278E+00 0.36003766E+04</pdfrwt>
<totfact> 0.13240361E-01</totfact>
</mgrwt>
</event>
<event>
 4    1  0.7144937E-008  0.1974810E+04  0.7816531E-02  0.8618489E-01
         -2   -1    0    0    0  501 -0.00000000000E+00  0.00000000000E+00  0.68468259302E+03  0.68468259302E+03  0.00000000000E+00 0. -1.
          2   -1    0    0  501    0  0.00000000000E+00 -0.00000000000E+00 -0.14239715933E+04  0.14239715933E+04  0.00000000000E+00 0.  1.
    2000013    1    1    2    0    0 -0.15161553704E+02  0.57030291917E+03 -0.26560745972E+03  0.10178519612E+04  0.80000000000E+03 0.  0.
   -2000013    1    1    2    0    0  0.15161553704E+02 -0.57030291917E+03 -0.47368154052E+03  0.10908022250E+04  0.80000000000E+03 0.  0.
<mgrwt>
<rscale>  0 0.19748099E+04</rscale>
<asrwt>0</asrwt>
<pdfrwt beam="2">  1        2 0.21907255E+00 0.19748099E+04</pdfrwt>
<pdfrwt beam="1">  1       -2 0.10533578E+00 0.19748099E+04</pdfrwt>
<totfact> 0.95229516E+00</totfact>
</mgrwt>
</event>
<event>
 4    1  0.7144937E-008  0.1911287E+04  0.7816531E-02  0.8649258E-01
          1   -1    0    0  501    0  0.00000000000E+00  0.00000000000E+00  0.11319846191E+04  0.11319846191E+04  0.00000000000E+00 0.  1.
         -1   -1    0    0    0  501 -0.00000000000E+00 -0.00000000000E+00 -0.80677279797E+03  0.80677279797E+03  0.00000000000E+00 0. -1.
    2000013    1    1    2    0    0 -0.37567721771E+02 -0.44667576473E+03  0.43540209176E+03  0.10151381945E+04  0.80000000000E+03 0.  0.
   -2000013    1    1    2    0    0  0.37567721771E+02  0.44667576473E+03 -0.11019027061E+03  0.92361922255E+03  0.80000000000E+03 0.  0.
<mgrwt>
<rscale>  0 0.19112869E+04</rscale>
<asrwt>0</asrwt>
<pdfrwt beam="1">  1        1 0.17415148E+00 0.19112869E+04</pdfrwt>
<pdfrwt beam="2">  1       -1 0.12411889E+00 0.19112869E+04</pdfrwt>
<totfact> 0.63879007E+00</totfact>
</mgrwt>
</event>
<event>
 4    1  0.7144937E-008  0.2965856E+04  0.7816531E-02  0.8253549E-01
          2   -1    0    0  501    0  0.00000000000E+00  0.00000000000E+00  0.17186680779E+04  0.17186680779E+04  0.00000000000E+00 0.  1.
         -2   -1    0    0    0  501 -0.00000000000E+00 -0.00000000000E+00 -0.12795230369E+04  0.12795230369E+04  0.00000000000E+00 0. -1.
    2000013    1    1    2    0    0  0.12459978293E+04  0.69663452996E+02  0.26139763905E+03  0.15052216824E+04  0.80000000000E+03 0.  0.
   -2000013    1    1    2    0    0 -0.12459978293E+04 -0.69663452996E+02  0.17774740202E+03  0.14929694325E+04  0.80000000000E+03 0.  0.
<mgrwt>
<rscale>  0 0.29658560E+04</rscale>
<asrwt>0</asrwt>
<pdfrwt beam="1">  1        2 0.26441047E+00 0.29658560E+04</pdfrwt>
<pdfrwt beam="2">  1       -2 0.19684970E+00 0.29658560E+04</pdfrwt>
<totfact> 0.11469017E+00</totfact>
</mgrwt>
</event>
<event>
 4    1  0.7144937E-008  0.1807759E+04  0.7816531E-02  0.8702184E-01
          2   -1    0    0  501    0  0.00000000000E+00  0.00000000000E+00  0.16552404458E+04  0.16552404458E+04  0.00000000000E+00 0.  1.
         -2   -1    0    0    0  501 -0.00000000000E+00 -0.00000000000E+00 -0.49358300328E+03  0.49358300328E+03  0.00000000000E+00 0. -1.
    2000013    1    1    2    0    0  0.27036435301E+03 -0.32148771028E+03  0.55302003858E+03  0.10593783056E+04  0.80000000000E+03 0.  0.
   -2000013    1    1    2    0    0 -0.27036435301E+03  0.32148771028E+03  0.60863740394E+03  0.10894451435E+04  0.80000000000E+03 0.  0.
<mgrwt>
<rscale>  0 0.18077594E+04</rscale>
<asrwt>0</asrwt>
<pdfrwt beam="1">  1        2 0.25465237E+00 0.18077594E+04</pdfrwt>
<pdfrwt beam="2">  1       -2 0.75935847E-01 0.18077594E+04</pdfrwt>
<totfact> 0.15221597E+01</totfact>
</mgrwt>
</event>
<event>
 4    1  0.7144937E-008  0.3093462E+04  0.7816531E-02  0.8217534E-01
          2   -1    0    0  501    0  0.00000000000E+00  0.00000000000E+00  0.33499695036E+04  0.33499695036E+04  0.00000000000E+00 0.  1.
         -2   -1    0    0    0  501 -0.00000000000E+00 -0.00000000000E+00 -0.71414902134E+03  0.71414902134E+03  0.00000000000E+00 0. -1.
    2000013    1    1    2    0    0 -0.11256047697E+04  0.32572335573E+03  0.50879488141E+03  0.15073002466E+04  0.80000000000E+03 0.  0.
   -2000013    1    1    2    0    0  0.11256047697E+04 -0.32572335573E+03  0.21270256008E+04  0.25568182784E+04  0.80000000000E+03 0.  0.
<mgrwt>
<rscale>  0 0.30934624E+04</rscale>
<asrwt>0</asrwt>
<pdfrwt beam="1">  1        2 0.51537992E+00 0.30934624E+04</pdfrwt>
<pdfrwt beam="2">  1       -2 0.10986908E+00 0.30934624E+04</pdfrwt>
<totfact> 0.57654867E-01</totfact>
</mgrwt>
</event>
<event>
 4    1  0.7144937E-008  0.1952742E+04  0.7816531E-02  0.8629040E-01
         -2   -1    0    0    0  501 -0.00000000000E+00  0.00000000000E+00  0.11913313799E+04  0.11913313799E+04  0.00000000000E+00 0. -1.
          2   -1    0    0  501    0  0.00000000000E+00 -0.00000000000E+00 -0.80019770163E+03  0.80019770163E+03  0.00000000000E+00 0.  1.
    2000013    1    1    2    0    0  0.44350491159E+03 -0.13917311169E+03 -0.12245191834E+03  0.93330607730E+03  0.80000000000E+03 0.  0.
   -2000013    1    1    2    0    0 -0.44350491159E+03  0.13917311169E+03  0.51358559660E+03  0.10582230042E+04  0.80000000000E+03 0.  0.
<mgrwt>
<rscale>  0 0.19527423E+04</rscale>
<asrwt>0</asrwt>
<pdfrwt beam="2">  1        2 0.12310734E+00 0.19527423E+04</pdfrwt>
<pdfrwt beam="1">  1       -2 0.18328175E+00 0.19527423E+04</pdfrwt>
<totfact> 0.55252581E+00</totfact>
</mgrwt>
</event>
<event>
 4    1  0.7144937E-008  0.2121926E+04  0.7816531E-02  0.8551646E-01
          2   -1    0    0  501    0  0.00000000000E+00  0.00000000000E+00  0.96547825883E+03  0.96547825883E+03  0.00000000000E+00 0.  1.
         -2   -1    0    0    0  501 -0.00000000000E+00 -0.00000000000E+00 -0.11658914480E+04  0.11658914480E+04  0.00000000000E+00 0. -1.
    2000013    1    1    2    0    0  0.68532815220E+03  0.76307685732E+02  0.96557516867E+00  0.10561716108E+04  0.80000000000E+03 0.  0.
   -2000013    1    1    2    0    0 -0.68532815220E+03 -0.76307685732E+02 -0.20137876438E+03  0.10751980961E+04  0.80000000000E+03 0.  0.
<mgrwt>
<rscale>  0 0.21219263E+04</rscale>
<asrwt>0</asrwt>
<pdfrwt beam="1">  1        2 0.14853512E+00 0.21219263E+04</pdfrwt>
<pdfrwt beam="2">  1       -2 0.17936792E+00 0.21219263E+04</pdfrwt>
<totfact> 0.44675792E+00</totfact>
</mgrwt>
</event>
<event>
 4    1  0.7144937E-008  0.2291205E+04  0.7816531E-02  0.8481397E-01
         -2   -1    0    0    0  501 -0.00000000000E+00  0.00000000000E+00  0.16298865431E+04  0.16298865431E+04  0.00000000000E+00 0. -1.
          2   -1    0    0  501    0  0.00000000000E+00 -0.00000000000E+00 -0.80521268882E+03  0.80521268882E+03  0.00000000000E+00 0.  1.
    2000013    1    1    2    0    0  0.53329002444E+03 -0.85427370749E+02 -0.24342981124E+03  0.99546680449E+03  0.80000000000E+03 0.  0.
   -2000013    1    1    2    0    0 -0.53329002444E+03  0.85427370749E+02  0.10681036655E+04  0.14396324274E+04  0.80000000000E+03 0.  0.
<mgrwt>
<rscale>  0 0.22912052E+04</rscale>
<asrwt>0</asrwt>
<pdfrwt beam="2">  1        2 0.12387888E+00 0.22912052E+04</pdfrwt>
<pdfrwt beam="1">  1       -2 0.25075178E+00 0.22912052E+04</pdfrwt>
<totfact> 0.19695083E+00</totfact>
</mgrwt>
</event>
<event>
 4    1  0.7144937E-008  0.2736377E+04  0.7816531E-02  0.8323298E-01
          2   -1    0    0  501    0  0.00000000000E+00  0.00000000000E+00  0.24384558229E+04  0.24384558229E+04  0.00000000000E+00 0.  1.
         -2   -1    0    0    0  501 -0.00000000000E+00 -0.00000000000E+00 -0.76767425616E+03  0.76767425616E+03  0.00000000000E+00 0. -1.
    2000013    1    1    2    0    0  0.10286213423E+04  0.40676382827E+03  0.94291076021E+03  0.16590959525E+04  0.80000000000E+03 0.  0.
   -2000013    1    1    2    0    0 -0.10286213423E+04 -0.40676382827E+03  0.72787080654E+03  0.15470341266E+04  0.80000000000E+03 0.  0.
<mgrwt>
<rscale>  0 0.27363770E+04</rscale>
<asrwt>0</asrwt>
<pdfrwt beam="1">  1        2 0.37514705E+00 0.27363770E+04</pdfrwt>
<pdfrwt beam="2">  1       -2 0.11810373E+00 0.27363770E+04</pdfrwt>
<totfact> 0.18252102E+00</totfact>
</mgrwt>
</event>
<event>
 4    1  0.7144937E-008  0.2916319E+04  0.7816531E-02  0.8268039E-01
          2   -1    0    0  501    0  0.00000000000E+00  0.00000000000E+00  0.38463911912E+04  0.38463911912E+04  0.00000000000E+00 0.  1.
         -2   -1    0    0    0  501 -0.00000000000E+00 -0.00000000000E+00 -0.55278533909E+03  0.55278533909E+03  0.00000000000E+00 0. -1.
    2000013    1    1    2    0    0 -0.11111898111E+03  0.11928566560E+04  0.19873771249E+04  0.24545717073E+04  0.80000000000E+03 0.  0.
   -2000013    1    1    2    0    0  0.11111898111E+03 -0.11928566560E+04  0.13062287272E+04  0.19446048230E+04  0.80000000000E+03 0.  0.
<mgrwt>
<rscale>  0 0.29163187E+04</rscale>
<asrwt>0</asrwt>
<pdfrwt beam="1">  1        2 0.59175247E+00 0.29163187E+04</pdfrwt>
<pdfrwt beam="2">  1       -2 0.85043901E-01 0.29163187E+04</pdfrwt>
<totfact> 0.46927152E-01</totfact>
</mgrwt>
</event>
<event>
 4    1  0.7144937E-008  0.1819151E+04  0.7816531E-02  0.8696181E-01
         -2   -1    0    0    0  501 -0.00000000000E+00  0.00000000000E+00  0.60218381631E+03  0.60218381631E+03  0.00000000000E+00 0. -1.
          2   -1    0    0  501    0  0.00000000000E+00 -0.00000000000E+00 -0.13738793519E+04  0.13738793519E+04  0.00000000000E+00 0.  1.
    2000013    1    1    2    0    0  0.17566088020E+03 -0.39525091524E+03 -0.40295001285E+03  0.99471038181E+03  0.80000000000E+03 0.  0.
   -2000013    1    1    2    0    0 -0.17566088020E+03  0.39525091524E+03 -0.36874552275E+03  0.98135278640E+03  0.80000000000E+03 0.  0.
<mgrwt>
<rscale>  0 0.18191514E+04</rscale>
<asrwt>0</asrwt>
<pdfrwt beam="2">  1        2 0.21136605E+00 0.18191514E+04</pdfrwt>
<pdfrwt beam="1">  1       -2 0.92643664E-01 0.18191514E+04</pdfrwt>
<totfact> 0.13955168E+01</totfact>
</mgrwt>
</event>
<event>
 4    1  0.7144937E-008  0.2040928E+04  0.7816531E-02  0.8587721E-01
         -2   -1    0    0    0  501 -0.00000000000E+00  0.00000000000E+00  0.73475045617E+03  0.73475045617E+03  0.00000000000E+00 0. -1.
          2   -1    0    0  501    0  0.00000000000E+00 -0.00000000000E+00 -0.14172794937E+04  0.14172794937E+04  0.00000000000E+00 0.  1.
    2000013    1    1    2    0    0 -0.52678698633E+03  0.35107210727E+03 -0.36688974584E+03  0.10841421674E+04  0.80000000000E+03 0.  0.
   -2000013    1    1    2    0    0  0.52678698633E+03 -0.35107210727E+03 -0.31563929165E+03  0.10678877824E+04  0.80000000000E+03 0.  0.
<mgrwt>
<rscale>  0 0.20409280E+04</rscale>
<asrwt>0</asrwt>
<pdfrwt beam="2">  1        2 0.21804300E+00 0.20409280E+04</pdfrwt>
<pdfrwt beam="1">  1       -2 0.11303853E+00 0.20409280E+04</pdfrwt>
<totfact> 0.80556203E+00</totfact>
</mgrwt>
</event>
<event>
 4    1  0.7144937E-008  0.2503845E+04  0.7816531E-02  0.8401617E-01
          2   -1    0    0  501    0  0.00000000000E+00  0.00000000000E+00  0.21729036179E+04  0.21729036179E+04  0.00000000000E+00 0.  1.
         -2   -1    0    0    0  501 -0.00000000000E+00 -0.00000000000E+00 -0.72129753461E+03  0.72129753461E+03  0.00000000000E+00 0. -1.
    2000013    1    1    2    0    0  0.15321647764E+02  0.65631521096E+03  0.15401408617E+04  0.18555371953E+04  0.80000000000E+03 0.  0.
   -2000013    1    1    2    0    0 -0.15321647764E+02 -0.65631521096E+03 -0.88534778470E+02  0.10386639572E+04  0.80000000000E+03 0.  0.
<mgrwt>
<rscale>  0 0.25038451E+04</rscale>
<asrwt>0</asrwt>
<pdfrwt beam="1">  1        2 0.33429286E+00 0.25038451E+04</pdfrwt>
<pdfrwt beam="2">  1       -2 0.11096885E+00 0.25038451E+04</pdfrwt>
<totfact> 0.30667074E+00</totfact>
</mgrwt>
</event>
<event>
 4    1  0.7144937E-008  0.1909237E+04  0.7816531E-02  0.8650272E-01
         -2   -1    0    0    0  501 -0.00000000000E+00  0.00000000000E+00  0.50788689251E+03  0.50788689251E+03  0.00000000000E+00 0. -1.
          2   -1    0    0  501    0  0.00000000000E+00 -0.00000000000E+00 -0.17942894383E+04  0.17942894383E+04  0.00000000000E+00 0.  1.
    2000013    1    1    2    0    0  0.95367632289E+02 -0.28603652862E+03 -0.13107378026E+03  0.86492324334E+03  0.80000000000E+03 0.  0.
   -2000013    1    1    2    0    0 -0.95367632289E+02  0.28603652862E+03 -0.11553287656E+04  0.14372530875E+04  0.80000000000E+03 0.  0.
<mgrwt>
<rscale>  0 0.19092366E+04</rscale>
<asrwt>0</asrwt>
<pdfrwt beam="2">  1        2 0.27604453E+00 0.19092366E+04</pdfrwt>
<pdfrwt beam="1">  1       -2 0.78136444E-01 0.19092366E+04</pdfrwt>
<totfact> 0.11854549E+01</totfact>
</mgrwt>
</event>
<event>
 4    1  0.7144937E-008  0.2875916E+04  0.7816531E-02  0.8280080E-01
          2   -1    0    0  501    0  0.00000000000E+00  0.00000000000E+00  0.28946173467E+04  0.28946173467E+04  0.00000000000E+00 0.  1.
         -2   -1    0    0    0  501 -0.00000000000E+00 -0.00000000000E+00 -0.71433370925E+03  0.71433370925E+03  0.00000000000E+00 0. -1.
    2000013    1    1    2    0    0 -0.10204534376E+04 -0.17141765296E+03  0.18399448176E+04  0.22574556833E+04  0.80000000000E+03 0.  0.
   -2000013    1    1    2    0    0  0.10204534376E+04  0.17141765296E+03  0.34033881987E+03  0.13514953727E+04  0.80000000000E+03 0.  0.
<mgrwt>
<rscale>  0 0.28759157E+04</rscale>
<asrwt>0</asrwt>
<pdfrwt beam="1">  1        2 0.44532574E+00 0.28759157E+04</pdfrwt>
<pdfrwt beam="2">  1       -2 0.10989749E+00 0.28759157E+04</pdfrwt>
<totfact> 0.11523007E+00</totfact>
</mgrwt>
</event>
<event>
 4    1  0.7144937E-008  0.2294455E+04  0.7816531E-02  0.8480111E-01
         -2   -1    0    0    0  501 -0.00000000000E+00  0.00000000000E+00  0.51057380372E+03  0.51057380372E+03  0.00000000000E+00 0. -1.
          2   -1    0    0  501    0  0.00000000000E+00 -0.00000000000E+00 -0.25777493700E+04  0.25777493700E+04  0.00000000000E+00 0.  1.
    2000013    1    1    2    0    0  0.69660381172E+03 -0.42711241741E+03 -0.90986308239E+03  0.14613462000E+04  0.80000000000E+03 0.  0.
   -2000013    1    1    2    0    0 -0.69660381172E+03  0.42711241741E+03 -0.11573124839E+04  0.16269769737E+04  0.80000000000E+03 0.  0.
<mgrwt>
<rscale>  0 0.22944553E+04</rscale>
<asrwt>0</asrwt>
<pdfrwt beam="2">  1        2 0.39657683E+00 0.22944553E+04</pdfrwt>
<pdfrwt beam="1">  1       -2 0.78549816E-01 0.22944553E+04</pdfrwt>
<totfact> 0.40971722E+00</totfact>
</mgrwt>
</event>
<event>
 4    1  0.7144937E-008  0.3214212E+04  0.7816531E-02  0.8185074E-01
          2   -1    0    0  501    0  0.00000000000E+00  0.00000000000E+00  0.20915913727E+04  0.20915913727E+04  0.00000000000E+00 0.  1.
         -2   -1    0    0    0  501 -0.00000000000E+00 -0.00000000000E+00 -0.12348446741E+04  0.12348446741E+04  0.00000000000E+00 0. -1.
    2000013    1    1    2    0    0  0.76091370873E+03 -0.24654263439E+03 -0.75297974576E+03  0.13589523318E+04  0.80000000000E+03 0.  0.
   -2000013    1    1    2    0    0 -0.76091370873E+03  0.24654263439E+03  0.16097264444E+04  0.19674837149E+04  0.80000000000E+03 0.  0.
<mgrwt>
<rscale>  0 0.32142125E+04</rscale>
<asrwt>0</asrwt>
<pdfrwt beam="1">  1        2 0.32178329E+00 0.32142125E+04</pdfrwt>
<pdfrwt beam="2">  1       -2 0.18997610E+00 0.32142125E+04</pdfrwt>
<totfact> 0.77468449E-01</totfact>
</mgrwt>
</event>
<event>
 4    1  0.7144937E-008  0.2066286E+04  0.7816531E-02  0.8576242E-01
         -2   -1    0    0    0  501 -0.00000000000E+00  0.00000000000E+00  0.71461532420E+03  0.71461532420E+03  0.00000000000E+00 0. -1.
          2   -1    0    0  501    0  0.00000000000E+00 -0.00000000000E+00 -0.14936495075E+04  0.14936495075E+04  0.00000000000E+00 0.  1.
    2000013    1    1    2    0    0 -0.21853518835E+03 -0.56382663979E+03 -0.12399708911E+03  0.10104619668E+04  0.80000000000E+03 0.  0.
   -2000013    1    1    2    0    0  0.21853518835E+03  0.56382663979E+03 -0.65503709415E+03  0.11978028648E+04  0.80000000000E+03 0.  0.
<mgrwt>
<rscale>  0 0.20662864E+04</rscale>
<asrwt>0</asrwt>
<pdfrwt beam="2">  1        2 0.22979223E+00 0.20662864E+04</pdfrwt>
<pdfrwt beam="1">  1       -2 0.10994082E+00 0.20662864E+04</pdfrwt>
<totfact> 0.77821653E+00</totfact>
</mgrwt>
</event>
<event>
 4    1  0.7144937E-008  0.1711531E+04  0.7816531E-02  0.8754815E-01
          2   -1    0    0  501    0  0.00000000000E+00  0.00000000000E+00  0.15917805773E+04  0.15917805773E+04  0.00000000000E+00 0.  1.
         -2   -1    0    0    0  501 -0.00000000000E+00 -0.00000000000E+00 -0.46007274652E+03  0.46007274652E+03  0.00000000000E+00 0. -1.
    2000013    1    1    2    0    0  0.23908101862E+03  0.15715261933E+03  0.44313699489E+03  0.95824165818E+03  0.80000000000E+03 0.  0.
   -2000013    1    1    2    0    0 -0.23908101862E+03 -0.15715261933E+03  0.68857083593E+03  0.10936116657E+04  0.80000000000E+03 0.  0.
<mgrwt>
<rscale>  0 0.17115313E+04</rscale>
<asrwt>0</asrwt>
<pdfrwt beam="1">  1        2 0.24488932E+00 0.17115313E+04</pdfrwt>
<pdfrwt beam="2">  1       -2 0.70780423E-01 0.17115313E+04</pdfrwt>
<totfact> 0.19439051E+01</totfact>
</mgrwt>
</event>
<event>
 4    1  0.7144937E-008  0.1731994E+04  0.7816531E-02  0.8743325E-01
          2   -1    0    0  501    0  0.00000000000E+00  0.00000000000E+00  0.14482417439E+04  0.14482417439E+04  0.00000000000E+00 0.  1.
         -2   -1    0    0    0  501 -0.00000000000E+00 -0.00000000000E+00 -0.51783508766E+03  0.51783508766E+03  0.00000000000E+00 0. -1.
    2000013    1    1    2    0    0  0.57047890014E+02  0.12671913718E+03  0.80695435768E+03  0.11447652759E+04  0.80000000000E+03 0.  0.
   -2000013    1    1    2    0    0 -0.57047890014E+02 -0.12671913718E+03  0.12345229858E+03  0.82131155569E+03  0.80000000000E+03 0.  0.
<mgrwt>
<rscale>  0 0.17319935E+04</rscale>
<asrwt>0</asrwt>
<pdfrwt beam="1">  1        2 0.22280642E+00 0.17319935E+04</pdfrwt>
<pdfrwt beam="2">  1       -2 0.79666937E-01 0.17319935E+04</pdfrwt>
<totfact> 0.17987343E+01</totfact>
</mgrwt>
</event>
<event>
 4    1  0.7144937E-008  0.1943925E+04  0.7816531E-02  0.8633296E-01
         -2   -1    0    0    0  501 -0.00000000000E+00  0.00000000000E+00  0.39025586696E+03  0.39025586696E+03  0.00000000000E+00 0. -1.
          2   -1    0    0  501    0  0.00000000000E+00 -0.00000000000E+00 -0.24207474625E+04  0.24207474625E+04  0.00000000000E+00 0.  1.
    2000013    1    1    2    0    0 -0.50496480213E+03  0.13996180013E+03 -0.76423239589E+03  0.12241854075E+04  0.80000000000E+03 0.  0.
   -2000013    1    1    2    0    0  0.50496480213E+03 -0.13996180013E+03 -0.12662591996E+04  0.15868179220E+04  0.80000000000E+03 0.  0.
<mgrwt>
<rscale>  0 0.19439248E+04</rscale>
<asrwt>0</asrwt>
<pdfrwt beam="2">  1        2 0.37242268E+00 0.19439248E+04</pdfrwt>
<pdfrwt beam="1">  1       -2 0.60039365E-01 0.19439248E+04</pdfrwt>
<totfact> 0.93409106E+00</totfact>
</mgrwt>
</event>
<event>
 4    1  0.7144937E-008  0.2036288E+04  0.7816531E-02  0.8589841E-01
         -2   -1    0    0    0  501 -0.00000000000E+00  0.00000000000E+00  0.48823708957E+03  0.48823708957E+03  0.00000000000E+00 0. -1.
          2   -1    0    0  501    0  0.00000000000E+00 -0.00000000000E+00 -0.21231830351E+04  0.21231830351E+04  0.00000000000E+00 0.  1.
    2000013    1    1    2    0    0 -0.51293156266E+02  0.57236431237E+03 -0.48704864646E+03  0.10988395142E+04  0.80000000000E+03 0.  0.
   -2000013    1    1    2    0    0  0.51293156266E+02 -0.57236431237E+03 -0.11478972991E+04  0.15125806105E+04  0.80000000000E+03 0.  0.
<mgrwt>
<rscale>  0 0.20362875E+04</rscale>
<asrwt>0</asrwt>
<pdfrwt beam="2">  1        2 0.32664355E+00 0.20362875E+04</pdfrwt>
<pdfrwt beam="1">  1       -2 0.75113397E-01 0.20362875E+04</pdfrwt>
<totfact> 0.84069528E+00</totfact>
</mgrwt>
</event>
<event>
 4    1  0.7144937E-008  0.3061191E+04  0.7816531E-02  0.8226470E-01
          4   -1    0    0  501    0  0.00000000000E+00  0.00000000000E+00  0.21406404124E+04  0.21406404124E+04  0.00000000000E+00 0.  1.
         -4   -1    0    0    0  501 -0.00000000000E+00 -0.00000000000E+00 -0.10944030210E+04  0.10944030210E+04  0.00000000000E+00 0. -1.
    2000013    1    1    2    0    0  0.16479478347E+03  0.12414923330E+04  0.91034733447E+03  0.17427543725E+04  0.80000000000E+03 0.  0.
   -2000013    1    1    2    0    0 -0.16479478347E+03 -0.12414923330E+04  0.13589005689E+03  0.14922890609E+04  0.80000000000E+03 0.  0.
<mgrwt>
<rscale>  0 0.30611915E+04</rscale>
<asrwt>0</asrwt>
<pdfrwt beam="1">  1        4 0.32932929E+00 0.30611915E+04</pdfrwt>
<pdfrwt beam="2">  1       -4 0.16836970E+00 0.30611915E+04</pdfrwt>
<totfact> 0.74003954E-03</totfact>
</mgrwt>
</event>
<event>
 4    1  0.7144937E-008  0.2753535E+04  0.7816531E-02  0.8317841E-01
         -2   -1    0    0    0  501 -0.00000000000E+00  0.00000000000E+00  0.88527120760E+03  0.88527120760E+03  0.00000000000E+00 0. -1.
          2   -1    0    0  501    0  0.00000000000E+00 -0.00000000000E+00 -0.21411391576E+04  0.21411391576E+04  0.00000000000E+00 0.  1.
    2000013    1    1    2    0    0 -0.49468539450E+03 -0.80285950990E+03  0.37173027073E+02  0.12372060726E+04  0.80000000000E+03 0.  0.
   -2000013    1    1    2    0    0  0.49468539450E+03  0.80285950990E+03 -0.12930409771E+04  0.17892042926E+04  0.80000000000E+03 0.  0.
<mgrwt>
<rscale>  0 0.27535351E+04</rscale>
<asrwt>0</asrwt>
<pdfrwt beam="2">  1        2 0.32940602E+00 0.27535351E+04</pdfrwt>
<pdfrwt beam="1">  1       -2 0.13619557E+00 0.27535351E+04</pdfrwt>
<totfact> 0.18772998E+00</totfact>
</mgrwt>
</event>
<event>
 4    1  0.7144937E-008  0.1695166E+04  0.7816531E-02  0.8764126E-01
         -2   -1    0    0    0  501 -0.00000000000E+00  0.00000000000E+00  0.28061717805E+03  0.28061717805E+03  0.00000000000E+00 0. -1.
          2   -1    0    0  501    0  0.00000000000E+00 -0.00000000000E+00 -0.25600605190E+04  0.25600605190E+04  0.00000000000E+00 0.  1.
    2000013    1    1    2    0    0  0.46044002056E+02  0.26106384269E+03 -0.98869394610E+03  0.12991497601E+04  0.80000000000E+03 0.  0.
   -2000013    1    1    2    0    0 -0.46044002056E+02 -0.26106384269E+03 -0.12907493948E+04  0.15415279369E+04  0.80000000000E+03 0.  0.
<mgrwt>
<rscale>  0 0.16951660E+04</rscale>
<asrwt>0</asrwt>
<pdfrwt beam="2">  1        2 0.39385546E+00 0.16951660E+04</pdfrwt>
<pdfrwt beam="1">  1       -2 0.43171874E-01 0.16951660E+04</pdfrwt>
<totfact> 0.15583599E+01</totfact>
</mgrwt>
</event>
<event>
 4    1  0.7144937E-008  0.2062199E+04  0.7816531E-02  0.8578080E-01
         -2   -1    0    0    0  501 -0.00000000000E+00  0.00000000000E+00  0.37232392082E+03  0.37232392082E+03  0.00000000000E+00 0. -1.
          2   -1    0    0  501    0  0.00000000000E+00 -0.00000000000E+00 -0.28554859114E+04  0.28554859114E+04  0.00000000000E+00 0.  1.
    2000013    1    1    2    0    0  0.37112046920E+03  0.43051820749E+03 -0.17367705383E+04  0.19948554414E+04  0.80000000000E+03 0.  0.
   -2000013    1    1    2    0    0 -0.37112046920E+03 -0.43051820749E+03 -0.74639145230E+03  0.12329543908E+04  0.80000000000E+03 0.  0.
<mgrwt>
<rscale>  0 0.20621985E+04</rscale>
<asrwt>0</asrwt>
<pdfrwt beam="2">  1        2 0.43930552E+00 0.20621985E+04</pdfrwt>
<pdfrwt beam="1">  1       -2 0.57280604E-01 0.20621985E+04</pdfrwt>
<totfact> 0.56561015E+00</totfact>
</mgrwt>
</event>
<event>
 4    1  0.7144937E-008  0.2356075E+04  0.7816531E-02  0.8456134E-01
         -2   -1    0    0    0  501 -0.00000000000E+00  0.00000000000E+00  0.56620900399E+03  0.56620900399E+03  0.00000000000E+00 0. -1.
          2   -1    0    0  501    0  0.00000000000E+00 -0.00000000000E+00 -0.24509888698E+04  0.24509888698E+04  0.00000000000E+00 0.  1.
    2000013    1    1    2    0    0 -0.20934524972E+02 -0.80564747169E+03 -0.54095415144E+03  0.12578304723E+04  0.80000000000E+03 0.  0.
   -2000013    1    1    2    0    0  0.20934524972E+02  0.80564747169E+03 -0.13438257144E+04  0.17593674015E+04  0.80000000000E+03 0.  0.
<mgrwt>
<rscale>  0 0.23560747E+04</rscale>
<asrwt>0</asrwt>
<pdfrwt beam="2">  1        2 0.37707521E+00 0.23560747E+04</pdfrwt>
<pdfrwt beam="1">  1       -2 0.87109077E-01 0.23560747E+04</pdfrwt>
<totfact> 0.38201280E+00</totfact>
</mgrwt>
</event>
<event>
 4    1  0.7144937E-008  0.1943522E+04  0.7816531E-02  0.8633491E-01
          2   -1    0    0  501    0  0.00000000000E+00  0.00000000000E+00  0.22923281719E+04  0.22923281719E+04  0.00000000000E+00 0.  1.
         -2   -1    0    0    0  501 -0.00000000000E+00 -0.00000000000E+00 -0.41194786542E+03  0.41194786542E+03  0.00000000000E+00 0. -1.
    2000013    1    1    2    0    0  0.32467280994E+03  0.18454261969E+03  0.37524320282E+03  0.95931010276E+03  0.80000000000E+03 0.  0.
   -2000013    1    1    2    0    0 -0.32467280994E+03 -0.18454261969E+03  0.15051371037E+04  0.17449659346E+04  0.80000000000E+03 0.  0.
<mgrwt>
<rscale>  0 0.19435223E+04</rscale>
<asrwt>0</asrwt>
<pdfrwt beam="1">  1        2 0.35266586E+00 0.19435223E+04</pdfrwt>
<pdfrwt beam="2">  1       -2 0.63376596E-01 0.19435223E+04</pdfrwt>
<totfact> 0.98533275E+00</totfact>
</mgrwt>
</event>
<event>
 4    1  0.7144937E-008  0.2262255E+04  0.7816531E-02  0.8492954E-01
          2   -1    0    0  501    0  0.00000000000E+00  0.00000000000E+00  0.77490410626E+03  0.77490410626E+03  0.00000000000E+00 0.  1.
         -2   -1    0    0    0  501 -0.00000000000E+00 -0.00000000000E+00 -0.16511072779E+04  0.16511072779E+04  0.00000000000E+00 0. -1.
    2000013    1    1    2    0    0 -0.30582099277E+03  0.45747547446E+03  0.18410379331E+03  0.98828361115E+03  0.80000000000E+03 0.  0.
   -2000013    1    1    2    0    0  0.30582099277E+03 -0.45747547446E+03 -0.10603069650E+04  0.14377277730E+04  0.80000000000E+03 0.  0.
<mgrwt>
<rscale>  0 0.22622553E+04</rscale>
<asrwt>0</asrwt>
<pdfrwt beam="1">  1        2 0.11921602E+00 0.22622553E+04</pdfrwt>
<pdfrwt beam="2">  1       -2 0.25401650E+00 0.22622553E+04</pdfrwt>
<totfact> 0.19834791E+00</totfact>
</mgrwt>
</event>
<event>
 4    1  0.7144937E-008  0.2493091E+04  0.7816531E-02  0.8405451E-01
         -2   -1    0    0    0  501 -0.00000000000E+00  0.00000000000E+00  0.85849808449E+03  0.85849808449E+03  0.00000000000E+00 0. -1.
          2   -1    0    0  501    0  0.00000000000E+00 -0.00000000000E+00 -0.18099931885E+04  0.18099931885E+04  0.00000000000E+00 0.  1.
    2000013    1    1    2    0    0 -0.86277430246E+03  0.25056410317E+03 -0.82540113726E+03  0.14589204585E+04  0.80000000000E+03 0.  0.
   -2000013    1    1    2    0    0  0.86277430246E+03 -0.25056410317E+03 -0.12609396671E+03  0.12095708145E+04  0.80000000000E+03 0.  0.
<mgrwt>
<rscale>  0 0.24930910E+04</rscale>
<asrwt>0</asrwt>
<pdfrwt beam="2">  1        2 0.27846049E+00 0.24930910E+04</pdfrwt>
<pdfrwt beam="1">  1       -2 0.13207663E+00 0.24930910E+04</pdfrwt>
<totfact> 0.31718761E+00</totfact>
</mgrwt>
</event>
<event>
 4    1  0.7144937E-008  0.1946824E+04  0.7816531E-02  0.8631894E-01
          2   -1    0    0  501    0  0.00000000000E+00  0.00000000000E+00  0.18044104089E+04  0.18044104089E+04  0.00000000000E+00 0. -1.
         -2   -1    0    0    0  501 -0.00000000000E+00 -0.00000000000E+00 -0.52511956661E+03  0.52511956661E+03  0.00000000000E+00 0.  1.
    2000013    1    1    2    0    0  0.22467810961E+03  0.49810433357E+03  0.75280307477E+03  0.12269069441E+04  0.80000000000E+03 0.  0.
   -2000013    1    1    2    0    0 -0.22467810961E+03 -0.49810433357E+03  0.52648776748E+03  0.11026230314E+04  0.80000000000E+03 0.  0.
<mgrwt>
<rscale>  0 0.19468243E+04</rscale>
<asrwt>0</asrwt>
<pdfrwt beam="1">  1        2 0.27760160E+00 0.19468243E+04</pdfrwt>
<pdfrwt beam="2">  1       -2 0.80787626E-01 0.19468243E+04</pdfrwt>
<totfact> 0.10824001E+01</totfact>
</mgrwt>
</event>
<event>
 4    1  0.7144937E-008  0.2301631E+04  0.7816531E-02  0.8477278E-01
          2   -1    0    0  501    0  0.00000000000E+00  0.00000000000E+00  0.15620616544E+04  0.15620616544E+04  0.00000000000E+00 0.  1.
         -2   -1    0    0    0  501 -0.00000000000E+00 -0.00000000000E+00 -0.84783887582E+03  0.84783887582E+03  0.00000000000E+00 0. -1.
    2000013    1    1    2    0    0  0.47697514456E+03  0.66391501611E+03  0.22430573693E+03  0.11655906231E+04  0.80000000000E+03 0.  0.
   -2000013    1    1    2    0    0 -0.47697514456E+03 -0.66391501611E+03  0.48991704165E+03  0.12443099071E+04  0.80000000000E+03 0.  0.
<mgrwt>
<rscale>  0 0.23016312E+04</rscale>
<asrwt>0</asrwt>
<pdfrwt beam="1">  1        2 0.24031718E+00 0.23016312E+04</pdfrwt>
<pdfrwt beam="2">  1       -2 0.13043675E+00 0.23016312E+04</pdfrwt>
<totfact> 0.45725740E+00</totfact>
</mgrwt>
</event>
<event>
 4    1  0.7144937E-008  0.3410457E+04  0.7816531E-02  0.8135345E-01
         -2   -1    0    0    0  501 -0.00000000000E+00  0.00000000000E+00  0.12689740836E+04  0.12689740836E+04  0.00000000000E+00 0. -1.
          2   -1    0    0  501    0  0.00000000000E+00 -0.00000000000E+00 -0.22914611494E+04  0.22914611494E+04  0.00000000000E+00 0.  1.
    2000013    1    1    2    0    0  0.91198723298E+03 -0.84797111790E+03  0.37276987955E+03  0.15263463280E+04  0.80000000000E+03 0.  0.
   -2000013    1    1    2    0    0 -0.91198723298E+03  0.84797111790E+03 -0.13952569453E+04  0.20340889050E+04  0.80000000000E+03 0.  0.
<mgrwt>
<rscale>  0 0.34104573E+04</rscale>
<asrwt>0</asrwt>
<pdfrwt beam="2">  1        2 0.35253248E+00 0.34104573E+04</pdfrwt>
<pdfrwt beam="1">  1       -2 0.19522678E+00 0.34104573E+04</pdfrwt>
<totfact> 0.54271592E-01</totfact>
</mgrwt>
</event>
<event>
 4    1  0.7144937E-008  0.2377290E+04  0.7816531E-02  0.8448055E-01
         -2   -1    0    0    0  501 -0.00000000000E+00  0.00000000000E+00  0.19685500792E+04  0.19685500792E+04  0.00000000000E+00 0. -1.
          2   -1    0    0  501    0  0.00000000000E+00 -0.00000000000E+00 -0.71772442366E+03  0.71772442366E+03  0.00000000000E+00 0.  1.
    2000013    1    1    2    0    0 -0.64950613177E+03  0.54017632316E+03  0.90041180764E+03  0.14711866294E+04  0.80000000000E+03 0.  0.
   -2000013    1    1    2    0    0  0.64950613177E+03 -0.54017632316E+03  0.35041384788E+03  0.12150878734E+04  0.80000000000E+03 0.  0.
<mgrwt>
<rscale>  0 0.23772896E+04</rscale>
<asrwt>0</asrwt>
<pdfrwt beam="2">  1        2 0.11041914E+00 0.23772896E+04</pdfrwt>
<pdfrwt beam="1">  1       -2 0.30285386E+00 0.23772896E+04</pdfrwt>
<totfact> 0.10919613E+00</totfact>
</mgrwt>
</event>
<event>
 4    1  0.7144937E-008  0.3852114E+04  0.7816531E-02  0.8035063E-01
         -1   -1    0    0    0  501 -0.00000000000E+00  0.00000000000E+00  0.12100795013E+04  0.12100795013E+04  0.00000000000E+00 0. -1.
          1   -1    0    0  501    0  0.00000000000E+00 -0.00000000000E+00 -0.30656620784E+04  0.30656620784E+04  0.00000000000E+00 0.  1.
    2000013    1    1    2    0    0  0.86548434576E+03 -0.14387150599E+04 -0.14835881433E+04  0.23790750209E+04  0.80000000000E+03 0.  0.
   -2000013    1    1    2    0    0 -0.86548434576E+03  0.14387150599E+04 -0.37199443384E+03  0.18966665587E+04  0.80000000000E+03 0.  0.
<mgrwt>
<rscale>  0 0.38521136E+04</rscale>
<asrwt>0</asrwt>
<pdfrwt beam="2">  1        1 0.47164031E+00 0.38521136E+04</pdfrwt>
<pdfrwt beam="1">  1       -1 0.18616608E+00 0.38521136E+04</pdfrwt>
<totfact> 0.79648820E-02</totfact>
</mgrwt>
</event>
<event>
 4    1  0.7144937E-008  0.1840682E+04  0.7816531E-02  0.8684959E-01
          2   -1    0    0  501    0  0.00000000000E+00  0.00000000000E+00  0.10132786349E+04  0.10132786349E+04  0.00000000000E+00 0.  1.
         -2   -1    0    0    0  501 -0.00000000000E+00 -0.00000000000E+00 -0.83592796885E+03  0.83592796885E+03  0.00000000000E+00 0. -1.
    2000013    1    1    2    0    0  0.17981464954E+03  0.26339638989E+03 -0.23735332581E+03  0.89333508140E+03  0.80000000000E+03 0.  0.
   -2000013    1    1    2    0    0 -0.17981464954E+03 -0.26339638989E+03  0.41470399188E+03  0.95587152237E+03  0.80000000000E+03 0.  0.
<mgrwt>
<rscale>  0 0.18406824E+04</rscale>
<asrwt>0</asrwt>
<pdfrwt beam="1">  1        2 0.15588902E+00 0.18406824E+04</pdfrwt>
<pdfrwt beam="2">  1       -2 0.12860430E+00 0.18406824E+04</pdfrwt>
<totfact> 0.10373912E+01</totfact>
</mgrwt>
</event>
<event>
 4    1  0.7144937E-008  0.2279459E+04  0.7816531E-02  0.8486064E-01
         -2   -1    0    0    0  501 -0.00000000000E+00  0.00000000000E+00  0.54729180526E+03  0.54729180526E+03  0.00000000000E+00 0. -1.
          2   -1    0    0  501    0  0.00000000000E+00 -0.00000000000E+00 -0.23734744747E+04  0.23734744747E+04  0.00000000000E+00 0.  1.
    2000013    1    1    2    0    0  0.55326742820E+03 -0.57361828726E+03 -0.11109346169E+04  0.15840828607E+04  0.80000000000E+03 0.  0.
   -2000013    1    1    2    0    0 -0.55326742820E+03  0.57361828726E+03 -0.71524805250E+03  0.13366834192E+04  0.80000000000E+03 0.  0.
<mgrwt>
<rscale>  0 0.22794588E+04</rscale>
<asrwt>0</asrwt>
<pdfrwt beam="2">  1        2 0.36514992E+00 0.22794588E+04</pdfrwt>
<pdfrwt beam="1">  1       -2 0.84198739E-01 0.22794588E+04</pdfrwt>
<totfact> 0.46026885E+00</totfact>
</mgrwt>
</event>
<event>
 4    1  0.7144937E-008  0.1913335E+04  0.7816531E-02  0.8648247E-01
          2   -1    0    0  501    0  0.00000000000E+00  0.00000000000E+00  0.97352950624E+03  0.97352950624E+03  0.00000000000E+00 0.  1.
         -2   -1    0    0    0  501 -0.00000000000E+00 -0.00000000000E+00 -0.94009770644E+03  0.94009770644E+03  0.00000000000E+00 0. -1.
    2000013    1    1    2    0    0 -0.29079299435E+03 -0.39712284795E+03 -0.16482140377E+03  0.95364208017E+03  0.80000000000E+03 0.  0.
   -2000013    1    1    2    0    0  0.29079299435E+03  0.39712284795E+03  0.19825320357E+03  0.95998513251E+03  0.80000000000E+03 0.  0.
<mgrwt>
<rscale>  0 0.19133352E+04</rscale>
<asrwt>0</asrwt>
<pdfrwt beam="1">  1        2 0.14977377E+00 0.19133352E+04</pdfrwt>
<pdfrwt beam="2">  1       -2 0.14463042E+00 0.19133352E+04</pdfrwt>
<totfact> 0.80858930E+00</totfact>
</mgrwt>
</event>
<event>
 4    1  0.7144937E-008  0.2152739E+04  0.7816531E-02  0.8538361E-01
          1   -1    0    0  501    0  0.00000000000E+00  0.00000000000E+00  0.17468534997E+04  0.17468534997E+04  0.00000000000E+00 0.  1.
         -1   -1    0    0    0  501 -0.00000000000E+00 -0.00000000000E+00 -0.66323308058E+03  0.66323308058E+03  0.00000000000E+00 0. -1.
    2000013    1    1    2    0    0 -0.10579007228E+03  0.69510203284E+03  0.71601596588E+03  0.12833694865E+04  0.80000000000E+03 0.  0.
   -2000013    1    1    2    0    0  0.10579007228E+03 -0.69510203284E+03  0.36760445328E+03  0.11267170938E+04  0.80000000000E+03 0.  0.
<mgrwt>
<rscale>  0 0.21527387E+04</rscale>
<asrwt>0</asrwt>
<pdfrwt beam="1">  1        1 0.26874669E+00 0.21527387E+04</pdfrwt>
<pdfrwt beam="2">  1       -1 0.10203586E+00 0.21527387E+04</pdfrwt>
<totfact> 0.36879740E+00</totfact>
</mgrwt>
</event>
<event>
 4    1  0.7144937E-008  0.2085589E+04  0.7816531E-02  0.8567618E-01
          2   -1    0    0  501    0  0.00000000000E+00  0.00000000000E+00  0.25603909795E+04  0.25603909795E+04  0.00000000000E+00 0.  1.
         -2   -1    0    0    0  501 -0.00000000000E+00 -0.00000000000E+00 -0.42470863852E+03  0.42470863852E+03  0.00000000000E+00 0. -1.
    2000013    1    1    2    0    0 -0.15777266512E+03  0.46122053613E+03  0.17234375987E+04  0.19615946965E+04  0.80000000000E+03 0.  0.
   -2000013    1    1    2    0    0  0.15777266512E+03 -0.46122053613E+03  0.41224474229E+03  0.10235049215E+04  0.80000000000E+03 0.  0.
<mgrwt>
<rscale>  0 0.20855888E+04</rscale>
<asrwt>0</asrwt>
<pdfrwt beam="1">  1        2 0.39390630E+00 0.20855888E+04</pdfrwt>
<pdfrwt beam="2">  1       -2 0.65339792E-01 0.20855888E+04</pdfrwt>
<totfact> 0.63971577E+00</totfact>
</mgrwt>
</event>
<event>
 4    1  0.7144937E-008  0.2340419E+04  0.7816531E-02  0.8462153E-01
          2   -1    0    0  501    0  0.00000000000E+00  0.00000000000E+00  0.70128685525E+03  0.70128685525E+03  0.00000000000E+00 0.  1.
         -2   -1    0    0    0  501 -0.00000000000E+00 -0.00000000000E+00 -0.19526813910E+04  0.19526813910E+04  0.00000000000E+00 0. -1.
    2000013    1    1    2    0    0 -0.61053301917E+02  0.85162020428E+03 -0.60286768528E+03  0.13162195577E+04  0.80000000000E+03 0.  0.
   -2000013    1    1    2    0    0  0.61053301917E+02 -0.85162020428E+03 -0.64852685045E+03  0.13377486886E+04  0.80000000000E+03 0.  0.
<mgrwt>
<rscale>  0 0.23404186E+04</rscale>
<asrwt>0</asrwt>
<pdfrwt beam="1">  1        2 0.10789029E+00 0.23404186E+04</pdfrwt>
<pdfrwt beam="2">  1       -2 0.30041252E+00 0.23404186E+04</pdfrwt>
<totfact> 0.11676307E+00</totfact>
</mgrwt>
</event>
<event>
 4    1  0.7144937E-008  0.1971163E+04  0.7816531E-02  0.8620223E-01
          2   -1    0    0  501    0  0.00000000000E+00  0.00000000000E+00  0.10287854124E+04  0.10287854124E+04  0.00000000000E+00 0.  1.
         -2   -1    0    0    0  501 -0.00000000000E+00 -0.00000000000E+00 -0.94419177161E+03  0.94419177161E+03  0.00000000000E+00 0. -1.
    2000013    1    1    2    0    0  0.37542755616E+03 -0.42613064689E+03  0.13639155758E+03  0.99052301090E+03  0.80000000000E+03 0.  0.
   -2000013    1    1    2    0    0 -0.37542755616E+03  0.42613064689E+03 -0.51797916745E+02  0.98245417314E+03  0.80000000000E+03 0.  0.
<mgrwt>
<rscale>  0 0.19711628E+04</rscale>
<asrwt>0</asrwt>
<pdfrwt beam="1">  1        2 0.15827468E+00 0.19711628E+04</pdfrwt>
<pdfrwt beam="2">  1       -2 0.14526027E+00 0.19711628E+04</pdfrwt>
<totfact> 0.73320465E+00</totfact>
</mgrwt>
</event>
<event>
 4    1  0.7144937E-008  0.2150378E+04  0.7816531E-02  0.8539370E-01
          2   -1    0    0  501    0  0.00000000000E+00  0.00000000000E+00  0.26823131385E+04  0.26823131385E+04  0.00000000000E+00 0.  1.
         -2   -1    0    0    0  501 -0.00000000000E+00 -0.00000000000E+00 -0.43098314354E+03  0.43098314354E+03  0.00000000000E+00 0. -1.
    2000013    1    1    2    0    0  0.67773604005E+03 -0.14445683604E+03  0.13997444227E+04  0.17548442570E+04  0.80000000000E+03 0.  0.
   -2000013    1    1    2    0    0 -0.67773604005E+03  0.14445683604E+03  0.85158557228E+03  0.13584520251E+04  0.80000000000E+03 0.  0.
<mgrwt>
<rscale>  0 0.21503783E+04</rscale>
<asrwt>0</asrwt>
<pdfrwt beam="1">  1        2 0.41266355E+00 0.21503783E+04</pdfrwt>
<pdfrwt beam="2">  1       -2 0.66305101E-01 0.21503783E+04</pdfrwt>
<totfact> 0.52252681E+00</totfact>
</mgrwt>
</event>
<event>
 4    1  0.7144937E-008  0.4260970E+04  0.7816531E-02  0.7953875E-01
          2   -1    0    0  501    0  0.00000000000E+00  0.00000000000E+00  0.14863107400E+04  0.14863107400E+04  0.00000000000E+00 0.  1.
         -2   -1    0    0    0  501 -0.00000000000E+00 -0.00000000000E+00 -0.30538468897E+04  0.30538468897E+04  0.00000000000E+00 0. -1.
    2000013    1    1    2    0    0  0.13079770774E+04 -0.14768881127E+04 -0.87267948966E+03  0.23007763959E+04  0.80000000000E+03 0.  0.
   -2000013    1    1    2    0    0 -0.13079770774E+04  0.14768881127E+04 -0.69485666007E+03  0.22393812338E+04  0.80000000000E+03 0.  0.
<mgrwt>
<rscale>  0 0.42609696E+04</rscale>
<asrwt>0</asrwt>
<pdfrwt beam="1">  1        2 0.22866319E+00 0.42609696E+04</pdfrwt>
<pdfrwt beam="2">  1       -2 0.46982259E+00 0.42609696E+04</pdfrwt>
<totfact> 0.25696921E-02</totfact>
</mgrwt>
</event>
<event>
 4    1  0.7144937E-008  0.1958485E+04  0.7816531E-02  0.8626280E-01
         -1   -1    0    0    0  501 -0.00000000000E+00  0.00000000000E+00  0.64838399448E+03  0.64838399448E+03  0.00000000000E+00 0. -1.
          1   -1    0    0  501    0  0.00000000000E+00 -0.00000000000E+00 -0.14789316453E+04  0.14789316453E+04  0.00000000000E+00 0.  1.
    2000013    1    1    2    0    0 -0.51451779293E+03 -0.81443409328E+02 -0.65214126187E+03  0.11561357246E+04  0.80000000000E+03 0.  0.
   -2000013    1    1    2    0    0  0.51451779293E+03  0.81443409328E+02 -0.17840638899E+03  0.97117991525E+03  0.80000000000E+03 0.  0.
<mgrwt>
<rscale>  0 0.19584847E+04</rscale>
<asrwt>0</asrwt>
<pdfrwt beam="2">  1        1 0.22752794E+00 0.19584847E+04</pdfrwt>
<pdfrwt beam="1">  1       -1 0.99751385E-01 0.19584847E+04</pdfrwt>
<totfact> 0.60376832E+00</totfact>
</mgrwt>
</event>
<event>
 4    1  0.7144937E-008  0.1864538E+04  0.7816531E-02  0.8672712E-01
          2   -1    0    0  501    0  0.00000000000E+00  0.00000000000E+00  0.22553594297E+04  0.22553594297E+04  0.00000000000E+00 0.  1.
         -2   -1    0    0    0  501 -0.00000000000E+00 -0.00000000000E+00 -0.38536020041E+03  0.38536020041E+03  0.00000000000E+00 0. -1.
    2000013    1    1    2    0    0  0.46711757128E+02  0.36158216767E+03  0.49571773960E+03  0.10092867430E+04  0.80000000000E+03 0.  0.
   -2000013    1    1    2    0    0 -0.46711757128E+02 -0.36158216767E+03  0.13742814897E+04  0.16314328871E+04  0.80000000000E+03 0.  0.
<mgrwt>
<rscale>  0 0.18645383E+04</rscale>
<asrwt>0</asrwt>
<pdfrwt beam="1">  1        2 0.34697837E+00 0.18645383E+04</pdfrwt>
<pdfrwt beam="2">  1       -2 0.59286186E-01 0.18645383E+04</pdfrwt>
<totfact> 0.11992448E+01</totfact>
</mgrwt>
</event>
<event>
 4    1  0.7144937E-008  0.2560316E+04  0.7816531E-02  0.8381807E-01
         -2   -1    0    0    0  501 -0.00000000000E+00  0.00000000000E+00  0.14212440433E+04  0.14212440433E+04  0.00000000000E+00 0. -1.
          2   -1    0    0  501    0  0.00000000000E+00 -0.00000000000E+00 -0.11530771876E+04  0.11530771876E+04  0.00000000000E+00 0.  1.
    2000013    1    1    2    0    0 -0.36995586426E+03  0.82731570178E+03  0.55767823678E+03  0.13312864559E+04  0.80000000000E+03 0.  0.
   -2000013    1    1    2    0    0  0.36995586426E+03 -0.82731570178E+03 -0.28951138110E+03  0.12430347749E+04  0.80000000000E+03 0.  0.
<mgrwt>
<rscale>  0 0.25603157E+04</rscale>
<asrwt>0</asrwt>
<pdfrwt beam="2">  1        2 0.17739649E+00 0.25603157E+04</pdfrwt>
<pdfrwt beam="1">  1       -2 0.21865293E+00 0.25603157E+04</pdfrwt>
<totfact> 0.18082572E+00</totfact>
</mgrwt>
</event>
<event>
 4    1  0.7144937E-008  0.2586606E+04  0.7816531E-02  0.8372765E-01
         -2   -1    0    0    0  501 -0.00000000000E+00  0.00000000000E+00  0.85577809635E+03  0.85577809635E+03  0.00000000000E+00 0. -1.
          2   -1    0    0  501    0  0.00000000000E+00 -0.00000000000E+00 -0.19545167743E+04  0.19545167743E+04  0.00000000000E+00 0.  1.
    2000013    1    1    2    0    0  0.10937716751E+03 -0.10005351556E+04 -0.39726729668E+03  0.13456802248E+04  0.80000000000E+03 0.  0.
   -2000013    1    1    2    0    0 -0.10937716751E+03  0.10005351556E+04 -0.70147138132E+03  0.14646146459E+04  0.80000000000E+03 0.  0.
<mgrwt>
<rscale>  0 0.25866060E+04</rscale>
<asrwt>0</asrwt>
<pdfrwt beam="2">  1        2 0.30069488E+00 0.25866060E+04</pdfrwt>
<pdfrwt beam="1">  1       -2 0.13165817E+00 0.25866060E+04</pdfrwt>
<totfact> 0.26375715E+00</totfact>
</mgrwt>
</event>
<event>
 4    1  0.7144937E-008  0.2868666E+04  0.7816531E-02  0.8282262E-01
          2   -1    0    0  501    0  0.00000000000E+00  0.00000000000E+00  0.14254900047E+04  0.14254900047E+04  0.00000000000E+00 0.  1.
         -2   -1    0    0    0  501 -0.00000000000E+00 -0.00000000000E+00 -0.14432309372E+04  0.14432309372E+04  0.00000000000E+00 0. -1.
    2000013    1    1    2    0    0  0.81876602641E+03 -0.81399401092E+03  0.28156101573E+03  0.14325643655E+04  0.80000000000E+03 0.  0.
   -2000013    1    1    2    0    0 -0.81876602641E+03  0.81399401092E+03 -0.29930194823E+03  0.14361565764E+04  0.80000000000E+03 0.  0.
<mgrwt>
<rscale>  0 0.28686661E+04</rscale>
<asrwt>0</asrwt>
<pdfrwt beam="1">  1        2 0.21930615E+00 0.28686661E+04</pdfrwt>
<pdfrwt beam="2">  1       -2 0.22203553E+00 0.28686661E+04</pdfrwt>
<totfact> 0.11617639E+00</totfact>
</mgrwt>
</event>
<event>
 4    1  0.7144937E-008  0.1895777E+04  0.7816531E-02  0.8656961E-01
         -2   -1    0    0    0  501 -0.00000000000E+00  0.00000000000E+00  0.42942737854E+03  0.42942737854E+03  0.00000000000E+00 0. -1.
          2   -1    0    0  501    0  0.00000000000E+00 -0.00000000000E+00 -0.20923040219E+04  0.20923040219E+04  0.00000000000E+00 0.  1.
    2000013    1    1    2    0    0  0.40189159257E+03  0.65139838267E+02 -0.12365061423E+04  0.15279749640E+04  0.80000000000E+03 0.  0.
   -2000013    1    1    2    0    0 -0.40189159257E+03 -0.65139838267E+02 -0.42637050102E+03  0.99375643638E+03  0.80000000000E+03 0.  0.
<mgrwt>
<rscale>  0 0.18957770E+04</rscale>
<asrwt>0</asrwt>
<pdfrwt beam="2">  1        2 0.32189293E+00 0.18957770E+04</pdfrwt>
<pdfrwt beam="1">  1       -2 0.66065750E-01 0.18957770E+04</pdfrwt>
<totfact> 0.11719712E+01</totfact>
</mgrwt>
</event>
<event>
 4    1  0.7144937E-008  0.2203514E+04  0.7816531E-02  0.8516967E-01
          2   -1    0    0  501    0  0.00000000000E+00  0.00000000000E+00  0.18551448970E+04  0.18551448970E+04  0.00000000000E+00 0.  1.
         -2   -1    0    0    0  501 -0.00000000000E+00 -0.00000000000E+00 -0.65432560518E+03  0.65432560518E+03  0.00000000000E+00 0. -1.
    2000013    1    1    2    0    0  0.65928179627E+03 -0.23083612409E+03  0.93425179497E+03  0.14144837290E+04  0.80000000000E+03 0.  0.
   -2000013    1    1    2    0    0 -0.65928179627E+03  0.23083612409E+03  0.26656749681E+03  0.10949867732E+04  0.80000000000E+03 0.  0.
<mgrwt>
<rscale>  0 0.22035143E+04</rscale>
<asrwt>0</asrwt>
<pdfrwt beam="1">  1        2 0.28540690E+00 0.22035143E+04</pdfrwt>
<pdfrwt beam="2">  1       -2 0.10066548E+00 0.22035143E+04</pdfrwt>
<totfact> 0.59746059E+00</totfact>
</mgrwt>
</event>
<event>
 4    1  0.7144937E-008  0.2562987E+04  0.7816531E-02  0.8380883E-01
          2   -1    0    0  501    0  0.00000000000E+00  0.00000000000E+00  0.29451571118E+04  0.29451571118E+04  0.00000000000E+00 0.  1.
         -2   -1    0    0    0  501 -0.00000000000E+00 -0.00000000000E+00 -0.55760223195E+03  0.55760223195E+03  0.00000000000E+00 0. -1.
    2000013    1    1    2    0    0  0.70683515165E+03 -0.17372794526E+03  0.21331373552E+04  0.23916672650E+04  0.80000000000E+03 0.  0.
   -2000013    1    1    2    0    0 -0.70683515165E+03  0.17372794526E+03  0.25441752470E+03  0.11110920787E+04  0.80000000000E+03 0.  0.
<mgrwt>
<rscale>  0 0.25629875E+04</rscale>
<asrwt>0</asrwt>
<pdfrwt beam="1">  1        2 0.45310108E+00 0.25629875E+04</pdfrwt>
<pdfrwt beam="2">  1       -2 0.85784961E-01 0.25629875E+04</pdfrwt>
<totfact> 0.19721635E+00</totfact>
</mgrwt>
</event>
<event>
 4    1  0.7144937E-008  0.2707270E+04  0.7816531E-02  0.8332650E-01
          2   -1    0    0  501    0  0.00000000000E+00  0.00000000000E+00  0.19299377519E+04  0.19299377519E+04  0.00000000000E+00 0.  1.
         -2   -1    0    0    0  501 -0.00000000000E+00 -0.00000000000E+00 -0.94942299607E+03  0.94942299607E+03  0.00000000000E+00 0. -1.
    2000013    1    1    2    0    0  0.14114985811E+03 -0.80390296835E+03 -0.28120877841E+03  0.11769713854E+04  0.80000000000E+03 0.  0.
   -2000013    1    1    2    0    0 -0.14114985811E+03  0.80390296835E+03  0.12617235343E+04  0.17023893626E+04  0.80000000000E+03 0.  0.
<mgrwt>
<rscale>  0 0.27072697E+04</rscale>
<asrwt>0</asrwt>
<pdfrwt beam="1">  1        2 0.29691350E+00 0.27072697E+04</pdfrwt>
<pdfrwt beam="2">  1       -2 0.14606508E+00 0.27072697E+04</pdfrwt>
<totfact> 0.20598125E+00</totfact>
</mgrwt>
</event>
<event>
 4    1  0.7144937E-008  0.2041425E+04  0.7816531E-02  0.8587494E-01
         -2   -1    0    0    0  501 -0.00000000000E+00  0.00000000000E+00  0.78300854793E+03  0.78300854793E+03  0.00000000000E+00 0. -1.
          2   -1    0    0  501    0  0.00000000000E+00 -0.00000000000E+00 -0.13305782986E+04  0.13305782986E+04  0.00000000000E+00 0.  1.
    2000013    1    1    2    0    0 -0.32587652926E+03 -0.32447360501E+03 -0.72552869177E+03  0.11738272936E+04  0.80000000000E+03 0.  0.
   -2000013    1    1    2    0    0  0.32587652926E+03  0.32447360501E+03  0.17795894105E+03  0.93975955295E+03  0.80000000000E+03 0.  0.
<mgrwt>
<rscale>  0 0.20414252E+04</rscale>
<asrwt>0</asrwt>
<pdfrwt beam="2">  1        2 0.20470435E+00 0.20414252E+04</pdfrwt>
<pdfrwt beam="1">  1       -2 0.12046285E+00 0.20414252E+04</pdfrwt>
<totfact> 0.77287874E+00</totfact>
</mgrwt>
</event>
<event>
 4    1  0.7144937E-008  0.2168872E+04  0.7816531E-02  0.8531497E-01
         -2   -1    0    0    0  501 -0.00000000000E+00  0.00000000000E+00  0.78590880199E+03  0.78590880199E+03  0.00000000000E+00 0. -1.
          2   -1    0    0  501    0  0.00000000000E+00 -0.00000000000E+00 -0.14963581453E+04  0.14963581453E+04  0.00000000000E+00 0.  1.
    2000013    1    1    2    0    0  0.51324412627E+03  0.49415917993E+03 -0.53252175440E+03  0.11963244740E+04  0.80000000000E+03 0.  0.
   -2000013    1    1    2    0    0 -0.51324412627E+03 -0.49415917993E+03 -0.17792758888E+03  0.10859424732E+04  0.80000000000E+03 0.  0.
<mgrwt>
<rscale>  0 0.21688716E+04</rscale>
<asrwt>0</asrwt>
<pdfrwt beam="2">  1        2 0.23020894E+00 0.21688716E+04</pdfrwt>
<pdfrwt beam="1">  1       -2 0.12090905E+00 0.21688716E+04</pdfrwt>
<totfact> 0.60916212E+00</totfact>
</mgrwt>
</event>
<event>
 4    1  0.7144937E-008  0.3330879E+04  0.7816531E-02  0.8155082E-01
         -2   -1    0    0    0  501 -0.00000000000E+00  0.00000000000E+00  0.78003055745E+03  0.78003055745E+03  0.00000000000E+00 0. -1.
          2   -1    0    0  501    0  0.00000000000E+00 -0.00000000000E+00 -0.35558710682E+04  0.35558710682E+04  0.00000000000E+00 0.  1.
    2000013    1    1    2    0    0  0.17641791125E+03  0.87045125251E+03 -0.28975216521E+04  0.31343963353E+04  0.80000000000E+03 0.  0.
   -2000013    1    1    2    0    0 -0.17641791125E+03 -0.87045125251E+03  0.12168114140E+03  0.12015052903E+04  0.80000000000E+03 0.  0.
<mgrwt>
<rscale>  0 0.33308786E+04</rscale>
<asrwt>0</asrwt>
<pdfrwt beam="2">  1        2 0.54705710E+00 0.33308786E+04</pdfrwt>
<pdfrwt beam="1">  1       -2 0.12000470E+00 0.33308786E+04</pdfrwt>
<totfact> 0.32790041E-01</totfact>
</mgrwt>
</event>
<event>
 4    1  0.7144937E-008  0.1840109E+04  0.7816531E-02  0.8685256E-01
         -1   -1    0    0    0  501 -0.00000000000E+00  0.00000000000E+00  0.55756192178E+03  0.55756192178E+03  0.00000000000E+00 0.  1.
          1   -1    0    0  501    0  0.00000000000E+00 -0.00000000000E+00 -0.15182178103E+04  0.15182178103E+04  0.00000000000E+00 0. -1.
    2000013    1    1    2    0    0  0.30737648856E+03  0.30982487798E+03 -0.33750876058E+03  0.97179417790E+03  0.80000000000E+03 0.  0.
   -2000013    1    1    2    0    0 -0.30737648856E+03 -0.30982487798E+03 -0.62314712791E+03  0.11039855541E+04  0.80000000000E+03 0.  0.
<mgrwt>
<rscale>  0 0.18401092E+04</rscale>
<asrwt>0</asrwt>
<pdfrwt beam="2">  1        1 0.23357197E+00 0.18401092E+04</pdfrwt>
<pdfrwt beam="1">  1       -1 0.85778758E-01 0.18401092E+04</pdfrwt>
<totfact> 0.80196980E+00</totfact>
</mgrwt>
</event>
<event>
 4    1  0.7144937E-008  0.1974481E+04  0.7816531E-02  0.8618645E-01
         -2   -1    0    0    0  501 -0.00000000000E+00  0.00000000000E+00  0.95215436002E+03  0.95215436002E+03  0.00000000000E+00 0. -1.
          2   -1    0    0  501    0  0.00000000000E+00 -0.00000000000E+00 -0.10236198661E+04  0.10236198661E+04  0.00000000000E+00 0.  1.
    2000013    1    1    2    0    0 -0.33901345396E+03  0.46871888562E+03 -0.31655434575E+02  0.98773963282E+03  0.80000000000E+03 0.  0.
   -2000013    1    1    2    0    0  0.33901345396E+03 -0.46871888562E+03 -0.39810071472E+02  0.98803459327E+03  0.80000000000E+03 0.  0.
<mgrwt>
<rscale>  0 0.19744813E+04</rscale>
<asrwt>0</asrwt>
<pdfrwt beam="2">  1        2 0.15747998E+00 0.19744813E+04</pdfrwt>
<pdfrwt beam="1">  1       -2 0.14648529E+00 0.19744813E+04</pdfrwt>
<totfact> 0.72242124E+00</totfact>
</mgrwt>
</event>
<event>
 4    1  0.7144937E-008  0.2867286E+04  0.7816531E-02  0.8282678E-01
         -2   -1    0    0    0  501 -0.00000000000E+00  0.00000000000E+00  0.19672834103E+04  0.19672834103E+04  0.00000000000E+00 0. -1.
          2   -1    0    0  501    0  0.00000000000E+00 -0.00000000000E+00 -0.10447566749E+04  0.10447566749E+04  0.00000000000E+00 0.  1.
    2000013    1    1    2    0    0 -0.11412540613E+04  0.27821462737E+03  0.26342538710E+03  0.14454262851E+04  0.80000000000E+03 0.  0.
   -2000013    1    1    2    0    0  0.11412540613E+04 -0.27821462737E+03  0.65910134823E+03  0.15666138000E+04  0.80000000000E+03 0.  0.
<mgrwt>
<rscale>  0 0.28672862E+04</rscale>
<asrwt>0</asrwt>
<pdfrwt beam="2">  1        2 0.16073180E+00 0.28672862E+04</pdfrwt>
<pdfrwt beam="1">  1       -2 0.30265899E+00 0.28672862E+04</pdfrwt>
<totfact> 0.62485912E-01</totfact>
</mgrwt>
</event>
<event>
 4    1  0.7144937E-008  0.1690470E+04  0.7816531E-02  0.8766819E-01
         -2   -1    0    0    0  501 -0.00000000000E+00  0.00000000000E+00  0.75186032056E+03  0.75186032056E+03  0.00000000000E+00 0. -1.
          2   -1    0    0  501    0  0.00000000000E+00 -0.00000000000E+00 -0.95020568563E+03  0.95020568563E+03  0.00000000000E+00 0.  1.
    2000013    1    1    2    0    0 -0.17712485770E+03 -0.17310167483E+03 -0.21434506274E+03  0.86445428506E+03  0.80000000000E+03 0.  0.
   -2000013    1    1    2    0    0  0.17712485770E+03  0.17310167483E+03  0.15999697668E+02  0.83761172113E+03  0.80000000000E+03 0.  0.
<mgrwt>
<rscale>  0 0.16904697E+04</rscale>
<asrwt>0</asrwt>
<pdfrwt beam="2">  1        2 0.14618549E+00 0.16904697E+04</pdfrwt>
<pdfrwt beam="1">  1       -2 0.11567082E+00 0.16904697E+04</pdfrwt>
<totfact> 0.15025730E+01</totfact>
</mgrwt>
</event>
<event>
 4    1  0.7144937E-008  0.1826821E+04  0.7816531E-02  0.8692165E-01
          1   -1    0    0  501    0  0.00000000000E+00  0.00000000000E+00  0.15567588301E+04  0.15567588301E+04  0.00000000000E+00 0. -1.
         -1   -1    0    0    0  501 -0.00000000000E+00 -0.00000000000E+00 -0.53593320379E+03  0.53593320379E+03  0.00000000000E+00 0.  1.
    2000013    1    1    2    0    0 -0.29219573338E+03 -0.87443320371E+02  0.87499993768E+03  0.12241934373E+04  0.80000000000E+03 0.  0.
   -2000013    1    1    2    0    0  0.29219573338E+03  0.87443320371E+02  0.14582568863E+03  0.86849859663E+03  0.80000000000E+03 0.  0.
<mgrwt>
<rscale>  0 0.18268210E+04</rscale>
<asrwt>0</asrwt>
<pdfrwt beam="1">  1        1 0.23950136E+00 0.18268210E+04</pdfrwt>
<pdfrwt beam="2">  1       -1 0.82451262E-01 0.18268210E+04</pdfrwt>
<totfact> 0.82263056E+00</totfact>
</mgrwt>
</event>
<event>
 4    1  0.7144937E-008  0.2335972E+04  0.7816531E-02  0.8463872E-01
         -2   -1    0    0    0  501 -0.00000000000E+00  0.00000000000E+00  0.45553939726E+03  0.45553939726E+03  0.00000000000E+00 0. -1.
          2   -1    0    0  501    0  0.00000000000E+00 -0.00000000000E+00 -0.29946717276E+04  0.29946717276E+04  0.00000000000E+00 0.  1.
    2000013    1    1    2    0    0 -0.65383239385E+03  0.36055141398E+03 -0.18726001201E+04  0.21688995668E+04  0.80000000000E+03 0.  0.
   -2000013    1    1    2    0    0  0.65383239385E+03 -0.36055141398E+03 -0.66653221026E+03  0.12813115580E+04  0.80000000000E+03 0.  0.
<mgrwt>
<rscale>  0 0.23359717E+04</rscale>
<asrwt>0</asrwt>
<pdfrwt beam="2">  1        2 0.46071873E+00 0.23359717E+04</pdfrwt>
<pdfrwt beam="1">  1       -2 0.70082984E-01 0.23359717E+04</pdfrwt>
<totfact> 0.29427237E+00</totfact>
</mgrwt>
</event>
<event>
 4    1  0.7144937E-008  0.2641044E+04  0.7816531E-02  0.8354392E-01
          2   -1    0    0  501    0  0.00000000000E+00  0.00000000000E+00  0.19777147631E+04  0.19777147631E+04  0.00000000000E+00 0. -1.
         -2   -1    0    0    0  501 -0.00000000000E+00 -0.00000000000E+00 -0.88171369888E+03  0.88171369888E+03  0.00000000000E+00 0.  1.
    2000013    1    1    2    0    0 -0.62522975963E+03  0.60061109411E+03 -0.94474900440E+02  0.11834574118E+04  0.80000000000E+03 0.  0.
   -2000013    1    1    2    0    0  0.62522975963E+03 -0.60061109411E+03  0.11904759647E+04  0.16759710502E+04  0.80000000000E+03 0.  0.
<mgrwt>
<rscale>  0 0.26410439E+04</rscale>
<asrwt>0</asrwt>
<pdfrwt beam="1">  1        2 0.30426381E+00 0.26410439E+04</pdfrwt>
<pdfrwt beam="2">  1       -2 0.13564826E+00 0.26410439E+04</pdfrwt>
<totfact> 0.23619649E+00</totfact>
</mgrwt>
</event>
<event>
 4    1  0.7144937E-008  0.2132163E+04  0.7816531E-02  0.8547206E-01
         -2   -1    0    0    0  501 -0.00000000000E+00  0.00000000000E+00  0.50020271360E+03  0.50020271360E+03  0.00000000000E+00 0. -1.
          2   -1    0    0  501    0  0.00000000000E+00 -0.00000000000E+00 -0.22721379994E+04  0.22721379994E+04  0.00000000000E+00 0.  1.
    2000013    1    1    2    0    0  0.57937529269E+03 -0.39994822512E+03 -0.92487267471E+03  0.14110364194E+04  0.80000000000E+03 0.  0.
   -2000013    1    1    2    0    0 -0.57937529269E+03  0.39994822512E+03 -0.84706261109E+03  0.13613042936E+04  0.80000000000E+03 0.  0.
<mgrwt>
<rscale>  0 0.21321628E+04</rscale>
<asrwt>0</asrwt>
<pdfrwt beam="2">  1        2 0.34955969E+00 0.21321628E+04</pdfrwt>
<pdfrwt beam="1">  1       -2 0.76954263E-01 0.21321628E+04</pdfrwt>
<totfact> 0.65161776E+00</totfact>
</mgrwt>
</event>
<event>
 4    1  0.7144937E-008  0.2708499E+04  0.7816531E-02  0.8332253E-01
         -2   -1    0    0    0  501 -0.00000000000E+00  0.00000000000E+00  0.96674769683E+03  0.96674769683E+03  0.00000000000E+00 0. -1.
          2   -1    0    0  501    0  0.00000000000E+00 -0.00000000000E+00 -0.18970740252E+04  0.18970740252E+04  0.00000000000E+00 0.  1.
    2000013    1    1    2    0    0  0.55384595850E+03  0.54981285052E+03  0.34351840547E+03  0.11692067444E+04  0.80000000000E+03 0.  0.
   -2000013    1    1    2    0    0 -0.55384595850E+03 -0.54981285052E+03 -0.12738447338E+04  0.16946149776E+04  0.80000000000E+03 0.  0.
<mgrwt>
<rscale>  0 0.27084992E+04</rscale>
<asrwt>0</asrwt>
<pdfrwt beam="2">  1        2 0.29185754E+00 0.27084992E+04</pdfrwt>
<pdfrwt beam="1">  1       -2 0.14873042E+00 0.27084992E+04</pdfrwt>
<totfact> 0.20478994E+00</totfact>
</mgrwt>
</event>
<event>
 4    1  0.7144937E-008  0.3388020E+04  0.7816531E-02  0.8140853E-01
          2   -1    0    0  501    0  0.00000000000E+00  0.00000000000E+00  0.20359888199E+04  0.20359888199E+04  0.00000000000E+00 0.  1.
         -2   -1    0    0    0  501 -0.00000000000E+00 -0.00000000000E+00 -0.14094723726E+04  0.14094723726E+04  0.00000000000E+00 0. -1.
    2000013    1    1    2    0    0  0.14055917227E+03 -0.86041259674E+03  0.15460832567E+04  0.19469052761E+04  0.80000000000E+03 0.  0.
   -2000013    1    1    2    0    0 -0.14055917227E+03  0.86041259674E+03 -0.91956680946E+03  0.14985559164E+04  0.80000000000E+03 0.  0.
<mgrwt>
<rscale>  0 0.33880201E+04</rscale>
<asrwt>0</asrwt>
<pdfrwt beam="1">  1        2 0.31322905E+00 0.33880201E+04</pdfrwt>
<pdfrwt beam="2">  1       -2 0.21684190E+00 0.33880201E+04</pdfrwt>
<totfact> 0.54765285E-01</totfact>
</mgrwt>
</event>
<event>
 4    1  0.7144937E-008  0.1946441E+04  0.7816531E-02  0.8632079E-01
         -1   -1    0    0    0  501 -0.00000000000E+00  0.00000000000E+00  0.19783323141E+04  0.19783323141E+04  0.00000000000E+00 0. -1.
          1   -1    0    0  501    0  0.00000000000E+00 -0.00000000000E+00 -0.47876601002E+03  0.47876601002E+03  0.00000000000E+00 0.  1.
    2000013    1    1    2    0    0  0.59370704623E+02 -0.50894127390E+03  0.10164124845E+04  0.13912729565E+04  0.80000000000E+03 0.  0.
   -2000013    1    1    2    0    0 -0.59370704623E+02  0.50894127390E+03  0.48315381953E+03  0.10658253676E+04  0.80000000000E+03 0.  0.
<mgrwt>
<rscale>  0 0.19464411E+04</rscale>
<asrwt>0</asrwt>
<pdfrwt beam="2">  1        1 0.73656311E-01 0.19464411E+04</pdfrwt>
<pdfrwt beam="1">  1       -1 0.30435881E+00 0.19464411E+04</pdfrwt>
<totfact> 0.13579931E+00</totfact>
</mgrwt>
</event>
<event>
 4    1  0.7144937E-008  0.2523832E+04  0.7816531E-02  0.8394544E-01
         -2   -1    0    0    0  501 -0.00000000000E+00  0.00000000000E+00  0.97035742340E+03  0.97035742340E+03  0.00000000000E+00 0. -1.
          2   -1    0    0  501    0  0.00000000000E+00 -0.00000000000E+00 -0.16410775382E+04  0.16410775382E+04  0.00000000000E+00 0.  1.
    2000013    1    1    2    0    0  0.92059473793E+03  0.14119914430E+03 -0.33692912365E+02  0.12282373884E+04  0.80000000000E+03 0.  0.
   -2000013    1    1    2    0    0 -0.92059473793E+03 -0.14119914430E+03 -0.63702720239E+03  0.13831975732E+04  0.80000000000E+03 0.  0.
<mgrwt>
<rscale>  0 0.25238318E+04</rscale>
<asrwt>0</asrwt>
<pdfrwt beam="2">  1        2 0.25247347E+00 0.25238318E+04</pdfrwt>
<pdfrwt beam="1">  1       -2 0.14928576E+00 0.25238318E+04</pdfrwt>
<totfact> 0.28574102E+00</totfact>
</mgrwt>
</event>
<event>
 4    1  0.7144937E-008  0.1850183E+04  0.7816531E-02  0.8680059E-01
         -4   -1    0    0    0  501 -0.00000000000E+00  0.00000000000E+00  0.40681486578E+03  0.40681486578E+03  0.00000000000E+00 0. -1.
          4   -1    0    0  501    0  0.00000000000E+00 -0.00000000000E+00 -0.21036457407E+04  0.21036457407E+04  0.00000000000E+00 0.  1.
    2000013    1    1    2    0    0  0.41695636317E+03 -0.47473640335E+02 -0.57810156376E+03  0.10725240199E+04  0.80000000000E+03 0.  0.
   -2000013    1    1    2    0    0 -0.41695636317E+03  0.47473640335E+02 -0.11187293112E+04  0.14379365866E+04  0.80000000000E+03 0.  0.
<mgrwt>
<rscale>  0 0.18501831E+04</rscale>
<asrwt>0</asrwt>
<pdfrwt beam="2">  1        4 0.32363781E+00 0.18501831E+04</pdfrwt>
<pdfrwt beam="1">  1       -4 0.62586902E-01 0.18501831E+04</pdfrwt>
<totfact> 0.99078142E-02</totfact>
</mgrwt>
</event>
<event>
 4    1  0.7144937E-008  0.3142381E+04  0.7816531E-02  0.8204202E-01
          2   -1    0    0  501    0  0.00000000000E+00  0.00000000000E+00  0.28426612274E+04  0.28426612274E+04  0.00000000000E+00 0.  1.
         -2   -1    0    0    0  501 -0.00000000000E+00 -0.00000000000E+00 -0.86842539059E+03  0.86842539059E+03  0.00000000000E+00 0. -1.
    2000013    1    1    2    0    0  0.69603520511E+03 -0.11418177570E+04  0.74966650138E+03  0.17292231378E+04  0.80000000000E+03 0.  0.
   -2000013    1    1    2    0    0 -0.69603520511E+03  0.11418177570E+04  0.12245693354E+04  0.19818634802E+04  0.80000000000E+03 0.  0.
<mgrwt>
<rscale>  0 0.31423807E+04</rscale>
<asrwt>0</asrwt>
<pdfrwt beam="1">  1        2 0.43733249E+00 0.31423807E+04</pdfrwt>
<pdfrwt beam="2">  1       -2 0.13360391E+00 0.31423807E+04</pdfrwt>
<totfact> 0.74629303E-01</totfact>
</mgrwt>
</event>
<event>
 4    1  0.7144937E-008  0.1835658E+04  0.7816531E-02  0.8687563E-01
         -2   -1    0    0    0  501 -0.00000000000E+00  0.00000000000E+00  0.58139659754E+03  0.58139659754E+03  0.00000000000E+00 0. -1.
          2   -1    0    0  501    0  0.00000000000E+00 -0.00000000000E+00 -0.14489425760E+04  0.14489425760E+04  0.00000000000E+00 0.  1.
    2000013    1    1    2    0    0  0.43961655544E+03 -0.95617960445E+02 -0.43135643411E+03  0.10141370141E+04  0.80000000000E+03 0.  0.
   -2000013    1    1    2    0    0 -0.43961655544E+03  0.95617960445E+02 -0.43618954434E+03  0.10162021594E+04  0.80000000000E+03 0.  0.
<mgrwt>
<rscale>  0 0.18356582E+04</rscale>
<asrwt>0</asrwt>
<pdfrwt beam="2">  1        2 0.22291424E+00 0.18356582E+04</pdfrwt>
<pdfrwt beam="1">  1       -2 0.89445630E-01 0.18356582E+04</pdfrwt>
<totfact> 0.13693945E+01</totfact>
</mgrwt>
</event>
<event>
 4    1  0.7144937E-008  0.2206145E+04  0.7816531E-02  0.8515875E-01
          2   -1    0    0  501    0  0.00000000000E+00  0.00000000000E+00  0.24990726653E+04  0.24990726653E+04  0.00000000000E+00 0.  1.
         -2   -1    0    0    0  501 -0.00000000000E+00 -0.00000000000E+00 -0.48688808615E+03  0.48688808615E+03  0.00000000000E+00 0. -1.
    2000013    1    1    2    0    0 -0.47414327594E+01 -0.75943453429E+03  0.10092415828E+04  0.14951026271E+04  0.80000000000E+03 0.  0.
   -2000013    1    1    2    0    0  0.47414327594E+01  0.75943453429E+03  0.10029429963E+04  0.14908581244E+04  0.80000000000E+03 0.  0.
<mgrwt>
<rscale>  0 0.22061448E+04</rscale>
<asrwt>0</asrwt>
<pdfrwt beam="1">  1        2 0.38447271E+00 0.22061448E+04</pdfrwt>
<pdfrwt beam="2">  1       -2 0.74905861E-01 0.22061448E+04</pdfrwt>
<totfact> 0.50992327E+00</totfact>
</mgrwt>
</event>
<event>
 4    1  0.7144937E-008  0.2124321E+04  0.7816531E-02  0.8550605E-01
          1   -1    0    0  501    0  0.00000000000E+00  0.00000000000E+00  0.99999327208E+03  0.99999327208E+03  0.00000000000E+00 0.  1.
         -1   -1    0    0    0  501 -0.00000000000E+00 -0.00000000000E+00 -0.11281920710E+04  0.11281920710E+04  0.00000000000E+00 0. -1.
    2000013    1    1    2    0    0  0.43040229717E+03 -0.45930842519E+03  0.23972468464E+03  0.10457907493E+04  0.80000000000E+03 0.  0.
   -2000013    1    1    2    0    0 -0.43040229717E+03  0.45930842519E+03 -0.36792348351E+03  0.10823945937E+04  0.80000000000E+03 0.  0.
<mgrwt>
<rscale>  0 0.21243206E+04</rscale>
<asrwt>0</asrwt>
<pdfrwt beam="1">  1        1 0.15384512E+00 0.21243206E+04</pdfrwt>
<pdfrwt beam="2">  1       -1 0.17356801E+00 0.21243206E+04</pdfrwt>
<totfact> 0.32174975E+00</totfact>
</mgrwt>
</event>
<event>
 4    1  0.7144937E-008  0.2820176E+04  0.7816531E-02  0.8297032E-01
          2   -1    0    0  501    0  0.00000000000E+00  0.00000000000E+00  0.39055028196E+04  0.39055028196E+04  0.00000000000E+00 0.  1.
         -2   -1    0    0    0  501 -0.00000000000E+00 -0.00000000000E+00 -0.50911466909E+03  0.50911466909E+03  0.00000000000E+00 0. -1.
    2000013    1    1    2    0    0  0.96727579526E+02 -0.90848226744E+03  0.57630088339E+03  0.13441796618E+04  0.80000000000E+03 0.  0.
   -2000013    1    1    2    0    0 -0.96727579526E+02  0.90848226744E+03  0.28200872671E+04  0.30704378269E+04  0.80000000000E+03 0.  0.
<mgrwt>
<rscale>  0 0.28201764E+04</rscale>
<asrwt>0</asrwt>
<pdfrwt beam="1">  1        2 0.60084657E+00 0.28201764E+04</pdfrwt>
<pdfrwt beam="2">  1       -2 0.78325336E-01 0.28201764E+04</pdfrwt>
<totfact> 0.51271484E-01</totfact>
</mgrwt>
</event>
<event>
 4    1  0.7144937E-008  0.2093204E+04  0.7816531E-02  0.8564243E-01
          2   -1    0    0  501    0  0.00000000000E+00  0.00000000000E+00  0.88855989645E+03  0.88855989645E+03  0.00000000000E+00 0.  1.
         -2   -1    0    0    0  501 -0.00000000000E+00 -0.00000000000E+00 -0.12327542047E+04  0.12327542047E+04  0.00000000000E+00 0. -1.
    2000013    1    1    2    0    0 -0.11759310097E+03 -0.39191281429E+03 -0.71591511977E+03  0.11488943599E+04  0.80000000000E+03 0.  0.
   -2000013    1    1    2    0    0  0.11759310097E+03  0.39191281429E+03  0.37172081158E+03  0.97241974124E+03  0.80000000000E+03 0.  0.
<mgrwt>
<rscale>  0 0.20932042E+04</rscale>
<asrwt>0</asrwt>
<pdfrwt beam="1">  1        2 0.13670152E+00 0.20932042E+04</pdfrwt>
<pdfrwt beam="2">  1       -2 0.18965449E+00 0.20932042E+04</pdfrwt>
<totfact> 0.42876166E+00</totfact>
</mgrwt>
</event>
<event>
 4    1  0.7144937E-008  0.2488866E+04  0.7816531E-02  0.8406963E-01
         -2   -1    0    0    0  501 -0.00000000000E+00  0.00000000000E+00  0.12217743467E+04  0.12217743467E+04  0.00000000000E+00 0. -1.
          2   -1    0    0  501    0  0.00000000000E+00 -0.00000000000E+00 -0.12675121769E+04  0.12675121769E+04  0.00000000000E+00 0.  1.
    2000013    1    1    2    0    0  0.89073910773E+03 -0.33064897560E+03 -0.99490980258E+02  0.12460511058E+04  0.80000000000E+03 0.  0.
   -2000013    1    1    2    0    0 -0.89073910773E+03  0.33064897560E+03  0.53753150050E+02  0.12432354179E+04  0.80000000000E+03 0.  0.
<mgrwt>
<rscale>  0 0.24888663E+04</rscale>
<asrwt>0</asrwt>
<pdfrwt beam="2">  1        2 0.19500187E+00 0.24888663E+04</pdfrwt>
<pdfrwt beam="1">  1       -2 0.18796528E+00 0.24888663E+04</pdfrwt>
<totfact> 0.24666339E+00</totfact>
</mgrwt>
</event>
<event>
 4    1  0.7144937E-008  0.3113570E+04  0.7816531E-02  0.8212024E-01
         -1   -1    0    0    0  501 -0.00000000000E+00  0.00000000000E+00  0.18491154904E+04  0.18491154904E+04  0.00000000000E+00 0. -1.
          1   -1    0    0  501    0  0.00000000000E+00 -0.00000000000E+00 -0.13106698697E+04  0.13106698697E+04  0.00000000000E+00 0.  1.
    2000013    1    1    2    0    0 -0.13213668835E+04  0.60684846576E+01  0.46583197826E+03  0.16133960144E+04  0.80000000000E+03 0.  0.
   -2000013    1    1    2    0    0  0.13213668835E+04 -0.60684846576E+01  0.72613642527E+02  0.15463893457E+04  0.80000000000E+03 0.  0.
<mgrwt>
<rscale>  0 0.31135703E+04</rscale>
<asrwt>0</asrwt>
<pdfrwt beam="2">  1        1 0.20164152E+00 0.31135703E+04</pdfrwt>
<pdfrwt beam="1">  1       -1 0.28447931E+00 0.31135703E+04</pdfrwt>
<totfact> 0.31184976E-01</totfact>
</mgrwt>
</event>
<event>
 4    1  0.7144937E-008  0.1946402E+04  0.7816531E-02  0.8632098E-01
         -1   -1    0    0    0  501 -0.00000000000E+00  0.00000000000E+00  0.13997923716E+04  0.13997923716E+04  0.00000000000E+00 0. -1.
          1   -1    0    0  501    0  0.00000000000E+00 -0.00000000000E+00 -0.67661505498E+03  0.67661505498E+03  0.00000000000E+00 0.  1.
    2000013    1    1    2    0    0 -0.50760924648E+03 -0.21539810982E+03  0.30260458869E+03  0.10176605671E+04  0.80000000000E+03 0.  0.
   -2000013    1    1    2    0    0  0.50760924648E+03  0.21539810982E+03  0.42057272789E+03  0.10587468594E+04  0.80000000000E+03 0.  0.
<mgrwt>
<rscale>  0 0.19464024E+04</rscale>
<asrwt>0</asrwt>
<pdfrwt beam="2">  1        1 0.10409462E+00 0.19464024E+04</pdfrwt>
<pdfrwt beam="1">  1       -1 0.21535267E+00 0.19464024E+04</pdfrwt>
<totfact> 0.31606905E+00</totfact>
</mgrwt>
</event>
<event>
 4    1  0.7144937E-008  0.2168741E+04  0.7816531E-02  0.8531553E-01
         -2   -1    0    0    0  501 -0.00000000000E+00  0.00000000000E+00  0.12740638988E+04  0.12740638988E+04  0.00000000000E+00 0. -1.
          2   -1    0    0  501    0  0.00000000000E+00 -0.00000000000E+00 -0.92292002362E+03  0.92292002362E+03  0.00000000000E+00 0.  1.
    2000013    1    1    2    0    0 -0.54922024924E+03 -0.45600844848E+03  0.11373162246E+02  0.10722480758E+04  0.80000000000E+03 0.  0.
   -2000013    1    1    2    0    0  0.54922024924E+03  0.45600844848E+03  0.33977071291E+03  0.11247358466E+04  0.80000000000E+03 0.  0.
<mgrwt>
<rscale>  0 0.21687407E+04</rscale>
<asrwt>0</asrwt>
<pdfrwt beam="2">  1        2 0.14198770E+00 0.21687407E+04</pdfrwt>
<pdfrwt beam="1">  1       -2 0.19600983E+00 0.21687407E+04</pdfrwt>
<totfact> 0.36634471E+00</totfact>
</mgrwt>
</event>
<event>
 4    1  0.7144937E-008  0.2288950E+04  0.7816531E-02  0.8482291E-01
          2   -1    0    0  501    0  0.00000000000E+00  0.00000000000E+00  0.12633585505E+04  0.12633585505E+04  0.00000000000E+00 0.  1.
         -2   -1    0    0    0  501 -0.00000000000E+00 -0.00000000000E+00 -0.10367782452E+04  0.10367782452E+04  0.00000000000E+00 0. -1.
    2000013    1    1    2    0    0  0.55011727084E+03 -0.49604659454E+03  0.46303057789E+03  0.11845203889E+04  0.80000000000E+03 0.  0.
   -2000013    1    1    2    0    0 -0.55011727084E+03  0.49604659454E+03 -0.23645027257E+03  0.11156164068E+04  0.80000000000E+03 0.  0.
<mgrwt>
<rscale>  0 0.22889497E+04</rscale>
<asrwt>0</asrwt>
<pdfrwt beam="1">  1        2 0.19436285E+00 0.22889497E+04</pdfrwt>
<pdfrwt beam="2">  1       -2 0.15950435E+00 0.22889497E+04</pdfrwt>
<totfact> 0.40043534E+00</totfact>
</mgrwt>
</event>
<event>
 4    1  0.7144937E-008  0.1809911E+04  0.7816531E-02  0.8701046E-01
          4   -1    0    0  501    0  0.00000000000E+00  0.00000000000E+00  0.99372075376E+03  0.99372075376E+03  0.00000000000E+00 0.  1.
         -4   -1    0    0    0  501 -0.00000000000E+00 -0.00000000000E+00 -0.82411975713E+03  0.82411975713E+03  0.00000000000E+00 0. -1.
    2000013    1    1    2    0    0 -0.38584296751E+03 -0.65981441250E+02  0.24586687043E+03  0.92394743581E+03  0.80000000000E+03 0.  0.
   -2000013    1    1    2    0    0  0.38584296751E+03  0.65981441250E+02 -0.76265873807E+02  0.89389307508E+03  0.80000000000E+03 0.  0.
<mgrwt>
<rscale>  0 0.18099115E+04</rscale>
<asrwt>0</asrwt>
<pdfrwt beam="1">  1        4 0.15288012E+00 0.18099115E+04</pdfrwt>
<pdfrwt beam="2">  1       -4 0.12678766E+00 0.18099115E+04</pdfrwt>
<totfact> 0.24631426E-01</totfact>
</mgrwt>
</event>
<event>
 4    1  0.7144937E-008  0.2060485E+04  0.7816531E-02  0.8578853E-01
         -2   -1    0    0    0  501 -0.00000000000E+00  0.00000000000E+00  0.62320795594E+03  0.62320795594E+03  0.00000000000E+00 0. -1.
          2   -1    0    0  501    0  0.00000000000E+00 -0.00000000000E+00 -0.17031227451E+04  0.17031227451E+04  0.00000000000E+00 0.  1.
    2000013    1    1    2    0    0  0.10883247036E+03  0.61737434831E+03 -0.34967783467E+03  0.10748349551E+04  0.80000000000E+03 0.  0.
   -2000013    1    1    2    0    0 -0.10883247036E+03 -0.61737434831E+03 -0.73023695453E+03  0.12514957460E+04  0.80000000000E+03 0.  0.
<mgrwt>
<rscale>  0 0.20604850E+04</rscale>
<asrwt>0</asrwt>
<pdfrwt beam="2">  1        2 0.26201888E+00 0.20604850E+04</pdfrwt>
<pdfrwt beam="1">  1       -2 0.95878149E-01 0.20604850E+04</pdfrwt>
<totfact> 0.82372223E+00</totfact>
</mgrwt>
</event>
<event>
 4    1  0.7144937E-008  0.2220443E+04  0.7816531E-02  0.8509967E-01
          1   -1    0    0  501    0  0.00000000000E+00  0.00000000000E+00  0.16620402790E+04  0.16620402790E+04  0.00000000000E+00 0.  1.
         -1   -1    0    0    0  501 -0.00000000000E+00 -0.00000000000E+00 -0.74161361102E+03  0.74161361102E+03  0.00000000000E+00 0. -1.
    2000013    1    1    2    0    0  0.92828132580E+02  0.76318352333E+03  0.50249423035E+03  0.12180174892E+04  0.80000000000E+03 0.  0.
   -2000013    1    1    2    0    0 -0.92828132580E+02 -0.76318352333E+03  0.41793243760E+03  0.11856364008E+04  0.80000000000E+03 0.  0.
<mgrwt>
<rscale>  0 0.22204429E+04</rscale>
<asrwt>0</asrwt>
<pdfrwt beam="1">  1        1 0.25569850E+00 0.22204429E+04</pdfrwt>
<pdfrwt beam="2">  1       -1 0.11409440E+00 0.22204429E+04</pdfrwt>
<totfact> 0.32208871E+00</totfact>
</mgrwt>
</event>
<event>
 4    1  0.7144937E-008  0.2180189E+04  0.7816531E-02  0.8526719E-01
         -1   -1    0    0    0  501 -0.00000000000E+00  0.00000000000E+00  0.35296389862E+03  0.35296389862E+03  0.00000000000E+00 0.  1.
          1   -1    0    0  501    0  0.00000000000E+00 -0.00000000000E+00 -0.33666502892E+04  0.33666502892E+04  0.00000000000E+00 0. -1.
    2000013    1    1    2    0    0  0.36343071259E+03 -0.34734604991E+03 -0.24343935415E+04  0.26113220936E+04  0.80000000000E+03 0.  0.
   -2000013    1    1    2    0    0 -0.36343071259E+03  0.34734604991E+03 -0.57929284904E+03  0.11082920943E+04  0.80000000000E+03 0.  0.
<mgrwt>
<rscale>  0 0.21801890E+04</rscale>
<asrwt>0</asrwt>
<pdfrwt beam="2">  1        1 0.51794619E+00 0.21801890E+04</pdfrwt>
<pdfrwt beam="1">  1       -1 0.54302139E-01 0.21801890E+04</pdfrwt>
<totfact> 0.99536529E-01</totfact>
</mgrwt>
</event>
<event>
 4    1  0.7144937E-008  0.2475607E+04  0.7816531E-02  0.8411727E-01
         -2   -1    0    0    0  501 -0.00000000000E+00  0.00000000000E+00  0.18223572642E+04  0.18223572642E+04  0.00000000000E+00 0.  1.
          2   -1    0    0  501    0  0.00000000000E+00 -0.00000000000E+00 -0.84075614469E+03  0.84075614469E+03  0.00000000000E+00 0. -1.
    2000013    1    1    2    0    0  0.51493501562E+03 -0.60765351926E+03 -0.55351128425E+02  0.11302498030E+04  0.80000000000E+03 0.  0.
   -2000013    1    1    2    0    0 -0.51493501562E+03  0.60765351926E+03  0.10369522480E+04  0.15328636059E+04  0.80000000000E+03 0.  0.
<mgrwt>
<rscale>  0 0.24756075E+04</rscale>
<asrwt>0</asrwt>
<pdfrwt beam="2">  1        2 0.12934710E+00 0.24756075E+04</pdfrwt>
<pdfrwt beam="1">  1       -2 0.28036266E+00 0.24756075E+04</pdfrwt>
<totfact> 0.12063193E+00</totfact>
</mgrwt>
</event>
<event>
 4    1  0.7144937E-008  0.2315526E+04  0.7816531E-02  0.8471825E-01
          2   -1    0    0  501    0  0.00000000000E+00  0.00000000000E+00  0.37296082838E+04  0.37296082838E+04  0.00000000000E+00 0.  1.
         -2   -1    0    0    0  501 -0.00000000000E+00 -0.00000000000E+00 -0.35939833410E+03  0.35939833410E+03  0.00000000000E+00 0. -1.
    2000013    1    1    2    0    0  0.66467729218E+03 -0.37568382715E+03  0.10798316181E+04  0.15456295042E+04  0.80000000000E+03 0.  0.
   -2000013    1    1    2    0    0 -0.66467729218E+03  0.37568382715E+03  0.22903783316E+04  0.25433771137E+04  0.80000000000E+03 0.  0.
<mgrwt>
<rscale>  0 0.23155259E+04</rscale>
<asrwt>0</asrwt>
<pdfrwt beam="1">  1        2 0.57378586E+00 0.23155259E+04</pdfrwt>
<pdfrwt beam="2">  1       -2 0.55292054E-01 0.23155259E+04</pdfrwt>
<totfact> 0.15508322E+00</totfact>
</mgrwt>
</event>
<event>
 4    1  0.7144937E-008  0.2676488E+04  0.7816531E-02  0.8342674E-01
          2   -1    0    0  501    0  0.00000000000E+00  0.00000000000E+00  0.50989495110E+04  0.50989495110E+04  0.00000000000E+00 0.  1.
         -2   -1    0    0    0  501 -0.00000000000E+00 -0.00000000000E+00 -0.35122865165E+03  0.35122865165E+03  0.00000000000E+00 0. -1.
    2000013    1    1    2    0    0  0.60330248564E+03 -0.78930260544E+03  0.15494043254E+04  0.20068946798E+04  0.80000000000E+03 0.  0.
   -2000013    1    1    2    0    0 -0.60330248564E+03  0.78930260544E+03  0.31983165339E+04  0.34432834829E+04  0.80000000000E+03 0.  0.
<mgrwt>
<rscale>  0 0.26764881E+04</rscale>
<asrwt>0</asrwt>
<pdfrwt beam="1">  1        2 0.78445372E+00 0.26764881E+04</pdfrwt>
<pdfrwt beam="2">  1       -2 0.54035181E-01 0.26764881E+04</pdfrwt>
<totfact> 0.72745404E-02</totfact>
</mgrwt>
</event>
<event>
 4    1  0.7144937E-008  0.1907512E+04  0.7816531E-02  0.8651126E-01
          2   -1    0    0  501    0  0.00000000000E+00  0.00000000000E+00  0.54844164073E+03  0.54844164073E+03  0.00000000000E+00 0.  1.
         -2   -1    0    0    0  501 -0.00000000000E+00 -0.00000000000E+00 -0.16586102054E+04  0.16586102054E+04  0.00000000000E+00 0. -1.
    2000013    1    1    2    0    0  0.40004488814E+03 -0.16823112361E+03 -0.22515117338E+03  0.93756635730E+03  0.80000000000E+03 0.  0.
   -2000013    1    1    2    0    0 -0.40004488814E+03  0.16823112361E+03 -0.88501739131E+03  0.12694854888E+04  0.80000000000E+03 0.  0.
<mgrwt>
<rscale>  0 0.19075124E+04</rscale>
<asrwt>0</asrwt>
<pdfrwt beam="1">  1        2 0.84375636E-01 0.19075124E+04</pdfrwt>
<pdfrwt beam="2">  1       -2 0.25517080E+00 0.19075124E+04</pdfrwt>
<totfact> 0.30879391E+00</totfact>
</mgrwt>
</event>
<event>
 4    1  0.7144937E-008  0.2284089E+04  0.7816531E-02  0.8484221E-01
          2   -1    0    0  501    0  0.00000000000E+00  0.00000000000E+00  0.22090912582E+04  0.22090912582E+04  0.00000000000E+00 0.  1.
         -2   -1    0    0    0  501 -0.00000000000E+00 -0.00000000000E+00 -0.59040801909E+03  0.59040801909E+03  0.00000000000E+00 0. -1.
    2000013    1    1    2    0    0 -0.48267544213E+03 -0.25426714754E+03  0.67201263888E+02  0.97064070316E+03  0.80000000000E+03 0.  0.
   -2000013    1    1    2    0    0  0.48267544213E+03  0.25426714754E+03  0.15514819752E+04  0.18288585741E+04  0.80000000000E+03 0.  0.
<mgrwt>
<rscale>  0 0.22840886E+04</rscale>
<asrwt>0</asrwt>
<pdfrwt beam="1">  1        2 0.33986019E+00 0.22840886E+04</pdfrwt>
<pdfrwt beam="2">  1       -2 0.90832004E-01 0.22840886E+04</pdfrwt>
<totfact> 0.47922169E+00</totfact>
</mgrwt>
</event>
<event>
 4    1  0.7144937E-008  0.2218221E+04  0.7816531E-02  0.8510882E-01
          2   -1    0    0  501    0  0.00000000000E+00  0.00000000000E+00  0.10955294388E+04  0.10955294388E+04  0.00000000000E+00 0.  1.
         -2   -1    0    0    0  501 -0.00000000000E+00 -0.00000000000E+00 -0.11228600272E+04  0.11228600272E+04  0.00000000000E+00 0. -1.
    2000013    1    1    2    0    0  0.73046691187E+03 -0.20003220916E+03 -0.14224962803E+03  0.11107788937E+04  0.80000000000E+03 0.  0.
   -2000013    1    1    2    0    0 -0.73046691187E+03  0.20003220916E+03  0.11491903961E+03  0.11076105722E+04  0.80000000000E+03 0.  0.
<mgrwt>
<rscale>  0 0.22182211E+04</rscale>
<asrwt>0</asrwt>
<pdfrwt beam="1">  1        2 0.16854299E+00 0.22182211E+04</pdfrwt>
<pdfrwt beam="2">  1       -2 0.17274770E+00 0.22182211E+04</pdfrwt>
<totfact> 0.40776451E+00</totfact>
</mgrwt>
</event>
<event>
 4    1  0.7144937E-008  0.1941208E+04  0.7816531E-02  0.8634612E-01
         -2   -1    0    0    0  501 -0.00000000000E+00  0.00000000000E+00  0.45249626513E+03  0.45249626513E+03  0.00000000000E+00 0. -1.
          2   -1    0    0  501    0  0.00000000000E+00 -0.00000000000E+00 -0.20819434991E+04  0.20819434991E+04  0.00000000000E+00 0.  1.
    2000013    1    1    2    0    0 -0.19683496928E+03 -0.50872862059E+03 -0.72691932053E+03  0.12107685630E+04  0.80000000000E+03 0.  0.
   -2000013    1    1    2    0    0  0.19683496928E+03  0.50872862059E+03 -0.90252791348E+03  0.13236712013E+04  0.80000000000E+03 0.  0.
<mgrwt>
<rscale>  0 0.19412075E+04</rscale>
<asrwt>0</asrwt>
<pdfrwt beam="2">  1        2 0.32029900E+00 0.19412075E+04</pdfrwt>
<pdfrwt beam="1">  1       -2 0.69614810E-01 0.19412075E+04</pdfrwt>
<totfact> 0.10562137E+01</totfact>
</mgrwt>
</event>
<event>
 4    1  0.7144937E-008  0.2767247E+04  0.7816531E-02  0.8313510E-01
         -2   -1    0    0    0  501 -0.00000000000E+00  0.00000000000E+00  0.18232470165E+04  0.18232470165E+04  0.00000000000E+00 0. -1.
          2   -1    0    0  501    0  0.00000000000E+00 -0.00000000000E+00 -0.10500022165E+04  0.10500022165E+04  0.00000000000E+00 0.  1.
    2000013    1    1    2    0    0  0.79602460788E+03 -0.53738455450E+03 -0.22937944195E+03  0.12708470656E+04  0.80000000000E+03 0.  0.
   -2000013    1    1    2    0    0 -0.79602460788E+03  0.53738455450E+03  0.10026242420E+04  0.16024021675E+04  0.80000000000E+03 0.  0.
<mgrwt>
<rscale>  0 0.27672466E+04</rscale>
<asrwt>0</asrwt>
<pdfrwt beam="2">  1        2 0.16153880E+00 0.27672466E+04</pdfrwt>
<pdfrwt beam="1">  1       -2 0.28049954E+00 0.27672466E+04</pdfrwt>
<totfact> 0.85404852E-01</totfact>
</mgrwt>
</event>
<event>
 4    1  0.7144937E-008  0.2765143E+04  0.7816531E-02  0.8314173E-01
         -2   -1    0    0    0  501 -0.00000000000E+00  0.00000000000E+00  0.19018941751E+04  0.19018941751E+04  0.00000000000E+00 0. -1.
          2   -1    0    0  501    0  0.00000000000E+00 -0.00000000000E+00 -0.10050524905E+04  0.10050524905E+04  0.00000000000E+00 0.  1.
    2000013    1    1    2    0    0  0.33893070609E+03 -0.10611633919E+04  0.26463656985E+03  0.13967728097E+04  0.80000000000E+03 0.  0.
   -2000013    1    1    2    0    0 -0.33893070609E+03  0.10611633919E+04  0.63220511472E+03  0.15101738559E+04  0.80000000000E+03 0.  0.
<mgrwt>
<rscale>  0 0.27651427E+04</rscale>
<asrwt>0</asrwt>
<pdfrwt beam="2">  1        2 0.15462346E+00 0.27651427E+04</pdfrwt>
<pdfrwt beam="1">  1       -2 0.29259910E+00 0.27651427E+04</pdfrwt>
<totfact> 0.76959072E-01</totfact>
</mgrwt>
</event>
<event>
 4    1  0.7144937E-008  0.1775229E+04  0.7816531E-02  0.8719585E-01
         -2   -1    0    0    0  501 -0.00000000000E+00  0.00000000000E+00  0.13389967377E+04  0.13389967377E+04  0.00000000000E+00 0. -1.
          2   -1    0    0  501    0  0.00000000000E+00 -0.00000000000E+00 -0.58839514598E+03  0.58839514598E+03  0.00000000000E+00 0.  1.
    2000013    1    1    2    0    0 -0.18148831517E+03 -0.18770638612E+03  0.68178690106E+03  0.10830535880E+04  0.80000000000E+03 0.  0.
   -2000013    1    1    2    0    0  0.18148831517E+03  0.18770638612E+03  0.68814690628E+02  0.84433829570E+03  0.80000000000E+03 0.  0.
<mgrwt>
<rscale>  0 0.17752286E+04</rscale>
<asrwt>0</asrwt>
<pdfrwt beam="2">  1        2 0.90522330E-01 0.17752286E+04</pdfrwt>
<pdfrwt beam="1">  1       -2 0.20599950E+00 0.17752286E+04</pdfrwt>
<totfact> 0.58330104E+00</totfact>
</mgrwt>
</event>
<event>
 4    1  0.7144937E-008  0.1719764E+04  0.7816531E-02  0.8750172E-01
          1   -1    0    0  501    0  0.00000000000E+00  0.00000000000E+00  0.64507774193E+03  0.64507774193E+03  0.00000000000E+00 0.  1.
         -1   -1    0    0    0  501 -0.00000000000E+00 -0.00000000000E+00 -0.11462144272E+04  0.11462144272E+04  0.00000000000E+00 0. -1.
    2000013    1    1    2    0    0 -0.26236005953E+03  0.11842213998E+03 -0.38452856491E+03  0.93312315442E+03  0.80000000000E+03 0.  0.
   -2000013    1    1    2    0    0  0.26236005953E+03 -0.11842213998E+03 -0.11660812034E+03  0.85816901471E+03  0.80000000000E+03 0.  0.
<mgrwt>
<rscale>  0 0.17197644E+04</rscale>
<asrwt>0</asrwt>
<pdfrwt beam="1">  1        1 0.99242731E-01 0.17197644E+04</pdfrwt>
<pdfrwt beam="2">  1       -1 0.17634068E+00 0.17197644E+04</pdfrwt>
<totfact> 0.64713906E+00</totfact>
</mgrwt>
</event>
<event>
 4    1  0.7144937E-008  0.1643946E+04  0.7816531E-02  0.8793996E-01
         -3   -1    0    0    0  501 -0.00000000000E+00  0.00000000000E+00  0.82345580906E+03  0.82345580906E+03  0.00000000000E+00 0.  1.
          3   -1    0    0  501    0  0.00000000000E+00 -0.00000000000E+00 -0.82049271388E+03  0.82049271388E+03  0.00000000000E+00 0. -1.
    2000013    1    1    2    0    0 -0.12367567059E+02  0.11826273424E+03 -0.14514904390E+03  0.82170997071E+03  0.80000000000E+03 0.  0.
   -2000013    1    1    2    0    0  0.12367567059E+02 -0.11826273424E+03  0.14811213908E+03  0.82223855223E+03  0.80000000000E+03 0.  0.
<mgrwt>
<rscale>  0 0.16439459E+04</rscale>
<asrwt>0</asrwt>
<pdfrwt beam="2">  1        3 0.12622965E+00 0.16439459E+04</pdfrwt>
<pdfrwt beam="1">  1       -3 0.12668551E+00 0.16439459E+04</pdfrwt>
<totfact> 0.61926983E-01</totfact>
</mgrwt>
</event>
