<event>
 4    1  0.2048914E-008  0.2514273E+04  0.7816531E-02  0.8397918E-01
          2   -1    0    0  501    0  0.00000000000E+00  0.00000000000E+00  0.10533144915E+04  0.10533144915E+04  0.00000000000E+00 0.  1.
         -2   -1    0    0    0  501 -0.00000000000E+00 -0.00000000000E+00 -0.15003989568E+04  0.15003989568E+04  0.00000000000E+00 0. -1.
    2000013    1    1    2    0    0  0.28862405112E+03 -0.59526888300E+03 -0.72137697739E+03  0.13640137937E+04  0.95000000000E+03 0.  0.
   -2000013    1    1    2    0    0 -0.28862405112E+03  0.59526888300E+03  0.27429251201E+03  0.11896996546E+04  0.95000000000E+03 0.  0.
<mgrwt>
<rscale>  0 0.25142728E+04</rscale>
<asrwt>0</asrwt>
<pdfrwt beam="1">  1        2 0.16204838E+00 0.25142728E+04</pdfrwt>
<pdfrwt beam="2">  1       -2 0.23083061E+00 0.25142728E+04</pdfrwt>
<totfact> 0.17530136E+00</totfact>
</mgrwt>
</event>
<event>
 4    1  0.2048914E-008  0.3394590E+04  0.7816531E-02  0.8139235E-01
          2   -1    0    0  501    0  0.00000000000E+00  0.00000000000E+00  0.15315032535E+04  0.15315032535E+04  0.00000000000E+00 0.  1.
         -2   -1    0    0    0  501 -0.00000000000E+00 -0.00000000000E+00 -0.18810344249E+04  0.18810344249E+04  0.00000000000E+00 0. -1.
    2000013    1    1    2    0    0  0.92920987598E+03  0.89908877055E+03  0.38180292983E+03  0.16492619829E+04  0.95000000000E+03 0.  0.
   -2000013    1    1    2    0    0 -0.92920987598E+03 -0.89908877055E+03 -0.73133410121E+03  0.17632756956E+04  0.95000000000E+03 0.  0.
<mgrwt>
<rscale>  0 0.33945900E+04</rscale>
<asrwt>0</asrwt>
<pdfrwt beam="1">  1        2 0.23561589E+00 0.33945900E+04</pdfrwt>
<pdfrwt beam="2">  1       -2 0.28938991E+00 0.33945900E+04</pdfrwt>
<totfact> 0.37267123E-01</totfact>
</mgrwt>
</event>
<event>
 4    1  0.2048914E-008  0.2736815E+04  0.7816531E-02  0.8323158E-01
          1   -1    0    0  501    0  0.00000000000E+00  0.00000000000E+00  0.20464382746E+04  0.20464382746E+04  0.00000000000E+00 0.  1.
         -1   -1    0    0    0  501 -0.00000000000E+00 -0.00000000000E+00 -0.91502343991E+03  0.91502343991E+03  0.00000000000E+00 0. -1.
    2000013    1    1    2    0    0 -0.79638901332E+03 -0.57162992965E+03  0.66860638483E+03  0.15200430043E+04  0.95000000000E+03 0.  0.
   -2000013    1    1    2    0    0  0.79638901332E+03  0.57162992965E+03  0.46280844988E+03  0.14414187103E+04  0.95000000000E+03 0.  0.
<mgrwt>
<rscale>  0 0.27368149E+04</rscale>
<asrwt>0</asrwt>
<pdfrwt beam="1">  1        1 0.31483666E+00 0.27368149E+04</pdfrwt>
<pdfrwt beam="2">  1       -1 0.14077284E+00 0.27368149E+04</pdfrwt>
<totfact> 0.99644278E-01</totfact>
</mgrwt>
</event>
<event>
 4    1  0.2048914E-008  0.2532736E+04  0.7816531E-02  0.8391415E-01
          2   -1    0    0  501    0  0.00000000000E+00  0.00000000000E+00  0.18243448301E+04  0.18243448301E+04  0.00000000000E+00 0.  1.
         -2   -1    0    0    0  501 -0.00000000000E+00 -0.00000000000E+00 -0.87904892841E+03  0.87904892841E+03  0.00000000000E+00 0. -1.
    2000013    1    1    2    0    0 -0.76602879352E+03 -0.12346714851E+03  0.80873579105E+03  0.14692167400E+04  0.95000000000E+03 0.  0.
   -2000013    1    1    2    0    0  0.76602879352E+03  0.12346714851E+03  0.13656011064E+03  0.12341770185E+04  0.95000000000E+03 0.  0.
<mgrwt>
<rscale>  0 0.25327364E+04</rscale>
<asrwt>0</asrwt>
<pdfrwt beam="1">  1        2 0.28066843E+00 0.25327364E+04</pdfrwt>
<pdfrwt beam="2">  1       -2 0.13523830E+00 0.25327364E+04</pdfrwt>
<totfact> 0.29222828E+00</totfact>
</mgrwt>
</event>
<event>
 4    1  0.2048914E-008  0.2390247E+04  0.7816531E-02  0.8443164E-01
         -2   -1    0    0    0  501 -0.00000000000E+00  0.00000000000E+00  0.94688083459E+03  0.94688083459E+03  0.00000000000E+00 0. -1.
          2   -1    0    0  501    0  0.00000000000E+00 -0.00000000000E+00 -0.15084474675E+04  0.15084474675E+04  0.00000000000E+00 0.  1.
    2000013    1    1    2    0    0 -0.57846800562E+03  0.43323395681E+03 -0.21998476749E+03  0.12137587045E+04  0.95000000000E+03 0.  0.
   -2000013    1    1    2    0    0  0.57846800562E+03 -0.43323395681E+03 -0.34158186543E+03  0.12415695976E+04  0.95000000000E+03 0.  0.
<mgrwt>
<rscale>  0 0.23902468E+04</rscale>
<asrwt>0</asrwt>
<pdfrwt beam="2">  1        2 0.23206884E+00 0.23902468E+04</pdfrwt>
<pdfrwt beam="1">  1       -2 0.14567398E+00 0.23902468E+04</pdfrwt>
<totfact> 0.36581659E+00</totfact>
</mgrwt>
</event>
<event>
 4    1  0.2048914E-008  0.2451115E+04  0.7816531E-02  0.8420611E-01
          2   -1    0    0  501    0  0.00000000000E+00  0.00000000000E+00  0.99386129714E+03  0.99386129714E+03  0.00000000000E+00 0.  1.
         -2   -1    0    0    0  501 -0.00000000000E+00 -0.00000000000E+00 -0.15112685061E+04  0.15112685061E+04  0.00000000000E+00 0. -1.
    2000013    1    1    2    0    0 -0.29802324789E+03 -0.71418090734E+03 -0.23327453425E+03  0.12473128048E+04  0.95000000000E+03 0.  0.
   -2000013    1    1    2    0    0  0.29802324789E+03  0.71418090734E+03 -0.28413267469E+03  0.12578169984E+04  0.95000000000E+03 0.  0.
<mgrwt>
<rscale>  0 0.24511151E+04</rscale>
<asrwt>0</asrwt>
<pdfrwt beam="1">  1        2 0.15290174E+00 0.24511151E+04</pdfrwt>
<pdfrwt beam="2">  1       -2 0.23250285E+00 0.24511151E+04</pdfrwt>
<totfact> 0.18768989E+00</totfact>
</mgrwt>
</event>
<event>
 4    1  0.2048914E-008  0.2119603E+04  0.7816531E-02  0.8552657E-01
          2   -1    0    0  501    0  0.00000000000E+00  0.00000000000E+00  0.25361963409E+04  0.25361963409E+04  0.00000000000E+00 0.  1.
         -2   -1    0    0    0  501 -0.00000000000E+00 -0.00000000000E+00 -0.44285955558E+03  0.44285955558E+03  0.00000000000E+00 0. -1.
    2000013    1    1    2    0    0 -0.16983978381E+03  0.31808993371E+03  0.62350024677E+03  0.11921741969E+04  0.95000000000E+03 0.  0.
   -2000013    1    1    2    0    0  0.16983978381E+03 -0.31808993371E+03  0.14698365385E+04  0.17868816995E+04  0.95000000000E+03 0.  0.
<mgrwt>
<rscale>  0 0.21196026E+04</rscale>
<asrwt>0</asrwt>
<pdfrwt beam="1">  1        2 0.39018404E+00 0.21196026E+04</pdfrwt>
<pdfrwt beam="2">  1       -2 0.68132241E-01 0.21196026E+04</pdfrwt>
<totfact> 0.60187776E+00</totfact>
</mgrwt>
</event>
<event>
 4    1  0.2048914E-008  0.2645650E+04  0.7816531E-02  0.8352858E-01
          2   -1    0    0  501    0  0.00000000000E+00  0.00000000000E+00  0.85532316129E+03  0.85532316129E+03  0.00000000000E+00 0.  1.
         -2   -1    0    0    0  501 -0.00000000000E+00 -0.00000000000E+00 -0.20458529944E+04  0.20458529944E+04  0.00000000000E+00 0. -1.
    2000013    1    1    2    0    0 -0.83416885693E+03  0.18446501362E+03 -0.97115554578E+03  0.16048389692E+04  0.95000000000E+03 0.  0.
   -2000013    1    1    2    0    0  0.83416885693E+03 -0.18446501362E+03 -0.21937428738E+03  0.12963371865E+04  0.95000000000E+03 0.  0.
<mgrwt>
<rscale>  0 0.26456496E+04</rscale>
<asrwt>0</asrwt>
<pdfrwt beam="1">  1        2 0.13158818E+00 0.26456496E+04</pdfrwt>
<pdfrwt beam="2">  1       -2 0.31474661E+00 0.26456496E+04</pdfrwt>
<totfact> 0.71553485E-01</totfact>
</mgrwt>
</event>
<event>
 4    1  0.2048914E-008  0.3397238E+04  0.7816531E-02  0.8138584E-01
          2   -1    0    0  501    0  0.00000000000E+00  0.00000000000E+00  0.30261577920E+04  0.30261577920E+04  0.00000000000E+00 0.  1.
         -2   -1    0    0    0  501 -0.00000000000E+00 -0.00000000000E+00 -0.95345561051E+03  0.95345561051E+03  0.00000000000E+00 0. -1.
    2000013    1    1    2    0    0  0.20789929545E+03  0.10904470180E+04  0.21521326977E+02  0.14612528815E+04  0.95000000000E+03 0.  0.
   -2000013    1    1    2    0    0 -0.20789929545E+03 -0.10904470180E+04  0.20511808545E+04  0.25183605211E+04  0.95000000000E+03 0.  0.
<mgrwt>
<rscale>  0 0.33972384E+04</rscale>
<asrwt>0</asrwt>
<pdfrwt beam="1">  1        2 0.46556273E+00 0.33972384E+04</pdfrwt>
<pdfrwt beam="2">  1       -2 0.14668548E+00 0.33972384E+04</pdfrwt>
<totfact> 0.44121206E-01</totfact>
</mgrwt>
</event>
<event>
 4    1  0.2048914E-008  0.2939337E+04  0.7816531E-02  0.8261269E-01
         -2   -1    0    0    0  501 -0.00000000000E+00  0.00000000000E+00  0.17788631965E+04  0.17788631965E+04  0.00000000000E+00 0.  1.
          2   -1    0    0  501    0  0.00000000000E+00 -0.00000000000E+00 -0.12142168648E+04  0.12142168648E+04  0.00000000000E+00 0. -1.
    2000013    1    1    2    0    0  0.86253350466E+03  0.25205750477E+03  0.96535471224E+03  0.16253943376E+04  0.95000000000E+03 0.  0.
   -2000013    1    1    2    0    0 -0.86253350466E+03 -0.25205750477E+03 -0.40070838054E+03  0.13676857236E+04  0.95000000000E+03 0.  0.
<mgrwt>
<rscale>  0 0.29393371E+04</rscale>
<asrwt>0</asrwt>
<pdfrwt beam="2">  1        2 0.18680259E+00 0.29393371E+04</pdfrwt>
<pdfrwt beam="1">  1       -2 0.27367126E+00 0.29393371E+04</pdfrwt>
<totfact> 0.73547017E-01</totfact>
</mgrwt>
</event>
<event>
 4    1  0.2048914E-008  0.4446854E+04  0.7816531E-02  0.7920008E-01
          2   -1    0    0  501    0  0.00000000000E+00  0.00000000000E+00  0.51811096142E+04  0.51811096142E+04  0.00000000000E+00 0.  1.
         -2   -1    0    0    0  501 -0.00000000000E+00 -0.00000000000E+00 -0.95416389166E+03  0.95416389166E+03  0.00000000000E+00 0. -1.
    2000013    1    1    2    0    0  0.16717414425E+04 -0.95829135334E+03  0.13232040075E+04  0.25231747093E+04  0.95000000000E+03 0.  0.
   -2000013    1    1    2    0    0 -0.16717414425E+04  0.95829135334E+03  0.29037417150E+04  0.36120987965E+04  0.95000000000E+03 0.  0.
<mgrwt>
<rscale>  0 0.44468540E+04</rscale>
<asrwt>0</asrwt>
<pdfrwt beam="1">  1        2 0.79709377E+00 0.44468540E+04</pdfrwt>
<pdfrwt beam="2">  1       -2 0.14679445E+00 0.44468540E+04</pdfrwt>
<totfact> 0.46548579E-03</totfact>
</mgrwt>
</event>
<event>
 4    1  0.2048914E-008  0.2347366E+04  0.7816531E-02  0.8459476E-01
         -2   -1    0    0    0  501 -0.00000000000E+00  0.00000000000E+00  0.65131588488E+03  0.65131588488E+03  0.00000000000E+00 0. -1.
          2   -1    0    0  501    0  0.00000000000E+00 -0.00000000000E+00 -0.21149975904E+04  0.21149975904E+04  0.00000000000E+00 0.  1.
    2000013    1    1    2    0    0  0.39515334695E+03  0.55914393971E+03 -0.63872326945E+03  0.13338873745E+04  0.95000000000E+03 0.  0.
   -2000013    1    1    2    0    0 -0.39515334695E+03 -0.55914393971E+03 -0.82495843606E+03  0.14324261008E+04  0.95000000000E+03 0.  0.
<mgrwt>
<rscale>  0 0.23473658E+04</rscale>
<asrwt>0</asrwt>
<pdfrwt beam="2">  1        2 0.32538424E+00 0.23473658E+04</pdfrwt>
<pdfrwt beam="1">  1       -2 0.10020244E+00 0.23473658E+04</pdfrwt>
<totfact> 0.42783919E+00</totfact>
</mgrwt>
</event>
<event>
 4    1  0.2048914E-008  0.2463286E+04  0.7816531E-02  0.8416183E-01
          2   -1    0    0  501    0  0.00000000000E+00  0.00000000000E+00  0.26017365796E+04  0.26017365796E+04  0.00000000000E+00 0.  1.
         -2   -1    0    0    0  501 -0.00000000000E+00 -0.00000000000E+00 -0.58305080779E+03  0.58305080779E+03  0.00000000000E+00 0. -1.
    2000013    1    1    2    0    0  0.68888373992E+02  0.75875817585E+03  0.77099601219E+03  0.14413169077E+04  0.95000000000E+03 0.  0.
   -2000013    1    1    2    0    0 -0.68888373992E+02 -0.75875817585E+03  0.12476897597E+04  0.17434704798E+04  0.95000000000E+03 0.  0.
<mgrwt>
<rscale>  0 0.24632861E+04</rscale>
<asrwt>0</asrwt>
<pdfrwt beam="1">  1        2 0.40026716E+00 0.24632861E+04</pdfrwt>
<pdfrwt beam="2">  1       -2 0.89700126E-01 0.24632861E+04</pdfrwt>
<totfact> 0.28921555E+00</totfact>
</mgrwt>
</event>
<event>
 4    1  0.2048914E-008  0.2512464E+04  0.7816531E-02  0.8398559E-01
          2   -1    0    0  501    0  0.00000000000E+00  0.00000000000E+00  0.22780026910E+04  0.22780026910E+04  0.00000000000E+00 0.  1.
         -2   -1    0    0    0  501 -0.00000000000E+00 -0.00000000000E+00 -0.69276433243E+03  0.69276433243E+03  0.00000000000E+00 0. -1.
    2000013    1    1    2    0    0 -0.43907885490E+03 -0.23570771062E+03  0.19724616324E+02  0.10729573273E+04  0.95000000000E+03 0.  0.
   -2000013    1    1    2    0    0  0.43907885490E+03  0.23570771062E+03  0.15655137423E+04  0.18978096962E+04  0.95000000000E+03 0.  0.
<mgrwt>
<rscale>  0 0.25124641E+04</rscale>
<asrwt>0</asrwt>
<pdfrwt beam="1">  1        2 0.35046195E+00 0.25124641E+04</pdfrwt>
<pdfrwt beam="2">  1       -2 0.10657913E+00 0.25124641E+04</pdfrwt>
<totfact> 0.29474953E+00</totfact>
</mgrwt>
</event>
<event>
 4    1  0.2048914E-008  0.2742628E+04  0.7816531E-02  0.8321305E-01
          1   -1    0    0  501    0  0.00000000000E+00  0.00000000000E+00  0.13707163494E+04  0.13707163494E+04  0.00000000000E+00 0.  1.
         -1   -1    0    0    0  501 -0.00000000000E+00 -0.00000000000E+00 -0.13719117048E+04  0.13719117048E+04  0.00000000000E+00 0. -1.
    2000013    1    1    2    0    0 -0.27237716168E+03  0.94584496400E+03  0.95265721457E+02  0.13712722457E+04  0.95000000000E+03 0.  0.
   -2000013    1    1    2    0    0  0.27237716168E+03 -0.94584496400E+03 -0.96461076844E+02  0.13713558085E+04  0.95000000000E+03 0.  0.
<mgrwt>
<rscale>  0 0.27426278E+04</rscale>
<asrwt>0</asrwt>
<pdfrwt beam="1">  1        1 0.21087944E+00 0.27426278E+04</pdfrwt>
<pdfrwt beam="2">  1       -1 0.21106334E+00 0.27426278E+04</pdfrwt>
<totfact> 0.88627724E-01</totfact>
</mgrwt>
</event>
<event>
 4    1  0.2048914E-008  0.2141215E+04  0.7816531E-02  0.8543302E-01
          2   -1    0    0  501    0  0.00000000000E+00  0.00000000000E+00  0.19343515673E+04  0.19343515673E+04  0.00000000000E+00 0.  1.
         -2   -1    0    0    0  501 -0.00000000000E+00 -0.00000000000E+00 -0.59255000183E+03  0.59255000183E+03  0.00000000000E+00 0. -1.
    2000013    1    1    2    0    0 -0.43940763755E+02 -0.48322624354E+03  0.56363504244E+03  0.12064919619E+04  0.95000000000E+03 0.  0.
   -2000013    1    1    2    0    0  0.43940763755E+02  0.48322624354E+03  0.77816652301E+03  0.13204096072E+04  0.95000000000E+03 0.  0.
<mgrwt>
<rscale>  0 0.21412146E+04</rscale>
<asrwt>0</asrwt>
<pdfrwt beam="1">  1        2 0.29759255E+00 0.21412146E+04</pdfrwt>
<pdfrwt beam="2">  1       -2 0.91161539E-01 0.21412146E+04</pdfrwt>
<totfact> 0.68470342E+00</totfact>
</mgrwt>
</event>
<event>
 4    1  0.2048914E-008  0.3143346E+04  0.7816531E-02  0.8203942E-01
         -2   -1    0    0    0  501 -0.00000000000E+00  0.00000000000E+00  0.22729627615E+04  0.22729627615E+04  0.00000000000E+00 0. -1.
          2   -1    0    0  501    0  0.00000000000E+00 -0.00000000000E+00 -0.10867562322E+04  0.10867562322E+04  0.00000000000E+00 0.  1.
    2000013    1    1    2    0    0 -0.10581341827E+04  0.63624049025E+03  0.81527328622E+03  0.17583004411E+04  0.95000000000E+03 0.  0.
   -2000013    1    1    2    0    0  0.10581341827E+04 -0.63624049025E+03  0.37093324307E+03  0.16014185526E+04  0.95000000000E+03 0.  0.
<mgrwt>
<rscale>  0 0.31433463E+04</rscale>
<asrwt>0</asrwt>
<pdfrwt beam="2">  1        2 0.16719327E+00 0.31433463E+04</pdfrwt>
<pdfrwt beam="1">  1       -2 0.34968658E+00 0.31433463E+04</pdfrwt>
<totfact> 0.29344763E-01</totfact>
</mgrwt>
</event>
<event>
 4    1  0.2048914E-008  0.3661787E+04  0.7816531E-02  0.8076483E-01
          2   -1    0    0  501    0  0.00000000000E+00  0.00000000000E+00  0.18819495518E+04  0.18819495518E+04  0.00000000000E+00 0.  1.
         -2   -1    0    0    0  501 -0.00000000000E+00 -0.00000000000E+00 -0.17812222991E+04  0.17812222991E+04  0.00000000000E+00 0. -1.
    2000013    1    1    2    0    0  0.97832018111E+03 -0.44795370986E+03  0.11874103042E+04  0.18628516134E+04  0.95000000000E+03 0.  0.
   -2000013    1    1    2    0    0 -0.97832018111E+03  0.44795370986E+03 -0.10866830515E+04  0.18003202374E+04  0.95000000000E+03 0.  0.
<mgrwt>
<rscale>  0 0.36617867E+04</rscale>
<asrwt>0</asrwt>
<pdfrwt beam="1">  1        2 0.28953070E+00 0.36617867E+04</pdfrwt>
<pdfrwt beam="2">  1       -2 0.27403420E+00 0.36617867E+04</pdfrwt>
<totfact> 0.28858320E-01</totfact>
</mgrwt>
</event>
<event>
 4    1  0.2048914E-008  0.2298912E+04  0.7816531E-02  0.8478350E-01
         -2   -1    0    0    0  501 -0.00000000000E+00  0.00000000000E+00  0.11313677036E+04  0.11313677036E+04  0.00000000000E+00 0. -1.
          2   -1    0    0  501    0  0.00000000000E+00 -0.00000000000E+00 -0.11678332543E+04  0.11678332543E+04  0.00000000000E+00 0.  1.
    2000013    1    1    2    0    0 -0.40577494176E+03 -0.40936742367E+03 -0.31240212047E+03  0.11542660334E+04  0.95000000000E+03 0.  0.
   -2000013    1    1    2    0    0  0.40577494176E+03  0.40936742367E+03  0.27593656970E+03  0.11449349245E+04  0.95000000000E+03 0.  0.
<mgrwt>
<rscale>  0 0.22989118E+04</rscale>
<asrwt>0</asrwt>
<pdfrwt beam="2">  1        2 0.17966665E+00 0.22989118E+04</pdfrwt>
<pdfrwt beam="1">  1       -2 0.17405657E+00 0.22989118E+04</pdfrwt>
<totfact> 0.35822253E+00</totfact>
</mgrwt>
</event>
<event>
 4    1  0.2048914E-008  0.2724083E+04  0.7816531E-02  0.8327233E-01
         -1   -1    0    0    0  501 -0.00000000000E+00  0.00000000000E+00  0.22805439542E+04  0.22805439542E+04  0.00000000000E+00 0. -1.
          1   -1    0    0  501    0  0.00000000000E+00 -0.00000000000E+00 -0.81347107068E+03  0.81347107068E+03  0.00000000000E+00 0.  1.
    2000013    1    1    2    0    0  0.96275670046E+03  0.12253360775E+03  0.85125265533E+03  0.16028243923E+04  0.95000000000E+03 0.  0.
   -2000013    1    1    2    0    0 -0.96275670046E+03 -0.12253360775E+03  0.61582022822E+03  0.14911906326E+04  0.95000000000E+03 0.  0.
<mgrwt>
<rscale>  0 0.27240826E+04</rscale>
<asrwt>0</asrwt>
<pdfrwt beam="2">  1        1 0.12514940E+00 0.27240826E+04</pdfrwt>
<pdfrwt beam="1">  1       -1 0.35085291E+00 0.27240826E+04</pdfrwt>
<totfact> 0.28758785E-01</totfact>
</mgrwt>
</event>
<event>
 4    1  0.2048914E-008  0.2441483E+04  0.7816531E-02  0.8424134E-01
         -2   -1    0    0    0  501 -0.00000000000E+00  0.00000000000E+00  0.78183527050E+03  0.78183527050E+03  0.00000000000E+00 0. -1.
          2   -1    0    0  501    0  0.00000000000E+00 -0.00000000000E+00 -0.19060399277E+04  0.19060399277E+04  0.00000000000E+00 0.  1.
    2000013    1    1    2    0    0 -0.61756438454E+03 -0.34524977723E+03 -0.88706204505E+03  0.14798521039E+04  0.95000000000E+03 0.  0.
   -2000013    1    1    2    0    0  0.61756438454E+03  0.34524977723E+03 -0.23714261211E+03  0.12080230942E+04  0.95000000000E+03 0.  0.
<mgrwt>
<rscale>  0 0.24414825E+04</rscale>
<asrwt>0</asrwt>
<pdfrwt beam="2">  1        2 0.29323691E+00 0.24414825E+04</pdfrwt>
<pdfrwt beam="1">  1       -2 0.12028235E+00 0.24414825E+04</pdfrwt>
<totfact> 0.35649541E+00</totfact>
</mgrwt>
</event>
<event>
 4    1  0.2048914E-008  0.2729070E+04  0.7816531E-02  0.8325634E-01
         -1   -1    0    0    0  501 -0.00000000000E+00  0.00000000000E+00  0.96294413877E+03  0.96294413877E+03  0.00000000000E+00 0.  1.
          1   -1    0    0  501    0  0.00000000000E+00 -0.00000000000E+00 -0.19336070949E+04  0.19336070949E+04  0.00000000000E+00 0. -1.
    2000013    1    1    2    0    0  0.52558090729E+03  0.10832581435E+03 -0.13550625542E+04  0.17397310993E+04  0.95000000000E+03 0.  0.
   -2000013    1    1    2    0    0 -0.52558090729E+03 -0.10832581435E+03  0.38439959810E+03  0.11568201343E+04  0.95000000000E+03 0.  0.
<mgrwt>
<rscale>  0 0.27290699E+04</rscale>
<asrwt>0</asrwt>
<pdfrwt beam="2">  1        1 0.29747801E+00 0.27290699E+04</pdfrwt>
<pdfrwt beam="1">  1       -1 0.14814525E+00 0.27290699E+04</pdfrwt>
<totfact> 0.10387404E+00</totfact>
</mgrwt>
</event>
<event>
 4    1  0.2048914E-008  0.2559707E+04  0.7816531E-02  0.8382018E-01
          2   -1    0    0  501    0  0.00000000000E+00  0.00000000000E+00  0.58217246075E+03  0.58217246075E+03  0.00000000000E+00 0. -1.
         -2   -1    0    0    0  501 -0.00000000000E+00 -0.00000000000E+00 -0.28136427015E+04  0.28136427015E+04  0.00000000000E+00 0.  1.
    2000013    1    1    2    0    0 -0.11193308944E+03  0.77501617051E+03 -0.15797682766E+04  0.20028347133E+04  0.95000000000E+03 0.  0.
   -2000013    1    1    2    0    0  0.11193308944E+03 -0.77501617051E+03 -0.65170196415E+03  0.13929804489E+04  0.95000000000E+03 0.  0.
<mgrwt>
<rscale>  0 0.25597072E+04</rscale>
<asrwt>0</asrwt>
<pdfrwt beam="1">  1        2 0.89564995E-01 0.25597072E+04</pdfrwt>
<pdfrwt beam="2">  1       -2 0.43286811E+00 0.25597072E+04</pdfrwt>
<totfact> 0.20564433E-01</totfact>
</mgrwt>
</event>
<event>
 4    1  0.2048914E-008  0.3849779E+04  0.7816531E-02  0.8035556E-01
         -2   -1    0    0    0  501 -0.00000000000E+00  0.00000000000E+00  0.97601569125E+03  0.97601569125E+03  0.00000000000E+00 0. -1.
          2   -1    0    0  501    0  0.00000000000E+00 -0.00000000000E+00 -0.37962509625E+04  0.37962509625E+04  0.00000000000E+00 0.  1.
    2000013    1    1    2    0    0  0.23676320374E+03 -0.16478034025E+04 -0.16297357591E+04  0.25159196156E+04  0.95000000000E+03 0.  0.
   -2000013    1    1    2    0    0 -0.23676320374E+03  0.16478034025E+04 -0.11904995122E+04  0.22563470381E+04  0.95000000000E+03 0.  0.
<mgrwt>
<rscale>  0 0.38497795E+04</rscale>
<asrwt>0</asrwt>
<pdfrwt beam="2">  1        2 0.58403860E+00 0.38497795E+04</pdfrwt>
<pdfrwt beam="1">  1       -2 0.15015626E+00 0.38497795E+04</pdfrwt>
<totfact> 0.11763494E-01</totfact>
</mgrwt>
</event>
<event>
 4    1  0.2048914E-008  0.2735083E+04  0.7816531E-02  0.8323711E-01
         -1   -1    0    0    0  501 -0.00000000000E+00  0.00000000000E+00  0.15711825010E+04  0.15711825010E+04  0.00000000000E+00 0.  1.
          1   -1    0    0  501    0  0.00000000000E+00 -0.00000000000E+00 -0.11902939979E+04  0.11902939979E+04  0.00000000000E+00 0. -1.
    2000013    1    1    2    0    0 -0.88299873614E+03  0.18430929802E+01 -0.24730509884E+03  0.13203597907E+04  0.95000000000E+03 0.  0.
   -2000013    1    1    2    0    0  0.88299873614E+03 -0.18430929802E+01  0.62819360195E+03  0.14411167082E+04  0.95000000000E+03 0.  0.
<mgrwt>
<rscale>  0 0.27350825E+04</rscale>
<asrwt>0</asrwt>
<pdfrwt beam="2">  1        1 0.18312215E+00 0.27350825E+04</pdfrwt>
<pdfrwt beam="1">  1       -1 0.24172038E+00 0.27350825E+04</pdfrwt>
<totfact> 0.74691825E-01</totfact>
</mgrwt>
</event>
<event>
 4    1  0.2048914E-008  0.1966443E+04  0.7816531E-02  0.8622473E-01
         -2   -1    0    0    0  501 -0.00000000000E+00  0.00000000000E+00  0.83466889529E+03  0.83466889529E+03  0.00000000000E+00 0. -1.
          2   -1    0    0  501    0  0.00000000000E+00 -0.00000000000E+00 -0.11582126729E+04  0.11582126729E+04  0.00000000000E+00 0.  1.
    2000013    1    1    2    0    0 -0.10208653320E+03 -0.23190939451E+03 -0.15718727322E+03  0.99569647302E+03  0.95000000000E+03 0.  0.
   -2000013    1    1    2    0    0  0.10208653320E+03  0.23190939451E+03 -0.16635650441E+03  0.99718509520E+03  0.95000000000E+03 0.  0.
<mgrwt>
<rscale>  0 0.19664426E+04</rscale>
<asrwt>0</asrwt>
<pdfrwt beam="2">  1        2 0.17818657E+00 0.19664426E+04</pdfrwt>
<pdfrwt beam="1">  1       -2 0.12841060E+00 0.19664426E+04</pdfrwt>
<totfact> 0.83782075E+00</totfact>
</mgrwt>
</event>
<event>
 4    1  0.2048914E-008  0.2343163E+04  0.7816531E-02  0.8461094E-01
         -1   -1    0    0    0  501 -0.00000000000E+00  0.00000000000E+00  0.10787214287E+04  0.10787214287E+04  0.00000000000E+00 0. -1.
          1   -1    0    0  501    0  0.00000000000E+00 -0.00000000000E+00 -0.12724356187E+04  0.12724356187E+04  0.00000000000E+00 0.  1.
    2000013    1    1    2    0    0 -0.26653053628E+03 -0.59649662749E+03  0.11183516972E+03  0.11583841585E+04  0.95000000000E+03 0.  0.
   -2000013    1    1    2    0    0  0.26653053628E+03  0.59649662749E+03 -0.30554935968E+03  0.11927728889E+04  0.95000000000E+03 0.  0.
<mgrwt>
<rscale>  0 0.23431633E+04</rscale>
<asrwt>0</asrwt>
<pdfrwt beam="2">  1        1 0.19575933E+00 0.23431633E+04</pdfrwt>
<pdfrwt beam="1">  1       -1 0.16595714E+00 0.23431633E+04</pdfrwt>
<totfact> 0.22476324E+00</totfact>
</mgrwt>
</event>
<event>
 4    1  0.2048914E-008  0.2357462E+04  0.7816531E-02  0.8455603E-01
          2   -1    0    0  501    0  0.00000000000E+00  0.00000000000E+00  0.18079006863E+04  0.18079006863E+04  0.00000000000E+00 0.  1.
         -2   -1    0    0    0  501 -0.00000000000E+00 -0.00000000000E+00 -0.76851929830E+03  0.76851929830E+03  0.00000000000E+00 0. -1.
    2000013    1    1    2    0    0  0.10261936048E+03 -0.68784306056E+03  0.45740851472E+03  0.12630840663E+04  0.95000000000E+03 0.  0.
   -2000013    1    1    2    0    0 -0.10261936048E+03  0.68784306056E+03  0.58197287324E+03  0.13133359183E+04  0.95000000000E+03 0.  0.
<mgrwt>
<rscale>  0 0.23574618E+04</rscale>
<asrwt>0</asrwt>
<pdfrwt beam="1">  1        2 0.27813857E+00 0.23574618E+04</pdfrwt>
<pdfrwt beam="2">  1       -2 0.11823374E+00 0.23574618E+04</pdfrwt>
<totfact> 0.42467604E+00</totfact>
</mgrwt>
</event>
<event>
 4    1  0.2048914E-008  0.2126107E+04  0.7816531E-02  0.8549830E-01
         -2   -1    0    0    0  501 -0.00000000000E+00  0.00000000000E+00  0.86198897182E+03  0.86198897182E+03  0.00000000000E+00 0. -1.
          2   -1    0    0  501    0  0.00000000000E+00 -0.00000000000E+00 -0.13110172069E+04  0.13110172069E+04  0.00000000000E+00 0.  1.
    2000013    1    1    2    0    0  0.15836573469E+03 -0.25210067664E+03 -0.60549390513E+03  0.11652284438E+04  0.95000000000E+03 0.  0.
   -2000013    1    1    2    0    0 -0.15836573469E+03  0.25210067664E+03  0.15646567006E+03  0.10077777349E+04  0.95000000000E+03 0.  0.
<mgrwt>
<rscale>  0 0.21261067E+04</rscale>
<asrwt>0</asrwt>
<pdfrwt beam="2">  1        2 0.20169495E+00 0.21261067E+04</pdfrwt>
<pdfrwt beam="1">  1       -2 0.13261369E+00 0.21261067E+04</pdfrwt>
<totfact> 0.61855772E+00</totfact>
</mgrwt>
</event>
<event>
 4    1  0.2048914E-008  0.3473067E+04  0.7816531E-02  0.8120203E-01
         -2   -1    0    0    0  501 -0.00000000000E+00  0.00000000000E+00  0.12420924738E+04  0.12420924738E+04  0.00000000000E+00 0. -1.
          2   -1    0    0  501    0  0.00000000000E+00 -0.00000000000E+00 -0.24277966648E+04  0.24277966648E+04  0.00000000000E+00 0.  1.
    2000013    1    1    2    0    0  0.80201561056E+03  0.92483097674E+03 -0.14211815439E+04  0.21025694651E+04  0.95000000000E+03 0.  0.
   -2000013    1    1    2    0    0 -0.80201561056E+03 -0.92483097674E+03  0.23547735280E+03  0.15673196735E+04  0.95000000000E+03 0.  0.
<mgrwt>
<rscale>  0 0.34730666E+04</rscale>
<asrwt>0</asrwt>
<pdfrwt beam="2">  1        2 0.37350718E+00 0.34730666E+04</pdfrwt>
<pdfrwt beam="1">  1       -2 0.19109115E+00 0.34730666E+04</pdfrwt>
<totfact> 0.48093207E-01</totfact>
</mgrwt>
</event>
<event>
 4    1  0.2048914E-008  0.2628077E+04  0.7816531E-02  0.8358726E-01
          2   -1    0    0  501    0  0.00000000000E+00  0.00000000000E+00  0.31699244227E+04  0.31699244227E+04  0.00000000000E+00 0. -1.
         -2   -1    0    0    0  501 -0.00000000000E+00 -0.00000000000E+00 -0.54471239327E+03  0.54471239327E+03  0.00000000000E+00 0.  1.
    2000013    1    1    2    0    0  0.90382097273E+03  0.27888535154E+02  0.14267978383E+04  0.19380201734E+04  0.95000000000E+03 0.  0.
   -2000013    1    1    2    0    0 -0.90382097273E+03 -0.27888535154E+02  0.11984141911E+04  0.17766166426E+04  0.95000000000E+03 0.  0.
<mgrwt>
<rscale>  0 0.26280770E+04</rscale>
<asrwt>0</asrwt>
<pdfrwt beam="1">  1        2 0.48768067E+00 0.26280770E+04</pdfrwt>
<pdfrwt beam="2">  1       -2 0.83801909E-01 0.26280770E+04</pdfrwt>
<totfact> 0.14898877E+00</totfact>
</mgrwt>
</event>
<event>
 4    1  0.2048914E-008  0.2526724E+04  0.7816531E-02  0.8393526E-01
          2   -1    0    0  501    0  0.00000000000E+00  0.00000000000E+00  0.22006373430E+04  0.22006373430E+04  0.00000000000E+00 0.  1.
         -2   -1    0    0    0  501 -0.00000000000E+00 -0.00000000000E+00 -0.72528262486E+03  0.72528262486E+03  0.00000000000E+00 0. -1.
    2000013    1    1    2    0    0 -0.81090132067E+03  0.10024441661E+03  0.55105008797E+03  0.13688557610E+04  0.95000000000E+03 0.  0.
   -2000013    1    1    2    0    0  0.81090132067E+03 -0.10024441661E+03  0.92430463013E+03  0.15570642068E+04  0.95000000000E+03 0.  0.
<mgrwt>
<rscale>  0 0.25267244E+04</rscale>
<asrwt>0</asrwt>
<pdfrwt beam="1">  1        2 0.33855959E+00 0.25267244E+04</pdfrwt>
<pdfrwt beam="2">  1       -2 0.11158194E+00 0.25267244E+04</pdfrwt>
<totfact> 0.29136662E+00</totfact>
</mgrwt>
</event>
<event>
 4    1  0.2048914E-008  0.2878586E+04  0.7816531E-02  0.8279278E-01
         -2   -1    0    0    0  501 -0.00000000000E+00  0.00000000000E+00  0.10152472841E+04  0.10152472841E+04  0.00000000000E+00 0. -1.
          2   -1    0    0  501    0  0.00000000000E+00 -0.00000000000E+00 -0.20404523121E+04  0.20404523121E+04  0.00000000000E+00 0.  1.
    2000013    1    1    2    0    0 -0.10693815006E+04 -0.56260056594E+02 -0.67119951187E+03  0.15810600154E+04  0.95000000000E+03 0.  0.
   -2000013    1    1    2    0    0  0.10693815006E+04  0.56260056594E+02 -0.35400551616E+03  0.14746395808E+04  0.95000000000E+03 0.  0.
<mgrwt>
<rscale>  0 0.28785855E+04</rscale>
<asrwt>0</asrwt>
<pdfrwt beam="2">  1        2 0.31391574E+00 0.28785855E+04</pdfrwt>
<pdfrwt beam="1">  1       -2 0.15619189E+00 0.28785855E+04</pdfrwt>
<totfact> 0.14748858E+00</totfact>
</mgrwt>
</event>
<event>
 4    1  0.2048914E-008  0.2225875E+04  0.7816531E-02  0.8507735E-01
         -2   -1    0    0    0  501 -0.00000000000E+00  0.00000000000E+00  0.64421313827E+03  0.64421313827E+03  0.00000000000E+00 0. -1.
          2   -1    0    0  501    0  0.00000000000E+00 -0.00000000000E+00 -0.19227013144E+04  0.19227013144E+04  0.00000000000E+00 0.  1.
    2000013    1    1    2    0    0  0.51954099333E+03  0.13269061315E+03 -0.38501340571E+03  0.11568340266E+04  0.95000000000E+03 0.  0.
   -2000013    1    1    2    0    0 -0.51954099333E+03 -0.13269061315E+03 -0.89347477045E+03  0.14100804261E+04  0.95000000000E+03 0.  0.
<mgrwt>
<rscale>  0 0.22258746E+04</rscale>
<asrwt>0</asrwt>
<pdfrwt beam="2">  1        2 0.29580020E+00 0.22258746E+04</pdfrwt>
<pdfrwt beam="1">  1       -2 0.99109715E-01 0.22258746E+04</pdfrwt>
<totfact> 0.56758918E+00</totfact>
</mgrwt>
</event>
<event>
 4    1  0.2048914E-008  0.2766315E+04  0.7816531E-02  0.8313803E-01
          2   -1    0    0  501    0  0.00000000000E+00  0.00000000000E+00  0.12325462472E+04  0.12325462472E+04  0.00000000000E+00 0.  1.
         -2   -1    0    0    0  501 -0.00000000000E+00 -0.00000000000E+00 -0.15521731345E+04  0.15521731345E+04  0.00000000000E+00 0. -1.
    2000013    1    1    2    0    0  0.57618625621E+03  0.75664672545E+03 -0.48774181290E+03  0.14299989318E+04  0.95000000000E+03 0.  0.
   -2000013    1    1    2    0    0 -0.57618625621E+03 -0.75664672545E+03  0.16811492562E+03  0.13547204498E+04  0.95000000000E+03 0.  0.
<mgrwt>
<rscale>  0 0.27663154E+04</rscale>
<asrwt>0</asrwt>
<pdfrwt beam="1">  1        2 0.18962250E+00 0.27663154E+04</pdfrwt>
<pdfrwt beam="2">  1       -2 0.23879587E+00 0.27663154E+04</pdfrwt>
<totfact> 0.11910575E+00</totfact>
</mgrwt>
</event>
<event>
 4    1  0.2048914E-008  0.2652939E+04  0.7816531E-02  0.8350438E-01
         -2   -1    0    0    0  501 -0.00000000000E+00  0.00000000000E+00  0.11894583469E+04  0.11894583469E+04  0.00000000000E+00 0. -1.
          2   -1    0    0  501    0  0.00000000000E+00 -0.00000000000E+00 -0.14792631349E+04  0.14792631349E+04  0.00000000000E+00 0.  1.
    2000013    1    1    2    0    0  0.14219012452E+03  0.91242492967E+03 -0.21074864044E+03  0.13415111901E+04  0.95000000000E+03 0.  0.
   -2000013    1    1    2    0    0 -0.14219012452E+03 -0.91242492967E+03 -0.79056147589E+02  0.13272102917E+04  0.95000000000E+03 0.  0.
<mgrwt>
<rscale>  0 0.26529394E+04</rscale>
<asrwt>0</asrwt>
<pdfrwt beam="2">  1        2 0.22757894E+00 0.26529394E+04</pdfrwt>
<pdfrwt beam="1">  1       -2 0.18299359E+00 0.26529394E+04</pdfrwt>
<totfact> 0.19864260E+00</totfact>
</mgrwt>
</event>
<event>
 4    1  0.2048914E-008  0.4063257E+04  0.7816531E-02  0.7991906E-01
         -2   -1    0    0    0  501 -0.00000000000E+00  0.00000000000E+00  0.14841280658E+04  0.14841280658E+04  0.00000000000E+00 0. -1.
          2   -1    0    0  501    0  0.00000000000E+00 -0.00000000000E+00 -0.27811038730E+04  0.27811038730E+04  0.00000000000E+00 0.  1.
    2000013    1    1    2    0    0  0.14395937648E+04 -0.64366940585E+03 -0.15504267478E+04  0.24068783958E+04  0.95000000000E+03 0.  0.
   -2000013    1    1    2    0    0 -0.14395937648E+04  0.64366940585E+03  0.25345094063E+03  0.18583535431E+04  0.95000000000E+03 0.  0.
<mgrwt>
<rscale>  0 0.40632570E+04</rscale>
<asrwt>0</asrwt>
<pdfrwt beam="2">  1        2 0.42786213E+00 0.40632570E+04</pdfrwt>
<pdfrwt beam="1">  1       -2 0.22832740E+00 0.40632570E+04</pdfrwt>
<totfact> 0.16316503E-01</totfact>
</mgrwt>
</event>
<event>
 4    1  0.2048914E-008  0.2318717E+04  0.7816531E-02  0.8470577E-01
         -2   -1    0    0    0  501 -0.00000000000E+00  0.00000000000E+00  0.88579253847E+03  0.88579253847E+03  0.00000000000E+00 0. -1.
          2   -1    0    0  501    0  0.00000000000E+00 -0.00000000000E+00 -0.15174124807E+04  0.15174124807E+04  0.00000000000E+00 0.  1.
    2000013    1    1    2    0    0 -0.36485539008E+03  0.50243918264E+03 -0.56118101175E+03  0.12660919066E+04  0.95000000000E+03 0.  0.
   -2000013    1    1    2    0    0  0.36485539008E+03 -0.50243918264E+03 -0.70438930473E+02  0.11371131126E+04  0.95000000000E+03 0.  0.
<mgrwt>
<rscale>  0 0.23187174E+04</rscale>
<asrwt>0</asrwt>
<pdfrwt beam="2">  1        2 0.23344807E+00 0.23187174E+04</pdfrwt>
<pdfrwt beam="1">  1       -2 0.13627578E+00 0.23187174E+04</pdfrwt>
<totfact> 0.43270892E+00</totfact>
</mgrwt>
</event>
<event>
 4    1  0.2048914E-008  0.2502286E+04  0.7816531E-02  0.8402172E-01
          2   -1    0    0  501    0  0.00000000000E+00  0.00000000000E+00  0.90293347208E+03  0.90293347208E+03  0.00000000000E+00 0.  1.
         -2   -1    0    0    0  501 -0.00000000000E+00 -0.00000000000E+00 -0.17336366734E+04  0.17336366734E+04  0.00000000000E+00 0. -1.
    2000013    1    1    2    0    0  0.81029629157E+03  0.51724005078E+00 -0.49883903911E+03  0.13445894298E+04  0.95000000000E+03 0.  0.
   -2000013    1    1    2    0    0 -0.81029629157E+03 -0.51724005078E+00 -0.33186416221E+03  0.12919807157E+04  0.95000000000E+03 0.  0.
<mgrwt>
<rscale>  0 0.25022858E+04</rscale>
<asrwt>0</asrwt>
<pdfrwt beam="1">  1        2 0.13891284E+00 0.25022858E+04</pdfrwt>
<pdfrwt beam="2">  1       -2 0.26671333E+00 0.25022858E+04</pdfrwt>
<totfact> 0.13210862E+00</totfact>
</mgrwt>
</event>
<event>
 4    1  0.2048914E-008  0.2619244E+04  0.7816531E-02  0.8361694E-01
          2   -1    0    0  501    0  0.00000000000E+00  0.00000000000E+00  0.35342514054E+04  0.35342514054E+04  0.00000000000E+00 0.  1.
         -2   -1    0    0    0  501 -0.00000000000E+00 -0.00000000000E+00 -0.48528250085E+03  0.48528250085E+03  0.00000000000E+00 0. -1.
    2000013    1    1    2    0    0 -0.92844759765E+02  0.54197354739E+03  0.42827573529E+03  0.11782510687E+04  0.95000000000E+03 0.  0.
   -2000013    1    1    2    0    0  0.92844759765E+02 -0.54197354739E+03  0.26206931693E+04  0.28412828376E+04  0.95000000000E+03 0.  0.
<mgrwt>
<rscale>  0 0.26192444E+04</rscale>
<asrwt>0</asrwt>
<pdfrwt beam="1">  1        2 0.54373097E+00 0.26192444E+04</pdfrwt>
<pdfrwt beam="2">  1       -2 0.74658849E-01 0.26192444E+04</pdfrwt>
<totfact> 0.10963723E+00</totfact>
</mgrwt>
</event>
<event>
 4    1  0.2048914E-008  0.2098904E+04  0.7816531E-02  0.8561726E-01
         -2   -1    0    0    0  501 -0.00000000000E+00  0.00000000000E+00  0.44435692534E+03  0.44435692534E+03  0.00000000000E+00 0. -1.
          2   -1    0    0  501    0  0.00000000000E+00 -0.00000000000E+00 -0.24785246323E+04  0.24785246323E+04  0.00000000000E+00 0.  1.
    2000013    1    1    2    0    0  0.34567940276E+03 -0.43895601842E+02 -0.14045815103E+04  0.17311182202E+04  0.95000000000E+03 0.  0.
   -2000013    1    1    2    0    0 -0.34567940276E+03  0.43895601842E+02 -0.62958619664E+03  0.11917633374E+04  0.95000000000E+03 0.  0.
<mgrwt>
<rscale>  0 0.20989041E+04</rscale>
<asrwt>0</asrwt>
<pdfrwt beam="2">  1        2 0.38131149E+00 0.20989041E+04</pdfrwt>
<pdfrwt beam="1">  1       -2 0.68362603E-01 0.20989041E+04</pdfrwt>
<totfact> 0.64642226E+00</totfact>
</mgrwt>
</event>
<event>
 4    1  0.2048914E-008  0.2339824E+04  0.7816531E-02  0.8462382E-01
          2   -1    0    0  501    0  0.00000000000E+00  0.00000000000E+00  0.25118786549E+04  0.25118786549E+04  0.00000000000E+00 0.  1.
         -2   -1    0    0    0  501 -0.00000000000E+00 -0.00000000000E+00 -0.54488882450E+03  0.54488882450E+03  0.00000000000E+00 0. -1.
    2000013    1    1    2    0    0 -0.16967111832E+03 -0.52598144494E+03  0.15072815390E+04  0.18654335707E+04  0.95000000000E+03 0.  0.
   -2000013    1    1    2    0    0  0.16967111832E+03  0.52598144494E+03  0.45970829136E+03  0.11913339087E+04  0.95000000000E+03 0.  0.
<mgrwt>
<rscale>  0 0.23398244E+04</rscale>
<asrwt>0</asrwt>
<pdfrwt beam="1">  1        2 0.38644286E+00 0.23398244E+04</pdfrwt>
<pdfrwt beam="2">  1       -2 0.83829051E-01 0.23398244E+04</pdfrwt>
<totfact> 0.38501239E+00</totfact>
</mgrwt>
</event>
<event>
 4    1  0.2048914E-008  0.2187159E+04  0.7816531E-02  0.8523792E-01
          1   -1    0    0  501    0  0.00000000000E+00  0.00000000000E+00  0.12597135252E+04  0.12597135252E+04  0.00000000000E+00 0.  1.
         -1   -1    0    0    0  501 -0.00000000000E+00 -0.00000000000E+00 -0.94935567458E+03  0.94935567458E+03  0.00000000000E+00 0. -1.
    2000013    1    1    2    0    0  0.16088374918E+03 -0.23629589981E+03 -0.30953549792E+03  0.10392456675E+04  0.95000000000E+03 0.  0.
   -2000013    1    1    2    0    0 -0.16088374918E+03  0.23629589981E+03  0.61989334856E+03  0.11698235322E+04  0.95000000000E+03 0.  0.
<mgrwt>
<rscale>  0 0.21871591E+04</rscale>
<asrwt>0</asrwt>
<pdfrwt beam="1">  1        1 0.19380208E+00 0.21871591E+04</pdfrwt>
<pdfrwt beam="2">  1       -1 0.14605472E+00 0.21871591E+04</pdfrwt>
<totfact> 0.33078581E+00</totfact>
</mgrwt>
</event>
<event>
 4    1  0.2048914E-008  0.2429561E+04  0.7816531E-02  0.8428519E-01
          2   -1    0    0  501    0  0.00000000000E+00  0.00000000000E+00  0.18797052046E+04  0.18797052046E+04  0.00000000000E+00 0.  1.
         -2   -1    0    0    0  501 -0.00000000000E+00 -0.00000000000E+00 -0.78506554014E+03  0.78506554014E+03  0.00000000000E+00 0. -1.
    2000013    1    1    2    0    0 -0.61235857381E+03  0.42503870990E+03  0.40201463346E+03  0.12726966227E+04  0.95000000000E+03 0.  0.
   -2000013    1    1    2    0    0  0.61235857381E+03 -0.42503870990E+03  0.69262503102E+03  0.13920741221E+04  0.95000000000E+03 0.  0.
<mgrwt>
<rscale>  0 0.24295611E+04</rscale>
<asrwt>0</asrwt>
<pdfrwt beam="1">  1        2 0.28918541E+00 0.24295611E+04</pdfrwt>
<pdfrwt beam="2">  1       -2 0.12077932E+00 0.24295611E+04</pdfrwt>
<totfact> 0.36529588E+00</totfact>
</mgrwt>
</event>
<event>
 4    1  0.2048914E-008  0.3140653E+04  0.7816531E-02  0.8204669E-01
         -2   -1    0    0    0  501 -0.00000000000E+00  0.00000000000E+00  0.20418210892E+04  0.20418210892E+04  0.00000000000E+00 0. -1.
          2   -1    0    0  501    0  0.00000000000E+00 -0.00000000000E+00 -0.12077088125E+04  0.12077088125E+04  0.00000000000E+00 0.  1.
    2000013    1    1    2    0    0  0.89500629150E+03 -0.47086802693E+03 -0.34373889172E+03  0.14294787114E+04  0.95000000000E+03 0.  0.
   -2000013    1    1    2    0    0 -0.89500629150E+03  0.47086802693E+03  0.11778511684E+04  0.18200511903E+04  0.95000000000E+03 0.  0.
<mgrwt>
<rscale>  0 0.31406530E+04</rscale>
<asrwt>0</asrwt>
<pdfrwt beam="2">  1        2 0.18580136E+00 0.31406530E+04</pdfrwt>
<pdfrwt beam="1">  1       -2 0.31412632E+00 0.31406530E+04</pdfrwt>
<totfact> 0.41268922E-01</totfact>
</mgrwt>
</event>
<event>
 4    1  0.2048914E-008  0.2535631E+04  0.7816531E-02  0.8390401E-01
          2   -1    0    0  501    0  0.00000000000E+00  0.00000000000E+00  0.21034638448E+04  0.21034638448E+04  0.00000000000E+00 0.  1.
         -2   -1    0    0    0  501 -0.00000000000E+00 -0.00000000000E+00 -0.76414743156E+03  0.76414743156E+03  0.00000000000E+00 0. -1.
    2000013    1    1    2    0    0  0.52340367295E+03 -0.16623121187E+03  0.13878382967E+04  0.17692312903E+04  0.95000000000E+03 0.  0.
   -2000013    1    1    2    0    0 -0.52340367295E+03  0.16623121187E+03 -0.48521883473E+02  0.10983799861E+04  0.95000000000E+03 0.  0.
<mgrwt>
<rscale>  0 0.25356313E+04</rscale>
<asrwt>0</asrwt>
<pdfrwt beam="1">  1        2 0.32360982E+00 0.25356313E+04</pdfrwt>
<pdfrwt beam="2">  1       -2 0.11756114E+00 0.25356313E+04</pdfrwt>
<totfact> 0.29060913E+00</totfact>
</mgrwt>
</event>
<event>
 4    1  0.2048914E-008  0.2517505E+04  0.7816531E-02  0.8396776E-01
          2   -1    0    0  501    0  0.00000000000E+00  0.00000000000E+00  0.33315293344E+04  0.33315293344E+04  0.00000000000E+00 0.  1.
         -2   -1    0    0    0  501 -0.00000000000E+00 -0.00000000000E+00 -0.47559485916E+03  0.47559485916E+03  0.00000000000E+00 0. -1.
    2000013    1    1    2    0    0 -0.30022532517E+03  0.65194489121E+03  0.20455750015E+04  0.23668638478E+04  0.95000000000E+03 0.  0.
   -2000013    1    1    2    0    0  0.30022532517E+03 -0.65194489121E+03  0.81035947378E+03  0.14402603458E+04  0.95000000000E+03 0.  0.
<mgrwt>
<rscale>  0 0.25175053E+04</rscale>
<asrwt>0</asrwt>
<pdfrwt beam="1">  1        2 0.51254296E+00 0.25175053E+04</pdfrwt>
<pdfrwt beam="2">  1       -2 0.73168442E-01 0.25175053E+04</pdfrwt>
<totfact> 0.15948456E+00</totfact>
</mgrwt>
</event>
<event>
 4    1  0.2048914E-008  0.2595808E+04  0.7816531E-02  0.8369627E-01
          2   -1    0    0  501    0  0.00000000000E+00  0.00000000000E+00  0.19548273835E+04  0.19548273835E+04  0.00000000000E+00 0.  1.
         -2   -1    0    0    0  501 -0.00000000000E+00 -0.00000000000E+00 -0.86174091040E+03  0.86174091040E+03  0.00000000000E+00 0. -1.
    2000013    1    1    2    0    0  0.52700460661E+03  0.50704608362E+03  0.10860464628E+04  0.16176608129E+04  0.95000000000E+03 0.  0.
   -2000013    1    1    2    0    0 -0.52700460661E+03 -0.50704608362E+03  0.70400103469E+01  0.11989074810E+04  0.95000000000E+03 0.  0.
<mgrwt>
<rscale>  0 0.25958080E+04</rscale>
<asrwt>0</asrwt>
<pdfrwt beam="1">  1        2 0.30074267E+00 0.25958080E+04</pdfrwt>
<pdfrwt beam="2">  1       -2 0.13257552E+00 0.25958080E+04</pdfrwt>
<totfact> 0.25883975E+00</totfact>
</mgrwt>
</event>
<event>
 4    1  0.2048914E-008  0.3046246E+04  0.7816531E-02  0.8230647E-01
         -2   -1    0    0    0  501 -0.00000000000E+00  0.00000000000E+00  0.84106550873E+03  0.84106550873E+03  0.00000000000E+00 0. -1.
          2   -1    0    0  501    0  0.00000000000E+00 -0.00000000000E+00 -0.27582915788E+04  0.27582915788E+04  0.00000000000E+00 0.  1.
    2000013    1    1    2    0    0  0.11564448268E+04  0.55199969031E+02 -0.12864692390E+04  0.19743137484E+04  0.95000000000E+03 0.  0.
   -2000013    1    1    2    0    0 -0.11564448268E+04 -0.55199969031E+02 -0.63075683106E+03  0.16250433391E+04  0.95000000000E+03 0.  0.
<mgrwt>
<rscale>  0 0.30462462E+04</rscale>
<asrwt>0</asrwt>
<pdfrwt beam="2">  1        2 0.42435255E+00 0.30462462E+04</pdfrwt>
<pdfrwt beam="1">  1       -2 0.12939469E+00 0.30462462E+04</pdfrwt>
<totfact> 0.91794101E-01</totfact>
</mgrwt>
</event>
<event>
 4    1  0.2048914E-008  0.2766635E+04  0.7816531E-02  0.8313702E-01
         -4   -1    0    0    0  501 -0.00000000000E+00  0.00000000000E+00  0.16063307664E+04  0.16063307664E+04  0.00000000000E+00 0. -1.
          4   -1    0    0  501    0  0.00000000000E+00 -0.00000000000E+00 -0.11912660003E+04  0.11912660003E+04  0.00000000000E+00 0.  1.
    2000013    1    1    2    0    0  0.45746793287E+03 -0.76251699646E+03 -0.26714420940E+03  0.13283731058E+04  0.95000000000E+03 0.  0.
   -2000013    1    1    2    0    0 -0.45746793287E+03  0.76251699646E+03  0.68220897546E+03  0.14692236609E+04  0.95000000000E+03 0.  0.
<mgrwt>
<rscale>  0 0.27666349E+04</rscale>
<asrwt>0</asrwt>
<pdfrwt beam="2">  1        4 0.18327169E+00 0.27666349E+04</pdfrwt>
<pdfrwt beam="1">  1       -4 0.24712781E+00 0.27666349E+04</pdfrwt>
<totfact> 0.19493388E-02</totfact>
</mgrwt>
</event>
<event>
 4    1  0.2048914E-008  0.2169244E+04  0.7816531E-02  0.8531339E-01
          2   -1    0    0  501    0  0.00000000000E+00  0.00000000000E+00  0.97269663572E+03  0.97269663572E+03  0.00000000000E+00 0.  1.
         -2   -1    0    0    0  501 -0.00000000000E+00 -0.00000000000E+00 -0.12094264499E+04  0.12094264499E+04  0.00000000000E+00 0. -1.
    2000013    1    1    2    0    0 -0.13412659531E+03 -0.47437299695E+03  0.58420783861E+02  0.10718827696E+04  0.95000000000E+03 0.  0.
   -2000013    1    1    2    0    0  0.13412659531E+03  0.47437299695E+03 -0.29515059807E+03  0.11102403160E+04  0.95000000000E+03 0.  0.
<mgrwt>
<rscale>  0 0.21692441E+04</rscale>
<asrwt>0</asrwt>
<pdfrwt beam="1">  1        2 0.14964564E+00 0.21692441E+04</pdfrwt>
<pdfrwt beam="2">  1       -2 0.18606561E+00 0.21692441E+04</pdfrwt>
<totfact> 0.39604098E+00</totfact>
</mgrwt>
</event>
<event>
 4    1  0.2048914E-008  0.2018412E+04  0.7816531E-02  0.8598061E-01
          1   -1    0    0  501    0  0.00000000000E+00  0.00000000000E+00  0.15394819299E+04  0.15394819299E+04  0.00000000000E+00 0.  1.
         -1   -1    0    0    0  501 -0.00000000000E+00 -0.00000000000E+00 -0.66158401273E+03  0.66158401273E+03  0.00000000000E+00 0. -1.
    2000013    1    1    2    0    0 -0.15140727990E+03 -0.23386876413E+03  0.65257967169E+03  0.11857398497E+04  0.95000000000E+03 0.  0.
   -2000013    1    1    2    0    0  0.15140727990E+03  0.23386876413E+03  0.22531824548E+03  0.10153260929E+04  0.95000000000E+03 0.  0.
<mgrwt>
<rscale>  0 0.20184119E+04</rscale>
<asrwt>0</asrwt>
<pdfrwt beam="1">  1        1 0.23684337E+00 0.20184119E+04</pdfrwt>
<pdfrwt beam="2">  1       -1 0.10178216E+00 0.20184119E+04</pdfrwt>
<totfact> 0.52060943E+00</totfact>
</mgrwt>
</event>
<event>
 4    1  0.2048914E-008  0.3287215E+04  0.7816531E-02  0.8166156E-01
         -2   -1    0    0    0  501 -0.00000000000E+00  0.00000000000E+00  0.12770964224E+04  0.12770964224E+04  0.00000000000E+00 0.  1.
          2   -1    0    0  501    0  0.00000000000E+00 -0.00000000000E+00 -0.21153029670E+04  0.21153029670E+04  0.00000000000E+00 0. -1.
    2000013    1    1    2    0    0  0.50230895743E+03  0.12077151644E+04 -0.11286642363E+03  0.16205335654E+04  0.95000000000E+03 0.  0.
   -2000013    1    1    2    0    0 -0.50230895743E+03 -0.12077151644E+04 -0.72534012101E+03  0.17718658240E+04  0.95000000000E+03 0.  0.
<mgrwt>
<rscale>  0 0.32872151E+04</rscale>
<asrwt>0</asrwt>
<pdfrwt beam="2">  1        2 0.32543122E+00 0.32872151E+04</pdfrwt>
<pdfrwt beam="1">  1       -2 0.19647637E+00 0.32872151E+04</pdfrwt>
<totfact> 0.67589838E-01</totfact>
</mgrwt>
</event>
<event>
 4    1  0.2048914E-008  0.2678940E+04  0.7816531E-02  0.8341871E-01
         -2   -1    0    0    0  501 -0.00000000000E+00  0.00000000000E+00  0.70970505192E+03  0.70970505192E+03  0.00000000000E+00 0. -1.
          2   -1    0    0  501    0  0.00000000000E+00 -0.00000000000E+00 -0.25280639319E+04  0.25280639319E+04  0.00000000000E+00 0.  1.
    2000013    1    1    2    0    0 -0.79274092333E+03 -0.42984886067E+03 -0.57061686664E+03  0.14287448418E+04  0.95000000000E+03 0.  0.
   -2000013    1    1    2    0    0  0.79274092333E+03  0.42984886067E+03 -0.12477420134E+04  0.18090241420E+04  0.95000000000E+03 0.  0.
<mgrwt>
<rscale>  0 0.26789399E+04</rscale>
<asrwt>0</asrwt>
<pdfrwt beam="2">  1        2 0.38893291E+00 0.26789399E+04</pdfrwt>
<pdfrwt beam="1">  1       -2 0.10918539E+00 0.26789399E+04</pdfrwt>
<totfact> 0.19705703E+00</totfact>
</mgrwt>
</event>
<event>
 4    1  0.2048914E-008  0.2507773E+04  0.7816531E-02  0.8400222E-01
         -2   -1    0    0    0  501 -0.00000000000E+00  0.00000000000E+00  0.11565692111E+04  0.11565692111E+04  0.00000000000E+00 0. -1.
          2   -1    0    0  501    0  0.00000000000E+00 -0.00000000000E+00 -0.13593926034E+04  0.13593926034E+04  0.00000000000E+00 0.  1.
    2000013    1    1    2    0    0  0.57736249551E+03 -0.38536194378E+03  0.33345531919E+03  0.12229242531E+04  0.95000000000E+03 0.  0.
   -2000013    1    1    2    0    0 -0.57736249551E+03  0.38536194378E+03 -0.53627871143E+03  0.12930375614E+04  0.95000000000E+03 0.  0.
<mgrwt>
<rscale>  0 0.25077732E+04</rscale>
<asrwt>0</asrwt>
<pdfrwt beam="2">  1        2 0.20913733E+00 0.25077732E+04</pdfrwt>
<pdfrwt beam="1">  1       -2 0.17793372E+00 0.25077732E+04</pdfrwt>
<totfact> 0.25509900E+00</totfact>
</mgrwt>
</event>
<event>
 4    1  0.2048914E-008  0.2260836E+04  0.7816531E-02  0.8493525E-01
          2   -1    0    0  501    0  0.00000000000E+00  0.00000000000E+00  0.70841358512E+03  0.70841358512E+03  0.00000000000E+00 0.  1.
         -2   -1    0    0    0  501 -0.00000000000E+00 -0.00000000000E+00 -0.18038120154E+04  0.18038120154E+04  0.00000000000E+00 0. -1.
    2000013    1    1    2    0    0 -0.25072991968E+02  0.60061320066E+03 -0.41631470738E+03  0.11988255950E+04  0.95000000000E+03 0.  0.
   -2000013    1    1    2    0    0  0.25072991968E+02 -0.60061320066E+03 -0.67908372291E+03  0.13134000055E+04  0.95000000000E+03 0.  0.
<mgrwt>
<rscale>  0 0.22608361E+04</rscale>
<asrwt>0</asrwt>
<pdfrwt beam="1">  1        2 0.10898671E+00 0.22608361E+04</pdfrwt>
<pdfrwt beam="2">  1       -2 0.27750954E+00 0.22608361E+04</pdfrwt>
<totfact> 0.16008986E+00</totfact>
</mgrwt>
</event>
<event>
 4    1  0.2048914E-008  0.2904670E+04  0.7816531E-02  0.8271489E-01
         -2   -1    0    0    0  501 -0.00000000000E+00  0.00000000000E+00  0.11361343662E+04  0.11361343662E+04  0.00000000000E+00 0. -1.
          2   -1    0    0  501    0  0.00000000000E+00 -0.00000000000E+00 -0.18565383597E+04  0.18565383597E+04  0.00000000000E+00 0.  1.
    2000013    1    1    2    0    0  0.98234875943E+03  0.15927700345E+03 -0.83948256973E+03  0.16117100341E+04  0.95000000000E+03 0.  0.
   -2000013    1    1    2    0    0 -0.98234875943E+03 -0.15927700345E+03  0.11907857630E+03  0.13809626919E+04  0.95000000000E+03 0.  0.
<mgrwt>
<rscale>  0 0.29046701E+04</rscale>
<asrwt>0</asrwt>
<pdfrwt beam="2">  1        2 0.28562128E+00 0.29046701E+04</pdfrwt>
<pdfrwt beam="1">  1       -2 0.17478991E+00 0.29046701E+04</pdfrwt>
<totfact> 0.13654923E+00</totfact>
</mgrwt>
</event>
<event>
 4    1  0.2048914E-008  0.2805209E+04  0.7816531E-02  0.8301653E-01
          2   -1    0    0  501    0  0.00000000000E+00  0.00000000000E+00  0.23018290485E+04  0.23018290485E+04  0.00000000000E+00 0.  1.
         -2   -1    0    0    0  501 -0.00000000000E+00 -0.00000000000E+00 -0.85466819047E+03  0.85466819047E+03  0.00000000000E+00 0. -1.
    2000013    1    1    2    0    0 -0.52663074009E+03 -0.47743803789E+03 -0.11809611692E+03  0.11923647551E+04  0.95000000000E+03 0.  0.
   -2000013    1    1    2    0    0  0.52663074009E+03  0.47743803789E+03  0.15652569749E+04  0.19641324838E+04  0.95000000000E+03 0.  0.
<mgrwt>
<rscale>  0 0.28052095E+04</rscale>
<asrwt>0</asrwt>
<pdfrwt beam="1">  1        2 0.35412754E+00 0.28052095E+04</pdfrwt>
<pdfrwt beam="2">  1       -2 0.13148741E+00 0.28052095E+04</pdfrwt>
<totfact> 0.16596644E+00</totfact>
</mgrwt>
</event>
<event>
 4    1  0.2048914E-008  0.2398173E+04  0.7816531E-02  0.8440188E-01
         -2   -1    0    0    0  501 -0.00000000000E+00  0.00000000000E+00  0.62126993130E+03  0.62126993130E+03  0.00000000000E+00 0. -1.
          2   -1    0    0  501    0  0.00000000000E+00 -0.00000000000E+00 -0.23143056171E+04  0.23143056171E+04  0.00000000000E+00 0.  1.
    2000013    1    1    2    0    0 -0.59078516512E+03 -0.37597010273E+03 -0.11059779668E+04  0.16174263175E+04  0.95000000000E+03 0.  0.
   -2000013    1    1    2    0    0  0.59078516512E+03  0.37597010273E+03 -0.58705771898E+03  0.13181492309E+04  0.95000000000E+03 0.  0.
<mgrwt>
<rscale>  0 0.23981730E+04</rscale>
<asrwt>0</asrwt>
<pdfrwt beam="2">  1        2 0.35604701E+00 0.23981730E+04</pdfrwt>
<pdfrwt beam="1">  1       -2 0.95579992E-01 0.23981730E+04</pdfrwt>
<totfact> 0.36763834E+00</totfact>
</mgrwt>
</event>
<event>
 4    1  0.2048914E-008  0.2287976E+04  0.7816531E-02  0.8482677E-01
          2   -1    0    0  501    0  0.00000000000E+00  0.00000000000E+00  0.93448914286E+03  0.93448914286E+03  0.00000000000E+00 0.  1.
         -2   -1    0    0    0  501 -0.00000000000E+00 -0.00000000000E+00 -0.14004539495E+04  0.14004539495E+04  0.00000000000E+00 0. -1.
    2000013    1    1    2    0    0  0.62196942955E+02 -0.63406418912E+03 -0.25075117001E+03  0.11710175084E+04  0.95000000000E+03 0.  0.
   -2000013    1    1    2    0    0 -0.62196942955E+02  0.63406418912E+03 -0.21521363660E+03  0.11639255840E+04  0.95000000000E+03 0.  0.
<mgrwt>
<rscale>  0 0.22879764E+04</rscale>
<asrwt>0</asrwt>
<pdfrwt beam="1">  1        2 0.14376756E+00 0.22879764E+04</pdfrwt>
<pdfrwt beam="2">  1       -2 0.21545445E+00 0.22879764E+04</pdfrwt>
<totfact> 0.26644153E+00</totfact>
</mgrwt>
</event>
<event>
 4    1  0.2048914E-008  0.2379080E+04  0.7816531E-02  0.8447377E-01
          2   -1    0    0  501    0  0.00000000000E+00  0.00000000000E+00  0.14501377019E+04  0.14501377019E+04  0.00000000000E+00 0.  1.
         -2   -1    0    0    0  501 -0.00000000000E+00 -0.00000000000E+00 -0.97577317789E+03  0.97577317789E+03  0.00000000000E+00 0. -1.
    2000013    1    1    2    0    0 -0.20881346557E+03  0.66479414483E+03  0.40458188689E+03  0.12456888944E+04  0.95000000000E+03 0.  0.
   -2000013    1    1    2    0    0  0.20881346557E+03 -0.66479414483E+03  0.69782637146E+02  0.11802219854E+04  0.95000000000E+03 0.  0.
<mgrwt>
<rscale>  0 0.23790801E+04</rscale>
<asrwt>0</asrwt>
<pdfrwt beam="1">  1        2 0.22309811E+00 0.23790801E+04</pdfrwt>
<pdfrwt beam="2">  1       -2 0.15011895E+00 0.23790801E+04</pdfrwt>
<totfact> 0.36492688E+00</totfact>
</mgrwt>
</event>
<event>
 4    1  0.2048914E-008  0.2028706E+04  0.7816531E-02  0.8593316E-01
          2   -1    0    0  501    0  0.00000000000E+00  0.00000000000E+00  0.24635173287E+04  0.24635173287E+04  0.00000000000E+00 0.  1.
         -2   -1    0    0    0  501 -0.00000000000E+00 -0.00000000000E+00 -0.41765994133E+03  0.41765994133E+03  0.00000000000E+00 0. -1.
    2000013    1    1    2    0    0  0.12976637091E+03 -0.25049611331E+03  0.71560988499E+03  0.12223686520E+04  0.95000000000E+03 0.  0.
   -2000013    1    1    2    0    0 -0.12976637091E+03  0.25049611331E+03  0.13302475024E+04  0.16588086181E+04  0.95000000000E+03 0.  0.
<mgrwt>
<rscale>  0 0.20287065E+04</rscale>
<asrwt>0</asrwt>
<pdfrwt beam="1">  1        2 0.37900266E+00 0.20287065E+04</pdfrwt>
<pdfrwt beam="2">  1       -2 0.64255377E-01 0.20287065E+04</pdfrwt>
<totfact> 0.75837731E+00</totfact>
</mgrwt>
</event>
<event>
 4    1  0.2048914E-008  0.2142642E+04  0.7816531E-02  0.8542688E-01
         -1   -1    0    0    0  501 -0.00000000000E+00  0.00000000000E+00  0.37813212932E+03  0.37813212932E+03  0.00000000000E+00 0. -1.
          1   -1    0    0  501    0  0.00000000000E+00 -0.00000000000E+00 -0.30352578687E+04  0.30352578687E+04  0.00000000000E+00 0.  1.
    2000013    1    1    2    0    0  0.33018993485E+03 -0.33449924365E+03 -0.10801586140E+04  0.15133267223E+04  0.95000000000E+03 0.  0.
   -2000013    1    1    2    0    0 -0.33018993485E+03  0.33449924365E+03 -0.15769671254E+04  0.19000632757E+04  0.95000000000E+03 0.  0.
<mgrwt>
<rscale>  0 0.21426418E+04</rscale>
<asrwt>0</asrwt>
<pdfrwt beam="2">  1        1 0.46696274E+00 0.21426418E+04</pdfrwt>
<pdfrwt beam="1">  1       -1 0.58174175E-01 0.21426418E+04</pdfrwt>
<totfact> 0.15471234E+00</totfact>
</mgrwt>
</event>
<event>
 4    1  0.2048914E-008  0.2058500E+04  0.7816531E-02  0.8579748E-01
          2   -1    0    0  501    0  0.00000000000E+00  0.00000000000E+00  0.19738022681E+04  0.19738022681E+04  0.00000000000E+00 0.  1.
         -2   -1    0    0    0  501 -0.00000000000E+00 -0.00000000000E+00 -0.53670783375E+03  0.53670783375E+03  0.00000000000E+00 0. -1.
    2000013    1    1    2    0    0  0.12460085100E+03 -0.33991851650E+03  0.52270956891E+03  0.11431514613E+04  0.95000000000E+03 0.  0.
   -2000013    1    1    2    0    0 -0.12460085100E+03  0.33991851650E+03  0.91438486548E+03  0.13673586406E+04  0.95000000000E+03 0.  0.
<mgrwt>
<rscale>  0 0.20584996E+04</rscale>
<asrwt>0</asrwt>
<pdfrwt beam="1">  1        2 0.30366188E+00 0.20584996E+04</pdfrwt>
<pdfrwt beam="2">  1       -2 0.82570437E-01 0.20584996E+04</pdfrwt>
<totfact> 0.82215483E+00</totfact>
</mgrwt>
</event>
<event>
 4    1  0.2048914E-008  0.2318965E+04  0.7816531E-02  0.8470481E-01
          2   -1    0    0  501    0  0.00000000000E+00  0.00000000000E+00  0.18190968337E+04  0.18190968337E+04  0.00000000000E+00 0.  1.
         -2   -1    0    0    0  501 -0.00000000000E+00 -0.00000000000E+00 -0.73904788892E+03  0.73904788892E+03  0.00000000000E+00 0. -1.
    2000013    1    1    2    0    0  0.64410435048E+03  0.37031659386E+02  0.36332241353E+03  0.12044687353E+04  0.95000000000E+03 0.  0.
   -2000013    1    1    2    0    0 -0.64410435048E+03 -0.37031659386E+02  0.71672653126E+03  0.13536759873E+04  0.95000000000E+03 0.  0.
<mgrwt>
<rscale>  0 0.23189650E+04</rscale>
<asrwt>0</asrwt>
<pdfrwt beam="1">  1        2 0.27986105E+00 0.23189650E+04</pdfrwt>
<pdfrwt beam="2">  1       -2 0.11369968E+00 0.23189650E+04</pdfrwt>
<totfact> 0.46213592E+00</totfact>
</mgrwt>
</event>
<event>
 4    1  0.2048914E-008  0.2038604E+04  0.7816531E-02  0.8588782E-01
         -2   -1    0    0    0  501 -0.00000000000E+00  0.00000000000E+00  0.68433996682E+03  0.68433996682E+03  0.00000000000E+00 0. -1.
          2   -1    0    0  501    0  0.00000000000E+00 -0.00000000000E+00 -0.15182173818E+04  0.15182173818E+04  0.00000000000E+00 0.  1.
    2000013    1    1    2    0    0 -0.46687288837E+01  0.33390271693E+03 -0.58764576756E+03  0.11659075304E+04  0.95000000000E+03 0.  0.
   -2000013    1    1    2    0    0  0.46687288837E+01 -0.33390271693E+03 -0.24623164747E+03  0.10366498182E+04  0.95000000000E+03 0.  0.
<mgrwt>
<rscale>  0 0.20386043E+04</rscale>
<asrwt>0</asrwt>
<pdfrwt beam="2">  1        2 0.23357190E+00 0.20386043E+04</pdfrwt>
<pdfrwt beam="1">  1       -2 0.10528307E+00 0.20386043E+04</pdfrwt>
<totfact> 0.83863289E+00</totfact>
</mgrwt>
</event>
<event>
 4    1  0.2048914E-008  0.2291727E+04  0.7816531E-02  0.8481190E-01
          2   -1    0    0  501    0  0.00000000000E+00  0.00000000000E+00  0.91141183465E+03  0.91141183465E+03  0.00000000000E+00 0.  1.
         -2   -1    0    0    0  501 -0.00000000000E+00 -0.00000000000E+00 -0.14406258398E+04  0.14406258398E+04  0.00000000000E+00 0. -1.
    2000013    1    1    2    0    0 -0.38811112464E+03  0.46863276409E+03 -0.47052746233E+03  0.12223514247E+04  0.95000000000E+03 0.  0.
   -2000013    1    1    2    0    0  0.38811112464E+03 -0.46863276409E+03 -0.58686542861E+02  0.11296862498E+04  0.95000000000E+03 0.  0.
<mgrwt>
<rscale>  0 0.22917272E+04</rscale>
<asrwt>0</asrwt>
<pdfrwt beam="1">  1        2 0.14021721E+00 0.22917272E+04</pdfrwt>
<pdfrwt beam="2">  1       -2 0.22163474E+00 0.22917272E+04</pdfrwt>
<totfact> 0.25213400E+00</totfact>
</mgrwt>
</event>
<event>
 4    1  0.2048914E-008  0.2132202E+04  0.7816531E-02  0.8547189E-01
          2   -1    0    0  501    0  0.00000000000E+00  0.00000000000E+00  0.40841599673E+03  0.40841599673E+03  0.00000000000E+00 0.  1.
         -2   -1    0    0    0  501 -0.00000000000E+00 -0.00000000000E+00 -0.27828778745E+04  0.27828778745E+04  0.00000000000E+00 0. -1.
    2000013    1    1    2    0    0  0.22623217498E+03  0.38192858229E+03 -0.89924930804E+03  0.13813760375E+04  0.95000000000E+03 0.  0.
   -2000013    1    1    2    0    0 -0.22623217498E+03 -0.38192858229E+03 -0.14752125697E+04  0.18099178337E+04  0.95000000000E+03 0.  0.
<mgrwt>
<rscale>  0 0.21322025E+04</rscale>
<asrwt>0</asrwt>
<pdfrwt beam="1">  1        2 0.62833229E-01 0.21322025E+04</pdfrwt>
<pdfrwt beam="2">  1       -2 0.42813507E+00 0.21322025E+04</pdfrwt>
<totfact> 0.34634476E-01</totfact>
</mgrwt>
</event>
<event>
 4    1  0.2048914E-008  0.2820809E+04  0.7816531E-02  0.8296837E-01
         -1   -1    0    0    0  501 -0.00000000000E+00  0.00000000000E+00  0.11481852677E+04  0.11481852677E+04  0.00000000000E+00 0.  1.
          1   -1    0    0  501    0  0.00000000000E+00 -0.00000000000E+00 -0.17325091904E+04  0.17325091904E+04  0.00000000000E+00 0. -1.
    2000013    1    1    2    0    0  0.56148156140E+03 -0.71854891348E+03 -0.80802697455E+03  0.15449859794E+04  0.95000000000E+03 0.  0.
   -2000013    1    1    2    0    0 -0.56148156140E+03  0.71854891348E+03  0.22370305183E+03  0.13357084788E+04  0.95000000000E+03 0.  0.
<mgrwt>
<rscale>  0 0.28208095E+04</rscale>
<asrwt>0</asrwt>
<pdfrwt beam="2">  1        1 0.26653988E+00 0.28208095E+04</pdfrwt>
<pdfrwt beam="1">  1       -1 0.17664389E+00 0.28208095E+04</pdfrwt>
<totfact> 0.86123536E-01</totfact>
</mgrwt>
</event>
<event>
 4    1  0.2048914E-008  0.2904324E+04  0.7816531E-02  0.8271592E-01
          1   -1    0    0  501    0  0.00000000000E+00  0.00000000000E+00  0.21786410946E+04  0.21786410946E+04  0.00000000000E+00 0.  1.
         -1   -1    0    0    0  501 -0.00000000000E+00 -0.00000000000E+00 -0.96793140756E+03  0.96793140756E+03  0.00000000000E+00 0. -1.
    2000013    1    1    2    0    0 -0.74979050710E+03  0.65092736382E+03  0.11139609395E+04  0.17689831012E+04  0.95000000000E+03 0.  0.
   -2000013    1    1    2    0    0  0.74979050710E+03 -0.65092736382E+03  0.96748747510E+02  0.13775894010E+04  0.95000000000E+03 0.  0.
<mgrwt>
<rscale>  0 0.29043245E+04</rscale>
<asrwt>0</asrwt>
<pdfrwt beam="1">  1        1 0.33517555E+00 0.29043245E+04</pdfrwt>
<pdfrwt beam="2">  1       -1 0.14891253E+00 0.29043245E+04</pdfrwt>
<totfact> 0.68767782E-01</totfact>
</mgrwt>
</event>
<event>
 4    1  0.2048914E-008  0.2027665E+04  0.7816531E-02  0.8593794E-01
          2   -1    0    0  501    0  0.00000000000E+00  0.00000000000E+00  0.24920918672E+04  0.24920918672E+04  0.00000000000E+00 0.  1.
         -2   -1    0    0    0  501 -0.00000000000E+00 -0.00000000000E+00 -0.41244731079E+03  0.41244731079E+03  0.00000000000E+00 0. -1.
    2000013    1    1    2    0    0 -0.18882042563E+03  0.29640325929E+03  0.97823431619E+03  0.14081727247E+04  0.95000000000E+03 0.  0.
   -2000013    1    1    2    0    0  0.18882042563E+03 -0.29640325929E+03  0.11014102403E+04  0.14963664533E+04  0.95000000000E+03 0.  0.
<mgrwt>
<rscale>  0 0.20276652E+04</rscale>
<asrwt>0</asrwt>
<pdfrwt beam="1">  1        2 0.38339874E+00 0.20276652E+04</pdfrwt>
<pdfrwt beam="2">  1       -2 0.63453434E-01 0.20276652E+04</pdfrwt>
<totfact> 0.75009259E+00</totfact>
</mgrwt>
</event>
<event>
 4    1  0.2048914E-008  0.2270560E+04  0.7816531E-02  0.8489620E-01
         -1   -1    0    0    0  501 -0.00000000000E+00  0.00000000000E+00  0.45747762281E+03  0.45747762281E+03  0.00000000000E+00 0.  1.
          1   -1    0    0  501    0  0.00000000000E+00 -0.00000000000E+00 -0.28173200034E+04  0.28173200034E+04  0.00000000000E+00 0. -1.
    2000013    1    1    2    0    0 -0.59572850775E+03 -0.17729533616E+03 -0.11884253864E+04  0.16435269971E+04  0.95000000000E+03 0.  0.
   -2000013    1    1    2    0    0  0.59572850775E+03  0.17729533616E+03 -0.11714169942E+04  0.16312706291E+04  0.95000000000E+03 0.  0.
<mgrwt>
<rscale>  0 0.22705602E+04</rscale>
<asrwt>0</asrwt>
<pdfrwt beam="2">  1        1 0.43343384E+00 0.22705602E+04</pdfrwt>
<pdfrwt beam="1">  1       -1 0.70381174E-01 0.22705602E+04</pdfrwt>
<totfact> 0.14980200E+00</totfact>
</mgrwt>
</event>
<event>
 4    1  0.2048914E-008  0.4864081E+04  0.7816531E-02  0.7849823E-01
         -2   -1    0    0    0  501 -0.00000000000E+00  0.00000000000E+00  0.19783103249E+04  0.19783103249E+04  0.00000000000E+00 0. -1.
          2   -1    0    0  501    0  0.00000000000E+00 -0.00000000000E+00 -0.29898352860E+04  0.29898352860E+04  0.00000000000E+00 0.  1.
    2000013    1    1    2    0    0 -0.54781317689E+03  0.14443094298E+04 -0.21609865788E+04  0.28210799350E+04  0.95000000000E+03 0.  0.
   -2000013    1    1    2    0    0  0.54781317689E+03 -0.14443094298E+04  0.11494616177E+04  0.21470656759E+04  0.95000000000E+03 0.  0.
<mgrwt>
<rscale>  0 0.48640814E+04</rscale>
<asrwt>0</asrwt>
<pdfrwt beam="2">  1        2 0.45997466E+00 0.48640814E+04</pdfrwt>
<pdfrwt beam="1">  1       -2 0.30435543E+00 0.48640814E+04</pdfrwt>
<totfact> 0.38844693E-02</totfact>
</mgrwt>
</event>
<event>
 4    1  0.2048914E-008  0.2838997E+04  0.7816531E-02  0.8291263E-01
         -1   -1    0    0    0  501 -0.00000000000E+00  0.00000000000E+00  0.75621657664E+03  0.75621657664E+03  0.00000000000E+00 0. -1.
          1   -1    0    0  501    0  0.00000000000E+00 -0.00000000000E+00 -0.26645487455E+04  0.26645487455E+04  0.00000000000E+00 0.  1.
    2000013    1    1    2    0    0 -0.62431224546E+03 -0.78409755022E+02 -0.19741310606E+04  0.22793874866E+04  0.95000000000E+03 0.  0.
   -2000013    1    1    2    0    0  0.62431224546E+03  0.78409755022E+02  0.65798891672E+02  0.11413778356E+04  0.95000000000E+03 0.  0.
<mgrwt>
<rscale>  0 0.28389970E+04</rscale>
<asrwt>0</asrwt>
<pdfrwt beam="2">  1        1 0.40993058E+00 0.28389970E+04</pdfrwt>
<pdfrwt beam="1">  1       -1 0.11634101E+00 0.28389970E+04</pdfrwt>
<totfact> 0.59841193E-01</totfact>
</mgrwt>
</event>
<event>
 4    1  0.2048914E-008  0.2066602E+04  0.7816531E-02  0.8576100E-01
         -1   -1    0    0    0  501 -0.00000000000E+00  0.00000000000E+00  0.37626808563E+03  0.37626808563E+03  0.00000000000E+00 0.  1.
          1   -1    0    0  501    0  0.00000000000E+00 -0.00000000000E+00 -0.28376334106E+04  0.28376334106E+04  0.00000000000E+00 0. -1.
    2000013    1    1    2    0    0 -0.31420164862E+03 -0.38622693688E+02 -0.16271621507E+04  0.19105944241E+04  0.95000000000E+03 0.  0.
   -2000013    1    1    2    0    0  0.31420164862E+03  0.38622693688E+02 -0.83420317423E+03  0.13033070722E+04  0.95000000000E+03 0.  0.
<mgrwt>
<rscale>  0 0.20666019E+04</rscale>
<asrwt>0</asrwt>
<pdfrwt beam="2">  1        1 0.43655899E+00 0.20666019E+04</pdfrwt>
<pdfrwt beam="1">  1       -1 0.57887398E-01 0.20666019E+04</pdfrwt>
<totfact> 0.21864664E+00</totfact>
</mgrwt>
</event>
<event>
 4    1  0.2048914E-008  0.2835525E+04  0.7816531E-02  0.8292323E-01
         -2   -1    0    0    0  501 -0.00000000000E+00  0.00000000000E+00  0.50859815897E+04  0.50859815897E+04  0.00000000000E+00 0. -1.
          2   -1    0    0  501    0  0.00000000000E+00 -0.00000000000E+00 -0.39521385067E+03  0.39521385067E+03  0.00000000000E+00 0.  1.
    2000013    1    1    2    0    0 -0.86171364444E+03  0.14462185158E+03  0.12114848852E+04  0.17702151033E+04  0.95000000000E+03 0.  0.
   -2000013    1    1    2    0    0  0.86171364444E+03 -0.14462185158E+03  0.34792828538E+04  0.37109803370E+04  0.95000000000E+03 0.  0.
<mgrwt>
<rscale>  0 0.28355249E+04</rscale>
<asrwt>0</asrwt>
<pdfrwt beam="2">  1        2 0.60802135E-01 0.28355249E+04</pdfrwt>
<pdfrwt beam="1">  1       -2 0.78245866E+00 0.28355249E+04</pdfrwt>
<totfact> 0.69365043E-03</totfact>
</mgrwt>
</event>
<event>
 4    1  0.2048914E-008  0.2357135E+04  0.7816531E-02  0.8455728E-01
         -2   -1    0    0    0  501 -0.00000000000E+00  0.00000000000E+00  0.20810067231E+04  0.20810067231E+04  0.00000000000E+00 0. -1.
          2   -1    0    0  501    0  0.00000000000E+00 -0.00000000000E+00 -0.66747584036E+03  0.66747584036E+03  0.00000000000E+00 0.  1.
    2000013    1    1    2    0    0 -0.63648919932E+03  0.30485800338E+02  0.10375428187E+04  0.15443584382E+04  0.95000000000E+03 0.  0.
   -2000013    1    1    2    0    0  0.63648919932E+03 -0.30485800338E+02  0.37598806408E+03  0.12041241253E+04  0.95000000000E+03 0.  0.
<mgrwt>
<rscale>  0 0.23571353E+04</rscale>
<asrwt>0</asrwt>
<pdfrwt beam="2">  1        2 0.10268859E+00 0.23571353E+04</pdfrwt>
<pdfrwt beam="1">  1       -2 0.32015488E+00 0.23571353E+04</pdfrwt>
<totfact> 0.93842448E-01</totfact>
</mgrwt>
</event>
<event>
 4    1  0.2048914E-008  0.2333155E+04  0.7816531E-02  0.8464962E-01
          2   -1    0    0  501    0  0.00000000000E+00  0.00000000000E+00  0.80066527130E+03  0.80066527130E+03  0.00000000000E+00 0.  1.
         -2   -1    0    0    0  501 -0.00000000000E+00 -0.00000000000E+00 -0.16997154894E+04  0.16997154894E+04  0.00000000000E+00 0. -1.
    2000013    1    1    2    0    0 -0.50991280602E+02 -0.47294498884E+03 -0.96585173271E+03  0.14358435300E+04  0.95000000000E+03 0.  0.
   -2000013    1    1    2    0    0  0.50991280602E+02  0.47294498884E+03  0.66801514589E+02  0.10645372307E+04  0.95000000000E+03 0.  0.
<mgrwt>
<rscale>  0 0.23331551E+04</rscale>
<asrwt>0</asrwt>
<pdfrwt beam="1">  1        2 0.12317927E+00 0.23331551E+04</pdfrwt>
<pdfrwt beam="2">  1       -2 0.26149469E+00 0.23331551E+04</pdfrwt>
<totfact> 0.16994217E+00</totfact>
</mgrwt>
</event>
<event>
 4    1  0.2048914E-008  0.2874849E+04  0.7816531E-02  0.8280400E-01
         -1   -1    0    0    0  501 -0.00000000000E+00  0.00000000000E+00  0.58329533409E+03  0.58329533409E+03  0.00000000000E+00 0. -1.
          1   -1    0    0  501    0  0.00000000000E+00 -0.00000000000E+00 -0.35422700178E+04  0.35422700178E+04  0.00000000000E+00 0.  1.
    2000013    1    1    2    0    0 -0.66660539405E+03 -0.84431850780E+03 -0.13642078909E+04  0.19801009226E+04  0.95000000000E+03 0.  0.
   -2000013    1    1    2    0    0  0.66660539405E+03  0.84431850780E+03 -0.15947667928E+04  0.21454644293E+04  0.95000000000E+03 0.  0.
<mgrwt>
<rscale>  0 0.28748493E+04</rscale>
<asrwt>0</asrwt>
<pdfrwt beam="2">  1        1 0.54496462E+00 0.28748493E+04</pdfrwt>
<pdfrwt beam="1">  1       -1 0.89737743E-01 0.28748493E+04</pdfrwt>
<totfact> 0.24182300E-01</totfact>
</mgrwt>
</event>
<event>
 4    1  0.2048914E-008  0.2571656E+04  0.7816531E-02  0.8377893E-01
         -2   -1    0    0    0  501 -0.00000000000E+00  0.00000000000E+00  0.64843434453E+03  0.64843434453E+03  0.00000000000E+00 0. -1.
          2   -1    0    0  501    0  0.00000000000E+00 -0.00000000000E+00 -0.25497625493E+04  0.25497625493E+04  0.00000000000E+00 0.  1.
    2000013    1    1    2    0    0 -0.38530703822E+03  0.71431714306E+03 -0.57315818150E+03  0.13746711591E+04  0.95000000000E+03 0.  0.
   -2000013    1    1    2    0    0  0.38530703822E+03 -0.71431714306E+03 -0.13281700232E+04  0.18235257347E+04  0.95000000000E+03 0.  0.
<mgrwt>
<rscale>  0 0.25716560E+04</rscale>
<asrwt>0</asrwt>
<pdfrwt beam="2">  1        2 0.39227117E+00 0.25716560E+04</pdfrwt>
<pdfrwt beam="1">  1       -2 0.99759127E-01 0.25716560E+04</pdfrwt>
<totfact> 0.23981843E+00</totfact>
</mgrwt>
</event>
<event>
 4    1  0.2048914E-008  0.2721655E+04  0.7816531E-02  0.8328013E-01
          1   -1    0    0  501    0  0.00000000000E+00  0.00000000000E+00  0.13024690012E+04  0.13024690012E+04  0.00000000000E+00 0.  1.
         -1   -1    0    0    0  501 -0.00000000000E+00 -0.00000000000E+00 -0.14218009342E+04  0.14218009342E+04  0.00000000000E+00 0. -1.
    2000013    1    1    2    0    0  0.51874140878E+03 -0.49920329805E+03 -0.71684457800E+03  0.13909215402E+04  0.95000000000E+03 0.  0.
   -2000013    1    1    2    0    0 -0.51874140878E+03  0.49920329805E+03  0.59751264507E+03  0.13333483952E+04  0.95000000000E+03 0.  0.
<mgrwt>
<rscale>  0 0.27216551E+04</rscale>
<asrwt>0</asrwt>
<pdfrwt beam="1">  1        1 0.20037985E+00 0.27216551E+04</pdfrwt>
<pdfrwt beam="2">  1       -1 0.21873861E+00 0.27216551E+04</pdfrwt>
<totfact> 0.88109678E-01</totfact>
</mgrwt>
</event>
<event>
 4    1  0.2048914E-008  0.2997695E+04  0.7816531E-02  0.8244389E-01
         -2   -1    0    0    0  501 -0.00000000000E+00  0.00000000000E+00  0.12050750355E+04  0.12050750355E+04  0.00000000000E+00 0. -1.
          2   -1    0    0  501    0  0.00000000000E+00 -0.00000000000E+00 -0.18642355613E+04  0.18642355613E+04  0.00000000000E+00 0.  1.
    2000013    1    1    2    0    0 -0.54710402023E+03 -0.77820222954E+03  0.34891388955E+03  0.13889429151E+04  0.95000000000E+03 0.  0.
   -2000013    1    1    2    0    0  0.54710402023E+03  0.77820222954E+03 -0.10080744154E+04  0.16803676818E+04  0.95000000000E+03 0.  0.
<mgrwt>
<rscale>  0 0.29976949E+04</rscale>
<asrwt>0</asrwt>
<pdfrwt beam="2">  1        2 0.28680547E+00 0.29976949E+04</pdfrwt>
<pdfrwt beam="1">  1       -2 0.18539616E+00 0.29976949E+04</pdfrwt>
<totfact> 0.11333412E+00</totfact>
</mgrwt>
</event>
<event>
 4    1  0.2048914E-008  0.2225906E+04  0.7816531E-02  0.8507722E-01
          2   -1    0    0  501    0  0.00000000000E+00  0.00000000000E+00  0.13272011837E+04  0.13272011837E+04  0.00000000000E+00 0.  1.
         -2   -1    0    0    0  501 -0.00000000000E+00 -0.00000000000E+00 -0.93329047544E+03  0.93329047544E+03  0.00000000000E+00 0. -1.
    2000013    1    1    2    0    0 -0.39029591597E+03 -0.13761886771E+02 -0.23824015775E+03  0.10544091541E+04  0.95000000000E+03 0.  0.
   -2000013    1    1    2    0    0  0.39029591597E+03  0.13761886771E+02  0.63215086605E+03  0.12060825051E+04  0.95000000000E+03 0.  0.
<mgrwt>
<rscale>  0 0.22259059E+04</rscale>
<asrwt>0</asrwt>
<pdfrwt beam="1">  1        2 0.20418480E+00 0.22259059E+04</pdfrwt>
<pdfrwt beam="2">  1       -2 0.14358315E+00 0.22259059E+04</pdfrwt>
<totfact> 0.48889851E+00</totfact>
</mgrwt>
</event>
<event>
 4    1  0.2048914E-008  0.3064680E+04  0.7816531E-02  0.8225499E-01
          2   -1    0    0  501    0  0.00000000000E+00  0.00000000000E+00  0.19066810976E+04  0.19066810976E+04  0.00000000000E+00 0. -1.
         -2   -1    0    0    0  501 -0.00000000000E+00 -0.00000000000E+00 -0.12314938241E+04  0.12314938241E+04  0.00000000000E+00 0.  1.
    2000013    1    1    2    0    0 -0.94073350385E+03  0.63835008091E+03 -0.63063996072E+02  0.14828848299E+04  0.95000000000E+03 0.  0.
   -2000013    1    1    2    0    0  0.94073350385E+03 -0.63835008091E+03  0.73825126952E+03  0.16552900918E+04  0.95000000000E+03 0.  0.
<mgrwt>
<rscale>  0 0.30646801E+04</rscale>
<asrwt>0</asrwt>
<pdfrwt beam="1">  1        2 0.29333555E+00 0.30646801E+04</pdfrwt>
<pdfrwt beam="2">  1       -2 0.18946059E+00 0.30646801E+04</pdfrwt>
<totfact> 0.10020980E+00</totfact>
</mgrwt>
</event>
<event>
 4    1  0.2048914E-008  0.1968032E+04  0.7816531E-02  0.8621714E-01
         -2   -1    0    0    0  501 -0.00000000000E+00  0.00000000000E+00  0.31679660894E+03  0.31679660894E+03  0.00000000000E+00 0. -1.
          2   -1    0    0  501    0  0.00000000000E+00 -0.00000000000E+00 -0.30564958768E+04  0.30564958768E+04  0.00000000000E+00 0.  1.
    2000013    1    1    2    0    0  0.18334155857E+03  0.82077370030E+01 -0.16769746351E+04  0.19360850758E+04  0.95000000000E+03 0.  0.
   -2000013    1    1    2    0    0 -0.18334155857E+03 -0.82077370030E+01 -0.10627246327E+04  0.14372074099E+04  0.95000000000E+03 0.  0.
<mgrwt>
<rscale>  0 0.19680320E+04</rscale>
<asrwt>0</asrwt>
<pdfrwt beam="2">  1        2 0.47023014E+00 0.19680320E+04</pdfrwt>
<pdfrwt beam="1">  1       -2 0.48737939E-01 0.19680320E+04</pdfrwt>
<totfact> 0.59736772E+00</totfact>
</mgrwt>
</event>
<event>
 4    1  0.2048914E-008  0.2327576E+04  0.7816531E-02  0.8467127E-01
          2   -1    0    0  501    0  0.00000000000E+00  0.00000000000E+00  0.63102035585E+03  0.63102035585E+03  0.00000000000E+00 0.  1.
         -2   -1    0    0    0  501 -0.00000000000E+00 -0.00000000000E+00 -0.21463682652E+04  0.21463682652E+04  0.00000000000E+00 0. -1.
    2000013    1    1    2    0    0 -0.43851162243E+03 -0.49886061097E+03 -0.63396791356E+03  0.13212000861E+04  0.95000000000E+03 0.  0.
   -2000013    1    1    2    0    0  0.43851162243E+03  0.49886061097E+03 -0.88137999575E+03  0.14561885349E+04  0.95000000000E+03 0.  0.
<mgrwt>
<rscale>  0 0.23275756E+04</rscale>
<asrwt>0</asrwt>
<pdfrwt beam="1">  1        2 0.97080056E-01 0.23275756E+04</pdfrwt>
<pdfrwt beam="2">  1       -2 0.33021050E+00 0.23275756E+04</pdfrwt>
<totfact> 0.87377000E-01</totfact>
</mgrwt>
</event>
<event>
 4    1  0.2048914E-008  0.2157800E+04  0.7816531E-02  0.8536201E-01
          2   -1    0    0  501    0  0.00000000000E+00  0.00000000000E+00  0.12162375532E+04  0.12162375532E+04  0.00000000000E+00 0.  1.
         -2   -1    0    0    0  501 -0.00000000000E+00 -0.00000000000E+00 -0.95707042447E+03  0.95707042447E+03  0.00000000000E+00 0. -1.
    2000013    1    1    2    0    0  0.14818016218E+03  0.26714203258E+03  0.54265645314E+03  0.11359129598E+04  0.95000000000E+03 0.  0.
   -2000013    1    1    2    0    0 -0.14818016218E+03 -0.26714203258E+03 -0.28348932444E+03  0.10373950179E+04  0.95000000000E+03 0.  0.
<mgrwt>
<rscale>  0 0.21577998E+04</rscale>
<asrwt>0</asrwt>
<pdfrwt beam="1">  1        2 0.18711347E+00 0.21577998E+04</pdfrwt>
<pdfrwt beam="2">  1       -2 0.14724160E+00 0.21577998E+04</pdfrwt>
<totfact> 0.53470511E+00</totfact>
</mgrwt>
</event>
<event>
 4    1  0.2048914E-008  0.2694605E+04  0.7816531E-02  0.8336758E-01
          2   -1    0    0  501    0  0.00000000000E+00  0.00000000000E+00  0.82763928079E+03  0.82763928079E+03  0.00000000000E+00 0.  1.
         -2   -1    0    0    0  501 -0.00000000000E+00 -0.00000000000E+00 -0.21932543371E+04  0.21932543371E+04  0.00000000000E+00 0. -1.
    2000013    1    1    2    0    0  0.72910633467E+03  0.10551917761E+02 -0.13748169804E+04  0.18232742854E+04  0.95000000000E+03 0.  0.
   -2000013    1    1    2    0    0 -0.72910633467E+03 -0.10551917761E+02  0.92019240585E+01  0.11976193325E+04  0.95000000000E+03 0.  0.
<mgrwt>
<rscale>  0 0.26946046E+04</rscale>
<asrwt>0</asrwt>
<pdfrwt beam="1">  1        2 0.12732912E+00 0.26946046E+04</pdfrwt>
<pdfrwt beam="2">  1       -2 0.33742374E+00 0.26946046E+04</pdfrwt>
<totfact> 0.53906910E-01</totfact>
</mgrwt>
</event>
<event>
 4    1  0.2048914E-008  0.3441089E+04  0.7816531E-02  0.8127895E-01
         -2   -1    0    0    0  501 -0.00000000000E+00  0.00000000000E+00  0.17388303011E+04  0.17388303011E+04  0.00000000000E+00 0. -1.
          2   -1    0    0  501    0  0.00000000000E+00 -0.00000000000E+00 -0.17024510637E+04  0.17024510637E+04  0.00000000000E+00 0.  1.
    2000013    1    1    2    0    0 -0.13084686693E+04 -0.44324420157E+03 -0.36811918614E+03  0.17165568490E+04  0.95000000000E+03 0.  0.
   -2000013    1    1    2    0    0  0.13084686693E+04  0.44324420157E+03  0.40449842354E+03  0.17247245158E+04  0.95000000000E+03 0.  0.
<mgrwt>
<rscale>  0 0.34410891E+04</rscale>
<asrwt>0</asrwt>
<pdfrwt beam="2">  1        2 0.26191555E+00 0.34410891E+04</pdfrwt>
<pdfrwt beam="1">  1       -2 0.26751235E+00 0.34410891E+04</pdfrwt>
<totfact> 0.40515903E-01</totfact>
</mgrwt>
</event>
<event>
 4    1  0.2048914E-008  0.3172089E+04  0.7816531E-02  0.8196228E-01
          2   -1    0    0  501    0  0.00000000000E+00  0.00000000000E+00  0.21622229251E+04  0.21622229251E+04  0.00000000000E+00 0.  1.
         -2   -1    0    0    0  501 -0.00000000000E+00 -0.00000000000E+00 -0.11634032746E+04  0.11634032746E+04  0.00000000000E+00 0. -1.
    2000013    1    1    2    0    0 -0.11434910276E+04  0.53028604899E+03  0.33610718007E+03  0.16137667305E+04  0.95000000000E+03 0.  0.
   -2000013    1    1    2    0    0  0.11434910276E+04 -0.53028604899E+03  0.66271247051E+03  0.17118594692E+04  0.95000000000E+03 0.  0.
<mgrwt>
<rscale>  0 0.31720890E+04</rscale>
<asrwt>0</asrwt>
<pdfrwt beam="1">  1        2 0.33264968E+00 0.31720890E+04</pdfrwt>
<pdfrwt beam="2">  1       -2 0.17898512E+00 0.31720890E+04</pdfrwt>
<totfact> 0.84343643E-01</totfact>
</mgrwt>
</event>
<event>
 4    1  0.2048914E-008  0.3269384E+04  0.7816531E-02  0.8170730E-01
         -2   -1    0    0    0  501 -0.00000000000E+00  0.00000000000E+00  0.19241682225E+04  0.19241682225E+04  0.00000000000E+00 0.  1.
          2   -1    0    0  501    0  0.00000000000E+00 -0.00000000000E+00 -0.13887653948E+04  0.13887653948E+04  0.00000000000E+00 0. -1.
    2000013    1    1    2    0    0  0.12718156578E+04 -0.36244779460E+03  0.41396665555E+03  0.16801047179E+04  0.95000000000E+03 0.  0.
   -2000013    1    1    2    0    0 -0.12718156578E+04  0.36244779460E+03  0.12143617214E+03  0.16328288995E+04  0.95000000000E+03 0.  0.
<mgrwt>
<rscale>  0 0.32693842E+04</rscale>
<asrwt>0</asrwt>
<pdfrwt beam="2">  1        2 0.21365622E+00 0.32693842E+04</pdfrwt>
<pdfrwt beam="1">  1       -2 0.29602588E+00 0.32693842E+04</pdfrwt>
<totfact> 0.41332180E-01</totfact>
</mgrwt>
</event>
<event>
 4    1  0.2048914E-008  0.2913890E+04  0.7816531E-02  0.8268757E-01
         -2   -1    0    0    0  501 -0.00000000000E+00  0.00000000000E+00  0.15033306990E+04  0.15033306990E+04  0.00000000000E+00 0.  1.
          2   -1    0    0  501    0  0.00000000000E+00 -0.00000000000E+00 -0.14119906392E+04  0.14119906392E+04  0.00000000000E+00 0. -1.
    2000013    1    1    2    0    0  0.10896827005E+04 -0.18025553479E+03  0.28678486859E+02  0.14571283063E+04  0.95000000000E+03 0.  0.
   -2000013    1    1    2    0    0 -0.10896827005E+04  0.18025553479E+03  0.62661572956E+02  0.14581930319E+04  0.95000000000E+03 0.  0.
<mgrwt>
<rscale>  0 0.29138901E+04</rscale>
<asrwt>0</asrwt>
<pdfrwt beam="2">  1        2 0.21722933E+00 0.29138901E+04</pdfrwt>
<pdfrwt beam="1">  1       -2 0.23128165E+00 0.29138901E+04</pdfrwt>
<totfact> 0.10306889E+00</totfact>
</mgrwt>
</event>
<event>
 4    1  0.2048914E-008  0.5304771E+04  0.7816531E-02  0.7783139E-01
          2   -1    0    0  501    0  0.00000000000E+00  0.00000000000E+00  0.24493905279E+04  0.24493905279E+04  0.00000000000E+00 0.  1.
         -2   -1    0    0    0  501 -0.00000000000E+00 -0.00000000000E+00 -0.28722036347E+04  0.28722036347E+04  0.00000000000E+00 0. -1.
    2000013    1    1    2    0    0  0.12422032779E+04 -0.20608333624E+04  0.37572321027E+03  0.26141482479E+04  0.95000000000E+03 0.  0.
   -2000013    1    1    2    0    0 -0.12422032779E+04  0.20608333624E+04 -0.79853631701E+03  0.27074459147E+04  0.95000000000E+03 0.  0.
<mgrwt>
<rscale>  0 0.53047708E+04</rscale>
<asrwt>0</asrwt>
<pdfrwt beam="1">  1        2 0.37682931E+00 0.53047708E+04</pdfrwt>
<pdfrwt beam="2">  1       -2 0.44187748E+00 0.53047708E+04</pdfrwt>
<totfact> 0.10426196E-02</totfact>
</mgrwt>
</event>
<event>
 4    1  0.2048914E-008  0.2297038E+04  0.7816531E-02  0.8479090E-01
         -1   -1    0    0    0  501 -0.00000000000E+00  0.00000000000E+00  0.62618954064E+03  0.62618954064E+03  0.00000000000E+00 0.  1.
          1   -1    0    0  501    0  0.00000000000E+00 -0.00000000000E+00 -0.21065448544E+04  0.21065448544E+04  0.00000000000E+00 0. -1.
    2000013    1    1    2    0    0  0.48078109521E+03  0.24715984968E+02 -0.12516489798E+04  0.16434374068E+04  0.95000000000E+03 0.  0.
   -2000013    1    1    2    0    0 -0.48078109521E+03 -0.24715984968E+02 -0.22870633396E+03  0.10892969883E+04  0.95000000000E+03 0.  0.
<mgrwt>
<rscale>  0 0.22970384E+04</rscale>
<asrwt>0</asrwt>
<pdfrwt beam="2">  1        1 0.32408382E+00 0.22970384E+04</pdfrwt>
<pdfrwt beam="1">  1       -1 0.96336854E-01 0.22970384E+04</pdfrwt>
<totfact> 0.23657596E+00</totfact>
</mgrwt>
</event>
<event>
 4    1  0.2048914E-008  0.2390449E+04  0.7816531E-02  0.8443088E-01
          2   -1    0    0  501    0  0.00000000000E+00  0.00000000000E+00  0.20127045336E+04  0.20127045336E+04  0.00000000000E+00 0.  1.
         -2   -1    0    0    0  501 -0.00000000000E+00 -0.00000000000E+00 -0.70977192644E+03  0.70977192644E+03  0.00000000000E+00 0. -1.
    2000013    1    1    2    0    0 -0.56226635760E+03 -0.32398666184E+03  0.28250851453E+03  0.11846610801E+04  0.95000000000E+03 0.  0.
   -2000013    1    1    2    0    0  0.56226635760E+03  0.32398666184E+03  0.10204240926E+04  0.15378153799E+04  0.95000000000E+03 0.  0.
<mgrwt>
<rscale>  0 0.23904486E+04</rscale>
<asrwt>0</asrwt>
<pdfrwt beam="1">  1        2 0.30964685E+00 0.23904486E+04</pdfrwt>
<pdfrwt beam="2">  1       -2 0.10919568E+00 0.23904486E+04</pdfrwt>
<totfact> 0.39561482E+00</totfact>
</mgrwt>
</event>
<event>
 4    1  0.2048914E-008  0.2455758E+04  0.7816531E-02  0.8418919E-01
          2   -1    0    0  501    0  0.00000000000E+00  0.00000000000E+00  0.10131553342E+04  0.10131553342E+04  0.00000000000E+00 0.  1.
         -2   -1    0    0    0  501 -0.00000000000E+00 -0.00000000000E+00 -0.14881106373E+04  0.14881106373E+04  0.00000000000E+00 0. -1.
    2000013    1    1    2    0    0 -0.76786806867E+02  0.74958467350E+03 -0.43448859734E+03  0.12880425993E+04  0.95000000000E+03 0.  0.
   -2000013    1    1    2    0    0  0.76786806867E+02 -0.74958467350E+03 -0.40466705698E+02  0.12132233721E+04  0.95000000000E+03 0.  0.
<mgrwt>
<rscale>  0 0.24557583E+04</rscale>
<asrwt>0</asrwt>
<pdfrwt beam="1">  1        2 0.15587005E+00 0.24557583E+04</pdfrwt>
<pdfrwt beam="2">  1       -2 0.22894010E+00 0.24557583E+04</pdfrwt>
<totfact> 0.19194454E+00</totfact>
</mgrwt>
</event>
<event>
 4    1  0.2048914E-008  0.2169037E+04  0.7816531E-02  0.8531427E-01
          2   -1    0    0  501    0  0.00000000000E+00  0.00000000000E+00  0.15140100550E+04  0.15140100550E+04  0.00000000000E+00 0.  1.
         -2   -1    0    0    0  501 -0.00000000000E+00 -0.00000000000E+00 -0.77686451742E+03  0.77686451742E+03  0.00000000000E+00 0. -1.
    2000013    1    1    2    0    0 -0.38543537219E+03  0.45405461186E+00  0.74216493647E+03  0.12656498036E+04  0.95000000000E+03 0.  0.
   -2000013    1    1    2    0    0  0.38543537219E+03 -0.45405461186E+00 -0.50193989156E+01  0.10252247689E+04  0.95000000000E+03 0.  0.
<mgrwt>
<rscale>  0 0.21690373E+04</rscale>
<asrwt>0</asrwt>
<pdfrwt beam="1">  1        2 0.23292462E+00 0.21690373E+04</pdfrwt>
<pdfrwt beam="2">  1       -2 0.11951762E+00 0.21690373E+04</pdfrwt>
<totfact> 0.61272368E+00</totfact>
</mgrwt>
</event>
<event>
 4    1  0.2048914E-008  0.2300750E+04  0.7816531E-02  0.8477625E-01
         -2   -1    0    0    0  501 -0.00000000000E+00  0.00000000000E+00  0.50196862827E+03  0.50196862827E+03  0.00000000000E+00 0.  1.
          2   -1    0    0  501    0  0.00000000000E+00 -0.00000000000E+00 -0.26363452195E+04  0.26363452195E+04  0.00000000000E+00 0. -1.
    2000013    1    1    2    0    0 -0.55748783278E+03  0.25408273333E+03 -0.13581858315E+04  0.17670652144E+04  0.95000000000E+03 0.  0.
   -2000013    1    1    2    0    0  0.55748783278E+03 -0.25408273333E+03 -0.77619075978E+03  0.13712486334E+04  0.95000000000E+03 0.  0.
<mgrwt>
<rscale>  0 0.23007500E+04</rscale>
<asrwt>0</asrwt>
<pdfrwt beam="2">  1        2 0.40559157E+00 0.23007500E+04</pdfrwt>
<pdfrwt beam="1">  1       -2 0.77225943E-01 0.23007500E+04</pdfrwt>
<totfact> 0.39294906E+00</totfact>
</mgrwt>
</event>
<event>
 4    1  0.2048914E-008  0.2103953E+04  0.7816531E-02  0.8559504E-01
          2   -1    0    0  501    0  0.00000000000E+00  0.00000000000E+00  0.16900811989E+04  0.16900811989E+04  0.00000000000E+00 0. -1.
         -2   -1    0    0    0  501 -0.00000000000E+00 -0.00000000000E+00 -0.65479366713E+03  0.65479366713E+03  0.00000000000E+00 0.  1.
    2000013    1    1    2    0    0 -0.37188049149E+03  0.11683837012E+03  0.26298838664E+03  0.10600043378E+04  0.95000000000E+03 0.  0.
   -2000013    1    1    2    0    0  0.37188049149E+03 -0.11683837012E+03  0.77229914510E+03  0.12848705282E+04  0.95000000000E+03 0.  0.
<mgrwt>
<rscale>  0 0.21039529E+04</rscale>
<asrwt>0</asrwt>
<pdfrwt beam="1">  1        2 0.26001249E+00 0.21039529E+04</pdfrwt>
<pdfrwt beam="2">  1       -2 0.10073749E+00 0.21039529E+04</pdfrwt>
<totfact> 0.74276494E+00</totfact>
</mgrwt>
</event>
<event>
 4    1  0.2048914E-008  0.2902111E+04  0.7816531E-02  0.8272250E-01
          2   -1    0    0  501    0  0.00000000000E+00  0.00000000000E+00  0.23517355933E+04  0.23517355933E+04  0.00000000000E+00 0.  1.
         -2   -1    0    0    0  501 -0.00000000000E+00 -0.00000000000E+00 -0.89532270596E+03  0.89532270596E+03  0.00000000000E+00 0. -1.
    2000013    1    1    2    0    0  0.42926627673E+03  0.49404602836E+03 -0.25658888401E+03  0.11818159205E+04  0.95000000000E+03 0.  0.
   -2000013    1    1    2    0    0 -0.42926627673E+03 -0.49404602836E+03  0.17130017713E+04  0.20652423788E+04  0.95000000000E+03 0.  0.
<mgrwt>
<rscale>  0 0.29021111E+04</rscale>
<asrwt>0</asrwt>
<pdfrwt beam="1">  1        2 0.36180547E+00 0.29021111E+04</pdfrwt>
<pdfrwt beam="2">  1       -2 0.13774196E+00 0.29021111E+04</pdfrwt>
<totfact> 0.13693883E+00</totfact>
</mgrwt>
</event>
<event>
 4    1  0.2048914E-008  0.3380908E+04  0.7816531E-02  0.8142608E-01
          2   -1    0    0  501    0  0.00000000000E+00  0.00000000000E+00  0.22439452944E+04  0.22439452944E+04  0.00000000000E+00 0.  1.
         -2   -1    0    0    0  501 -0.00000000000E+00 -0.00000000000E+00 -0.12734864646E+04  0.12734864646E+04  0.00000000000E+00 0. -1.
    2000013    1    1    2    0    0  0.12162937215E+04  0.32510074909E+03  0.11181308972E+04  0.19333332919E+04  0.95000000000E+03 0.  0.
   -2000013    1    1    2    0    0 -0.12162937215E+04 -0.32510074909E+03 -0.14767206746E+03  0.15840984671E+04  0.95000000000E+03 0.  0.
<mgrwt>
<rscale>  0 0.33809075E+04</rscale>
<asrwt>0</asrwt>
<pdfrwt beam="1">  1        2 0.34522235E+00 0.33809075E+04</pdfrwt>
<pdfrwt beam="2">  1       -2 0.19592100E+00 0.33809075E+04</pdfrwt>
<totfact> 0.57268139E-01</totfact>
</mgrwt>
</event>
<event>
 4    1  0.2048914E-008  0.2662022E+04  0.7816531E-02  0.8347434E-01
         -2   -1    0    0    0  501 -0.00000000000E+00  0.00000000000E+00  0.17929557458E+04  0.17929557458E+04  0.00000000000E+00 0. -1.
          2   -1    0    0  501    0  0.00000000000E+00 -0.00000000000E+00 -0.98808352550E+03  0.98808352550E+03  0.00000000000E+00 0.  1.
    2000013    1    1    2    0    0  0.29524173159E+03 -0.87430340217E+03  0.54070100552E+03  0.14305354580E+04  0.95000000000E+03 0.  0.
   -2000013    1    1    2    0    0 -0.29524173159E+03  0.87430340217E+03  0.26417121477E+03  0.13505038133E+04  0.95000000000E+03 0.  0.
<mgrwt>
<rscale>  0 0.26620218E+04</rscale>
<asrwt>0</asrwt>
<pdfrwt beam="2">  1        2 0.15201285E+00 0.26620218E+04</pdfrwt>
<pdfrwt beam="1">  1       -2 0.27583934E+00 0.26620218E+04</pdfrwt>
<totfact> 0.10073434E+00</totfact>
</mgrwt>
</event>
<event>
 4    1  0.2048914E-008  0.3321645E+04  0.7816531E-02  0.8157410E-01
         -3   -1    0    0    0  501 -0.00000000000E+00  0.00000000000E+00  0.18396913155E+04  0.18396913155E+04  0.00000000000E+00 0. -1.
          3   -1    0    0  501    0  0.00000000000E+00 -0.00000000000E+00 -0.14993448158E+04  0.14993448158E+04  0.00000000000E+00 0.  1.
    2000013    1    1    2    0    0 -0.70185140188E+03 -0.83620703310E+03 -0.64895136071E+03  0.15860250506E+04  0.95000000000E+03 0.  0.
   -2000013    1    1    2    0    0  0.70185140188E+03  0.83620703310E+03  0.98929786043E+03  0.17530110807E+04  0.95000000000E+03 0.  0.
<mgrwt>
<rscale>  0 0.33216452E+04</rscale>
<asrwt>0</asrwt>
<pdfrwt beam="2">  1        3 0.23066843E+00 0.33216452E+04</pdfrwt>
<pdfrwt beam="1">  1       -3 0.28302943E+00 0.33216452E+04</pdfrwt>
<totfact> 0.97770824E-03</totfact>
</mgrwt>
</event>
<event>
 4    1  0.2048914E-008  0.2580075E+04  0.7816531E-02  0.8375001E-01
          2   -1    0    0  501    0  0.00000000000E+00  0.00000000000E+00  0.41156565224E+04  0.41156565224E+04  0.00000000000E+00 0.  1.
         -2   -1    0    0    0  501 -0.00000000000E+00 -0.00000000000E+00 -0.40435766470E+03  0.40435766470E+03  0.00000000000E+00 0. -1.
    2000013    1    1    2    0    0  0.38046642364E+03  0.78018657176E+03  0.20147871611E+04  0.23906721002E+04  0.95000000000E+03 0.  0.
   -2000013    1    1    2    0    0 -0.38046642364E+03 -0.78018657176E+03  0.16965116967E+04  0.21293420869E+04  0.95000000000E+03 0.  0.
<mgrwt>
<rscale>  0 0.25800754E+04</rscale>
<asrwt>0</asrwt>
<pdfrwt beam="1">  1        2 0.63317790E+00 0.25800754E+04</pdfrwt>
<pdfrwt beam="2">  1       -2 0.62208874E-01 0.25800754E+04</pdfrwt>
<totfact> 0.58522723E-01</totfact>
</mgrwt>
</event>
<event>
 4    1  0.2048914E-008  0.3493204E+04  0.7816531E-02  0.8115402E-01
         -2   -1    0    0    0  501 -0.00000000000E+00  0.00000000000E+00  0.81824882522E+03  0.81824882522E+03  0.00000000000E+00 0. -1.
          2   -1    0    0  501    0  0.00000000000E+00 -0.00000000000E+00 -0.37282292500E+04  0.37282292500E+04  0.00000000000E+00 0.  1.
    2000013    1    1    2    0    0 -0.90508532520E+03 -0.96198509047E+03 -0.22817627248E+04  0.28024160813E+04  0.95000000000E+03 0.  0.
   -2000013    1    1    2    0    0  0.90508532520E+03  0.96198509047E+03 -0.62821769994E+03  0.17440619939E+04  0.95000000000E+03 0.  0.
<mgrwt>
<rscale>  0 0.34932044E+04</rscale>
<asrwt>0</asrwt>
<pdfrwt beam="2">  1        2 0.57357372E+00 0.34932044E+04</pdfrwt>
<pdfrwt beam="1">  1       -2 0.12588444E+00 0.34932044E+04</pdfrwt>
<totfact> 0.21496859E-01</totfact>
</mgrwt>
</event>
<event>
 4    1  0.2048914E-008  0.3261459E+04  0.7816531E-02  0.8172772E-01
          2   -1    0    0  501    0  0.00000000000E+00  0.00000000000E+00  0.21639080705E+04  0.21639080705E+04  0.00000000000E+00 0. -1.
         -2   -1    0    0    0  501 -0.00000000000E+00 -0.00000000000E+00 -0.12289244411E+04  0.12289244411E+04  0.00000000000E+00 0.  1.
    2000013    1    1    2    0    0 -0.15237060074E+03 -0.78759892297E+03  0.15650989218E+04  0.19988905669E+04  0.95000000000E+03 0.  0.
   -2000013    1    1    2    0    0  0.15237060074E+03  0.78759892297E+03 -0.63011529241E+03  0.13939419447E+04  0.95000000000E+03 0.  0.
<mgrwt>
<rscale>  0 0.32614595E+04</rscale>
<asrwt>0</asrwt>
<pdfrwt beam="1">  1        2 0.33290893E+00 0.32614595E+04</pdfrwt>
<pdfrwt beam="2">  1       -2 0.18906530E+00 0.32614595E+04</pdfrwt>
<totfact> 0.71293380E-01</totfact>
</mgrwt>
</event>
<event>
 4    1  0.2048914E-008  0.4382249E+04  0.7816531E-02  0.7931582E-01
         -2   -1    0    0    0  501 -0.00000000000E+00  0.00000000000E+00  0.23549235917E+04  0.23549235917E+04  0.00000000000E+00 0. -1.
          2   -1    0    0  501    0  0.00000000000E+00 -0.00000000000E+00 -0.20387185859E+04  0.20387185859E+04  0.00000000000E+00 0.  1.
    2000013    1    1    2    0    0 -0.11296977143E+04  0.70654999015E+03 -0.13027707018E+04  0.20916838470E+04  0.95000000000E+03 0.  0.
   -2000013    1    1    2    0    0  0.11296977143E+04 -0.70654999015E+03  0.16189757076E+04  0.23019583306E+04  0.95000000000E+03 0.  0.
<mgrwt>
<rscale>  0 0.43822490E+04</rscale>
<asrwt>0</asrwt>
<pdfrwt beam="2">  1        2 0.31364901E+00 0.43822490E+04</pdfrwt>
<pdfrwt beam="1">  1       -2 0.36229594E+00 0.43822490E+04</pdfrwt>
<totfact> 0.63227711E-02</totfact>
</mgrwt>
</event>
<event>
 4    1  0.2048914E-008  0.3515775E+04  0.7816531E-02  0.8110062E-01
          1   -1    0    0  501    0  0.00000000000E+00  0.00000000000E+00  0.14340095068E+04  0.14340095068E+04  0.00000000000E+00 0.  1.
         -1   -1    0    0    0  501 -0.00000000000E+00 -0.00000000000E+00 -0.21549144364E+04  0.21549144364E+04  0.00000000000E+00 0. -1.
    2000013    1    1    2    0    0 -0.10421486084E+04  0.31776139915E+03  0.66067086796E+03  0.15893495602E+04  0.95000000000E+03 0.  0.
   -2000013    1    1    2    0    0  0.10421486084E+04 -0.31776139915E+03 -0.13815757975E+04  0.19995743830E+04  0.95000000000E+03 0.  0.
<mgrwt>
<rscale>  0 0.35157746E+04</rscale>
<asrwt>0</asrwt>
<pdfrwt beam="1">  1        1 0.22061685E+00 0.35157746E+04</pdfrwt>
<pdfrwt beam="2">  1       -1 0.33152530E+00 0.35157746E+04</pdfrwt>
<totfact> 0.12185249E-01</totfact>
</mgrwt>
</event>
<event>
 4    1  0.2048914E-008  0.2129082E+04  0.7816531E-02  0.8548539E-01
          2   -1    0    0  501    0  0.00000000000E+00  0.00000000000E+00  0.12616889118E+04  0.12616889118E+04  0.00000000000E+00 0. -1.
         -2   -1    0    0    0  501 -0.00000000000E+00 -0.00000000000E+00 -0.89819927202E+03  0.89819927202E+03  0.00000000000E+00 0.  1.
    2000013    1    1    2    0    0  0.57590480622E+02 -0.41894799367E+03 -0.49398279008E+02  0.10410447996E+04  0.95000000000E+03 0.  0.
   -2000013    1    1    2    0    0 -0.57590480622E+02  0.41894799367E+03  0.41288791878E+03  0.11188433842E+04  0.95000000000E+03 0.  0.
<mgrwt>
<rscale>  0 0.21290825E+04</rscale>
<asrwt>0</asrwt>
<pdfrwt beam="1">  1        2 0.19410599E+00 0.21290825E+04</pdfrwt>
<pdfrwt beam="2">  1       -2 0.13818450E+00 0.21290825E+04</pdfrwt>
<totfact> 0.59474746E+00</totfact>
</mgrwt>
</event>
<event>
 4    1  0.2048914E-008  0.2954788E+04  0.7816531E-02  0.8256760E-01
         -1   -1    0    0    0  501 -0.00000000000E+00  0.00000000000E+00  0.17122872992E+04  0.17122872992E+04  0.00000000000E+00 0. -1.
          1   -1    0    0  501    0  0.00000000000E+00 -0.00000000000E+00 -0.12747239050E+04  0.12747239050E+04  0.00000000000E+00 0.  1.
    2000013    1    1    2    0    0 -0.90941636743E+03 -0.25993297949E+03  0.84651259523E+03  0.15854610866E+04  0.95000000000E+03 0.  0.
   -2000013    1    1    2    0    0  0.90941636743E+03  0.25993297949E+03 -0.40894920096E+03  0.14015501176E+04  0.95000000000E+03 0.  0.
<mgrwt>
<rscale>  0 0.29547884E+04</rscale>
<asrwt>0</asrwt>
<pdfrwt beam="2">  1        1 0.19611137E+00 0.29547884E+04</pdfrwt>
<pdfrwt beam="1">  1       -1 0.26342882E+00 0.29547884E+04</pdfrwt>
<totfact> 0.45927932E-01</totfact>
</mgrwt>
</event>
<event>
 4    1  0.2048914E-008  0.2761332E+04  0.7816531E-02  0.8315375E-01
         -2   -1    0    0    0  501 -0.00000000000E+00  0.00000000000E+00  0.66808012966E+03  0.66808012966E+03  0.00000000000E+00 0. -1.
          2   -1    0    0  501    0  0.00000000000E+00 -0.00000000000E+00 -0.28533088998E+04  0.28533088998E+04  0.00000000000E+00 0.  1.
    2000013    1    1    2    0    0 -0.31527786350E+03 -0.39189555546E+03  0.12341534751E+02  0.10750044517E+04  0.95000000000E+03 0.  0.
   -2000013    1    1    2    0    0  0.31527786350E+03  0.39189555546E+03 -0.21975703049E+04  0.24463845778E+04  0.95000000000E+03 0.  0.
<mgrwt>
<rscale>  0 0.27613323E+04</rscale>
<asrwt>0</asrwt>
<pdfrwt beam="2">  1        2 0.43897059E+00 0.27613323E+04</pdfrwt>
<pdfrwt beam="1">  1       -2 0.10278156E+00 0.27613323E+04</pdfrwt>
<totfact> 0.14488439E+00</totfact>
</mgrwt>
</event>
<event>
 4    1  0.2048914E-008  0.2012229E+04  0.7816531E-02  0.8600925E-01
         -2   -1    0    0    0  501 -0.00000000000E+00  0.00000000000E+00  0.47076890064E+03  0.47076890064E+03  0.00000000000E+00 0. -1.
          2   -1    0    0  501    0  0.00000000000E+00 -0.00000000000E+00 -0.21502396411E+04  0.21502396411E+04  0.00000000000E+00 0.  1.
    2000013    1    1    2    0    0  0.30413450539E+03 -0.23291016014E+02 -0.10081900416E+04  0.14184454268E+04  0.95000000000E+03 0.  0.
   -2000013    1    1    2    0    0 -0.30413450539E+03  0.23291016014E+02 -0.67128069886E+03  0.12025631150E+04  0.95000000000E+03 0.  0.
<mgrwt>
<rscale>  0 0.20122286E+04</rscale>
<asrwt>0</asrwt>
<pdfrwt beam="2">  1        2 0.33080610E+00 0.20122286E+04</pdfrwt>
<pdfrwt beam="1">  1       -2 0.72425984E-01 0.20122286E+04</pdfrwt>
<totfact> 0.88170985E+00</totfact>
</mgrwt>
</event>
<event>
 4    1  0.2048914E-008  0.2628431E+04  0.7816531E-02  0.8358607E-01
         -2   -1    0    0    0  501 -0.00000000000E+00  0.00000000000E+00  0.17616590284E+04  0.17616590284E+04  0.00000000000E+00 0. -1.
          2   -1    0    0  501    0  0.00000000000E+00 -0.00000000000E+00 -0.98041808895E+03  0.98041808895E+03  0.00000000000E+00 0.  1.
    2000013    1    1    2    0    0 -0.79353987685E+03  0.37882400878E+03  0.15398902849E+03  0.13036202617E+04  0.95000000000E+03 0.  0.
   -2000013    1    1    2    0    0  0.79353987685E+03 -0.37882400878E+03  0.62725191093E+03  0.14384568556E+04  0.95000000000E+03 0.  0.
<mgrwt>
<rscale>  0 0.26284310E+04</rscale>
<asrwt>0</asrwt>
<pdfrwt beam="2">  1        2 0.15083355E+00 0.26284310E+04</pdfrwt>
<pdfrwt beam="1">  1       -2 0.27102447E+00 0.26284310E+04</pdfrwt>
<totfact> 0.10933044E+00</totfact>
</mgrwt>
</event>
<event>
 4    1  0.2048914E-008  0.2684320E+04  0.7816531E-02  0.8340111E-01
         -1   -1    0    0    0  501 -0.00000000000E+00  0.00000000000E+00  0.20116763057E+04  0.20116763057E+04  0.00000000000E+00 0.  1.
          1   -1    0    0  501    0  0.00000000000E+00 -0.00000000000E+00 -0.89546886764E+03  0.89546886764E+03  0.00000000000E+00 0. -1.
    2000013    1    1    2    0    0  0.74815577612E+03  0.51338015449E+03  0.85587680476E+03  0.15679034898E+04  0.95000000000E+03 0.  0.
   -2000013    1    1    2    0    0 -0.74815577612E+03 -0.51338015449E+03  0.26033063330E+03  0.13392416836E+04  0.95000000000E+03 0.  0.
<mgrwt>
<rscale>  0 0.26843200E+04</rscale>
<asrwt>0</asrwt>
<pdfrwt beam="2">  1        1 0.13776444E+00 0.26843200E+04</pdfrwt>
<pdfrwt beam="1">  1       -1 0.30948866E+00 0.26843200E+04</pdfrwt>
<totfact> 0.45982166E-01</totfact>
</mgrwt>
</event>
<event>
 4    1  0.2048914E-008  0.3265787E+04  0.7816531E-02  0.8171656E-01
          2   -1    0    0  501    0  0.00000000000E+00  0.00000000000E+00  0.10703265668E+04  0.10703265668E+04  0.00000000000E+00 0.  1.
         -2   -1    0    0    0  501 -0.00000000000E+00 -0.00000000000E+00 -0.24911465852E+04  0.24911465852E+04  0.00000000000E+00 0. -1.
    2000013    1    1    2    0    0  0.11797530141E+04 -0.58538486012E+03 -0.52358741931E+03  0.17062052615E+04  0.95000000000E+03 0.  0.
   -2000013    1    1    2    0    0 -0.11797530141E+04  0.58538486012E+03 -0.89723259905E+03  0.18552678905E+04  0.95000000000E+03 0.  0.
<mgrwt>
<rscale>  0 0.32657865E+04</rscale>
<asrwt>0</asrwt>
<pdfrwt beam="1">  1        2 0.16466563E+00 0.32657865E+04</pdfrwt>
<pdfrwt beam="2">  1       -2 0.38325331E+00 0.32657865E+04</pdfrwt>
<totfact> 0.18147222E-01</totfact>
</mgrwt>
</event>
<event>
 4    1  0.2048914E-008  0.2641479E+04  0.7816531E-02  0.8354247E-01
          2   -1    0    0  501    0  0.00000000000E+00  0.00000000000E+00  0.38596924493E+04  0.38596924493E+04  0.00000000000E+00 0.  1.
         -2   -1    0    0    0  501 -0.00000000000E+00 -0.00000000000E+00 -0.45194093223E+03  0.45194093223E+03  0.00000000000E+00 0. -1.
    2000013    1    1    2    0    0 -0.76734793570E+03  0.20941216628E+03  0.95733884217E+03  0.15657822226E+04  0.95000000000E+03 0.  0.
   -2000013    1    1    2    0    0  0.76734793570E+03 -0.20941216628E+03  0.24504126749E+04  0.27458511590E+04  0.95000000000E+03 0.  0.
<mgrwt>
<rscale>  0 0.26414791E+04</rscale>
<asrwt>0</asrwt>
<pdfrwt beam="1">  1        2 0.59379882E+00 0.26414791E+04</pdfrwt>
<pdfrwt beam="2">  1       -2 0.69529377E-01 0.26414791E+04</pdfrwt>
<totfact> 0.73603572E-01</totfact>
</mgrwt>
</event>
<event>
 4    1  0.2048914E-008  0.2775211E+04  0.7816531E-02  0.8311006E-01
         -2   -1    0    0    0  501 -0.00000000000E+00  0.00000000000E+00  0.47841818836E+03  0.47841818836E+03  0.00000000000E+00 0. -1.
          2   -1    0    0  501    0  0.00000000000E+00 -0.00000000000E+00 -0.40246136375E+04  0.40246136375E+04  0.00000000000E+00 0.  1.
    2000013    1    1    2    0    0 -0.67247375710E+03 -0.62840963122E+03 -0.24534816157E+04  0.27873269735E+04  0.95000000000E+03 0.  0.
   -2000013    1    1    2    0    0  0.67247375710E+03  0.62840963122E+03 -0.10927138334E+04  0.17157048523E+04  0.95000000000E+03 0.  0.
<mgrwt>
<rscale>  0 0.27752105E+04</rscale>
<asrwt>0</asrwt>
<pdfrwt beam="2">  1        2 0.61917134E+00 0.27752105E+04</pdfrwt>
<pdfrwt beam="1">  1       -2 0.73602796E-01 0.27752105E+04</pdfrwt>
<totfact> 0.47466269E-01</totfact>
</mgrwt>
</event>
<event>
 4    1  0.2048914E-008  0.2446893E+04  0.7816531E-02  0.8422153E-01
         -2   -1    0    0    0  501 -0.00000000000E+00  0.00000000000E+00  0.74426516863E+03  0.74426516863E+03  0.00000000000E+00 0. -1.
          2   -1    0    0  501    0  0.00000000000E+00 -0.00000000000E+00 -0.20111404895E+04  0.20111404895E+04  0.00000000000E+00 0.  1.
    2000013    1    1    2    0    0 -0.64178987897E+03 -0.26459594942E+03 -0.25587796659E+03  0.12041091308E+04  0.95000000000E+03 0.  0.
   -2000013    1    1    2    0    0  0.64178987897E+03  0.26459594942E+03 -0.10109973543E+04  0.15512965273E+04  0.95000000000E+03 0.  0.
<mgrwt>
<rscale>  0 0.24468934E+04</rscale>
<asrwt>0</asrwt>
<pdfrwt beam="2">  1        2 0.30940623E+00 0.24468934E+04</pdfrwt>
<pdfrwt beam="1">  1       -2 0.11450233E+00 0.24468934E+04</pdfrwt>
<totfact> 0.35159220E+00</totfact>
</mgrwt>
</event>
<event>
 4    1  0.2048914E-008  0.3083567E+04  0.7816531E-02  0.8220262E-01
         -2   -1    0    0    0  501 -0.00000000000E+00  0.00000000000E+00  0.85863517841E+03  0.85863517841E+03  0.00000000000E+00 0. -1.
          2   -1    0    0  501    0  0.00000000000E+00 -0.00000000000E+00 -0.27684597431E+04  0.27684597431E+04  0.00000000000E+00 0.  1.
    2000013    1    1    2    0    0  0.19516433216E+03  0.11713056554E+04 -0.65606003050E+03  0.16561886422E+04  0.95000000000E+03 0.  0.
   -2000013    1    1    2    0    0 -0.19516433216E+03 -0.11713056554E+04 -0.12537645342E+04  0.19709062794E+04  0.95000000000E+03 0.  0.
<mgrwt>
<rscale>  0 0.30835674E+04</rscale>
<asrwt>0</asrwt>
<pdfrwt beam="2">  1        2 0.42591689E+00 0.30835674E+04</pdfrwt>
<pdfrwt beam="1">  1       -2 0.13209772E+00 0.30835674E+04</pdfrwt>
<totfact> 0.85618586E-01</totfact>
</mgrwt>
</event>
<event>
 4    1  0.2048914E-008  0.3676459E+04  0.7816531E-02  0.8073199E-01
          1   -1    0    0  501    0  0.00000000000E+00  0.00000000000E+00  0.31615488703E+04  0.31615488703E+04  0.00000000000E+00 0.  1.
         -1   -1    0    0    0  501 -0.00000000000E+00 -0.00000000000E+00 -0.10688073978E+04  0.10688073978E+04  0.00000000000E+00 0. -1.
    2000013    1    1    2    0    0 -0.70973669283E+03 -0.14005727551E+04  0.11684525569E+04  0.21755715555E+04  0.95000000000E+03 0.  0.
   -2000013    1    1    2    0    0  0.70973669283E+03  0.14005727551E+04  0.92428891553E+03  0.20547847125E+04  0.95000000000E+03 0.  0.
<mgrwt>
<rscale>  0 0.36764585E+04</rscale>
<asrwt>0</asrwt>
<pdfrwt beam="1">  1        1 0.48639213E+00 0.36764585E+04</pdfrwt>
<pdfrwt beam="2">  1       -1 0.16443191E+00 0.36764585E+04</pdfrwt>
<totfact> 0.98720285E-02</totfact>
</mgrwt>
</event>
<event>
 4    1  0.2048914E-008  0.2008787E+04  0.7816531E-02  0.8602524E-01
          1   -1    0    0  501    0  0.00000000000E+00  0.00000000000E+00  0.14782311267E+04  0.14782311267E+04  0.00000000000E+00 0.  1.
         -1   -1    0    0    0  501 -0.00000000000E+00 -0.00000000000E+00 -0.68244123384E+03  0.68244123384E+03  0.00000000000E+00 0. -1.
    2000013    1    1    2    0    0 -0.73344372822E+01 -0.26189529765E+03  0.60663807546E+03  0.11572176526E+04  0.95000000000E+03 0.  0.
   -2000013    1    1    2    0    0  0.73344372822E+01  0.26189529765E+03  0.18915181742E+03  0.10034547080E+04  0.95000000000E+03 0.  0.
<mgrwt>
<rscale>  0 0.20087866E+04</rscale>
<asrwt>0</asrwt>
<pdfrwt beam="1">  1        1 0.22742017E+00 0.20087866E+04</pdfrwt>
<pdfrwt beam="2">  1       -1 0.10499096E+00 0.20087866E+04</pdfrwt>
<totfact> 0.53463891E+00</totfact>
</mgrwt>
</event>
<event>
 4    1  0.2048914E-008  0.2403671E+04  0.7816531E-02  0.8438130E-01
          2   -1    0    0  501    0  0.00000000000E+00  0.00000000000E+00  0.23192577698E+04  0.23192577698E+04  0.00000000000E+00 0.  1.
         -2   -1    0    0    0  501 -0.00000000000E+00 -0.00000000000E+00 -0.62278918471E+03  0.62278918471E+03  0.00000000000E+00 0. -1.
    2000013    1    1    2    0    0 -0.26697573614E+03  0.53718638785E+03  0.13704932329E+04  0.17721729488E+04  0.95000000000E+03 0.  0.
   -2000013    1    1    2    0    0  0.26697573614E+03 -0.53718638785E+03  0.32597535216E+03  0.11698740057E+04  0.95000000000E+03 0.  0.
<mgrwt>
<rscale>  0 0.24036711E+04</rscale>
<asrwt>0</asrwt>
<pdfrwt beam="1">  1        2 0.35680888E+00 0.24036711E+04</pdfrwt>
<pdfrwt beam="2">  1       -2 0.95813722E-01 0.24036711E+04</pdfrwt>
<totfact> 0.36301374E+00</totfact>
</mgrwt>
</event>
<event>
 4    1  0.2048914E-008  0.2117422E+04  0.7816531E-02  0.8553607E-01
         -1   -1    0    0    0  501 -0.00000000000E+00  0.00000000000E+00  0.84780479290E+03  0.84780479290E+03  0.00000000000E+00 0. -1.
          1   -1    0    0  501    0  0.00000000000E+00 -0.00000000000E+00 -0.13220843517E+04  0.13220843517E+04  0.00000000000E+00 0.  1.
    2000013    1    1    2    0    0 -0.43219595482E+03  0.13958265085E+03 -0.34983183339E+03  0.11095760323E+04  0.95000000000E+03 0.  0.
   -2000013    1    1    2    0    0  0.43219595482E+03 -0.13958265085E+03 -0.12444772542E+03  0.10603131123E+04  0.95000000000E+03 0.  0.
<mgrwt>
<rscale>  0 0.21174224E+04</rscale>
<asrwt>0</asrwt>
<pdfrwt beam="2">  1        1 0.20339759E+00 0.21174224E+04</pdfrwt>
<pdfrwt beam="1">  1       -1 0.13043151E+00 0.21174224E+04</pdfrwt>
<totfact> 0.40286792E+00</totfact>
</mgrwt>
</event>
<event>
 4    1  0.2048914E-008  0.2044618E+04  0.7816531E-02  0.8586040E-01
         -2   -1    0    0    0  501 -0.00000000000E+00  0.00000000000E+00  0.36321819429E+03  0.36321819429E+03  0.00000000000E+00 0. -1.
          2   -1    0    0  501    0  0.00000000000E+00 -0.00000000000E+00 -0.28773784110E+04  0.28773784110E+04  0.00000000000E+00 0.  1.
    2000013    1    1    2    0    0 -0.20475737493E+03  0.11039531668E+03 -0.78556797988E+03  0.12544838618E+04  0.95000000000E+03 0.  0.
   -2000013    1    1    2    0    0  0.20475737493E+03 -0.11039531668E+03 -0.17285922368E+04  0.19861127435E+04  0.95000000000E+03 0.  0.
<mgrwt>
<rscale>  0 0.20446185E+04</rscale>
<asrwt>0</asrwt>
<pdfrwt beam="2">  1        2 0.44267359E+00 0.20446185E+04</pdfrwt>
<pdfrwt beam="1">  1       -2 0.55879723E-01 0.20446185E+04</pdfrwt>
<totfact> 0.57851659E+00</totfact>
</mgrwt>
</event>
<event>
 4    1  0.2048914E-008  0.2234487E+04  0.7816531E-02  0.8504209E-01
         -2   -1    0    0    0  501 -0.00000000000E+00  0.00000000000E+00  0.38611765113E+03  0.38611765113E+03  0.00000000000E+00 0.  1.
          2   -1    0    0  501    0  0.00000000000E+00 -0.00000000000E+00 -0.32327804303E+04  0.32327804303E+04  0.00000000000E+00 0. -1.
    2000013    1    1    2    0    0 -0.35064022989E+03  0.31920814845E+03 -0.86021817209E+03  0.13664983412E+04  0.95000000000E+03 0.  0.
   -2000013    1    1    2    0    0  0.35064022989E+03 -0.31920814845E+03 -0.19864446071E+04  0.22523997402E+04  0.95000000000E+03 0.  0.
<mgrwt>
<rscale>  0 0.22344875E+04</rscale>
<asrwt>0</asrwt>
<pdfrwt beam="2">  1        2 0.49735083E+00 0.22344875E+04</pdfrwt>
<pdfrwt beam="1">  1       -2 0.59402717E-01 0.22344875E+04</pdfrwt>
<totfact> 0.29814321E+00</totfact>
</mgrwt>
</event>
<event>
 4    1  0.2048914E-008  0.2694185E+04  0.7816531E-02  0.8336894E-01
         -1   -1    0    0    0  501 -0.00000000000E+00  0.00000000000E+00  0.84937466321E+03  0.84937466321E+03  0.00000000000E+00 0. -1.
          1   -1    0    0  501    0  0.00000000000E+00 -0.00000000000E+00 -0.21364630437E+04  0.21364630437E+04  0.00000000000E+00 0.  1.
    2000013    1    1    2    0    0 -0.50238690415E+03 -0.29554136824E+03  0.19494286792E+03  0.11314769214E+04  0.95000000000E+03 0.  0.
   -2000013    1    1    2    0    0  0.50238690415E+03  0.29554136824E+03 -0.14820312484E+04  0.18543607856E+04  0.95000000000E+03 0.  0.
<mgrwt>
<rscale>  0 0.26941845E+04</rscale>
<asrwt>0</asrwt>
<pdfrwt beam="2">  1        1 0.32868662E+00 0.26941845E+04</pdfrwt>
<pdfrwt beam="1">  1       -1 0.13067303E+00 0.26941845E+04</pdfrwt>
<totfact> 0.10522747E+00</totfact>
</mgrwt>
</event>
<event>
 4    1  0.2048914E-008  0.3147592E+04  0.7816531E-02  0.8202797E-01
         -2   -1    0    0    0  501 -0.00000000000E+00  0.00000000000E+00  0.11602455704E+04  0.11602455704E+04  0.00000000000E+00 0. -1.
          2   -1    0    0  501    0  0.00000000000E+00 -0.00000000000E+00 -0.21347494934E+04  0.21347494934E+04  0.00000000000E+00 0.  1.
    2000013    1    1    2    0    0  0.11622618615E+04 -0.33845917373E+03 -0.83274788079E+03  0.17496789077E+04  0.95000000000E+03 0.  0.
   -2000013    1    1    2    0    0 -0.11622618615E+04  0.33845917373E+03 -0.14175604212E+03  0.15453161561E+04  0.95000000000E+03 0.  0.
<mgrwt>
<rscale>  0 0.31475919E+04</rscale>
<asrwt>0</asrwt>
<pdfrwt beam="2">  1        2 0.32842300E+00 0.31475919E+04</pdfrwt>
<pdfrwt beam="1">  1       -2 0.17849932E+00 0.31475919E+04</pdfrwt>
<totfact> 0.88250211E-01</totfact>
</mgrwt>
</event>
<event>
 4    1  0.2048914E-008  0.2161139E+04  0.7816531E-02  0.8534779E-01
         -2   -1    0    0    0  501 -0.00000000000E+00  0.00000000000E+00  0.78685806265E+03  0.78685806265E+03  0.00000000000E+00 0. -1.
          2   -1    0    0  501    0  0.00000000000E+00 -0.00000000000E+00 -0.14839149621E+04  0.14839149621E+04  0.00000000000E+00 0.  1.
    2000013    1    1    2    0    0  0.32758655005E+03  0.35859341530E+03 -0.16889278842E+03  0.10802439351E+04  0.95000000000E+03 0.  0.
   -2000013    1    1    2    0    0 -0.32758655005E+03 -0.35859341530E+03 -0.52816411107E+03  0.11905290897E+04  0.95000000000E+03 0.  0.
<mgrwt>
<rscale>  0 0.21611390E+04</rscale>
<asrwt>0</asrwt>
<pdfrwt beam="2">  1        2 0.22829461E+00 0.21611390E+04</pdfrwt>
<pdfrwt beam="1">  1       -2 0.12105509E+00 0.21611390E+04</pdfrwt>
<totfact> 0.61765181E+00</totfact>
</mgrwt>
</event>
<event>
 4    1  0.2048914E-008  0.3214802E+04  0.7816531E-02  0.8184919E-01
          2   -1    0    0  501    0  0.00000000000E+00  0.00000000000E+00  0.37387997421E+04  0.37387997421E+04  0.00000000000E+00 0.  1.
         -2   -1    0    0    0  501 -0.00000000000E+00 -0.00000000000E+00 -0.69106084936E+03  0.69106084936E+03  0.00000000000E+00 0. -1.
    2000013    1    1    2    0    0 -0.11507888629E+04 -0.52350067880E+03  0.11271943833E+04  0.19420183175E+04  0.95000000000E+03 0.  0.
   -2000013    1    1    2    0    0  0.11507888629E+04  0.52350067880E+03  0.19205445094E+04  0.24878422740E+04  0.95000000000E+03 0.  0.
<mgrwt>
<rscale>  0 0.32148021E+04</rscale>
<asrwt>0</asrwt>
<pdfrwt beam="1">  1        2 0.57519995E+00 0.32148021E+04</pdfrwt>
<pdfrwt beam="2">  1       -2 0.10631706E+00 0.32148021E+04</pdfrwt>
<totfact> 0.32719530E-01</totfact>
</mgrwt>
</event>
<event>
 4    1  0.2048914E-008  0.2250103E+04  0.7816531E-02  0.8497859E-01
         -2   -1    0    0    0  501 -0.00000000000E+00  0.00000000000E+00  0.74685177129E+03  0.74685177129E+03  0.00000000000E+00 0. -1.
          2   -1    0    0  501    0  0.00000000000E+00 -0.00000000000E+00 -0.16947687867E+04  0.16947687867E+04  0.00000000000E+00 0.  1.
    2000013    1    1    2    0    0 -0.57515687203E+03  0.13372163197E+02 -0.66884716839E+03  0.12964724358E+04  0.95000000000E+03 0.  0.
   -2000013    1    1    2    0    0  0.57515687203E+03 -0.13372163197E+02 -0.27906984704E+03  0.11451481222E+04  0.95000000000E+03 0.  0.
<mgrwt>
<rscale>  0 0.22501032E+04</rscale>
<asrwt>0</asrwt>
<pdfrwt beam="2">  1        2 0.26073366E+00 0.22501032E+04</pdfrwt>
<pdfrwt beam="1">  1       -2 0.11490027E+00 0.22501032E+04</pdfrwt>
<totfact> 0.53111687E+00</totfact>
</mgrwt>
</event>
<event>
 4    1  0.2048914E-008  0.2363383E+04  0.7816531E-02  0.8453341E-01
          2   -1    0    0  501    0  0.00000000000E+00  0.00000000000E+00  0.13249583681E+04  0.13249583681E+04  0.00000000000E+00 0.  1.
         -2   -1    0    0    0  501 -0.00000000000E+00 -0.00000000000E+00 -0.10539161453E+04  0.10539161453E+04  0.00000000000E+00 0. -1.
    2000013    1    1    2    0    0 -0.24650007306E+03  0.62354810345E+03  0.34742536885E+03  0.12135810275E+04  0.95000000000E+03 0.  0.
   -2000013    1    1    2    0    0  0.24650007306E+03 -0.62354810345E+03 -0.76383146086E+02  0.11652934859E+04  0.95000000000E+03 0.  0.
<mgrwt>
<rscale>  0 0.23633832E+04</rscale>
<asrwt>0</asrwt>
<pdfrwt beam="1">  1        2 0.20383975E+00 0.23633832E+04</pdfrwt>
<pdfrwt beam="2">  1       -2 0.16214095E+00 0.23633832E+04</pdfrwt>
<totfact> 0.35029893E+00</totfact>
</mgrwt>
</event>
<event>
 4    1  0.2048914E-008  0.5606657E+04  0.7816531E-02  0.7741181E-01
         -2   -1    0    0    0  501 -0.00000000000E+00  0.00000000000E+00  0.33373859890E+04  0.33373859890E+04  0.00000000000E+00 0. -1.
          2   -1    0    0  501    0  0.00000000000E+00 -0.00000000000E+00 -0.23547320362E+04  0.23547320362E+04  0.00000000000E+00 0.  1.
    2000013    1    1    2    0    0  0.18554728090E+04  0.55375990494E+03  0.23093546008E+04  0.31599126648E+04  0.95000000000E+03 0.  0.
   -2000013    1    1    2    0    0 -0.18554728090E+04 -0.55375990494E+03 -0.13267006480E+04  0.25322053603E+04  0.95000000000E+03 0.  0.
<mgrwt>
<rscale>  0 0.56066567E+04</rscale>
<asrwt>0</asrwt>
<pdfrwt beam="2">  1        2 0.36226647E+00 0.56066567E+04</pdfrwt>
<pdfrwt beam="1">  1       -2 0.51344400E+00 0.56066567E+04</pdfrwt>
<totfact> 0.40461773E-03</totfact>
</mgrwt>
</event>
<event>
 4    1  0.2048914E-008  0.2669545E+04  0.7816531E-02  0.8344955E-01
         -1   -1    0    0    0  501 -0.00000000000E+00  0.00000000000E+00  0.17126277157E+04  0.17126277157E+04  0.00000000000E+00 0.  1.
          1   -1    0    0  501    0  0.00000000000E+00 -0.00000000000E+00 -0.10402832861E+04  0.10402832861E+04  0.00000000000E+00 0. -1.
    2000013    1    1    2    0    0  0.65204973553E+02 -0.91951767238E+03  0.15949310849E+03  0.13333051001E+04  0.95000000000E+03 0.  0.
   -2000013    1    1    2    0    0 -0.65204973553E+02  0.91951767238E+03  0.51285132106E+03  0.14196059016E+04  0.95000000000E+03 0.  0.
<mgrwt>
<rscale>  0 0.26695453E+04</rscale>
<asrwt>0</asrwt>
<pdfrwt beam="2">  1        1 0.16004358E+00 0.26695453E+04</pdfrwt>
<pdfrwt beam="1">  1       -1 0.26348119E+00 0.26695453E+04</pdfrwt>
<totfact> 0.70199578E-01</totfact>
</mgrwt>
</event>
<event>
 4    1  0.2048914E-008  0.3724072E+04  0.7816531E-02  0.8062648E-01
          2   -1    0    0  501    0  0.00000000000E+00  0.00000000000E+00  0.25541416842E+04  0.25541416842E+04  0.00000000000E+00 0.  1.
         -2   -1    0    0    0  501 -0.00000000000E+00 -0.00000000000E+00 -0.13574728980E+04  0.13574728980E+04  0.00000000000E+00 0. -1.
    2000013    1    1    2    0    0 -0.14531668197E+04  0.52054862942E+02 -0.10648315552E+03  0.17401845239E+04  0.95000000000E+03 0.  0.
   -2000013    1    1    2    0    0  0.14531668197E+04 -0.52054862942E+02  0.13031519418E+04  0.21714300583E+04  0.95000000000E+03 0.  0.
<mgrwt>
<rscale>  0 0.37240720E+04</rscale>
<asrwt>0</asrwt>
<pdfrwt beam="1">  1        2 0.39294487E+00 0.37240720E+04</pdfrwt>
<pdfrwt beam="2">  1       -2 0.20884198E+00 0.37240720E+04</pdfrwt>
<totfact> 0.30425243E-01</totfact>
</mgrwt>
</event>
<event>
 4    1  0.2048914E-008  0.2672760E+04  0.7816531E-02  0.8343898E-01
         -1   -1    0    0    0  501 -0.00000000000E+00  0.00000000000E+00  0.86175209732E+03  0.86175209732E+03  0.00000000000E+00 0.  1.
          1   -1    0    0  501    0  0.00000000000E+00 -0.00000000000E+00 -0.20724186453E+04  0.20724186453E+04  0.00000000000E+00 0. -1.
    2000013    1    1    2    0    0 -0.57313607558E+02  0.90421611213E+03 -0.87982747246E+03  0.15803442689E+04  0.95000000000E+03 0.  0.
   -2000013    1    1    2    0    0  0.57313607558E+02 -0.90421611213E+03 -0.33083907556E+03  0.13538264737E+04  0.95000000000E+03 0.  0.
<mgrwt>
<rscale>  0 0.26727597E+04</rscale>
<asrwt>0</asrwt>
<pdfrwt beam="2">  1        1 0.31883364E+00 0.26727597E+04</pdfrwt>
<pdfrwt beam="1">  1       -1 0.13257725E+00 0.26727597E+04</pdfrwt>
<totfact> 0.11234076E+00</totfact>
</mgrwt>
</event>
<event>
 4    1  0.2048914E-008  0.2106517E+04  0.7816531E-02  0.8558378E-01
          2   -1    0    0  501    0  0.00000000000E+00  0.00000000000E+00  0.43577119029E+04  0.43577119029E+04  0.00000000000E+00 0.  1.
         -2   -1    0    0    0  501 -0.00000000000E+00 -0.00000000000E+00 -0.25457246475E+03  0.25457246475E+03  0.00000000000E+00 0. -1.
    2000013    1    1    2    0    0 -0.35814540323E+03 -0.24942300505E+03  0.17713996108E+04  0.20568997415E+04  0.95000000000E+03 0.  0.
   -2000013    1    1    2    0    0  0.35814540323E+03  0.24942300505E+03  0.23317398273E+04  0.25553846262E+04  0.95000000000E+03 0.  0.
<mgrwt>
<rscale>  0 0.21065170E+04</rscale>
<asrwt>0</asrwt>
<pdfrwt beam="1">  1        2 0.67041716E+00 0.21065170E+04</pdfrwt>
<pdfrwt beam="2">  1       -2 0.39164998E-01 0.21065170E+04</pdfrwt>
<totfact> 0.96569909E-01</totfact>
</mgrwt>
</event>
<event>
 4    1  0.2048914E-008  0.3230295E+04  0.7816531E-02  0.8180862E-01
          2   -1    0    0  501    0  0.00000000000E+00  0.00000000000E+00  0.22372684985E+04  0.22372684985E+04  0.00000000000E+00 0.  1.
         -2   -1    0    0    0  501 -0.00000000000E+00 -0.00000000000E+00 -0.11660204617E+04  0.11660204617E+04  0.00000000000E+00 0. -1.
    2000013    1    1    2    0    0 -0.76548401240E+03 -0.62166451499E+03  0.14381010629E+04  0.19857157927E+04  0.95000000000E+03 0.  0.
   -2000013    1    1    2    0    0  0.76548401240E+03  0.62166451499E+03 -0.36685302614E+03  0.14175731675E+04  0.95000000000E+03 0.  0.
<mgrwt>
<rscale>  0 0.32302946E+04</rscale>
<asrwt>0</asrwt>
<pdfrwt beam="1">  1        2 0.34419515E+00 0.32302946E+04</pdfrwt>
<pdfrwt beam="2">  1       -2 0.17938776E+00 0.32302946E+04</pdfrwt>
<totfact> 0.75668628E-01</totfact>
</mgrwt>
</event>
<event>
 4    1  0.2048914E-008  0.2387944E+04  0.7816531E-02  0.8444031E-01
         -2   -1    0    0    0  501 -0.00000000000E+00  0.00000000000E+00  0.12038339877E+04  0.12038339877E+04  0.00000000000E+00 0. -1.
          2   -1    0    0  501    0  0.00000000000E+00 -0.00000000000E+00 -0.11841905360E+04  0.11841905360E+04  0.00000000000E+00 0.  1.
    2000013    1    1    2    0    0  0.18923781064E+03 -0.58054219863E+03  0.39742821125E+03  0.11972006417E+04  0.95000000000E+03 0.  0.
   -2000013    1    1    2    0    0 -0.18923781064E+03  0.58054219863E+03 -0.37778475961E+03  0.11908238820E+04  0.95000000000E+03 0.  0.
<mgrwt>
<rscale>  0 0.23879437E+04</rscale>
<asrwt>0</asrwt>
<pdfrwt beam="2">  1        2 0.18218316E+00 0.23879437E+04</pdfrwt>
<pdfrwt beam="1">  1       -2 0.18520523E+00 0.23879437E+04</pdfrwt>
<totfact> 0.29102217E+00</totfact>
</mgrwt>
</event>
<event>
 4    1  0.2048914E-008  0.2170364E+04  0.7816531E-02  0.8530866E-01
          1   -1    0    0  501    0  0.00000000000E+00  0.00000000000E+00  0.14001666623E+04  0.14001666623E+04  0.00000000000E+00 0.  1.
         -1   -1    0    0    0  501 -0.00000000000E+00 -0.00000000000E+00 -0.84105667410E+03  0.84105667410E+03  0.00000000000E+00 0. -1.
    2000013    1    1    2    0    0  0.28235442706E+03  0.67656853750E+02 -0.17153413668E+03  0.10080800724E+04  0.95000000000E+03 0.  0.
   -2000013    1    1    2    0    0 -0.28235442706E+03 -0.67656853750E+02  0.73064412490E+03  0.12331432640E+04  0.95000000000E+03 0.  0.
<mgrwt>
<rscale>  0 0.21703636E+04</rscale>
<asrwt>0</asrwt>
<pdfrwt beam="1">  1        1 0.21541026E+00 0.21703636E+04</pdfrwt>
<pdfrwt beam="2">  1       -1 0.12939333E+00 0.21703636E+04</pdfrwt>
<totfact> 0.36030615E+00</totfact>
</mgrwt>
</event>
<event>
 4    1  0.2048914E-008  0.2450799E+04  0.7816531E-02  0.8420726E-01
         -2   -1    0    0    0  501 -0.00000000000E+00  0.00000000000E+00  0.13698725384E+04  0.13698725384E+04  0.00000000000E+00 0. -1.
          2   -1    0    0  501    0  0.00000000000E+00 -0.00000000000E+00 -0.10961628956E+04  0.10961628956E+04  0.00000000000E+00 0.  1.
    2000013    1    1    2    0    0 -0.76985958795E+03 -0.28197917744E+02  0.61391621087E+02  0.12246419227E+04  0.95000000000E+03 0.  0.
   -2000013    1    1    2    0    0  0.76985958795E+03  0.28197917744E+02  0.21231802170E+03  0.12413935114E+04  0.95000000000E+03 0.  0.
<mgrwt>
<rscale>  0 0.24507986E+04</rscale>
<asrwt>0</asrwt>
<pdfrwt beam="2">  1        2 0.16864045E+00 0.24507986E+04</pdfrwt>
<pdfrwt beam="1">  1       -2 0.21074962E+00 0.24507986E+04</pdfrwt>
<totfact> 0.22211400E+00</totfact>
</mgrwt>
</event>
<event>
 4    1  0.2048914E-008  0.2280037E+04  0.7816531E-02  0.8485834E-01
          2   -1    0    0  501    0  0.00000000000E+00  0.00000000000E+00  0.17830770390E+04  0.17830770390E+04  0.00000000000E+00 0.  1.
         -2   -1    0    0    0  501 -0.00000000000E+00 -0.00000000000E+00 -0.72887576635E+03  0.72887576635E+03  0.00000000000E+00 0. -1.
    2000013    1    1    2    0    0 -0.62989551328E+03 -0.35502681690E+01  0.54802399631E+03  0.12647573928E+04  0.95000000000E+03 0.  0.
   -2000013    1    1    2    0    0  0.62989551328E+03  0.35502681690E+01  0.50617727634E+03  0.12471954126E+04  0.95000000000E+03 0.  0.
<mgrwt>
<rscale>  0 0.22800365E+04</rscale>
<asrwt>0</asrwt>
<pdfrwt beam="1">  1        2 0.27431954E+00 0.22800365E+04</pdfrwt>
<pdfrwt beam="2">  1       -2 0.11213473E+00 0.22800365E+04</pdfrwt>
<totfact> 0.50212303E+00</totfact>
</mgrwt>
</event>
<event>
 4    1  0.2048914E-008  0.2774960E+04  0.7816531E-02  0.8311085E-01
          2   -1    0    0  501    0  0.00000000000E+00  0.00000000000E+00  0.30788623326E+04  0.30788623326E+04  0.00000000000E+00 0.  1.
         -2   -1    0    0    0  501 -0.00000000000E+00 -0.00000000000E+00 -0.62526360312E+03  0.62526360312E+03  0.00000000000E+00 0. -1.
    2000013    1    1    2    0    0 -0.67011158321E+03 -0.43455301976E+03  0.39886020186E+03  0.13036392605E+04  0.95000000000E+03 0.  0.
   -2000013    1    1    2    0    0  0.67011158321E+03  0.43455301976E+03  0.20547385277E+04  0.24004866752E+04  0.95000000000E+03 0.  0.
<mgrwt>
<rscale>  0 0.27749599E+04</rscale>
<asrwt>0</asrwt>
<pdfrwt beam="1">  1        2 0.47367112E+00 0.27749599E+04</pdfrwt>
<pdfrwt beam="2">  1       -2 0.96194402E-01 0.27749599E+04</pdfrwt>
<totfact> 0.12246749E+00</totfact>
</mgrwt>
</event>
<event>
 4    1  0.2048914E-008  0.3099048E+04  0.7816531E-02  0.8215999E-01
         -2   -1    0    0    0  501 -0.00000000000E+00  0.00000000000E+00  0.16554838312E+04  0.16554838312E+04  0.00000000000E+00 0. -1.
          2   -1    0    0  501    0  0.00000000000E+00 -0.00000000000E+00 -0.14503457008E+04  0.14503457008E+04  0.00000000000E+00 0.  1.
    2000013    1    1    2    0    0  0.89639388687E+03 -0.79693143770E+03 -0.14271568756E+03  0.15367138589E+04  0.95000000000E+03 0.  0.
   -2000013    1    1    2    0    0 -0.89639388687E+03  0.79693143770E+03  0.34785381791E+03  0.15691156731E+04  0.95000000000E+03 0.  0.
<mgrwt>
<rscale>  0 0.30990475E+04</rscale>
<asrwt>0</asrwt>
<pdfrwt beam="2">  1        2 0.22313011E+00 0.30990475E+04</pdfrwt>
<pdfrwt beam="1">  1       -2 0.25468982E+00 0.30990475E+04</pdfrwt>
<totfact> 0.69155655E-01</totfact>
</mgrwt>
</event>
<event>
 4    1  0.2048914E-008  0.1948450E+04  0.7816531E-02  0.8631109E-01
          1   -1    0    0  501    0  0.00000000000E+00  0.00000000000E+00  0.90366532139E+03  0.90366532139E+03  0.00000000000E+00 0.  1.
         -1   -1    0    0    0  501 -0.00000000000E+00 -0.00000000000E+00 -0.10502940259E+04  0.10502940259E+04  0.00000000000E+00 0. -1.
    2000013    1    1    2    0    0 -0.16468448448E+03  0.72571547310E+02  0.46298555411E+02  0.96800370100E+03  0.95000000000E+03 0.  0.
   -2000013    1    1    2    0    0  0.16468448448E+03 -0.72571547310E+02 -0.19292725997E+03  0.98595564634E+03  0.95000000000E+03 0.  0.
<mgrwt>
<rscale>  0 0.19484499E+04</rscale>
<asrwt>0</asrwt>
<pdfrwt beam="1">  1        1 0.13902543E+00 0.19484499E+04</pdfrwt>
<pdfrwt beam="2">  1       -1 0.16158370E+00 0.19484499E+04</pdfrwt>
<totfact> 0.47869580E+00</totfact>
</mgrwt>
</event>
<event>
 4    1  0.2048914E-008  0.2966955E+04  0.7816531E-02  0.8253231E-01
         -2   -1    0    0    0  501 -0.00000000000E+00  0.00000000000E+00  0.11288853656E+04  0.11288853656E+04  0.00000000000E+00 0. -1.
          2   -1    0    0  501    0  0.00000000000E+00 -0.00000000000E+00 -0.19494495617E+04  0.19494495617E+04  0.00000000000E+00 0.  1.
    2000013    1    1    2    0    0 -0.51277542895E+02 -0.93267152444E+03 -0.10872320045E+04  0.17196159428E+04  0.95000000000E+03 0.  0.
   -2000013    1    1    2    0    0  0.51277542895E+02  0.93267152444E+03  0.26666780844E+03  0.13587189845E+04  0.95000000000E+03 0.  0.
<mgrwt>
<rscale>  0 0.29669547E+04</rscale>
<asrwt>0</asrwt>
<pdfrwt beam="2">  1        2 0.29991532E+00 0.29669547E+04</pdfrwt>
<pdfrwt beam="1">  1       -2 0.17367467E+00 0.29669547E+04</pdfrwt>
<totfact> 0.12283475E+00</totfact>
</mgrwt>
</event>
<event>
 4    1  0.2048914E-008  0.2557625E+04  0.7816531E-02  0.8382739E-01
          2   -1    0    0  501    0  0.00000000000E+00  0.00000000000E+00  0.20004624957E+04  0.20004624957E+04  0.00000000000E+00 0.  1.
         -2   -1    0    0    0  501 -0.00000000000E+00 -0.00000000000E+00 -0.81749141604E+03  0.81749141604E+03  0.00000000000E+00 0. -1.
    2000013    1    1    2    0    0 -0.42329893262E+03  0.32998266822E+03  0.13262950544E+04  0.17174484327E+04  0.95000000000E+03 0.  0.
   -2000013    1    1    2    0    0  0.42329893262E+03 -0.32998266822E+03 -0.14332397471E+03  0.11005054790E+04  0.95000000000E+03 0.  0.
<mgrwt>
<rscale>  0 0.25576246E+04</rscale>
<asrwt>0</asrwt>
<pdfrwt beam="1">  1        2 0.30776346E+00 0.25576246E+04</pdfrwt>
<pdfrwt beam="2">  1       -2 0.12576791E+00 0.25576246E+04</pdfrwt>
<totfact> 0.27985737E+00</totfact>
</mgrwt>
</event>
<event>
 4    1  0.2048914E-008  0.2206551E+04  0.7816531E-02  0.8515706E-01
         -2   -1    0    0    0  501 -0.00000000000E+00  0.00000000000E+00  0.93830533432E+03  0.93830533432E+03  0.00000000000E+00 0. -1.
          2   -1    0    0  501    0  0.00000000000E+00 -0.00000000000E+00 -0.12972502727E+04  0.12972502727E+04  0.00000000000E+00 0.  1.
    2000013    1    1    2    0    0  0.28762107600E+03 -0.48109698367E+03 -0.20294289741E+03  0.11215462588E+04  0.95000000000E+03 0.  0.
   -2000013    1    1    2    0    0 -0.28762107600E+03  0.48109698367E+03 -0.15600204095E+03  0.11140093482E+04  0.95000000000E+03 0.  0.
<mgrwt>
<rscale>  0 0.22065510E+04</rscale>
<asrwt>0</asrwt>
<pdfrwt beam="2">  1        2 0.19957697E+00 0.22065510E+04</pdfrwt>
<pdfrwt beam="1">  1       -2 0.14435467E+00 0.22065510E+04</pdfrwt>
<totfact> 0.50262607E+00</totfact>
</mgrwt>
</event>
<event>
 4    1  0.2048914E-008  0.2034298E+04  0.7816531E-02  0.8590751E-01
         -2   -1    0    0    0  501 -0.00000000000E+00  0.00000000000E+00  0.45903500502E+03  0.45903500502E+03  0.00000000000E+00 0.  1.
          2   -1    0    0  501    0  0.00000000000E+00 -0.00000000000E+00 -0.22538421188E+04  0.22538421188E+04  0.00000000000E+00 0. -1.
    2000013    1    1    2    0    0 -0.34863371299E+03  0.83769910348E+02 -0.97663107446E+03  0.14088545416E+04  0.95000000000E+03 0.  0.
   -2000013    1    1    2    0    0  0.34863371299E+03 -0.83769910348E+02 -0.81817603936E+03  0.13040225823E+04  0.95000000000E+03 0.  0.
<mgrwt>
<rscale>  0 0.20342983E+04</rscale>
<asrwt>0</asrwt>
<pdfrwt beam="2">  1        2 0.34674494E+00 0.20342983E+04</pdfrwt>
<pdfrwt beam="1">  1       -2 0.70620770E-01 0.20342983E+04</pdfrwt>
<totfact> 0.81343492E+00</totfact>
</mgrwt>
</event>
<event>
 4    1  0.2048914E-008  0.2986145E+04  0.7816531E-02  0.8247698E-01
          2   -1    0    0  501    0  0.00000000000E+00  0.00000000000E+00  0.15490917588E+04  0.15490917588E+04  0.00000000000E+00 0.  1.
         -2   -1    0    0    0  501 -0.00000000000E+00 -0.00000000000E+00 -0.14390790902E+04  0.14390790902E+04  0.00000000000E+00 0. -1.
    2000013    1    1    2    0    0  0.38233324953E+03  0.10843292105E+04 -0.14445422602E+02  0.14915284847E+04  0.95000000000E+03 0.  0.
   -2000013    1    1    2    0    0 -0.38233324953E+03 -0.10843292105E+04  0.12445809121E+03  0.14966423644E+04  0.95000000000E+03 0.  0.
<mgrwt>
<rscale>  0 0.29861450E+04</rscale>
<asrwt>0</asrwt>
<pdfrwt beam="1">  1        2 0.23832181E+00 0.29861450E+04</pdfrwt>
<pdfrwt beam="2">  1       -2 0.22139678E+00 0.29861450E+04</pdfrwt>
<totfact> 0.98853074E-01</totfact>
</mgrwt>
</event>
<event>
 4    1  0.2048914E-008  0.2296805E+04  0.7816531E-02  0.8479182E-01
         -1   -1    0    0    0  501 -0.00000000000E+00  0.00000000000E+00  0.78398908555E+03  0.78398908555E+03  0.00000000000E+00 0. -1.
          1   -1    0    0  501    0  0.00000000000E+00 -0.00000000000E+00 -0.16822022354E+04  0.16822022354E+04  0.00000000000E+00 0.  1.
    2000013    1    1    2    0    0  0.14902458484E+03  0.50875799793E+03 -0.54169644952E+02  0.10892554236E+04  0.95000000000E+03 0.  0.
   -2000013    1    1    2    0    0 -0.14902458484E+03 -0.50875799793E+03 -0.84404350492E+03  0.13769358974E+04  0.95000000000E+03 0.  0.
<mgrwt>
<rscale>  0 0.22968049E+04</rscale>
<asrwt>0</asrwt>
<pdfrwt beam="2">  1        1 0.25880034E+00 0.22968049E+04</pdfrwt>
<pdfrwt beam="1">  1       -1 0.12061371E+00 0.22968049E+04</pdfrwt>
<totfact> 0.27090951E+00</totfact>
</mgrwt>
</event>
<event>
 4    1  0.2048914E-008  0.3776340E+04  0.7816531E-02  0.8051251E-01
          2   -1    0    0  501    0  0.00000000000E+00  0.00000000000E+00  0.26120739593E+04  0.26120739593E+04  0.00000000000E+00 0.  1.
         -2   -1    0    0    0  501 -0.00000000000E+00 -0.00000000000E+00 -0.13648871481E+04  0.13648871481E+04  0.00000000000E+00 0. -1.
    2000013    1    1    2    0    0 -0.59850902502E+03 -0.14013252125E+04  0.88342035340E+01  0.17956902426E+04  0.95000000000E+03 0.  0.
   -2000013    1    1    2    0    0  0.59850902502E+03  0.14013252125E+04  0.12383526077E+04  0.21812708647E+04  0.95000000000E+03 0.  0.
<mgrwt>
<rscale>  0 0.37763401E+04</rscale>
<asrwt>0</asrwt>
<pdfrwt beam="1">  1        2 0.40185753E+00 0.37763401E+04</pdfrwt>
<pdfrwt beam="2">  1       -2 0.20998264E+00 0.37763401E+04</pdfrwt>
<totfact> 0.27545155E-01</totfact>
</mgrwt>
</event>
<event>
 4    1  0.2048914E-008  0.2052505E+04  0.7816531E-02  0.8582459E-01
         -2   -1    0    0    0  501 -0.00000000000E+00  0.00000000000E+00  0.65425791300E+03  0.65425791300E+03  0.00000000000E+00 0. -1.
          2   -1    0    0  501    0  0.00000000000E+00 -0.00000000000E+00 -0.16097536581E+04  0.16097536581E+04  0.00000000000E+00 0.  1.
    2000013    1    1    2    0    0 -0.18613571026E+02  0.15153291989E+03 -0.87143773710E+03  0.12981573173E+04  0.95000000000E+03 0.  0.
   -2000013    1    1    2    0    0  0.18613571026E+02 -0.15153291989E+03 -0.84058007989E+02  0.96585425378E+03  0.95000000000E+03 0.  0.
<mgrwt>
<rscale>  0 0.20525049E+04</rscale>
<asrwt>0</asrwt>
<pdfrwt beam="2">  1        2 0.24765441E+00 0.20525049E+04</pdfrwt>
<pdfrwt beam="1">  1       -2 0.10065506E+00 0.20525049E+04</pdfrwt>
<totfact> 0.82863224E+00</totfact>
</mgrwt>
</event>
<event>
 4    1  0.2048914E-008  0.2341182E+04  0.7816531E-02  0.8461858E-01
          2   -1    0    0  501    0  0.00000000000E+00  0.00000000000E+00  0.16222759502E+04  0.16222759502E+04  0.00000000000E+00 0.  1.
         -2   -1    0    0    0  501 -0.00000000000E+00 -0.00000000000E+00 -0.84466739931E+03  0.84466739931E+03  0.00000000000E+00 0. -1.
    2000013    1    1    2    0    0  0.50035689102E+03  0.45963925873E+03  0.47149481511E+03  0.12595366716E+04  0.95000000000E+03 0.  0.
   -2000013    1    1    2    0    0 -0.50035689102E+03 -0.45963925873E+03  0.30611373579E+03  0.12074066779E+04  0.95000000000E+03 0.  0.
<mgrwt>
<rscale>  0 0.23411823E+04</rscale>
<asrwt>0</asrwt>
<pdfrwt beam="1">  1        2 0.24958092E+00 0.23411823E+04</pdfrwt>
<pdfrwt beam="2">  1       -2 0.12994883E+00 0.23411823E+04</pdfrwt>
<totfact> 0.42573491E+00</totfact>
</mgrwt>
</event>
<event>
 4    1  0.2048914E-008  0.3581483E+04  0.7816531E-02  0.8094746E-01
          2   -1    0    0  501    0  0.00000000000E+00  0.00000000000E+00  0.22379251431E+04  0.22379251431E+04  0.00000000000E+00 0.  1.
         -2   -1    0    0    0  501 -0.00000000000E+00 -0.00000000000E+00 -0.14329146326E+04  0.14329146326E+04  0.00000000000E+00 0. -1.
    2000013    1    1    2    0    0  0.94307457624E+03  0.11597774799E+04  0.13175124211E+03  0.17760438759E+04  0.95000000000E+03 0.  0.
   -2000013    1    1    2    0    0 -0.94307457624E+03 -0.11597774799E+04  0.67325926839E+03  0.18947958998E+04  0.95000000000E+03 0.  0.
<mgrwt>
<rscale>  0 0.35814833E+04</rscale>
<asrwt>0</asrwt>
<pdfrwt beam="1">  1        2 0.34429617E+00 0.35814833E+04</pdfrwt>
<pdfrwt beam="2">  1       -2 0.22044841E+00 0.35814833E+04</pdfrwt>
<totfact> 0.39400723E-01</totfact>
</mgrwt>
</event>
<event>
 4    1  0.2048914E-008  0.3885950E+04  0.7816531E-02  0.8027958E-01
          2   -1    0    0  501    0  0.00000000000E+00  0.00000000000E+00  0.44637301112E+04  0.44637301112E+04  0.00000000000E+00 0.  1.
         -2   -1    0    0    0  501 -0.00000000000E+00 -0.00000000000E+00 -0.84573946149E+03  0.84573946149E+03  0.00000000000E+00 0. -1.
    2000013    1    1    2    0    0 -0.84975019352E+03 -0.72112014898E+03  0.35537030181E+04  0.38436174109E+04  0.95000000000E+03 0.  0.
   -2000013    1    1    2    0    0  0.84975019352E+03  0.72112014898E+03  0.64287631638E+02  0.14658521618E+04  0.95000000000E+03 0.  0.
<mgrwt>
<rscale>  0 0.38859504E+04</rscale>
<asrwt>0</asrwt>
<pdfrwt beam="1">  1        2 0.68672769E+00 0.38859504E+04</pdfrwt>
<pdfrwt beam="2">  1       -2 0.13011377E+00 0.38859504E+04</pdfrwt>
<totfact> 0.45757118E-02</totfact>
</mgrwt>
</event>
<event>
 4    1  0.2048914E-008  0.2411245E+04  0.7816531E-02  0.8435306E-01
          2   -1    0    0  501    0  0.00000000000E+00  0.00000000000E+00  0.74263323733E+03  0.74263323733E+03  0.00000000000E+00 0.  1.
         -2   -1    0    0    0  501 -0.00000000000E+00 -0.00000000000E+00 -0.19572589670E+04  0.19572589670E+04  0.00000000000E+00 0. -1.
    2000013    1    1    2    0    0  0.46983551425E+03 -0.54268326256E+03 -0.81909781234E+03  0.14452237751E+04  0.95000000000E+03 0.  0.
   -2000013    1    1    2    0    0 -0.46983551425E+03  0.54268326256E+03 -0.39552791732E+03  0.12546684292E+04  0.95000000000E+03 0.  0.
<mgrwt>
<rscale>  0 0.24112450E+04</rscale>
<asrwt>0</asrwt>
<pdfrwt beam="1">  1        2 0.11425127E+00 0.24112450E+04</pdfrwt>
<pdfrwt beam="2">  1       -2 0.30111676E+00 0.24112450E+04</pdfrwt>
<totfact> 0.10679457E+00</totfact>
</mgrwt>
</event>
<event>
 4    1  0.2048914E-008  0.3038305E+04  0.7816531E-02  0.8232876E-01
         -2   -1    0    0    0  501 -0.00000000000E+00  0.00000000000E+00  0.15535527211E+04  0.15535527211E+04  0.00000000000E+00 0. -1.
          2   -1    0    0  501    0  0.00000000000E+00 -0.00000000000E+00 -0.14855141834E+04  0.14855141834E+04  0.00000000000E+00 0.  1.
    2000013    1    1    2    0    0 -0.81658258720E+03 -0.42028909581E+03 -0.71575157661E+03  0.15027476053E+04  0.95000000000E+03 0.  0.
   -2000013    1    1    2    0    0  0.81658258720E+03  0.42028909581E+03  0.78379011430E+03  0.15363192992E+04  0.95000000000E+03 0.  0.
<mgrwt>
<rscale>  0 0.30383052E+04</rscale>
<asrwt>0</asrwt>
<pdfrwt beam="2">  1        2 0.22854064E+00 0.30383052E+04</pdfrwt>
<pdfrwt beam="1">  1       -2 0.23900811E+00 0.30383052E+04</pdfrwt>
<totfact> 0.82936411E-01</totfact>
</mgrwt>
</event>
<event>
 4    1  0.2048914E-008  0.2686002E+04  0.7816531E-02  0.8339561E-01
         -2   -1    0    0    0  501 -0.00000000000E+00  0.00000000000E+00  0.19860245779E+04  0.19860245779E+04  0.00000000000E+00 0. -1.
          2   -1    0    0  501    0  0.00000000000E+00 -0.00000000000E+00 -0.90817196828E+03  0.90817196828E+03  0.00000000000E+00 0.  1.
    2000013    1    1    2    0    0 -0.11163912094E+03  0.78327511242E+03  0.11041510281E+04  0.16575984700E+04  0.95000000000E+03 0.  0.
   -2000013    1    1    2    0    0  0.11163912094E+03 -0.78327511242E+03 -0.26298418491E+02  0.12365980761E+04  0.95000000000E+03 0.  0.
<mgrwt>
<rscale>  0 0.26860021E+04</rscale>
<asrwt>0</asrwt>
<pdfrwt beam="2">  1        2 0.13971877E+00 0.26860021E+04</pdfrwt>
<pdfrwt beam="1">  1       -2 0.30554224E+00 0.26860021E+04</pdfrwt>
<totfact> 0.74739437E-01</totfact>
</mgrwt>
</event>
<event>
 4    1  0.2048914E-008  0.2459331E+04  0.7816531E-02  0.8417619E-01
         -2   -1    0    0    0  501 -0.00000000000E+00  0.00000000000E+00  0.12720419588E+04  0.12720419588E+04  0.00000000000E+00 0. -1.
          2   -1    0    0  501    0  0.00000000000E+00 -0.00000000000E+00 -0.11887004603E+04  0.11887004603E+04  0.00000000000E+00 0.  1.
    2000013    1    1    2    0    0 -0.28681062008E+03  0.44289101282E+03  0.61746966018E+03  0.12498726184E+04  0.95000000000E+03 0.  0.
   -2000013    1    1    2    0    0  0.28681062008E+03 -0.44289101282E+03 -0.53412816170E+03  0.12108698007E+04  0.95000000000E+03 0.  0.
<mgrwt>
<rscale>  0 0.24593307E+04</rscale>
<asrwt>0</asrwt>
<pdfrwt beam="2">  1        2 0.18287699E+00 0.24593307E+04</pdfrwt>
<pdfrwt beam="1">  1       -2 0.19569876E+00 0.24593307E+04</pdfrwt>
<totfact> 0.24444415E+00</totfact>
</mgrwt>
</event>
<event>
 4    1  0.2048914E-008  0.4115665E+04  0.7816531E-02  0.7981611E-01
          2   -1    0    0  501    0  0.00000000000E+00  0.00000000000E+00  0.31404015257E+04  0.31404015257E+04  0.00000000000E+00 0.  1.
         -2   -1    0    0    0  501 -0.00000000000E+00 -0.00000000000E+00 -0.13484500098E+04  0.13484500098E+04  0.00000000000E+00 0. -1.
    2000013    1    1    2    0    0 -0.99223155006E+03 -0.15269091048E+04  0.75715722910E+03  0.21890093497E+04  0.95000000000E+03 0.  0.
   -2000013    1    1    2    0    0  0.99223155006E+03  0.15269091048E+04  0.10347942868E+04  0.22998421857E+04  0.95000000000E+03 0.  0.
<mgrwt>
<rscale>  0 0.41156649E+04</rscale>
<asrwt>0</asrwt>
<pdfrwt beam="1">  1        2 0.48313870E+00 0.41156649E+04</pdfrwt>
<pdfrwt beam="2">  1       -2 0.20745385E+00 0.41156649E+04</pdfrwt>
<totfact> 0.13164246E-01</totfact>
</mgrwt>
</event>
<event>
 4    1  0.2048914E-008  0.3161076E+04  0.7816531E-02  0.8199173E-01
          2   -1    0    0  501    0  0.00000000000E+00  0.00000000000E+00  0.33462436183E+04  0.33462436183E+04  0.00000000000E+00 0.  1.
         -2   -1    0    0    0  501 -0.00000000000E+00 -0.00000000000E+00 -0.74653872438E+03  0.74653872438E+03  0.00000000000E+00 0. -1.
    2000013    1    1    2    0    0  0.11518771398E+04  0.33977054566E+03  0.18068490207E+04  0.23684316229E+04  0.95000000000E+03 0.  0.
   -2000013    1    1    2    0    0 -0.11518771398E+04 -0.33977054566E+03  0.79285587324E+03  0.17243507197E+04  0.95000000000E+03 0.  0.
<mgrwt>
<rscale>  0 0.31610760E+04</rscale>
<asrwt>0</asrwt>
<pdfrwt beam="1">  1        2 0.51480670E+00 0.31610760E+04</pdfrwt>
<pdfrwt beam="2">  1       -2 0.11485211E+00 0.31610760E+04</pdfrwt>
<totfact> 0.51763275E-01</totfact>
</mgrwt>
</event>
<event>
 4    1  0.2048914E-008  0.2549528E+04  0.7816531E-02  0.8385550E-01
         -2   -1    0    0    0  501 -0.00000000000E+00  0.00000000000E+00  0.95964344250E+03  0.95964344250E+03  0.00000000000E+00 0. -1.
          2   -1    0    0  501    0  0.00000000000E+00 -0.00000000000E+00 -0.16933611847E+04  0.16933611847E+04  0.00000000000E+00 0.  1.
    2000013    1    1    2    0    0  0.18082835471E+03 -0.72808386880E+03 -0.78272649911E+03  0.14415151010E+04  0.95000000000E+03 0.  0.
   -2000013    1    1    2    0    0 -0.18082835471E+03  0.72808386880E+03  0.49008756938E+02  0.12114895262E+04  0.95000000000E+03 0.  0.
<mgrwt>
<rscale>  0 0.25495278E+04</rscale>
<asrwt>0</asrwt>
<pdfrwt beam="2">  1        2 0.26051710E+00 0.25495278E+04</pdfrwt>
<pdfrwt beam="1">  1       -2 0.14763745E+00 0.25495278E+04</pdfrwt>
<totfact> 0.27457110E+00</totfact>
</mgrwt>
</event>
<event>
 4    1  0.2048914E-008  0.2736068E+04  0.7816531E-02  0.8323396E-01
          2   -1    0    0  501    0  0.00000000000E+00  0.00000000000E+00  0.16492375590E+04  0.16492375590E+04  0.00000000000E+00 0.  1.
         -2   -1    0    0    0  501 -0.00000000000E+00 -0.00000000000E+00 -0.11347773356E+04  0.11347773356E+04  0.00000000000E+00 0. -1.
    2000013    1    1    2    0    0 -0.15409338030E+03  0.97180413403E+03  0.22722854003E+03  0.13864634341E+04  0.95000000000E+03 0.  0.
   -2000013    1    1    2    0    0  0.15409338030E+03 -0.97180413403E+03  0.28723168329E+03  0.13975514605E+04  0.95000000000E+03 0.  0.
<mgrwt>
<rscale>  0 0.27360683E+04</rscale>
<asrwt>0</asrwt>
<pdfrwt beam="1">  1        2 0.25372886E+00 0.27360683E+04</pdfrwt>
<pdfrwt beam="2">  1       -2 0.17458113E+00 0.27360683E+04</pdfrwt>
<totfact> 0.18114357E+00</totfact>
</mgrwt>
</event>
<event>
 4    1  0.2048914E-008  0.2386848E+04  0.7816531E-02  0.8444444E-01
         -2   -1    0    0    0  501 -0.00000000000E+00  0.00000000000E+00  0.40538251544E+04  0.40538251544E+04  0.00000000000E+00 0. -1.
          2   -1    0    0  501    0  0.00000000000E+00 -0.00000000000E+00 -0.35133758623E+03  0.35133758623E+03  0.00000000000E+00 0.  1.
    2000013    1    1    2    0    0  0.18731569109E+03 -0.40072055523E+03  0.79731671545E+03  0.13167680419E+04  0.95000000000E+03 0.  0.
   -2000013    1    1    2    0    0 -0.18731569109E+03  0.40072055523E+03  0.29051708528E+04  0.30883946988E+04  0.95000000000E+03 0.  0.
<mgrwt>
<rscale>  0 0.23868483E+04</rscale>
<asrwt>0</asrwt>
<pdfrwt beam="2">  1        2 0.54051939E-01 0.23868483E+04</pdfrwt>
<pdfrwt beam="1">  1       -2 0.62366537E+00 0.23868483E+04</pdfrwt>
<totfact> 0.33649823E-02</totfact>
</mgrwt>
</event>
<event>
 4    1  0.2048914E-008  0.1937823E+04  0.7816531E-02  0.8636255E-01
          2   -1    0    0  501    0  0.00000000000E+00  0.00000000000E+00  0.18665612434E+04  0.18665612434E+04  0.00000000000E+00 0.  1.
         -2   -1    0    0    0  501 -0.00000000000E+00 -0.00000000000E+00 -0.50295136877E+03  0.50295136877E+03  0.00000000000E+00 0. -1.
    2000013    1    1    2    0    0  0.78651016307E+02  0.16397577411E+03  0.75114254545E+03  0.12246587935E+04  0.95000000000E+03 0.  0.
   -2000013    1    1    2    0    0 -0.78651016307E+02 -0.16397577411E+03  0.61246732918E+03  0.11448538187E+04  0.95000000000E+03 0.  0.
<mgrwt>
<rscale>  0 0.19378230E+04</rscale>
<asrwt>0</asrwt>
<pdfrwt beam="1">  1        2 0.28716326E+00 0.19378230E+04</pdfrwt>
<pdfrwt beam="2">  1       -2 0.77377135E-01 0.19378230E+04</pdfrwt>
<totfact> 0.11021897E+01</totfact>
</mgrwt>
</event>
<event>
 4    1  0.2048914E-008  0.4036934E+04  0.7816531E-02  0.7997137E-01
          2   -1    0    0  501    0  0.00000000000E+00  0.00000000000E+00  0.83137478595E+03  0.83137478595E+03  0.00000000000E+00 0.  1.
         -2   -1    0    0    0  501 -0.00000000000E+00 -0.00000000000E+00 -0.49005689409E+04  0.49005689409E+04  0.00000000000E+00 0. -1.
    2000013    1    1    2    0    0 -0.20758056473E+03  0.14616919615E+04 -0.34488360455E+04  0.38699616471E+04  0.95000000000E+03 0.  0.
   -2000013    1    1    2    0    0  0.20758056473E+03 -0.14616919615E+04 -0.62035810944E+03  0.18619820797E+04  0.95000000000E+03 0.  0.
<mgrwt>
<rscale>  0 0.40369342E+04</rscale>
<asrwt>0</asrwt>
<pdfrwt beam="1">  1        2 0.12790381E+00 0.40369342E+04</pdfrwt>
<pdfrwt beam="2">  1       -2 0.75393370E+00 0.40369342E+04</pdfrwt>
<totfact> 0.35401276E-03</totfact>
</mgrwt>
</event>
<event>
 4    1  0.2048914E-008  0.2909622E+04  0.7816531E-02  0.8270020E-01
          2   -1    0    0  501    0  0.00000000000E+00  0.00000000000E+00  0.19909763873E+04  0.19909763873E+04  0.00000000000E+00 0.  1.
         -2   -1    0    0    0  501 -0.00000000000E+00 -0.00000000000E+00 -0.10630338216E+04  0.10630338216E+04  0.00000000000E+00 0. -1.
    2000013    1    1    2    0    0 -0.89029872505E+03 -0.62698980451E+03  0.64031817710E+03  0.15805870437E+04  0.95000000000E+03 0.  0.
   -2000013    1    1    2    0    0  0.89029872505E+03  0.62698980451E+03  0.28762438860E+03  0.14734231652E+04  0.95000000000E+03 0.  0.
<mgrwt>
<rscale>  0 0.29096221E+04</rscale>
<asrwt>0</asrwt>
<pdfrwt beam="1">  1        2 0.30630406E+00 0.29096221E+04</pdfrwt>
<pdfrwt beam="2">  1       -2 0.16354367E+00 0.29096221E+04</pdfrwt>
<totfact> 0.13829100E+00</totfact>
</mgrwt>
</event>
<event>
 4    1  0.2048914E-008  0.2316550E+04  0.7816531E-02  0.8471424E-01
         -2   -1    0    0    0  501 -0.00000000000E+00  0.00000000000E+00  0.67842862838E+03  0.67842862838E+03  0.00000000000E+00 0. -1.
          2   -1    0    0  501    0  0.00000000000E+00 -0.00000000000E+00 -0.19775122113E+04  0.19775122113E+04  0.00000000000E+00 0.  1.
    2000013    1    1    2    0    0 -0.40476035666E+03 -0.31798629529E+03 -0.17108327458E+03  0.10939450247E+04  0.95000000000E+03 0.  0.
   -2000013    1    1    2    0    0  0.40476035666E+03  0.31798629529E+03 -0.11280003084E+04  0.15619958150E+04  0.95000000000E+03 0.  0.
<mgrwt>
<rscale>  0 0.23165499E+04</rscale>
<asrwt>0</asrwt>
<pdfrwt beam="2">  1        2 0.30423265E+00 0.23165499E+04</pdfrwt>
<pdfrwt beam="1">  1       -2 0.10437364E+00 0.23165499E+04</pdfrwt>
<totfact> 0.46425889E+00</totfact>
</mgrwt>
</event>
<event>
 4    1  0.2048914E-008  0.2237044E+04  0.7816531E-02  0.8503166E-01
         -2   -1    0    0    0  501 -0.00000000000E+00  0.00000000000E+00  0.12711966554E+04  0.12711966554E+04  0.00000000000E+00 0. -1.
          2   -1    0    0  501    0  0.00000000000E+00 -0.00000000000E+00 -0.98418401107E+03  0.98418401107E+03  0.00000000000E+00 0.  1.
    2000013    1    1    2    0    0 -0.11965009518E+03  0.57814271733E+03  0.13833826570E+03  0.11270326626E+04  0.95000000000E+03 0.  0.
   -2000013    1    1    2    0    0  0.11965009518E+03 -0.57814271733E+03  0.14867437861E+03  0.11283480038E+04  0.95000000000E+03 0.  0.
<mgrwt>
<rscale>  0 0.22370440E+04</rscale>
<asrwt>0</asrwt>
<pdfrwt beam="2">  1        2 0.15141292E+00 0.22370440E+04</pdfrwt>
<pdfrwt beam="1">  1       -2 0.19556872E+00 0.22370440E+04</pdfrwt>
<totfact> 0.33426288E+00</totfact>
</mgrwt>
</event>
<event>
 4    1  0.2048914E-008  0.2793302E+04  0.7816531E-02  0.8305351E-01
         -2   -1    0    0    0  501 -0.00000000000E+00  0.00000000000E+00  0.96809150646E+03  0.96809150646E+03  0.00000000000E+00 0. -1.
          2   -1    0    0  501    0  0.00000000000E+00 -0.00000000000E+00 -0.20149271449E+04  0.20149271449E+04  0.00000000000E+00 0.  1.
    2000013    1    1    2    0    0  0.22291533625E+03  0.77141532340E+03  0.15482475965E+03  0.12534925427E+04  0.95000000000E+03 0.  0.
   -2000013    1    1    2    0    0 -0.22291533625E+03 -0.77141532340E+03 -0.12016603981E+04  0.17295261087E+04  0.95000000000E+03 0.  0.
<mgrwt>
<rscale>  0 0.27933019E+04</rscale>
<asrwt>0</asrwt>
<pdfrwt beam="2">  1        2 0.30998879E+00 0.27933019E+04</pdfrwt>
<pdfrwt beam="1">  1       -2 0.14893716E+00 0.27933019E+04</pdfrwt>
<totfact> 0.17424557E+00</totfact>
</mgrwt>
</event>
<event>
 4    1  0.2048914E-008  0.2857470E+04  0.7816531E-02  0.8285645E-01
          2   -1    0    0  501    0  0.00000000000E+00  0.00000000000E+00  0.22963122992E+04  0.22963122992E+04  0.00000000000E+00 0. -1.
         -2   -1    0    0    0  501 -0.00000000000E+00 -0.00000000000E+00 -0.88893998527E+03  0.88893998527E+03  0.00000000000E+00 0.  1.
    2000013    1    1    2    0    0 -0.57060488969E+03 -0.87783949465E+03  0.47363488142E+03  0.14909802545E+04  0.95000000000E+03 0.  0.
   -2000013    1    1    2    0    0  0.57060488969E+03  0.87783949465E+03  0.93373743249E+03  0.16942720299E+04  0.95000000000E+03 0.  0.
<mgrwt>
<rscale>  0 0.28574701E+04</rscale>
<asrwt>0</asrwt>
<pdfrwt beam="1">  1        2 0.35327881E+00 0.28574701E+04</pdfrwt>
<pdfrwt beam="2">  1       -2 0.13676000E+00 0.28574701E+04</pdfrwt>
<totfact> 0.15055644E+00</totfact>
</mgrwt>
</event>
<event>
 4    1  0.2048914E-008  0.2197354E+04  0.7816531E-02  0.8519530E-01
         -1   -1    0    0    0  501 -0.00000000000E+00  0.00000000000E+00  0.71482680296E+03  0.71482680296E+03  0.00000000000E+00 0. -1.
          1   -1    0    0  501    0  0.00000000000E+00 -0.00000000000E+00 -0.16886484886E+04  0.16886484886E+04  0.00000000000E+00 0.  1.
    2000013    1    1    2    0    0  0.36746468764E+03  0.40390873711E+03 -0.57454249376E+03  0.12372435660E+04  0.95000000000E+03 0.  0.
   -2000013    1    1    2    0    0 -0.36746468764E+03 -0.40390873711E+03 -0.39927919192E+03  0.11662317255E+04  0.95000000000E+03 0.  0.
<mgrwt>
<rscale>  0 0.21973540E+04</rscale>
<asrwt>0</asrwt>
<pdfrwt beam="2">  1        1 0.25979208E+00 0.21973540E+04</pdfrwt>
<pdfrwt beam="1">  1       -1 0.10997335E+00 0.21973540E+04</pdfrwt>
<totfact> 0.33783622E+00</totfact>
</mgrwt>
</event>
<event>
 4    1  0.2048914E-008  0.2853174E+04  0.7816531E-02  0.8286947E-01
         -2   -1    0    0    0  501 -0.00000000000E+00  0.00000000000E+00  0.20195393078E+04  0.20195393078E+04  0.00000000000E+00 0. -1.
          2   -1    0    0  501    0  0.00000000000E+00 -0.00000000000E+00 -0.10077302522E+04  0.10077302522E+04  0.00000000000E+00 0.  1.
    2000013    1    1    2    0    0  0.51454784680E+03  0.17634007249E+03  0.14764870699E+04  0.18380341061E+04  0.95000000000E+03 0.  0.
   -2000013    1    1    2    0    0 -0.51454784680E+03 -0.17634007249E+03 -0.46467801426E+03  0.11892354539E+04  0.95000000000E+03 0.  0.
<mgrwt>
<rscale>  0 0.28531743E+04</rscale>
<asrwt>0</asrwt>
<pdfrwt beam="2">  1        2 0.15503542E+00 0.28531743E+04</pdfrwt>
<pdfrwt beam="1">  1       -2 0.31069836E+00 0.28531743E+04</pdfrwt>
<totfact> 0.58947541E-01</totfact>
</mgrwt>
</event>
<event>
 4    1  0.2048914E-008  0.2321187E+04  0.7816531E-02  0.8469614E-01
         -2   -1    0    0    0  501 -0.00000000000E+00  0.00000000000E+00  0.81632162751E+03  0.81632162751E+03  0.00000000000E+00 0. -1.
          2   -1    0    0  501    0  0.00000000000E+00 -0.00000000000E+00 -0.16500565385E+04  0.16500565385E+04  0.00000000000E+00 0.  1.
    2000013    1    1    2    0    0  0.52487991619E+03  0.15657587932E+03 -0.13011698164E+02  0.10966696115E+04  0.95000000000E+03 0.  0.
   -2000013    1    1    2    0    0 -0.52487991619E+03 -0.15657587932E+03 -0.82072321286E+03  0.13697085546E+04  0.95000000000E+03 0.  0.
<mgrwt>
<rscale>  0 0.23211866E+04</rscale>
<asrwt>0</asrwt>
<pdfrwt beam="2">  1        2 0.25385485E+00 0.23211866E+04</pdfrwt>
<pdfrwt beam="1">  1       -2 0.12558794E+00 0.23211866E+04</pdfrwt>
<totfact> 0.44848784E+00</totfact>
</mgrwt>
</event>
<event>
 4    1  0.2048914E-008  0.3100830E+04  0.7816531E-02  0.8215510E-01
          2   -1    0    0  501    0  0.00000000000E+00  0.00000000000E+00  0.18191886944E+04  0.18191886944E+04  0.00000000000E+00 0.  1.
         -2   -1    0    0    0  501 -0.00000000000E+00 -0.00000000000E+00 -0.13213509307E+04  0.13213509307E+04  0.00000000000E+00 0. -1.
    2000013    1    1    2    0    0 -0.97651232669E+03  0.13340824640E+03  0.98619206748E+03  0.16871422223E+04  0.95000000000E+03 0.  0.
   -2000013    1    1    2    0    0  0.97651232669E+03 -0.13340824640E+03 -0.48835430378E+03  0.14533974028E+04  0.95000000000E+03 0.  0.
<mgrwt>
<rscale>  0 0.31008300E+04</rscale>
<asrwt>0</asrwt>
<pdfrwt beam="1">  1        2 0.27987519E+00 0.31008300E+04</pdfrwt>
<pdfrwt beam="2">  1       -2 0.20328476E+00 0.31008300E+04</pdfrwt>
<totfact> 0.90484000E-01</totfact>
</mgrwt>
</event>
<event>
 4    1  0.2048914E-008  0.2638204E+04  0.7816531E-02  0.8355339E-01
          1   -1    0    0  501    0  0.00000000000E+00  0.00000000000E+00  0.14685219845E+04  0.14685219845E+04  0.00000000000E+00 0.  1.
         -1   -1    0    0    0  501 -0.00000000000E+00 -0.00000000000E+00 -0.11848851215E+04  0.11848851215E+04  0.00000000000E+00 0. -1.
    2000013    1    1    2    0    0  0.73939568148E+03  0.14669780159E+03  0.66375370408E+03  0.13824960031E+04  0.95000000000E+03 0.  0.
   -2000013    1    1    2    0    0 -0.73939568148E+03 -0.14669780159E+03 -0.38011684107E+03  0.12709111030E+04  0.95000000000E+03 0.  0.
<mgrwt>
<rscale>  0 0.26382038E+04</rscale>
<asrwt>0</asrwt>
<pdfrwt beam="1">  1        1 0.22592646E+00 0.26382038E+04</pdfrwt>
<pdfrwt beam="2">  1       -1 0.18229002E+00 0.26382038E+04</pdfrwt>
<totfact> 0.12102675E+00</totfact>
</mgrwt>
</event>
<event>
 4    1  0.2048914E-008  0.2730667E+04  0.7816531E-02  0.8325123E-01
         -3   -1    0    0    0  501 -0.00000000000E+00  0.00000000000E+00  0.10544167346E+04  0.10544167346E+04  0.00000000000E+00 0.  1.
          3   -1    0    0  501    0  0.00000000000E+00 -0.00000000000E+00 -0.17679303262E+04  0.17679303262E+04  0.00000000000E+00 0. -1.
    2000013    1    1    2    0    0 -0.12038086464E+03 -0.71801081353E+03 -0.10357799060E+04  0.15828364080E+04  0.95000000000E+03 0.  0.
   -2000013    1    1    2    0    0  0.12038086464E+03  0.71801081353E+03  0.32226631434E+03  0.12395106527E+04  0.95000000000E+03 0.  0.
<mgrwt>
<rscale>  0 0.27306668E+04</rscale>
<asrwt>0</asrwt>
<pdfrwt beam="2">  1        3 0.27198928E+00 0.27306668E+04</pdfrwt>
<pdfrwt beam="1">  1       -3 0.16221796E+00 0.27306668E+04</pdfrwt>
<totfact> 0.33072255E-02</totfact>
</mgrwt>
</event>
<event>
 4    1  0.2048914E-008  0.3138175E+04  0.7816531E-02  0.8205338E-01
          2   -1    0    0  501    0  0.00000000000E+00  0.00000000000E+00  0.16741929624E+04  0.16741929624E+04  0.00000000000E+00 0.  1.
         -2   -1    0    0    0  501 -0.00000000000E+00 -0.00000000000E+00 -0.14705807947E+04  0.14705807947E+04  0.00000000000E+00 0. -1.
    2000013    1    1    2    0    0 -0.80644063306E+03 -0.83737609897E+03  0.55882509226E+03  0.16019771252E+04  0.95000000000E+03 0.  0.
   -2000013    1    1    2    0    0  0.80644063306E+03  0.83737609897E+03 -0.35521292463E+03  0.15427966320E+04  0.95000000000E+03 0.  0.
<mgrwt>
<rscale>  0 0.31381753E+04</rscale>
<asrwt>0</asrwt>
<pdfrwt beam="1">  1        2 0.25756815E+00 0.31381753E+04</pdfrwt>
<pdfrwt beam="2">  1       -2 0.22624320E+00 0.31381753E+04</pdfrwt>
<totfact> 0.77448296E-01</totfact>
</mgrwt>
</event>
<event>
 4    1  0.2048914E-008  0.2855369E+04  0.7816531E-02  0.8286282E-01
         -2   -1    0    0    0  501 -0.00000000000E+00  0.00000000000E+00  0.11126159112E+04  0.11126159112E+04  0.00000000000E+00 0. -1.
          2   -1    0    0  501    0  0.00000000000E+00 -0.00000000000E+00 -0.18319735612E+04  0.18319735612E+04  0.00000000000E+00 0.  1.
    2000013    1    1    2    0    0  0.54736449442E+03  0.86269780257E+03 -0.67234820758E+03  0.15486792762E+04  0.95000000000E+03 0.  0.
   -2000013    1    1    2    0    0 -0.54736449442E+03 -0.86269780257E+03 -0.47009442409E+02  0.13959101962E+04  0.95000000000E+03 0.  0.
<mgrwt>
<rscale>  0 0.28553689E+04</rscale>
<asrwt>0</asrwt>
<pdfrwt beam="2">  1        2 0.28184208E+00 0.28553689E+04</pdfrwt>
<pdfrwt beam="1">  1       -2 0.17117168E+00 0.28553689E+04</pdfrwt>
<totfact> 0.15004234E+00</totfact>
</mgrwt>
</event>
<event>
 4    1  0.2048914E-008  0.2019199E+04  0.7816531E-02  0.8597697E-01
         -2   -1    0    0    0  501 -0.00000000000E+00  0.00000000000E+00  0.26006128686E+04  0.26006128686E+04  0.00000000000E+00 0. -1.
          2   -1    0    0  501    0  0.00000000000E+00 -0.00000000000E+00 -0.39194267528E+03  0.39194267528E+03  0.00000000000E+00 0.  1.
    2000013    1    1    2    0    0 -0.28140533147E+03  0.31794496228E+02  0.13878344678E+04  0.17055158635E+04  0.95000000000E+03 0.  0.
   -2000013    1    1    2    0    0  0.28140533147E+03 -0.31794496228E+02  0.82083572546E+03  0.12870396803E+04  0.95000000000E+03 0.  0.
<mgrwt>
<rscale>  0 0.20191990E+04</rscale>
<asrwt>0</asrwt>
<pdfrwt beam="2">  1        2 0.60298875E-01 0.20191990E+04</pdfrwt>
<pdfrwt beam="1">  1       -2 0.40009428E+00 0.20191990E+04</pdfrwt>
<totfact> 0.56099635E-01</totfact>
</mgrwt>
</event>
<event>
 4    1  0.2048914E-008  0.2017840E+04  0.7816531E-02  0.8598325E-01
         -2   -1    0    0    0  501 -0.00000000000E+00  0.00000000000E+00  0.80536474881E+03  0.80536474881E+03  0.00000000000E+00 0. -1.
          2   -1    0    0  501    0  0.00000000000E+00 -0.00000000000E+00 -0.12639236507E+04  0.12639236507E+04  0.00000000000E+00 0.  1.
    2000013    1    1    2    0    0  0.75567039766E+02 -0.32371016286E+03 -0.30121720100E+03  0.10505857648E+04  0.95000000000E+03 0.  0.
   -2000013    1    1    2    0    0 -0.75567039766E+02  0.32371016286E+03 -0.15734170085E+03  0.10187026347E+04  0.95000000000E+03 0.  0.
<mgrwt>
<rscale>  0 0.20178400E+04</rscale>
<asrwt>0</asrwt>
<pdfrwt beam="2">  1        2 0.19444979E+00 0.20178400E+04</pdfrwt>
<pdfrwt beam="1">  1       -2 0.12390227E+00 0.20178400E+04</pdfrwt>
<totfact> 0.78947200E+00</totfact>
</mgrwt>
</event>
<event>
 4    1  0.2048914E-008  0.3012673E+04  0.7816531E-02  0.8240121E-01
          2   -1    0    0  501    0  0.00000000000E+00  0.00000000000E+00  0.27853913336E+04  0.27853913336E+04  0.00000000000E+00 0.  1.
         -2   -1    0    0    0  501 -0.00000000000E+00 -0.00000000000E+00 -0.81462486001E+03  0.81462486001E+03  0.00000000000E+00 0. -1.
    2000013    1    1    2    0    0  0.10096009887E+04 -0.44831111758E+03  0.14424010571E+04  0.20501945820E+04  0.95000000000E+03 0.  0.
   -2000013    1    1    2    0    0 -0.10096009887E+04  0.44831111758E+03  0.52836541642E+03  0.15498216116E+04  0.95000000000E+03 0.  0.
<mgrwt>
<rscale>  0 0.30126726E+04</rscale>
<asrwt>0</asrwt>
<pdfrwt beam="1">  1        2 0.42852174E+00 0.30126726E+04</pdfrwt>
<pdfrwt beam="2">  1       -2 0.12532690E+00 0.30126726E+04</pdfrwt>
<totfact> 0.96086507E-01</totfact>
</mgrwt>
</event>
<event>
 4    1  0.2048914E-008  0.2873569E+04  0.7816531E-02  0.8280785E-01
         -2   -1    0    0    0  501 -0.00000000000E+00  0.00000000000E+00  0.57054632729E+03  0.57054632729E+03  0.00000000000E+00 0. -1.
          2   -1    0    0  501    0  0.00000000000E+00 -0.00000000000E+00 -0.36181978861E+04  0.36181978861E+04  0.00000000000E+00 0.  1.
    2000013    1    1    2    0    0  0.30908707852E+01 -0.43352371904E+03 -0.85296263694E+02  0.10477250694E+04  0.95000000000E+03 0.  0.
   -2000013    1    1    2    0    0 -0.30908707852E+01  0.43352371904E+03 -0.29623552951E+04  0.31410191440E+04  0.95000000000E+03 0.  0.
<mgrwt>
<rscale>  0 0.28735689E+04</rscale>
<asrwt>0</asrwt>
<pdfrwt beam="2">  1        2 0.55664584E+00 0.28735689E+04</pdfrwt>
<pdfrwt beam="1">  1       -2 0.87776356E-01 0.28735689E+04</pdfrwt>
<totfact> 0.64839490E-01</totfact>
</mgrwt>
</event>
<event>
 4    1  0.2048914E-008  0.3389737E+04  0.7816531E-02  0.8140430E-01
          2   -1    0    0  501    0  0.00000000000E+00  0.00000000000E+00  0.24524209249E+04  0.24524209249E+04  0.00000000000E+00 0.  1.
         -2   -1    0    0    0  501 -0.00000000000E+00 -0.00000000000E+00 -0.11713241229E+04  0.11713241229E+04  0.00000000000E+00 0. -1.
    2000013    1    1    2    0    0 -0.11520332638E+04  0.78942396798E+03  0.49046823641E+03  0.17588149229E+04  0.95000000000E+03 0.  0.
   -2000013    1    1    2    0    0  0.11520332638E+04 -0.78942396798E+03  0.79062856559E+03  0.18649301249E+04  0.95000000000E+03 0.  0.
<mgrwt>
<rscale>  0 0.33897373E+04</rscale>
<asrwt>0</asrwt>
<pdfrwt beam="1">  1        2 0.37729553E+00 0.33897373E+04</pdfrwt>
<pdfrwt beam="2">  1       -2 0.18020371E+00 0.33897373E+04</pdfrwt>
<totfact> 0.55574036E-01</totfact>
</mgrwt>
</event>
<event>
 4    1  0.2048914E-008  0.3244200E+04  0.7816531E-02  0.8177241E-01
         -2   -1    0    0    0  501 -0.00000000000E+00  0.00000000000E+00  0.85952571734E+03  0.85952571734E+03  0.00000000000E+00 0. -1.
          2   -1    0    0  501    0  0.00000000000E+00 -0.00000000000E+00 -0.30612322831E+04  0.30612322831E+04  0.00000000000E+00 0.  1.
    2000013    1    1    2    0    0  0.63090745292E+03 -0.10939730634E+04 -0.65864078527E+03  0.17120540183E+04  0.95000000000E+03 0.  0.
   -2000013    1    1    2    0    0 -0.63090745292E+03  0.10939730634E+04 -0.15430657805E+04  0.22087039821E+04  0.95000000000E+03 0.  0.
<mgrwt>
<rscale>  0 0.32441997E+04</rscale>
<asrwt>0</asrwt>
<pdfrwt beam="2">  1        2 0.47095881E+00 0.32441997E+04</pdfrwt>
<pdfrwt beam="1">  1       -2 0.13223473E+00 0.32441997E+04</pdfrwt>
<totfact> 0.55539991E-01</totfact>
</mgrwt>
</event>
<event>
 4    1  0.2048914E-008  0.2427220E+04  0.7816531E-02  0.8429382E-01
          2   -1    0    0  501    0  0.00000000000E+00  0.00000000000E+00  0.15969047696E+04  0.15969047696E+04  0.00000000000E+00 0.  1.
         -2   -1    0    0    0  501 -0.00000000000E+00 -0.00000000000E+00 -0.92231531444E+03  0.92231531444E+03  0.00000000000E+00 0. -1.
    2000013    1    1    2    0    0 -0.33085424289E+03 -0.63778675763E+03  0.57873443160E+03  0.13242620664E+04  0.95000000000E+03 0.  0.
   -2000013    1    1    2    0    0  0.33085424289E+03  0.63778675763E+03  0.95855023525E+02  0.11949580176E+04  0.95000000000E+03 0.  0.
<mgrwt>
<rscale>  0 0.24272204E+04</rscale>
<asrwt>0</asrwt>
<pdfrwt beam="1">  1        2 0.24567766E+00 0.24272204E+04</pdfrwt>
<pdfrwt beam="2">  1       -2 0.14189466E+00 0.24272204E+04</pdfrwt>
<totfact> 0.34844280E+00</totfact>
</mgrwt>
</event>
<event>
 4    1  0.2048914E-008  0.2467075E+04  0.7816531E-02  0.8414810E-01
         -1   -1    0    0    0  501 -0.00000000000E+00  0.00000000000E+00  0.61894340019E+03  0.61894340019E+03  0.00000000000E+00 0.  1.
          1   -1    0    0  501    0  0.00000000000E+00 -0.00000000000E+00 -0.24584072362E+04  0.24584072362E+04  0.00000000000E+00 0. -1.
    2000013    1    1    2    0    0  0.67543157597E+03  0.27699613655E+03 -0.12859151952E+04  0.17575586940E+04  0.95000000000E+03 0.  0.
   -2000013    1    1    2    0    0 -0.67543157597E+03 -0.27699613655E+03 -0.55354864077E+03  0.13197919424E+04  0.95000000000E+03 0.  0.
<mgrwt>
<rscale>  0 0.24670751E+04</rscale>
<asrwt>0</asrwt>
<pdfrwt beam="2">  1        1 0.37821650E+00 0.24670751E+04</pdfrwt>
<pdfrwt beam="1">  1       -1 0.95222060E-01 0.24670751E+04</pdfrwt>
<totfact> 0.13734793E+00</totfact>
</mgrwt>
</event>
<event>
 4    1  0.2048914E-008  0.2408861E+04  0.7816531E-02  0.8436194E-01
          2   -1    0    0  501    0  0.00000000000E+00  0.00000000000E+00  0.30465908170E+04  0.30465908170E+04  0.00000000000E+00 0.  1.
         -2   -1    0    0    0  501 -0.00000000000E+00 -0.00000000000E+00 -0.47615606964E+03  0.47615606964E+03  0.00000000000E+00 0. -1.
    2000013    1    1    2    0    0 -0.11582017545E+03 -0.73086292407E+03  0.12500652253E+04  0.17357240548E+04  0.95000000000E+03 0.  0.
   -2000013    1    1    2    0    0  0.11582017545E+03  0.73086292407E+03  0.13203695220E+04  0.17870228319E+04  0.95000000000E+03 0.  0.
<mgrwt>
<rscale>  0 0.24088609E+04</rscale>
<asrwt>0</asrwt>
<pdfrwt beam="1">  1        2 0.46870627E+00 0.24088609E+04</pdfrwt>
<pdfrwt beam="2">  1       -2 0.73254782E-01 0.24088609E+04</pdfrwt>
<totfact> 0.24612388E+00</totfact>
</mgrwt>
</event>
<event>
 4    1  0.2048914E-008  0.2802514E+04  0.7816531E-02  0.8302488E-01
         -2   -1    0    0    0  501 -0.00000000000E+00  0.00000000000E+00  0.53202952450E+03  0.53202952450E+03  0.00000000000E+00 0. -1.
          2   -1    0    0  501    0  0.00000000000E+00 -0.00000000000E+00 -0.36906250079E+04  0.36906250079E+04  0.00000000000E+00 0.  1.
    2000013    1    1    2    0    0  0.11217076479E+03  0.82470428165E+03 -0.66489022204E+03  0.14273396372E+04  0.95000000000E+03 0.  0.
   -2000013    1    1    2    0    0 -0.11217076479E+03 -0.82470428165E+03 -0.24937052614E+04  0.27953148952E+04  0.95000000000E+03 0.  0.
<mgrwt>
<rscale>  0 0.28025142E+04</rscale>
<asrwt>0</asrwt>
<pdfrwt beam="2">  1        2 0.56778846E+00 0.28025142E+04</pdfrwt>
<pdfrwt beam="1">  1       -2 0.81850697E-01 0.28025142E+04</pdfrwt>
<totfact> 0.67739238E-01</totfact>
</mgrwt>
</event>
<event>
 4    1  0.2048914E-008  0.2968544E+04  0.7816531E-02  0.8252771E-01
         -2   -1    0    0    0  501 -0.00000000000E+00  0.00000000000E+00  0.78898721884E+03  0.78898721884E+03  0.00000000000E+00 0. -1.
          2   -1    0    0  501    0  0.00000000000E+00 -0.00000000000E+00 -0.27922676953E+04  0.27922676953E+04  0.00000000000E+00 0.  1.
    2000013    1    1    2    0    0  0.76473780659E+03 -0.72847743984E+03 -0.48266303835E+03  0.15003222660E+04  0.95000000000E+03 0.  0.
   -2000013    1    1    2    0    0 -0.76473780659E+03  0.72847743984E+03 -0.15206174381E+04  0.20809326482E+04  0.95000000000E+03 0.  0.
<mgrwt>
<rscale>  0 0.29685441E+04</rscale>
<asrwt>0</asrwt>
<pdfrwt beam="2">  1        2 0.42957965E+00 0.29685441E+04</pdfrwt>
<pdfrwt beam="1">  1       -2 0.12138265E+00 0.29685441E+04</pdfrwt>
<totfact> 0.10348101E+00</totfact>
</mgrwt>
</event>
<event>
 4    1  0.2048914E-008  0.2202733E+04  0.7816531E-02  0.8517291E-01
         -2   -1    0    0    0  501 -0.00000000000E+00  0.00000000000E+00  0.24208368089E+04  0.24208368089E+04  0.00000000000E+00 0. -1.
          2   -1    0    0  501    0  0.00000000000E+00 -0.00000000000E+00 -0.50106992207E+03  0.50106992207E+03  0.00000000000E+00 0.  1.
    2000013    1    1    2    0    0 -0.39938367237E+03 -0.26126425058E+03  0.13414479076E+04  0.17116509034E+04  0.95000000000E+03 0.  0.
   -2000013    1    1    2    0    0  0.39938367237E+03  0.26126425058E+03  0.57831897926E+03  0.12102558276E+04  0.95000000000E+03 0.  0.
<mgrwt>
<rscale>  0 0.22027333E+04</rscale>
<asrwt>0</asrwt>
<pdfrwt beam="2">  1        2 0.77087682E-01 0.22027333E+04</pdfrwt>
<pdfrwt beam="1">  1       -2 0.37243642E+00 0.22027333E+04</pdfrwt>
<totfact> 0.62969834E-01</totfact>
</mgrwt>
</event>
<event>
 4    1  0.2048914E-008  0.2317195E+04  0.7816531E-02  0.8471172E-01
          2   -1    0    0  501    0  0.00000000000E+00  0.00000000000E+00  0.26167085704E+04  0.26167085704E+04  0.00000000000E+00 0.  1.
         -2   -1    0    0    0  501 -0.00000000000E+00 -0.00000000000E+00 -0.51299098920E+03  0.51299098920E+03  0.00000000000E+00 0. -1.
    2000013    1    1    2    0    0  0.61011549963E+03  0.84765814980E+00  0.70067568492E+03  0.13287919539E+04  0.95000000000E+03 0.  0.
   -2000013    1    1    2    0    0 -0.61011549963E+03 -0.84765814980E+00  0.14030418963E+04  0.18009076056E+04  0.95000000000E+03 0.  0.
<mgrwt>
<rscale>  0 0.23171948E+04</rscale>
<asrwt>0</asrwt>
<pdfrwt beam="1">  1        2 0.40257054E+00 0.23171948E+04</pdfrwt>
<pdfrwt beam="2">  1       -2 0.78921692E-01 0.23171948E+04</pdfrwt>
<totfact> 0.38387879E+00</totfact>
</mgrwt>
</event>
<event>
 4    1  0.2048914E-008  0.4123892E+04  0.7816531E-02  0.7980010E-01
          2   -1    0    0  501    0  0.00000000000E+00  0.00000000000E+00  0.24651759060E+04  0.24651759060E+04  0.00000000000E+00 0.  1.
         -2   -1    0    0    0  501 -0.00000000000E+00 -0.00000000000E+00 -0.17246722401E+04  0.17246722401E+04  0.00000000000E+00 0. -1.
    2000013    1    1    2    0    0 -0.10118081912E+04 -0.57682204369E+02 -0.11779431251E+04  0.18212998266E+04  0.95000000000E+03 0.  0.
   -2000013    1    1    2    0    0  0.10118081912E+04  0.57682204369E+02  0.19184467910E+04  0.23685483196E+04  0.95000000000E+03 0.  0.
<mgrwt>
<rscale>  0 0.41238916E+04</rscale>
<asrwt>0</asrwt>
<pdfrwt beam="1">  1        2 0.37925783E+00 0.41238916E+04</pdfrwt>
<pdfrwt beam="2">  1       -2 0.26533419E+00 0.41238916E+04</pdfrwt>
<totfact> 0.14741044E-01</totfact>
</mgrwt>
</event>
<event>
 4    1  0.2048914E-008  0.1999377E+04  0.7816531E-02  0.8606912E-01
         -4   -1    0    0    0  501 -0.00000000000E+00  0.00000000000E+00  0.26736147597E+04  0.26736147597E+04  0.00000000000E+00 0. -1.
          4   -1    0    0  501    0  0.00000000000E+00 -0.00000000000E+00 -0.37379243091E+03  0.37379243091E+03  0.00000000000E+00 0.  1.
    2000013    1    1    2    0    0  0.17488045264E+03  0.16499167277E+03  0.84863410370E+03  0.12963353219E+04  0.95000000000E+03 0.  0.
   -2000013    1    1    2    0    0 -0.17488045264E+03 -0.16499167277E+03  0.14511882251E+04  0.17510718687E+04  0.95000000000E+03 0.  0.
<mgrwt>
<rscale>  0 0.19993769E+04</rscale>
<asrwt>0</asrwt>
<pdfrwt beam="2">  1        4 0.57506530E-01 0.19993769E+04</pdfrwt>
<pdfrwt beam="1">  1       -4 0.41132533E+00 0.19993769E+04</pdfrwt>
<totfact> 0.30455821E-02</totfact>
</mgrwt>
</event>
<event>
 4    1  0.2048914E-008  0.2123477E+04  0.7816531E-02  0.8550971E-01
         -2   -1    0    0    0  501 -0.00000000000E+00  0.00000000000E+00  0.42540079900E+03  0.42540079900E+03  0.00000000000E+00 0. -1.
          2   -1    0    0  501    0  0.00000000000E+00 -0.00000000000E+00 -0.26499457413E+04  0.26499457413E+04  0.00000000000E+00 0.  1.
    2000013    1    1    2    0    0 -0.25695090018E+03 -0.32173315098E+03 -0.77184503645E+03  0.12914258577E+04  0.95000000000E+03 0.  0.
   -2000013    1    1    2    0    0  0.25695090018E+03  0.32173315098E+03 -0.14526999059E+04  0.17839206827E+04  0.95000000000E+03 0.  0.
<mgrwt>
<rscale>  0 0.21234774E+04</rscale>
<asrwt>0</asrwt>
<pdfrwt beam="2">  1        2 0.40768397E+00 0.21234774E+04</pdfrwt>
<pdfrwt beam="1">  1       -2 0.65446275E-01 0.21234774E+04</pdfrwt>
<totfact> 0.56297710E+00</totfact>
</mgrwt>
</event>
<event>
 4    1  0.2048914E-008  0.2573405E+04  0.7816531E-02  0.8377291E-01
          2   -1    0    0  501    0  0.00000000000E+00  0.00000000000E+00  0.17950431576E+04  0.17950431576E+04  0.00000000000E+00 0.  1.
         -2   -1    0    0    0  501 -0.00000000000E+00 -0.00000000000E+00 -0.92231980953E+03  0.92231980953E+03  0.00000000000E+00 0. -1.
    2000013    1    1    2    0    0  0.83628872703E+03  0.19263527859E+02  0.68026780023E+03  0.14370157266E+04  0.95000000000E+03 0.  0.
   -2000013    1    1    2    0    0 -0.83628872703E+03 -0.19263527859E+02  0.19245554785E+03  0.12803472405E+04  0.95000000000E+03 0.  0.
<mgrwt>
<rscale>  0 0.25734054E+04</rscale>
<asrwt>0</asrwt>
<pdfrwt beam="1">  1        2 0.27616049E+00 0.25734054E+04</pdfrwt>
<pdfrwt beam="2">  1       -2 0.14189536E+00 0.25734054E+04</pdfrwt>
<totfact> 0.26699801E+00</totfact>
</mgrwt>
</event>
<event>
 4    1  0.2048914E-008  0.2563741E+04  0.7816531E-02  0.8380623E-01
         -1   -1    0    0    0  501 -0.00000000000E+00  0.00000000000E+00  0.66752235947E+03  0.66752235947E+03  0.00000000000E+00 0. -1.
          1   -1    0    0  501    0  0.00000000000E+00 -0.00000000000E+00 -0.24616274582E+04  0.24616274582E+04  0.00000000000E+00 0.  1.
    2000013    1    1    2    0    0  0.51536428107E+03  0.48384924681E+03 -0.29789142161E+03  0.12210445262E+04  0.95000000000E+03 0.  0.
   -2000013    1    1    2    0    0 -0.51536428107E+03 -0.48384924681E+03 -0.14962136771E+04  0.19081052915E+04  0.95000000000E+03 0.  0.
<mgrwt>
<rscale>  0 0.25637405E+04</rscale>
<asrwt>0</asrwt>
<pdfrwt beam="2">  1        1 0.37871191E+00 0.25637405E+04</pdfrwt>
<pdfrwt beam="1">  1       -1 0.10269575E+00 0.25637405E+04</pdfrwt>
<totfact> 0.11403317E+00</totfact>
</mgrwt>
</event>
<event>
 4    1  0.2048914E-008  0.2592295E+04  0.7816531E-02  0.8370823E-01
          2   -1    0    0  501    0  0.00000000000E+00  0.00000000000E+00  0.27293099920E+04  0.27293099920E+04  0.00000000000E+00 0.  1.
         -2   -1    0    0    0  501 -0.00000000000E+00 -0.00000000000E+00 -0.61553944210E+03  0.61553944210E+03  0.00000000000E+00 0. -1.
    2000013    1    1    2    0    0  0.79853120134E+03  0.66890882416E+02  0.58214531338E+03  0.13724137989E+04  0.95000000000E+03 0.  0.
   -2000013    1    1    2    0    0 -0.79853120134E+03 -0.66890882416E+02  0.15316252365E+04  0.19724356351E+04  0.95000000000E+03 0.  0.
<mgrwt>
<rscale>  0 0.25922947E+04</rscale>
<asrwt>0</asrwt>
<pdfrwt beam="1">  1        2 0.41989384E+00 0.25922947E+04</pdfrwt>
<pdfrwt beam="2">  1       -2 0.94698378E-01 0.25922947E+04</pdfrwt>
<totfact> 0.21193206E+00</totfact>
</mgrwt>
</event>
<event>
 4    1  0.2048914E-008  0.2177378E+04  0.7816531E-02  0.8527903E-01
         -2   -1    0    0    0  501 -0.00000000000E+00  0.00000000000E+00  0.57619786636E+03  0.57619786636E+03  0.00000000000E+00 0. -1.
          2   -1    0    0  501    0  0.00000000000E+00 -0.00000000000E+00 -0.20570079248E+04  0.20570079248E+04  0.00000000000E+00 0.  1.
    2000013    1    1    2    0    0 -0.47032932583E+03  0.16075002239E+03 -0.96888311519E+03  0.14450898710E+04  0.95000000000E+03 0.  0.
   -2000013    1    1    2    0    0  0.47032932583E+03 -0.16075002239E+03 -0.51192694324E+03  0.11881159201E+04  0.95000000000E+03 0.  0.
<mgrwt>
<rscale>  0 0.21773779E+04</rscale>
<asrwt>0</asrwt>
<pdfrwt beam="2">  1        2 0.31646276E+00 0.21773779E+04</pdfrwt>
<pdfrwt beam="1">  1       -2 0.88645825E-01 0.21773779E+04</pdfrwt>
<totfact> 0.62228642E+00</totfact>
</mgrwt>
</event>
<event>
 4    1  0.2048914E-008  0.3443932E+04  0.7816531E-02  0.8127207E-01
          2   -1    0    0  501    0  0.00000000000E+00  0.00000000000E+00  0.14718421423E+04  0.14718421423E+04  0.00000000000E+00 0.  1.
         -2   -1    0    0    0  501 -0.00000000000E+00 -0.00000000000E+00 -0.20145960513E+04  0.20145960513E+04  0.00000000000E+00 0. -1.
    2000013    1    1    2    0    0 -0.35071457546E+03 -0.10673529370E+04  0.63432961577E+03  0.16022225398E+04  0.95000000000E+03 0.  0.
   -2000013    1    1    2    0    0  0.35071457546E+03  0.10673529370E+04 -0.11770835248E+04  0.18842156538E+04  0.95000000000E+03 0.  0.
<mgrwt>
<rscale>  0 0.34439323E+04</rscale>
<asrwt>0</asrwt>
<pdfrwt beam="1">  1        2 0.22643725E+00 0.34439323E+04</pdfrwt>
<pdfrwt beam="2">  1       -2 0.30993785E+00 0.34439323E+04</pdfrwt>
<totfact> 0.30018505E-01</totfact>
</mgrwt>
</event>
<event>
 4    1  0.2048914E-008  0.2471026E+04  0.7816531E-02  0.8413381E-01
          1   -1    0    0  501    0  0.00000000000E+00  0.00000000000E+00  0.22411435304E+04  0.22411435304E+04  0.00000000000E+00 0.  1.
         -1   -1    0    0    0  501 -0.00000000000E+00 -0.00000000000E+00 -0.68112193548E+03  0.68112193548E+03  0.00000000000E+00 0. -1.
    2000013    1    1    2    0    0 -0.70837460568E+03 -0.16347504704E+03  0.11454233593E+04  0.16562044998E+04  0.95000000000E+03 0.  0.
   -2000013    1    1    2    0    0  0.70837460568E+03  0.16347504704E+03  0.41459823562E+03  0.12660609661E+04  0.95000000000E+03 0.  0.
<mgrwt>
<rscale>  0 0.24710257E+04</rscale>
<asrwt>0</asrwt>
<pdfrwt beam="1">  1        1 0.34479131E+00 0.24710257E+04</pdfrwt>
<pdfrwt beam="2">  1       -1 0.10478799E+00 0.24710257E+04</pdfrwt>
<totfact> 0.15552772E+00</totfact>
</mgrwt>
</event>
<event>
 4    1  0.2048914E-008  0.2981687E+04  0.7816531E-02  0.8248980E-01
         -2   -1    0    0    0  501 -0.00000000000E+00  0.00000000000E+00  0.88310438613E+03  0.88310438613E+03  0.00000000000E+00 0. -1.
          2   -1    0    0  501    0  0.00000000000E+00 -0.00000000000E+00 -0.25168188957E+04  0.25168188957E+04  0.00000000000E+00 0.  1.
    2000013    1    1    2    0    0  0.63599378417E+03 -0.11872397366E+03  0.26581570231E+03  0.11797209259E+04  0.95000000000E+03 0.  0.
   -2000013    1    1    2    0    0 -0.63599378417E+03  0.11872397366E+03 -0.18995302119E+04  0.22202023560E+04  0.95000000000E+03 0.  0.
<mgrwt>
<rscale>  0 0.29816866E+04</rscale>
<asrwt>0</asrwt>
<pdfrwt beam="2">  1        2 0.38720290E+00 0.29816866E+04</pdfrwt>
<pdfrwt beam="1">  1       -2 0.13586222E+00 0.29816866E+04</pdfrwt>
<totfact> 0.11323316E+00</totfact>
</mgrwt>
</event>
<event>
 4    1  0.2048914E-008  0.2260139E+04  0.7816531E-02  0.8493806E-01
          2   -1    0    0  501    0  0.00000000000E+00  0.00000000000E+00  0.19862841078E+04  0.19862841078E+04  0.00000000000E+00 0.  1.
         -2   -1    0    0    0  501 -0.00000000000E+00 -0.00000000000E+00 -0.64293764117E+03  0.64293764117E+03  0.00000000000E+00 0. -1.
    2000013    1    1    2    0    0 -0.47560795321E+03  0.29581571846E+03  0.38471972863E+03  0.11679979170E+04  0.95000000000E+03 0.  0.
   -2000013    1    1    2    0    0  0.47560795321E+03 -0.29581571846E+03  0.95862673805E+03  0.14612238320E+04  0.95000000000E+03 0.  0.
<mgrwt>
<rscale>  0 0.22601388E+04</rscale>
<asrwt>0</asrwt>
<pdfrwt beam="1">  1        2 0.30558217E+00 0.22601388E+04</pdfrwt>
<pdfrwt beam="2">  1       -2 0.98913484E-01 0.22601388E+04</pdfrwt>
<totfact> 0.52420867E+00</totfact>
</mgrwt>
</event>
<event>
 4    1  0.2048914E-008  0.2369438E+04  0.7816531E-02  0.8451035E-01
          2   -1    0    0  501    0  0.00000000000E+00  0.00000000000E+00  0.18517927783E+04  0.18517927783E+04  0.00000000000E+00 0.  1.
         -2   -1    0    0    0  501 -0.00000000000E+00 -0.00000000000E+00 -0.75794615629E+03  0.75794615629E+03  0.00000000000E+00 0. -1.
    2000013    1    1    2    0    0 -0.34181413484E+02  0.70269337890E+03  0.46080924551E+03  0.12687755966E+04  0.95000000000E+03 0.  0.
   -2000013    1    1    2    0    0  0.34181413484E+02 -0.70269337890E+03  0.63303737651E+03  0.13409633380E+04  0.95000000000E+03 0.  0.
<mgrwt>
<rscale>  0 0.23694381E+04</rscale>
<asrwt>0</asrwt>
<pdfrwt beam="1">  1        2 0.28489120E+00 0.23694381E+04</pdfrwt>
<pdfrwt beam="2">  1       -2 0.11660710E+00 0.23694381E+04</pdfrwt>
<totfact> 0.41497621E+00</totfact>
</mgrwt>
</event>
<event>
 4    1  0.2048914E-008  0.2488969E+04  0.7816531E-02  0.8406926E-01
         -2   -1    0    0    0  501 -0.00000000000E+00  0.00000000000E+00  0.75632343484E+03  0.75632343484E+03  0.00000000000E+00 0. -1.
          2   -1    0    0  501    0  0.00000000000E+00 -0.00000000000E+00 -0.20477248175E+04  0.20477248175E+04  0.00000000000E+00 0.  1.
    2000013    1    1    2    0    0 -0.24692616979E+03 -0.66068133123E+03 -0.21116698907E+03  0.12019001007E+04  0.95000000000E+03 0.  0.
   -2000013    1    1    2    0    0  0.24692616979E+03  0.66068133123E+03 -0.10802343936E+04  0.16021481517E+04  0.95000000000E+03 0.  0.
<mgrwt>
<rscale>  0 0.24889695E+04</rscale>
<asrwt>0</asrwt>
<pdfrwt beam="2">  1        2 0.31503459E+00 0.24889695E+04</pdfrwt>
<pdfrwt beam="1">  1       -2 0.11635745E+00 0.24889695E+04</pdfrwt>
<totfact> 0.32142256E+00</totfact>
</mgrwt>
</event>
<event>
 4    1  0.2048914E-008  0.2294992E+04  0.7816531E-02  0.8479898E-01
          2   -1    0    0  501    0  0.00000000000E+00  0.00000000000E+00  0.98653471782E+03  0.98653471782E+03  0.00000000000E+00 0.  1.
         -2   -1    0    0    0  501 -0.00000000000E+00 -0.00000000000E+00 -0.13347198739E+04  0.13347198739E+04  0.00000000000E+00 0. -1.
    2000013    1    1    2    0    0 -0.61140146438E+03 -0.30120144433E+02 -0.37518551130E+03  0.11907909731E+04  0.95000000000E+03 0.  0.
   -2000013    1    1    2    0    0  0.61140146438E+03  0.30120144433E+02  0.27000355246E+02  0.11304636186E+04  0.95000000000E+03 0.  0.
<mgrwt>
<rscale>  0 0.22949924E+04</rscale>
<asrwt>0</asrwt>
<pdfrwt beam="1">  1        2 0.15177457E+00 0.22949924E+04</pdfrwt>
<pdfrwt beam="2">  1       -2 0.20534152E+00 0.22949924E+04</pdfrwt>
<totfact> 0.28598643E+00</totfact>
</mgrwt>
</event>
<event>
 4    1  0.2048914E-008  0.3191811E+04  0.7816531E-02  0.8190983E-01
          2   -1    0    0  501    0  0.00000000000E+00  0.00000000000E+00  0.72351039816E+03  0.72351039816E+03  0.00000000000E+00 0.  1.
         -2   -1    0    0    0  501 -0.00000000000E+00 -0.00000000000E+00 -0.35202189110E+04  0.35202189110E+04  0.00000000000E+00 0. -1.
    2000013    1    1    2    0    0 -0.12735188968E+04  0.96271356659E+02 -0.15516669100E+04  0.22229009771E+04  0.95000000000E+03 0.  0.
   -2000013    1    1    2    0    0  0.12735188968E+04 -0.96271356659E+02 -0.12450416028E+04  0.20208283320E+04  0.95000000000E+03 0.  0.
<mgrwt>
<rscale>  0 0.31918114E+04</rscale>
<asrwt>0</asrwt>
<pdfrwt beam="1">  1        2 0.11130930E+00 0.31918114E+04</pdfrwt>
<pdfrwt beam="2">  1       -2 0.54157212E+00 0.31918114E+04</pdfrwt>
<totfact> 0.31122373E-02</totfact>
</mgrwt>
</event>
<event>
 4    1  0.2048914E-008  0.2985305E+04  0.7816531E-02  0.8247940E-01
         -2   -1    0    0    0  501 -0.00000000000E+00  0.00000000000E+00  0.10415467553E+04  0.10415467553E+04  0.00000000000E+00 0. -1.
          2   -1    0    0  501    0  0.00000000000E+00 -0.00000000000E+00 -0.21391377727E+04  0.21391377727E+04  0.00000000000E+00 0.  1.
    2000013    1    1    2    0    0 -0.17483287394E+03 -0.11297965820E+04 -0.40385886136E+03  0.15403275075E+04  0.95000000000E+03 0.  0.
   -2000013    1    1    2    0    0  0.17483287394E+03  0.11297965820E+04 -0.69373215608E+03  0.16403570205E+04  0.95000000000E+03 0.  0.
<mgrwt>
<rscale>  0 0.29853053E+04</rscale>
<asrwt>0</asrwt>
<pdfrwt beam="2">  1        2 0.32909811E+00 0.29853053E+04</pdfrwt>
<pdfrwt beam="1">  1       -2 0.16023796E+00 0.29853053E+04</pdfrwt>
<totfact> 0.12012318E+00</totfact>
</mgrwt>
</event>
<event>
 4    1  0.2048914E-008  0.2500624E+04  0.7816531E-02  0.8402763E-01
         -2   -1    0    0    0  501 -0.00000000000E+00  0.00000000000E+00  0.71484208831E+03  0.71484208831E+03  0.00000000000E+00 0. -1.
          2   -1    0    0  501    0  0.00000000000E+00 -0.00000000000E+00 -0.21868893010E+04  0.21868893010E+04  0.00000000000E+00 0.  1.
    2000013    1    1    2    0    0  0.75829616067E+03  0.20579808845E+03 -0.49424012403E+03  0.13282090275E+04  0.95000000000E+03 0.  0.
   -2000013    1    1    2    0    0 -0.75829616067E+03 -0.20579808845E+03 -0.97780708866E+03  0.15735223618E+04  0.95000000000E+03 0.  0.
<mgrwt>
<rscale>  0 0.25006243E+04</rscale>
<asrwt>0</asrwt>
<pdfrwt beam="2">  1        2 0.33644450E+00 0.25006243E+04</pdfrwt>
<pdfrwt beam="1">  1       -2 0.10997571E+00 0.25006243E+04</pdfrwt>
<totfact> 0.30788801E+00</totfact>
</mgrwt>
</event>
<event>
 4    1  0.2048914E-008  0.2193260E+04  0.7816531E-02  0.8521239E-01
         -2   -1    0    0    0  501 -0.00000000000E+00  0.00000000000E+00  0.13260992136E+04  0.13260992136E+04  0.00000000000E+00 0. -1.
          2   -1    0    0  501    0  0.00000000000E+00 -0.00000000000E+00 -0.90686851662E+03  0.90686851662E+03  0.00000000000E+00 0.  1.
    2000013    1    1    2    0    0  0.39526694964E+03  0.33241645371E+02  0.59428725211E+03  0.11887044656E+04  0.95000000000E+03 0.  0.
   -2000013    1    1    2    0    0 -0.39526694964E+03 -0.33241645371E+02 -0.17505655511E+03  0.10442632647E+04  0.95000000000E+03 0.  0.
<mgrwt>
<rscale>  0 0.21932602E+04</rscale>
<asrwt>0</asrwt>
<pdfrwt beam="2">  1        2 0.13951823E+00 0.21932602E+04</pdfrwt>
<pdfrwt beam="1">  1       -2 0.20401526E+00 0.21932602E+04</pdfrwt>
<totfact> 0.33203289E+00</totfact>
</mgrwt>
</event>
<event>
 4    1  0.2048914E-008  0.2451321E+04  0.7816531E-02  0.8420536E-01
          2   -1    0    0  501    0  0.00000000000E+00  0.00000000000E+00  0.11881687665E+04  0.11881687665E+04  0.00000000000E+00 0.  1.
         -2   -1    0    0    0  501 -0.00000000000E+00 -0.00000000000E+00 -0.12643356419E+04  0.12643356419E+04  0.00000000000E+00 0. -1.
    2000013    1    1    2    0    0  0.22853645718E+03  0.57446699688E+03  0.42851367585E+03  0.12117612030E+04  0.95000000000E+03 0.  0.
   -2000013    1    1    2    0    0 -0.22853645718E+03 -0.57446699688E+03 -0.50468055122E+03  0.12407432053E+04  0.95000000000E+03 0.  0.
<mgrwt>
<rscale>  0 0.24513214E+04</rscale>
<asrwt>0</asrwt>
<pdfrwt beam="1">  1        2 0.18279519E+00 0.24513214E+04</pdfrwt>
<pdfrwt beam="2">  1       -2 0.19451318E+00 0.24513214E+04</pdfrwt>
<totfact> 0.24926890E+00</totfact>
</mgrwt>
</event>
<event>
 4    1  0.2048914E-008  0.2600153E+04  0.7816531E-02  0.8368149E-01
          2   -1    0    0  501    0  0.00000000000E+00  0.00000000000E+00  0.19485564489E+04  0.19485564489E+04  0.00000000000E+00 0. -1.
         -2   -1    0    0    0  501 -0.00000000000E+00 -0.00000000000E+00 -0.86741112333E+03  0.86741112333E+03  0.00000000000E+00 0.  1.
    2000013    1    1    2    0    0  0.45502565712E+03 -0.46530466068E+03 -0.11295579780E+03  0.11570720756E+04  0.95000000000E+03 0.  0.
   -2000013    1    1    2    0    0 -0.45502565712E+03  0.46530466068E+03  0.11941011234E+04  0.16588954966E+04  0.95000000000E+03 0.  0.
<mgrwt>
<rscale>  0 0.26001535E+04</rscale>
<asrwt>0</asrwt>
<pdfrwt beam="1">  1        2 0.29977791E+00 0.26001535E+04</pdfrwt>
<pdfrwt beam="2">  1       -2 0.13344787E+00 0.26001535E+04</pdfrwt>
<totfact> 0.25651030E+00</totfact>
</mgrwt>
</event>
<event>
 4    1  0.2048914E-008  0.2394275E+04  0.7816531E-02  0.8441650E-01
         -2   -1    0    0    0  501 -0.00000000000E+00  0.00000000000E+00  0.10972083919E+04  0.10972083919E+04  0.00000000000E+00 0. -1.
          2   -1    0    0  501    0  0.00000000000E+00 -0.00000000000E+00 -0.13061674050E+04  0.13061674050E+04  0.00000000000E+00 0.  1.
    2000013    1    1    2    0    0  0.48660225263E+03  0.33456761135E+03 -0.53262230694E+03  0.12389123297E+04  0.95000000000E+03 0.  0.
   -2000013    1    1    2    0    0 -0.48660225263E+03 -0.33456761135E+03  0.32366329386E+03  0.11644634673E+04  0.95000000000E+03 0.  0.
<mgrwt>
<rscale>  0 0.23942747E+04</rscale>
<asrwt>0</asrwt>
<pdfrwt beam="2">  1        2 0.20094883E+00 0.23942747E+04</pdfrwt>
<pdfrwt beam="1">  1       -2 0.16880129E+00 0.23942747E+04</pdfrwt>
<totfact> 0.32065022E+00</totfact>
</mgrwt>
</event>
<event>
 4    1  0.2048914E-008  0.2434154E+04  0.7816531E-02  0.8426827E-01
          2   -1    0    0  501    0  0.00000000000E+00  0.00000000000E+00  0.12104617181E+04  0.12104617181E+04  0.00000000000E+00 0.  1.
         -2   -1    0    0    0  501 -0.00000000000E+00 -0.00000000000E+00 -0.12237279555E+04  0.12237279555E+04  0.00000000000E+00 0. -1.
    2000013    1    1    2    0    0 -0.49369968648E+03 -0.36273710497E+03  0.44443705208E+03  0.12146365222E+04  0.95000000000E+03 0.  0.
   -2000013    1    1    2    0    0  0.49369968648E+03  0.36273710497E+03 -0.45770328949E+03  0.12195531513E+04  0.95000000000E+03 0.  0.
<mgrwt>
<rscale>  0 0.24341535E+04</rscale>
<asrwt>0</asrwt>
<pdfrwt beam="1">  1        2 0.18622488E+00 0.24341535E+04</pdfrwt>
<pdfrwt beam="2">  1       -2 0.18826584E+00 0.24341535E+04</pdfrwt>
<totfact> 0.26656733E+00</totfact>
</mgrwt>
</event>
<event>
 4    1  0.2048914E-008  0.2840194E+04  0.7816531E-02  0.8290897E-01
          2   -1    0    0  501    0  0.00000000000E+00  0.00000000000E+00  0.19072246814E+04  0.19072246814E+04  0.00000000000E+00 0.  1.
         -2   -1    0    0    0  501 -0.00000000000E+00 -0.00000000000E+00 -0.10573872001E+04  0.10573872001E+04  0.00000000000E+00 0. -1.
    2000013    1    1    2    0    0 -0.10207568108E+04  0.20277801889E+03  0.60903022876E+03  0.15350834542E+04  0.95000000000E+03 0.  0.
   -2000013    1    1    2    0    0  0.10207568108E+04 -0.20277801889E+03  0.24080725248E+03  0.14295284273E+04  0.95000000000E+03 0.  0.
<mgrwt>
<rscale>  0 0.28401936E+04</rscale>
<asrwt>0</asrwt>
<pdfrwt beam="1">  1        2 0.29341918E+00 0.28401936E+04</pdfrwt>
<pdfrwt beam="2">  1       -2 0.16267495E+00 0.28401936E+04</pdfrwt>
<totfact> 0.15709931E+00</totfact>
</mgrwt>
</event>
<event>
 4    1  0.2048914E-008  0.2340150E+04  0.7816531E-02  0.8462257E-01
          2   -1    0    0  501    0  0.00000000000E+00  0.00000000000E+00  0.22764961303E+04  0.22764961303E+04  0.00000000000E+00 0.  1.
         -2   -1    0    0    0  501 -0.00000000000E+00 -0.00000000000E+00 -0.60139568941E+03  0.60139568941E+03  0.00000000000E+00 0. -1.
    2000013    1    1    2    0    0  0.48065330021E+03 -0.44375982768E+03  0.59585796149E+03  0.12982669563E+04  0.95000000000E+03 0.  0.
   -2000013    1    1    2    0    0 -0.48065330021E+03  0.44375982768E+03  0.10792424794E+04  0.15796248634E+04  0.95000000000E+03 0.  0.
<mgrwt>
<rscale>  0 0.23401495E+04</rscale>
<asrwt>0</asrwt>
<pdfrwt beam="1">  1        2 0.35023017E+00 0.23401495E+04</pdfrwt>
<pdfrwt beam="2">  1       -2 0.92522415E-01 0.23401495E+04</pdfrwt>
<totfact> 0.41869144E+00</totfact>
</mgrwt>
</event>
<event>
 4    1  0.2048914E-008  0.2799516E+04  0.7816531E-02  0.8303419E-01
          2   -1    0    0  501    0  0.00000000000E+00  0.00000000000E+00  0.28697967436E+04  0.28697967436E+04  0.00000000000E+00 0.  1.
         -2   -1    0    0    0  501 -0.00000000000E+00 -0.00000000000E+00 -0.68273894676E+03  0.68273894676E+03  0.00000000000E+00 0. -1.
    2000013    1    1    2    0    0  0.69993758797E+02  0.55548118597E+03  0.21876267663E+04  0.24498304723E+04  0.95000000000E+03 0.  0.
   -2000013    1    1    2    0    0 -0.69993758797E+02 -0.55548118597E+03 -0.56896947980E+00  0.11027052181E+04  0.95000000000E+03 0.  0.
<mgrwt>
<rscale>  0 0.27995157E+04</rscale>
<asrwt>0</asrwt>
<pdfrwt beam="1">  1        2 0.44150718E+00 0.27995157E+04</pdfrwt>
<pdfrwt beam="2">  1       -2 0.10503676E+00 0.27995157E+04</pdfrwt>
<totfact> 0.13395612E+00</totfact>
</mgrwt>
</event>
<event>
 4    1  0.2048914E-008  0.2309273E+04  0.7816531E-02  0.8474274E-01
         -2   -1    0    0    0  501 -0.00000000000E+00  0.00000000000E+00  0.33434955486E+03  0.33434955486E+03  0.00000000000E+00 0. -1.
          2   -1    0    0  501    0  0.00000000000E+00 -0.00000000000E+00 -0.39873999059E+04  0.39873999059E+04  0.00000000000E+00 0.  1.
    2000013    1    1    2    0    0 -0.51986135912E+03  0.39837347238E+03 -0.19043238494E+04  0.22266357088E+04  0.95000000000E+03 0.  0.
   -2000013    1    1    2    0    0  0.51986135912E+03 -0.39837347238E+03 -0.17487265016E+04  0.20951137519E+04  0.95000000000E+03 0.  0.
<mgrwt>
<rscale>  0 0.23092729E+04</rscale>
<asrwt>0</asrwt>
<pdfrwt beam="2">  1        2 0.61344613E+00 0.23092729E+04</pdfrwt>
<pdfrwt beam="1">  1       -2 0.51438394E-01 0.23092729E+04</pdfrwt>
<totfact> 0.11393097E+00</totfact>
</mgrwt>
</event>
<event>
 4    1  0.2048914E-008  0.2950514E+04  0.7816531E-02  0.8258005E-01
         -2   -1    0    0    0  501 -0.00000000000E+00  0.00000000000E+00  0.91615126655E+03  0.91615126655E+03  0.00000000000E+00 0. -1.
          2   -1    0    0  501    0  0.00000000000E+00 -0.00000000000E+00 -0.23755717475E+04  0.23755717475E+04  0.00000000000E+00 0.  1.
    2000013    1    1    2    0    0 -0.56457882868E+02  0.91260349391E+03  0.85143580161E+01  0.13185617634E+04  0.95000000000E+03 0.  0.
   -2000013    1    1    2    0    0  0.56457882868E+02 -0.91260349391E+03 -0.14679348390E+04  0.19731612507E+04  0.95000000000E+03 0.  0.
<mgrwt>
<rscale>  0 0.29505139E+04</rscale>
<asrwt>0</asrwt>
<pdfrwt beam="2">  1        2 0.36547257E+00 0.29505139E+04</pdfrwt>
<pdfrwt beam="1">  1       -2 0.14094635E+00 0.29505139E+04</pdfrwt>
<totfact> 0.12452029E+00</totfact>
</mgrwt>
</event>
<event>
 4    1  0.2048914E-008  0.3267893E+04  0.7816531E-02  0.8171113E-01
          2   -1    0    0  501    0  0.00000000000E+00  0.00000000000E+00  0.12490477917E+04  0.12490477917E+04  0.00000000000E+00 0.  1.
         -2   -1    0    0    0  501 -0.00000000000E+00 -0.00000000000E+00 -0.21374535376E+04  0.21374535376E+04  0.00000000000E+00 0. -1.
    2000013    1    1    2    0    0  0.77392591720E+03 -0.71224864728E+03 -0.12867445537E+04  0.19142808068E+04  0.95000000000E+03 0.  0.
   -2000013    1    1    2    0    0 -0.77392591720E+03  0.71224864728E+03  0.39833880786E+03  0.14722205224E+04  0.95000000000E+03 0.  0.
<mgrwt>
<rscale>  0 0.32678933E+04</rscale>
<asrwt>0</asrwt>
<pdfrwt beam="1">  1        2 0.19216120E+00 0.32678933E+04</pdfrwt>
<pdfrwt beam="2">  1       -2 0.32883900E+00 0.32678933E+04</pdfrwt>
<totfact> 0.31294088E-01</totfact>
</mgrwt>
</event>
<event>
 4    1  0.2048914E-008  0.2437601E+04  0.7816531E-02  0.8425559E-01
          2   -1    0    0  501    0  0.00000000000E+00  0.00000000000E+00  0.22121296212E+04  0.22121296212E+04  0.00000000000E+00 0.  1.
         -2   -1    0    0    0  501 -0.00000000000E+00 -0.00000000000E+00 -0.67151355868E+03  0.67151355868E+03  0.00000000000E+00 0. -1.
    2000013    1    1    2    0    0  0.22469255173E+03  0.71071520012E+03  0.96602733593E+03  0.15463866438E+04  0.95000000000E+03 0.  0.
   -2000013    1    1    2    0    0 -0.22469255173E+03 -0.71071520012E+03  0.57458872660E+03  0.13372565361E+04  0.95000000000E+03 0.  0.
<mgrwt>
<rscale>  0 0.24376013E+04</rscale>
<asrwt>0</asrwt>
<pdfrwt beam="1">  1        2 0.34032763E+00 0.24376013E+04</pdfrwt>
<pdfrwt beam="2">  1       -2 0.10330978E+00 0.24376013E+04</pdfrwt>
<totfact> 0.34822326E+00</totfact>
</mgrwt>
</event>
<event>
 4    1  0.2048914E-008  0.2354377E+04  0.7816531E-02  0.8456784E-01
         -2   -1    0    0    0  501 -0.00000000000E+00  0.00000000000E+00  0.10408552660E+04  0.10408552660E+04  0.00000000000E+00 0. -1.
          2   -1    0    0  501    0  0.00000000000E+00 -0.00000000000E+00 -0.13313792017E+04  0.13313792017E+04  0.00000000000E+00 0.  1.
    2000013    1    1    2    0    0  0.42619163447E+03 -0.29627511871E+03 -0.61121383806E+03  0.12431816485E+04  0.95000000000E+03 0.  0.
   -2000013    1    1    2    0    0 -0.42619163447E+03  0.29627511871E+03  0.32068990235E+03  0.11290528193E+04  0.95000000000E+03 0.  0.
<mgrwt>
<rscale>  0 0.23543772E+04</rscale>
<asrwt>0</asrwt>
<pdfrwt beam="2">  1        2 0.20482757E+00 0.23543772E+04</pdfrwt>
<pdfrwt beam="1">  1       -2 0.16013158E+00 0.23543772E+04</pdfrwt>
<totfact> 0.35961150E+00</totfact>
</mgrwt>
</event>
<event>
 4    1  0.2048914E-008  0.2791872E+04  0.7816531E-02  0.8305796E-01
         -2   -1    0    0    0  501 -0.00000000000E+00  0.00000000000E+00  0.23274731407E+04  0.23274731407E+04  0.00000000000E+00 0. -1.
          2   -1    0    0  501    0  0.00000000000E+00 -0.00000000000E+00 -0.83723310695E+03  0.83723310695E+03  0.00000000000E+00 0.  1.
    2000013    1    1    2    0    0 -0.47463864569E+03 -0.54852265763E+03 -0.72272422337E+02  0.11974482256E+04  0.95000000000E+03 0.  0.
   -2000013    1    1    2    0    0  0.47463864569E+03  0.54852265763E+03  0.15625124560E+04  0.19672580220E+04  0.95000000000E+03 0.  0.
<mgrwt>
<rscale>  0 0.27918722E+04</rscale>
<asrwt>0</asrwt>
<pdfrwt beam="2">  1        2 0.12880509E+00 0.27918722E+04</pdfrwt>
<pdfrwt beam="1">  1       -2 0.35807279E+00 0.27918722E+04</pdfrwt>
<totfact> 0.39020694E-01</totfact>
</mgrwt>
</event>
<event>
 4    1  0.2048914E-008  0.2287170E+04  0.7816531E-02  0.8482997E-01
          2   -1    0    0  501    0  0.00000000000E+00  0.00000000000E+00  0.17241605879E+04  0.17241605879E+04  0.00000000000E+00 0.  1.
         -2   -1    0    0    0  501 -0.00000000000E+00 -0.00000000000E+00 -0.75850616097E+03  0.75850616097E+03  0.00000000000E+00 0. -1.
    2000013    1    1    2    0    0 -0.46198518413E+03  0.38836614145E+03  0.26296052153E+03  0.11558143476E+04  0.95000000000E+03 0.  0.
   -2000013    1    1    2    0    0  0.46198518413E+03 -0.38836614145E+03  0.70269390544E+03  0.13268524013E+04  0.95000000000E+03 0.  0.
<mgrwt>
<rscale>  0 0.22871698E+04</rscale>
<asrwt>0</asrwt>
<pdfrwt beam="1">  1        2 0.26525547E+00 0.22871698E+04</pdfrwt>
<pdfrwt beam="2">  1       -2 0.11669326E+00 0.22871698E+04</pdfrwt>
<totfact> 0.49097992E+00</totfact>
</mgrwt>
</event>
<event>
 4    1  0.2048914E-008  0.1969937E+04  0.7816531E-02  0.8620806E-01
          2   -1    0    0  501    0  0.00000000000E+00  0.00000000000E+00  0.14641565347E+04  0.14641565347E+04  0.00000000000E+00 0.  1.
         -2   -1    0    0    0  501 -0.00000000000E+00 -0.00000000000E+00 -0.66260902934E+03  0.66260902934E+03  0.00000000000E+00 0. -1.
    2000013    1    1    2    0    0  0.11469606897E+03 -0.28278473860E+02  0.15057299260E+03  0.96908569612E+03  0.95000000000E+03 0.  0.
   -2000013    1    1    2    0    0 -0.11469606897E+03  0.28278473860E+02  0.65097451275E+03  0.11576798679E+04  0.95000000000E+03 0.  0.
<mgrwt>
<rscale>  0 0.19699374E+04</rscale>
<asrwt>0</asrwt>
<pdfrwt beam="1">  1        2 0.22525485E+00 0.19699374E+04</pdfrwt>
<pdfrwt beam="2">  1       -2 0.10193985E+00 0.19699374E+04</pdfrwt>
<totfact> 0.97759042E+00</totfact>
</mgrwt>
</event>
<event>
 4    1  0.2048914E-008  0.2028261E+04  0.7816531E-02  0.8593521E-01
         -1   -1    0    0    0  501 -0.00000000000E+00  0.00000000000E+00  0.59934888192E+03  0.59934888192E+03  0.00000000000E+00 0. -1.
          1   -1    0    0  501    0  0.00000000000E+00 -0.00000000000E+00 -0.17159626148E+04  0.17159626148E+04  0.00000000000E+00 0.  1.
    2000013    1    1    2    0    0 -0.24999093652E+03 -0.24990115583E+03 -0.52195292948E+03  0.11401232024E+04  0.95000000000E+03 0.  0.
   -2000013    1    1    2    0    0  0.24999093652E+03  0.24990115583E+03 -0.59466080339E+03  0.11751882943E+04  0.95000000000E+03 0.  0.
<mgrwt>
<rscale>  0 0.20282606E+04</rscale>
<asrwt>0</asrwt>
<pdfrwt beam="2">  1        1 0.26399425E+00 0.20282606E+04</pdfrwt>
<pdfrwt beam="1">  1       -1 0.92207520E-01 0.20282606E+04</pdfrwt>
<totfact> 0.49230621E+00</totfact>
</mgrwt>
</event>
<event>
 4    1  0.2048914E-008  0.3258310E+04  0.7816531E-02  0.8173585E-01
          2   -1    0    0  501    0  0.00000000000E+00  0.00000000000E+00  0.11851490751E+04  0.11851490751E+04  0.00000000000E+00 0.  1.
         -2   -1    0    0    0  501 -0.00000000000E+00 -0.00000000000E+00 -0.22395037338E+04  0.22395037338E+04  0.00000000000E+00 0. -1.
    2000013    1    1    2    0    0  0.11459053558E+03 -0.12740837332E+04 -0.17039911041E+03  0.16024843859E+04  0.95000000000E+03 0.  0.
   -2000013    1    1    2    0    0 -0.11459053558E+03  0.12740837332E+04 -0.88395554831E+03  0.18221684229E+04  0.95000000000E+03 0.  0.
<mgrwt>
<rscale>  0 0.32583099E+04</rscale>
<asrwt>0</asrwt>
<pdfrwt beam="1">  1        2 0.18233063E+00 0.32583099E+04</pdfrwt>
<pdfrwt beam="2">  1       -2 0.34453903E+00 0.32583099E+04</pdfrwt>
<totfact> 0.27273944E-01</totfact>
</mgrwt>
</event>
<event>
 4    1  0.2048914E-008  0.2442600E+04  0.7816531E-02  0.8423725E-01
          2   -1    0    0  501    0  0.00000000000E+00  0.00000000000E+00  0.64894869901E+03  0.64894869901E+03  0.00000000000E+00 0.  1.
         -2   -1    0    0    0  501 -0.00000000000E+00 -0.00000000000E+00 -0.22984468506E+04  0.22984468506E+04  0.00000000000E+00 0. -1.
    2000013    1    1    2    0    0  0.85487292885E+02  0.46564915836E+03 -0.95803863544E+02  0.10657464972E+04  0.95000000000E+03 0.  0.
   -2000013    1    1    2    0    0 -0.85487292885E+02 -0.46564915836E+03 -0.15536942881E+04  0.18816490525E+04  0.95000000000E+03 0.  0.
<mgrwt>
<rscale>  0 0.24426003E+04</rscale>
<asrwt>0</asrwt>
<pdfrwt beam="1">  1        2 0.99838261E-01 0.24426003E+04</pdfrwt>
<pdfrwt beam="2">  1       -2 0.35360721E+00 0.24426003E+04</pdfrwt>
<totfact> 0.59640112E-01</totfact>
</mgrwt>
</event>
<event>
 4    1  0.2048914E-008  0.3658718E+04  0.7816531E-02  0.8077172E-01
          2   -1    0    0  501    0  0.00000000000E+00  0.00000000000E+00  0.18403297084E+04  0.18403297084E+04  0.00000000000E+00 0.  1.
         -2   -1    0    0    0  501 -0.00000000000E+00 -0.00000000000E+00 -0.18184538320E+04  0.18184538320E+04  0.00000000000E+00 0. -1.
    2000013    1    1    2    0    0  0.10953615547E+04 -0.18111876248E+03 -0.10897332103E+04  0.18228108545E+04  0.95000000000E+03 0.  0.
   -2000013    1    1    2    0    0 -0.10953615547E+04  0.18111876248E+03  0.11116090867E+04  0.18359726859E+04  0.95000000000E+03 0.  0.
<mgrwt>
<rscale>  0 0.36587181E+04</rscale>
<asrwt>0</asrwt>
<pdfrwt beam="1">  1        2 0.28312765E+00 0.36587181E+04</pdfrwt>
<pdfrwt beam="2">  1       -2 0.27976213E+00 0.36587181E+04</pdfrwt>
<totfact> 0.28088209E-01</totfact>
</mgrwt>
</event>
<event>
 4    1  0.2048914E-008  0.2305125E+04  0.7816531E-02  0.8475903E-01
          2   -1    0    0  501    0  0.00000000000E+00  0.00000000000E+00  0.11870998018E+04  0.11870998018E+04  0.00000000000E+00 0.  1.
         -2   -1    0    0    0  501 -0.00000000000E+00 -0.00000000000E+00 -0.11190300883E+04  0.11190300883E+04  0.00000000000E+00 0. -1.
    2000013    1    1    2    0    0  0.67141865786E+02 -0.46801888906E+03 -0.41599529351E+03  0.11397814680E+04  0.95000000000E+03 0.  0.
   -2000013    1    1    2    0    0 -0.67141865786E+02  0.46801888906E+03  0.48406500707E+03  0.11663484221E+04  0.95000000000E+03 0.  0.
<mgrwt>
<rscale>  0 0.23051251E+04</rscale>
<asrwt>0</asrwt>
<pdfrwt beam="1">  1        2 0.18263074E+00 0.23051251E+04</pdfrwt>
<pdfrwt beam="2">  1       -2 0.17215847E+00 0.23051251E+04</pdfrwt>
<totfact> 0.35951715E+00</totfact>
</mgrwt>
</event>
<event>
 4    1  0.2048914E-008  0.2387442E+04  0.7816531E-02  0.8444220E-01
         -2   -1    0    0    0  501 -0.00000000000E+00  0.00000000000E+00  0.45367652305E+03  0.45367652305E+03  0.00000000000E+00 0. -1.
          2   -1    0    0  501    0  0.00000000000E+00 -0.00000000000E+00 -0.31409384762E+04  0.31409384762E+04  0.00000000000E+00 0.  1.
    2000013    1    1    2    0    0 -0.47383181371E+03  0.53816251739E+03 -0.14810861108E+04  0.19000661963E+04  0.95000000000E+03 0.  0.
   -2000013    1    1    2    0    0  0.47383181371E+03 -0.53816251739E+03 -0.12061758424E+04  0.16945488029E+04  0.95000000000E+03 0.  0.
<mgrwt>
<rscale>  0 0.23874422E+04</rscale>
<asrwt>0</asrwt>
<pdfrwt beam="2">  1        2 0.48322128E+00 0.23874422E+04</pdfrwt>
<pdfrwt beam="1">  1       -2 0.69796391E-01 0.23874422E+04</pdfrwt>
<totfact> 0.23872777E+00</totfact>
</mgrwt>
</event>
<event>
 4    1  0.2048914E-008  0.2320427E+04  0.7816531E-02  0.8469910E-01
         -2   -1    0    0    0  501 -0.00000000000E+00  0.00000000000E+00  0.59381683626E+03  0.59381683626E+03  0.00000000000E+00 0. -1.
          2   -1    0    0  501    0  0.00000000000E+00 -0.00000000000E+00 -0.22668524220E+04  0.22668524220E+04  0.00000000000E+00 0.  1.
    2000013    1    1    2    0    0  0.32203804417E+03 -0.44304876798E+03 -0.36935466318E+03  0.11571186542E+04  0.95000000000E+03 0.  0.
   -2000013    1    1    2    0    0 -0.32203804417E+03  0.44304876798E+03 -0.13036809225E+04  0.17035506040E+04  0.95000000000E+03 0.  0.
<mgrwt>
<rscale>  0 0.23204268E+04</rscale>
<asrwt>0</asrwt>
<pdfrwt beam="2">  1        2 0.34874652E+00 0.23204268E+04</pdfrwt>
<pdfrwt beam="1">  1       -2 0.91356437E-01 0.23204268E+04</pdfrwt>
<totfact> 0.43736142E+00</totfact>
</mgrwt>
</event>
<event>
 4    1  0.2048914E-008  0.3208901E+04  0.7816531E-02  0.8186470E-01
          2   -1    0    0  501    0  0.00000000000E+00  0.00000000000E+00  0.46207746418E+04  0.46207746418E+04  0.00000000000E+00 0. -1.
         -2   -1    0    0    0  501 -0.00000000000E+00 -0.00000000000E+00 -0.55710601624E+03  0.55710601624E+03  0.00000000000E+00 0.  1.
    2000013    1    1    2    0    0  0.10986546080E+04  0.18790079316E+03  0.97444926914E+03  0.17590906838E+04  0.95000000000E+03 0.  0.
   -2000013    1    1    2    0    0 -0.10986546080E+04 -0.18790079316E+03  0.30892193564E+04  0.34187899742E+04  0.95000000000E+03 0.  0.
<mgrwt>
<rscale>  0 0.32089010E+04</rscale>
<asrwt>0</asrwt>
<pdfrwt beam="1">  1        2 0.71088838E+00 0.32089010E+04</pdfrwt>
<pdfrwt beam="2">  1       -2 0.85708621E-01 0.32089010E+04</pdfrwt>
<totfact> 0.92259433E-02</totfact>
</mgrwt>
</event>
<event>
 4    1  0.2048914E-008  0.2192769E+04  0.7816531E-02  0.8521444E-01
         -2   -1    0    0    0  501 -0.00000000000E+00  0.00000000000E+00  0.41973651091E+03  0.41973651091E+03  0.00000000000E+00 0. -1.
          2   -1    0    0  501    0  0.00000000000E+00 -0.00000000000E+00 -0.28638405812E+04  0.28638405812E+04  0.00000000000E+00 0.  1.
    2000013    1    1    2    0    0  0.36288905777E+03 -0.32936718948E+03 -0.85712923591E+03  0.13701612098E+04  0.95000000000E+03 0.  0.
   -2000013    1    1    2    0    0 -0.36288905777E+03  0.32936718948E+03 -0.15869748344E+04  0.19134158823E+04  0.95000000000E+03 0.  0.
<mgrwt>
<rscale>  0 0.21927685E+04</rscale>
<asrwt>0</asrwt>
<pdfrwt beam="2">  1        2 0.44059085E+00 0.21927685E+04</pdfrwt>
<pdfrwt beam="1">  1       -2 0.64574849E-01 0.21927685E+04</pdfrwt>
<totfact> 0.42855257E+00</totfact>
</mgrwt>
</event>
<event>
 4    1  0.2048914E-008  0.2108392E+04  0.7816531E-02  0.8557555E-01
         -2   -1    0    0    0  501 -0.00000000000E+00  0.00000000000E+00  0.51313745545E+03  0.51313745545E+03  0.00000000000E+00 0. -1.
          2   -1    0    0  501    0  0.00000000000E+00 -0.00000000000E+00 -0.21657542741E+04  0.21657542741E+04  0.00000000000E+00 0.  1.
    2000013    1    1    2    0    0 -0.24706307543E+03 -0.28030151762E+03 -0.11605967181E+04  0.15456693845E+04  0.95000000000E+03 0.  0.
   -2000013    1    1    2    0    0  0.24706307543E+03  0.28030151762E+03 -0.49202010055E+03  0.11332223451E+04  0.95000000000E+03 0.  0.
<mgrwt>
<rscale>  0 0.21083924E+04</rscale>
<asrwt>0</asrwt>
<pdfrwt beam="2">  1        2 0.33319296E+00 0.21083924E+04</pdfrwt>
<pdfrwt beam="1">  1       -2 0.78944226E-01 0.21083924E+04</pdfrwt>
<totfact> 0.70792063E+00</totfact>
</mgrwt>
</event>
<event>
 4    1  0.2048914E-008  0.2616385E+04  0.7816531E-02  0.8362657E-01
          1   -1    0    0  501    0  0.00000000000E+00  0.00000000000E+00  0.18326996262E+04  0.18326996262E+04  0.00000000000E+00 0.  1.
         -1   -1    0    0    0  501 -0.00000000000E+00 -0.00000000000E+00 -0.93379570390E+03  0.93379570390E+03  0.00000000000E+00 0. -1.
    2000013    1    1    2    0    0 -0.48585769488E+03  0.44302004482E+03  0.10982886661E+04  0.15940710316E+04  0.95000000000E+03 0.  0.
   -2000013    1    1    2    0    0  0.48585769488E+03 -0.44302004482E+03 -0.19938474371E+03  0.11724242985E+04  0.95000000000E+03 0.  0.
<mgrwt>
<rscale>  0 0.26163846E+04</rscale>
<asrwt>0</asrwt>
<pdfrwt beam="1">  1        1 0.28195379E+00 0.26163846E+04</pdfrwt>
<pdfrwt beam="2">  1       -1 0.14366088E+00 0.26163846E+04</pdfrwt>
<totfact> 0.13330637E+00</totfact>
</mgrwt>
</event>
<event>
 4    1  0.2048914E-008  0.2540730E+04  0.7816531E-02  0.8388617E-01
         -2   -1    0    0    0  501 -0.00000000000E+00  0.00000000000E+00  0.60115871517E+03  0.60115871517E+03  0.00000000000E+00 0. -1.
          2   -1    0    0  501    0  0.00000000000E+00 -0.00000000000E+00 -0.26845268919E+04  0.26845268919E+04  0.00000000000E+00 0.  1.
    2000013    1    1    2    0    0 -0.48336341908E+03 -0.36230754093E+03 -0.28053645336E+03  0.11602187944E+04  0.95000000000E+03 0.  0.
   -2000013    1    1    2    0    0  0.48336341908E+03  0.36230754093E+03 -0.18028317234E+04  0.21254668127E+04  0.95000000000E+03 0.  0.
<mgrwt>
<rscale>  0 0.25407296E+04</rscale>
<asrwt>0</asrwt>
<pdfrwt beam="2">  1        2 0.41300414E+00 0.25407296E+04</pdfrwt>
<pdfrwt beam="1">  1       -2 0.92485956E-01 0.25407296E+04</pdfrwt>
<totfact> 0.23917664E+00</totfact>
</mgrwt>
</event>
<event>
 4    1  0.2048914E-008  0.2478498E+04  0.7816531E-02  0.8410686E-01
          2   -1    0    0  501    0  0.00000000000E+00  0.00000000000E+00  0.20273771677E+04  0.20273771677E+04  0.00000000000E+00 0.  1.
         -2   -1    0    0    0  501 -0.00000000000E+00 -0.00000000000E+00 -0.75749985169E+03  0.75749985169E+03  0.00000000000E+00 0. -1.
    2000013    1    1    2    0    0  0.32083739579E+03 -0.15273676534E+03 -0.16509780703E+03  0.10276295246E+04  0.95000000000E+03 0.  0.
   -2000013    1    1    2    0    0 -0.32083739579E+03  0.15273676534E+03  0.14349751230E+04  0.17572474947E+04  0.95000000000E+03 0.  0.
<mgrwt>
<rscale>  0 0.24784979E+04</rscale>
<asrwt>0</asrwt>
<pdfrwt beam="1">  1        2 0.31190418E+00 0.24784979E+04</pdfrwt>
<pdfrwt beam="2">  1       -2 0.11653844E+00 0.24784979E+04</pdfrwt>
<totfact> 0.32896078E+00</totfact>
</mgrwt>
</event>
<event>
 4    1  0.2048914E-008  0.2698953E+04  0.7816531E-02  0.8335345E-01
          2   -1    0    0  501    0  0.00000000000E+00  0.00000000000E+00  0.16839287073E+04  0.16839287073E+04  0.00000000000E+00 0.  1.
         -2   -1    0    0    0  501 -0.00000000000E+00 -0.00000000000E+00 -0.10814508964E+04  0.10814508964E+04  0.00000000000E+00 0. -1.
    2000013    1    1    2    0    0 -0.67727936826E+03  0.42510114375E+03  0.84260647375E+03  0.15006345307E+04  0.95000000000E+03 0.  0.
   -2000013    1    1    2    0    0  0.67727936826E+03 -0.42510114375E+03 -0.24012866286E+03  0.12647450731E+04  0.95000000000E+03 0.  0.
<mgrwt>
<rscale>  0 0.26989525E+04</rscale>
<asrwt>0</asrwt>
<pdfrwt beam="1">  1        2 0.25906596E+00 0.26989525E+04</pdfrwt>
<pdfrwt beam="2">  1       -2 0.16637706E+00 0.26989525E+04</pdfrwt>
<totfact> 0.19877356E+00</totfact>
</mgrwt>
</event>
<event>
 4    1  0.2048914E-008  0.3264837E+04  0.7816531E-02  0.8171901E-01
         -2   -1    0    0    0  501 -0.00000000000E+00  0.00000000000E+00  0.23678060051E+04  0.23678060051E+04  0.00000000000E+00 0. -1.
          2   -1    0    0  501    0  0.00000000000E+00 -0.00000000000E+00 -0.11254257498E+04  0.11254257498E+04  0.00000000000E+00 0.  1.
    2000013    1    1    2    0    0 -0.68086188238E+03  0.47869709182E+03  0.17277367674E+04  0.21401631120E+04  0.95000000000E+03 0.  0.
   -2000013    1    1    2    0    0  0.68086188238E+03 -0.47869709182E+03 -0.48535651207E+03  0.13530686429E+04  0.95000000000E+03 0.  0.
<mgrwt>
<rscale>  0 0.32648368E+04</rscale>
<asrwt>0</asrwt>
<pdfrwt beam="2">  1        2 0.17314242E+00 0.32648368E+04</pdfrwt>
<pdfrwt beam="1">  1       -2 0.36427785E+00 0.32648368E+04</pdfrwt>
<totfact> 0.22219779E-01</totfact>
</mgrwt>
</event>
<event>
 4    1  0.2048914E-008  0.2442381E+04  0.7816531E-02  0.8423805E-01
          2   -1    0    0  501    0  0.00000000000E+00  0.00000000000E+00  0.82849007036E+03  0.82849007036E+03  0.00000000000E+00 0.  1.
         -2   -1    0    0    0  501 -0.00000000000E+00 -0.00000000000E+00 -0.18000292501E+04  0.18000292501E+04  0.00000000000E+00 0. -1.
    2000013    1    1    2    0    0  0.19455139428E+03 -0.37037017566E+03  0.20651324799E+03  0.10583817996E+04  0.95000000000E+03 0.  0.
   -2000013    1    1    2    0    0 -0.19455139428E+03  0.37037017566E+03 -0.11780524278E+04  0.15701375209E+04  0.95000000000E+03 0.  0.
<mgrwt>
<rscale>  0 0.24423811E+04</rscale>
<asrwt>0</asrwt>
<pdfrwt beam="1">  1        2 0.12746001E+00 0.24423811E+04</pdfrwt>
<pdfrwt beam="2">  1       -2 0.27692758E+00 0.24423811E+04</pdfrwt>
<totfact> 0.12949687E+00</totfact>
</mgrwt>
</event>
<event>
 4    1  0.2048914E-008  0.2191459E+04  0.7816531E-02  0.8521991E-01
          2   -1    0    0  501    0  0.00000000000E+00  0.00000000000E+00  0.28231445787E+04  0.28231445787E+04  0.00000000000E+00 0.  1.
         -2   -1    0    0    0  501 -0.00000000000E+00 -0.00000000000E+00 -0.42527882297E+03  0.42527882297E+03  0.00000000000E+00 0. -1.
    2000013    1    1    2    0    0 -0.88158043295E+02 -0.41341987273E+03  0.17112117048E+04  0.20023569438E+04  0.95000000000E+03 0.  0.
   -2000013    1    1    2    0    0  0.88158043295E+02  0.41341987273E+03  0.68665405091E+03  0.12460664579E+04  0.95000000000E+03 0.  0.
<mgrwt>
<rscale>  0 0.21914594E+04</rscale>
<asrwt>0</asrwt>
<pdfrwt beam="1">  1        2 0.43432992E+00 0.21914594E+04</pdfrwt>
<pdfrwt beam="2">  1       -2 0.65427513E-01 0.21914594E+04</pdfrwt>
<totfact> 0.44113070E+00</totfact>
</mgrwt>
</event>
<event>
 4    1  0.2048914E-008  0.4137559E+04  0.7816531E-02  0.7977357E-01
          2   -1    0    0  501    0  0.00000000000E+00  0.00000000000E+00  0.23180051139E+04  0.23180051139E+04  0.00000000000E+00 0.  1.
         -2   -1    0    0    0  501 -0.00000000000E+00 -0.00000000000E+00 -0.18463497470E+04  0.18463497470E+04  0.00000000000E+00 0. -1.
    2000013    1    1    2    0    0  0.10128793573E+04 -0.15321689317E+04  0.29853630722E+03  0.20892798172E+04  0.95000000000E+03 0.  0.
   -2000013    1    1    2    0    0 -0.10128793573E+04  0.15321689317E+04  0.17311905968E+03  0.20750750436E+04  0.95000000000E+03 0.  0.
<mgrwt>
<rscale>  0 0.41375588E+04</rscale>
<asrwt>0</asrwt>
<pdfrwt beam="1">  1        2 0.35661617E+00 0.41375588E+04</pdfrwt>
<pdfrwt beam="2">  1       -2 0.28405381E+00 0.41375588E+04</pdfrwt>
<totfact> 0.13743979E-01</totfact>
</mgrwt>
</event>
<event>
 4    1  0.2048914E-008  0.2159572E+04  0.7816531E-02  0.8535446E-01
         -1   -1    0    0    0  501 -0.00000000000E+00  0.00000000000E+00  0.10340367130E+04  0.10340367130E+04  0.00000000000E+00 0.  1.
          1   -1    0    0  501    0  0.00000000000E+00 -0.00000000000E+00 -0.11275596760E+04  0.11275596760E+04  0.00000000000E+00 0. -1.
    2000013    1    1    2    0    0  0.13940780734E+03  0.27614507864E+03 -0.45671520900E+03  0.10985351261E+04  0.95000000000E+03 0.  0.
   -2000013    1    1    2    0    0 -0.13940780734E+03 -0.27614507864E+03  0.36319224595E+03  0.10630612629E+04  0.95000000000E+03 0.  0.
<mgrwt>
<rscale>  0 0.21595723E+04</rscale>
<asrwt>0</asrwt>
<pdfrwt beam="2">  1        1 0.17347072E+00 0.21595723E+04</pdfrwt>
<pdfrwt beam="1">  1       -1 0.15908257E+00 0.21595723E+04</pdfrwt>
<totfact> 0.32848463E+00</totfact>
</mgrwt>
</event>
<event>
 4    1  0.2048914E-008  0.2185814E+04  0.7816531E-02  0.8524356E-01
          2   -1    0    0  501    0  0.00000000000E+00  0.00000000000E+00  0.19622921138E+04  0.19622921138E+04  0.00000000000E+00 0.  1.
         -2   -1    0    0    0  501 -0.00000000000E+00 -0.00000000000E+00 -0.60869904417E+03  0.60869904417E+03  0.00000000000E+00 0. -1.
    2000013    1    1    2    0    0  0.21829934359E+03  0.31941702107E+03  0.23315296765E+03  0.10519230690E+04  0.95000000000E+03 0.  0.
   -2000013    1    1    2    0    0 -0.21829934359E+03 -0.31941702107E+03  0.11204401020E+04  0.15190680889E+04  0.95000000000E+03 0.  0.
<mgrwt>
<rscale>  0 0.21858137E+04</rscale>
<asrwt>0</asrwt>
<pdfrwt beam="1">  1        2 0.30189109E+00 0.21858137E+04</pdfrwt>
<pdfrwt beam="2">  1       -2 0.93646007E-01 0.21858137E+04</pdfrwt>
<totfact> 0.61837063E+00</totfact>
</mgrwt>
</event>
<event>
 4    1  0.2048914E-008  0.2843393E+04  0.7816531E-02  0.8289922E-01
         -2   -1    0    0    0  501 -0.00000000000E+00  0.00000000000E+00  0.53172132870E+03  0.53172132870E+03  0.00000000000E+00 0. -1.
          2   -1    0    0  501    0  0.00000000000E+00 -0.00000000000E+00 -0.38012786090E+04  0.38012786090E+04  0.00000000000E+00 0.  1.
    2000013    1    1    2    0    0 -0.51993380424E+03  0.82215365925E+03 -0.22676090117E+04  0.26440155881E+04  0.95000000000E+03 0.  0.
   -2000013    1    1    2    0    0  0.51993380424E+03 -0.82215365925E+03 -0.10019482686E+04  0.16889843496E+04  0.95000000000E+03 0.  0.
<mgrwt>
<rscale>  0 0.28433930E+04</rscale>
<asrwt>0</asrwt>
<pdfrwt beam="2">  1        2 0.58481209E+00 0.28433930E+04</pdfrwt>
<pdfrwt beam="1">  1       -2 0.81803282E-01 0.28433930E+04</pdfrwt>
<totfact> 0.55853535E-01</totfact>
</mgrwt>
</event>
<event>
 4    1  0.2048914E-008  0.2474801E+04  0.7816531E-02  0.8412018E-01
          2   -1    0    0  501    0  0.00000000000E+00  0.00000000000E+00  0.21607054878E+04  0.21607054878E+04  0.00000000000E+00 0.  1.
         -2   -1    0    0    0  501 -0.00000000000E+00 -0.00000000000E+00 -0.70863881903E+03  0.70863881903E+03  0.00000000000E+00 0. -1.
    2000013    1    1    2    0    0 -0.33127370144E+02 -0.67331126464E+03  0.24210136180E+03  0.11897724787E+04  0.95000000000E+03 0.  0.
   -2000013    1    1    2    0    0  0.33127370144E+02  0.67331126464E+03  0.12099653070E+04  0.16795718281E+04  0.95000000000E+03 0.  0.
<mgrwt>
<rscale>  0 0.24748008E+04</rscale>
<asrwt>0</asrwt>
<pdfrwt beam="1">  1        2 0.33241623E+00 0.24748008E+04</pdfrwt>
<pdfrwt beam="2">  1       -2 0.10902136E+00 0.24748008E+04</pdfrwt>
<totfact> 0.32598554E+00</totfact>
</mgrwt>
</event>
<event>
 4    1  0.2048914E-008  0.2184592E+04  0.7816531E-02  0.8524869E-01
         -2   -1    0    0    0  501 -0.00000000000E+00  0.00000000000E+00  0.10272583757E+04  0.10272583757E+04  0.00000000000E+00 0. -1.
          2   -1    0    0  501    0  0.00000000000E+00 -0.00000000000E+00 -0.11614514437E+04  0.11614514437E+04  0.00000000000E+00 0.  1.
    2000013    1    1    2    0    0  0.78346318870E+02 -0.26555989523E+03  0.39632316330E+03  0.10659419559E+04  0.95000000000E+03 0.  0.
   -2000013    1    1    2    0    0 -0.78346318870E+02  0.26555989523E+03 -0.53051623121E+03  0.11227678635E+04  0.95000000000E+03 0.  0.
<mgrwt>
<rscale>  0 0.21845922E+04</rscale>
<asrwt>0</asrwt>
<pdfrwt beam="2">  1        2 0.17868484E+00 0.21845922E+04</pdfrwt>
<pdfrwt beam="1">  1       -2 0.15803975E+00 0.21845922E+04</pdfrwt>
<totfact> 0.47632671E+00</totfact>
</mgrwt>
</event>
<event>
 4    1  0.2048914E-008  0.1987991E+04  0.7816531E-02  0.8612256E-01
         -2   -1    0    0    0  501 -0.00000000000E+00  0.00000000000E+00  0.11030285704E+04  0.11030285704E+04  0.00000000000E+00 0. -1.
          2   -1    0    0  501    0  0.00000000000E+00 -0.00000000000E+00 -0.89574023380E+03  0.89574023380E+03  0.00000000000E+00 0.  1.
    2000013    1    1    2    0    0  0.90886266986E+02  0.27668819869E+03  0.13044193623E+03  0.10021635453E+04  0.95000000000E+03 0.  0.
   -2000013    1    1    2    0    0 -0.90886266986E+02 -0.27668819869E+03  0.76846400380E+02  0.99660525890E+03  0.95000000000E+03 0.  0.
<mgrwt>
<rscale>  0 0.19879910E+04</rscale>
<asrwt>0</asrwt>
<pdfrwt beam="2">  1        2 0.13780619E+00 0.19879910E+04</pdfrwt>
<pdfrwt beam="1">  1       -2 0.16969670E+00 0.19879910E+04</pdfrwt>
<totfact> 0.58777320E+00</totfact>
</mgrwt>
</event>
<event>
 4    1  0.2048914E-008  0.2165971E+04  0.7816531E-02  0.8532727E-01
          2   -1    0    0  501    0  0.00000000000E+00  0.00000000000E+00  0.28052251400E+04  0.28052251400E+04  0.00000000000E+00 0.  1.
         -2   -1    0    0    0  501 -0.00000000000E+00 -0.00000000000E+00 -0.41809756864E+03  0.41809756864E+03  0.00000000000E+00 0. -1.
    2000013    1    1    2    0    0  0.35206700225E+03  0.31688505497E+03  0.15127066716E+04  0.18480121175E+04  0.95000000000E+03 0.  0.
   -2000013    1    1    2    0    0 -0.35206700225E+03 -0.31688505497E+03  0.87442089974E+03  0.13753105911E+04  0.95000000000E+03 0.  0.
<mgrwt>
<rscale>  0 0.21659712E+04</rscale>
<asrwt>0</asrwt>
<pdfrwt beam="1">  1        2 0.43157309E+00 0.21659712E+04</pdfrwt>
<pdfrwt beam="2">  1       -2 0.64322705E-01 0.21659712E+04</pdfrwt>
<totfact> 0.47020652E+00</totfact>
</mgrwt>
</event>
<event>
 4    1  0.2048914E-008  0.2586058E+04  0.7816531E-02  0.8372952E-01
         -1   -1    0    0    0  501 -0.00000000000E+00  0.00000000000E+00  0.14392307106E+04  0.14392307106E+04  0.00000000000E+00 0. -1.
          1   -1    0    0  501    0  0.00000000000E+00 -0.00000000000E+00 -0.11616790917E+04  0.11616790917E+04  0.00000000000E+00 0.  1.
    2000013    1    1    2    0    0  0.65516100527E+03 -0.57978586501E+03  0.74876434984E+02  0.12936359892E+04  0.95000000000E+03 0.  0.
   -2000013    1    1    2    0    0 -0.65516100527E+03  0.57978586501E+03  0.20267518395E+03  0.13072738130E+04  0.95000000000E+03 0.  0.
<mgrwt>
<rscale>  0 0.25860582E+04</rscale>
<asrwt>0</asrwt>
<pdfrwt beam="2">  1        1 0.17871986E+00 0.25860582E+04</pdfrwt>
<pdfrwt beam="1">  1       -1 0.22142011E+00 0.25860582E+04</pdfrwt>
<totfact> 0.10825737E+00</totfact>
</mgrwt>
</event>
<event>
 4    1  0.2048914E-008  0.4635639E+04  0.7816531E-02  0.7887311E-01
         -2   -1    0    0    0  501 -0.00000000000E+00  0.00000000000E+00  0.15128042171E+04  0.15128042171E+04  0.00000000000E+00 0. -1.
          2   -1    0    0  501    0  0.00000000000E+00 -0.00000000000E+00 -0.35512107800E+04  0.35512107800E+04  0.00000000000E+00 0.  1.
    2000013    1    1    2    0    0 -0.43020960439E+03  0.16423719031E+04 -0.23955180261E+04  0.30860123760E+04  0.95000000000E+03 0.  0.
   -2000013    1    1    2    0    0  0.43020960439E+03 -0.16423719031E+04  0.35711146328E+03  0.19780026210E+04  0.95000000000E+03 0.  0.
<mgrwt>
<rscale>  0 0.46356387E+04</rscale>
<asrwt>0</asrwt>
<pdfrwt beam="2">  1        2 0.54634012E+00 0.46356387E+04</pdfrwt>
<pdfrwt beam="1">  1       -2 0.23273911E+00 0.46356387E+04</pdfrwt>
<totfact> 0.45984728E-02</totfact>
</mgrwt>
</event>
<event>
 4    1  0.2048914E-008  0.2453248E+04  0.7816531E-02  0.8419833E-01
         -2   -1    0    0    0  501 -0.00000000000E+00  0.00000000000E+00  0.85320586927E+03  0.85320586927E+03  0.00000000000E+00 0. -1.
          2   -1    0    0  501    0  0.00000000000E+00 -0.00000000000E+00 -0.17634746748E+04  0.17634746748E+04  0.00000000000E+00 0.  1.
    2000013    1    1    2    0    0  0.25199507011E+03  0.21000963011E+03 -0.12051890980E+04  0.15692629869E+04  0.95000000000E+03 0.  0.
   -2000013    1    1    2    0    0 -0.25199507011E+03 -0.21000963011E+03  0.29492029249E+03  0.10474175571E+04  0.95000000000E+03 0.  0.
<mgrwt>
<rscale>  0 0.24532484E+04</rscale>
<asrwt>0</asrwt>
<pdfrwt beam="2">  1        2 0.27130379E+00 0.24532484E+04</pdfrwt>
<pdfrwt beam="1">  1       -2 0.13126244E+00 0.24532484E+04</pdfrwt>
<totfact> 0.34308638E+00</totfact>
</mgrwt>
</event>
<event>
 4    1  0.2048914E-008  0.2782028E+04  0.7816531E-02  0.8308870E-01
         -1   -1    0    0    0  501 -0.00000000000E+00  0.00000000000E+00  0.13421864438E+04  0.13421864438E+04  0.00000000000E+00 0. -1.
          1   -1    0    0  501    0  0.00000000000E+00 -0.00000000000E+00 -0.14416174708E+04  0.14416174708E+04  0.00000000000E+00 0.  1.
    2000013    1    1    2    0    0 -0.62182223173E+03 -0.78951706759E+03 -0.19954200190E+03  0.13972534124E+04  0.95000000000E+03 0.  0.
   -2000013    1    1    2    0    0  0.62182223173E+03  0.78951706759E+03  0.10011097482E+03  0.13865505022E+04  0.95000000000E+03 0.  0.
<mgrwt>
<rscale>  0 0.27820276E+04</rscale>
<asrwt>0</asrwt>
<pdfrwt beam="2">  1        1 0.22178730E+00 0.27820276E+04</pdfrwt>
<pdfrwt beam="1">  1       -1 0.20649022E+00 0.27820276E+04</pdfrwt>
<totfact> 0.84607215E-01</totfact>
</mgrwt>
</event>
<event>
 4    1  0.2048914E-008  0.2677836E+04  0.7816531E-02  0.8342232E-01
          2   -1    0    0  501    0  0.00000000000E+00  0.00000000000E+00  0.22305864093E+04  0.22305864093E+04  0.00000000000E+00 0.  1.
         -2   -1    0    0    0  501 -0.00000000000E+00 -0.00000000000E+00 -0.80369046607E+03  0.80369046607E+03  0.00000000000E+00 0. -1.
    2000013    1    1    2    0    0 -0.43566975486E+03  0.77389536893E+03  0.10744079513E+04  0.16868831089E+04  0.95000000000E+03 0.  0.
   -2000013    1    1    2    0    0  0.43566975486E+03 -0.77389536893E+03  0.35248799187E+03  0.13473937664E+04  0.95000000000E+03 0.  0.
<mgrwt>
<rscale>  0 0.26778357E+04</rscale>
<asrwt>0</asrwt>
<pdfrwt beam="1">  1        2 0.34316714E+00 0.26778357E+04</pdfrwt>
<pdfrwt beam="2">  1       -2 0.12364469E+00 0.26778357E+04</pdfrwt>
<totfact> 0.21491827E+00</totfact>
</mgrwt>
</event>
<event>
 4    1  0.2048914E-008  0.2327546E+04  0.7816531E-02  0.8467139E-01
         -2   -1    0    0    0  501 -0.00000000000E+00  0.00000000000E+00  0.42005466695E+03  0.42005466695E+03  0.00000000000E+00 0.  1.
          2   -1    0    0  501    0  0.00000000000E+00 -0.00000000000E+00 -0.32242642759E+04  0.32242642759E+04  0.00000000000E+00 0. -1.
    2000013    1    1    2    0    0  0.49034129468E+03 -0.67373271842E+02 -0.21142877958E+04  0.23701659492E+04  0.95000000000E+03 0.  0.
   -2000013    1    1    2    0    0 -0.49034129468E+03  0.67373271842E+02 -0.68992181310E+03  0.12741529936E+04  0.95000000000E+03 0.  0.
<mgrwt>
<rscale>  0 0.23275457E+04</rscale>
<asrwt>0</asrwt>
<pdfrwt beam="2">  1        2 0.49604065E+00 0.23275457E+04</pdfrwt>
<pdfrwt beam="1">  1       -2 0.64623796E-01 0.23275457E+04</pdfrwt>
<totfact> 0.25033301E+00</totfact>
</mgrwt>
</event>
<event>
 4    1  0.2048914E-008  0.2953756E+04  0.7816531E-02  0.8257061E-01
          2   -1    0    0  501    0  0.00000000000E+00  0.00000000000E+00  0.21171894363E+04  0.21171894363E+04  0.00000000000E+00 0.  1.
         -2   -1    0    0    0  501 -0.00000000000E+00 -0.00000000000E+00 -0.10302190024E+04  0.10302190024E+04  0.00000000000E+00 0. -1.
    2000013    1    1    2    0    0 -0.92651202620E+03 -0.27029174411E+03  0.11713410978E+04  0.17905368271E+04  0.95000000000E+03 0.  0.
   -2000013    1    1    2    0    0  0.92651202620E+03  0.27029174411E+03 -0.84370663850E+02  0.13568716117E+04  0.95000000000E+03 0.  0.
<mgrwt>
<rscale>  0 0.29537561E+04</rscale>
<asrwt>0</asrwt>
<pdfrwt beam="1">  1        2 0.32572145E+00 0.29537561E+04</pdfrwt>
<pdfrwt beam="2">  1       -2 0.15849523E+00 0.29537561E+04</pdfrwt>
<totfact> 0.12763689E+00</totfact>
</mgrwt>
</event>
<event>
 4    1  0.2048914E-008  0.2829164E+04  0.7816531E-02  0.8294271E-01
         -1   -1    0    0    0  501 -0.00000000000E+00  0.00000000000E+00  0.12588811408E+04  0.12588811408E+04  0.00000000000E+00 0. -1.
          1   -1    0    0  501    0  0.00000000000E+00 -0.00000000000E+00 -0.15895398007E+04  0.15895398007E+04  0.00000000000E+00 0.  1.
    2000013    1    1    2    0    0 -0.92829397804E+03  0.31829158381E+03 -0.53594148441E+03  0.14672329456E+04  0.95000000000E+03 0.  0.
   -2000013    1    1    2    0    0  0.92829397804E+03 -0.31829158381E+03  0.20528282447E+03  0.13811879959E+04  0.95000000000E+03 0.  0.
<mgrwt>
<rscale>  0 0.28291636E+04</rscale>
<asrwt>0</asrwt>
<pdfrwt beam="2">  1        1 0.24454458E+00 0.28291636E+04</pdfrwt>
<pdfrwt beam="1">  1       -1 0.19367402E+00 0.28291636E+04</pdfrwt>
<totfact> 0.81592012E-01</totfact>
</mgrwt>
</event>
<event>
 4    1  0.2048914E-008  0.2765899E+04  0.7816531E-02  0.8313934E-01
          2   -1    0    0  501    0  0.00000000000E+00  0.00000000000E+00  0.21638817639E+04  0.21638817639E+04  0.00000000000E+00 0.  1.
         -2   -1    0    0    0  501 -0.00000000000E+00 -0.00000000000E+00 -0.88385087139E+03  0.88385087139E+03  0.00000000000E+00 0. -1.
    2000013    1    1    2    0    0 -0.44565672128E+03  0.70431189396E+03  0.21201376148E+02  0.12639678222E+04  0.95000000000E+03 0.  0.
   -2000013    1    1    2    0    0  0.44565672128E+03 -0.70431189396E+03  0.12588295164E+04  0.17837648131E+04  0.95000000000E+03 0.  0.
<mgrwt>
<rscale>  0 0.27658986E+04</rscale>
<asrwt>0</asrwt>
<pdfrwt beam="1">  1        2 0.33290489E+00 0.27658986E+04</pdfrwt>
<pdfrwt beam="2">  1       -2 0.13597706E+00 0.27658986E+04</pdfrwt>
<totfact> 0.18285918E+00</totfact>
</mgrwt>
</event>
<event>
 4    1  0.2048914E-008  0.3282976E+04  0.7816531E-02  0.8167241E-01
          2   -1    0    0  501    0  0.00000000000E+00  0.00000000000E+00  0.14622338241E+04  0.14622338241E+04  0.00000000000E+00 0.  1.
         -2   -1    0    0    0  501 -0.00000000000E+00 -0.00000000000E+00 -0.18427164783E+04  0.18427164783E+04  0.00000000000E+00 0. -1.
    2000013    1    1    2    0    0  0.17723926579E+03 -0.59809068221E+03  0.10021088865E+04  0.15152057424E+04  0.95000000000E+03 0.  0.
   -2000013    1    1    2    0    0 -0.17723926579E+03  0.59809068221E+03 -0.13825915407E+04  0.17897445600E+04  0.95000000000E+03 0.  0.
<mgrwt>
<rscale>  0 0.32829757E+04</rscale>
<asrwt>0</asrwt>
<pdfrwt beam="1">  1        2 0.22495905E+00 0.32829757E+04</pdfrwt>
<pdfrwt beam="2">  1       -2 0.28349484E+00 0.32829757E+04</pdfrwt>
<totfact> 0.44715183E-01</totfact>
</mgrwt>
</event>
<event>
 4    1  0.2048914E-008  0.2398696E+04  0.7816531E-02  0.8439992E-01
          2   -1    0    0  501    0  0.00000000000E+00  0.00000000000E+00  0.42549998005E+04  0.42549998005E+04  0.00000000000E+00 0.  1.
         -2   -1    0    0    0  501 -0.00000000000E+00 -0.00000000000E+00 -0.33805763770E+03  0.33805763770E+03  0.00000000000E+00 0. -1.
    2000013    1    1    2    0    0  0.14599326365E+03  0.71461023594E+03  0.18380756963E+04  0.21938559860E+04  0.95000000000E+03 0.  0.
   -2000013    1    1    2    0    0 -0.14599326365E+03 -0.71461023594E+03  0.20788664666E+04  0.23992014522E+04  0.95000000000E+03 0.  0.
<mgrwt>
<rscale>  0 0.23986956E+04</rscale>
<asrwt>0</asrwt>
<pdfrwt beam="1">  1        2 0.65461532E+00 0.23986956E+04</pdfrwt>
<pdfrwt beam="2">  1       -2 0.52008870E-01 0.23986956E+04</pdfrwt>
<totfact> 0.65721891E-01</totfact>
</mgrwt>
</event>
<event>
 4    1  0.2048914E-008  0.3830958E+04  0.7816531E-02  0.8039544E-01
          1   -1    0    0  501    0  0.00000000000E+00  0.00000000000E+00  0.31693218009E+04  0.31693218009E+04  0.00000000000E+00 0. -1.
         -1   -1    0    0    0  501 -0.00000000000E+00 -0.00000000000E+00 -0.11576799012E+04  0.11576799012E+04  0.00000000000E+00 0.  1.
    2000013    1    1    2    0    0  0.11901894777E+04  0.10517811749E+04  0.44816570706E+03  0.19042445047E+04  0.95000000000E+03 0.  0.
   -2000013    1    1    2    0    0 -0.11901894777E+04 -0.10517811749E+04  0.15634761927E+04  0.24227571975E+04  0.95000000000E+03 0.  0.
<mgrwt>
<rscale>  0 0.38309582E+04</rscale>
<asrwt>0</asrwt>
<pdfrwt beam="1">  1        1 0.48758797E+00 0.38309582E+04</pdfrwt>
<pdfrwt beam="2">  1       -1 0.17810460E+00 0.38309582E+04</pdfrwt>
<totfact> 0.76317392E-02</totfact>
</mgrwt>
</event>
<event>
 4    1  0.2048914E-008  0.3585758E+04  0.7816531E-02  0.8093762E-01
          2   -1    0    0  501    0  0.00000000000E+00  0.00000000000E+00  0.27733394601E+04  0.27733394601E+04  0.00000000000E+00 0.  1.
         -2   -1    0    0    0  501 -0.00000000000E+00 -0.00000000000E+00 -0.11590411698E+04  0.11590411698E+04  0.00000000000E+00 0. -1.
    2000013    1    1    2    0    0 -0.12708350405E+04 -0.81388755181E+03  0.10107867653E+04  0.20497864601E+04  0.95000000000E+03 0.  0.
   -2000013    1    1    2    0    0  0.12708350405E+04  0.81388755181E+03  0.60351152493E+03  0.18825941698E+04  0.95000000000E+03 0.  0.
<mgrwt>
<rscale>  0 0.35857577E+04</rscale>
<asrwt>0</asrwt>
<pdfrwt beam="1">  1        2 0.42666761E+00 0.35857577E+04</pdfrwt>
<pdfrwt beam="2">  1       -2 0.17831403E+00 0.35857577E+04</pdfrwt>
<totfact> 0.36462981E-01</totfact>
</mgrwt>
</event>
<event>
 4    1  0.2048914E-008  0.2802212E+04  0.7816531E-02  0.8302582E-01
         -2   -1    0    0    0  501 -0.00000000000E+00  0.00000000000E+00  0.31062814118E+04  0.31062814118E+04  0.00000000000E+00 0. -1.
          2   -1    0    0  501    0  0.00000000000E+00 -0.00000000000E+00 -0.63197696065E+03  0.63197696065E+03  0.00000000000E+00 0.  1.
    2000013    1    1    2    0    0 -0.17672922986E+03 -0.75442575650E+03  0.33216003193E+03  0.12701266589E+04  0.95000000000E+03 0.  0.
   -2000013    1    1    2    0    0  0.17672922986E+03  0.75442575650E+03  0.21421444192E+04  0.24681317135E+04  0.95000000000E+03 0.  0.
<mgrwt>
<rscale>  0 0.28022122E+04</rscale>
<asrwt>0</asrwt>
<pdfrwt beam="2">  1        2 0.97227227E-01 0.28022122E+04</pdfrwt>
<pdfrwt beam="1">  1       -2 0.47788944E+00 0.28022122E+04</pdfrwt>
<totfact> 0.92055086E-02</totfact>
</mgrwt>
</event>
<event>
 4    1  0.2048914E-008  0.2613703E+04  0.7816531E-02  0.8363562E-01
          2   -1    0    0  501    0  0.00000000000E+00  0.00000000000E+00  0.21431788753E+04  0.21431788753E+04  0.00000000000E+00 0.  1.
         -2   -1    0    0    0  501 -0.00000000000E+00 -0.00000000000E+00 -0.79688182931E+03  0.79688182931E+03  0.00000000000E+00 0. -1.
    2000013    1    1    2    0    0 -0.44006628819E+03 -0.77903464399E+03  0.75113811655E+03  0.15057429345E+04  0.95000000000E+03 0.  0.
   -2000013    1    1    2    0    0  0.44006628819E+03  0.77903464399E+03  0.59515892948E+03  0.14343177702E+04  0.95000000000E+03 0.  0.
<mgrwt>
<rscale>  0 0.26137026E+04</rscale>
<asrwt>0</asrwt>
<pdfrwt beam="1">  1        2 0.32971982E+00 0.26137026E+04</pdfrwt>
<pdfrwt beam="2">  1       -2 0.12259721E+00 0.26137026E+04</pdfrwt>
<totfact> 0.24717543E+00</totfact>
</mgrwt>
</event>
<event>
 4    1  0.2048914E-008  0.3617996E+04  0.7816531E-02  0.8086382E-01
         -2   -1    0    0    0  501 -0.00000000000E+00  0.00000000000E+00  0.17603836187E+04  0.17603836187E+04  0.00000000000E+00 0. -1.
          2   -1    0    0  501    0  0.00000000000E+00 -0.00000000000E+00 -0.18589552820E+04  0.18589552820E+04  0.00000000000E+00 0.  1.
    2000013    1    1    2    0    0  0.65021556913E+03 -0.88943511153E+03 -0.11249054076E+04  0.18389636429E+04  0.95000000000E+03 0.  0.
   -2000013    1    1    2    0    0 -0.65021556913E+03  0.88943511153E+03  0.10263337442E+04  0.17803752578E+04  0.95000000000E+03 0.  0.
<mgrwt>
<rscale>  0 0.36179964E+04</rscale>
<asrwt>0</asrwt>
<pdfrwt beam="2">  1        2 0.28599312E+00 0.36179964E+04</pdfrwt>
<pdfrwt beam="1">  1       -2 0.27082825E+00 0.36179964E+04</pdfrwt>
<totfact> 0.31200587E-01</totfact>
</mgrwt>
</event>
<event>
 4    1  0.2048914E-008  0.2450354E+04  0.7816531E-02  0.8420889E-01
         -2   -1    0    0    0  501 -0.00000000000E+00  0.00000000000E+00  0.11491533540E+04  0.11491533540E+04  0.00000000000E+00 0. -1.
          2   -1    0    0  501    0  0.00000000000E+00 -0.00000000000E+00 -0.13062304784E+04  0.13062304784E+04  0.00000000000E+00 0.  1.
    2000013    1    1    2    0    0  0.72779329956E+03 -0.23007028835E+03  0.47989017731E+02  0.12195976264E+04  0.95000000000E+03 0.  0.
   -2000013    1    1    2    0    0 -0.72779329956E+03  0.23007028835E+03 -0.20506614210E+03  0.12357862061E+04  0.95000000000E+03 0.  0.
<mgrwt>
<rscale>  0 0.24503544E+04</rscale>
<asrwt>0</asrwt>
<pdfrwt beam="2">  1        2 0.20095854E+00 0.24503544E+04</pdfrwt>
<pdfrwt beam="1">  1       -2 0.17679282E+00 0.24503544E+04</pdfrwt>
<totfact> 0.28024653E+00</totfact>
</mgrwt>
</event>
<event>
 4    1  0.2048914E-008  0.2400795E+04  0.7816531E-02  0.8439206E-01
          2   -1    0    0  501    0  0.00000000000E+00  0.00000000000E+00  0.38561272717E+04  0.38561272717E+04  0.00000000000E+00 0.  1.
         -2   -1    0    0    0  501 -0.00000000000E+00 -0.00000000000E+00 -0.37367901891E+03  0.37367901891E+03  0.00000000000E+00 0. -1.
    2000013    1    1    2    0    0 -0.30264866331E+03  0.63081312255E+03  0.21309541934E+04  0.24357723997E+04  0.95000000000E+03 0.  0.
   -2000013    1    1    2    0    0  0.30264866331E+03 -0.63081312255E+03  0.13514940594E+04  0.17940338909E+04  0.95000000000E+03 0.  0.
<mgrwt>
<rscale>  0 0.24007947E+04</rscale>
<asrwt>0</asrwt>
<pdfrwt beam="1">  1        2 0.59325032E+00 0.24007947E+04</pdfrwt>
<pdfrwt beam="2">  1       -2 0.57489082E-01 0.24007947E+04</pdfrwt>
<totfact> 0.11376105E+00</totfact>
</mgrwt>
</event>
<event>
 4    1  0.2048914E-008  0.1952833E+04  0.7816531E-02  0.8628996E-01
         -2   -1    0    0    0  501 -0.00000000000E+00  0.00000000000E+00  0.78347534991E+03  0.78347534991E+03  0.00000000000E+00 0. -1.
          2   -1    0    0  501    0  0.00000000000E+00 -0.00000000000E+00 -0.12168721426E+04  0.12168721426E+04  0.00000000000E+00 0.  1.
    2000013    1    1    2    0    0 -0.20002083754E+03  0.15393877656E+02 -0.32237848417E+03  0.10230704736E+04  0.95000000000E+03 0.  0.
   -2000013    1    1    2    0    0  0.20002083754E+03 -0.15393877656E+02 -0.11101830857E+03  0.97727701894E+03  0.95000000000E+03 0.  0.
<mgrwt>
<rscale>  0 0.19528331E+04</rscale>
<asrwt>0</asrwt>
<pdfrwt beam="2">  1        2 0.18721110E+00 0.19528331E+04</pdfrwt>
<pdfrwt beam="1">  1       -2 0.12053467E+00 0.19528331E+04</pdfrwt>
<totfact> 0.90652678E+00</totfact>
</mgrwt>
</event>
<event>
 4    1  0.2048914E-008  0.2538925E+04  0.7816531E-02  0.8389248E-01
          2   -1    0    0  501    0  0.00000000000E+00  0.00000000000E+00  0.31084082852E+04  0.31084082852E+04  0.00000000000E+00 0.  1.
         -2   -1    0    0    0  501 -0.00000000000E+00 -0.00000000000E+00 -0.51844394282E+03  0.51844394282E+03  0.00000000000E+00 0. -1.
    2000013    1    1    2    0    0  0.30653927656E+03 -0.46905029546E+03  0.21928491098E+04  0.24546001153E+04  0.95000000000E+03 0.  0.
   -2000013    1    1    2    0    0 -0.30653927656E+03  0.46905029546E+03  0.39711523256E+03  0.11722521127E+04  0.95000000000E+03 0.  0.
<mgrwt>
<rscale>  0 0.25389253E+04</rscale>
<asrwt>0</asrwt>
<pdfrwt beam="1">  1        2 0.47821665E+00 0.25389253E+04</pdfrwt>
<pdfrwt beam="2">  1       -2 0.79760609E-01 0.25389253E+04</pdfrwt>
<totfact> 0.18392772E+00</totfact>
</mgrwt>
</event>
<event>
 4    1  0.2048914E-008  0.2014657E+04  0.7816531E-02  0.8599799E-01
         -2   -1    0    0    0  501 -0.00000000000E+00  0.00000000000E+00  0.70192976788E+03  0.70192976788E+03  0.00000000000E+00 0. -1.
          2   -1    0    0  501    0  0.00000000000E+00 -0.00000000000E+00 -0.14456011592E+04  0.14456011592E+04  0.00000000000E+00 0.  1.
    2000013    1    1    2    0    0  0.31160787022E+03 -0.86599962011E+02 -0.27883791841E+03  0.10415611374E+04  0.95000000000E+03 0.  0.
   -2000013    1    1    2    0    0 -0.31160787022E+03  0.86599962011E+02 -0.46483347294E+03  0.11059697897E+04  0.95000000000E+03 0.  0.
<mgrwt>
<rscale>  0 0.20146568E+04</rscale>
<asrwt>0</asrwt>
<pdfrwt beam="2">  1        2 0.22240018E+00 0.20146568E+04</pdfrwt>
<pdfrwt beam="1">  1       -2 0.10798919E+00 0.20146568E+04</pdfrwt>
<totfact> 0.86897282E+00</totfact>
</mgrwt>
</event>
<event>
 4    1  0.2048914E-008  0.2629126E+04  0.7816531E-02  0.8358375E-01
         -2   -1    0    0    0  501 -0.00000000000E+00  0.00000000000E+00  0.78572815439E+03  0.78572815439E+03  0.00000000000E+00 0.  1.
          2   -1    0    0  501    0  0.00000000000E+00 -0.00000000000E+00 -0.21993297449E+04  0.21993297449E+04  0.00000000000E+00 0. -1.
    2000013    1    1    2    0    0 -0.37934195500E+03 -0.48765912344E+03  0.49624736162E+02  0.11343166903E+04  0.95000000000E+03 0.  0.
   -2000013    1    1    2    0    0  0.37934195500E+03  0.48765912344E+03 -0.14632263267E+04  0.18507412090E+04  0.95000000000E+03 0.  0.
<mgrwt>
<rscale>  0 0.26291256E+04</rscale>
<asrwt>0</asrwt>
<pdfrwt beam="2">  1        2 0.33835841E+00 0.26291256E+04</pdfrwt>
<pdfrwt beam="1">  1       -2 0.12088126E+00 0.26291256E+04</pdfrwt>
<totfact> 0.23778042E+00</totfact>
</mgrwt>
</event>
<event>
 4    1  0.2048914E-008  0.2646391E+04  0.7816531E-02  0.8352612E-01
          2   -1    0    0  501    0  0.00000000000E+00  0.00000000000E+00  0.12589878403E+04  0.12589878403E+04  0.00000000000E+00 0.  1.
         -2   -1    0    0    0  501 -0.00000000000E+00 -0.00000000000E+00 -0.13906777858E+04  0.13906777858E+04  0.00000000000E+00 0. -1.
    2000013    1    1    2    0    0  0.65496913843E+03  0.26470998480E+03 -0.65758428161E+03  0.13542426059E+04  0.95000000000E+03 0.  0.
   -2000013    1    1    2    0    0 -0.65496913843E+03 -0.26470998480E+03  0.52589433611E+03  0.12954230201E+04  0.95000000000E+03 0.  0.
<mgrwt>
<rscale>  0 0.26463911E+04</rscale>
<asrwt>0</asrwt>
<pdfrwt beam="1">  1        2 0.19369044E+00 0.26463911E+04</pdfrwt>
<pdfrwt beam="2">  1       -2 0.21395043E+00 0.26463911E+04</pdfrwt>
<totfact> 0.16629962E+00</totfact>
</mgrwt>
</event>
<event>
 4    1  0.2048914E-008  0.2337115E+04  0.7816531E-02  0.8463429E-01
          2   -1    0    0  501    0  0.00000000000E+00  0.00000000000E+00  0.37909772408E+04  0.37909772408E+04  0.00000000000E+00 0.  1.
         -2   -1    0    0    0  501 -0.00000000000E+00 -0.00000000000E+00 -0.36020448395E+03  0.36020448395E+03  0.00000000000E+00 0. -1.
    2000013    1    1    2    0    0 -0.67547966671E+03  0.63043009924E+02  0.18090343418E+04  0.21529868674E+04  0.95000000000E+03 0.  0.
   -2000013    1    1    2    0    0  0.67547966671E+03 -0.63043009924E+02  0.16217384150E+04  0.19981948574E+04  0.95000000000E+03 0.  0.
<mgrwt>
<rscale>  0 0.23371153E+04</rscale>
<asrwt>0</asrwt>
<pdfrwt beam="1">  1        2 0.58322724E+00 0.23371153E+04</pdfrwt>
<pdfrwt beam="2">  1       -2 0.55416077E-01 0.23371153E+04</pdfrwt>
<totfact> 0.13857265E+00</totfact>
</mgrwt>
</event>
<event>
 4    1  0.2048914E-008  0.2331525E+04  0.7816531E-02  0.8465594E-01
         -2   -1    0    0    0  501 -0.00000000000E+00  0.00000000000E+00  0.42448318617E+03  0.42448318617E+03  0.00000000000E+00 0. -1.
          2   -1    0    0  501    0  0.00000000000E+00 -0.00000000000E+00 -0.32015445708E+04  0.32015445708E+04  0.00000000000E+00 0.  1.
    2000013    1    1    2    0    0 -0.30471937357E+03 -0.49885420488E+03 -0.19154543803E+04  0.22165682704E+04  0.95000000000E+03 0.  0.
   -2000013    1    1    2    0    0  0.30471937357E+03  0.49885420488E+03 -0.86160700431E+03  0.14094594866E+04  0.95000000000E+03 0.  0.
<mgrwt>
<rscale>  0 0.23315247E+04</rscale>
<asrwt>0</asrwt>
<pdfrwt beam="2">  1        2 0.49254532E+00 0.23315247E+04</pdfrwt>
<pdfrwt beam="1">  1       -2 0.65305105E-01 0.23315247E+04</pdfrwt>
<totfact> 0.25317020E+00</totfact>
</mgrwt>
</event>
<event>
 4    1  0.2048914E-008  0.2405534E+04  0.7816531E-02  0.8437435E-01
          2   -1    0    0  501    0  0.00000000000E+00  0.00000000000E+00  0.26859165969E+04  0.26859165969E+04  0.00000000000E+00 0.  1.
         -2   -1    0    0    0  501 -0.00000000000E+00 -0.00000000000E+00 -0.53860504932E+03  0.53860504932E+03  0.00000000000E+00 0. -1.
    2000013    1    1    2    0    0  0.38030054596E+03  0.36321664657E+03  0.17670680579E+04  0.20740261230E+04  0.95000000000E+03 0.  0.
   -2000013    1    1    2    0    0 -0.38030054596E+03 -0.36321664657E+03  0.38024348974E+03  0.11504955233E+04  0.95000000000E+03 0.  0.
<mgrwt>
<rscale>  0 0.24055338E+04</rscale>
<asrwt>0</asrwt>
<pdfrwt beam="1">  1        2 0.41321793E+00 0.24055338E+04</pdfrwt>
<pdfrwt beam="2">  1       -2 0.82862317E-01 0.24055338E+04</pdfrwt>
<totfact> 0.31067890E+00</totfact>
</mgrwt>
</event>
<event>
 4    1  0.2048914E-008  0.2106969E+04  0.7816531E-02  0.8558180E-01
          2   -1    0    0  501    0  0.00000000000E+00  0.00000000000E+00  0.22552926298E+04  0.22552926298E+04  0.00000000000E+00 0.  1.
         -2   -1    0    0    0  501 -0.00000000000E+00 -0.00000000000E+00 -0.49209981947E+03  0.49209981947E+03  0.00000000000E+00 0. -1.
    2000013    1    1    2    0    0 -0.34249239545E+03  0.29993745839E+03  0.89215571281E+03  0.13804728667E+04  0.95000000000E+03 0.  0.
   -2000013    1    1    2    0    0  0.34249239545E+03 -0.29993745839E+03  0.87103709757E+03  0.13669195826E+04  0.95000000000E+03 0.  0.
<mgrwt>
<rscale>  0 0.21069685E+04</rscale>
<asrwt>0</asrwt>
<pdfrwt beam="1">  1        2 0.34696809E+00 0.21069685E+04</pdfrwt>
<pdfrwt beam="2">  1       -2 0.75707666E-01 0.21069685E+04</pdfrwt>
<totfact> 0.69219218E+00</totfact>
</mgrwt>
</event>
<event>
 4    1  0.2048914E-008  0.3418316E+04  0.7816531E-02  0.8133426E-01
          1   -1    0    0  501    0  0.00000000000E+00  0.00000000000E+00  0.23263457811E+04  0.23263457811E+04  0.00000000000E+00 0. -1.
         -1   -1    0    0    0  501 -0.00000000000E+00 -0.00000000000E+00 -0.12557123207E+04  0.12557123207E+04  0.00000000000E+00 0.  1.
    2000013    1    1    2    0    0  0.66644517429E+03 -0.11701715169E+04  0.10100872015E+04  0.19329321519E+04  0.95000000000E+03 0.  0.
   -2000013    1    1    2    0    0 -0.66644517429E+03  0.11701715169E+04  0.60546258989E+02  0.16491259499E+04  0.95000000000E+03 0.  0.
<mgrwt>
<rscale>  0 0.34183160E+04</rscale>
<asrwt>0</asrwt>
<pdfrwt beam="1">  1        1 0.35789935E+00 0.34183160E+04</pdfrwt>
<pdfrwt beam="2">  1       -1 0.19318651E+00 0.34183160E+04</pdfrwt>
<totfact> 0.24612598E-01</totfact>
</mgrwt>
</event>
<event>
 4    1  0.2048914E-008  0.2846189E+04  0.7816531E-02  0.8289070E-01
         -2   -1    0    0    0  501 -0.00000000000E+00  0.00000000000E+00  0.13119000995E+04  0.13119000995E+04  0.00000000000E+00 0. -1.
          2   -1    0    0  501    0  0.00000000000E+00 -0.00000000000E+00 -0.15437133964E+04  0.15437133964E+04  0.00000000000E+00 0.  1.
    2000013    1    1    2    0    0 -0.55476524165E+03 -0.81599899297E+03  0.27147928103E+03  0.13963594916E+04  0.95000000000E+03 0.  0.
   -2000013    1    1    2    0    0  0.55476524165E+03  0.81599899297E+03 -0.50329257801E+03  0.14592540043E+04  0.95000000000E+03 0.  0.
<mgrwt>
<rscale>  0 0.28461889E+04</rscale>
<asrwt>0</asrwt>
<pdfrwt beam="2">  1        2 0.23749437E+00 0.28461889E+04</pdfrwt>
<pdfrwt beam="1">  1       -2 0.20183079E+00 0.28461889E+04</pdfrwt>
<totfact> 0.13452034E+00</totfact>
</mgrwt>
</event>
<event>
 4    1  0.2048914E-008  0.2850206E+04  0.7816531E-02  0.8287849E-01
          2   -1    0    0  501    0  0.00000000000E+00  0.00000000000E+00  0.19153712993E+04  0.19153712993E+04  0.00000000000E+00 0.  1.
         -2   -1    0    0    0  501 -0.00000000000E+00 -0.00000000000E+00 -0.10603265893E+04  0.10603265893E+04  0.00000000000E+00 0. -1.
    2000013    1    1    2    0    0 -0.86532074176E+02 -0.10328192618E+04  0.18442791813E+03  0.14179975615E+04  0.95000000000E+03 0.  0.
   -2000013    1    1    2    0    0  0.86532074176E+02  0.10328192618E+04  0.67061679193E+03  0.15577003271E+04  0.95000000000E+03 0.  0.
<mgrwt>
<rscale>  0 0.28502064E+04</rscale>
<asrwt>0</asrwt>
<pdfrwt beam="1">  1        2 0.29467251E+00 0.28502064E+04</pdfrwt>
<pdfrwt beam="2">  1       -2 0.16312717E+00 0.28502064E+04</pdfrwt>
<totfact> 0.15416493E+00</totfact>
</mgrwt>
</event>
<event>
 4    1  0.2048914E-008  0.2310732E+04  0.7816531E-02  0.8473702E-01
         -2   -1    0    0    0  501 -0.00000000000E+00  0.00000000000E+00  0.53788036436E+03  0.53788036436E+03  0.00000000000E+00 0. -1.
          2   -1    0    0  501    0  0.00000000000E+00 -0.00000000000E+00 -0.24817240785E+04  0.24817240785E+04  0.00000000000E+00 0.  1.
    2000013    1    1    2    0    0  0.60855269247E+03  0.24847056547E+03 -0.94941459118E+03  0.14953133676E+04  0.95000000000E+03 0.  0.
   -2000013    1    1    2    0    0 -0.60855269247E+03 -0.24847056547E+03 -0.99442912291E+03  0.15242910752E+04  0.95000000000E+03 0.  0.
<mgrwt>
<rscale>  0 0.23107320E+04</rscale>
<asrwt>0</asrwt>
<pdfrwt beam="2">  1        2 0.38180370E+00 0.23107320E+04</pdfrwt>
<pdfrwt beam="1">  1       -2 0.82750827E-01 0.23107320E+04</pdfrwt>
<totfact> 0.41376738E+00</totfact>
</mgrwt>
</event>
<event>
 4    1  0.2048914E-008  0.2928871E+04  0.7816531E-02  0.8264339E-01
          2   -1    0    0  501    0  0.00000000000E+00  0.00000000000E+00  0.12295314736E+04  0.12295314736E+04  0.00000000000E+00 0.  1.
         -2   -1    0    0    0  501 -0.00000000000E+00 -0.00000000000E+00 -0.17442184702E+04  0.17442184702E+04  0.00000000000E+00 0. -1.
    2000013    1    1    2    0    0  0.12440241130E+03 -0.63392878174E+03 -0.11794053218E+04  0.16464624421E+04  0.95000000000E+03 0.  0.
   -2000013    1    1    2    0    0 -0.12440241130E+03  0.63392878174E+03  0.66471832519E+03  0.13272875017E+04  0.95000000000E+03 0.  0.
<mgrwt>
<rscale>  0 0.29288711E+04</rscale>
<asrwt>0</asrwt>
<pdfrwt beam="1">  1        2 0.18915869E+00 0.29288711E+04</pdfrwt>
<pdfrwt beam="2">  1       -2 0.26834130E+00 0.29288711E+04</pdfrwt>
<totfact> 0.77692690E-01</totfact>
</mgrwt>
</event>
<event>
 4    1  0.2048914E-008  0.2814167E+04  0.7816531E-02  0.8298883E-01
         -2   -1    0    0    0  501 -0.00000000000E+00  0.00000000000E+00  0.66889345061E+03  0.66889345061E+03  0.00000000000E+00 0. -1.
          2   -1    0    0  501    0  0.00000000000E+00 -0.00000000000E+00 -0.29599395610E+04  0.29599395610E+04  0.00000000000E+00 0.  1.
    2000013    1    1    2    0    0  0.27221427670E+01  0.74293201693E+03 -0.20802269004E+04  0.24045372421E+04  0.95000000000E+03 0.  0.
   -2000013    1    1    2    0    0 -0.27221427670E+01 -0.74293201693E+03 -0.21081921003E+03  0.12242957695E+04  0.95000000000E+03 0.  0.
<mgrwt>
<rscale>  0 0.28141671E+04</rscale>
<asrwt>0</asrwt>
<pdfrwt beam="2">  1        2 0.45537532E+00 0.28141671E+04</pdfrwt>
<pdfrwt beam="1">  1       -2 0.10290668E+00 0.28141671E+04</pdfrwt>
<totfact> 0.12362038E+00</totfact>
</mgrwt>
</event>
<event>
 4    1  0.2048914E-008  0.2377862E+04  0.7816531E-02  0.8447838E-01
          2   -1    0    0  501    0  0.00000000000E+00  0.00000000000E+00  0.85817491543E+03  0.85817491543E+03  0.00000000000E+00 0.  1.
         -2   -1    0    0    0  501 -0.00000000000E+00 -0.00000000000E+00 -0.16471663963E+04  0.16471663963E+04  0.00000000000E+00 0. -1.
    2000013    1    1    2    0    0 -0.35882727181E+03 -0.10998699686E+03 -0.10355577922E+04  0.14545563212E+04  0.95000000000E+03 0.  0.
   -2000013    1    1    2    0    0  0.35882727181E+03  0.10998699686E+03  0.24656631135E+03  0.10507849906E+04  0.95000000000E+03 0.  0.
<mgrwt>
<rscale>  0 0.23778620E+04</rscale>
<asrwt>0</asrwt>
<pdfrwt beam="1">  1        2 0.13202691E+00 0.23778620E+04</pdfrwt>
<pdfrwt beam="2">  1       -2 0.25341021E+00 0.23778620E+04</pdfrwt>
<totfact> 0.17277118E+00</totfact>
</mgrwt>
</event>
<event>
 4    1  0.2048914E-008  0.2992813E+04  0.7816531E-02  0.8245786E-01
          2   -1    0    0  501    0  0.00000000000E+00  0.00000000000E+00  0.42233386990E+04  0.42233386990E+04  0.00000000000E+00 0.  1.
         -2   -1    0    0    0  501 -0.00000000000E+00 -0.00000000000E+00 -0.53020441494E+03  0.53020441494E+03  0.00000000000E+00 0. -1.
    2000013    1    1    2    0    0  0.65491981932E+03  0.94748897614E+03  0.16871209701E+04  0.22528942490E+04  0.95000000000E+03 0.  0.
   -2000013    1    1    2    0    0 -0.65491981932E+03 -0.94748897614E+03  0.20060133139E+04  0.25006488649E+04  0.95000000000E+03 0.  0.
<mgrwt>
<rscale>  0 0.29928133E+04</rscale>
<asrwt>0</asrwt>
<pdfrwt beam="1">  1        2 0.64974439E+00 0.29928133E+04</pdfrwt>
<pdfrwt beam="2">  1       -2 0.81569913E-01 0.29928133E+04</pdfrwt>
<totfact> 0.25129952E-01</totfact>
</mgrwt>
</event>
<event>
 4    1  0.2048914E-008  0.2594858E+04  0.7816531E-02  0.8369950E-01
         -2   -1    0    0    0  501 -0.00000000000E+00  0.00000000000E+00  0.10298748485E+04  0.10298748485E+04  0.00000000000E+00 0. -1.
          2   -1    0    0  501    0  0.00000000000E+00 -0.00000000000E+00 -0.16344915847E+04  0.16344915847E+04  0.00000000000E+00 0.  1.
    2000013    1    1    2    0    0  0.73646383593E+03  0.22164880624E+03 -0.74906647259E+03  0.14335647022E+04  0.95000000000E+03 0.  0.
   -2000013    1    1    2    0    0 -0.73646383593E+03 -0.22164880624E+03  0.14444973639E+03  0.12308017311E+04  0.95000000000E+03 0.  0.
<mgrwt>
<rscale>  0 0.25948578E+04</rscale>
<asrwt>0</asrwt>
<pdfrwt beam="2">  1        2 0.25146024E+00 0.25948578E+04</pdfrwt>
<pdfrwt beam="1">  1       -2 0.15844229E+00 0.25948578E+04</pdfrwt>
<totfact> 0.24424168E+00</totfact>
</mgrwt>
</event>
<event>
 4    1  0.2048914E-008  0.2656204E+04  0.7816531E-02  0.8349357E-01
         -2   -1    0    0    0  501 -0.00000000000E+00  0.00000000000E+00  0.14656144644E+04  0.14656144644E+04  0.00000000000E+00 0. -1.
          2   -1    0    0  501    0  0.00000000000E+00 -0.00000000000E+00 -0.12034921507E+04  0.12034921507E+04  0.00000000000E+00 0.  1.
    2000013    1    1    2    0    0  0.31669857341E+03 -0.81373251403E+03 -0.18494518011E+03  0.13035195858E+04  0.95000000000E+03 0.  0.
   -2000013    1    1    2    0    0 -0.31669857341E+03  0.81373251403E+03  0.44706749376E+03  0.13655870294E+04  0.95000000000E+03 0.  0.
<mgrwt>
<rscale>  0 0.26562044E+04</rscale>
<asrwt>0</asrwt>
<pdfrwt beam="2">  1        2 0.18515264E+00 0.26562044E+04</pdfrwt>
<pdfrwt beam="1">  1       -2 0.22547915E+00 0.26562044E+04</pdfrwt>
<totfact> 0.15147126E+00</totfact>
</mgrwt>
</event>
<event>
 4    1  0.2048914E-008  0.2660177E+04  0.7816531E-02  0.8348043E-01
         -2   -1    0    0    0  501 -0.00000000000E+00  0.00000000000E+00  0.10129911825E+04  0.10129911825E+04  0.00000000000E+00 0. -1.
          2   -1    0    0  501    0  0.00000000000E+00 -0.00000000000E+00 -0.17464474778E+04  0.17464474778E+04  0.00000000000E+00 0.  1.
    2000013    1    1    2    0    0 -0.77291919774E+03 -0.41704801659E+03 -0.46497500060E+02  0.12946023142E+04  0.95000000000E+03 0.  0.
   -2000013    1    1    2    0    0  0.77291919774E+03  0.41704801659E+03 -0.68695879532E+03  0.14648363461E+04  0.95000000000E+03 0.  0.
<mgrwt>
<rscale>  0 0.26601774E+04</rscale>
<asrwt>0</asrwt>
<pdfrwt beam="2">  1        2 0.26868423E+00 0.26601774E+04</pdfrwt>
<pdfrwt beam="1">  1       -2 0.15584480E+00 0.26601774E+04</pdfrwt>
<totfact> 0.22006492E+00</totfact>
</mgrwt>
</event>
<event>
 4    1  0.2048914E-008  0.2222111E+04  0.7816531E-02  0.8509281E-01
         -1   -1    0    0    0  501 -0.00000000000E+00  0.00000000000E+00  0.10020509686E+04  0.10020509686E+04  0.00000000000E+00 0. -1.
          1   -1    0    0  501    0  0.00000000000E+00 -0.00000000000E+00 -0.12319180716E+04  0.12319180716E+04  0.00000000000E+00 0.  1.
    2000013    1    1    2    0    0 -0.40293289794E+03  0.38258326818E+03  0.38260095469E+02  0.11012214638E+04  0.95000000000E+03 0.  0.
   -2000013    1    1    2    0    0  0.40293289794E+03 -0.38258326818E+03 -0.26812719849E+03  0.11327475764E+04  0.95000000000E+03 0.  0.
<mgrwt>
<rscale>  0 0.22221113E+04</rscale>
<asrwt>0</asrwt>
<pdfrwt beam="2">  1        1 0.18952586E+00 0.22221113E+04</pdfrwt>
<pdfrwt beam="1">  1       -1 0.15416169E+00 0.22221113E+04</pdfrwt>
<totfact> 0.29853336E+00</totfact>
</mgrwt>
</event>
<event>
 4    1  0.2048914E-008  0.2464825E+04  0.7816531E-02  0.8415625E-01
         -2   -1    0    0    0  501 -0.00000000000E+00  0.00000000000E+00  0.92324975083E+03  0.92324975083E+03  0.00000000000E+00 0. -1.
          2   -1    0    0  501    0  0.00000000000E+00 -0.00000000000E+00 -0.16451020255E+04  0.16451020255E+04  0.00000000000E+00 0.  1.
    2000013    1    1    2    0    0  0.60137114483E+03 -0.13169346916E+03 -0.86857422650E+03  0.14268537453E+04  0.95000000000E+03 0.  0.
   -2000013    1    1    2    0    0 -0.60137114483E+03  0.13169346916E+03  0.14672195182E+03  0.11414980310E+04  0.95000000000E+03 0.  0.
<mgrwt>
<rscale>  0 0.24648246E+04</rscale>
<asrwt>0</asrwt>
<pdfrwt beam="2">  1        2 0.25309262E+00 0.24648246E+04</pdfrwt>
<pdfrwt beam="1">  1       -2 0.14203843E+00 0.24648246E+04</pdfrwt>
<totfact> 0.32560537E+00</totfact>
</mgrwt>
</event>
<event>
 4    1  0.2048914E-008  0.3047875E+04  0.7816531E-02  0.8230190E-01
         -2   -1    0    0    0  501 -0.00000000000E+00  0.00000000000E+00  0.11783992766E+04  0.11783992766E+04  0.00000000000E+00 0. -1.
          2   -1    0    0  501    0  0.00000000000E+00 -0.00000000000E+00 -0.19707973328E+04  0.19707973328E+04  0.00000000000E+00 0.  1.
    2000013    1    1    2    0    0  0.33246256251E+03 -0.90446411929E+03  0.32802962512E+03  0.13923685337E+04  0.95000000000E+03 0.  0.
   -2000013    1    1    2    0    0 -0.33246256251E+03  0.90446411929E+03 -0.11204276814E+04  0.17568280757E+04  0.95000000000E+03 0.  0.
<mgrwt>
<rscale>  0 0.30478754E+04</rscale>
<asrwt>0</asrwt>
<pdfrwt beam="2">  1        2 0.30319959E+00 0.30478754E+04</pdfrwt>
<pdfrwt beam="1">  1       -2 0.18129220E+00 0.30478754E+04</pdfrwt>
<totfact> 0.10506630E+00</totfact>
</mgrwt>
</event>
<event>
 4    1  0.2048914E-008  0.2530735E+04  0.7816531E-02  0.8392117E-01
          2   -1    0    0  501    0  0.00000000000E+00  0.00000000000E+00  0.10919669414E+04  0.10919669414E+04  0.00000000000E+00 0.  1.
         -2   -1    0    0    0  501 -0.00000000000E+00 -0.00000000000E+00 -0.14663033994E+04  0.14663033994E+04  0.00000000000E+00 0. -1.
    2000013    1    1    2    0    0  0.49270831082E+03  0.18300362831E+03 -0.84416507845E+03  0.13752696053E+04  0.95000000000E+03 0.  0.
   -2000013    1    1    2    0    0 -0.49270831082E+03 -0.18300362831E+03  0.46982862045E+03  0.11830007355E+04  0.95000000000E+03 0.  0.
<mgrwt>
<rscale>  0 0.25307349E+04</rscale>
<asrwt>0</asrwt>
<pdfrwt beam="1">  1        2 0.16799491E+00 0.25307349E+04</pdfrwt>
<pdfrwt beam="2">  1       -2 0.22558514E+00 0.25307349E+04</pdfrwt>
<totfact> 0.17863505E+00</totfact>
</mgrwt>
</event>
<event>
 4    1  0.2048914E-008  0.2284888E+04  0.7816531E-02  0.8483903E-01
         -2   -1    0    0    0  501 -0.00000000000E+00  0.00000000000E+00  0.69828775225E+03  0.69828775225E+03  0.00000000000E+00 0. -1.
          2   -1    0    0  501    0  0.00000000000E+00 -0.00000000000E+00 -0.18691129129E+04  0.18691129129E+04  0.00000000000E+00 0.  1.
    2000013    1    1    2    0    0 -0.49964125295E+03 -0.38714566892E+03 -0.64853200635E+03  0.13124850147E+04  0.95000000000E+03 0.  0.
   -2000013    1    1    2    0    0  0.49964125295E+03  0.38714566892E+03 -0.52229315424E+03  0.12549156504E+04  0.95000000000E+03 0.  0.
<mgrwt>
<rscale>  0 0.22848883E+04</rscale>
<asrwt>0</asrwt>
<pdfrwt beam="2">  1        2 0.28755583E+00 0.22848883E+04</pdfrwt>
<pdfrwt beam="1">  1       -2 0.10742889E+00 0.22848883E+04</pdfrwt>
<totfact> 0.49884607E+00</totfact>
</mgrwt>
</event>
<event>
 4    1  0.2048914E-008  0.2705637E+04  0.7816531E-02  0.8333178E-01
         -2   -1    0    0    0  501 -0.00000000000E+00  0.00000000000E+00  0.58831808313E+03  0.58831808313E+03  0.00000000000E+00 0. -1.
          2   -1    0    0  501    0  0.00000000000E+00 -0.00000000000E+00 -0.31107626943E+04  0.31107626943E+04  0.00000000000E+00 0.  1.
    2000013    1    1    2    0    0 -0.91603658165E+03 -0.34269810733E+02 -0.85722134023E+03  0.15740476057E+04  0.95000000000E+03 0.  0.
   -2000013    1    1    2    0    0  0.91603658165E+03  0.34269810733E+02 -0.16652232709E+04  0.21250331717E+04  0.95000000000E+03 0.  0.
<mgrwt>
<rscale>  0 0.27056370E+04</rscale>
<asrwt>0</asrwt>
<pdfrwt beam="2">  1        2 0.47857887E+00 0.27056370E+04</pdfrwt>
<pdfrwt beam="1">  1       -2 0.90510475E-01 0.27056370E+04</pdfrwt>
<totfact> 0.13544504E+00</totfact>
</mgrwt>
</event>
<event>
 4    1  0.2048914E-008  0.2348849E+04  0.7816531E-02  0.8458906E-01
          2   -1    0    0  501    0  0.00000000000E+00  0.00000000000E+00  0.18388257099E+04  0.18388257099E+04  0.00000000000E+00 0.  1.
         -2   -1    0    0    0  501 -0.00000000000E+00 -0.00000000000E+00 -0.75008346224E+03  0.75008346224E+03  0.00000000000E+00 0. -1.
    2000013    1    1    2    0    0 -0.59275020870E+03 -0.23110567021E+03  0.84014409879E+03  0.14188392254E+04  0.95000000000E+03 0.  0.
   -2000013    1    1    2    0    0  0.59275020870E+03  0.23110567021E+03  0.24859814888E+03  0.11700699468E+04  0.95000000000E+03 0.  0.
<mgrwt>
<rscale>  0 0.23488489E+04</rscale>
<asrwt>0</asrwt>
<pdfrwt beam="1">  1        2 0.28289626E+00 0.23488489E+04</pdfrwt>
<pdfrwt beam="2">  1       -2 0.11539746E+00 0.23488489E+04</pdfrwt>
<totfact> 0.43354921E+00</totfact>
</mgrwt>
</event>
<event>
 4    1  0.2048914E-008  0.2700630E+04  0.7816531E-02  0.8334801E-01
         -1   -1    0    0    0  501 -0.00000000000E+00  0.00000000000E+00  0.84961961370E+03  0.84961961370E+03  0.00000000000E+00 0. -1.
          1   -1    0    0  501    0  0.00000000000E+00 -0.00000000000E+00 -0.21460781491E+04  0.21460781491E+04  0.00000000000E+00 0.  1.
    2000013    1    1    2    0    0 -0.87244829294E+03  0.12855789688E+03 -0.22852908486E+03  0.13162137742E+04  0.95000000000E+03 0.  0.
   -2000013    1    1    2    0    0  0.87244829294E+03 -0.12855789688E+03 -0.10679294505E+04  0.16794839886E+04  0.95000000000E+03 0.  0.
<mgrwt>
<rscale>  0 0.27006296E+04</rscale>
<asrwt>0</asrwt>
<pdfrwt beam="2">  1        1 0.33016587E+00 0.27006296E+04</pdfrwt>
<pdfrwt beam="1">  1       -1 0.13071071E+00 0.27006296E+04</pdfrwt>
<totfact> 0.10351991E+00</totfact>
</mgrwt>
</event>
<event>
 4    1  0.2048914E-008  0.2925430E+04  0.7816531E-02  0.8265351E-01
         -2   -1    0    0    0  501 -0.00000000000E+00  0.00000000000E+00  0.10474221317E+04  0.10474221317E+04  0.00000000000E+00 0. -1.
          2   -1    0    0  501    0  0.00000000000E+00 -0.00000000000E+00 -0.20426675821E+04  0.20426675821E+04  0.00000000000E+00 0.  1.
    2000013    1    1    2    0    0  0.82715351326E+03  0.36397698370E+03 -0.11824780020E+04  0.17656206853E+04  0.95000000000E+03 0.  0.
   -2000013    1    1    2    0    0 -0.82715351326E+03 -0.36397698370E+03  0.18723255165E+03  0.13244690285E+04  0.95000000000E+03 0.  0.
<mgrwt>
<rscale>  0 0.29254300E+04</rscale>
<asrwt>0</asrwt>
<pdfrwt beam="2">  1        2 0.31425655E+00 0.29254300E+04</pdfrwt>
<pdfrwt beam="1">  1       -2 0.16114187E+00 0.29254300E+04</pdfrwt>
<totfact> 0.13459701E+00</totfact>
</mgrwt>
</event>
<event>
 4    1  0.2048914E-008  0.2359886E+04  0.7816531E-02  0.8454676E-01
          2   -1    0    0  501    0  0.00000000000E+00  0.00000000000E+00  0.16003642392E+04  0.16003642392E+04  0.00000000000E+00 0.  1.
         -2   -1    0    0    0  501 -0.00000000000E+00 -0.00000000000E+00 -0.86996813515E+03  0.86996813515E+03  0.00000000000E+00 0. -1.
    2000013    1    1    2    0    0  0.23930605521E+03 -0.46623409572E+03  0.85072015969E+03  0.13787191194E+04  0.95000000000E+03 0.  0.
   -2000013    1    1    2    0    0 -0.23930605521E+03  0.46623409572E+03 -0.12032405563E+03  0.10916132550E+04  0.95000000000E+03 0.  0.
<mgrwt>
<rscale>  0 0.23598863E+04</rscale>
<asrwt>0</asrwt>
<pdfrwt beam="1">  1        2 0.24620988E+00 0.23598863E+04</pdfrwt>
<pdfrwt beam="2">  1       -2 0.13384125E+00 0.23598863E+04</pdfrwt>
<totfact> 0.40564043E+00</totfact>
</mgrwt>
</event>
<event>
 4    1  0.2048914E-008  0.2256806E+04  0.7816531E-02  0.8495149E-01
         -2   -1    0    0    0  501 -0.00000000000E+00  0.00000000000E+00  0.35486480916E+03  0.35486480916E+03  0.00000000000E+00 0. -1.
          2   -1    0    0  501    0  0.00000000000E+00 -0.00000000000E+00 -0.35881073617E+04  0.35881073617E+04  0.00000000000E+00 0.  1.
    2000013    1    1    2    0    0  0.12865355960E+03  0.58158580894E+03 -0.13956279054E+04  0.17902712202E+04  0.95000000000E+03 0.  0.
   -2000013    1    1    2    0    0 -0.12865355960E+03 -0.58158580894E+03 -0.18376146471E+04  0.21527009506E+04  0.95000000000E+03 0.  0.
<mgrwt>
<rscale>  0 0.22568057E+04</rscale>
<asrwt>0</asrwt>
<pdfrwt beam="2">  1        2 0.55201650E+00 0.22568057E+04</pdfrwt>
<pdfrwt beam="1">  1       -2 0.54594588E-01 0.22568057E+04</pdfrwt>
<totfact> 0.20296302E+00</totfact>
</mgrwt>
</event>
<event>
 4    1  0.2048914E-008  0.2537242E+04  0.7816531E-02  0.8389837E-01
          2   -1    0    0  501    0  0.00000000000E+00  0.00000000000E+00  0.43204520058E+04  0.43204520058E+04  0.00000000000E+00 0. -1.
         -2   -1    0    0    0  501 -0.00000000000E+00 -0.00000000000E+00 -0.37250700302E+03  0.37250700302E+03  0.00000000000E+00 0.  1.
    2000013    1    1    2    0    0  0.31152588758E+03  0.77267017966E+03  0.21834878939E+04  0.25227340264E+04  0.95000000000E+03 0.  0.
   -2000013    1    1    2    0    0 -0.31152588758E+03 -0.77267017966E+03  0.17644571089E+04  0.21702249824E+04  0.95000000000E+03 0.  0.
<mgrwt>
<rscale>  0 0.25372415E+04</rscale>
<asrwt>0</asrwt>
<pdfrwt beam="1">  1        2 0.66468489E+00 0.25372415E+04</pdfrwt>
<pdfrwt beam="2">  1       -2 0.57308773E-01 0.25372415E+04</pdfrwt>
<totfact> 0.46313097E-01</totfact>
</mgrwt>
</event>
<event>
 4    1  0.2048914E-008  0.1964646E+04  0.7816531E-02  0.8623330E-01
          2   -1    0    0  501    0  0.00000000000E+00  0.00000000000E+00  0.63634520077E+03  0.63634520077E+03  0.00000000000E+00 0.  1.
         -2   -1    0    0    0  501 -0.00000000000E+00 -0.00000000000E+00 -0.15164077815E+04  0.15164077815E+04  0.00000000000E+00 0. -1.
    2000013    1    1    2    0    0 -0.20623309328E+03  0.13891137514E+03 -0.41252053547E+03  0.10651298752E+04  0.95000000000E+03 0.  0.
   -2000013    1    1    2    0    0  0.20623309328E+03 -0.13891137514E+03 -0.46754204528E+03  0.10876231071E+04  0.95000000000E+03 0.  0.
<mgrwt>
<rscale>  0 0.19646463E+04</rscale>
<asrwt>0</asrwt>
<pdfrwt beam="1">  1        2 0.97899263E-01 0.19646463E+04</pdfrwt>
<pdfrwt beam="2">  1       -2 0.23329350E+00 0.19646463E+04</pdfrwt>
<totfact> 0.35051372E+00</totfact>
</mgrwt>
</event>
<event>
 4    1  0.2048914E-008  0.2803522E+04  0.7816531E-02  0.8302176E-01
         -2   -1    0    0    0  501 -0.00000000000E+00  0.00000000000E+00  0.10648274545E+04  0.10648274545E+04  0.00000000000E+00 0. -1.
          2   -1    0    0  501    0  0.00000000000E+00 -0.00000000000E+00 -0.18453072781E+04  0.18453072781E+04  0.00000000000E+00 0.  1.
    2000013    1    1    2    0    0 -0.91826279094E+03  0.11720243766E+03  0.80309697102E+02  0.13288689221E+04  0.95000000000E+03 0.  0.
   -2000013    1    1    2    0    0  0.91826279094E+03 -0.11720243766E+03 -0.86078952067E+03  0.15812658105E+04  0.95000000000E+03 0.  0.
<mgrwt>
<rscale>  0 0.28035220E+04</rscale>
<asrwt>0</asrwt>
<pdfrwt beam="2">  1        2 0.28389343E+00 0.28035220E+04</pdfrwt>
<pdfrwt beam="1">  1       -2 0.16381961E+00 0.28035220E+04</pdfrwt>
<totfact> 0.16730015E+00</totfact>
</mgrwt>
</event>
<event>
 4    1  0.2048914E-008  0.2325386E+04  0.7816531E-02  0.8467979E-01
         -2   -1    0    0    0  501 -0.00000000000E+00  0.00000000000E+00  0.21113469950E+04  0.21113469950E+04  0.00000000000E+00 0. -1.
          2   -1    0    0  501    0  0.00000000000E+00 -0.00000000000E+00 -0.64028061592E+03  0.64028061592E+03  0.00000000000E+00 0.  1.
    2000013    1    1    2    0    0 -0.65358292554E+03 -0.13542055462E+03  0.66215729281E+03  0.13365858175E+04  0.95000000000E+03 0.  0.
   -2000013    1    1    2    0    0  0.65358292554E+03  0.13542055462E+03  0.80890908625E+03  0.14150417934E+04  0.95000000000E+03 0.  0.
<mgrwt>
<rscale>  0 0.23253856E+04</rscale>
<asrwt>0</asrwt>
<pdfrwt beam="2">  1        2 0.98504711E-01 0.23253856E+04</pdfrwt>
<pdfrwt beam="1">  1       -2 0.32482261E+00 0.23253856E+04</pdfrwt>
<totfact> 0.92706950E-01</totfact>
</mgrwt>
</event>
<event>
 4    1  0.2048914E-008  0.2123941E+04  0.7816531E-02  0.8550770E-01
          2   -1    0    0  501    0  0.00000000000E+00  0.00000000000E+00  0.15138656583E+04  0.15138656583E+04  0.00000000000E+00 0.  1.
         -2   -1    0    0    0  501 -0.00000000000E+00 -0.00000000000E+00 -0.74496775047E+03  0.74496775047E+03  0.00000000000E+00 0. -1.
    2000013    1    1    2    0    0 -0.28202380563E+03  0.37272213712E+03  0.29660867668E+03  0.10995162234E+04  0.95000000000E+03 0.  0.
   -2000013    1    1    2    0    0  0.28202380563E+03 -0.37272213712E+03  0.47228923117E+03  0.11593171854E+04  0.95000000000E+03 0.  0.
<mgrwt>
<rscale>  0 0.21239408E+04</rscale>
<asrwt>0</asrwt>
<pdfrwt beam="1">  1        2 0.23290241E+00 0.21239408E+04</pdfrwt>
<pdfrwt beam="2">  1       -2 0.11461042E+00 0.21239408E+04</pdfrwt>
<totfact> 0.68185320E+00</totfact>
</mgrwt>
</event>
<event>
 4    1  0.2048914E-008  0.2674629E+04  0.7816531E-02  0.8343284E-01
          2   -1    0    0  501    0  0.00000000000E+00  0.00000000000E+00  0.12342218929E+04  0.12342218929E+04  0.00000000000E+00 0.  1.
         -2   -1    0    0    0  501 -0.00000000000E+00 -0.00000000000E+00 -0.14490178236E+04  0.14490178236E+04  0.00000000000E+00 0. -1.
    2000013    1    1    2    0    0  0.69278767837E+03  0.17983758529E+03  0.50580902244E+03  0.12925320466E+04  0.95000000000E+03 0.  0.
   -2000013    1    1    2    0    0 -0.69278767837E+03 -0.17983758529E+03 -0.72060495316E+03  0.13907076698E+04  0.95000000000E+03 0.  0.
<mgrwt>
<rscale>  0 0.26746286E+04</rscale>
<asrwt>0</asrwt>
<pdfrwt beam="1">  1        2 0.18988029E+00 0.26746286E+04</pdfrwt>
<pdfrwt beam="2">  1       -2 0.22292582E+00 0.26746286E+04</pdfrwt>
<totfact> 0.15047407E+00</totfact>
</mgrwt>
</event>
<event>
 4    1  0.2048914E-008  0.1961494E+04  0.7816531E-02  0.8624838E-01
         -2   -1    0    0    0  501 -0.00000000000E+00  0.00000000000E+00  0.47570214926E+03  0.47570214926E+03  0.00000000000E+00 0. -1.
          2   -1    0    0  501    0  0.00000000000E+00 -0.00000000000E+00 -0.20219896844E+04  0.20219896844E+04  0.00000000000E+00 0.  1.
    2000013    1    1    2    0    0  0.18998780568E+03  0.15086922073E+03 -0.80184249034E+03  0.12666129114E+04  0.95000000000E+03 0.  0.
   -2000013    1    1    2    0    0 -0.18998780568E+03 -0.15086922073E+03 -0.74444504483E+03  0.12310789223E+04  0.95000000000E+03 0.  0.
<mgrwt>
<rscale>  0 0.19614942E+04</rscale>
<asrwt>0</asrwt>
<pdfrwt beam="2">  1        2 0.31107534E+00 0.19614942E+04</pdfrwt>
<pdfrwt beam="1">  1       -2 0.73184946E-01 0.19614942E+04</pdfrwt>
<totfact> 0.10204182E+01</totfact>
</mgrwt>
</event>
<event>
 4    1  0.2048914E-008  0.2617181E+04  0.7816531E-02  0.8362389E-01
         -2   -1    0    0    0  501 -0.00000000000E+00  0.00000000000E+00  0.57798345606E+03  0.57798345606E+03  0.00000000000E+00 0. -1.
          2   -1    0    0  501    0  0.00000000000E+00 -0.00000000000E+00 -0.29627296793E+04  0.29627296793E+04  0.00000000000E+00 0.  1.
    2000013    1    1    2    0    0  0.79219420393E+03  0.41615776197E+03 -0.13217816182E+04  0.18575159719E+04  0.95000000000E+03 0.  0.
   -2000013    1    1    2    0    0 -0.79219420393E+03 -0.41615776197E+03 -0.10629646051E+04  0.16831971635E+04  0.95000000000E+03 0.  0.
<mgrwt>
<rscale>  0 0.26171807E+04</rscale>
<asrwt>0</asrwt>
<pdfrwt beam="2">  1        2 0.45580457E+00 0.26171807E+04</pdfrwt>
<pdfrwt beam="1">  1       -2 0.88920531E-01 0.26171807E+04</pdfrwt>
<totfact> 0.17630586E+00</totfact>
</mgrwt>
</event>
<event>
 4    1  0.2048914E-008  0.2839907E+04  0.7816531E-02  0.8290985E-01
         -2   -1    0    0    0  501 -0.00000000000E+00  0.00000000000E+00  0.81789208533E+03  0.81789208533E+03  0.00000000000E+00 0. -1.
          2   -1    0    0  501    0  0.00000000000E+00 -0.00000000000E+00 -0.24651996368E+04  0.24651996368E+04  0.00000000000E+00 0.  1.
    2000013    1    1    2    0    0 -0.94571908157E+03  0.39096814327E+03 -0.11218324906E+04  0.17911585098E+04  0.95000000000E+03 0.  0.
   -2000013    1    1    2    0    0  0.94571908157E+03 -0.39096814327E+03 -0.52547506078E+03  0.14919332122E+04  0.95000000000E+03 0.  0.
<mgrwt>
<rscale>  0 0.28399065E+04</rscale>
<asrwt>0</asrwt>
<pdfrwt beam="2">  1        2 0.37926149E+00 0.28399065E+04</pdfrwt>
<pdfrwt beam="1">  1       -2 0.12582955E+00 0.28399065E+04</pdfrwt>
<totfact> 0.14910915E+00</totfact>
</mgrwt>
</event>
<event>
 4    1  0.2048914E-008  0.2538463E+04  0.7816531E-02  0.8389410E-01
         -1   -1    0    0    0  501 -0.00000000000E+00  0.00000000000E+00  0.86541446274E+03  0.86541446274E+03  0.00000000000E+00 0.  1.
          1   -1    0    0  501    0  0.00000000000E+00 -0.00000000000E+00 -0.18614764948E+04  0.18614764948E+04  0.00000000000E+00 0. -1.
    2000013    1    1    2    0    0  0.24430123367E+03  0.66140852746E+03 -0.42309543781E+01  0.11830732158E+04  0.95000000000E+03 0.  0.
   -2000013    1    1    2    0    0 -0.24430123367E+03 -0.66140852746E+03 -0.99183107764E+03  0.15438177417E+04  0.95000000000E+03 0.  0.
<mgrwt>
<rscale>  0 0.25384631E+04</rscale>
<asrwt>0</asrwt>
<pdfrwt beam="2">  1        1 0.28638100E+00 0.25384631E+04</pdfrwt>
<pdfrwt beam="1">  1       -1 0.13314069E+00 0.25384631E+04</pdfrwt>
<totfact> 0.15637012E+00</totfact>
</mgrwt>
</event>
<event>
 4    1  0.2048914E-008  0.3029771E+04  0.7816531E-02  0.8235280E-01
         -2   -1    0    0    0  501 -0.00000000000E+00  0.00000000000E+00  0.21578048184E+04  0.21578048184E+04  0.00000000000E+00 0. -1.
          2   -1    0    0  501    0  0.00000000000E+00 -0.00000000000E+00 -0.10635245275E+04  0.10635245275E+04  0.00000000000E+00 0.  1.
    2000013    1    1    2    0    0 -0.79586259832E+03 -0.58168067564E+03 -0.14242409598E+03  0.13764208321E+04  0.95000000000E+03 0.  0.
   -2000013    1    1    2    0    0  0.79586259832E+03  0.58168067564E+03  0.12367043869E+04  0.18449085138E+04  0.95000000000E+03 0.  0.
<mgrwt>
<rscale>  0 0.30297712E+04</rscale>
<asrwt>0</asrwt>
<pdfrwt beam="2">  1        2 0.16361916E+00 0.30297712E+04</pdfrwt>
<pdfrwt beam="1">  1       -2 0.33196997E+00 0.30297712E+04</pdfrwt>
<totfact> 0.39550806E-01</totfact>
</mgrwt>
</event>
<event>
 4    1  0.2048914E-008  0.2654500E+04  0.7816531E-02  0.8349921E-01
          2   -1    0    0  501    0  0.00000000000E+00  0.00000000000E+00  0.15439786373E+04  0.15439786373E+04  0.00000000000E+00 0.  1.
         -2   -1    0    0    0  501 -0.00000000000E+00 -0.00000000000E+00 -0.11409440389E+04  0.11409440389E+04  0.00000000000E+00 0. -1.
    2000013    1    1    2    0    0 -0.53759804161E+03  0.62556771200E+03 -0.22611241391E+03  0.12782697056E+04  0.95000000000E+03 0.  0.
   -2000013    1    1    2    0    0  0.53759804161E+03 -0.62556771200E+03  0.62914701224E+03  0.14066529706E+04  0.95000000000E+03 0.  0.
<mgrwt>
<rscale>  0 0.26545005E+04</rscale>
<asrwt>0</asrwt>
<pdfrwt beam="1">  1        2 0.23753517E+00 0.26545005E+04</pdfrwt>
<pdfrwt beam="2">  1       -2 0.17552985E+00 0.26545005E+04</pdfrwt>
<totfact> 0.20569703E+00</totfact>
</mgrwt>
</event>
<event>
 4    1  0.2048914E-008  0.2147420E+04  0.7816531E-02  0.8540637E-01
          1   -1    0    0  501    0  0.00000000000E+00  0.00000000000E+00  0.19296010664E+04  0.19296010664E+04  0.00000000000E+00 0.  1.
         -1   -1    0    0    0  501 -0.00000000000E+00 -0.00000000000E+00 -0.59745695448E+03  0.59745695448E+03  0.00000000000E+00 0. -1.
    2000013    1    1    2    0    0  0.15928688000E+03 -0.20758011183E+03  0.11679575678E+04  0.15280990456E+04  0.95000000000E+03 0.  0.
   -2000013    1    1    2    0    0 -0.15928688000E+03  0.20758011183E+03  0.16418654408E+03  0.99895897525E+03  0.95000000000E+03 0.  0.
<mgrwt>
<rscale>  0 0.21474204E+04</rscale>
<asrwt>0</asrwt>
<pdfrwt beam="1">  1        1 0.29686170E+00 0.21474204E+04</pdfrwt>
<pdfrwt beam="2">  1       -1 0.91916456E-01 0.21474204E+04</pdfrwt>
<totfact> 0.35118423E+00</totfact>
</mgrwt>
</event>
<event>
 4    1  0.2048914E-008  0.2478574E+04  0.7816531E-02  0.8410659E-01
         -2   -1    0    0    0  501 -0.00000000000E+00  0.00000000000E+00  0.14782215642E+04  0.14782215642E+04  0.00000000000E+00 0. -1.
          2   -1    0    0  501    0  0.00000000000E+00 -0.00000000000E+00 -0.10389725880E+04  0.10389725880E+04  0.00000000000E+00 0.  1.
    2000013    1    1    2    0    0 -0.28283859433E+02 -0.76461492530E+03 -0.26365181906E+01  0.12198126544E+04  0.95000000000E+03 0.  0.
   -2000013    1    1    2    0    0  0.28283859433E+02  0.76461492530E+03  0.44188549442E+03  0.12973814978E+04  0.95000000000E+03 0.  0.
<mgrwt>
<rscale>  0 0.24785735E+04</rscale>
<asrwt>0</asrwt>
<pdfrwt beam="2">  1        2 0.15984194E+00 0.24785735E+04</pdfrwt>
<pdfrwt beam="1">  1       -2 0.22741870E+00 0.24785735E+04</pdfrwt>
<totfact> 0.18857320E+00</totfact>
</mgrwt>
</event>
<event>
 4    1  0.2048914E-008  0.2358801E+04  0.7816531E-02  0.8455091E-01
          2   -1    0    0  501    0  0.00000000000E+00  0.00000000000E+00  0.28599302123E+04  0.28599302123E+04  0.00000000000E+00 0.  1.
         -2   -1    0    0    0  501 -0.00000000000E+00 -0.00000000000E+00 -0.48637037626E+03  0.48637037626E+03  0.00000000000E+00 0. -1.
    2000013    1    1    2    0    0  0.62049906441E+03  0.29797026407E+03  0.13586642170E+04  0.17950693083E+04  0.95000000000E+03 0.  0.
   -2000013    1    1    2    0    0 -0.62049906441E+03 -0.29797026407E+03  0.10148956191E+04  0.15512312802E+04  0.95000000000E+03 0.  0.
<mgrwt>
<rscale>  0 0.23588008E+04</rscale>
<asrwt>0</asrwt>
<pdfrwt beam="1">  1        2 0.43998925E+00 0.23588008E+04</pdfrwt>
<pdfrwt beam="2">  1       -2 0.74826214E-01 0.23588008E+04</pdfrwt>
<totfact> 0.30800300E+00</totfact>
</mgrwt>
</event>
<event>
 4    1  0.2048914E-008  0.2320172E+04  0.7816531E-02  0.8470010E-01
         -2   -1    0    0    0  501 -0.00000000000E+00  0.00000000000E+00  0.13980605006E+04  0.13980605006E+04  0.00000000000E+00 0. -1.
          2   -1    0    0  501    0  0.00000000000E+00 -0.00000000000E+00 -0.96261908757E+03  0.96261908757E+03  0.00000000000E+00 0.  1.
    2000013    1    1    2    0    0  0.56454998503E+03 -0.42037673215E+02  0.57429011436E+03  0.12461111455E+04  0.95000000000E+03 0.  0.
   -2000013    1    1    2    0    0 -0.56454998503E+03  0.42037673215E+02 -0.13884870129E+03  0.11145684427E+04  0.95000000000E+03 0.  0.
<mgrwt>
<rscale>  0 0.23201722E+04</rscale>
<asrwt>0</asrwt>
<pdfrwt beam="2">  1        2 0.14809524E+00 0.23201722E+04</pdfrwt>
<pdfrwt beam="1">  1       -2 0.21508623E+00 0.23201722E+04</pdfrwt>
<totfact> 0.25601277E+00</totfact>
</mgrwt>
</event>
<event>
 4    1  0.2048914E-008  0.2190971E+04  0.7816531E-02  0.8522196E-01
          2   -1    0    0  501    0  0.00000000000E+00  0.00000000000E+00  0.20270956435E+04  0.20270956435E+04  0.00000000000E+00 0.  1.
         -2   -1    0    0    0  501 -0.00000000000E+00 -0.00000000000E+00 -0.59202367128E+03  0.59202367128E+03  0.00000000000E+00 0. -1.
    2000013    1    1    2    0    0  0.36431613813E+03 -0.45107170692E+02  0.23516322570E+03  0.10452572162E+04  0.95000000000E+03 0.  0.
   -2000013    1    1    2    0    0 -0.36431613813E+03  0.45107170692E+02  0.11999087466E+04  0.15738620986E+04  0.95000000000E+03 0.  0.
<mgrwt>
<rscale>  0 0.21909711E+04</rscale>
<asrwt>0</asrwt>
<pdfrwt beam="1">  1        2 0.31186086E+00 0.21909711E+04</pdfrwt>
<pdfrwt beam="2">  1       -2 0.91080566E-01 0.21909711E+04</pdfrwt>
<totfact> 0.60676466E+00</totfact>
</mgrwt>
</event>
<event>
 4    1  0.2048914E-008  0.2268505E+04  0.7816531E-02  0.8490444E-01
         -2   -1    0    0    0  501 -0.00000000000E+00  0.00000000000E+00  0.47323518450E+03  0.47323518450E+03  0.00000000000E+00 0. -1.
          2   -1    0    0  501    0  0.00000000000E+00 -0.00000000000E+00 -0.27185824911E+04  0.27185824911E+04  0.00000000000E+00 0.  1.
    2000013    1    1    2    0    0 -0.51031701966E+03 -0.11320274794E+03 -0.65434611517E+03  0.12664545634E+04  0.95000000000E+03 0.  0.
   -2000013    1    1    2    0    0  0.51031701966E+03  0.11320274794E+03 -0.15910011914E+04  0.19253631122E+04  0.95000000000E+03 0.  0.
<mgrwt>
<rscale>  0 0.22685051E+04</rscale>
<asrwt>0</asrwt>
<pdfrwt beam="2">  1        2 0.41824347E+00 0.22685051E+04</pdfrwt>
<pdfrwt beam="1">  1       -2 0.72805412E-01 0.22685051E+04</pdfrwt>
<totfact> 0.40133321E+00</totfact>
</mgrwt>
</event>
<event>
 4    1  0.2048914E-008  0.2653515E+04  0.7816531E-02  0.8350247E-01
          2   -1    0    0  501    0  0.00000000000E+00  0.00000000000E+00  0.20690718055E+04  0.20690718055E+04  0.00000000000E+00 0.  1.
         -2   -1    0    0    0  501 -0.00000000000E+00 -0.00000000000E+00 -0.85076087194E+03  0.85076087194E+03  0.00000000000E+00 0. -1.
    2000013    1    1    2    0    0 -0.43880757450E+03 -0.81520604943E+03  0.58062349058E+03  0.14480112666E+04  0.95000000000E+03 0.  0.
   -2000013    1    1    2    0    0  0.43880757450E+03  0.81520604943E+03  0.63768744302E+03  0.14718214108E+04  0.95000000000E+03 0.  0.
<mgrwt>
<rscale>  0 0.26535149E+04</rscale>
<asrwt>0</asrwt>
<pdfrwt beam="1">  1        2 0.31831874E+00 0.26535149E+04</pdfrwt>
<pdfrwt beam="2">  1       -2 0.13088629E+00 0.26535149E+04</pdfrwt>
<totfact> 0.22986236E+00</totfact>
</mgrwt>
</event>
<event>
 4    1  0.2048914E-008  0.2159375E+04  0.7816531E-02  0.8535530E-01
          2   -1    0    0  501    0  0.00000000000E+00  0.00000000000E+00  0.98460568268E+03  0.98460568268E+03  0.00000000000E+00 0.  1.
         -2   -1    0    0    0  501 -0.00000000000E+00 -0.00000000000E+00 -0.11839515871E+04  0.11839515871E+04  0.00000000000E+00 0. -1.
    2000013    1    1    2    0    0 -0.57532339616E+02 -0.48736327676E+03 -0.24995057398E+03  0.10980929938E+04  0.95000000000E+03 0.  0.
   -2000013    1    1    2    0    0  0.57532339616E+02  0.48736327676E+03  0.50604669508E+02  0.10704642760E+04  0.95000000000E+03 0.  0.
<mgrwt>
<rscale>  0 0.21593753E+04</rscale>
<asrwt>0</asrwt>
<pdfrwt beam="1">  1        2 0.15147780E+00 0.21593753E+04</pdfrwt>
<pdfrwt beam="2">  1       -2 0.18214640E+00 0.21593753E+04</pdfrwt>
<totfact> 0.41411960E+00</totfact>
</mgrwt>
</event>
<event>
 4    1  0.2048914E-008  0.2725469E+04  0.7816531E-02  0.8326788E-01
          1   -1    0    0  501    0  0.00000000000E+00  0.00000000000E+00  0.20164724061E+04  0.20164724061E+04  0.00000000000E+00 0.  1.
         -1   -1    0    0    0  501 -0.00000000000E+00 -0.00000000000E+00 -0.92093760681E+03  0.92093760681E+03  0.00000000000E+00 0. -1.
    2000013    1    1    2    0    0  0.59953832576E+03 -0.64422113504E+03  0.90411909842E+02  0.12981299582E+04  0.95000000000E+03 0.  0.
   -2000013    1    1    2    0    0 -0.59953832576E+03  0.64422113504E+03  0.10051228894E+04  0.16392800547E+04  0.95000000000E+03 0.  0.
<mgrwt>
<rscale>  0 0.27254690E+04</rscale>
<asrwt>0</asrwt>
<pdfrwt beam="1">  1        1 0.31022652E+00 0.27254690E+04</pdfrwt>
<pdfrwt beam="2">  1       -1 0.14168271E+00 0.27254690E+04</pdfrwt>
<totfact> 0.10277184E+00</totfact>
</mgrwt>
</event>
<event>
 4    1  0.2048914E-008  0.1946200E+04  0.7816531E-02  0.8632195E-01
         -2   -1    0    0    0  501 -0.00000000000E+00  0.00000000000E+00  0.11575607283E+04  0.11575607283E+04  0.00000000000E+00 0.  1.
          2   -1    0    0  501    0  0.00000000000E+00 -0.00000000000E+00 -0.81803387805E+03  0.81803387805E+03  0.00000000000E+00 0. -1.
    2000013    1    1    2    0    0 -0.13054063583E+03 -0.16119650872E+03  0.20772774532E+03  0.99432187354E+03  0.95000000000E+03 0.  0.
   -2000013    1    1    2    0    0  0.13054063583E+03  0.16119650872E+03  0.13179910490E+03  0.98127273277E+03  0.95000000000E+03 0.  0.
<mgrwt>
<rscale>  0 0.19462003E+04</rscale>
<asrwt>0</asrwt>
<pdfrwt beam="2">  1        2 0.12585137E+00 0.19462003E+04</pdfrwt>
<pdfrwt beam="1">  1       -2 0.17808627E+00 0.19462003E+04</pdfrwt>
<totfact> 0.58294661E+00</totfact>
</mgrwt>
</event>
<event>
 4    1  0.2048914E-008  0.2057829E+04  0.7816531E-02  0.8580051E-01
         -2   -1    0    0    0  501 -0.00000000000E+00  0.00000000000E+00  0.58021730232E+03  0.58021730232E+03  0.00000000000E+00 0. -1.
          2   -1    0    0  501    0  0.00000000000E+00 -0.00000000000E+00 -0.18246007839E+04  0.18246007839E+04  0.00000000000E+00 0.  1.
    2000013    1    1    2    0    0  0.20231567659E+03  0.27353334871E+03 -0.38726495359E+03  0.10808451647E+04  0.95000000000E+03 0.  0.
   -2000013    1    1    2    0    0 -0.20231567659E+03 -0.27353334871E+03 -0.85711852803E+03  0.13239729215E+04  0.95000000000E+03 0.  0.
<mgrwt>
<rscale>  0 0.20578289E+04</rscale>
<asrwt>0</asrwt>
<pdfrwt beam="2">  1        2 0.28070780E+00 0.20578289E+04</pdfrwt>
<pdfrwt beam="1">  1       -2 0.89264203E-01 0.20578289E+04</pdfrwt>
<totfact> 0.83273283E+00</totfact>
</mgrwt>
</event>
<event>
 4    1  0.2048914E-008  0.3016551E+04  0.7816531E-02  0.8239020E-01
          2   -1    0    0  501    0  0.00000000000E+00  0.00000000000E+00  0.29071242349E+04  0.29071242349E+04  0.00000000000E+00 0.  1.
         -2   -1    0    0    0  501 -0.00000000000E+00 -0.00000000000E+00 -0.78252404613E+03  0.78252404613E+03  0.00000000000E+00 0. -1.
    2000013    1    1    2    0    0  0.45520832942E+03  0.10794247404E+04  0.10680664369E+04  0.18481445579E+04  0.95000000000E+03 0.  0.
   -2000013    1    1    2    0    0 -0.45520832942E+03 -0.10794247404E+04  0.10565337519E+04  0.18415037231E+04  0.95000000000E+03 0.  0.
<mgrwt>
<rscale>  0 0.30165508E+04</rscale>
<asrwt>0</asrwt>
<pdfrwt beam="1">  1        2 0.44724987E+00 0.30165508E+04</pdfrwt>
<pdfrwt beam="2">  1       -2 0.12038832E+00 0.30165508E+04</pdfrwt>
<totfact> 0.89508917E-01</totfact>
</mgrwt>
</event>
<event>
 4    1  0.2048914E-008  0.2896735E+04  0.7816531E-02  0.8273849E-01
         -2   -1    0    0    0  501 -0.00000000000E+00  0.00000000000E+00  0.99306376080E+03  0.99306376080E+03  0.00000000000E+00 0. -1.
          2   -1    0    0  501    0  0.00000000000E+00 -0.00000000000E+00 -0.21124210988E+04  0.21124210988E+04  0.00000000000E+00 0.  1.
    2000013    1    1    2    0    0 -0.77186659450E+03 -0.27466081534E+03 -0.13357611773E+04  0.18324777014E+04  0.95000000000E+03 0.  0.
   -2000013    1    1    2    0    0  0.77186659450E+03  0.27466081534E+03  0.21640383933E+03  0.12730071582E+04  0.95000000000E+03 0.  0.
<mgrwt>
<rscale>  0 0.28967353E+04</rscale>
<asrwt>0</asrwt>
<pdfrwt beam="2">  1        2 0.32498786E+00 0.28967353E+04</pdfrwt>
<pdfrwt beam="1">  1       -2 0.15277904E+00 0.28967353E+04</pdfrwt>
<totfact> 0.14244311E+00</totfact>
</mgrwt>
</event>
<event>
 4    1  0.2048914E-008  0.2273638E+04  0.7816531E-02  0.8488388E-01
         -2   -1    0    0    0  501 -0.00000000000E+00  0.00000000000E+00  0.19683467345E+04  0.19683467345E+04  0.00000000000E+00 0. -1.
          2   -1    0    0  501    0  0.00000000000E+00 -0.00000000000E+00 -0.65656986032E+03  0.65656986032E+03  0.00000000000E+00 0.  1.
    2000013    1    1    2    0    0  0.17484797886E+03  0.52197542487E+03  0.31569840126E+03  0.11424515922E+04  0.95000000000E+03 0.  0.
   -2000013    1    1    2    0    0 -0.17484797886E+03 -0.52197542487E+03  0.99607847288E+03  0.14824650026E+04  0.95000000000E+03 0.  0.
<mgrwt>
<rscale>  0 0.22736377E+04</rscale>
<asrwt>0</asrwt>
<pdfrwt beam="2">  1        2 0.10101075E+00 0.22736377E+04</pdfrwt>
<pdfrwt beam="1">  1       -2 0.30282257E+00 0.22736377E+04</pdfrwt>
<totfact> 0.12328293E+00</totfact>
</mgrwt>
</event>
<event>
 4    1  0.2048914E-008  0.2929794E+04  0.7816531E-02  0.8264068E-01
          2   -1    0    0  501    0  0.00000000000E+00  0.00000000000E+00  0.16821474092E+04  0.16821474092E+04  0.00000000000E+00 0.  1.
         -2   -1    0    0    0  501 -0.00000000000E+00 -0.00000000000E+00 -0.12757048531E+04  0.12757048531E+04  0.00000000000E+00 0. -1.
    2000013    1    1    2    0    0 -0.18424021824E+02  0.93207978668E+03 -0.41444786192E+03  0.13940513633E+04  0.95000000000E+03 0.  0.
   -2000013    1    1    2    0    0  0.18424021824E+02 -0.93207978668E+03  0.82089041796E+03  0.15638008990E+04  0.95000000000E+03 0.  0.
<mgrwt>
<rscale>  0 0.29297943E+04</rscale>
<asrwt>0</asrwt>
<pdfrwt beam="1">  1        2 0.25879191E+00 0.29297943E+04</pdfrwt>
<pdfrwt beam="2">  1       -2 0.19626228E+00 0.29297943E+04</pdfrwt>
<totfact> 0.12162845E+00</totfact>
</mgrwt>
</event>
<event>
 4    1  0.2048914E-008  0.2346840E+04  0.7816531E-02  0.8459678E-01
         -2   -1    0    0    0  501 -0.00000000000E+00  0.00000000000E+00  0.57121801652E+03  0.57121801652E+03  0.00000000000E+00 0. -1.
          2   -1    0    0  501    0  0.00000000000E+00 -0.00000000000E+00 -0.24104892811E+04  0.24104892811E+04  0.00000000000E+00 0.  1.
    2000013    1    1    2    0    0  0.18785189711E+03  0.46259091574E+03 -0.15224785214E+04  0.18627183197E+04  0.95000000000E+03 0.  0.
   -2000013    1    1    2    0    0 -0.18785189711E+03 -0.46259091574E+03 -0.31679274323E+03  0.11189889779E+04  0.95000000000E+03 0.  0.
<mgrwt>
<rscale>  0 0.23468403E+04</rscale>
<asrwt>0</asrwt>
<pdfrwt beam="2">  1        2 0.37084451E+00 0.23468403E+04</pdfrwt>
<pdfrwt beam="1">  1       -2 0.87879693E-01 0.23468403E+04</pdfrwt>
<totfact> 0.39530166E+00</totfact>
</mgrwt>
</event>
<event>
 4    1  0.2048914E-008  0.2678218E+04  0.7816531E-02  0.8342107E-01
         -1   -1    0    0    0  501 -0.00000000000E+00  0.00000000000E+00  0.66061423267E+03  0.66061423267E+03  0.00000000000E+00 0. -1.
          1   -1    0    0  501    0  0.00000000000E+00 -0.00000000000E+00 -0.27144626645E+04  0.27144626645E+04  0.00000000000E+00 0.  1.
    2000013    1    1    2    0    0  0.40460579727E+02  0.89766614219E+03 -0.13905753540E+04  0.19088324643E+04  0.95000000000E+03 0.  0.
   -2000013    1    1    2    0    0 -0.40460579727E+02 -0.89766614219E+03 -0.66327307779E+03  0.14662444329E+04  0.95000000000E+03 0.  0.
<mgrwt>
<rscale>  0 0.26782178E+04</rscale>
<asrwt>0</asrwt>
<pdfrwt beam="2">  1        1 0.41760964E+00 0.26782178E+04</pdfrwt>
<pdfrwt beam="1">  1       -1 0.10163296E+00 0.26782178E+04</pdfrwt>
<totfact> 0.76960498E-01</totfact>
</mgrwt>
</event>
<event>
 4    1  0.2048914E-008  0.2919348E+04  0.7816531E-02  0.8267144E-01
         -2   -1    0    0    0  501 -0.00000000000E+00  0.00000000000E+00  0.20436416678E+04  0.20436416678E+04  0.00000000000E+00 0. -1.
          2   -1    0    0  501    0  0.00000000000E+00 -0.00000000000E+00 -0.10425744775E+04  0.10425744775E+04  0.00000000000E+00 0.  1.
    2000013    1    1    2    0    0 -0.49598926314E+03  0.92712875404E+03  0.13041374145E+03  0.14230533439E+04  0.95000000000E+03 0.  0.
   -2000013    1    1    2    0    0  0.49598926314E+03 -0.92712875404E+03  0.87065344884E+03  0.16631628013E+04  0.95000000000E+03 0.  0.
<mgrwt>
<rscale>  0 0.29193483E+04</rscale>
<asrwt>0</asrwt>
<pdfrwt beam="2">  1        2 0.16039607E+00 0.29193483E+04</pdfrwt>
<pdfrwt beam="1">  1       -2 0.31440641E+00 0.29193483E+04</pdfrwt>
<totfact> 0.52855368E-01</totfact>
</mgrwt>
</event>
<event>
 4    1  0.2048914E-008  0.2202396E+04  0.7816531E-02  0.8517431E-01
          1   -1    0    0  501    0  0.00000000000E+00  0.00000000000E+00  0.16168125622E+04  0.16168125622E+04  0.00000000000E+00 0.  1.
         -1   -1    0    0    0  501 -0.00000000000E+00 -0.00000000000E+00 -0.75001719617E+03  0.75001719617E+03  0.00000000000E+00 0. -1.
    2000013    1    1    2    0    0  0.56866555695E+02 -0.54771904614E+03  0.34408262876E+03  0.11507053550E+04  0.95000000000E+03 0.  0.
   -2000013    1    1    2    0    0 -0.56866555695E+02  0.54771904614E+03  0.52271273724E+03  0.12161244033E+04  0.95000000000E+03 0.  0.
<mgrwt>
<rscale>  0 0.22023962E+04</rscale>
<asrwt>0</asrwt>
<pdfrwt beam="1">  1        1 0.24874039E+00 0.22023962E+04</pdfrwt>
<pdfrwt beam="2">  1       -1 0.11538726E+00 0.22023962E+04</pdfrwt>
<totfact> 0.33721995E+00</totfact>
</mgrwt>
</event>
<event>
 4    1  0.2048914E-008  0.2257318E+04  0.7816531E-02  0.8494943E-01
         -2   -1    0    0    0  501 -0.00000000000E+00  0.00000000000E+00  0.11316853522E+04  0.11316853522E+04  0.00000000000E+00 0. -1.
          2   -1    0    0  501    0  0.00000000000E+00 -0.00000000000E+00 -0.11256403855E+04  0.11256403855E+04  0.00000000000E+00 0.  1.
    2000013    1    1    2    0    0 -0.56028424307E+03 -0.20537695843E+03 -0.12056035371E+03  0.11283319223E+04  0.95000000000E+03 0.  0.
   -2000013    1    1    2    0    0  0.56028424307E+03  0.20537695843E+03  0.12660532043E+03  0.11289938154E+04  0.95000000000E+03 0.  0.
<mgrwt>
<rscale>  0 0.22573176E+04</rscale>
<asrwt>0</asrwt>
<pdfrwt beam="2">  1        2 0.17317544E+00 0.22573176E+04</pdfrwt>
<pdfrwt beam="1">  1       -2 0.17410544E+00 0.22573176E+04</pdfrwt>
<totfact> 0.38100297E+00</totfact>
</mgrwt>
</event>
<event>
 4    1  0.2048914E-008  0.3922772E+04  0.7816531E-02  0.8020310E-01
         -2   -1    0    0    0  501 -0.00000000000E+00  0.00000000000E+00  0.15671601452E+04  0.15671601452E+04  0.00000000000E+00 0. -1.
          2   -1    0    0  501    0  0.00000000000E+00 -0.00000000000E+00 -0.24547811043E+04  0.24547811043E+04  0.00000000000E+00 0.  1.
    2000013    1    1    2    0    0  0.16065134578E+04  0.56306801909E+03 -0.66514766149E+03  0.20598185590E+04  0.95000000000E+03 0.  0.
   -2000013    1    1    2    0    0 -0.16065134578E+04 -0.56306801909E+03 -0.22247329765E+03  0.19621226905E+04  0.95000000000E+03 0.  0.
<mgrwt>
<rscale>  0 0.39227720E+04</rscale>
<asrwt>0</asrwt>
<pdfrwt beam="2">  1        2 0.37765863E+00 0.39227720E+04</pdfrwt>
<pdfrwt beam="1">  1       -2 0.24110156E+00 0.39227720E+04</pdfrwt>
<totfact> 0.21402084E-01</totfact>
</mgrwt>
</event>
<event>
 4    1  0.2048914E-008  0.3014527E+04  0.7816531E-02  0.8239595E-01
          2   -1    0    0  501    0  0.00000000000E+00  0.00000000000E+00  0.12213035361E+04  0.12213035361E+04  0.00000000000E+00 0.  1.
         -2   -1    0    0    0  501 -0.00000000000E+00 -0.00000000000E+00 -0.18601793301E+04  0.18601793301E+04  0.00000000000E+00 0. -1.
    2000013    1    1    2    0    0 -0.77694761064E+03  0.29475163973E+03  0.52276562671E+03  0.13661295763E+04  0.95000000000E+03 0.  0.
   -2000013    1    1    2    0    0  0.77694761064E+03 -0.29475163973E+03 -0.11616414207E+04  0.17153532899E+04  0.95000000000E+03 0.  0.
<mgrwt>
<rscale>  0 0.30145272E+04</rscale>
<asrwt>0</asrwt>
<pdfrwt beam="1">  1        2 0.18789285E+00 0.30145272E+04</pdfrwt>
<pdfrwt beam="2">  1       -2 0.28618143E+00 0.30145272E+04</pdfrwt>
<totfact> 0.60717775E-01</totfact>
</mgrwt>
</event>
<event>
 4    1  0.2048914E-008  0.1956587E+04  0.7816531E-02  0.8627191E-01
         -2   -1    0    0    0  501 -0.00000000000E+00  0.00000000000E+00  0.64180081874E+03  0.64180081874E+03  0.00000000000E+00 0. -1.
          2   -1    0    0  501    0  0.00000000000E+00 -0.00000000000E+00 -0.14912080410E+04  0.14912080410E+04  0.00000000000E+00 0.  1.
    2000013    1    1    2    0    0  0.51066555526E+02 -0.22569435404E+03 -0.39000941863E+03  0.10526885015E+04  0.95000000000E+03 0.  0.
   -2000013    1    1    2    0    0 -0.51066555526E+02  0.22569435404E+03 -0.45939780368E+03  0.10803203583E+04  0.95000000000E+03 0.  0.
<mgrwt>
<rscale>  0 0.19565874E+04</rscale>
<asrwt>0</asrwt>
<pdfrwt beam="2">  1        2 0.22941662E+00 0.19565874E+04</pdfrwt>
<pdfrwt beam="1">  1       -2 0.98738590E-01 0.19565874E+04</pdfrwt>
<totfact> 0.10190620E+01</totfact>
</mgrwt>
</event>
<event>
 4    1  0.2048914E-008  0.3249245E+04  0.7816531E-02  0.8175931E-01
         -2   -1    0    0    0  501 -0.00000000000E+00  0.00000000000E+00  0.18628674479E+04  0.18628674479E+04  0.00000000000E+00 0. -1.
          2   -1    0    0  501    0  0.00000000000E+00 -0.00000000000E+00 -0.14168471563E+04  0.14168471563E+04  0.00000000000E+00 0.  1.
    2000013    1    1    2    0    0 -0.24972995425E+03  0.10213191134E+04 -0.57907385428E+03  0.15307789880E+04  0.95000000000E+03 0.  0.
   -2000013    1    1    2    0    0  0.24972995425E+03 -0.10213191134E+04  0.10250941459E+04  0.17489356161E+04  0.95000000000E+03 0.  0.
<mgrwt>
<rscale>  0 0.32492451E+04</rscale>
<asrwt>0</asrwt>
<pdfrwt beam="2">  1        2 0.21797648E+00 0.32492451E+04</pdfrwt>
<pdfrwt beam="1">  1       -2 0.28659499E+00 0.32492451E+04</pdfrwt>
<totfact> 0.45558147E-01</totfact>
</mgrwt>
</event>
<event>
 4    1  0.2048914E-008  0.2412020E+04  0.7816531E-02  0.8435017E-01
         -2   -1    0    0    0  501 -0.00000000000E+00  0.00000000000E+00  0.66933845839E+03  0.66933845839E+03  0.00000000000E+00 0. -1.
          2   -1    0    0  501    0  0.00000000000E+00 -0.00000000000E+00 -0.21729814583E+04  0.21729814583E+04  0.00000000000E+00 0.  1.
    2000013    1    1    2    0    0 -0.67363651341E+03  0.12707095024E+03 -0.10893186900E+04  0.15997025933E+04  0.95000000000E+03 0.  0.
   -2000013    1    1    2    0    0  0.67363651341E+03 -0.12707095024E+03 -0.41432430988E+03  0.12426173234E+04  0.95000000000E+03 0.  0.
<mgrwt>
<rscale>  0 0.24120199E+04</rscale>
<asrwt>0</asrwt>
<pdfrwt beam="2">  1        2 0.33430484E+00 0.24120199E+04</pdfrwt>
<pdfrwt beam="1">  1       -2 0.10297515E+00 0.24120199E+04</pdfrwt>
<totfact> 0.36997714E+00</totfact>
</mgrwt>
</event>
<event>
 4    1  0.2048914E-008  0.2449976E+04  0.7816531E-02  0.8421027E-01
         -1   -1    0    0    0  501 -0.00000000000E+00  0.00000000000E+00  0.72416571529E+03  0.72416571529E+03  0.00000000000E+00 0. -1.
          1   -1    0    0  501    0  0.00000000000E+00 -0.00000000000E+00 -0.20721719216E+04  0.20721719216E+04  0.00000000000E+00 0.  1.
    2000013    1    1    2    0    0 -0.39858706564E+03  0.41240111008E+03 -0.81862885550E+02  0.11127209248E+04  0.95000000000E+03 0.  0.
   -2000013    1    1    2    0    0  0.39858706564E+03 -0.41240111008E+03 -0.12661433208E+04  0.16836167121E+04  0.95000000000E+03 0.  0.
<mgrwt>
<rscale>  0 0.24499762E+04</rscale>
<asrwt>0</asrwt>
<pdfrwt beam="2">  1        1 0.31879568E+00 0.24499762E+04</pdfrwt>
<pdfrwt beam="1">  1       -1 0.11141011E+00 0.24499762E+04</pdfrwt>
<totfact> 0.17582957E+00</totfact>
</mgrwt>
</event>
<event>
 4    1  0.2048914E-008  0.2735108E+04  0.7816531E-02  0.8323703E-01
          2   -1    0    0  501    0  0.00000000000E+00  0.00000000000E+00  0.19140517584E+04  0.19140517584E+04  0.00000000000E+00 0.  1.
         -2   -1    0    0    0  501 -0.00000000000E+00 -0.00000000000E+00 -0.97709144365E+03  0.97709144365E+03  0.00000000000E+00 0. -1.
    2000013    1    1    2    0    0  0.45953187183E+03  0.66975297598E+03  0.10550852770E+04  0.16356783094E+04  0.95000000000E+03 0.  0.
   -2000013    1    1    2    0    0 -0.45953187183E+03 -0.66975297598E+03 -0.11812496224E+03  0.12554648927E+04  0.95000000000E+03 0.  0.
<mgrwt>
<rscale>  0 0.27351077E+04</rscale>
<asrwt>0</asrwt>
<pdfrwt beam="1">  1        2 0.29446950E+00 0.27351077E+04</pdfrwt>
<pdfrwt beam="2">  1       -2 0.15032176E+00 0.27351077E+04</pdfrwt>
<totfact> 0.19439291E+00</totfact>
</mgrwt>
</event>
<event>
 4    1  0.2048914E-008  0.2948750E+04  0.7816531E-02  0.8258519E-01
         -2   -1    0    0    0  501 -0.00000000000E+00  0.00000000000E+00  0.70485875049E+03  0.70485875049E+03  0.00000000000E+00 0. -1.
          2   -1    0    0  501    0  0.00000000000E+00 -0.00000000000E+00 -0.30839968287E+04  0.30839968287E+04  0.00000000000E+00 0.  1.
    2000013    1    1    2    0    0  0.57548508191E+03 -0.59680831023E+03 -0.21714216911E+04  0.25109630422E+04  0.95000000000E+03 0.  0.
   -2000013    1    1    2    0    0 -0.57548508191E+03  0.59680831023E+03 -0.20771638712E+03  0.12778925370E+04  0.95000000000E+03 0.  0.
<mgrwt>
<rscale>  0 0.29487503E+04</rscale>
<asrwt>0</asrwt>
<pdfrwt beam="2">  1        2 0.47446105E+00 0.29487503E+04</pdfrwt>
<pdfrwt beam="1">  1       -2 0.10843981E+00 0.29487503E+04</pdfrwt>
<totfact> 0.90023135E-01</totfact>
</mgrwt>
</event>
<event>
 4    1  0.2048914E-008  0.2002766E+04  0.7816531E-02  0.8605328E-01
          2   -1    0    0  501    0  0.00000000000E+00  0.00000000000E+00  0.12954749265E+04  0.12954749265E+04  0.00000000000E+00 0.  1.
         -2   -1    0    0    0  501 -0.00000000000E+00 -0.00000000000E+00 -0.77405465531E+03  0.77405465531E+03  0.00000000000E+00 0. -1.
    2000013    1    1    2    0    0  0.22466732715E+03  0.18768994374E+03  0.38542081542E+03  0.10661857849E+04  0.95000000000E+03 0.  0.
   -2000013    1    1    2    0    0 -0.22466732715E+03 -0.18768994374E+03  0.13599945573E+03  0.10033437969E+04  0.95000000000E+03 0.  0.
<mgrwt>
<rscale>  0 0.20027665E+04</rscale>
<asrwt>0</asrwt>
<pdfrwt beam="1">  1        2 0.19930383E+00 0.20027665E+04</pdfrwt>
<pdfrwt beam="2">  1       -2 0.11908533E+00 0.20027665E+04</pdfrwt>
<totfact> 0.83624501E+00</totfact>
</mgrwt>
</event>
<event>
 4    1  0.2048914E-008  0.4253753E+04  0.7816531E-02  0.7955225E-01
         -2   -1    0    0    0  501 -0.00000000000E+00  0.00000000000E+00  0.24392961728E+04  0.24392961728E+04  0.00000000000E+00 0.  1.
          2   -1    0    0  501    0  0.00000000000E+00 -0.00000000000E+00 -0.18544708751E+04  0.18544708751E+04  0.00000000000E+00 0. -1.
    2000013    1    1    2    0    0  0.38813658114E+02 -0.18774022628E+04 -0.18638547994E+02  0.21045173204E+04  0.95000000000E+03 0.  0.
   -2000013    1    1    2    0    0 -0.38813658114E+02  0.18774022628E+04  0.60346384571E+03  0.21892497275E+04  0.95000000000E+03 0.  0.
<mgrwt>
<rscale>  0 0.42537530E+04</rscale>
<asrwt>0</asrwt>
<pdfrwt beam="2">  1        2 0.28530321E+00 0.42537530E+04</pdfrwt>
<pdfrwt beam="1">  1       -2 0.37527633E+00 0.42537530E+04</pdfrwt>
<totfact> 0.66791268E-02</totfact>
</mgrwt>
</event>
<event>
 4    1  0.2048914E-008  0.2546504E+04  0.7816531E-02  0.8386603E-01
          2   -1    0    0  501    0  0.00000000000E+00  0.00000000000E+00  0.27153761036E+04  0.27153761036E+04  0.00000000000E+00 0.  1.
         -2   -1    0    0    0  501 -0.00000000000E+00 -0.00000000000E+00 -0.59703345260E+03  0.59703345260E+03  0.00000000000E+00 0. -1.
    2000013    1    1    2    0    0  0.53070112721E+03  0.64870989571E+03  0.12247430211E+04  0.17620907136E+04  0.95000000000E+03 0.  0.
   -2000013    1    1    2    0    0 -0.53070112721E+03 -0.64870989571E+03  0.89359962999E+03  0.15503188427E+04  0.95000000000E+03 0.  0.
<mgrwt>
<rscale>  0 0.25465038E+04</rscale>
<asrwt>0</asrwt>
<pdfrwt beam="1">  1        2 0.41775016E+00 0.25465038E+04</pdfrwt>
<pdfrwt beam="2">  1       -2 0.91851302E-01 0.25465038E+04</pdfrwt>
<totfact> 0.23284550E+00</totfact>
</mgrwt>
</event>
<event>
 4    1  0.2048914E-008  0.2655213E+04  0.7816531E-02  0.8349685E-01
         -2   -1    0    0    0  501 -0.00000000000E+00  0.00000000000E+00  0.15323664664E+04  0.15323664664E+04  0.00000000000E+00 0. -1.
          2   -1    0    0  501    0  0.00000000000E+00 -0.00000000000E+00 -0.11502072214E+04  0.11502072214E+04  0.00000000000E+00 0.  1.
    2000013    1    1    2    0    0  0.98123200858E+02 -0.91568421199E+03  0.30144463827E+03  0.13570094357E+04  0.95000000000E+03 0.  0.
   -2000013    1    1    2    0    0 -0.98123200858E+02  0.91568421199E+03  0.80714606730E+02  0.13255642521E+04  0.95000000000E+03 0.  0.
<mgrwt>
<rscale>  0 0.26552130E+04</rscale>
<asrwt>0</asrwt>
<pdfrwt beam="2">  1        2 0.17695496E+00 0.26552130E+04</pdfrwt>
<pdfrwt beam="1">  1       -2 0.23574869E+00 0.26552130E+04</pdfrwt>
<totfact> 0.14067545E+00</totfact>
</mgrwt>
</event>
<event>
 4    1  0.2048914E-008  0.2453413E+04  0.7816531E-02  0.8419773E-01
         -2   -1    0    0    0  501 -0.00000000000E+00  0.00000000000E+00  0.97051287179E+03  0.97051287179E+03  0.00000000000E+00 0. -1.
          2   -1    0    0  501    0  0.00000000000E+00 -0.00000000000E+00 -0.15505297838E+04  0.15505297838E+04  0.00000000000E+00 0.  1.
    2000013    1    1    2    0    0  0.30918342339E+03  0.45753931584E+03 -0.85035912237E+03  0.13894413452E+04  0.95000000000E+03 0.  0.
   -2000013    1    1    2    0    0 -0.30918342339E+03 -0.45753931584E+03  0.27034221039E+03  0.11316013103E+04  0.95000000000E+03 0.  0.
<mgrwt>
<rscale>  0 0.24534132E+04</rscale>
<asrwt>0</asrwt>
<pdfrwt beam="2">  1        2 0.23854304E+00 0.24534132E+04</pdfrwt>
<pdfrwt beam="1">  1       -2 0.14930967E+00 0.24534132E+04</pdfrwt>
<totfact> 0.32287197E+00</totfact>
</mgrwt>
</event>
<event>
 4    1  0.2048914E-008  0.2840300E+04  0.7816531E-02  0.8290865E-01
         -1   -1    0    0    0  501 -0.00000000000E+00  0.00000000000E+00  0.67430132279E+03  0.67430132279E+03  0.00000000000E+00 0. -1.
          1   -1    0    0  501    0  0.00000000000E+00 -0.00000000000E+00 -0.29909868264E+04  0.29909868264E+04  0.00000000000E+00 0.  1.
    2000013    1    1    2    0    0  0.65658866704E+03  0.55754767122E+03 -0.19457952855E+04  0.23303620698E+04  0.95000000000E+03 0.  0.
   -2000013    1    1    2    0    0 -0.65658866704E+03 -0.55754767122E+03 -0.37089021803E+03  0.13349260793E+04  0.95000000000E+03 0.  0.
<mgrwt>
<rscale>  0 0.28403002E+04</rscale>
<asrwt>0</asrwt>
<pdfrwt beam="2">  1        1 0.46015181E+00 0.28403002E+04</pdfrwt>
<pdfrwt beam="1">  1       -1 0.10373867E+00 0.28403002E+04</pdfrwt>
<totfact> 0.45818104E-01</totfact>
</mgrwt>
</event>
<event>
 4    1  0.2048914E-008  0.3256072E+04  0.7816531E-02  0.8174164E-01
          2   -1    0    0  501    0  0.00000000000E+00  0.00000000000E+00  0.18874987269E+04  0.18874987269E+04  0.00000000000E+00 0.  1.
         -2   -1    0    0    0  501 -0.00000000000E+00 -0.00000000000E+00 -0.14042404217E+04  0.14042404217E+04  0.00000000000E+00 0. -1.
    2000013    1    1    2    0    0 -0.12198073674E+04 -0.13188152187E+03 -0.25639187267E+03  0.15727553979E+04  0.95000000000E+03 0.  0.
   -2000013    1    1    2    0    0  0.12198073674E+04  0.13188152187E+03  0.73965017790E+03  0.17189837506E+04  0.95000000000E+03 0.  0.
<mgrwt>
<rscale>  0 0.32560725E+04</rscale>
<asrwt>0</asrwt>
<pdfrwt beam="1">  1        2 0.29038442E+00 0.32560725E+04</pdfrwt>
<pdfrwt beam="2">  1       -2 0.21603699E+00 0.32560725E+04</pdfrwt>
<totfact> 0.67745498E-01</totfact>
</mgrwt>
</event>
<event>
 4    1  0.2048914E-008  0.2487924E+04  0.7816531E-02  0.8407300E-01
          2   -1    0    0  501    0  0.00000000000E+00  0.00000000000E+00  0.20032434418E+04  0.20032434418E+04  0.00000000000E+00 0.  1.
         -2   -1    0    0    0  501 -0.00000000000E+00 -0.00000000000E+00 -0.77246806852E+03  0.77246806852E+03  0.00000000000E+00 0. -1.
    2000013    1    1    2    0    0  0.72965404190E+03 -0.28800001920E+03  0.80734375020E+03  0.14729707950E+04  0.95000000000E+03 0.  0.
   -2000013    1    1    2    0    0 -0.72965404190E+03  0.28800001920E+03  0.42343162308E+03  0.13027407153E+04  0.95000000000E+03 0.  0.
<mgrwt>
<rscale>  0 0.24879241E+04</rscale>
<asrwt>0</asrwt>
<pdfrwt beam="1">  1        2 0.30819130E+00 0.24879241E+04</pdfrwt>
<pdfrwt beam="2">  1       -2 0.11884124E+00 0.24879241E+04</pdfrwt>
<totfact> 0.32311345E+00</totfact>
</mgrwt>
</event>
<event>
 4    1  0.2048914E-008  0.3564543E+04  0.7816531E-02  0.8098662E-01
          2   -1    0    0  501    0  0.00000000000E+00  0.00000000000E+00  0.17447869654E+04  0.17447869654E+04  0.00000000000E+00 0.  1.
         -2   -1    0    0    0  501 -0.00000000000E+00 -0.00000000000E+00 -0.18205616241E+04  0.18205616241E+04  0.00000000000E+00 0. -1.
    2000013    1    1    2    0    0 -0.32350190854E+03  0.14579741863E+04  0.17108564531E+03  0.17782329743E+04  0.95000000000E+03 0.  0.
   -2000013    1    1    2    0    0  0.32350190854E+03 -0.14579741863E+04 -0.24686030403E+03  0.17871156153E+04  0.95000000000E+03 0.  0.
<mgrwt>
<rscale>  0 0.35645433E+04</rscale>
<asrwt>0</asrwt>
<pdfrwt beam="1">  1        2 0.26842876E+00 0.35645433E+04</pdfrwt>
<pdfrwt beam="2">  1       -2 0.28008641E+00 0.35645433E+04</pdfrwt>
<totfact> 0.31837209E-01</totfact>
</mgrwt>
</event>
<event>
 4    1  0.2048914E-008  0.1980711E+04  0.7816531E-02  0.8615692E-01
          2   -1    0    0  501    0  0.00000000000E+00  0.00000000000E+00  0.14562300317E+04  0.14562300317E+04  0.00000000000E+00 0.  1.
         -2   -1    0    0    0  501 -0.00000000000E+00 -0.00000000000E+00 -0.67352268359E+03  0.67352268359E+03  0.00000000000E+00 0. -1.
    2000013    1    1    2    0    0 -0.15683975183E+03  0.23159254527E+03  0.40035908719E+03  0.10681859452E+04  0.95000000000E+03 0.  0.
   -2000013    1    1    2    0    0  0.15683975183E+03 -0.23159254527E+03  0.38234826091E+03  0.10615667701E+04  0.95000000000E+03 0.  0.
<mgrwt>
<rscale>  0 0.19807109E+04</rscale>
<asrwt>0</asrwt>
<pdfrwt beam="1">  1        2 0.22403539E+00 0.19807109E+04</pdfrwt>
<pdfrwt beam="2">  1       -2 0.10361887E+00 0.19807109E+04</pdfrwt>
<totfact> 0.94910450E+00</totfact>
</mgrwt>
</event>
<event>
 4    1  0.2048914E-008  0.2620070E+04  0.7816531E-02  0.8361416E-01
          2   -1    0    0  501    0  0.00000000000E+00  0.00000000000E+00  0.81862919339E+03  0.81862919339E+03  0.00000000000E+00 0.  1.
         -2   -1    0    0    0  501 -0.00000000000E+00 -0.00000000000E+00 -0.20964206301E+04  0.20964206301E+04  0.00000000000E+00 0. -1.
    2000013    1    1    2    0    0 -0.86856516787E+03  0.33029115799E+02 -0.37050030730E+03  0.13398756849E+04  0.95000000000E+03 0.  0.
   -2000013    1    1    2    0    0  0.86856516787E+03 -0.33029115799E+02 -0.90729112943E+03  0.15751741386E+04  0.95000000000E+03 0.  0.
<mgrwt>
<rscale>  0 0.26200696E+04</rscale>
<asrwt>0</asrwt>
<pdfrwt beam="1">  1        2 0.12594295E+00 0.26200696E+04</pdfrwt>
<pdfrwt beam="2">  1       -2 0.32252625E+00 0.26200696E+04</pdfrwt>
<totfact> 0.68140508E-01</totfact>
</mgrwt>
</event>
<event>
 4    1  0.2048914E-008  0.3562898E+04  0.7816531E-02  0.8099044E-01
          2   -1    0    0  501    0  0.00000000000E+00  0.00000000000E+00  0.26098453785E+04  0.26098453785E+04  0.00000000000E+00 0.  1.
         -2   -1    0    0    0  501 -0.00000000000E+00 -0.00000000000E+00 -0.12159953319E+04  0.12159953319E+04  0.00000000000E+00 0. -1.
    2000013    1    1    2    0    0 -0.10086176546E+04 -0.11255129683E+03 -0.49933023333E+03  0.14770944620E+04  0.95000000000E+03 0.  0.
   -2000013    1    1    2    0    0  0.10086176546E+04  0.11255129683E+03  0.18931802799E+04  0.23487462485E+04  0.95000000000E+03 0.  0.
<mgrwt>
<rscale>  0 0.35628976E+04</rscale>
<asrwt>0</asrwt>
<pdfrwt beam="1">  1        2 0.40151467E+00 0.35628976E+04</pdfrwt>
<pdfrwt beam="2">  1       -2 0.18707621E+00 0.35628976E+04</pdfrwt>
<totfact> 0.39810942E-01</totfact>
</mgrwt>
</event>
<event>
 4    1  0.2048914E-008  0.2252118E+04  0.7816531E-02  0.8497043E-01
          2   -1    0    0  501    0  0.00000000000E+00  0.00000000000E+00  0.18962731682E+04  0.18962731682E+04  0.00000000000E+00 0.  1.
         -2   -1    0    0    0  501 -0.00000000000E+00 -0.00000000000E+00 -0.66868452741E+03  0.66868452741E+03  0.00000000000E+00 0. -1.
    2000013    1    1    2    0    0  0.39665459173E+03 -0.15107958104E+03  0.11041190585E+04  0.15171482460E+04  0.95000000000E+03 0.  0.
   -2000013    1    1    2    0    0 -0.39665459173E+03  0.15107958104E+03  0.12346958227E+03  0.10478094496E+04  0.95000000000E+03 0.  0.
<mgrwt>
<rscale>  0 0.22521177E+04</rscale>
<asrwt>0</asrwt>
<pdfrwt beam="1">  1        2 0.29173433E+00 0.22521177E+04</pdfrwt>
<pdfrwt beam="2">  1       -2 0.10287454E+00 0.22521177E+04</pdfrwt>
<totfact> 0.53610239E+00</totfact>
</mgrwt>
</event>
<event>
 4    1  0.2048914E-008  0.2918380E+04  0.7816531E-02  0.8267430E-01
         -2   -1    0    0    0  501 -0.00000000000E+00  0.00000000000E+00  0.20618060776E+04  0.20618060776E+04  0.00000000000E+00 0. -1.
          2   -1    0    0  501    0  0.00000000000E+00 -0.00000000000E+00 -0.10327036990E+04  0.10327036990E+04  0.00000000000E+00 0.  1.
    2000013    1    1    2    0    0  0.65004393334E+03  0.64675980343E+03  0.11732333313E+04  0.17663045627E+04  0.95000000000E+03 0.  0.
   -2000013    1    1    2    0    0 -0.65004393334E+03 -0.64675980343E+03 -0.14413095270E+03  0.13282052139E+04  0.95000000000E+03 0.  0.
<mgrwt>
<rscale>  0 0.29183795E+04</rscale>
<asrwt>0</asrwt>
<pdfrwt beam="2">  1        2 0.15887749E+00 0.29183795E+04</pdfrwt>
<pdfrwt beam="1">  1       -2 0.31720093E+00 0.29183795E+04</pdfrwt>
<totfact> 0.51539693E-01</totfact>
</mgrwt>
</event>
<event>
 4    1  0.2048914E-008  0.2361045E+04  0.7816531E-02  0.8454233E-01
         -2   -1    0    0    0  501 -0.00000000000E+00  0.00000000000E+00  0.16583533095E+04  0.16583533095E+04  0.00000000000E+00 0. -1.
          2   -1    0    0  501    0  0.00000000000E+00 -0.00000000000E+00 -0.84037171637E+03  0.84037171637E+03  0.00000000000E+00 0.  1.
    2000013    1    1    2    0    0  0.32638354188E+03  0.60799673948E+03  0.53837782557E+03  0.12917185973E+04  0.95000000000E+03 0.  0.
   -2000013    1    1    2    0    0 -0.32638354188E+03 -0.60799673948E+03  0.27960376753E+03  0.12070064285E+04  0.95000000000E+03 0.  0.
<mgrwt>
<rscale>  0 0.23610449E+04</rscale>
<asrwt>0</asrwt>
<pdfrwt beam="2">  1        2 0.12928796E+00 0.23610449E+04</pdfrwt>
<pdfrwt beam="1">  1       -2 0.25513128E+00 0.23610449E+04</pdfrwt>
<totfact> 0.17376230E+00</totfact>
</mgrwt>
</event>
<event>
 4    1  0.2048914E-008  0.2051701E+04  0.7816531E-02  0.8582823E-01
         -2   -1    0    0    0  501 -0.00000000000E+00  0.00000000000E+00  0.41633823186E+03  0.41633823186E+03  0.00000000000E+00 0. -1.
          2   -1    0    0  501    0  0.00000000000E+00 -0.00000000000E+00 -0.25276773999E+04  0.25276773999E+04  0.00000000000E+00 0.  1.
    2000013    1    1    2    0    0 -0.38368467746E+03  0.48779760339E+02 -0.10318593926E+04  0.14549320269E+04  0.95000000000E+03 0.  0.
   -2000013    1    1    2    0    0  0.38368467746E+03 -0.48779760339E+02 -0.10794797755E+04  0.14890836049E+04  0.95000000000E+03 0.  0.
<mgrwt>
<rscale>  0 0.20517005E+04</rscale>
<asrwt>0</asrwt>
<pdfrwt beam="2">  1        2 0.38887345E+00 0.20517005E+04</pdfrwt>
<pdfrwt beam="1">  1       -2 0.64052035E-01 0.20517005E+04</pdfrwt>
<totfact> 0.69962412E+00</totfact>
</mgrwt>
</event>
<event>
 4    1  0.2048914E-008  0.2839703E+04  0.7816531E-02  0.8291047E-01
          1   -1    0    0  501    0  0.00000000000E+00  0.00000000000E+00  0.45111808191E+04  0.45111808191E+04  0.00000000000E+00 0.  1.
         -1   -1    0    0    0  501 -0.00000000000E+00 -0.00000000000E+00 -0.44688488234E+03  0.44688488234E+03  0.00000000000E+00 0. -1.
    2000013    1    1    2    0    0 -0.53679179667E+03  0.84735208136E+03  0.14601494635E+04  0.20101461236E+04  0.95000000000E+03 0.  0.
   -2000013    1    1    2    0    0  0.53679179667E+03 -0.84735208136E+03  0.26041464733E+04  0.29479195778E+04  0.95000000000E+03 0.  0.
<mgrwt>
<rscale>  0 0.28397032E+04</rscale>
<asrwt>0</asrwt>
<pdfrwt beam="1">  1        1 0.69402779E+00 0.28397032E+04</pdfrwt>
<pdfrwt beam="2">  1       -1 0.68751523E-01 0.28397032E+04</pdfrwt>
<totfact> 0.58009425E-02</totfact>
</mgrwt>
</event>
<event>
 4    1  0.2048914E-008  0.1964324E+04  0.7816531E-02  0.8623484E-01
         -2   -1    0    0    0  501 -0.00000000000E+00  0.00000000000E+00  0.17384422622E+04  0.17384422622E+04  0.00000000000E+00 0. -1.
          2   -1    0    0  501    0  0.00000000000E+00 -0.00000000000E+00 -0.55488907993E+03  0.55488907993E+03  0.00000000000E+00 0.  1.
    2000013    1    1    2    0    0  0.23401089859E+03  0.78610490329E+02  0.63225197001E+03  0.11675543942E+04  0.95000000000E+03 0.  0.
   -2000013    1    1    2    0    0 -0.23401089859E+03 -0.78610490329E+02  0.55130121226E+03  0.11257769479E+04  0.95000000000E+03 0.  0.
<mgrwt>
<rscale>  0 0.19643244E+04</rscale>
<asrwt>0</asrwt>
<pdfrwt beam="2">  1        2 0.85367552E-01 0.19643244E+04</pdfrwt>
<pdfrwt beam="1">  1       -2 0.26745265E+00 0.19643244E+04</pdfrwt>
<totfact> 0.25503536E+00</totfact>
</mgrwt>
</event>
<event>
 4    1  0.2048914E-008  0.2349241E+04  0.7816531E-02  0.8458755E-01
          2   -1    0    0  501    0  0.00000000000E+00  0.00000000000E+00  0.17664746601E+04  0.17664746601E+04  0.00000000000E+00 0.  1.
         -2   -1    0    0    0  501 -0.00000000000E+00 -0.00000000000E+00 -0.78106610135E+03  0.78106610135E+03  0.00000000000E+00 0. -1.
    2000013    1    1    2    0    0 -0.59172640728E+03 -0.34900889028E+03  0.41386140729E+03  0.12432733452E+04  0.95000000000E+03 0.  0.
   -2000013    1    1    2    0    0  0.59172640728E+03  0.34900889028E+03  0.57154715142E+03  0.13042674162E+04  0.95000000000E+03 0.  0.
<mgrwt>
<rscale>  0 0.23492411E+04</rscale>
<asrwt>0</asrwt>
<pdfrwt beam="1">  1        2 0.27176533E+00 0.23492411E+04</pdfrwt>
<pdfrwt beam="2">  1       -2 0.12016402E+00 0.23492411E+04</pdfrwt>
<totfact> 0.43043235E+00</totfact>
</mgrwt>
</event>
<event>
 4    1  0.2048914E-008  0.2949319E+04  0.7816531E-02  0.8258353E-01
          1   -1    0    0  501    0  0.00000000000E+00  0.00000000000E+00  0.14000903363E+04  0.14000903363E+04  0.00000000000E+00 0. -1.
         -1   -1    0    0    0  501 -0.00000000000E+00 -0.00000000000E+00 -0.15532007423E+04  0.15532007423E+04  0.00000000000E+00 0.  1.
    2000013    1    1    2    0    0  0.44287775387E+03 -0.93244009176E+03  0.37851923469E+03  0.14530526627E+04  0.95000000000E+03 0.  0.
   -2000013    1    1    2    0    0 -0.44287775387E+03  0.93244009176E+03 -0.53162964066E+03  0.15002384159E+04  0.95000000000E+03 0.  0.
<mgrwt>
<rscale>  0 0.29493195E+04</rscale>
<asrwt>0</asrwt>
<pdfrwt beam="1">  1        1 0.21539852E+00 0.29493195E+04</pdfrwt>
<pdfrwt beam="2">  1       -1 0.23895396E+00 0.29493195E+04</pdfrwt>
<totfact> 0.54083196E-01</totfact>
</mgrwt>
</event>
<event>
 4    1  0.2048914E-008  0.3234962E+04  0.7816531E-02  0.8179644E-01
          2   -1    0    0  501    0  0.00000000000E+00  0.00000000000E+00  0.18412297831E+04  0.18412297831E+04  0.00000000000E+00 0.  1.
         -2   -1    0    0    0  501 -0.00000000000E+00 -0.00000000000E+00 -0.14209222860E+04  0.14209222860E+04  0.00000000000E+00 0. -1.
    2000013    1    1    2    0    0 -0.12657445244E+04 -0.19088116984E+03 -0.66376627152E+02  0.15954468586E+04  0.95000000000E+03 0.  0.
   -2000013    1    1    2    0    0  0.12657445244E+04  0.19088116984E+03  0.48668412423E+03  0.16667052105E+04  0.95000000000E+03 0.  0.
<mgrwt>
<rscale>  0 0.32349618E+04</rscale>
<asrwt>0</asrwt>
<pdfrwt beam="1">  1        2 0.28326612E+00 0.32349618E+04</pdfrwt>
<pdfrwt beam="2">  1       -2 0.21860343E+00 0.32349618E+04</pdfrwt>
<totfact> 0.69337465E-01</totfact>
</mgrwt>
</event>
<event>
 4    1  0.2048914E-008  0.2248101E+04  0.7816531E-02  0.8498670E-01
          1   -1    0    0  501    0  0.00000000000E+00  0.00000000000E+00  0.15755422077E+04  0.15755422077E+04  0.00000000000E+00 0.  1.
         -1   -1    0    0    0  501 -0.00000000000E+00 -0.00000000000E+00 -0.80193945722E+03  0.80193945722E+03  0.00000000000E+00 0. -1.
    2000013    1    1    2    0    0 -0.77075840508E+01 -0.22019954638E+03  0.97793576154E+03  0.13810885565E+04  0.95000000000E+03 0.  0.
   -2000013    1    1    2    0    0  0.77075840508E+01  0.22019954638E+03 -0.20433301111E+03  0.99639310842E+03  0.95000000000E+03 0.  0.
<mgrwt>
<rscale>  0 0.22481009E+04</rscale>
<asrwt>0</asrwt>
<pdfrwt beam="1">  1        1 0.24239111E+00 0.22481009E+04</pdfrwt>
<pdfrwt beam="2">  1       -1 0.12337530E+00 0.22481009E+04</pdfrwt>
<totfact> 0.30446797E+00</totfact>
</mgrwt>
</event>
<event>
 4    1  0.2048914E-008  0.3592766E+04  0.7816531E-02  0.8092151E-01
          2   -1    0    0  501    0  0.00000000000E+00  0.00000000000E+00  0.10022497577E+04  0.10022497577E+04  0.00000000000E+00 0.  1.
         -2   -1    0    0    0  501 -0.00000000000E+00 -0.00000000000E+00 -0.32197485779E+04  0.32197485779E+04  0.00000000000E+00 0. -1.
    2000013    1    1    2    0    0  0.84350812690E+03  0.12316864821E+04 -0.74476991216E+03  0.19198280580E+04  0.95000000000E+03 0.  0.
   -2000013    1    1    2    0    0 -0.84350812690E+03 -0.12316864821E+04 -0.14727289080E+04  0.23021702776E+04  0.95000000000E+03 0.  0.
<mgrwt>
<rscale>  0 0.35927662E+04</rscale>
<asrwt>0</asrwt>
<pdfrwt beam="1">  1        2 0.15419227E+00 0.35927662E+04</pdfrwt>
<pdfrwt beam="2">  1       -2 0.49534593E+00 0.35927662E+04</pdfrwt>
<totfact> 0.36074673E-02</totfact>
</mgrwt>
</event>
<event>
 4    1  0.2048914E-008  0.2470614E+04  0.7816531E-02  0.8413530E-01
         -2   -1    0    0    0  501 -0.00000000000E+00  0.00000000000E+00  0.90936153553E+03  0.90936153553E+03  0.00000000000E+00 0. -1.
          2   -1    0    0  501    0  0.00000000000E+00 -0.00000000000E+00 -0.16780818947E+04  0.16780818947E+04  0.00000000000E+00 0.  1.
    2000013    1    1    2    0    0  0.32404324628E+03  0.71411891848E+03 -0.28772966559E+03  0.12650131286E+04  0.95000000000E+03 0.  0.
   -2000013    1    1    2    0    0 -0.32404324628E+03 -0.71411891848E+03 -0.48099069357E+03  0.13224303016E+04  0.95000000000E+03 0.  0.
<mgrwt>
<rscale>  0 0.24706138E+04</rscale>
<asrwt>0</asrwt>
<pdfrwt beam="2">  1        2 0.25816644E+00 0.24706138E+04</pdfrwt>
<pdfrwt beam="1">  1       -2 0.13990178E+00 0.24706138E+04</pdfrwt>
<totfact> 0.32452209E+00</totfact>
</mgrwt>
</event>
<event>
 4    1  0.2048914E-008  0.2386596E+04  0.7816531E-02  0.8444539E-01
         -2   -1    0    0    0  501 -0.00000000000E+00  0.00000000000E+00  0.41847774433E+03  0.41847774433E+03  0.00000000000E+00 0. -1.
          2   -1    0    0  501    0  0.00000000000E+00 -0.00000000000E+00 -0.34027152843E+04  0.34027152843E+04  0.00000000000E+00 0.  1.
    2000013    1    1    2    0    0 -0.69166060414E+03  0.77565112122E+02 -0.11839324279E+04  0.16699121929E+04  0.95000000000E+03 0.  0.
   -2000013    1    1    2    0    0  0.69166060414E+03 -0.77565112122E+02 -0.18003051120E+04  0.21512808357E+04  0.95000000000E+03 0.  0.
<mgrwt>
<rscale>  0 0.23865964E+04</rscale>
<asrwt>0</asrwt>
<pdfrwt beam="2">  1        2 0.52349465E+00 0.23865964E+04</pdfrwt>
<pdfrwt beam="1">  1       -2 0.64381192E-01 0.23865964E+04</pdfrwt>
<totfact> 0.19076993E+00</totfact>
</mgrwt>
</event>
<event>
 4    1  0.2048914E-008  0.2241455E+04  0.7816531E-02  0.8501369E-01
         -2   -1    0    0    0  501 -0.00000000000E+00  0.00000000000E+00  0.16335165434E+04  0.16335165434E+04  0.00000000000E+00 0. -1.
          2   -1    0    0  501    0  0.00000000000E+00 -0.00000000000E+00 -0.76891158498E+03  0.76891158498E+03  0.00000000000E+00 0.  1.
    2000013    1    1    2    0    0 -0.43337312261E+02 -0.42029420823E+03 -0.16076231800E+02  0.10398479645E+04  0.95000000000E+03 0.  0.
   -2000013    1    1    2    0    0  0.43337312261E+02  0.42029420823E+03  0.88068119022E+03  0.13625801638E+04  0.95000000000E+03 0.  0.
<mgrwt>
<rscale>  0 0.22414547E+04</rscale>
<asrwt>0</asrwt>
<pdfrwt beam="2">  1        2 0.11829409E+00 0.22414547E+04</pdfrwt>
<pdfrwt beam="1">  1       -2 0.25131024E+00 0.22414547E+04</pdfrwt>
<totfact> 0.20855158E+00</totfact>
</mgrwt>
</event>
<event>
 4    1  0.2048914E-008  0.3046628E+04  0.7816531E-02  0.8230540E-01
          1   -1    0    0  501    0  0.00000000000E+00  0.00000000000E+00  0.16412484321E+04  0.16412484321E+04  0.00000000000E+00 0.  1.
         -1   -1    0    0    0  501 -0.00000000000E+00 -0.00000000000E+00 -0.14138543548E+04  0.14138543548E+04  0.00000000000E+00 0. -1.
    2000013    1    1    2    0    0 -0.24890173772E+03  0.89468572839E+03 -0.63374299650E+03  0.14719187523E+04  0.95000000000E+03 0.  0.
   -2000013    1    1    2    0    0  0.24890173772E+03 -0.89468572839E+03  0.86113707376E+03  0.15831840346E+04  0.95000000000E+03 0.  0.
<mgrwt>
<rscale>  0 0.30466285E+04</rscale>
<asrwt>0</asrwt>
<pdfrwt beam="1">  1        1 0.25249976E+00 0.30466285E+04</pdfrwt>
<pdfrwt beam="2">  1       -1 0.21751605E+00 0.30466285E+04</pdfrwt>
<totfact> 0.50683346E-01</totfact>
</mgrwt>
</event>
<event>
 4    1  0.2048914E-008  0.3630642E+04  0.7816531E-02  0.8083509E-01
         -2   -1    0    0    0  501 -0.00000000000E+00  0.00000000000E+00  0.14850084792E+04  0.14850084792E+04  0.00000000000E+00 0. -1.
          2   -1    0    0  501    0  0.00000000000E+00 -0.00000000000E+00 -0.22191055574E+04  0.22191055574E+04  0.00000000000E+00 0.  1.
    2000013    1    1    2    0    0  0.51793326935E+02  0.15416413581E+04 -0.24828868775E+03  0.18285206857E+04  0.95000000000E+03 0.  0.
   -2000013    1    1    2    0    0 -0.51793326935E+02 -0.15416413581E+04 -0.48580839052E+03  0.18755933509E+04  0.95000000000E+03 0.  0.
<mgrwt>
<rscale>  0 0.36306421E+04</rscale>
<asrwt>0</asrwt>
<pdfrwt beam="2">  1        2 0.34140086E+00 0.36306421E+04</pdfrwt>
<pdfrwt beam="1">  1       -2 0.22846284E+00 0.36306421E+04</pdfrwt>
<totfact> 0.35802262E-01</totfact>
</mgrwt>
</event>
<event>
 4    1  0.2048914E-008  0.2623716E+04  0.7816531E-02  0.8360190E-01
         -2   -1    0    0    0  501 -0.00000000000E+00  0.00000000000E+00  0.60355866133E+03  0.60355866133E+03  0.00000000000E+00 0. -1.
          2   -1    0    0  501    0  0.00000000000E+00 -0.00000000000E+00 -0.28513728726E+04  0.28513728726E+04  0.00000000000E+00 0.  1.
    2000013    1    1    2    0    0 -0.73082309498E+03  0.30827056733E+03 -0.16968893930E+04  0.21002539730E+04  0.95000000000E+03 0.  0.
   -2000013    1    1    2    0    0  0.73082309498E+03 -0.30827056733E+03 -0.55092481827E+03  0.13546775610E+04  0.95000000000E+03 0.  0.
<mgrwt>
<rscale>  0 0.26237155E+04</rscale>
<asrwt>0</asrwt>
<pdfrwt beam="2">  1        2 0.43867276E+00 0.26237155E+04</pdfrwt>
<pdfrwt beam="1">  1       -2 0.92855177E-01 0.26237155E+04</pdfrwt>
<totfact> 0.18670688E+00</totfact>
</mgrwt>
</event>
<event>
 4    1  0.2048914E-008  0.2335348E+04  0.7816531E-02  0.8464113E-01
          2   -1    0    0  501    0  0.00000000000E+00  0.00000000000E+00  0.24751974005E+04  0.24751974005E+04  0.00000000000E+00 0.  1.
         -2   -1    0    0    0  501 -0.00000000000E+00 -0.00000000000E+00 -0.55085014089E+03  0.55085014089E+03  0.00000000000E+00 0. -1.
    2000013    1    1    2    0    0  0.10631536303E+03 -0.62902982582E+03  0.12632287404E+04  0.17044730355E+04  0.95000000000E+03 0.  0.
   -2000013    1    1    2    0    0 -0.10631536303E+03  0.62902982582E+03  0.66111851921E+03  0.13215745059E+04  0.95000000000E+03 0.  0.
<mgrwt>
<rscale>  0 0.23353482E+04</rscale>
<asrwt>0</asrwt>
<pdfrwt beam="1">  1        2 0.38079959E+00 0.23353482E+04</pdfrwt>
<pdfrwt beam="2">  1       -2 0.84746177E-01 0.23353482E+04</pdfrwt>
<totfact> 0.39458117E+00</totfact>
</mgrwt>
</event>
<event>
 4    1  0.2048914E-008  0.2115766E+04  0.7816531E-02  0.8554330E-01
         -2   -1    0    0    0  501 -0.00000000000E+00  0.00000000000E+00  0.93571631742E+03  0.93571631742E+03  0.00000000000E+00 0. -1.
          2   -1    0    0  501    0  0.00000000000E+00 -0.00000000000E+00 -0.11959999079E+04  0.11959999079E+04  0.00000000000E+00 0.  1.
    2000013    1    1    2    0    0 -0.69091408468E+02  0.31668863913E+03 -0.46665263853E+03  0.11069462507E+04  0.95000000000E+03 0.  0.
   -2000013    1    1    2    0    0  0.69091408468E+02 -0.31668863913E+03  0.20636904806E+03  0.10247699746E+04  0.95000000000E+03 0.  0.
<mgrwt>
<rscale>  0 0.21157662E+04</rscale>
<asrwt>0</asrwt>
<pdfrwt beam="2">  1        2 0.18399999E+00 0.21157662E+04</pdfrwt>
<pdfrwt beam="1">  1       -2 0.14395636E+00 0.21157662E+04</pdfrwt>
<totfact> 0.58543372E+00</totfact>
</mgrwt>
</event>
<event>
 4    1  0.2048914E-008  0.2356695E+04  0.7816531E-02  0.8455897E-01
         -2   -1    0    0    0  501 -0.00000000000E+00  0.00000000000E+00  0.14990939523E+04  0.14990939523E+04  0.00000000000E+00 0. -1.
          2   -1    0    0  501    0  0.00000000000E+00 -0.00000000000E+00 -0.92622770082E+03  0.92622770082E+03  0.00000000000E+00 0.  1.
    2000013    1    1    2    0    0  0.16305678488E+03 -0.60910967129E+03  0.59241292594E+03  0.12849339211E+04  0.95000000000E+03 0.  0.
   -2000013    1    1    2    0    0 -0.16305678488E+03  0.60910967129E+03 -0.19546674506E+02  0.11403877320E+04  0.95000000000E+03 0.  0.
<mgrwt>
<rscale>  0 0.23566946E+04</rscale>
<asrwt>0</asrwt>
<pdfrwt beam="2">  1        2 0.14249657E+00 0.23566946E+04</pdfrwt>
<pdfrwt beam="1">  1       -2 0.23062984E+00 0.23566946E+04</pdfrwt>
<totfact> 0.21521374E+00</totfact>
</mgrwt>
</event>
<event>
 4    1  0.2048914E-008  0.2168413E+04  0.7816531E-02  0.8531691E-01
          2   -1    0    0  501    0  0.00000000000E+00  0.00000000000E+00  0.19410285201E+04  0.19410285201E+04  0.00000000000E+00 0.  1.
         -2   -1    0    0    0  501 -0.00000000000E+00 -0.00000000000E+00 -0.60560869805E+03  0.60560869805E+03  0.00000000000E+00 0. -1.
    2000013    1    1    2    0    0 -0.37110214749E+03 -0.36143471018E+03  0.74781135085E+03  0.13153226487E+04  0.95000000000E+03 0.  0.
   -2000013    1    1    2    0    0  0.37110214749E+03  0.36143471018E+03  0.58760847119E+03  0.12313145695E+04  0.95000000000E+03 0.  0.
<mgrwt>
<rscale>  0 0.21684130E+04</rscale>
<asrwt>0</asrwt>
<pdfrwt beam="1">  1        2 0.29861977E+00 0.21684130E+04</pdfrwt>
<pdfrwt beam="2">  1       -2 0.93170570E-01 0.21684130E+04</pdfrwt>
<totfact> 0.64393188E+00</totfact>
</mgrwt>
</event>
<event>
 4    1  0.2048914E-008  0.2456747E+04  0.7816531E-02  0.8418559E-01
          2   -1    0    0  501    0  0.00000000000E+00  0.00000000000E+00  0.20608716184E+04  0.20608716184E+04  0.00000000000E+00 0.  1.
         -2   -1    0    0    0  501 -0.00000000000E+00 -0.00000000000E+00 -0.73216650552E+03  0.73216650552E+03  0.00000000000E+00 0. -1.
    2000013    1    1    2    0    0  0.33256435186E+03  0.62084379226E+03  0.28668237961E+03  0.12168536680E+04  0.95000000000E+03 0.  0.
   -2000013    1    1    2    0    0 -0.33256435186E+03 -0.62084379226E+03  0.10420227333E+04  0.15761844560E+04  0.95000000000E+03 0.  0.
<mgrwt>
<rscale>  0 0.24567468E+04</rscale>
<asrwt>0</asrwt>
<pdfrwt beam="1">  1        2 0.31705717E+00 0.24567468E+04</pdfrwt>
<pdfrwt beam="2">  1       -2 0.11264100E+00 0.24567468E+04</pdfrwt>
<totfact> 0.34300988E+00</totfact>
</mgrwt>
</event>
<event>
 4    1  0.2048914E-008  0.2446346E+04  0.7816531E-02  0.8422353E-01
         -2   -1    0    0    0  501 -0.00000000000E+00  0.00000000000E+00  0.52712768330E+03  0.52712768330E+03  0.00000000000E+00 0. -1.
          2   -1    0    0  501    0  0.00000000000E+00 -0.00000000000E+00 -0.28383099619E+04  0.28383099619E+04  0.00000000000E+00 0.  1.
    2000013    1    1    2    0    0  0.65196154915E+03  0.84041944712E+02 -0.17085041872E+04  0.20624265969E+04  0.95000000000E+03 0.  0.
   -2000013    1    1    2    0    0 -0.65196154915E+03 -0.84041944712E+02 -0.60267809137E+03  0.13030110482E+04  0.95000000000E+03 0.  0.
<mgrwt>
<rscale>  0 0.24463456E+04</rscale>
<asrwt>0</asrwt>
<pdfrwt beam="2">  1        2 0.43666307E+00 0.24463456E+04</pdfrwt>
<pdfrwt beam="1">  1       -2 0.81096567E-01 0.24463456E+04</pdfrwt>
<totfact> 0.26322239E+00</totfact>
</mgrwt>
</event>
<event>
 4    1  0.2048914E-008  0.2530909E+04  0.7816531E-02  0.8392056E-01
          2   -1    0    0  501    0  0.00000000000E+00  0.00000000000E+00  0.26226488165E+04  0.26226488165E+04  0.00000000000E+00 0.  1.
         -2   -1    0    0    0  501 -0.00000000000E+00 -0.00000000000E+00 -0.61059477346E+03  0.61059477346E+03  0.00000000000E+00 0. -1.
    2000013    1    1    2    0    0 -0.40728984707E+03 -0.70487264647E+03  0.12489044131E+04  0.17677648883E+04  0.95000000000E+03 0.  0.
   -2000013    1    1    2    0    0  0.40728984707E+03  0.70487264647E+03  0.76314962988E+03  0.14654787016E+04  0.95000000000E+03 0.  0.
<mgrwt>
<rscale>  0 0.25309094E+04</rscale>
<asrwt>0</asrwt>
<pdfrwt beam="1">  1        2 0.40348443E+00 0.25309094E+04</pdfrwt>
<pdfrwt beam="2">  1       -2 0.93937659E-01 0.25309094E+04</pdfrwt>
<totfact> 0.25116420E+00</totfact>
</mgrwt>
</event>
<event>
 4    1  0.2048914E-008  0.2185097E+04  0.7816531E-02  0.8524657E-01
          2   -1    0    0  501    0  0.00000000000E+00  0.00000000000E+00  0.95898909038E+03  0.95898909038E+03  0.00000000000E+00 0.  1.
         -2   -1    0    0    0  501 -0.00000000000E+00 -0.00000000000E+00 -0.12447088339E+04  0.12447088339E+04  0.00000000000E+00 0. -1.
    2000013    1    1    2    0    0  0.39325370110E+03 -0.33593929880E+03 -0.29798244871E+03  0.11219613298E+04  0.95000000000E+03 0.  0.
   -2000013    1    1    2    0    0 -0.39325370110E+03  0.33593929880E+03  0.12262705152E+02  0.10817365945E+04  0.95000000000E+03 0.  0.
<mgrwt>
<rscale>  0 0.21850970E+04</rscale>
<asrwt>0</asrwt>
<pdfrwt beam="1">  1        2 0.14753678E+00 0.21850970E+04</pdfrwt>
<pdfrwt beam="2">  1       -2 0.19149367E+00 0.21850970E+04</pdfrwt>
<totfact> 0.37115212E+00</totfact>
</mgrwt>
</event>
<event>
 4    1  0.2048914E-008  0.2413845E+04  0.7816531E-02  0.8434338E-01
          2   -1    0    0  501    0  0.00000000000E+00  0.00000000000E+00  0.26206927570E+04  0.26206927570E+04  0.00000000000E+00 0.  1.
         -2   -1    0    0    0  501 -0.00000000000E+00 -0.00000000000E+00 -0.55583099501E+03  0.55583099501E+03  0.00000000000E+00 0. -1.
    2000013    1    1    2    0    0  0.49377812896E+03 -0.51177369827E+03  0.74282069817E+03  0.14000041959E+04  0.95000000000E+03 0.  0.
   -2000013    1    1    2    0    0 -0.49377812896E+03  0.51177369827E+03  0.13220410639E+04  0.17765195562E+04  0.95000000000E+03 0.  0.
<mgrwt>
<rscale>  0 0.24138453E+04</rscale>
<asrwt>0</asrwt>
<pdfrwt beam="1">  1        2 0.40318349E+00 0.24138453E+04</pdfrwt>
<pdfrwt beam="2">  1       -2 0.85512463E-01 0.24138453E+04</pdfrwt>
<totfact> 0.31587089E+00</totfact>
</mgrwt>
</event>
<event>
 4    1  0.2048914E-008  0.2439511E+04  0.7816531E-02  0.8424858E-01
          2   -1    0    0  501    0  0.00000000000E+00  0.00000000000E+00  0.32122327951E+04  0.32122327951E+04  0.00000000000E+00 0.  1.
         -2   -1    0    0    0  501 -0.00000000000E+00 -0.00000000000E+00 -0.46316811525E+03  0.46316811525E+03  0.00000000000E+00 0. -1.
    2000013    1    1    2    0    0  0.65374767507E+03  0.36368374034E+03  0.16158348614E+04  0.20181858648E+04  0.95000000000E+03 0.  0.
   -2000013    1    1    2    0    0 -0.65374767507E+03 -0.36368374034E+03  0.11332298184E+04  0.16572150455E+04  0.95000000000E+03 0.  0.
<mgrwt>
<rscale>  0 0.24395113E+04</rscale>
<asrwt>0</asrwt>
<pdfrwt beam="1">  1        2 0.49418965E+00 0.24395113E+04</pdfrwt>
<pdfrwt beam="2">  1       -2 0.71256635E-01 0.24395113E+04</pdfrwt>
<totfact> 0.20417496E+00</totfact>
</mgrwt>
</event>
<event>
 4    1  0.2048914E-008  0.2402182E+04  0.7816531E-02  0.8438687E-01
          2   -1    0    0  501    0  0.00000000000E+00  0.00000000000E+00  0.11873198088E+04  0.11873198088E+04  0.00000000000E+00 0.  1.
         -2   -1    0    0    0  501 -0.00000000000E+00 -0.00000000000E+00 -0.12150223765E+04  0.12150223765E+04  0.00000000000E+00 0. -1.
    2000013    1    1    2    0    0  0.41475042627E+03 -0.52056873159E+03  0.29779487818E+03  0.11975773503E+04  0.95000000000E+03 0.  0.
   -2000013    1    1    2    0    0 -0.41475042627E+03  0.52056873159E+03 -0.32549744589E+03  0.12047648350E+04  0.95000000000E+03 0.  0.
<mgrwt>
<rscale>  0 0.24021825E+04</rscale>
<asrwt>0</asrwt>
<pdfrwt beam="1">  1        2 0.18266459E+00 0.24021825E+04</pdfrwt>
<pdfrwt beam="2">  1       -2 0.18692652E+00 0.24021825E+04</pdfrwt>
<totfact> 0.28174100E+00</totfact>
</mgrwt>
</event>
<event>
 4    1  0.2048914E-008  0.2424779E+04  0.7816531E-02  0.8430284E-01
          2   -1    0    0  501    0  0.00000000000E+00  0.00000000000E+00  0.24443997341E+04  0.24443997341E+04  0.00000000000E+00 0.  1.
         -2   -1    0    0    0  501 -0.00000000000E+00 -0.00000000000E+00 -0.60132901418E+03  0.60132901418E+03  0.00000000000E+00 0. -1.
    2000013    1    1    2    0    0  0.36795671522E+02  0.64062328054E+03  0.42600007451E+03  0.12229996617E+04  0.95000000000E+03 0.  0.
   -2000013    1    1    2    0    0 -0.36795671522E+02 -0.64062328054E+03  0.14170706454E+04  0.18227290866E+04  0.95000000000E+03 0.  0.
<mgrwt>
<rscale>  0 0.24247792E+04</rscale>
<asrwt>0</asrwt>
<pdfrwt beam="1">  1        2 0.37606149E+00 0.24247792E+04</pdfrwt>
<pdfrwt beam="2">  1       -2 0.92512157E-01 0.24247792E+04</pdfrwt>
<totfact> 0.33349276E+00</totfact>
</mgrwt>
</event>
<event>
 4    1  0.2048914E-008  0.2659997E+04  0.7816531E-02  0.8348103E-01
         -2   -1    0    0    0  501 -0.00000000000E+00  0.00000000000E+00  0.17625430261E+04  0.17625430261E+04  0.00000000000E+00 0. -1.
          2   -1    0    0  501    0  0.00000000000E+00 -0.00000000000E+00 -0.10036041049E+04  0.10036041049E+04  0.00000000000E+00 0.  1.
    2000013    1    1    2    0    0  0.67755390278E+03 -0.29676685549E+03  0.96703542996E+03  0.15442821570E+04  0.95000000000E+03 0.  0.
   -2000013    1    1    2    0    0 -0.67755390278E+03  0.29676685549E+03 -0.20809650877E+03  0.12218649740E+04  0.95000000000E+03 0.  0.
<mgrwt>
<rscale>  0 0.26599966E+04</rscale>
<asrwt>0</asrwt>
<pdfrwt beam="2">  1        2 0.15440063E+00 0.26599966E+04</pdfrwt>
<pdfrwt beam="1">  1       -2 0.27116047E+00 0.26599966E+04</pdfrwt>
<totfact> 0.10514756E+00</totfact>
</mgrwt>
</event>
<event>
 4    1  0.2048914E-008  0.1944946E+04  0.7816531E-02  0.8632802E-01
          2   -1    0    0  501    0  0.00000000000E+00  0.00000000000E+00  0.14672821997E+04  0.14672821997E+04  0.00000000000E+00 0.  1.
         -2   -1    0    0    0  501 -0.00000000000E+00 -0.00000000000E+00 -0.64452747166E+03  0.64452747166E+03  0.00000000000E+00 0. -1.
    2000013    1    1    2    0    0  0.15258989571E+03  0.21238395965E+02  0.25987535273E+03  0.99688010548E+03  0.95000000000E+03 0.  0.
   -2000013    1    1    2    0    0 -0.15258989571E+03 -0.21238395965E+02  0.56287937530E+03  0.11149295659E+04  0.95000000000E+03 0.  0.
<mgrwt>
<rscale>  0 0.19449459E+04</rscale>
<asrwt>0</asrwt>
<pdfrwt beam="1">  1        2 0.22573572E+00 0.19449459E+04</pdfrwt>
<pdfrwt beam="2">  1       -2 0.99158073E-01 0.19449459E+04</pdfrwt>
<totfact> 0.10418873E+01</totfact>
</mgrwt>
</event>
<event>
 4    1  0.2048914E-008  0.2726668E+04  0.7816531E-02  0.8326404E-01
         -1   -1    0    0    0  501 -0.00000000000E+00  0.00000000000E+00  0.87710594120E+03  0.87710594120E+03  0.00000000000E+00 0. -1.
          1   -1    0    0  501    0  0.00000000000E+00 -0.00000000000E+00 -0.21191056612E+04  0.21191056612E+04  0.00000000000E+00 0.  1.
    2000013    1    1    2    0    0 -0.40033177947E+03 -0.88528943720E+03 -0.74225904955E+03  0.15483705687E+04  0.95000000000E+03 0.  0.
   -2000013    1    1    2    0    0  0.40033177947E+03  0.88528943720E+03 -0.49974067044E+03  0.14478410337E+04  0.95000000000E+03 0.  0.
<mgrwt>
<rscale>  0 0.27266684E+04</rscale>
<asrwt>0</asrwt>
<pdfrwt beam="2">  1        1 0.32601626E+00 0.27266684E+04</pdfrwt>
<pdfrwt beam="1">  1       -1 0.13493937E+00 0.27266684E+04</pdfrwt>
<totfact> 0.99348114E-01</totfact>
</mgrwt>
</event>
<event>
 4    1  0.2048914E-008  0.2212417E+04  0.7816531E-02  0.8513278E-01
         -2   -1    0    0    0  501 -0.00000000000E+00  0.00000000000E+00  0.91135155196E+03  0.91135155196E+03  0.00000000000E+00 0. -1.
          2   -1    0    0  501    0  0.00000000000E+00 -0.00000000000E+00 -0.13427278105E+04  0.13427278105E+04  0.00000000000E+00 0.  1.
    2000013    1    1    2    0    0  0.49336218970E+03 -0.22616530328E+03 -0.49396647474E+02  0.10952155146E+04  0.95000000000E+03 0.  0.
   -2000013    1    1    2    0    0 -0.49336218970E+03  0.22616530328E+03 -0.38197961107E+03  0.11588638479E+04  0.95000000000E+03 0.  0.
<mgrwt>
<rscale>  0 0.22124168E+04</rscale>
<asrwt>0</asrwt>
<pdfrwt beam="2">  1        2 0.20657351E+00 0.22124168E+04</pdfrwt>
<pdfrwt beam="1">  1       -2 0.14020793E+00 0.22124168E+04</pdfrwt>
<totfact> 0.51012578E+00</totfact>
</mgrwt>
</event>
<event>
 4    1  0.2048914E-008  0.2495335E+04  0.7816531E-02  0.8404649E-01
         -2   -1    0    0    0  501 -0.00000000000E+00  0.00000000000E+00  0.60707103852E+03  0.60707103852E+03  0.00000000000E+00 0. -1.
          2   -1    0    0  501    0  0.00000000000E+00 -0.00000000000E+00 -0.25642381340E+04  0.25642381340E+04  0.00000000000E+00 0.  1.
    2000013    1    1    2    0    0 -0.56412008736E+03  0.45663041239E+03 -0.52490448854E+03  0.13056674648E+04  0.95000000000E+03 0.  0.
   -2000013    1    1    2    0    0  0.56412008736E+03 -0.45663041239E+03 -0.14322626070E+04  0.18656417078E+04  0.95000000000E+03 0.  0.
<mgrwt>
<rscale>  0 0.24953354E+04</rscale>
<asrwt>0</asrwt>
<pdfrwt beam="2">  1        2 0.39449818E+00 0.24953354E+04</pdfrwt>
<pdfrwt beam="1">  1       -2 0.93395544E-01 0.24953354E+04</pdfrwt>
<totfact> 0.27630759E+00</totfact>
</mgrwt>
</event>
<event>
 4    1  0.2048914E-008  0.4175716E+04  0.7816531E-02  0.7970008E-01
          1   -1    0    0  501    0  0.00000000000E+00  0.00000000000E+00  0.31966118425E+04  0.31966118425E+04  0.00000000000E+00 0. -1.
         -1   -1    0    0    0  501 -0.00000000000E+00 -0.00000000000E+00 -0.13636784991E+04  0.13636784991E+04  0.00000000000E+00 0.  1.
    2000013    1    1    2    0    0  0.16036181283E+04 -0.93757183419E+03  0.10011925908E+04  0.23141993539E+04  0.95000000000E+03 0.  0.
   -2000013    1    1    2    0    0 -0.16036181283E+04  0.93757183419E+03  0.83174075265E+03  0.22460909877E+04  0.95000000000E+03 0.  0.
<mgrwt>
<rscale>  0 0.41757159E+04</rscale>
<asrwt>0</asrwt>
<pdfrwt beam="1">  1        1 0.49178644E+00 0.41757159E+04</pdfrwt>
<pdfrwt beam="2">  1       -1 0.20979669E+00 0.41757159E+04</pdfrwt>
<totfact> 0.42511331E-02</totfact>
</mgrwt>
</event>
<event>
 4    1  0.2048914E-008  0.3470553E+04  0.7816531E-02  0.8120804E-01
          2   -1    0    0  501    0  0.00000000000E+00  0.00000000000E+00  0.24471672467E+04  0.24471672467E+04  0.00000000000E+00 0.  1.
         -2   -1    0    0    0  501 -0.00000000000E+00 -0.00000000000E+00 -0.12304773000E+04  0.12304773000E+04  0.00000000000E+00 0. -1.
    2000013    1    1    2    0    0 -0.95216378598E+03 -0.73367302164E+03 -0.25500535414E+03  0.15531966098E+04  0.95000000000E+03 0.  0.
   -2000013    1    1    2    0    0  0.95216378598E+03  0.73367302164E+03  0.14716953009E+04  0.21244479369E+04  0.95000000000E+03 0.  0.
<mgrwt>
<rscale>  0 0.34705525E+04</rscale>
<asrwt>0</asrwt>
<pdfrwt beam="1">  1        2 0.37648727E+00 0.34705525E+04</pdfrwt>
<pdfrwt beam="2">  1       -2 0.18930420E+00 0.34705525E+04</pdfrwt>
<totfact> 0.48195618E-01</totfact>
</mgrwt>
</event>
<event>
 4    1  0.2048914E-008  0.2370140E+04  0.7816531E-02  0.8450768E-01
          2   -1    0    0  501    0  0.00000000000E+00  0.00000000000E+00  0.16828990191E+04  0.16828990191E+04  0.00000000000E+00 0.  1.
         -2   -1    0    0    0  501 -0.00000000000E+00 -0.00000000000E+00 -0.83450664923E+03  0.83450664923E+03  0.00000000000E+00 0. -1.
    2000013    1    1    2    0    0 -0.67435174506E+03  0.20082368040E+03  0.33654603367E+03  0.12291638050E+04  0.95000000000E+03 0.  0.
   -2000013    1    1    2    0    0  0.67435174506E+03 -0.20082368040E+03  0.51184633622E+03  0.12882418634E+04  0.95000000000E+03 0.  0.
<mgrwt>
<rscale>  0 0.23701396E+04</rscale>
<asrwt>0</asrwt>
<pdfrwt beam="1">  1        2 0.25890754E+00 0.23701396E+04</pdfrwt>
<pdfrwt beam="2">  1       -2 0.12838564E+00 0.23701396E+04</pdfrwt>
<totfact> 0.40511237E+00</totfact>
</mgrwt>
</event>
<event>
 4    1  0.2048914E-008  0.3351304E+04  0.7816531E-02  0.8149962E-01
          2   -1    0    0  501    0  0.00000000000E+00  0.00000000000E+00  0.22719052092E+04  0.22719052092E+04  0.00000000000E+00 0.  1.
         -2   -1    0    0    0  501 -0.00000000000E+00 -0.00000000000E+00 -0.12358833032E+04  0.12358833032E+04  0.00000000000E+00 0. -1.
    2000013    1    1    2    0    0 -0.51248109535E+03  0.89781911684E+03 -0.43935252998E+03  0.14711378879E+04  0.95000000000E+03 0.  0.
   -2000013    1    1    2    0    0  0.51248109535E+03 -0.89781911684E+03  0.14753744360E+04  0.20366506245E+04  0.95000000000E+03 0.  0.
<mgrwt>
<rscale>  0 0.33513041E+04</rscale>
<asrwt>0</asrwt>
<pdfrwt beam="1">  1        2 0.34952388E+00 0.33513041E+04</pdfrwt>
<pdfrwt beam="2">  1       -2 0.19013589E+00 0.33513041E+04</pdfrwt>
<totfact> 0.60502230E-01</totfact>
</mgrwt>
</event>
<event>
 4    1  0.2048914E-008  0.2108685E+04  0.7816531E-02  0.8557427E-01
          2   -1    0    0  501    0  0.00000000000E+00  0.00000000000E+00  0.16733371053E+04  0.16733371053E+04  0.00000000000E+00 0.  1.
         -2   -1    0    0    0  501 -0.00000000000E+00 -0.00000000000E+00 -0.66432416360E+03  0.66432416360E+03  0.00000000000E+00 0. -1.
    2000013    1    1    2    0    0 -0.23468396942E+03 -0.37909955612E+03  0.61726255832E+03  0.12174999404E+04  0.95000000000E+03 0.  0.
   -2000013    1    1    2    0    0  0.23468396942E+03  0.37909955612E+03  0.39175038334E+03  0.11201613285E+04  0.95000000000E+03 0.  0.
<mgrwt>
<rscale>  0 0.21086852E+04</rscale>
<asrwt>0</asrwt>
<pdfrwt beam="1">  1        2 0.25743648E+00 0.21086852E+04</pdfrwt>
<pdfrwt beam="2">  1       -2 0.10220372E+00 0.21086852E+04</pdfrwt>
<totfact> 0.73290450E+00</totfact>
</mgrwt>
</event>
<event>
 4    1  0.2048914E-008  0.2198389E+04  0.7816531E-02  0.8519099E-01
         -1   -1    0    0    0  501 -0.00000000000E+00  0.00000000000E+00  0.18966315402E+04  0.18966315402E+04  0.00000000000E+00 0. -1.
          1   -1    0    0  501    0  0.00000000000E+00 -0.00000000000E+00 -0.63703931314E+03  0.63703931314E+03  0.00000000000E+00 0.  1.
    2000013    1    1    2    0    0 -0.54384526528E+03 -0.99195639057E+02  0.64249501566E+03  0.12731485744E+04  0.95000000000E+03 0.  0.
   -2000013    1    1    2    0    0  0.54384526528E+03  0.99195639057E+02  0.61709721142E+03  0.12605222789E+04  0.95000000000E+03 0.  0.
<mgrwt>
<rscale>  0 0.21983893E+04</rscale>
<asrwt>0</asrwt>
<pdfrwt beam="2">  1        1 0.98006049E-01 0.21983893E+04</pdfrwt>
<pdfrwt beam="1">  1       -1 0.29178947E+00 0.21983893E+04</pdfrwt>
<totfact> 0.10683882E+00</totfact>
</mgrwt>
</event>
<event>
 4    1  0.2048914E-008  0.2419293E+04  0.7816531E-02  0.8432316E-01
          1   -1    0    0  501    0  0.00000000000E+00  0.00000000000E+00  0.10787282855E+04  0.10787282855E+04  0.00000000000E+00 0.  1.
         -1   -1    0    0    0  501 -0.00000000000E+00 -0.00000000000E+00 -0.13564535934E+04  0.13564535934E+04  0.00000000000E+00 0. -1.
    2000013    1    1    2    0    0 -0.32382418380E+03  0.44708300808E+03 -0.64814954497E+03  0.12756736067E+04  0.95000000000E+03 0.  0.
   -2000013    1    1    2    0    0  0.32382418380E+03 -0.44708300808E+03  0.37042423705E+03  0.11595082723E+04  0.95000000000E+03 0.  0.
<mgrwt>
<rscale>  0 0.24192932E+04</rscale>
<asrwt>0</asrwt>
<pdfrwt beam="1">  1        1 0.16595820E+00 0.24192932E+04</pdfrwt>
<pdfrwt beam="2">  1       -1 0.20868517E+00 0.24192932E+04</pdfrwt>
<totfact> 0.15447262E+00</totfact>
</mgrwt>
</event>
<event>
 4    1  0.2048914E-008  0.2583362E+04  0.7816531E-02  0.8373875E-01
          1   -1    0    0  501    0  0.00000000000E+00  0.00000000000E+00  0.13888185552E+04  0.13888185552E+04  0.00000000000E+00 0.  1.
         -1   -1    0    0    0  501 -0.00000000000E+00 -0.00000000000E+00 -0.12013374673E+04  0.12013374673E+04  0.00000000000E+00 0. -1.
    2000013    1    1    2    0    0 -0.31018154427E+03 -0.81785296524E+03  0.12286349209E+03  0.12971859932E+04  0.95000000000E+03 0.  0.
   -2000013    1    1    2    0    0  0.31018154427E+03  0.81785296524E+03  0.64617595749E+02  0.12929700294E+04  0.95000000000E+03 0.  0.
<mgrwt>
<rscale>  0 0.25833620E+04</rscale>
<asrwt>0</asrwt>
<pdfrwt beam="1">  1        1 0.21366439E+00 0.25833620E+04</pdfrwt>
<pdfrwt beam="2">  1       -1 0.18482115E+00 0.25833620E+04</pdfrwt>
<totfact> 0.13265426E+00</totfact>
</mgrwt>
</event>
<event>
 4    1  0.2048914E-008  0.2620124E+04  0.7816531E-02  0.8361397E-01
          2   -1    0    0  501    0  0.00000000000E+00  0.00000000000E+00  0.35612650822E+04  0.35612650822E+04  0.00000000000E+00 0.  1.
         -2   -1    0    0    0  501 -0.00000000000E+00 -0.00000000000E+00 -0.48192499982E+03  0.48192499982E+03  0.00000000000E+00 0. -1.
    2000013    1    1    2    0    0 -0.15633042751E+03  0.18884159375E+03  0.20002207996E+03  0.10013037414E+04  0.95000000000E+03 0.  0.
   -2000013    1    1    2    0    0  0.15633042751E+03 -0.18884159375E+03  0.28793180025E+04  0.30418863406E+04  0.95000000000E+03 0.  0.
<mgrwt>
<rscale>  0 0.26201242E+04</rscale>
<asrwt>0</asrwt>
<pdfrwt beam="1">  1        2 0.54788692E+00 0.26201242E+04</pdfrwt>
<pdfrwt beam="2">  1       -2 0.74142310E-01 0.26201242E+04</pdfrwt>
<totfact> 0.10653003E+00</totfact>
</mgrwt>
</event>
<event>
 4    1  0.2048914E-008  0.2069093E+04  0.7816531E-02  0.8574982E-01
         -2   -1    0    0    0  501 -0.00000000000E+00  0.00000000000E+00  0.12049600696E+04  0.12049600696E+04  0.00000000000E+00 0. -1.
          2   -1    0    0  501    0  0.00000000000E+00 -0.00000000000E+00 -0.88823406383E+03  0.88823406383E+03  0.00000000000E+00 0.  1.
    2000013    1    1    2    0    0  0.39841570947E+03  0.55122976828E+02  0.79916497293E+02  0.10347271460E+04  0.95000000000E+03 0.  0.
   -2000013    1    1    2    0    0 -0.39841570947E+03 -0.55122976828E+02  0.23680950845E+03  0.10584669874E+04  0.95000000000E+03 0.  0.
<mgrwt>
<rscale>  0 0.20690931E+04</rscale>
<asrwt>0</asrwt>
<pdfrwt beam="2">  1        2 0.13665139E+00 0.20690931E+04</pdfrwt>
<pdfrwt beam="1">  1       -2 0.18537847E+00 0.20690931E+04</pdfrwt>
<totfact> 0.45941910E+00</totfact>
</mgrwt>
</event>
<event>
 4    1  0.2048914E-008  0.2681515E+04  0.7816531E-02  0.8341028E-01
         -2   -1    0    0    0  501 -0.00000000000E+00  0.00000000000E+00  0.11584044264E+04  0.11584044264E+04  0.00000000000E+00 0. -1.
          2   -1    0    0  501    0  0.00000000000E+00 -0.00000000000E+00 -0.15518164007E+04  0.15518164007E+04  0.00000000000E+00 0.  1.
    2000013    1    1    2    0    0 -0.85994057732E+03  0.35335799317E+03 -0.37400138837E+03  0.13808463732E+04  0.95000000000E+03 0.  0.
   -2000013    1    1    2    0    0  0.85994057732E+03 -0.35335799317E+03 -0.19410585895E+02  0.13293744539E+04  0.95000000000E+03 0.  0.
<mgrwt>
<rscale>  0 0.26815152E+04</rscale>
<asrwt>0</asrwt>
<pdfrwt beam="2">  1        2 0.23874098E+00 0.26815152E+04</pdfrwt>
<pdfrwt beam="1">  1       -2 0.17821607E+00 0.26815152E+04</pdfrwt>
<totfact> 0.19457559E+00</totfact>
</mgrwt>
</event>
<event>
 4    1  0.2048914E-008  0.2335420E+04  0.7816531E-02  0.8464085E-01
          2   -1    0    0  501    0  0.00000000000E+00  0.00000000000E+00  0.96879222977E+03  0.96879222977E+03  0.00000000000E+00 0.  1.
         -2   -1    0    0    0  501 -0.00000000000E+00 -0.00000000000E+00 -0.14074711013E+04  0.14074711013E+04  0.00000000000E+00 0. -1.
    2000013    1    1    2    0    0  0.16932649753E+03  0.32928569447E+03 -0.79845624878E+03  0.12950416644E+04  0.95000000000E+03 0.  0.
   -2000013    1    1    2    0    0 -0.16932649753E+03 -0.32928569447E+03  0.35977737723E+03  0.10812216667E+04  0.95000000000E+03 0.  0.
<mgrwt>
<rscale>  0 0.23354204E+04</rscale>
<asrwt>0</asrwt>
<pdfrwt beam="1">  1        2 0.14904496E+00 0.23354204E+04</pdfrwt>
<pdfrwt beam="2">  1       -2 0.21653402E+00 0.23354204E+04</pdfrwt>
<totfact> 0.24799569E+00</totfact>
</mgrwt>
</event>
<event>
 4    1  0.2048914E-008  0.2293542E+04  0.7816531E-02  0.8480472E-01
         -2   -1    0    0    0  501 -0.00000000000E+00  0.00000000000E+00  0.69065323658E+03  0.69065323658E+03  0.00000000000E+00 0. -1.
          2   -1    0    0  501    0  0.00000000000E+00 -0.00000000000E+00 -0.19041151999E+04  0.19041151999E+04  0.00000000000E+00 0.  1.
    2000013    1    1    2    0    0 -0.55308985156E+02 -0.54564505012E+03 -0.22845865924E+03  0.11204824691E+04  0.95000000000E+03 0.  0.
   -2000013    1    1    2    0    0  0.55308985156E+02  0.54564505012E+03 -0.98500330407E+03  0.14742859674E+04  0.95000000000E+03 0.  0.
<mgrwt>
<rscale>  0 0.22935417E+04</rscale>
<asrwt>0</asrwt>
<pdfrwt beam="2">  1        2 0.29294080E+00 0.22935417E+04</pdfrwt>
<pdfrwt beam="1">  1       -2 0.10625434E+00 0.22935417E+04</pdfrwt>
<totfact> 0.48947523E+00</totfact>
</mgrwt>
</event>
<event>
 4    1  0.2048914E-008  0.2220604E+04  0.7816531E-02  0.8509901E-01
          2   -1    0    0  501    0  0.00000000000E+00  0.00000000000E+00  0.24376046770E+04  0.24376046770E+04  0.00000000000E+00 0.  1.
         -2   -1    0    0    0  501 -0.00000000000E+00 -0.00000000000E+00 -0.50573042201E+03  0.50573042201E+03  0.00000000000E+00 0. -1.
    2000013    1    1    2    0    0  0.29862817122E+03 -0.32750295877E+03  0.14508364240E+04  0.17899338820E+04  0.95000000000E+03 0.  0.
   -2000013    1    1    2    0    0 -0.29862817122E+03  0.32750295877E+03  0.48103783103E+03  0.11534012171E+04  0.95000000000E+03 0.  0.
<mgrwt>
<rscale>  0 0.22206043E+04</rscale>
<asrwt>0</asrwt>
<pdfrwt beam="1">  1        2 0.37501610E+00 0.22206043E+04</pdfrwt>
<pdfrwt beam="2">  1       -2 0.77804682E-01 0.22206043E+04</pdfrwt>
<totfact> 0.50784598E+00</totfact>
</mgrwt>
</event>
<event>
 4    1  0.2048914E-008  0.3020393E+04  0.7816531E-02  0.8237932E-01
          2   -1    0    0  501    0  0.00000000000E+00  0.00000000000E+00  0.20057893935E+04  0.20057893935E+04  0.00000000000E+00 0.  1.
         -2   -1    0    0    0  501 -0.00000000000E+00 -0.00000000000E+00 -0.11370549952E+04  0.11370549952E+04  0.00000000000E+00 0. -1.
    2000013    1    1    2    0    0  0.11216966961E+04  0.31800162924E+03  0.29145140364E+03  0.15319178943E+04  0.95000000000E+03 0.  0.
   -2000013    1    1    2    0    0 -0.11216966961E+04 -0.31800162924E+03  0.57728299461E+03  0.16109264943E+04  0.95000000000E+03 0.  0.
<mgrwt>
<rscale>  0 0.30203926E+04</rscale>
<asrwt>0</asrwt>
<pdfrwt beam="1">  1        2 0.30858298E+00 0.30203926E+04</pdfrwt>
<pdfrwt beam="2">  1       -2 0.17493154E+00 0.30203926E+04</pdfrwt>
<totfact> 0.11148610E+00</totfact>
</mgrwt>
</event>
<event>
 4    1  0.2048914E-008  0.2262703E+04  0.7816531E-02  0.8492774E-01
         -1   -1    0    0    0  501 -0.00000000000E+00  0.00000000000E+00  0.57647542515E+03  0.57647542515E+03  0.00000000000E+00 0. -1.
          1   -1    0    0  501    0  0.00000000000E+00 -0.00000000000E+00 -0.22203137922E+04  0.22203137922E+04  0.00000000000E+00 0.  1.
    2000013    1    1    2    0    0 -0.46800767246E+02 -0.58445237160E+03 -0.10487633205E+04  0.15317243188E+04  0.95000000000E+03 0.  0.
   -2000013    1    1    2    0    0  0.46800767246E+02  0.58445237160E+03 -0.59507504660E+03  0.12650648986E+04  0.95000000000E+03 0.  0.
<mgrwt>
<rscale>  0 0.22627031E+04</rscale>
<asrwt>0</asrwt>
<pdfrwt beam="2">  1        1 0.34158673E+00 0.22627031E+04</pdfrwt>
<pdfrwt beam="1">  1       -1 0.88688528E-01 0.22627031E+04</pdfrwt>
<totfact> 0.23868774E+00</totfact>
</mgrwt>
</event>
<event>
 4    1  0.2048914E-008  0.2617266E+04  0.7816531E-02  0.8362360E-01
          2   -1    0    0  501    0  0.00000000000E+00  0.00000000000E+00  0.91683301134E+03  0.91683301134E+03  0.00000000000E+00 0.  1.
         -2   -1    0    0    0  501 -0.00000000000E+00 -0.00000000000E+00 -0.18678653040E+04  0.18678653040E+04  0.00000000000E+00 0. -1.
    2000013    1    1    2    0    0 -0.79589405311E+03  0.40014997490E+03 -0.61199198738E+03  0.14389584910E+04  0.95000000000E+03 0.  0.
   -2000013    1    1    2    0    0  0.79589405311E+03 -0.40014997490E+03 -0.33904030526E+03  0.13457398243E+04  0.95000000000E+03 0.  0.
<mgrwt>
<rscale>  0 0.26172662E+04</rscale>
<asrwt>0</asrwt>
<pdfrwt beam="1">  1        2 0.14105123E+00 0.26172662E+04</pdfrwt>
<pdfrwt beam="2">  1       -2 0.28736389E+00 0.26172662E+04</pdfrwt>
<totfact> 0.95811239E-01</totfact>
</mgrwt>
</event>
<event>
 4    1  0.2048914E-008  0.3248282E+04  0.7816531E-02  0.8176181E-01
          1   -1    0    0  501    0  0.00000000000E+00  0.00000000000E+00  0.32871238663E+04  0.32871238663E+04  0.00000000000E+00 0. -1.
         -1   -1    0    0    0  501 -0.00000000000E+00 -0.00000000000E+00 -0.80247480163E+03  0.80247480163E+03  0.00000000000E+00 0.  1.
    2000013    1    1    2    0    0 -0.11633381130E+04 -0.99814384243E+02  0.20102295967E+04  0.25113425708E+04  0.95000000000E+03 0.  0.
   -2000013    1    1    2    0    0  0.11633381130E+04  0.99814384243E+02  0.47441946797E+03  0.15782560971E+04  0.95000000000E+03 0.  0.
<mgrwt>
<rscale>  0 0.32482821E+04</rscale>
<asrwt>0</asrwt>
<pdfrwt beam="1">  1        1 0.50571136E+00 0.32482821E+04</pdfrwt>
<pdfrwt beam="2">  1       -1 0.12345766E+00 0.32482821E+04</pdfrwt>
<totfact> 0.17547079E-01</totfact>
</mgrwt>
</event>
<event>
 4    1  0.2048914E-008  0.3343229E+04  0.7816531E-02  0.8151982E-01
         -2   -1    0    0    0  501 -0.00000000000E+00  0.00000000000E+00  0.21585477785E+04  0.21585477785E+04  0.00000000000E+00 0. -1.
          2   -1    0    0  501    0  0.00000000000E+00 -0.00000000000E+00 -0.12945257851E+04  0.12945257851E+04  0.00000000000E+00 0.  1.
    2000013    1    1    2    0    0  0.11609122572E+04  0.40609047210E+03 -0.20398747288E+03  0.15673983634E+04  0.95000000000E+03 0.  0.
   -2000013    1    1    2    0    0 -0.11609122572E+04 -0.40609047210E+03  0.10680094663E+04  0.18856752002E+04  0.95000000000E+03 0.  0.
<mgrwt>
<rscale>  0 0.33432294E+04</rscale>
<asrwt>0</asrwt>
<pdfrwt beam="2">  1        2 0.19915781E+00 0.33432294E+04</pdfrwt>
<pdfrwt beam="1">  1       -2 0.33208428E+00 0.33432294E+04</pdfrwt>
<totfact> 0.27917507E-01</totfact>
</mgrwt>
</event>
<event>
 4    1  0.2048914E-008  0.3316345E+04  0.7816531E-02  0.8158749E-01
         -2   -1    0    0    0  501 -0.00000000000E+00  0.00000000000E+00  0.16518177199E+04  0.16518177199E+04  0.00000000000E+00 0. -1.
          2   -1    0    0  501    0  0.00000000000E+00 -0.00000000000E+00 -0.16645520323E+04  0.16645520323E+04  0.00000000000E+00 0.  1.
    2000013    1    1    2    0    0  0.72844984086E+03 -0.10922105697E+04 -0.35775762861E+03  0.16595341575E+04  0.95000000000E+03 0.  0.
   -2000013    1    1    2    0    0 -0.72844984086E+03  0.10922105697E+04  0.34502331623E+03  0.16568355947E+04  0.95000000000E+03 0.  0.
<mgrwt>
<rscale>  0 0.33163453E+04</rscale>
<asrwt>0</asrwt>
<pdfrwt beam="2">  1        2 0.25608493E+00 0.33163453E+04</pdfrwt>
<pdfrwt beam="1">  1       -2 0.25412580E+00 0.33163453E+04</pdfrwt>
<totfact> 0.51892174E-01</totfact>
</mgrwt>
</event>
<event>
 4    1  0.2048914E-008  0.2460836E+04  0.7816531E-02  0.8417072E-01
          2   -1    0    0  501    0  0.00000000000E+00  0.00000000000E+00  0.12062825642E+04  0.12062825642E+04  0.00000000000E+00 0.  1.
         -2   -1    0    0    0  501 -0.00000000000E+00 -0.00000000000E+00 -0.12550361596E+04  0.12550361596E+04  0.00000000000E+00 0. -1.
    2000013    1    1    2    0    0  0.50642916730E+03  0.58561510082E+03  0.85247123197E+02  0.12284879404E+04  0.95000000000E+03 0.  0.
   -2000013    1    1    2    0    0 -0.50642916730E+03 -0.58561510082E+03 -0.13400071852E+03  0.12328307833E+04  0.95000000000E+03 0.  0.
<mgrwt>
<rscale>  0 0.24608358E+04</rscale>
<asrwt>0</asrwt>
<pdfrwt beam="1">  1        2 0.18558193E+00 0.24608358E+04</pdfrwt>
<pdfrwt beam="2">  1       -2 0.19308249E+00 0.24608358E+04</pdfrwt>
<totfact> 0.24832953E+00</totfact>
</mgrwt>
</event>
<event>
 4    1  0.2048914E-008  0.2151899E+04  0.7816531E-02  0.8538720E-01
         -2   -1    0    0    0  501 -0.00000000000E+00  0.00000000000E+00  0.57669047533E+03  0.57669047533E+03  0.00000000000E+00 0. -1.
          2   -1    0    0  501    0  0.00000000000E+00 -0.00000000000E+00 -0.20074335011E+04  0.20074335011E+04  0.00000000000E+00 0.  1.
    2000013    1    1    2    0    0 -0.34379611996E+02  0.50284372291E+03 -0.75581050412E+03  0.13144517053E+04  0.95000000000E+03 0.  0.
   -2000013    1    1    2    0    0  0.34379611996E+02 -0.50284372291E+03 -0.67493252170E+03  0.12696722712E+04  0.95000000000E+03 0.  0.
<mgrwt>
<rscale>  0 0.21518994E+04</rscale>
<asrwt>0</asrwt>
<pdfrwt beam="2">  1        2 0.30883593E+00 0.21518994E+04</pdfrwt>
<pdfrwt beam="1">  1       -2 0.88721611E-01 0.21518994E+04</pdfrwt>
<totfact> 0.66325157E+00</totfact>
</mgrwt>
</event>
<event>
 4    1  0.2048914E-008  0.3074011E+04  0.7816531E-02  0.8222907E-01
          2   -1    0    0  501    0  0.00000000000E+00  0.00000000000E+00  0.22882355958E+04  0.22882355958E+04  0.00000000000E+00 0.  1.
         -2   -1    0    0    0  501 -0.00000000000E+00 -0.00000000000E+00 -0.10324048303E+04  0.10324048303E+04  0.00000000000E+00 0. -1.
    2000013    1    1    2    0    0  0.11408799380E+04  0.16695981882E+03  0.23782967035E+03  0.15127939603E+04  0.95000000000E+03 0.  0.
   -2000013    1    1    2    0    0 -0.11408799380E+04 -0.16695981882E+03  0.10180010952E+04  0.18078464658E+04  0.95000000000E+03 0.  0.
<mgrwt>
<rscale>  0 0.30740107E+04</rscale>
<asrwt>0</asrwt>
<pdfrwt beam="1">  1        2 0.35203624E+00 0.30740107E+04</pdfrwt>
<pdfrwt beam="2">  1       -2 0.15883151E+00 0.30740107E+04</pdfrwt>
<totfact> 0.10065062E+00</totfact>
</mgrwt>
</event>
<event>
 4    1  0.2048914E-008  0.2729803E+04  0.7816531E-02  0.8325399E-01
         -2   -1    0    0    0  501 -0.00000000000E+00  0.00000000000E+00  0.11225903454E+04  0.11225903454E+04  0.00000000000E+00 0. -1.
          2   -1    0    0  501    0  0.00000000000E+00 -0.00000000000E+00 -0.16595157122E+04  0.16595157122E+04  0.00000000000E+00 0.  1.
    2000013    1    1    2    0    0 -0.94101506161E+03  0.27949389266E+02 -0.54601457999E+03  0.14446184396E+04  0.95000000000E+03 0.  0.
   -2000013    1    1    2    0    0  0.94101506161E+03 -0.27949389266E+02  0.90892131952E+01  0.13374876180E+04  0.95000000000E+03 0.  0.
<mgrwt>
<rscale>  0 0.27298032E+04</rscale>
<asrwt>0</asrwt>
<pdfrwt beam="2">  1        2 0.25531011E+00 0.27298032E+04</pdfrwt>
<pdfrwt beam="1">  1       -2 0.17270621E+00 0.27298032E+04</pdfrwt>
<totfact> 0.18438409E+00</totfact>
</mgrwt>
</event>
<event>
 4    1  0.2048914E-008  0.2200045E+04  0.7816531E-02  0.8518410E-01
          2   -1    0    0  501    0  0.00000000000E+00  0.00000000000E+00  0.17416191910E+04  0.17416191910E+04  0.00000000000E+00 0. -1.
         -2   -1    0    0    0  501 -0.00000000000E+00 -0.00000000000E+00 -0.69478390503E+03  0.69478390503E+03  0.00000000000E+00 0.  1.
    2000013    1    1    2    0    0 -0.47432066997E+03  0.34900441387E+02  0.20755468170E+03  0.10824865286E+04  0.95000000000E+03 0.  0.
   -2000013    1    1    2    0    0  0.47432066997E+03 -0.34900441387E+02  0.83928060425E+03  0.13539165674E+04  0.95000000000E+03 0.  0.
<mgrwt>
<rscale>  0 0.22000445E+04</rscale>
<asrwt>0</asrwt>
<pdfrwt beam="1">  1        2 0.26794141E+00 0.22000445E+04</pdfrwt>
<pdfrwt beam="2">  1       -2 0.10688983E+00 0.22000445E+04</pdfrwt>
<totfact> 0.59849124E+00</totfact>
</mgrwt>
</event>
<event>
 4    1  0.2048914E-008  0.2211795E+04  0.7816531E-02  0.8513535E-01
         -2   -1    0    0    0  501 -0.00000000000E+00  0.00000000000E+00  0.38712528125E+03  0.38712528125E+03  0.00000000000E+00 0. -1.
          2   -1    0    0  501    0  0.00000000000E+00 -0.00000000000E+00 -0.31592091676E+04  0.31592091676E+04  0.00000000000E+00 0.  1.
    2000013    1    1    2    0    0 -0.55882194668E+03  0.36437729584E+02 -0.15192287519E+04  0.18772761323E+04  0.95000000000E+03 0.  0.
   -2000013    1    1    2    0    0  0.55882194668E+03 -0.36437729584E+02 -0.12528551345E+04  0.16690583166E+04  0.95000000000E+03 0.  0.
<mgrwt>
<rscale>  0 0.22117954E+04</rscale>
<asrwt>0</asrwt>
<pdfrwt beam="2">  1        2 0.48603217E+00 0.22117954E+04</pdfrwt>
<pdfrwt beam="1">  1       -2 0.59557737E-01 0.22117954E+04</pdfrwt>
<totfact> 0.33172666E+00</totfact>
</mgrwt>
</event>
<event>
 4    1  0.2048914E-008  0.2143669E+04  0.7816531E-02  0.8542247E-01
         -2   -1    0    0    0  501 -0.00000000000E+00  0.00000000000E+00  0.80774949090E+03  0.80774949090E+03  0.00000000000E+00 0. -1.
          2   -1    0    0  501    0  0.00000000000E+00 -0.00000000000E+00 -0.14222586343E+04  0.14222586343E+04  0.00000000000E+00 0.  1.
    2000013    1    1    2    0    0 -0.25647474286E+03 -0.39438354814E+03 -0.47177295669E+03  0.11603393467E+04  0.95000000000E+03 0.  0.
   -2000013    1    1    2    0    0  0.25647474286E+03  0.39438354814E+03 -0.14273618672E+03  0.10696687785E+04  0.95000000000E+03 0.  0.
<mgrwt>
<rscale>  0 0.21436685E+04</rscale>
<asrwt>0</asrwt>
<pdfrwt beam="2">  1        2 0.21880902E+00 0.21436685E+04</pdfrwt>
<pdfrwt beam="1">  1       -2 0.12426915E+00 0.21436685E+04</pdfrwt>
<totfact> 0.62801097E+00</totfact>
</mgrwt>
</event>
<event>
 4    1  0.2048914E-008  0.2065276E+04  0.7816531E-02  0.8576696E-01
          2   -1    0    0  501    0  0.00000000000E+00  0.00000000000E+00  0.18058070810E+04  0.18058070810E+04  0.00000000000E+00 0.  1.
         -2   -1    0    0    0  501 -0.00000000000E+00 -0.00000000000E+00 -0.59050654372E+03  0.59050654372E+03  0.00000000000E+00 0. -1.
    2000013    1    1    2    0    0 -0.22041285523E+03  0.33793433877E+03  0.56988377417E+03  0.11790033758E+04  0.95000000000E+03 0.  0.
   -2000013    1    1    2    0    0  0.22041285523E+03 -0.33793433877E+03  0.64541676314E+03  0.12173102490E+04  0.95000000000E+03 0.  0.
<mgrwt>
<rscale>  0 0.20652757E+04</rscale>
<asrwt>0</asrwt>
<pdfrwt beam="1">  1        2 0.27781647E+00 0.20652757E+04</pdfrwt>
<pdfrwt beam="2">  1       -2 0.90847161E-01 0.20652757E+04</pdfrwt>
<totfact> 0.81855324E+00</totfact>
</mgrwt>
</event>
<event>
 4    1  0.2048914E-008  0.2689508E+04  0.7816531E-02  0.8338417E-01
         -2   -1    0    0    0  501 -0.00000000000E+00  0.00000000000E+00  0.17678831699E+04  0.17678831699E+04  0.00000000000E+00 0. -1.
          2   -1    0    0  501    0  0.00000000000E+00 -0.00000000000E+00 -0.10228975433E+04  0.10228975433E+04  0.00000000000E+00 0.  1.
    2000013    1    1    2    0    0  0.73983458658E+03  0.42368536069E+03  0.81150642961E+03  0.15125829517E+04  0.95000000000E+03 0.  0.
   -2000013    1    1    2    0    0 -0.73983458658E+03 -0.42368536069E+03 -0.66520803098E+02  0.12781977615E+04  0.95000000000E+03 0.  0.
<mgrwt>
<rscale>  0 0.26895080E+04</rscale>
<asrwt>0</asrwt>
<pdfrwt beam="2">  1        2 0.15736885E+00 0.26895080E+04</pdfrwt>
<pdfrwt beam="1">  1       -2 0.27198203E+00 0.26895080E+04</pdfrwt>
<totfact> 0.10078185E+00</totfact>
</mgrwt>
</event>
<event>
 4    1  0.2048914E-008  0.2774612E+04  0.7816531E-02  0.8311194E-01
          2   -1    0    0  501    0  0.00000000000E+00  0.00000000000E+00  0.18419145880E+04  0.18419145880E+04  0.00000000000E+00 0.  1.
         -2   -1    0    0    0  501 -0.00000000000E+00 -0.00000000000E+00 -0.10449005413E+04  0.10449005413E+04  0.00000000000E+00 0. -1.
    2000013    1    1    2    0    0 -0.26059369524E+03  0.97178855798E+03  0.29532253418E+03  0.14149196000E+04  0.95000000000E+03 0.  0.
   -2000013    1    1    2    0    0  0.26059369524E+03 -0.97178855798E+03  0.50169151256E+03  0.14718955293E+04  0.95000000000E+03 0.  0.
<mgrwt>
<rscale>  0 0.27746117E+04</rscale>
<asrwt>0</asrwt>
<pdfrwt beam="1">  1        2 0.28337147E+00 0.27746117E+04</pdfrwt>
<pdfrwt beam="2">  1       -2 0.16075393E+00 0.27746117E+04</pdfrwt>
<totfact> 0.17737146E+00</totfact>
</mgrwt>
</event>
<event>
 4    1  0.2048914E-008  0.2026889E+04  0.7816531E-02  0.8594151E-01
         -2   -1    0    0    0  501 -0.00000000000E+00  0.00000000000E+00  0.23073662120E+03  0.23073662120E+03  0.00000000000E+00 0. -1.
          2   -1    0    0  501    0  0.00000000000E+00 -0.00000000000E+00 -0.44512638328E+04  0.44512638328E+04  0.00000000000E+00 0.  1.
    2000013    1    1    2    0    0  0.30908860769E+03 -0.73015581644E+02 -0.24658940358E+04  0.26615785613E+04  0.95000000000E+03 0.  0.
   -2000013    1    1    2    0    0 -0.30908860769E+03  0.73015581644E+02 -0.17546331758E+04  0.20204218926E+04  0.95000000000E+03 0.  0.
<mgrwt>
<rscale>  0 0.20268888E+04</rscale>
<asrwt>0</asrwt>
<pdfrwt beam="2">  1        2 0.68480978E+00 0.20268888E+04</pdfrwt>
<pdfrwt beam="1">  1       -2 0.35497944E-01 0.20268888E+04</pdfrwt>
<totfact> 0.96305021E-01</totfact>
</mgrwt>
</event>
<event>
 4    1  0.2048914E-008  0.2119568E+04  0.7816531E-02  0.8552672E-01
         -2   -1    0    0    0  501 -0.00000000000E+00  0.00000000000E+00  0.61209818182E+03  0.61209818182E+03  0.00000000000E+00 0. -1.
          2   -1    0    0  501    0  0.00000000000E+00 -0.00000000000E+00 -0.18349045305E+04  0.18349045305E+04  0.00000000000E+00 0.  1.
    2000013    1    1    2    0    0 -0.26241764223E+03  0.30358898508E+03 -0.32952879121E+03  0.10826442237E+04  0.95000000000E+03 0.  0.
   -2000013    1    1    2    0    0  0.26241764223E+03 -0.30358898508E+03 -0.89327755742E+03  0.13643584886E+04  0.95000000000E+03 0.  0.
<mgrwt>
<rscale>  0 0.21195676E+04</rscale>
<asrwt>0</asrwt>
<pdfrwt beam="2">  1        2 0.28229300E+00 0.21195676E+04</pdfrwt>
<pdfrwt beam="1">  1       -2 0.94168951E-01 0.21195676E+04</pdfrwt>
<totfact> 0.72230825E+00</totfact>
</mgrwt>
</event>
<event>
 4    1  0.2048914E-008  0.4184983E+04  0.7816531E-02  0.7968235E-01
          2   -1    0    0  501    0  0.00000000000E+00  0.00000000000E+00  0.31825563442E+04  0.31825563442E+04  0.00000000000E+00 0.  1.
         -2   -1    0    0    0  501 -0.00000000000E+00 -0.00000000000E+00 -0.13757875086E+04  0.13757875086E+04  0.00000000000E+00 0. -1.
    2000013    1    1    2    0    0  0.20464425913E+03 -0.17806368454E+04  0.14624755195E+04  0.25007761781E+04  0.95000000000E+03 0.  0.
   -2000013    1    1    2    0    0 -0.20464425913E+03  0.17806368454E+04  0.34429331613E+03  0.20575676746E+04  0.95000000000E+03 0.  0.
<mgrwt>
<rscale>  0 0.41849833E+04</rscale>
<asrwt>0</asrwt>
<pdfrwt beam="1">  1        2 0.48962405E+00 0.41849833E+04</pdfrwt>
<pdfrwt beam="2">  1       -2 0.21165962E+00 0.41849833E+04</pdfrwt>
<totfact> 0.11548149E-01</totfact>
</mgrwt>
</event>
<event>
 4    1  0.2048914E-008  0.3127024E+04  0.7816531E-02  0.8208360E-01
          2   -1    0    0  501    0  0.00000000000E+00  0.00000000000E+00  0.37098044077E+04  0.37098044077E+04  0.00000000000E+00 0.  1.
         -2   -1    0    0    0  501 -0.00000000000E+00 -0.00000000000E+00 -0.65894830044E+03  0.65894830044E+03  0.00000000000E+00 0. -1.
    2000013    1    1    2    0    0 -0.82439511925E+03 -0.91734979553E+03  0.17274587303E+04  0.23254615940E+04  0.95000000000E+03 0.  0.
   -2000013    1    1    2    0    0  0.82439511925E+03  0.91734979553E+03  0.13233973769E+04  0.20432911142E+04  0.95000000000E+03 0.  0.
<mgrwt>
<rscale>  0 0.31270237E+04</rscale>
<asrwt>0</asrwt>
<pdfrwt beam="1">  1        2 0.57073913E+00 0.31270237E+04</pdfrwt>
<pdfrwt beam="2">  1       -2 0.10137666E+00 0.31270237E+04</pdfrwt>
<totfact> 0.38832912E-01</totfact>
</mgrwt>
</event>
<event>
 4    1  0.2048914E-008  0.2481006E+04  0.7816531E-02  0.8409784E-01
          1   -1    0    0  501    0  0.00000000000E+00  0.00000000000E+00  0.24733789787E+04  0.24733789787E+04  0.00000000000E+00 0.  1.
         -1   -1    0    0    0  501 -0.00000000000E+00 -0.00000000000E+00 -0.62216422189E+03  0.62216422189E+03  0.00000000000E+00 0. -1.
    2000013    1    1    2    0    0 -0.55768832230E+03 -0.56325351193E+03  0.81347335480E+03  0.14807125590E+04  0.95000000000E+03 0.  0.
   -2000013    1    1    2    0    0  0.55768832230E+03  0.56325351193E+03  0.10377414021E+04  0.16148306416E+04  0.95000000000E+03 0.  0.
<mgrwt>
<rscale>  0 0.24810062E+04</rscale>
<asrwt>0</asrwt>
<pdfrwt beam="1">  1        1 0.38051984E+00 0.24810062E+04</pdfrwt>
<pdfrwt beam="2">  1       -1 0.95717574E-01 0.24810062E+04</pdfrwt>
<totfact> 0.13238737E+00</totfact>
</mgrwt>
</event>
<event>
 4    1  0.2048914E-008  0.2939762E+04  0.7816531E-02  0.8261144E-01
          3   -1    0    0  501    0  0.00000000000E+00  0.00000000000E+00  0.27526802451E+04  0.27526802451E+04  0.00000000000E+00 0.  1.
         -3   -1    0    0    0  501 -0.00000000000E+00 -0.00000000000E+00 -0.78488961023E+03  0.78488961023E+03  0.00000000000E+00 0. -1.
    2000013    1    1    2    0    0  0.44147593764E+03  0.97309207762E+03  0.57362283147E+03  0.15405688390E+04  0.95000000000E+03 0.  0.
   -2000013    1    1    2    0    0 -0.44147593764E+03 -0.97309207762E+03  0.13941678034E+04  0.19970010163E+04  0.95000000000E+03 0.  0.
<mgrwt>
<rscale>  0 0.29397620E+04</rscale>
<asrwt>0</asrwt>
<pdfrwt beam="1">  1        3 0.42348927E+00 0.29397620E+04</pdfrwt>
<pdfrwt beam="2">  1       -3 0.12075225E+00 0.29397620E+04</pdfrwt>
<totfact> 0.10413041E-02</totfact>
</mgrwt>
</event>
<event>
 4    1  0.2048914E-008  0.2760568E+04  0.7816531E-02  0.8315616E-01
         -1   -1    0    0    0  501 -0.00000000000E+00  0.00000000000E+00  0.10254087716E+04  0.10254087716E+04  0.00000000000E+00 0. -1.
          1   -1    0    0  501    0  0.00000000000E+00 -0.00000000000E+00 -0.18579746547E+04  0.18579746547E+04  0.00000000000E+00 0.  1.
    2000013    1    1    2    0    0  0.16804824322E+03 -0.95613853005E+03 -0.67264582961E+03  0.15157155118E+04  0.95000000000E+03 0.  0.
   -2000013    1    1    2    0    0 -0.16804824322E+03  0.95613853005E+03 -0.15992005351E+03  0.13676679144E+04  0.95000000000E+03 0.  0.
<mgrwt>
<rscale>  0 0.27605677E+04</rscale>
<asrwt>0</asrwt>
<pdfrwt beam="2">  1        1 0.28584225E+00 0.27605677E+04</pdfrwt>
<pdfrwt beam="1">  1       -1 0.15775520E+00 0.27605677E+04</pdfrwt>
<totfact> 0.98238459E-01</totfact>
</mgrwt>
</event>
<event>
 4    1  0.2048914E-008  0.3383614E+04  0.7816531E-02  0.8141940E-01
         -1   -1    0    0    0  501 -0.00000000000E+00  0.00000000000E+00  0.14174017767E+04  0.14174017767E+04  0.00000000000E+00 0. -1.
          1   -1    0    0  501    0  0.00000000000E+00 -0.00000000000E+00 -0.20193363960E+04  0.20193363960E+04  0.00000000000E+00 0.  1.
    2000013    1    1    2    0    0 -0.12586895923E+04 -0.59593337177E+03 -0.15634169262E+03  0.16930383334E+04  0.95000000000E+03 0.  0.
   -2000013    1    1    2    0    0  0.12586895923E+04  0.59593337177E+03 -0.44559292661E+03  0.17436998393E+04  0.95000000000E+03 0.  0.
<mgrwt>
<rscale>  0 0.33836140E+04</rscale>
<asrwt>0</asrwt>
<pdfrwt beam="2">  1        1 0.31066714E+00 0.33836140E+04</pdfrwt>
<pdfrwt beam="1">  1       -1 0.21806181E+00 0.33836140E+04</pdfrwt>
<totfact> 0.27012026E-01</totfact>
</mgrwt>
</event>
<event>
 4    1  0.2048914E-008  0.3639782E+04  0.7816531E-02  0.8081440E-01
         -2   -1    0    0    0  501 -0.00000000000E+00  0.00000000000E+00  0.14990958055E+04  0.14990958055E+04  0.00000000000E+00 0. -1.
          2   -1    0    0  501    0  0.00000000000E+00 -0.00000000000E+00 -0.22093333406E+04  0.22093333406E+04  0.00000000000E+00 0.  1.
    2000013    1    1    2    0    0  0.10998962609E+04 -0.10940152871E+04 -0.40961694909E+03  0.18646520528E+04  0.95000000000E+03 0.  0.
   -2000013    1    1    2    0    0 -0.10998962609E+04  0.10940152871E+04 -0.30062058598E+03  0.18437770933E+04  0.95000000000E+03 0.  0.
<mgrwt>
<rscale>  0 0.36397815E+04</rscale>
<asrwt>0</asrwt>
<pdfrwt beam="2">  1        2 0.33989743E+00 0.36397815E+04</pdfrwt>
<pdfrwt beam="1">  1       -2 0.23063013E+00 0.36397815E+04</pdfrwt>
<totfact> 0.35116697E-01</totfact>
</mgrwt>
</event>
<event>
 4    1  0.2048914E-008  0.2203588E+04  0.7816531E-02  0.8516936E-01
          2   -1    0    0  501    0  0.00000000000E+00  0.00000000000E+00  0.31874938114E+04  0.31874938114E+04  0.00000000000E+00 0.  1.
         -2   -1    0    0    0  501 -0.00000000000E+00 -0.00000000000E+00 -0.38084763237E+03  0.38084763237E+03  0.00000000000E+00 0. -1.
    2000013    1    1    2    0    0 -0.21105375709E+03  0.49093403968E+03  0.16638774629E+04  0.19891073704E+04  0.95000000000E+03 0.  0.
   -2000013    1    1    2    0    0  0.21105375709E+03 -0.49093403968E+03  0.11427687161E+04  0.15792340733E+04  0.95000000000E+03 0.  0.
<mgrwt>
<rscale>  0 0.22035875E+04</rscale>
<asrwt>0</asrwt>
<pdfrwt beam="1">  1        2 0.49038365E+00 0.22035875E+04</pdfrwt>
<pdfrwt beam="2">  1       -2 0.58591946E-01 0.22035875E+04</pdfrwt>
<totfact> 0.32943010E+00</totfact>
</mgrwt>
</event>
<event>
 4    1  0.2048914E-008  0.2762105E+04  0.7816531E-02  0.8315131E-01
          2   -1    0    0  501    0  0.00000000000E+00  0.00000000000E+00  0.12352499791E+04  0.12352499791E+04  0.00000000000E+00 0.  1.
         -2   -1    0    0    0  501 -0.00000000000E+00 -0.00000000000E+00 -0.15440645936E+04  0.15440645936E+04  0.00000000000E+00 0. -1.
    2000013    1    1    2    0    0  0.82952564120E+03  0.55112910040E+03 -0.26891300714E+03  0.14023802195E+04  0.95000000000E+03 0.  0.
   -2000013    1    1    2    0    0 -0.82952564120E+03 -0.55112910040E+03 -0.39901607329E+02  0.13769343532E+04  0.95000000000E+03 0.  0.
<mgrwt>
<rscale>  0 0.27621048E+04</rscale>
<asrwt>0</asrwt>
<pdfrwt beam="1">  1        2 0.19003846E+00 0.27621048E+04</pdfrwt>
<pdfrwt beam="2">  1       -2 0.23754840E+00 0.27621048E+04</pdfrwt>
<totfact> 0.12084319E+00</totfact>
</mgrwt>
</event>
<event>
 4    1  0.2048914E-008  0.2596140E+04  0.7816531E-02  0.8369513E-01
         -2   -1    0    0    0  501 -0.00000000000E+00  0.00000000000E+00  0.19294840280E+04  0.19294840280E+04  0.00000000000E+00 0. -1.
          2   -1    0    0  501    0  0.00000000000E+00 -0.00000000000E+00 -0.87328318970E+03  0.87328318970E+03  0.00000000000E+00 0.  1.
    2000013    1    1    2    0    0 -0.74931072681E+03  0.41856655083E+03  0.75919686871E+03  0.14884704929E+04  0.95000000000E+03 0.  0.
   -2000013    1    1    2    0    0  0.74931072681E+03 -0.41856655083E+03  0.29700396956E+03  0.13142967248E+04  0.95000000000E+03 0.  0.
<mgrwt>
<rscale>  0 0.25961402E+04</rscale>
<asrwt>0</asrwt>
<pdfrwt beam="2">  1        2 0.13435126E+00 0.25961402E+04</pdfrwt>
<pdfrwt beam="1">  1       -2 0.29684370E+00 0.25961402E+04</pdfrwt>
<totfact> 0.89920560E-01</totfact>
</mgrwt>
</event>
<event>
 4    1  0.2048914E-008  0.2325398E+04  0.7816531E-02  0.8467974E-01
          2   -1    0    0  501    0  0.00000000000E+00  0.00000000000E+00  0.15578445919E+04  0.15578445919E+04  0.00000000000E+00 0.  1.
         -2   -1    0    0    0  501 -0.00000000000E+00 -0.00000000000E+00 -0.86778187667E+03  0.86778187667E+03  0.00000000000E+00 0. -1.
    2000013    1    1    2    0    0 -0.48391528500E+02  0.66853018814E+03  0.33486708451E+03  0.12099216160E+04  0.95000000000E+03 0.  0.
   -2000013    1    1    2    0    0  0.48391528500E+02 -0.66853018814E+03  0.35519563068E+03  0.12157048526E+04  0.95000000000E+03 0.  0.
<mgrwt>
<rscale>  0 0.23253983E+04</rscale>
<asrwt>0</asrwt>
<pdfrwt beam="1">  1        2 0.23966840E+00 0.23253983E+04</pdfrwt>
<pdfrwt beam="2">  1       -2 0.13350490E+00 0.23253983E+04</pdfrwt>
<totfact> 0.43252028E+00</totfact>
</mgrwt>
</event>
<event>
 4    1  0.2048914E-008  0.2051681E+04  0.7816531E-02  0.8582832E-01
          2   -1    0    0  501    0  0.00000000000E+00  0.00000000000E+00  0.10097634327E+04  0.10097634327E+04  0.00000000000E+00 0.  1.
         -2   -1    0    0    0  501 -0.00000000000E+00 -0.00000000000E+00 -0.10421730973E+04  0.10421730973E+04  0.00000000000E+00 0. -1.
    2000013    1    1    2    0    0  0.82448738139E+02  0.34865769895E+03  0.13040233263E+03  0.10236526529E+04  0.95000000000E+03 0.  0.
   -2000013    1    1    2    0    0 -0.82448738139E+02 -0.34865769895E+03 -0.16281199724E+03  0.10282838771E+04  0.95000000000E+03 0.  0.
<mgrwt>
<rscale>  0 0.20516806E+04</rscale>
<asrwt>0</asrwt>
<pdfrwt beam="1">  1        2 0.15534822E+00 0.20516806E+04</pdfrwt>
<pdfrwt beam="2">  1       -2 0.16033432E+00 0.20516806E+04</pdfrwt>
<totfact> 0.57522591E+00</totfact>
</mgrwt>
</event>
<event>
 4    1  0.2048914E-008  0.2224075E+04  0.7816531E-02  0.8508474E-01
         -2   -1    0    0    0  501 -0.00000000000E+00  0.00000000000E+00  0.10852245783E+04  0.10852245783E+04  0.00000000000E+00 0. -1.
          2   -1    0    0  501    0  0.00000000000E+00 -0.00000000000E+00 -0.11395126405E+04  0.11395126405E+04  0.00000000000E+00 0.  1.
    2000013    1    1    2    0    0  0.13606006245E+03  0.56002965919E+03  0.17384001104E+02  0.11112820359E+04  0.95000000000E+03 0.  0.
   -2000013    1    1    2    0    0 -0.13606006245E+03 -0.56002965919E+03 -0.71672063223E+02  0.11134551829E+04  0.95000000000E+03 0.  0.
<mgrwt>
<rscale>  0 0.22240748E+04</rscale>
<asrwt>0</asrwt>
<pdfrwt beam="2">  1        2 0.17530964E+00 0.22240748E+04</pdfrwt>
<pdfrwt beam="1">  1       -2 0.16695763E+00 0.22240748E+04</pdfrwt>
<totfact> 0.42117968E+00</totfact>
</mgrwt>
</event>
<event>
 4    1  0.2048914E-008  0.2629474E+04  0.7816531E-02  0.8358258E-01
          2   -1    0    0  501    0  0.00000000000E+00  0.00000000000E+00  0.22812685955E+04  0.22812685955E+04  0.00000000000E+00 0.  1.
         -2   -1    0    0    0  501 -0.00000000000E+00 -0.00000000000E+00 -0.75770713401E+03  0.75770713401E+03  0.00000000000E+00 0. -1.
    2000013    1    1    2    0    0  0.50597591630E+03 -0.75495358523E+03  0.75232446465E+03  0.15147470561E+04  0.95000000000E+03 0.  0.
   -2000013    1    1    2    0    0 -0.50597591630E+03  0.75495358523E+03  0.77123699684E+03  0.15242286735E+04  0.95000000000E+03 0.  0.
<mgrwt>
<rscale>  0 0.26294741E+04</rscale>
<asrwt>0</asrwt>
<pdfrwt beam="1">  1        2 0.35096440E+00 0.26294741E+04</pdfrwt>
<pdfrwt beam="2">  1       -2 0.11657033E+00 0.26294741E+04</pdfrwt>
<totfact> 0.23380885E+00</totfact>
</mgrwt>
</event>
<event>
 4    1  0.2048914E-008  0.2237166E+04  0.7816531E-02  0.8503116E-01
         -2   -1    0    0    0  501 -0.00000000000E+00  0.00000000000E+00  0.55034748203E+03  0.55034748203E+03  0.00000000000E+00 0. -1.
          2   -1    0    0  501    0  0.00000000000E+00 -0.00000000000E+00 -0.22735226443E+04  0.22735226443E+04  0.00000000000E+00 0.  1.
    2000013    1    1    2    0    0  0.16211209253E+03 -0.49945621663E+03 -0.12026077892E+04  0.16200315854E+04  0.95000000000E+03 0.  0.
   -2000013    1    1    2    0    0 -0.16211209253E+03  0.49945621663E+03 -0.52056737308E+03  0.12038385410E+04  0.95000000000E+03 0.  0.
<mgrwt>
<rscale>  0 0.22371656E+04</rscale>
<asrwt>0</asrwt>
<pdfrwt beam="2">  1        2 0.34977272E+00 0.22371656E+04</pdfrwt>
<pdfrwt beam="1">  1       -2 0.84668843E-01 0.22371656E+04</pdfrwt>
<totfact> 0.51984076E+00</totfact>
</mgrwt>
</event>
<event>
 4    1  0.2048914E-008  0.2818177E+04  0.7816531E-02  0.8297647E-01
          2   -1    0    0  501    0  0.00000000000E+00  0.00000000000E+00  0.12752671844E+04  0.12752671844E+04  0.00000000000E+00 0.  1.
         -2   -1    0    0    0  501 -0.00000000000E+00 -0.00000000000E+00 -0.15569528707E+04  0.15569528707E+04  0.00000000000E+00 0. -1.
    2000013    1    1    2    0    0 -0.90416384407E+03  0.50270828604E+03 -0.27128568972E+02  0.14048002837E+04  0.95000000000E+03 0.  0.
   -2000013    1    1    2    0    0  0.90416384407E+03 -0.50270828604E+03 -0.25455711729E+03  0.14274197714E+04  0.95000000000E+03 0.  0.
<mgrwt>
<rscale>  0 0.28181774E+04</rscale>
<asrwt>0</asrwt>
<pdfrwt beam="1">  1        2 0.19619495E+00 0.28181774E+04</pdfrwt>
<pdfrwt beam="2">  1       -2 0.23953121E+00 0.28181774E+04</pdfrwt>
<totfact> 0.11074498E+00</totfact>
</mgrwt>
</event>
<event>
 4    1  0.2048914E-008  0.2291636E+04  0.7816531E-02  0.8481226E-01
         -2   -1    0    0    0  501 -0.00000000000E+00  0.00000000000E+00  0.10552591899E+04  0.10552591899E+04  0.00000000000E+00 0. -1.
          2   -1    0    0  501    0  0.00000000000E+00 -0.00000000000E+00 -0.12441482803E+04  0.12441482803E+04  0.00000000000E+00 0.  1.
    2000013    1    1    2    0    0 -0.26998239241E+03  0.50705466714E+03 -0.37896210069E+03  0.11730759572E+04  0.95000000000E+03 0.  0.
   -2000013    1    1    2    0    0  0.26998239241E+03 -0.50705466714E+03  0.19007301032E+03  0.11263315129E+04  0.95000000000E+03 0.  0.
<mgrwt>
<rscale>  0 0.22916360E+04</rscale>
<asrwt>0</asrwt>
<pdfrwt beam="2">  1        2 0.19140743E+00 0.22916360E+04</pdfrwt>
<pdfrwt beam="1">  1       -2 0.16234757E+00 0.22916360E+04</pdfrwt>
<totfact> 0.39156867E+00</totfact>
</mgrwt>
</event>
<event>
 4    1  0.2048914E-008  0.4111780E+04  0.7816531E-02  0.7982369E-01
         -2   -1    0    0    0  501 -0.00000000000E+00  0.00000000000E+00  0.98309449015E+03  0.98309449015E+03  0.00000000000E+00 0. -1.
          2   -1    0    0  501    0  0.00000000000E+00 -0.00000000000E+00 -0.42993675643E+04  0.42993675643E+04  0.00000000000E+00 0.  1.
    2000013    1    1    2    0    0 -0.18057297903E+04  0.14388699251E+03 -0.13922875672E+04  0.24743338926E+04  0.95000000000E+03 0.  0.
   -2000013    1    1    2    0    0  0.18057297903E+04 -0.14388699251E+03 -0.19239855070E+04  0.28081281618E+04  0.95000000000E+03 0.  0.
<mgrwt>
<rscale>  0 0.41117804E+04</rscale>
<asrwt>0</asrwt>
<pdfrwt beam="2">  1        2 0.66144117E+00 0.41117804E+04</pdfrwt>
<pdfrwt beam="1">  1       -2 0.15124531E+00 0.41117804E+04</pdfrwt>
<totfact> 0.43271491E-02</totfact>
</mgrwt>
</event>
<event>
 4    1  0.2048914E-008  0.2129737E+04  0.7816531E-02  0.8548256E-01
          2   -1    0    0  501    0  0.00000000000E+00  0.00000000000E+00  0.85030157904E+03  0.85030157904E+03  0.00000000000E+00 0.  1.
         -2   -1    0    0    0  501 -0.00000000000E+00 -0.00000000000E+00 -0.13335800184E+04  0.13335800184E+04  0.00000000000E+00 0. -1.
    2000013    1    1    2    0    0 -0.34477748081E+03  0.16248841664E+03 -0.54265144001E+03  0.11585527965E+04  0.95000000000E+03 0.  0.
   -2000013    1    1    2    0    0  0.34477748081E+03 -0.16248841664E+03  0.59373000696E+02  0.10253288009E+04  0.95000000000E+03 0.  0.
<mgrwt>
<rscale>  0 0.21297373E+04</rscale>
<asrwt>0</asrwt>
<pdfrwt beam="1">  1        2 0.13081563E+00 0.21297373E+04</pdfrwt>
<pdfrwt beam="2">  1       -2 0.20516616E+00 0.21297373E+04</pdfrwt>
<totfact> 0.35872161E+00</totfact>
</mgrwt>
</event>
<event>
 4    1  0.2048914E-008  0.3796577E+04  0.7816531E-02  0.8046890E-01
          2   -1    0    0  501    0  0.00000000000E+00  0.00000000000E+00  0.14823133672E+04  0.14823133672E+04  0.00000000000E+00 0.  1.
         -2   -1    0    0    0  501 -0.00000000000E+00 -0.00000000000E+00 -0.24309970536E+04  0.24309970536E+04  0.00000000000E+00 0. -1.
    2000013    1    1    2    0    0 -0.95261100585E+03  0.13390190351E+04 -0.49872774330E+03  0.19625669585E+04  0.95000000000E+03 0.  0.
   -2000013    1    1    2    0    0  0.95261100585E+03 -0.13390190351E+04 -0.44995594308E+03  0.19507434622E+04  0.95000000000E+03 0.  0.
<mgrwt>
<rscale>  0 0.37965771E+04</rscale>
<asrwt>0</asrwt>
<pdfrwt beam="1">  1        2 0.22804821E+00 0.37965771E+04</pdfrwt>
<pdfrwt beam="2">  1       -2 0.37399954E+00 0.37965771E+04</pdfrwt>
<totfact> 0.11395670E-01</totfact>
</mgrwt>
</event>
<event>
 4    1  0.2048914E-008  0.2116781E+04  0.7816531E-02  0.8553887E-01
         -2   -1    0    0    0  501 -0.00000000000E+00  0.00000000000E+00  0.76573422653E+03  0.76573422653E+03  0.00000000000E+00 0. -1.
          2   -1    0    0  501    0  0.00000000000E+00 -0.00000000000E+00 -0.14628972414E+04  0.14628972414E+04  0.00000000000E+00 0.  1.
    2000013    1    1    2    0    0  0.13093415362E+03  0.35543003834E+03 -0.61759978558E+02  0.10245918991E+04  0.95000000000E+03 0.  0.
   -2000013    1    1    2    0    0 -0.13093415362E+03 -0.35543003834E+03 -0.63540303631E+03  0.12040395688E+04  0.95000000000E+03 0.  0.
<mgrwt>
<rscale>  0 0.21167810E+04</rscale>
<asrwt>0</asrwt>
<pdfrwt beam="2">  1        2 0.22506111E+00 0.21167810E+04</pdfrwt>
<pdfrwt beam="1">  1       -2 0.11780527E+00 0.21167810E+04</pdfrwt>
<totfact> 0.68165106E+00</totfact>
</mgrwt>
</event>
<event>
 4    1  0.2048914E-008  0.2551197E+04  0.7816531E-02  0.8384970E-01
         -1   -1    0    0    0  501 -0.00000000000E+00  0.00000000000E+00  0.87171235104E+03  0.87171235104E+03  0.00000000000E+00 0. -1.
          1   -1    0    0  501    0  0.00000000000E+00 -0.00000000000E+00 -0.18666150182E+04  0.18666150182E+04  0.00000000000E+00 0.  1.
    2000013    1    1    2    0    0  0.31088035136E+03 -0.74341383011E+03 -0.20283550486E+03  0.12621224020E+04  0.95000000000E+03 0.  0.
   -2000013    1    1    2    0    0 -0.31088035136E+03  0.74341383011E+03 -0.79206716232E+03  0.14762049672E+04  0.95000000000E+03 0.  0.
<mgrwt>
<rscale>  0 0.25511969E+04</rscale>
<asrwt>0</asrwt>
<pdfrwt beam="2">  1        1 0.28717154E+00 0.25511969E+04</pdfrwt>
<pdfrwt beam="1">  1       -1 0.13410959E+00 0.25511969E+04</pdfrwt>
<totfact> 0.15210158E+00</totfact>
</mgrwt>
</event>
<event>
 4    1  0.2048914E-008  0.2026438E+04  0.7816531E-02  0.8594359E-01
         -2   -1    0    0    0  501 -0.00000000000E+00  0.00000000000E+00  0.58425645355E+03  0.58425645355E+03  0.00000000000E+00 0.  1.
          2   -1    0    0  501    0  0.00000000000E+00 -0.00000000000E+00 -0.17571265980E+04  0.17571265980E+04  0.00000000000E+00 0. -1.
    2000013    1    1    2    0    0  0.33040868292E+03 -0.57861302042E+02 -0.46202101740E+03  0.11083687331E+04  0.95000000000E+03 0.  0.
   -2000013    1    1    2    0    0 -0.33040868292E+03  0.57861302042E+02 -0.71084912703E+03  0.12330143184E+04  0.95000000000E+03 0.  0.
<mgrwt>
<rscale>  0 0.20264378E+04</rscale>
<asrwt>0</asrwt>
<pdfrwt beam="2">  1        2 0.27032716E+00 0.20264378E+04</pdfrwt>
<pdfrwt beam="1">  1       -2 0.89885610E-01 0.20264378E+04</pdfrwt>
<totfact> 0.89565189E+00</totfact>
</mgrwt>
</event>
<event>
 4    1  0.2048914E-008  0.2147765E+04  0.7816531E-02  0.8540489E-01
         -2   -1    0    0    0  501 -0.00000000000E+00  0.00000000000E+00  0.49117170456E+03  0.49117170456E+03  0.00000000000E+00 0. -1.
          2   -1    0    0  501    0  0.00000000000E+00 -0.00000000000E+00 -0.23479038498E+04  0.23479038498E+04  0.00000000000E+00 0.  1.
    2000013    1    1    2    0    0  0.14291699091E+03 -0.35981418274E+03 -0.50861652789E+03  0.11450250149E+04  0.95000000000E+03 0.  0.
   -2000013    1    1    2    0    0 -0.14291699091E+03  0.35981418274E+03 -0.13481156173E+04  0.16940505394E+04  0.95000000000E+03 0.  0.
<mgrwt>
<rscale>  0 0.21477653E+04</rscale>
<asrwt>0</asrwt>
<pdfrwt beam="2">  1        2 0.36121598E+00 0.21477653E+04</pdfrwt>
<pdfrwt beam="1">  1       -2 0.75564878E-01 0.21477653E+04</pdfrwt>
<totfact> 0.61380125E+00</totfact>
</mgrwt>
</event>
<event>
 4    1  0.2048914E-008  0.3199228E+04  0.7816531E-02  0.8189021E-01
         -2   -1    0    0    0  501 -0.00000000000E+00  0.00000000000E+00  0.94990045043E+03  0.94990045043E+03  0.00000000000E+00 0. -1.
          2   -1    0    0  501    0  0.00000000000E+00 -0.00000000000E+00 -0.26937188850E+04  0.26937188850E+04  0.00000000000E+00 0.  1.
    2000013    1    1    2    0    0  0.11946081871E+04 -0.43588850211E+03 -0.10973356999E+04  0.19296976823E+04  0.95000000000E+03 0.  0.
   -2000013    1    1    2    0    0 -0.11946081871E+04  0.43588850211E+03 -0.64648273472E+03  0.17139216531E+04  0.95000000000E+03 0.  0.
<mgrwt>
<rscale>  0 0.31992279E+04</rscale>
<asrwt>0</asrwt>
<pdfrwt beam="2">  1        2 0.41441829E+00 0.31992279E+04</pdfrwt>
<pdfrwt beam="1">  1       -2 0.14613853E+00 0.31992279E+04</pdfrwt>
<totfact> 0.72378716E-01</totfact>
</mgrwt>
</event>
<event>
 4    1  0.2048914E-008  0.2768700E+04  0.7816531E-02  0.8313052E-01
          2   -1    0    0  501    0  0.00000000000E+00  0.00000000000E+00  0.21184047985E+04  0.21184047985E+04  0.00000000000E+00 0.  1.
         -2   -1    0    0    0  501 -0.00000000000E+00 -0.00000000000E+00 -0.90465492948E+03  0.90465492948E+03  0.00000000000E+00 0. -1.
    2000013    1    1    2    0    0 -0.49636227333E+03  0.26868657136E+03  0.15173641550E+04  0.18770886923E+04  0.95000000000E+03 0.  0.
   -2000013    1    1    2    0    0  0.49636227333E+03 -0.26868657136E+03 -0.30361428593E+03  0.11459710357E+04  0.95000000000E+03 0.  0.
<mgrwt>
<rscale>  0 0.27687003E+04</rscale>
<asrwt>0</asrwt>
<pdfrwt beam="1">  1        2 0.32590843E+00 0.27687003E+04</pdfrwt>
<pdfrwt beam="2">  1       -2 0.13917768E+00 0.27687003E+04</pdfrwt>
<totfact> 0.18256604E+00</totfact>
</mgrwt>
</event>
<event>
 4    1  0.2048914E-008  0.3717994E+04  0.7816531E-02  0.8063986E-01
         -2   -1    0    0    0  501 -0.00000000000E+00  0.00000000000E+00  0.16821062675E+04  0.16821062675E+04  0.00000000000E+00 0. -1.
          2   -1    0    0  501    0  0.00000000000E+00 -0.00000000000E+00 -0.20544891837E+04  0.20544891837E+04  0.00000000000E+00 0.  1.
    2000013    1    1    2    0    0 -0.13007087899E+03  0.15529451043E+04 -0.54124672826E+03  0.19036819460E+04  0.95000000000E+03 0.  0.
   -2000013    1    1    2    0    0  0.13007087899E+03 -0.15529451043E+04  0.16886381202E+03  0.18329135052E+04  0.95000000000E+03 0.  0.
<mgrwt>
<rscale>  0 0.37179936E+04</rscale>
<asrwt>0</asrwt>
<pdfrwt beam="2">  1        2 0.31607526E+00 0.37179936E+04</pdfrwt>
<pdfrwt beam="1">  1       -2 0.25878558E+00 0.37179936E+04</pdfrwt>
<totfact> 0.28544554E-01</totfact>
</mgrwt>
</event>
<event>
 4    1  0.2048914E-008  0.3292522E+04  0.7816531E-02  0.8164801E-01
          2   -1    0    0  501    0  0.00000000000E+00  0.00000000000E+00  0.29226005288E+04  0.29226005288E+04  0.00000000000E+00 0. -1.
         -2   -1    0    0    0  501 -0.00000000000E+00 -0.00000000000E+00 -0.92731649167E+03  0.92731649167E+03  0.00000000000E+00 0.  1.
    2000013    1    1    2    0    0  0.35867835389E+03 -0.11239274292E+04  0.24364175699E+03  0.15341852344E+04  0.95000000000E+03 0.  0.
   -2000013    1    1    2    0    0 -0.35867835389E+03  0.11239274292E+04  0.17516422801E+04  0.23157317861E+04  0.95000000000E+03 0.  0.
<mgrwt>
<rscale>  0 0.32925222E+04</rscale>
<asrwt>0</asrwt>
<pdfrwt beam="1">  1        2 0.44963085E+00 0.32925222E+04</pdfrwt>
<pdfrwt beam="2">  1       -2 0.14266408E+00 0.32925222E+04</pdfrwt>
<totfact> 0.55560548E-01</totfact>
</mgrwt>
</event>
<event>
 4    1  0.2048914E-008  0.3186029E+04  0.7816531E-02  0.8192517E-01
          2   -1    0    0  501    0  0.00000000000E+00  0.00000000000E+00  0.12785122986E+04  0.12785122986E+04  0.00000000000E+00 0.  1.
         -2   -1    0    0    0  501 -0.00000000000E+00 -0.00000000000E+00 -0.19848807473E+04  0.19848807473E+04  0.00000000000E+00 0. -1.
    2000013    1    1    2    0    0 -0.34748134797E+03  0.86572870369E+03  0.54267650150E+03  0.14377855406E+04  0.95000000000E+03 0.  0.
   -2000013    1    1    2    0    0  0.34748134797E+03 -0.86572870369E+03 -0.12490449502E+04  0.18256075052E+04  0.95000000000E+03 0.  0.
<mgrwt>
<rscale>  0 0.31860285E+04</rscale>
<asrwt>0</asrwt>
<pdfrwt beam="1">  1        2 0.19669420E+00 0.31860285E+04</pdfrwt>
<pdfrwt beam="2">  1       -2 0.30536627E+00 0.31860285E+04</pdfrwt>
<totfact> 0.42264688E-01</totfact>
</mgrwt>
</event>
<event>
 4    1  0.2048914E-008  0.2195892E+04  0.7816531E-02  0.8520140E-01
          2   -1    0    0  501    0  0.00000000000E+00  0.00000000000E+00  0.12356768654E+04  0.12356768654E+04  0.00000000000E+00 0. -1.
         -2   -1    0    0    0  501 -0.00000000000E+00 -0.00000000000E+00 -0.97556689102E+03  0.97556689102E+03  0.00000000000E+00 0.  1.
    2000013    1    1    2    0    0  0.79056958544E+02  0.50070420196E+03 -0.85992692084E+02  0.10802080557E+04  0.95000000000E+03 0.  0.
   -2000013    1    1    2    0    0 -0.79056958544E+02 -0.50070420196E+03  0.34610266649E+03  0.11310357007E+04  0.95000000000E+03 0.  0.
<mgrwt>
<rscale>  0 0.21958920E+04</rscale>
<asrwt>0</asrwt>
<pdfrwt beam="1">  1        2 0.19010413E+00 0.21958920E+04</pdfrwt>
<pdfrwt beam="2">  1       -2 0.15008721E+00 0.21958920E+04</pdfrwt>
<totfact> 0.49340463E+00</totfact>
</mgrwt>
</event>
<event>
 4    1  0.2048914E-008  0.2275183E+04  0.7816531E-02  0.8487771E-01
          2   -1    0    0  501    0  0.00000000000E+00  0.00000000000E+00  0.21083893787E+04  0.21083893787E+04  0.00000000000E+00 0.  1.
         -2   -1    0    0    0  501 -0.00000000000E+00 -0.00000000000E+00 -0.61379269690E+03  0.61379269690E+03  0.00000000000E+00 0. -1.
    2000013    1    1    2    0    0 -0.45103156512E+03 -0.37707371179E+03  0.10039118804E+04  0.15019830626E+04  0.95000000000E+03 0.  0.
   -2000013    1    1    2    0    0  0.45103156512E+03  0.37707371179E+03  0.49068480140E+03  0.12201990129E+04  0.95000000000E+03 0.  0.
<mgrwt>
<rscale>  0 0.22751826E+04</rscale>
<asrwt>0</asrwt>
<pdfrwt beam="1">  1        2 0.32436759E+00 0.22751826E+04</pdfrwt>
<pdfrwt beam="2">  1       -2 0.94429647E-01 0.22751826E+04</pdfrwt>
<totfact> 0.49907313E+00</totfact>
</mgrwt>
</event>
<event>
 4    1  0.2048914E-008  0.2679200E+04  0.7816531E-02  0.8341786E-01
         -2   -1    0    0    0  501 -0.00000000000E+00  0.00000000000E+00  0.68011167925E+03  0.68011167925E+03  0.00000000000E+00 0. -1.
          2   -1    0    0  501    0  0.00000000000E+00 -0.00000000000E+00 -0.26385783716E+04  0.26385783716E+04  0.00000000000E+00 0.  1.
    2000013    1    1    2    0    0 -0.37337660123E+03 -0.56973750353E+03 -0.16884698939E+03  0.11811097388E+04  0.95000000000E+03 0.  0.
   -2000013    1    1    2    0    0  0.37337660123E+03  0.56973750353E+03 -0.17896197030E+04  0.21375803121E+04  0.95000000000E+03 0.  0.
<mgrwt>
<rscale>  0 0.26791999E+04</rscale>
<asrwt>0</asrwt>
<pdfrwt beam="2">  1        2 0.40593514E+00 0.26791999E+04</pdfrwt>
<pdfrwt beam="1">  1       -2 0.10463257E+00 0.26791999E+04</pdfrwt>
<totfact> 0.18808641E+00</totfact>
</mgrwt>
</event>
<event>
 4    1  0.2048914E-008  0.2285992E+04  0.7816531E-02  0.8483465E-01
         -2   -1    0    0    0  501 -0.00000000000E+00  0.00000000000E+00  0.15617449638E+04  0.15617449638E+04  0.00000000000E+00 0. -1.
          2   -1    0    0  501    0  0.00000000000E+00 -0.00000000000E+00 -0.83652588018E+03  0.83652588018E+03  0.00000000000E+00 0.  1.
    2000013    1    1    2    0    0  0.26560388510E+03 -0.55922737612E+03  0.51340293738E+03  0.12447342118E+04  0.95000000000E+03 0.  0.
   -2000013    1    1    2    0    0 -0.26560388510E+03  0.55922737612E+03  0.21181614629E+03  0.11535366322E+04  0.95000000000E+03 0.  0.
<mgrwt>
<rscale>  0 0.22859922E+04</rscale>
<asrwt>0</asrwt>
<pdfrwt beam="2">  1        2 0.12869629E+00 0.22859922E+04</pdfrwt>
<pdfrwt beam="1">  1       -2 0.24026846E+00 0.22859922E+04</pdfrwt>
<totfact> 0.21720670E+00</totfact>
</mgrwt>
</event>
<event>
 4    1  0.2048914E-008  0.3598391E+04  0.7816531E-02  0.8090860E-01
         -2   -1    0    0    0  501 -0.00000000000E+00  0.00000000000E+00  0.94372340240E+03  0.94372340240E+03  0.00000000000E+00 0. -1.
          2   -1    0    0  501    0  0.00000000000E+00 -0.00000000000E+00 -0.34301417412E+04  0.34301417412E+04  0.00000000000E+00 0.  1.
    2000013    1    1    2    0    0 -0.11735840499E+04 -0.94099976339E+03 -0.15689668673E+04  0.23721165881E+04  0.95000000000E+03 0.  0.
   -2000013    1    1    2    0    0  0.11735840499E+04  0.94099976339E+03 -0.91745147159E+03  0.20017485556E+04  0.95000000000E+03 0.  0.
<mgrwt>
<rscale>  0 0.35983913E+04</rscale>
<asrwt>0</asrwt>
<pdfrwt beam="2">  1        2 0.52771411E+00 0.35983913E+04</pdfrwt>
<pdfrwt beam="1">  1       -2 0.14518822E+00 0.35983913E+04</pdfrwt>
<totfact> 0.24162085E-01</totfact>
</mgrwt>
</event>
<event>
 4    1  0.2048914E-008  0.2725226E+04  0.7816531E-02  0.8326866E-01
          2   -1    0    0  501    0  0.00000000000E+00  0.00000000000E+00  0.34015374428E+04  0.34015374428E+04  0.00000000000E+00 0.  1.
         -2   -1    0    0    0  501 -0.00000000000E+00 -0.00000000000E+00 -0.54584574422E+03  0.54584574422E+03  0.00000000000E+00 0. -1.
    2000013    1    1    2    0    0  0.19708233158E+03 -0.94902983464E+03  0.12521357850E+04  0.18465760468E+04  0.95000000000E+03 0.  0.
   -2000013    1    1    2    0    0 -0.19708233158E+03  0.94902983464E+03  0.16035559136E+04  0.21008071402E+04  0.95000000000E+03 0.  0.
<mgrwt>
<rscale>  0 0.27252264E+04</rscale>
<asrwt>0</asrwt>
<pdfrwt beam="1">  1        2 0.52331344E+00 0.27252264E+04</pdfrwt>
<pdfrwt beam="2">  1       -2 0.83976270E-01 0.27252264E+04</pdfrwt>
<totfact> 0.10313348E+00</totfact>
</mgrwt>
</event>
<event>
 4    1  0.2048914E-008  0.2084563E+04  0.7816531E-02  0.8568074E-01
          2   -1    0    0  501    0  0.00000000000E+00  0.00000000000E+00  0.23457118419E+04  0.23457118419E+04  0.00000000000E+00 0.  1.
         -2   -1    0    0    0  501 -0.00000000000E+00 -0.00000000000E+00 -0.46312192896E+03  0.46312192896E+03  0.00000000000E+00 0. -1.
    2000013    1    1    2    0    0 -0.15669803928E+03  0.37776726923E+03  0.76775048905E+03  0.12881006167E+04  0.95000000000E+03 0.  0.
   -2000013    1    1    2    0    0  0.15669803928E+03 -0.37776726923E+03  0.11148394239E+04  0.15207331542E+04  0.95000000000E+03 0.  0.
<mgrwt>
<rscale>  0 0.20845629E+04</rscale>
<asrwt>0</asrwt>
<pdfrwt beam="1">  1        2 0.36087874E+00 0.20845629E+04</pdfrwt>
<pdfrwt beam="2">  1       -2 0.71249529E-01 0.20845629E+04</pdfrwt>
<totfact> 0.70463901E+00</totfact>
</mgrwt>
</event>
<event>
 4    1  0.2048914E-008  0.2581982E+04  0.7816531E-02  0.8374347E-01
          1   -1    0    0  501    0  0.00000000000E+00  0.00000000000E+00  0.23380190414E+04  0.23380190414E+04  0.00000000000E+00 0.  1.
         -1   -1    0    0    0  501 -0.00000000000E+00 -0.00000000000E+00 -0.71285032165E+03  0.71285032165E+03  0.00000000000E+00 0. -1.
    2000013    1    1    2    0    0 -0.85168290220E+03 -0.19318350213E+03  0.85794908883E+03  0.15496000356E+04  0.95000000000E+03 0.  0.
   -2000013    1    1    2    0    0  0.85168290220E+03  0.19318350213E+03  0.76721963092E+03  0.15012693274E+04  0.95000000000E+03 0.  0.
<mgrwt>
<rscale>  0 0.25819819E+04</rscale>
<asrwt>0</asrwt>
<pdfrwt beam="1">  1        1 0.35969524E+00 0.25819819E+04</pdfrwt>
<pdfrwt beam="2">  1       -1 0.10966928E+00 0.25819819E+04</pdfrwt>
<totfact> 0.11879439E+00</totfact>
</mgrwt>
</event>
<event>
 4    1  0.2048914E-008  0.3153720E+04  0.7816531E-02  0.8201148E-01
          2   -1    0    0  501    0  0.00000000000E+00  0.00000000000E+00  0.15793050227E+04  0.15793050227E+04  0.00000000000E+00 0.  1.
         -2   -1    0    0    0  501 -0.00000000000E+00 -0.00000000000E+00 -0.15744192003E+04  0.15744192003E+04  0.00000000000E+00 0. -1.
    2000013    1    1    2    0    0  0.33410010051E+03  0.68374076678E+03 -0.99998726059E+03  0.15753091235E+04  0.95000000000E+03 0.  0.
   -2000013    1    1    2    0    0 -0.33410010051E+03 -0.68374076678E+03  0.10048730830E+04  0.15784150995E+04  0.95000000000E+03 0.  0.
<mgrwt>
<rscale>  0 0.31537204E+04</rscale>
<asrwt>0</asrwt>
<pdfrwt beam="1">  1        2 0.24297000E+00 0.31537204E+04</pdfrwt>
<pdfrwt beam="2">  1       -2 0.24221834E+00 0.31537204E+04</pdfrwt>
<totfact> 0.69487834E-01</totfact>
</mgrwt>
</event>
<event>
 4    1  0.2048914E-008  0.2467029E+04  0.7816531E-02  0.8414827E-01
         -3   -1    0    0    0  501 -0.00000000000E+00  0.00000000000E+00  0.20011443619E+04  0.20011443619E+04  0.00000000000E+00 0. -1.
          3   -1    0    0  501    0  0.00000000000E+00 -0.00000000000E+00 -0.76034371105E+03  0.76034371105E+03  0.00000000000E+00 0.  1.
    2000013    1    1    2    0    0 -0.61866482727E+03  0.34831111075E+02  0.11631425349E+04  0.16246107015E+04  0.95000000000E+03 0.  0.
   -2000013    1    1    2    0    0  0.61866482727E+03 -0.34831111075E+02  0.77658115922E+02  0.11368773715E+04  0.95000000000E+03 0.  0.
<mgrwt>
<rscale>  0 0.24670286E+04</rscale>
<asrwt>0</asrwt>
<pdfrwt beam="2">  1        3 0.11697596E+00 0.24670286E+04</pdfrwt>
<pdfrwt beam="1">  1       -3 0.30786836E+00 0.24670286E+04</pdfrwt>
<totfact> 0.48219500E-02</totfact>
</mgrwt>
</event>
<event>
 4    1  0.2048914E-008  0.2899045E+04  0.7816531E-02  0.8273162E-01
          2   -1    0    0  501    0  0.00000000000E+00  0.00000000000E+00  0.16306390601E+04  0.16306390601E+04  0.00000000000E+00 0.  1.
         -2   -1    0    0    0  501 -0.00000000000E+00 -0.00000000000E+00 -0.12885228449E+04  0.12885228449E+04  0.00000000000E+00 0. -1.
    2000013    1    1    2    0    0 -0.66043709441E+03 -0.75460472738E+03  0.61343595388E+03  0.15114261873E+04  0.95000000000E+03 0.  0.
   -2000013    1    1    2    0    0  0.66043709441E+03  0.75460472738E+03 -0.27131973868E+03  0.14077357177E+04  0.95000000000E+03 0.  0.
<mgrwt>
<rscale>  0 0.28990451E+04</rscale>
<asrwt>0</asrwt>
<pdfrwt beam="1">  1        2 0.25086755E+00 0.28990451E+04</pdfrwt>
<pdfrwt beam="2">  1       -2 0.19823429E+00 0.28990451E+04</pdfrwt>
<totfact> 0.12642127E+00</totfact>
</mgrwt>
</event>
<event>
 4    1  0.2048914E-008  0.3584490E+04  0.7816531E-02  0.8094054E-01
          2   -1    0    0  501    0  0.00000000000E+00  0.00000000000E+00  0.10207852859E+04  0.10207852859E+04  0.00000000000E+00 0.  1.
         -2   -1    0    0    0  501 -0.00000000000E+00 -0.00000000000E+00 -0.31467365715E+04  0.31467365715E+04  0.00000000000E+00 0. -1.
    2000013    1    1    2    0    0 -0.13324477900E+04 -0.27456003006E+03 -0.18505328498E+04  0.24855124525E+04  0.95000000000E+03 0.  0.
   -2000013    1    1    2    0    0  0.13324477900E+04  0.27456003006E+03 -0.27541843580E+03  0.16820094049E+04  0.95000000000E+03 0.  0.
<mgrwt>
<rscale>  0 0.35844901E+04</rscale>
<asrwt>0</asrwt>
<pdfrwt beam="1">  1        2 0.15704389E+00 0.35844901E+04</pdfrwt>
<pdfrwt beam="2">  1       -2 0.48411331E+00 0.35844901E+04</pdfrwt>
<totfact> 0.41386715E-02</totfact>
</mgrwt>
</event>
<event>
 4    1  0.2048914E-008  0.2065779E+04  0.7816531E-02  0.8576470E-01
         -2   -1    0    0    0  501 -0.00000000000E+00  0.00000000000E+00  0.67885837471E+03  0.67885837471E+03  0.00000000000E+00 0. -1.
          2   -1    0    0  501    0  0.00000000000E+00 -0.00000000000E+00 -0.15715516662E+04  0.15715516662E+04  0.00000000000E+00 0.  1.
    2000013    1    1    2    0    0 -0.17586623915E+03  0.34187224615E+03 -0.30617888197E+03  0.10696032323E+04  0.95000000000E+03 0.  0.
   -2000013    1    1    2    0    0  0.17586623915E+03 -0.34187224615E+03 -0.58651440956E+03  0.11808068087E+04  0.95000000000E+03 0.  0.
<mgrwt>
<rscale>  0 0.20657793E+04</rscale>
<asrwt>0</asrwt>
<pdfrwt beam="2">  1        2 0.24177718E+00 0.20657793E+04</pdfrwt>
<pdfrwt beam="1">  1       -2 0.10443975E+00 0.20657793E+04</pdfrwt>
<totfact> 0.79613577E+00</totfact>
</mgrwt>
</event>
<event>
 4    1  0.2048914E-008  0.2286308E+04  0.7816531E-02  0.8483339E-01
         -2   -1    0    0    0  501 -0.00000000000E+00  0.00000000000E+00  0.15730282355E+04  0.15730282355E+04  0.00000000000E+00 0. -1.
          2   -1    0    0  501    0  0.00000000000E+00 -0.00000000000E+00 -0.83075507111E+03  0.83075507111E+03  0.00000000000E+00 0.  1.
    2000013    1    1    2    0    0  0.51499267292E+03 -0.66145584429E+02 -0.14748551001E+02  0.10827327515E+04  0.95000000000E+03 0.  0.
   -2000013    1    1    2    0    0 -0.51499267292E+03  0.66145584429E+02  0.75702171544E+03  0.13210505551E+04  0.95000000000E+03 0.  0.
<mgrwt>
<rscale>  0 0.22863081E+04</rscale>
<asrwt>0</asrwt>
<pdfrwt beam="2">  1        2 0.12780847E+00 0.22863081E+04</pdfrwt>
<pdfrwt beam="1">  1       -2 0.24200434E+00 0.22863081E+04</pdfrwt>
<totfact> 0.21389469E+00</totfact>
</mgrwt>
</event>
<event>
 4    1  0.2048914E-008  0.2873676E+04  0.7816531E-02  0.8280753E-01
          1   -1    0    0  501    0  0.00000000000E+00  0.00000000000E+00  0.22038628021E+04  0.22038628021E+04  0.00000000000E+00 0.  1.
         -1   -1    0    0    0  501 -0.00000000000E+00 -0.00000000000E+00 -0.93676576426E+03  0.93676576426E+03  0.00000000000E+00 0. -1.
    2000013    1    1    2    0    0 -0.53523019284E+03 -0.80211258219E+03  0.11601239444E+04  0.17827628895E+04  0.95000000000E+03 0.  0.
   -2000013    1    1    2    0    0  0.53523019284E+03  0.80211258219E+03  0.10697309353E+03  0.13578656769E+04  0.95000000000E+03 0.  0.
<mgrwt>
<rscale>  0 0.28736758E+04</rscale>
<asrwt>0</asrwt>
<pdfrwt beam="1">  1        1 0.33905581E+00 0.28736758E+04</pdfrwt>
<pdfrwt beam="2">  1       -1 0.14411781E+00 0.28736758E+04</pdfrwt>
<totfact> 0.72323693E-01</totfact>
</mgrwt>
</event>
<event>
 4    1  0.2048914E-008  0.2109130E+04  0.7816531E-02  0.8557232E-01
         -2   -1    0    0    0  501 -0.00000000000E+00  0.00000000000E+00  0.74770291047E+03  0.74770291047E+03  0.00000000000E+00 0. -1.
          2   -1    0    0  501    0  0.00000000000E+00 -0.00000000000E+00 -0.14873646867E+04  0.14873646867E+04  0.00000000000E+00 0.  1.
    2000013    1    1    2    0    0  0.39594652210E+03 -0.17298919941E+03 -0.20943954448E+03  0.10644547122E+04  0.95000000000E+03 0.  0.
   -2000013    1    1    2    0    0 -0.39594652210E+03  0.17298919941E+03 -0.53022223174E+03  0.11706128850E+04  0.95000000000E+03 0.  0.
<mgrwt>
<rscale>  0 0.21091296E+04</rscale>
<asrwt>0</asrwt>
<pdfrwt beam="2">  1        2 0.22882533E+00 0.21091296E+04</pdfrwt>
<pdfrwt beam="1">  1       -2 0.11503122E+00 0.21091296E+04</pdfrwt>
<totfact> 0.70034056E+00</totfact>
</mgrwt>
</event>
<event>
 4    1  0.2048914E-008  0.2180140E+04  0.7816531E-02  0.8526740E-01
          1   -1    0    0  501    0  0.00000000000E+00  0.00000000000E+00  0.18348492483E+04  0.18348492483E+04  0.00000000000E+00 0.  1.
         -1   -1    0    0    0  501 -0.00000000000E+00 -0.00000000000E+00 -0.64760204928E+03  0.64760204928E+03  0.00000000000E+00 0. -1.
    2000013    1    1    2    0    0 -0.15098559457E+03 -0.22282995521E+03  0.11195127410E+04  0.14927352800E+04  0.95000000000E+03 0.  0.
   -2000013    1    1    2    0    0  0.15098559457E+03  0.22282995521E+03  0.67734457987E+02  0.98971601761E+03  0.95000000000E+03 0.  0.
<mgrwt>
<rscale>  0 0.21801396E+04</rscale>
<asrwt>0</asrwt>
<pdfrwt beam="1">  1        1 0.28228450E+00 0.21801396E+04</pdfrwt>
<pdfrwt beam="2">  1       -1 0.99631085E-01 0.21801396E+04</pdfrwt>
<totfact> 0.33861869E+00</totfact>
</mgrwt>
</event>
<event>
 4    1  0.2048914E-008  0.2542706E+04  0.7816531E-02  0.8387927E-01
          1   -1    0    0  501    0  0.00000000000E+00  0.00000000000E+00  0.18912618858E+04  0.18912618858E+04  0.00000000000E+00 0.  1.
         -1   -1    0    0    0  501 -0.00000000000E+00 -0.00000000000E+00 -0.85463488445E+03  0.85463488445E+03  0.00000000000E+00 0. -1.
    2000013    1    1    2    0    0 -0.24287303791E+03  0.80504509482E+03  0.42956696169E+03  0.13394449193E+04  0.95000000000E+03 0.  0.
   -2000013    1    1    2    0    0  0.24287303791E+03 -0.80504509482E+03  0.60706003962E+03  0.14064518509E+04  0.95000000000E+03 0.  0.
<mgrwt>
<rscale>  0 0.25427059E+04</rscale>
<asrwt>0</asrwt>
<pdfrwt beam="1">  1        1 0.29096337E+00 0.25427059E+04</pdfrwt>
<pdfrwt beam="2">  1       -1 0.13148229E+00 0.25427059E+04</pdfrwt>
<totfact> 0.15403796E+00</totfact>
</mgrwt>
</event>
<event>
 4    1  0.2048914E-008  0.2254064E+04  0.7816531E-02  0.8496257E-01
          2   -1    0    0  501    0  0.00000000000E+00  0.00000000000E+00  0.32463334037E+04  0.32463334037E+04  0.00000000000E+00 0.  1.
         -2   -1    0    0    0  501 -0.00000000000E+00 -0.00000000000E+00 -0.39127241836E+03  0.39127241836E+03  0.00000000000E+00 0. -1.
    2000013    1    1    2    0    0  0.59301035574E+02  0.52973260668E+03  0.18940481662E+04  0.21849603436E+04  0.95000000000E+03 0.  0.
   -2000013    1    1    2    0    0 -0.59301035574E+02 -0.52973260668E+03  0.96101281913E+03  0.14526454784E+04  0.95000000000E+03 0.  0.
<mgrwt>
<rscale>  0 0.22540636E+04</rscale>
<asrwt>0</asrwt>
<pdfrwt beam="1">  1        2 0.49943589E+00 0.22540636E+04</pdfrwt>
<pdfrwt beam="2">  1       -2 0.60195759E-01 0.22540636E+04</pdfrwt>
<totfact> 0.28352694E+00</totfact>
</mgrwt>
</event>
<event>
 4    1  0.2048914E-008  0.2390797E+04  0.7816531E-02  0.8442957E-01
         -2   -1    0    0    0  501 -0.00000000000E+00  0.00000000000E+00  0.95674790532E+03  0.95674790532E+03  0.00000000000E+00 0. -1.
          2   -1    0    0  501    0  0.00000000000E+00 -0.00000000000E+00 -0.14935776704E+04  0.14935776704E+04  0.00000000000E+00 0.  1.
    2000013    1    1    2    0    0  0.41492245633E+02 -0.67575801899E+03 -0.53588567956E+03  0.12837616477E+04  0.95000000000E+03 0.  0.
   -2000013    1    1    2    0    0 -0.41492245633E+02  0.67575801899E+03 -0.94408550014E+00  0.11665639279E+04  0.95000000000E+03 0.  0.
<mgrwt>
<rscale>  0 0.23907968E+04</rscale>
<asrwt>0</asrwt>
<pdfrwt beam="2">  1        2 0.22978118E+00 0.23907968E+04</pdfrwt>
<pdfrwt beam="1">  1       -2 0.14719199E+00 0.23907968E+04</pdfrwt>
<totfact> 0.36289756E+00</totfact>
</mgrwt>
</event>
<event>
 4    1  0.2048914E-008  0.2411004E+04  0.7816531E-02  0.8435395E-01
          2   -1    0    0  501    0  0.00000000000E+00  0.00000000000E+00  0.15564935808E+04  0.15564935808E+04  0.00000000000E+00 0.  1.
         -2   -1    0    0    0  501 -0.00000000000E+00 -0.00000000000E+00 -0.93365953289E+03  0.93365953289E+03  0.00000000000E+00 0. -1.
    2000013    1    1    2    0    0  0.48122285258E+03  0.24618875001E+03 -0.21375430651E+03  0.11137213467E+04  0.95000000000E+03 0.  0.
   -2000013    1    1    2    0    0 -0.48122285258E+03 -0.24618875001E+03  0.83658835438E+03  0.13764317670E+04  0.95000000000E+03 0.  0.
<mgrwt>
<rscale>  0 0.24110040E+04</rscale>
<asrwt>0</asrwt>
<pdfrwt beam="1">  1        2 0.23946055E+00 0.24110040E+04</pdfrwt>
<pdfrwt beam="2">  1       -2 0.14363993E+00 0.24110040E+04</pdfrwt>
<totfact> 0.35603639E+00</totfact>
</mgrwt>
</event>
<event>
 4    1  0.2048914E-008  0.2470111E+04  0.7816531E-02  0.8413712E-01
         -2   -1    0    0    0  501 -0.00000000000E+00  0.00000000000E+00  0.86211149127E+03  0.86211149127E+03  0.00000000000E+00 0. -1.
          2   -1    0    0  501    0  0.00000000000E+00 -0.00000000000E+00 -0.17693332507E+04  0.17693332507E+04  0.00000000000E+00 0.  1.
    2000013    1    1    2    0    0 -0.52726993230E+03 -0.52700467563E+03 -0.17762454620E+03  0.12205728119E+04  0.95000000000E+03 0.  0.
   -2000013    1    1    2    0    0  0.52726993230E+03  0.52700467563E+03 -0.72959721325E+03  0.14108719301E+04  0.95000000000E+03 0.  0.
<mgrwt>
<rscale>  0 0.24701114E+04</rscale>
<asrwt>0</asrwt>
<pdfrwt beam="2">  1        2 0.27220511E+00 0.24701114E+04</pdfrwt>
<pdfrwt beam="1">  1       -2 0.13263254E+00 0.24701114E+04</pdfrwt>
<totfact> 0.33119087E+00</totfact>
</mgrwt>
</event>
<event>
 4    1  0.2048914E-008  0.3228631E+04  0.7816531E-02  0.8181297E-01
         -2   -1    0    0    0  501 -0.00000000000E+00  0.00000000000E+00  0.13315133150E+04  0.13315133150E+04  0.00000000000E+00 0.  1.
          2   -1    0    0  501    0  0.00000000000E+00 -0.00000000000E+00 -0.19571821293E+04  0.19571821293E+04  0.00000000000E+00 0. -1.
    2000013    1    1    2    0    0 -0.24116462519E+03 -0.12178115036E+04  0.97511020253E+02  0.15662801901E+04  0.95000000000E+03 0.  0.
   -2000013    1    1    2    0    0  0.24116462519E+03  0.12178115036E+04 -0.72317983453E+03  0.17224152542E+04  0.95000000000E+03 0.  0.
<mgrwt>
<rscale>  0 0.32286307E+04</rscale>
<asrwt>0</asrwt>
<pdfrwt beam="2">  1        2 0.30110494E+00 0.32286307E+04</pdfrwt>
<pdfrwt beam="1">  1       -2 0.20484820E+00 0.32286307E+04</pdfrwt>
<totfact> 0.73314260E-01</totfact>
</mgrwt>
</event>
<event>
 4    1  0.2048914E-008  0.2525752E+04  0.7816531E-02  0.8393868E-01
         -2   -1    0    0    0  501 -0.00000000000E+00  0.00000000000E+00  0.74634589910E+03  0.74634589910E+03  0.00000000000E+00 0. -1.
          2   -1    0    0  501    0  0.00000000000E+00 -0.00000000000E+00 -0.21368861428E+04  0.21368861428E+04  0.00000000000E+00 0.  1.
    2000013    1    1    2    0    0  0.29204573979E+03  0.76953504935E+03 -0.55601559685E+03  0.13744556196E+04  0.95000000000E+03 0.  0.
   -2000013    1    1    2    0    0 -0.29204573979E+03 -0.76953504935E+03 -0.83452464686E+03  0.15087764223E+04  0.95000000000E+03 0.  0.
<mgrwt>
<rscale>  0 0.25257523E+04</rscale>
<asrwt>0</asrwt>
<pdfrwt beam="2">  1        2 0.32875171E+00 0.25257523E+04</pdfrwt>
<pdfrwt beam="1">  1       -2 0.11482245E+00 0.25257523E+04</pdfrwt>
<totfact> 0.29512576E+00</totfact>
</mgrwt>
</event>
<event>
 4    1  0.2048914E-008  0.3674191E+04  0.7816531E-02  0.8073706E-01
          2   -1    0    0  501    0  0.00000000000E+00  0.00000000000E+00  0.84484571012E+03  0.84484571012E+03  0.00000000000E+00 0.  1.
         -2   -1    0    0    0  501 -0.00000000000E+00 -0.00000000000E+00 -0.39947164806E+04  0.39947164806E+04  0.00000000000E+00 0. -1.
    2000013    1    1    2    0    0  0.17771519082E+03 -0.88713756539E+03 -0.32688400134E+04  0.35222735246E+04  0.95000000000E+03 0.  0.
   -2000013    1    1    2    0    0 -0.17771519082E+03  0.88713756539E+03  0.11896924297E+03  0.13172886661E+04  0.95000000000E+03 0.  0.
<mgrwt>
<rscale>  0 0.36741906E+04</rscale>
<asrwt>0</asrwt>
<pdfrwt beam="1">  1        2 0.12997626E+00 0.36741906E+04</pdfrwt>
<pdfrwt beam="2">  1       -2 0.61457176E+00 0.36741906E+04</pdfrwt>
<totfact> 0.11519815E-02</totfact>
</mgrwt>
</event>
<event>
 4    1  0.2048914E-008  0.2405930E+04  0.7816531E-02  0.8437287E-01
          1   -1    0    0  501    0  0.00000000000E+00  0.00000000000E+00  0.76309538413E+03  0.76309538413E+03  0.00000000000E+00 0. -1.
         -1   -1    0    0    0  501 -0.00000000000E+00 -0.00000000000E+00 -0.18963880103E+04  0.18963880103E+04  0.00000000000E+00 0.  1.
    2000013    1    1    2    0    0  0.25241660294E+03 -0.68793253755E+03 -0.46990368681E+03  0.12885165084E+04  0.95000000000E+03 0.  0.
   -2000013    1    1    2    0    0 -0.25241660294E+03  0.68793253755E+03 -0.66338893940E+03  0.13709668860E+04  0.95000000000E+03 0.  0.
<mgrwt>
<rscale>  0 0.24059301E+04</rscale>
<asrwt>0</asrwt>
<pdfrwt beam="1">  1        1 0.11739929E+00 0.24059301E+04</pdfrwt>
<pdfrwt beam="2">  1       -1 0.29175200E+00 0.24059301E+04</pdfrwt>
<totfact> 0.79751209E-01</totfact>
</mgrwt>
</event>
<event>
 4    1  0.2048914E-008  0.2085574E+04  0.7816531E-02  0.8567625E-01
          2   -1    0    0  501    0  0.00000000000E+00  0.00000000000E+00  0.11722463489E+04  0.11722463489E+04  0.00000000000E+00 0.  1.
         -2   -1    0    0    0  501 -0.00000000000E+00 -0.00000000000E+00 -0.92762437098E+03  0.92762437098E+03  0.00000000000E+00 0. -1.
    2000013    1    1    2    0    0 -0.16588011798E+03  0.52975810603E+02  0.51817496903E+03  0.10960510702E+04  0.95000000000E+03 0.  0.
   -2000013    1    1    2    0    0  0.16588011798E+03 -0.52975810603E+02 -0.27355299111E+03  0.10038196496E+04  0.95000000000E+03 0.  0.
<mgrwt>
<rscale>  0 0.20855736E+04</rscale>
<asrwt>0</asrwt>
<pdfrwt beam="1">  1        2 0.18034559E+00 0.20855736E+04</pdfrwt>
<pdfrwt beam="2">  1       -2 0.14271144E+00 0.20855736E+04</pdfrwt>
<totfact> 0.62044451E+00</totfact>
</mgrwt>
</event>
<event>
 4    1  0.2048914E-008  0.2452018E+04  0.7816531E-02  0.8420281E-01
         -2   -1    0    0    0  501 -0.00000000000E+00  0.00000000000E+00  0.67053493062E+03  0.67053493062E+03  0.00000000000E+00 0. -1.
          2   -1    0    0  501    0  0.00000000000E+00 -0.00000000000E+00 -0.22416411197E+04  0.22416411197E+04  0.00000000000E+00 0.  1.
    2000013    1    1    2    0    0 -0.66870699629E+03 -0.21828590682E+03 -0.39927730382E+03  0.12476939326E+04  0.95000000000E+03 0.  0.
   -2000013    1    1    2    0    0  0.66870699629E+03  0.21828590682E+03 -0.11718288853E+04  0.16644821178E+04  0.95000000000E+03 0.  0.
<mgrwt>
<rscale>  0 0.24520185E+04</rscale>
<asrwt>0</asrwt>
<pdfrwt beam="2">  1        2 0.34486787E+00 0.24520185E+04</pdfrwt>
<pdfrwt beam="1">  1       -2 0.10315922E+00 0.24520185E+04</pdfrwt>
<totfact> 0.33589838E+00</totfact>
</mgrwt>
</event>
<event>
 4    1  0.2048914E-008  0.3332055E+04  0.7816531E-02  0.8154787E-01
         -2   -1    0    0    0  501 -0.00000000000E+00  0.00000000000E+00  0.15256757588E+04  0.15256757588E+04  0.00000000000E+00 0. -1.
          2   -1    0    0  501    0  0.00000000000E+00 -0.00000000000E+00 -0.18192905021E+04  0.18192905021E+04  0.00000000000E+00 0.  1.
    2000013    1    1    2    0    0 -0.10564113205E+04  0.85109492753E+03 -0.32856130938E+03  0.16884371436E+04  0.95000000000E+03 0.  0.
   -2000013    1    1    2    0    0  0.10564113205E+04 -0.85109492753E+03  0.34946566131E+02  0.16565291173E+04  0.95000000000E+03 0.  0.
<mgrwt>
<rscale>  0 0.33320549E+04</rscale>
<asrwt>0</asrwt>
<pdfrwt beam="2">  1        2 0.27989085E+00 0.33320549E+04</pdfrwt>
<pdfrwt beam="1">  1       -2 0.23471935E+00 0.33320549E+04</pdfrwt>
<totfact> 0.56028995E-01</totfact>
</mgrwt>
</event>
<event>
 4    1  0.2048914E-008  0.2643364E+04  0.7816531E-02  0.8353619E-01
          2   -1    0    0  501    0  0.00000000000E+00  0.00000000000E+00  0.95402783930E+03  0.95402783930E+03  0.00000000000E+00 0.  1.
         -2   -1    0    0    0  501 -0.00000000000E+00 -0.00000000000E+00 -0.18310189781E+04  0.18310189781E+04  0.00000000000E+00 0. -1.
    2000013    1    1    2    0    0  0.34312250197E+03 -0.84708049841E+03 -0.33818394759E+03  0.13609360031E+04  0.95000000000E+03 0.  0.
   -2000013    1    1    2    0    0 -0.34312250197E+03  0.84708049841E+03 -0.53880719122E+03  0.14241108143E+04  0.95000000000E+03 0.  0.
<mgrwt>
<rscale>  0 0.26433638E+04</rscale>
<asrwt>0</asrwt>
<pdfrwt beam="1">  1        2 0.14677351E+00 0.26433638E+04</pdfrwt>
<pdfrwt beam="2">  1       -2 0.28169523E+00 0.26433638E+04</pdfrwt>
<totfact> 0.97803429E-01</totfact>
</mgrwt>
</event>
<event>
 4    1  0.2048914E-008  0.1958387E+04  0.7816531E-02  0.8626327E-01
          1   -1    0    0  501    0  0.00000000000E+00  0.00000000000E+00  0.14644351870E+04  0.14644351870E+04  0.00000000000E+00 0.  1.
         -1   -1    0    0    0  501 -0.00000000000E+00 -0.00000000000E+00 -0.65473725317E+03  0.65473725317E+03  0.00000000000E+00 0. -1.
    2000013    1    1    2    0    0  0.26145639203E+02 -0.21605455331E+03  0.30243679268E+03  0.10204563577E+04  0.95000000000E+03 0.  0.
   -2000013    1    1    2    0    0 -0.26145639203E+02  0.21605455331E+03  0.50726114112E+03  0.10987160824E+04  0.95000000000E+03 0.  0.
<mgrwt>
<rscale>  0 0.19583874E+04</rscale>
<asrwt>0</asrwt>
<pdfrwt beam="1">  1        1 0.22529772E+00 0.19583874E+04</pdfrwt>
<pdfrwt beam="2">  1       -1 0.10072881E+00 0.19583874E+04</pdfrwt>
<totfact> 0.60429496E+00</totfact>
</mgrwt>
</event>
<event>
 4    1  0.2048914E-008  0.2618418E+04  0.7816531E-02  0.8361972E-01
          2   -1    0    0  501    0  0.00000000000E+00  0.00000000000E+00  0.63100921396E+03  0.63100921396E+03  0.00000000000E+00 0.  1.
         -2   -1    0    0    0  501 -0.00000000000E+00 -0.00000000000E+00 -0.27163288705E+04  0.27163288705E+04  0.00000000000E+00 0. -1.
    2000013    1    1    2    0    0 -0.61798411581E+03 -0.43317355276E+03 -0.16715208073E+04  0.20654359112E+04  0.95000000000E+03 0.  0.
   -2000013    1    1    2    0    0  0.61798411581E+03  0.43317355276E+03 -0.41379884932E+03  0.12819021733E+04  0.95000000000E+03 0.  0.
<mgrwt>
<rscale>  0 0.26184183E+04</rscale>
<asrwt>0</asrwt>
<pdfrwt beam="1">  1        2 0.97078340E-01 0.26184183E+04</pdfrwt>
<pdfrwt beam="2">  1       -2 0.41789675E+00 0.26184183E+04</pdfrwt>
<totfact> 0.23311884E-01</totfact>
</mgrwt>
</event>
<event>
 4    1  0.2048914E-008  0.2323649E+04  0.7816531E-02  0.8468655E-01
         -2   -1    0    0    0  501 -0.00000000000E+00  0.00000000000E+00  0.20705867309E+04  0.20705867309E+04  0.00000000000E+00 0. -1.
          2   -1    0    0  501    0  0.00000000000E+00 -0.00000000000E+00 -0.65191010171E+03  0.65191010171E+03  0.00000000000E+00 0.  1.
    2000013    1    1    2    0    0  0.51721775096E+03  0.26836500238E+03  0.32464814015E+03  0.11607886937E+04  0.95000000000E+03 0.  0.
   -2000013    1    1    2    0    0 -0.51721775096E+03 -0.26836500238E+03  0.10940284890E+04  0.15617081389E+04  0.95000000000E+03 0.  0.
<mgrwt>
<rscale>  0 0.23236492E+04</rscale>
<asrwt>0</asrwt>
<pdfrwt beam="2">  1        2 0.10029386E+00 0.23236492E+04</pdfrwt>
<pdfrwt beam="1">  1       -2 0.31855180E+00 0.23236492E+04</pdfrwt>
<totfact> 0.99144244E-01</totfact>
</mgrwt>
</event>
<event>
 4    1  0.2048914E-008  0.2203544E+04  0.7816531E-02  0.8516954E-01
         -2   -1    0    0    0  501 -0.00000000000E+00  0.00000000000E+00  0.13623834811E+04  0.13623834811E+04  0.00000000000E+00 0. -1.
          2   -1    0    0  501    0  0.00000000000E+00 -0.00000000000E+00 -0.89101327715E+03  0.89101327715E+03  0.00000000000E+00 0.  1.
    2000013    1    1    2    0    0 -0.38462278793E+01  0.41304646044E+03  0.61937976461E+03  0.12069604239E+04  0.95000000000E+03 0.  0.
   -2000013    1    1    2    0    0  0.38462278793E+01 -0.41304646044E+03 -0.14800956064E+03  0.10464363344E+04  0.95000000000E+03 0.  0.
<mgrwt>
<rscale>  0 0.22035442E+04</rscale>
<asrwt>0</asrwt>
<pdfrwt beam="2">  1        2 0.13707897E+00 0.22035442E+04</pdfrwt>
<pdfrwt beam="1">  1       -2 0.20959746E+00 0.22035442E+04</pdfrwt>
<totfact> 0.31290686E+00</totfact>
</mgrwt>
</event>
<event>
 4    1  0.2048914E-008  0.3500457E+04  0.7816531E-02  0.8113682E-01
         -2   -1    0    0    0  501 -0.00000000000E+00  0.00000000000E+00  0.17193100966E+04  0.17193100966E+04  0.00000000000E+00 0. -1.
          2   -1    0    0  501    0  0.00000000000E+00 -0.00000000000E+00 -0.17817032565E+04  0.17817032565E+04  0.00000000000E+00 0.  1.
    2000013    1    1    2    0    0  0.36880347248E+03 -0.14197267904E+04 -0.12692091072E+03  0.17522126236E+04  0.95000000000E+03 0.  0.
   -2000013    1    1    2    0    0 -0.36880347248E+03  0.14197267904E+04  0.64527750830E+02  0.17488007295E+04  0.95000000000E+03 0.  0.
<mgrwt>
<rscale>  0 0.35004573E+04</rscale>
<asrwt>0</asrwt>
<pdfrwt beam="2">  1        2 0.27410819E+00 0.35004573E+04</pdfrwt>
<pdfrwt beam="1">  1       -2 0.26450925E+00 0.35004573E+04</pdfrwt>
<totfact> 0.38004107E-01</totfact>
</mgrwt>
</event>
<event>
 4    1  0.2048914E-008  0.2120187E+04  0.7816531E-02  0.8552402E-01
          1   -1    0    0  501    0  0.00000000000E+00  0.00000000000E+00  0.16680073040E+04  0.16680073040E+04  0.00000000000E+00 0.  1.
         -1   -1    0    0    0  501 -0.00000000000E+00 -0.00000000000E+00 -0.67373726160E+03  0.67373726160E+03  0.00000000000E+00 0. -1.
    2000013    1    1    2    0    0 -0.23894638742E+03  0.37320861437E+03  0.32278286352E+03  0.10968449402E+04  0.95000000000E+03 0.  0.
   -2000013    1    1    2    0    0  0.23894638742E+03 -0.37320861437E+03  0.67148717888E+03  0.12448996254E+04  0.95000000000E+03 0.  0.
<mgrwt>
<rscale>  0 0.21201874E+04</rscale>
<asrwt>0</asrwt>
<pdfrwt beam="1">  1        1 0.25661651E+00 0.21201874E+04</pdfrwt>
<pdfrwt beam="2">  1       -1 0.10365189E+00 0.21201874E+04</pdfrwt>
<totfact> 0.40367627E+00</totfact>
</mgrwt>
</event>
<event>
 4    1  0.2048914E-008  0.2556501E+04  0.7816531E-02  0.8383129E-01
          1   -1    0    0  501    0  0.00000000000E+00  0.00000000000E+00  0.16033520760E+04  0.16033520760E+04  0.00000000000E+00 0.  1.
         -1   -1    0    0    0  501 -0.00000000000E+00 -0.00000000000E+00 -0.10190675950E+04  0.10190675950E+04  0.00000000000E+00 0. -1.
    2000013    1    1    2    0    0 -0.74883177041E+03 -0.31303079801E+03  0.15585558111E+02  0.12495920176E+04  0.95000000000E+03 0.  0.
   -2000013    1    1    2    0    0  0.74883177041E+03  0.31303079801E+03  0.56869892290E+03  0.13728276533E+04  0.95000000000E+03 0.  0.
<mgrwt>
<rscale>  0 0.25565008E+04</rscale>
<asrwt>0</asrwt>
<pdfrwt beam="1">  1        1 0.24666955E+00 0.25565008E+04</pdfrwt>
<pdfrwt beam="2">  1       -1 0.15677963E+00 0.25565008E+04</pdfrwt>
<totfact> 0.15174928E+00</totfact>
</mgrwt>
</event>
<event>
 4    1  0.2048914E-008  0.2313607E+04  0.7816531E-02  0.8472575E-01
          2   -1    0    0  501    0  0.00000000000E+00  0.00000000000E+00  0.28226923930E+04  0.28226923930E+04  0.00000000000E+00 0.  1.
         -2   -1    0    0    0  501 -0.00000000000E+00 -0.00000000000E+00 -0.47408451843E+03  0.47408451843E+03  0.00000000000E+00 0. -1.
    2000013    1    1    2    0    0 -0.21498581899E+02  0.45473185727E+03  0.49322583016E+03  0.11631917170E+04  0.95000000000E+03 0.  0.
   -2000013    1    1    2    0    0  0.21498581899E+02 -0.45473185727E+03  0.18553820444E+04  0.21335851944E+04  0.95000000000E+03 0.  0.
<mgrwt>
<rscale>  0 0.23136074E+04</rscale>
<asrwt>0</asrwt>
<pdfrwt beam="1">  1        2 0.43426036E+00 0.23136074E+04</pdfrwt>
<pdfrwt beam="2">  1       -2 0.72936081E-01 0.23136074E+04</pdfrwt>
<totfact> 0.34472089E+00</totfact>
</mgrwt>
</event>
<event>
 4    1  0.2048914E-008  0.2759489E+04  0.7816531E-02  0.8315957E-01
         -2   -1    0    0    0  501 -0.00000000000E+00  0.00000000000E+00  0.12211394185E+04  0.12211394185E+04  0.00000000000E+00 0. -1.
          2   -1    0    0  501    0  0.00000000000E+00 -0.00000000000E+00 -0.15589498161E+04  0.15589498161E+04  0.00000000000E+00 0.  1.
    2000013    1    1    2    0    0  0.38013452027E+03 -0.79921321598E+03  0.30143222300E+03  0.13328936203E+04  0.95000000000E+03 0.  0.
   -2000013    1    1    2    0    0 -0.38013452027E+03  0.79921321598E+03 -0.63924262057E+03  0.14471956143E+04  0.95000000000E+03 0.  0.
<mgrwt>
<rscale>  0 0.27594891E+04</rscale>
<asrwt>0</asrwt>
<pdfrwt beam="2">  1        2 0.23983843E+00 0.27594891E+04</pdfrwt>
<pdfrwt beam="1">  1       -2 0.18786760E+00 0.27594891E+04</pdfrwt>
<totfact> 0.16450025E+00</totfact>
</mgrwt>
</event>
<event>
 4    1  0.2048914E-008  0.2326359E+04  0.7816531E-02  0.8467600E-01
         -1   -1    0    0    0  501 -0.00000000000E+00  0.00000000000E+00  0.37734261053E+03  0.37734261053E+03  0.00000000000E+00 0. -1.
          1   -1    0    0  501    0  0.00000000000E+00 -0.00000000000E+00 -0.35855648151E+04  0.35855648151E+04  0.00000000000E+00 0.  1.
    2000013    1    1    2    0    0 -0.52469478314E+03 -0.24028382625E+03 -0.10203228850E+04  0.15088405225E+04  0.95000000000E+03 0.  0.
   -2000013    1    1    2    0    0  0.52469478314E+03  0.24028382625E+03 -0.21878993195E+04  0.24540669031E+04  0.95000000000E+03 0.  0.
<mgrwt>
<rscale>  0 0.23263589E+04</rscale>
<asrwt>0</asrwt>
<pdfrwt beam="2">  1        1 0.55162538E+00 0.23263589E+04</pdfrwt>
<pdfrwt beam="1">  1       -1 0.58052707E-01 0.23263589E+04</pdfrwt>
<totfact> 0.58050632E-01</totfact>
</mgrwt>
</event>
<event>
 4    1  0.2048914E-008  0.2248610E+04  0.7816531E-02  0.8498464E-01
          2   -1    0    0  501    0  0.00000000000E+00  0.00000000000E+00  0.12168398242E+04  0.12168398242E+04  0.00000000000E+00 0.  1.
         -2   -1    0    0    0  501 -0.00000000000E+00 -0.00000000000E+00 -0.10388072190E+04  0.10388072190E+04  0.00000000000E+00 0. -1.
    2000013    1    1    2    0    0 -0.36241078598E+02 -0.50088228201E+03 -0.24272318322E+03  0.11016401499E+04  0.95000000000E+03 0.  0.
   -2000013    1    1    2    0    0  0.36241078598E+02  0.50088228201E+03  0.42075578851E+03  0.11540068933E+04  0.95000000000E+03 0.  0.
<mgrwt>
<rscale>  0 0.22486102E+04</rscale>
<asrwt>0</asrwt>
<pdfrwt beam="1">  1        2 0.18720613E+00 0.22486102E+04</pdfrwt>
<pdfrwt beam="2">  1       -2 0.15981650E+00 0.22486102E+04</pdfrwt>
<totfact> 0.42577952E+00</totfact>
</mgrwt>
</event>
<event>
 4    1  0.2048914E-008  0.2508680E+04  0.7816531E-02  0.8399900E-01
         -2   -1    0    0    0  501 -0.00000000000E+00  0.00000000000E+00  0.62839266606E+03  0.62839266606E+03  0.00000000000E+00 0. -1.
          2   -1    0    0  501    0  0.00000000000E+00 -0.00000000000E+00 -0.25037985731E+04  0.25037985731E+04  0.00000000000E+00 0.  1.
    2000013    1    1    2    0    0  0.59079302105E+03  0.56168398252E+03 -0.10371434015E+04  0.16256357910E+04  0.95000000000E+03 0.  0.
   -2000013    1    1    2    0    0 -0.59079302105E+03 -0.56168398252E+03 -0.83826250555E+03  0.15065554481E+04  0.95000000000E+03 0.  0.
<mgrwt>
<rscale>  0 0.25086799E+04</rscale>
<asrwt>0</asrwt>
<pdfrwt beam="2">  1        2 0.38519978E+00 0.25086799E+04</pdfrwt>
<pdfrwt beam="1">  1       -2 0.96675794E-01 0.25086799E+04</pdfrwt>
<totfact> 0.27609124E+00</totfact>
</mgrwt>
</event>
<event>
 4    1  0.2048914E-008  0.2794386E+04  0.7816531E-02  0.8305013E-01
          2   -1    0    0  501    0  0.00000000000E+00  0.00000000000E+00  0.19698669546E+04  0.19698669546E+04  0.00000000000E+00 0.  1.
         -2   -1    0    0    0  501 -0.00000000000E+00 -0.00000000000E+00 -0.99100537090E+03  0.99100537090E+03  0.00000000000E+00 0. -1.
    2000013    1    1    2    0    0 -0.81945107107E+03 -0.51460844981E+03  0.84612789312E+03  0.15983598863E+04  0.95000000000E+03 0.  0.
   -2000013    1    1    2    0    0  0.81945107107E+03  0.51460844981E+03  0.13273369058E+03  0.13625124392E+04  0.95000000000E+03 0.  0.
<mgrwt>
<rscale>  0 0.27943863E+04</rscale>
<asrwt>0</asrwt>
<pdfrwt beam="1">  1        2 0.30305645E+00 0.27943863E+04</pdfrwt>
<pdfrwt beam="2">  1       -2 0.15246237E+00 0.27943863E+04</pdfrwt>
<totfact> 0.17346345E+00</totfact>
</mgrwt>
</event>
<event>
 4    1  0.2048914E-008  0.3912025E+04  0.7816531E-02  0.8022533E-01
         -2   -1    0    0    0  501 -0.00000000000E+00  0.00000000000E+00  0.14480862034E+04  0.14480862034E+04  0.00000000000E+00 0. -1.
          2   -1    0    0  501    0  0.00000000000E+00 -0.00000000000E+00 -0.26420976879E+04  0.26420976879E+04  0.00000000000E+00 0.  1.
    2000013    1    1    2    0    0  0.13258640915E+04  0.95961595519E+03 -0.79798915465E+02  0.18941082961E+04  0.95000000000E+03 0.  0.
   -2000013    1    1    2    0    0 -0.13258640915E+04 -0.95961595519E+03 -0.11142125690E+04  0.21960755951E+04  0.95000000000E+03 0.  0.
<mgrwt>
<rscale>  0 0.39120252E+04</rscale>
<asrwt>0</asrwt>
<pdfrwt beam="2">  1        2 0.40647657E+00 0.39120252E+04</pdfrwt>
<pdfrwt beam="1">  1       -2 0.22278249E+00 0.39120252E+04</pdfrwt>
<totfact> 0.21670629E-01</totfact>
</mgrwt>
</event>
<event>
 4    1  0.2048914E-008  0.2211923E+04  0.7816531E-02  0.8513482E-01
          2   -1    0    0  501    0  0.00000000000E+00  0.00000000000E+00  0.12401020860E+04  0.12401020860E+04  0.00000000000E+00 0.  1.
         -2   -1    0    0    0  501 -0.00000000000E+00 -0.00000000000E+00 -0.98633067723E+03  0.98633067723E+03  0.00000000000E+00 0. -1.
    2000013    1    1    2    0    0  0.26221482541E+03 -0.50101848818E+03  0.97118235918E+02  0.11098234508E+04  0.95000000000E+03 0.  0.
   -2000013    1    1    2    0    0 -0.26221482541E+03  0.50101848818E+03  0.15665317289E+03  0.11166093125E+04  0.95000000000E+03 0.  0.
<mgrwt>
<rscale>  0 0.22119229E+04</rscale>
<asrwt>0</asrwt>
<pdfrwt beam="1">  1        2 0.19078494E+00 0.22119229E+04</pdfrwt>
<pdfrwt beam="2">  1       -2 0.15174318E+00 0.22119229E+04</pdfrwt>
<totfact> 0.47570570E+00</totfact>
</mgrwt>
</event>
<event>
 4    1  0.2048914E-008  0.2076518E+04  0.7816531E-02  0.8571659E-01
          1   -1    0    0  501    0  0.00000000000E+00  0.00000000000E+00  0.40395450798E+03  0.40395450798E+03  0.00000000000E+00 0.  1.
         -1   -1    0    0    0  501 -0.00000000000E+00 -0.00000000000E+00 -0.26685711270E+04  0.26685711270E+04  0.00000000000E+00 0. -1.
    2000013    1    1    2    0    0  0.20995149961E+03 -0.28844607280E+03 -0.80745598838E+03  0.12968291878E+04  0.95000000000E+03 0.  0.
   -2000013    1    1    2    0    0 -0.20995149961E+03  0.28844607280E+03 -0.14571606306E+04  0.17756964472E+04  0.95000000000E+03 0.  0.
<mgrwt>
<rscale>  0 0.20765176E+04</rscale>
<asrwt>0</asrwt>
<pdfrwt beam="1">  1        1 0.62146845E-01 0.20765176E+04</pdfrwt>
<pdfrwt beam="2">  1       -1 0.41054942E+00 0.20765176E+04</pdfrwt>
<totfact> 0.33093828E-01</totfact>
</mgrwt>
</event>
<event>
 4    1  0.2048914E-008  0.2394505E+04  0.7816531E-02  0.8441564E-01
         -2   -1    0    0    0  501 -0.00000000000E+00  0.00000000000E+00  0.82022249828E+03  0.82022249828E+03  0.00000000000E+00 0. -1.
          2   -1    0    0  501    0  0.00000000000E+00 -0.00000000000E+00 -0.17475904632E+04  0.17475904632E+04  0.00000000000E+00 0.  1.
    2000013    1    1    2    0    0  0.68763311036E+03  0.22337429015E+03 -0.36670850686E+03  0.12488837003E+04  0.95000000000E+03 0.  0.
   -2000013    1    1    2    0    0 -0.68763311036E+03 -0.22337429015E+03 -0.56065945805E+03  0.13189292611E+04  0.95000000000E+03 0.  0.
<mgrwt>
<rscale>  0 0.23945046E+04</rscale>
<asrwt>0</asrwt>
<pdfrwt beam="2">  1        2 0.26886007E+00 0.23945046E+04</pdfrwt>
<pdfrwt beam="1">  1       -2 0.12618808E+00 0.23945046E+04</pdfrwt>
<totfact> 0.38870299E+00</totfact>
</mgrwt>
</event>
<event>
 4    1  0.2048914E-008  0.2556815E+04  0.7816531E-02  0.8383020E-01
          2   -1    0    0  501    0  0.00000000000E+00  0.00000000000E+00  0.27113931588E+04  0.27113931588E+04  0.00000000000E+00 0.  1.
         -2   -1    0    0    0  501 -0.00000000000E+00 -0.00000000000E+00 -0.60276250457E+03  0.60276250457E+03  0.00000000000E+00 0. -1.
    2000013    1    1    2    0    0 -0.85063529658E+03 -0.85157471306E+02  0.10134503618E+04  0.16310775084E+04  0.95000000000E+03 0.  0.
   -2000013    1    1    2    0    0  0.85063529658E+03  0.85157471306E+02  0.10951802925E+04  0.16830781550E+04  0.95000000000E+03 0.  0.
<mgrwt>
<rscale>  0 0.25568153E+04</rscale>
<asrwt>0</asrwt>
<pdfrwt beam="1">  1        2 0.41713740E+00 0.25568153E+04</pdfrwt>
<pdfrwt beam="2">  1       -2 0.92732694E-01 0.25568153E+04</pdfrwt>
<totfact> 0.22878989E+00</totfact>
</mgrwt>
</event>
<event>
 4    1  0.2048914E-008  0.2354863E+04  0.7816531E-02  0.8456598E-01
          2   -1    0    0  501    0  0.00000000000E+00  0.00000000000E+00  0.13038828025E+04  0.13038828025E+04  0.00000000000E+00 0.  1.
         -2   -1    0    0    0  501 -0.00000000000E+00 -0.00000000000E+00 -0.10632433024E+04  0.10632433024E+04  0.00000000000E+00 0. -1.
    2000013    1    1    2    0    0  0.37140598994E+03 -0.26552290565E+03 -0.40719867100E+03  0.11299360957E+04  0.95000000000E+03 0.  0.
   -2000013    1    1    2    0    0 -0.37140598994E+03  0.26552290565E+03  0.64783817106E+03  0.12371900091E+04  0.95000000000E+03 0.  0.
<mgrwt>
<rscale>  0 0.23548628E+04</rscale>
<asrwt>0</asrwt>
<pdfrwt beam="1">  1        2 0.20059735E+00 0.23548628E+04</pdfrwt>
<pdfrwt beam="2">  1       -2 0.16357589E+00 0.23548628E+04</pdfrwt>
<totfact> 0.35197244E+00</totfact>
</mgrwt>
</event>
<event>
 4    1  0.2048914E-008  0.3464196E+04  0.7816531E-02  0.8122328E-01
         -4   -1    0    0    0  501 -0.00000000000E+00  0.00000000000E+00  0.14351944190E+04  0.14351944190E+04  0.00000000000E+00 0. -1.
          4   -1    0    0  501    0  0.00000000000E+00 -0.00000000000E+00 -0.20904229000E+04  0.20904229000E+04  0.00000000000E+00 0.  1.
    2000013    1    1    2    0    0 -0.94919793816E+03  0.10925437870E+04 -0.27155006874E+03  0.17523892524E+04  0.95000000000E+03 0.  0.
   -2000013    1    1    2    0    0  0.94919793816E+03 -0.10925437870E+04 -0.38367841226E+03  0.17732280666E+04  0.95000000000E+03 0.  0.
<mgrwt>
<rscale>  0 0.34641959E+04</rscale>
<asrwt>0</asrwt>
<pdfrwt beam="2">  1        4 0.32160352E+00 0.34641959E+04</pdfrwt>
<pdfrwt beam="1">  1       -4 0.22079914E+00 0.34641959E+04</pdfrwt>
<totfact> 0.35393623E-03</totfact>
</mgrwt>
</event>
<event>
 4    1  0.2048914E-008  0.3076722E+04  0.7816531E-02  0.8222156E-01
         -2   -1    0    0    0  501 -0.00000000000E+00  0.00000000000E+00  0.19874733341E+04  0.19874733341E+04  0.00000000000E+00 0. -1.
          2   -1    0    0  501    0  0.00000000000E+00 -0.00000000000E+00 -0.11907351874E+04  0.11907351874E+04  0.00000000000E+00 0.  1.
    2000013    1    1    2    0    0 -0.26554312687E+03 -0.84158648535E+03 -0.45674903210E+03  0.13747365722E+04  0.95000000000E+03 0.  0.
   -2000013    1    1    2    0    0  0.26554312687E+03  0.84158648535E+03  0.12534871788E+04  0.18034719493E+04  0.95000000000E+03 0.  0.
<mgrwt>
<rscale>  0 0.30767219E+04</rscale>
<asrwt>0</asrwt>
<pdfrwt beam="2">  1        2 0.18319003E+00 0.30767219E+04</pdfrwt>
<pdfrwt beam="1">  1       -2 0.30576513E+00 0.30767219E+04</pdfrwt>
<totfact> 0.47808792E-01</totfact>
</mgrwt>
</event>
<event>
 4    1  0.2048914E-008  0.2207288E+04  0.7816531E-02  0.8515401E-01
         -2   -1    0    0    0  501 -0.00000000000E+00  0.00000000000E+00  0.48709032386E+03  0.48709032386E+03  0.00000000000E+00 0. -1.
          2   -1    0    0  501    0  0.00000000000E+00 -0.00000000000E+00 -0.25006248872E+04  0.25006248872E+04  0.00000000000E+00 0.  1.
    2000013    1    1    2    0    0  0.35329326619E+03  0.43506513090E+02 -0.15949409754E+04  0.18902501590E+04  0.95000000000E+03 0.  0.
   -2000013    1    1    2    0    0 -0.35329326619E+03 -0.43506513090E+02 -0.41859358796E+03  0.10974650521E+04  0.95000000000E+03 0.  0.
<mgrwt>
<rscale>  0 0.22072881E+04</rscale>
<asrwt>0</asrwt>
<pdfrwt beam="2">  1        2 0.38471152E+00 0.22072881E+04</pdfrwt>
<pdfrwt beam="1">  1       -2 0.74936974E-01 0.22072881E+04</pdfrwt>
<totfact> 0.50835056E+00</totfact>
</mgrwt>
</event>
<event>
 4    1  0.2048914E-008  0.2577124E+04  0.7816531E-02  0.8376013E-01
         -2   -1    0    0    0  501 -0.00000000000E+00  0.00000000000E+00  0.11063909117E+04  0.11063909117E+04  0.00000000000E+00 0. -1.
          2   -1    0    0  501    0  0.00000000000E+00 -0.00000000000E+00 -0.15007280901E+04  0.15007280901E+04  0.00000000000E+00 0.  1.
    2000013    1    1    2    0    0 -0.61394848592E+03 -0.47417395114E+03  0.20254818854E+03  0.12431007393E+04  0.95000000000E+03 0.  0.
   -2000013    1    1    2    0    0  0.61394848592E+03  0.47417395114E+03 -0.59688536696E+03  0.13640182626E+04  0.95000000000E+03 0.  0.
<mgrwt>
<rscale>  0 0.25771239E+04</rscale>
<asrwt>0</asrwt>
<pdfrwt beam="2">  1        2 0.23088124E+00 0.25771239E+04</pdfrwt>
<pdfrwt beam="1">  1       -2 0.17021399E+00 0.25771239E+04</pdfrwt>
<totfact> 0.23873831E+00</totfact>
</mgrwt>
</event>
<event>
 4    1  0.2048914E-008  0.2022021E+04  0.7816531E-02  0.8596394E-01
          1   -1    0    0  501    0  0.00000000000E+00  0.00000000000E+00  0.22852056271E+04  0.22852056271E+04  0.00000000000E+00 0.  1.
         -1   -1    0    0    0  501 -0.00000000000E+00 -0.00000000000E+00 -0.44728678724E+03  0.44728678724E+03  0.00000000000E+00 0. -1.
    2000013    1    1    2    0    0 -0.32159487345E+03 -0.10094007119E+03  0.10238982844E+04  0.14368297942E+04  0.95000000000E+03 0.  0.
   -2000013    1    1    2    0    0  0.32159487345E+03  0.10094007119E+03  0.81402055544E+03  0.12956626202E+04  0.95000000000E+03 0.  0.
<mgrwt>
<rscale>  0 0.20220211E+04</rscale>
<asrwt>0</asrwt>
<pdfrwt beam="1">  1        1 0.35157009E+00 0.20220211E+04</pdfrwt>
<pdfrwt beam="2">  1       -1 0.68813353E-01 0.20220211E+04</pdfrwt>
<totfact> 0.37698596E+00</totfact>
</mgrwt>
</event>
<event>
 4    1  0.2048914E-008  0.2367399E+04  0.7816531E-02  0.8451811E-01
          2   -1    0    0  501    0  0.00000000000E+00  0.00000000000E+00  0.24922910430E+04  0.24922910430E+04  0.00000000000E+00 0.  1.
         -2   -1    0    0    0  501 -0.00000000000E+00 -0.00000000000E+00 -0.56219126735E+03  0.56219126735E+03  0.00000000000E+00 0. -1.
    2000013    1    1    2    0    0  0.32219393805E+03 -0.32939478290E+03  0.16554533470E+04  0.19635008635E+04  0.95000000000E+03 0.  0.
   -2000013    1    1    2    0    0 -0.32219393805E+03  0.32939478290E+03  0.27464642866E+03  0.10909814469E+04  0.95000000000E+03 0.  0.
<mgrwt>
<rscale>  0 0.23673988E+04</rscale>
<asrwt>0</asrwt>
<pdfrwt beam="1">  1        2 0.38342939E+00 0.23673988E+04</pdfrwt>
<pdfrwt beam="2">  1       -2 0.86490965E-01 0.23673988E+04</pdfrwt>
<totfact> 0.36718587E+00</totfact>
</mgrwt>
</event>
<event>
 4    1  0.2048914E-008  0.2674431E+04  0.7816531E-02  0.8343349E-01
          2   -1    0    0  501    0  0.00000000000E+00  0.00000000000E+00  0.26831405127E+04  0.26831405127E+04  0.00000000000E+00 0.  1.
         -2   -1    0    0    0  501 -0.00000000000E+00 -0.00000000000E+00 -0.66643733978E+03  0.66643733978E+03  0.00000000000E+00 0. -1.
    2000013    1    1    2    0    0  0.32775461184E+03  0.87739902063E+03  0.11230915476E+04  0.17438711969E+04  0.95000000000E+03 0.  0.
   -2000013    1    1    2    0    0 -0.32775461184E+03 -0.87739902063E+03  0.89361162533E+03  0.16057066556E+04  0.95000000000E+03 0.  0.
<mgrwt>
<rscale>  0 0.26744308E+04</rscale>
<asrwt>0</asrwt>
<pdfrwt beam="1">  1        2 0.41279084E+00 0.26744308E+04</pdfrwt>
<pdfrwt beam="2">  1       -2 0.10252882E+00 0.26744308E+04</pdfrwt>
<totfact> 0.18588615E+00</totfact>
</mgrwt>
</event>
<event>
 4    1  0.2048914E-008  0.3374298E+04  0.7816531E-02  0.8144243E-01
         -2   -1    0    0    0  501 -0.00000000000E+00  0.00000000000E+00  0.12968897625E+04  0.12968897625E+04  0.00000000000E+00 0. -1.
          2   -1    0    0  501    0  0.00000000000E+00 -0.00000000000E+00 -0.21948447147E+04  0.21948447147E+04  0.00000000000E+00 0.  1.
    2000013    1    1    2    0    0 -0.10721552706E+04  0.58489142092E+03  0.24700502223E+03  0.15668842904E+04  0.95000000000E+03 0.  0.
   -2000013    1    1    2    0    0  0.10721552706E+04 -0.58489142092E+03 -0.11449599744E+04  0.19248501868E+04  0.95000000000E+03 0.  0.
<mgrwt>
<rscale>  0 0.33742979E+04</rscale>
<asrwt>0</asrwt>
<pdfrwt beam="2">  1        2 0.33766842E+00 0.33742979E+04</pdfrwt>
<pdfrwt beam="1">  1       -2 0.19952150E+00 0.33742979E+04</pdfrwt>
<totfact> 0.57815959E-01</totfact>
</mgrwt>
</event>
<event>
 4    1  0.2048914E-008  0.2026998E+04  0.7816531E-02  0.8594101E-01
         -2   -1    0    0    0  501 -0.00000000000E+00  0.00000000000E+00  0.43681579425E+03  0.43681579425E+03  0.00000000000E+00 0. -1.
          2   -1    0    0  501    0  0.00000000000E+00 -0.00000000000E+00 -0.23515179421E+04  0.23515179421E+04  0.00000000000E+00 0.  1.
    2000013    1    1    2    0    0 -0.33883055206E+03  0.44496341752E+02 -0.10795712861E+04  0.14780934440E+04  0.95000000000E+03 0.  0.
   -2000013    1    1    2    0    0  0.33883055206E+03 -0.44496341752E+02 -0.83513086176E+03  0.13102402924E+04  0.95000000000E+03 0.  0.
<mgrwt>
<rscale>  0 0.20269980E+04</rscale>
<asrwt>0</asrwt>
<pdfrwt beam="2">  1        2 0.36177201E+00 0.20269980E+04</pdfrwt>
<pdfrwt beam="1">  1       -2 0.67202427E-01 0.20269980E+04</pdfrwt>
<totfact> 0.79822457E+00</totfact>
</mgrwt>
</event>
<event>
 4    1  0.2048914E-008  0.3332935E+04  0.7816531E-02  0.8154565E-01
         -2   -1    0    0    0  501 -0.00000000000E+00  0.00000000000E+00  0.24815512685E+04  0.24815512685E+04  0.00000000000E+00 0. -1.
          2   -1    0    0  501    0  0.00000000000E+00 -0.00000000000E+00 -0.11191038879E+04  0.11191038879E+04  0.00000000000E+00 0.  1.
    2000013    1    1    2    0    0  0.85242003694E+03  0.22957121638E+03  0.18118508865E+04  0.22281441824E+04  0.95000000000E+03 0.  0.
   -2000013    1    1    2    0    0 -0.85242003694E+03 -0.22957121638E+03 -0.44940350586E+03  0.13725109740E+04  0.95000000000E+03 0.  0.
<mgrwt>
<rscale>  0 0.33329348E+04</rscale>
<asrwt>0</asrwt>
<pdfrwt beam="2">  1        2 0.17216983E+00 0.33329348E+04</pdfrwt>
<pdfrwt beam="1">  1       -2 0.38177712E+00 0.33329348E+04</pdfrwt>
<totfact> 0.17210087E-01</totfact>
</mgrwt>
</event>
<event>
 4    1  0.2048914E-008  0.3001966E+04  0.7816531E-02  0.8243170E-01
         -2   -1    0    0    0  501 -0.00000000000E+00  0.00000000000E+00  0.19055872779E+04  0.19055872779E+04  0.00000000000E+00 0.  1.
          2   -1    0    0  501    0  0.00000000000E+00 -0.00000000000E+00 -0.11822867683E+04  0.11822867683E+04  0.00000000000E+00 0. -1.
    2000013    1    1    2    0    0  0.10294391816E+04  0.50243913021E+03  0.56285080217E+03  0.15910660369E+04  0.95000000000E+03 0.  0.
   -2000013    1    1    2    0    0 -0.10294391816E+04 -0.50243913021E+03  0.16044970749E+03  0.14968080093E+04  0.95000000000E+03 0.  0.
<mgrwt>
<rscale>  0 0.30019664E+04</rscale>
<asrwt>0</asrwt>
<pdfrwt beam="2">  1        2 0.18189027E+00 0.30019664E+04</pdfrwt>
<pdfrwt beam="1">  1       -2 0.29316727E+00 0.30019664E+04</pdfrwt>
<totfact> 0.58132397E-01</totfact>
</mgrwt>
</event>
<event>
 4    1  0.2048914E-008  0.2434137E+04  0.7816531E-02  0.8426833E-01
         -2   -1    0    0    0  501 -0.00000000000E+00  0.00000000000E+00  0.52252693905E+03  0.52252693905E+03  0.00000000000E+00 0. -1.
          2   -1    0    0  501    0  0.00000000000E+00 -0.00000000000E+00 -0.28347926545E+04  0.28347926545E+04  0.00000000000E+00 0.  1.
    2000013    1    1    2    0    0 -0.53209317075E+02 -0.67030153231E+03 -0.16469267100E+04  0.20166811755E+04  0.95000000000E+03 0.  0.
   -2000013    1    1    2    0    0  0.53209317075E+02  0.67030153231E+03 -0.66533900542E+03  0.13406384180E+04  0.95000000000E+03 0.  0.
<mgrwt>
<rscale>  0 0.24341368E+04</rscale>
<asrwt>0</asrwt>
<pdfrwt beam="2">  1        2 0.43612195E+00 0.24341368E+04</pdfrwt>
<pdfrwt beam="1">  1       -2 0.80388759E-01 0.24341368E+04</pdfrwt>
<totfact> 0.27008345E+00</totfact>
</mgrwt>
</event>
<event>
 4    1  0.2048914E-008  0.3639576E+04  0.7816531E-02  0.8081486E-01
          2   -1    0    0  501    0  0.00000000000E+00  0.00000000000E+00  0.16916785138E+04  0.16916785138E+04  0.00000000000E+00 0.  1.
         -2   -1    0    0    0  501 -0.00000000000E+00 -0.00000000000E+00 -0.19575990000E+04  0.19575990000E+04  0.00000000000E+00 0. -1.
    2000013    1    1    2    0    0 -0.44612543551E+03  0.14850423986E+04 -0.63861108878E+02  0.18196035478E+04  0.95000000000E+03 0.  0.
   -2000013    1    1    2    0    0  0.44612543551E+03 -0.14850423986E+04 -0.20205937727E+03  0.18296739660E+04  0.95000000000E+03 0.  0.
<mgrwt>
<rscale>  0 0.36395759E+04</rscale>
<asrwt>0</asrwt>
<pdfrwt beam="1">  1        2 0.26025823E+00 0.36395759E+04</pdfrwt>
<pdfrwt beam="2">  1       -2 0.30116908E+00 0.36395759E+04</pdfrwt>
<totfact> 0.25173929E-01</totfact>
</mgrwt>
</event>
<event>
 4    1  0.2048914E-008  0.2408979E+04  0.7816531E-02  0.8436150E-01
         -2   -1    0    0    0  501 -0.00000000000E+00  0.00000000000E+00  0.98785688857E+03  0.98785688857E+03  0.00000000000E+00 0. -1.
          2   -1    0    0  501    0  0.00000000000E+00 -0.00000000000E+00 -0.14686284941E+04  0.14686284941E+04  0.00000000000E+00 0.  1.
    2000013    1    1    2    0    0 -0.42511934542E+03 -0.24677907714E+03 -0.80508310578E+03  0.13387625547E+04  0.95000000000E+03 0.  0.
   -2000013    1    1    2    0    0  0.42511934542E+03  0.24677907714E+03  0.32431150029E+03  0.11177228279E+04  0.95000000000E+03 0.  0.
<mgrwt>
<rscale>  0 0.24089788E+04</rscale>
<asrwt>0</asrwt>
<pdfrwt beam="2">  1        2 0.22594284E+00 0.24089788E+04</pdfrwt>
<pdfrwt beam="1">  1       -2 0.15197798E+00 0.24089788E+04</pdfrwt>
<totfact> 0.34389127E+00</totfact>
</mgrwt>
</event>
<event>
 4    1  0.2048914E-008  0.2541529E+04  0.7816531E-02  0.8388338E-01
         -2   -1    0    0    0  501 -0.00000000000E+00  0.00000000000E+00  0.99108951078E+03  0.99108951078E+03  0.00000000000E+00 0. -1.
          2   -1    0    0  501    0  0.00000000000E+00 -0.00000000000E+00 -0.16293613813E+04  0.16293613813E+04  0.00000000000E+00 0.  1.
    2000013    1    1    2    0    0  0.81843373379E+03  0.20030145197E+03 -0.26874575974E+03  0.12979517447E+04  0.95000000000E+03 0.  0.
   -2000013    1    1    2    0    0 -0.81843373379E+03 -0.20030145197E+03 -0.36952611084E+03  0.13224991474E+04  0.95000000000E+03 0.  0.
<mgrwt>
<rscale>  0 0.25415294E+04</rscale>
<asrwt>0</asrwt>
<pdfrwt beam="2">  1        2 0.25067098E+00 0.25415294E+04</pdfrwt>
<pdfrwt beam="1">  1       -2 0.15247531E+00 0.25415294E+04</pdfrwt>
<totfact> 0.27382670E+00</totfact>
</mgrwt>
</event>
<event>
 4    1  0.2048914E-008  0.2376237E+04  0.7816531E-02  0.8448454E-01
          1   -1    0    0  501    0  0.00000000000E+00  0.00000000000E+00  0.22553942313E+04  0.22553942313E+04  0.00000000000E+00 0.  1.
         -1   -1    0    0    0  501 -0.00000000000E+00 -0.00000000000E+00 -0.62588861425E+03  0.62588861425E+03  0.00000000000E+00 0. -1.
    2000013    1    1    2    0    0  0.28706054352E+03  0.65274160737E+03  0.84567159277E+03  0.14581274994E+04  0.95000000000E+03 0.  0.
   -2000013    1    1    2    0    0 -0.28706054352E+03 -0.65274160737E+03  0.78383402424E+03  0.14231553461E+04  0.95000000000E+03 0.  0.
<mgrwt>
<rscale>  0 0.23762370E+04</rscale>
<asrwt>0</asrwt>
<pdfrwt beam="1">  1        1 0.34698372E+00 0.23762370E+04</pdfrwt>
<pdfrwt beam="2">  1       -1 0.96290557E-01 0.23762370E+04</pdfrwt>
<totfact> 0.18619098E+00</totfact>
</mgrwt>
</event>
<event>
 4    1  0.2048914E-008  0.2248461E+04  0.7816531E-02  0.8498524E-01
          2   -1    0    0  501    0  0.00000000000E+00  0.00000000000E+00  0.32209738339E+04  0.32209738339E+04  0.00000000000E+00 0.  1.
         -2   -1    0    0    0  501 -0.00000000000E+00 -0.00000000000E+00 -0.39239500534E+03  0.39239500534E+03  0.00000000000E+00 0. -1.
    2000013    1    1    2    0    0  0.11201971542E+03  0.52905270979E+03  0.99231073795E+03  0.14763555761E+04  0.95000000000E+03 0.  0.
   -2000013    1    1    2    0    0 -0.11201971542E+03 -0.52905270979E+03  0.18362680906E+04  0.21370132632E+04  0.95000000000E+03 0.  0.
<mgrwt>
<rscale>  0 0.22484608E+04</rscale>
<asrwt>0</asrwt>
<pdfrwt beam="1">  1        2 0.49553442E+00 0.22484608E+04</pdfrwt>
<pdfrwt beam="2">  1       -2 0.60368464E-01 0.22484608E+04</pdfrwt>
<totfact> 0.29296074E+00</totfact>
</mgrwt>
</event>
<event>
 4    1  0.2048914E-008  0.3119930E+04  0.7816531E-02  0.8210289E-01
          2   -1    0    0  501    0  0.00000000000E+00  0.00000000000E+00  0.18316362261E+04  0.18316362261E+04  0.00000000000E+00 0.  1.
         -2   -1    0    0    0  501 -0.00000000000E+00 -0.00000000000E+00 -0.13285888958E+04  0.13285888958E+04  0.00000000000E+00 0. -1.
    2000013    1    1    2    0    0  0.93199661522E+02 -0.11952167151E+04 -0.58637494421E+02  0.15307408431E+04  0.95000000000E+03 0.  0.
   -2000013    1    1    2    0    0 -0.93199661522E+02  0.11952167151E+04  0.56168482472E+03  0.16294842789E+04  0.95000000000E+03 0.  0.
<mgrwt>
<rscale>  0 0.31199305E+04</rscale>
<asrwt>0</asrwt>
<pdfrwt beam="1">  1        2 0.28179019E+00 0.31199305E+04</pdfrwt>
<pdfrwt beam="2">  1       -2 0.20439829E+00 0.31199305E+04</pdfrwt>
<totfact> 0.87442680E-01</totfact>
</mgrwt>
</event>
<event>
 4    1  0.2048914E-008  0.2997770E+04  0.7816531E-02  0.8244368E-01
          2   -1    0    0  501    0  0.00000000000E+00  0.00000000000E+00  0.27817791976E+04  0.27817791976E+04  0.00000000000E+00 0.  1.
         -2   -1    0    0    0  501 -0.00000000000E+00 -0.00000000000E+00 -0.80763266110E+03  0.80763266110E+03  0.00000000000E+00 0. -1.
    2000013    1    1    2    0    0  0.10875910830E+04 -0.39580585660E+03  0.90551993572E+03  0.17498522778E+04  0.95000000000E+03 0.  0.
   -2000013    1    1    2    0    0 -0.10875910830E+04  0.39580585660E+03  0.10686266008E+04  0.18395595810E+04  0.95000000000E+03 0.  0.
<mgrwt>
<rscale>  0 0.29977697E+04</rscale>
<asrwt>0</asrwt>
<pdfrwt beam="1">  1        2 0.42796602E+00 0.29977697E+04</pdfrwt>
<pdfrwt beam="2">  1       -2 0.12425118E+00 0.29977697E+04</pdfrwt>
<totfact> 0.98805098E-01</totfact>
</mgrwt>
</event>
<event>
 4    1  0.2048914E-008  0.2874693E+04  0.7816531E-02  0.8280447E-01
          2   -1    0    0  501    0  0.00000000000E+00  0.00000000000E+00  0.25847073116E+04  0.25847073116E+04  0.00000000000E+00 0.  1.
         -2   -1    0    0    0  501 -0.00000000000E+00 -0.00000000000E+00 -0.79930324406E+03  0.79930324406E+03  0.00000000000E+00 0. -1.
    2000013    1    1    2    0    0 -0.42255086771E+03 -0.95976398404E+03  0.11899674293E+04  0.18488425092E+04  0.95000000000E+03 0.  0.
   -2000013    1    1    2    0    0  0.42255086771E+03  0.95976398404E+03  0.59543663822E+03  0.15351680465E+04  0.95000000000E+03 0.  0.
<mgrwt>
<rscale>  0 0.28746930E+04</rscale>
<asrwt>0</asrwt>
<pdfrwt beam="1">  1        2 0.39764728E+00 0.28746930E+04</pdfrwt>
<pdfrwt beam="2">  1       -2 0.12296973E+00 0.28746930E+04</pdfrwt>
<totfact> 0.13419561E+00</totfact>
</mgrwt>
</event>
<event>
 4    1  0.2048914E-008  0.2322269E+04  0.7816531E-02  0.8469192E-01
          2   -1    0    0  501    0  0.00000000000E+00  0.00000000000E+00  0.15847423269E+04  0.15847423269E+04  0.00000000000E+00 0.  1.
         -2   -1    0    0    0  501 -0.00000000000E+00 -0.00000000000E+00 -0.85075850257E+03  0.85075850257E+03  0.00000000000E+00 0. -1.
    2000013    1    1    2    0    0 -0.48894219892E+03 -0.44862087757E+03  0.28986821173E+03  0.11945077421E+04  0.95000000000E+03 0.  0.
   -2000013    1    1    2    0    0  0.48894219892E+03  0.44862087757E+03  0.44411561263E+03  0.12409930874E+04  0.95000000000E+03 0.  0.
<mgrwt>
<rscale>  0 0.23222687E+04</rscale>
<asrwt>0</asrwt>
<pdfrwt beam="1">  1        2 0.24380651E+00 0.23222687E+04</pdfrwt>
<pdfrwt beam="2">  1       -2 0.13088592E+00 0.23222687E+04</pdfrwt>
<totfact> 0.43945178E+00</totfact>
</mgrwt>
</event>
<event>
 4    1  0.2048914E-008  0.2427668E+04  0.7816531E-02  0.8429217E-01
          2   -1    0    0  501    0  0.00000000000E+00  0.00000000000E+00  0.72799667994E+03  0.72799667994E+03  0.00000000000E+00 0.  1.
         -2   -1    0    0    0  501 -0.00000000000E+00 -0.00000000000E+00 -0.20239008570E+04  0.20239008570E+04  0.00000000000E+00 0. -1.
    2000013    1    1    2    0    0  0.67873958252E+03 -0.32748737145E+03 -0.70960028608E+03  0.14049797028E+04  0.95000000000E+03 0.  0.
   -2000013    1    1    2    0    0 -0.67873958252E+03  0.32748737145E+03 -0.58630389103E+03  0.13469178342E+04  0.95000000000E+03 0.  0.
<mgrwt>
<rscale>  0 0.24276681E+04</rscale>
<asrwt>0</asrwt>
<pdfrwt beam="1">  1        2 0.11199949E+00 0.24276681E+04</pdfrwt>
<pdfrwt beam="2">  1       -2 0.31136936E+00 0.24276681E+04</pdfrwt>
<totfact> 0.94667472E-01</totfact>
</mgrwt>
</event>
<event>
 4    1  0.2048914E-008  0.2377433E+04  0.7816531E-02  0.8448001E-01
          2   -1    0    0  501    0  0.00000000000E+00  0.00000000000E+00  0.16611587019E+04  0.16611587019E+04  0.00000000000E+00 0.  1.
         -2   -1    0    0    0  501 -0.00000000000E+00 -0.00000000000E+00 -0.85063907298E+03  0.85063907298E+03  0.00000000000E+00 0. -1.
    2000013    1    1    2    0    0  0.11141624212E+03 -0.65975630299E+03  0.67013713536E+03  0.13413708430E+04  0.95000000000E+03 0.  0.
   -2000013    1    1    2    0    0 -0.11141624212E+03  0.65975630299E+03  0.14038249357E+03  0.11704269319E+04  0.95000000000E+03 0.  0.
<mgrwt>
<rscale>  0 0.23774326E+04</rscale>
<asrwt>0</asrwt>
<pdfrwt beam="1">  1        2 0.25556288E+00 0.23774326E+04</pdfrwt>
<pdfrwt beam="2">  1       -2 0.13086755E+00 0.23774326E+04</pdfrwt>
<totfact> 0.39662210E+00</totfact>
</mgrwt>
</event>
<event>
 4    1  0.2048914E-008  0.2246726E+04  0.7816531E-02  0.8499228E-01
         -2   -1    0    0    0  501 -0.00000000000E+00  0.00000000000E+00  0.61068519192E+03  0.61068519192E+03  0.00000000000E+00 0. -1.
          2   -1    0    0  501    0  0.00000000000E+00 -0.00000000000E+00 -0.20664394277E+04  0.20664394277E+04  0.00000000000E+00 0.  1.
    2000013    1    1    2    0    0 -0.54476375359E+03 -0.19444274152E+03 -0.53997020596E+03  0.12363831729E+04  0.95000000000E+03 0.  0.
   -2000013    1    1    2    0    0  0.54476375359E+03  0.19444274152E+03 -0.91578402983E+03  0.14407414467E+04  0.95000000000E+03 0.  0.
<mgrwt>
<rscale>  0 0.22467256E+04</rscale>
<asrwt>0</asrwt>
<pdfrwt beam="2">  1        2 0.31791376E+00 0.22467256E+04</pdfrwt>
<pdfrwt beam="1">  1       -2 0.93951568E-01 0.22467256E+04</pdfrwt>
<totfact> 0.53427346E+00</totfact>
</mgrwt>
</event>
<event>
 4    1  0.2048914E-008  0.2225764E+04  0.7816531E-02  0.8507781E-01
         -2   -1    0    0    0  501 -0.00000000000E+00  0.00000000000E+00  0.47087991393E+03  0.47087991393E+03  0.00000000000E+00 0. -1.
          2   -1    0    0  501    0  0.00000000000E+00 -0.00000000000E+00 -0.26301953637E+04  0.26301953637E+04  0.00000000000E+00 0.  1.
    2000013    1    1    2    0    0  0.45419062795E+03 -0.13622604043E+03 -0.15441799848E+04  0.18739899909E+04  0.95000000000E+03 0.  0.
   -2000013    1    1    2    0    0 -0.45419062795E+03  0.13622604043E+03 -0.61513546497E+03  0.12270852867E+04  0.95000000000E+03 0.  0.
<mgrwt>
<rscale>  0 0.22257638E+04</rscale>
<asrwt>0</asrwt>
<pdfrwt beam="2">  1        2 0.40464544E+00 0.22257638E+04</pdfrwt>
<pdfrwt beam="1">  1       -2 0.72443064E-01 0.22257638E+04</pdfrwt>
<totfact> 0.45947666E+00</totfact>
</mgrwt>
</event>
<event>
 4    1  0.2048914E-008  0.2121222E+04  0.7816531E-02  0.8551952E-01
         -1   -1    0    0    0  501 -0.00000000000E+00  0.00000000000E+00  0.78333569813E+03  0.78333569813E+03  0.00000000000E+00 0. -1.
          1   -1    0    0  501    0  0.00000000000E+00 -0.00000000000E+00 -0.14360321148E+04  0.14360321148E+04  0.00000000000E+00 0.  1.
    2000013    1    1    2    0    0 -0.11917252659E+03 -0.36468809014E+03 -0.39442078249E+02  0.10253073548E+04  0.95000000000E+03 0.  0.
   -2000013    1    1    2    0    0  0.11917252659E+03  0.36468809014E+03 -0.61325433845E+03  0.11940604582E+04  0.95000000000E+03 0.  0.
<mgrwt>
<rscale>  0 0.21212216E+04</rscale>
<asrwt>0</asrwt>
<pdfrwt beam="2">  1        1 0.22092802E+00 0.21212216E+04</pdfrwt>
<pdfrwt beam="1">  1       -1 0.12051318E+00 0.21212216E+04</pdfrwt>
<totfact> 0.40765551E+00</totfact>
</mgrwt>
</event>
<event>
 4    1  0.2048914E-008  0.2282930E+04  0.7816531E-02  0.8484682E-01
          2   -1    0    0  501    0  0.00000000000E+00  0.00000000000E+00  0.25726558089E+04  0.25726558089E+04  0.00000000000E+00 0.  1.
         -2   -1    0    0    0  501 -0.00000000000E+00 -0.00000000000E+00 -0.50645797572E+03  0.50645797572E+03  0.00000000000E+00 0. -1.
    2000013    1    1    2    0    0  0.45177970700E+03  0.13784257629E+03  0.16010780075E+04  0.19206916113E+04  0.95000000000E+03 0.  0.
   -2000013    1    1    2    0    0 -0.45177970700E+03 -0.13784257629E+03  0.46511982570E+03  0.11584221734E+04  0.95000000000E+03 0.  0.
<mgrwt>
<rscale>  0 0.22829297E+04</rscale>
<asrwt>0</asrwt>
<pdfrwt beam="1">  1        2 0.39579320E+00 0.22829297E+04</pdfrwt>
<pdfrwt beam="2">  1       -2 0.77916613E-01 0.22829297E+04</pdfrwt>
<totfact> 0.42048862E+00</totfact>
</mgrwt>
</event>
<event>
 4    1  0.2048914E-008  0.2635248E+04  0.7816531E-02  0.8356326E-01
         -2   -1    0    0    0  501 -0.00000000000E+00  0.00000000000E+00  0.11848378460E+04  0.11848378460E+04  0.00000000000E+00 0. -1.
          2   -1    0    0  501    0  0.00000000000E+00 -0.00000000000E+00 -0.14652920851E+04  0.14652920851E+04  0.00000000000E+00 0.  1.
    2000013    1    1    2    0    0 -0.72340678609E+03 -0.54747281588E+03 -0.24371429413E+03  0.13360166614E+04  0.95000000000E+03 0.  0.
   -2000013    1    1    2    0    0  0.72340678609E+03  0.54747281588E+03 -0.36739944977E+02  0.13141132698E+04  0.95000000000E+03 0.  0.
<mgrwt>
<rscale>  0 0.26352484E+04</rscale>
<asrwt>0</asrwt>
<pdfrwt beam="2">  1        2 0.22542955E+00 0.26352484E+04</pdfrwt>
<pdfrwt beam="1">  1       -2 0.18228275E+00 0.26352484E+04</pdfrwt>
<totfact> 0.20488324E+00</totfact>
</mgrwt>
</event>
<event>
 4    1  0.2048914E-008  0.2980694E+04  0.7816531E-02  0.8249265E-01
          2   -1    0    0  501    0  0.00000000000E+00  0.00000000000E+00  0.15003468014E+04  0.15003468014E+04  0.00000000000E+00 0.  1.
         -2   -1    0    0    0  501 -0.00000000000E+00 -0.00000000000E+00 -0.14804143234E+04  0.14804143234E+04  0.00000000000E+00 0. -1.
    2000013    1    1    2    0    0 -0.61059228055E+03  0.68487169181E+03  0.70046174778E+03  0.14949979356E+04  0.95000000000E+03 0.  0.
   -2000013    1    1    2    0    0  0.61059228055E+03 -0.68487169181E+03 -0.68052926984E+03  0.14857631892E+04  0.95000000000E+03 0.  0.
<mgrwt>
<rscale>  0 0.29806945E+04</rscale>
<asrwt>0</asrwt>
<pdfrwt beam="1">  1        2 0.23082259E+00 0.29806945E+04</pdfrwt>
<pdfrwt beam="2">  1       -2 0.22775605E+00 0.29806945E+04</pdfrwt>
<totfact> 0.96076464E-01</totfact>
</mgrwt>
</event>
<event>
 4    1  0.2048914E-008  0.2173858E+04  0.7816531E-02  0.8529388E-01
          2   -1    0    0  501    0  0.00000000000E+00  0.00000000000E+00  0.19178461404E+04  0.19178461404E+04  0.00000000000E+00 0.  1.
         -2   -1    0    0    0  501 -0.00000000000E+00 -0.00000000000E+00 -0.61601128838E+03  0.61601128838E+03  0.00000000000E+00 0. -1.
    2000013    1    1    2    0    0  0.19330206610E+03  0.38696223999E+03  0.29773868352E+03  0.10854739921E+04  0.95000000000E+03 0.  0.
   -2000013    1    1    2    0    0 -0.19330206610E+03 -0.38696223999E+03  0.10040961685E+04  0.14483834366E+04  0.95000000000E+03 0.  0.
<mgrwt>
<rscale>  0 0.21738582E+04</rscale>
<asrwt>0</asrwt>
<pdfrwt beam="1">  1        2 0.29505325E+00 0.21738582E+04</pdfrwt>
<pdfrwt beam="2">  1       -2 0.94770968E-01 0.21738582E+04</pdfrwt>
<totfact> 0.63719593E+00</totfact>
</mgrwt>
</event>
<event>
 4    1  0.2048914E-008  0.2200645E+04  0.7816531E-02  0.8518160E-01
         -2   -1    0    0    0  501 -0.00000000000E+00  0.00000000000E+00  0.52750192891E+03  0.52750192891E+03  0.00000000000E+00 0. -1.
          2   -1    0    0  501    0  0.00000000000E+00 -0.00000000000E+00 -0.22951758731E+04  0.22951758731E+04  0.00000000000E+00 0.  1.
    2000013    1    1    2    0    0 -0.52117556287E+03 -0.45181594842E+02 -0.11222334606E+04  0.15606323347E+04  0.95000000000E+03 0.  0.
   -2000013    1    1    2    0    0  0.52117556287E+03  0.45181594842E+02 -0.64544048355E+03  0.12620454673E+04  0.95000000000E+03 0.  0.
<mgrwt>
<rscale>  0 0.22006451E+04</rscale>
<asrwt>0</asrwt>
<pdfrwt beam="2">  1        2 0.35310398E+00 0.22006451E+04</pdfrwt>
<pdfrwt beam="1">  1       -2 0.81154142E-01 0.22006451E+04</pdfrwt>
<totfact> 0.55803856E+00</totfact>
</mgrwt>
</event>
<event>
 4    1  0.2048914E-008  0.3087654E+04  0.7816531E-02  0.8219134E-01
          2   -1    0    0  501    0  0.00000000000E+00  0.00000000000E+00  0.11093072797E+04  0.11093072797E+04  0.00000000000E+00 0.  1.
         -2   -1    0    0    0  501 -0.00000000000E+00 -0.00000000000E+00 -0.21485498209E+04  0.21485498209E+04  0.00000000000E+00 0. -1.
    2000013    1    1    2    0    0  0.88575640953E+03 -0.58501016335E+03  0.10824441822E+03  0.14286420694E+04  0.95000000000E+03 0.  0.
   -2000013    1    1    2    0    0 -0.88575640953E+03  0.58501016335E+03 -0.11474869594E+04  0.18292150312E+04  0.95000000000E+03 0.  0.
<mgrwt>
<rscale>  0 0.30876541E+04</rscale>
<asrwt>0</asrwt>
<pdfrwt beam="1">  1        2 0.17066266E+00 0.30876541E+04</pdfrwt>
<pdfrwt beam="2">  1       -2 0.33054612E+00 0.30876541E+04</pdfrwt>
<totfact> 0.37627428E-01</totfact>
</mgrwt>
</event>
<event>
 4    1  0.2048914E-008  0.3427110E+04  0.7816531E-02  0.8131285E-01
          2   -1    0    0  501    0  0.00000000000E+00  0.00000000000E+00  0.27782064623E+04  0.27782064623E+04  0.00000000000E+00 0.  1.
         -2   -1    0    0    0  501 -0.00000000000E+00 -0.00000000000E+00 -0.10568943047E+04  0.10568943047E+04  0.00000000000E+00 0. -1.
    2000013    1    1    2    0    0 -0.28734445037E+03 -0.10897425676E+04 -0.11725678409E+03  0.14786327638E+04  0.95000000000E+03 0.  0.
   -2000013    1    1    2    0    0  0.28734445037E+03  0.10897425676E+04  0.18385689416E+04  0.23564680032E+04  0.95000000000E+03 0.  0.
<mgrwt>
<rscale>  0 0.34271099E+04</rscale>
<asrwt>0</asrwt>
<pdfrwt beam="1">  1        2 0.42741637E+00 0.34271099E+04</pdfrwt>
<pdfrwt beam="2">  1       -2 0.16259913E+00 0.34271099E+04</pdfrwt>
<totfact> 0.47472491E-01</totfact>
</mgrwt>
</event>
<event>
 4    1  0.2048914E-008  0.2962607E+04  0.7816531E-02  0.8254490E-01
         -2   -1    0    0    0  501 -0.00000000000E+00  0.00000000000E+00  0.26439261876E+04  0.26439261876E+04  0.00000000000E+00 0. -1.
          2   -1    0    0  501    0  0.00000000000E+00 -0.00000000000E+00 -0.82992488249E+03  0.82992488249E+03  0.00000000000E+00 0.  1.
    2000013    1    1    2    0    0 -0.80007553705E+03 -0.67084660689E+03  0.14334866428E+04  0.20118498925E+04  0.95000000000E+03 0.  0.
   -2000013    1    1    2    0    0  0.80007553705E+03  0.67084660689E+03  0.38051466229E+03  0.14620011776E+04  0.95000000000E+03 0.  0.
<mgrwt>
<rscale>  0 0.29626070E+04</rscale>
<asrwt>0</asrwt>
<pdfrwt beam="2">  1        2 0.12768075E+00 0.29626070E+04</pdfrwt>
<pdfrwt beam="1">  1       -2 0.40675787E+00 0.29626070E+04</pdfrwt>
<totfact> 0.18856096E-01</totfact>
</mgrwt>
</event>
<event>
 4    1  0.2048914E-008  0.3095888E+04  0.7816531E-02  0.8216867E-01
         -2   -1    0    0    0  501 -0.00000000000E+00  0.00000000000E+00  0.70149444907E+03  0.70149444907E+03  0.00000000000E+00 0. -1.
          2   -1    0    0  501    0  0.00000000000E+00 -0.00000000000E+00 -0.34157510094E+04  0.34157510094E+04  0.00000000000E+00 0.  1.
    2000013    1    1    2    0    0 -0.73202939851E+03 -0.60040460157E+03 -0.32932577443E+03  0.13810532906E+04  0.95000000000E+03 0.  0.
   -2000013    1    1    2    0    0  0.73202939851E+03  0.60040460157E+03 -0.23849307859E+04  0.27361921679E+04  0.95000000000E+03 0.  0.
<mgrwt>
<rscale>  0 0.30958878E+04</rscale>
<asrwt>0</asrwt>
<pdfrwt beam="2">  1        2 0.52550016E+00 0.30958878E+04</pdfrwt>
<pdfrwt beam="1">  1       -2 0.10792222E+00 0.30958878E+04</pdfrwt>
<totfact> 0.54291638E-01</totfact>
</mgrwt>
</event>
<event>
 4    1  0.2048914E-008  0.2185019E+04  0.7816531E-02  0.8524690E-01
          2   -1    0    0  501    0  0.00000000000E+00  0.00000000000E+00  0.19232279133E+04  0.19232279133E+04  0.00000000000E+00 0.  1.
         -2   -1    0    0    0  501 -0.00000000000E+00 -0.00000000000E+00 -0.62061127779E+03  0.62061127779E+03  0.00000000000E+00 0. -1.
    2000013    1    1    2    0    0 -0.50052363275E+03  0.79721285465E+02  0.43601433171E+03  0.11616746049E+04  0.95000000000E+03 0.  0.
   -2000013    1    1    2    0    0  0.50052363275E+03 -0.79721285465E+02  0.86660230384E+03  0.13821645862E+04  0.95000000000E+03 0.  0.
<mgrwt>
<rscale>  0 0.21850189E+04</rscale>
<asrwt>0</asrwt>
<pdfrwt beam="1">  1        2 0.29588122E+00 0.21850189E+04</pdfrwt>
<pdfrwt beam="2">  1       -2 0.95478659E-01 0.21850189E+04</pdfrwt>
<totfact> 0.62133560E+00</totfact>
</mgrwt>
</event>
<event>
 4    1  0.2048914E-008  0.2636349E+04  0.7816531E-02  0.8355958E-01
         -2   -1    0    0    0  501 -0.00000000000E+00  0.00000000000E+00  0.16566417888E+04  0.16566417888E+04  0.00000000000E+00 0. -1.
          2   -1    0    0  501    0  0.00000000000E+00 -0.00000000000E+00 -0.10488591134E+04  0.10488591134E+04  0.00000000000E+00 0.  1.
    2000013    1    1    2    0    0 -0.41724455678E+03  0.47677960707E+03 -0.37192005184E+03  0.12009314464E+04  0.95000000000E+03 0.  0.
   -2000013    1    1    2    0    0  0.41724455678E+03 -0.47677960707E+03  0.97970272726E+03  0.15045694559E+04  0.95000000000E+03 0.  0.
<mgrwt>
<rscale>  0 0.26363489E+04</rscale>
<asrwt>0</asrwt>
<pdfrwt beam="2">  1        2 0.16136294E+00 0.26363489E+04</pdfrwt>
<pdfrwt beam="1">  1       -2 0.25486797E+00 0.26363489E+04</pdfrwt>
<totfact> 0.12402709E+00</totfact>
</mgrwt>
</event>
<event>
 4    1  0.2048914E-008  0.2398560E+04  0.7816531E-02  0.8440043E-01
          2   -1    0    0  501    0  0.00000000000E+00  0.00000000000E+00  0.12758905426E+04  0.12758905426E+04  0.00000000000E+00 0.  1.
         -2   -1    0    0    0  501 -0.00000000000E+00 -0.00000000000E+00 -0.11272696907E+04  0.11272696907E+04  0.00000000000E+00 0. -1.
    2000013    1    1    2    0    0  0.42150030159E+03  0.59586682967E+03  0.12966993936E+03  0.12050037660E+04  0.95000000000E+03 0.  0.
   -2000013    1    1    2    0    0 -0.42150030159E+03 -0.59586682967E+03  0.18950912607E+02  0.11981564673E+04  0.95000000000E+03 0.  0.
<mgrwt>
<rscale>  0 0.23985602E+04</rscale>
<asrwt>0</asrwt>
<pdfrwt beam="1">  1        2 0.19629085E+00 0.23985602E+04</pdfrwt>
<pdfrwt beam="2">  1       -2 0.17342611E+00 0.23985602E+04</pdfrwt>
<totfact> 0.30958346E+00</totfact>
</mgrwt>
</event>
<event>
 4    1  0.2048914E-008  0.2300433E+04  0.7816531E-02  0.8477751E-01
          2   -1    0    0  501    0  0.00000000000E+00  0.00000000000E+00  0.24922460182E+04  0.24922460182E+04  0.00000000000E+00 0.  1.
         -2   -1    0    0    0  501 -0.00000000000E+00 -0.00000000000E+00 -0.53084545275E+03  0.53084545275E+03  0.00000000000E+00 0. -1.
    2000013    1    1    2    0    0 -0.36550102665E+03 -0.61465312920E+01  0.27684502689E+03  0.10548800639E+04  0.95000000000E+03 0.  0.
   -2000013    1    1    2    0    0  0.36550102665E+03  0.61465312920E+01  0.16845555386E+04  0.19682114071E+04  0.95000000000E+03 0.  0.
<mgrwt>
<rscale>  0 0.23004325E+04</rscale>
<asrwt>0</asrwt>
<pdfrwt beam="1">  1        2 0.38342246E+00 0.23004325E+04</pdfrwt>
<pdfrwt beam="2">  1       -2 0.81668533E-01 0.23004325E+04</pdfrwt>
<totfact> 0.42071006E+00</totfact>
</mgrwt>
</event>
<event>
 4    1  0.2048914E-008  0.3031684E+04  0.7816531E-02  0.8234741E-01
         -2   -1    0    0    0  501 -0.00000000000E+00  0.00000000000E+00  0.15827141536E+04  0.15827141536E+04  0.00000000000E+00 0. -1.
          2   -1    0    0  501    0  0.00000000000E+00 -0.00000000000E+00 -0.14517949342E+04  0.14517949342E+04  0.00000000000E+00 0.  1.
    2000013    1    1    2    0    0 -0.97471996447E+03 -0.60298960750E+03  0.35138457619E+03  0.15295903361E+04  0.95000000000E+03 0.  0.
   -2000013    1    1    2    0    0  0.97471996447E+03  0.60298960750E+03 -0.22046535676E+03  0.15049187518E+04  0.95000000000E+03 0.  0.
<mgrwt>
<rscale>  0 0.30316836E+04</rscale>
<asrwt>0</asrwt>
<pdfrwt beam="2">  1        2 0.22335307E+00 0.30316836E+04</pdfrwt>
<pdfrwt beam="1">  1       -2 0.24349449E+00 0.30316836E+04</pdfrwt>
<totfact> 0.81347948E-01</totfact>
</mgrwt>
</event>
<event>
 4    1  0.2048914E-008  0.2185069E+04  0.7816531E-02  0.8524669E-01
          2   -1    0    0  501    0  0.00000000000E+00  0.00000000000E+00  0.10700093992E+04  0.10700093992E+04  0.00000000000E+00 0.  1.
         -2   -1    0    0    0  501 -0.00000000000E+00 -0.00000000000E+00 -0.11155335308E+04  0.11155335308E+04  0.00000000000E+00 0. -1.
    2000013    1    1    2    0    0  0.27939047593E+03 -0.43120052205E+03 -0.18753528766E+03  0.10962036364E+04  0.95000000000E+03 0.  0.
   -2000013    1    1    2    0    0 -0.27939047593E+03  0.43120052205E+03  0.14201115599E+03  0.10893392936E+04  0.95000000000E+03 0.  0.
<mgrwt>
<rscale>  0 0.21850688E+04</rscale>
<asrwt>0</asrwt>
<pdfrwt beam="1">  1        2 0.16461683E+00 0.21850688E+04</pdfrwt>
<pdfrwt beam="2">  1       -2 0.17162054E+00 0.21850688E+04</pdfrwt>
<totfact> 0.43193287E+00</totfact>
</mgrwt>
</event>
<event>
 4    1  0.2048914E-008  0.2669303E+04  0.7816531E-02  0.8345034E-01
         -2   -1    0    0    0  501 -0.00000000000E+00  0.00000000000E+00  0.13374186927E+04  0.13374186927E+04  0.00000000000E+00 0. -1.
          2   -1    0    0  501    0  0.00000000000E+00 -0.00000000000E+00 -0.13318901763E+04  0.13318901763E+04  0.00000000000E+00 0.  1.
    2000013    1    1    2    0    0  0.79205629629E+03  0.37073361707E+03  0.34040121734E+03  0.13353537284E+04  0.95000000000E+03 0.  0.
   -2000013    1    1    2    0    0 -0.79205629629E+03 -0.37073361707E+03 -0.33487270090E+03  0.13339551406E+04  0.95000000000E+03 0.  0.
<mgrwt>
<rscale>  0 0.26693031E+04</rscale>
<asrwt>0</asrwt>
<pdfrwt beam="2">  1        2 0.20490618E+00 0.26693031E+04</pdfrwt>
<pdfrwt beam="1">  1       -2 0.20575672E+00 0.26693031E+04</pdfrwt>
<totfact> 0.16993139E+00</totfact>
</mgrwt>
</event>
<event>
 4    1  0.2048914E-008  0.2872541E+04  0.7816531E-02  0.8281094E-01
          2   -1    0    0  501    0  0.00000000000E+00  0.00000000000E+00  0.25259715661E+04  0.25259715661E+04  0.00000000000E+00 0.  1.
         -2   -1    0    0    0  501 -0.00000000000E+00 -0.00000000000E+00 -0.81666526120E+03  0.81666526120E+03  0.00000000000E+00 0. -1.
    2000013    1    1    2    0    0  0.44635514893E+03 -0.97307734430E+03  0.71569157079E+03  0.16002583733E+04  0.95000000000E+03 0.  0.
   -2000013    1    1    2    0    0 -0.44635514893E+03  0.97307734430E+03  0.99361473411E+03  0.17423784540E+04  0.95000000000E+03 0.  0.
<mgrwt>
<rscale>  0 0.28725412E+04</rscale>
<asrwt>0</asrwt>
<pdfrwt beam="1">  1        2 0.38861101E+00 0.28725412E+04</pdfrwt>
<pdfrwt beam="2">  1       -2 0.12564081E+00 0.28725412E+04</pdfrwt>
<totfact> 0.13763584E+00</totfact>
</mgrwt>
</event>
<event>
 4    1  0.2048914E-008  0.2351435E+04  0.7816531E-02  0.8457913E-01
          2   -1    0    0  501    0  0.00000000000E+00  0.00000000000E+00  0.24457615676E+04  0.24457615676E+04  0.00000000000E+00 0.  1.
         -2   -1    0    0    0  501 -0.00000000000E+00 -0.00000000000E+00 -0.56518636581E+03  0.56518636581E+03  0.00000000000E+00 0. -1.
    2000013    1    1    2    0    0  0.15546342742E+03 -0.66394874334E+03  0.10961389772E+04  0.16028154817E+04  0.95000000000E+03 0.  0.
   -2000013    1    1    2    0    0 -0.15546342742E+03  0.66394874334E+03  0.78443622455E+03  0.14081324517E+04  0.95000000000E+03 0.  0.
<mgrwt>
<rscale>  0 0.23514345E+04</rscale>
<asrwt>0</asrwt>
<pdfrwt beam="1">  1        2 0.37627100E+00 0.23514345E+04</pdfrwt>
<pdfrwt beam="2">  1       -2 0.86951750E-01 0.23514345E+04</pdfrwt>
<totfact> 0.38641693E+00</totfact>
</mgrwt>
</event>
<event>
 4    1  0.2048914E-008  0.2156072E+04  0.7816531E-02  0.8536938E-01
          2   -1    0    0  501    0  0.00000000000E+00  0.00000000000E+00  0.21217360366E+04  0.21217360366E+04  0.00000000000E+00 0.  1.
         -2   -1    0    0    0  501 -0.00000000000E+00 -0.00000000000E+00 -0.54774085764E+03  0.54774085764E+03  0.00000000000E+00 0. -1.
    2000013    1    1    2    0    0 -0.42741728309E+03  0.17717685493E+03  0.52265278271E+03  0.11788736587E+04  0.95000000000E+03 0.  0.
   -2000013    1    1    2    0    0  0.42741728309E+03 -0.17717685493E+03  0.10513423963E+04  0.14906032356E+04  0.95000000000E+03 0.  0.
<mgrwt>
<rscale>  0 0.21560719E+04</rscale>
<asrwt>0</asrwt>
<pdfrwt beam="1">  1        2 0.32642093E+00 0.21560719E+04</pdfrwt>
<pdfrwt beam="2">  1       -2 0.84267825E-01 0.21560719E+04</pdfrwt>
<totfact> 0.64402516E+00</totfact>
</mgrwt>
</event>
<event>
 4    1  0.2048914E-008  0.2484559E+04  0.7816531E-02  0.8408507E-01
          2   -1    0    0  501    0  0.00000000000E+00  0.00000000000E+00  0.23828294922E+04  0.23828294922E+04  0.00000000000E+00 0.  1.
         -2   -1    0    0    0  501 -0.00000000000E+00 -0.00000000000E+00 -0.64765789004E+03  0.64765789004E+03  0.00000000000E+00 0. -1.
    2000013    1    1    2    0    0  0.28646333603E+03  0.74190992304E+03  0.97848551533E+03  0.15787417396E+04  0.95000000000E+03 0.  0.
   -2000013    1    1    2    0    0 -0.28646333603E+03 -0.74190992304E+03  0.75668608685E+03  0.14517456426E+04  0.95000000000E+03 0.  0.
<mgrwt>
<rscale>  0 0.24845590E+04</rscale>
<asrwt>0</asrwt>
<pdfrwt beam="1">  1        2 0.36658915E+00 0.24845590E+04</pdfrwt>
<pdfrwt beam="2">  1       -2 0.99639677E-01 0.24845590E+04</pdfrwt>
<totfact> 0.30249298E+00</totfact>
</mgrwt>
</event>
<event>
 4    1  0.2048914E-008  0.3411077E+04  0.7816531E-02  0.8135193E-01
         -2   -1    0    0    0  501 -0.00000000000E+00  0.00000000000E+00  0.15569047379E+04  0.15569047379E+04  0.00000000000E+00 0. -1.
          2   -1    0    0  501    0  0.00000000000E+00 -0.00000000000E+00 -0.18683621533E+04  0.18683621533E+04  0.00000000000E+00 0.  1.
    2000013    1    1    2    0    0 -0.13616727209E+04  0.12803765052E+03 -0.52579350814E+03  0.17462832107E+04  0.95000000000E+03 0.  0.
   -2000013    1    1    2    0    0  0.13616727209E+04 -0.12803765052E+03  0.21433609267E+03  0.16789836805E+04  0.95000000000E+03 0.  0.
<mgrwt>
<rscale>  0 0.34110772E+04</rscale>
<asrwt>0</asrwt>
<pdfrwt beam="2">  1        2 0.28744033E+00 0.34110772E+04</pdfrwt>
<pdfrwt beam="1">  1       -2 0.23952381E+00 0.34110772E+04</pdfrwt>
<totfact> 0.48811683E-01</totfact>
</mgrwt>
</event>
<event>
 4    1  0.2048914E-008  0.2854326E+04  0.7816531E-02  0.8286598E-01
         -2   -1    0    0    0  501 -0.00000000000E+00  0.00000000000E+00  0.12676716348E+04  0.12676716348E+04  0.00000000000E+00 0. -1.
          2   -1    0    0  501    0  0.00000000000E+00 -0.00000000000E+00 -0.16067210108E+04  0.16067210108E+04  0.00000000000E+00 0.  1.
    2000013    1    1    2    0    0  0.68645217314E+03  0.81296441840E+03 -0.12264725737E+03  0.14316668891E+04  0.95000000000E+03 0.  0.
   -2000013    1    1    2    0    0 -0.68645217314E+03 -0.81296441840E+03 -0.21640211857E+03  0.14427257565E+04  0.95000000000E+03 0.  0.
<mgrwt>
<rscale>  0 0.28543263E+04</rscale>
<asrwt>0</asrwt>
<pdfrwt beam="2">  1        2 0.24718785E+00 0.28543263E+04</pdfrwt>
<pdfrwt beam="1">  1       -2 0.19502641E+00 0.28543263E+04</pdfrwt>
<totfact> 0.13741650E+00</totfact>
</mgrwt>
</event>
<event>
 4    1  0.2048914E-008  0.2510462E+04  0.7816531E-02  0.8399268E-01
          2   -1    0    0  501    0  0.00000000000E+00  0.00000000000E+00  0.20444321825E+04  0.20444321825E+04  0.00000000000E+00 0.  1.
         -2   -1    0    0    0  501 -0.00000000000E+00 -0.00000000000E+00 -0.77068072913E+03  0.77068072913E+03  0.00000000000E+00 0. -1.
    2000013    1    1    2    0    0 -0.65494157545E+03 -0.22152465516E+03  0.14159462264E+03  0.11834570872E+04  0.95000000000E+03 0.  0.
   -2000013    1    1    2    0    0  0.65494157545E+03  0.22152465516E+03  0.11321568308E+04  0.16316558245E+04  0.95000000000E+03 0.  0.
<mgrwt>
<rscale>  0 0.25104617E+04</rscale>
<asrwt>0</asrwt>
<pdfrwt beam="1">  1        2 0.31452803E+00 0.25104617E+04</pdfrwt>
<pdfrwt beam="2">  1       -2 0.11856627E+00 0.25104617E+04</pdfrwt>
<totfact> 0.30767321E+00</totfact>
</mgrwt>
</event>
<event>
 4    1  0.2048914E-008  0.2118565E+04  0.7816531E-02  0.8553109E-01
         -2   -1    0    0    0  501 -0.00000000000E+00  0.00000000000E+00  0.19273518164E+04  0.19273518164E+04  0.00000000000E+00 0. -1.
          2   -1    0    0  501    0  0.00000000000E+00 -0.00000000000E+00 -0.58218721634E+03  0.58218721634E+03  0.00000000000E+00 0.  1.
    2000013    1    1    2    0    0 -0.33801558480E+03 -0.22631111964E+03  0.94812200870E+03  0.14024644744E+04  0.95000000000E+03 0.  0.
   -2000013    1    1    2    0    0  0.33801558480E+03  0.22631111964E+03  0.39704259132E+03  0.11070745584E+04  0.95000000000E+03 0.  0.
<mgrwt>
<rscale>  0 0.21185652E+04</rscale>
<asrwt>0</asrwt>
<pdfrwt beam="2">  1        2 0.89567265E-01 0.21185652E+04</pdfrwt>
<pdfrwt beam="1">  1       -2 0.29651566E+00 0.21185652E+04</pdfrwt>
<totfact> 0.15809831E+00</totfact>
</mgrwt>
</event>
<event>
 4    1  0.2048914E-008  0.2263854E+04  0.7816531E-02  0.8492311E-01
         -1   -1    0    0    0  501 -0.00000000000E+00  0.00000000000E+00  0.97636412327E+03  0.97636412327E+03  0.00000000000E+00 0. -1.
          1   -1    0    0  501    0  0.00000000000E+00 -0.00000000000E+00 -0.13122756703E+04  0.13122756703E+04  0.00000000000E+00 0.  1.
    2000013    1    1    2    0    0 -0.19892693589E+03 -0.57510655957E+03 -0.75083755272E+02  0.11306887507E+04  0.95000000000E+03 0.  0.
   -2000013    1    1    2    0    0  0.19892693589E+03  0.57510655957E+03 -0.26082779175E+03  0.11579510428E+04  0.95000000000E+03 0.  0.
<mgrwt>
<rscale>  0 0.22638541E+04</rscale>
<asrwt>0</asrwt>
<pdfrwt beam="2">  1        1 0.20188856E+00 0.22638541E+04</pdfrwt>
<pdfrwt beam="1">  1       -1 0.15020987E+00 0.22638541E+04</pdfrwt>
<totfact> 0.27939769E+00</totfact>
</mgrwt>
</event>
<event>
 4    1  0.2048914E-008  0.2332079E+04  0.7816531E-02  0.8465379E-01
          2   -1    0    0  501    0  0.00000000000E+00  0.00000000000E+00  0.62518764756E+03  0.62518764756E+03  0.00000000000E+00 0.  1.
         -2   -1    0    0    0  501 -0.00000000000E+00 -0.00000000000E+00 -0.21747839518E+04  0.21747839518E+04  0.00000000000E+00 0. -1.
    2000013    1    1    2    0    0 -0.44596439112E+03  0.23046561879E+03 -0.23099023438E+03  0.10990246257E+04  0.95000000000E+03 0.  0.
   -2000013    1    1    2    0    0  0.44596439112E+03 -0.23046561879E+03 -0.13186060698E+04  0.17009469736E+04  0.95000000000E+03 0.  0.
<mgrwt>
<rscale>  0 0.23320790E+04</rscale>
<asrwt>0</asrwt>
<pdfrwt beam="1">  1        2 0.96182715E-01 0.23320790E+04</pdfrwt>
<pdfrwt beam="2">  1       -2 0.33458215E+00 0.23320790E+04</pdfrwt>
<totfact> 0.82981008E-01</totfact>
</mgrwt>
</event>
<event>
 4    1  0.2048914E-008  0.2695476E+04  0.7816531E-02  0.8336474E-01
         -2   -1    0    0    0  501 -0.00000000000E+00  0.00000000000E+00  0.11685891132E+04  0.11685891132E+04  0.00000000000E+00 0. -1.
          2   -1    0    0  501    0  0.00000000000E+00 -0.00000000000E+00 -0.15543514793E+04  0.15543514793E+04  0.00000000000E+00 0.  1.
    2000013    1    1    2    0    0  0.86266031431E+03  0.16575846326E+03 -0.57387049528E+03  0.14154455240E+04  0.95000000000E+03 0.  0.
   -2000013    1    1    2    0    0 -0.86266031431E+03 -0.16575846326E+03  0.18810812917E+03  0.13074950686E+04  0.95000000000E+03 0.  0.
<mgrwt>
<rscale>  0 0.26954764E+04</rscale>
<asrwt>0</asrwt>
<pdfrwt beam="2">  1        2 0.23913100E+00 0.26954764E+04</pdfrwt>
<pdfrwt beam="1">  1       -2 0.17978294E+00 0.26954764E+04</pdfrwt>
<totfact> 0.18892819E+00</totfact>
</mgrwt>
</event>
<event>
 4    1  0.2048914E-008  0.2706378E+04  0.7816531E-02  0.8332939E-01
         -1   -1    0    0    0  501 -0.00000000000E+00  0.00000000000E+00  0.44360972409E+03  0.44360972409E+03  0.00000000000E+00 0. -1.
          1   -1    0    0  501    0  0.00000000000E+00 -0.00000000000E+00 -0.41277723621E+04  0.41277723621E+04  0.00000000000E+00 0.  1.
    2000013    1    1    2    0    0 -0.18976805895E+03  0.79109912799E+03 -0.96965693526E+03  0.15825878549E+04  0.95000000000E+03 0.  0.
   -2000013    1    1    2    0    0  0.18976805895E+03 -0.79109912799E+03 -0.27145057027E+04  0.29887942312E+04  0.95000000000E+03 0.  0.
<mgrwt>
<rscale>  0 0.27063776E+04</rscale>
<asrwt>0</asrwt>
<pdfrwt beam="2">  1        1 0.63504189E+00 0.27063776E+04</pdfrwt>
<pdfrwt beam="1">  1       -1 0.68247651E-01 0.27063776E+04</pdfrwt>
<totfact> 0.13999431E-01</totfact>
</mgrwt>
</event>
<event>
 4    1  0.2048914E-008  0.2980810E+04  0.7816531E-02  0.8249232E-01
          2   -1    0    0  501    0  0.00000000000E+00  0.00000000000E+00  0.22980866298E+04  0.22980866298E+04  0.00000000000E+00 0.  1.
         -2   -1    0    0    0  501 -0.00000000000E+00 -0.00000000000E+00 -0.96658986972E+03  0.96658986972E+03  0.00000000000E+00 0. -1.
    2000013    1    1    2    0    0 -0.19139089516E+03  0.11321364883E+04  0.64267683934E+03  0.16229285328E+04  0.95000000000E+03 0.  0.
   -2000013    1    1    2    0    0  0.19139089516E+03 -0.11321364883E+04  0.68881992075E+03  0.16417479667E+04  0.95000000000E+03 0.  0.
<mgrwt>
<rscale>  0 0.29808101E+04</rscale>
<asrwt>0</asrwt>
<pdfrwt beam="1">  1        2 0.35355179E+00 0.29808101E+04</pdfrwt>
<pdfrwt beam="2">  1       -2 0.14870613E+00 0.29808101E+04</pdfrwt>
<totfact> 0.11945401E+00</totfact>
</mgrwt>
</event>
<event>
 4    1  0.2048914E-008  0.4889124E+04  0.7816531E-02  0.7845842E-01
         -2   -1    0    0    0  501 -0.00000000000E+00  0.00000000000E+00  0.19144197185E+04  0.19144197185E+04  0.00000000000E+00 0. -1.
          2   -1    0    0  501    0  0.00000000000E+00 -0.00000000000E+00 -0.31215121621E+04  0.31215121621E+04  0.00000000000E+00 0.  1.
    2000013    1    1    2    0    0  0.75362855645E+03 -0.21217408849E+04 -0.66572482576E+03  0.25328698995E+04  0.95000000000E+03 0.  0.
   -2000013    1    1    2    0    0 -0.75362855645E+03  0.21217408849E+04 -0.54136761785E+03  0.25030619812E+04  0.95000000000E+03 0.  0.
<mgrwt>
<rscale>  0 0.48891244E+04</rscale>
<asrwt>0</asrwt>
<pdfrwt beam="2">  1        2 0.48023263E+00 0.48891244E+04</pdfrwt>
<pdfrwt beam="1">  1       -2 0.29452612E+00 0.48891244E+04</pdfrwt>
<totfact> 0.36730686E-02</totfact>
</mgrwt>
</event>
<event>
 4    1  0.2048914E-008  0.2335908E+04  0.7816531E-02  0.8463896E-01
         -2   -1    0    0    0  501 -0.00000000000E+00  0.00000000000E+00  0.13322380466E+04  0.13322380466E+04  0.00000000000E+00 0. -1.
          2   -1    0    0  501    0  0.00000000000E+00 -0.00000000000E+00 -0.10239289026E+04  0.10239289026E+04  0.00000000000E+00 0.  1.
    2000013    1    1    2    0    0  0.93332308194E+02 -0.67199550595E+03  0.19091458413E+03  0.11828935955E+04  0.95000000000E+03 0.  0.
   -2000013    1    1    2    0    0 -0.93332308194E+02  0.67199550595E+03  0.11739455988E+03  0.11732733537E+04  0.95000000000E+03 0.  0.
<mgrwt>
<rscale>  0 0.23359084E+04</rscale>
<asrwt>0</asrwt>
<pdfrwt beam="2">  1        2 0.15752752E+00 0.23359084E+04</pdfrwt>
<pdfrwt beam="1">  1       -2 0.20495970E+00 0.23359084E+04</pdfrwt>
<totfact> 0.27125723E+00</totfact>
</mgrwt>
</event>
<event>
 4    1  0.2048914E-008  0.2621329E+04  0.7816531E-02  0.8360992E-01
         -2   -1    0    0    0  501 -0.00000000000E+00  0.00000000000E+00  0.11127389442E+04  0.11127389442E+04  0.00000000000E+00 0. -1.
          2   -1    0    0  501    0  0.00000000000E+00 -0.00000000000E+00 -0.15437951162E+04  0.15437951162E+04  0.00000000000E+00 0.  1.
    2000013    1    1    2    0    0  0.54059397916E+03 -0.58960223515E+03  0.20898712267E+03  0.12593840810E+04  0.95000000000E+03 0.  0.
   -2000013    1    1    2    0    0 -0.54059397916E+03  0.58960223515E+03 -0.64004329464E+03  0.13971499794E+04  0.95000000000E+03 0.  0.
<mgrwt>
<rscale>  0 0.26213286E+04</rscale>
<asrwt>0</asrwt>
<pdfrwt beam="2">  1        2 0.23750694E+00 0.26213286E+04</pdfrwt>
<pdfrwt beam="1">  1       -2 0.17119061E+00 0.26213286E+04</pdfrwt>
<totfact> 0.22136969E+00</totfact>
</mgrwt>
</event>
<event>
 4    1  0.2048914E-008  0.2518638E+04  0.7816531E-02  0.8396376E-01
         -2   -1    0    0    0  501 -0.00000000000E+00  0.00000000000E+00  0.16247758256E+04  0.16247758256E+04  0.00000000000E+00 0. -1.
          2   -1    0    0  501    0  0.00000000000E+00 -0.00000000000E+00 -0.97606338471E+03  0.97606338471E+03  0.00000000000E+00 0.  1.
    2000013    1    1    2    0    0 -0.11350669615E+03 -0.81562872441E+03  0.39917935997E+03  0.13190823127E+04  0.95000000000E+03 0.  0.
   -2000013    1    1    2    0    0  0.11350669615E+03  0.81562872441E+03  0.24953308091E+03  0.12817568976E+04  0.95000000000E+03 0.  0.
<mgrwt>
<rscale>  0 0.25186379E+04</rscale>
<asrwt>0</asrwt>
<pdfrwt beam="2">  1        2 0.15016360E+00 0.25186379E+04</pdfrwt>
<pdfrwt beam="1">  1       -2 0.24996551E+00 0.25186379E+04</pdfrwt>
<totfact> 0.14943356E+00</totfact>
</mgrwt>
</event>
<event>
 4    1  0.2048914E-008  0.2848116E+04  0.7816531E-02  0.8288484E-01
         -2   -1    0    0    0  501 -0.00000000000E+00  0.00000000000E+00  0.99899880185E+03  0.99899880185E+03  0.00000000000E+00 0. -1.
          2   -1    0    0  501    0  0.00000000000E+00 -0.00000000000E+00 -0.20299739746E+04  0.20299739746E+04  0.00000000000E+00 0.  1.
    2000013    1    1    2    0    0 -0.11999055768E+03  0.10508330026E+04 -0.60314631323E+03  0.15443228964E+04  0.95000000000E+03 0.  0.
   -2000013    1    1    2    0    0  0.11999055768E+03 -0.10508330026E+04 -0.42782885948E+03  0.14846498800E+04  0.95000000000E+03 0.  0.
<mgrwt>
<rscale>  0 0.28481163E+04</rscale>
<asrwt>0</asrwt>
<pdfrwt beam="2">  1        2 0.31230369E+00 0.28481163E+04</pdfrwt>
<pdfrwt beam="1">  1       -2 0.15369212E+00 0.28481163E+04</pdfrwt>
<totfact> 0.15649936E+00</totfact>
</mgrwt>
</event>
<event>
 4    1  0.2048914E-008  0.2235549E+04  0.7816531E-02  0.8503776E-01
          2   -1    0    0  501    0  0.00000000000E+00  0.00000000000E+00  0.28163635312E+04  0.28163635312E+04  0.00000000000E+00 0.  1.
         -2   -1    0    0    0  501 -0.00000000000E+00 -0.00000000000E+00 -0.44362886247E+03  0.44362886247E+03  0.00000000000E+00 0. -1.
    2000013    1    1    2    0    0  0.13002158095E+03 -0.51682533180E+03  0.15521126471E+04  0.18961982239E+04  0.95000000000E+03 0.  0.
   -2000013    1    1    2    0    0 -0.13002158095E+03  0.51682533180E+03  0.82062202169E+03  0.13637941698E+04  0.95000000000E+03 0.  0.
<mgrwt>
<rscale>  0 0.22355493E+04</rscale>
<asrwt>0</asrwt>
<pdfrwt beam="1">  1        2 0.43328669E+00 0.22355493E+04</pdfrwt>
<pdfrwt beam="2">  1       -2 0.68250596E-01 0.22355493E+04</pdfrwt>
<totfact> 0.40487628E+00</totfact>
</mgrwt>
</event>
<event>
 4    1  0.2048914E-008  0.2905462E+04  0.7816531E-02  0.8271254E-01
         -2   -1    0    0    0  501 -0.00000000000E+00  0.00000000000E+00  0.78804233915E+03  0.78804233915E+03  0.00000000000E+00 0. -1.
          2   -1    0    0  501    0  0.00000000000E+00 -0.00000000000E+00 -0.26780630377E+04  0.26780630377E+04  0.00000000000E+00 0.  1.
    2000013    1    1    2    0    0 -0.81864604131E+03 -0.29555284579E+03 -0.17456240253E+04  0.21696165706E+04  0.95000000000E+03 0.  0.
   -2000013    1    1    2    0    0  0.81864604131E+03  0.29555284579E+03 -0.14439667326E+03  0.12964888063E+04  0.95000000000E+03 0.  0.
<mgrwt>
<rscale>  0 0.29054618E+04</rscale>
<asrwt>0</asrwt>
<pdfrwt beam="2">  1        2 0.41200971E+00 0.29054618E+04</pdfrwt>
<pdfrwt beam="1">  1       -2 0.12123728E+00 0.29054618E+04</pdfrwt>
<totfact> 0.12215303E+00</totfact>
</mgrwt>
</event>
<event>
 4    1  0.2048914E-008  0.2006387E+04  0.7816531E-02  0.8603641E-01
          2   -1    0    0  501    0  0.00000000000E+00  0.00000000000E+00  0.13752287777E+04  0.13752287777E+04  0.00000000000E+00 0.  1.
         -2   -1    0    0    0  501 -0.00000000000E+00 -0.00000000000E+00 -0.73180318972E+03  0.73180318972E+03  0.00000000000E+00 0. -1.
    2000013    1    1    2    0    0  0.28975046399E+03 -0.92263640674E+02  0.43398147797E+03  0.10877995376E+04  0.95000000000E+03 0.  0.
   -2000013    1    1    2    0    0 -0.28975046399E+03  0.92263640674E+02  0.20944411000E+03  0.10192324298E+04  0.95000000000E+03 0.  0.
<mgrwt>
<rscale>  0 0.20063866E+04</rscale>
<asrwt>0</asrwt>
<pdfrwt beam="1">  1        2 0.21157366E+00 0.20063866E+04</pdfrwt>
<pdfrwt beam="2">  1       -2 0.11258511E+00 0.20063866E+04</pdfrwt>
<totfact> 0.86234351E+00</totfact>
</mgrwt>
</event>
<event>
 4    1  0.2048914E-008  0.2871194E+04  0.7816531E-02  0.8281500E-01
         -2   -1    0    0    0  501 -0.00000000000E+00  0.00000000000E+00  0.14910484686E+04  0.14910484686E+04  0.00000000000E+00 0. -1.
          2   -1    0    0  501    0  0.00000000000E+00 -0.00000000000E+00 -0.13822080570E+04  0.13822080570E+04  0.00000000000E+00 0.  1.
    2000013    1    1    2    0    0 -0.89602580276E+03  0.39454652689E+03  0.50185430738E+03  0.14535772931E+04  0.95000000000E+03 0.  0.
   -2000013    1    1    2    0    0  0.89602580276E+03 -0.39454652689E+03 -0.39301389581E+03  0.14196792326E+04  0.95000000000E+03 0.  0.
<mgrwt>
<rscale>  0 0.28711943E+04</rscale>
<asrwt>0</asrwt>
<pdfrwt beam="2">  1        2 0.21264739E+00 0.28711943E+04</pdfrwt>
<pdfrwt beam="1">  1       -2 0.22939207E+00 0.28711943E+04</pdfrwt>
<totfact> 0.11054814E+00</totfact>
</mgrwt>
</event>
<event>
 4    1  0.2048914E-008  0.3587265E+04  0.7816531E-02  0.8093415E-01
         -2   -1    0    0    0  501 -0.00000000000E+00  0.00000000000E+00  0.13219494113E+04  0.13219494113E+04  0.00000000000E+00 0. -1.
          2   -1    0    0  501    0  0.00000000000E+00 -0.00000000000E+00 -0.24336164552E+04  0.24336164552E+04  0.00000000000E+00 0.  1.
    2000013    1    1    2    0    0  0.10050309733E+04 -0.11180810335E+04 -0.31159584489E+03  0.18054873096E+04  0.95000000000E+03 0.  0.
   -2000013    1    1    2    0    0 -0.10050309733E+04  0.11180810335E+04 -0.80007119898E+03  0.19500785569E+04  0.95000000000E+03 0.  0.
<mgrwt>
<rscale>  0 0.35872652E+04</rscale>
<asrwt>0</asrwt>
<pdfrwt beam="2">  1        2 0.37440253E+00 0.35872652E+04</pdfrwt>
<pdfrwt beam="1">  1       -2 0.20337684E+00 0.35872652E+04</pdfrwt>
<totfact> 0.39212496E-01</totfact>
</mgrwt>
</event>
<event>
 4    1  0.2048914E-008  0.2422417E+04  0.7816531E-02  0.8431158E-01
         -2   -1    0    0    0  501 -0.00000000000E+00  0.00000000000E+00  0.52527714276E+03  0.52527714276E+03  0.00000000000E+00 0.  1.
          2   -1    0    0  501    0  0.00000000000E+00 -0.00000000000E+00 -0.27928607199E+04  0.27928607199E+04  0.00000000000E+00 0. -1.
    2000013    1    1    2    0    0  0.57572646754E+02  0.53526083813E+03 -0.41586443333E+03  0.11684442654E+04  0.95000000000E+03 0.  0.
   -2000013    1    1    2    0    0 -0.57572646754E+02 -0.53526083813E+03 -0.18517191438E+04  0.21496935973E+04  0.95000000000E+03 0.  0.
<mgrwt>
<rscale>  0 0.24224169E+04</rscale>
<asrwt>0</asrwt>
<pdfrwt beam="2">  1        2 0.42967088E+00 0.24224169E+04</pdfrwt>
<pdfrwt beam="1">  1       -2 0.80811869E-01 0.24224169E+04</pdfrwt>
<totfact> 0.28327992E+00</totfact>
</mgrwt>
</event>
<event>
 4    1  0.2048914E-008  0.2304739E+04  0.7816531E-02  0.8476055E-01
          2   -1    0    0  501    0  0.00000000000E+00  0.00000000000E+00  0.35351862579E+04  0.35351862579E+04  0.00000000000E+00 0.  1.
         -2   -1    0    0    0  501 -0.00000000000E+00 -0.00000000000E+00 -0.37563955497E+03  0.37563955497E+03  0.00000000000E+00 0. -1.
    2000013    1    1    2    0    0 -0.18113972547E+03 -0.58727413689E+03  0.12089660518E+04  0.16558385871E+04  0.95000000000E+03 0.  0.
   -2000013    1    1    2    0    0  0.18113972547E+03  0.58727413689E+03  0.19505806511E+04  0.22549872258E+04  0.95000000000E+03 0.  0.
<mgrwt>
<rscale>  0 0.23047393E+04</rscale>
<asrwt>0</asrwt>
<pdfrwt beam="1">  1        2 0.54387479E+00 0.23047393E+04</pdfrwt>
<pdfrwt beam="2">  1       -2 0.57790703E-01 0.23047393E+04</pdfrwt>
<totfact> 0.19563753E+00</totfact>
</mgrwt>
</event>
<event>
 4    1  0.2048914E-008  0.3051799E+04  0.7816531E-02  0.8229092E-01
          1   -1    0    0  501    0  0.00000000000E+00  0.00000000000E+00  0.25117028524E+04  0.25117028524E+04  0.00000000000E+00 0.  1.
         -1   -1    0    0    0  501 -0.00000000000E+00 -0.00000000000E+00 -0.92700801768E+03  0.92700801768E+03  0.00000000000E+00 0. -1.
    2000013    1    1    2    0    0  0.82838288300E+03 -0.49097610240E+03  0.15879805444E+04  0.20860148473E+04  0.95000000000E+03 0.  0.
   -2000013    1    1    2    0    0 -0.82838288300E+03  0.49097610240E+03 -0.32857096712E+01  0.13526960227E+04  0.95000000000E+03 0.  0.
<mgrwt>
<rscale>  0 0.30517986E+04</rscale>
<asrwt>0</asrwt>
<pdfrwt beam="1">  1        1 0.38641582E+00 0.30517986E+04</pdfrwt>
<pdfrwt beam="2">  1       -1 0.14261662E+00 0.30517986E+04</pdfrwt>
<totfact> 0.44959909E-01</totfact>
</mgrwt>
</event>
<event>
 4    1  0.2048914E-008  0.2940309E+04  0.7816531E-02  0.8260984E-01
          2   -1    0    0  501    0  0.00000000000E+00  0.00000000000E+00  0.30647888543E+04  0.30647888543E+04  0.00000000000E+00 0.  1.
         -2   -1    0    0    0  501 -0.00000000000E+00 -0.00000000000E+00 -0.70522116532E+03  0.70522116532E+03  0.00000000000E+00 0. -1.
    2000013    1    1    2    0    0  0.94316310942E+03 -0.60769747242E+03  0.11811275751E+04  0.18858460217E+04  0.95000000000E+03 0.  0.
   -2000013    1    1    2    0    0 -0.94316310942E+03  0.60769747242E+03  0.11784401138E+04  0.18841639979E+04  0.95000000000E+03 0.  0.
<mgrwt>
<rscale>  0 0.29403088E+04</rscale>
<asrwt>0</asrwt>
<pdfrwt beam="1">  1        2 0.47150597E+00 0.29403088E+04</pdfrwt>
<pdfrwt beam="2">  1       -2 0.10849557E+00 0.29403088E+04</pdfrwt>
<totfact> 0.92543720E-01</totfact>
</mgrwt>
</event>
<event>
 4    1  0.2048914E-008  0.2443296E+04  0.7816531E-02  0.8423470E-01
         -2   -1    0    0    0  501 -0.00000000000E+00  0.00000000000E+00  0.13928334318E+04  0.13928334318E+04  0.00000000000E+00 0. -1.
          2   -1    0    0  501    0  0.00000000000E+00 -0.00000000000E+00 -0.10715020064E+04  0.10715020064E+04  0.00000000000E+00 0.  1.
    2000013    1    1    2    0    0 -0.55362407542E+02 -0.72603218274E+03  0.40718002466E+03  0.12643113932E+04  0.95000000000E+03 0.  0.
   -2000013    1    1    2    0    0  0.55362407542E+02  0.72603218274E+03 -0.85848599223E+02  0.12000240450E+04  0.95000000000E+03 0.  0.
<mgrwt>
<rscale>  0 0.24432960E+04</rscale>
<asrwt>0</asrwt>
<pdfrwt beam="2">  1        2 0.16484646E+00 0.24432960E+04</pdfrwt>
<pdfrwt beam="1">  1       -2 0.21428206E+00 0.24432960E+04</pdfrwt>
<totfact> 0.21851724E+00</totfact>
</mgrwt>
</event>
<event>
 4    1  0.2048914E-008  0.3321310E+04  0.7816531E-02  0.8157494E-01
          1   -1    0    0  501    0  0.00000000000E+00  0.00000000000E+00  0.93325683753E+03  0.93325683753E+03  0.00000000000E+00 0. -1.
         -1   -1    0    0    0  501 -0.00000000000E+00 -0.00000000000E+00 -0.29550018241E+04  0.29550018241E+04  0.00000000000E+00 0.  1.
    2000013    1    1    2    0    0  0.96656902668E+03 -0.66003978619E+03 -0.19526536716E+03  0.15200449882E+04  0.95000000000E+03 0.  0.
   -2000013    1    1    2    0    0 -0.96656902668E+03  0.66003978619E+03 -0.18264796194E+04  0.23682136734E+04  0.95000000000E+03 0.  0.
<mgrwt>
<rscale>  0 0.33213104E+04</rscale>
<asrwt>0</asrwt>
<pdfrwt beam="1">  1        1 0.14357798E+00 0.33213104E+04</pdfrwt>
<pdfrwt beam="2">  1       -1 0.45461566E+00 0.33213104E+04</pdfrwt>
<totfact> 0.42534746E-02</totfact>
</mgrwt>
</event>
<event>
 4    1  0.2048914E-008  0.2515928E+04  0.7816531E-02  0.8397333E-01
          2   -1    0    0  501    0  0.00000000000E+00  0.00000000000E+00  0.39004237241E+04  0.39004237241E+04  0.00000000000E+00 0.  1.
         -2   -1    0    0    0  501 -0.00000000000E+00 -0.00000000000E+00 -0.40571834913E+03  0.40571834913E+03  0.00000000000E+00 0. -1.
    2000013    1    1    2    0    0  0.32325721036E+03 -0.51483388953E+03  0.79374881503E+03  0.13791614623E+04  0.95000000000E+03 0.  0.
   -2000013    1    1    2    0    0 -0.32325721036E+03  0.51483388953E+03  0.27009565600E+04  0.29269806109E+04  0.95000000000E+03 0.  0.
<mgrwt>
<rscale>  0 0.25159280E+04</rscale>
<asrwt>0</asrwt>
<pdfrwt beam="1">  1        2 0.60006516E+00 0.25159280E+04</pdfrwt>
<pdfrwt beam="2">  1       -2 0.62418210E-01 0.25159280E+04</pdfrwt>
<totfact> 0.87366836E-01</totfact>
</mgrwt>
</event>
<event>
 4    1  0.2048914E-008  0.2369553E+04  0.7816531E-02  0.8450991E-01
         -2   -1    0    0    0  501 -0.00000000000E+00  0.00000000000E+00  0.47982679535E+03  0.47982679535E+03  0.00000000000E+00 0. -1.
          2   -1    0    0  501    0  0.00000000000E+00 -0.00000000000E+00 -0.29254213097E+04  0.29254213097E+04  0.00000000000E+00 0.  1.
    2000013    1    1    2    0    0  0.42285345207E+03 -0.31275470444E+03 -0.19038221635E+04  0.21917252057E+04  0.95000000000E+03 0.  0.
   -2000013    1    1    2    0    0 -0.42285345207E+03  0.31275470444E+03 -0.54177235084E+03  0.12135228993E+04  0.95000000000E+03 0.  0.
<mgrwt>
<rscale>  0 0.23695531E+04</rscale>
<asrwt>0</asrwt>
<pdfrwt beam="2">  1        2 0.45006482E+00 0.23695531E+04</pdfrwt>
<pdfrwt beam="1">  1       -2 0.73819507E-01 0.23695531E+04</pdfrwt>
<totfact> 0.28903541E+00</totfact>
</mgrwt>
</event>
<event>
 4    1  0.2048914E-008  0.2815470E+04  0.7816531E-02  0.8298482E-01
          2   -1    0    0  501    0  0.00000000000E+00  0.00000000000E+00  0.20042636481E+04  0.20042636481E+04  0.00000000000E+00 0.  1.
         -2   -1    0    0    0  501 -0.00000000000E+00 -0.00000000000E+00 -0.98875078921E+03  0.98875078921E+03  0.00000000000E+00 0. -1.
    2000013    1    1    2    0    0 -0.15594002365E+03 -0.10249954220E+04  0.57733905824E+03  0.15201162108E+04  0.95000000000E+03 0.  0.
   -2000013    1    1    2    0    0  0.15594002365E+03  0.10249954220E+04  0.43817380068E+03  0.14728982265E+04  0.95000000000E+03 0.  0.
<mgrwt>
<rscale>  0 0.28154696E+04</rscale>
<asrwt>0</asrwt>
<pdfrwt beam="1">  1        2 0.30834825E+00 0.28154696E+04</pdfrwt>
<pdfrwt beam="2">  1       -2 0.15211551E+00 0.28154696E+04</pdfrwt>
<totfact> 0.16670659E+00</totfact>
</mgrwt>
</event>
<event>
 4    1  0.2048914E-008  0.2751459E+04  0.7816531E-02  0.8318499E-01
          2   -1    0    0  501    0  0.00000000000E+00  0.00000000000E+00  0.18423528942E+04  0.18423528942E+04  0.00000000000E+00 0.  1.
         -2   -1    0    0    0  501 -0.00000000000E+00 -0.00000000000E+00 -0.10272908393E+04  0.10272908393E+04  0.00000000000E+00 0. -1.
    2000013    1    1    2    0    0 -0.13112741185E+03 -0.86504550548E+03 -0.86782773559E+02  0.12944224096E+04  0.95000000000E+03 0.  0.
   -2000013    1    1    2    0    0  0.13112741185E+03  0.86504550548E+03  0.90184482845E+03  0.15752213239E+04  0.95000000000E+03 0.  0.
<mgrwt>
<rscale>  0 0.27514594E+04</rscale>
<asrwt>0</asrwt>
<pdfrwt beam="1">  1        2 0.28343891E+00 0.27514594E+04</pdfrwt>
<pdfrwt beam="2">  1       -2 0.15804474E+00 0.27514594E+04</pdfrwt>
<totfact> 0.18601822E+00</totfact>
</mgrwt>
</event>
<event>
 4    1  0.2048914E-008  0.3054967E+04  0.7816531E-02  0.8228207E-01
          2   -1    0    0  501    0  0.00000000000E+00  0.00000000000E+00  0.11205089852E+04  0.11205089852E+04  0.00000000000E+00 0.  1.
         -2   -1    0    0    0  501 -0.00000000000E+00 -0.00000000000E+00 -0.20822734740E+04  0.20822734740E+04  0.00000000000E+00 0. -1.
    2000013    1    1    2    0    0 -0.21468683295E+03  0.11728004490E+04 -0.58119254001E+03  0.16315134379E+04  0.95000000000E+03 0.  0.
   -2000013    1    1    2    0    0  0.21468683295E+03 -0.11728004490E+04 -0.38057194875E+03  0.15712690214E+04  0.95000000000E+03 0.  0.
<mgrwt>
<rscale>  0 0.30549672E+04</rscale>
<asrwt>0</asrwt>
<pdfrwt beam="1">  1        2 0.17238600E+00 0.30549672E+04</pdfrwt>
<pdfrwt beam="2">  1       -2 0.32034976E+00 0.30549672E+04</pdfrwt>
<totfact> 0.42958468E-01</totfact>
</mgrwt>
</event>
<event>
 4    1  0.2048914E-008  0.2334167E+04  0.7816531E-02  0.8464570E-01
         -2   -1    0    0    0  501 -0.00000000000E+00  0.00000000000E+00  0.17900353966E+04  0.17900353966E+04  0.00000000000E+00 0. -1.
          2   -1    0    0  501    0  0.00000000000E+00 -0.00000000000E+00 -0.76092598068E+03  0.76092598068E+03  0.00000000000E+00 0.  1.
    2000013    1    1    2    0    0 -0.52326112888E+03  0.43102109925E+03  0.51646102645E+03  0.12762497361E+04  0.95000000000E+03 0.  0.
   -2000013    1    1    2    0    0  0.52326112888E+03 -0.43102109925E+03  0.51264838948E+03  0.12747116412E+04  0.95000000000E+03 0.  0.
<mgrwt>
<rscale>  0 0.23341675E+04</rscale>
<asrwt>0</asrwt>
<pdfrwt beam="2">  1        2 0.11706554E+00 0.23341675E+04</pdfrwt>
<pdfrwt beam="1">  1       -2 0.27539006E+00 0.23341675E+04</pdfrwt>
<totfact> 0.14949105E+00</totfact>
</mgrwt>
</event>
<event>
 4    1  0.2048914E-008  0.2719787E+04  0.7816531E-02  0.8328613E-01
         -2   -1    0    0    0  501 -0.00000000000E+00  0.00000000000E+00  0.64957358710E+03  0.64957358710E+03  0.00000000000E+00 0. -1.
          2   -1    0    0  501    0  0.00000000000E+00 -0.00000000000E+00 -0.28469605352E+04  0.28469605352E+04  0.00000000000E+00 0.  1.
    2000013    1    1    2    0    0 -0.96171960005E+03 -0.12585645385E+03 -0.11988205676E+04  0.18111916490E+04  0.95000000000E+03 0.  0.
   -2000013    1    1    2    0    0  0.96171960005E+03  0.12585645385E+03 -0.99856638054E+03  0.16853424733E+04  0.95000000000E+03 0.  0.
<mgrwt>
<rscale>  0 0.27197870E+04</rscale>
<asrwt>0</asrwt>
<pdfrwt beam="2">  1        2 0.43799392E+00 0.27197870E+04</pdfrwt>
<pdfrwt beam="1">  1       -2 0.99934400E-01 0.27197870E+04</pdfrwt>
<totfact> 0.15684918E+00</totfact>
</mgrwt>
</event>
<event>
 4    1  0.2048914E-008  0.3166626E+04  0.7816531E-02  0.8197687E-01
         -2   -1    0    0    0  501 -0.00000000000E+00  0.00000000000E+00  0.20563757859E+04  0.20563757859E+04  0.00000000000E+00 0. -1.
          2   -1    0    0  501    0  0.00000000000E+00 -0.00000000000E+00 -0.12190770161E+04  0.12190770161E+04  0.00000000000E+00 0.  1.
    2000013    1    1    2    0    0 -0.96767606119E+03 -0.62444310267E+03  0.96407980090E+03  0.17771539073E+04  0.95000000000E+03 0.  0.
   -2000013    1    1    2    0    0  0.96767606119E+03  0.62444310267E+03 -0.12678103103E+03  0.14982988946E+04  0.95000000000E+03 0.  0.
<mgrwt>
<rscale>  0 0.31666263E+04</rscale>
<asrwt>0</asrwt>
<pdfrwt beam="2">  1        2 0.18755031E+00 0.31666263E+04</pdfrwt>
<pdfrwt beam="1">  1       -2 0.31636551E+00 0.31666263E+04</pdfrwt>
<totfact> 0.39274100E-01</totfact>
</mgrwt>
</event>
<event>
 4    1  0.2048914E-008  0.3027447E+04  0.7816531E-02  0.8235936E-01
         -2   -1    0    0    0  501 -0.00000000000E+00  0.00000000000E+00  0.25037434929E+04  0.25037434929E+04  0.00000000000E+00 0. -1.
          2   -1    0    0  501    0  0.00000000000E+00 -0.00000000000E+00 -0.91517305661E+03  0.91517305661E+03  0.00000000000E+00 0.  1.
    2000013    1    1    2    0    0  0.11087266452E+04 -0.37488031988E+03  0.63842222155E+03  0.16370378618E+04  0.95000000000E+03 0.  0.
   -2000013    1    1    2    0    0 -0.11087266452E+04  0.37488031988E+03  0.95014821478E+03  0.17818786878E+04  0.95000000000E+03 0.  0.
<mgrwt>
<rscale>  0 0.30274468E+04</rscale>
<asrwt>0</asrwt>
<pdfrwt beam="2">  1        2 0.14079586E+00 0.30274468E+04</pdfrwt>
<pdfrwt beam="1">  1       -2 0.38519130E+00 0.30274468E+04</pdfrwt>
<totfact> 0.22654919E-01</totfact>
</mgrwt>
</event>
<event>
 4    1  0.2048914E-008  0.3567304E+04  0.7816531E-02  0.8098022E-01
         -2   -1    0    0    0  501 -0.00000000000E+00  0.00000000000E+00  0.11978554835E+04  0.11978554835E+04  0.00000000000E+00 0. -1.
          2   -1    0    0  501    0  0.00000000000E+00 -0.00000000000E+00 -0.26559257867E+04  0.26559257867E+04  0.00000000000E+00 0.  1.
    2000013    1    1    2    0    0 -0.12794327590E+04  0.78983473494E+03 -0.87448856430E+03  0.19819226379E+04  0.95000000000E+03 0.  0.
   -2000013    1    1    2    0    0  0.12794327590E+04 -0.78983473494E+03 -0.58358173885E+03  0.18718586323E+04  0.95000000000E+03 0.  0.
<mgrwt>
<rscale>  0 0.35673045E+04</rscale>
<asrwt>0</asrwt>
<pdfrwt beam="2">  1        2 0.40860397E+00 0.35673045E+04</pdfrwt>
<pdfrwt beam="1">  1       -2 0.18428546E+00 0.35673045E+04</pdfrwt>
<totfact> 0.39047440E-01</totfact>
</mgrwt>
</event>
<event>
 4    1  0.2048914E-008  0.2313315E+04  0.7816531E-02  0.8472690E-01
         -1   -1    0    0    0  501 -0.00000000000E+00  0.00000000000E+00  0.76589467842E+03  0.76589467842E+03  0.00000000000E+00 0.  1.
          1   -1    0    0  501    0  0.00000000000E+00 -0.00000000000E+00 -0.17467889795E+04  0.17467889795E+04  0.00000000000E+00 0. -1.
    2000013    1    1    2    0    0  0.31653044165E+03  0.56771667974E+03 -0.61363504755E+03  0.13044315699E+04  0.95000000000E+03 0.  0.
   -2000013    1    1    2    0    0 -0.31653044165E+03 -0.56771667974E+03 -0.36725925353E+03  0.12082520880E+04  0.95000000000E+03 0.  0.
<mgrwt>
<rscale>  0 0.23133148E+04</rscale>
<asrwt>0</asrwt>
<pdfrwt beam="2">  1        1 0.26873677E+00 0.23133148E+04</pdfrwt>
<pdfrwt beam="1">  1       -1 0.11782995E+00 0.23133148E+04</pdfrwt>
<totfact> 0.25877551E+00</totfact>
</mgrwt>
</event>
<event>
 4    1  0.2048914E-008  0.3595983E+04  0.7816531E-02  0.8091413E-01
         -2   -1    0    0    0  501 -0.00000000000E+00  0.00000000000E+00  0.24329031954E+04  0.24329031954E+04  0.00000000000E+00 0. -1.
          2   -1    0    0  501    0  0.00000000000E+00 -0.00000000000E+00 -0.13287717552E+04  0.13287717552E+04  0.00000000000E+00 0.  1.
    2000013    1    1    2    0    0 -0.11861374023E+04 -0.95582404994E+03  0.65536548129E+03  0.19111581478E+04  0.95000000000E+03 0.  0.
   -2000013    1    1    2    0    0  0.11861374023E+04  0.95582404994E+03  0.44876595886E+03  0.18505168028E+04  0.95000000000E+03 0.  0.
<mgrwt>
<rscale>  0 0.35959828E+04</rscale>
<asrwt>0</asrwt>
<pdfrwt beam="2">  1        2 0.20442642E+00 0.35959828E+04</pdfrwt>
<pdfrwt beam="1">  1       -2 0.37429280E+00 0.35959828E+04</pdfrwt>
<totfact> 0.14122142E-01</totfact>
</mgrwt>
</event>
<event>
 4    1  0.2048914E-008  0.2234503E+04  0.7816531E-02  0.8504203E-01
         -2   -1    0    0    0  501 -0.00000000000E+00  0.00000000000E+00  0.67459402272E+03  0.67459402272E+03  0.00000000000E+00 0. -1.
          2   -1    0    0  501    0  0.00000000000E+00 -0.00000000000E+00 -0.18503741150E+04  0.18503741150E+04  0.00000000000E+00 0.  1.
    2000013    1    1    2    0    0 -0.37914429998E+03 -0.23973228110E+03 -0.15830127979E+03  0.10624411805E+04  0.95000000000E+03 0.  0.
   -2000013    1    1    2    0    0  0.37914429998E+03  0.23973228110E+03 -0.10174788125E+04  0.14625269573E+04  0.95000000000E+03 0.  0.
<mgrwt>
<rscale>  0 0.22345034E+04</rscale>
<asrwt>0</asrwt>
<pdfrwt beam="2">  1        2 0.28467294E+00 0.22345034E+04</pdfrwt>
<pdfrwt beam="1">  1       -2 0.10378370E+00 0.22345034E+04</pdfrwt>
<totfact> 0.55744984E+00</totfact>
</mgrwt>
</event>
<event>
 4    1  0.2048914E-008  0.2510002E+04  0.7816531E-02  0.8399431E-01
          2   -1    0    0  501    0  0.00000000000E+00  0.00000000000E+00  0.11994662859E+04  0.11994662859E+04  0.00000000000E+00 0.  1.
         -2   -1    0    0    0  501 -0.00000000000E+00 -0.00000000000E+00 -0.13131074163E+04  0.13131074163E+04  0.00000000000E+00 0. -1.
    2000013    1    1    2    0    0 -0.88452052580E+02  0.81354278867E+03 -0.11028352480E+03  0.12587049259E+04  0.95000000000E+03 0.  0.
   -2000013    1    1    2    0    0  0.88452052580E+02 -0.81354278867E+03 -0.33576056148E+01  0.12538687763E+04  0.95000000000E+03 0.  0.
<mgrwt>
<rscale>  0 0.25100025E+04</rscale>
<asrwt>0</asrwt>
<pdfrwt beam="1">  1        2 0.18453327E+00 0.25100025E+04</pdfrwt>
<pdfrwt beam="2">  1       -2 0.20201653E+00 0.25100025E+04</pdfrwt>
<totfact> 0.21791261E+00</totfact>
</mgrwt>
</event>
<event>
 4    1  0.2048914E-008  0.2882250E+04  0.7816531E-02  0.8278178E-01
          1   -1    0    0  501    0  0.00000000000E+00  0.00000000000E+00  0.16718295063E+04  0.16718295063E+04  0.00000000000E+00 0.  1.
         -1   -1    0    0    0  501 -0.00000000000E+00 -0.00000000000E+00 -0.12422563401E+04  0.12422563401E+04  0.00000000000E+00 0. -1.
    2000013    1    1    2    0    0  0.45877155662E+03 -0.90146162967E+03  0.60797335407E+03  0.15150036337E+04  0.95000000000E+03 0.  0.
   -2000013    1    1    2    0    0 -0.45877155662E+03  0.90146162967E+03 -0.17840018783E+03  0.13990822127E+04  0.95000000000E+03 0.  0.
<mgrwt>
<rscale>  0 0.28822497E+04</rscale>
<asrwt>0</asrwt>
<pdfrwt beam="1">  1        1 0.25720454E+00 0.28822497E+04</pdfrwt>
<pdfrwt beam="2">  1       -1 0.19111636E+00 0.28822497E+04</pdfrwt>
<totfact> 0.74328253E-01</totfact>
</mgrwt>
</event>
<event>
 4    1  0.2048914E-008  0.2650065E+04  0.7816531E-02  0.8351391E-01
         -2   -1    0    0    0  501 -0.00000000000E+00  0.00000000000E+00  0.14822915125E+04  0.14822915125E+04  0.00000000000E+00 0. -1.
          2   -1    0    0  501    0  0.00000000000E+00 -0.00000000000E+00 -0.11844577061E+04  0.11844577061E+04  0.00000000000E+00 0.  1.
    2000013    1    1    2    0    0 -0.66644496453E+03  0.18570134486E+03 -0.46696375394E+03  0.12645904585E+04  0.95000000000E+03 0.  0.
   -2000013    1    1    2    0    0  0.66644496453E+03 -0.18570134486E+03  0.76479756031E+03  0.14021587601E+04  0.95000000000E+03 0.  0.
<mgrwt>
<rscale>  0 0.26500654E+04</rscale>
<asrwt>0</asrwt>
<pdfrwt beam="2">  1        2 0.18222426E+00 0.26500654E+04</pdfrwt>
<pdfrwt beam="1">  1       -2 0.22804485E+00 0.26500654E+04</pdfrwt>
<totfact> 0.14991794E+00</totfact>
</mgrwt>
</event>
<event>
 4    1  0.2048914E-008  0.3072237E+04  0.7816531E-02  0.8223399E-01
         -2   -1    0    0    0  501 -0.00000000000E+00  0.00000000000E+00  0.78457112644E+03  0.78457112644E+03  0.00000000000E+00 0. -1.
          2   -1    0    0  501    0  0.00000000000E+00 -0.00000000000E+00 -0.30075796956E+04  0.30075796956E+04  0.00000000000E+00 0.  1.
    2000013    1    1    2    0    0 -0.48205895285E+03 -0.10900196197E+04 -0.87524528445E+03  0.17575772852E+04  0.95000000000E+03 0.  0.
   -2000013    1    1    2    0    0  0.48205895285E+03  0.10900196197E+04 -0.13477632847E+04  0.20345735369E+04  0.95000000000E+03 0.  0.
<mgrwt>
<rscale>  0 0.30722371E+04</rscale>
<asrwt>0</asrwt>
<pdfrwt beam="2">  1        2 0.46270456E+00 0.30722371E+04</pdfrwt>
<pdfrwt beam="1">  1       -2 0.12070325E+00 0.30722371E+04</pdfrwt>
<totfact> 0.76644451E-01</totfact>
</mgrwt>
</event>
<event>
 4    1  0.2048914E-008  0.2246257E+04  0.7816531E-02  0.8499418E-01
         -2   -1    0    0    0  501 -0.00000000000E+00  0.00000000000E+00  0.51761133983E+03  0.51761133983E+03  0.00000000000E+00 0. -1.
          2   -1    0    0  501    0  0.00000000000E+00 -0.00000000000E+00 -0.24369985732E+04  0.24369985732E+04  0.00000000000E+00 0.  1.
    2000013    1    1    2    0    0  0.48153836611E+03  0.35641392186E+03 -0.96341744738E+03  0.14797240485E+04  0.95000000000E+03 0.  0.
   -2000013    1    1    2    0    0 -0.48153836611E+03 -0.35641392186E+03 -0.95596978600E+03  0.14748858646E+04  0.95000000000E+03 0.  0.
<mgrwt>
<rscale>  0 0.22462574E+04</rscale>
<asrwt>0</asrwt>
<pdfrwt beam="2">  1        2 0.37492286E+00 0.22462574E+04</pdfrwt>
<pdfrwt beam="1">  1       -2 0.79632514E-01 0.22462574E+04</pdfrwt>
<totfact> 0.48144008E+00</totfact>
</mgrwt>
</event>
<event>
 4    1  0.2048914E-008  0.2645125E+04  0.7816531E-02  0.8353033E-01
          2   -1    0    0  501    0  0.00000000000E+00  0.00000000000E+00  0.47146245030E+03  0.47146245030E+03  0.00000000000E+00 0.  1.
         -2   -1    0    0    0  501 -0.00000000000E+00 -0.00000000000E+00 -0.37100974305E+04  0.37100974305E+04  0.00000000000E+00 0. -1.
    2000013    1    1    2    0    0  0.37787704573E+03  0.56358794286E+03 -0.26018024395E+04  0.28517184933E+04  0.95000000000E+03 0.  0.
   -2000013    1    1    2    0    0 -0.37787704573E+03 -0.56358794286E+03 -0.63683254076E+03  0.13298413875E+04  0.95000000000E+03 0.  0.
<mgrwt>
<rscale>  0 0.26451250E+04</rscale>
<asrwt>0</asrwt>
<pdfrwt beam="1">  1        2 0.72532684E-01 0.26451250E+04</pdfrwt>
<pdfrwt beam="2">  1       -2 0.57078423E+00 0.26451250E+04</pdfrwt>
<totfact> 0.38756677E-02</totfact>
</mgrwt>
</event>
<event>
 4    1  0.2048914E-008  0.2363994E+04  0.7816531E-02  0.8453108E-01
          4   -1    0    0  501    0  0.00000000000E+00  0.00000000000E+00  0.50789912723E+03  0.50789912723E+03  0.00000000000E+00 0.  1.
         -4   -1    0    0    0  501 -0.00000000000E+00 -0.00000000000E+00 -0.27507753844E+04  0.27507753844E+04  0.00000000000E+00 0. -1.
    2000013    1    1    2    0    0 -0.45388481757E+03 -0.18225955136E+03 -0.42482186153E+03  0.11498711170E+04  0.95000000000E+03 0.  0.
   -2000013    1    1    2    0    0  0.45388481757E+03  0.18225955136E+03 -0.18180543956E+04  0.21088033946E+04  0.95000000000E+03 0.  0.
<mgrwt>
<rscale>  0 0.23639936E+04</rscale>
<asrwt>0</asrwt>
<pdfrwt beam="1">  1        4 0.78138328E-01 0.23639936E+04</pdfrwt>
<pdfrwt beam="2">  1       -4 0.42319621E+00 0.23639936E+04</pdfrwt>
<totfact> 0.12319459E-02</totfact>
</mgrwt>
</event>
<event>
 4    1  0.2048914E-008  0.2759738E+04  0.7816531E-02  0.8315878E-01
          2   -1    0    0  501    0  0.00000000000E+00  0.00000000000E+00  0.28829951236E+04  0.28829951236E+04  0.00000000000E+00 0.  1.
         -2   -1    0    0    0  501 -0.00000000000E+00 -0.00000000000E+00 -0.66043751516E+03  0.66043751516E+03  0.00000000000E+00 0. -1.
    2000013    1    1    2    0    0 -0.37701827056E+03  0.35048779310E+03  0.93372464699E+01  0.10805422961E+04  0.95000000000E+03 0.  0.
   -2000013    1    1    2    0    0  0.37701827056E+03 -0.35048779310E+03  0.22132203620E+04  0.24628903427E+04  0.95000000000E+03 0.  0.
<mgrwt>
<rscale>  0 0.27597378E+04</rscale>
<asrwt>0</asrwt>
<pdfrwt beam="1">  1        2 0.44353771E+00 0.27597378E+04</pdfrwt>
<pdfrwt beam="2">  1       -2 0.10160577E+00 0.27597378E+04</pdfrwt>
<totfact> 0.14283396E+00</totfact>
</mgrwt>
</event>
<event>
 4    1  0.2048914E-008  0.2147255E+04  0.7816531E-02  0.8540708E-01
          3   -1    0    0  501    0  0.00000000000E+00  0.00000000000E+00  0.10544484706E+04  0.10544484706E+04  0.00000000000E+00 0.  1.
         -3   -1    0    0    0  501 -0.00000000000E+00 -0.00000000000E+00 -0.10931556338E+04  0.10931556338E+04  0.00000000000E+00 0. -1.
    2000013    1    1    2    0    0 -0.41499184185E+03  0.25854972185E+03  0.86067995763E+02  0.10719019952E+04  0.95000000000E+03 0.  0.
   -2000013    1    1    2    0    0  0.41499184185E+03 -0.25854972185E+03 -0.12477515899E+03  0.10757021092E+04  0.95000000000E+03 0.  0.
<mgrwt>
<rscale>  0 0.21472553E+04</rscale>
<asrwt>0</asrwt>
<pdfrwt beam="1">  1        3 0.16222284E+00 0.21472553E+04</pdfrwt>
<pdfrwt beam="2">  1       -3 0.16817779E+00 0.21472553E+04</pdfrwt>
<totfact> 0.15031097E-01</totfact>
</mgrwt>
</event>
<event>
 4    1  0.2048914E-008  0.2973856E+04  0.7816531E-02  0.8251236E-01
          2   -1    0    0  501    0  0.00000000000E+00  0.00000000000E+00  0.26360406934E+04  0.26360406934E+04  0.00000000000E+00 0.  1.
         -2   -1    0    0    0  501 -0.00000000000E+00 -0.00000000000E+00 -0.83874058062E+03  0.83874058062E+03  0.00000000000E+00 0. -1.
    2000013    1    1    2    0    0  0.10153434666E+04 -0.58236975009E+02  0.28687168972E+03  0.14209536470E+04  0.95000000000E+03 0.  0.
   -2000013    1    1    2    0    0 -0.10153434666E+04  0.58236975009E+02  0.15104284230E+04  0.20538276270E+04  0.95000000000E+03 0.  0.
<mgrwt>
<rscale>  0 0.29738556E+04</rscale>
<asrwt>0</asrwt>
<pdfrwt beam="1">  1        2 0.40554472E+00 0.29738556E+04</pdfrwt>
<pdfrwt beam="2">  1       -2 0.12903701E+00 0.29738556E+04</pdfrwt>
<totfact> 0.10998790E+00</totfact>
</mgrwt>
</event>
<event>
 4    1  0.2048914E-008  0.2440955E+04  0.7816531E-02  0.8424328E-01
         -2   -1    0    0    0  501 -0.00000000000E+00  0.00000000000E+00  0.13097478828E+04  0.13097478828E+04  0.00000000000E+00 0. -1.
          2   -1    0    0  501    0  0.00000000000E+00 -0.00000000000E+00 -0.11372916109E+04  0.11372916109E+04  0.00000000000E+00 0.  1.
    2000013    1    1    2    0    0 -0.74458876287E+03  0.14572687399E+03  0.19334264691E+03  0.12310686929E+04  0.95000000000E+03 0.  0.
   -2000013    1    1    2    0    0  0.74458876287E+03 -0.14572687399E+03 -0.20886375011E+02  0.12159708007E+04  0.95000000000E+03 0.  0.
<mgrwt>
<rscale>  0 0.24409550E+04</rscale>
<asrwt>0</asrwt>
<pdfrwt beam="2">  1        2 0.17496794E+00 0.24409550E+04</pdfrwt>
<pdfrwt beam="1">  1       -2 0.20149967E+00 0.24409550E+04</pdfrwt>
<totfact> 0.24080915E+00</totfact>
</mgrwt>
</event>
<event>
 4    1  0.2048914E-008  0.2820501E+04  0.7816531E-02  0.8296932E-01
          2   -1    0    0  501    0  0.00000000000E+00  0.00000000000E+00  0.29624823827E+04  0.29624823827E+04  0.00000000000E+00 0.  1.
         -2   -1    0    0    0  501 -0.00000000000E+00 -0.00000000000E+00 -0.67133106182E+03  0.67133106182E+03  0.00000000000E+00 0. -1.
    2000013    1    1    2    0    0  0.81047230656E+03  0.13770741843E+03  0.32014388452E+03  0.12964647313E+04  0.95000000000E+03 0.  0.
   -2000013    1    1    2    0    0 -0.81047230656E+03 -0.13770741843E+03  0.19710074363E+04  0.23373487132E+04  0.95000000000E+03 0.  0.
<mgrwt>
<rscale>  0 0.28205010E+04</rscale>
<asrwt>0</asrwt>
<pdfrwt beam="1">  1        2 0.45576651E+00 0.28205010E+04</pdfrwt>
<pdfrwt beam="2">  1       -2 0.10328170E+00 0.28205010E+04</pdfrwt>
<totfact> 0.12203844E+00</totfact>
</mgrwt>
</event>
<event>
 4    1  0.2048914E-008  0.2342612E+04  0.7816531E-02  0.8461307E-01
         -2   -1    0    0    0  501 -0.00000000000E+00  0.00000000000E+00  0.15337888114E+04  0.15337888114E+04  0.00000000000E+00 0. -1.
          2   -1    0    0  501    0  0.00000000000E+00 -0.00000000000E+00 -0.89448911661E+03  0.89448911661E+03  0.00000000000E+00 0.  1.
    2000013    1    1    2    0    0 -0.37671079468E+03  0.57191589574E+03  0.29745216224E+03  0.12082949158E+04  0.95000000000E+03 0.  0.
   -2000013    1    1    2    0    0  0.37671079468E+03 -0.57191589574E+03  0.34184753252E+03  0.12199830122E+04  0.95000000000E+03 0.  0.
<mgrwt>
<rscale>  0 0.23426117E+04</rscale>
<asrwt>0</asrwt>
<pdfrwt beam="2">  1        2 0.13761371E+00 0.23426117E+04</pdfrwt>
<pdfrwt beam="1">  1       -2 0.23596751E+00 0.23426117E+04</pdfrwt>
<totfact> 0.20962781E+00</totfact>
</mgrwt>
</event>
<event>
 4    1  0.2048914E-008  0.2458693E+04  0.7816531E-02  0.8417851E-01
         -2   -1    0    0    0  501 -0.00000000000E+00  0.00000000000E+00  0.11736978965E+04  0.11736978965E+04  0.00000000000E+00 0. -1.
          2   -1    0    0  501    0  0.00000000000E+00 -0.00000000000E+00 -0.12876338828E+04  0.12876338828E+04  0.00000000000E+00 0.  1.
    2000013    1    1    2    0    0  0.38197932139E+03  0.42946442446E+03  0.47127742288E+03  0.12062132080E+04  0.95000000000E+03 0.  0.
   -2000013    1    1    2    0    0 -0.38197932139E+03 -0.42946442446E+03 -0.58521340918E+03  0.12551185713E+04  0.95000000000E+03 0.  0.
<mgrwt>
<rscale>  0 0.24586933E+04</rscale>
<asrwt>0</asrwt>
<pdfrwt beam="2">  1        2 0.19809752E+00 0.24586933E+04</pdfrwt>
<pdfrwt beam="1">  1       -2 0.18056891E+00 0.24586933E+04</pdfrwt>
<totfact> 0.27032093E+00</totfact>
</mgrwt>
</event>
<event>
 4    1  0.2048914E-008  0.2559486E+04  0.7816531E-02  0.8382095E-01
         -2   -1    0    0    0  501 -0.00000000000E+00  0.00000000000E+00  0.10853786768E+04  0.10853786768E+04  0.00000000000E+00 0. -1.
          2   -1    0    0  501    0  0.00000000000E+00 -0.00000000000E+00 -0.15089127911E+04  0.15089127911E+04  0.00000000000E+00 0.  1.
    2000013    1    1    2    0    0 -0.83425334019E+03 -0.16993085706E+03 -0.10846629373E+03  0.12802812459E+04  0.95000000000E+03 0.  0.
   -2000013    1    1    2    0    0  0.83425334019E+03  0.16993085706E+03 -0.31506782063E+03  0.13140102220E+04  0.95000000000E+03 0.  0.
<mgrwt>
<rscale>  0 0.25594857E+04</rscale>
<asrwt>0</asrwt>
<pdfrwt beam="2">  1        2 0.23214043E+00 0.25594857E+04</pdfrwt>
<pdfrwt beam="1">  1       -2 0.16698133E+00 0.25594857E+04</pdfrwt>
<totfact> 0.24949884E+00</totfact>
</mgrwt>
</event>
<event>
 4    1  0.2048914E-008  0.3453696E+04  0.7816531E-02  0.8124852E-01
         -2   -1    0    0    0  501 -0.00000000000E+00  0.00000000000E+00  0.10190597325E+04  0.10190597325E+04  0.00000000000E+00 0. -1.
          2   -1    0    0  501    0  0.00000000000E+00 -0.00000000000E+00 -0.29262310087E+04  0.29262310087E+04  0.00000000000E+00 0.  1.
    2000013    1    1    2    0    0  0.83061716011E+03 -0.10653065349E+04 -0.37707081057E+03  0.16939555119E+04  0.95000000000E+03 0.  0.
   -2000013    1    1    2    0    0 -0.83061716011E+03  0.10653065349E+04 -0.15301004656E+04  0.22513352293E+04  0.95000000000E+03 0.  0.
<mgrwt>
<rscale>  0 0.34536961E+04</rscale>
<asrwt>0</asrwt>
<pdfrwt beam="2">  1        2 0.45018938E+00 0.34536961E+04</pdfrwt>
<pdfrwt beam="1">  1       -2 0.15677842E+00 0.34536961E+04</pdfrwt>
<totfact> 0.42471594E-01</totfact>
</mgrwt>
</event>
<event>
 4    1  0.2048914E-008  0.2863841E+04  0.7816531E-02  0.8283718E-01
          2   -1    0    0  501    0  0.00000000000E+00  0.00000000000E+00  0.32389583829E+04  0.32389583829E+04  0.00000000000E+00 0.  1.
         -2   -1    0    0    0  501 -0.00000000000E+00 -0.00000000000E+00 -0.63304169758E+03  0.63304169758E+03  0.00000000000E+00 0. -1.
    2000013    1    1    2    0    0 -0.76754423730E+03  0.30957616126E+02  0.29316871288E+03  0.12563958072E+04  0.95000000000E+03 0.  0.
   -2000013    1    1    2    0    0  0.76754423730E+03 -0.30957616126E+02  0.23127479724E+04  0.26156042733E+04  0.95000000000E+03 0.  0.
<mgrwt>
<rscale>  0 0.28638406E+04</rscale>
<asrwt>0</asrwt>
<pdfrwt beam="1">  1        2 0.49830128E+00 0.28638406E+04</pdfrwt>
<pdfrwt beam="2">  1       -2 0.97391032E-01 0.28638406E+04</pdfrwt>
<totfact> 0.93007076E-01</totfact>
</mgrwt>
</event>
<event>
 4    1  0.2048914E-008  0.3014110E+04  0.7816531E-02  0.8239713E-01
          2   -1    0    0  501    0  0.00000000000E+00  0.00000000000E+00  0.22701863366E+04  0.22701863366E+04  0.00000000000E+00 0.  1.
         -2   -1    0    0    0  501 -0.00000000000E+00 -0.00000000000E+00 -0.10004531390E+04  0.10004531390E+04  0.00000000000E+00 0. -1.
    2000013    1    1    2    0    0  0.10443332253E+04  0.38745762132E+03  0.10230261227E+04  0.17860116857E+04  0.95000000000E+03 0.  0.
   -2000013    1    1    2    0    0 -0.10443332253E+04 -0.38745762132E+03  0.24670707483E+03  0.14846277899E+04  0.95000000000E+03 0.  0.
<mgrwt>
<rscale>  0 0.30141102E+04</rscale>
<asrwt>0</asrwt>
<pdfrwt beam="1">  1        2 0.34925944E+00 0.30141102E+04</pdfrwt>
<pdfrwt beam="2">  1       -2 0.15391587E+00 0.30141102E+04</pdfrwt>
<totfact> 0.11273235E+00</totfact>
</mgrwt>
</event>
<event>
 4    1  0.2048914E-008  0.3191037E+04  0.7816531E-02  0.8191188E-01
          2   -1    0    0  501    0  0.00000000000E+00  0.00000000000E+00  0.97392360822E+03  0.97392360822E+03  0.00000000000E+00 0.  1.
         -2   -1    0    0    0  501 -0.00000000000E+00 -0.00000000000E+00 -0.26138392613E+04  0.26138392613E+04  0.00000000000E+00 0. -1.
    2000013    1    1    2    0    0  0.12688805849E+04 -0.15669705562E+03 -0.92402841258E+03  0.18414506274E+04  0.95000000000E+03 0.  0.
   -2000013    1    1    2    0    0 -0.12688805849E+04  0.15669705562E+03 -0.71588724050E+03  0.17463122421E+04  0.95000000000E+03 0.  0.
<mgrwt>
<rscale>  0 0.31910373E+04</rscale>
<asrwt>0</asrwt>
<pdfrwt beam="1">  1        2 0.14983440E+00 0.31910373E+04</pdfrwt>
<pdfrwt beam="2">  1       -2 0.40212911E+00 0.31910373E+04</pdfrwt>
<totfact> 0.15847583E-01</totfact>
</mgrwt>
</event>
<event>
 4    1  0.2048914E-008  0.2586891E+04  0.7816531E-02  0.8372668E-01
          2   -1    0    0  501    0  0.00000000000E+00  0.00000000000E+00  0.10015570406E+04  0.10015570406E+04  0.00000000000E+00 0.  1.
         -2   -1    0    0    0  501 -0.00000000000E+00 -0.00000000000E+00 -0.16704007722E+04  0.16704007722E+04  0.00000000000E+00 0. -1.
    2000013    1    1    2    0    0 -0.87102024601E+03  0.76574453917E+02 -0.25467054920E+03  0.13160155792E+04  0.95000000000E+03 0.  0.
   -2000013    1    1    2    0    0  0.87102024601E+03 -0.76574453917E+02 -0.41417318233E+03  0.13559422336E+04  0.95000000000E+03 0.  0.
<mgrwt>
<rscale>  0 0.25868913E+04</rscale>
<asrwt>0</asrwt>
<pdfrwt beam="1">  1        2 0.15408570E+00 0.25868913E+04</pdfrwt>
<pdfrwt beam="2">  1       -2 0.25698473E+00 0.25868913E+04</pdfrwt>
<totfact> 0.12954208E+00</totfact>
</mgrwt>
</event>
<event>
 4    1  0.2048914E-008  0.2508133E+04  0.7816531E-02  0.8400094E-01
          2   -1    0    0  501    0  0.00000000000E+00  0.00000000000E+00  0.14804371151E+04  0.14804371151E+04  0.00000000000E+00 0. -1.
         -2   -1    0    0    0  501 -0.00000000000E+00 -0.00000000000E+00 -0.10623098945E+04  0.10623098945E+04  0.00000000000E+00 0.  1.
    2000013    1    1    2    0    0  0.77720226987E+03 -0.14092620748E+03  0.42715904144E+03  0.13072369376E+04  0.95000000000E+03 0.  0.
   -2000013    1    1    2    0    0 -0.77720226987E+03  0.14092620748E+03 -0.90318209018E+01  0.12355100720E+04  0.95000000000E+03 0.  0.
<mgrwt>
<rscale>  0 0.25081332E+04</rscale>
<asrwt>0</asrwt>
<pdfrwt beam="1">  1        2 0.22775956E+00 0.25081332E+04</pdfrwt>
<pdfrwt beam="2">  1       -2 0.16343229E+00 0.25081332E+04</pdfrwt>
<totfact> 0.27589130E+00</totfact>
</mgrwt>
</event>
<event>
 4    1  0.2048914E-008  0.2294268E+04  0.7816531E-02  0.8480184E-01
          2   -1    0    0  501    0  0.00000000000E+00  0.00000000000E+00  0.17781085537E+04  0.17781085537E+04  0.00000000000E+00 0.  1.
         -2   -1    0    0    0  501 -0.00000000000E+00 -0.00000000000E+00 -0.74006554813E+03  0.74006554813E+03  0.00000000000E+00 0. -1.
    2000013    1    1    2    0    0  0.58533456657E+03  0.15620630250E+03  0.28259283601E+03  0.11616263060E+04  0.95000000000E+03 0.  0.
   -2000013    1    1    2    0    0 -0.58533456657E+03 -0.15620630250E+03  0.75545016957E+03  0.13565477959E+04  0.95000000000E+03 0.  0.
<mgrwt>
<rscale>  0 0.22942684E+04</rscale>
<asrwt>0</asrwt>
<pdfrwt beam="1">  1        2 0.27355516E+00 0.22942684E+04</pdfrwt>
<pdfrwt beam="2">  1       -2 0.11385624E+00 0.22942684E+04</pdfrwt>
<totfact> 0.48635416E+00</totfact>
</mgrwt>
</event>
<event>
 4    1  0.2048914E-008  0.2074017E+04  0.7816531E-02  0.8572776E-01
          1   -1    0    0  501    0  0.00000000000E+00  0.00000000000E+00  0.11458869045E+04  0.11458869045E+04  0.00000000000E+00 0.  1.
         -1   -1    0    0    0  501 -0.00000000000E+00 -0.00000000000E+00 -0.93847499445E+03  0.93847499445E+03  0.00000000000E+00 0. -1.
    2000013    1    1    2    0    0 -0.23560186841E+03  0.20561722490E+03 -0.17170390719E+03  0.10147753029E+04  0.95000000000E+03 0.  0.
   -2000013    1    1    2    0    0  0.23560186841E+03 -0.20561722490E+03  0.37911581719E+03  0.10695865960E+04  0.95000000000E+03 0.  0.
<mgrwt>
<rscale>  0 0.20740166E+04</rscale>
<asrwt>0</asrwt>
<pdfrwt beam="1">  1        1 0.17629029E+00 0.20740166E+04</pdfrwt>
<pdfrwt beam="2">  1       -1 0.14438077E+00 0.20740166E+04</pdfrwt>
<totfact> 0.41731840E+00</totfact>
</mgrwt>
</event>
<event>
 4    1  0.2048914E-008  0.3759078E+04  0.7816531E-02  0.8054994E-01
          2   -1    0    0  501    0  0.00000000000E+00  0.00000000000E+00  0.27622840504E+04  0.27622840504E+04  0.00000000000E+00 0.  1.
         -2   -1    0    0    0  501 -0.00000000000E+00 -0.00000000000E+00 -0.12788933595E+04  0.12788933595E+04  0.00000000000E+00 0. -1.
    2000013    1    1    2    0    0  0.52343590365E+03 -0.14992409589E+04  0.38765101431E+03  0.18906300291E+04  0.95000000000E+03 0.  0.
   -2000013    1    1    2    0    0 -0.52343590365E+03  0.14992409589E+04  0.10957396766E+04  0.21505473808E+04  0.95000000000E+03 0.  0.
<mgrwt>
<rscale>  0 0.37590779E+04</rscale>
<asrwt>0</asrwt>
<pdfrwt beam="1">  1        2 0.42496678E+00 0.37590779E+04</pdfrwt>
<pdfrwt beam="2">  1       -2 0.19675283E+00 0.37590779E+04</pdfrwt>
<totfact> 0.27384803E-01</totfact>
</mgrwt>
</event>
<event>
 4    1  0.2048914E-008  0.2174883E+04  0.7816531E-02  0.8528955E-01
         -2   -1    0    0    0  501 -0.00000000000E+00  0.00000000000E+00  0.75220078844E+03  0.75220078844E+03  0.00000000000E+00 0. -1.
          2   -1    0    0  501    0  0.00000000000E+00 -0.00000000000E+00 -0.15720929205E+04  0.15720929205E+04  0.00000000000E+00 0.  1.
    2000013    1    1    2    0    0  0.35216612414E+02 -0.51363217740E+03 -0.27918305056E+03  0.11160203399E+04  0.95000000000E+03 0.  0.
   -2000013    1    1    2    0    0 -0.35216612414E+02  0.51363217740E+03 -0.54070908155E+03  0.12082733690E+04  0.95000000000E+03 0.  0.
<mgrwt>
<rscale>  0 0.21748835E+04</rscale>
<asrwt>0</asrwt>
<pdfrwt beam="2">  1        2 0.24186045E+00 0.21748835E+04</pdfrwt>
<pdfrwt beam="1">  1       -2 0.11572320E+00 0.21748835E+04</pdfrwt>
<totfact> 0.61496554E+00</totfact>
</mgrwt>
</event>
<event>
 4    1  0.2048914E-008  0.2435865E+04  0.7816531E-02  0.8426197E-01
          2   -1    0    0  501    0  0.00000000000E+00  0.00000000000E+00  0.13837350210E+04  0.13837350210E+04  0.00000000000E+00 0.  1.
         -2   -1    0    0    0  501 -0.00000000000E+00 -0.00000000000E+00 -0.10719970879E+04  0.10719970879E+04  0.00000000000E+00 0. -1.
    2000013    1    1    2    0    0 -0.41135812548E+03  0.17127542146E+03 -0.46748548012E+03  0.11487355882E+04  0.95000000000E+03 0.  0.
   -2000013    1    1    2    0    0  0.41135812548E+03 -0.17127542146E+03  0.77922341325E+03  0.13069965207E+04  0.95000000000E+03 0.  0.
<mgrwt>
<rscale>  0 0.24358653E+04</rscale>
<asrwt>0</asrwt>
<pdfrwt beam="1">  1        2 0.21288231E+00 0.24358653E+04</pdfrwt>
<pdfrwt beam="2">  1       -2 0.16492263E+00 0.24358653E+04</pdfrwt>
<totfact> 0.30733882E+00</totfact>
</mgrwt>
</event>
<event>
 4    1  0.2048914E-008  0.2811712E+04  0.7816531E-02  0.8299641E-01
         -2   -1    0    0    0  501 -0.00000000000E+00  0.00000000000E+00  0.92024768455E+03  0.92024768455E+03  0.00000000000E+00 0. -1.
          2   -1    0    0  501    0  0.00000000000E+00 -0.00000000000E+00 -0.21477171261E+04  0.21477171261E+04  0.00000000000E+00 0.  1.
    2000013    1    1    2    0    0  0.37840105624E+01 -0.42506415714E+03 -0.16449825129E+04  0.19465768220E+04  0.95000000000E+03 0.  0.
   -2000013    1    1    2    0    0 -0.37840105624E+01  0.42506415714E+03  0.41751307127E+03  0.11213879887E+04  0.95000000000E+03 0.  0.
<mgrwt>
<rscale>  0 0.28117124E+04</rscale>
<asrwt>0</asrwt>
<pdfrwt beam="2">  1        2 0.33041801E+00 0.28117124E+04</pdfrwt>
<pdfrwt beam="1">  1       -2 0.14157657E+00 0.28117124E+04</pdfrwt>
<totfact> 0.16754935E+00</totfact>
</mgrwt>
</event>
<event>
 4    1  0.2048914E-008  0.2975670E+04  0.7816531E-02  0.8250713E-01
          2   -1    0    0  501    0  0.00000000000E+00  0.00000000000E+00  0.19694691978E+04  0.19694691978E+04  0.00000000000E+00 0.  1.
         -2   -1    0    0    0  501 -0.00000000000E+00 -0.00000000000E+00 -0.11239848537E+04  0.11239848537E+04  0.00000000000E+00 0. -1.
    2000013    1    1    2    0    0  0.47859105345E+02 -0.11430945402E+04  0.47147991568E+03  0.15600477341E+04  0.95000000000E+03 0.  0.
   -2000013    1    1    2    0    0 -0.47859105345E+02  0.11430945402E+04  0.37400442843E+03  0.15334063174E+04  0.95000000000E+03 0.  0.
<mgrwt>
<rscale>  0 0.29756704E+04</rscale>
<asrwt>0</asrwt>
<pdfrwt beam="1">  1        2 0.30299526E+00 0.29756704E+04</pdfrwt>
<pdfrwt beam="2">  1       -2 0.17292075E+00 0.29756704E+04</pdfrwt>
<totfact> 0.12111308E+00</totfact>
</mgrwt>
</event>
<event>
 4    1  0.2048914E-008  0.2704165E+04  0.7816531E-02  0.8333655E-01
         -1   -1    0    0    0  501 -0.00000000000E+00  0.00000000000E+00  0.14971132256E+04  0.14971132256E+04  0.00000000000E+00 0.  1.
          1   -1    0    0  501    0  0.00000000000E+00 -0.00000000000E+00 -0.12211010884E+04  0.12211010884E+04  0.00000000000E+00 0. -1.
    2000013    1    1    2    0    0  0.85840837640E+03 -0.36898601615E+03 -0.92556453983E+02  0.13356954436E+04  0.95000000000E+03 0.  0.
   -2000013    1    1    2    0    0 -0.85840837640E+03  0.36898601615E+03  0.36856859111E+03  0.13825188704E+04  0.95000000000E+03 0.  0.
<mgrwt>
<rscale>  0 0.27041646E+04</rscale>
<asrwt>0</asrwt>
<pdfrwt beam="2">  1        1 0.18786171E+00 0.27041646E+04</pdfrwt>
<pdfrwt beam="1">  1       -1 0.23032511E+00 0.27041646E+04</pdfrwt>
<totfact> 0.84547827E-01</totfact>
</mgrwt>
</event>
<event>
 4    1  0.2048914E-008  0.2227688E+04  0.7816531E-02  0.8506991E-01
          2   -1    0    0  501    0  0.00000000000E+00  0.00000000000E+00  0.18845519754E+04  0.18845519754E+04  0.00000000000E+00 0. -1.
         -2   -1    0    0    0  501 -0.00000000000E+00 -0.00000000000E+00 -0.65832537990E+03  0.65832537990E+03  0.00000000000E+00 0.  1.
    2000013    1    1    2    0    0  0.40018198671E+03 -0.10607784756E+02  0.10945587951E+04  0.15036013778E+04  0.95000000000E+03 0.  0.
   -2000013    1    1    2    0    0 -0.40018198671E+03  0.10607784756E+02  0.13166780039E+03  0.10392759774E+04  0.95000000000E+03 0.  0.
<mgrwt>
<rscale>  0 0.22276879E+04</rscale>
<asrwt>0</asrwt>
<pdfrwt beam="1">  1        2 0.28993107E+00 0.22276879E+04</pdfrwt>
<pdfrwt beam="2">  1       -2 0.10128083E+00 0.22276879E+04</pdfrwt>
<totfact> 0.56599687E+00</totfact>
</mgrwt>
</event>
<event>
 4    1  0.2048914E-008  0.2634726E+04  0.7816531E-02  0.8356500E-01
          2   -1    0    0  501    0  0.00000000000E+00  0.00000000000E+00  0.28265314194E+04  0.28265314194E+04  0.00000000000E+00 0.  1.
         -2   -1    0    0    0  501 -0.00000000000E+00 -0.00000000000E+00 -0.61398400656E+03  0.61398400656E+03  0.00000000000E+00 0. -1.
    2000013    1    1    2    0    0 -0.60802419674E+03 -0.65954735817E+03  0.88679662054E+03  0.15791150647E+04  0.95000000000E+03 0.  0.
   -2000013    1    1    2    0    0  0.60802419674E+03  0.65954735817E+03  0.13257507923E+04  0.18614003612E+04  0.95000000000E+03 0.  0.
<mgrwt>
<rscale>  0 0.26347259E+04</rscale>
<asrwt>0</asrwt>
<pdfrwt beam="1">  1        2 0.43485098E+00 0.26347259E+04</pdfrwt>
<pdfrwt beam="2">  1       -2 0.94459079E-01 0.26347259E+04</pdfrwt>
<totfact> 0.18559149E+00</totfact>
</mgrwt>
</event>
<event>
 4    1  0.2048914E-008  0.2239978E+04  0.7816531E-02  0.8501970E-01
         -2   -1    0    0    0  501 -0.00000000000E+00  0.00000000000E+00  0.22650639592E+04  0.22650639592E+04  0.00000000000E+00 0. -1.
          2   -1    0    0  501    0  0.00000000000E+00 -0.00000000000E+00 -0.55379239773E+03  0.55379239773E+03  0.00000000000E+00 0.  1.
    2000013    1    1    2    0    0  0.55138874660E+03  0.21782246752E+03  0.83049790399E+03  0.13941674741E+04  0.95000000000E+03 0.  0.
   -2000013    1    1    2    0    0 -0.55138874660E+03 -0.21782246752E+03  0.88077365749E+03  0.14246888829E+04  0.95000000000E+03 0.  0.
<mgrwt>
<rscale>  0 0.22399779E+04</rscale>
<asrwt>0</asrwt>
<pdfrwt beam="2">  1        2 0.85198832E-01 0.22399779E+04</pdfrwt>
<pdfrwt beam="1">  1       -2 0.34847137E+00 0.22399779E+04</pdfrwt>
<totfact> 0.79232516E-01</totfact>
</mgrwt>
</event>
<event>
 4    1  0.2048914E-008  0.3608083E+04  0.7816531E-02  0.8088643E-01
         -2   -1    0    0    0  501 -0.00000000000E+00  0.00000000000E+00  0.72364605553E+03  0.72364605553E+03  0.00000000000E+00 0. -1.
          2   -1    0    0  501    0  0.00000000000E+00 -0.00000000000E+00 -0.44974550551E+04  0.44974550551E+04  0.00000000000E+00 0.  1.
    2000013    1    1    2    0    0 -0.22990512116E+03 -0.14097891837E+04 -0.26948025752E+04  0.31944988381E+04  0.95000000000E+03 0.  0.
   -2000013    1    1    2    0    0  0.22990512116E+03  0.14097891837E+04 -0.10790064243E+04  0.20266022725E+04  0.95000000000E+03 0.  0.
<mgrwt>
<rscale>  0 0.36080829E+04</rscale>
<asrwt>0</asrwt>
<pdfrwt beam="2">  1        2 0.69191616E+00 0.36080829E+04</pdfrwt>
<pdfrwt beam="1">  1       -2 0.11133016E+00 0.36080829E+04</pdfrwt>
<totfact> 0.63991473E-02</totfact>
</mgrwt>
</event>
<event>
 4    1  0.2048914E-008  0.2400712E+04  0.7816531E-02  0.8439237E-01
          1   -1    0    0  501    0  0.00000000000E+00  0.00000000000E+00  0.11000049834E+04  0.11000049834E+04  0.00000000000E+00 0.  1.
         -1   -1    0    0    0  501 -0.00000000000E+00 -0.00000000000E+00 -0.13098622556E+04  0.13098622556E+04  0.00000000000E+00 0. -1.
    2000013    1    1    2    0    0  0.72643576993E+03  0.10301083374E+03 -0.11085445293E+03  0.12054496545E+04  0.95000000000E+03 0.  0.
   -2000013    1    1    2    0    0 -0.72643576993E+03 -0.10301083374E+03 -0.99002819299E+02  0.12044175845E+04  0.95000000000E+03 0.  0.
<mgrwt>
<rscale>  0 0.24007124E+04</rscale>
<asrwt>0</asrwt>
<pdfrwt beam="1">  1        1 0.16923154E+00 0.24007124E+04</pdfrwt>
<pdfrwt beam="2">  1       -1 0.20151727E+00 0.24007124E+04</pdfrwt>
<totfact> 0.16691618E+00</totfact>
</mgrwt>
</event>
<event>
 4    1  0.2048914E-008  0.2418525E+04  0.7816531E-02  0.8432601E-01
         -2   -1    0    0    0  501 -0.00000000000E+00  0.00000000000E+00  0.46141919150E+03  0.46141919150E+03  0.00000000000E+00 0. -1.
          2   -1    0    0  501    0  0.00000000000E+00 -0.00000000000E+00 -0.31691696378E+04  0.31691696378E+04  0.00000000000E+00 0.  1.
    2000013    1    1    2    0    0 -0.64612834958E+03 -0.36860718623E+03 -0.12331967498E+04  0.17252905047E+04  0.95000000000E+03 0.  0.
   -2000013    1    1    2    0    0  0.64612834958E+03  0.36860718623E+03 -0.14745536966E+04  0.19052983247E+04  0.95000000000E+03 0.  0.
<mgrwt>
<rscale>  0 0.24185249E+04</rscale>
<asrwt>0</asrwt>
<pdfrwt beam="2">  1        2 0.48756456E+00 0.24185249E+04</pdfrwt>
<pdfrwt beam="1">  1       -2 0.70987568E-01 0.24185249E+04</pdfrwt>
<totfact> 0.21999728E+00</totfact>
</mgrwt>
</event>
<event>
 4    1  0.2048914E-008  0.3728299E+04  0.7816531E-02  0.8061719E-01
         -2   -1    0    0    0  501 -0.00000000000E+00  0.00000000000E+00  0.17080889716E+04  0.17080889716E+04  0.00000000000E+00 0. -1.
          2   -1    0    0  501    0  0.00000000000E+00 -0.00000000000E+00 -0.20344685338E+04  0.20344685338E+04  0.00000000000E+00 0.  1.
    2000013    1    1    2    0    0 -0.15808882886E+04  0.49092350042E+01  0.10862500730E+03  0.18475744298E+04  0.95000000000E+03 0.  0.
   -2000013    1    1    2    0    0  0.15808882886E+04 -0.49092350042E+01 -0.43500456951E+03  0.18949830757E+04  0.95000000000E+03 0.  0.
<mgrwt>
<rscale>  0 0.37282990E+04</rscale>
<asrwt>0</asrwt>
<pdfrwt beam="2">  1        2 0.31299516E+00 0.37282990E+04</pdfrwt>
<pdfrwt beam="1">  1       -2 0.26278292E+00 0.37282990E+04</pdfrwt>
<totfact> 0.27660599E-01</totfact>
</mgrwt>
</event>
<event>
 4    1  0.2048914E-008  0.3159850E+04  0.7816531E-02  0.8199502E-01
         -2   -1    0    0    0  501 -0.00000000000E+00  0.00000000000E+00  0.24816063931E+04  0.24816063931E+04  0.00000000000E+00 0. -1.
          2   -1    0    0  501    0  0.00000000000E+00 -0.00000000000E+00 -0.10058658361E+04  0.10058658361E+04  0.00000000000E+00 0.  1.
    2000013    1    1    2    0    0  0.11818273712E+04 -0.44071296542E+03  0.79542324997E+03  0.17680899298E+04  0.95000000000E+03 0.  0.
   -2000013    1    1    2    0    0 -0.11818273712E+04  0.44071296542E+03  0.68031730702E+03  0.17193822994E+04  0.95000000000E+03 0.  0.
<mgrwt>
<rscale>  0 0.31598501E+04</rscale>
<asrwt>0</asrwt>
<pdfrwt beam="2">  1        2 0.15474859E+00 0.31598501E+04</pdfrwt>
<pdfrwt beam="1">  1       -2 0.38178560E+00 0.31598501E+04</pdfrwt>
<totfact> 0.20555090E-01</totfact>
</mgrwt>
</event>
<event>
 4    1  0.2048914E-008  0.2171273E+04  0.7816531E-02  0.8530481E-01
         -2   -1    0    0    0  501 -0.00000000000E+00  0.00000000000E+00  0.18400454290E+04  0.18400454290E+04  0.00000000000E+00 0. -1.
          2   -1    0    0  501    0  0.00000000000E+00 -0.00000000000E+00 -0.64053107717E+03  0.64053107717E+03  0.00000000000E+00 0.  1.
    2000013    1    1    2    0    0 -0.49207806222E+03 -0.18297554476E+03  0.62492775733E+03  0.12524598082E+04  0.95000000000E+03 0.  0.
   -2000013    1    1    2    0    0  0.49207806222E+03  0.18297554476E+03  0.57458659455E+03  0.12281166980E+04  0.95000000000E+03 0.  0.
<mgrwt>
<rscale>  0 0.21712727E+04</rscale>
<asrwt>0</asrwt>
<pdfrwt beam="2">  1        2 0.98543243E-01 0.21712727E+04</pdfrwt>
<pdfrwt beam="1">  1       -2 0.28308391E+00 0.21712727E+04</pdfrwt>
<totfact> 0.16921772E+00</totfact>
</mgrwt>
</event>
<event>
 4    1  0.2048914E-008  0.2446943E+04  0.7816531E-02  0.8422135E-01
         -2   -1    0    0    0  501 -0.00000000000E+00  0.00000000000E+00  0.95844900879E+03  0.95844900879E+03  0.00000000000E+00 0. -1.
          2   -1    0    0  501    0  0.00000000000E+00 -0.00000000000E+00 -0.15617763239E+04  0.15617763239E+04  0.00000000000E+00 0.  1.
    2000013    1    1    2    0    0 -0.56552871088E+03  0.38151839446E+03 -0.67159146354E+03  0.13486712357E+04  0.95000000000E+03 0.  0.
   -2000013    1    1    2    0    0  0.56552871088E+03 -0.38151839446E+03  0.68264148445E+02  0.11715540970E+04  0.95000000000E+03 0.  0.
<mgrwt>
<rscale>  0 0.24469434E+04</rscale>
<asrwt>0</asrwt>
<pdfrwt beam="2">  1        2 0.24027328E+00 0.24469434E+04</pdfrwt>
<pdfrwt beam="1">  1       -2 0.14745369E+00 0.24469434E+04</pdfrwt>
<totfact> 0.32908662E+00</totfact>
</mgrwt>
</event>
<event>
 4    1  0.2048914E-008  0.2148499E+04  0.7816531E-02  0.8540175E-01
         -1   -1    0    0    0  501 -0.00000000000E+00  0.00000000000E+00  0.80628176061E+03  0.80628176061E+03  0.00000000000E+00 0. -1.
          1   -1    0    0  501    0  0.00000000000E+00 -0.00000000000E+00 -0.14312758295E+04  0.14312758295E+04  0.00000000000E+00 0.  1.
    2000013    1    1    2    0    0  0.29433470394E+03  0.34976532178E+03 -0.97687936038E+02  0.10587783673E+04  0.95000000000E+03 0.  0.
   -2000013    1    1    2    0    0 -0.29433470394E+03 -0.34976532178E+03 -0.52730613282E+03  0.11787792227E+04  0.95000000000E+03 0.  0.
<mgrwt>
<rscale>  0 0.21484986E+04</rscale>
<asrwt>0</asrwt>
<pdfrwt beam="2">  1        1 0.22019628E+00 0.21484986E+04</pdfrwt>
<pdfrwt beam="1">  1       -1 0.12404335E+00 0.21484986E+04</pdfrwt>
<totfact> 0.38159564E+00</totfact>
</mgrwt>
</event>
<event>
 4    1  0.2048914E-008  0.3324287E+04  0.7816531E-02  0.8156743E-01
          1   -1    0    0  501    0  0.00000000000E+00  0.00000000000E+00  0.11064594937E+04  0.11064594937E+04  0.00000000000E+00 0.  1.
         -1   -1    0    0    0  501 -0.00000000000E+00 -0.00000000000E+00 -0.24969014396E+04  0.24969014396E+04  0.00000000000E+00 0. -1.
    2000013    1    1    2    0    0 -0.33180644940E+03  0.11023296909E+04 -0.14880577373E+04  0.21076152630E+04  0.95000000000E+03 0.  0.
   -2000013    1    1    2    0    0  0.33180644940E+03 -0.11023296909E+04  0.97615791402E+02  0.14957456703E+04  0.95000000000E+03 0.  0.
<mgrwt>
<rscale>  0 0.33242866E+04</rscale>
<asrwt>0</asrwt>
<pdfrwt beam="1">  1        1 0.17022454E+00 0.33242866E+04</pdfrwt>
<pdfrwt beam="2">  1       -1 0.38413868E+00 0.33242866E+04</pdfrwt>
<totfact> 0.95146598E-02</totfact>
</mgrwt>
</event>
<event>
 4    1  0.2048914E-008  0.4524148E+04  0.7816531E-02  0.7906423E-01
          2   -1    0    0  501    0  0.00000000000E+00  0.00000000000E+00  0.41487093765E+04  0.41487093765E+04  0.00000000000E+00 0. -1.
         -2   -1    0    0    0  501 -0.00000000000E+00 -0.00000000000E+00 -0.12333903043E+04  0.12333903043E+04  0.00000000000E+00 0.  1.
    2000013    1    1    2    0    0  0.12936333113E+04  0.10080218761E+04 -0.11378987342E+02  0.18953165245E+04  0.95000000000E+03 0.  0.
   -2000013    1    1    2    0    0 -0.12936333113E+04 -0.10080218761E+04  0.29266980596E+04  0.34867831562E+04  0.95000000000E+03 0.  0.
<mgrwt>
<rscale>  0 0.45241476E+04</rscale>
<asrwt>0</asrwt>
<pdfrwt beam="1">  1        2 0.63826297E+00 0.45241476E+04</pdfrwt>
<pdfrwt beam="2">  1       -2 0.18975236E+00 0.45241476E+04</pdfrwt>
<totfact> 0.30127608E-02</totfact>
</mgrwt>
</event>
<event>
 4    1  0.2048914E-008  0.2893434E+04  0.7816531E-02  0.8274834E-01
          2   -1    0    0  501    0  0.00000000000E+00  0.00000000000E+00  0.14547286918E+04  0.14547286918E+04  0.00000000000E+00 0.  1.
         -2   -1    0    0    0  501 -0.00000000000E+00 -0.00000000000E+00 -0.14387496691E+04  0.14387496691E+04  0.00000000000E+00 0. -1.
    2000013    1    1    2    0    0 -0.10312404459E+04 -0.23005016579E+02 -0.34769039251E+03  0.14447749642E+04  0.95000000000E+03 0.  0.
   -2000013    1    1    2    0    0  0.10312404459E+04  0.23005016579E+02  0.36366941525E+03  0.14487033967E+04  0.95000000000E+03 0.  0.
<mgrwt>
<rscale>  0 0.28934342E+04</rscale>
<asrwt>0</asrwt>
<pdfrwt beam="1">  1        2 0.22380441E+00 0.28934342E+04</pdfrwt>
<pdfrwt beam="2">  1       -2 0.22134610E+00 0.28934342E+04</pdfrwt>
<totfact> 0.11270512E+00</totfact>
</mgrwt>
</event>
<event>
 4    1  0.2048914E-008  0.2841398E+04  0.7816531E-02  0.8290530E-01
         -2   -1    0    0    0  501 -0.00000000000E+00  0.00000000000E+00  0.16599216576E+04  0.16599216576E+04  0.00000000000E+00 0. -1.
          2   -1    0    0  501    0  0.00000000000E+00 -0.00000000000E+00 -0.12159522331E+04  0.12159522331E+04  0.00000000000E+00 0.  1.
    2000013    1    1    2    0    0 -0.87771376121E+03 -0.51721625196E+03 -0.60673106886E+02  0.13943010162E+04  0.95000000000E+03 0.  0.
   -2000013    1    1    2    0    0  0.87771376121E+03  0.51721625196E+03  0.50464253134E+03  0.14815728745E+04  0.95000000000E+03 0.  0.
<mgrwt>
<rscale>  0 0.28413979E+04</rscale>
<asrwt>0</asrwt>
<pdfrwt beam="2">  1        2 0.18706957E+00 0.28413979E+04</pdfrwt>
<pdfrwt beam="1">  1       -2 0.25537256E+00 0.28413979E+04</pdfrwt>
<totfact> 0.95703331E-01</totfact>
</mgrwt>
</event>
<event>
 4    1  0.2048914E-008  0.2868470E+04  0.7816531E-02  0.8282321E-01
          1   -1    0    0  501    0  0.00000000000E+00  0.00000000000E+00  0.18137283382E+04  0.18137283382E+04  0.00000000000E+00 0.  1.
         -1   -1    0    0    0  501 -0.00000000000E+00 -0.00000000000E+00 -0.11341445670E+04  0.11341445670E+04  0.00000000000E+00 0. -1.
    2000013    1    1    2    0    0 -0.75895350865E+03 -0.63770444160E+03 -0.86234683760E+02  0.13757230113E+04  0.95000000000E+03 0.  0.
   -2000013    1    1    2    0    0  0.75895350865E+03  0.63770444160E+03  0.76581845489E+03  0.15721498939E+04  0.95000000000E+03 0.  0.
<mgrwt>
<rscale>  0 0.28684701E+04</rscale>
<asrwt>0</asrwt>
<pdfrwt beam="1">  1        1 0.27903513E+00 0.28684701E+04</pdfrwt>
<pdfrwt beam="2">  1       -1 0.17448378E+00 0.28684701E+04</pdfrwt>
<totfact> 0.78301060E-01</totfact>
</mgrwt>
</event>
<event>
 4    1  0.2048914E-008  0.2473401E+04  0.7816531E-02  0.8412523E-01
         -2   -1    0    0    0  501 -0.00000000000E+00  0.00000000000E+00  0.16363681407E+04  0.16363681407E+04  0.00000000000E+00 0. -1.
          2   -1    0    0  501    0  0.00000000000E+00 -0.00000000000E+00 -0.93464795878E+03  0.93464795878E+03  0.00000000000E+00 0.  1.
    2000013    1    1    2    0    0 -0.74652427284E+03 -0.23162832856E+03  0.21946744373E+03  0.12496464025E+04  0.95000000000E+03 0.  0.
   -2000013    1    1    2    0    0  0.74652427284E+03  0.23162832856E+03  0.48225273820E+03  0.13213696970E+04  0.95000000000E+03 0.  0.
<mgrwt>
<rscale>  0 0.24734010E+04</rscale>
<asrwt>0</asrwt>
<pdfrwt beam="2">  1        2 0.14379199E+00 0.24734010E+04</pdfrwt>
<pdfrwt beam="1">  1       -2 0.25174894E+00 0.24734010E+04</pdfrwt>
<totfact> 0.15571363E+00</totfact>
</mgrwt>
</event>
<event>
 4    1  0.2048914E-008  0.2175879E+04  0.7816531E-02  0.8528535E-01
         -2   -1    0    0    0  501 -0.00000000000E+00  0.00000000000E+00  0.91283664871E+03  0.91283664871E+03  0.00000000000E+00 0. -1.
          2   -1    0    0  501    0  0.00000000000E+00 -0.00000000000E+00 -0.12966309988E+04  0.12966309988E+04  0.00000000000E+00 0.  1.
    2000013    1    1    2    0    0  0.87834083007E+02  0.52012132252E+03 -0.24630866735E+03  0.11141853418E+04  0.95000000000E+03 0.  0.
   -2000013    1    1    2    0    0 -0.87834083007E+02 -0.52012132252E+03 -0.13748568276E+03  0.10952823057E+04  0.95000000000E+03 0.  0.
<mgrwt>
<rscale>  0 0.21758789E+04</rscale>
<asrwt>0</asrwt>
<pdfrwt beam="2">  1        2 0.19948169E+00 0.21758789E+04</pdfrwt>
<pdfrwt beam="1">  1       -2 0.14043641E+00 0.21758789E+04</pdfrwt>
<totfact> 0.54192708E+00</totfact>
</mgrwt>
</event>
<event>
 4    1  0.2048914E-008  0.2565417E+04  0.7816531E-02  0.8380044E-01
         -2   -1    0    0    0  501 -0.00000000000E+00  0.00000000000E+00  0.75275791585E+03  0.75275791585E+03  0.00000000000E+00 0. -1.
          2   -1    0    0  501    0  0.00000000000E+00 -0.00000000000E+00 -0.21857507749E+04  0.21857507749E+04  0.00000000000E+00 0.  1.
    2000013    1    1    2    0    0 -0.79626093311E+03 -0.28831688394E+03 -0.53293023339E+03  0.13797364722E+04  0.95000000000E+03 0.  0.
   -2000013    1    1    2    0    0  0.79626093311E+03  0.28831688394E+03 -0.90006262570E+03  0.15587722186E+04  0.95000000000E+03 0.  0.
<mgrwt>
<rscale>  0 0.25654171E+04</rscale>
<asrwt>0</asrwt>
<pdfrwt beam="2">  1        2 0.33626934E+00 0.25654171E+04</pdfrwt>
<pdfrwt beam="1">  1       -2 0.11580891E+00 0.25654171E+04</pdfrwt>
<totfact> 0.27043473E+00</totfact>
</mgrwt>
</event>
<event>
 4    1  0.2048914E-008  0.2232956E+04  0.7816531E-02  0.8504835E-01
         -2   -1    0    0    0  501 -0.00000000000E+00  0.00000000000E+00  0.43740572238E+04  0.43740572238E+04  0.00000000000E+00 0. -1.
          2   -1    0    0  501    0  0.00000000000E+00 -0.00000000000E+00 -0.28498095672E+03  0.28498095672E+03  0.00000000000E+00 0.  1.
    2000013    1    1    2    0    0 -0.33842767201E+03  0.27439963836E+03  0.12252236129E+04  0.16104351438E+04  0.95000000000E+03 0.  0.
   -2000013    1    1    2    0    0  0.33842767201E+03 -0.27439963836E+03  0.28638526542E+04  0.30486030368E+04  0.95000000000E+03 0.  0.
<mgrwt>
<rscale>  0 0.22329559E+04</rscale>
<asrwt>0</asrwt>
<pdfrwt beam="2">  1        2 0.43843227E-01 0.22329559E+04</pdfrwt>
<pdfrwt beam="1">  1       -2 0.67293183E+00 0.22329559E+04</pdfrwt>
<totfact> 0.29433567E-02</totfact>
</mgrwt>
</event>
<event>
 4    1  0.2048914E-008  0.2387085E+04  0.7816531E-02  0.8444355E-01
         -2   -1    0    0    0  501 -0.00000000000E+00  0.00000000000E+00  0.15949792682E+04  0.15949792682E+04  0.00000000000E+00 0. -1.
          2   -1    0    0  501    0  0.00000000000E+00 -0.00000000000E+00 -0.89314230308E+03  0.89314230308E+03  0.00000000000E+00 0.  1.
    2000013    1    1    2    0    0  0.66031548836E+03 -0.26384022503E+03  0.48446343558E+03  0.12817304822E+04  0.95000000000E+03 0.  0.
   -2000013    1    1    2    0    0 -0.66031548836E+03  0.26384022503E+03  0.21737352954E+03  0.12063910891E+04  0.95000000000E+03 0.  0.
<mgrwt>
<rscale>  0 0.23870848E+04</rscale>
<asrwt>0</asrwt>
<pdfrwt beam="2">  1        2 0.13740651E+00 0.23870848E+04</pdfrwt>
<pdfrwt beam="1">  1       -2 0.24538143E+00 0.23870848E+04</pdfrwt>
<totfact> 0.18302529E+00</totfact>
</mgrwt>
</event>
<event>
 4    1  0.2048914E-008  0.2558363E+04  0.7816531E-02  0.8382483E-01
         -2   -1    0    0    0  501 -0.00000000000E+00  0.00000000000E+00  0.19538892996E+04  0.19538892996E+04  0.00000000000E+00 0.  1.
          2   -1    0    0  501    0  0.00000000000E+00 -0.00000000000E+00 -0.83746088433E+03  0.83746088433E+03  0.00000000000E+00 0. -1.
    2000013    1    1    2    0    0  0.85655220685E+03 -0.63298761662E+01  0.56822058114E+03  0.13996772411E+04  0.95000000000E+03 0.  0.
   -2000013    1    1    2    0    0 -0.85655220685E+03  0.63298761662E+01  0.54820783410E+03  0.13916729428E+04  0.95000000000E+03 0.  0.
<mgrwt>
<rscale>  0 0.25583634E+04</rscale>
<asrwt>0</asrwt>
<pdfrwt beam="2">  1        2 0.12884014E+00 0.25583634E+04</pdfrwt>
<pdfrwt beam="1">  1       -2 0.30059835E+00 0.25583634E+04</pdfrwt>
<totfact> 0.90616237E-01</totfact>
</mgrwt>
</event>
<event>
 4    1  0.2048914E-008  0.2357038E+04  0.7816531E-02  0.8455765E-01
         -1   -1    0    0    0  501 -0.00000000000E+00  0.00000000000E+00  0.93387656129E+03  0.93387656129E+03  0.00000000000E+00 0. -1.
          1   -1    0    0  501    0  0.00000000000E+00 -0.00000000000E+00 -0.14872491071E+04  0.14872491071E+04  0.00000000000E+00 0.  1.
    2000013    1    1    2    0    0  0.29185488950E+03  0.60198416725E+03 -0.74241585871E+02  0.11642920713E+04  0.95000000000E+03 0.  0.
   -2000013    1    1    2    0    0 -0.29185488950E+03 -0.60198416725E+03 -0.47913095999E+03  0.12568335972E+04  0.95000000000E+03 0.  0.
<mgrwt>
<rscale>  0 0.23570380E+04</rscale>
<asrwt>0</asrwt>
<pdfrwt beam="2">  1        1 0.22880755E+00 0.23570380E+04</pdfrwt>
<pdfrwt beam="1">  1       -1 0.14367332E+00 0.23570380E+04</pdfrwt>
<totfact> 0.23511846E+00</totfact>
</mgrwt>
</event>
<event>
 4    1  0.2048914E-008  0.3221639E+04  0.7816531E-02  0.8183126E-01
          2   -1    0    0  501    0  0.00000000000E+00  0.00000000000E+00  0.41362877262E+04  0.41362877262E+04  0.00000000000E+00 0.  1.
         -2   -1    0    0    0  501 -0.00000000000E+00 -0.00000000000E+00 -0.62731127069E+03  0.62731127069E+03  0.00000000000E+00 0. -1.
    2000013    1    1    2    0    0  0.62272048020E+03 -0.94196774610E+03  0.79947922091E+03  0.16783179245E+04  0.95000000000E+03 0.  0.
   -2000013    1    1    2    0    0 -0.62272048020E+03  0.94196774610E+03  0.27094972346E+04  0.30852810724E+04  0.95000000000E+03 0.  0.
<mgrwt>
<rscale>  0 0.32216393E+04</rscale>
<asrwt>0</asrwt>
<pdfrwt beam="1">  1        2 0.63635194E+00 0.32216393E+04</pdfrwt>
<pdfrwt beam="2">  1       -2 0.96509429E-01 0.32216393E+04</pdfrwt>
<totfact> 0.19872727E-01</totfact>
</mgrwt>
</event>
<event>
 4    1  0.2048914E-008  0.2350591E+04  0.7816531E-02  0.8458237E-01
          2   -1    0    0  501    0  0.00000000000E+00  0.00000000000E+00  0.78633619201E+03  0.78633619201E+03  0.00000000000E+00 0.  1.
         -2   -1    0    0    0  501 -0.00000000000E+00 -0.00000000000E+00 -0.17566521072E+04  0.17566521072E+04  0.00000000000E+00 0. -1.
    2000013    1    1    2    0    0  0.37830122929E+03  0.25931536312E+03 -0.10457016271E+04  0.14853781238E+04  0.95000000000E+03 0.  0.
   -2000013    1    1    2    0    0 -0.37830122929E+03 -0.25931536312E+03  0.75385711933E+02  0.10576101754E+04  0.95000000000E+03 0.  0.
<mgrwt>
<rscale>  0 0.23505907E+04</rscale>
<asrwt>0</asrwt>
<pdfrwt beam="1">  1        2 0.12097480E+00 0.23505907E+04</pdfrwt>
<pdfrwt beam="2">  1       -2 0.27025417E+00 0.23505907E+04</pdfrwt>
<totfact> 0.15367315E+00</totfact>
</mgrwt>
</event>
<event>
 4    1  0.2048914E-008  0.2225556E+04  0.7816531E-02  0.8507866E-01
          2   -1    0    0  501    0  0.00000000000E+00  0.00000000000E+00  0.11665961313E+04  0.11665961313E+04  0.00000000000E+00 0.  1.
         -2   -1    0    0    0  501 -0.00000000000E+00 -0.00000000000E+00 -0.10614423523E+04  0.10614423523E+04  0.00000000000E+00 0. -1.
    2000013    1    1    2    0    0  0.54693655346E+03  0.18219256871E+03  0.11130079812E+03  0.11167907563E+04  0.95000000000E+03 0.  0.
   -2000013    1    1    2    0    0 -0.54693655346E+03 -0.18219256871E+03 -0.61470191412E+01  0.11112477273E+04  0.95000000000E+03 0.  0.
<mgrwt>
<rscale>  0 0.22255557E+04</rscale>
<asrwt>0</asrwt>
<pdfrwt beam="1">  1        2 0.17947633E+00 0.22255557E+04</pdfrwt>
<pdfrwt beam="2">  1       -2 0.16329882E+00 0.22255557E+04</pdfrwt>
<totfact> 0.43104338E+00</totfact>
</mgrwt>
</event>
<event>
 4    1  0.2048914E-008  0.2244222E+04  0.7816531E-02  0.8500244E-01
         -2   -1    0    0    0  501 -0.00000000000E+00  0.00000000000E+00  0.13043694398E+04  0.13043694398E+04  0.00000000000E+00 0. -1.
          2   -1    0    0  501    0  0.00000000000E+00 -0.00000000000E+00 -0.96531918285E+03  0.96531918285E+03  0.00000000000E+00 0.  1.
    2000013    1    1    2    0    0 -0.59908268619E+02  0.58709700687E+03  0.26200095207E+03  0.11486585198E+04  0.95000000000E+03 0.  0.
   -2000013    1    1    2    0    0  0.59908268619E+02 -0.58709700687E+03  0.77049304835E+02  0.11210301029E+04  0.95000000000E+03 0.  0.
<mgrwt>
<rscale>  0 0.22442218E+04</rscale>
<asrwt>0</asrwt>
<pdfrwt beam="2">  1        2 0.14851064E+00 0.22442218E+04</pdfrwt>
<pdfrwt beam="1">  1       -2 0.20067222E+00 0.22442218E+04</pdfrwt>
<totfact> 0.31799603E+00</totfact>
</mgrwt>
</event>
<event>
 4    1  0.2048914E-008  0.4107729E+04  0.7816531E-02  0.7983160E-01
          2   -1    0    0  501    0  0.00000000000E+00  0.00000000000E+00  0.23985047732E+04  0.23985047732E+04  0.00000000000E+00 0.  1.
         -2   -1    0    0    0  501 -0.00000000000E+00 -0.00000000000E+00 -0.17587457177E+04  0.17587457177E+04  0.00000000000E+00 0. -1.
    2000013    1    1    2    0    0 -0.21801921521E+03  0.12104217170E+04  0.16789036216E+04  0.22877653905E+04  0.95000000000E+03 0.  0.
   -2000013    1    1    2    0    0  0.21801921521E+03 -0.12104217170E+04 -0.10391445661E+04  0.18694851004E+04  0.95000000000E+03 0.  0.
<mgrwt>
<rscale>  0 0.41077293E+04</rscale>
<asrwt>0</asrwt>
<pdfrwt beam="1">  1        2 0.36900073E+00 0.41077293E+04</pdfrwt>
<pdfrwt beam="2">  1       -2 0.27057627E+00 0.41077293E+04</pdfrwt>
<totfact> 0.14977343E-01</totfact>
</mgrwt>
</event>
<event>
 4    1  0.2048914E-008  0.2245321E+04  0.7816531E-02  0.8499798E-01
         -2   -1    0    0    0  501 -0.00000000000E+00  0.00000000000E+00  0.52760604481E+03  0.52760604481E+03  0.00000000000E+00 0. -1.
          2   -1    0    0  501    0  0.00000000000E+00 -0.00000000000E+00 -0.23888409686E+04  0.23888409686E+04  0.00000000000E+00 0.  1.
    2000013    1    1    2    0    0  0.47624102430E+03  0.68148441280E+02 -0.46879112293E+03  0.11634925183E+04  0.95000000000E+03 0.  0.
   -2000013    1    1    2    0    0 -0.47624102430E+03 -0.68148441280E+02 -0.13924438008E+04  0.17529544951E+04  0.95000000000E+03 0.  0.
<mgrwt>
<rscale>  0 0.22453213E+04</rscale>
<asrwt>0</asrwt>
<pdfrwt beam="2">  1        2 0.36751400E+00 0.22453213E+04</pdfrwt>
<pdfrwt beam="1">  1       -2 0.81170160E-01 0.22453213E+04</pdfrwt>
<totfact> 0.49147200E+00</totfact>
</mgrwt>
</event>
<event>
 4    1  0.2048914E-008  0.2202843E+04  0.7816531E-02  0.8517246E-01
         -2   -1    0    0    0  501 -0.00000000000E+00  0.00000000000E+00  0.71439591249E+03  0.71439591249E+03  0.00000000000E+00 0. -1.
          2   -1    0    0  501    0  0.00000000000E+00 -0.00000000000E+00 -0.16981184570E+04  0.16981184570E+04  0.00000000000E+00 0.  1.
    2000013    1    1    2    0    0  0.96804228073E+02 -0.35285473369E+03 -0.31426804526E+02  0.10185112497E+04  0.95000000000E+03 0.  0.
   -2000013    1    1    2    0    0 -0.96804228073E+02  0.35285473369E+03 -0.95229573998E+03  0.13940031198E+04  0.95000000000E+03 0.  0.
<mgrwt>
<rscale>  0 0.22028426E+04</rscale>
<asrwt>0</asrwt>
<pdfrwt beam="2">  1        2 0.26124900E+00 0.22028426E+04</pdfrwt>
<pdfrwt beam="1">  1       -2 0.10990706E+00 0.22028426E+04</pdfrwt>
<totfact> 0.59148816E+00</totfact>
</mgrwt>
</event>
<event>
 4    1  0.2048914E-008  0.3788714E+04  0.7816531E-02  0.8048581E-01
         -1   -1    0    0    0  501 -0.00000000000E+00  0.00000000000E+00  0.16379934442E+04  0.16379934442E+04  0.00000000000E+00 0. -1.
          1   -1    0    0  501    0  0.00000000000E+00 -0.00000000000E+00 -0.21908436940E+04  0.21908436940E+04  0.00000000000E+00 0.  1.
    2000013    1    1    2    0    0  0.10929337929E+04  0.71483556046E+03  0.72431108995E+03  0.17699211025E+04  0.95000000000E+03 0.  0.
   -2000013    1    1    2    0    0 -0.10929337929E+04 -0.71483556046E+03 -0.12771613397E+04  0.20589160356E+04  0.95000000000E+03 0.  0.
<mgrwt>
<rscale>  0 0.37887136E+04</rscale>
<asrwt>0</asrwt>
<pdfrwt beam="2">  1        1 0.33705288E+00 0.37887136E+04</pdfrwt>
<pdfrwt beam="1">  1       -1 0.25199899E+00 0.37887136E+04</pdfrwt>
<totfact> 0.11909037E-01</totfact>
</mgrwt>
</event>
<event>
 4    1  0.2048914E-008  0.2268427E+04  0.7816531E-02  0.8490475E-01
         -2   -1    0    0    0  501 -0.00000000000E+00  0.00000000000E+00  0.12438388323E+04  0.12438388323E+04  0.00000000000E+00 0. -1.
          2   -1    0    0  501    0  0.00000000000E+00 -0.00000000000E+00 -0.10342501471E+04  0.10342501471E+04  0.00000000000E+00 0.  1.
    2000013    1    1    2    0    0 -0.37005259150E+03  0.11790060416E+03  0.58965609326E+03  0.11836527283E+04  0.95000000000E+03 0.  0.
   -2000013    1    1    2    0    0  0.37005259150E+03 -0.11790060416E+03 -0.38006740813E+03  0.10944362511E+04  0.95000000000E+03 0.  0.
<mgrwt>
<rscale>  0 0.22684272E+04</rscale>
<asrwt>0</asrwt>
<pdfrwt beam="2">  1        2 0.15911541E+00 0.22684272E+04</pdfrwt>
<pdfrwt beam="1">  1       -2 0.19135982E+00 0.22684272E+04</pdfrwt>
<totfact> 0.33037112E+00</totfact>
</mgrwt>
</event>
<event>
 4    1  0.2048914E-008  0.2255378E+04  0.7816531E-02  0.8495726E-01
          1   -1    0    0  501    0  0.00000000000E+00  0.00000000000E+00  0.14246754355E+04  0.14246754355E+04  0.00000000000E+00 0. -1.
         -1   -1    0    0    0  501 -0.00000000000E+00 -0.00000000000E+00 -0.89261201885E+03  0.89261201885E+03  0.00000000000E+00 0.  1.
    2000013    1    1    2    0    0 -0.94734736562E+02 -0.44180198651E+03  0.68340747468E+03  0.12544757638E+04  0.95000000000E+03 0.  0.
   -2000013    1    1    2    0    0  0.94734736562E+02  0.44180198651E+03 -0.15134405804E+03  0.10628116905E+04  0.95000000000E+03 0.  0.
<mgrwt>
<rscale>  0 0.22553779E+04</rscale>
<asrwt>0</asrwt>
<pdfrwt beam="1">  1        1 0.21918084E+00 0.22553779E+04</pdfrwt>
<pdfrwt beam="2">  1       -1 0.13732493E+00 0.22553779E+04</pdfrwt>
<totfact> 0.29528354E+00</totfact>
</mgrwt>
</event>
<event>
 4    1  0.2048914E-008  0.2304826E+04  0.7816531E-02  0.8476021E-01
          2   -1    0    0  501    0  0.00000000000E+00  0.00000000000E+00  0.47248178786E+04  0.47248178786E+04  0.00000000000E+00 0.  1.
         -2   -1    0    0    0  501 -0.00000000000E+00 -0.00000000000E+00 -0.28108080927E+03  0.28108080927E+03  0.00000000000E+00 0. -1.
    2000013    1    1    2    0    0  0.37360095813E+03  0.53069726974E+03  0.23649248273E+04  0.26299404378E+04  0.95000000000E+03 0.  0.
   -2000013    1    1    2    0    0 -0.37360095813E+03 -0.53069726974E+03  0.20788122420E+04  0.23759582500E+04  0.95000000000E+03 0.  0.
<mgrwt>
<rscale>  0 0.23048259E+04</rscale>
<asrwt>0</asrwt>
<pdfrwt beam="1">  1        2 0.72689500E+00 0.23048259E+04</pdfrwt>
<pdfrwt beam="2">  1       -2 0.43243205E-01 0.23048259E+04</pdfrwt>
<totfact> 0.33537362E-01</totfact>
</mgrwt>
</event>
<event>
 4    1  0.2048914E-008  0.2241267E+04  0.7816531E-02  0.8501446E-01
         -2   -1    0    0    0  501 -0.00000000000E+00  0.00000000000E+00  0.35829052486E+03  0.35829052486E+03  0.00000000000E+00 0. -1.
          2   -1    0    0  501    0  0.00000000000E+00 -0.00000000000E+00 -0.35050311197E+04  0.35050311197E+04  0.00000000000E+00 0.  1.
    2000013    1    1    2    0    0 -0.49093566779E+03 -0.24666306534E+03 -0.19643891496E+04  0.22501522679E+04  0.95000000000E+03 0.  0.
   -2000013    1    1    2    0    0  0.49093566779E+03  0.24666306534E+03 -0.11823514453E+04  0.16131693767E+04  0.95000000000E+03 0.  0.
<mgrwt>
<rscale>  0 0.22412670E+04</rscale>
<asrwt>0</asrwt>
<pdfrwt beam="2">  1        2 0.53923556E+00 0.22412670E+04</pdfrwt>
<pdfrwt beam="1">  1       -2 0.55121619E-01 0.22412670E+04</pdfrwt>
<totfact> 0.22806098E+00</totfact>
</mgrwt>
</event>
<event>
 4    1  0.2048914E-008  0.3201927E+04  0.7816531E-02  0.8188308E-01
         -1   -1    0    0    0  501 -0.00000000000E+00  0.00000000000E+00  0.15119037389E+04  0.15119037389E+04  0.00000000000E+00 0.  1.
          1   -1    0    0  501    0  0.00000000000E+00 -0.00000000000E+00 -0.16952694448E+04  0.16952694448E+04  0.00000000000E+00 0. -1.
    2000013    1    1    2    0    0  0.96649059463E+03 -0.85227220155E+03 -0.10229440898E+03  0.16041932929E+04  0.95000000000E+03 0.  0.
   -2000013    1    1    2    0    0 -0.96649059463E+03  0.85227220155E+03 -0.81071296904E+02  0.16029798908E+04  0.95000000000E+03 0.  0.
<mgrwt>
<rscale>  0 0.32019271E+04</rscale>
<asrwt>0</asrwt>
<pdfrwt beam="2">  1        1 0.26081068E+00 0.32019271E+04</pdfrwt>
<pdfrwt beam="1">  1       -1 0.23260058E+00 0.32019271E+04</pdfrwt>
<totfact> 0.36439921E-01</totfact>
</mgrwt>
</event>
<event>
 4    1  0.2048914E-008  0.2786908E+04  0.7816531E-02  0.8307344E-01
         -2   -1    0    0    0  501 -0.00000000000E+00  0.00000000000E+00  0.16717842003E+04  0.16717842003E+04  0.00000000000E+00 0. -1.
          2   -1    0    0  501    0  0.00000000000E+00 -0.00000000000E+00 -0.11614625214E+04  0.11614625214E+04  0.00000000000E+00 0.  1.
    2000013    1    1    2    0    0  0.36368790504E+03 -0.90067311909E+03 -0.59392418090E+02  0.13599663301E+04  0.95000000000E+03 0.  0.
   -2000013    1    1    2    0    0 -0.36368790504E+03  0.90067311909E+03  0.56971409700E+03  0.14732803915E+04  0.95000000000E+03 0.  0.
<mgrwt>
<rscale>  0 0.27869085E+04</rscale>
<asrwt>0</asrwt>
<pdfrwt beam="2">  1        2 0.17868654E+00 0.27869085E+04</pdfrwt>
<pdfrwt beam="1">  1       -2 0.25719757E+00 0.27869085E+04</pdfrwt>
<totfact> 0.10101586E+00</totfact>
</mgrwt>
</event>
<event>
 4    1  0.2048914E-008  0.3225119E+04  0.7816531E-02  0.8182215E-01
         -2   -1    0    0    0  501 -0.00000000000E+00  0.00000000000E+00  0.13645492079E+04  0.13645492079E+04  0.00000000000E+00 0. -1.
          2   -1    0    0  501    0  0.00000000000E+00 -0.00000000000E+00 -0.19056466263E+04  0.19056466263E+04  0.00000000000E+00 0.  1.
    2000013    1    1    2    0    0  0.10753499678E+04  0.62552334994E+03 -0.66351090500E+03  0.17001187417E+04  0.95000000000E+03 0.  0.
   -2000013    1    1    2    0    0 -0.10753499678E+04 -0.62552334994E+03  0.12241348659E+03  0.15700770925E+04  0.95000000000E+03 0.  0.
<mgrwt>
<rscale>  0 0.32251193E+04</rscale>
<asrwt>0</asrwt>
<pdfrwt beam="2">  1        2 0.29317640E+00 0.32251193E+04</pdfrwt>
<pdfrwt beam="1">  1       -2 0.20993065E+00 0.32251193E+04</pdfrwt>
<totfact> 0.72623148E-01</totfact>
</mgrwt>
</event>
<event>
 4    1  0.2048914E-008  0.2908142E+04  0.7816531E-02  0.8270459E-01
          2   -1    0    0  501    0  0.00000000000E+00  0.00000000000E+00  0.12865606926E+04  0.12865606926E+04  0.00000000000E+00 0.  1.
         -2   -1    0    0    0  501 -0.00000000000E+00 -0.00000000000E+00 -0.16433911315E+04  0.16433911315E+04  0.00000000000E+00 0. -1.
    2000013    1    1    2    0    0  0.10482985734E+04 -0.24190440712E+03  0.56517592019E+02  0.14363641180E+04  0.95000000000E+03 0.  0.
   -2000013    1    1    2    0    0 -0.10482985734E+04  0.24190440712E+03 -0.41334803087E+03  0.14935877061E+04  0.95000000000E+03 0.  0.
<mgrwt>
<rscale>  0 0.29081420E+04</rscale>
<asrwt>0</asrwt>
<pdfrwt beam="1">  1        2 0.19793242E+00 0.29081420E+04</pdfrwt>
<pdfrwt beam="2">  1       -2 0.25282940E+00 0.29081420E+04</pdfrwt>
<totfact> 0.89633921E-01</totfact>
</mgrwt>
</event>
<event>
 4    1  0.2048914E-008  0.2346037E+04  0.7816531E-02  0.8459987E-01
         -2   -1    0    0    0  501 -0.00000000000E+00  0.00000000000E+00  0.16857090625E+04  0.16857090625E+04  0.00000000000E+00 0. -1.
          2   -1    0    0  501    0  0.00000000000E+00 -0.00000000000E+00 -0.81625728894E+03  0.81625728894E+03  0.00000000000E+00 0.  1.
    2000013    1    1    2    0    0 -0.37605341662E+03 -0.36029024538E+03 -0.44883581229E+02  0.10843153457E+04  0.95000000000E+03 0.  0.
   -2000013    1    1    2    0    0  0.37605341662E+03  0.36029024538E+03  0.91433535481E+03  0.14176510058E+04  0.95000000000E+03 0.  0.
<mgrwt>
<rscale>  0 0.23460369E+04</rscale>
<asrwt>0</asrwt>
<pdfrwt beam="2">  1        2 0.12557804E+00 0.23460369E+04</pdfrwt>
<pdfrwt beam="1">  1       -2 0.25933986E+00 0.23460369E+04</pdfrwt>
<totfact> 0.17053298E+00</totfact>
</mgrwt>
</event>
<event>
 4    1  0.2048914E-008  0.2478114E+04  0.7816531E-02  0.8410824E-01
         -2   -1    0    0    0  501 -0.00000000000E+00  0.00000000000E+00  0.59453565454E+03  0.59453565454E+03  0.00000000000E+00 0. -1.
          2   -1    0    0  501    0  0.00000000000E+00 -0.00000000000E+00 -0.25822871036E+04  0.25822871036E+04  0.00000000000E+00 0.  1.
    2000013    1    1    2    0    0 -0.18793909635E+03  0.70664987472E+03 -0.59238397667E+03  0.13371962927E+04  0.95000000000E+03 0.  0.
   -2000013    1    1    2    0    0  0.18793909635E+03 -0.70664987472E+03 -0.13953674724E+04  0.18396264655E+04  0.95000000000E+03 0.  0.
<mgrwt>
<rscale>  0 0.24781136E+04</rscale>
<asrwt>0</asrwt>
<pdfrwt beam="2">  1        2 0.39727493E+00 0.24781136E+04</pdfrwt>
<pdfrwt beam="1">  1       -2 0.91467025E-01 0.24781136E+04</pdfrwt>
<totfact> 0.28346941E+00</totfact>
</mgrwt>
</event>
<event>
 4    1  0.2048914E-008  0.2058140E+04  0.7816531E-02  0.8579911E-01
         -1   -1    0    0    0  501 -0.00000000000E+00  0.00000000000E+00  0.65967114414E+03  0.65967114414E+03  0.00000000000E+00 0. -1.
          1   -1    0    0  501    0  0.00000000000E+00 -0.00000000000E+00 -0.16053228262E+04  0.16053228262E+04  0.00000000000E+00 0.  1.
    2000013    1    1    2    0    0  0.34651617548E+03 -0.17056492666E+03 -0.37867447211E+03  0.10931880945E+04  0.95000000000E+03 0.  0.
   -2000013    1    1    2    0    0 -0.34651617548E+03  0.17056492666E+03 -0.56697720994E+03  0.11718058758E+04  0.95000000000E+03 0.  0.
<mgrwt>
<rscale>  0 0.20581401E+04</rscale>
<asrwt>0</asrwt>
<pdfrwt beam="2">  1        1 0.24697274E+00 0.20581401E+04</pdfrwt>
<pdfrwt beam="1">  1       -1 0.10148787E+00 0.20581401E+04</pdfrwt>
<totfact> 0.47049472E+00</totfact>
</mgrwt>
</event>
<event>
 4    1  0.2048914E-008  0.2918604E+04  0.7816531E-02  0.8267364E-01
          2   -1    0    0  501    0  0.00000000000E+00  0.00000000000E+00  0.20993336577E+04  0.20993336577E+04  0.00000000000E+00 0.  1.
         -2   -1    0    0    0  501 -0.00000000000E+00 -0.00000000000E+00 -0.10143993073E+04  0.10143993073E+04  0.00000000000E+00 0. -1.
    2000013    1    1    2    0    0 -0.84103651206E+03 -0.69234030632E+03  0.75686319132E+03  0.16315696138E+04  0.95000000000E+03 0.  0.
   -2000013    1    1    2    0    0  0.84103651206E+03  0.69234030632E+03  0.32807115906E+03  0.14821633512E+04  0.95000000000E+03 0.  0.
<mgrwt>
<rscale>  0 0.29186042E+04</rscale>
<asrwt>0</asrwt>
<pdfrwt beam="1">  1        2 0.32297441E+00 0.29186042E+04</pdfrwt>
<pdfrwt beam="2">  1       -2 0.15606143E+00 0.29186042E+04</pdfrwt>
<totfact> 0.13659250E+00</totfact>
</mgrwt>
</event>
<event>
 4    1  0.2048914E-008  0.2290686E+04  0.7816531E-02  0.8481602E-01
          2   -1    0    0  501    0  0.00000000000E+00  0.00000000000E+00  0.78475253673E+03  0.78475253673E+03  0.00000000000E+00 0.  1.
         -2   -1    0    0    0  501 -0.00000000000E+00 -0.00000000000E+00 -0.16716235990E+04  0.16716235990E+04  0.00000000000E+00 0. -1.
    2000013    1    1    2    0    0  0.49097446642E+03 -0.40709909702E+03 -0.49732230285E+03  0.12476438091E+04  0.95000000000E+03 0.  0.
   -2000013    1    1    2    0    0 -0.49097446642E+03  0.40709909702E+03 -0.38954875941E+03  0.12087323266E+04  0.95000000000E+03 0.  0.
<mgrwt>
<rscale>  0 0.22906862E+04</rscale>
<asrwt>0</asrwt>
<pdfrwt beam="1">  1        2 0.12073116E+00 0.22906862E+04</pdfrwt>
<pdfrwt beam="2">  1       -2 0.25717286E+00 0.22906862E+04</pdfrwt>
<totfact> 0.18613713E+00</totfact>
</mgrwt>
</event>
<event>
 4    1  0.2048914E-008  0.2728446E+04  0.7816531E-02  0.8325834E-01
          2   -1    0    0  501    0  0.00000000000E+00  0.00000000000E+00  0.91090836380E+03  0.91090836380E+03  0.00000000000E+00 0. -1.
         -2   -1    0    0    0  501 -0.00000000000E+00 -0.00000000000E+00 -0.20431308301E+04  0.20431308301E+04  0.00000000000E+00 0.  1.
    2000013    1    1    2    0    0 -0.41257810600E+03  0.84448855715E+03 -0.26916546248E+03  0.13632063904E+04  0.95000000000E+03 0.  0.
   -2000013    1    1    2    0    0  0.41257810600E+03 -0.84448855715E+03 -0.86305700379E+03  0.15908328034E+04  0.95000000000E+03 0.  0.
<mgrwt>
<rscale>  0 0.27284464E+04</rscale>
<asrwt>0</asrwt>
<pdfrwt beam="1">  1        2 0.14013975E+00 0.27284464E+04</pdfrwt>
<pdfrwt beam="2">  1       -2 0.31432782E+00 0.27284464E+04</pdfrwt>
<totfact> 0.65488958E-01</totfact>
</mgrwt>
</event>
<event>
 4    1  0.2048914E-008  0.2166708E+04  0.7816531E-02  0.8532414E-01
          2   -1    0    0  501    0  0.00000000000E+00  0.00000000000E+00  0.59936552411E+03  0.59936552411E+03  0.00000000000E+00 0.  1.
         -2   -1    0    0    0  501 -0.00000000000E+00 -0.00000000000E+00 -0.19581646163E+04  0.19581646163E+04  0.00000000000E+00 0. -1.
    2000013    1    1    2    0    0  0.21168187240E+03 -0.37142715908E+03 -0.32847041113E+03  0.10923187083E+04  0.95000000000E+03 0.  0.
   -2000013    1    1    2    0    0 -0.21168187240E+03  0.37142715908E+03 -0.10303286811E+04  0.14652114321E+04  0.95000000000E+03 0.  0.
<mgrwt>
<rscale>  0 0.21667084E+04</rscale>
<asrwt>0</asrwt>
<pdfrwt beam="1">  1        2 0.92210079E-01 0.21667084E+04</pdfrwt>
<pdfrwt beam="2">  1       -2 0.30125610E+00 0.21667084E+04</pdfrwt>
<totfact> 0.14221708E+00</totfact>
</mgrwt>
</event>
<event>
 4    1  0.2048914E-008  0.2499855E+04  0.7816531E-02  0.8403037E-01
          2   -1    0    0  501    0  0.00000000000E+00  0.00000000000E+00  0.99555788365E+03  0.99555788365E+03  0.00000000000E+00 0.  1.
         -2   -1    0    0    0  501 -0.00000000000E+00 -0.00000000000E+00 -0.15692896133E+04  0.15692896133E+04  0.00000000000E+00 0. -1.
    2000013    1    1    2    0    0  0.33201938486E+03  0.64294865478E+03 -0.66551187676E+03  0.13671232215E+04  0.95000000000E+03 0.  0.
   -2000013    1    1    2    0    0 -0.33201938486E+03 -0.64294865478E+03  0.91780147113E+02  0.11977242755E+04  0.95000000000E+03 0.  0.
<mgrwt>
<rscale>  0 0.24998549E+04</rscale>
<asrwt>0</asrwt>
<pdfrwt beam="1">  1        2 0.15316275E+00 0.24998549E+04</pdfrwt>
<pdfrwt beam="2">  1       -2 0.24142917E+00 0.24998549E+04</pdfrwt>
<totfact> 0.16411195E+00</totfact>
</mgrwt>
</event>
<event>
 4    1  0.2048914E-008  0.3326417E+04  0.7816531E-02  0.8156206E-01
         -2   -1    0    0    0  501 -0.00000000000E+00  0.00000000000E+00  0.12791545354E+04  0.12791545354E+04  0.00000000000E+00 0. -1.
          2   -1    0    0  501    0  0.00000000000E+00 -0.00000000000E+00 -0.21625713361E+04  0.21625713361E+04  0.00000000000E+00 0.  1.
    2000013    1    1    2    0    0  0.22338863200E+03  0.93991637858E+03 -0.14397267424E+04  0.19770327191E+04  0.95000000000E+03 0.  0.
   -2000013    1    1    2    0    0 -0.22338863200E+03 -0.93991637858E+03  0.55630994167E+03  0.14646931525E+04  0.95000000000E+03 0.  0.
<mgrwt>
<rscale>  0 0.33264173E+04</rscale>
<asrwt>0</asrwt>
<pdfrwt beam="2">  1        2 0.33270328E+00 0.33264173E+04</pdfrwt>
<pdfrwt beam="1">  1       -2 0.19679301E+00 0.33264173E+04</pdfrwt>
<totfact> 0.63080501E-01</totfact>
</mgrwt>
</event>
<event>
 4    1  0.2048914E-008  0.2647938E+04  0.7816531E-02  0.8352098E-01
         -2   -1    0    0    0  501 -0.00000000000E+00  0.00000000000E+00  0.16728417497E+04  0.16728417497E+04  0.00000000000E+00 0. -1.
          2   -1    0    0  501    0  0.00000000000E+00 -0.00000000000E+00 -0.10478540100E+04  0.10478540100E+04  0.00000000000E+00 0.  1.
    2000013    1    1    2    0    0  0.36161718369E+03 -0.84541037006E+03  0.38447782217E+03  0.13768837558E+04  0.95000000000E+03 0.  0.
   -2000013    1    1    2    0    0 -0.36161718369E+03  0.84541037006E+03  0.24050991747E+03  0.13438120039E+04  0.95000000000E+03 0.  0.
<mgrwt>
<rscale>  0 0.26479380E+04</rscale>
<asrwt>0</asrwt>
<pdfrwt beam="2">  1        2 0.16120831E+00 0.26479380E+04</pdfrwt>
<pdfrwt beam="1">  1       -2 0.25736027E+00 0.26479380E+04</pdfrwt>
<totfact> 0.11979842E+00</totfact>
</mgrwt>
</event>
<event>
 4    1  0.2048914E-008  0.2511600E+04  0.7816531E-02  0.8398864E-01
         -3   -1    0    0    0  501 -0.00000000000E+00  0.00000000000E+00  0.10978783287E+04  0.10978783287E+04  0.00000000000E+00 0. -1.
          3   -1    0    0  501    0  0.00000000000E+00 -0.00000000000E+00 -0.14364380147E+04  0.14364380147E+04  0.00000000000E+00 0.  1.
    2000013    1    1    2    0    0 -0.27316540843E+03 -0.69109257358E+03  0.18360576610E+03  0.12200161323E+04  0.95000000000E+03 0.  0.
   -2000013    1    1    2    0    0  0.27316540843E+03  0.69109257358E+03 -0.52216545211E+03  0.13143002111E+04  0.95000000000E+03 0.  0.
<mgrwt>
<rscale>  0 0.25116004E+04</rscale>
<asrwt>0</asrwt>
<pdfrwt beam="2">  1        3 0.22099046E+00 0.25116004E+04</pdfrwt>
<pdfrwt beam="1">  1       -3 0.16890436E+00 0.25116004E+04</pdfrwt>
<totfact> 0.59742572E-02</totfact>
</mgrwt>
</event>
<event>
 4    1  0.2048914E-008  0.2148904E+04  0.7816531E-02  0.8540001E-01
          1   -1    0    0  501    0  0.00000000000E+00  0.00000000000E+00  0.14118924018E+04  0.14118924018E+04  0.00000000000E+00 0. -1.
         -1   -1    0    0    0  501 -0.00000000000E+00 -0.00000000000E+00 -0.81765972023E+03  0.81765972023E+03  0.00000000000E+00 0.  1.
    2000013    1    1    2    0    0 -0.13264957019E+03  0.17320169359E+03  0.76613577632E+03  0.12397817400E+04  0.95000000000E+03 0.  0.
   -2000013    1    1    2    0    0  0.13264957019E+03 -0.17320169359E+03 -0.17190309474E+03  0.98977038202E+03  0.95000000000E+03 0.  0.
<mgrwt>
<rscale>  0 0.21489044E+04</rscale>
<asrwt>0</asrwt>
<pdfrwt beam="1">  1        1 0.21721421E+00 0.21489044E+04</pdfrwt>
<pdfrwt beam="2">  1       -1 0.12579380E+00 0.21489044E+04</pdfrwt>
<totfact> 0.38020227E+00</totfact>
</mgrwt>
</event>
<event>
 4    1  0.2048914E-008  0.2413572E+04  0.7816531E-02  0.8434440E-01
          2   -1    0    0  501    0  0.00000000000E+00  0.00000000000E+00  0.22592488002E+04  0.22592488002E+04  0.00000000000E+00 0.  1.
         -2   -1    0    0    0  501 -0.00000000000E+00 -0.00000000000E+00 -0.64460904390E+03  0.64460904390E+03  0.00000000000E+00 0. -1.
    2000013    1    1    2    0    0  0.65728889300E+03  0.29652083322E+03  0.58586773908E+03  0.13287943035E+04  0.95000000000E+03 0.  0.
   -2000013    1    1    2    0    0 -0.65728889300E+03 -0.29652083322E+03  0.10287720172E+04  0.15750635406E+04  0.95000000000E+03 0.  0.
<mgrwt>
<rscale>  0 0.24135718E+04</rscale>
<asrwt>0</asrwt>
<pdfrwt beam="1">  1        2 0.34757674E+00 0.24135718E+04</pdfrwt>
<pdfrwt beam="2">  1       -2 0.99170623E-01 0.24135718E+04</pdfrwt>
<totfact> 0.36175273E+00</totfact>
</mgrwt>
</event>
<event>
 4    1  0.2048914E-008  0.3232090E+04  0.7816531E-02  0.8180393E-01
          2   -1    0    0  501    0  0.00000000000E+00  0.00000000000E+00  0.18019702003E+04  0.18019702003E+04  0.00000000000E+00 0.  1.
         -2   -1    0    0    0  501 -0.00000000000E+00 -0.00000000000E+00 -0.14493030774E+04  0.14493030774E+04  0.00000000000E+00 0. -1.
    2000013    1    1    2    0    0  0.43267918524E+03  0.11069800925E+04  0.72406951915E+03  0.16850498126E+04  0.95000000000E+03 0.  0.
   -2000013    1    1    2    0    0 -0.43267918524E+03 -0.11069800925E+04 -0.37140239633E+03  0.15662234651E+04  0.95000000000E+03 0.  0.
<mgrwt>
<rscale>  0 0.32320897E+04</rscale>
<asrwt>0</asrwt>
<pdfrwt beam="1">  1        2 0.27722619E+00 0.32320897E+04</pdfrwt>
<pdfrwt beam="2">  1       -2 0.22296970E+00 0.32320897E+04</pdfrwt>
<totfact> 0.68425108E-01</totfact>
</mgrwt>
</event>
<event>
 4    1  0.2048914E-008  0.2001839E+04  0.7816531E-02  0.8605761E-01
          2   -1    0    0  501    0  0.00000000000E+00  0.00000000000E+00  0.37509783092E+04  0.37509783092E+04  0.00000000000E+00 0.  1.
         -2   -1    0    0    0  501 -0.00000000000E+00 -0.00000000000E+00 -0.26708763725E+03  0.26708763725E+03  0.00000000000E+00 0. -1.
    2000013    1    1    2    0    0 -0.22267091259E+03 -0.14290024573E+03  0.13981526585E+04  0.17109452569E+04  0.95000000000E+03 0.  0.
   -2000013    1    1    2    0    0  0.22267091259E+03  0.14290024573E+03  0.20857380134E+04  0.23071206895E+04  0.95000000000E+03 0.  0.
<mgrwt>
<rscale>  0 0.20018391E+04</rscale>
<asrwt>0</asrwt>
<pdfrwt beam="1">  1        2 0.57707355E+00 0.20018391E+04</pdfrwt>
<pdfrwt beam="2">  1       -2 0.41090409E-01 0.20018391E+04</pdfrwt>
<totfact> 0.28091086E+00</totfact>
</mgrwt>
</event>
<event>
 4    1  0.2048914E-008  0.2724165E+04  0.7816531E-02  0.8327207E-01
         -2   -1    0    0    0  501 -0.00000000000E+00  0.00000000000E+00  0.97750937288E+03  0.97750937288E+03  0.00000000000E+00 0. -1.
          2   -1    0    0  501    0  0.00000000000E+00 -0.00000000000E+00 -0.18979546312E+04  0.18979546312E+04  0.00000000000E+00 0.  1.
    2000013    1    1    2    0    0 -0.16326038903E+03  0.94070420505E+03 -0.24599725658E+03  0.13691577726E+04  0.95000000000E+03 0.  0.
   -2000013    1    1    2    0    0  0.16326038903E+03 -0.94070420505E+03 -0.67444800178E+03  0.15063062315E+04  0.95000000000E+03 0.  0.
<mgrwt>
<rscale>  0 0.27241648E+04</rscale>
<asrwt>0</asrwt>
<pdfrwt beam="2">  1        2 0.29199302E+00 0.27241648E+04</pdfrwt>
<pdfrwt beam="1">  1       -2 0.15038606E+00 0.27241648E+04</pdfrwt>
<totfact> 0.19838860E+00</totfact>
</mgrwt>
</event>
<event>
 4    1  0.2048914E-008  0.2980526E+04  0.7816531E-02  0.8249314E-01
          2   -1    0    0  501    0  0.00000000000E+00  0.00000000000E+00  0.60321425146E+03  0.60321425146E+03  0.00000000000E+00 0.  1.
         -2   -1    0    0    0  501 -0.00000000000E+00 -0.00000000000E+00 -0.36817485843E+04  0.36817485843E+04  0.00000000000E+00 0. -1.
    2000013    1    1    2    0    0 -0.94427856136E+03 -0.64886780935E+03 -0.16477293365E+04  0.22204061344E+04  0.95000000000E+03 0.  0.
   -2000013    1    1    2    0    0  0.94427856136E+03  0.64886780935E+03 -0.14308049964E+04  0.20645567014E+04  0.95000000000E+03 0.  0.
<mgrwt>
<rscale>  0 0.29805256E+04</rscale>
<asrwt>0</asrwt>
<pdfrwt beam="1">  1        2 0.92802192E-01 0.29805256E+04</pdfrwt>
<pdfrwt beam="2">  1       -2 0.56642286E+00 0.29805256E+04</pdfrwt>
<totfact> 0.29637383E-02</totfact>
</mgrwt>
</event>
<event>
 4    1  0.2048914E-008  0.3419569E+04  0.7816531E-02  0.8133120E-01
          2   -1    0    0  501    0  0.00000000000E+00  0.00000000000E+00  0.39882266625E+04  0.39882266625E+04  0.00000000000E+00 0.  1.
         -2   -1    0    0    0  501 -0.00000000000E+00 -0.00000000000E+00 -0.73299812632E+03  0.73299812632E+03  0.00000000000E+00 0. -1.
    2000013    1    1    2    0    0 -0.10626548822E+04  0.15163586707E+02  0.32409036023E+03  0.14618481092E+04  0.95000000000E+03 0.  0.
   -2000013    1    1    2    0    0  0.10626548822E+04 -0.15163586707E+02  0.29311381760E+04  0.32593766796E+04  0.95000000000E+03 0.  0.
<mgrwt>
<rscale>  0 0.34195688E+04</rscale>
<asrwt>0</asrwt>
<pdfrwt beam="1">  1        2 0.61357332E+00 0.34195688E+04</pdfrwt>
<pdfrwt beam="2">  1       -2 0.11276894E+00 0.34195688E+04</pdfrwt>
<totfact> 0.17846766E-01</totfact>
</mgrwt>
</event>
<event>
 4    1  0.2048914E-008  0.2131205E+04  0.7816531E-02  0.8547620E-01
         -2   -1    0    0    0  501 -0.00000000000E+00  0.00000000000E+00  0.11736273632E+04  0.11736273632E+04  0.00000000000E+00 0. -1.
          2   -1    0    0  501    0  0.00000000000E+00 -0.00000000000E+00 -0.96752075228E+03  0.96752075228E+03  0.00000000000E+00 0.  1.
    2000013    1    1    2    0    0 -0.48083782854E+02 -0.24363364818E+03 -0.31280952930E+03  0.10305431608E+04  0.95000000000E+03 0.  0.
   -2000013    1    1    2    0    0  0.48083782854E+02  0.24363364818E+03  0.51891614020E+03  0.11106049546E+04  0.95000000000E+03 0.  0.
<mgrwt>
<rscale>  0 0.21312051E+04</rscale>
<asrwt>0</asrwt>
<pdfrwt beam="2">  1        2 0.14884935E+00 0.21312051E+04</pdfrwt>
<pdfrwt beam="1">  1       -2 0.18055806E+00 0.21312051E+04</pdfrwt>
<totfact> 0.43669321E+00</totfact>
</mgrwt>
</event>
<event>
 4    1  0.2048914E-008  0.3614280E+04  0.7816531E-02  0.8087229E-01
          2   -1    0    0  501    0  0.00000000000E+00  0.00000000000E+00  0.31559971368E+04  0.31559971368E+04  0.00000000000E+00 0.  1.
         -2   -1    0    0    0  501 -0.00000000000E+00 -0.00000000000E+00 -0.10347773501E+04  0.10347773501E+04  0.00000000000E+00 0. -1.
    2000013    1    1    2    0    0 -0.13284725599E+04 -0.60881449126E+03  0.16139742678E+04  0.23754804492E+04  0.95000000000E+03 0.  0.
   -2000013    1    1    2    0    0  0.13284725599E+04  0.60881449126E+03  0.50724551885E+03  0.18152940378E+04  0.95000000000E+03 0.  0.
<mgrwt>
<rscale>  0 0.36142797E+04</rscale>
<asrwt>0</asrwt>
<pdfrwt beam="1">  1        2 0.48553801E+00 0.36142797E+04</pdfrwt>
<pdfrwt beam="2">  1       -2 0.15919652E+00 0.36142797E+04</pdfrwt>
<totfact> 0.28766334E-01</totfact>
</mgrwt>
</event>
<event>
 4    1  0.2048914E-008  0.2234216E+04  0.7816531E-02  0.8504320E-01
         -2   -1    0    0    0  501 -0.00000000000E+00  0.00000000000E+00  0.14141569110E+04  0.14141569110E+04  0.00000000000E+00 0. -1.
          2   -1    0    0  501    0  0.00000000000E+00 -0.00000000000E+00 -0.88245509258E+03  0.88245509258E+03  0.00000000000E+00 0.  1.
    2000013    1    1    2    0    0 -0.55789006173E+03 -0.75073835491E+02  0.43954502272E+03  0.11885189223E+04  0.95000000000E+03 0.  0.
   -2000013    1    1    2    0    0  0.55789006173E+03  0.75073835491E+02  0.92156795709E+02  0.11080930813E+04  0.95000000000E+03 0.  0.
<mgrwt>
<rscale>  0 0.22342157E+04</rscale>
<asrwt>0</asrwt>
<pdfrwt beam="2">  1        2 0.13576232E+00 0.22342157E+04</pdfrwt>
<pdfrwt beam="1">  1       -2 0.21756260E+00 0.22342157E+04</pdfrwt>
<totfact> 0.28128072E+00</totfact>
</mgrwt>
</event>
<event>
 4    1  0.2048914E-008  0.2893235E+04  0.7816531E-02  0.8274893E-01
         -2   -1    0    0    0  501 -0.00000000000E+00  0.00000000000E+00  0.72044417504E+03  0.72044417504E+03  0.00000000000E+00 0. -1.
          2   -1    0    0  501    0  0.00000000000E+00 -0.00000000000E+00 -0.29047393133E+04  0.29047393133E+04  0.00000000000E+00 0.  1.
    2000013    1    1    2    0    0 -0.60585800483E+03 -0.26023493653E+03 -0.31185657249E+01  0.11564150940E+04  0.95000000000E+03 0.  0.
   -2000013    1    1    2    0    0  0.60585800483E+03  0.26023493653E+03 -0.21811765725E+04  0.24687683943E+04  0.95000000000E+03 0.  0.
<mgrwt>
<rscale>  0 0.28932352E+04</rscale>
<asrwt>0</asrwt>
<pdfrwt beam="2">  1        2 0.44688297E+00 0.28932352E+04</pdfrwt>
<pdfrwt beam="1">  1       -2 0.11083757E+00 0.28932352E+04</pdfrwt>
<totfact> 0.11110576E+00</totfact>
</mgrwt>
</event>
<event>
 4    1  0.2048914E-008  0.2495802E+04  0.7816531E-02  0.8404483E-01
          1   -1    0    0  501    0  0.00000000000E+00  0.00000000000E+00  0.25143048492E+04  0.25143048492E+04  0.00000000000E+00 0.  1.
         -1   -1    0    0    0  501 -0.00000000000E+00 -0.00000000000E+00 -0.61935866736E+03  0.61935866736E+03  0.00000000000E+00 0. -1.
    2000013    1    1    2    0    0  0.64303337405E+03  0.48547975735E+03  0.85373303280E+03  0.15101465512E+04  0.95000000000E+03 0.  0.
   -2000013    1    1    2    0    0 -0.64303337405E+03 -0.48547975735E+03  0.10412131491E+04  0.16235169653E+04  0.95000000000E+03 0.  0.
<mgrwt>
<rscale>  0 0.24958017E+04</rscale>
<asrwt>0</asrwt>
<pdfrwt beam="1">  1        1 0.38681613E+00 0.24958017E+04</pdfrwt>
<pdfrwt beam="2">  1       -1 0.95285950E-01 0.24958017E+04</pdfrwt>
<totfact> 0.12511403E+00</totfact>
</mgrwt>
</event>
<event>
 4    1  0.2048914E-008  0.2831803E+04  0.7816531E-02  0.8293462E-01
          2   -1    0    0  501    0  0.00000000000E+00  0.00000000000E+00  0.79427336258E+03  0.79427336258E+03  0.00000000000E+00 0.  1.
         -2   -1    0    0    0  501 -0.00000000000E+00 -0.00000000000E+00 -0.25240398866E+04  0.25240398866E+04  0.00000000000E+00 0. -1.
    2000013    1    1    2    0    0 -0.86816970965E+03  0.51152252676E+03 -0.12103239048E+04  0.18392275266E+04  0.95000000000E+03 0.  0.
   -2000013    1    1    2    0    0  0.86816970965E+03 -0.51152252676E+03 -0.51944261930E+03  0.14790857226E+04  0.95000000000E+03 0.  0.
<mgrwt>
<rscale>  0 0.28318034E+04</rscale>
<asrwt>0</asrwt>
<pdfrwt beam="1">  1        2 0.12219590E+00 0.28318034E+04</pdfrwt>
<pdfrwt beam="2">  1       -2 0.38831382E+00 0.28318034E+04</pdfrwt>
<totfact> 0.26688327E-01</totfact>
</mgrwt>
</event>
<event>
 4    1  0.2048914E-008  0.3936556E+04  0.7816531E-02  0.8017469E-01
         -2   -1    0    0    0  501 -0.00000000000E+00  0.00000000000E+00  0.11679650332E+04  0.11679650332E+04  0.00000000000E+00 0. -1.
          2   -1    0    0  501    0  0.00000000000E+00 -0.00000000000E+00 -0.33169819563E+04  0.33169819563E+04  0.00000000000E+00 0.  1.
    2000013    1    1    2    0    0  0.14341888915E+04 -0.70159452827E+03 -0.33397080108E+03  0.18876358638E+04  0.95000000000E+03 0.  0.
   -2000013    1    1    2    0    0 -0.14341888915E+04  0.70159452827E+03 -0.18150461220E+04  0.25973111257E+04  0.95000000000E+03 0.  0.
<mgrwt>
<rscale>  0 0.39365563E+04</rscale>
<asrwt>0</asrwt>
<pdfrwt beam="2">  1        2 0.51030490E+00 0.39365563E+04</pdfrwt>
<pdfrwt beam="1">  1       -2 0.17968693E+00 0.39365563E+04</pdfrwt>
<totfact> 0.15658924E-01</totfact>
</mgrwt>
</event>
<event>
 4    1  0.2048914E-008  0.2016014E+04  0.7816531E-02  0.8599170E-01
         -2   -1    0    0    0  501 -0.00000000000E+00  0.00000000000E+00  0.17486689428E+04  0.17486689428E+04  0.00000000000E+00 0. -1.
          2   -1    0    0  501    0  0.00000000000E+00 -0.00000000000E+00 -0.58105786922E+03  0.58105786922E+03  0.00000000000E+00 0.  1.
    2000013    1    1    2    0    0 -0.32560599425E+03  0.85615891138E+02  0.56633686463E+03  0.11561084675E+04  0.95000000000E+03 0.  0.
   -2000013    1    1    2    0    0  0.32560599425E+03 -0.85615891138E+02  0.60127420894E+03  0.11736183445E+04  0.95000000000E+03 0.  0.
<mgrwt>
<rscale>  0 0.20160137E+04</rscale>
<asrwt>0</asrwt>
<pdfrwt beam="2">  1        2 0.89393519E-01 0.20160137E+04</pdfrwt>
<pdfrwt beam="1">  1       -2 0.26902599E+00 0.20160137E+04</pdfrwt>
<totfact> 0.23508718E+00</totfact>
</mgrwt>
</event>
<event>
 4    1  0.2048914E-008  0.2298792E+04  0.7816531E-02  0.8478398E-01
         -2   -1    0    0    0  501 -0.00000000000E+00  0.00000000000E+00  0.17067793432E+04  0.17067793432E+04  0.00000000000E+00 0. -1.
          2   -1    0    0  501    0  0.00000000000E+00 -0.00000000000E+00 -0.77403749597E+03  0.77403749597E+03  0.00000000000E+00 0.  1.
    2000013    1    1    2    0    0  0.29164465526E+03 -0.57554444627E+03  0.41457920570E+03  0.12209356790E+04  0.95000000000E+03 0.  0.
   -2000013    1    1    2    0    0 -0.29164465526E+03  0.57554444627E+03  0.51816264154E+03  0.12598811601E+04  0.95000000000E+03 0.  0.
<mgrwt>
<rscale>  0 0.22987920E+04</rscale>
<asrwt>0</asrwt>
<pdfrwt beam="2">  1        2 0.11908269E+00 0.22987920E+04</pdfrwt>
<pdfrwt beam="1">  1       -2 0.26258144E+00 0.22987920E+04</pdfrwt>
<totfact> 0.17552393E+00</totfact>
</mgrwt>
</event>
<event>
 4    1  0.2048914E-008  0.2749560E+04  0.7816531E-02  0.8319101E-01
          2   -1    0    0  501    0  0.00000000000E+00  0.00000000000E+00  0.98575352093E+03  0.98575352093E+03  0.00000000000E+00 0.  1.
         -2   -1    0    0    0  501 -0.00000000000E+00 -0.00000000000E+00 -0.19173356536E+04  0.19173356536E+04  0.00000000000E+00 0. -1.
    2000013    1    1    2    0    0 -0.73511521780E+03 -0.40266384994E+03 -0.10294420658E+04  0.16324164684E+04  0.95000000000E+03 0.  0.
   -2000013    1    1    2    0    0  0.73511521780E+03  0.40266384994E+03  0.97859933165E+02  0.12706727061E+04  0.95000000000E+03 0.  0.
<mgrwt>
<rscale>  0 0.27495602E+04</rscale>
<asrwt>0</asrwt>
<pdfrwt beam="1">  1        2 0.15165439E+00 0.27495602E+04</pdfrwt>
<pdfrwt beam="2">  1       -2 0.29497471E+00 0.27495602E+04</pdfrwt>
<totfact> 0.76690273E-01</totfact>
</mgrwt>
</event>
<event>
 4    1  0.2048914E-008  0.2162568E+04  0.7816531E-02  0.8534172E-01
         -2   -1    0    0    0  501 -0.00000000000E+00  0.00000000000E+00  0.78688493043E+03  0.78688493043E+03  0.00000000000E+00 0.  1.
          2   -1    0    0  501    0  0.00000000000E+00 -0.00000000000E+00 -0.14858274667E+04  0.14858274667E+04  0.00000000000E+00 0. -1.
    2000013    1    1    2    0    0 -0.46391034865E+03  0.21136026972E+03 -0.26287759906E+03  0.11097254648E+04  0.95000000000E+03 0.  0.
   -2000013    1    1    2    0    0  0.46391034865E+03 -0.21136026972E+03 -0.43606493718E+03  0.11629869323E+04  0.95000000000E+03 0.  0.
<mgrwt>
<rscale>  0 0.21625681E+04</rscale>
<asrwt>0</asrwt>
<pdfrwt beam="2">  1        2 0.22858884E+00 0.21625681E+04</pdfrwt>
<pdfrwt beam="1">  1       -2 0.12105922E+00 0.21625681E+04</pdfrwt>
<totfact> 0.61598869E+00</totfact>
</mgrwt>
</event>
<event>
 4    1  0.2048914E-008  0.3533893E+04  0.7816531E-02  0.8105804E-01
          2   -1    0    0  501    0  0.00000000000E+00  0.00000000000E+00  0.10825816933E+04  0.10825816933E+04  0.00000000000E+00 0.  1.
         -2   -1    0    0    0  501 -0.00000000000E+00 -0.00000000000E+00 -0.28839401293E+04  0.28839401293E+04  0.00000000000E+00 0. -1.
    2000013    1    1    2    0    0 -0.86704544744E+03 -0.13235498289E+03 -0.22524018430E+04  0.25971329792E+04  0.95000000000E+03 0.  0.
   -2000013    1    1    2    0    0  0.86704544744E+03  0.13235498289E+03  0.45104340691E+03  0.13693888434E+04  0.95000000000E+03 0.  0.
<mgrwt>
<rscale>  0 0.35338935E+04</rscale>
<asrwt>0</asrwt>
<pdfrwt beam="1">  1        2 0.16655103E+00 0.35338935E+04</pdfrwt>
<pdfrwt beam="2">  1       -2 0.44368309E+00 0.35338935E+04</pdfrwt>
<totfact> 0.69869150E-02</totfact>
</mgrwt>
</event>
<event>
 4    1  0.2048914E-008  0.2573063E+04  0.7816531E-02  0.8377409E-01
          2   -1    0    0  501    0  0.00000000000E+00  0.00000000000E+00  0.21841563558E+04  0.21841563558E+04  0.00000000000E+00 0.  1.
         -2   -1    0    0    0  501 -0.00000000000E+00 -0.00000000000E+00 -0.75780423958E+03  0.75780423958E+03  0.00000000000E+00 0. -1.
    2000013    1    1    2    0    0  0.26973397510E+03 -0.82453641821E+03  0.70540248792E+03  0.14672114341E+04  0.95000000000E+03 0.  0.
   -2000013    1    1    2    0    0 -0.26973397510E+03  0.82453641821E+03  0.72094962833E+03  0.14747491613E+04  0.95000000000E+03 0.  0.
<mgrwt>
<rscale>  0 0.25730627E+04</rscale>
<asrwt>0</asrwt>
<pdfrwt beam="1">  1        2 0.33602405E+00 0.25730627E+04</pdfrwt>
<pdfrwt beam="2">  1       -2 0.11658527E+00 0.25730627E+04</pdfrwt>
<totfact> 0.26642872E+00</totfact>
</mgrwt>
</event>
<event>
 4    1  0.2048914E-008  0.2777580E+04  0.7816531E-02  0.8310263E-01
          2   -1    0    0  501    0  0.00000000000E+00  0.00000000000E+00  0.19352080181E+04  0.19352080181E+04  0.00000000000E+00 0.  1.
         -2   -1    0    0    0  501 -0.00000000000E+00 -0.00000000000E+00 -0.99665670299E+03  0.99665670299E+03  0.00000000000E+00 0. -1.
    2000013    1    1    2    0    0 -0.10116121896E+04 -0.10196766249E+02  0.41367283814E+03  0.14481327333E+04  0.95000000000E+03 0.  0.
   -2000013    1    1    2    0    0  0.10116121896E+04  0.10196766249E+02  0.52487847701E+03  0.14837319879E+04  0.95000000000E+03 0.  0.
<mgrwt>
<rscale>  0 0.27775803E+04</rscale>
<asrwt>0</asrwt>
<pdfrwt beam="1">  1        2 0.29772431E+00 0.27775803E+04</pdfrwt>
<pdfrwt beam="2">  1       -2 0.15333180E+00 0.27775803E+04</pdfrwt>
<totfact> 0.17884740E+00</totfact>
</mgrwt>
</event>
<event>
 4    1  0.2048914E-008  0.2148312E+04  0.7816531E-02  0.8540255E-01
         -2   -1    0    0    0  501 -0.00000000000E+00  0.00000000000E+00  0.11853671583E+04  0.11853671583E+04  0.00000000000E+00 0. -1.
          2   -1    0    0  501    0  0.00000000000E+00 -0.00000000000E+00 -0.97337882052E+03  0.97337882052E+03  0.00000000000E+00 0.  1.
    2000013    1    1    2    0    0  0.55248914606E+02 -0.15461129118E+03 -0.36996670066E+03  0.10326337461E+04  0.95000000000E+03 0.  0.
   -2000013    1    1    2    0    0 -0.55248914606E+02  0.15461129118E+03  0.58195503839E+03  0.11261122327E+04  0.95000000000E+03 0.  0.
<mgrwt>
<rscale>  0 0.21483122E+04</rscale>
<asrwt>0</asrwt>
<pdfrwt beam="2">  1        2 0.14975059E+00 0.21483122E+04</pdfrwt>
<pdfrwt beam="1">  1       -2 0.18236418E+00 0.21483122E+04</pdfrwt>
<totfact> 0.42006244E+00</totfact>
</mgrwt>
</event>
<event>
 4    1  0.2048914E-008  0.2792468E+04  0.7816531E-02  0.8305610E-01
         -2   -1    0    0    0  501 -0.00000000000E+00  0.00000000000E+00  0.18272093012E+04  0.18272093012E+04  0.00000000000E+00 0. -1.
          2   -1    0    0  501    0  0.00000000000E+00 -0.00000000000E+00 -0.10669110823E+04  0.10669110823E+04  0.00000000000E+00 0.  1.
    2000013    1    1    2    0    0 -0.82707724832E+03 -0.55854598559E+02 -0.24151371310E+03  0.12837466200E+04  0.95000000000E+03 0.  0.
   -2000013    1    1    2    0    0  0.82707724832E+03  0.55854598559E+02  0.10018119320E+04  0.16103737634E+04  0.95000000000E+03 0.  0.
<mgrwt>
<rscale>  0 0.27924683E+04</rscale>
<asrwt>0</asrwt>
<pdfrwt beam="2">  1        2 0.16414017E+00 0.27924683E+04</pdfrwt>
<pdfrwt beam="1">  1       -2 0.28110912E+00 0.27924683E+04</pdfrwt>
<totfact> 0.82461844E-01</totfact>
</mgrwt>
</event>
<event>
 4    1  0.2048914E-008  0.3295353E+04  0.7816531E-02  0.8164079E-01
         -2   -1    0    0    0  501 -0.00000000000E+00  0.00000000000E+00  0.10651457502E+04  0.10651457502E+04  0.00000000000E+00 0. -1.
          2   -1    0    0  501    0  0.00000000000E+00 -0.00000000000E+00 -0.25487940869E+04  0.25487940869E+04  0.00000000000E+00 0.  1.
    2000013    1    1    2    0    0  0.58182586803E+03  0.10817590851E+04 -0.13754266224E+03  0.15588912864E+04  0.95000000000E+03 0.  0.
   -2000013    1    1    2    0    0 -0.58182586803E+03 -0.10817590851E+04 -0.13461056745E+04  0.20550485507E+04  0.95000000000E+03 0.  0.
<mgrwt>
<rscale>  0 0.32953526E+04</rscale>
<asrwt>0</asrwt>
<pdfrwt beam="2">  1        2 0.39212217E+00 0.32953526E+04</pdfrwt>
<pdfrwt beam="1">  1       -2 0.16386858E+00 0.32953526E+04</pdfrwt>
<totfact> 0.64269090E-01</totfact>
</mgrwt>
</event>
<event>
 4    1  0.2048914E-008  0.2494643E+04  0.7816531E-02  0.8404896E-01
         -2   -1    0    0    0  501 -0.00000000000E+00  0.00000000000E+00  0.12157122164E+04  0.12157122164E+04  0.00000000000E+00 0. -1.
          2   -1    0    0  501    0  0.00000000000E+00 -0.00000000000E+00 -0.12797529350E+04  0.12797529350E+04  0.00000000000E+00 0.  1.
    2000013    1    1    2    0    0  0.34574028346E+03 -0.50848149330E+03 -0.55680877336E+03  0.12612001359E+04  0.95000000000E+03 0.  0.
   -2000013    1    1    2    0    0 -0.34574028346E+03  0.50848149330E+03  0.49276805474E+03  0.12342650155E+04  0.95000000000E+03 0.  0.
<mgrwt>
<rscale>  0 0.24946433E+04</rscale>
<asrwt>0</asrwt>
<pdfrwt beam="2">  1        2 0.19688507E+00 0.24946433E+04</pdfrwt>
<pdfrwt beam="1">  1       -2 0.18703265E+00 0.24946433E+04</pdfrwt>
<totfact> 0.24604794E+00</totfact>
</mgrwt>
</event>
<event>
 4    1  0.2048914E-008  0.4492281E+04  0.7816531E-02  0.7911990E-01
         -2   -1    0    0    0  501 -0.00000000000E+00  0.00000000000E+00  0.21142817034E+04  0.21142817034E+04  0.00000000000E+00 0. -1.
          2   -1    0    0  501    0  0.00000000000E+00 -0.00000000000E+00 -0.23862227573E+04  0.23862227573E+04  0.00000000000E+00 0.  1.
    2000013    1    1    2    0    0  0.45537166199E+03 -0.18099796288E+04 -0.94940359950E+03  0.22994035753E+04  0.95000000000E+03 0.  0.
   -2000013    1    1    2    0    0 -0.45537166199E+03  0.18099796288E+04  0.67746254561E+03  0.22011008855E+04  0.95000000000E+03 0.  0.
<mgrwt>
<rscale>  0 0.44922810E+04</rscale>
<asrwt>0</asrwt>
<pdfrwt beam="2">  1        2 0.36711120E+00 0.44922810E+04</pdfrwt>
<pdfrwt beam="1">  1       -2 0.32527411E+00 0.44922810E+04</pdfrwt>
<totfact> 0.68172362E-02</totfact>
</mgrwt>
</event>
<event>
 4    1  0.2048914E-008  0.2143110E+04  0.7816531E-02  0.8542487E-01
          2   -1    0    0  501    0  0.00000000000E+00  0.00000000000E+00  0.86960559576E+03  0.86960559576E+03  0.00000000000E+00 0.  1.
         -2   -1    0    0    0  501 -0.00000000000E+00 -0.00000000000E+00 -0.13204035845E+04  0.13204035845E+04  0.00000000000E+00 0. -1.
    2000013    1    1    2    0    0  0.34362033531E+03 -0.34638073609E+03 -0.13587011329E+03  0.10765756995E+04  0.95000000000E+03 0.  0.
   -2000013    1    1    2    0    0 -0.34362033531E+03  0.34638073609E+03 -0.31492787542E+03  0.11134334807E+04  0.95000000000E+03 0.  0.
<mgrwt>
<rscale>  0 0.21431102E+04</rscale>
<asrwt>0</asrwt>
<pdfrwt beam="1">  1        2 0.13378548E+00 0.21431102E+04</pdfrwt>
<pdfrwt beam="2">  1       -2 0.20313901E+00 0.21431102E+04</pdfrwt>
<totfact> 0.35816780E+00</totfact>
</mgrwt>
</event>
<event>
 4    1  0.2048914E-008  0.2569570E+04  0.7816531E-02  0.8378612E-01
         -2   -1    0    0    0  501 -0.00000000000E+00  0.00000000000E+00  0.19697471562E+04  0.19697471562E+04  0.00000000000E+00 0. -1.
          2   -1    0    0  501    0  0.00000000000E+00 -0.00000000000E+00 -0.83801211434E+03  0.83801211434E+03  0.00000000000E+00 0.  1.
    2000013    1    1    2    0    0 -0.47436539077E+03  0.31273840119E+03 -0.14677169161E+03  0.11166332258E+04  0.95000000000E+03 0.  0.
   -2000013    1    1    2    0    0  0.47436539077E+03 -0.31273840119E+03  0.12785067334E+04  0.16911260447E+04  0.95000000000E+03 0.  0.
<mgrwt>
<rscale>  0 0.25695696E+04</rscale>
<asrwt>0</asrwt>
<pdfrwt beam="2">  1        2 0.12892494E+00 0.25695696E+04</pdfrwt>
<pdfrwt beam="1">  1       -2 0.30303802E+00 0.25695696E+04</pdfrwt>
<totfact> 0.87391310E-01</totfact>
</mgrwt>
</event>
<event>
 4    1  0.2048914E-008  0.2229106E+04  0.7816531E-02  0.8506410E-01
         -2   -1    0    0    0  501 -0.00000000000E+00  0.00000000000E+00  0.71420394904E+03  0.71420394904E+03  0.00000000000E+00 0. -1.
          2   -1    0    0  501    0  0.00000000000E+00 -0.00000000000E+00 -0.17393186467E+04  0.17393186467E+04  0.00000000000E+00 0.  1.
    2000013    1    1    2    0    0  0.71094229289E+02  0.52335990825E+03 -0.24122737180E+03  0.11133959888E+04  0.95000000000E+03 0.  0.
   -2000013    1    1    2    0    0 -0.71094229289E+02 -0.52335990825E+03 -0.78388732588E+03  0.13401266070E+04  0.95000000000E+03 0.  0.
<mgrwt>
<rscale>  0 0.22291059E+04</rscale>
<asrwt>0</asrwt>
<pdfrwt beam="2">  1        2 0.26758748E+00 0.22291059E+04</pdfrwt>
<pdfrwt beam="1">  1       -2 0.10987753E+00 0.22291059E+04</pdfrwt>
<totfact> 0.56023066E+00</totfact>
</mgrwt>
</event>
<event>
 4    1  0.2048914E-008  0.2474642E+04  0.7816531E-02  0.8412075E-01
         -2   -1    0    0    0  501 -0.00000000000E+00  0.00000000000E+00  0.10813477083E+04  0.10813477083E+04  0.00000000000E+00 0. -1.
          2   -1    0    0  501    0  0.00000000000E+00 -0.00000000000E+00 -0.14157919388E+04  0.14157919388E+04  0.00000000000E+00 0.  1.
    2000013    1    1    2    0    0 -0.22000586179E+03 -0.66710141777E+03  0.20359178113E+03  0.11989063742E+04  0.95000000000E+03 0.  0.
   -2000013    1    1    2    0    0  0.22000586179E+03  0.66710141777E+03 -0.53803601164E+03  0.12982332728E+04  0.95000000000E+03 0.  0.
<mgrwt>
<rscale>  0 0.24746421E+04</rscale>
<asrwt>0</asrwt>
<pdfrwt beam="2">  1        2 0.21781414E+00 0.24746421E+04</pdfrwt>
<pdfrwt beam="1">  1       -2 0.16636119E+00 0.24746421E+04</pdfrwt>
<totfact> 0.28671819E+00</totfact>
</mgrwt>
</event>
<event>
 4    1  0.2048914E-008  0.2687741E+04  0.7816531E-02  0.8338994E-01
         -2   -1    0    0    0  501 -0.00000000000E+00  0.00000000000E+00  0.53358443364E+03  0.53358443364E+03  0.00000000000E+00 0. -1.
          2   -1    0    0  501    0  0.00000000000E+00 -0.00000000000E+00 -0.33846331906E+04  0.33846331906E+04  0.00000000000E+00 0.  1.
    2000013    1    1    2    0    0  0.94345244055E+03  0.43064006631E+02 -0.15820648096E+04  0.20730137670E+04  0.95000000000E+03 0.  0.
   -2000013    1    1    2    0    0 -0.94345244055E+03 -0.43064006631E+02 -0.12689839473E+04  0.18452038573E+04  0.95000000000E+03 0.  0.
<mgrwt>
<rscale>  0 0.26877407E+04</rscale>
<asrwt>0</asrwt>
<pdfrwt beam="2">  1        2 0.52071280E+00 0.26877407E+04</pdfrwt>
<pdfrwt beam="1">  1       -2 0.82089912E-01 0.26877407E+04</pdfrwt>
<totfact> 0.11186463E+00</totfact>
</mgrwt>
</event>
<event>
 4    1  0.2048914E-008  0.2597923E+04  0.7816531E-02  0.8368907E-01
         -2   -1    0    0    0  501 -0.00000000000E+00  0.00000000000E+00  0.89076923175E+03  0.89076923175E+03  0.00000000000E+00 0. -1.
          2   -1    0    0  501    0  0.00000000000E+00 -0.00000000000E+00 -0.18942061457E+04  0.18942061457E+04  0.00000000000E+00 0.  1.
    2000013    1    1    2    0    0  0.82835753630E+03 -0.30249941394E+03 -0.41127277191E+03  0.13598997744E+04  0.95000000000E+03 0.  0.
   -2000013    1    1    2    0    0 -0.82835753630E+03  0.30249941394E+03 -0.59216414199E+03  0.14250756031E+04  0.95000000000E+03 0.  0.
<mgrwt>
<rscale>  0 0.25979227E+04</rscale>
<asrwt>0</asrwt>
<pdfrwt beam="2">  1        2 0.29141633E+00 0.25979227E+04</pdfrwt>
<pdfrwt beam="1">  1       -2 0.13704142E+00 0.25979227E+04</pdfrwt>
<totfact> 0.25694496E+00</totfact>
</mgrwt>
</event>
<event>
 4    1  0.2048914E-008  0.2496756E+04  0.7816531E-02  0.8404142E-01
          1   -1    0    0  501    0  0.00000000000E+00  0.00000000000E+00  0.11557089117E+04  0.11557089117E+04  0.00000000000E+00 0.  1.
         -1   -1    0    0    0  501 -0.00000000000E+00 -0.00000000000E+00 -0.13484771680E+04  0.13484771680E+04  0.00000000000E+00 0. -1.
    2000013    1    1    2    0    0 -0.60443171294E+03 -0.64953965699E+02  0.44036305568E+03  0.12107750964E+04  0.95000000000E+03 0.  0.
   -2000013    1    1    2    0    0  0.60443171294E+03  0.64953965699E+02 -0.63313131199E+03  0.12934109832E+04  0.95000000000E+03 0.  0.
<mgrwt>
<rscale>  0 0.24967556E+04</rscale>
<asrwt>0</asrwt>
<pdfrwt beam="1">  1        1 0.17780137E+00 0.24967556E+04</pdfrwt>
<pdfrwt beam="2">  1       -1 0.20745803E+00 0.24967556E+04</pdfrwt>
<totfact> 0.13694947E+00</totfact>
</mgrwt>
</event>
<event>
 4    1  0.2048914E-008  0.2132649E+04  0.7816531E-02  0.8546996E-01
          1   -1    0    0  501    0  0.00000000000E+00  0.00000000000E+00  0.12021898337E+04  0.12021898337E+04  0.00000000000E+00 0.  1.
         -1   -1    0    0    0  501 -0.00000000000E+00 -0.00000000000E+00 -0.94581410356E+03  0.94581410356E+03  0.00000000000E+00 0. -1.
    2000013    1    1    2    0    0  0.37340554088E+03  0.17671195589E+03  0.38277102829E+03  0.11043878274E+04  0.95000000000E+03 0.  0.
   -2000013    1    1    2    0    0 -0.37340554088E+03 -0.17671195589E+03 -0.12639529813E+03  0.10436161098E+04  0.95000000000E+03 0.  0.
<mgrwt>
<rscale>  0 0.21326492E+04</rscale>
<asrwt>0</asrwt>
<pdfrwt beam="1">  1        1 0.18495228E+00 0.21326492E+04</pdfrwt>
<pdfrwt beam="2">  1       -1 0.14550986E+00 0.21326492E+04</pdfrwt>
<totfact> 0.36960611E+00</totfact>
</mgrwt>
</event>
<event>
 4    1  0.2048914E-008  0.2357042E+04  0.7816531E-02  0.8455764E-01
          2   -1    0    0  501    0  0.00000000000E+00  0.00000000000E+00  0.19336201364E+04  0.19336201364E+04  0.00000000000E+00 0.  1.
         -2   -1    0    0    0  501 -0.00000000000E+00 -0.00000000000E+00 -0.71829604638E+03  0.71829604638E+03  0.00000000000E+00 0. -1.
    2000013    1    1    2    0    0  0.49266113185E+03 -0.34720905988E+03  0.21284435897E+03  0.11450204554E+04  0.95000000000E+03 0.  0.
   -2000013    1    1    2    0    0 -0.49266113185E+03  0.34720905988E+03  0.10024797310E+04  0.15068957274E+04  0.95000000000E+03 0.  0.
<mgrwt>
<rscale>  0 0.23570420E+04</rscale>
<asrwt>0</asrwt>
<pdfrwt beam="1">  1        2 0.29748002E+00 0.23570420E+04</pdfrwt>
<pdfrwt beam="2">  1       -2 0.11050709E+00 0.23570420E+04</pdfrwt>
<totfact> 0.42647745E+00</totfact>
</mgrwt>
</event>
<event>
 4    1  0.2048914E-008  0.3027027E+04  0.7816531E-02  0.8236055E-01
          1   -1    0    0  501    0  0.00000000000E+00  0.00000000000E+00  0.72758843634E+03  0.72758843634E+03  0.00000000000E+00 0.  1.
         -1   -1    0    0    0  501 -0.00000000000E+00 -0.00000000000E+00 -0.31483781593E+04  0.31483781593E+04  0.00000000000E+00 0. -1.
    2000013    1    1    2    0    0  0.11425542989E+04 -0.15080730280E+03 -0.15241721795E+04  0.21339573569E+04  0.95000000000E+03 0.  0.
   -2000013    1    1    2    0    0 -0.11425542989E+04  0.15080730280E+03 -0.89661754339E+03  0.17420092387E+04  0.95000000000E+03 0.  0.
<mgrwt>
<rscale>  0 0.30270273E+04</rscale>
<asrwt>0</asrwt>
<pdfrwt beam="1">  1        1 0.11193668E+00 0.30270273E+04</pdfrwt>
<pdfrwt beam="2">  1       -1 0.48436587E+00 0.30270273E+04</pdfrwt>
<totfact> 0.41081002E-02</totfact>
</mgrwt>
</event>
<event>
 4    1  0.2048914E-008  0.2298931E+04  0.7816531E-02  0.8478343E-01
          2   -1    0    0  501    0  0.00000000000E+00  0.00000000000E+00  0.10816604109E+04  0.10816604109E+04  0.00000000000E+00 0.  1.
         -2   -1    0    0    0  501 -0.00000000000E+00 -0.00000000000E+00 -0.12215209863E+04  0.12215209863E+04  0.00000000000E+00 0. -1.
    2000013    1    1    2    0    0  0.21093018788E+03  0.56013066711E+03 -0.31641969154E+03  0.11665587553E+04  0.95000000000E+03 0.  0.
   -2000013    1    1    2    0    0 -0.21093018788E+03 -0.56013066711E+03  0.17655911613E+03  0.11366226418E+04  0.95000000000E+03 0.  0.
<mgrwt>
<rscale>  0 0.22989310E+04</rscale>
<asrwt>0</asrwt>
<pdfrwt beam="1">  1        2 0.16640929E+00 0.22989310E+04</pdfrwt>
<pdfrwt beam="2">  1       -2 0.18792631E+00 0.22989310E+04</pdfrwt>
<totfact> 0.32453332E+00</totfact>
</mgrwt>
</event>
<event>
 4    1  0.2048914E-008  0.2036341E+04  0.7816531E-02  0.8589816E-01
          2   -1    0    0  501    0  0.00000000000E+00  0.00000000000E+00  0.23583875813E+04  0.23583875813E+04  0.00000000000E+00 0.  1.
         -2   -1    0    0    0  501 -0.00000000000E+00 -0.00000000000E+00 -0.43956780833E+03  0.43956780833E+03  0.00000000000E+00 0. -1.
    2000013    1    1    2    0    0 -0.11850367849E+03  0.34422300364E+03  0.90378937365E+03  0.13608335056E+04  0.95000000000E+03 0.  0.
   -2000013    1    1    2    0    0  0.11850367849E+03 -0.34422300364E+03  0.10150303993E+04  0.14371218841E+04  0.95000000000E+03 0.  0.
<mgrwt>
<rscale>  0 0.20363411E+04</rscale>
<asrwt>0</asrwt>
<pdfrwt beam="1">  1        2 0.36282885E+00 0.20363411E+04</pdfrwt>
<pdfrwt beam="2">  1       -2 0.67625818E-01 0.20363411E+04</pdfrwt>
<totfact> 0.77975273E+00</totfact>
</mgrwt>
</event>
<event>
 4    1  0.2048914E-008  0.2793783E+04  0.7816531E-02  0.8305201E-01
         -2   -1    0    0    0  501 -0.00000000000E+00  0.00000000000E+00  0.65012752618E+03  0.65012752618E+03  0.00000000000E+00 0. -1.
          2   -1    0    0  501    0  0.00000000000E+00 -0.00000000000E+00 -0.30014199646E+04  0.30014199646E+04  0.00000000000E+00 0.  1.
    2000013    1    1    2    0    0  0.58502644024E+03  0.64330606726E+03 -0.18827789323E+04  0.22811083139E+04  0.95000000000E+03 0.  0.
   -2000013    1    1    2    0    0 -0.58502644024E+03 -0.64330606726E+03 -0.46851350608E+03  0.13704391768E+04  0.95000000000E+03 0.  0.
<mgrwt>
<rscale>  0 0.27937829E+04</rscale>
<asrwt>0</asrwt>
<pdfrwt beam="2">  1        2 0.46175691E+00 0.27937829E+04</pdfrwt>
<pdfrwt beam="1">  1       -2 0.10001962E+00 0.27937829E+04</pdfrwt>
<totfact> 0.12484657E+00</totfact>
</mgrwt>
</event>
<event>
 4    1  0.2048914E-008  0.2257642E+04  0.7816531E-02  0.8494812E-01
          2   -1    0    0  501    0  0.00000000000E+00  0.00000000000E+00  0.10398457285E+04  0.10398457285E+04  0.00000000000E+00 0.  1.
         -2   -1    0    0    0  501 -0.00000000000E+00 -0.00000000000E+00 -0.12254097013E+04  0.12254097013E+04  0.00000000000E+00 0. -1.
    2000013    1    1    2    0    0 -0.17146644521E+03  0.42583591698E+03 -0.49538322672E+03  0.11656077862E+04  0.95000000000E+03 0.  0.
   -2000013    1    1    2    0    0  0.17146644521E+03 -0.42583591698E+03  0.30981925388E+03  0.10996476436E+04  0.95000000000E+03 0.  0.
<mgrwt>
<rscale>  0 0.22576422E+04</rscale>
<asrwt>0</asrwt>
<pdfrwt beam="1">  1        2 0.15997627E+00 0.22576422E+04</pdfrwt>
<pdfrwt beam="2">  1       -2 0.18852457E+00 0.22576422E+04</pdfrwt>
<totfact> 0.34268157E+00</totfact>
</mgrwt>
</event>
<event>
 4    1  0.2048914E-008  0.2815295E+04  0.7816531E-02  0.8298535E-01
          2   -1    0    0  501    0  0.00000000000E+00  0.00000000000E+00  0.74314784915E+03  0.74314784915E+03  0.00000000000E+00 0.  1.
         -2   -1    0    0    0  501 -0.00000000000E+00 -0.00000000000E+00 -0.26663225141E+04  0.26663225141E+04  0.00000000000E+00 0. -1.
    2000013    1    1    2    0    0 -0.35718998254E+03 -0.95089757196E+03 -0.12246422248E+04  0.18531161471E+04  0.95000000000E+03 0.  0.
   -2000013    1    1    2    0    0  0.35718998254E+03  0.95089757196E+03 -0.69853244007E+03  0.15563542160E+04  0.95000000000E+03 0.  0.
<mgrwt>
<rscale>  0 0.28152953E+04</rscale>
<asrwt>0</asrwt>
<pdfrwt beam="1">  1        2 0.11433044E+00 0.28152953E+04</pdfrwt>
<pdfrwt beam="2">  1       -2 0.41020346E+00 0.28152953E+04</pdfrwt>
<totfact> 0.20970274E-01</totfact>
</mgrwt>
</event>
<event>
 4    1  0.2048914E-008  0.2280985E+04  0.7816531E-02  0.8485456E-01
          2   -1    0    0  501    0  0.00000000000E+00  0.00000000000E+00  0.96870323683E+03  0.96870323683E+03  0.00000000000E+00 0.  1.
         -2   -1    0    0    0  501 -0.00000000000E+00 -0.00000000000E+00 -0.13427469486E+04  0.13427469486E+04  0.00000000000E+00 0. -1.
    2000013    1    1    2    0    0 -0.53098020642E+03  0.24870486642E+03  0.49394846797E+02  0.11174676466E+04  0.95000000000E+03 0.  0.
   -2000013    1    1    2    0    0  0.53098020642E+03 -0.24870486642E+03 -0.42343855852E+03  0.11939825388E+04  0.95000000000E+03 0.  0.
<mgrwt>
<rscale>  0 0.22809852E+04</rscale>
<asrwt>0</asrwt>
<pdfrwt beam="1">  1        2 0.14903127E+00 0.22809852E+04</pdfrwt>
<pdfrwt beam="2">  1       -2 0.20657645E+00 0.22809852E+04</pdfrwt>
<totfact> 0.28868270E+00</totfact>
</mgrwt>
</event>
<event>
 4    1  0.2048914E-008  0.2981732E+04  0.7816531E-02  0.8248967E-01
          2   -1    0    0  501    0  0.00000000000E+00  0.00000000000E+00  0.19680709924E+04  0.19680709924E+04  0.00000000000E+00 0.  1.
         -2   -1    0    0    0  501 -0.00000000000E+00 -0.00000000000E+00 -0.11293707569E+04  0.11293707569E+04  0.00000000000E+00 0. -1.
    2000013    1    1    2    0    0 -0.90276529134E+03  0.69799857035E+03  0.28000036058E+03  0.15109888740E+04  0.95000000000E+03 0.  0.
   -2000013    1    1    2    0    0  0.90276529134E+03 -0.69799857035E+03  0.55869987492E+03  0.15864528753E+04  0.95000000000E+03 0.  0.
<mgrwt>
<rscale>  0 0.29817323E+04</rscale>
<asrwt>0</asrwt>
<pdfrwt beam="1">  1        2 0.30278015E+00 0.29817323E+04</pdfrwt>
<pdfrwt beam="2">  1       -2 0.17374935E+00 0.29817323E+04</pdfrwt>
<totfact> 0.11965018E+00</totfact>
</mgrwt>
</event>
<event>
 4    1  0.2048914E-008  0.2560857E+04  0.7816531E-02  0.8381620E-01
         -1   -1    0    0    0  501 -0.00000000000E+00  0.00000000000E+00  0.19374622268E+04  0.19374622268E+04  0.00000000000E+00 0. -1.
          1   -1    0    0  501    0  0.00000000000E+00 -0.00000000000E+00 -0.84620847346E+03  0.84620847346E+03  0.00000000000E+00 0.  1.
    2000013    1    1    2    0    0  0.72989592226E+03  0.13592233915E+03  0.10141435358E+04  0.15755031104E+04  0.95000000000E+03 0.  0.
   -2000013    1    1    2    0    0 -0.72989592226E+03 -0.13592233915E+03  0.77110217531E+02  0.12081675899E+04  0.95000000000E+03 0.  0.
<mgrwt>
<rscale>  0 0.25608569E+04</rscale>
<asrwt>0</asrwt>
<pdfrwt beam="2">  1        1 0.13018592E+00 0.25608569E+04</pdfrwt>
<pdfrwt beam="1">  1       -1 0.29807111E+00 0.25608569E+04</pdfrwt>
<totfact> 0.60608411E-01</totfact>
</mgrwt>
</event>
<event>
 4    1  0.2048914E-008  0.2371227E+04  0.7816531E-02  0.8450355E-01
         -2   -1    0    0    0  501 -0.00000000000E+00  0.00000000000E+00  0.53014298941E+03  0.53014298941E+03  0.00000000000E+00 0. -1.
          2   -1    0    0  501    0  0.00000000000E+00 -0.00000000000E+00 -0.26515101440E+04  0.26515101440E+04  0.00000000000E+00 0.  1.
    2000013    1    1    2    0    0 -0.70169159297E+03 -0.10249458065E+03 -0.10840506364E+04  0.16064065529E+04  0.95000000000E+03 0.  0.
   -2000013    1    1    2    0    0  0.70169159297E+03  0.10249458065E+03 -0.10373165182E+04  0.15752465806E+04  0.95000000000E+03 0.  0.
<mgrwt>
<rscale>  0 0.23712271E+04</rscale>
<asrwt>0</asrwt>
<pdfrwt beam="2">  1        2 0.40792463E+00 0.23712271E+04</pdfrwt>
<pdfrwt beam="1">  1       -2 0.81560461E-01 0.23712271E+04</pdfrwt>
<totfact> 0.33848029E+00</totfact>
</mgrwt>
</event>
<event>
 4    1  0.2048914E-008  0.2651755E+04  0.7816531E-02  0.8350831E-01
          2   -1    0    0  501    0  0.00000000000E+00  0.00000000000E+00  0.40148474314E+04  0.40148474314E+04  0.00000000000E+00 0.  1.
         -2   -1    0    0    0  501 -0.00000000000E+00 -0.00000000000E+00 -0.43786239833E+03  0.43786239833E+03  0.00000000000E+00 0. -1.
    2000013    1    1    2    0    0 -0.34640609796E+03  0.85758583083E+03  0.17889771804E+04  0.22267442588E+04  0.95000000000E+03 0.  0.
   -2000013    1    1    2    0    0  0.34640609796E+03 -0.85758583083E+03  0.17880078527E+04  0.22259655710E+04  0.95000000000E+03 0.  0.
<mgrwt>
<rscale>  0 0.26517547E+04</rscale>
<asrwt>0</asrwt>
<pdfrwt beam="1">  1        2 0.61766881E+00 0.26517547E+04</pdfrwt>
<pdfrwt beam="2">  1       -2 0.67363448E-01 0.26517547E+04</pdfrwt>
<totfact> 0.59347860E-01</totfact>
</mgrwt>
</event>
<event>
 4    1  0.2048914E-008  0.2152555E+04  0.7816531E-02  0.8538439E-01
          2   -1    0    0  501    0  0.00000000000E+00  0.00000000000E+00  0.10389194788E+04  0.10389194788E+04  0.00000000000E+00 0.  1.
         -2   -1    0    0    0  501 -0.00000000000E+00 -0.00000000000E+00 -0.11149789824E+04  0.11149789824E+04  0.00000000000E+00 0. -1.
    2000013    1    1    2    0    0  0.12204520320E+03  0.43490045762E+03  0.18979620641E+03  0.10689041302E+04  0.95000000000E+03 0.  0.
   -2000013    1    1    2    0    0 -0.12204520320E+03 -0.43490045762E+03 -0.26585571005E+03  0.10849943310E+04  0.95000000000E+03 0.  0.
<mgrwt>
<rscale>  0 0.21525551E+04</rscale>
<asrwt>0</asrwt>
<pdfrwt beam="1">  1        2 0.15983377E+00 0.21525551E+04</pdfrwt>
<pdfrwt beam="2">  1       -2 0.17153523E+00 0.21525551E+04</pdfrwt>
<totfact> 0.45363865E+00</totfact>
</mgrwt>
</event>
<event>
 4    1  0.2048914E-008  0.2558184E+04  0.7816531E-02  0.8382546E-01
         -2   -1    0    0    0  501 -0.00000000000E+00  0.00000000000E+00  0.12435327302E+04  0.12435327302E+04  0.00000000000E+00 0. -1.
          2   -1    0    0  501    0  0.00000000000E+00 -0.00000000000E+00 -0.13156675980E+04  0.13156675980E+04  0.00000000000E+00 0.  1.
    2000013    1    1    2    0    0  0.72383200979E+03  0.23211368939E+03 -0.43089654650E+03  0.12907290099E+04  0.95000000000E+03 0.  0.
   -2000013    1    1    2    0    0 -0.72383200979E+03 -0.23211368939E+03  0.35876167874E+03  0.12684713183E+04  0.95000000000E+03 0.  0.
<mgrwt>
<rscale>  0 0.25581835E+04</rscale>
<asrwt>0</asrwt>
<pdfrwt beam="2">  1        2 0.20241040E+00 0.25581835E+04</pdfrwt>
<pdfrwt beam="1">  1       -2 0.19131273E+00 0.25581835E+04</pdfrwt>
<totfact> 0.21825249E+00</totfact>
</mgrwt>
</event>
<event>
 4    1  0.2048914E-008  0.2270314E+04  0.7816531E-02  0.8489719E-01
         -2   -1    0    0    0  501 -0.00000000000E+00  0.00000000000E+00  0.10217378078E+04  0.10217378078E+04  0.00000000000E+00 0. -1.
          2   -1    0    0  501    0  0.00000000000E+00 -0.00000000000E+00 -0.12611660422E+04  0.12611660422E+04  0.00000000000E+00 0.  1.
    2000013    1    1    2    0    0 -0.16686268164E+03  0.57318540251E+03 -0.29299610434E+03  0.11596255332E+04  0.95000000000E+03 0.  0.
   -2000013    1    1    2    0    0  0.16686268164E+03 -0.57318540251E+03  0.53567869872E+02  0.11232783167E+04  0.95000000000E+03 0.  0.
<mgrwt>
<rscale>  0 0.22703137E+04</rscale>
<asrwt>0</asrwt>
<pdfrwt beam="2">  1        2 0.19402554E+00 0.22703137E+04</pdfrwt>
<pdfrwt beam="1">  1       -2 0.15719043E+00 0.22703137E+04</pdfrwt>
<totfact> 0.41852367E+00</totfact>
</mgrwt>
</event>
<event>
 4    1  0.2048914E-008  0.2170893E+04  0.7816531E-02  0.8530642E-01
          2   -1    0    0  501    0  0.00000000000E+00  0.00000000000E+00  0.68233569355E+03  0.68233569355E+03  0.00000000000E+00 0.  1.
         -2   -1    0    0    0  501 -0.00000000000E+00 -0.00000000000E+00 -0.17267066535E+04  0.17267066535E+04  0.00000000000E+00 0. -1.
    2000013    1    1    2    0    0 -0.49706641834E+03 -0.15681536462E+03 -0.59260999127E+03  0.12350516931E+04  0.95000000000E+03 0.  0.
   -2000013    1    1    2    0    0  0.49706641834E+03  0.15681536462E+03 -0.45176096872E+03  0.11739906540E+04  0.95000000000E+03 0.  0.
<mgrwt>
<rscale>  0 0.21708925E+04</rscale>
<asrwt>0</asrwt>
<pdfrwt beam="1">  1        2 0.10497472E+00 0.21708925E+04</pdfrwt>
<pdfrwt beam="2">  1       -2 0.26564717E+00 0.21708925E+04</pdfrwt>
<totfact> 0.19978919E+00</totfact>
</mgrwt>
</event>
<event>
 4    1  0.2048914E-008  0.2270281E+04  0.7816531E-02  0.8489732E-01
          2   -1    0    0  501    0  0.00000000000E+00  0.00000000000E+00  0.84908176765E+03  0.84908176765E+03  0.00000000000E+00 0.  1.
         -2   -1    0    0    0  501 -0.00000000000E+00 -0.00000000000E+00 -0.15175728969E+04  0.15175728969E+04  0.00000000000E+00 0. -1.
    2000013    1    1    2    0    0  0.42978578624E+03  0.34331097961E+03 -0.63541309448E+03  0.12683958575E+04  0.95000000000E+03 0.  0.
   -2000013    1    1    2    0    0 -0.42978578624E+03 -0.34331097961E+03 -0.33078034764E+02  0.10982588070E+04  0.95000000000E+03 0.  0.
<mgrwt>
<rscale>  0 0.22702806E+04</rscale>
<asrwt>0</asrwt>
<pdfrwt beam="1">  1        2 0.13062797E+00 0.22702806E+04</pdfrwt>
<pdfrwt beam="2">  1       -2 0.23347275E+00 0.22702806E+04</pdfrwt>
<totfact> 0.23487472E+00</totfact>
</mgrwt>
</event>
<event>
 4    1  0.2048914E-008  0.3102105E+04  0.7816531E-02  0.8215160E-01
         -2   -1    0    0    0  501 -0.00000000000E+00  0.00000000000E+00  0.12326246532E+04  0.12326246532E+04  0.00000000000E+00 0. -1.
          2   -1    0    0  501    0  0.00000000000E+00 -0.00000000000E+00 -0.19517406073E+04  0.19517406073E+04  0.00000000000E+00 0.  1.
    2000013    1    1    2    0    0  0.10115980007E+04  0.51394890068E+03  0.11729188849E+03  0.14844970107E+04  0.95000000000E+03 0.  0.
   -2000013    1    1    2    0    0 -0.10115980007E+04 -0.51394890068E+03 -0.83640784255E+03  0.16998682498E+04  0.95000000000E+03 0.  0.
<mgrwt>
<rscale>  0 0.31021048E+04</rscale>
<asrwt>0</asrwt>
<pdfrwt beam="2">  1        2 0.30026779E+00 0.31021048E+04</pdfrwt>
<pdfrwt beam="1">  1       -2 0.18963456E+00 0.31021048E+04</pdfrwt>
<totfact> 0.94051953E-01</totfact>
</mgrwt>
</event>
<event>
 4    1  0.2048914E-008  0.2022711E+04  0.7816531E-02  0.8596076E-01
          1   -1    0    0  501    0  0.00000000000E+00  0.00000000000E+00  0.17672652343E+04  0.17672652343E+04  0.00000000000E+00 0.  1.
         -1   -1    0    0    0  501 -0.00000000000E+00 -0.00000000000E+00 -0.57876963683E+03  0.57876963683E+03  0.00000000000E+00 0. -1.
    2000013    1    1    2    0    0 -0.28209540118E+03 -0.19192957103E+03  0.66690906803E+03  0.12098274590E+04  0.95000000000E+03 0.  0.
   -2000013    1    1    2    0    0  0.28209540118E+03  0.19192957103E+03  0.52158652942E+03  0.11362074121E+04  0.95000000000E+03 0.  0.
<mgrwt>
<rscale>  0 0.20227105E+04</rscale>
<asrwt>0</asrwt>
<pdfrwt beam="1">  1        1 0.27188696E+00 0.20227105E+04</pdfrwt>
<pdfrwt beam="2">  1       -1 0.89041483E-01 0.20227105E+04</pdfrwt>
<totfact> 0.49101048E+00</totfact>
</mgrwt>
</event>
<event>
 4    1  0.2048914E-008  0.3181231E+04  0.7816531E-02  0.8193792E-01
         -2   -1    0    0    0  501 -0.00000000000E+00  0.00000000000E+00  0.11693696422E+04  0.11693696422E+04  0.00000000000E+00 0. -1.
          2   -1    0    0  501    0  0.00000000000E+00 -0.00000000000E+00 -0.21636087750E+04  0.21636087750E+04  0.00000000000E+00 0.  1.
    2000013    1    1    2    0    0 -0.41861315313E+03 -0.10117020617E+04 -0.11831678567E+04  0.18711398159E+04  0.95000000000E+03 0.  0.
   -2000013    1    1    2    0    0  0.41861315313E+03  0.10117020617E+04  0.18892872390E+03  0.14618386013E+04  0.95000000000E+03 0.  0.
<mgrwt>
<rscale>  0 0.31812315E+04</rscale>
<asrwt>0</asrwt>
<pdfrwt beam="2">  1        2 0.33286289E+00 0.31812315E+04</pdfrwt>
<pdfrwt beam="1">  1       -2 0.17990302E+00 0.31812315E+04</pdfrwt>
<totfact> 0.82906506E-01</totfact>
</mgrwt>
</event>
<event>
 4    1  0.2048914E-008  0.2031496E+04  0.7816531E-02  0.8592035E-01
         -2   -1    0    0    0  501 -0.00000000000E+00  0.00000000000E+00  0.32360875032E+03  0.32360875032E+03  0.00000000000E+00 0. -1.
          2   -1    0    0  501    0  0.00000000000E+00 -0.00000000000E+00 -0.31882438925E+04  0.31882438925E+04  0.00000000000E+00 0.  1.
    2000013    1    1    2    0    0 -0.39074892206E+02 -0.35057163556E+03 -0.15522888499E+04  0.18537874722E+04  0.95000000000E+03 0.  0.
   -2000013    1    1    2    0    0  0.39074892206E+02  0.35057163556E+03 -0.13123462923E+04  0.16580651705E+04  0.95000000000E+03 0.  0.
<mgrwt>
<rscale>  0 0.20314956E+04</rscale>
<asrwt>0</asrwt>
<pdfrwt beam="2">  1        2 0.49049908E+00 0.20314956E+04</pdfrwt>
<pdfrwt beam="1">  1       -2 0.49785960E-01 0.20314956E+04</pdfrwt>
<totfact> 0.46842154E+00</totfact>
</mgrwt>
</event>
<event>
 4    1  0.2048914E-008  0.2426309E+04  0.7816531E-02  0.8429719E-01
          2   -1    0    0  501    0  0.00000000000E+00  0.00000000000E+00  0.24343627921E+04  0.24343627921E+04  0.00000000000E+00 0.  1.
         -2   -1    0    0    0  501 -0.00000000000E+00 -0.00000000000E+00 -0.60457032972E+03  0.60457032972E+03  0.00000000000E+00 0. -1.
    2000013    1    1    2    0    0  0.63515225438E+03 -0.22123335161E+03  0.48669598001E+03  0.12616400275E+04  0.95000000000E+03 0.  0.
   -2000013    1    1    2    0    0 -0.63515225438E+03  0.22123335161E+03  0.13430964824E+04  0.17772930943E+04  0.95000000000E+03 0.  0.
<mgrwt>
<rscale>  0 0.24263087E+04</rscale>
<asrwt>0</asrwt>
<pdfrwt beam="1">  1        2 0.37451735E+00 0.24263087E+04</pdfrwt>
<pdfrwt beam="2">  1       -2 0.93010821E-01 0.24263087E+04</pdfrwt>
<totfact> 0.33371947E+00</totfact>
</mgrwt>
</event>
<event>
 4    1  0.2048914E-008  0.2384879E+04  0.7816531E-02  0.8445186E-01
         -2   -1    0    0    0  501 -0.00000000000E+00  0.00000000000E+00  0.94792465107E+03  0.94792465107E+03  0.00000000000E+00 0. -1.
          2   -1    0    0  501    0  0.00000000000E+00 -0.00000000000E+00 -0.15000266238E+04  0.15000266238E+04  0.00000000000E+00 0.  1.
    2000013    1    1    2    0    0 -0.41114967182E+02 -0.26480759982E+03 -0.96277272188E+03  0.13788563447E+04  0.95000000000E+03 0.  0.
   -2000013    1    1    2    0    0  0.41114967182E+02  0.26480759982E+03  0.41067074914E+03  0.10690949301E+04  0.95000000000E+03 0.  0.
<mgrwt>
<rscale>  0 0.23848792E+04</rscale>
<asrwt>0</asrwt>
<pdfrwt beam="2">  1        2 0.23077333E+00 0.23848792E+04</pdfrwt>
<pdfrwt beam="1">  1       -2 0.14583456E+00 0.23848792E+04</pdfrwt>
<totfact> 0.36893745E+00</totfact>
</mgrwt>
</event>
<event>
 4    1  0.2048914E-008  0.2663636E+04  0.7816531E-02  0.8346901E-01
          2   -1    0    0  501    0  0.00000000000E+00  0.00000000000E+00  0.31126195786E+04  0.31126195786E+04  0.00000000000E+00 0.  1.
         -2   -1    0    0    0  501 -0.00000000000E+00 -0.00000000000E+00 -0.56985435155E+03  0.56985435155E+03  0.00000000000E+00 0. -1.
    2000013    1    1    2    0    0 -0.85181145676E+03  0.24490142579E+03  0.16760566419E+04  0.21206662474E+04  0.95000000000E+03 0.  0.
   -2000013    1    1    2    0    0  0.85181145676E+03 -0.24490142579E+03  0.86670858519E+03  0.15618076827E+04  0.95000000000E+03 0.  0.
<mgrwt>
<rscale>  0 0.26636365E+04</rscale>
<asrwt>0</asrwt>
<pdfrwt beam="1">  1        2 0.47886454E+00 0.26636365E+04</pdfrwt>
<pdfrwt beam="2">  1       -2 0.87669902E-01 0.26636365E+04</pdfrwt>
<totfact> 0.14588814E+00</totfact>
</mgrwt>
</event>
<event>
 4    1  0.2048914E-008  0.4573508E+04  0.7816531E-02  0.7897893E-01
         -2   -1    0    0    0  501 -0.00000000000E+00  0.00000000000E+00  0.27952664514E+04  0.27952664514E+04  0.00000000000E+00 0. -1.
          2   -1    0    0  501    0  0.00000000000E+00 -0.00000000000E+00 -0.18707497716E+04  0.18707497716E+04  0.00000000000E+00 0.  1.
    2000013    1    1    2    0    0 -0.19510243054E+04 -0.65657887726E+03  0.76688179799E+03  0.23933656959E+04  0.95000000000E+03 0.  0.
   -2000013    1    1    2    0    0  0.19510243054E+04  0.65657887726E+03  0.15763488177E+03  0.22726505271E+04  0.95000000000E+03 0.  0.
<mgrwt>
<rscale>  0 0.45735081E+04</rscale>
<asrwt>0</asrwt>
<pdfrwt beam="2">  1        2 0.28780766E+00 0.45735081E+04</pdfrwt>
<pdfrwt beam="1">  1       -2 0.43004099E+00 0.45735081E+04</pdfrwt>
<totfact> 0.27962154E-02</totfact>
</mgrwt>
</event>
<event>
 4    1  0.2048914E-008  0.2779677E+04  0.7816531E-02  0.8309606E-01
         -2   -1    0    0    0  501 -0.00000000000E+00  0.00000000000E+00  0.75306330546E+03  0.75306330546E+03  0.00000000000E+00 0. -1.
          2   -1    0    0  501    0  0.00000000000E+00 -0.00000000000E+00 -0.25650577271E+04  0.25650577271E+04  0.00000000000E+00 0.  1.
    2000013    1    1    2    0    0 -0.14425010362E+03  0.90128613717E+03 -0.37748525612E+03  0.13704451510E+04  0.95000000000E+03 0.  0.
   -2000013    1    1    2    0    0  0.14425010362E+03 -0.90128613717E+03 -0.14345091655E+04  0.19476758815E+04  0.95000000000E+03 0.  0.
<mgrwt>
<rscale>  0 0.27796769E+04</rscale>
<asrwt>0</asrwt>
<pdfrwt beam="2">  1        2 0.39462427E+00 0.27796769E+04</pdfrwt>
<pdfrwt beam="1">  1       -2 0.11585589E+00 0.27796769E+04</pdfrwt>
<totfact> 0.16096936E+00</totfact>
</mgrwt>
</event>
<event>
 4    1  0.2048914E-008  0.3236172E+04  0.7816531E-02  0.8179329E-01
          2   -1    0    0  501    0  0.00000000000E+00  0.00000000000E+00  0.20768180149E+04  0.20768180149E+04  0.00000000000E+00 0.  1.
         -2   -1    0    0    0  501 -0.00000000000E+00 -0.00000000000E+00 -0.12606794790E+04  0.12606794790E+04  0.00000000000E+00 0. -1.
    2000013    1    1    2    0    0  0.11663843233E+04 -0.40091697302E+03  0.86291695206E+03  0.17799754141E+04  0.95000000000E+03 0.  0.
   -2000013    1    1    2    0    0 -0.11663843233E+04  0.40091697302E+03 -0.46778416161E+02  0.15575220798E+04  0.95000000000E+03 0.  0.
<mgrwt>
<rscale>  0 0.32361717E+04</rscale>
<asrwt>0</asrwt>
<pdfrwt beam="1">  1        2 0.31951046E+00 0.32361717E+04</pdfrwt>
<pdfrwt beam="2">  1       -2 0.19395069E+00 0.32361717E+04</pdfrwt>
<totfact> 0.74130421E-01</totfact>
</mgrwt>
</event>
<event>
 4    1  0.2048914E-008  0.2096452E+04  0.7816531E-02  0.8562808E-01
         -2   -1    0    0    0  501 -0.00000000000E+00  0.00000000000E+00  0.18838051475E+04  0.18838051475E+04  0.00000000000E+00 0. -1.
          2   -1    0    0  501    0  0.00000000000E+00 -0.00000000000E+00 -0.58327569997E+03  0.58327569997E+03  0.00000000000E+00 0.  1.
    2000013    1    1    2    0    0  0.27556463611E+03 -0.28748220865E+03  0.42178620170E+03  0.11130972504E+04  0.95000000000E+03 0.  0.
   -2000013    1    1    2    0    0 -0.27556463611E+03  0.28748220865E+03  0.87874324580E+03  0.13539835970E+04  0.95000000000E+03 0.  0.
<mgrwt>
<rscale>  0 0.20964520E+04</rscale>
<asrwt>0</asrwt>
<pdfrwt beam="2">  1        2 0.89734724E-01 0.20964520E+04</pdfrwt>
<pdfrwt beam="1">  1       -2 0.28981617E+00 0.20964520E+04</pdfrwt>
<totfact> 0.17363765E+00</totfact>
</mgrwt>
</event>
<event>
 4    1  0.2048914E-008  0.3179309E+04  0.7816531E-02  0.8194303E-01
         -1   -1    0    0    0  501 -0.00000000000E+00  0.00000000000E+00  0.58265092977E+03  0.58265092977E+03  0.00000000000E+00 0. -1.
          1   -1    0    0  501    0  0.00000000000E+00 -0.00000000000E+00 -0.43370753198E+04  0.43370753198E+04  0.00000000000E+00 0.  1.
    2000013    1    1    2    0    0  0.16680824798E+03 -0.11787036218E+04 -0.11726112243E+04  0.19221561599E+04  0.95000000000E+03 0.  0.
   -2000013    1    1    2    0    0 -0.16680824798E+03  0.11787036218E+04 -0.25818131658E+04  0.29975700897E+04  0.95000000000E+03 0.  0.
<mgrwt>
<rscale>  0 0.31793087E+04</rscale>
<asrwt>0</asrwt>
<pdfrwt beam="2">  1        1 0.66724234E+00 0.31793087E+04</pdfrwt>
<pdfrwt beam="1">  1       -1 0.89638607E-01 0.31793087E+04</pdfrwt>
<totfact> 0.47774008E-02</totfact>
</mgrwt>
</event>
<event>
 4    1  0.2048914E-008  0.2995085E+04  0.7816531E-02  0.8245136E-01
         -2   -1    0    0    0  501 -0.00000000000E+00  0.00000000000E+00  0.99638733678E+03  0.99638733678E+03  0.00000000000E+00 0. -1.
          2   -1    0    0  501    0  0.00000000000E+00 -0.00000000000E+00 -0.22507646776E+04  0.22507646776E+04  0.00000000000E+00 0.  1.
    2000013    1    1    2    0    0 -0.44660784344E+03 -0.10427268815E+04 -0.87771065272E+03  0.17203528432E+04  0.95000000000E+03 0.  0.
   -2000013    1    1    2    0    0  0.44660784344E+03  0.10427268815E+04 -0.37666668812E+03  0.15267991712E+04  0.95000000000E+03 0.  0.
<mgrwt>
<rscale>  0 0.29950849E+04</rscale>
<asrwt>0</asrwt>
<pdfrwt beam="2">  1        2 0.34627148E+00 0.29950849E+04</pdfrwt>
<pdfrwt beam="1">  1       -2 0.15329036E+00 0.29950849E+04</pdfrwt>
<totfact> 0.11707027E+00</totfact>
</mgrwt>
</event>
<event>
 4    1  0.2048914E-008  0.2044556E+04  0.7816531E-02  0.8586068E-01
         -2   -1    0    0    0  501 -0.00000000000E+00  0.00000000000E+00  0.31754278405E+03  0.31754278405E+03  0.00000000000E+00 0. -1.
          2   -1    0    0  501    0  0.00000000000E+00 -0.00000000000E+00 -0.32910608098E+04  0.32910608098E+04  0.00000000000E+00 0.  1.
    2000013    1    1    2    0    0  0.36028841204E+03  0.10494729489E+03 -0.15601902411E+04  0.18648097123E+04  0.95000000000E+03 0.  0.
   -2000013    1    1    2    0    0 -0.36028841204E+03 -0.10494729489E+03 -0.14133277846E+04  0.17437938816E+04  0.95000000000E+03 0.  0.
<mgrwt>
<rscale>  0 0.20445563E+04</rscale>
<asrwt>0</asrwt>
<pdfrwt beam="2">  1        2 0.50631706E+00 0.20445563E+04</pdfrwt>
<pdfrwt beam="1">  1       -2 0.48852735E-01 0.20445563E+04</pdfrwt>
<totfact> 0.41629985E+00</totfact>
</mgrwt>
</event>
<event>
 4    1  0.2048914E-008  0.3403883E+04  0.7816531E-02  0.8136954E-01
          2   -1    0    0  501    0  0.00000000000E+00  0.00000000000E+00  0.41003462955E+04  0.41003462955E+04  0.00000000000E+00 0.  1.
         -2   -1    0    0    0  501 -0.00000000000E+00 -0.00000000000E+00 -0.70642926880E+03  0.70642926880E+03  0.00000000000E+00 0. -1.
    2000013    1    1    2    0    0  0.12238895643E+04 -0.42163000272E+01  0.26916751640E+04  0.31057267477E+04  0.95000000000E+03 0.  0.
   -2000013    1    1    2    0    0 -0.12238895643E+04  0.42163000272E+01  0.70224186273E+03  0.17010488166E+04  0.95000000000E+03 0.  0.
<mgrwt>
<rscale>  0 0.34038829E+04</rscale>
<asrwt>0</asrwt>
<pdfrwt beam="1">  1        2 0.63082249E+00 0.34038829E+04</pdfrwt>
<pdfrwt beam="2">  1       -2 0.10868143E+00 0.34038829E+04</pdfrwt>
<totfact> 0.15801914E-01</totfact>
</mgrwt>
</event>
<event>
 4    1  0.2048914E-008  0.2869083E+04  0.7816531E-02  0.8282136E-01
          2   -1    0    0  501    0  0.00000000000E+00  0.00000000000E+00  0.80269999924E+03  0.80269999924E+03  0.00000000000E+00 0.  1.
         -2   -1    0    0    0  501 -0.00000000000E+00 -0.00000000000E+00 -0.25637346385E+04  0.25637346385E+04  0.00000000000E+00 0. -1.
    2000013    1    1    2    0    0  0.70303092777E+03 -0.81287023813E+03 -0.85707139332E+03  0.16709523879E+04  0.95000000000E+03 0.  0.
   -2000013    1    1    2    0    0 -0.70303092777E+03  0.81287023813E+03 -0.90396324591E+03  0.16954822498E+04  0.95000000000E+03 0.  0.
<mgrwt>
<rscale>  0 0.28690833E+04</rscale>
<asrwt>0</asrwt>
<pdfrwt beam="1">  1        2 0.12349231E+00 0.28690833E+04</pdfrwt>
<pdfrwt beam="2">  1       -2 0.39442070E+00 0.28690833E+04</pdfrwt>
<totfact> 0.23939353E-01</totfact>
</mgrwt>
</event>
<event>
 4    1  0.2048914E-008  0.2457628E+04  0.7816531E-02  0.8418238E-01
          1   -1    0    0  501    0  0.00000000000E+00  0.00000000000E+00  0.28417163781E+04  0.28417163781E+04  0.00000000000E+00 0.  1.
         -1   -1    0    0    0  501 -0.00000000000E+00 -0.00000000000E+00 -0.53136312715E+03  0.53136312715E+03  0.00000000000E+00 0. -1.
    2000013    1    1    2    0    0 -0.58438733073E+03 -0.50190800663E+03  0.99241535604E+03  0.15750582333E+04  0.95000000000E+03 0.  0.
   -2000013    1    1    2    0    0  0.58438733073E+03  0.50190800663E+03  0.13179378949E+04  0.17980212719E+04  0.95000000000E+03 0.  0.
<mgrwt>
<rscale>  0 0.24576276E+04</rscale>
<asrwt>0</asrwt>
<pdfrwt beam="1">  1        1 0.43718713E+00 0.24576276E+04</pdfrwt>
<pdfrwt beam="2">  1       -1 0.81748175E-01 0.24576276E+04</pdfrwt>
<totfact> 0.10332094E+00</totfact>
</mgrwt>
</event>
<event>
 4    1  0.2048914E-008  0.2157567E+04  0.7816531E-02  0.8536300E-01
          4   -1    0    0  501    0  0.00000000000E+00  0.00000000000E+00  0.20887162554E+04  0.20887162554E+04  0.00000000000E+00 0.  1.
         -4   -1    0    0    0  501 -0.00000000000E+00 -0.00000000000E+00 -0.55717171302E+03  0.55717171302E+03  0.00000000000E+00 0. -1.
    2000013    1    1    2    0    0 -0.15534988025E+03  0.48513045580E+03  0.71391042362E+03  0.12929242968E+04  0.95000000000E+03 0.  0.
   -2000013    1    1    2    0    0  0.15534988025E+03 -0.48513045580E+03  0.81763411879E+03  0.13529636716E+04  0.95000000000E+03 0.  0.
<mgrwt>
<rscale>  0 0.21575668E+04</rscale>
<asrwt>0</asrwt>
<pdfrwt beam="1">  1        4 0.32134096E+00 0.21575668E+04</pdfrwt>
<pdfrwt beam="2">  1       -4 0.85718726E-01 0.21575668E+04</pdfrwt>
<totfact> 0.49327907E-02</totfact>
</mgrwt>
</event>
<event>
 4    1  0.2048914E-008  0.2211776E+04  0.7816531E-02  0.8513542E-01
         -1   -1    0    0    0  501 -0.00000000000E+00  0.00000000000E+00  0.66074531193E+03  0.66074531193E+03  0.00000000000E+00 0. -1.
          1   -1    0    0  501    0  0.00000000000E+00 -0.00000000000E+00 -0.18509231146E+04  0.18509231146E+04  0.00000000000E+00 0.  1.
    2000013    1    1    2    0    0 -0.13910808434E+03  0.30352483633E+03 -0.11142534261E+04  0.15018452260E+04  0.95000000000E+03 0.  0.
   -2000013    1    1    2    0    0  0.13910808434E+03 -0.30352483633E+03 -0.75924376615E+02  0.10098232005E+04  0.95000000000E+03 0.  0.
<mgrwt>
<rscale>  0 0.22117765E+04</rscale>
<asrwt>0</asrwt>
<pdfrwt beam="2">  1        1 0.28475739E+00 0.22117765E+04</pdfrwt>
<pdfrwt beam="1">  1       -1 0.10165313E+00 0.22117765E+04</pdfrwt>
<totfact> 0.31443270E+00</totfact>
</mgrwt>
</event>
<event>
 4    1  0.2048914E-008  0.2224836E+04  0.7816531E-02  0.8508161E-01
         -2   -1    0    0    0  501 -0.00000000000E+00  0.00000000000E+00  0.72529115215E+03  0.72529115215E+03  0.00000000000E+00 0. -1.
          2   -1    0    0  501    0  0.00000000000E+00 -0.00000000000E+00 -0.17061749688E+04  0.17061749688E+04  0.00000000000E+00 0.  1.
    2000013    1    1    2    0    0 -0.58080735507E+02  0.45200061402E+03 -0.10052049117E+03  0.10584338884E+04  0.95000000000E+03 0.  0.
   -2000013    1    1    2    0    0  0.58080735507E+02 -0.45200061402E+03 -0.88036332552E+03  0.13730322326E+04  0.95000000000E+03 0.  0.
<mgrwt>
<rscale>  0 0.22248358E+04</rscale>
<asrwt>0</asrwt>
<pdfrwt beam="2">  1        2 0.26248846E+00 0.22248358E+04</pdfrwt>
<pdfrwt beam="1">  1       -2 0.11158325E+00 0.22248358E+04</pdfrwt>
<totfact> 0.56328196E+00</totfact>
</mgrwt>
</event>
<event>
 4    1  0.2048914E-008  0.3549275E+04  0.7816531E-02  0.8102211E-01
         -2   -1    0    0    0  501 -0.00000000000E+00  0.00000000000E+00  0.15310169422E+04  0.15310169422E+04  0.00000000000E+00 0. -1.
          2   -1    0    0  501    0  0.00000000000E+00 -0.00000000000E+00 -0.20570234480E+04  0.20570234480E+04  0.00000000000E+00 0.  1.
    2000013    1    1    2    0    0  0.31518438631E+03  0.13658676387E+04 -0.79974688266E+03  0.18727067790E+04  0.95000000000E+03 0.  0.
   -2000013    1    1    2    0    0 -0.31518438631E+03 -0.13658676387E+04  0.27374037692E+03  0.17153336112E+04  0.95000000000E+03 0.  0.
<mgrwt>
<rscale>  0 0.35492747E+04</rscale>
<asrwt>0</asrwt>
<pdfrwt beam="2">  1        2 0.31646514E+00 0.35492747E+04</pdfrwt>
<pdfrwt beam="1">  1       -2 0.23554107E+00 0.35492747E+04</pdfrwt>
<totfact> 0.40127602E-01</totfact>
</mgrwt>
</event>
<event>
 4    1  0.2048914E-008  0.3031438E+04  0.7816531E-02  0.8234810E-01
         -1   -1    0    0    0  501 -0.00000000000E+00  0.00000000000E+00  0.10699834079E+04  0.10699834079E+04  0.00000000000E+00 0.  1.
          1   -1    0    0  501    0  0.00000000000E+00 -0.00000000000E+00 -0.21471406237E+04  0.21471406237E+04  0.00000000000E+00 0. -1.
    2000013    1    1    2    0    0 -0.10812636703E+04  0.20548486801E+03 -0.83909061620E+02  0.14563295940E+04  0.95000000000E+03 0.  0.
   -2000013    1    1    2    0    0  0.10812636703E+04 -0.20548486801E+03 -0.99324815425E+03  0.17607944376E+04  0.95000000000E+03 0.  0.
<mgrwt>
<rscale>  0 0.30314385E+04</rscale>
<asrwt>0</asrwt>
<pdfrwt beam="2">  1        1 0.33032932E+00 0.30314385E+04</pdfrwt>
<pdfrwt beam="1">  1       -1 0.16461283E+00 0.30314385E+04</pdfrwt>
<totfact> 0.54194044E-01</totfact>
</mgrwt>
</event>
<event>
 4    1  0.2048914E-008  0.2262476E+04  0.7816531E-02  0.8492865E-01
         -2   -1    0    0    0  501 -0.00000000000E+00  0.00000000000E+00  0.10271204387E+04  0.10271204387E+04  0.00000000000E+00 0. -1.
          2   -1    0    0  501    0  0.00000000000E+00 -0.00000000000E+00 -0.12459095255E+04  0.12459095255E+04  0.00000000000E+00 0.  1.
    2000013    1    1    2    0    0  0.97073105721E+02 -0.22851529601E+03  0.45497027948E+03  0.10821923967E+04  0.95000000000E+03 0.  0.
   -2000013    1    1    2    0    0 -0.97073105721E+02  0.22851529601E+03 -0.67375936627E+03  0.11908375674E+04  0.95000000000E+03 0.  0.
<mgrwt>
<rscale>  0 0.22624758E+04</rscale>
<asrwt>0</asrwt>
<pdfrwt beam="2">  1        2 0.19167839E+00 0.22624758E+04</pdfrwt>
<pdfrwt beam="1">  1       -2 0.15801853E+00 0.22624758E+04</pdfrwt>
<totfact> 0.42151272E+00</totfact>
</mgrwt>
</event>
<event>
 4    1  0.2048914E-008  0.2720267E+04  0.7816531E-02  0.8328459E-01
         -2   -1    0    0    0  501 -0.00000000000E+00  0.00000000000E+00  0.66948239960E+03  0.66948239960E+03  0.00000000000E+00 0. -1.
          2   -1    0    0  501    0  0.00000000000E+00 -0.00000000000E+00 -0.27632742630E+04  0.27632742630E+04  0.00000000000E+00 0.  1.
    2000013    1    1    2    0    0  0.68119092763E+03 -0.69526810136E+03 -0.10384616561E+04  0.17112338893E+04  0.95000000000E+03 0.  0.
   -2000013    1    1    2    0    0 -0.68119092763E+03  0.69526810136E+03 -0.10553302073E+04  0.17215227733E+04  0.95000000000E+03 0.  0.
<mgrwt>
<rscale>  0 0.27202673E+04</rscale>
<asrwt>0</asrwt>
<pdfrwt beam="2">  1        2 0.42511911E+00 0.27202673E+04</pdfrwt>
<pdfrwt beam="1">  1       -2 0.10299729E+00 0.27202673E+04</pdfrwt>
<totfact> 0.16402888E+00</totfact>
</mgrwt>
</event>
<event>
 4    1  0.2048914E-008  0.2232165E+04  0.7816531E-02  0.8505158E-01
          2   -1    0    0  501    0  0.00000000000E+00  0.00000000000E+00  0.25290725072E+04  0.25290725072E+04  0.00000000000E+00 0.  1.
         -2   -1    0    0    0  501 -0.00000000000E+00 -0.00000000000E+00 -0.49252830610E+03  0.49252830610E+03  0.00000000000E+00 0. -1.
    2000013    1    1    2    0    0  0.42643698618E+03 -0.29522987149E+03  0.64971085664E+03  0.12623919270E+04  0.95000000000E+03 0.  0.
   -2000013    1    1    2    0    0 -0.42643698618E+03  0.29522987149E+03  0.13868333445E+04  0.17592088863E+04  0.95000000000E+03 0.  0.
<mgrwt>
<rscale>  0 0.22321647E+04</rscale>
<asrwt>0</asrwt>
<pdfrwt beam="1">  1        2 0.38908807E+00 0.22321647E+04</pdfrwt>
<pdfrwt beam="2">  1       -2 0.75773587E-01 0.22321647E+04</pdfrwt>
<totfact> 0.47646362E+00</totfact>
</mgrwt>
</event>
<event>
 4    1  0.2048914E-008  0.2769907E+04  0.7816531E-02  0.8312672E-01
         -2   -1    0    0    0  501 -0.00000000000E+00  0.00000000000E+00  0.10123760700E+04  0.10123760700E+04  0.00000000000E+00 0. -1.
          2   -1    0    0  501    0  0.00000000000E+00 -0.00000000000E+00 -0.18946480437E+04  0.18946480437E+04  0.00000000000E+00 0.  1.
    2000013    1    1    2    0    0 -0.51553037668E+02 -0.96903361041E+03 -0.72646263658E+03  0.15401077287E+04  0.95000000000E+03 0.  0.
   -2000013    1    1    2    0    0  0.51553037668E+02  0.96903361041E+03 -0.15580933709E+03  0.13669163849E+04  0.95000000000E+03 0.  0.
<mgrwt>
<rscale>  0 0.27699071E+04</rscale>
<asrwt>0</asrwt>
<pdfrwt beam="2">  1        2 0.29148432E+00 0.27699071E+04</pdfrwt>
<pdfrwt beam="1">  1       -2 0.15575016E+00 0.27699071E+04</pdfrwt>
<totfact> 0.18074097E+00</totfact>
</mgrwt>
</event>
<event>
 4    1  0.2048914E-008  0.2355378E+04  0.7816531E-02  0.8456401E-01
          2   -1    0    0  501    0  0.00000000000E+00  0.00000000000E+00  0.16211762015E+04  0.16211762015E+04  0.00000000000E+00 0.  1.
         -2   -1    0    0    0  501 -0.00000000000E+00 -0.00000000000E+00 -0.85552164968E+03  0.85552164968E+03  0.00000000000E+00 0. -1.
    2000013    1    1    2    0    0 -0.51233659897E+03 -0.37718658506E+03  0.67966701303E+03  0.13301149421E+04  0.95000000000E+03 0.  0.
   -2000013    1    1    2    0    0  0.51233659897E+03  0.37718658506E+03  0.85987538807E+02  0.11465829091E+04  0.95000000000E+03 0.  0.
<mgrwt>
<rscale>  0 0.23553780E+04</rscale>
<asrwt>0</asrwt>
<pdfrwt beam="1">  1        2 0.24941172E+00 0.23553780E+04</pdfrwt>
<pdfrwt beam="2">  1       -2 0.13161872E+00 0.23553780E+04</pdfrwt>
<totfact> 0.41226517E+00</totfact>
</mgrwt>
</event>
<event>
 4    1  0.2048914E-008  0.2455237E+04  0.7816531E-02  0.8419108E-01
         -2   -1    0    0    0  501 -0.00000000000E+00  0.00000000000E+00  0.72721954240E+03  0.72721954240E+03  0.00000000000E+00 0. -1.
          2   -1    0    0  501    0  0.00000000000E+00 -0.00000000000E+00 -0.20723415005E+04  0.20723415005E+04  0.00000000000E+00 0.  1.
    2000013    1    1    2    0    0  0.57086675884E+03 -0.36221974552E+03 -0.11104122497E+04  0.16101575590E+04  0.95000000000E+03 0.  0.
   -2000013    1    1    2    0    0 -0.57086675884E+03  0.36221974552E+03 -0.23470970837E+03  0.11894034839E+04  0.95000000000E+03 0.  0.
<mgrwt>
<rscale>  0 0.24552370E+04</rscale>
<asrwt>0</asrwt>
<pdfrwt beam="2">  1        2 0.31882177E+00 0.24552370E+04</pdfrwt>
<pdfrwt beam="1">  1       -2 0.11187993E+00 0.24552370E+04</pdfrwt>
<totfact> 0.34365061E+00</totfact>
</mgrwt>
</event>
<event>
 4    1  0.2048914E-008  0.2747290E+04  0.7816531E-02  0.8319822E-01
          2   -1    0    0  501    0  0.00000000000E+00  0.00000000000E+00  0.11357514544E+04  0.11357514544E+04  0.00000000000E+00 0.  1.
         -2   -1    0    0    0  501 -0.00000000000E+00 -0.00000000000E+00 -0.16613677435E+04  0.16613677435E+04  0.00000000000E+00 0. -1.
    2000013    1    1    2    0    0  0.10855716435E+03 -0.85184717739E+03  0.24316887417E+03  0.13034797171E+04  0.95000000000E+03 0.  0.
   -2000013    1    1    2    0    0 -0.10855716435E+03  0.85184717739E+03 -0.76878516326E+03  0.14936394809E+04  0.95000000000E+03 0.  0.
<mgrwt>
<rscale>  0 0.27472902E+04</rscale>
<asrwt>0</asrwt>
<pdfrwt beam="1">  1        2 0.17473099E+00 0.27472902E+04</pdfrwt>
<pdfrwt beam="2">  1       -2 0.25559504E+00 0.27472902E+04</pdfrwt>
<totfact> 0.10746034E+00</totfact>
</mgrwt>
</event>
<event>
 4    1  0.2048914E-008  0.2363912E+04  0.7816531E-02  0.8453139E-01
         -3   -1    0    0    0  501 -0.00000000000E+00  0.00000000000E+00  0.16076737414E+04  0.16076737414E+04  0.00000000000E+00 0.  1.
          3   -1    0    0  501    0  0.00000000000E+00 -0.00000000000E+00 -0.86896955921E+03  0.86896955921E+03  0.00000000000E+00 0. -1.
    2000013    1    1    2    0    0 -0.75306162225E+01 -0.61753055923E+03  0.16981465057E+02  0.11332206634E+04  0.95000000000E+03 0.  0.
   -2000013    1    1    2    0    0  0.75306162225E+01  0.61753055923E+03  0.72172271709E+03  0.13434226372E+04  0.95000000000E+03 0.  0.
<mgrwt>
<rscale>  0 0.23639116E+04</rscale>
<asrwt>0</asrwt>
<pdfrwt beam="2">  1        3 0.13368762E+00 0.23639116E+04</pdfrwt>
<pdfrwt beam="1">  1       -3 0.24733442E+00 0.23639116E+04</pdfrwt>
<totfact> 0.77289363E-02</totfact>
</mgrwt>
</event>
<event>
 4    1  0.2048914E-008  0.3228429E+04  0.7816531E-02  0.8181349E-01
          2   -1    0    0  501    0  0.00000000000E+00  0.00000000000E+00  0.43585913257E+04  0.43585913257E+04  0.00000000000E+00 0.  1.
         -2   -1    0    0    0  501 -0.00000000000E+00 -0.00000000000E+00 -0.59782829918E+03  0.59782829918E+03  0.00000000000E+00 0. -1.
    2000013    1    1    2    0    0  0.28682725675E+03 -0.12376851212E+04  0.23385293964E+04  0.28258368800E+04  0.95000000000E+03 0.  0.
   -2000013    1    1    2    0    0 -0.28682725675E+03  0.12376851212E+04  0.14222336302E+04  0.21305827449E+04  0.95000000000E+03 0.  0.
<mgrwt>
<rscale>  0 0.32284295E+04</rscale>
<asrwt>0</asrwt>
<pdfrwt beam="1">  1        2 0.67055249E+00 0.32284295E+04</pdfrwt>
<pdfrwt beam="2">  1       -2 0.91973587E-01 0.32284295E+04</pdfrwt>
<totfact> 0.14124457E-01</totfact>
</mgrwt>
</event>
<event>
 4    1  0.2048914E-008  0.3367336E+04  0.7816531E-02  0.8145970E-01
          1   -1    0    0  501    0  0.00000000000E+00  0.00000000000E+00  0.21705855520E+04  0.21705855520E+04  0.00000000000E+00 0.  1.
         -1   -1    0    0    0  501 -0.00000000000E+00 -0.00000000000E+00 -0.13059785926E+04  0.13059785926E+04  0.00000000000E+00 0. -1.
    2000013    1    1    2    0    0 -0.25495640593E+03  0.12606294509E+04  0.97671128780E+03  0.18736740168E+04  0.95000000000E+03 0.  0.
   -2000013    1    1    2    0    0  0.25495640593E+03 -0.12606294509E+04 -0.11210432841E+03  0.16028901278E+04  0.95000000000E+03 0.  0.
<mgrwt>
<rscale>  0 0.33673362E+04</rscale>
<asrwt>0</asrwt>
<pdfrwt beam="1">  1        1 0.33393624E+00 0.33673362E+04</pdfrwt>
<pdfrwt beam="2">  1       -1 0.20091978E+00 0.33673362E+04</pdfrwt>
<totfact> 0.27916442E-01</totfact>
</mgrwt>
</event>
<event>
 4    1  0.2048914E-008  0.2310038E+04  0.7816531E-02  0.8473974E-01
         -1   -1    0    0    0  501 -0.00000000000E+00  0.00000000000E+00  0.84324078763E+03  0.84324078763E+03  0.00000000000E+00 0.  1.
          1   -1    0    0  501    0  0.00000000000E+00 -0.00000000000E+00 -0.15820730075E+04  0.15820730075E+04  0.00000000000E+00 0. -1.
    2000013    1    1    2    0    0  0.36758649422E+03 -0.52121443513E+03 -0.20413010791E+03  0.11623052177E+04  0.95000000000E+03 0.  0.
   -2000013    1    1    2    0    0 -0.36758649422E+03  0.52121443513E+03 -0.53470211196E+03  0.12630085774E+04  0.95000000000E+03 0.  0.
<mgrwt>
<rscale>  0 0.23100377E+04</rscale>
<asrwt>0</asrwt>
<pdfrwt beam="2">  1        1 0.24339584E+00 0.23100377E+04</pdfrwt>
<pdfrwt beam="1">  1       -1 0.12972935E+00 0.23100377E+04</pdfrwt>
<totfact> 0.26431776E+00</totfact>
</mgrwt>
</event>
<event>
 4    1  0.2048914E-008  0.2305134E+04  0.7816531E-02  0.8475899E-01
         -2   -1    0    0    0  501 -0.00000000000E+00  0.00000000000E+00  0.60486435247E+03  0.60486435247E+03  0.00000000000E+00 0. -1.
          2   -1    0    0  501    0  0.00000000000E+00 -0.00000000000E+00 -0.21962130794E+04  0.21962130794E+04  0.00000000000E+00 0.  1.
    2000013    1    1    2    0    0 -0.39760749745E+03 -0.39286409137E+03 -0.12050132220E+04  0.16330923983E+04  0.95000000000E+03 0.  0.
   -2000013    1    1    2    0    0  0.39760749745E+03  0.39286409137E+03 -0.38633550501E+03  0.11679850336E+04  0.95000000000E+03 0.  0.
<mgrwt>
<rscale>  0 0.23051343E+04</rscale>
<asrwt>0</asrwt>
<pdfrwt beam="2">  1        2 0.33787894E+00 0.23051343E+04</pdfrwt>
<pdfrwt beam="1">  1       -2 0.93056052E-01 0.23051343E+04</pdfrwt>
<totfact> 0.45989384E+00</totfact>
</mgrwt>
</event>
<event>
 4    1  0.2048914E-008  0.2100225E+04  0.7816531E-02  0.8561144E-01
          2   -1    0    0  501    0  0.00000000000E+00  0.00000000000E+00  0.11387871718E+04  0.11387871718E+04  0.00000000000E+00 0.  1.
         -2   -1    0    0    0  501 -0.00000000000E+00 -0.00000000000E+00 -0.96834276289E+03  0.96834276289E+03  0.00000000000E+00 0. -1.
    2000013    1    1    2    0    0  0.12778612725E+03  0.41326966350E+03 -0.29675952015E+02  0.10442709281E+04  0.95000000000E+03 0.  0.
   -2000013    1    1    2    0    0 -0.12778612725E+03 -0.41326966350E+03  0.20012036091E+03  0.10628590066E+04  0.95000000000E+03 0.  0.
<mgrwt>
<rscale>  0 0.21002251E+04</rscale>
<asrwt>0</asrwt>
<pdfrwt beam="1">  1        2 0.17519803E+00 0.21002251E+04</pdfrwt>
<pdfrwt beam="2">  1       -2 0.14897581E+00 0.21002251E+04</pdfrwt>
<totfact> 0.57990430E+00</totfact>
</mgrwt>
</event>
<event>
 4    1  0.2048914E-008  0.4437975E+04  0.7816531E-02  0.7921586E-01
         -2   -1    0    0    0  501 -0.00000000000E+00  0.00000000000E+00  0.19694886919E+04  0.19694886919E+04  0.00000000000E+00 0. -1.
          2   -1    0    0  501    0  0.00000000000E+00 -0.00000000000E+00 -0.25000938378E+04  0.25000938378E+04  0.00000000000E+00 0.  1.
    2000013    1    1    2    0    0 -0.16880156986E+04 -0.74914719323E+03  0.52179273238E+03  0.21413514824E+04  0.95000000000E+03 0.  0.
   -2000013    1    1    2    0    0  0.16880156986E+04  0.74914719323E+03 -0.10523978783E+04  0.23282310474E+04  0.95000000000E+03 0.  0.
<mgrwt>
<rscale>  0 0.44379755E+04</rscale>
<asrwt>0</asrwt>
<pdfrwt beam="2">  1        2 0.38462982E+00 0.44379755E+04</pdfrwt>
<pdfrwt beam="1">  1       -2 0.30299826E+00 0.44379755E+04</pdfrwt>
<totfact> 0.80756246E-02</totfact>
</mgrwt>
</event>
<event>
 4    1  0.2048914E-008  0.2159099E+04  0.7816531E-02  0.8535647E-01
         -2   -1    0    0    0  501 -0.00000000000E+00  0.00000000000E+00  0.38956932637E+03  0.38956932637E+03  0.00000000000E+00 0. -1.
          2   -1    0    0  501    0  0.00000000000E+00 -0.00000000000E+00 -0.29915787404E+04  0.29915787404E+04  0.00000000000E+00 0.  1.
    2000013    1    1    2    0    0 -0.17331839782E+02  0.50174083320E+03 -0.14643727386E+04  0.18162961691E+04  0.95000000000E+03 0.  0.
   -2000013    1    1    2    0    0  0.17331839782E+02 -0.50174083320E+03 -0.11376366755E+04  0.15648518977E+04  0.95000000000E+03 0.  0.
<mgrwt>
<rscale>  0 0.21590992E+04</rscale>
<asrwt>0</asrwt>
<pdfrwt beam="2">  1        2 0.46024289E+00 0.21590992E+04</pdfrwt>
<pdfrwt beam="1">  1       -2 0.59933742E-01 0.21590992E+04</pdfrwt>
<totfact> 0.42020478E+00</totfact>
</mgrwt>
</event>
<event>
 4    1  0.2048914E-008  0.2211729E+04  0.7816531E-02  0.8513562E-01
          2   -1    0    0  501    0  0.00000000000E+00  0.00000000000E+00  0.32469787684E+04  0.32469787684E+04  0.00000000000E+00 0.  1.
         -2   -1    0    0    0  501 -0.00000000000E+00 -0.00000000000E+00 -0.37663825762E+03  0.37663825762E+03  0.00000000000E+00 0. -1.
    2000013    1    1    2    0    0 -0.40969507801E+03 -0.34436750805E+03  0.11330824923E+04  0.15725186714E+04  0.95000000000E+03 0.  0.
   -2000013    1    1    2    0    0  0.40969507801E+03  0.34436750805E+03  0.17372580185E+04  0.20510983546E+04  0.95000000000E+03 0.  0.
<mgrwt>
<rscale>  0 0.22117291E+04</rscale>
<asrwt>0</asrwt>
<pdfrwt beam="1">  1        2 0.49953518E+00 0.22117291E+04</pdfrwt>
<pdfrwt beam="2">  1       -2 0.57944350E-01 0.22117291E+04</pdfrwt>
<totfact> 0.30812104E+00</totfact>
</mgrwt>
</event>
<event>
 4    1  0.2048914E-008  0.2845703E+04  0.7816531E-02  0.8289218E-01
         -2   -1    0    0    0  501 -0.00000000000E+00  0.00000000000E+00  0.57096641163E+03  0.57096641163E+03  0.00000000000E+00 0. -1.
          2   -1    0    0  501    0  0.00000000000E+00 -0.00000000000E+00 -0.35457540213E+04  0.35457540213E+04  0.00000000000E+00 0.  1.
    2000013    1    1    2    0    0  0.69114988153E+02 -0.92939459905E+03 -0.22156973781E+04  0.25846404148E+04  0.95000000000E+03 0.  0.
   -2000013    1    1    2    0    0 -0.69114988153E+02  0.92939459905E+03 -0.75909023154E+03  0.15320800181E+04  0.95000000000E+03 0.  0.
<mgrwt>
<rscale>  0 0.28457030E+04</rscale>
<asrwt>0</asrwt>
<pdfrwt beam="2">  1        2 0.54550063E+00 0.28457030E+04</pdfrwt>
<pdfrwt beam="1">  1       -2 0.87840985E-01 0.28457030E+04</pdfrwt>
<totfact> 0.73108171E-01</totfact>
</mgrwt>
</event>
<event>
 4    1  0.2048914E-008  0.2290632E+04  0.7816531E-02  0.8481624E-01
         -2   -1    0    0    0  501 -0.00000000000E+00  0.00000000000E+00  0.86560437730E+03  0.86560437730E+03  0.00000000000E+00 0. -1.
          2   -1    0    0  501    0  0.00000000000E+00 -0.00000000000E+00 -0.15154132151E+04  0.15154132151E+04  0.00000000000E+00 0.  1.
    2000013    1    1    2    0    0 -0.18707424090E+03  0.56648260061E+03 -0.56499244962E+03  0.12560317578E+04  0.95000000000E+03 0.  0.
   -2000013    1    1    2    0    0  0.18707424090E+03 -0.56648260061E+03 -0.84816388168E+02  0.11249858346E+04  0.95000000000E+03 0.  0.
<mgrwt>
<rscale>  0 0.22906316E+04</rscale>
<asrwt>0</asrwt>
<pdfrwt beam="2">  1        2 0.23314049E+00 0.22906316E+04</pdfrwt>
<pdfrwt beam="1">  1       -2 0.13316990E+00 0.22906316E+04</pdfrwt>
<totfact> 0.46122772E+00</totfact>
</mgrwt>
</event>
<event>
 4    1  0.2048914E-008  0.2608595E+04  0.7816531E-02  0.8365288E-01
          2   -1    0    0  501    0  0.00000000000E+00  0.00000000000E+00  0.29927513830E+04  0.29927513830E+04  0.00000000000E+00 0.  1.
         -2   -1    0    0    0  501 -0.00000000000E+00 -0.00000000000E+00 -0.56843725565E+03  0.56843725565E+03  0.00000000000E+00 0. -1.
    2000013    1    1    2    0    0 -0.73717369559E+03 -0.13990828678E+03  0.54939015818E+03  0.13294092418E+04  0.95000000000E+03 0.  0.
   -2000013    1    1    2    0    0  0.73717369559E+03  0.13990828678E+03  0.18749239691E+04  0.22317793968E+04  0.95000000000E+03 0.  0.
<mgrwt>
<rscale>  0 0.26085946E+04</rscale>
<asrwt>0</asrwt>
<pdfrwt beam="1">  1        2 0.46042328E+00 0.26085946E+04</pdfrwt>
<pdfrwt beam="2">  1       -2 0.87451887E-01 0.26085946E+04</pdfrwt>
<totfact> 0.17557532E+00</totfact>
</mgrwt>
</event>
<event>
 4    1  0.2048914E-008  0.3159855E+04  0.7816531E-02  0.8199501E-01
         -2   -1    0    0    0  501 -0.00000000000E+00  0.00000000000E+00  0.25216355291E+04  0.25216355291E+04  0.00000000000E+00 0. -1.
          2   -1    0    0  501    0  0.00000000000E+00 -0.00000000000E+00 -0.98990136852E+03  0.98990136852E+03  0.00000000000E+00 0.  1.
    2000013    1    1    2    0    0  0.91118742857E+03 -0.57303283563E+03  0.32881611583E+02  0.14360398188E+04  0.95000000000E+03 0.  0.
   -2000013    1    1    2    0    0 -0.91118742857E+03  0.57303283563E+03  0.14988525490E+04  0.20754970789E+04  0.95000000000E+03 0.  0.
<mgrwt>
<rscale>  0 0.31598547E+04</rscale>
<asrwt>0</asrwt>
<pdfrwt beam="2">  1        2 0.15229252E+00 0.31598547E+04</pdfrwt>
<pdfrwt beam="1">  1       -2 0.38794392E+00 0.31598547E+04</pdfrwt>
<totfact> 0.19199514E-01</totfact>
</mgrwt>
</event>
<event>
 4    1  0.2048914E-008  0.2647300E+04  0.7816531E-02  0.8352310E-01
         -1   -1    0    0    0  501 -0.00000000000E+00  0.00000000000E+00  0.11616769150E+04  0.11616769150E+04  0.00000000000E+00 0. -1.
          1   -1    0    0  501    0  0.00000000000E+00 -0.00000000000E+00 -0.15082068554E+04  0.15082068554E+04  0.00000000000E+00 0.  1.
    2000013    1    1    2    0    0 -0.58611045325E+03  0.39109805455E+03  0.42599757410E+03  0.12571623144E+04  0.95000000000E+03 0.  0.
   -2000013    1    1    2    0    0  0.58611045325E+03 -0.39109805455E+03 -0.77252751451E+03  0.14127214560E+04  0.95000000000E+03 0.  0.
<mgrwt>
<rscale>  0 0.26472998E+04</rscale>
<asrwt>0</asrwt>
<pdfrwt beam="2">  1        1 0.23203182E+00 0.26472998E+04</pdfrwt>
<pdfrwt beam="1">  1       -1 0.17871953E+00 0.26472998E+04</pdfrwt>
<totfact> 0.12039328E+00</totfact>
</mgrwt>
</event>
<event>
 4    1  0.2048914E-008  0.2655706E+04  0.7816531E-02  0.8349521E-01
         -2   -1    0    0    0  501 -0.00000000000E+00  0.00000000000E+00  0.76433706411E+03  0.76433706411E+03  0.00000000000E+00 0. -1.
          2   -1    0    0  501    0  0.00000000000E+00 -0.00000000000E+00 -0.23068279394E+04  0.23068279394E+04  0.00000000000E+00 0.  1.
    2000013    1    1    2    0    0  0.19774613206E+03  0.82843779792E+03 -0.11965911906E+04  0.17492121641E+04  0.95000000000E+03 0.  0.
   -2000013    1    1    2    0    0 -0.19774613206E+03 -0.82843779792E+03 -0.34589968476E+03  0.13219528394E+04  0.95000000000E+03 0.  0.
<mgrwt>
<rscale>  0 0.26557064E+04</rscale>
<asrwt>0</asrwt>
<pdfrwt beam="2">  1        2 0.35489660E+00 0.26557064E+04</pdfrwt>
<pdfrwt beam="1">  1       -2 0.11759032E+00 0.26557064E+04</pdfrwt>
<totfact> 0.22086787E+00</totfact>
</mgrwt>
</event>
<event>
 4    1  0.2048914E-008  0.2271040E+04  0.7816531E-02  0.8489428E-01
          2   -1    0    0  501    0  0.00000000000E+00  0.00000000000E+00  0.18003526725E+04  0.18003526725E+04  0.00000000000E+00 0.  1.
         -2   -1    0    0    0  501 -0.00000000000E+00 -0.00000000000E+00 -0.71619600335E+03  0.71619600335E+03  0.00000000000E+00 0. -1.
    2000013    1    1    2    0    0 -0.39206500874E+03 -0.25436311641E+03  0.99692753489E+03  0.14542283438E+04  0.95000000000E+03 0.  0.
   -2000013    1    1    2    0    0  0.39206500874E+03  0.25436311641E+03  0.87229134280E+02  0.10623203321E+04  0.95000000000E+03 0.  0.
<mgrwt>
<rscale>  0 0.22710398E+04</rscale>
<asrwt>0</asrwt>
<pdfrwt beam="1">  1        2 0.27697733E+00 0.22710398E+04</pdfrwt>
<pdfrwt beam="2">  1       -2 0.11018400E+00 0.22710398E+04</pdfrwt>
<totfact> 0.51290675E+00</totfact>
</mgrwt>
</event>
<event>
 4    1  0.2048914E-008  0.2433160E+04  0.7816531E-02  0.8427192E-01
          2   -1    0    0  501    0  0.00000000000E+00  0.00000000000E+00  0.34140174619E+04  0.34140174619E+04  0.00000000000E+00 0.  1.
         -2   -1    0    0    0  501 -0.00000000000E+00 -0.00000000000E+00 -0.43352654352E+03  0.43352654352E+03  0.00000000000E+00 0. -1.
    2000013    1    1    2    0    0 -0.59352957422E+03  0.32284516609E+03  0.94005289908E+03  0.14975666295E+04  0.95000000000E+03 0.  0.
   -2000013    1    1    2    0    0  0.59352957422E+03 -0.32284516609E+03  0.20404380193E+04  0.23499773759E+04  0.95000000000E+03 0.  0.
<mgrwt>
<rscale>  0 0.24331602E+04</rscale>
<asrwt>0</asrwt>
<pdfrwt beam="1">  1        2 0.52523344E+00 0.24331602E+04</pdfrwt>
<pdfrwt beam="2">  1       -2 0.66696394E-01 0.24331602E+04</pdfrwt>
<totfact> 0.17295090E+00</totfact>
</mgrwt>
</event>
<event>
 4    1  0.2048914E-008  0.2136772E+04  0.7816531E-02  0.8545216E-01
         -2   -1    0    0    0  501 -0.00000000000E+00  0.00000000000E+00  0.10866946955E+04  0.10866946955E+04  0.00000000000E+00 0. -1.
          2   -1    0    0  501    0  0.00000000000E+00 -0.00000000000E+00 -0.10503860200E+04  0.10503860200E+04  0.00000000000E+00 0.  1.
    2000013    1    1    2    0    0  0.43198187441E+03 -0.11607632663E+03  0.21532960246E+03  0.10718903354E+04  0.95000000000E+03 0.  0.
   -2000013    1    1    2    0    0 -0.43198187441E+03  0.11607632663E+03 -0.17902092699E+03  0.10651903800E+04  0.95000000000E+03 0.  0.
<mgrwt>
<rscale>  0 0.21367723E+04</rscale>
<asrwt>0</asrwt>
<pdfrwt beam="2">  1        2 0.16159785E+00 0.21367723E+04</pdfrwt>
<pdfrwt beam="1">  1       -2 0.16718380E+00 0.21367723E+04</pdfrwt>
<totfact> 0.47984653E+00</totfact>
</mgrwt>
</event>
<event>
 4    1  0.2048914E-008  0.2133516E+04  0.7816531E-02  0.8546621E-01
         -2   -1    0    0    0  501 -0.00000000000E+00  0.00000000000E+00  0.46664748634E+03  0.46664748634E+03  0.00000000000E+00 0. -1.
          2   -1    0    0  501    0  0.00000000000E+00 -0.00000000000E+00 -0.24386133524E+04  0.24386133524E+04  0.00000000000E+00 0.  1.
    2000013    1    1    2    0    0  0.15472604900E+03  0.45937901659E+03 -0.10165402193E+04  0.14733713886E+04  0.95000000000E+03 0.  0.
   -2000013    1    1    2    0    0 -0.15472604900E+03 -0.45937901659E+03 -0.95542564677E+03  0.14318894502E+04  0.95000000000E+03 0.  0.
<mgrwt>
<rscale>  0 0.21335162E+04</rscale>
<asrwt>0</asrwt>
<pdfrwt beam="2">  1        2 0.37517128E+00 0.21335162E+04</pdfrwt>
<pdfrwt beam="1">  1       -2 0.71791922E-01 0.21335162E+04</pdfrwt>
<totfact> 0.61063595E+00</totfact>
</mgrwt>
</event>
<event>
 4    1  0.2048914E-008  0.2539325E+04  0.7816531E-02  0.8389108E-01
         -1   -1    0    0    0  501 -0.00000000000E+00  0.00000000000E+00  0.13297982876E+04  0.13297982876E+04  0.00000000000E+00 0. -1.
          1   -1    0    0  501    0  0.00000000000E+00 -0.00000000000E+00 -0.12122465654E+04  0.12122465654E+04  0.00000000000E+00 0.  1.
    2000013    1    1    2    0    0  0.52015686352E+03 -0.57909243466E+03 -0.26348843983E+03  0.12561199658E+04  0.95000000000E+03 0.  0.
   -2000013    1    1    2    0    0 -0.52015686352E+03  0.57909243466E+03  0.38104016199E+03  0.12859248872E+04  0.95000000000E+03 0.  0.
<mgrwt>
<rscale>  0 0.25393254E+04</rscale>
<asrwt>0</asrwt>
<pdfrwt beam="2">  1        1 0.18649947E+00 0.25393254E+04</pdfrwt>
<pdfrwt beam="1">  1       -1 0.20458435E+00 0.25393254E+04</pdfrwt>
<totfact> 0.12972197E+00</totfact>
</mgrwt>
</event>
<event>
 4    1  0.2048914E-008  0.3074616E+04  0.7816531E-02  0.8222739E-01
          2   -1    0    0  501    0  0.00000000000E+00  0.00000000000E+00  0.19945562497E+04  0.19945562497E+04  0.00000000000E+00 0.  1.
         -2   -1    0    0    0  501 -0.00000000000E+00 -0.00000000000E+00 -0.11848833196E+04  0.11848833196E+04  0.00000000000E+00 0. -1.
    2000013    1    1    2    0    0 -0.11921091529E+04  0.16238725992E+03  0.52419507057E+03  0.16201155288E+04  0.95000000000E+03 0.  0.
   -2000013    1    1    2    0    0  0.11921091529E+04 -0.16238725992E+03  0.28547785955E+03  0.15593240404E+04  0.95000000000E+03 0.  0.
<mgrwt>
<rscale>  0 0.30746164E+04</rscale>
<asrwt>0</asrwt>
<pdfrwt beam="1">  1        2 0.30685481E+00 0.30746164E+04</pdfrwt>
<pdfrwt beam="2">  1       -2 0.18228974E+00 0.30746164E+04</pdfrwt>
<totfact> 0.10009883E+00</totfact>
</mgrwt>
</event>
<event>
 4    1  0.2048914E-008  0.2229039E+04  0.7816531E-02  0.8506438E-01
          2   -1    0    0  501    0  0.00000000000E+00  0.00000000000E+00  0.12501076041E+04  0.12501076041E+04  0.00000000000E+00 0.  1.
         -2   -1    0    0    0  501 -0.00000000000E+00 -0.00000000000E+00 -0.99363711188E+03  0.99363711188E+03  0.00000000000E+00 0. -1.
    2000013    1    1    2    0    0  0.35193628875E+03 -0.46369238608E+03  0.10005898306E+03  0.11186516796E+04  0.95000000000E+03 0.  0.
   -2000013    1    1    2    0    0 -0.35193628875E+03  0.46369238608E+03  0.15641150918E+03  0.11250930364E+04  0.95000000000E+03 0.  0.
<mgrwt>
<rscale>  0 0.22290386E+04</rscale>
<asrwt>0</asrwt>
<pdfrwt beam="1">  1        2 0.19232425E+00 0.22290386E+04</pdfrwt>
<pdfrwt beam="2">  1       -2 0.15286725E+00 0.22290386E+04</pdfrwt>
<totfact> 0.45947998E+00</totfact>
</mgrwt>
</event>
<event>
 4    1  0.2048914E-008  0.2773138E+04  0.7816531E-02  0.8311657E-01
         -2   -1    0    0    0  501 -0.00000000000E+00  0.00000000000E+00  0.46639005308E+03  0.46639005308E+03  0.00000000000E+00 0. -1.
          2   -1    0    0  501    0  0.00000000000E+00 -0.00000000000E+00 -0.41222453529E+04  0.41222453529E+04  0.00000000000E+00 0.  1.
    2000013    1    1    2    0    0  0.20814671272E+03 -0.93548241438E+03 -0.23554070430E+04  0.27145708206E+04  0.95000000000E+03 0.  0.
   -2000013    1    1    2    0    0 -0.20814671272E+03  0.93548241438E+03 -0.13004482568E+04  0.18740645854E+04  0.95000000000E+03 0.  0.
<mgrwt>
<rscale>  0 0.27731385E+04</rscale>
<asrwt>0</asrwt>
<pdfrwt beam="2">  1        2 0.63419158E+00 0.27731385E+04</pdfrwt>
<pdfrwt beam="1">  1       -2 0.71752317E-01 0.27731385E+04</pdfrwt>
<totfact> 0.41671660E-01</totfact>
</mgrwt>
</event>
<event>
 4    1  0.2048914E-008  0.3134674E+04  0.7816531E-02  0.8206286E-01
          2   -1    0    0  501    0  0.00000000000E+00  0.00000000000E+00  0.37640479080E+04  0.37640479080E+04  0.00000000000E+00 0.  1.
         -2   -1    0    0    0  501 -0.00000000000E+00 -0.00000000000E+00 -0.65263374704E+03  0.65263374704E+03  0.00000000000E+00 0. -1.
    2000013    1    1    2    0    0 -0.52824652066E+03 -0.10332593406E+04  0.21973337774E+04  0.26603467783E+04  0.95000000000E+03 0.  0.
   -2000013    1    1    2    0    0  0.52824652066E+03  0.10332593406E+04  0.91408038359E+03  0.17563348768E+04  0.95000000000E+03 0.  0.
<mgrwt>
<rscale>  0 0.31346736E+04</rscale>
<asrwt>0</asrwt>
<pdfrwt beam="1">  1        2 0.57908428E+00 0.31346736E+04</pdfrwt>
<pdfrwt beam="2">  1       -2 0.10040519E+00 0.31346736E+04</pdfrwt>
<totfact> 0.36169676E-01</totfact>
</mgrwt>
</event>
<event>
 4    1  0.2048914E-008  0.2341702E+04  0.7816531E-02  0.8461658E-01
         -2   -1    0    0    0  501 -0.00000000000E+00  0.00000000000E+00  0.36850497531E+03  0.36850497531E+03  0.00000000000E+00 0. -1.
          2   -1    0    0  501    0  0.00000000000E+00 -0.00000000000E+00 -0.37201439070E+04  0.37201439070E+04  0.00000000000E+00 0.  1.
    2000013    1    1    2    0    0  0.65443076365E+03 -0.19968067859E+03 -0.17028427425E+04  0.20664765674E+04  0.95000000000E+03 0.  0.
   -2000013    1    1    2    0    0 -0.65443076365E+03  0.19968067859E+03 -0.16487961892E+04  0.20221723149E+04  0.95000000000E+03 0.  0.
<mgrwt>
<rscale>  0 0.23417016E+04</rscale>
<asrwt>0</asrwt>
<pdfrwt beam="2">  1        2 0.57232983E+00 0.23417016E+04</pdfrwt>
<pdfrwt beam="1">  1       -2 0.56693074E-01 0.23417016E+04</pdfrwt>
<totfact> 0.14922720E+00</totfact>
</mgrwt>
</event>
<event>
 4    1  0.2048914E-008  0.2410596E+04  0.7816531E-02  0.8435547E-01
         -2   -1    0    0    0  501 -0.00000000000E+00  0.00000000000E+00  0.45949200386E+03  0.45949200386E+03  0.00000000000E+00 0. -1.
          2   -1    0    0  501    0  0.00000000000E+00 -0.00000000000E+00 -0.31616300407E+04  0.31616300407E+04  0.00000000000E+00 0.  1.
    2000013    1    1    2    0    0 -0.16554610476E+03  0.71084292034E+03 -0.15500173491E+04  0.19590193855E+04  0.95000000000E+03 0.  0.
   -2000013    1    1    2    0    0  0.16554610476E+03 -0.71084292034E+03 -0.11521206877E+04  0.16621026591E+04  0.95000000000E+03 0.  0.
<mgrwt>
<rscale>  0 0.24105964E+04</rscale>
<asrwt>0</asrwt>
<pdfrwt beam="2">  1        2 0.48640463E+00 0.24105964E+04</pdfrwt>
<pdfrwt beam="1">  1       -2 0.70691076E-01 0.24105964E+04</pdfrwt>
<totfact> 0.22468750E+00</totfact>
</mgrwt>
</event>
<event>
 4    1  0.2048914E-008  0.2603162E+04  0.7816531E-02  0.8367128E-01
         -2   -1    0    0    0  501 -0.00000000000E+00  0.00000000000E+00  0.58566956784E+03  0.58566956784E+03  0.00000000000E+00 0. -1.
          2   -1    0    0  501    0  0.00000000000E+00 -0.00000000000E+00 -0.28926095258E+04  0.28926095258E+04  0.00000000000E+00 0.  1.
    2000013    1    1    2    0    0 -0.73209562566E+03 -0.42003107393E+03 -0.15295580495E+04  0.19885768617E+04  0.95000000000E+03 0.  0.
   -2000013    1    1    2    0    0  0.73209562566E+03  0.42003107393E+03 -0.77738190847E+03  0.14897022319E+04  0.95000000000E+03 0.  0.
<mgrwt>
<rscale>  0 0.26031622E+04</rscale>
<asrwt>0</asrwt>
<pdfrwt beam="2">  1        2 0.44501685E+00 0.26031622E+04</pdfrwt>
<pdfrwt beam="1">  1       -2 0.90103011E-01 0.26031622E+04</pdfrwt>
<totfact> 0.18920638E+00</totfact>
</mgrwt>
</event>
<event>
 4    1  0.2048914E-008  0.2092169E+04  0.7816531E-02  0.8564701E-01
         -1   -1    0    0    0  501 -0.00000000000E+00  0.00000000000E+00  0.13482542322E+04  0.13482542322E+04  0.00000000000E+00 0. -1.
          1   -1    0    0  501    0  0.00000000000E+00 -0.00000000000E+00 -0.81163693904E+03  0.81163693904E+03  0.00000000000E+00 0.  1.
    2000013    1    1    2    0    0 -0.20503917010E+03 -0.23875801100E+03  0.58270957097E+03  0.11580573791E+04  0.95000000000E+03 0.  0.
   -2000013    1    1    2    0    0  0.20503917010E+03  0.23875801100E+03 -0.46092277802E+02  0.10018337922E+04  0.95000000000E+03 0.  0.
<mgrwt>
<rscale>  0 0.20921692E+04</rscale>
<asrwt>0</asrwt>
<pdfrwt beam="2">  1        1 0.12486722E+00 0.20921692E+04</pdfrwt>
<pdfrwt beam="1">  1       -1 0.20742373E+00 0.20921692E+04</pdfrwt>
<totfact> 0.26605317E+00</totfact>
</mgrwt>
</event>
<event>
 4    1  0.2048914E-008  0.2827235E+04  0.7816531E-02  0.8294863E-01
          2   -1    0    0  501    0  0.00000000000E+00  0.00000000000E+00  0.11435568946E+04  0.11435568946E+04  0.00000000000E+00 0.  1.
         -2   -1    0    0    0  501 -0.00000000000E+00 -0.00000000000E+00 -0.17474547762E+04  0.17474547762E+04  0.00000000000E+00 0. -1.
    2000013    1    1    2    0    0  0.83583371736E+03  0.49396408040E+02  0.34052028562E+03  0.13113016713E+04  0.95000000000E+03 0.  0.
   -2000013    1    1    2    0    0 -0.83583371736E+03 -0.49396408040E+02 -0.94441816720E+03  0.15797099996E+04  0.95000000000E+03 0.  0.
<mgrwt>
<rscale>  0 0.28272347E+04</rscale>
<asrwt>0</asrwt>
<pdfrwt beam="1">  1        2 0.17593183E+00 0.28272347E+04</pdfrwt>
<pdfrwt beam="2">  1       -2 0.26883920E+00 0.28272347E+04</pdfrwt>
<totfact> 0.87623611E-01</totfact>
</mgrwt>
</event>
<event>
 4    1  0.2048914E-008  0.2291776E+04  0.7816531E-02  0.8481171E-01
         -2   -1    0    0    0  501 -0.00000000000E+00  0.00000000000E+00  0.18852553895E+04  0.18852553895E+04  0.00000000000E+00 0. -1.
          2   -1    0    0  501    0  0.00000000000E+00 -0.00000000000E+00 -0.69648871371E+03  0.69648871371E+03  0.00000000000E+00 0.  1.
    2000013    1    1    2    0    0 -0.40786711259E+03 -0.48971953742E+03  0.51984262538E+03  0.12565497054E+04  0.95000000000E+03 0.  0.
   -2000013    1    1    2    0    0  0.40786711259E+03  0.48971953742E+03  0.66892405040E+03  0.13251943978E+04  0.95000000000E+03 0.  0.
<mgrwt>
<rscale>  0 0.22917758E+04</rscale>
<asrwt>0</asrwt>
<pdfrwt beam="2">  1        2 0.10715211E+00 0.22917758E+04</pdfrwt>
<pdfrwt beam="1">  1       -2 0.29003929E+00 0.22917758E+04</pdfrwt>
<totfact> 0.13684053E+00</totfact>
</mgrwt>
</event>
<event>
 4    1  0.2048914E-008  0.2351712E+04  0.7816531E-02  0.8457806E-01
         -2   -1    0    0    0  501 -0.00000000000E+00  0.00000000000E+00  0.82763863216E+03  0.82763863216E+03  0.00000000000E+00 0. -1.
          2   -1    0    0  501    0  0.00000000000E+00 -0.00000000000E+00 -0.16705810107E+04  0.16705810107E+04  0.00000000000E+00 0.  1.
    2000013    1    1    2    0    0  0.12153774650E+03 -0.67221724995E+03 -0.29808933707E+03  0.12074786573E+04  0.95000000000E+03 0.  0.
   -2000013    1    1    2    0    0 -0.12153774650E+03  0.67221724995E+03 -0.54485304143E+03  0.12907409855E+04  0.95000000000E+03 0.  0.
<mgrwt>
<rscale>  0 0.23517120E+04</rscale>
<asrwt>0</asrwt>
<pdfrwt beam="2">  1        2 0.25701246E+00 0.23517120E+04</pdfrwt>
<pdfrwt beam="1">  1       -2 0.12732902E+00 0.23517120E+04</pdfrwt>
<totfact> 0.42087967E+00</totfact>
</mgrwt>
</event>
<event>
 4    1  0.2048914E-008  0.2209779E+04  0.7816531E-02  0.8514369E-01
          2   -1    0    0  501    0  0.00000000000E+00  0.00000000000E+00  0.11170045489E+04  0.11170045489E+04  0.00000000000E+00 0.  1.
         -2   -1    0    0    0  501 -0.00000000000E+00 -0.00000000000E+00 -0.10929059105E+04  0.10929059105E+04  0.00000000000E+00 0. -1.
    2000013    1    1    2    0    0  0.48788113125E+03 -0.24882619319E+03 -0.12337808486E+03  0.11034784205E+04  0.95000000000E+03 0.  0.
   -2000013    1    1    2    0    0 -0.48788113125E+03  0.24882619319E+03  0.14747672326E+03  0.11064320388E+04  0.95000000000E+03 0.  0.
<mgrwt>
<rscale>  0 0.22097791E+04</rscale>
<asrwt>0</asrwt>
<pdfrwt beam="1">  1        2 0.17184685E+00 0.22097791E+04</pdfrwt>
<pdfrwt beam="2">  1       -2 0.16813937E+00 0.22097791E+04</pdfrwt>
<totfact> 0.42682404E+00</totfact>
</mgrwt>
</event>
<event>
 4    1  0.2048914E-008  0.2555410E+04  0.7816531E-02  0.8383507E-01
         -1   -1    0    0    0  501 -0.00000000000E+00  0.00000000000E+00  0.75933226029E+03  0.75933226029E+03  0.00000000000E+00 0. -1.
          1   -1    0    0  501    0  0.00000000000E+00 -0.00000000000E+00 -0.21499549006E+04  0.21499549006E+04  0.00000000000E+00 0.  1.
    2000013    1    1    2    0    0  0.28812817698E+03 -0.79452048580E+03 -0.55243544517E+03  0.13863497285E+04  0.95000000000E+03 0.  0.
   -2000013    1    1    2    0    0 -0.28812817698E+03  0.79452048580E+03 -0.83818719513E+03  0.15229374323E+04  0.95000000000E+03 0.  0.
<mgrwt>
<rscale>  0 0.25554100E+04</rscale>
<asrwt>0</asrwt>
<pdfrwt beam="2">  1        1 0.33076228E+00 0.25554100E+04</pdfrwt>
<pdfrwt beam="1">  1       -1 0.11682035E+00 0.25554100E+04</pdfrwt>
<totfact> 0.13767224E+00</totfact>
</mgrwt>
</event>
<event>
 4    1  0.2048914E-008  0.2440458E+04  0.7816531E-02  0.8424510E-01
          2   -1    0    0  501    0  0.00000000000E+00  0.00000000000E+00  0.16803370732E+04  0.16803370732E+04  0.00000000000E+00 0.  1.
         -2   -1    0    0    0  501 -0.00000000000E+00 -0.00000000000E+00 -0.88610752410E+03  0.88610752410E+03  0.00000000000E+00 0. -1.
    2000013    1    1    2    0    0  0.70019547679E+03  0.22404457236E+03  0.62263760894E+03  0.13530141419E+04  0.95000000000E+03 0.  0.
   -2000013    1    1    2    0    0 -0.70019547679E+03 -0.22404457236E+03  0.17159194014E+03  0.12134304554E+04  0.95000000000E+03 0.  0.
<mgrwt>
<rscale>  0 0.24404584E+04</rscale>
<asrwt>0</asrwt>
<pdfrwt beam="1">  1        2 0.25851340E+00 0.24404584E+04</pdfrwt>
<pdfrwt beam="2">  1       -2 0.13632423E+00 0.24404584E+04</pdfrwt>
<totfact> 0.34688486E+00</totfact>
</mgrwt>
</event>
<event>
 4    1  0.2048914E-008  0.2638313E+04  0.7816531E-02  0.8355302E-01
          2   -1    0    0  501    0  0.00000000000E+00  0.00000000000E+00  0.14781417489E+04  0.14781417489E+04  0.00000000000E+00 0.  1.
         -2   -1    0    0    0  501 -0.00000000000E+00 -0.00000000000E+00 -0.11772715855E+04  0.11772715855E+04  0.00000000000E+00 0. -1.
    2000013    1    1    2    0    0 -0.36114122607E+03 -0.62583110313E+03 -0.41497705565E+03  0.12636429526E+04  0.95000000000E+03 0.  0.
   -2000013    1    1    2    0    0  0.36114122607E+03  0.62583110313E+03  0.71584721910E+03  0.13917703819E+04  0.95000000000E+03 0.  0.
<mgrwt>
<rscale>  0 0.26383133E+04</rscale>
<asrwt>0</asrwt>
<pdfrwt beam="1">  1        2 0.22740642E+00 0.26383133E+04</pdfrwt>
<pdfrwt beam="2">  1       -2 0.18111870E+00 0.26383133E+04</pdfrwt>
<totfact> 0.20517178E+00</totfact>
</mgrwt>
</event>
<event>
 4    1  0.2048914E-008  0.2332599E+04  0.7816531E-02  0.8465178E-01
          2   -1    0    0  501    0  0.00000000000E+00  0.00000000000E+00  0.62283167373E+03  0.62283167373E+03  0.00000000000E+00 0.  1.
         -2   -1    0    0    0  501 -0.00000000000E+00 -0.00000000000E+00 -0.21839838660E+04  0.21839838660E+04  0.00000000000E+00 0. -1.
    2000013    1    1    2    0    0 -0.42750699196E+03  0.51662525673E+03 -0.67234303075E+03  0.13432084853E+04  0.95000000000E+03 0.  0.
   -2000013    1    1    2    0    0  0.42750699196E+03 -0.51662525673E+03 -0.88880916150E+03  0.14636070544E+04  0.95000000000E+03 0.  0.
<mgrwt>
<rscale>  0 0.23325988E+04</rscale>
<asrwt>0</asrwt>
<pdfrwt beam="1">  1        2 0.95820256E-01 0.23325988E+04</pdfrwt>
<pdfrwt beam="2">  1       -2 0.33599752E+00 0.23325988E+04</pdfrwt>
<totfact> 0.81685397E-01</totfact>
</mgrwt>
</event>
<event>
 4    1  0.2048914E-008  0.2574993E+04  0.7816531E-02  0.8376746E-01
         -2   -1    0    0    0  501 -0.00000000000E+00  0.00000000000E+00  0.12594260621E+04  0.12594260621E+04  0.00000000000E+00 0. -1.
          2   -1    0    0  501    0  0.00000000000E+00 -0.00000000000E+00 -0.13161923080E+04  0.13161923080E+04  0.00000000000E+00 0.  1.
    2000013    1    1    2    0    0  0.61707602985E+03  0.59846747226E+03  0.98929982855E+02  0.12850032231E+04  0.95000000000E+03 0.  0.
   -2000013    1    1    2    0    0 -0.61707602985E+03 -0.59846747226E+03 -0.15569622879E+03  0.12906151470E+04  0.95000000000E+03 0.  0.
<mgrwt>
<rscale>  0 0.25749927E+04</rscale>
<asrwt>0</asrwt>
<pdfrwt beam="2">  1        2 0.20249112E+00 0.25749927E+04</pdfrwt>
<pdfrwt beam="1">  1       -2 0.19375786E+00 0.25749927E+04</pdfrwt>
<totfact> 0.20974872E+00</totfact>
</mgrwt>
</event>
<event>
 4    1  0.2048914E-008  0.2243223E+04  0.7816531E-02  0.8500650E-01
         -2   -1    0    0    0  501 -0.00000000000E+00  0.00000000000E+00  0.81920151248E+03  0.81920151248E+03  0.00000000000E+00 0.  1.
          2   -1    0    0  501    0  0.00000000000E+00 -0.00000000000E+00 -0.15356566594E+04  0.15356566594E+04  0.00000000000E+00 0. -1.
    2000013    1    1    2    0    0  0.44534555409E+03 -0.35243055159E+03 -0.16760823563E+03  0.11194339985E+04  0.95000000000E+03 0.  0.
   -2000013    1    1    2    0    0 -0.44534555409E+03  0.35243055159E+03 -0.54884691127E+03  0.12354241734E+04  0.95000000000E+03 0.  0.
<mgrwt>
<rscale>  0 0.22432229E+04</rscale>
<asrwt>0</asrwt>
<pdfrwt beam="2">  1        2 0.23625487E+00 0.22432229E+04</pdfrwt>
<pdfrwt beam="1">  1       -2 0.12603100E+00 0.22432229E+04</pdfrwt>
<totfact> 0.51853953E+00</totfact>
</mgrwt>
</event>
<event>
 4    1  0.2048914E-008  0.2192513E+04  0.7816531E-02  0.8521551E-01
         -2   -1    0    0    0  501 -0.00000000000E+00  0.00000000000E+00  0.85691384819E+03  0.85691384819E+03  0.00000000000E+00 0. -1.
          2   -1    0    0  501    0  0.00000000000E+00 -0.00000000000E+00 -0.14024498943E+04  0.14024498943E+04  0.00000000000E+00 0.  1.
    2000013    1    1    2    0    0 -0.48200708769E+03 -0.25038154078E+03 -0.34000297191E+03  0.11459161267E+04  0.95000000000E+03 0.  0.
   -2000013    1    1    2    0    0  0.48200708769E+03  0.25038154078E+03 -0.20553307422E+03  0.11134476158E+04  0.95000000000E+03 0.  0.
<mgrwt>
<rscale>  0 0.21925134E+04</rscale>
<asrwt>0</asrwt>
<pdfrwt beam="2">  1        2 0.21576152E+00 0.21925134E+04</pdfrwt>
<pdfrwt beam="1">  1       -2 0.13183290E+00 0.21925134E+04</pdfrwt>
<totfact> 0.55303190E+00</totfact>
</mgrwt>
</event>
<event>
 4    1  0.2048914E-008  0.2271027E+04  0.7816531E-02  0.8489433E-01
          2   -1    0    0  501    0  0.00000000000E+00  0.00000000000E+00  0.82897374795E+03  0.82897374795E+03  0.00000000000E+00 0.  1.
         -2   -1    0    0    0  501 -0.00000000000E+00 -0.00000000000E+00 -0.15554063518E+04  0.15554063518E+04  0.00000000000E+00 0. -1.
    2000013    1    1    2    0    0  0.65542979974E+02 -0.61851394102E+03 -0.35694703292E+03  0.11902800350E+04  0.95000000000E+03 0.  0.
   -2000013    1    1    2    0    0 -0.65542979974E+02  0.61851394102E+03 -0.36948557094E+03  0.11941000647E+04  0.95000000000E+03 0.  0.
<mgrwt>
<rscale>  0 0.22710271E+04</rscale>
<asrwt>0</asrwt>
<pdfrwt beam="1">  1        2 0.12753442E+00 0.22710271E+04</pdfrwt>
<pdfrwt beam="2">  1       -2 0.23929328E+00 0.22710271E+04</pdfrwt>
<totfact> 0.22324458E+00</totfact>
</mgrwt>
</event>
<event>
 4    1  0.2048914E-008  0.2006077E+04  0.7816531E-02  0.8603785E-01
          2   -1    0    0  501    0  0.00000000000E+00  0.00000000000E+00  0.12218944776E+04  0.12218944776E+04  0.00000000000E+00 0.  1.
         -2   -1    0    0    0  501 -0.00000000000E+00 -0.00000000000E+00 -0.82338265014E+03  0.82338265014E+03  0.00000000000E+00 0. -1.
    2000013    1    1    2    0    0 -0.91277078269E+02  0.28499541264E+03  0.78480931601E+02  0.99910617397E+03  0.95000000000E+03 0.  0.
   -2000013    1    1    2    0    0  0.91277078269E+02 -0.28499541264E+03  0.32003089588E+03  0.10461709538E+04  0.95000000000E+03 0.  0.
<mgrwt>
<rscale>  0 0.20060775E+04</rscale>
<asrwt>0</asrwt>
<pdfrwt beam="1">  1        2 0.18798377E+00 0.20060775E+04</pdfrwt>
<pdfrwt beam="2">  1       -2 0.12667425E+00 0.20060775E+04</pdfrwt>
<totfact> 0.79152564E+00</totfact>
</mgrwt>
</event>
<event>
 4    1  0.2048914E-008  0.2622365E+04  0.7816531E-02  0.8360644E-01
         -1   -1    0    0    0  501 -0.00000000000E+00  0.00000000000E+00  0.41161029766E+03  0.41161029766E+03  0.00000000000E+00 0. -1.
          1   -1    0    0  501    0  0.00000000000E+00 -0.00000000000E+00 -0.41767658112E+04  0.41767658112E+04  0.00000000000E+00 0.  1.
    2000013    1    1    2    0    0  0.87647151369E+02 -0.89897857982E+03 -0.18314063586E+04  0.22521975403E+04  0.95000000000E+03 0.  0.
   -2000013    1    1    2    0    0 -0.87647151369E+02  0.89897857982E+03 -0.19337491550E+04  0.23361785686E+04  0.95000000000E+03 0.  0.
<mgrwt>
<rscale>  0 0.26223652E+04</rscale>
<asrwt>0</asrwt>
<pdfrwt beam="2">  1        1 0.64257936E+00 0.26223652E+04</pdfrwt>
<pdfrwt beam="1">  1       -1 0.63324661E-01 0.26223652E+04</pdfrwt>
<totfact> 0.14808992E-01</totfact>
</mgrwt>
</event>
<event>
 4    1  0.2048914E-008  0.3127185E+04  0.7816531E-02  0.8208317E-01
         -2   -1    0    0    0  501 -0.00000000000E+00  0.00000000000E+00  0.45110170686E+03  0.45110170686E+03  0.00000000000E+00 0. -1.
          2   -1    0    0  501    0  0.00000000000E+00 -0.00000000000E+00 -0.54196671235E+04  0.54196671235E+04  0.00000000000E+00 0.  1.
    2000013    1    1    2    0    0 -0.58542572695E+03 -0.10559464033E+04 -0.30302447506E+04  0.33974445303E+04  0.95000000000E+03 0.  0.
   -2000013    1    1    2    0    0  0.58542572695E+03  0.10559464033E+04 -0.19383206661E+04  0.24733243000E+04  0.95000000000E+03 0.  0.
<mgrwt>
<rscale>  0 0.31271847E+04</rscale>
<asrwt>0</asrwt>
<pdfrwt beam="2">  1        2 0.83379491E+00 0.31271847E+04</pdfrwt>
<pdfrwt beam="1">  1       -2 0.69400265E-01 0.31271847E+04</pdfrwt>
<totfact> 0.13309185E-02</totfact>
</mgrwt>
</event>
<event>
 4    1  0.2048914E-008  0.2294447E+04  0.7816531E-02  0.8480114E-01
         -2   -1    0    0    0  501 -0.00000000000E+00  0.00000000000E+00  0.43912369570E+03  0.43912369570E+03  0.00000000000E+00 0. -1.
          2   -1    0    0  501    0  0.00000000000E+00 -0.00000000000E+00 -0.29971545261E+04  0.29971545261E+04  0.00000000000E+00 0.  1.
    2000013    1    1    2    0    0 -0.14080669762E+03 -0.56451999927E+03 -0.16894704705E+04  0.20236896566E+04  0.95000000000E+03 0.  0.
   -2000013    1    1    2    0    0  0.14080669762E+03  0.56451999927E+03 -0.86856035990E+03  0.14125885652E+04  0.95000000000E+03 0.  0.
<mgrwt>
<rscale>  0 0.22944468E+04</rscale>
<asrwt>0</asrwt>
<pdfrwt beam="2">  1        2 0.46110071E+00 0.22944468E+04</pdfrwt>
<pdfrwt beam="1">  1       -2 0.67557490E-01 0.22944468E+04</pdfrwt>
<totfact> 0.31875605E+00</totfact>
</mgrwt>
</event>
<event>
 4    1  0.2048914E-008  0.2549739E+04  0.7816531E-02  0.8385477E-01
          2   -1    0    0  501    0  0.00000000000E+00  0.00000000000E+00  0.28579796251E+04  0.28579796251E+04  0.00000000000E+00 0.  1.
         -2   -1    0    0    0  501 -0.00000000000E+00 -0.00000000000E+00 -0.56868593275E+03  0.56868593275E+03  0.00000000000E+00 0. -1.
    2000013    1    1    2    0    0  0.59005753510E+03 -0.50319355148E+03  0.16129457192E+04  0.20261948421E+04  0.95000000000E+03 0.  0.
   -2000013    1    1    2    0    0 -0.59005753510E+03  0.50319355148E+03  0.67634797315E+03  0.14004707158E+04  0.95000000000E+03 0.  0.
<mgrwt>
<rscale>  0 0.25497394E+04</rscale>
<asrwt>0</asrwt>
<pdfrwt beam="1">  1        2 0.43968917E+00 0.25497394E+04</pdfrwt>
<pdfrwt beam="2">  1       -2 0.87490145E-01 0.25497394E+04</pdfrwt>
<totfact> 0.21357263E+00</totfact>
</mgrwt>
</event>
<event>
 4    1  0.2048914E-008  0.2467938E+04  0.7816531E-02  0.8414498E-01
         -2   -1    0    0    0  501 -0.00000000000E+00  0.00000000000E+00  0.74766425687E+03  0.74766425687E+03  0.00000000000E+00 0. -1.
          2   -1    0    0  501    0  0.00000000000E+00 -0.00000000000E+00 -0.20365816945E+04  0.20365816945E+04  0.00000000000E+00 0.  1.
    2000013    1    1    2    0    0 -0.59332117813E+03 -0.38943417760E+03 -0.10295097849E+04  0.15703755590E+04  0.95000000000E+03 0.  0.
   -2000013    1    1    2    0    0  0.59332117813E+03  0.38943417760E+03 -0.25940765268E+03  0.12138703923E+04  0.95000000000E+03 0.  0.
<mgrwt>
<rscale>  0 0.24679379E+04</rscale>
<asrwt>0</asrwt>
<pdfrwt beam="2">  1        2 0.31332025E+00 0.24679379E+04</pdfrwt>
<pdfrwt beam="1">  1       -2 0.11502527E+00 0.24679379E+04</pdfrwt>
<totfact> 0.33595107E+00</totfact>
</mgrwt>
</event>
<event>
 4    1  0.2048914E-008  0.2873108E+04  0.7816531E-02  0.8280924E-01
          2   -1    0    0  501    0  0.00000000000E+00  0.00000000000E+00  0.24446716978E+04  0.24446716978E+04  0.00000000000E+00 0.  1.
         -2   -1    0    0    0  501 -0.00000000000E+00 -0.00000000000E+00 -0.84415733476E+03  0.84415733476E+03  0.00000000000E+00 0. -1.
    2000013    1    1    2    0    0 -0.96108971037E+03  0.11851464878E+03  0.25915666726E+03  0.13810870108E+04  0.95000000000E+03 0.  0.
   -2000013    1    1    2    0    0  0.96108971037E+03 -0.11851464878E+03  0.13413576958E+04  0.19077420217E+04  0.95000000000E+03 0.  0.
<mgrwt>
<rscale>  0 0.28731081E+04</rscale>
<asrwt>0</asrwt>
<pdfrwt beam="1">  1        2 0.37610334E+00 0.28731081E+04</pdfrwt>
<pdfrwt beam="2">  1       -2 0.12987036E+00 0.28731081E+04</pdfrwt>
<totfact> 0.14109617E+00</totfact>
</mgrwt>
</event>
<event>
 4    1  0.2048914E-008  0.2508839E+04  0.7816531E-02  0.8399843E-01
          2   -1    0    0  501    0  0.00000000000E+00  0.00000000000E+00  0.25729449094E+04  0.25729449094E+04  0.00000000000E+00 0.  1.
         -2   -1    0    0    0  501 -0.00000000000E+00 -0.00000000000E+00 -0.61158259338E+03  0.61158259338E+03  0.00000000000E+00 0. -1.
    2000013    1    1    2    0    0 -0.49630944942E+03 -0.64365299446E+03  0.85088658956E+03  0.15123227946E+04  0.95000000000E+03 0.  0.
   -2000013    1    1    2    0    0  0.49630944942E+03  0.64365299446E+03  0.11104757264E+04  0.16722047081E+04  0.95000000000E+03 0.  0.
<mgrwt>
<rscale>  0 0.25088390E+04</rscale>
<asrwt>0</asrwt>
<pdfrwt beam="1">  1        2 0.39583767E+00 0.25088390E+04</pdfrwt>
<pdfrwt beam="2">  1       -2 0.94089631E-01 0.25088390E+04</pdfrwt>
<totfact> 0.26811043E+00</totfact>
</mgrwt>
</event>
<event>
 4    1  0.2048914E-008  0.1991261E+04  0.7816531E-02  0.8610717E-01
         -2   -1    0    0    0  501 -0.00000000000E+00  0.00000000000E+00  0.81703751019E+03  0.81703751019E+03  0.00000000000E+00 0. -1.
          2   -1    0    0  501    0  0.00000000000E+00 -0.00000000000E+00 -0.12132612806E+04  0.12132612806E+04  0.00000000000E+00 0.  1.
    2000013    1    1    2    0    0  0.23564320928E+03 -0.16555815552E+03 -0.12017546025E+03  0.99993968127E+03  0.95000000000E+03 0.  0.
   -2000013    1    1    2    0    0 -0.23564320928E+03  0.16555815552E+03 -0.27604831012E+03  0.10303591095E+04  0.95000000000E+03 0.  0.
<mgrwt>
<rscale>  0 0.19912609E+04</rscale>
<asrwt>0</asrwt>
<pdfrwt beam="2">  1        2 0.18665558E+00 0.19912609E+04</pdfrwt>
<pdfrwt beam="1">  1       -2 0.12569808E+00 0.19912609E+04</pdfrwt>
<totfact> 0.81768375E+00</totfact>
</mgrwt>
</event>
<event>
 4    1  0.2048914E-008  0.2854259E+04  0.7816531E-02  0.8286618E-01
          2   -1    0    0  501    0  0.00000000000E+00  0.00000000000E+00  0.15913679210E+04  0.15913679210E+04  0.00000000000E+00 0.  1.
         -2   -1    0    0    0  501 -0.00000000000E+00 -0.00000000000E+00 -0.12798410856E+04  0.12798410856E+04  0.00000000000E+00 0. -1.
    2000013    1    1    2    0    0  0.11106041221E+03 -0.10583559802E+04  0.11372707880E+03  0.14310435509E+04  0.95000000000E+03 0.  0.
   -2000013    1    1    2    0    0 -0.11106041221E+03  0.10583559802E+04  0.19779975660E+03  0.14401654557E+04  0.95000000000E+03 0.  0.
<mgrwt>
<rscale>  0 0.28542586E+04</rscale>
<asrwt>0</asrwt>
<pdfrwt beam="1">  1        2 0.24482583E+00 0.28542586E+04</pdfrwt>
<pdfrwt beam="2">  1       -2 0.19689863E+00 0.28542586E+04</pdfrwt>
<totfact> 0.13621175E+00</totfact>
</mgrwt>
</event>
<event>
 4    1  0.2048914E-008  0.2382042E+04  0.7816531E-02  0.8446258E-01
          2   -1    0    0  501    0  0.00000000000E+00  0.00000000000E+00  0.64267220001E+03  0.64267220001E+03  0.00000000000E+00 0.  1.
         -2   -1    0    0    0  501 -0.00000000000E+00 -0.00000000000E+00 -0.22072382422E+04  0.22072382422E+04  0.00000000000E+00 0. -1.
    2000013    1    1    2    0    0  0.60148012912E+03 -0.24575365028E+03 -0.41574735522E+03  0.12237316151E+04  0.95000000000E+03 0.  0.
   -2000013    1    1    2    0    0 -0.60148012912E+03  0.24575365028E+03 -0.11488186870E+04  0.16261788272E+04  0.95000000000E+03 0.  0.
<mgrwt>
<rscale>  0 0.23820417E+04</rscale>
<asrwt>0</asrwt>
<pdfrwt beam="1">  1        2 0.98872646E-01 0.23820417E+04</pdfrwt>
<pdfrwt beam="2">  1       -2 0.33957512E+00 0.23820417E+04</pdfrwt>
<totfact> 0.74342938E-01</totfact>
</mgrwt>
</event>
<event>
 4    1  0.2048914E-008  0.3082517E+04  0.7816531E-02  0.8220552E-01
          2   -1    0    0  501    0  0.00000000000E+00  0.00000000000E+00  0.20547003003E+04  0.20547003003E+04  0.00000000000E+00 0.  1.
         -2   -1    0    0    0  501 -0.00000000000E+00 -0.00000000000E+00 -0.11561186040E+04  0.11561186040E+04  0.00000000000E+00 0. -1.
    2000013    1    1    2    0    0  0.85344271379E+03  0.79906264972E+03  0.10998454234E+03  0.15104509868E+04  0.95000000000E+03 0.  0.
   -2000013    1    1    2    0    0 -0.85344271379E+03 -0.79906264972E+03  0.78859715391E+03  0.17003679176E+04  0.95000000000E+03 0.  0.
<mgrwt>
<rscale>  0 0.30825167E+04</rscale>
<asrwt>0</asrwt>
<pdfrwt beam="1">  1        2 0.31610774E+00 0.30825167E+04</pdfrwt>
<pdfrwt beam="2">  1       -2 0.17786440E+00 0.30825167E+04</pdfrwt>
<totfact> 0.99362888E-01</totfact>
</mgrwt>
</event>
<event>
 4    1  0.2048914E-008  0.3177936E+04  0.7816531E-02  0.8194669E-01
         -1   -1    0    0    0  501 -0.00000000000E+00  0.00000000000E+00  0.10751018309E+04  0.10751018309E+04  0.00000000000E+00 0. -1.
          1   -1    0    0  501    0  0.00000000000E+00 -0.00000000000E+00 -0.23484467456E+04  0.23484467456E+04  0.00000000000E+00 0.  1.
    2000013    1    1    2    0    0 -0.93394183981E+03  0.78839317536E+03 -0.10228587211E+04  0.18554113082E+04  0.95000000000E+03 0.  0.
   -2000013    1    1    2    0    0  0.93394183981E+03 -0.78839317536E+03 -0.25048619352E+03  0.15681372683E+04  0.95000000000E+03 0.  0.
<mgrwt>
<rscale>  0 0.31779361E+04</rscale>
<asrwt>0</asrwt>
<pdfrwt beam="2">  1        1 0.36129949E+00 0.31779361E+04</pdfrwt>
<pdfrwt beam="1">  1       -1 0.16540028E+00 0.31779361E+04</pdfrwt>
<totfact> 0.38453216E-01</totfact>
</mgrwt>
</event>
<event>
 4    1  0.2048914E-008  0.2686954E+04  0.7816531E-02  0.8339250E-01
          1   -1    0    0  501    0  0.00000000000E+00  0.00000000000E+00  0.15224603332E+04  0.15224603332E+04  0.00000000000E+00 0.  1.
         -1   -1    0    0    0  501 -0.00000000000E+00 -0.00000000000E+00 -0.11855355811E+04  0.11855355811E+04  0.00000000000E+00 0. -1.
    2000013    1    1    2    0    0  0.53066860670E+03  0.54666381100E+03  0.74033912519E+03  0.14251499966E+04  0.95000000000E+03 0.  0.
   -2000013    1    1    2    0    0 -0.53066860670E+03 -0.54666381100E+03 -0.40341437308E+03  0.12828459178E+04  0.95000000000E+03 0.  0.
<mgrwt>
<rscale>  0 0.26869543E+04</rscale>
<asrwt>0</asrwt>
<pdfrwt beam="1">  1        1 0.23422467E+00 0.26869543E+04</pdfrwt>
<pdfrwt beam="2">  1       -1 0.18239009E+00 0.26869543E+04</pdfrwt>
<totfact> 0.11037705E+00</totfact>
</mgrwt>
</event>
<event>
 4    1  0.2048914E-008  0.2469280E+04  0.7816531E-02  0.8414012E-01
          2   -1    0    0  501    0  0.00000000000E+00  0.00000000000E+00  0.23034989439E+04  0.23034989439E+04  0.00000000000E+00 0.  1.
         -2   -1    0    0    0  501 -0.00000000000E+00 -0.00000000000E+00 -0.66174791194E+03  0.66174791194E+03  0.00000000000E+00 0. -1.
    2000013    1    1    2    0    0  0.65068718826E+03 -0.43564093700E+03  0.93261810889E+03  0.15444913014E+04  0.95000000000E+03 0.  0.
   -2000013    1    1    2    0    0 -0.65068718826E+03  0.43564093700E+03  0.70913292304E+03  0.14207555544E+04  0.95000000000E+03 0.  0.
<mgrwt>
<rscale>  0 0.24692797E+04</rscale>
<asrwt>0</asrwt>
<pdfrwt beam="1">  1        2 0.35438445E+00 0.24692797E+04</pdfrwt>
<pdfrwt beam="2">  1       -2 0.10180737E+00 0.24692797E+04</pdfrwt>
<totfact> 0.31933620E+00</totfact>
</mgrwt>
</event>
<event>
 4    1  0.2048914E-008  0.2145569E+04  0.7816531E-02  0.8541431E-01
          2   -1    0    0  501    0  0.00000000000E+00  0.00000000000E+00  0.28325783157E+04  0.28325783157E+04  0.00000000000E+00 0.  1.
         -2   -1    0    0    0  501 -0.00000000000E+00 -0.00000000000E+00 -0.40629632780E+03  0.40629632780E+03  0.00000000000E+00 0. -1.
    2000013    1    1    2    0    0  0.49049360599E+03 -0.82497231668E+02  0.11659710918E+04  0.15841017510E+04  0.95000000000E+03 0.  0.
   -2000013    1    1    2    0    0 -0.49049360599E+03  0.82497231668E+02  0.12603108961E+04  0.16547728924E+04  0.95000000000E+03 0.  0.
<mgrwt>
<rscale>  0 0.21455686E+04</rscale>
<asrwt>0</asrwt>
<pdfrwt beam="1">  1        2 0.43578127E+00 0.21455686E+04</pdfrwt>
<pdfrwt beam="2">  1       -2 0.62507129E-01 0.21455686E+04</pdfrwt>
<totfact> 0.48205350E+00</totfact>
</mgrwt>
</event>
<event>
 4    1  0.2048914E-008  0.2558500E+04  0.7816531E-02  0.8382436E-01
         -2   -1    0    0    0  501 -0.00000000000E+00  0.00000000000E+00  0.20621030299E+04  0.20621030299E+04  0.00000000000E+00 0.  1.
          2   -1    0    0  501    0  0.00000000000E+00 -0.00000000000E+00 -0.79359766275E+03  0.79359766275E+03  0.00000000000E+00 0. -1.
    2000013    1    1    2    0    0  0.76435430169E+03  0.34249522429E+03  0.43322053269E+03  0.13385516453E+04  0.95000000000E+03 0.  0.
   -2000013    1    1    2    0    0 -0.76435430169E+03 -0.34249522429E+03  0.83528483443E+03  0.15171490473E+04  0.95000000000E+03 0.  0.
<mgrwt>
<rscale>  0 0.25584997E+04</rscale>
<asrwt>0</asrwt>
<pdfrwt beam="2">  1        2 0.12209195E+00 0.25584997E+04</pdfrwt>
<pdfrwt beam="1">  1       -2 0.31724662E+00 0.25584997E+04</pdfrwt>
<totfact> 0.76966140E-01</totfact>
</mgrwt>
</event>
<event>
 4    1  0.2048914E-008  0.2912936E+04  0.7816531E-02  0.8269039E-01
          2   -1    0    0  501    0  0.00000000000E+00  0.00000000000E+00  0.26516029342E+04  0.26516029342E+04  0.00000000000E+00 0.  1.
         -2   -1    0    0    0  501 -0.00000000000E+00 -0.00000000000E+00 -0.80000640304E+03  0.80000640304E+03  0.00000000000E+00 0. -1.
    2000013    1    1    2    0    0 -0.10345169321E+04  0.84240362580E+02  0.13714899291E+04  0.19648934697E+04  0.95000000000E+03 0.  0.
   -2000013    1    1    2    0    0  0.10345169321E+04 -0.84240362580E+02  0.48010660203E+03  0.14867158675E+04  0.95000000000E+03 0.  0.
<mgrwt>
<rscale>  0 0.29129362E+04</rscale>
<asrwt>0</asrwt>
<pdfrwt beam="1">  1        2 0.40793891E+00 0.29129362E+04</pdfrwt>
<pdfrwt beam="2">  1       -2 0.12307791E+00 0.29129362E+04</pdfrwt>
<totfact> 0.12189557E+00</totfact>
</mgrwt>
</event>
<event>
 4    1  0.2048914E-008  0.2272704E+04  0.7816531E-02  0.8488762E-01
         -2   -1    0    0    0  501 -0.00000000000E+00  0.00000000000E+00  0.11246255004E+04  0.11246255004E+04  0.00000000000E+00 0.  1.
          2   -1    0    0  501    0  0.00000000000E+00 -0.00000000000E+00 -0.11482011784E+04  0.11482011784E+04  0.00000000000E+00 0. -1.
    2000013    1    1    2    0    0  0.42539963817E+03 -0.90065423709E+02  0.43513629716E+03  0.11317774648E+04  0.95000000000E+03 0.  0.
   -2000013    1    1    2    0    0 -0.42539963817E+03  0.90065423709E+02 -0.45871197521E+03  0.11410492141E+04  0.95000000000E+03 0.  0.
<mgrwt>
<rscale>  0 0.22727044E+04</rscale>
<asrwt>0</asrwt>
<pdfrwt beam="2">  1        2 0.17664633E+00 0.22727044E+04</pdfrwt>
<pdfrwt beam="1">  1       -2 0.17301931E+00 0.22727044E+04</pdfrwt>
<totfact> 0.37521825E+00</totfact>
</mgrwt>
</event>
<event>
 4    1  0.2048914E-008  0.2551906E+04  0.7816531E-02  0.8384724E-01
          2   -1    0    0  501    0  0.00000000000E+00  0.00000000000E+00  0.20983805033E+04  0.20983805033E+04  0.00000000000E+00 0.  1.
         -2   -1    0    0    0  501 -0.00000000000E+00 -0.00000000000E+00 -0.77586301151E+03  0.77586301151E+03  0.00000000000E+00 0. -1.
    2000013    1    1    2    0    0 -0.28422558669E+03 -0.20935746036E+03 -0.21186312732E+03  0.10353746738E+04  0.95000000000E+03 0.  0.
   -2000013    1    1    2    0    0  0.28422558669E+03  0.20935746036E+03  0.15343806191E+04  0.18388688411E+04  0.95000000000E+03 0.  0.
<mgrwt>
<rscale>  0 0.25519058E+04</rscale>
<asrwt>0</asrwt>
<pdfrwt beam="1">  1        2 0.32282777E+00 0.25519058E+04</pdfrwt>
<pdfrwt beam="2">  1       -2 0.11936354E+00 0.25519058E+04</pdfrwt>
<totfact> 0.28135047E+00</totfact>
</mgrwt>
</event>
<event>
 4    1  0.2048914E-008  0.3018110E+04  0.7816531E-02  0.8238578E-01
          2   -1    0    0  501    0  0.00000000000E+00  0.00000000000E+00  0.30769004601E+04  0.30769004601E+04  0.00000000000E+00 0.  1.
         -2   -1    0    0    0  501 -0.00000000000E+00 -0.00000000000E+00 -0.74011055302E+03  0.74011055302E+03  0.00000000000E+00 0. -1.
    2000013    1    1    2    0    0 -0.81845316547E+02  0.10803112887E+04  0.60142530781E+03  0.15614043478E+04  0.95000000000E+03 0.  0.
   -2000013    1    1    2    0    0  0.81845316547E+02 -0.10803112887E+04  0.17353645993E+04  0.22556066654E+04  0.95000000000E+03 0.  0.
<mgrwt>
<rscale>  0 0.30181097E+04</rscale>
<asrwt>0</asrwt>
<pdfrwt beam="1">  1        2 0.47336929E+00 0.30181097E+04</pdfrwt>
<pdfrwt beam="2">  1       -2 0.11386316E+00 0.30181097E+04</pdfrwt>
<totfact> 0.80336064E-01</totfact>
</mgrwt>
</event>
<event>
 4    1  0.2048914E-008  0.2625137E+04  0.7816531E-02  0.8359713E-01
          2   -1    0    0  501    0  0.00000000000E+00  0.00000000000E+00  0.18926615943E+04  0.18926615943E+04  0.00000000000E+00 0.  1.
         -2   -1    0    0    0  501 -0.00000000000E+00 -0.00000000000E+00 -0.91027135227E+03  0.91027135227E+03  0.00000000000E+00 0. -1.
    2000013    1    1    2    0    0 -0.24143131102E+03  0.84938361830E+03  0.70632058512E+03  0.14768650507E+04  0.95000000000E+03 0.  0.
   -2000013    1    1    2    0    0  0.24143131102E+03 -0.84938361830E+03  0.27606965689E+03  0.13260678959E+04  0.95000000000E+03 0.  0.
<mgrwt>
<rscale>  0 0.26251367E+04</rscale>
<asrwt>0</asrwt>
<pdfrwt beam="1">  1        2 0.29117871E+00 0.26251367E+04</pdfrwt>
<pdfrwt beam="2">  1       -2 0.14004175E+00 0.26251367E+04</pdfrwt>
<totfact> 0.24284814E+00</totfact>
</mgrwt>
</event>
<event>
 4    1  0.2048914E-008  0.4331609E+04  0.7816531E-02  0.7940799E-01
         -2   -1    0    0    0  501 -0.00000000000E+00  0.00000000000E+00  0.12771926550E+04  0.12771926550E+04  0.00000000000E+00 0. -1.
          2   -1    0    0  501    0  0.00000000000E+00 -0.00000000000E+00 -0.36726717800E+04  0.36726717800E+04  0.00000000000E+00 0.  1.
    2000013    1    1    2    0    0 -0.74830362992E+03 -0.14550281138E+04  0.68227548452E+01  0.18919861745E+04  0.95000000000E+03 0.  0.
   -2000013    1    1    2    0    0  0.74830362992E+03  0.14550281138E+04 -0.24023018798E+04  0.30578782605E+04  0.95000000000E+03 0.  0.
<mgrwt>
<rscale>  0 0.43316091E+04</rscale>
<asrwt>0</asrwt>
<pdfrwt beam="2">  1        2 0.56502642E+00 0.43316091E+04</pdfrwt>
<pdfrwt beam="1">  1       -2 0.19649118E+00 0.43316091E+04</pdfrwt>
<totfact> 0.65709865E-02</totfact>
</mgrwt>
</event>
<event>
 4    1  0.2048914E-008  0.2833886E+04  0.7816531E-02  0.8292825E-01
          2   -1    0    0  501    0  0.00000000000E+00  0.00000000000E+00  0.25026770025E+04  0.25026770025E+04  0.00000000000E+00 0.  1.
         -2   -1    0    0    0  501 -0.00000000000E+00 -0.00000000000E+00 -0.80223220741E+03  0.80223220741E+03  0.00000000000E+00 0. -1.
    2000013    1    1    2    0    0 -0.82906298049E+03  0.31996903581E+02  0.97262906048E+02  0.12650412248E+04  0.95000000000E+03 0.  0.
   -2000013    1    1    2    0    0  0.82906298049E+03 -0.31996903581E+02  0.16031818890E+04  0.20398679851E+04  0.95000000000E+03 0.  0.
<mgrwt>
<rscale>  0 0.28338864E+04</rscale>
<asrwt>0</asrwt>
<pdfrwt beam="1">  1        2 0.38502723E+00 0.28338864E+04</pdfrwt>
<pdfrwt beam="2">  1       -2 0.12342034E+00 0.28338864E+04</pdfrwt>
<totfact> 0.14896556E+00</totfact>
</mgrwt>
</event>
<event>
 4    1  0.2048914E-008  0.4918345E+04  0.7816531E-02  0.7841228E-01
         -2   -1    0    0    0  501 -0.00000000000E+00  0.00000000000E+00  0.14812013102E+04  0.14812013102E+04  0.00000000000E+00 0. -1.
          2   -1    0    0  501    0  0.00000000000E+00 -0.00000000000E+00 -0.40828544849E+04  0.40828544849E+04  0.00000000000E+00 0.  1.
    2000013    1    1    2    0    0 -0.10014396768E+03 -0.22497928942E+04 -0.99426570667E+03  0.26386855017E+04  0.95000000000E+03 0.  0.
   -2000013    1    1    2    0    0  0.10014396768E+03  0.22497928942E+04 -0.16073874681E+04  0.29253702935E+04  0.95000000000E+03 0.  0.
<mgrwt>
<rscale>  0 0.49183450E+04</rscale>
<asrwt>0</asrwt>
<pdfrwt beam="2">  1        2 0.62813144E+00 0.49183450E+04</pdfrwt>
<pdfrwt beam="1">  1       -2 0.22787713E+00 0.49183450E+04</pdfrwt>
<totfact> 0.18796093E-02</totfact>
</mgrwt>
</event>
<event>
 4    1  0.2048914E-008  0.2276739E+04  0.7816531E-02  0.8487149E-01
         -2   -1    0    0    0  501 -0.00000000000E+00  0.00000000000E+00  0.86498427462E+03  0.86498427462E+03  0.00000000000E+00 0. -1.
          2   -1    0    0  501    0  0.00000000000E+00 -0.00000000000E+00 -0.14981605453E+04  0.14981605453E+04  0.00000000000E+00 0.  1.
    2000013    1    1    2    0    0  0.41521350335E+03  0.39684773687E+03 -0.57813323777E+03  0.12516502787E+04  0.95000000000E+03 0.  0.
   -2000013    1    1    2    0    0 -0.41521350335E+03 -0.39684773687E+03 -0.55043032918E+02  0.11114945412E+04  0.95000000000E+03 0.  0.
<mgrwt>
<rscale>  0 0.22767392E+04</rscale>
<asrwt>0</asrwt>
<pdfrwt beam="2">  1        2 0.23048624E+00 0.22767392E+04</pdfrwt>
<pdfrwt beam="1">  1       -2 0.13307450E+00 0.22767392E+04</pdfrwt>
<totfact> 0.47309254E+00</totfact>
</mgrwt>
</event>
<event>
 4    1  0.2048914E-008  0.2800868E+04  0.7816531E-02  0.8302999E-01
          2   -1    0    0  501    0  0.00000000000E+00  0.00000000000E+00  0.29995128655E+04  0.29995128655E+04  0.00000000000E+00 0.  1.
         -2   -1    0    0    0  501 -0.00000000000E+00 -0.00000000000E+00 -0.65384443969E+03  0.65384443969E+03  0.00000000000E+00 0. -1.
    2000013    1    1    2    0    0  0.24772584050E+03 -0.79555810064E+03  0.38540951860E+03  0.13211060823E+04  0.95000000000E+03 0.  0.
   -2000013    1    1    2    0    0 -0.24772584050E+03  0.79555810064E+03  0.19602589072E+04  0.23322512229E+04  0.95000000000E+03 0.  0.
<mgrwt>
<rscale>  0 0.28008676E+04</rscale>
<asrwt>0</asrwt>
<pdfrwt beam="1">  1        2 0.46146351E+00 0.28008676E+04</pdfrwt>
<pdfrwt beam="2">  1       -2 0.10059145E+00 0.28008676E+04</pdfrwt>
<totfact> 0.12343160E+00</totfact>
</mgrwt>
</event>
<event>
 4    1  0.2048914E-008  0.2090137E+04  0.7816531E-02  0.8565601E-01
         -2   -1    0    0    0  501 -0.00000000000E+00  0.00000000000E+00  0.58826059181E+03  0.58826059181E+03  0.00000000000E+00 0. -1.
          2   -1    0    0  501    0  0.00000000000E+00 -0.00000000000E+00 -0.18566061185E+04  0.18566061185E+04  0.00000000000E+00 0.  1.
    2000013    1    1    2    0    0 -0.16964795677E+03  0.21792535845E+03 -0.10280672582E+04  0.14267775505E+04  0.95000000000E+03 0.  0.
   -2000013    1    1    2    0    0  0.16964795677E+03 -0.21792535845E+03 -0.24027826847E+03  0.10180891598E+04  0.95000000000E+03 0.  0.
<mgrwt>
<rscale>  0 0.20901370E+04</rscale>
<asrwt>0</asrwt>
<pdfrwt beam="2">  1        2 0.28563171E+00 0.20901370E+04</pdfrwt>
<pdfrwt beam="1">  1       -2 0.90501631E-01 0.20901370E+04</pdfrwt>
<totfact> 0.77231129E+00</totfact>
</mgrwt>
</event>
<event>
 4    1  0.2048914E-008  0.2358049E+04  0.7816531E-02  0.8455378E-01
          2   -1    0    0  501    0  0.00000000000E+00  0.00000000000E+00  0.24597663385E+04  0.24597663385E+04  0.00000000000E+00 0.  1.
         -2   -1    0    0    0  501 -0.00000000000E+00 -0.00000000000E+00 -0.56513471201E+03  0.56513471201E+03  0.00000000000E+00 0. -1.
    2000013    1    1    2    0    0  0.33577322178E+03  0.53743543968E+03  0.57108441949E+03  0.12767998757E+04  0.95000000000E+03 0.  0.
   -2000013    1    1    2    0    0 -0.33577322178E+03 -0.53743543968E+03  0.13235472070E+04  0.17481011748E+04  0.95000000000E+03 0.  0.
<mgrwt>
<rscale>  0 0.23580495E+04</rscale>
<asrwt>0</asrwt>
<pdfrwt beam="1">  1        2 0.37842558E+00 0.23580495E+04</pdfrwt>
<pdfrwt beam="2">  1       -2 0.86943803E-01 0.23580495E+04</pdfrwt>
<totfact> 0.37917037E+00</totfact>
</mgrwt>
</event>
<event>
 4    1  0.2048914E-008  0.3004596E+04  0.7816531E-02  0.8242420E-01
          2   -1    0    0  501    0  0.00000000000E+00  0.00000000000E+00  0.28890091079E+04  0.28890091079E+04  0.00000000000E+00 0.  1.
         -2   -1    0    0    0  501 -0.00000000000E+00 -0.00000000000E+00 -0.78120187238E+03  0.78120187238E+03  0.00000000000E+00 0. -1.
    2000013    1    1    2    0    0 -0.64774894991E+03  0.17821130341E+03  0.22147201103E+04  0.25017640052E+04  0.95000000000E+03 0.  0.
   -2000013    1    1    2    0    0  0.64774894991E+03 -0.17821130341E+03 -0.10691287478E+03  0.11684469751E+04  0.95000000000E+03 0.  0.
<mgrwt>
<rscale>  0 0.30045960E+04</rscale>
<asrwt>0</asrwt>
<pdfrwt beam="1">  1        2 0.44446293E+00 0.30045960E+04</pdfrwt>
<pdfrwt beam="2">  1       -2 0.12018490E+00 0.30045960E+04</pdfrwt>
<totfact> 0.92317547E-01</totfact>
</mgrwt>
</event>
<event>
 4    1  0.2048914E-008  0.2539812E+04  0.7816531E-02  0.8388938E-01
         -2   -1    0    0    0  501 -0.00000000000E+00  0.00000000000E+00  0.57039636265E+03  0.57039636265E+03  0.00000000000E+00 0. -1.
          2   -1    0    0  501    0  0.00000000000E+00 -0.00000000000E+00 -0.28272643266E+04  0.28272643266E+04  0.00000000000E+00 0.  1.
    2000013    1    1    2    0    0 -0.73466205221E+03 -0.35707173654E+03 -0.14056208765E+04  0.18829494429E+04  0.95000000000E+03 0.  0.
   -2000013    1    1    2    0    0  0.73466205221E+03  0.35707173654E+03 -0.85124708746E+03  0.15147112464E+04  0.95000000000E+03 0.  0.
<mgrwt>
<rscale>  0 0.25398120E+04</rscale>
<asrwt>0</asrwt>
<pdfrwt beam="2">  1        2 0.43496374E+00 0.25398120E+04</pdfrwt>
<pdfrwt beam="1">  1       -2 0.87753287E-01 0.25398120E+04</pdfrwt>
<totfact> 0.22163522E+00</totfact>
</mgrwt>
</event>
<event>
 4    1  0.2048914E-008  0.2273281E+04  0.7816531E-02  0.8488531E-01
         -2   -1    0    0    0  501 -0.00000000000E+00  0.00000000000E+00  0.52424996777E+03  0.52424996777E+03  0.00000000000E+00 0. -1.
          2   -1    0    0  501    0  0.00000000000E+00 -0.00000000000E+00 -0.24643799633E+04  0.24643799633E+04  0.00000000000E+00 0.  1.
    2000013    1    1    2    0    0  0.12430051586E+03  0.58111774442E+03 -0.71957616991E+03  0.13317050407E+04  0.95000000000E+03 0.  0.
   -2000013    1    1    2    0    0 -0.12430051586E+03 -0.58111774442E+03 -0.12205538257E+04  0.16569248904E+04  0.95000000000E+03 0.  0.
<mgrwt>
<rscale>  0 0.22732806E+04</rscale>
<asrwt>0</asrwt>
<pdfrwt beam="2">  1        2 0.37913538E+00 0.22732806E+04</pdfrwt>
<pdfrwt beam="1">  1       -2 0.80653842E-01 0.22732806E+04</pdfrwt>
<totfact> 0.45012237E+00</totfact>
</mgrwt>
</event>
<event>
 4    1  0.2048914E-008  0.2832788E+04  0.7816531E-02  0.8293161E-01
          2   -1    0    0  501    0  0.00000000000E+00  0.00000000000E+00  0.29676633899E+04  0.29676633899E+04  0.00000000000E+00 0.  1.
         -2   -1    0    0    0  501 -0.00000000000E+00 -0.00000000000E+00 -0.67601069824E+03  0.67601069824E+03  0.00000000000E+00 0. -1.
    2000013    1    1    2    0    0 -0.90046056187E+03 -0.49902347841E+03  0.87657715921E+03  0.16524954377E+04  0.95000000000E+03 0.  0.
   -2000013    1    1    2    0    0  0.90046056187E+03  0.49902347841E+03  0.14150755324E+04  0.19911786504E+04  0.95000000000E+03 0.  0.
<mgrwt>
<rscale>  0 0.28327882E+04</rscale>
<asrwt>0</asrwt>
<pdfrwt beam="1">  1        2 0.45656359E+00 0.28327882E+04</pdfrwt>
<pdfrwt beam="2">  1       -2 0.10400165E+00 0.28327882E+04</pdfrwt>
<totfact> 0.11901331E+00</totfact>
</mgrwt>
</event>
<event>
 4    1  0.2048914E-008  0.3035493E+04  0.7816531E-02  0.8233668E-01
         -2   -1    0    0    0  501 -0.00000000000E+00  0.00000000000E+00  0.12991869339E+04  0.12991869339E+04  0.00000000000E+00 0. -1.
          2   -1    0    0  501    0  0.00000000000E+00 -0.00000000000E+00 -0.17730735785E+04  0.17730735785E+04  0.00000000000E+00 0.  1.
    2000013    1    1    2    0    0  0.10471176974E+04  0.87014551151E+02 -0.78854657998E+03  0.16212133459E+04  0.95000000000E+03 0.  0.
   -2000013    1    1    2    0    0 -0.10471176974E+04 -0.87014551151E+02  0.31465993541E+03  0.14510471664E+04  0.95000000000E+03 0.  0.
<mgrwt>
<rscale>  0 0.30354927E+04</rscale>
<asrwt>0</asrwt>
<pdfrwt beam="2">  1        2 0.27278055E+00 0.30354927E+04</pdfrwt>
<pdfrwt beam="1">  1       -2 0.19987491E+00 0.30354927E+04</pdfrwt>
<totfact> 0.10158800E+00</totfact>
</mgrwt>
</event>
<event>
 4    1  0.2048914E-008  0.2730500E+04  0.7816531E-02  0.8325176E-01
          2   -1    0    0  501    0  0.00000000000E+00  0.00000000000E+00  0.31725187082E+04  0.31725187082E+04  0.00000000000E+00 0.  1.
         -2   -1    0    0    0  501 -0.00000000000E+00 -0.00000000000E+00 -0.58751672627E+03  0.58751672627E+03  0.00000000000E+00 0. -1.
    2000013    1    1    2    0    0 -0.92023724038E+03  0.32737461268E+03  0.14109360216E+04  0.19614410959E+04  0.95000000000E+03 0.  0.
   -2000013    1    1    2    0    0  0.92023724038E+03 -0.32737461268E+03  0.11740659603E+04  0.17985943386E+04  0.95000000000E+03 0.  0.
<mgrwt>
<rscale>  0 0.27305002E+04</rscale>
<asrwt>0</asrwt>
<pdfrwt beam="1">  1        2 0.48807979E+00 0.27305002E+04</pdfrwt>
<pdfrwt beam="2">  1       -2 0.90387191E-01 0.27305002E+04</pdfrwt>
<totfact> 0.12370900E+00</totfact>
</mgrwt>
</event>
<event>
 4    1  0.2048914E-008  0.3168647E+04  0.7816531E-02  0.8197147E-01
          2   -1    0    0  501    0  0.00000000000E+00  0.00000000000E+00  0.25095206845E+04  0.25095206845E+04  0.00000000000E+00 0.  1.
         -2   -1    0    0    0  501 -0.00000000000E+00 -0.00000000000E+00 -0.10002235364E+04  0.10002235364E+04  0.00000000000E+00 0. -1.
    2000013    1    1    2    0    0 -0.80945512257E+03 -0.47826765337E+03  0.16968810336E+04  0.21600608292E+04  0.95000000000E+03 0.  0.
   -2000013    1    1    2    0    0  0.80945512257E+03  0.47826765337E+03 -0.18758388556E+03  0.13496833917E+04  0.95000000000E+03 0.  0.
<mgrwt>
<rscale>  0 0.31686474E+04</rscale>
<asrwt>0</asrwt>
<pdfrwt beam="1">  1        2 0.38608010E+00 0.31686474E+04</pdfrwt>
<pdfrwt beam="2">  1       -2 0.15388054E+00 0.31686474E+04</pdfrwt>
<totfact> 0.81204840E-01</totfact>
</mgrwt>
</event>
<event>
 4    1  0.2048914E-008  0.2537333E+04  0.7816531E-02  0.8389805E-01
         -2   -1    0    0    0  501 -0.00000000000E+00  0.00000000000E+00  0.89787617744E+03  0.89787617744E+03  0.00000000000E+00 0. -1.
          2   -1    0    0  501    0  0.00000000000E+00 -0.00000000000E+00 -0.17925803729E+04  0.17925803729E+04  0.00000000000E+00 0.  1.
    2000013    1    1    2    0    0 -0.50813496393E+03 -0.55045349382E+03 -0.85225377781E+03  0.14798772558E+04  0.95000000000E+03 0.  0.
   -2000013    1    1    2    0    0  0.50813496393E+03  0.55045349382E+03 -0.42450417653E+02  0.12105792945E+04  0.95000000000E+03 0.  0.
<mgrwt>
<rscale>  0 0.25373334E+04</rscale>
<asrwt>0</asrwt>
<pdfrwt beam="2">  1        2 0.27578160E+00 0.25373334E+04</pdfrwt>
<pdfrwt beam="1">  1       -2 0.13813480E+00 0.25373334E+04</pdfrwt>
<totfact> 0.28807577E+00</totfact>
</mgrwt>
</event>
<event>
 4    1  0.2048914E-008  0.3078793E+04  0.7816531E-02  0.8221582E-01
          2   -1    0    0  501    0  0.00000000000E+00  0.00000000000E+00  0.49747698448E+03  0.49747698448E+03  0.00000000000E+00 0.  1.
         -2   -1    0    0    0  501 -0.00000000000E+00 -0.00000000000E+00 -0.47635215331E+04  0.47635215331E+04  0.00000000000E+00 0. -1.
    2000013    1    1    2    0    0 -0.15730295819E+03  0.11981707107E+04 -0.19912336697E+04  0.25155255515E+04  0.95000000000E+03 0.  0.
   -2000013    1    1    2    0    0  0.15730295819E+03 -0.11981707107E+04 -0.22748108789E+04  0.27454729661E+04  0.95000000000E+03 0.  0.
<mgrwt>
<rscale>  0 0.30787935E+04</rscale>
<asrwt>0</asrwt>
<pdfrwt beam="1">  1        2 0.76534919E-01 0.30787935E+04</pdfrwt>
<pdfrwt beam="2">  1       -2 0.73284948E+00 0.30787935E+04</pdfrwt>
<totfact> 0.89309105E-03</totfact>
</mgrwt>
</event>
<event>
 4    1  0.2048914E-008  0.2687677E+04  0.7816531E-02  0.8339015E-01
         -2   -1    0    0    0  501 -0.00000000000E+00  0.00000000000E+00  0.55416280602E+03  0.55416280602E+03  0.00000000000E+00 0. -1.
          2   -1    0    0  501    0  0.00000000000E+00 -0.00000000000E+00 -0.32587922208E+04  0.32587922208E+04  0.00000000000E+00 0.  1.
    2000013    1    1    2    0    0 -0.58295805209E+03  0.74571908075E+03 -0.14748841515E+04  0.19934192480E+04  0.95000000000E+03 0.  0.
   -2000013    1    1    2    0    0  0.58295805209E+03 -0.74571908075E+03 -0.12297452633E+04  0.18195357788E+04  0.95000000000E+03 0.  0.
<mgrwt>
<rscale>  0 0.26876766E+04</rscale>
<asrwt>0</asrwt>
<pdfrwt beam="2">  1        2 0.50135265E+00 0.26876766E+04</pdfrwt>
<pdfrwt beam="1">  1       -2 0.85255815E-01 0.26876766E+04</pdfrwt>
<totfact> 0.12466472E+00</totfact>
</mgrwt>
</event>
<event>
 4    1  0.2048914E-008  0.2458515E+04  0.7816531E-02  0.8417916E-01
         -2   -1    0    0    0  501 -0.00000000000E+00  0.00000000000E+00  0.64653866257E+03  0.64653866257E+03  0.00000000000E+00 0. -1.
          2   -1    0    0  501    0  0.00000000000E+00 -0.00000000000E+00 -0.23371754700E+04  0.23371754700E+04  0.00000000000E+00 0.  1.
    2000013    1    1    2    0    0 -0.59681298021E+03  0.49196861667E+03 -0.72181788507E+03  0.14218790076E+04  0.95000000000E+03 0.  0.
   -2000013    1    1    2    0    0  0.59681298021E+03 -0.49196861667E+03 -0.96881892233E+03  0.15618351249E+04  0.95000000000E+03 0.  0.
<mgrwt>
<rscale>  0 0.24585152E+04</rscale>
<asrwt>0</asrwt>
<pdfrwt beam="2">  1        2 0.35956546E+00 0.24585152E+04</pdfrwt>
<pdfrwt beam="1">  1       -2 0.99467486E-01 0.24585152E+04</pdfrwt>
<totfact> 0.32321915E+00</totfact>
</mgrwt>
</event>
<event>
 4    1  0.2048914E-008  0.3250531E+04  0.7816531E-02  0.8175598E-01
         -1   -1    0    0    0  501 -0.00000000000E+00  0.00000000000E+00  0.16532752514E+04  0.16532752514E+04  0.00000000000E+00 0. -1.
          1   -1    0    0  501    0  0.00000000000E+00 -0.00000000000E+00 -0.15977302134E+04  0.15977302134E+04  0.00000000000E+00 0.  1.
    2000013    1    1    2    0    0  0.66517166654E+03 -0.10028471467E+04  0.56713973844E+03  0.16347180884E+04  0.95000000000E+03 0.  0.
   -2000013    1    1    2    0    0 -0.66517166654E+03  0.10028471467E+04 -0.51159470044E+03  0.16162873764E+04  0.95000000000E+03 0.  0.
<mgrwt>
<rscale>  0 0.32505309E+04</rscale>
<asrwt>0</asrwt>
<pdfrwt beam="2">  1        1 0.24580465E+00 0.32505309E+04</pdfrwt>
<pdfrwt beam="1">  1       -1 0.25435004E+00 0.32505309E+04</pdfrwt>
<totfact> 0.30467519E-01</totfact>
</mgrwt>
</event>
<event>
 4    1  0.2048914E-008  0.4282122E+04  0.7816531E-02  0.7949932E-01
         -2   -1    0    0    0  501 -0.00000000000E+00  0.00000000000E+00  0.14127042693E+04  0.14127042693E+04  0.00000000000E+00 0. -1.
          2   -1    0    0  501    0  0.00000000000E+00 -0.00000000000E+00 -0.32449405284E+04  0.32449405284E+04  0.00000000000E+00 0.  1.
    2000013    1    1    2    0    0 -0.17599138251E+04  0.37715917975E+03 -0.19290637602E+03  0.20443235039E+04  0.95000000000E+03 0.  0.
   -2000013    1    1    2    0    0  0.17599138251E+04 -0.37715917975E+03 -0.16393298831E+04  0.26133212938E+04  0.95000000000E+03 0.  0.
<mgrwt>
<rscale>  0 0.42821216E+04</rscale>
<asrwt>0</asrwt>
<pdfrwt beam="2">  1        2 0.49922162E+00 0.42821216E+04</pdfrwt>
<pdfrwt beam="1">  1       -2 0.21733912E+00 0.42821216E+04</pdfrwt>
<totfact> 0.95904475E-02</totfact>
</mgrwt>
</event>
<event>
 4    1  0.2048914E-008  0.4083443E+04  0.7816531E-02  0.7987922E-01
         -2   -1    0    0    0  501 -0.00000000000E+00  0.00000000000E+00  0.18496454273E+04  0.18496454273E+04  0.00000000000E+00 0. -1.
          2   -1    0    0  501    0  0.00000000000E+00 -0.00000000000E+00 -0.22537438219E+04  0.22537438219E+04  0.00000000000E+00 0.  1.
    2000013    1    1    2    0    0  0.19788306003E+02  0.17853591904E+04  0.79009576952E+02  0.20240161880E+04  0.95000000000E+03 0.  0.
   -2000013    1    1    2    0    0 -0.19788306003E+02 -0.17853591904E+04 -0.48310797149E+03  0.20793730613E+04  0.95000000000E+03 0.  0.
<mgrwt>
<rscale>  0 0.40834431E+04</rscale>
<asrwt>0</asrwt>
<pdfrwt beam="2">  1        2 0.34672982E+00 0.40834431E+04</pdfrwt>
<pdfrwt beam="1">  1       -2 0.28456084E+00 0.40834431E+04</pdfrwt>
<totfact> 0.14905652E-01</totfact>
</mgrwt>
</event>
<event>
 4    1  0.2048914E-008  0.2635958E+04  0.7816531E-02  0.8356089E-01
         -1   -1    0    0    0  501 -0.00000000000E+00  0.00000000000E+00  0.12120622797E+04  0.12120622797E+04  0.00000000000E+00 0. -1.
          1   -1    0    0  501    0  0.00000000000E+00 -0.00000000000E+00 -0.14331509667E+04  0.14331509667E+04  0.00000000000E+00 0.  1.
    2000013    1    1    2    0    0  0.83493916788E+03  0.36784472432E+03 -0.15691343419E+03  0.13264821827E+04  0.95000000000E+03 0.  0.
   -2000013    1    1    2    0    0 -0.83493916788E+03 -0.36784472432E+03 -0.64175252862E+02  0.13187310637E+04  0.95000000000E+03 0.  0.
<mgrwt>
<rscale>  0 0.26359577E+04</rscale>
<asrwt>0</asrwt>
<pdfrwt beam="2">  1        1 0.22048476E+00 0.26359577E+04</pdfrwt>
<pdfrwt beam="1">  1       -1 0.18647112E+00 0.26359577E+04</pdfrwt>
<totfact> 0.11964944E+00</totfact>
</mgrwt>
</event>
<event>
 4    1  0.2048914E-008  0.2654030E+04  0.7816531E-02  0.8350077E-01
         -2   -1    0    0    0  501 -0.00000000000E+00  0.00000000000E+00  0.75567271633E+03  0.75567271633E+03  0.00000000000E+00 0.  1.
          2   -1    0    0  501    0  0.00000000000E+00 -0.00000000000E+00 -0.23303327164E+04  0.23303327164E+04  0.00000000000E+00 0. -1.
    2000013    1    1    2    0    0 -0.55564425674E+03 -0.65424479794E+03 -0.11929524383E+04  0.17499749472E+04  0.95000000000E+03 0.  0.
   -2000013    1    1    2    0    0  0.55564425674E+03  0.65424479794E+03 -0.38170756176E+03  0.13360304856E+04  0.95000000000E+03 0.  0.
<mgrwt>
<rscale>  0 0.26540300E+04</rscale>
<asrwt>0</asrwt>
<pdfrwt beam="2">  1        2 0.35851272E+00 0.26540300E+04</pdfrwt>
<pdfrwt beam="1">  1       -2 0.11625734E+00 0.26540300E+04</pdfrwt>
<totfact> 0.22027156E+00</totfact>
</mgrwt>
</event>
<event>
 4    1  0.2048914E-008  0.2500450E+04  0.7816531E-02  0.8402825E-01
          1   -1    0    0  501    0  0.00000000000E+00  0.00000000000E+00  0.72542032049E+03  0.72542032049E+03  0.00000000000E+00 0.  1.
         -1   -1    0    0    0  501 -0.00000000000E+00 -0.00000000000E+00 -0.21546985629E+04  0.21546985629E+04  0.00000000000E+00 0. -1.
    2000013    1    1    2    0    0  0.36217882494E+03 -0.38533616232E+02 -0.15515316405E+04  0.18553729470E+04  0.95000000000E+03 0.  0.
   -2000013    1    1    2    0    0 -0.36217882494E+03  0.38533616232E+02  0.12225339812E+03  0.10247459364E+04  0.95000000000E+03 0.  0.
<mgrwt>
<rscale>  0 0.25004497E+04</rscale>
<asrwt>0</asrwt>
<pdfrwt beam="1">  1        1 0.11160313E+00 0.25004497E+04</pdfrwt>
<pdfrwt beam="2">  1       -1 0.33149208E+00 0.25004497E+04</pdfrwt>
<totfact> 0.47173990E-01</totfact>
</mgrwt>
</event>
<event>
 4    1  0.2048914E-008  0.2158254E+04  0.7816531E-02  0.8536007E-01
          2   -1    0    0  501    0  0.00000000000E+00  0.00000000000E+00  0.16820492597E+04  0.16820492597E+04  0.00000000000E+00 0.  1.
         -2   -1    0    0    0  501 -0.00000000000E+00 -0.00000000000E+00 -0.69231918907E+03  0.69231918907E+03  0.00000000000E+00 0. -1.
    2000013    1    1    2    0    0 -0.27991555036E+03 -0.31294846371E+03  0.17275767456E+03  0.10529172192E+04  0.95000000000E+03 0.  0.
   -2000013    1    1    2    0    0  0.27991555036E+03  0.31294846371E+03  0.81697239605E+03  0.13214512296E+04  0.95000000000E+03 0.  0.
<mgrwt>
<rscale>  0 0.21582539E+04</rscale>
<asrwt>0</asrwt>
<pdfrwt beam="1">  1        2 0.25877681E+00 0.21582539E+04</pdfrwt>
<pdfrwt beam="2">  1       -2 0.10651064E+00 0.21582539E+04</pdfrwt>
<totfact> 0.65376832E+00</totfact>
</mgrwt>
</event>
<event>
 4    1  0.2048914E-008  0.2468450E+04  0.7816531E-02  0.8414312E-01
          2   -1    0    0  501    0  0.00000000000E+00  0.00000000000E+00  0.23005585275E+04  0.23005585275E+04  0.00000000000E+00 0.  1.
         -2   -1    0    0    0  501 -0.00000000000E+00 -0.00000000000E+00 -0.66214861926E+03  0.66214861926E+03  0.00000000000E+00 0. -1.
    2000013    1    1    2    0    0 -0.51921795504E+03 -0.40802205759E+03  0.30332624958E+03  0.11960669287E+04  0.95000000000E+03 0.  0.
   -2000013    1    1    2    0    0  0.51921795504E+03  0.40802205759E+03  0.13350836586E+04  0.17666402180E+04  0.95000000000E+03 0.  0.
<mgrwt>
<rscale>  0 0.24684502E+04</rscale>
<asrwt>0</asrwt>
<pdfrwt beam="1">  1        2 0.35393208E+00 0.24684502E+04</pdfrwt>
<pdfrwt beam="2">  1       -2 0.10186902E+00 0.24684502E+04</pdfrwt>
<totfact> 0.32012539E+00</totfact>
</mgrwt>
</event>
<event>
 4    1  0.2048914E-008  0.2295704E+04  0.7816531E-02  0.8479617E-01
          2   -1    0    0  501    0  0.00000000000E+00  0.00000000000E+00  0.11511051013E+04  0.11511051013E+04  0.00000000000E+00 0.  1.
         -2   -1    0    0    0  501 -0.00000000000E+00 -0.00000000000E+00 -0.11446085411E+04  0.11446085411E+04  0.00000000000E+00 0. -1.
    2000013    1    1    2    0    0  0.41537260155E+03 -0.16044771835E+03  0.46885390529E+03  0.11491744223E+04  0.95000000000E+03 0.  0.
   -2000013    1    1    2    0    0 -0.41537260155E+03  0.16044771835E+03 -0.46235734507E+03  0.11465392200E+04  0.95000000000E+03 0.  0.
<mgrwt>
<rscale>  0 0.22957045E+04</rscale>
<asrwt>0</asrwt>
<pdfrwt beam="1">  1        2 0.17709309E+00 0.22957045E+04</pdfrwt>
<pdfrwt beam="2">  1       -2 0.17609362E+00 0.22957045E+04</pdfrwt>
<totfact> 0.35488077E+00</totfact>
</mgrwt>
</event>
<event>
 4    1  0.2048914E-008  0.2186643E+04  0.7816531E-02  0.8524008E-01
          2   -1    0    0  501    0  0.00000000000E+00  0.00000000000E+00  0.19170339761E+04  0.19170339761E+04  0.00000000000E+00 0.  1.
         -2   -1    0    0    0  501 -0.00000000000E+00 -0.00000000000E+00 -0.62354234982E+03  0.62354234982E+03  0.00000000000E+00 0. -1.
    2000013    1    1    2    0    0 -0.46884347836E+03  0.26725795687E+03  0.69337754792E+03  0.12940299250E+04  0.95000000000E+03 0.  0.
   -2000013    1    1    2    0    0  0.46884347836E+03 -0.26725795687E+03  0.60011407836E+03  0.12465464010E+04  0.95000000000E+03 0.  0.
<mgrwt>
<rscale>  0 0.21866430E+04</rscale>
<asrwt>0</asrwt>
<pdfrwt beam="1">  1        2 0.29492830E+00 0.21866430E+04</pdfrwt>
<pdfrwt beam="2">  1       -2 0.95929593E-01 0.21866430E+04</pdfrwt>
<totfact> 0.61932009E+00</totfact>
</mgrwt>
</event>
<event>
 4    1  0.2048914E-008  0.2389010E+04  0.7816531E-02  0.8443630E-01
         -1   -1    0    0    0  501 -0.00000000000E+00  0.00000000000E+00  0.14443138959E+04  0.14443138959E+04  0.00000000000E+00 0.  1.
          1   -1    0    0  501    0  0.00000000000E+00 -0.00000000000E+00 -0.98790297610E+03  0.98790297610E+03  0.00000000000E+00 0. -1.
    2000013    1    1    2    0    0  0.62740125635E+03  0.17081458835E+03  0.55260924070E+03  0.12769835289E+04  0.95000000000E+03 0.  0.
   -2000013    1    1    2    0    0 -0.62740125635E+03 -0.17081458835E+03 -0.96198320942E+02  0.11552333431E+04  0.95000000000E+03 0.  0.
<mgrwt>
<rscale>  0 0.23890098E+04</rscale>
<asrwt>0</asrwt>
<pdfrwt beam="2">  1        1 0.15198507E+00 0.23890098E+04</pdfrwt>
<pdfrwt beam="1">  1       -1 0.22220214E+00 0.23890098E+04</pdfrwt>
<totfact> 0.14755986E+00</totfact>
</mgrwt>
</event>
<event>
 4    1  0.2048914E-008  0.3172886E+04  0.7816531E-02  0.8196015E-01
         -2   -1    0    0    0  501 -0.00000000000E+00  0.00000000000E+00  0.18474400110E+04  0.18474400110E+04  0.00000000000E+00 0. -1.
          2   -1    0    0  501    0  0.00000000000E+00 -0.00000000000E+00 -0.13623183687E+04  0.13623183687E+04  0.00000000000E+00 0.  1.
    2000013    1    1    2    0    0  0.33102729052E+03 -0.72361903142E+03  0.12445753952E+04  0.17563232857E+04  0.95000000000E+03 0.  0.
   -2000013    1    1    2    0    0 -0.33102729052E+03  0.72361903142E+03 -0.75945375287E+03  0.14534350940E+04  0.95000000000E+03 0.  0.
<mgrwt>
<rscale>  0 0.31728860E+04</rscale>
<asrwt>0</asrwt>
<pdfrwt beam="2">  1        2 0.20958744E+00 0.31728860E+04</pdfrwt>
<pdfrwt beam="1">  1       -2 0.28422154E+00 0.31728860E+04</pdfrwt>
<totfact> 0.50944215E-01</totfact>
</mgrwt>
</event>
<event>
 4    1  0.2048914E-008  0.2320936E+04  0.7816531E-02  0.8469712E-01
         -2   -1    0    0    0  501 -0.00000000000E+00  0.00000000000E+00  0.11821920301E+04  0.11821920301E+04  0.00000000000E+00 0. -1.
          2   -1    0    0  501    0  0.00000000000E+00 -0.00000000000E+00 -0.11391431450E+04  0.11391431450E+04  0.00000000000E+00 0.  1.
    2000013    1    1    2    0    0  0.52186610476E+03  0.33550744834E+03 -0.22198502519E+03  0.11561517334E+04  0.95000000000E+03 0.  0.
   -2000013    1    1    2    0    0 -0.52186610476E+03 -0.33550744834E+03  0.26503391025E+03  0.11651834417E+04  0.95000000000E+03 0.  0.
<mgrwt>
<rscale>  0 0.23209360E+04</rscale>
<asrwt>0</asrwt>
<pdfrwt beam="2">  1        2 0.17525279E+00 0.23209360E+04</pdfrwt>
<pdfrwt beam="1">  1       -2 0.18187570E+00 0.23209360E+04</pdfrwt>
<totfact> 0.32835362E+00</totfact>
</mgrwt>
</event>
<event>
 4    1  0.2048914E-008  0.2939357E+04  0.7816531E-02  0.8261263E-01
          2   -1    0    0  501    0  0.00000000000E+00  0.00000000000E+00  0.23565038691E+04  0.23565038691E+04  0.00000000000E+00 0.  1.
         -2   -1    0    0    0  501 -0.00000000000E+00 -0.00000000000E+00 -0.91659282436E+03  0.91659282436E+03  0.00000000000E+00 0. -1.
    2000013    1    1    2    0    0 -0.48090504715E+03  0.98385152875E+03  0.45126860458E+03  0.15183467484E+04  0.95000000000E+03 0.  0.
   -2000013    1    1    2    0    0  0.48090504715E+03 -0.98385152875E+03  0.98864244013E+03  0.17547499450E+04  0.95000000000E+03 0.  0.
<mgrwt>
<rscale>  0 0.29393568E+04</rscale>
<asrwt>0</asrwt>
<pdfrwt beam="1">  1        2 0.36253906E+00 0.29393568E+04</pdfrwt>
<pdfrwt beam="2">  1       -2 0.14101428E+00 0.29393568E+04</pdfrwt>
<totfact> 0.12764158E+00</totfact>
</mgrwt>
</event>
<event>
 4    1  0.2048914E-008  0.3016265E+04  0.7816531E-02  0.8239101E-01
         -2   -1    0    0    0  501 -0.00000000000E+00  0.00000000000E+00  0.69001605705E+03  0.69001605705E+03  0.00000000000E+00 0. -1.
          2   -1    0    0  501    0  0.00000000000E+00 -0.00000000000E+00 -0.32962477394E+04  0.32962477394E+04  0.00000000000E+00 0.  1.
    2000013    1    1    2    0    0 -0.19045198590E+02  0.11247479331E+04 -0.17344952980E+04  0.22751691303E+04  0.95000000000E+03 0.  0.
   -2000013    1    1    2    0    0  0.19045198590E+02 -0.11247479331E+04 -0.87173638432E+03  0.17110946661E+04  0.95000000000E+03 0.  0.
<mgrwt>
<rscale>  0 0.30162652E+04</rscale>
<asrwt>0</asrwt>
<pdfrwt beam="2">  1        2 0.50711502E+00 0.30162652E+04</pdfrwt>
<pdfrwt beam="1">  1       -2 0.10615632E+00 0.30162652E+04</pdfrwt>
<totfact> 0.68515325E-01</totfact>
</mgrwt>
</event>
<event>
 4    1  0.2048914E-008  0.3695690E+04  0.7816531E-02  0.8068918E-01
         -2   -1    0    0    0  501 -0.00000000000E+00  0.00000000000E+00  0.14194863345E+04  0.14194863345E+04  0.00000000000E+00 0. -1.
          2   -1    0    0  501    0  0.00000000000E+00 -0.00000000000E+00 -0.24054689010E+04  0.24054689010E+04  0.00000000000E+00 0.  1.
    2000013    1    1    2    0    0 -0.11429359026E+04 -0.10694815948E+04 -0.23541520837E+03  0.18460806265E+04  0.95000000000E+03 0.  0.
   -2000013    1    1    2    0    0  0.11429359026E+04  0.10694815948E+04 -0.75056735811E+03  0.19788746090E+04  0.95000000000E+03 0.  0.
<mgrwt>
<rscale>  0 0.36956895E+04</rscale>
<asrwt>0</asrwt>
<pdfrwt beam="2">  1        2 0.37007213E+00 0.36956895E+04</pdfrwt>
<pdfrwt beam="1">  1       -2 0.21838252E+00 0.36956895E+04</pdfrwt>
<totfact> 0.32300474E-01</totfact>
</mgrwt>
</event>
<event>
 4    1  0.2048914E-008  0.2200726E+04  0.7816531E-02  0.8518126E-01
          2   -1    0    0  501    0  0.00000000000E+00  0.00000000000E+00  0.16555986454E+04  0.16555986454E+04  0.00000000000E+00 0.  1.
         -2   -1    0    0    0  501 -0.00000000000E+00 -0.00000000000E+00 -0.73133559205E+03  0.73133559205E+03  0.00000000000E+00 0. -1.
    2000013    1    1    2    0    0 -0.32462728748E+03  0.27333321734E+03  0.73779250835E+02  0.10430902652E+04  0.95000000000E+03 0.  0.
   -2000013    1    1    2    0    0  0.32462728748E+03 -0.27333321734E+03  0.85048380256E+03  0.13438439723E+04  0.95000000000E+03 0.  0.
<mgrwt>
<rscale>  0 0.22007255E+04</rscale>
<asrwt>0</asrwt>
<pdfrwt beam="1">  1        2 0.25470748E+00 0.22007255E+04</pdfrwt>
<pdfrwt beam="2">  1       -2 0.11251317E+00 0.22007255E+04</pdfrwt>
<totfact> 0.59021541E+00</totfact>
</mgrwt>
</event>
<event>
 4    1  0.2048914E-008  0.2165913E+04  0.7816531E-02  0.8532751E-01
          2   -1    0    0  501    0  0.00000000000E+00  0.00000000000E+00  0.36951688839E+04  0.36951688839E+04  0.00000000000E+00 0.  1.
         -2   -1    0    0    0  501 -0.00000000000E+00 -0.00000000000E+00 -0.31738585835E+03  0.31738585835E+03  0.00000000000E+00 0. -1.
    2000013    1    1    2    0    0  0.72768675035E+02 -0.94080921211E+02  0.26265083520E+04  0.27955666014E+04  0.95000000000E+03 0.  0.
   -2000013    1    1    2    0    0 -0.72768675035E+02  0.94080921211E+02  0.75127467351E+03  0.12169881408E+04  0.95000000000E+03 0.  0.
<mgrwt>
<rscale>  0 0.21659126E+04</rscale>
<asrwt>0</asrwt>
<pdfrwt beam="1">  1        2 0.56848749E+00 0.21659126E+04</pdfrwt>
<pdfrwt beam="2">  1       -2 0.48828596E-01 0.21659126E+04</pdfrwt>
<totfact> 0.21535729E+00</totfact>
</mgrwt>
</event>
<event>
 4    1  0.2048914E-008  0.3115269E+04  0.7816531E-02  0.8211560E-01
         -1   -1    0    0    0  501 -0.00000000000E+00  0.00000000000E+00  0.85025859460E+03  0.85025859460E+03  0.00000000000E+00 0. -1.
          1   -1    0    0  501    0  0.00000000000E+00 -0.00000000000E+00 -0.28535143854E+04  0.28535143854E+04  0.00000000000E+00 0.  1.
    2000013    1    1    2    0    0  0.12046073860E+04  0.22390507572E+02 -0.13209665256E+04  0.20246068386E+04  0.95000000000E+03 0.  0.
   -2000013    1    1    2    0    0 -0.12046073860E+04 -0.22390507572E+02 -0.68228926526E+03  0.16791661415E+04  0.95000000000E+03 0.  0.
<mgrwt>
<rscale>  0 0.31152689E+04</rscale>
<asrwt>0</asrwt>
<pdfrwt beam="2">  1        1 0.43900221E+00 0.31152689E+04</pdfrwt>
<pdfrwt beam="1">  1       -1 0.13080902E+00 0.31152689E+04</pdfrwt>
<totfact> 0.32081034E-01</totfact>
</mgrwt>
</event>
<event>
 4    1  0.2048914E-008  0.3013054E+04  0.7816531E-02  0.8240013E-01
          2   -1    0    0  501    0  0.00000000000E+00  0.00000000000E+00  0.18642893661E+04  0.18642893661E+04  0.00000000000E+00 0.  1.
         -2   -1    0    0    0  501 -0.00000000000E+00 -0.00000000000E+00 -0.12174203141E+04  0.12174203141E+04  0.00000000000E+00 0. -1.
    2000013    1    1    2    0    0 -0.10979901808E+04  0.11764231679E+03 -0.69642249101E+02  0.14583457048E+04  0.95000000000E+03 0.  0.
   -2000013    1    1    2    0    0  0.10979901808E+04 -0.11764231679E+03  0.71651130116E+03  0.16233639754E+04  0.95000000000E+03 0.  0.
<mgrwt>
<rscale>  0 0.30130541E+04</rscale>
<asrwt>0</asrwt>
<pdfrwt beam="1">  1        2 0.28681375E+00 0.30130541E+04</pdfrwt>
<pdfrwt beam="2">  1       -2 0.18729543E+00 0.30130541E+04</pdfrwt>
<totfact> 0.10987430E+00</totfact>
</mgrwt>
</event>
<event>
 4    1  0.2048914E-008  0.3063672E+04  0.7816531E-02  0.8225779E-01
          2   -1    0    0  501    0  0.00000000000E+00  0.00000000000E+00  0.30261095172E+04  0.30261095172E+04  0.00000000000E+00 0.  1.
         -2   -1    0    0    0  501 -0.00000000000E+00 -0.00000000000E+00 -0.77542543205E+03  0.77542543205E+03  0.00000000000E+00 0. -1.
    2000013    1    1    2    0    0  0.64443791111E+03  0.99288468274E+03  0.86832865219E+03  0.17486036894E+04  0.95000000000E+03 0.  0.
   -2000013    1    1    2    0    0 -0.64443791111E+03 -0.99288468274E+03  0.13823554329E+04  0.20529312598E+04  0.95000000000E+03 0.  0.
<mgrwt>
<rscale>  0 0.30636725E+04</rscale>
<asrwt>0</asrwt>
<pdfrwt beam="1">  1        2 0.46555531E+00 0.30636725E+04</pdfrwt>
<pdfrwt beam="2">  1       -2 0.11929622E+00 0.30636725E+04</pdfrwt>
<totfact> 0.76875901E-01</totfact>
</mgrwt>
</event>
<event>
 4    1  0.2048914E-008  0.2218921E+04  0.7816531E-02  0.8510594E-01
         -2   -1    0    0    0  501 -0.00000000000E+00  0.00000000000E+00  0.33675976437E+03  0.33675976437E+03  0.00000000000E+00 0. -1.
          2   -1    0    0  501    0  0.00000000000E+00 -0.00000000000E+00 -0.36551339913E+04  0.36551339913E+04  0.00000000000E+00 0.  1.
    2000013    1    1    2    0    0  0.10521624930E+03 -0.51569810049E+03 -0.20670030226E+04  0.23349553497E+04  0.95000000000E+03 0.  0.
   -2000013    1    1    2    0    0 -0.10521624930E+03  0.51569810049E+03 -0.12513712044E+04  0.16569384060E+04  0.95000000000E+03 0.  0.
<mgrwt>
<rscale>  0 0.22189205E+04</rscale>
<asrwt>0</asrwt>
<pdfrwt beam="2">  1        2 0.56232833E+00 0.22189205E+04</pdfrwt>
<pdfrwt beam="1">  1       -2 0.51809192E-01 0.22189205E+04</pdfrwt>
<totfact> 0.20306331E+00</totfact>
</mgrwt>
</event>
<event>
 4    1  0.2048914E-008  0.2206338E+04  0.7816531E-02  0.8515795E-01
         -2   -1    0    0    0  501 -0.00000000000E+00  0.00000000000E+00  0.81937307772E+03  0.81937307772E+03  0.00000000000E+00 0. -1.
          2   -1    0    0  501    0  0.00000000000E+00 -0.00000000000E+00 -0.14852601984E+04  0.14852601984E+04  0.00000000000E+00 0.  1.
    2000013    1    1    2    0    0 -0.30653356992E+03 -0.23014732030E+03  0.94623271246E+02  0.10287780042E+04  0.95000000000E+03 0.  0.
   -2000013    1    1    2    0    0  0.30653356992E+03  0.23014732030E+03 -0.76051039190E+03  0.12758552719E+04  0.95000000000E+03 0.  0.
<mgrwt>
<rscale>  0 0.22063383E+04</rscale>
<asrwt>0</asrwt>
<pdfrwt beam="2">  1        2 0.22850156E+00 0.22063383E+04</pdfrwt>
<pdfrwt beam="1">  1       -2 0.12605740E+00 0.22063383E+04</pdfrwt>
<totfact> 0.55503474E+00</totfact>
</mgrwt>
</event>
<event>
 4    1  0.2048914E-008  0.2039816E+04  0.7816531E-02  0.8588228E-01
         -1   -1    0    0    0  501 -0.00000000000E+00  0.00000000000E+00  0.13563720044E+04  0.13563720044E+04  0.00000000000E+00 0. -1.
          1   -1    0    0  501    0  0.00000000000E+00 -0.00000000000E+00 -0.76690820669E+03  0.76690820669E+03  0.00000000000E+00 0.  1.
    2000013    1    1    2    0    0  0.29203074375E+03 -0.21184747976E+03  0.20427677769E+03  0.10365280082E+04  0.95000000000E+03 0.  0.
   -2000013    1    1    2    0    0 -0.29203074375E+03  0.21184747976E+03  0.38518702000E+03  0.10867522028E+04  0.95000000000E+03 0.  0.
<mgrwt>
<rscale>  0 0.20398165E+04</rscale>
<asrwt>0</asrwt>
<pdfrwt beam="2">  1        1 0.11798588E+00 0.20398165E+04</pdfrwt>
<pdfrwt beam="1">  1       -1 0.20867262E+00 0.20398165E+04</pdfrwt>
<totfact> 0.28693974E+00</totfact>
</mgrwt>
</event>
<event>
 4    1  0.2048914E-008  0.3356579E+04  0.7816531E-02  0.8148646E-01
         -2   -1    0    0    0  501 -0.00000000000E+00  0.00000000000E+00  0.81044842607E+03  0.81044842607E+03  0.00000000000E+00 0. -1.
          2   -1    0    0  501    0  0.00000000000E+00 -0.00000000000E+00 -0.34754285589E+04  0.34754285589E+04  0.00000000000E+00 0.  1.
    2000013    1    1    2    0    0 -0.64472458864E+03 -0.12240796188E+04 -0.13461767268E+04  0.21514489276E+04  0.95000000000E+03 0.  0.
   -2000013    1    1    2    0    0  0.64472458864E+03  0.12240796188E+04 -0.13188034061E+04  0.21344280574E+04  0.95000000000E+03 0.  0.
<mgrwt>
<rscale>  0 0.33565790E+04</rscale>
<asrwt>0</asrwt>
<pdfrwt beam="2">  1        2 0.53468133E+00 0.33565790E+04</pdfrwt>
<pdfrwt beam="1">  1       -2 0.12468437E+00 0.33565790E+04</pdfrwt>
<totfact> 0.33879559E-01</totfact>
</mgrwt>
</event>
<event>
 4    1  0.2048914E-008  0.2482490E+04  0.7816531E-02  0.8409250E-01
         -2   -1    0    0    0  501 -0.00000000000E+00  0.00000000000E+00  0.51266794814E+03  0.51266794814E+03  0.00000000000E+00 0. -1.
          2   -1    0    0  501    0  0.00000000000E+00 -0.00000000000E+00 -0.30052373873E+04  0.30052373873E+04  0.00000000000E+00 0.  1.
    2000013    1    1    2    0    0 -0.26442828936E+03  0.57158311524E+03 -0.19427645851E+04  0.22524350848E+04  0.95000000000E+03 0.  0.
   -2000013    1    1    2    0    0  0.26442828936E+03 -0.57158311524E+03 -0.54980485404E+03  0.12654702507E+04  0.95000000000E+03 0.  0.
<mgrwt>
<rscale>  0 0.24824898E+04</rscale>
<asrwt>0</asrwt>
<pdfrwt beam="2">  1        2 0.46234421E+00 0.24824898E+04</pdfrwt>
<pdfrwt beam="1">  1       -2 0.78871993E-01 0.24824898E+04</pdfrwt>
<totfact> 0.22031344E+00</totfact>
</mgrwt>
</event>
<event>
 4    1  0.2048914E-008  0.3336037E+04  0.7816531E-02  0.8153786E-01
          2   -1    0    0  501    0  0.00000000000E+00  0.00000000000E+00  0.31275375524E+04  0.31275375524E+04  0.00000000000E+00 0.  1.
         -2   -1    0    0    0  501 -0.00000000000E+00 -0.00000000000E+00 -0.88960923038E+03  0.88960923038E+03  0.00000000000E+00 0. -1.
    2000013    1    1    2    0    0  0.12233227858E+04 -0.13967702234E+03  0.39270260662E+03  0.16039774456E+04  0.95000000000E+03 0.  0.
   -2000013    1    1    2    0    0 -0.12233227858E+04  0.13967702234E+03  0.18452257154E+04  0.24131693371E+04  0.95000000000E+03 0.  0.
<mgrwt>
<rscale>  0 0.33360373E+04</rscale>
<asrwt>0</asrwt>
<pdfrwt beam="1">  1        2 0.48115962E+00 0.33360373E+04</pdfrwt>
<pdfrwt beam="2">  1       -2 0.13686296E+00 0.33360373E+04</pdfrwt>
<totfact> 0.45789141E-01</totfact>
</mgrwt>
</event>
<event>
 4    1  0.2048914E-008  0.2292253E+04  0.7816531E-02  0.8480982E-01
         -1   -1    0    0    0  501 -0.00000000000E+00  0.00000000000E+00  0.17943541494E+04  0.17943541494E+04  0.00000000000E+00 0. -1.
          1   -1    0    0  501    0  0.00000000000E+00 -0.00000000000E+00 -0.73207707377E+03  0.73207707377E+03  0.00000000000E+00 0.  1.
    2000013    1    1    2    0    0  0.37321160800E+03 -0.86095162952E+02 -0.35597540665E+02  0.10249226636E+04  0.95000000000E+03 0.  0.
   -2000013    1    1    2    0    0 -0.37321160800E+03  0.86095162952E+02  0.10978746163E+04  0.15015085596E+04  0.95000000000E+03 0.  0.
<mgrwt>
<rscale>  0 0.22922526E+04</rscale>
<asrwt>0</asrwt>
<pdfrwt beam="2">  1        1 0.11262724E+00 0.22922526E+04</pdfrwt>
<pdfrwt beam="1">  1       -1 0.27605448E+00 0.22922526E+04</pdfrwt>
<totfact> 0.10859223E+00</totfact>
</mgrwt>
</event>
<event>
 4    1  0.2048914E-008  0.2691104E+04  0.7816531E-02  0.8337897E-01
          1   -1    0    0  501    0  0.00000000000E+00  0.00000000000E+00  0.19976763124E+04  0.19976763124E+04  0.00000000000E+00 0.  1.
         -1   -1    0    0    0  501 -0.00000000000E+00 -0.00000000000E+00 -0.90630810340E+03  0.90630810340E+03  0.00000000000E+00 0. -1.
    2000013    1    1    2    0    0 -0.87681434482E+03  0.16287164302E+03  0.18345231371E+03  0.13158591561E+04  0.95000000000E+03 0.  0.
   -2000013    1    1    2    0    0  0.87681434482E+03 -0.16287164302E+03  0.90791589527E+03  0.15881252596E+04  0.95000000000E+03 0.  0.
<mgrwt>
<rscale>  0 0.26911040E+04</rscale>
<asrwt>0</asrwt>
<pdfrwt beam="1">  1        1 0.30733482E+00 0.26911040E+04</pdfrwt>
<pdfrwt beam="2">  1       -1 0.13943202E+00 0.26911040E+04</pdfrwt>
<totfact> 0.11070264E+00</totfact>
</mgrwt>
</event>
<event>
 4    1  0.2048914E-008  0.2739207E+04  0.7816531E-02  0.8322395E-01
         -2   -1    0    0    0  501 -0.00000000000E+00  0.00000000000E+00  0.31254122795E+04  0.31254122795E+04  0.00000000000E+00 0. -1.
          2   -1    0    0  501    0  0.00000000000E+00 -0.00000000000E+00 -0.60018105262E+03  0.60018105262E+03  0.00000000000E+00 0.  1.
    2000013    1    1    2    0    0 -0.10622833731E+03  0.96950575949E+03  0.10604801545E+04  0.17257879462E+04  0.95000000000E+03 0.  0.
   -2000013    1    1    2    0    0  0.10622833731E+03 -0.96950575949E+03  0.14647510724E+04  0.19998053859E+04  0.95000000000E+03 0.  0.
<mgrwt>
<rscale>  0 0.27392066E+04</rscale>
<asrwt>0</asrwt>
<pdfrwt beam="2">  1        2 0.92335548E-01 0.27392066E+04</pdfrwt>
<pdfrwt beam="1">  1       -2 0.48083265E+00 0.27392066E+04</pdfrwt>
<totfact> 0.94316280E-02</totfact>
</mgrwt>
</event>
<event>
 4    1  0.2048914E-008  0.2300954E+04  0.7816531E-02  0.8477545E-01
          2   -1    0    0  501    0  0.00000000000E+00  0.00000000000E+00  0.85194089511E+03  0.85194089511E+03  0.00000000000E+00 0.  1.
         -2   -1    0    0    0  501 -0.00000000000E+00 -0.00000000000E+00 -0.15536262782E+04  0.15536262782E+04  0.00000000000E+00 0. -1.
    2000013    1    1    2    0    0  0.51333584636E+03  0.39690571793E+03 -0.34345590113E+03  0.12006289169E+04  0.95000000000E+03 0.  0.
   -2000013    1    1    2    0    0 -0.51333584636E+03 -0.39690571793E+03 -0.35822948201E+03  0.12049382565E+04  0.95000000000E+03 0.  0.
<mgrwt>
<rscale>  0 0.23009544E+04</rscale>
<asrwt>0</asrwt>
<pdfrwt beam="1">  1        2 0.13106783E+00 0.23009544E+04</pdfrwt>
<pdfrwt beam="2">  1       -2 0.23901943E+00 0.23009544E+04</pdfrwt>
<totfact> 0.21541206E+00</totfact>
</mgrwt>
</event>
<event>
 4    1  0.2048914E-008  0.2852848E+04  0.7816531E-02  0.8287046E-01
         -2   -1    0    0    0  501 -0.00000000000E+00  0.00000000000E+00  0.93647379985E+03  0.93647379985E+03  0.00000000000E+00 0. -1.
          2   -1    0    0  501    0  0.00000000000E+00 -0.00000000000E+00 -0.21727096081E+04  0.21727096081E+04  0.00000000000E+00 0.  1.
    2000013    1    1    2    0    0 -0.97532828891E+03 -0.18109464037E+03 -0.10375696347E+04  0.17213690153E+04  0.95000000000E+03 0.  0.
   -2000013    1    1    2    0    0  0.97532828891E+03  0.18109464037E+03 -0.19866617351E+03  0.13878143926E+04  0.95000000000E+03 0.  0.
<mgrwt>
<rscale>  0 0.28528481E+04</rscale>
<asrwt>0</asrwt>
<pdfrwt beam="2">  1        2 0.33426301E+00 0.28528481E+04</pdfrwt>
<pdfrwt beam="1">  1       -2 0.14407289E+00 0.28528481E+04</pdfrwt>
<totfact> 0.15445005E+00</totfact>
</mgrwt>
</event>
<event>
 4    1  0.2048914E-008  0.3122224E+04  0.7816531E-02  0.8209665E-01
          1   -1    0    0  501    0  0.00000000000E+00  0.00000000000E+00  0.27402952995E+04  0.27402952995E+04  0.00000000000E+00 0. -1.
         -1   -1    0    0    0  501 -0.00000000000E+00 -0.00000000000E+00 -0.88934575410E+03  0.88934575410E+03  0.00000000000E+00 0.  1.
    2000013    1    1    2    0    0  0.67675702085E+03 -0.10270868325E+03  0.21257546676E+04  0.24269079186E+04  0.95000000000E+03 0.  0.
   -2000013    1    1    2    0    0 -0.67675702085E+03  0.10270868325E+03 -0.27480512212E+03  0.12027331350E+04  0.95000000000E+03 0.  0.
<mgrwt>
<rscale>  0 0.31222236E+04</rscale>
<asrwt>0</asrwt>
<pdfrwt beam="1">  1        1 0.42158389E+00 0.31222236E+04</pdfrwt>
<pdfrwt beam="2">  1       -1 0.13682243E+00 0.31222236E+04</pdfrwt>
<totfact> 0.34424164E-01</totfact>
</mgrwt>
</event>
<event>
 4    1  0.2048914E-008  0.2479743E+04  0.7816531E-02  0.8410238E-01
         -2   -1    0    0    0  501 -0.00000000000E+00  0.00000000000E+00  0.20966037388E+04  0.20966037388E+04  0.00000000000E+00 0. -1.
          2   -1    0    0  501    0  0.00000000000E+00 -0.00000000000E+00 -0.73322441012E+03  0.73322441012E+03  0.00000000000E+00 0.  1.
    2000013    1    1    2    0    0 -0.14395338833E+03  0.77515928798E+03  0.55064514633E+03  0.13517783017E+04  0.95000000000E+03 0.  0.
   -2000013    1    1    2    0    0  0.14395338833E+03 -0.77515928798E+03  0.81273418238E+03  0.14780498473E+04  0.95000000000E+03 0.  0.
<mgrwt>
<rscale>  0 0.24797428E+04</rscale>
<asrwt>0</asrwt>
<pdfrwt beam="2">  1        2 0.11280376E+00 0.24797428E+04</pdfrwt>
<pdfrwt beam="1">  1       -2 0.32255442E+00 0.24797428E+04</pdfrwt>
<totfact> 0.79678150E-01</totfact>
</mgrwt>
</event>
<event>
 4    1  0.2048914E-008  0.2776860E+04  0.7816531E-02  0.8310489E-01
          2   -1    0    0  501    0  0.00000000000E+00  0.00000000000E+00  0.35132544952E+04  0.35132544952E+04  0.00000000000E+00 0.  1.
         -2   -1    0    0    0  501 -0.00000000000E+00 -0.00000000000E+00 -0.54870430701E+03  0.54870430701E+03  0.00000000000E+00 0. -1.
    2000013    1    1    2    0    0 -0.39111733942E+03 -0.90714703057E+03  0.18072294123E+04  0.22681416748E+04  0.95000000000E+03 0.  0.
   -2000013    1    1    2    0    0  0.39111733942E+03  0.90714703057E+03  0.11573207759E+04  0.17938171274E+04  0.95000000000E+03 0.  0.
<mgrwt>
<rscale>  0 0.27768600E+04</rscale>
<asrwt>0</asrwt>
<pdfrwt beam="1">  1        2 0.54050068E+00 0.27768600E+04</pdfrwt>
<pdfrwt beam="2">  1       -2 0.84416049E-01 0.27768600E+04</pdfrwt>
<totfact> 0.84906346E-01</totfact>
</mgrwt>
</event>
<event>
 4    1  0.2048914E-008  0.3649522E+04  0.7816531E-02  0.8079241E-01
         -2   -1    0    0    0  501 -0.00000000000E+00  0.00000000000E+00  0.38600819937E+04  0.38600819937E+04  0.00000000000E+00 0. -1.
          2   -1    0    0  501    0  0.00000000000E+00 -0.00000000000E+00 -0.86261190372E+03  0.86261190372E+03  0.00000000000E+00 0.  1.
    2000013    1    1    2    0    0  0.61831885935E+02  0.12617560203E+04  0.31879715451E+03  0.16124462976E+04  0.95000000000E+03 0.  0.
   -2000013    1    1    2    0    0 -0.61831885935E+02 -0.12617560203E+04  0.26786729355E+04  0.31102475998E+04  0.95000000000E+03 0.  0.
<mgrwt>
<rscale>  0 0.36495220E+04</rscale>
<asrwt>0</asrwt>
<pdfrwt beam="2">  1        2 0.13270953E+00 0.36495220E+04</pdfrwt>
<pdfrwt beam="1">  1       -2 0.59385876E+00 0.36495220E+04</pdfrwt>
<totfact> 0.13494288E-02</totfact>
</mgrwt>
</event>
<event>
 4    1  0.2048914E-008  0.2582369E+04  0.7816531E-02  0.8374215E-01
         -1   -1    0    0    0  501 -0.00000000000E+00  0.00000000000E+00  0.10606364808E+04  0.10606364808E+04  0.00000000000E+00 0. -1.
          1   -1    0    0  501    0  0.00000000000E+00 -0.00000000000E+00 -0.15718458303E+04  0.15718458303E+04  0.00000000000E+00 0.  1.
    2000013    1    1    2    0    0 -0.53567825813E+03 -0.41119340284E+03 -0.82192655295E+03  0.14262168381E+04  0.95000000000E+03 0.  0.
   -2000013    1    1    2    0    0  0.53567825813E+03  0.41119340284E+03  0.31071720349E+03  0.12062654730E+04  0.95000000000E+03 0.  0.
<mgrwt>
<rscale>  0 0.25823687E+04</rscale>
<asrwt>0</asrwt>
<pdfrwt beam="2">  1        1 0.24182243E+00 0.25823687E+04</pdfrwt>
<pdfrwt beam="1">  1       -1 0.16317484E+00 0.25823687E+04</pdfrwt>
<totfact> 0.14233992E+00</totfact>
</mgrwt>
</event>
<event>
 4    1  0.2048914E-008  0.2576406E+04  0.7816531E-02  0.8376260E-01
         -2   -1    0    0    0  501 -0.00000000000E+00  0.00000000000E+00  0.12395890913E+04  0.12395890913E+04  0.00000000000E+00 0. -1.
          2   -1    0    0  501    0  0.00000000000E+00 -0.00000000000E+00 -0.13387235085E+04  0.13387235085E+04  0.00000000000E+00 0.  1.
    2000013    1    1    2    0    0  0.83325026021E+01  0.79024870524E+03  0.31457650072E+03  0.12751552147E+04  0.95000000000E+03 0.  0.
   -2000013    1    1    2    0    0 -0.83325026021E+01 -0.79024870524E+03 -0.41371091795E+03  0.13031573851E+04  0.95000000000E+03 0.  0.
<mgrwt>
<rscale>  0 0.25764061E+04</rscale>
<asrwt>0</asrwt>
<pdfrwt beam="2">  1        2 0.20595746E+00 0.25764061E+04</pdfrwt>
<pdfrwt beam="1">  1       -2 0.19070601E+00 0.25764061E+04</pdfrwt>
<totfact> 0.21329903E+00</totfact>
</mgrwt>
</event>
<event>
 4    1  0.2048914E-008  0.2250557E+04  0.7816531E-02  0.8497675E-01
         -2   -1    0    0    0  501 -0.00000000000E+00  0.00000000000E+00  0.65235089230E+03  0.65235089230E+03  0.00000000000E+00 0. -1.
          2   -1    0    0  501    0  0.00000000000E+00 -0.00000000000E+00 -0.19410596121E+04  0.19410596121E+04  0.00000000000E+00 0.  1.
    2000013    1    1    2    0    0  0.37199901689E+03  0.47192845431E+03 -0.58500893570E+03  0.12672155260E+04  0.95000000000E+03 0.  0.
   -2000013    1    1    2    0    0 -0.37199901689E+03 -0.47192845431E+03 -0.70369978413E+03  0.13261949784E+04  0.95000000000E+03 0.  0.
<mgrwt>
<rscale>  0 0.22505572E+04</rscale>
<asrwt>0</asrwt>
<pdfrwt beam="2">  1        2 0.29862456E+00 0.22505572E+04</pdfrwt>
<pdfrwt beam="1">  1       -2 0.10036168E+00 0.22505572E+04</pdfrwt>
<totfact> 0.53708804E+00</totfact>
</mgrwt>
</event>
<event>
 4    1  0.2048914E-008  0.3304964E+04  0.7816531E-02  0.8161633E-01
         -2   -1    0    0    0  501 -0.00000000000E+00  0.00000000000E+00  0.92583894162E+03  0.92583894162E+03  0.00000000000E+00 0. -1.
          2   -1    0    0  501    0  0.00000000000E+00 -0.00000000000E+00 -0.29494302608E+04  0.29494302608E+04  0.00000000000E+00 0.  1.
    2000013    1    1    2    0    0 -0.10211472312E+04 -0.71973587363E+03 -0.16181758761E+04  0.22542747307E+04  0.95000000000E+03 0.  0.
   -2000013    1    1    2    0    0  0.10211472312E+04  0.71973587363E+03 -0.40541544306E+03  0.16209944717E+04  0.95000000000E+03 0.  0.
<mgrwt>
<rscale>  0 0.33049644E+04</rscale>
<asrwt>0</asrwt>
<pdfrwt beam="2">  1        2 0.45375850E+00 0.33049644E+04</pdfrwt>
<pdfrwt beam="1">  1       -2 0.14243676E+00 0.33049644E+04</pdfrwt>
<totfact> 0.53640184E-01</totfact>
</mgrwt>
</event>
<event>
 4    1  0.2048914E-008  0.2580436E+04  0.7816531E-02  0.8374877E-01
         -2   -1    0    0    0  501 -0.00000000000E+00  0.00000000000E+00  0.64002897475E+03  0.64002897475E+03  0.00000000000E+00 0. -1.
          2   -1    0    0  501    0  0.00000000000E+00 -0.00000000000E+00 -0.26009171046E+04  0.26009171046E+04  0.00000000000E+00 0.  1.
    2000013    1    1    2    0    0  0.82082096090E+03 -0.17119971560E+03 -0.12857914540E+04  0.18052191157E+04  0.95000000000E+03 0.  0.
   -2000013    1    1    2    0    0 -0.82082096090E+03  0.17119971560E+03 -0.67509667585E+03  0.14357269637E+04  0.95000000000E+03 0.  0.
<mgrwt>
<rscale>  0 0.25804359E+04</rscale>
<asrwt>0</asrwt>
<pdfrwt beam="2">  1        2 0.40014109E+00 0.25804359E+04</pdfrwt>
<pdfrwt beam="1">  1       -2 0.98465996E-01 0.25804359E+04</pdfrwt>
<totfact> 0.23067031E+00</totfact>
</mgrwt>
</event>
<event>
 4    1  0.2048914E-008  0.2660224E+04  0.7816531E-02  0.8348027E-01
         -1   -1    0    0    0  501 -0.00000000000E+00  0.00000000000E+00  0.57616744604E+03  0.57616744604E+03  0.00000000000E+00 0. -1.
          1   -1    0    0  501    0  0.00000000000E+00 -0.00000000000E+00 -0.30706319466E+04  0.30706319466E+04  0.00000000000E+00 0.  1.
    2000013    1    1    2    0    0  0.56661722647E+03  0.72339335849E+03 -0.10423118861E+04  0.16832311488E+04  0.95000000000E+03 0.  0.
   -2000013    1    1    2    0    0 -0.56661722647E+03 -0.72339335849E+03 -0.14521526145E+04  0.19635682438E+04  0.95000000000E+03 0.  0.
<mgrwt>
<rscale>  0 0.26602242E+04</rscale>
<asrwt>0</asrwt>
<pdfrwt beam="2">  1        1 0.47240493E+00 0.26602242E+04</pdfrwt>
<pdfrwt beam="1">  1       -1 0.88641143E-01 0.26602242E+04</pdfrwt>
<totfact> 0.58040968E-01</totfact>
</mgrwt>
</event>
<event>
 4    1  0.2048914E-008  0.2624481E+04  0.7816531E-02  0.8359933E-01
         -2   -1    0    0    0  501 -0.00000000000E+00  0.00000000000E+00  0.68735668140E+03  0.68735668140E+03  0.00000000000E+00 0. -1.
          2   -1    0    0  501    0  0.00000000000E+00 -0.00000000000E+00 -0.25052137308E+04  0.25052137308E+04  0.00000000000E+00 0.  1.
    2000013    1    1    2    0    0 -0.82043317943E+03 -0.35939991702E+03 -0.10684491976E+04  0.16871166498E+04  0.95000000000E+03 0.  0.
   -2000013    1    1    2    0    0  0.82043317943E+03  0.35939991702E+03 -0.74940785173E+03  0.15054537623E+04  0.95000000000E+03 0.  0.
<mgrwt>
<rscale>  0 0.26244812E+04</rscale>
<asrwt>0</asrwt>
<pdfrwt beam="2">  1        2 0.38541749E+00 0.26244812E+04</pdfrwt>
<pdfrwt beam="1">  1       -2 0.10574718E+00 0.26244812E+04</pdfrwt>
<totfact> 0.22048367E+00</totfact>
</mgrwt>
</event>
<event>
 4    1  0.2048914E-008  0.2487643E+04  0.7816531E-02  0.8407401E-01
          2   -1    0    0  501    0  0.00000000000E+00  0.00000000000E+00  0.12413936226E+04  0.12413936226E+04  0.00000000000E+00 0.  1.
         -2   -1    0    0    0  501 -0.00000000000E+00 -0.00000000000E+00 -0.12462546010E+04  0.12462546010E+04  0.00000000000E+00 0. -1.
    2000013    1    1    2    0    0 -0.47623188933E+03 -0.61697763482E+03 -0.19513347657E+03  0.12442006623E+04  0.95000000000E+03 0.  0.
   -2000013    1    1    2    0    0  0.47623188933E+03  0.61697763482E+03  0.19027249813E+03  0.12434475613E+04  0.95000000000E+03 0.  0.
<mgrwt>
<rscale>  0 0.24876435E+04</rscale>
<asrwt>0</asrwt>
<pdfrwt beam="1">  1        2 0.19098363E+00 0.24876435E+04</pdfrwt>
<pdfrwt beam="2">  1       -2 0.19173148E+00 0.24876435E+04</pdfrwt>
<totfact> 0.24112569E+00</totfact>
</mgrwt>
</event>
<event>
 4    1  0.2048914E-008  0.2929438E+04  0.7816531E-02  0.8264172E-01
          2   -1    0    0  501    0  0.00000000000E+00  0.00000000000E+00  0.12120753184E+04  0.12120753184E+04  0.00000000000E+00 0.  1.
         -2   -1    0    0    0  501 -0.00000000000E+00 -0.00000000000E+00 -0.17700230950E+04  0.17700230950E+04  0.00000000000E+00 0. -1.
    2000013    1    1    2    0    0  0.10576208554E+04  0.32712618625E+03 -0.41297566606E+03  0.15161208119E+04  0.95000000000E+03 0.  0.
   -2000013    1    1    2    0    0 -0.10576208554E+04 -0.32712618625E+03 -0.14497211054E+03  0.14659776016E+04  0.95000000000E+03 0.  0.
<mgrwt>
<rscale>  0 0.29294377E+04</rscale>
<asrwt>0</asrwt>
<pdfrwt beam="1">  1        2 0.18647312E+00 0.29294377E+04</pdfrwt>
<pdfrwt beam="2">  1       -2 0.27231125E+00 0.29294377E+04</pdfrwt>
<totfact> 0.75248547E-01</totfact>
</mgrwt>
</event>
<event>
 4    1  0.2048914E-008  0.3421008E+04  0.7816531E-02  0.8132769E-01
         -2   -1    0    0    0  501 -0.00000000000E+00  0.00000000000E+00  0.19145432723E+04  0.19145432723E+04  0.00000000000E+00 0. -1.
          2   -1    0    0  501    0  0.00000000000E+00 -0.00000000000E+00 -0.15282099238E+04  0.15282099238E+04  0.00000000000E+00 0.  1.
    2000013    1    1    2    0    0  0.43189979154E+03 -0.13550408290E+04  0.16749077728E+03  0.17184953415E+04  0.95000000000E+03 0.  0.
   -2000013    1    1    2    0    0 -0.43189979154E+03  0.13550408290E+04  0.21884257118E+03  0.17242578546E+04  0.95000000000E+03 0.  0.
<mgrwt>
<rscale>  0 0.34210081E+04</rscale>
<asrwt>0</asrwt>
<pdfrwt beam="2">  1        2 0.23510922E+00 0.34210081E+04</pdfrwt>
<pdfrwt beam="1">  1       -2 0.29454512E+00 0.34210081E+04</pdfrwt>
<totfact> 0.34732043E-01</totfact>
</mgrwt>
</event>
<event>
 4    1  0.2048914E-008  0.3322385E+04  0.7816531E-02  0.8157223E-01
         -2   -1    0    0    0  501 -0.00000000000E+00  0.00000000000E+00  0.94065862907E+03  0.94065862907E+03  0.00000000000E+00 0. -1.
          2   -1    0    0  501    0  0.00000000000E+00 -0.00000000000E+00 -0.29336480412E+04  0.29336480412E+04  0.00000000000E+00 0.  1.
    2000013    1    1    2    0    0  0.11653757231E+04  0.11278394286E+01 -0.18202090308E+04  0.23608817768E+04  0.95000000000E+03 0.  0.
   -2000013    1    1    2    0    0 -0.11653757231E+04 -0.11278394286E+01 -0.17278038132E+03  0.15134248935E+04  0.95000000000E+03 0.  0.
<mgrwt>
<rscale>  0 0.33223855E+04</rscale>
<asrwt>0</asrwt>
<pdfrwt beam="2">  1        2 0.45133046E+00 0.33223855E+04</pdfrwt>
<pdfrwt beam="1">  1       -2 0.14471671E+00 0.33223855E+04</pdfrwt>
<totfact> 0.52554249E-01</totfact>
</mgrwt>
</event>
<event>
 4    1  0.2048914E-008  0.1928340E+04  0.7816531E-02  0.8640877E-01
          1   -1    0    0  501    0  0.00000000000E+00  0.00000000000E+00  0.15274487310E+04  0.15274487310E+04  0.00000000000E+00 0.  1.
         -1   -1    0    0    0  501 -0.00000000000E+00 -0.00000000000E+00 -0.60861186095E+03  0.60861186095E+03  0.00000000000E+00 0. -1.
    2000013    1    1    2    0    0  0.14428938699E+03 -0.26725827908E+02  0.37660038911E+03  0.10324057101E+04  0.95000000000E+03 0.  0.
   -2000013    1    1    2    0    0 -0.14428938699E+03  0.26725827908E+02  0.54223648093E+03  0.11036548819E+04  0.95000000000E+03 0.  0.
<mgrwt>
<rscale>  0 0.19283396E+04</rscale>
<asrwt>0</asrwt>
<pdfrwt beam="1">  1        1 0.23499211E+00 0.19283396E+04</pdfrwt>
<pdfrwt beam="2">  1       -1 0.93632594E-01 0.19283396E+04</pdfrwt>
<totfact> 0.64642327E+00</totfact>
</mgrwt>
</event>
<event>
 4    1  0.2048914E-008  0.2773512E+04  0.7816531E-02  0.8311539E-01
         -2   -1    0    0    0  501 -0.00000000000E+00  0.00000000000E+00  0.84139399327E+03  0.84139399327E+03  0.00000000000E+00 0. -1.
          2   -1    0    0  501    0  0.00000000000E+00 -0.00000000000E+00 -0.22856032332E+04  0.22856032332E+04  0.00000000000E+00 0.  1.
    2000013    1    1    2    0    0  0.24890649736E+03  0.75971523268E+03 -0.25753583320E+02  0.12418876464E+04  0.95000000000E+03 0.  0.
   -2000013    1    1    2    0    0 -0.24890649736E+03 -0.75971523268E+03 -0.14184556566E+04  0.18851095801E+04  0.95000000000E+03 0.  0.
<mgrwt>
<rscale>  0 0.27735125E+04</rscale>
<asrwt>0</asrwt>
<pdfrwt beam="2">  1        2 0.35163126E+00 0.27735125E+04</pdfrwt>
<pdfrwt beam="1">  1       -2 0.12944523E+00 0.27735125E+04</pdfrwt>
<totfact> 0.17684740E+00</totfact>
</mgrwt>
</event>
<event>
 4    1  0.2048914E-008  0.3031152E+04  0.7816531E-02  0.8234891E-01
         -2   -1    0    0    0  501 -0.00000000000E+00  0.00000000000E+00  0.15386359005E+04  0.15386359005E+04  0.00000000000E+00 0. -1.
          2   -1    0    0  501    0  0.00000000000E+00 -0.00000000000E+00 -0.14928613778E+04  0.14928613778E+04  0.00000000000E+00 0.  1.
    2000013    1    1    2    0    0 -0.27800637115E+03  0.93461823505E+03 -0.64327525820E+03  0.15056898238E+04  0.95000000000E+03 0.  0.
   -2000013    1    1    2    0    0  0.27800637115E+03 -0.93461823505E+03  0.68904978089E+03  0.15258074545E+04  0.95000000000E+03 0.  0.
<mgrwt>
<rscale>  0 0.30311517E+04</rscale>
<asrwt>0</asrwt>
<pdfrwt beam="2">  1        2 0.22967098E+00 0.30311517E+04</pdfrwt>
<pdfrwt beam="1">  1       -2 0.23671322E+00 0.30311517E+04</pdfrwt>
<totfact> 0.84936268E-01</totfact>
</mgrwt>
</event>
<event>
 4    1  0.2048914E-008  0.2427888E+04  0.7816531E-02  0.8429136E-01
         -1   -1    0    0    0  501 -0.00000000000E+00  0.00000000000E+00  0.65717566399E+03  0.65717566399E+03  0.00000000000E+00 0. -1.
          1   -1    0    0  501    0  0.00000000000E+00 -0.00000000000E+00 -0.22424147746E+04  0.22424147746E+04  0.00000000000E+00 0.  1.
    2000013    1    1    2    0    0  0.48222660925E+03  0.17384724460E+03 -0.12939338587E+03  0.10872019203E+04  0.95000000000E+03 0.  0.
   -2000013    1    1    2    0    0 -0.48222660925E+03 -0.17384724460E+03 -0.14558457248E+04  0.18123885184E+04  0.95000000000E+03 0.  0.
<mgrwt>
<rscale>  0 0.24278883E+04</rscale>
<asrwt>0</asrwt>
<pdfrwt beam="2">  1        1 0.34498688E+00 0.24278883E+04</pdfrwt>
<pdfrwt beam="1">  1       -1 0.10110395E+00 0.24278883E+04</pdfrwt>
<totfact> 0.16927464E+00</totfact>
</mgrwt>
</event>
<event>
 4    1  0.2048914E-008  0.2737410E+04  0.7816531E-02  0.8322968E-01
          2   -1    0    0  501    0  0.00000000000E+00  0.00000000000E+00  0.17214226844E+04  0.17214226844E+04  0.00000000000E+00 0.  1.
         -2   -1    0    0    0  501 -0.00000000000E+00 -0.00000000000E+00 -0.10882586456E+04  0.10882586456E+04  0.00000000000E+00 0. -1.
    2000013    1    1    2    0    0  0.90447163588E+03 -0.38772384205E+03  0.36743191092E+03  0.14162997306E+04  0.95000000000E+03 0.  0.
   -2000013    1    1    2    0    0 -0.90447163588E+03  0.38772384205E+03  0.26573212792E+03  0.13933815994E+04  0.95000000000E+03 0.  0.
<mgrwt>
<rscale>  0 0.27374098E+04</rscale>
<asrwt>0</asrwt>
<pdfrwt beam="1">  1        2 0.26483426E+00 0.27374098E+04</pdfrwt>
<pdfrwt beam="2">  1       -2 0.16742441E+00 0.27374098E+04</pdfrwt>
<totfact> 0.18559932E+00</totfact>
</mgrwt>
</event>
<event>
 4    1  0.2048914E-008  0.3392029E+04  0.7816531E-02  0.8139866E-01
          2   -1    0    0  501    0  0.00000000000E+00  0.00000000000E+00  0.16175910533E+04  0.16175910533E+04  0.00000000000E+00 0.  1.
         -2   -1    0    0    0  501 -0.00000000000E+00 -0.00000000000E+00 -0.17782395693E+04  0.17782395693E+04  0.00000000000E+00 0. -1.
    2000013    1    1    2    0    0  0.12876521063E+04  0.49498481222E+03  0.18625697151E+03  0.16853039995E+04  0.95000000000E+03 0.  0.
   -2000013    1    1    2    0    0 -0.12876521063E+04 -0.49498481222E+03 -0.34690548744E+03  0.17105266231E+04  0.95000000000E+03 0.  0.
<mgrwt>
<rscale>  0 0.33920285E+04</rscale>
<asrwt>0</asrwt>
<pdfrwt beam="1">  1        2 0.24886016E+00 0.33920285E+04</pdfrwt>
<pdfrwt beam="2">  1       -2 0.27357532E+00 0.33920285E+04</pdfrwt>
<totfact> 0.41653874E-01</totfact>
</mgrwt>
</event>
<event>
 4    1  0.2048914E-008  0.1951278E+04  0.7816531E-02  0.8629745E-01
          2   -1    0    0  501    0  0.00000000000E+00  0.00000000000E+00  0.79644853462E+03  0.79644853462E+03  0.00000000000E+00 0.  1.
         -2   -1    0    0    0  501 -0.00000000000E+00 -0.00000000000E+00 -0.11951452105E+04  0.11951452105E+04  0.00000000000E+00 0. -1.
    2000013    1    1    2    0    0 -0.58672410759E+02  0.19538898626E+03 -0.10948178676E+03  0.97780650917E+03  0.95000000000E+03 0.  0.
   -2000013    1    1    2    0    0  0.58672410759E+02 -0.19538898626E+03 -0.28921488914E+03  0.10137872360E+04  0.95000000000E+03 0.  0.
<mgrwt>
<rscale>  0 0.19512782E+04</rscale>
<asrwt>0</asrwt>
<pdfrwt beam="1">  1        2 0.12253055E+00 0.19512782E+04</pdfrwt>
<pdfrwt beam="2">  1       -2 0.18386849E+00 0.19512782E+04</pdfrwt>
<totfact> 0.55093957E+00</totfact>
</mgrwt>
</event>
<event>
 4    1  0.2048914E-008  0.2216082E+04  0.7816531E-02  0.8511764E-01
         -2   -1    0    0    0  501 -0.00000000000E+00  0.00000000000E+00  0.10521291756E+04  0.10521291756E+04  0.00000000000E+00 0. -1.
          2   -1    0    0  501    0  0.00000000000E+00 -0.00000000000E+00 -0.11669236799E+04  0.11669236799E+04  0.00000000000E+00 0.  1.
    2000013    1    1    2    0    0  0.29470208424E+03  0.48622836300E+03 -0.12760475584E+02  0.11072173089E+04  0.95000000000E+03 0.  0.
   -2000013    1    1    2    0    0 -0.29470208424E+03 -0.48622836300E+03 -0.10203402872E+03  0.11118355465E+04  0.95000000000E+03 0.  0.
<mgrwt>
<rscale>  0 0.22160816E+04</rscale>
<asrwt>0</asrwt>
<pdfrwt beam="2">  1        2 0.17952672E+00 0.22160816E+04</pdfrwt>
<pdfrwt beam="1">  1       -2 0.16186603E+00 0.22160816E+04</pdfrwt>
<totfact> 0.44172762E+00</totfact>
</mgrwt>
</event>
<event>
 4    1  0.2048914E-008  0.2304971E+04  0.7816531E-02  0.8475964E-01
         -2   -1    0    0    0  501 -0.00000000000E+00  0.00000000000E+00  0.10534010726E+04  0.10534010726E+04  0.00000000000E+00 0. -1.
          2   -1    0    0  501    0  0.00000000000E+00 -0.00000000000E+00 -0.12608902656E+04  0.12608902656E+04  0.00000000000E+00 0.  1.
    2000013    1    1    2    0    0 -0.81338020531E+02  0.60241306457E+03  0.13429160785E+03  0.11358043889E+04  0.95000000000E+03 0.  0.
   -2000013    1    1    2    0    0  0.81338020531E+02 -0.60241306457E+03 -0.34178080087E+03  0.11784869493E+04  0.95000000000E+03 0.  0.
<mgrwt>
<rscale>  0 0.23049713E+04</rscale>
<asrwt>0</asrwt>
<pdfrwt beam="2">  1        2 0.19398312E+00 0.23049713E+04</pdfrwt>
<pdfrwt beam="1">  1       -2 0.16206170E+00 0.23049713E+04</pdfrwt>
<totfact> 0.38419606E+00</totfact>
</mgrwt>
</event>
<event>
 4    1  0.2048914E-008  0.2243576E+04  0.7816531E-02  0.8500507E-01
         -2   -1    0    0    0  501 -0.00000000000E+00  0.00000000000E+00  0.35255120170E+03  0.35255120170E+03  0.00000000000E+00 0. -1.
          2   -1    0    0  501    0  0.00000000000E+00 -0.00000000000E+00 -0.35694343323E+04  0.35694343323E+04  0.00000000000E+00 0.  1.
    2000013    1    1    2    0    0 -0.57982417770E+03  0.15818017832E+02 -0.18523123531E+04  0.21610199769E+04  0.95000000000E+03 0.  0.
   -2000013    1    1    2    0    0  0.57982417770E+03 -0.15818017832E+02 -0.13645707774E+04  0.17609655571E+04  0.95000000000E+03 0.  0.
<mgrwt>
<rscale>  0 0.22435760E+04</rscale>
<asrwt>0</asrwt>
<pdfrwt beam="2">  1        2 0.54914379E+00 0.22435760E+04</pdfrwt>
<pdfrwt beam="1">  1       -2 0.54238642E-01 0.22435760E+04</pdfrwt>
<totfact> 0.21239372E+00</totfact>
</mgrwt>
</event>
<event>
 4    1  0.2048914E-008  0.2598972E+04  0.7816531E-02  0.8368550E-01
         -2   -1    0    0    0  501 -0.00000000000E+00  0.00000000000E+00  0.73666492452E+03  0.73666492452E+03  0.00000000000E+00 0. -1.
          2   -1    0    0  501    0  0.00000000000E+00 -0.00000000000E+00 -0.22923099213E+04  0.22923099213E+04  0.00000000000E+00 0.  1.
    2000013    1    1    2    0    0  0.77128347315E+03 -0.29889132989E+03 -0.11499466173E+04  0.17056058881E+04  0.95000000000E+03 0.  0.
   -2000013    1    1    2    0    0 -0.77128347315E+03  0.29889132989E+03 -0.40569837949E+03  0.13233689577E+04  0.95000000000E+03 0.  0.
<mgrwt>
<rscale>  0 0.25989723E+04</rscale>
<asrwt>0</asrwt>
<pdfrwt beam="2">  1        2 0.35266306E+00 0.25989723E+04</pdfrwt>
<pdfrwt beam="1">  1       -2 0.11333307E+00 0.25989723E+04</pdfrwt>
<totfact> 0.24750122E+00</totfact>
</mgrwt>
</event>
<event>
 4    1  0.2048914E-008  0.4144058E+04  0.7816531E-02  0.7976100E-01
          2   -1    0    0  501    0  0.00000000000E+00  0.00000000000E+00  0.23676649102E+04  0.23676649102E+04  0.00000000000E+00 0.  1.
         -2   -1    0    0    0  501 -0.00000000000E+00 -0.00000000000E+00 -0.18133075662E+04  0.18133075662E+04  0.00000000000E+00 0. -1.
    2000013    1    1    2    0    0  0.30288637587E+02 -0.18330297421E+04  0.45160379198E+03  0.21136133568E+04  0.95000000000E+03 0.  0.
   -2000013    1    1    2    0    0 -0.30288637587E+02  0.18330297421E+04  0.10275355201E+03  0.20673591196E+04  0.95000000000E+03 0.  0.
<mgrwt>
<rscale>  0 0.41440583E+04</rscale>
<asrwt>0</asrwt>
<pdfrwt beam="1">  1        2 0.36425614E+00 0.41440583E+04</pdfrwt>
<pdfrwt beam="2">  1       -2 0.27897039E+00 0.41440583E+04</pdfrwt>
<totfact> 0.13822434E-01</totfact>
</mgrwt>
</event>
<event>
 4    1  0.2048914E-008  0.2571938E+04  0.7816531E-02  0.8377796E-01
         -2   -1    0    0    0  501 -0.00000000000E+00  0.00000000000E+00  0.94736636877E+03  0.94736636877E+03  0.00000000000E+00 0. -1.
          2   -1    0    0  501    0  0.00000000000E+00 -0.00000000000E+00 -0.17455929152E+04  0.17455929152E+04  0.00000000000E+00 0.  1.
    2000013    1    1    2    0    0 -0.15365011131E+03  0.85295689725E+03 -0.39021662765E+03  0.13438425658E+04  0.95000000000E+03 0.  0.
   -2000013    1    1    2    0    0  0.15365011131E+03 -0.85295689725E+03 -0.40800991876E+03  0.13491167181E+04  0.95000000000E+03 0.  0.
<mgrwt>
<rscale>  0 0.25719378E+04</rscale>
<asrwt>0</asrwt>
<pdfrwt beam="2">  1        2 0.26855276E+00 0.25719378E+04</pdfrwt>
<pdfrwt beam="1">  1       -2 0.14574867E+00 0.25719378E+04</pdfrwt>
<totfact> 0.26517564E+00</totfact>
</mgrwt>
</event>
<event>
 4    1  0.2048914E-008  0.2129002E+04  0.7816531E-02  0.8548574E-01
          2   -1    0    0  501    0  0.00000000000E+00  0.00000000000E+00  0.30771468524E+04  0.30771468524E+04  0.00000000000E+00 0.  1.
         -2   -1    0    0    0  501 -0.00000000000E+00 -0.00000000000E+00 -0.36825094359E+03  0.36825094359E+03  0.00000000000E+00 0. -1.
    2000013    1    1    2    0    0 -0.10196300678E+03  0.43475065167E+03  0.10683323930E+04  0.14977445329E+04  0.95000000000E+03 0.  0.
   -2000013    1    1    2    0    0  0.10196300678E+03 -0.43475065167E+03  0.16405635158E+04  0.19476532631E+04  0.95000000000E+03 0.  0.
<mgrwt>
<rscale>  0 0.21290019E+04</rscale>
<asrwt>0</asrwt>
<pdfrwt beam="1">  1        2 0.47340719E+00 0.21290019E+04</pdfrwt>
<pdfrwt beam="2">  1       -2 0.56653993E-01 0.21290019E+04</pdfrwt>
<totfact> 0.41895168E+00</totfact>
</mgrwt>
</event>
<event>
 4    1  0.2048914E-008  0.2923924E+04  0.7816531E-02  0.8265795E-01
          2   -1    0    0  501    0  0.00000000000E+00  0.00000000000E+00  0.17811975313E+04  0.17811975313E+04  0.00000000000E+00 0.  1.
         -2   -1    0    0    0  501 -0.00000000000E+00 -0.00000000000E+00 -0.11999416564E+04  0.11999416564E+04  0.00000000000E+00 0. -1.
    2000013    1    1    2    0    0 -0.26973004412E+03  0.10469328025E+04  0.28675316338E+02  0.14394946556E+04  0.95000000000E+03 0.  0.
   -2000013    1    1    2    0    0  0.26973004412E+03 -0.10469328025E+04  0.55258055860E+03  0.15416445321E+04  0.95000000000E+03 0.  0.
<mgrwt>
<rscale>  0 0.29239242E+04</rscale>
<asrwt>0</asrwt>
<pdfrwt beam="1">  1        2 0.27403039E+00 0.29239242E+04</pdfrwt>
<pdfrwt beam="2">  1       -2 0.18460641E+00 0.29239242E+04</pdfrwt>
<totfact> 0.12837235E+00</totfact>
</mgrwt>
</event>
<event>
 4    1  0.2048914E-008  0.2183478E+04  0.7816531E-02  0.8525336E-01
          2   -1    0    0  501    0  0.00000000000E+00  0.00000000000E+00  0.78983879853E+03  0.78983879853E+03  0.00000000000E+00 0.  1.
         -2   -1    0    0    0  501 -0.00000000000E+00 -0.00000000000E+00 -0.15090351080E+04  0.15090351080E+04  0.00000000000E+00 0. -1.
    2000013    1    1    2    0    0 -0.19512412089E+03  0.15609712021E+03 -0.86117315644E+03  0.13063532979E+04  0.95000000000E+03 0.  0.
   -2000013    1    1    2    0    0  0.19512412089E+03 -0.15609712021E+03  0.14197684698E+03  0.99252060864E+03  0.95000000000E+03 0.  0.
<mgrwt>
<rscale>  0 0.21834784E+04</rscale>
<asrwt>0</asrwt>
<pdfrwt beam="1">  1        2 0.12151366E+00 0.21834784E+04</pdfrwt>
<pdfrwt beam="2">  1       -2 0.23215924E+00 0.21834784E+04</pdfrwt>
<totfact> 0.26569476E+00</totfact>
</mgrwt>
</event>
<event>
 4    1  0.2048914E-008  0.2262184E+04  0.7816531E-02  0.8492982E-01
          2   -1    0    0  501    0  0.00000000000E+00  0.00000000000E+00  0.10120337503E+04  0.10120337503E+04  0.00000000000E+00 0.  1.
         -2   -1    0    0    0  501 -0.00000000000E+00 -0.00000000000E+00 -0.12641568802E+04  0.12641568802E+04  0.00000000000E+00 0. -1.
    2000013    1    1    2    0    0  0.32974192888E+03  0.43835026550E+03 -0.40342886205E+03  0.11688180105E+04  0.95000000000E+03 0.  0.
   -2000013    1    1    2    0    0 -0.32974192888E+03 -0.43835026550E+03  0.15130573210E+03  0.11073726200E+04  0.95000000000E+03 0.  0.
<mgrwt>
<rscale>  0 0.22621843E+04</rscale>
<asrwt>0</asrwt>
<pdfrwt beam="1">  1        2 0.15569750E+00 0.22621843E+04</pdfrwt>
<pdfrwt beam="2">  1       -2 0.19448567E+00 0.22621843E+04</pdfrwt>
<totfact> 0.32544378E+00</totfact>
</mgrwt>
</event>
<event>
 4    1  0.2048914E-008  0.2984631E+04  0.7816531E-02  0.8248133E-01
         -2   -1    0    0    0  501 -0.00000000000E+00  0.00000000000E+00  0.11683299806E+04  0.11683299806E+04  0.00000000000E+00 0. -1.
          2   -1    0    0  501    0  0.00000000000E+00 -0.00000000000E+00 -0.19061443420E+04  0.19061443420E+04  0.00000000000E+00 0.  1.
    2000013    1    1    2    0    0 -0.11172640702E+04 -0.15413298633E+03 -0.13294950662E+03  0.14806118841E+04  0.95000000000E+03 0.  0.
   -2000013    1    1    2    0    0  0.11172640702E+04  0.15413298633E+03 -0.60486485486E+03  0.15938624385E+04  0.95000000000E+03 0.  0.
<mgrwt>
<rscale>  0 0.29846310E+04</rscale>
<asrwt>0</asrwt>
<pdfrwt beam="2">  1        2 0.29325297E+00 0.29846310E+04</pdfrwt>
<pdfrwt beam="1">  1       -2 0.17974307E+00 0.29846310E+04</pdfrwt>
<totfact> 0.11758361E+00</totfact>
</mgrwt>
</event>
<event>
 4    1  0.2048914E-008  0.2582194E+04  0.7816531E-02  0.8374275E-01
          2   -1    0    0  501    0  0.00000000000E+00  0.00000000000E+00  0.15724683194E+04  0.15724683194E+04  0.00000000000E+00 0. -1.
         -2   -1    0    0    0  501 -0.00000000000E+00 -0.00000000000E+00 -0.10600731119E+04  0.10600731119E+04  0.00000000000E+00 0.  1.
    2000013    1    1    2    0    0 -0.34907910280E+03 -0.79913013472E+03  0.19199195302E+03  0.13037737926E+04  0.95000000000E+03 0.  0.
   -2000013    1    1    2    0    0  0.34907910280E+03  0.79913013472E+03  0.32040325439E+03  0.13287676387E+04  0.95000000000E+03 0.  0.
<mgrwt>
<rscale>  0 0.25821939E+04</rscale>
<asrwt>0</asrwt>
<pdfrwt beam="1">  1        2 0.24191820E+00 0.25821939E+04</pdfrwt>
<pdfrwt beam="2">  1       -2 0.16308817E+00 0.25821939E+04</pdfrwt>
<totfact> 0.24475197E+00</totfact>
</mgrwt>
</event>
<event>
 4    1  0.2048914E-008  0.2161334E+04  0.7816531E-02  0.8534696E-01
         -2   -1    0    0    0  501 -0.00000000000E+00  0.00000000000E+00  0.22428275143E+04  0.22428275143E+04  0.00000000000E+00 0. -1.
          2   -1    0    0  501    0  0.00000000000E+00 -0.00000000000E+00 -0.52070035621E+03  0.52070035621E+03  0.00000000000E+00 0.  1.
    2000013    1    1    2    0    0  0.48731579922E+03  0.58147895010E+02  0.66099621819E+03  0.12570894425E+04  0.95000000000E+03 0.  0.
   -2000013    1    1    2    0    0 -0.48731579922E+03 -0.58147895010E+02  0.10611309399E+04  0.15064384280E+04  0.95000000000E+03 0.  0.
<mgrwt>
<rscale>  0 0.21613339E+04</rscale>
<asrwt>0</asrwt>
<pdfrwt beam="2">  1        2 0.80107748E-01 0.21613339E+04</pdfrwt>
<pdfrwt beam="1">  1       -2 0.34505038E+00 0.21613339E+04</pdfrwt>
<totfact> 0.90148094E-01</totfact>
</mgrwt>
</event>
<event>
 4    1  0.2048914E-008  0.2353225E+04  0.7816531E-02  0.8457226E-01
          2   -1    0    0  501    0  0.00000000000E+00  0.00000000000E+00  0.15270802227E+04  0.15270802227E+04  0.00000000000E+00 0.  1.
         -2   -1    0    0    0  501 -0.00000000000E+00 -0.00000000000E+00 -0.90657741739E+03  0.90657741739E+03  0.00000000000E+00 0. -1.
    2000013    1    1    2    0    0  0.46629691031E+03  0.33375575723E+03 -0.94390226113E+02  0.11136584884E+04  0.95000000000E+03 0.  0.
   -2000013    1    1    2    0    0 -0.46629691031E+03 -0.33375575723E+03  0.71489303143E+03  0.13199991517E+04  0.95000000000E+03 0.  0.
<mgrwt>
<rscale>  0 0.23532245E+04</rscale>
<asrwt>0</asrwt>
<pdfrwt beam="1">  1        2 0.23493542E+00 0.23532245E+04</pdfrwt>
<pdfrwt beam="2">  1       -2 0.13947345E+00 0.23532245E+04</pdfrwt>
<totfact> 0.40129237E+00</totfact>
</mgrwt>
</event>
<event>
 4    1  0.2048914E-008  0.2472965E+04  0.7816531E-02  0.8412681E-01
          2   -1    0    0  501    0  0.00000000000E+00  0.00000000000E+00  0.12029965365E+04  0.12029965365E+04  0.00000000000E+00 0.  1.
         -2   -1    0    0    0  501 -0.00000000000E+00 -0.00000000000E+00 -0.12709001312E+04  0.12709001312E+04  0.00000000000E+00 0. -1.
    2000013    1    1    2    0    0  0.44738136819E+02 -0.68636084935E+03 -0.42562936745E+03  0.12476991123E+04  0.95000000000E+03 0.  0.
   -2000013    1    1    2    0    0 -0.44738136819E+02  0.68636084935E+03  0.35772577273E+03  0.12261975554E+04  0.95000000000E+03 0.  0.
<mgrwt>
<rscale>  0 0.24729646E+04</rscale>
<asrwt>0</asrwt>
<pdfrwt beam="1">  1        2 0.18507639E+00 0.24729646E+04</pdfrwt>
<pdfrwt beam="2">  1       -2 0.19552310E+00 0.24729646E+04</pdfrwt>
<totfact> 0.24004778E+00</totfact>
</mgrwt>
</event>
<event>
 4    1  0.2048914E-008  0.2385474E+04  0.7816531E-02  0.8444962E-01
         -1   -1    0    0    0  501 -0.00000000000E+00  0.00000000000E+00  0.12836279008E+04  0.12836279008E+04  0.00000000000E+00 0. -1.
          1   -1    0    0  501    0  0.00000000000E+00 -0.00000000000E+00 -0.11082819193E+04  0.11082819193E+04  0.00000000000E+00 0.  1.
    2000013    1    1    2    0    0  0.66534468144E+03 -0.27721800768E+03  0.11199176716E+03  0.11977376694E+04  0.95000000000E+03 0.  0.
   -2000013    1    1    2    0    0 -0.66534468144E+03  0.27721800768E+03  0.63354214400E+02  0.11941721506E+04  0.95000000000E+03 0.  0.
<mgrwt>
<rscale>  0 0.23854740E+04</rscale>
<asrwt>0</asrwt>
<pdfrwt beam="2">  1        1 0.17050491E+00 0.23854740E+04</pdfrwt>
<pdfrwt beam="1">  1       -1 0.19748122E+00 0.23854740E+04</pdfrwt>
<totfact> 0.17568483E+00</totfact>
</mgrwt>
</event>
<event>
 4    1  0.2048914E-008  0.2628741E+04  0.7816531E-02  0.8358504E-01
          1   -1    0    0  501    0  0.00000000000E+00  0.00000000000E+00  0.35041310826E+04  0.35041310826E+04  0.00000000000E+00 0. -1.
         -1   -1    0    0    0  501 -0.00000000000E+00 -0.00000000000E+00 -0.49300953232E+03  0.49300953232E+03  0.00000000000E+00 0.  1.
    2000013    1    1    2    0    0  0.53240635205E+03  0.71690927516E+03  0.17584237494E+04  0.21890567638E+04  0.95000000000E+03 0.  0.
   -2000013    1    1    2    0    0 -0.53240635205E+03 -0.71690927516E+03  0.12526978009E+04  0.18080838511E+04  0.95000000000E+03 0.  0.
<mgrwt>
<rscale>  0 0.26287412E+04</rscale>
<asrwt>0</asrwt>
<pdfrwt beam="1">  1        1 0.53909707E+00 0.26287412E+04</pdfrwt>
<pdfrwt beam="2">  1       -1 0.75847623E-01 0.26287412E+04</pdfrwt>
<totfact> 0.38062614E-01</totfact>
</mgrwt>
</event>
<event>
 4    1  0.2048914E-008  0.3110254E+04  0.7816531E-02  0.8212930E-01
         -1   -1    0    0    0  501 -0.00000000000E+00  0.00000000000E+00  0.22586577777E+04  0.22586577777E+04  0.00000000000E+00 0. -1.
          1   -1    0    0  501    0  0.00000000000E+00 -0.00000000000E+00 -0.10707330289E+04  0.10707330289E+04  0.00000000000E+00 0.  1.
    2000013    1    1    2    0    0 -0.26710403325E+03  0.11163377426E+04  0.11720057840E+03  0.14945870653E+04  0.95000000000E+03 0.  0.
   -2000013    1    1    2    0    0  0.26710403325E+03 -0.11163377426E+04  0.10707241704E+04  0.18348037413E+04  0.95000000000E+03 0.  0.
<mgrwt>
<rscale>  0 0.31102537E+04</rscale>
<asrwt>0</asrwt>
<pdfrwt beam="2">  1        1 0.16472816E+00 0.31102537E+04</pdfrwt>
<pdfrwt beam="1">  1       -1 0.34748581E+00 0.31102537E+04</pdfrwt>
<totfact> 0.18156426E-01</totfact>
</mgrwt>
</event>
<event>
 4    1  0.2048914E-008  0.2653755E+04  0.7816531E-02  0.8350168E-01
          1   -1    0    0  501    0  0.00000000000E+00  0.00000000000E+00  0.17701081637E+04  0.17701081637E+04  0.00000000000E+00 0.  1.
         -1   -1    0    0    0  501 -0.00000000000E+00 -0.00000000000E+00 -0.99463105101E+03  0.99463105101E+03  0.00000000000E+00 0. -1.
    2000013    1    1    2    0    0  0.64660679845E+03 -0.63150369822E+03  0.59922385986E+03  0.14416887691E+04  0.95000000000E+03 0.  0.
   -2000013    1    1    2    0    0 -0.64660679845E+03  0.63150369822E+03  0.17625325287E+03  0.13230504457E+04  0.95000000000E+03 0.  0.
<mgrwt>
<rscale>  0 0.26537555E+04</rscale>
<asrwt>0</asrwt>
<pdfrwt beam="1">  1        1 0.27232433E+00 0.26537555E+04</pdfrwt>
<pdfrwt beam="2">  1       -1 0.15302016E+00 0.26537555E+04</pdfrwt>
<totfact> 0.12370809E+00</totfact>
</mgrwt>
</event>
<event>
 4    1  0.2048914E-008  0.3071200E+04  0.7816531E-02  0.8223686E-01
         -2   -1    0    0    0  501 -0.00000000000E+00  0.00000000000E+00  0.15676587249E+04  0.15676587249E+04  0.00000000000E+00 0. -1.
          2   -1    0    0  501    0  0.00000000000E+00 -0.00000000000E+00 -0.15041971197E+04  0.15041971197E+04  0.00000000000E+00 0.  1.
    2000013    1    1    2    0    0  0.93647335252E+02  0.10774318341E+04 -0.50311557506E+03  0.15248785074E+04  0.95000000000E+03 0.  0.
   -2000013    1    1    2    0    0 -0.93647335252E+02 -0.10774318341E+04  0.56657718020E+03  0.15469773372E+04  0.95000000000E+03 0.  0.
<mgrwt>
<rscale>  0 0.30712002E+04</rscale>
<asrwt>0</asrwt>
<pdfrwt beam="2">  1        2 0.23141494E+00 0.30712002E+04</pdfrwt>
<pdfrwt beam="1">  1       -2 0.24117827E+00 0.30712002E+04</pdfrwt>
<totfact> 0.78263561E-01</totfact>
</mgrwt>
</event>
<event>
 4    1  0.2048914E-008  0.2041863E+04  0.7816531E-02  0.8587295E-01
         -2   -1    0    0    0  501 -0.00000000000E+00  0.00000000000E+00  0.84660495972E+03  0.84660495972E+03  0.00000000000E+00 0. -1.
          2   -1    0    0  501    0  0.00000000000E+00 -0.00000000000E+00 -0.12311539369E+04  0.12311539369E+04  0.00000000000E+00 0.  1.
    2000013    1    1    2    0    0  0.69694673460E+02  0.33211609968E+03 -0.32535238525E+02  0.10093151108E+04  0.95000000000E+03 0.  0.
   -2000013    1    1    2    0    0 -0.69694673460E+02 -0.33211609968E+03 -0.35201373862E+03  0.10684437858E+04  0.95000000000E+03 0.  0.
<mgrwt>
<rscale>  0 0.20418629E+04</rscale>
<asrwt>0</asrwt>
<pdfrwt beam="2">  1        2 0.18940830E+00 0.20418629E+04</pdfrwt>
<pdfrwt beam="1">  1       -2 0.13024692E+00 0.20418629E+04</pdfrwt>
<totfact> 0.72638963E+00</totfact>
</mgrwt>
</event>
<event>
 4    1  0.2048914E-008  0.2067180E+04  0.7816531E-02  0.8575840E-01
         -2   -1    0    0    0  501 -0.00000000000E+00  0.00000000000E+00  0.51642353370E+03  0.51642353370E+03  0.00000000000E+00 0. -1.
          2   -1    0    0  501    0  0.00000000000E+00 -0.00000000000E+00 -0.20686671184E+04  0.20686671184E+04  0.00000000000E+00 0.  1.
    2000013    1    1    2    0    0  0.13760246574E+03  0.17791101601E+03 -0.35163474517E+03  0.10376578252E+04  0.95000000000E+03 0.  0.
   -2000013    1    1    2    0    0 -0.13760246574E+03 -0.17791101601E+03 -0.12006088395E+04  0.15474328269E+04  0.95000000000E+03 0.  0.
<mgrwt>
<rscale>  0 0.20671801E+04</rscale>
<asrwt>0</asrwt>
<pdfrwt beam="2">  1        2 0.31825648E+00 0.20671801E+04</pdfrwt>
<pdfrwt beam="1">  1       -2 0.79449775E-01 0.20671801E+04</pdfrwt>
<totfact> 0.79353200E+00</totfact>
</mgrwt>
</event>
<event>
 4    1  0.2048914E-008  0.2362554E+04  0.7816531E-02  0.8453657E-01
          2   -1    0    0  501    0  0.00000000000E+00  0.00000000000E+00  0.11402002065E+04  0.11402002065E+04  0.00000000000E+00 0.  1.
         -2   -1    0    0    0  501 -0.00000000000E+00 -0.00000000000E+00 -0.12238332769E+04  0.12238332769E+04  0.00000000000E+00 0. -1.
    2000013    1    1    2    0    0  0.20522772070E+03 -0.62135225137E+03 -0.29637304506E+03  0.11910222582E+04  0.95000000000E+03 0.  0.
   -2000013    1    1    2    0    0 -0.20522772070E+03  0.62135225137E+03  0.21273997462E+03  0.11730112252E+04  0.95000000000E+03 0.  0.
<mgrwt>
<rscale>  0 0.23625537E+04</rscale>
<asrwt>0</asrwt>
<pdfrwt beam="1">  1        2 0.17541542E+00 0.23625537E+04</pdfrwt>
<pdfrwt beam="2">  1       -2 0.18828204E+00 0.23625537E+04</pdfrwt>
<totfact> 0.29551804E+00</totfact>
</mgrwt>
</event>
<event>
 4    1  0.2048914E-008  0.2305090E+04  0.7816531E-02  0.8475917E-01
          2   -1    0    0  501    0  0.00000000000E+00  0.00000000000E+00  0.34022700974E+04  0.34022700974E+04  0.00000000000E+00 0.  1.
         -2   -1    0    0    0  501 -0.00000000000E+00 -0.00000000000E+00 -0.39043329741E+03  0.39043329741E+03  0.00000000000E+00 0. -1.
    2000013    1    1    2    0    0 -0.61495985800E+03  0.15169732750E+03  0.17643595824E+04  0.21015833179E+04  0.95000000000E+03 0.  0.
   -2000013    1    1    2    0    0  0.61495985800E+03 -0.15169732750E+03  0.12474772176E+04  0.16911200769E+04  0.95000000000E+03 0.  0.
<mgrwt>
<rscale>  0 0.23050896E+04</rscale>
<asrwt>0</asrwt>
<pdfrwt beam="1">  1        2 0.52342615E+00 0.23050896E+04</pdfrwt>
<pdfrwt beam="2">  1       -2 0.60066663E-01 0.23050896E+04</pdfrwt>
<totfact> 0.22294049E+00</totfact>
</mgrwt>
</event>
<event>
 4    1  0.2048914E-008  0.3167328E+04  0.7816531E-02  0.8197500E-01
          1   -1    0    0  501    0  0.00000000000E+00  0.00000000000E+00  0.15602376082E+04  0.15602376082E+04  0.00000000000E+00 0.  1.
         -1   -1    0    0    0  501 -0.00000000000E+00 -0.00000000000E+00 -0.16074416543E+04  0.16074416543E+04  0.00000000000E+00 0. -1.
    2000013    1    1    2    0    0  0.35893032957E+03 -0.10845442338E+04  0.52456809047E+03  0.15756709231E+04  0.95000000000E+03 0.  0.
   -2000013    1    1    2    0    0 -0.35893032957E+03  0.10845442338E+04 -0.57177213648E+03  0.15920083393E+04  0.95000000000E+03 0.  0.
<mgrwt>
<rscale>  0 0.31673275E+04</rscale>
<asrwt>0</asrwt>
<pdfrwt beam="1">  1        1 0.24003656E+00 0.31673275E+04</pdfrwt>
<pdfrwt beam="2">  1       -1 0.24729872E+00 0.31673275E+04</pdfrwt>
<totfact> 0.36208081E-01</totfact>
</mgrwt>
</event>
<event>
 4    1  0.2048914E-008  0.2642833E+04  0.7816531E-02  0.8353796E-01
         -2   -1    0    0    0  501 -0.00000000000E+00  0.00000000000E+00  0.48657585729E+03  0.48657585729E+03  0.00000000000E+00 0. -1.
          2   -1    0    0  501    0  0.00000000000E+00 -0.00000000000E+00 -0.35886322748E+04  0.35886322748E+04  0.00000000000E+00 0.  1.
    2000013    1    1    2    0    0  0.19260234770E+03 -0.81312806499E+03 -0.21389449265E+04  0.24851274239E+04  0.95000000000E+03 0.  0.
   -2000013    1    1    2    0    0 -0.19260234770E+03  0.81312806499E+03 -0.96311149097E+03  0.15900807082E+04  0.95000000000E+03 0.  0.
<mgrwt>
<rscale>  0 0.26428332E+04</rscale>
<asrwt>0</asrwt>
<pdfrwt beam="2">  1        2 0.55209726E+00 0.26428332E+04</pdfrwt>
<pdfrwt beam="1">  1       -2 0.74857826E-01 0.26428332E+04</pdfrwt>
<totfact> 0.99502149E-01</totfact>
</mgrwt>
</event>
<event>
 4    1  0.2048914E-008  0.1975118E+04  0.7816531E-02  0.8618343E-01
         -2   -1    0    0    0  501 -0.00000000000E+00  0.00000000000E+00  0.94472221631E+03  0.94472221631E+03  0.00000000000E+00 0. -1.
          2   -1    0    0  501    0  0.00000000000E+00 -0.00000000000E+00 -0.10323384151E+04  0.10323384151E+04  0.00000000000E+00 0.  1.
    2000013    1    1    2    0    0  0.14400021171E+02 -0.26564854465E+03  0.91834039125E+00  0.98654820117E+03  0.95000000000E+03 0.  0.
   -2000013    1    1    2    0    0 -0.14400021171E+02  0.26564854465E+03 -0.88534539216E+02  0.99051243027E+03  0.95000000000E+03 0.  0.
<mgrwt>
<rscale>  0 0.19751183E+04</rscale>
<asrwt>0</asrwt>
<pdfrwt beam="2">  1        2 0.15882129E+00 0.19751183E+04</pdfrwt>
<pdfrwt beam="1">  1       -2 0.14534188E+00 0.19751183E+04</pdfrwt>
<totfact> 0.72809941E+00</totfact>
</mgrwt>
</event>
<event>
 4    1  0.2048914E-008  0.2664504E+04  0.7816531E-02  0.8346615E-01
          2   -1    0    0  501    0  0.00000000000E+00  0.00000000000E+00  0.10938037356E+04  0.10938037356E+04  0.00000000000E+00 0. -1.
         -2   -1    0    0    0  501 -0.00000000000E+00 -0.00000000000E+00 -0.16226814169E+04  0.16226814169E+04  0.00000000000E+00 0.  1.
    2000013    1    1    2    0    0 -0.53088547661E+03  0.75519301403E+03 -0.40947850869E+03  0.13864806262E+04  0.95000000000E+03 0.  0.
   -2000013    1    1    2    0    0  0.53088547661E+03 -0.75519301403E+03 -0.11939917257E+03  0.13300045264E+04  0.95000000000E+03 0.  0.
<mgrwt>
<rscale>  0 0.26645037E+04</rscale>
<asrwt>0</asrwt>
<pdfrwt beam="1">  1        2 0.16827750E+00 0.26645037E+04</pdfrwt>
<pdfrwt beam="2">  1       -2 0.24964330E+00 0.26645037E+04</pdfrwt>
<totfact> 0.12489643E+00</totfact>
</mgrwt>
</event>
<event>
 4    1  0.2048914E-008  0.2421764E+04  0.7816531E-02  0.8431400E-01
         -2   -1    0    0    0  501 -0.00000000000E+00  0.00000000000E+00  0.10836069995E+04  0.10836069995E+04  0.00000000000E+00 0. -1.
          2   -1    0    0  501    0  0.00000000000E+00 -0.00000000000E+00 -0.13531066117E+04  0.13531066117E+04  0.00000000000E+00 0.  1.
    2000013    1    1    2    0    0 -0.35994538468E+03  0.65373027128E+03 -0.51706418056E+02  0.12091722380E+04  0.95000000000E+03 0.  0.
   -2000013    1    1    2    0    0  0.35994538468E+03 -0.65373027128E+03 -0.21779319415E+03  0.12275413732E+04  0.95000000000E+03 0.  0.
<mgrwt>
<rscale>  0 0.24217645E+04</rscale>
<asrwt>0</asrwt>
<pdfrwt beam="2">  1        2 0.20817025E+00 0.24217645E+04</pdfrwt>
<pdfrwt beam="1">  1       -2 0.16670877E+00 0.24217645E+04</pdfrwt>
<totfact> 0.31105929E+00</totfact>
</mgrwt>
</event>
<event>
 4    1  0.2048914E-008  0.2950973E+04  0.7816531E-02  0.8257871E-01
         -2   -1    0    0    0  501 -0.00000000000E+00  0.00000000000E+00  0.10399478723E+04  0.10399478723E+04  0.00000000000E+00 0. -1.
          2   -1    0    0  501    0  0.00000000000E+00 -0.00000000000E+00 -0.20934320477E+04  0.20934320477E+04  0.00000000000E+00 0.  1.
    2000013    1    1    2    0    0 -0.74779879646E+03 -0.34634183245E+03  0.29257855444E+03  0.12912234181E+04  0.95000000000E+03 0.  0.
   -2000013    1    1    2    0    0  0.74779879646E+03  0.34634183245E+03 -0.13460627299E+04  0.18421565020E+04  0.95000000000E+03 0.  0.
<mgrwt>
<rscale>  0 0.29509729E+04</rscale>
<asrwt>0</asrwt>
<pdfrwt beam="2">  1        2 0.32206647E+00 0.29509729E+04</pdfrwt>
<pdfrwt beam="1">  1       -2 0.15999198E+00 0.29509729E+04</pdfrwt>
<totfact> 0.12831061E+00</totfact>
</mgrwt>
</event>
<event>
 4    1  0.2048914E-008  0.2509781E+04  0.7816531E-02  0.8399509E-01
         -2   -1    0    0    0  501 -0.00000000000E+00  0.00000000000E+00  0.40317025747E+04  0.40317025747E+04  0.00000000000E+00 0. -1.
          2   -1    0    0  501    0  0.00000000000E+00 -0.00000000000E+00 -0.39059180491E+03  0.39059180491E+03  0.00000000000E+00 0.  1.
    2000013    1    1    2    0    0  0.59055077703E+03 -0.54930247905E+03  0.20805154660E+04  0.24251861862E+04  0.95000000000E+03 0.  0.
   -2000013    1    1    2    0    0 -0.59055077703E+03  0.54930247905E+03  0.15605953038E+04  0.19971081934E+04  0.95000000000E+03 0.  0.
<mgrwt>
<rscale>  0 0.25097809E+04</rscale>
<asrwt>0</asrwt>
<pdfrwt beam="2">  1        2 0.60091050E-01 0.25097809E+04</pdfrwt>
<pdfrwt beam="1">  1       -2 0.62026190E+00 0.25097809E+04</pdfrwt>
<totfact> 0.30447134E-02</totfact>
</mgrwt>
</event>
<event>
 4    1  0.2048914E-008  0.1948865E+04  0.7816531E-02  0.8630908E-01
         -2   -1    0    0    0  501 -0.00000000000E+00  0.00000000000E+00  0.31595931046E+03  0.31595931046E+03  0.00000000000E+00 0. -1.
          2   -1    0    0  501    0  0.00000000000E+00 -0.00000000000E+00 -0.30051920690E+04  0.30051920690E+04  0.00000000000E+00 0.  1.
    2000013    1    1    2    0    0 -0.16769974739E+02 -0.18440226954E+03 -0.11523195643E+04  0.15048673720E+04  0.95000000000E+03 0.  0.
   -2000013    1    1    2    0    0  0.16769974739E+02  0.18440226954E+03 -0.15369131942E+04  0.18162840074E+04  0.95000000000E+03 0.  0.
<mgrwt>
<rscale>  0 0.19488647E+04</rscale>
<asrwt>0</asrwt>
<pdfrwt beam="2">  1        2 0.46233724E+00 0.19488647E+04</pdfrwt>
<pdfrwt beam="1">  1       -2 0.48609124E-01 0.19488647E+04</pdfrwt>
<totfact> 0.64797327E+00</totfact>
</mgrwt>
</event>
<event>
 4    1  0.2048914E-008  0.3314184E+04  0.7816531E-02  0.8159296E-01
          2   -1    0    0  501    0  0.00000000000E+00  0.00000000000E+00  0.29954789673E+04  0.29954789673E+04  0.00000000000E+00 0.  1.
         -2   -1    0    0    0  501 -0.00000000000E+00 -0.00000000000E+00 -0.91669951166E+03  0.91669951166E+03  0.00000000000E+00 0. -1.
    2000013    1    1    2    0    0 -0.10221751185E+04  0.60841789466E+03  0.18120470601E+04  0.23666492886E+04  0.95000000000E+03 0.  0.
   -2000013    1    1    2    0    0  0.10221751185E+04 -0.60841789466E+03  0.26673239555E+03  0.15455291903E+04  0.95000000000E+03 0.  0.
<mgrwt>
<rscale>  0 0.33141841E+04</rscale>
<asrwt>0</asrwt>
<pdfrwt beam="1">  1        2 0.46084291E+00 0.33141841E+04</pdfrwt>
<pdfrwt beam="2">  1       -2 0.14103070E+00 0.33141841E+04</pdfrwt>
<totfact> 0.51480867E-01</totfact>
</mgrwt>
</event>
<event>
 4    1  0.2048914E-008  0.2467909E+04  0.7816531E-02  0.8414508E-01
         -1   -1    0    0    0  501 -0.00000000000E+00  0.00000000000E+00  0.95776614693E+03  0.95776614693E+03  0.00000000000E+00 0. -1.
          1   -1    0    0  501    0  0.00000000000E+00 -0.00000000000E+00 -0.15897869740E+04  0.15897869740E+04  0.00000000000E+00 0.  1.
    2000013    1    1    2    0    0  0.22066799083E+03  0.70206172699E+03 -0.26681169337E+02  0.12019970530E+04  0.95000000000E+03 0.  0.
   -2000013    1    1    2    0    0 -0.22066799083E+03 -0.70206172699E+03 -0.60533965777E+03  0.13455560679E+04  0.95000000000E+03 0.  0.
<mgrwt>
<rscale>  0 0.24679094E+04</rscale>
<asrwt>0</asrwt>
<pdfrwt beam="2">  1        1 0.24458261E+00 0.24679094E+04</pdfrwt>
<pdfrwt beam="1">  1       -1 0.14734864E+00 0.24679094E+04</pdfrwt>
<totfact> 0.18493504E+00</totfact>
</mgrwt>
</event>
<event>
 4    1  0.2048914E-008  0.2954772E+04  0.7816531E-02  0.8256765E-01
         -2   -1    0    0    0  501 -0.00000000000E+00  0.00000000000E+00  0.17680804944E+04  0.17680804944E+04  0.00000000000E+00 0. -1.
          2   -1    0    0  501    0  0.00000000000E+00 -0.00000000000E+00 -0.12344855235E+04  0.12344855235E+04  0.00000000000E+00 0.  1.
    2000013    1    1    2    0    0  0.38817442823E+03  0.94754676940E+03  0.75587814979E+03  0.15881989939E+04  0.95000000000E+03 0.  0.
   -2000013    1    1    2    0    0 -0.38817442823E+03 -0.94754676940E+03 -0.22228317880E+03  0.14143670240E+04  0.95000000000E+03 0.  0.
<mgrwt>
<rscale>  0 0.29547723E+04</rscale>
<asrwt>0</asrwt>
<pdfrwt beam="2">  1        2 0.18992085E+00 0.29547723E+04</pdfrwt>
<pdfrwt beam="1">  1       -2 0.27201238E+00 0.29547723E+04</pdfrwt>
<totfact> 0.73129401E-01</totfact>
</mgrwt>
</event>
<event>
 4    1  0.2048914E-008  0.2699478E+04  0.7816531E-02  0.8335174E-01
         -2   -1    0    0    0  501 -0.00000000000E+00  0.00000000000E+00  0.75619777458E+03  0.75619777458E+03  0.00000000000E+00 0.  1.
          2   -1    0    0  501    0  0.00000000000E+00 -0.00000000000E+00 -0.24091524411E+04  0.24091524411E+04  0.00000000000E+00 0. -1.
    2000013    1    1    2    0    0 -0.44870395780E+03  0.38311513796E+03  0.59718432596E+02  0.11199012197E+04  0.95000000000E+03 0.  0.
   -2000013    1    1    2    0    0  0.44870395780E+03 -0.38311513796E+03 -0.17126730991E+04  0.20454489959E+04  0.95000000000E+03 0.  0.
<mgrwt>
<rscale>  0 0.26994783E+04</rscale>
<asrwt>0</asrwt>
<pdfrwt beam="2">  1        2 0.37063884E+00 0.26994783E+04</pdfrwt>
<pdfrwt beam="1">  1       -2 0.11633812E+00 0.26994783E+04</pdfrwt>
<totfact> 0.19747951E+00</totfact>
</mgrwt>
</event>
<event>
 4    1  0.2048914E-008  0.2829526E+04  0.7816531E-02  0.8294160E-01
          2   -1    0    0  501    0  0.00000000000E+00  0.00000000000E+00  0.23254093891E+04  0.23254093891E+04  0.00000000000E+00 0.  1.
         -2   -1    0    0    0  501 -0.00000000000E+00 -0.00000000000E+00 -0.86073219075E+03  0.86073219075E+03  0.00000000000E+00 0. -1.
    2000013    1    1    2    0    0  0.35504767431E+03 -0.38677093181E+03 -0.28944248157E+03  0.11233554891E+04  0.95000000000E+03 0.  0.
   -2000013    1    1    2    0    0 -0.35504767431E+03  0.38677093181E+03  0.17541196799E+04  0.20627860907E+04  0.95000000000E+03 0.  0.
<mgrwt>
<rscale>  0 0.28295263E+04</rscale>
<asrwt>0</asrwt>
<pdfrwt beam="1">  1        2 0.35775529E+00 0.28295263E+04</pdfrwt>
<pdfrwt beam="2">  1       -2 0.13242034E+00 0.28295263E+04</pdfrwt>
<totfact> 0.15773852E+00</totfact>
</mgrwt>
</event>
<event>
 4    1  0.2048914E-008  0.3603893E+04  0.7816531E-02  0.8089601E-01
          2   -1    0    0  501    0  0.00000000000E+00  0.00000000000E+00  0.23612617714E+04  0.23612617714E+04  0.00000000000E+00 0.  1.
         -2   -1    0    0    0  501 -0.00000000000E+00 -0.00000000000E+00 -0.13751171051E+04  0.13751171051E+04  0.00000000000E+00 0. -1.
    2000013    1    1    2    0    0  0.10635512597E+04 -0.10646330773E+04  0.19996639480E+03  0.17908298162E+04  0.95000000000E+03 0.  0.
   -2000013    1    1    2    0    0 -0.10635512597E+04  0.10646330773E+04  0.78617827157E+03  0.19455490603E+04  0.95000000000E+03 0.  0.
<mgrwt>
<rscale>  0 0.36038931E+04</rscale>
<asrwt>0</asrwt>
<pdfrwt beam="1">  1        2 0.36327104E+00 0.36038931E+04</pdfrwt>
<pdfrwt beam="2">  1       -2 0.21155648E+00 0.36038931E+04</pdfrwt>
<totfact> 0.38142973E-01</totfact>
</mgrwt>
</event>
<event>
 4    1  0.2048914E-008  0.3367336E+04  0.7816531E-02  0.8145970E-01
         -4   -1    0    0    0  501 -0.00000000000E+00  0.00000000000E+00  0.16633291737E+04  0.16633291737E+04  0.00000000000E+00 0. -1.
          4   -1    0    0  501    0  0.00000000000E+00 -0.00000000000E+00 -0.17042554344E+04  0.17042554344E+04  0.00000000000E+00 0.  1.
    2000013    1    1    2    0    0  0.10581480988E+04 -0.83205070355E+03 -0.36726245898E+03  0.16880069568E+04  0.95000000000E+03 0.  0.
   -2000013    1    1    2    0    0 -0.10581480988E+04  0.83205070355E+03  0.32633619827E+03  0.16795776513E+04  0.95000000000E+03 0.  0.
<mgrwt>
<rscale>  0 0.33673359E+04</rscale>
<asrwt>0</asrwt>
<pdfrwt beam="2">  1        4 0.26219314E+00 0.33673359E+04</pdfrwt>
<pdfrwt beam="1">  1       -4 0.25589680E+00 0.33673359E+04</pdfrwt>
<totfact> 0.50507271E-03</totfact>
</mgrwt>
</event>
<event>
 4    1  0.2048914E-008  0.2766517E+04  0.7816531E-02  0.8313739E-01
          2   -1    0    0  501    0  0.00000000000E+00  0.00000000000E+00  0.13679320527E+04  0.13679320527E+04  0.00000000000E+00 0.  1.
         -2   -1    0    0    0  501 -0.00000000000E+00 -0.00000000000E+00 -0.13987568406E+04  0.13987568406E+04  0.00000000000E+00 0. -1.
    2000013    1    1    2    0    0 -0.39636440146E+03 -0.47655539889E+03 -0.80710193596E+03  0.13921649766E+04  0.95000000000E+03 0.  0.
   -2000013    1    1    2    0    0  0.39636440146E+03  0.47655539889E+03  0.77627714810E+03  0.13745239167E+04  0.95000000000E+03 0.  0.
<mgrwt>
<rscale>  0 0.27665172E+04</rscale>
<asrwt>0</asrwt>
<pdfrwt beam="1">  1        2 0.21045108E+00 0.27665172E+04</pdfrwt>
<pdfrwt beam="2">  1       -2 0.21519336E+00 0.27665172E+04</pdfrwt>
<totfact> 0.13970992E+00</totfact>
</mgrwt>
</event>
<event>
 4    1  0.2048914E-008  0.2115108E+04  0.7816531E-02  0.8554617E-01
          2   -1    0    0  501    0  0.00000000000E+00  0.00000000000E+00  0.34725377555E+04  0.34725377555E+04  0.00000000000E+00 0.  1.
         -2   -1    0    0    0  501 -0.00000000000E+00 -0.00000000000E+00 -0.32207576078E+03  0.32207576078E+03  0.00000000000E+00 0. -1.
    2000013    1    1    2    0    0  0.32748178094E+03  0.30022093735E+02  0.21642010972E+04  0.23862967192E+04  0.95000000000E+03 0.  0.
   -2000013    1    1    2    0    0 -0.32748178094E+03 -0.30022093735E+02  0.98626089751E+03  0.14083167971E+04  0.95000000000E+03 0.  0.
<mgrwt>
<rscale>  0 0.21151078E+04</rscale>
<asrwt>0</asrwt>
<pdfrwt beam="1">  1        2 0.53423655E+00 0.21151078E+04</pdfrwt>
<pdfrwt beam="2">  1       -2 0.49550120E-01 0.21151078E+04</pdfrwt>
<totfact> 0.30272782E+00</totfact>
</mgrwt>
</event>
<event>
 4    1  0.2048914E-008  0.2059483E+04  0.7816531E-02  0.8579304E-01
         -1   -1    0    0    0  501 -0.00000000000E+00  0.00000000000E+00  0.64569942264E+03  0.64569942264E+03  0.00000000000E+00 0.  1.
          1   -1    0    0  501    0  0.00000000000E+00 -0.00000000000E+00 -0.16421999562E+04  0.16421999562E+04  0.00000000000E+00 0. -1.
    2000013    1    1    2    0    0  0.13637752010E+03 -0.37225592565E+03 -0.46897908820E+03  0.11312005513E+04  0.95000000000E+03 0.  0.
   -2000013    1    1    2    0    0 -0.13637752010E+03  0.37225592565E+03 -0.52752144532E+03  0.11566988275E+04  0.95000000000E+03 0.  0.
<mgrwt>
<rscale>  0 0.20594830E+04</rscale>
<asrwt>0</asrwt>
<pdfrwt beam="2">  1        1 0.25264615E+00 0.20594830E+04</pdfrwt>
<pdfrwt beam="1">  1       -1 0.99338372E-01 0.20594830E+04</pdfrwt>
<totfact> 0.46617603E+00</totfact>
</mgrwt>
</event>
<event>
 4    1  0.2048914E-008  0.2651630E+04  0.7816531E-02  0.8350872E-01
          1   -1    0    0  501    0  0.00000000000E+00  0.00000000000E+00  0.18502699257E+04  0.18502699257E+04  0.00000000000E+00 0.  1.
         -1   -1    0    0    0  501 -0.00000000000E+00 -0.00000000000E+00 -0.95001536734E+03  0.95001536734E+03  0.00000000000E+00 0. -1.
    2000013    1    1    2    0    0  0.41262856375E+03  0.77795546745E+03  0.74846773812E+03  0.14960551447E+04  0.95000000000E+03 0.  0.
   -2000013    1    1    2    0    0 -0.41262856375E+03 -0.77795546745E+03  0.15178682020E+03  0.13042301483E+04  0.95000000000E+03 0.  0.
<mgrwt>
<rscale>  0 0.26516296E+04</rscale>
<asrwt>0</asrwt>
<pdfrwt beam="1">  1        1 0.28465691E+00 0.26516296E+04</pdfrwt>
<pdfrwt beam="2">  1       -1 0.14615621E+00 0.26516296E+04</pdfrwt>
<totfact> 0.12350965E+00</totfact>
</mgrwt>
</event>
<event>
 4    1  0.2048914E-008  0.2253727E+04  0.7816531E-02  0.8496392E-01
         -2   -1    0    0    0  501 -0.00000000000E+00  0.00000000000E+00  0.14236951368E+04  0.14236951368E+04  0.00000000000E+00 0. -1.
          2   -1    0    0  501    0  0.00000000000E+00 -0.00000000000E+00 -0.89191976074E+03  0.89191976074E+03  0.00000000000E+00 0.  1.
    2000013    1    1    2    0    0  0.49592439521E+03 -0.25659084770E+03  0.23742672272E+02  0.11021994299E+04  0.95000000000E+03 0.  0.
   -2000013    1    1    2    0    0 -0.49592439521E+03  0.25659084770E+03  0.50803270377E+03  0.12134154676E+04  0.95000000000E+03 0.  0.
<mgrwt>
<rscale>  0 0.22537274E+04</rscale>
<asrwt>0</asrwt>
<pdfrwt beam="2">  1        2 0.13721842E+00 0.22537274E+04</pdfrwt>
<pdfrwt beam="1">  1       -2 0.21903002E+00 0.22537274E+04</pdfrwt>
<totfact> 0.27081074E+00</totfact>
</mgrwt>
</event>
<event>
 4    1  0.2048914E-008  0.2675358E+04  0.7816531E-02  0.8343045E-01
         -2   -1    0    0    0  501 -0.00000000000E+00  0.00000000000E+00  0.25236230202E+04  0.25236230202E+04  0.00000000000E+00 0. -1.
          2   -1    0    0  501    0  0.00000000000E+00 -0.00000000000E+00 -0.70905392690E+03  0.70905392690E+03  0.00000000000E+00 0.  1.
    2000013    1    1    2    0    0 -0.54944494411E+03  0.73060357441E+03  0.63383790538E+03  0.14628471622E+04  0.95000000000E+03 0.  0.
   -2000013    1    1    2    0    0  0.54944494411E+03 -0.73060357441E+03  0.11807311879E+04  0.17698297849E+04  0.95000000000E+03 0.  0.
<mgrwt>
<rscale>  0 0.26753578E+04</rscale>
<asrwt>0</asrwt>
<pdfrwt beam="2">  1        2 0.10908522E+00 0.26753578E+04</pdfrwt>
<pdfrwt beam="1">  1       -2 0.38824969E+00 0.26753578E+04</pdfrwt>
<totfact> 0.31370559E-01</totfact>
</mgrwt>
</event>
<event>
 4    1  0.2048914E-008  0.2539327E+04  0.7816531E-02  0.8389107E-01
          2   -1    0    0  501    0  0.00000000000E+00  0.00000000000E+00  0.21530441475E+04  0.21530441475E+04  0.00000000000E+00 0.  1.
         -2   -1    0    0    0  501 -0.00000000000E+00 -0.00000000000E+00 -0.74872865475E+03  0.74872865475E+03  0.00000000000E+00 0. -1.
    2000013    1    1    2    0    0 -0.28505345159E+03 -0.79207864262E+03  0.73647403098E+03  0.14674937971E+04  0.95000000000E+03 0.  0.
   -2000013    1    1    2    0    0  0.28505345159E+03  0.79207864262E+03  0.66784146173E+03  0.14342790051E+04  0.95000000000E+03 0.  0.
<mgrwt>
<rscale>  0 0.25393274E+04</rscale>
<asrwt>0</asrwt>
<pdfrwt beam="1">  1        2 0.33123756E+00 0.25393274E+04</pdfrwt>
<pdfrwt beam="2">  1       -2 0.11518902E+00 0.25393274E+04</pdfrwt>
<totfact> 0.28646720E+00</totfact>
</mgrwt>
</event>
<event>
 4    1  0.2048914E-008  0.2156835E+04  0.7816531E-02  0.8536612E-01
         -2   -1    0    0    0  501 -0.00000000000E+00  0.00000000000E+00  0.54708354883E+03  0.54708354883E+03  0.00000000000E+00 0. -1.
          2   -1    0    0  501    0  0.00000000000E+00 -0.00000000000E+00 -0.21257886059E+04  0.21257886059E+04  0.00000000000E+00 0.  1.
    2000013    1    1    2    0    0 -0.24004447466E+03 -0.41038777975E+03 -0.55935602349E+03  0.12005909547E+04  0.95000000000E+03 0.  0.
   -2000013    1    1    2    0    0  0.24004447466E+03  0.41038777975E+03 -0.10193490336E+04  0.14722812000E+04  0.95000000000E+03 0.  0.
<mgrwt>
<rscale>  0 0.21568347E+04</rscale>
<asrwt>0</asrwt>
<pdfrwt beam="2">  1        2 0.32704440E+00 0.21568347E+04</pdfrwt>
<pdfrwt beam="1">  1       -2 0.84166699E-01 0.21568347E+04</pdfrwt>
<totfact> 0.64238068E+00</totfact>
</mgrwt>
</event>
<event>
 4    1  0.2048914E-008  0.2389125E+04  0.7816531E-02  0.8443586E-01
         -2   -1    0    0    0  501 -0.00000000000E+00  0.00000000000E+00  0.45842304105E+03  0.45842304105E+03  0.00000000000E+00 0. -1.
          2   -1    0    0  501    0  0.00000000000E+00 -0.00000000000E+00 -0.31128009296E+04  0.31128009296E+04  0.00000000000E+00 0.  1.
    2000013    1    1    2    0    0  0.28162812608E+03  0.66455854194E+03 -0.14159646098E+04  0.18515961312E+04  0.95000000000E+03 0.  0.
   -2000013    1    1    2    0    0 -0.28162812608E+03 -0.66455854194E+03 -0.12384132788E+04  0.17196278394E+04  0.95000000000E+03 0.  0.
<mgrwt>
<rscale>  0 0.23891251E+04</rscale>
<asrwt>0</asrwt>
<pdfrwt beam="2">  1        2 0.47889245E+00 0.23891251E+04</pdfrwt>
<pdfrwt beam="1">  1       -2 0.70526621E-01 0.23891251E+04</pdfrwt>
<totfact> 0.24323077E+00</totfact>
</mgrwt>
</event>
<event>
 4    1  0.2048914E-008  0.2224303E+04  0.7816531E-02  0.8508380E-01
          1   -1    0    0  501    0  0.00000000000E+00  0.00000000000E+00  0.36281041016E+04  0.36281041016E+04  0.00000000000E+00 0.  1.
         -1   -1    0    0    0  501 -0.00000000000E+00 -0.00000000000E+00 -0.34091653710E+03  0.34091653710E+03  0.00000000000E+00 0. -1.
    2000013    1    1    2    0    0  0.24068937243E+03  0.37634860415E+03  0.98842652018E+03  0.14418934190E+04  0.95000000000E+03 0.  0.
   -2000013    1    1    2    0    0 -0.24068937243E+03 -0.37634860415E+03  0.22987610443E+04  0.25271272197E+04  0.95000000000E+03 0.  0.
<mgrwt>
<rscale>  0 0.22243028E+04</rscale>
<asrwt>0</asrwt>
<pdfrwt beam="1">  1        1 0.55816984E+00 0.22243028E+04</pdfrwt>
<pdfrwt beam="2">  1       -1 0.52448700E-01 0.22243028E+04</pdfrwt>
<totfact> 0.65997032E-01</totfact>
</mgrwt>
</event>
<event>
 4    1  0.2048914E-008  0.3554456E+04  0.7816531E-02  0.8101004E-01
          2   -1    0    0  501    0  0.00000000000E+00  0.00000000000E+00  0.32721654258E+04  0.32721654258E+04  0.00000000000E+00 0.  1.
         -2   -1    0    0    0  501 -0.00000000000E+00 -0.00000000000E+00 -0.96527511855E+03  0.96527511855E+03  0.00000000000E+00 0. -1.
    2000013    1    1    2    0    0  0.56473457322E+02  0.11585080448E+04  0.15764355181E+02  0.14993594153E+04  0.95000000000E+03 0.  0.
   -2000013    1    1    2    0    0 -0.56473457322E+02 -0.11585080448E+04  0.22911259520E+04  0.27380811291E+04  0.95000000000E+03 0.  0.
<mgrwt>
<rscale>  0 0.35544563E+04</rscale>
<asrwt>0</asrwt>
<pdfrwt beam="1">  1        2 0.50341006E+00 0.35544563E+04</pdfrwt>
<pdfrwt beam="2">  1       -2 0.14850387E+00 0.35544563E+04</pdfrwt>
<totfact> 0.29223672E-01</totfact>
</mgrwt>
</event>
<event>
 4    1  0.2048914E-008  0.2532671E+04  0.7816531E-02  0.8391438E-01
         -2   -1    0    0    0  501 -0.00000000000E+00  0.00000000000E+00  0.16329490697E+04  0.16329490697E+04  0.00000000000E+00 0. -1.
          2   -1    0    0  501    0  0.00000000000E+00 -0.00000000000E+00 -0.98203076656E+03  0.98203076656E+03  0.00000000000E+00 0.  1.
    2000013    1    1    2    0    0 -0.81809734063E+03  0.15570930867E+03  0.23558087783E+03  0.12851175034E+04  0.95000000000E+03 0.  0.
   -2000013    1    1    2    0    0  0.81809734063E+03 -0.15570930867E+03  0.41533742532E+03  0.13298623329E+04  0.95000000000E+03 0.  0.
<mgrwt>
<rscale>  0 0.25326715E+04</rscale>
<asrwt>0</asrwt>
<pdfrwt beam="2">  1        2 0.15108166E+00 0.25326715E+04</pdfrwt>
<pdfrwt beam="1">  1       -2 0.25122293E+00 0.25326715E+04</pdfrwt>
<totfact> 0.14532276E+00</totfact>
</mgrwt>
</event>
<event>
 4    1  0.2048914E-008  0.2584137E+04  0.7816531E-02  0.8373610E-01
         -2   -1    0    0    0  501 -0.00000000000E+00  0.00000000000E+00  0.99471835329E+03  0.99471835329E+03  0.00000000000E+00 0. -1.
          2   -1    0    0  501    0  0.00000000000E+00 -0.00000000000E+00 -0.16783048782E+04  0.16783048782E+04  0.00000000000E+00 0.  1.
    2000013    1    1    2    0    0 -0.17826019551E+03  0.73262193476E+03  0.11898277973E+03  0.12186748945E+04  0.95000000000E+03 0.  0.
   -2000013    1    1    2    0    0  0.17826019551E+03 -0.73262193476E+03 -0.80256930467E+03  0.14543483370E+04  0.95000000000E+03 0.  0.
<mgrwt>
<rscale>  0 0.25841367E+04</rscale>
<asrwt>0</asrwt>
<pdfrwt beam="2">  1        2 0.25820075E+00 0.25841367E+04</pdfrwt>
<pdfrwt beam="1">  1       -2 0.15303359E+00 0.25841367E+04</pdfrwt>
<totfact> 0.25374818E+00</totfact>
</mgrwt>
</event>
<event>
 4    1  0.2048914E-008  0.2151497E+04  0.7816531E-02  0.8538892E-01
         -2   -1    0    0    0  501 -0.00000000000E+00  0.00000000000E+00  0.66693483580E+03  0.66693483580E+03  0.00000000000E+00 0. -1.
          2   -1    0    0  501    0  0.00000000000E+00 -0.00000000000E+00 -0.17351543591E+04  0.17351543591E+04  0.00000000000E+00 0.  1.
    2000013    1    1    2    0    0  0.16575466778E+03 -0.47167020389E+03 -0.61136049460E+03  0.12353983347E+04  0.95000000000E+03 0.  0.
   -2000013    1    1    2    0    0 -0.16575466778E+03  0.47167020389E+03 -0.45685902874E+03  0.11666908602E+04  0.95000000000E+03 0.  0.
<mgrwt>
<rscale>  0 0.21514970E+04</rscale>
<asrwt>0</asrwt>
<pdfrwt beam="2">  1        2 0.26694682E+00 0.21514970E+04</pdfrwt>
<pdfrwt beam="1">  1       -2 0.10260536E+00 0.21514970E+04</pdfrwt>
<totfact> 0.66840157E+00</totfact>
</mgrwt>
</event>
<event>
 4    1  0.2048914E-008  0.2067282E+04  0.7816531E-02  0.8575794E-01
          1   -1    0    0  501    0  0.00000000000E+00  0.00000000000E+00  0.24849705889E+04  0.24849705889E+04  0.00000000000E+00 0. -1.
         -1   -1    0    0    0  501 -0.00000000000E+00 -0.00000000000E+00 -0.42995040825E+03  0.42995040825E+03  0.00000000000E+00 0.  1.
    2000013    1    1    2    0    0 -0.33944359332E+03 -0.12880544116E+03  0.76712710188E+03  0.12738904133E+04  0.95000000000E+03 0.  0.
   -2000013    1    1    2    0    0  0.33944359332E+03  0.12880544116E+03  0.12878930788E+04  0.16410305838E+04  0.95000000000E+03 0.  0.
<mgrwt>
<rscale>  0 0.20672824E+04</rscale>
<asrwt>0</asrwt>
<pdfrwt beam="1">  1        1 0.38230316E+00 0.20672824E+04</pdfrwt>
<pdfrwt beam="2">  1       -1 0.66146218E-01 0.20672824E+04</pdfrwt>
<totfact> 0.29652820E+00</totfact>
</mgrwt>
</event>
<event>
 4    1  0.2048914E-008  0.3394621E+04  0.7816531E-02  0.8139228E-01
          2   -1    0    0  501    0  0.00000000000E+00  0.00000000000E+00  0.19420375042E+04  0.19420375042E+04  0.00000000000E+00 0.  1.
         -2   -1    0    0    0  501 -0.00000000000E+00 -0.00000000000E+00 -0.14834229793E+04  0.14834229793E+04  0.00000000000E+00 0. -1.
    2000013    1    1    2    0    0  0.12982196801E+04 -0.16582834619E+03 -0.29063064542E+03  0.16431188485E+04  0.95000000000E+03 0.  0.
   -2000013    1    1    2    0    0 -0.12982196801E+04  0.16582834619E+03  0.74924517032E+03  0.17823416349E+04  0.95000000000E+03 0.  0.
<mgrwt>
<rscale>  0 0.33946211E+04</rscale>
<asrwt>0</asrwt>
<pdfrwt beam="1">  1        2 0.29877500E+00 0.33946211E+04</pdfrwt>
<pdfrwt beam="2">  1       -2 0.22821892E+00 0.33946211E+04</pdfrwt>
<totfact> 0.52323193E-01</totfact>
</mgrwt>
</event>
<event>
 4    1  0.2048914E-008  0.2055578E+04  0.7816531E-02  0.8581068E-01
         -2   -1    0    0    0  501 -0.00000000000E+00  0.00000000000E+00  0.80575239346E+03  0.80575239346E+03  0.00000000000E+00 0. -1.
          2   -1    0    0  501    0  0.00000000000E+00 -0.00000000000E+00 -0.13110107438E+04  0.13110107438E+04  0.00000000000E+00 0.  1.
    2000013    1    1    2    0    0  0.21864439880E+03  0.24498402477E+03 -0.31703073241E+02  0.10056478660E+04  0.95000000000E+03 0.  0.
   -2000013    1    1    2    0    0 -0.21864439880E+03 -0.24498402477E+03 -0.47355527706E+03  0.11111152712E+04  0.95000000000E+03 0.  0.
<mgrwt>
<rscale>  0 0.20555778E+04</rscale>
<asrwt>0</asrwt>
<pdfrwt beam="2">  1        2 0.20169396E+00 0.20555778E+04</pdfrwt>
<pdfrwt beam="1">  1       -2 0.12396191E+00 0.20555778E+04</pdfrwt>
<totfact> 0.73775896E+00</totfact>
</mgrwt>
</event>
<event>
 4    1  0.2048914E-008  0.3247240E+04  0.7816531E-02  0.8176451E-01
          2   -1    0    0  501    0  0.00000000000E+00  0.00000000000E+00  0.18897375369E+04  0.18897375369E+04  0.00000000000E+00 0. -1.
         -2   -1    0    0    0  501 -0.00000000000E+00 -0.00000000000E+00 -0.13949781290E+04  0.13949781290E+04  0.00000000000E+00 0.  1.
    2000013    1    1    2    0    0 -0.32152385846E+03  0.12186102368E+04  0.63290017250E+03  0.17004267492E+04  0.95000000000E+03 0.  0.
   -2000013    1    1    2    0    0  0.32152385846E+03 -0.12186102368E+04 -0.13814076464E+03  0.15842889167E+04  0.95000000000E+03 0.  0.
<mgrwt>
<rscale>  0 0.32472404E+04</rscale>
<asrwt>0</asrwt>
<pdfrwt beam="1">  1        2 0.29072885E+00 0.32472404E+04</pdfrwt>
<pdfrwt beam="2">  1       -2 0.21461202E+00 0.32472404E+04</pdfrwt>
<totfact> 0.69032588E-01</totfact>
</mgrwt>
</event>
<event>
 4    1  0.2048914E-008  0.2148326E+04  0.7816531E-02  0.8540249E-01
          2   -1    0    0  501    0  0.00000000000E+00  0.00000000000E+00  0.73309639062E+03  0.73309639062E+03  0.00000000000E+00 0.  1.
         -2   -1    0    0    0  501 -0.00000000000E+00 -0.00000000000E+00 -0.15739073888E+04  0.15739073888E+04  0.00000000000E+00 0. -1.
    2000013    1    1    2    0    0 -0.11401894113E+03 -0.45276460034E+03 -0.22435676650E+03  0.10820499346E+04  0.95000000000E+03 0.  0.
   -2000013    1    1    2    0    0  0.11401894113E+03  0.45276460034E+03 -0.61645423172E+03  0.12249538449E+04  0.95000000000E+03 0.  0.
<mgrwt>
<rscale>  0 0.21483257E+04</rscale>
<asrwt>0</asrwt>
<pdfrwt beam="1">  1        2 0.11278406E+00 0.21483257E+04</pdfrwt>
<pdfrwt beam="2">  1       -2 0.24213960E+00 0.21483257E+04</pdfrwt>
<totfact> 0.25465761E+00</totfact>
</mgrwt>
</event>
<event>
 4    1  0.2048914E-008  0.3841686E+04  0.7816531E-02  0.8037268E-01
         -2   -1    0    0    0  501 -0.00000000000E+00  0.00000000000E+00  0.13251284220E+04  0.13251284220E+04  0.00000000000E+00 0. -1.
          2   -1    0    0  501    0  0.00000000000E+00 -0.00000000000E+00 -0.27843618719E+04  0.27843618719E+04  0.00000000000E+00 0.  1.
    2000013    1    1    2    0    0  0.69724733807E+03 -0.28551177978E+03 -0.23232574160E+04  0.26206289031E+04  0.95000000000E+03 0.  0.
   -2000013    1    1    2    0    0 -0.69724733807E+03  0.28551177978E+03  0.86402396607E+03  0.14888613907E+04  0.95000000000E+03 0.  0.
<mgrwt>
<rscale>  0 0.38416856E+04</rscale>
<asrwt>0</asrwt>
<pdfrwt beam="2">  1        2 0.42836337E+00 0.38416856E+04</pdfrwt>
<pdfrwt beam="1">  1       -2 0.20386591E+00 0.38416856E+04</pdfrwt>
<totfact> 0.23688557E-01</totfact>
</mgrwt>
</event>
<event>
 4    1  0.2048914E-008  0.2917845E+04  0.7816531E-02  0.8267588E-01
         -2   -1    0    0    0  501 -0.00000000000E+00  0.00000000000E+00  0.10950013989E+04  0.10950013989E+04  0.00000000000E+00 0. -1.
          2   -1    0    0  501    0  0.00000000000E+00 -0.00000000000E+00 -0.19437920323E+04  0.19437920323E+04  0.00000000000E+00 0.  1.
    2000013    1    1    2    0    0 -0.86683751740E+03  0.68741729297E+03 -0.37775994425E+03  0.15063706024E+04  0.95000000000E+03 0.  0.
   -2000013    1    1    2    0    0  0.86683751740E+03 -0.68741729297E+03 -0.47103068907E+03  0.15324228288E+04  0.95000000000E+03 0.  0.
<mgrwt>
<rscale>  0 0.29178451E+04</rscale>
<asrwt>0</asrwt>
<pdfrwt beam="2">  1        2 0.29904493E+00 0.29178451E+04</pdfrwt>
<pdfrwt beam="1">  1       -2 0.16846175E+00 0.29178451E+04</pdfrwt>
<totfact> 0.13527012E+00</totfact>
</mgrwt>
</event>
<event>
 4    1  0.2048914E-008  0.2919478E+04  0.7816531E-02  0.8267106E-01
          1   -1    0    0  501    0  0.00000000000E+00  0.00000000000E+00  0.18365700495E+04  0.18365700495E+04  0.00000000000E+00 0.  1.
         -1   -1    0    0    0  501 -0.00000000000E+00 -0.00000000000E+00 -0.11602266764E+04  0.11602266764E+04  0.00000000000E+00 0. -1.
    2000013    1    1    2    0    0 -0.84033022705E+03  0.67434097329E+02  0.10766947582E+04  0.16650747281E+04  0.95000000000E+03 0.  0.
   -2000013    1    1    2    0    0  0.84033022705E+03 -0.67434097329E+02 -0.40035138509E+03  0.13317219978E+04  0.95000000000E+03 0.  0.
<mgrwt>
<rscale>  0 0.29194777E+04</rscale>
<asrwt>0</asrwt>
<pdfrwt beam="1">  1        1 0.28254924E+00 0.29194777E+04</pdfrwt>
<pdfrwt beam="2">  1       -1 0.17849641E+00 0.29194777E+04</pdfrwt>
<totfact> 0.70347251E-01</totfact>
</mgrwt>
</event>
<event>
 4    1  0.2048914E-008  0.2949065E+04  0.7816531E-02  0.8258427E-01
          2   -1    0    0  501    0  0.00000000000E+00  0.00000000000E+00  0.80738901645E+03  0.80738901645E+03  0.00000000000E+00 0.  1.
         -2   -1    0    0    0  501 -0.00000000000E+00 -0.00000000000E+00 -0.26929349929E+04  0.26929349929E+04  0.00000000000E+00 0. -1.
    2000013    1    1    2    0    0  0.96997875106E+03  0.46799917523E+03 -0.13397536233E+04  0.19640065623E+04  0.95000000000E+03 0.  0.
   -2000013    1    1    2    0    0 -0.96997875106E+03 -0.46799917523E+03 -0.54579235321E+03  0.15363174471E+04  0.95000000000E+03 0.  0.
<mgrwt>
<rscale>  0 0.29490650E+04</rscale>
<asrwt>0</asrwt>
<pdfrwt beam="1">  1        2 0.12421369E+00 0.29490650E+04</pdfrwt>
<pdfrwt beam="2">  1       -2 0.41429769E+00 0.29490650E+04</pdfrwt>
<totfact> 0.17473839E-01</totfact>
</mgrwt>
</event>
<event>
 4    1  0.2048914E-008  0.2390955E+04  0.7816531E-02  0.8442898E-01
          2   -1    0    0  501    0  0.00000000000E+00  0.00000000000E+00  0.97377656291E+03  0.97377656291E+03  0.00000000000E+00 0.  1.
         -2   -1    0    0    0  501 -0.00000000000E+00 -0.00000000000E+00 -0.14676527945E+04  0.14676527945E+04  0.00000000000E+00 0. -1.
    2000013    1    1    2    0    0  0.20415435197E+03  0.51557248657E+03 -0.72497927047E+03  0.13174175234E+04  0.95000000000E+03 0.  0.
   -2000013    1    1    2    0    0 -0.20415435197E+03 -0.51557248657E+03  0.23110303891E+03  0.11240118340E+04  0.95000000000E+03 0.  0.
<mgrwt>
<rscale>  0 0.23909545E+04</rscale>
<asrwt>0</asrwt>
<pdfrwt beam="1">  1        2 0.14981178E+00 0.23909545E+04</pdfrwt>
<pdfrwt beam="2">  1       -2 0.22579274E+00 0.23909545E+04</pdfrwt>
<totfact> 0.21410853E+00</totfact>
</mgrwt>
</event>
<event>
 4    1  0.2048914E-008  0.2310740E+04  0.7816531E-02  0.8473699E-01
         -2   -1    0    0    0  501 -0.00000000000E+00  0.00000000000E+00  0.64610860831E+03  0.64610860831E+03  0.00000000000E+00 0. -1.
          2   -1    0    0  501    0  0.00000000000E+00 -0.00000000000E+00 -0.20660296717E+04  0.20660296717E+04  0.00000000000E+00 0.  1.
    2000013    1    1    2    0    0 -0.64616652350E+03 -0.11381587103E+03 -0.65887613139E+03  0.13293242588E+04  0.95000000000E+03 0.  0.
   -2000013    1    1    2    0    0  0.64616652350E+03  0.11381587103E+03 -0.76104493195E+03  0.13828140211E+04  0.95000000000E+03 0.  0.
<mgrwt>
<rscale>  0 0.23107398E+04</rscale>
<asrwt>0</asrwt>
<pdfrwt beam="2">  1        2 0.31785071E+00 0.23107398E+04</pdfrwt>
<pdfrwt beam="1">  1       -2 0.99401326E-01 0.23107398E+04</pdfrwt>
<totfact> 0.46581799E+00</totfact>
</mgrwt>
</event>
<event>
 4    1  0.2048914E-008  0.2066928E+04  0.7816531E-02  0.8575953E-01
          2   -1    0    0  501    0  0.00000000000E+00  0.00000000000E+00  0.36505298630E+04  0.36505298630E+04  0.00000000000E+00 0.  1.
         -2   -1    0    0    0  501 -0.00000000000E+00 -0.00000000000E+00 -0.29257347279E+03  0.29257347279E+03  0.00000000000E+00 0. -1.
    2000013    1    1    2    0    0  0.34095305594E+03 -0.78391239008E+02  0.12826788082E+04  0.16340621462E+04  0.95000000000E+03 0.  0.
   -2000013    1    1    2    0    0 -0.34095305594E+03  0.78391239008E+02  0.20752775820E+04  0.23090411896E+04  0.95000000000E+03 0.  0.
<mgrwt>
<rscale>  0 0.20669283E+04</rscale>
<asrwt>0</asrwt>
<pdfrwt beam="1">  1        2 0.56161995E+00 0.20669283E+04</pdfrwt>
<pdfrwt beam="2">  1       -2 0.45011306E-01 0.20669283E+04</pdfrwt>
<totfact> 0.27615550E+00</totfact>
</mgrwt>
</event>
<event>
 4    1  0.2048914E-008  0.2957117E+04  0.7816531E-02  0.8256084E-01
         -2   -1    0    0    0  501 -0.00000000000E+00  0.00000000000E+00  0.15025050021E+04  0.15025050021E+04  0.00000000000E+00 0. -1.
          2   -1    0    0  501    0  0.00000000000E+00 -0.00000000000E+00 -0.14549934250E+04  0.14549934250E+04  0.00000000000E+00 0.  1.
    2000013    1    1    2    0    0 -0.77067796290E+03 -0.22342878131E+03  0.82371523058E+03  0.14916003902E+04  0.95000000000E+03 0.  0.
   -2000013    1    1    2    0    0  0.77067796290E+03  0.22342878131E+03 -0.77620365349E+03  0.14658980369E+04  0.95000000000E+03 0.  0.
<mgrwt>
<rscale>  0 0.29571168E+04</rscale>
<asrwt>0</asrwt>
<pdfrwt beam="2">  1        2 0.22384514E+00 0.29571168E+04</pdfrwt>
<pdfrwt beam="1">  1       -2 0.23115462E+00 0.29571168E+04</pdfrwt>
<totfact> 0.97244954E-01</totfact>
</mgrwt>
</event>
<event>
 4    1  0.2048914E-008  0.2573350E+04  0.7816531E-02  0.8377310E-01
          2   -1    0    0  501    0  0.00000000000E+00  0.00000000000E+00  0.32289776748E+04  0.32289776748E+04  0.00000000000E+00 0.  1.
         -2   -1    0    0    0  501 -0.00000000000E+00 -0.00000000000E+00 -0.51271099213E+03  0.51271099213E+03  0.00000000000E+00 0. -1.
    2000013    1    1    2    0    0  0.76352011945E+03 -0.12794987893E+03  0.19281705598E+04  0.22846609928E+04  0.95000000000E+03 0.  0.
   -2000013    1    1    2    0    0 -0.76352011945E+03  0.12794987893E+03  0.78809612286E+03  0.14570276741E+04  0.95000000000E+03 0.  0.
<mgrwt>
<rscale>  0 0.25733498E+04</rscale>
<asrwt>0</asrwt>
<pdfrwt beam="1">  1        2 0.49676578E+00 0.25733498E+04</pdfrwt>
<pdfrwt beam="2">  1       -2 0.78878616E-01 0.25733498E+04</pdfrwt>
<totfact> 0.15705906E+00</totfact>
</mgrwt>
</event>
<event>
 4    1  0.2048914E-008  0.3517130E+04  0.7816531E-02  0.8109742E-01
          2   -1    0    0  501    0  0.00000000000E+00  0.00000000000E+00  0.22647159633E+04  0.22647159633E+04  0.00000000000E+00 0.  1.
         -2   -1    0    0    0  501 -0.00000000000E+00 -0.00000000000E+00 -0.13655356784E+04  0.13655356784E+04  0.00000000000E+00 0. -1.
    2000013    1    1    2    0    0  0.89047610738E+03 -0.11692434404E+04  0.27089611862E+03  0.17708649378E+04  0.95000000000E+03 0.  0.
   -2000013    1    1    2    0    0 -0.89047610738E+03  0.11692434404E+04  0.62828416631E+03  0.18593867039E+04  0.95000000000E+03 0.  0.
<mgrwt>
<rscale>  0 0.35171298E+04</rscale>
<asrwt>0</asrwt>
<pdfrwt beam="1">  1        2 0.34841784E+00 0.35171298E+04</pdfrwt>
<pdfrwt beam="2">  1       -2 0.21008241E+00 0.35171298E+04</pdfrwt>
<totfact> 0.44552757E-01</totfact>
</mgrwt>
</event>
<event>
 4    1  0.2048914E-008  0.2273217E+04  0.7816531E-02  0.8488557E-01
         -2   -1    0    0    0  501 -0.00000000000E+00  0.00000000000E+00  0.55408093505E+03  0.55408093505E+03  0.00000000000E+00 0. -1.
          2   -1    0    0  501    0  0.00000000000E+00 -0.00000000000E+00 -0.23315715386E+04  0.23315715386E+04  0.00000000000E+00 0.  1.
    2000013    1    1    2    0    0 -0.53224440048E+03 -0.23845535650E+03 -0.11704128721E+04  0.16163264986E+04  0.95000000000E+03 0.  0.
   -2000013    1    1    2    0    0  0.53224440048E+03  0.23845535650E+03 -0.60707773143E+03  0.12693259750E+04  0.95000000000E+03 0.  0.
<mgrwt>
<rscale>  0 0.22732174E+04</rscale>
<asrwt>0</asrwt>
<pdfrwt beam="2">  1        2 0.35870331E+00 0.22732174E+04</pdfrwt>
<pdfrwt beam="1">  1       -2 0.85243221E-01 0.22732174E+04</pdfrwt>
<totfact> 0.47308641E+00</totfact>
</mgrwt>
</event>
<event>
 4    1  0.2048914E-008  0.2675651E+04  0.7816531E-02  0.8342949E-01
         -2   -1    0    0    0  501 -0.00000000000E+00  0.00000000000E+00  0.62203066131E+03  0.62203066131E+03  0.00000000000E+00 0. -1.
          2   -1    0    0  501    0  0.00000000000E+00 -0.00000000000E+00 -0.28773126819E+04  0.28773126819E+04  0.00000000000E+00 0.  1.
    2000013    1    1    2    0    0 -0.76265750136E+03 -0.53613755752E+03 -0.95126688784E+03  0.16360008059E+04  0.95000000000E+03 0.  0.
   -2000013    1    1    2    0    0  0.76265750136E+03  0.53613755752E+03 -0.13040151328E+04  0.18633425373E+04  0.95000000000E+03 0.  0.
<mgrwt>
<rscale>  0 0.26756507E+04</rscale>
<asrwt>0</asrwt>
<pdfrwt beam="2">  1        2 0.44266348E+00 0.26756507E+04</pdfrwt>
<pdfrwt beam="1">  1       -2 0.95697026E-01 0.26756507E+04</pdfrwt>
<totfact> 0.16703886E+00</totfact>
</mgrwt>
</event>
<event>
 4    1  0.2048914E-008  0.2639919E+04  0.7816531E-02  0.8354767E-01
          2   -1    0    0  501    0  0.00000000000E+00  0.00000000000E+00  0.23477165956E+04  0.23477165956E+04  0.00000000000E+00 0.  1.
         -2   -1    0    0    0  501 -0.00000000000E+00 -0.00000000000E+00 -0.74212224189E+03  0.74212224189E+03  0.00000000000E+00 0. -1.
    2000013    1    1    2    0    0  0.11335521916E+02 -0.34483876061E+03  0.17964570011E+04  0.20612617548E+04  0.95000000000E+03 0.  0.
   -2000013    1    1    2    0    0 -0.11335521916E+02  0.34483876061E+03 -0.19086264741E+03  0.10285770827E+04  0.95000000000E+03 0.  0.
<mgrwt>
<rscale>  0 0.26399187E+04</rscale>
<asrwt>0</asrwt>
<pdfrwt beam="1">  1        2 0.36118716E+00 0.26399187E+04</pdfrwt>
<pdfrwt beam="2">  1       -2 0.11417265E+00 0.26399187E+04</pdfrwt>
<totfact> 0.22530201E+00</totfact>
</mgrwt>
</event>
<event>
 4    1  0.2048914E-008  0.2589939E+04  0.7816531E-02  0.8371627E-01
         -2   -1    0    0    0  501 -0.00000000000E+00  0.00000000000E+00  0.12446618804E+04  0.12446618804E+04  0.00000000000E+00 0. -1.
          2   -1    0    0  501    0  0.00000000000E+00 -0.00000000000E+00 -0.13473109633E+04  0.13473109633E+04  0.00000000000E+00 0.  1.
    2000013    1    1    2    0    0  0.23427815728E+03  0.18927657779E+03  0.77620718265E+03  0.12632139440E+04  0.95000000000E+03 0.  0.
   -2000013    1    1    2    0    0 -0.23427815728E+03 -0.18927657779E+03 -0.87885626557E+03  0.13287588997E+04  0.95000000000E+03 0.  0.
<mgrwt>
<rscale>  0 0.25899395E+04</rscale>
<asrwt>0</asrwt>
<pdfrwt beam="2">  1        2 0.20727861E+00 0.25899395E+04</pdfrwt>
<pdfrwt beam="1">  1       -2 0.19148644E+00 0.25899395E+04</pdfrwt>
<totfact> 0.20811724E+00</totfact>
</mgrwt>
</event>
<event>
 4    1  0.2048914E-008  0.2404401E+04  0.7816531E-02  0.8437858E-01
         -2   -1    0    0    0  501 -0.00000000000E+00  0.00000000000E+00  0.74936268742E+03  0.74936268742E+03  0.00000000000E+00 0. -1.
          2   -1    0    0  501    0  0.00000000000E+00 -0.00000000000E+00 -0.19286864083E+04  0.19286864083E+04  0.00000000000E+00 0.  1.
    2000013    1    1    2    0    0  0.68201265680E+03 -0.22534868229E+03 -0.40711112080E+03  0.12586352757E+04  0.95000000000E+03 0.  0.
   -2000013    1    1    2    0    0 -0.68201265680E+03  0.22534868229E+03 -0.77221260008E+03  0.14194138200E+04  0.95000000000E+03 0.  0.
<mgrwt>
<rscale>  0 0.24044007E+04</rscale>
<asrwt>0</asrwt>
<pdfrwt beam="2">  1        2 0.29672098E+00 0.24044007E+04</pdfrwt>
<pdfrwt beam="1">  1       -2 0.11528657E+00 0.24044007E+04</pdfrwt>
<totfact> 0.38563803E+00</totfact>
</mgrwt>
</event>
<event>
 4    1  0.2048914E-008  0.2122337E+04  0.7816531E-02  0.8551467E-01
         -1   -1    0    0    0  501 -0.00000000000E+00  0.00000000000E+00  0.14260263468E+04  0.14260263468E+04  0.00000000000E+00 0. -1.
          1   -1    0    0  501    0  0.00000000000E+00 -0.00000000000E+00 -0.78966188094E+03  0.78966188094E+03  0.00000000000E+00 0.  1.
    2000013    1    1    2    0    0 -0.23965322671E+03  0.28821555204E+03  0.61909048939E+03  0.11942675193E+04  0.95000000000E+03 0.  0.
   -2000013    1    1    2    0    0  0.23965322671E+03 -0.28821555204E+03  0.17273976501E+02  0.10214207085E+04  0.95000000000E+03 0.  0.
<mgrwt>
<rscale>  0 0.21223371E+04</rscale>
<asrwt>0</asrwt>
<pdfrwt beam="2">  1        1 0.12148644E+00 0.21223371E+04</pdfrwt>
<pdfrwt beam="1">  1       -1 0.21938867E+00 0.21223371E+04</pdfrwt>
<totfact> 0.23018714E+00</totfact>
</mgrwt>
</event>
<event>
 4    1  0.2048914E-008  0.2374497E+04  0.7816531E-02  0.8449114E-01
          2   -1    0    0  501    0  0.00000000000E+00  0.00000000000E+00  0.29106159804E+04  0.29106159804E+04  0.00000000000E+00 0.  1.
         -2   -1    0    0    0  501 -0.00000000000E+00 -0.00000000000E+00 -0.48428188001E+03  0.48428188001E+03  0.00000000000E+00 0. -1.
    2000013    1    1    2    0    0 -0.56336056692E+03  0.14485241163E+02  0.59082443825E+03  0.12526605555E+04  0.95000000000E+03 0.  0.
   -2000013    1    1    2    0    0  0.56336056692E+03 -0.14485241163E+02  0.18355096621E+04  0.21422373048E+04  0.95000000000E+03 0.  0.
<mgrwt>
<rscale>  0 0.23744966E+04</rscale>
<asrwt>0</asrwt>
<pdfrwt beam="1">  1        2 0.44778706E+00 0.23744966E+04</pdfrwt>
<pdfrwt beam="2">  1       -2 0.74504906E-01 0.23744966E+04</pdfrwt>
<totfact> 0.28908113E+00</totfact>
</mgrwt>
</event>
<event>
 4    1  0.2048914E-008  0.2057442E+04  0.7816531E-02  0.8580226E-01
          2   -1    0    0  501    0  0.00000000000E+00  0.00000000000E+00  0.17663078505E+04  0.17663078505E+04  0.00000000000E+00 0.  1.
         -2   -1    0    0    0  501 -0.00000000000E+00 -0.00000000000E+00 -0.59914048629E+03  0.59914048629E+03  0.00000000000E+00 0. -1.
    2000013    1    1    2    0    0 -0.83105576003E+02 -0.38366613745E+03  0.53673692011E+03  0.11596088837E+04  0.95000000000E+03 0.  0.
   -2000013    1    1    2    0    0  0.83105576003E+02  0.38366613745E+03  0.63043044415E+03  0.12058394531E+04  0.95000000000E+03 0.  0.
<mgrwt>
<rscale>  0 0.20574417E+04</rscale>
<asrwt>0</asrwt>
<pdfrwt beam="1">  1        2 0.27173967E+00 0.20574417E+04</pdfrwt>
<pdfrwt beam="2">  1       -2 0.92175460E-01 0.20574417E+04</pdfrwt>
<totfact> 0.83300953E+00</totfact>
</mgrwt>
</event>
<event>
 4    1  0.2048914E-008  0.2312426E+04  0.7816531E-02  0.8473038E-01
          2   -1    0    0  501    0  0.00000000000E+00  0.00000000000E+00  0.22417200288E+04  0.22417200288E+04  0.00000000000E+00 0.  1.
         -2   -1    0    0    0  501 -0.00000000000E+00 -0.00000000000E+00 -0.59634032207E+03  0.59634032207E+03  0.00000000000E+00 0. -1.
    2000013    1    1    2    0    0 -0.11754883304E+01  0.39062500991E+03  0.17124574708E+03  0.10413521912E+04  0.95000000000E+03 0.  0.
   -2000013    1    1    2    0    0  0.11754883304E+01 -0.39062500991E+03  0.14741339596E+04  0.17967081597E+04  0.95000000000E+03 0.  0.
<mgrwt>
<rscale>  0 0.23124256E+04</rscale>
<asrwt>0</asrwt>
<pdfrwt beam="1">  1        2 0.34488000E+00 0.23124256E+04</pdfrwt>
<pdfrwt beam="2">  1       -2 0.91744666E-01 0.23124256E+04</pdfrwt>
<totfact> 0.44778002E+00</totfact>
</mgrwt>
</event>
<event>
 4    1  0.2048914E-008  0.2920158E+04  0.7816531E-02  0.8266905E-01
          2   -1    0    0  501    0  0.00000000000E+00  0.00000000000E+00  0.10140652894E+04  0.10140652894E+04  0.00000000000E+00 0.  1.
         -2   -1    0    0    0  501 -0.00000000000E+00 -0.00000000000E+00 -0.21022616186E+04  0.21022616186E+04  0.00000000000E+00 0. -1.
    2000013    1    1    2    0    0 -0.91293321462E+03 -0.47180098883E+03 -0.98834061254E+03  0.17132893491E+04  0.95000000000E+03 0.  0.
   -2000013    1    1    2    0    0  0.91293321462E+03  0.47180098883E+03 -0.99855716723E+02  0.14030375589E+04  0.95000000000E+03 0.  0.
<mgrwt>
<rscale>  0 0.29201579E+04</rscale>
<asrwt>0</asrwt>
<pdfrwt beam="1">  1        2 0.15601004E+00 0.29201579E+04</pdfrwt>
<pdfrwt beam="2">  1       -2 0.32342486E+00 0.29201579E+04</pdfrwt>
<totfact> 0.48469680E-01</totfact>
</mgrwt>
</event>
<event>
 4    1  0.2048914E-008  0.2055486E+04  0.7816531E-02  0.8581110E-01
         -2   -1    0    0    0  501 -0.00000000000E+00  0.00000000000E+00  0.85885244321E+03  0.85885244321E+03  0.00000000000E+00 0. -1.
          2   -1    0    0  501    0  0.00000000000E+00 -0.00000000000E+00 -0.12298450909E+04  0.12298450909E+04  0.00000000000E+00 0.  1.
    2000013    1    1    2    0    0 -0.26329006813E+03 -0.14187604884E+03 -0.44317792185E+03  0.10901179494E+04  0.95000000000E+03 0.  0.
   -2000013    1    1    2    0    0  0.26329006813E+03  0.14187604884E+03  0.72185274144E+02  0.99857958472E+03  0.95000000000E+03 0.  0.
<mgrwt>
<rscale>  0 0.20554858E+04</rscale>
<asrwt>0</asrwt>
<pdfrwt beam="2">  1        2 0.18920694E+00 0.20554858E+04</pdfrwt>
<pdfrwt beam="1">  1       -2 0.13213114E+00 0.20554858E+04</pdfrwt>
<totfact> 0.70084315E+00</totfact>
</mgrwt>
</event>
<event>
 4    1  0.2048914E-008  0.2399463E+04  0.7816531E-02  0.8439705E-01
          2   -1    0    0  501    0  0.00000000000E+00  0.00000000000E+00  0.29521045340E+04  0.29521045340E+04  0.00000000000E+00 0.  1.
         -2   -1    0    0    0  501 -0.00000000000E+00 -0.00000000000E+00 -0.48756930082E+03  0.48756930082E+03  0.00000000000E+00 0. -1.
    2000013    1    1    2    0    0 -0.69220977770E+03 -0.51113896532E+02  0.15687279286E+04  0.19609116045E+04  0.95000000000E+03 0.  0.
   -2000013    1    1    2    0    0  0.69220977770E+03  0.51113896532E+02  0.89580730453E+03  0.14787622302E+04  0.95000000000E+03 0.  0.
<mgrwt>
<rscale>  0 0.23994629E+04</rscale>
<asrwt>0</asrwt>
<pdfrwt beam="1">  1        2 0.45416992E+00 0.23994629E+04</pdfrwt>
<pdfrwt beam="2">  1       -2 0.75010663E-01 0.23994629E+04</pdfrwt>
<totfact> 0.26786599E+00</totfact>
</mgrwt>
</event>
<event>
 4    1  0.2048914E-008  0.3134348E+04  0.7816531E-02  0.8206374E-01
          2   -1    0    0  501    0  0.00000000000E+00  0.00000000000E+00  0.33573214421E+04  0.33573214421E+04  0.00000000000E+00 0.  1.
         -2   -1    0    0    0  501 -0.00000000000E+00 -0.00000000000E+00 -0.73154582353E+03  0.73154582353E+03  0.00000000000E+00 0. -1.
    2000013    1    1    2    0    0  0.10639807167E+04 -0.63995835698E+03  0.11703837476E+04  0.19529208332E+04  0.95000000000E+03 0.  0.
   -2000013    1    1    2    0    0 -0.10639807167E+04  0.63995835698E+03  0.14553918710E+04  0.21359464324E+04  0.95000000000E+03 0.  0.
<mgrwt>
<rscale>  0 0.31343481E+04</rscale>
<asrwt>0</asrwt>
<pdfrwt beam="1">  1        2 0.51651098E+00 0.31343481E+04</pdfrwt>
<pdfrwt beam="2">  1       -2 0.11254551E+00 0.31343481E+04</pdfrwt>
<totfact> 0.53578278E-01</totfact>
</mgrwt>
</event>
<event>
 4    1  0.2048914E-008  0.2730066E+04  0.7816531E-02  0.8325315E-01
          1   -1    0    0  501    0  0.00000000000E+00  0.00000000000E+00  0.14202964441E+04  0.14202964441E+04  0.00000000000E+00 0.  1.
         -1   -1    0    0    0  501 -0.00000000000E+00 -0.00000000000E+00 -0.13119193704E+04  0.13119193704E+04  0.00000000000E+00 0. -1.
    2000013    1    1    2    0    0  0.69640627512E+03 -0.48473942187E+03  0.54535040596E+03  0.13855905140E+04  0.95000000000E+03 0.  0.
   -2000013    1    1    2    0    0 -0.69640627512E+03  0.48473942187E+03 -0.43697333225E+03  0.13466253006E+04  0.95000000000E+03 0.  0.
<mgrwt>
<rscale>  0 0.27300655E+04</rscale>
<asrwt>0</asrwt>
<pdfrwt beam="1">  1        1 0.21850714E+00 0.27300655E+04</pdfrwt>
<pdfrwt beam="2">  1       -1 0.20183375E+00 0.27300655E+04</pdfrwt>
<totfact> 0.94661866E-01</totfact>
</mgrwt>
</event>
<event>
 4    1  0.2048914E-008  0.1989260E+04  0.7816531E-02  0.8611658E-01
          2   -1    0    0  501    0  0.00000000000E+00  0.00000000000E+00  0.20499141322E+04  0.20499141322E+04  0.00000000000E+00 0.  1.
         -2   -1    0    0    0  501 -0.00000000000E+00 -0.00000000000E+00 -0.48260029170E+03  0.48260029170E+03  0.00000000000E+00 0. -1.
    2000013    1    1    2    0    0  0.22892743348E+03  0.16987872013E+03  0.68904792119E+03  0.12077059191E+04  0.95000000000E+03 0.  0.
   -2000013    1    1    2    0    0 -0.22892743348E+03 -0.16987872013E+03  0.87826591929E+03  0.13248085048E+04  0.95000000000E+03 0.  0.
<mgrwt>
<rscale>  0 0.19892603E+04</rscale>
<asrwt>0</asrwt>
<pdfrwt beam="1">  1        2 0.31537140E+00 0.19892603E+04</pdfrwt>
<pdfrwt beam="2">  1       -2 0.74246200E-01 0.19892603E+04</pdfrwt>
<totfact> 0.95151394E+00</totfact>
</mgrwt>
</event>
<event>
 4    1  0.2048914E-008  0.3233582E+04  0.7816531E-02  0.8180004E-01
         -2   -1    0    0    0  501 -0.00000000000E+00  0.00000000000E+00  0.18019950302E+04  0.18019950302E+04  0.00000000000E+00 0. -1.
          2   -1    0    0  501    0  0.00000000000E+00 -0.00000000000E+00 -0.14506219972E+04  0.14506219972E+04  0.00000000000E+00 0.  1.
    2000013    1    1    2    0    0  0.91505426091E+03 -0.92545680168E+03  0.41790062652E+02  0.16118439756E+04  0.95000000000E+03 0.  0.
   -2000013    1    1    2    0    0 -0.91505426091E+03  0.92545680168E+03  0.30958297032E+03  0.16407730519E+04  0.95000000000E+03 0.  0.
<mgrwt>
<rscale>  0 0.32335823E+04</rscale>
<asrwt>0</asrwt>
<pdfrwt beam="2">  1        2 0.22317261E+00 0.32335823E+04</pdfrwt>
<pdfrwt beam="1">  1       -2 0.27723001E+00 0.32335823E+04</pdfrwt>
<totfact> 0.49776577E-01</totfact>
</mgrwt>
</event>
<event>
 4    1  0.2048914E-008  0.2456069E+04  0.7816531E-02  0.8418805E-01
         -2   -1    0    0    0  501 -0.00000000000E+00  0.00000000000E+00  0.73919963188E+03  0.73919963188E+03  0.00000000000E+00 0.  1.
          2   -1    0    0  501    0  0.00000000000E+00 -0.00000000000E+00 -0.20401379487E+04  0.20401379487E+04  0.00000000000E+00 0. -1.
    2000013    1    1    2    0    0 -0.59415931839E+03  0.14591424533E+03 -0.11946513361E+04  0.16443868394E+04  0.95000000000E+03 0.  0.
   -2000013    1    1    2    0    0  0.59415931839E+03 -0.14591424533E+03 -0.10628698065E+03  0.11349507412E+04  0.95000000000E+03 0.  0.
<mgrwt>
<rscale>  0 0.24560694E+04</rscale>
<asrwt>0</asrwt>
<pdfrwt beam="2">  1        2 0.31386737E+00 0.24560694E+04</pdfrwt>
<pdfrwt beam="1">  1       -2 0.11372302E+00 0.24560694E+04</pdfrwt>
<totfact> 0.34418017E+00</totfact>
</mgrwt>
</event>
<event>
 4    1  0.2048914E-008  0.2771407E+04  0.7816531E-02  0.8312201E-01
          2   -1    0    0  501    0  0.00000000000E+00  0.00000000000E+00  0.18657016507E+04  0.18657016507E+04  0.00000000000E+00 0.  1.
         -2   -1    0    0    0  501 -0.00000000000E+00 -0.00000000000E+00 -0.10291966124E+04  0.10291966124E+04  0.00000000000E+00 0. -1.
    2000013    1    1    2    0    0 -0.85127793890E+03 -0.42957274296E+03  0.74234058519E+02  0.13480421233E+04  0.95000000000E+03 0.  0.
   -2000013    1    1    2    0    0  0.85127793890E+03  0.42957274296E+03  0.76227097971E+03  0.15468561398E+04  0.95000000000E+03 0.  0.
<mgrwt>
<rscale>  0 0.27714067E+04</rscale>
<asrwt>0</asrwt>
<pdfrwt beam="1">  1        2 0.28703102E+00 0.27714067E+04</pdfrwt>
<pdfrwt beam="2">  1       -2 0.15833794E+00 0.27714067E+04</pdfrwt>
<totfact> 0.17934931E+00</totfact>
</mgrwt>
</event>
<event>
 4    1  0.2048914E-008  0.2374215E+04  0.7816531E-02  0.8449220E-01
          2   -1    0    0  501    0  0.00000000000E+00  0.00000000000E+00  0.28075195179E+04  0.28075195179E+04  0.00000000000E+00 0. -1.
         -2   -1    0    0    0  501 -0.00000000000E+00 -0.00000000000E+00 -0.50194657103E+03  0.50194657103E+03  0.00000000000E+00 0.  1.
    2000013    1    1    2    0    0  0.58366120621E+03 -0.14498578464E+03  0.62191797184E+03  0.12848981458E+04  0.95000000000E+03 0.  0.
   -2000013    1    1    2    0    0 -0.58366120621E+03  0.14498578464E+03  0.16836549750E+04  0.20245679431E+04  0.95000000000E+03 0.  0.
<mgrwt>
<rscale>  0 0.23742155E+04</rscale>
<asrwt>0</asrwt>
<pdfrwt beam="1">  1        2 0.43192607E+00 0.23742155E+04</pdfrwt>
<pdfrwt beam="2">  1       -2 0.77222551E-01 0.23742155E+04</pdfrwt>
<totfact> 0.30860180E+00</totfact>
</mgrwt>
</event>
<event>
 4    1  0.2048914E-008  0.2230319E+04  0.7816531E-02  0.8505913E-01
         -2   -1    0    0    0  501 -0.00000000000E+00  0.00000000000E+00  0.15974156018E+04  0.15974156018E+04  0.00000000000E+00 0. -1.
          2   -1    0    0  501    0  0.00000000000E+00 -0.00000000000E+00 -0.77849575478E+03  0.77849575478E+03  0.00000000000E+00 0.  1.
    2000013    1    1    2    0    0  0.25900986468E+03 -0.52322612636E+03  0.39331909921E+03  0.11823923220E+04  0.95000000000E+03 0.  0.
   -2000013    1    1    2    0    0 -0.25900986468E+03  0.52322612636E+03  0.42560074777E+03  0.11935190345E+04  0.95000000000E+03 0.  0.
<mgrwt>
<rscale>  0 0.22303195E+04</rscale>
<asrwt>0</asrwt>
<pdfrwt beam="2">  1        2 0.11976858E+00 0.22303195E+04</pdfrwt>
<pdfrwt beam="1">  1       -2 0.24575625E+00 0.22303195E+04</pdfrwt>
<totfact> 0.22218778E+00</totfact>
</mgrwt>
</event>
<event>
 4    1  0.2048914E-008  0.2220768E+04  0.7816531E-02  0.8509834E-01
          2   -1    0    0  501    0  0.00000000000E+00  0.00000000000E+00  0.97827147850E+03  0.97827147850E+03  0.00000000000E+00 0.  1.
         -2   -1    0    0    0  501 -0.00000000000E+00 -0.00000000000E+00 -0.12603373657E+04  0.12603373657E+04  0.00000000000E+00 0. -1.
    2000013    1    1    2    0    0  0.40370045332E+03  0.27051821795E+03 -0.45057966657E+03  0.11583074713E+04  0.95000000000E+03 0.  0.
   -2000013    1    1    2    0    0 -0.40370045332E+03 -0.27051821795E+03  0.16851377941E+03  0.10803013728E+04  0.95000000000E+03 0.  0.
<mgrwt>
<rscale>  0 0.22207675E+04</rscale>
<asrwt>0</asrwt>
<pdfrwt beam="1">  1        2 0.15050330E+00 0.22207675E+04</pdfrwt>
<pdfrwt beam="2">  1       -2 0.19389806E+00 0.22207675E+04</pdfrwt>
<totfact> 0.34643232E+00</totfact>
</mgrwt>
</event>
<event>
 4    1  0.2048914E-008  0.1948104E+04  0.7816531E-02  0.8631276E-01
          2   -1    0    0  501    0  0.00000000000E+00  0.00000000000E+00  0.61526672040E+03  0.61526672040E+03  0.00000000000E+00 0. -1.
         -2   -1    0    0    0  501 -0.00000000000E+00 -0.00000000000E+00 -0.15420582192E+04  0.15420582192E+04  0.00000000000E+00 0.  1.
    2000013    1    1    2    0    0  0.16603284419E+02  0.19521739841E+03 -0.36502045521E+03  0.10364002289E+04  0.95000000000E+03 0.  0.
   -2000013    1    1    2    0    0 -0.16603284419E+02 -0.19521739841E+03 -0.56177104359E+03  0.11209247107E+04  0.95000000000E+03 0.  0.
<mgrwt>
<rscale>  0 0.19481038E+04</rscale>
<asrwt>0</asrwt>
<pdfrwt beam="1">  1        2 0.94656420E-01 0.19481038E+04</pdfrwt>
<pdfrwt beam="2">  1       -2 0.23723972E+00 0.19481038E+04</pdfrwt>
<totfact> 0.34567620E+00</totfact>
</mgrwt>
</event>
<event>
 4    1  0.2048914E-008  0.3023012E+04  0.7816531E-02  0.8237190E-01
          2   -1    0    0  501    0  0.00000000000E+00  0.00000000000E+00  0.22808263849E+04  0.22808263849E+04  0.00000000000E+00 0.  1.
         -2   -1    0    0    0  501 -0.00000000000E+00 -0.00000000000E+00 -0.10016766829E+04  0.10016766829E+04  0.00000000000E+00 0. -1.
    2000013    1    1    2    0    0  0.10837680938E+04 -0.39457110132E+03  0.88697207975E+03  0.17376590878E+04  0.95000000000E+03 0.  0.
   -2000013    1    1    2    0    0 -0.10837680938E+04  0.39457110132E+03  0.39217762233E+03  0.15448439800E+04  0.95000000000E+03 0.  0.
<mgrwt>
<rscale>  0 0.30230121E+04</rscale>
<asrwt>0</asrwt>
<pdfrwt beam="1">  1        2 0.35089636E+00 0.30230121E+04</pdfrwt>
<pdfrwt beam="2">  1       -2 0.15410411E+00 0.30230121E+04</pdfrwt>
<totfact> 0.11073402E+00</totfact>
</mgrwt>
</event>
<event>
 4    1  0.2048914E-008  0.2967117E+04  0.7816531E-02  0.8253184E-01
         -2   -1    0    0    0  501 -0.00000000000E+00  0.00000000000E+00  0.12697107748E+04  0.12697107748E+04  0.00000000000E+00 0. -1.
          2   -1    0    0  501    0  0.00000000000E+00 -0.00000000000E+00 -0.17334224026E+04  0.17334224026E+04  0.00000000000E+00 0.  1.
    2000013    1    1    2    0    0  0.35744875034E+03  0.10701933835E+04 -0.39304223035E+03  0.15264552670E+04  0.95000000000E+03 0.  0.
   -2000013    1    1    2    0    0 -0.35744875034E+03 -0.10701933835E+04 -0.70669397357E+02  0.14766779104E+04  0.95000000000E+03 0.  0.
<mgrwt>
<rscale>  0 0.29671165E+04</rscale>
<asrwt>0</asrwt>
<pdfrwt beam="2">  1        2 0.26668037E+00 0.29671165E+04</pdfrwt>
<pdfrwt beam="1">  1       -2 0.19534012E+00 0.29671165E+04</pdfrwt>
<totfact> 0.11515683E+00</totfact>
</mgrwt>
</event>
<event>
 4    1  0.2048914E-008  0.2590999E+04  0.7816531E-02  0.8371265E-01
          2   -1    0    0  501    0  0.00000000000E+00  0.00000000000E+00  0.13197196424E+04  0.13197196424E+04  0.00000000000E+00 0.  1.
         -2   -1    0    0    0  501 -0.00000000000E+00 -0.00000000000E+00 -0.12717239843E+04  0.12717239843E+04  0.00000000000E+00 0. -1.
    2000013    1    1    2    0    0 -0.68135142982E+03 -0.54846166161E+03 -0.79794520974E+02  0.12937994940E+04  0.95000000000E+03 0.  0.
   -2000013    1    1    2    0    0  0.68135142982E+03  0.54846166161E+03  0.12779017915E+03  0.12976441327E+04  0.95000000000E+03 0.  0.
<mgrwt>
<rscale>  0 0.25909991E+04</rscale>
<asrwt>0</asrwt>
<pdfrwt beam="1">  1        2 0.20303379E+00 0.25909991E+04</pdfrwt>
<pdfrwt beam="2">  1       -2 0.19564984E+00 0.25909991E+04</pdfrwt>
<totfact> 0.20252627E+00</totfact>
</mgrwt>
</event>
<event>
 4    1  0.2048914E-008  0.3425936E+04  0.7816531E-02  0.8131570E-01
          2   -1    0    0  501    0  0.00000000000E+00  0.00000000000E+00  0.21059302220E+04  0.21059302220E+04  0.00000000000E+00 0.  1.
         -2   -1    0    0    0  501 -0.00000000000E+00 -0.00000000000E+00 -0.13933314047E+04  0.13933314047E+04  0.00000000000E+00 0. -1.
    2000013    1    1    2    0    0 -0.11135581064E+04 -0.46612692685E+03 -0.41786273769E+03  0.15919784031E+04  0.95000000000E+03 0.  0.
   -2000013    1    1    2    0    0  0.11135581064E+04  0.46612692685E+03  0.11304615550E+04  0.19072832237E+04  0.95000000000E+03 0.  0.
<mgrwt>
<rscale>  0 0.34259356E+04</rscale>
<asrwt>0</asrwt>
<pdfrwt beam="1">  1        2 0.32398926E+00 0.34259356E+04</pdfrwt>
<pdfrwt beam="2">  1       -2 0.21435868E+00 0.34259356E+04</pdfrwt>
<totfact> 0.51756180E-01</totfact>
</mgrwt>
</event>
<event>
 4    1  0.2048914E-008  0.2562069E+04  0.7816531E-02  0.8381201E-01
          2   -1    0    0  501    0  0.00000000000E+00  0.00000000000E+00  0.32578348785E+04  0.32578348785E+04  0.00000000000E+00 0.  1.
         -2   -1    0    0    0  501 -0.00000000000E+00 -0.00000000000E+00 -0.50372397673E+03  0.50372397673E+03  0.00000000000E+00 0. -1.
    2000013    1    1    2    0    0  0.11058433500E+03  0.33450969700E+03  0.22622572031E+03  0.10381732558E+04  0.95000000000E+03 0.  0.
   -2000013    1    1    2    0    0 -0.11058433500E+03 -0.33450969700E+03  0.25278851814E+04  0.27233855994E+04  0.95000000000E+03 0.  0.
<mgrwt>
<rscale>  0 0.25620691E+04</rscale>
<asrwt>0</asrwt>
<pdfrwt beam="1">  1        2 0.50120535E+00 0.25620691E+04</pdfrwt>
<pdfrwt beam="2">  1       -2 0.77495999E-01 0.25620691E+04</pdfrwt>
<totfact> 0.15656088E+00</totfact>
</mgrwt>
</event>
<event>
 4    1  0.2048914E-008  0.2519197E+04  0.7816531E-02  0.8396178E-01
          2   -1    0    0  501    0  0.00000000000E+00  0.00000000000E+00  0.35771977761E+04  0.35771977761E+04  0.00000000000E+00 0.  1.
         -2   -1    0    0    0  501 -0.00000000000E+00 -0.00000000000E+00 -0.44352825676E+03  0.44352825676E+03  0.00000000000E+00 0. -1.
    2000013    1    1    2    0    0  0.52405297050E+03  0.63974455263E+03  0.15884659000E+04  0.20272218734E+04  0.95000000000E+03 0.  0.
   -2000013    1    1    2    0    0 -0.52405297050E+03 -0.63974455263E+03  0.15452036193E+04  0.19935041594E+04  0.95000000000E+03 0.  0.
<mgrwt>
<rscale>  0 0.25191969E+04</rscale>
<asrwt>0</asrwt>
<pdfrwt beam="1">  1        2 0.55033810E+00 0.25191969E+04</pdfrwt>
<pdfrwt beam="2">  1       -2 0.68235119E-01 0.25191969E+04</pdfrwt>
<totfact> 0.12564237E+00</totfact>
</mgrwt>
</event>
<event>
 4    1  0.2048914E-008  0.2990275E+04  0.7816531E-02  0.8246514E-01
         -2   -1    0    0    0  501 -0.00000000000E+00  0.00000000000E+00  0.11303331714E+04  0.11303331714E+04  0.00000000000E+00 0. -1.
          2   -1    0    0  501    0  0.00000000000E+00 -0.00000000000E+00 -0.19776783180E+04  0.19776783180E+04  0.00000000000E+00 0.  1.
    2000013    1    1    2    0    0  0.82344487806E+03  0.76493321024E+03 -0.14916953502E+03  0.14791672771E+04  0.95000000000E+03 0.  0.
   -2000013    1    1    2    0    0 -0.82344487806E+03 -0.76493321024E+03 -0.69817561165E+03  0.16288442123E+04  0.95000000000E+03 0.  0.
<mgrwt>
<rscale>  0 0.29902745E+04</rscale>
<asrwt>0</asrwt>
<pdfrwt beam="2">  1        2 0.30425820E+00 0.29902745E+04</pdfrwt>
<pdfrwt beam="1">  1       -2 0.17389741E+00 0.29902745E+04</pdfrwt>
<totfact> 0.11782044E+00</totfact>
</mgrwt>
</event>
<event>
 4    1  0.2048914E-008  0.2920882E+04  0.7816531E-02  0.8266692E-01
         -2   -1    0    0    0  501 -0.00000000000E+00  0.00000000000E+00  0.16325833615E+04  0.16325833615E+04  0.00000000000E+00 0. -1.
          2   -1    0    0  501    0  0.00000000000E+00 -0.00000000000E+00 -0.13064493476E+04  0.13064493476E+04  0.00000000000E+00 0.  1.
    2000013    1    1    2    0    0 -0.60002621913E+03 -0.87294148105E+03  0.49424629610E+03  0.15062661432E+04  0.95000000000E+03 0.  0.
   -2000013    1    1    2    0    0  0.60002621913E+03  0.87294148105E+03 -0.16811228212E+03  0.14327665659E+04  0.95000000000E+03 0.  0.
<mgrwt>
<rscale>  0 0.29208817E+04</rscale>
<asrwt>0</asrwt>
<pdfrwt beam="2">  1        2 0.20099221E+00 0.29208817E+04</pdfrwt>
<pdfrwt beam="1">  1       -2 0.25116667E+00 0.29208817E+04</pdfrwt>
<totfact> 0.89252625E-01</totfact>
</mgrwt>
</event>
<event>
 4    1  0.2048914E-008  0.2934263E+04  0.7816531E-02  0.8262756E-01
          2   -1    0    0  501    0  0.00000000000E+00  0.00000000000E+00  0.28847221410E+04  0.28847221410E+04  0.00000000000E+00 0.  1.
         -2   -1    0    0    0  501 -0.00000000000E+00 -0.00000000000E+00 -0.74616354039E+03  0.74616354039E+03  0.00000000000E+00 0. -1.
    2000013    1    1    2    0    0 -0.47540777890E+03 -0.41282177033E+03  0.22124880565E+04  0.24887823871E+04  0.95000000000E+03 0.  0.
   -2000013    1    1    2    0    0  0.47540777890E+03  0.41282177033E+03 -0.73929455914E+02  0.11421032943E+04  0.95000000000E+03 0.  0.
<mgrwt>
<rscale>  0 0.29342628E+04</rscale>
<asrwt>0</asrwt>
<pdfrwt beam="1">  1        2 0.44380340E+00 0.29342628E+04</pdfrwt>
<pdfrwt beam="2">  1       -2 0.11479439E+00 0.29342628E+04</pdfrwt>
<totfact> 0.10459177E+00</totfact>
</mgrwt>
</event>
<event>
 4    1  0.2048914E-008  0.2746254E+04  0.7816531E-02  0.8320151E-01
         -2   -1    0    0    0  501 -0.00000000000E+00  0.00000000000E+00  0.12535207832E+04  0.12535207832E+04  0.00000000000E+00 0. -1.
          2   -1    0    0  501    0  0.00000000000E+00 -0.00000000000E+00 -0.15041454736E+04  0.15041454736E+04  0.00000000000E+00 0.  1.
    2000013    1    1    2    0    0 -0.60154628337E+03 -0.34047627290E+03 -0.83903715613E+03  0.14436985048E+04  0.95000000000E+03 0.  0.
   -2000013    1    1    2    0    0  0.60154628337E+03  0.34047627290E+03  0.58841246576E+03  0.13139677520E+04  0.95000000000E+03 0.  0.
<mgrwt>
<rscale>  0 0.27462539E+04</rscale>
<asrwt>0</asrwt>
<pdfrwt beam="2">  1        2 0.23140700E+00 0.27462539E+04</pdfrwt>
<pdfrwt beam="1">  1       -2 0.19284935E+00 0.27462539E+04</pdfrwt>
<totfact> 0.16370278E+00</totfact>
</mgrwt>
</event>
<event>
 4    1  0.2048914E-008  0.2677615E+04  0.7816531E-02  0.8342305E-01
         -1   -1    0    0    0  501 -0.00000000000E+00  0.00000000000E+00  0.65626587570E+03  0.65626587570E+03  0.00000000000E+00 0. -1.
          1   -1    0    0  501    0  0.00000000000E+00 -0.00000000000E+00 -0.27312187247E+04  0.27312187247E+04  0.00000000000E+00 0.  1.
    2000013    1    1    2    0    0  0.96189080539E+02  0.93790739712E+03 -0.10771417558E+04  0.17180387035E+04  0.95000000000E+03 0.  0.
   -2000013    1    1    2    0    0 -0.96189080539E+02 -0.93790739712E+03 -0.99781109321E+03  0.16694458969E+04  0.95000000000E+03 0.  0.
<mgrwt>
<rscale>  0 0.26776151E+04</rscale>
<asrwt>0</asrwt>
<pdfrwt beam="2">  1        1 0.42018750E+00 0.26776151E+04</pdfrwt>
<pdfrwt beam="1">  1       -1 0.10096398E+00 0.26776151E+04</pdfrwt>
<totfact> 0.76039849E-01</totfact>
</mgrwt>
</event>
<event>
 4    1  0.2048914E-008  0.2943178E+04  0.7816531E-02  0.8260145E-01
          2   -1    0    0  501    0  0.00000000000E+00  0.00000000000E+00  0.93720277088E+03  0.93720277088E+03  0.00000000000E+00 0.  1.
         -2   -1    0    0    0  501 -0.00000000000E+00 -0.00000000000E+00 -0.23106789956E+04  0.23106789956E+04  0.00000000000E+00 0. -1.
    2000013    1    1    2    0    0 -0.23419737410E+03  0.10877868846E+04 -0.51244330812E+03  0.15502344534E+04  0.95000000000E+03 0.  0.
   -2000013    1    1    2    0    0  0.23419737410E+03 -0.10877868846E+04 -0.86103291662E+03  0.16976473131E+04  0.95000000000E+03 0.  0.
<mgrwt>
<rscale>  0 0.29431784E+04</rscale>
<asrwt>0</asrwt>
<pdfrwt beam="1">  1        2 0.14418504E+00 0.29431784E+04</pdfrwt>
<pdfrwt beam="2">  1       -2 0.35548907E+00 0.29431784E+04</pdfrwt>
<totfact> 0.34190574E-01</totfact>
</mgrwt>
</event>
<event>
 4    1  0.2048914E-008  0.4768122E+04  0.7816531E-02  0.7865307E-01
         -2   -1    0    0    0  501 -0.00000000000E+00  0.00000000000E+00  0.22258427192E+04  0.22258427192E+04  0.00000000000E+00 0. -1.
          2   -1    0    0  501    0  0.00000000000E+00 -0.00000000000E+00 -0.25535260730E+04  0.25535260730E+04  0.00000000000E+00 0.  1.
    2000013    1    1    2    0    0  0.86441307300E+03 -0.12408716777E+04  0.14192108459E+04  0.22811470594E+04  0.95000000000E+03 0.  0.
   -2000013    1    1    2    0    0 -0.86441307300E+03  0.12408716777E+04 -0.17468941997E+04  0.24982217328E+04  0.95000000000E+03 0.  0.
<mgrwt>
<rscale>  0 0.47681222E+04</rscale>
<asrwt>0</asrwt>
<pdfrwt beam="2">  1        2 0.39285016E+00 0.47681222E+04</pdfrwt>
<pdfrwt beam="1">  1       -2 0.34243734E+00 0.47681222E+04</pdfrwt>
<totfact> 0.41709626E-02</totfact>
</mgrwt>
</event>
<event>
 4    1  0.2048914E-008  0.2248633E+04  0.7816531E-02  0.8498454E-01
         -2   -1    0    0    0  501 -0.00000000000E+00  0.00000000000E+00  0.45174037998E+03  0.45174037998E+03  0.00000000000E+00 0. -1.
          2   -1    0    0  501    0  0.00000000000E+00 -0.00000000000E+00 -0.27982614508E+04  0.27982614508E+04  0.00000000000E+00 0.  1.
    2000013    1    1    2    0    0  0.37539548681E+03  0.45856768370E+03 -0.13205247190E+04  0.17313265508E+04  0.95000000000E+03 0.  0.
   -2000013    1    1    2    0    0 -0.37539548681E+03 -0.45856768370E+03 -0.10259963518E+04  0.15186752800E+04  0.95000000000E+03 0.  0.
<mgrwt>
<rscale>  0 0.22486331E+04</rscale>
<asrwt>0</asrwt>
<pdfrwt beam="2">  1        2 0.43050175E+00 0.22486331E+04</pdfrwt>
<pdfrwt beam="1">  1       -2 0.69498522E-01 0.22486331E+04</pdfrwt>
<totfact> 0.39870862E+00</totfact>
</mgrwt>
</event>
<event>
 4    1  0.2048914E-008  0.4825225E+04  0.7816531E-02  0.7856048E-01
          2   -1    0    0  501    0  0.00000000000E+00  0.00000000000E+00  0.30297689260E+04  0.30297689260E+04  0.00000000000E+00 0.  1.
         -2   -1    0    0    0  501 -0.00000000000E+00 -0.00000000000E+00 -0.19211691454E+04  0.19211691454E+04  0.00000000000E+00 0. -1.
    2000013    1    1    2    0    0 -0.21696118689E+04 -0.24126618522E+03  0.95534573459E+03  0.25652700650E+04  0.95000000000E+03 0.  0.
   -2000013    1    1    2    0    0  0.21696118689E+04  0.24126618522E+03  0.15325404606E+03  0.23856680064E+04  0.95000000000E+03 0.  0.
<mgrwt>
<rscale>  0 0.48252248E+04</rscale>
<asrwt>0</asrwt>
<pdfrwt beam="1">  1        2 0.46611830E+00 0.48252248E+04</pdfrwt>
<pdfrwt beam="2">  1       -2 0.29556448E+00 0.48252248E+04</pdfrwt>
<totfact> 0.41626826E-02</totfact>
</mgrwt>
</event>
<event>
 4    1  0.2048914E-008  0.3227635E+04  0.7816531E-02  0.8181557E-01
          2   -1    0    0  501    0  0.00000000000E+00  0.00000000000E+00  0.12808714111E+04  0.12808714111E+04  0.00000000000E+00 0.  1.
         -2   -1    0    0    0  501 -0.00000000000E+00 -0.00000000000E+00 -0.20333080844E+04  0.20333080844E+04  0.00000000000E+00 0. -1.
    2000013    1    1    2    0    0 -0.23667001133E+03 -0.10871573137E+04 -0.10756454435E+04  0.18158845886E+04  0.95000000000E+03 0.  0.
   -2000013    1    1    2    0    0  0.23667001133E+03  0.10871573137E+04  0.32320877019E+03  0.14982949070E+04  0.95000000000E+03 0.  0.
<mgrwt>
<rscale>  0 0.32276345E+04</rscale>
<asrwt>0</asrwt>
<pdfrwt beam="1">  1        2 0.19705714E+00 0.32276345E+04</pdfrwt>
<pdfrwt beam="2">  1       -2 0.31281663E+00 0.32276345E+04</pdfrwt>
<totfact> 0.37782104E-01</totfact>
</mgrwt>
</event>
<event>
 4    1  0.2048914E-008  0.3107424E+04  0.7816531E-02  0.8213703E-01
         -2   -1    0    0    0  501 -0.00000000000E+00  0.00000000000E+00  0.71234987654E+03  0.71234987654E+03  0.00000000000E+00 0. -1.
          2   -1    0    0  501    0  0.00000000000E+00 -0.00000000000E+00 -0.33888132901E+04  0.33888132901E+04  0.00000000000E+00 0.  1.
    2000013    1    1    2    0    0 -0.11163019531E+04  0.49408848970E+03 -0.15307013085E+04  0.21761893259E+04  0.95000000000E+03 0.  0.
   -2000013    1    1    2    0    0  0.11163019531E+04 -0.49408848970E+03 -0.11457621050E+04  0.19249738408E+04  0.95000000000E+03 0.  0.
<mgrwt>
<rscale>  0 0.31074238E+04</rscale>
<asrwt>0</asrwt>
<pdfrwt beam="2">  1        2 0.52135591E+00 0.31074238E+04</pdfrwt>
<pdfrwt beam="1">  1       -2 0.10959229E+00 0.31074238E+04</pdfrwt>
<totfact> 0.54526907E-01</totfact>
</mgrwt>
</event>
<event>
 4    1  0.2048914E-008  0.2444961E+04  0.7816531E-02  0.8422860E-01
          2   -1    0    0  501    0  0.00000000000E+00  0.00000000000E+00  0.90579048139E+03  0.90579048139E+03  0.00000000000E+00 0.  1.
         -2   -1    0    0    0  501 -0.00000000000E+00 -0.00000000000E+00 -0.16498947904E+04  0.16498947904E+04  0.00000000000E+00 0. -1.
    2000013    1    1    2    0    0  0.60118811926E+03 -0.32270026000E+01  0.12981759990E+03  0.11317200084E+04  0.95000000000E+03 0.  0.
   -2000013    1    1    2    0    0 -0.60118811926E+03  0.32270026000E+01 -0.87392190888E+03  0.14239652633E+04  0.95000000000E+03 0.  0.
<mgrwt>
<rscale>  0 0.24449613E+04</rscale>
<asrwt>0</asrwt>
<pdfrwt beam="1">  1        2 0.13935238E+00 0.24449613E+04</pdfrwt>
<pdfrwt beam="2">  1       -2 0.25382997E+00 0.24449613E+04</pdfrwt>
<totfact> 0.15844912E+00</totfact>
</mgrwt>
</event>
<event>
 4    1  0.2048914E-008  0.2031058E+04  0.7816531E-02  0.8592236E-01
          2   -1    0    0  501    0  0.00000000000E+00  0.00000000000E+00  0.54268479100E+04  0.54268479100E+04  0.00000000000E+00 0.  1.
         -2   -1    0    0    0  501 -0.00000000000E+00 -0.00000000000E+00 -0.19003642312E+03  0.19003642312E+03  0.00000000000E+00 0. -1.
    2000013    1    1    2    0    0 -0.36490467407E+02 -0.34662943458E+03  0.23818749339E+04  0.25879164824E+04  0.95000000000E+03 0.  0.
   -2000013    1    1    2    0    0  0.36490467407E+02  0.34662943458E+03  0.28549365530E+04  0.30289678508E+04  0.95000000000E+03 0.  0.
<mgrwt>
<rscale>  0 0.20310576E+04</rscale>
<asrwt>0</asrwt>
<pdfrwt beam="1">  1        2 0.83489956E+00 0.20310576E+04</pdfrwt>
<pdfrwt beam="2">  1       -2 0.29236377E-01 0.20310576E+04</pdfrwt>
<totfact> 0.83453909E-02</totfact>
</mgrwt>
</event>
<event>
 4    1  0.2048914E-008  0.2500957E+04  0.7816531E-02  0.8402645E-01
         -2   -1    0    0    0  501 -0.00000000000E+00  0.00000000000E+00  0.38843517397E+03  0.38843517397E+03  0.00000000000E+00 0. -1.
          2   -1    0    0  501    0  0.00000000000E+00 -0.00000000000E+00 -0.40256316294E+04  0.40256316294E+04  0.00000000000E+00 0.  1.
    2000013    1    1    2    0    0 -0.62829592108E+03 -0.44544639199E+03 -0.13582921787E+04  0.18277406532E+04  0.95000000000E+03 0.  0.
   -2000013    1    1    2    0    0  0.62829592108E+03  0.44544639199E+03 -0.22789042767E+04  0.25863261502E+04  0.95000000000E+03 0.  0.
<mgrwt>
<rscale>  0 0.25009574E+04</rscale>
<asrwt>0</asrwt>
<pdfrwt beam="2">  1        2 0.61932796E+00 0.25009574E+04</pdfrwt>
<pdfrwt beam="1">  1       -2 0.59759256E-01 0.25009574E+04</pdfrwt>
<totfact> 0.76230724E-01</totfact>
</mgrwt>
</event>
<event>
 4    1  0.2048914E-008  0.3138724E+04  0.7816531E-02  0.8205190E-01
         -2   -1    0    0    0  501 -0.00000000000E+00  0.00000000000E+00  0.67799067728E+03  0.67799067728E+03  0.00000000000E+00 0. -1.
          2   -1    0    0  501    0  0.00000000000E+00 -0.00000000000E+00 -0.36326421525E+04  0.36326421525E+04  0.00000000000E+00 0.  1.
    2000013    1    1    2    0    0  0.40742778731E+03  0.11777550198E+04 -0.15946121408E+04  0.22357084264E+04  0.95000000000E+03 0.  0.
   -2000013    1    1    2    0    0 -0.40742778731E+03 -0.11777550198E+04 -0.13600393345E+04  0.20749244034E+04  0.95000000000E+03 0.  0.
<mgrwt>
<rscale>  0 0.31387243E+04</rscale>
<asrwt>0</asrwt>
<pdfrwt beam="2">  1        2 0.55886802E+00 0.31387243E+04</pdfrwt>
<pdfrwt beam="1">  1       -2 0.10430626E+00 0.31387243E+04</pdfrwt>
<totfact> 0.41282544E-01</totfact>
</mgrwt>
</event>
<event>
 4    1  0.2048914E-008  0.2639936E+04  0.7816531E-02  0.8354761E-01
          2   -1    0    0  501    0  0.00000000000E+00  0.00000000000E+00  0.24523134265E+04  0.24523134265E+04  0.00000000000E+00 0.  1.
         -2   -1    0    0    0  501 -0.00000000000E+00 -0.00000000000E+00 -0.71047816148E+03  0.71047816148E+03  0.00000000000E+00 0. -1.
    2000013    1    1    2    0    0 -0.76755236725E+03 -0.45923379820E+03  0.63195775361E+03  0.14497940958E+04  0.95000000000E+03 0.  0.
   -2000013    1    1    2    0    0  0.76755236725E+03  0.45923379820E+03  0.11098775114E+04  0.17129974922E+04  0.95000000000E+03 0.  0.
<mgrwt>
<rscale>  0 0.26399357E+04</rscale>
<asrwt>0</asrwt>
<pdfrwt beam="1">  1        2 0.37727898E+00 0.26399357E+04</pdfrwt>
<pdfrwt beam="2">  1       -2 0.10930433E+00 0.26399357E+04</pdfrwt>
<totfact> 0.21815087E+00</totfact>
</mgrwt>
</event>
<event>
 4    1  0.2048914E-008  0.2839537E+04  0.7816531E-02  0.8291098E-01
          2   -1    0    0  501    0  0.00000000000E+00  0.00000000000E+00  0.89474807580E+03  0.89474807580E+03  0.00000000000E+00 0.  1.
         -2   -1    0    0    0  501 -0.00000000000E+00 -0.00000000000E+00 -0.22528600410E+04  0.22528600410E+04  0.00000000000E+00 0. -1.
    2000013    1    1    2    0    0 -0.78507517985E+03 -0.60380543487E+03 -0.27583523440E+03  0.13998246739E+04  0.95000000000E+03 0.  0.
   -2000013    1    1    2    0    0  0.78507517985E+03  0.60380543487E+03 -0.10822767308E+04  0.17477834429E+04  0.95000000000E+03 0.  0.
<mgrwt>
<rscale>  0 0.28395367E+04</rscale>
<asrwt>0</asrwt>
<pdfrwt beam="1">  1        2 0.13765355E+00 0.28395367E+04</pdfrwt>
<pdfrwt beam="2">  1       -2 0.34659385E+00 0.28395367E+04</pdfrwt>
<totfact> 0.41910797E-01</totfact>
</mgrwt>
</event>
<event>
 4    1  0.2048914E-008  0.2369118E+04  0.7816531E-02  0.8451157E-01
          2   -1    0    0  501    0  0.00000000000E+00  0.00000000000E+00  0.27837813632E+04  0.27837813632E+04  0.00000000000E+00 0.  1.
         -2   -1    0    0    0  501 -0.00000000000E+00 -0.00000000000E+00 -0.50405539354E+03  0.50405539354E+03  0.00000000000E+00 0. -1.
    2000013    1    1    2    0    0  0.48777687985E+03 -0.25751788267E+03  0.52477590833E+03  0.12174282313E+04  0.95000000000E+03 0.  0.
   -2000013    1    1    2    0    0 -0.48777687985E+03  0.25751788267E+03  0.17549500613E+04  0.20704085254E+04  0.95000000000E+03 0.  0.
<mgrwt>
<rscale>  0 0.23691180E+04</rscale>
<asrwt>0</asrwt>
<pdfrwt beam="1">  1        2 0.42827405E+00 0.23691180E+04</pdfrwt>
<pdfrwt beam="2">  1       -2 0.77546985E-01 0.23691180E+04</pdfrwt>
<totfact> 0.31613088E+00</totfact>
</mgrwt>
</event>
<event>
 4    1  0.2048914E-008  0.2085939E+04  0.7816531E-02  0.8567463E-01
          2   -1    0    0  501    0  0.00000000000E+00  0.00000000000E+00  0.14178809882E+04  0.14178809882E+04  0.00000000000E+00 0.  1.
         -2   -1    0    0    0  501 -0.00000000000E+00 -0.00000000000E+00 -0.76719095879E+03  0.76719095879E+03  0.00000000000E+00 0. -1.
    2000013    1    1    2    0    0 -0.38036369964E+03  0.91985482531E+02  0.51316353222E+03  0.11484662310E+04  0.95000000000E+03 0.  0.
   -2000013    1    1    2    0    0  0.38036369964E+03 -0.91985482531E+02  0.13752649722E+03  0.10366057160E+04  0.95000000000E+03 0.  0.
<mgrwt>
<rscale>  0 0.20859391E+04</rscale>
<asrwt>0</asrwt>
<pdfrwt beam="1">  1        2 0.21813554E+00 0.20859391E+04</pdfrwt>
<pdfrwt beam="2">  1       -2 0.11802938E+00 0.20859391E+04</pdfrwt>
<totfact> 0.72155864E+00</totfact>
</mgrwt>
</event>
<event>
 4    1  0.2048914E-008  0.2372110E+04  0.7816531E-02  0.8450020E-01
          2   -1    0    0  501    0  0.00000000000E+00  0.00000000000E+00  0.40645696551E+04  0.40645696551E+04  0.00000000000E+00 0.  1.
         -2   -1    0    0    0  501 -0.00000000000E+00 -0.00000000000E+00 -0.34609483702E+03  0.34609483702E+03  0.00000000000E+00 0. -1.
    2000013    1    1    2    0    0 -0.25059543349E+03 -0.91546067069E+02  0.30828307641E+04  0.32369004114E+04  0.95000000000E+03 0.  0.
   -2000013    1    1    2    0    0  0.25059543349E+03  0.91546067069E+02  0.63564405399E+03  0.11737640807E+04  0.95000000000E+03 0.  0.
<mgrwt>
<rscale>  0 0.23721101E+04</rscale>
<asrwt>0</asrwt>
<pdfrwt beam="1">  1        2 0.62531838E+00 0.23721101E+04</pdfrwt>
<pdfrwt beam="2">  1       -2 0.53245362E-01 0.23721101E+04</pdfrwt>
<totfact> 0.91265832E-01</totfact>
</mgrwt>
</event>
<event>
 4    1  0.2048914E-008  0.2529005E+04  0.7816531E-02  0.8392725E-01
          2   -1    0    0  501    0  0.00000000000E+00  0.00000000000E+00  0.17363636756E+04  0.17363636756E+04  0.00000000000E+00 0.  1.
         -2   -1    0    0    0  501 -0.00000000000E+00 -0.00000000000E+00 -0.92087041635E+03  0.92087041635E+03  0.00000000000E+00 0. -1.
    2000013    1    1    2    0    0 -0.58446273705E+02  0.77428048776E+03  0.72909655274E+03  0.14272379002E+04  0.95000000000E+03 0.  0.
   -2000013    1    1    2    0    0  0.58446273705E+02 -0.77428048776E+03  0.86396706461E+02  0.12299961917E+04  0.95000000000E+03 0.  0.
<mgrwt>
<rscale>  0 0.25290045E+04</rscale>
<asrwt>0</asrwt>
<pdfrwt beam="1">  1        2 0.26713287E+00 0.25290045E+04</pdfrwt>
<pdfrwt beam="2">  1       -2 0.14167237E+00 0.25290045E+04</pdfrwt>
<totfact> 0.29005857E+00</totfact>
</mgrwt>
</event>
<event>
 4    1  0.2048914E-008  0.3529284E+04  0.7816531E-02  0.8106885E-01
          2   -1    0    0  501    0  0.00000000000E+00  0.00000000000E+00  0.10708546185E+04  0.10708546185E+04  0.00000000000E+00 0. -1.
         -2   -1    0    0    0  501 -0.00000000000E+00 -0.00000000000E+00 -0.29079217360E+04  0.29079217360E+04  0.00000000000E+00 0.  1.
    2000013    1    1    2    0    0  0.88542894117E+02 -0.52479768630E+03  0.64691920498E+03  0.12665926391E+04  0.95000000000E+03 0.  0.
   -2000013    1    1    2    0    0 -0.88542894117E+02  0.52479768630E+03 -0.24839863225E+04  0.27121837154E+04  0.95000000000E+03 0.  0.
<mgrwt>
<rscale>  0 0.35292840E+04</rscale>
<asrwt>0</asrwt>
<pdfrwt beam="1">  1        2 0.16474686E+00 0.35292840E+04</pdfrwt>
<pdfrwt beam="2">  1       -2 0.44737257E+00 0.35292840E+04</pdfrwt>
<totfact> 0.67195150E-02</totfact>
</mgrwt>
</event>
<event>
 4    1  0.2048914E-008  0.2013512E+04  0.7816531E-02  0.8600329E-01
          2   -1    0    0  501    0  0.00000000000E+00  0.00000000000E+00  0.21981751248E+04  0.21981751248E+04  0.00000000000E+00 0. -1.
         -2   -1    0    0    0  501 -0.00000000000E+00 -0.00000000000E+00 -0.46109040325E+03  0.46109040325E+03  0.00000000000E+00 0.  1.
    2000013    1    1    2    0    0 -0.27106660045E+03 -0.15584903562E+03  0.71627970809E+03  0.12301717945E+04  0.95000000000E+03 0.  0.
   -2000013    1    1    2    0    0  0.27106660045E+03  0.15584903562E+03  0.10208050135E+04  0.14290937336E+04  0.95000000000E+03 0.  0.
<mgrwt>
<rscale>  0 0.20135118E+04</rscale>
<asrwt>0</asrwt>
<pdfrwt beam="1">  1        2 0.33818078E+00 0.20135118E+04</pdfrwt>
<pdfrwt beam="2">  1       -2 0.70936987E-01 0.20135118E+04</pdfrwt>
<totfact> 0.86733853E+00</totfact>
</mgrwt>
</event>
<event>
 4    1  0.2048914E-008  0.2795580E+04  0.7816531E-02  0.8304642E-01
          2   -1    0    0  501    0  0.00000000000E+00  0.00000000000E+00  0.18547974223E+04  0.18547974223E+04  0.00000000000E+00 0. -1.
         -2   -1    0    0    0  501 -0.00000000000E+00 -0.00000000000E+00 -0.10533856220E+04  0.10533856220E+04  0.00000000000E+00 0.  1.
    2000013    1    1    2    0    0 -0.16888410296E+03 -0.10064118249E+04  0.50437080449E+03  0.14826585952E+04  0.95000000000E+03 0.  0.
   -2000013    1    1    2    0    0  0.16888410296E+03  0.10064118249E+04  0.29704099577E+03  0.14255244490E+04  0.95000000000E+03 0.  0.
<mgrwt>
<rscale>  0 0.27955800E+04</rscale>
<asrwt>0</asrwt>
<pdfrwt beam="1">  1        2 0.28535345E+00 0.27955800E+04</pdfrwt>
<pdfrwt beam="2">  1       -2 0.16205933E+00 0.27955800E+04</pdfrwt>
<totfact> 0.17036597E+00</totfact>
</mgrwt>
</event>
<event>
 4    1  0.2048914E-008  0.2097081E+04  0.7816531E-02  0.8562530E-01
          2   -1    0    0  501    0  0.00000000000E+00  0.00000000000E+00  0.15626075925E+04  0.15626075925E+04  0.00000000000E+00 0.  1.
         -2   -1    0    0    0  501 -0.00000000000E+00 -0.00000000000E+00 -0.70359126151E+03  0.70359126151E+03  0.00000000000E+00 0. -1.
    2000013    1    1    2    0    0 -0.97740865439E+02  0.28866940909E+03  0.80920762041E+02  0.10009652713E+04  0.95000000000E+03 0.  0.
   -2000013    1    1    2    0    0  0.97740865439E+02 -0.28866940909E+03  0.77809556896E+03  0.12652335828E+04  0.95000000000E+03 0.  0.
<mgrwt>
<rscale>  0 0.20970809E+04</rscale>
<asrwt>0</asrwt>
<pdfrwt beam="1">  1        2 0.24040117E+00 0.20970809E+04</pdfrwt>
<pdfrwt beam="2">  1       -2 0.10824481E+00 0.20970809E+04</pdfrwt>
<totfact> 0.73701809E+00</totfact>
</mgrwt>
</event>
<event>
 4    1  0.2048914E-008  0.2331164E+04  0.7816531E-02  0.8465734E-01
          2   -1    0    0  501    0  0.00000000000E+00  0.00000000000E+00  0.23479547589E+04  0.23479547589E+04  0.00000000000E+00 0.  1.
         -2   -1    0    0    0  501 -0.00000000000E+00 -0.00000000000E+00 -0.57862346036E+03  0.57862346036E+03  0.00000000000E+00 0. -1.
    2000013    1    1    2    0    0  0.71605692317E+02  0.66291251140E+03  0.75002959532E+03  0.13818917348E+04  0.95000000000E+03 0.  0.
   -2000013    1    1    2    0    0 -0.71605692317E+02 -0.66291251140E+03  0.10193017032E+04  0.15446864844E+04  0.95000000000E+03 0.  0.
<mgrwt>
<rscale>  0 0.23311643E+04</rscale>
<asrwt>0</asrwt>
<pdfrwt beam="1">  1        2 0.36122380E+00 0.23311643E+04</pdfrwt>
<pdfrwt beam="2">  1       -2 0.89018995E-01 0.23311643E+04</pdfrwt>
<totfact> 0.41724825E+00</totfact>
</mgrwt>
</event>
<event>
 4    1  0.2048914E-008  0.2258139E+04  0.7816531E-02  0.8494612E-01
          2   -1    0    0  501    0  0.00000000000E+00  0.00000000000E+00  0.15412626127E+04  0.15412626127E+04  0.00000000000E+00 0.  1.
         -2   -1    0    0    0  501 -0.00000000000E+00 -0.00000000000E+00 -0.82711286025E+03  0.82711286025E+03  0.00000000000E+00 0. -1.
    2000013    1    1    2    0    0 -0.85692368079E+02 -0.55652613696E+03  0.11058360463E+03  0.11098618187E+04  0.95000000000E+03 0.  0.
   -2000013    1    1    2    0    0  0.85692368079E+02  0.55652613696E+03  0.60356614781E+03  0.12585136542E+04  0.95000000000E+03 0.  0.
<mgrwt>
<rscale>  0 0.22581392E+04</rscale>
<asrwt>0</asrwt>
<pdfrwt beam="1">  1        2 0.23711732E+00 0.22581392E+04</pdfrwt>
<pdfrwt beam="2">  1       -2 0.12724813E+00 0.22581392E+04</pdfrwt>
<totfact> 0.50185951E+00</totfact>
</mgrwt>
</event>
<event>
 4    1  0.2048914E-008  0.2246523E+04  0.7816531E-02  0.8499310E-01
         -2   -1    0    0    0  501 -0.00000000000E+00  0.00000000000E+00  0.11880867946E+04  0.11880867946E+04  0.00000000000E+00 0. -1.
          2   -1    0    0  501    0  0.00000000000E+00 -0.00000000000E+00 -0.10619731956E+04  0.10619731956E+04  0.00000000000E+00 0.  1.
    2000013    1    1    2    0    0  0.11647471908E+03 -0.47369190615E+03  0.41183768209E+03  0.11445788127E+04  0.95000000000E+03 0.  0.
   -2000013    1    1    2    0    0 -0.11647471908E+03  0.47369190615E+03 -0.28572408311E+03  0.11054811775E+04  0.95000000000E+03 0.  0.
<mgrwt>
<rscale>  0 0.22465229E+04</rscale>
<asrwt>0</asrwt>
<pdfrwt beam="2">  1        2 0.16338049E+00 0.22465229E+04</pdfrwt>
<pdfrwt beam="1">  1       -2 0.18278258E+00 0.22465229E+04</pdfrwt>
<totfact> 0.36341797E+00</totfact>
</mgrwt>
</event>
<event>
 4    1  0.2048914E-008  0.2970471E+04  0.7816531E-02  0.8252214E-01
          2   -1    0    0  501    0  0.00000000000E+00  0.00000000000E+00  0.14661379780E+04  0.14661379780E+04  0.00000000000E+00 0.  1.
         -2   -1    0    0    0  501 -0.00000000000E+00 -0.00000000000E+00 -0.15045813973E+04  0.15045813973E+04  0.00000000000E+00 0. -1.
    2000013    1    1    2    0    0 -0.84080667483E+02  0.11262024020E+04 -0.18663500693E+03  0.14875261459E+04  0.95000000000E+03 0.  0.
   -2000013    1    1    2    0    0  0.84080667483E+02 -0.11262024020E+04  0.14819158763E+03  0.14831932293E+04  0.95000000000E+03 0.  0.
<mgrwt>
<rscale>  0 0.29704706E+04</rscale>
<asrwt>0</asrwt>
<pdfrwt beam="1">  1        2 0.22555969E+00 0.29704706E+04</pdfrwt>
<pdfrwt beam="2">  1       -2 0.23147406E+00 0.29704706E+04</pdfrwt>
<totfact> 0.95293567E-01</totfact>
</mgrwt>
</event>
<event>
 4    1  0.2048914E-008  0.2509532E+04  0.7816531E-02  0.8399597E-01
         -2   -1    0    0    0  501 -0.00000000000E+00  0.00000000000E+00  0.10832844728E+04  0.10832844728E+04  0.00000000000E+00 0. -1.
          2   -1    0    0  501    0  0.00000000000E+00 -0.00000000000E+00 -0.14533931659E+04  0.14533931659E+04  0.00000000000E+00 0.  1.
    2000013    1    1    2    0    0 -0.14768919724E+03  0.75223577367E+03 -0.47848298693E+03  0.13111509169E+04  0.95000000000E+03 0.  0.
   -2000013    1    1    2    0    0  0.14768919724E+03 -0.75223577367E+03  0.10837429389E+03  0.12255267218E+04  0.95000000000E+03 0.  0.
<mgrwt>
<rscale>  0 0.25095324E+04</rscale>
<asrwt>0</asrwt>
<pdfrwt beam="2">  1        2 0.22359895E+00 0.25095324E+04</pdfrwt>
<pdfrwt beam="1">  1       -2 0.16665915E+00 0.25095324E+04</pdfrwt>
<totfact> 0.27078710E+00</totfact>
</mgrwt>
</event>
<event>
 4    1  0.2048914E-008  0.3524421E+04  0.7816531E-02  0.8108027E-01
         -2   -1    0    0    0  501 -0.00000000000E+00  0.00000000000E+00  0.11256531466E+04  0.11256531466E+04  0.00000000000E+00 0. -1.
          2   -1    0    0  501    0  0.00000000000E+00 -0.00000000000E+00 -0.27587410062E+04  0.27587410062E+04  0.00000000000E+00 0.  1.
    2000013    1    1    2    0    0  0.10290900042E+04  0.96463639603E+03 -0.30748566946E+03  0.17281773781E+04  0.95000000000E+03 0.  0.
   -2000013    1    1    2    0    0 -0.10290900042E+04 -0.96463639603E+03 -0.13256021901E+04  0.21562167747E+04  0.95000000000E+03 0.  0.
<mgrwt>
<rscale>  0 0.35244208E+04</rscale>
<asrwt>0</asrwt>
<pdfrwt beam="2">  1        2 0.42442169E+00 0.35244208E+04</pdfrwt>
<pdfrwt beam="1">  1       -2 0.17317741E+00 0.35244208E+04</pdfrwt>
<totfact> 0.40627251E-01</totfact>
</mgrwt>
</event>
<event>
 4    1  0.2048914E-008  0.3351131E+04  0.7816531E-02  0.8150006E-01
         -2   -1    0    0    0  501 -0.00000000000E+00  0.00000000000E+00  0.75544446973E+03  0.75544446973E+03  0.00000000000E+00 0. -1.
          2   -1    0    0  501    0  0.00000000000E+00 -0.00000000000E+00 -0.37163812046E+04  0.37163812046E+04  0.00000000000E+00 0.  1.
    2000013    1    1    2    0    0 -0.10128485022E+04  0.68714827483E+03 -0.62916851646E+03  0.16722403721E+04  0.95000000000E+03 0.  0.
   -2000013    1    1    2    0    0  0.10128485022E+04 -0.68714827483E+03 -0.23317682184E+04  0.27995853022E+04  0.95000000000E+03 0.  0.
<mgrwt>
<rscale>  0 0.33511309E+04</rscale>
<asrwt>0</asrwt>
<pdfrwt beam="2">  1        2 0.57175096E+00 0.33511309E+04</pdfrwt>
<pdfrwt beam="1">  1       -2 0.11622223E+00 0.33511309E+04</pdfrwt>
<totfact> 0.27078048E-01</totfact>
</mgrwt>
</event>
<event>
 4    1  0.2048914E-008  0.2209689E+04  0.7816531E-02  0.8514406E-01
          2   -1    0    0  501    0  0.00000000000E+00  0.00000000000E+00  0.19771535519E+04  0.19771535519E+04  0.00000000000E+00 0.  1.
         -2   -1    0    0    0  501 -0.00000000000E+00 -0.00000000000E+00 -0.61739330977E+03  0.61739330977E+03  0.00000000000E+00 0. -1.
    2000013    1    1    2    0    0  0.10790061003E+03 -0.50529450057E+03  0.41415386377E+03  0.11580105772E+04  0.95000000000E+03 0.  0.
   -2000013    1    1    2    0    0 -0.10790061003E+03  0.50529450057E+03  0.94560637839E+03  0.14365362845E+04  0.95000000000E+03 0.  0.
<mgrwt>
<rscale>  0 0.22096890E+04</rscale>
<asrwt>0</asrwt>
<pdfrwt beam="1">  1        2 0.30417747E+00 0.22096890E+04</pdfrwt>
<pdfrwt beam="2">  1       -2 0.94983587E-01 0.22096890E+04</pdfrwt>
<totfact> 0.58580076E+00</totfact>
</mgrwt>
</event>
<event>
 4    1  0.2048914E-008  0.3535294E+04  0.7816531E-02  0.8105476E-01
         -2   -1    0    0    0  501 -0.00000000000E+00  0.00000000000E+00  0.10079968774E+04  0.10079968774E+04  0.00000000000E+00 0. -1.
          2   -1    0    0  501    0  0.00000000000E+00 -0.00000000000E+00 -0.30997872825E+04  0.30997872825E+04  0.00000000000E+00 0.  1.
    2000013    1    1    2    0    0 -0.10556606731E+03  0.14087078764E+04 -0.15988518572E+04  0.23354719731E+04  0.95000000000E+03 0.  0.
   -2000013    1    1    2    0    0  0.10556606731E+03 -0.14087078764E+04 -0.49293854791E+03  0.17723121869E+04  0.95000000000E+03 0.  0.
<mgrwt>
<rscale>  0 0.35352940E+04</rscale>
<asrwt>0</asrwt>
<pdfrwt beam="2">  1        2 0.47689034E+00 0.35352940E+04</pdfrwt>
<pdfrwt beam="1">  1       -2 0.15507645E+00 0.35352940E+04</pdfrwt>
<totfact> 0.33785379E-01</totfact>
</mgrwt>
</event>
<event>
 4    1  0.2048914E-008  0.2306339E+04  0.7816531E-02  0.8475426E-01
          2   -1    0    0  501    0  0.00000000000E+00  0.00000000000E+00  0.87616368465E+03  0.87616368465E+03  0.00000000000E+00 0.  1.
         -2   -1    0    0    0  501 -0.00000000000E+00 -0.00000000000E+00 -0.15177534613E+04  0.15177534613E+04  0.00000000000E+00 0. -1.
    2000013    1    1    2    0    0 -0.52844837176E+03  0.38368706543E+03 -0.29094493257E+03  0.11889585357E+04  0.95000000000E+03 0.  0.
   -2000013    1    1    2    0    0  0.52844837176E+03 -0.38368706543E+03 -0.35064484410E+03  0.12049586103E+04  0.95000000000E+03 0.  0.
<mgrwt>
<rscale>  0 0.23063395E+04</rscale>
<asrwt>0</asrwt>
<pdfrwt beam="1">  1        2 0.13479441E+00 0.23063395E+04</pdfrwt>
<pdfrwt beam="2">  1       -2 0.23350053E+00 0.23063395E+04</pdfrwt>
<totfact> 0.22419185E+00</totfact>
</mgrwt>
</event>
<event>
 4    1  0.2048914E-008  0.2165044E+04  0.7816531E-02  0.8533120E-01
          4   -1    0    0  501    0  0.00000000000E+00  0.00000000000E+00  0.15048539676E+04  0.15048539676E+04  0.00000000000E+00 0. -1.
         -4   -1    0    0    0  501 -0.00000000000E+00 -0.00000000000E+00 -0.77871566024E+03  0.77871566024E+03  0.00000000000E+00 0.  1.
    2000013    1    1    2    0    0 -0.40401687035E+03  0.26484022749E+03  0.16299150882E+03  0.10781633501E+04  0.95000000000E+03 0.  0.
   -2000013    1    1    2    0    0  0.40401687035E+03 -0.26484022749E+03  0.56314679853E+03  0.12054062777E+04  0.95000000000E+03 0.  0.
<mgrwt>
<rscale>  0 0.21650435E+04</rscale>
<asrwt>0</asrwt>
<pdfrwt beam="1">  1        4 0.23151599E+00 0.21650435E+04</pdfrwt>
<pdfrwt beam="2">  1       -4 0.11980241E+00 0.21650435E+04</pdfrwt>
<totfact> 0.80310801E-02</totfact>
</mgrwt>
</event>
<event>
 4    1  0.2048914E-008  0.2343306E+04  0.7816531E-02  0.8461039E-01
          2   -1    0    0  501    0  0.00000000000E+00  0.00000000000E+00  0.20063053013E+04  0.20063053013E+04  0.00000000000E+00 0.  1.
         -2   -1    0    0    0  501 -0.00000000000E+00 -0.00000000000E+00 -0.68422847411E+03  0.68422847411E+03  0.00000000000E+00 0. -1.
    2000013    1    1    2    0    0 -0.27798916127E+03 -0.55217291154E+03  0.32024344347E+03  0.11778067588E+04  0.95000000000E+03 0.  0.
   -2000013    1    1    2    0    0  0.27798916127E+03  0.55217291154E+03  0.10018333837E+04  0.15127270166E+04  0.95000000000E+03 0.  0.
<mgrwt>
<rscale>  0 0.23433064E+04</rscale>
<asrwt>0</asrwt>
<pdfrwt beam="1">  1        2 0.30866235E+00 0.23433064E+04</pdfrwt>
<pdfrwt beam="2">  1       -2 0.10526592E+00 0.23433064E+04</pdfrwt>
<totfact> 0.43742705E+00</totfact>
</mgrwt>
</event>
<event>
 4    1  0.2048914E-008  0.2473905E+04  0.7816531E-02  0.8412341E-01
         -2   -1    0    0    0  501 -0.00000000000E+00  0.00000000000E+00  0.12051489691E+04  0.12051489691E+04  0.00000000000E+00 0. -1.
          2   -1    0    0  501    0  0.00000000000E+00 -0.00000000000E+00 -0.12695958254E+04  0.12695958254E+04  0.00000000000E+00 0.  1.
    2000013    1    1    2    0    0 -0.59734403197E+03  0.34616442754E+03  0.35636993847E+03  0.12272527191E+04  0.95000000000E+03 0.  0.
   -2000013    1    1    2    0    0  0.59734403197E+03 -0.34616442754E+03 -0.42081679480E+03  0.12474920754E+04  0.95000000000E+03 0.  0.
<mgrwt>
<rscale>  0 0.24739055E+04</rscale>
<asrwt>0</asrwt>
<pdfrwt beam="2">  1        2 0.19532243E+00 0.24739055E+04</pdfrwt>
<pdfrwt beam="1">  1       -2 0.18540753E+00 0.24739055E+04</pdfrwt>
<totfact> 0.25630289E+00</totfact>
</mgrwt>
</event>
<event>
 4    1  0.2048914E-008  0.2100476E+04  0.7816531E-02  0.8561034E-01
         -2   -1    0    0    0  501 -0.00000000000E+00  0.00000000000E+00  0.15922831707E+04  0.15922831707E+04  0.00000000000E+00 0. -1.
          2   -1    0    0  501    0  0.00000000000E+00 -0.00000000000E+00 -0.69271605352E+03  0.69271605352E+03  0.00000000000E+00 0.  1.
    2000013    1    1    2    0    0 -0.17428036938E+03 -0.25569306978E+03  0.97704528296E+02  0.10038918109E+04  0.95000000000E+03 0.  0.
   -2000013    1    1    2    0    0  0.17428036938E+03  0.25569306978E+03  0.80186258890E+03  0.12811074134E+04  0.95000000000E+03 0.  0.
<mgrwt>
<rscale>  0 0.21004762E+04</rscale>
<asrwt>0</asrwt>
<pdfrwt beam="2">  1        2 0.10657170E+00 0.21004762E+04</pdfrwt>
<pdfrwt beam="1">  1       -2 0.24496664E+00 0.21004762E+04</pdfrwt>
<totfact> 0.26400319E+00</totfact>
</mgrwt>
</event>
<event>
 4    1  0.2048914E-008  0.2249428E+04  0.7816531E-02  0.8498132E-01
          2   -1    0    0  501    0  0.00000000000E+00  0.00000000000E+00  0.30716935716E+04  0.30716935716E+04  0.00000000000E+00 0.  1.
         -2   -1    0    0    0  501 -0.00000000000E+00 -0.00000000000E+00 -0.41181900644E+03  0.41181900644E+03  0.00000000000E+00 0. -1.
    2000013    1    1    2    0    0 -0.52562705406E+03  0.29239751625E+03  0.13709593024E+04  0.17730791061E+04  0.95000000000E+03 0.  0.
   -2000013    1    1    2    0    0  0.52562705406E+03 -0.29239751625E+03  0.12889152627E+04  0.17104334719E+04  0.95000000000E+03 0.  0.
<mgrwt>
<rscale>  0 0.22494282E+04</rscale>
<asrwt>0</asrwt>
<pdfrwt beam="1">  1        2 0.47256823E+00 0.22494282E+04</pdfrwt>
<pdfrwt beam="2">  1       -2 0.63356772E-01 0.22494282E+04</pdfrwt>
<totfact> 0.32980186E+00</totfact>
</mgrwt>
</event>
<event>
 4    1  0.2048914E-008  0.2171057E+04  0.7816531E-02  0.8530572E-01
          2   -1    0    0  501    0  0.00000000000E+00  0.00000000000E+00  0.11593838788E+04  0.11593838788E+04  0.00000000000E+00 0. -1.
         -2   -1    0    0    0  501 -0.00000000000E+00 -0.00000000000E+00 -0.10163776223E+04  0.10163776223E+04  0.00000000000E+00 0.  1.
    2000013    1    1    2    0    0 -0.50338597262E+03  0.58977174110E+02 -0.66621835120E+02  0.10788022124E+04  0.95000000000E+03 0.  0.
   -2000013    1    1    2    0    0  0.50338597262E+03 -0.58977174110E+02  0.20962809160E+03  0.10969592888E+04  0.95000000000E+03 0.  0.
<mgrwt>
<rscale>  0 0.21710567E+04</rscale>
<asrwt>0</asrwt>
<pdfrwt beam="1">  1        2 0.17836675E+00 0.21710567E+04</pdfrwt>
<pdfrwt beam="2">  1       -2 0.15636579E+00 0.21710567E+04</pdfrwt>
<totfact> 0.49222771E+00</totfact>
</mgrwt>
</event>
<event>
 4    1  0.2048914E-008  0.2448456E+04  0.7816531E-02  0.8421582E-01
         -2   -1    0    0    0  501 -0.00000000000E+00  0.00000000000E+00  0.99253064831E+03  0.99253064831E+03  0.00000000000E+00 0. -1.
          2   -1    0    0  501    0  0.00000000000E+00 -0.00000000000E+00 -0.15100127887E+04  0.15100127887E+04  0.00000000000E+00 0.  1.
    2000013    1    1    2    0    0  0.23795806447E+03  0.65885169585E+03  0.73280077351E+02  0.11826155619E+04  0.95000000000E+03 0.  0.
   -2000013    1    1    2    0    0 -0.23795806447E+03 -0.65885169585E+03 -0.59076221778E+03  0.13199278751E+04  0.95000000000E+03 0.  0.
<mgrwt>
<rscale>  0 0.24484558E+04</rscale>
<asrwt>0</asrwt>
<pdfrwt beam="2">  1        2 0.23230966E+00 0.24484558E+04</pdfrwt>
<pdfrwt beam="1">  1       -2 0.15269702E+00 0.24484558E+04</pdfrwt>
<totfact> 0.32072012E+00</totfact>
</mgrwt>
</event>
<event>
 4    1  0.2048914E-008  0.2213912E+04  0.7816531E-02  0.8512660E-01
          2   -1    0    0  501    0  0.00000000000E+00  0.00000000000E+00  0.10664453998E+04  0.10664453998E+04  0.00000000000E+00 0.  1.
         -2   -1    0    0    0  501 -0.00000000000E+00 -0.00000000000E+00 -0.11490058903E+04  0.11490058903E+04  0.00000000000E+00 0. -1.
    2000013    1    1    2    0    0 -0.21453156198E+03 -0.48262703793E+03  0.16838722162E+03  0.10999122262E+04  0.95000000000E+03 0.  0.
   -2000013    1    1    2    0    0  0.21453156198E+03  0.48262703793E+03 -0.25094771216E+03  0.11155390639E+04  0.95000000000E+03 0.  0.
<mgrwt>
<rscale>  0 0.22139124E+04</rscale>
<asrwt>0</asrwt>
<pdfrwt beam="1">  1        2 0.16406852E+00 0.22139124E+04</pdfrwt>
<pdfrwt beam="2">  1       -2 0.17677014E+00 0.22139124E+04</pdfrwt>
<totfact> 0.39845454E+00</totfact>
</mgrwt>
</event>
<event>
 4    1  0.2048914E-008  0.2467963E+04  0.7816531E-02  0.8414489E-01
          2   -1    0    0  501    0  0.00000000000E+00  0.00000000000E+00  0.13117859963E+04  0.13117859963E+04  0.00000000000E+00 0.  1.
         -2   -1    0    0    0  501 -0.00000000000E+00 -0.00000000000E+00 -0.11607916518E+04  0.11607916518E+04  0.00000000000E+00 0. -1.
    2000013    1    1    2    0    0  0.61336040648E+03  0.12598985792E+03  0.55401543063E+03  0.12655107783E+04  0.95000000000E+03 0.  0.
   -2000013    1    1    2    0    0 -0.61336040648E+03 -0.12598985792E+03 -0.40302108610E+03  0.12070668699E+04  0.95000000000E+03 0.  0.
<mgrwt>
<rscale>  0 0.24679629E+04</rscale>
<asrwt>0</asrwt>
<pdfrwt beam="1">  1        2 0.20181323E+00 0.24679629E+04</pdfrwt>
<pdfrwt beam="2">  1       -2 0.17858333E+00 0.24679629E+04</pdfrwt>
<totfact> 0.26989924E+00</totfact>
</mgrwt>
</event>
<event>
 4    1  0.2048914E-008  0.2249679E+04  0.7816531E-02  0.8498031E-01
         -2   -1    0    0    0  501 -0.00000000000E+00  0.00000000000E+00  0.11083294823E+04  0.11083294823E+04  0.00000000000E+00 0. -1.
          2   -1    0    0  501    0  0.00000000000E+00 -0.00000000000E+00 -0.11415954351E+04  0.11415954351E+04  0.00000000000E+00 0.  1.
    2000013    1    1    2    0    0  0.13462062699E+03  0.50368746847E+03 -0.31822870408E+03  0.11294216605E+04  0.95000000000E+03 0.  0.
   -2000013    1    1    2    0    0 -0.13462062699E+03 -0.50368746847E+03  0.28496275124E+03  0.11205032569E+04  0.95000000000E+03 0.  0.
<mgrwt>
<rscale>  0 0.22496790E+04</rscale>
<asrwt>0</asrwt>
<pdfrwt beam="2">  1        2 0.17563007E+00 0.22496790E+04</pdfrwt>
<pdfrwt beam="1">  1       -2 0.17051223E+00 0.22496790E+04</pdfrwt>
<totfact> 0.39523995E+00</totfact>
</mgrwt>
</event>
<event>
 4    1  0.2048914E-008  0.2366434E+04  0.7816531E-02  0.8452178E-01
         -2   -1    0    0    0  501 -0.00000000000E+00  0.00000000000E+00  0.99500866730E+03  0.99500866730E+03  0.00000000000E+00 0. -1.
          2   -1    0    0  501    0  0.00000000000E+00 -0.00000000000E+00 -0.14070258397E+04  0.14070258397E+04  0.00000000000E+00 0.  1.
    2000013    1    1    2    0    0 -0.59283458605E+03 -0.17201814697E+03 -0.55240455421E+03  0.12604340049E+04  0.95000000000E+03 0.  0.
   -2000013    1    1    2    0    0  0.59283458605E+03  0.17201814697E+03  0.14038738182E+03  0.11416005020E+04  0.95000000000E+03 0.  0.
<mgrwt>
<rscale>  0 0.23664344E+04</rscale>
<asrwt>0</asrwt>
<pdfrwt beam="2">  1        2 0.21646551E+00 0.23664344E+04</pdfrwt>
<pdfrwt beam="1">  1       -2 0.15307826E+00 0.23664344E+04</pdfrwt>
<totfact> 0.36700931E+00</totfact>
</mgrwt>
</event>
<event>
 4    1  0.2048914E-008  0.2946515E+04  0.7816531E-02  0.8259171E-01
         -1   -1    0    0    0  501 -0.00000000000E+00  0.00000000000E+00  0.14084855733E+04  0.14084855733E+04  0.00000000000E+00 0.  1.
          1   -1    0    0  501    0  0.00000000000E+00 -0.00000000000E+00 -0.15410083256E+04  0.15410083256E+04  0.00000000000E+00 0. -1.
    2000013    1    1    2    0    0  0.10914240594E+04  0.26951543395E+03 -0.13069218332E+03  0.14776418691E+04  0.95000000000E+03 0.  0.
   -2000013    1    1    2    0    0 -0.10914240594E+04 -0.26951543395E+03 -0.18305689893E+01  0.14718520297E+04  0.95000000000E+03 0.  0.
<mgrwt>
<rscale>  0 0.29465152E+04</rscale>
<asrwt>0</asrwt>
<pdfrwt beam="2">  1        1 0.23707820E+00 0.29465152E+04</pdfrwt>
<pdfrwt beam="1">  1       -1 0.21669009E+00 0.29465152E+04</pdfrwt>
<totfact> 0.60686261E-01</totfact>
</mgrwt>
</event>
<event>
 4    1  0.2048914E-008  0.2181698E+04  0.7816531E-02  0.8526085E-01
         -2   -1    0    0    0  501 -0.00000000000E+00  0.00000000000E+00  0.92591741108E+03  0.92591741108E+03  0.00000000000E+00 0. -1.
          2   -1    0    0  501    0  0.00000000000E+00 -0.00000000000E+00 -0.12851596362E+04  0.12851596362E+04  0.00000000000E+00 0.  1.
    2000013    1    1    2    0    0  0.40594004114E+03 -0.32024125960E+03 -0.32334011417E+03  0.11288891047E+04  0.95000000000E+03 0.  0.
   -2000013    1    1    2    0    0 -0.40594004114E+03  0.32024125960E+03 -0.35902110918E+02  0.10821879425E+04  0.95000000000E+03 0.  0.
<mgrwt>
<rscale>  0 0.21816981E+04</rscale>
<asrwt>0</asrwt>
<pdfrwt beam="2">  1        2 0.19771687E+00 0.21816981E+04</pdfrwt>
<pdfrwt beam="1">  1       -2 0.14244883E+00 0.21816981E+04</pdfrwt>
<totfact> 0.53005579E+00</totfact>
</mgrwt>
</event>
<event>
 4    1  0.2048914E-008  0.2507359E+04  0.7816531E-02  0.8400369E-01
          2   -1    0    0  501    0  0.00000000000E+00  0.00000000000E+00  0.28269789666E+04  0.28269789666E+04  0.00000000000E+00 0.  1.
         -2   -1    0    0    0  501 -0.00000000000E+00 -0.00000000000E+00 -0.55596883699E+03  0.55596883699E+03  0.00000000000E+00 0. -1.
    2000013    1    1    2    0    0 -0.65131777487E+02  0.78913457762E+03  0.14127883338E+04  0.18776172150E+04  0.95000000000E+03 0.  0.
   -2000013    1    1    2    0    0  0.65131777487E+02 -0.78913457762E+03  0.85822179581E+03  0.15053305886E+04  0.95000000000E+03 0.  0.
<mgrwt>
<rscale>  0 0.25073589E+04</rscale>
<asrwt>0</asrwt>
<pdfrwt beam="1">  1        2 0.43491983E+00 0.25073589E+04</pdfrwt>
<pdfrwt beam="2">  1       -2 0.85533669E-01 0.25073589E+04</pdfrwt>
<totfact> 0.23576007E+00</totfact>
</mgrwt>
</event>
<event>
 4    1  0.2048914E-008  0.2407997E+04  0.7816531E-02  0.8436516E-01
         -2   -1    0    0    0  501 -0.00000000000E+00  0.00000000000E+00  0.49890583959E+03  0.49890583959E+03  0.00000000000E+00 0.  1.
          2   -1    0    0  501    0  0.00000000000E+00 -0.00000000000E+00 -0.29055825564E+04  0.29055825564E+04  0.00000000000E+00 0. -1.
    2000013    1    1    2    0    0 -0.65709912748E+02  0.72624638905E+03 -0.10281123538E+04  0.15783746774E+04  0.95000000000E+03 0.  0.
   -2000013    1    1    2    0    0  0.65709912748E+02 -0.72624638905E+03 -0.13785643630E+04  0.18261137185E+04  0.95000000000E+03 0.  0.
<mgrwt>
<rscale>  0 0.24079968E+04</rscale>
<asrwt>0</asrwt>
<pdfrwt beam="2">  1        2 0.44701271E+00 0.24079968E+04</pdfrwt>
<pdfrwt beam="1">  1       -2 0.76754744E-01 0.24079968E+04</pdfrwt>
<totfact> 0.27174509E+00</totfact>
</mgrwt>
</event>
<event>
 4    1  0.2048914E-008  0.3072767E+04  0.7816531E-02  0.8223252E-01
          2   -1    0    0  501    0  0.00000000000E+00  0.00000000000E+00  0.23735134369E+04  0.23735134369E+04  0.00000000000E+00 0.  1.
         -2   -1    0    0    0  501 -0.00000000000E+00 -0.00000000000E+00 -0.99450643914E+03  0.99450643914E+03  0.00000000000E+00 0. -1.
    2000013    1    1    2    0    0  0.10540287391E+04  0.51904215121E+03  0.99482433247E+03  0.18090209479E+04  0.95000000000E+03 0.  0.
   -2000013    1    1    2    0    0 -0.10540287391E+04 -0.51904215121E+03  0.38418266528E+03  0.15589989281E+04  0.95000000000E+03 0.  0.
<mgrwt>
<rscale>  0 0.30727671E+04</rscale>
<asrwt>0</asrwt>
<pdfrwt beam="1">  1        2 0.36515591E+00 0.30727671E+04</pdfrwt>
<pdfrwt beam="2">  1       -2 0.15300099E+00 0.30727671E+04</pdfrwt>
<totfact> 0.99555183E-01</totfact>
</mgrwt>
</event>
<event>
 4    1  0.2048914E-008  0.2389843E+04  0.7816531E-02  0.8443316E-01
          2   -1    0    0  501    0  0.00000000000E+00  0.00000000000E+00  0.37612486947E+04  0.37612486947E+04  0.00000000000E+00 0.  1.
         -2   -1    0    0    0  501 -0.00000000000E+00 -0.00000000000E+00 -0.37961776516E+03  0.37961776516E+03  0.00000000000E+00 0. -1.
    2000013    1    1    2    0    0  0.69950117136E+03 -0.18414729523E+03  0.16109476817E+04  0.20052093527E+04  0.95000000000E+03 0.  0.
   -2000013    1    1    2    0    0 -0.69950117136E+03  0.18414729523E+03  0.17706832479E+04  0.21356571072E+04  0.95000000000E+03 0.  0.
<mgrwt>
<rscale>  0 0.23898425E+04</rscale>
<asrwt>0</asrwt>
<pdfrwt beam="1">  1        2 0.57865362E+00 0.23898425E+04</pdfrwt>
<pdfrwt beam="2">  1       -2 0.58402736E-01 0.23898425E+04</pdfrwt>
<totfact> 0.13007827E+00</totfact>
</mgrwt>
</event>
<event>
 4    1  0.2048914E-008  0.2609348E+04  0.7816531E-02  0.8365033E-01
          2   -1    0    0  501    0  0.00000000000E+00  0.00000000000E+00  0.10790625661E+04  0.10790625661E+04  0.00000000000E+00 0.  1.
         -2   -1    0    0    0  501 -0.00000000000E+00 -0.00000000000E+00 -0.15774563214E+04  0.15774563214E+04  0.00000000000E+00 0. -1.
    2000013    1    1    2    0    0  0.50758665545E+03  0.73419818635E+03 -0.30479991985E+03  0.13386912194E+04  0.95000000000E+03 0.  0.
   -2000013    1    1    2    0    0 -0.50758665545E+03 -0.73419818635E+03 -0.19359383546E+03  0.13178276681E+04  0.95000000000E+03 0.  0.
<mgrwt>
<rscale>  0 0.26093479E+04</rscale>
<asrwt>0</asrwt>
<pdfrwt beam="1">  1        2 0.16600962E+00 0.26093479E+04</pdfrwt>
<pdfrwt beam="2">  1       -2 0.24268559E+00 0.26093479E+04</pdfrwt>
<totfact> 0.14144324E+00</totfact>
</mgrwt>
</event>
<event>
 4    1  0.2048914E-008  0.2649860E+04  0.7816531E-02  0.8351460E-01
         -2   -1    0    0    0  501 -0.00000000000E+00  0.00000000000E+00  0.21083109680E+04  0.21083109680E+04  0.00000000000E+00 0. -1.
          2   -1    0    0  501    0  0.00000000000E+00 -0.00000000000E+00 -0.83262824071E+03  0.83262824071E+03  0.00000000000E+00 0.  1.
    2000013    1    1    2    0    0  0.57600880255E+03  0.68308473003E+03  0.89705271183E+03  0.15829069640E+04  0.95000000000E+03 0.  0.
   -2000013    1    1    2    0    0 -0.57600880255E+03 -0.68308473003E+03  0.37863001548E+03  0.13580322447E+04  0.95000000000E+03 0.  0.
<mgrwt>
<rscale>  0 0.26498598E+04</rscale>
<asrwt>0</asrwt>
<pdfrwt beam="2">  1        2 0.12809665E+00 0.26498598E+04</pdfrwt>
<pdfrwt beam="1">  1       -2 0.32435553E+00 0.26498598E+04</pdfrwt>
<totfact> 0.64720665E-01</totfact>
</mgrwt>
</event>
<event>
 4    1  0.2048914E-008  0.2803771E+04  0.7816531E-02  0.8302099E-01
          2   -1    0    0  501    0  0.00000000000E+00  0.00000000000E+00  0.26215430699E+04  0.26215430699E+04  0.00000000000E+00 0.  1.
         -2   -1    0    0    0  501 -0.00000000000E+00 -0.00000000000E+00 -0.74966655232E+03  0.74966655232E+03  0.00000000000E+00 0. -1.
    2000013    1    1    2    0    0  0.45795335469E+03 -0.67494718195E+03  0.16940203415E+04  0.21065326703E+04  0.95000000000E+03 0.  0.
   -2000013    1    1    2    0    0 -0.45795335469E+03  0.67494718195E+03  0.17785617611E+03  0.12646769520E+04  0.95000000000E+03 0.  0.
<mgrwt>
<rscale>  0 0.28037711E+04</rscale>
<asrwt>0</asrwt>
<pdfrwt beam="1">  1        2 0.40331431E+00 0.28037711E+04</pdfrwt>
<pdfrwt beam="2">  1       -2 0.11533332E+00 0.28037711E+04</pdfrwt>
<totfact> 0.15049102E+00</totfact>
</mgrwt>
</event>
<event>
 4    1  0.2048914E-008  0.2950323E+04  0.7816531E-02  0.8258060E-01
          2   -1    0    0  501    0  0.00000000000E+00  0.00000000000E+00  0.21816293872E+04  0.21816293872E+04  0.00000000000E+00 0.  1.
         -2   -1    0    0    0  501 -0.00000000000E+00 -0.00000000000E+00 -0.99746628214E+03  0.99746628214E+03  0.00000000000E+00 0. -1.
    2000013    1    1    2    0    0 -0.35735241490E+03  0.10409623838E+04  0.86103193915E+03  0.16897276210E+04  0.95000000000E+03 0.  0.
   -2000013    1    1    2    0    0  0.35735241490E+03 -0.10409623838E+04  0.32313116592E+03  0.14893680483E+04  0.95000000000E+03 0.  0.
<mgrwt>
<rscale>  0 0.29503232E+04</rscale>
<asrwt>0</asrwt>
<pdfrwt beam="1">  1        2 0.33563529E+00 0.29503232E+04</pdfrwt>
<pdfrwt beam="2">  1       -2 0.15345635E+00 0.29503232E+04</pdfrwt>
<totfact> 0.12816549E+00</totfact>
</mgrwt>
</event>
<event>
 4    1  0.2048914E-008  0.2060932E+04  0.7816531E-02  0.8578651E-01
         -2   -1    0    0    0  501 -0.00000000000E+00  0.00000000000E+00  0.13141235665E+04  0.13141235665E+04  0.00000000000E+00 0. -1.
          2   -1    0    0  501    0  0.00000000000E+00 -0.00000000000E+00 -0.80803652124E+03  0.80803652124E+03  0.00000000000E+00 0.  1.
    2000013    1    1    2    0    0 -0.24283747407E+03  0.19525448223E+03 -0.39003303145E+01  0.99980476305E+03  0.95000000000E+03 0.  0.
   -2000013    1    1    2    0    0  0.24283747407E+03 -0.19525448223E+03  0.50998737561E+03  0.11223553247E+04  0.95000000000E+03 0.  0.
<mgrwt>
<rscale>  0 0.20609317E+04</rscale>
<asrwt>0</asrwt>
<pdfrwt beam="2">  1        2 0.12431331E+00 0.20609317E+04</pdfrwt>
<pdfrwt beam="1">  1       -2 0.20217286E+00 0.20609317E+04</pdfrwt>
<totfact> 0.40423628E+00</totfact>
</mgrwt>
</event>
<event>
 4    1  0.2048914E-008  0.2301291E+04  0.7816531E-02  0.8477412E-01
         -2   -1    0    0    0  501 -0.00000000000E+00  0.00000000000E+00  0.17298950636E+04  0.17298950636E+04  0.00000000000E+00 0. -1.
          2   -1    0    0  501    0  0.00000000000E+00 -0.00000000000E+00 -0.76535584562E+03  0.76535584562E+03  0.00000000000E+00 0.  1.
    2000013    1    1    2    0    0  0.58792605984E+03 -0.25460298906E+03  0.59601893303E+03  0.12915952549E+04  0.95000000000E+03 0.  0.
   -2000013    1    1    2    0    0 -0.58792605984E+03  0.25460298906E+03  0.36852028498E+03  0.12036556544E+04  0.95000000000E+03 0.  0.
<mgrwt>
<rscale>  0 0.23012912E+04</rscale>
<asrwt>0</asrwt>
<pdfrwt beam="2">  1        2 0.11774705E+00 0.23012912E+04</pdfrwt>
<pdfrwt beam="1">  1       -2 0.26613770E+00 0.23012912E+04</pdfrwt>
<totfact> 0.16941698E+00</totfact>
</mgrwt>
</event>
<event>
 4    1  0.2048914E-008  0.3484820E+04  0.7816531E-02  0.8117397E-01
          2   -1    0    0  501    0  0.00000000000E+00  0.00000000000E+00  0.24789372352E+04  0.24789372352E+04  0.00000000000E+00 0.  1.
         -2   -1    0    0    0  501 -0.00000000000E+00 -0.00000000000E+00 -0.12247154056E+04  0.12247154056E+04  0.00000000000E+00 0. -1.
    2000013    1    1    2    0    0  0.65257769923E+03  0.11142377066E+03 -0.75665584319E+03  0.13832212315E+04  0.95000000000E+03 0.  0.
   -2000013    1    1    2    0    0 -0.65257769923E+03 -0.11142377066E+03  0.20108776728E+04  0.23204314093E+04  0.95000000000E+03 0.  0.
<mgrwt>
<rscale>  0 0.34848200E+04</rscale>
<asrwt>0</asrwt>
<pdfrwt beam="1">  1        2 0.38137496E+00 0.34848200E+04</pdfrwt>
<pdfrwt beam="2">  1       -2 0.18841776E+00 0.34848200E+04</pdfrwt>
<totfact> 0.46786192E-01</totfact>
</mgrwt>
</event>
<event>
 4    1  0.2048914E-008  0.2367548E+04  0.7816531E-02  0.8451754E-01
         -2   -1    0    0    0  501 -0.00000000000E+00  0.00000000000E+00  0.40745809225E+03  0.40745809225E+03  0.00000000000E+00 0. -1.
          2   -1    0    0  501    0  0.00000000000E+00 -0.00000000000E+00 -0.34391764993E+04  0.34391764993E+04  0.00000000000E+00 0.  1.
    2000013    1    1    2    0    0 -0.58490187562E+03 -0.38434105914E+03 -0.16699268264E+04  0.20447454266E+04  0.95000000000E+03 0.  0.
   -2000013    1    1    2    0    0  0.58490187562E+03  0.38434105914E+03 -0.13617915806E+04  0.18018891650E+04  0.95000000000E+03 0.  0.
<mgrwt>
<rscale>  0 0.23675475E+04</rscale>
<asrwt>0</asrwt>
<pdfrwt beam="2">  1        2 0.52910407E+00 0.23675475E+04</pdfrwt>
<pdfrwt beam="1">  1       -2 0.62685861E-01 0.23675475E+04</pdfrwt>
<totfact> 0.19102059E+00</totfact>
</mgrwt>
</event>
<event>
 4    1  0.2048914E-008  0.2975579E+04  0.7816531E-02  0.8250739E-01
         -2   -1    0    0    0  501 -0.00000000000E+00  0.00000000000E+00  0.15109895846E+04  0.15109895846E+04  0.00000000000E+00 0.  1.
          2   -1    0    0  501    0  0.00000000000E+00 -0.00000000000E+00 -0.14649457237E+04  0.14649457237E+04  0.00000000000E+00 0. -1.
    2000013    1    1    2    0    0  0.31694457175E+03  0.10971216475E+04 -0.59981737394E+02  0.14866834161E+04  0.95000000000E+03 0.  0.
   -2000013    1    1    2    0    0 -0.31694457175E+03 -0.10971216475E+04  0.10602559833E+03  0.14892518922E+04  0.95000000000E+03 0.  0.
<mgrwt>
<rscale>  0 0.29755791E+04</rscale>
<asrwt>0</asrwt>
<pdfrwt beam="2">  1        2 0.22537627E+00 0.29755791E+04</pdfrwt>
<pdfrwt beam="1">  1       -2 0.23245994E+00 0.29755791E+04</pdfrwt>
<totfact> 0.94058226E-01</totfact>
</mgrwt>
</event>
<event>
 4    1  0.2048914E-008  0.2779971E+04  0.7816531E-02  0.8309514E-01
         -2   -1    0    0    0  501 -0.00000000000E+00  0.00000000000E+00  0.53233323631E+03  0.53233323631E+03  0.00000000000E+00 0. -1.
          2   -1    0    0  501    0  0.00000000000E+00 -0.00000000000E+00 -0.36294164861E+04  0.36294164861E+04  0.00000000000E+00 0.  1.
    2000013    1    1    2    0    0 -0.85822464772E+02 -0.88596820173E+03 -0.22777345141E+04  0.26235242836E+04  0.95000000000E+03 0.  0.
   -2000013    1    1    2    0    0  0.85822464772E+02  0.88596820173E+03 -0.81934873571E+03  0.15382254388E+04  0.95000000000E+03 0.  0.
<mgrwt>
<rscale>  0 0.27799705E+04</rscale>
<asrwt>0</asrwt>
<pdfrwt beam="2">  1        2 0.55837174E+00 0.27799705E+04</pdfrwt>
<pdfrwt beam="1">  1       -2 0.81897425E-01 0.27799705E+04</pdfrwt>
<totfact> 0.75132836E-01</totfact>
</mgrwt>
</event>
<event>
 4    1  0.2048914E-008  0.2472526E+04  0.7816531E-02  0.8412839E-01
          2   -1    0    0  501    0  0.00000000000E+00  0.00000000000E+00  0.31447313783E+04  0.31447313783E+04  0.00000000000E+00 0. -1.
         -2   -1    0    0    0  501 -0.00000000000E+00 -0.00000000000E+00 -0.48600196358E+03  0.48600196358E+03  0.00000000000E+00 0.  1.
    2000013    1    1    2    0    0 -0.75211560637E+03  0.23251114901E+03  0.14441120974E+04  0.18993943955E+04  0.95000000000E+03 0.  0.
   -2000013    1    1    2    0    0  0.75211560637E+03 -0.23251114901E+03  0.12146173173E+04  0.17313389464E+04  0.95000000000E+03 0.  0.
<mgrwt>
<rscale>  0 0.24725255E+04</rscale>
<asrwt>0</asrwt>
<pdfrwt beam="1">  1        2 0.48380482E+00 0.24725255E+04</pdfrwt>
<pdfrwt beam="2">  1       -2 0.74769535E-01 0.24725255E+04</pdfrwt>
<totfact> 0.20252230E+00</totfact>
</mgrwt>
</event>
<event>
 4    1  0.2048914E-008  0.3162658E+04  0.7816531E-02  0.8198749E-01
          1   -1    0    0  501    0  0.00000000000E+00  0.00000000000E+00  0.23386564850E+04  0.23386564850E+04  0.00000000000E+00 0.  1.
         -1   -1    0    0    0  501 -0.00000000000E+00 -0.00000000000E+00 -0.10692467134E+04  0.10692467134E+04  0.00000000000E+00 0. -1.
    2000013    1    1    2    0    0 -0.33892281082E+03  0.10531033023E+04  0.12938638639E+04  0.19494817094E+04  0.95000000000E+03 0.  0.
   -2000013    1    1    2    0    0  0.33892281082E+03 -0.10531033023E+04 -0.24454092252E+02  0.14584214890E+04  0.95000000000E+03 0.  0.
<mgrwt>
<rscale>  0 0.31626576E+04</rscale>
<asrwt>0</asrwt>
<pdfrwt beam="1">  1        1 0.35979330E+00 0.31626576E+04</pdfrwt>
<pdfrwt beam="2">  1       -1 0.16449950E+00 0.31626576E+04</pdfrwt>
<totfact> 0.39715026E-01</totfact>
</mgrwt>
</event>
<event>
 4    1  0.2048914E-008  0.3144496E+04  0.7816531E-02  0.8203632E-01
         -2   -1    0    0    0  501 -0.00000000000E+00  0.00000000000E+00  0.22206776731E+04  0.22206776731E+04  0.00000000000E+00 0. -1.
          2   -1    0    0  501    0  0.00000000000E+00 -0.00000000000E+00 -0.11131570905E+04  0.11131570905E+04  0.00000000000E+00 0.  1.
    2000013    1    1    2    0    0 -0.42762310067E+03  0.90549439098E+03  0.13518700056E+04  0.19320543782E+04  0.95000000000E+03 0.  0.
   -2000013    1    1    2    0    0  0.42762310067E+03 -0.90549439098E+03 -0.24434942306E+03  0.14017803854E+04  0.95000000000E+03 0.  0.
<mgrwt>
<rscale>  0 0.31444956E+04</rscale>
<asrwt>0</asrwt>
<pdfrwt beam="2">  1        2 0.17125494E+00 0.31444956E+04</pdfrwt>
<pdfrwt beam="1">  1       -2 0.34164272E+00 0.31444956E+04</pdfrwt>
<totfact> 0.31752560E-01</totfact>
</mgrwt>
</event>
<event>
 4    1  0.2048914E-008  0.2410659E+04  0.7816531E-02  0.8435524E-01
         -2   -1    0    0    0  501 -0.00000000000E+00  0.00000000000E+00  0.64964299569E+03  0.64964299569E+03  0.00000000000E+00 0. -1.
          2   -1    0    0  501    0  0.00000000000E+00 -0.00000000000E+00 -0.22363341045E+04  0.22363341045E+04  0.00000000000E+00 0.  1.
    2000013    1    1    2    0    0  0.43460581017E+03 -0.32196037048E+02 -0.74642405389E+02  0.10478503155E+04  0.95000000000E+03 0.  0.
   -2000013    1    1    2    0    0 -0.43460581017E+03  0.32196037048E+02 -0.15120487034E+04  0.18381267847E+04  0.95000000000E+03 0.  0.
<mgrwt>
<rscale>  0 0.24106587E+04</rscale>
<asrwt>0</asrwt>
<pdfrwt beam="2">  1        2 0.34405140E+00 0.24106587E+04</pdfrwt>
<pdfrwt beam="1">  1       -2 0.99945077E-01 0.24106587E+04</pdfrwt>
<totfact> 0.36599522E+00</totfact>
</mgrwt>
</event>
<event>
 4    1  0.2048914E-008  0.2932483E+04  0.7816531E-02  0.8263278E-01
         -2   -1    0    0    0  501 -0.00000000000E+00  0.00000000000E+00  0.85433609314E+03  0.85433609314E+03  0.00000000000E+00 0. -1.
          2   -1    0    0  501    0  0.00000000000E+00 -0.00000000000E+00 -0.25164146196E+04  0.25164146196E+04  0.00000000000E+00 0.  1.
    2000013    1    1    2    0    0  0.83025228620E+02  0.95824431981E+03 -0.17854025542E+03  0.13636355774E+04  0.95000000000E+03 0.  0.
   -2000013    1    1    2    0    0 -0.83025228620E+02 -0.95824431981E+03 -0.14835382711E+04  0.20071151354E+04  0.95000000000E+03 0.  0.
<mgrwt>
<rscale>  0 0.29324828E+04</rscale>
<asrwt>0</asrwt>
<pdfrwt beam="2">  1        2 0.38714071E+00 0.29324828E+04</pdfrwt>
<pdfrwt beam="1">  1       -2 0.13143632E+00 0.29324828E+04</pdfrwt>
<totfact> 0.12378088E+00</totfact>
</mgrwt>
</event>
<event>
 4    1  0.2048914E-008  0.2199251E+04  0.7816531E-02  0.8518740E-01
          2   -1    0    0  501    0  0.00000000000E+00  0.00000000000E+00  0.96059082775E+03  0.96059082775E+03  0.00000000000E+00 0.  1.
         -2   -1    0    0    0  501 -0.00000000000E+00 -0.00000000000E+00 -0.12587837790E+04  0.12587837790E+04  0.00000000000E+00 0. -1.
    2000013    1    1    2    0    0 -0.48988400856E+02 -0.53538071703E+03 -0.15051170973E+02  0.10916771104E+04  0.95000000000E+03 0.  0.
   -2000013    1    1    2    0    0  0.48988400856E+02  0.53538071703E+03 -0.28314178028E+03  0.11276974964E+04  0.95000000000E+03 0.  0.
<mgrwt>
<rscale>  0 0.21992509E+04</rscale>
<asrwt>0</asrwt>
<pdfrwt beam="1">  1        2 0.14778321E+00 0.21992509E+04</pdfrwt>
<pdfrwt beam="2">  1       -2 0.19365904E+00 0.21992509E+04</pdfrwt>
<totfact> 0.35769763E+00</totfact>
</mgrwt>
</event>
<event>
 4    1  0.2048914E-008  0.2417919E+04  0.7816531E-02  0.8432825E-01
         -2   -1    0    0    0  501 -0.00000000000E+00  0.00000000000E+00  0.55538937400E+03  0.55538937400E+03  0.00000000000E+00 0. -1.
          2   -1    0    0  501    0  0.00000000000E+00 -0.00000000000E+00 -0.26316371112E+04  0.26316371112E+04  0.00000000000E+00 0.  1.
    2000013    1    1    2    0    0 -0.51808166669E+03  0.39427496869E+03 -0.15228176496E+04  0.19092760298E+04  0.95000000000E+03 0.  0.
   -2000013    1    1    2    0    0  0.51808166669E+03 -0.39427496869E+03 -0.55343008766E+03  0.12777504554E+04  0.95000000000E+03 0.  0.
<mgrwt>
<rscale>  0 0.24179192E+04</rscale>
<asrwt>0</asrwt>
<pdfrwt beam="2">  1        2 0.40486724E+00 0.24179192E+04</pdfrwt>
<pdfrwt beam="1">  1       -2 0.85444520E-01 0.24179192E+04</pdfrwt>
<totfact> 0.31167232E+00</totfact>
</mgrwt>
</event>
<event>
 4    1  0.2048914E-008  0.2438549E+04  0.7816531E-02  0.8425211E-01
          2   -1    0    0  501    0  0.00000000000E+00  0.00000000000E+00  0.89431057585E+03  0.89431057585E+03  0.00000000000E+00 0.  1.
         -2   -1    0    0    0  501 -0.00000000000E+00 -0.00000000000E+00 -0.16623196837E+04  0.16623196837E+04  0.00000000000E+00 0. -1.
    2000013    1    1    2    0    0  0.50555851531E+03 -0.41988974872E+03  0.25059432271E+02  0.11554327279E+04  0.95000000000E+03 0.  0.
   -2000013    1    1    2    0    0 -0.50555851531E+03  0.41988974872E+03 -0.79306854015E+03  0.14011975317E+04  0.95000000000E+03 0.  0.
<mgrwt>
<rscale>  0 0.24385488E+04</rscale>
<asrwt>0</asrwt>
<pdfrwt beam="1">  1        2 0.13758624E+00 0.24385488E+04</pdfrwt>
<pdfrwt beam="2">  1       -2 0.25574149E+00 0.24385488E+04</pdfrwt>
<totfact> 0.15709770E+00</totfact>
</mgrwt>
</event>
<event>
 4    1  0.2048914E-008  0.2529099E+04  0.7816531E-02  0.8392692E-01
         -2   -1    0    0    0  501 -0.00000000000E+00  0.00000000000E+00  0.94505865490E+03  0.94505865490E+03  0.00000000000E+00 0. -1.
          2   -1    0    0  501    0  0.00000000000E+00 -0.00000000000E+00 -0.16920485990E+04  0.16920485990E+04  0.00000000000E+00 0.  1.
    2000013    1    1    2    0    0  0.10936658973E+03  0.80789356341E+03 -0.55982198560E+03  0.13713328248E+04  0.95000000000E+03 0.  0.
   -2000013    1    1    2    0    0 -0.10936658973E+03 -0.80789356341E+03 -0.18716795852E+03  0.12657744291E+04  0.95000000000E+03 0.  0.
<mgrwt>
<rscale>  0 0.25290988E+04</rscale>
<asrwt>0</asrwt>
<pdfrwt beam="2">  1        2 0.26031517E+00 0.25290988E+04</pdfrwt>
<pdfrwt beam="1">  1       -2 0.14539364E+00 0.25290988E+04</pdfrwt>
<totfact> 0.28684340E+00</totfact>
</mgrwt>
</event>
<event>
 4    1  0.2048914E-008  0.2457514E+04  0.7816531E-02  0.8418280E-01
          2   -1    0    0  501    0  0.00000000000E+00  0.00000000000E+00  0.11645775503E+04  0.11645775503E+04  0.00000000000E+00 0.  1.
         -2   -1    0    0    0  501 -0.00000000000E+00 -0.00000000000E+00 -0.12964734139E+04  0.12964734139E+04  0.00000000000E+00 0. -1.
    2000013    1    1    2    0    0 -0.70961136502E+03  0.31810666649E+03 -0.11704775405E+03  0.12332640907E+04  0.95000000000E+03 0.  0.
   -2000013    1    1    2    0    0  0.70961136502E+03 -0.31810666649E+03 -0.14848109544E+02  0.12277868736E+04  0.95000000000E+03 0.  0.
<mgrwt>
<rscale>  0 0.24575141E+04</rscale>
<asrwt>0</asrwt>
<pdfrwt beam="1">  1        2 0.17916578E+00 0.24575141E+04</pdfrwt>
<pdfrwt beam="2">  1       -2 0.19945745E+00 0.24575141E+04</pdfrwt>
<totfact> 0.23874111E+00</totfact>
</mgrwt>
</event>
<event>
 4    1  0.2048914E-008  0.3686984E+04  0.7816531E-02  0.8070852E-01
         -2   -1    0    0    0  501 -0.00000000000E+00  0.00000000000E+00  0.81470503518E+03  0.81470503518E+03  0.00000000000E+00 0. -1.
          2   -1    0    0  501    0  0.00000000000E+00 -0.00000000000E+00 -0.41714030198E+04  0.41714030198E+04  0.00000000000E+00 0.  1.
    2000013    1    1    2    0    0  0.14512520767E+04  0.62111964338E+03 -0.17643149241E+04  0.25509271555E+04  0.95000000000E+03 0.  0.
   -2000013    1    1    2    0    0 -0.14512520767E+04 -0.62111964338E+03 -0.15923830605E+04  0.24351808994E+04  0.95000000000E+03 0.  0.
<mgrwt>
<rscale>  0 0.36869842E+04</rscale>
<asrwt>0</asrwt>
<pdfrwt beam="2">  1        2 0.64175430E+00 0.36869842E+04</pdfrwt>
<pdfrwt beam="1">  1       -2 0.12533924E+00 0.36869842E+04</pdfrwt>
<totfact> 0.94494970E-02</totfact>
</mgrwt>
</event>
<event>
 4    1  0.2048914E-008  0.2407999E+04  0.7816531E-02  0.8436515E-01
         -2   -1    0    0    0  501 -0.00000000000E+00  0.00000000000E+00  0.68622061986E+03  0.68622061986E+03  0.00000000000E+00 0. -1.
          2   -1    0    0  501    0  0.00000000000E+00 -0.00000000000E+00 -0.21124613357E+04  0.21124613357E+04  0.00000000000E+00 0.  1.
    2000013    1    1    2    0    0  0.44763341806E+03  0.25240349165E+03 -0.94798584322E+02  0.10842370456E+04  0.95000000000E+03 0.  0.
   -2000013    1    1    2    0    0 -0.44763341806E+03 -0.25240349165E+03 -0.13314421316E+04  0.17144449100E+04  0.95000000000E+03 0.  0.
<mgrwt>
<rscale>  0 0.24079988E+04</rscale>
<asrwt>0</asrwt>
<pdfrwt beam="2">  1        2 0.32499405E+00 0.24079988E+04</pdfrwt>
<pdfrwt beam="1">  1       -2 0.10557240E+00 0.24079988E+04</pdfrwt>
<totfact> 0.37697093E+00</totfact>
</mgrwt>
</event>
<event>
 4    1  0.2048914E-008  0.2389124E+04  0.7816531E-02  0.8443587E-01
         -2   -1    0    0    0  501 -0.00000000000E+00  0.00000000000E+00  0.75129871981E+03  0.75129871981E+03  0.00000000000E+00 0. -1.
          2   -1    0    0  501    0  0.00000000000E+00 -0.00000000000E+00 -0.18993483543E+04  0.18993483543E+04  0.00000000000E+00 0.  1.
    2000013    1    1    2    0    0 -0.21290054055E+03  0.68253175899E+03 -0.70198285787E+03  0.13807447899E+04  0.95000000000E+03 0.  0.
   -2000013    1    1    2    0    0  0.21290054055E+03 -0.68253175899E+03 -0.44606677665E+03  0.12699022842E+04  0.95000000000E+03 0.  0.
<mgrwt>
<rscale>  0 0.23891237E+04</rscale>
<asrwt>0</asrwt>
<pdfrwt beam="2">  1        2 0.29220744E+00 0.23891237E+04</pdfrwt>
<pdfrwt beam="1">  1       -2 0.11558442E+00 0.23891237E+04</pdfrwt>
<totfact> 0.39836576E+00</totfact>
</mgrwt>
</event>
<event>
 4    1  0.2048914E-008  0.1964630E+04  0.7816531E-02  0.8623338E-01
         -2   -1    0    0    0  501 -0.00000000000E+00  0.00000000000E+00  0.48356865116E+03  0.48356865116E+03  0.00000000000E+00 0. -1.
          2   -1    0    0  501    0  0.00000000000E+00 -0.00000000000E+00 -0.19954613401E+04  0.19954613401E+04  0.00000000000E+00 0.  1.
    2000013    1    1    2    0    0  0.17416039232E+03 -0.10122538802E+03 -0.56936546755E+03  0.11257244144E+04  0.95000000000E+03 0.  0.
   -2000013    1    1    2    0    0 -0.17416039232E+03  0.10122538802E+03 -0.94252722142E+03  0.13533055769E+04  0.95000000000E+03 0.  0.
<mgrwt>
<rscale>  0 0.19646298E+04</rscale>
<asrwt>0</asrwt>
<pdfrwt beam="2">  1        2 0.30699405E+00 0.19646298E+04</pdfrwt>
<pdfrwt beam="1">  1       -2 0.74395177E-01 0.19646298E+04</pdfrwt>
<totfact> 0.10178460E+01</totfact>
</mgrwt>
</event>
<event>
 4    1  0.2048914E-008  0.3106640E+04  0.7816531E-02  0.8213918E-01
         -2   -1    0    0    0  501 -0.00000000000E+00  0.00000000000E+00  0.95106158170E+03  0.95106158170E+03  0.00000000000E+00 0. -1.
          2   -1    0    0  501    0  0.00000000000E+00 -0.00000000000E+00 -0.25369572234E+04  0.25369572234E+04  0.00000000000E+00 0.  1.
    2000013    1    1    2    0    0  0.57842923329E+03 -0.10694936516E+04 -0.59239872220E+03  0.16528258513E+04  0.95000000000E+03 0.  0.
   -2000013    1    1    2    0    0 -0.57842923329E+03  0.10694936516E+04 -0.99349691948E+03  0.18351929538E+04  0.95000000000E+03 0.  0.
<mgrwt>
<rscale>  0 0.31066397E+04</rscale>
<asrwt>0</asrwt>
<pdfrwt beam="2">  1        2 0.39030111E+00 0.31066397E+04</pdfrwt>
<pdfrwt beam="1">  1       -2 0.14631717E+00 0.31066397E+04</pdfrwt>
<totfact> 0.89933268E-01</totfact>
</mgrwt>
</event>
<event>
 4    1  0.2048914E-008  0.2932825E+04  0.7816531E-02  0.8263177E-01
         -2   -1    0    0    0  501 -0.00000000000E+00  0.00000000000E+00  0.93670596370E+03  0.93670596370E+03  0.00000000000E+00 0. -1.
          2   -1    0    0  501    0  0.00000000000E+00 -0.00000000000E+00 -0.22956683808E+04  0.22956683808E+04  0.00000000000E+00 0.  1.
    2000013    1    1    2    0    0 -0.65420968826E+03 -0.85629868725E+03 -0.35509241219E+03  0.14798068723E+04  0.95000000000E+03 0.  0.
   -2000013    1    1    2    0    0  0.65420968826E+03  0.85629868725E+03 -0.10038700049E+04  0.17525674722E+04  0.95000000000E+03 0.  0.
<mgrwt>
<rscale>  0 0.29328254E+04</rscale>
<asrwt>0</asrwt>
<pdfrwt beam="2">  1        2 0.35317975E+00 0.29328254E+04</pdfrwt>
<pdfrwt beam="1">  1       -2 0.14410861E+00 0.29328254E+04</pdfrwt>
<totfact> 0.13068224E+00</totfact>
</mgrwt>
</event>
<event>
 4    1  0.2048914E-008  0.2533424E+04  0.7816531E-02  0.8391174E-01
          2   -1    0    0  501    0  0.00000000000E+00  0.00000000000E+00  0.42705541004E+04  0.42705541004E+04  0.00000000000E+00 0.  1.
         -2   -1    0    0    0  501 -0.00000000000E+00 -0.00000000000E+00 -0.37572632661E+03  0.37572632661E+03  0.00000000000E+00 0. -1.
    2000013    1    1    2    0    0  0.69769597849E+02 -0.66218058372E+03  0.28802449453E+04  0.31051025534E+04  0.95000000000E+03 0.  0.
   -2000013    1    1    2    0    0 -0.69769597849E+02  0.66218058372E+03  0.10145828285E+04  0.15411778736E+04  0.95000000000E+03 0.  0.
<mgrwt>
<rscale>  0 0.25334242E+04</rscale>
<asrwt>0</asrwt>
<pdfrwt beam="1">  1        2 0.65700829E+00 0.25334242E+04</pdfrwt>
<pdfrwt beam="2">  1       -2 0.57804053E-01 0.25334242E+04</pdfrwt>
<totfact> 0.50446460E-01</totfact>
</mgrwt>
</event>
<event>
 4    1  0.2048914E-008  0.3822614E+04  0.7816531E-02  0.8041319E-01
          2   -1    0    0  501    0  0.00000000000E+00  0.00000000000E+00  0.29622901395E+04  0.29622901395E+04  0.00000000000E+00 0.  1.
         -2   -1    0    0    0  501 -0.00000000000E+00 -0.00000000000E+00 -0.12331990920E+04  0.12331990920E+04  0.00000000000E+00 0. -1.
    2000013    1    1    2    0    0 -0.15410868601E+04 -0.42457408358E+03  0.13496821952E+04  0.22976844628E+04  0.95000000000E+03 0.  0.
   -2000013    1    1    2    0    0  0.15410868601E+04  0.42457408358E+03  0.37940885234E+03  0.18978047687E+04  0.95000000000E+03 0.  0.
<mgrwt>
<rscale>  0 0.38226135E+04</rscale>
<asrwt>0</asrwt>
<pdfrwt beam="1">  1        2 0.45573694E+00 0.38226135E+04</pdfrwt>
<pdfrwt beam="2">  1       -2 0.18972294E+00 0.38226135E+04</pdfrwt>
<totfact> 0.22888921E-01</totfact>
</mgrwt>
</event>
<event>
 4    1  0.2048914E-008  0.2382224E+04  0.7816531E-02  0.8446189E-01
         -2   -1    0    0    0  501 -0.00000000000E+00  0.00000000000E+00  0.19560535529E+04  0.19560535529E+04  0.00000000000E+00 0. -1.
          2   -1    0    0  501    0  0.00000000000E+00 -0.00000000000E+00 -0.72531124312E+03  0.72531124312E+03  0.00000000000E+00 0.  1.
    2000013    1    1    2    0    0  0.44610789873E+03 -0.40692610712E+03  0.10536894081E+04  0.15418698008E+04  0.95000000000E+03 0.  0.
   -2000013    1    1    2    0    0 -0.44610789873E+03  0.40692610712E+03  0.17705290162E+03  0.11394949951E+04  0.95000000000E+03 0.  0.
<mgrwt>
<rscale>  0 0.23822239E+04</rscale>
<asrwt>0</asrwt>
<pdfrwt beam="2">  1        2 0.11158635E+00 0.23822239E+04</pdfrwt>
<pdfrwt beam="1">  1       -2 0.30093131E+00 0.23822239E+04</pdfrwt>
<totfact> 0.11064914E+00</totfact>
</mgrwt>
</event>
<event>
 4    1  0.2048914E-008  0.3426093E+04  0.7816531E-02  0.8131532E-01
          2   -1    0    0  501    0  0.00000000000E+00  0.00000000000E+00  0.18972159946E+04  0.18972159946E+04  0.00000000000E+00 0.  1.
         -2   -1    0    0    0  501 -0.00000000000E+00 -0.00000000000E+00 -0.15467549393E+04  0.15467549393E+04  0.00000000000E+00 0. -1.
    2000013    1    1    2    0    0  0.68481255597E+03  0.24355927930E+03  0.14078997360E+04  0.18474228065E+04  0.95000000000E+03 0.  0.
   -2000013    1    1    2    0    0 -0.68481255597E+03 -0.24355927930E+03 -0.10574386808E+04  0.15965481273E+04  0.95000000000E+03 0.  0.
<mgrwt>
<rscale>  0 0.34260929E+04</rscale>
<asrwt>0</asrwt>
<pdfrwt beam="1">  1        2 0.29187938E+00 0.34260929E+04</pdfrwt>
<pdfrwt beam="2">  1       -2 0.23796230E+00 0.34260929E+04</pdfrwt>
<totfact> 0.48046571E-01</totfact>
</mgrwt>
</event>
<event>
 4    1  0.2048914E-008  0.2251523E+04  0.7816531E-02  0.8497284E-01
          2   -1    0    0  501    0  0.00000000000E+00  0.00000000000E+00  0.35042583974E+04  0.35042583974E+04  0.00000000000E+00 0.  1.
         -2   -1    0    0    0  501 -0.00000000000E+00 -0.00000000000E+00 -0.36165681649E+03  0.36165681649E+03  0.00000000000E+00 0. -1.
    2000013    1    1    2    0    0  0.59114259603E+03  0.12396096053E+03  0.15630577271E+04  0.19262568226E+04  0.95000000000E+03 0.  0.
   -2000013    1    1    2    0    0 -0.59114259603E+03 -0.12396096053E+03  0.15795438539E+04  0.19396583913E+04  0.95000000000E+03 0.  0.
<mgrwt>
<rscale>  0 0.22515230E+04</rscale>
<asrwt>0</asrwt>
<pdfrwt beam="1">  1        2 0.53911665E+00 0.22515230E+04</pdfrwt>
<pdfrwt beam="2">  1       -2 0.55639513E-01 0.22515230E+04</pdfrwt>
<totfact> 0.22373158E+00</totfact>
</mgrwt>
</event>
<event>
 4    1  0.2048914E-008  0.3863104E+04  0.7816531E-02  0.8032747E-01
          2   -1    0    0  501    0  0.00000000000E+00  0.00000000000E+00  0.33520017814E+04  0.33520017814E+04  0.00000000000E+00 0.  1.
         -2   -1    0    0    0  501 -0.00000000000E+00 -0.00000000000E+00 -0.11130341915E+04  0.11130341915E+04  0.00000000000E+00 0. -1.
    2000013    1    1    2    0    0 -0.79071160058E+03  0.11521304832E+04  0.22011217446E+04  0.27748993531E+04  0.95000000000E+03 0.  0.
   -2000013    1    1    2    0    0  0.79071160058E+03 -0.11521304832E+04  0.37845845344E+02  0.16901366198E+04  0.95000000000E+03 0.  0.
<mgrwt>
<rscale>  0 0.38631037E+04</rscale>
<asrwt>0</asrwt>
<pdfrwt beam="1">  1        2 0.51569258E+00 0.38631037E+04</pdfrwt>
<pdfrwt beam="2">  1       -2 0.17123603E+00 0.38631037E+04</pdfrwt>
<totfact> 0.17099721E-01</totfact>
</mgrwt>
</event>
<event>
 4    1  0.2048914E-008  0.2970991E+04  0.7816531E-02  0.8252063E-01
          2   -1    0    0  501    0  0.00000000000E+00  0.00000000000E+00  0.16048871132E+04  0.16048871132E+04  0.00000000000E+00 0.  1.
         -2   -1    0    0    0  501 -0.00000000000E+00 -0.00000000000E+00 -0.13749854259E+04  0.13749854259E+04  0.00000000000E+00 0. -1.
    2000013    1    1    2    0    0 -0.10138199249E+04  0.25637036656E+03  0.57527800646E+03  0.15254512086E+04  0.95000000000E+03 0.  0.
   -2000013    1    1    2    0    0  0.10138199249E+04 -0.25637036656E+03 -0.34537631910E+03  0.14544213306E+04  0.95000000000E+03 0.  0.
<mgrwt>
<rscale>  0 0.29709907E+04</rscale>
<asrwt>0</asrwt>
<pdfrwt beam="1">  1        2 0.24690571E+00 0.29709907E+04</pdfrwt>
<pdfrwt beam="2">  1       -2 0.21153622E+00 0.29709907E+04</pdfrwt>
<totfact> 0.10644388E+00</totfact>
</mgrwt>
</event>
<event>
 4    1  0.2048914E-008  0.2254407E+04  0.7816531E-02  0.8496118E-01
          2   -1    0    0  501    0  0.00000000000E+00  0.00000000000E+00  0.18132275324E+04  0.18132275324E+04  0.00000000000E+00 0.  1.
         -2   -1    0    0    0  501 -0.00000000000E+00 -0.00000000000E+00 -0.70073291745E+03  0.70073291745E+03  0.00000000000E+00 0. -1.
    2000013    1    1    2    0    0 -0.59993720558E+03  0.73622049525E+02  0.49783994577E+03  0.12311334081E+04  0.95000000000E+03 0.  0.
   -2000013    1    1    2    0    0  0.59993720558E+03 -0.73622049525E+02  0.61465466916E+03  0.12828270418E+04  0.95000000000E+03 0.  0.
<mgrwt>
<rscale>  0 0.22544074E+04</rscale>
<asrwt>0</asrwt>
<pdfrwt beam="1">  1        2 0.27895808E+00 0.22544074E+04</pdfrwt>
<pdfrwt beam="2">  1       -2 0.10780506E+00 0.22544074E+04</pdfrwt>
<totfact> 0.53261122E+00</totfact>
</mgrwt>
</event>
<event>
 4    1  0.2048914E-008  0.2522030E+04  0.7816531E-02  0.8395179E-01
          2   -1    0    0  501    0  0.00000000000E+00  0.00000000000E+00  0.95855046550E+03  0.95855046550E+03  0.00000000000E+00 0.  1.
         -2   -1    0    0    0  501 -0.00000000000E+00 -0.00000000000E+00 -0.16589200820E+04  0.16589200820E+04  0.00000000000E+00 0. -1.
    2000013    1    1    2    0    0  0.53254552077E+03 -0.48835750259E+03  0.72104793964E+02  0.11957411440E+04  0.95000000000E+03 0.  0.
   -2000013    1    1    2    0    0 -0.53254552077E+03  0.48835750259E+03 -0.77247441043E+03  0.14217294035E+04  0.95000000000E+03 0.  0.
<mgrwt>
<rscale>  0 0.25220298E+04</rscale>
<asrwt>0</asrwt>
<pdfrwt beam="1">  1        2 0.14746930E+00 0.25220298E+04</pdfrwt>
<pdfrwt beam="2">  1       -2 0.25521848E+00 0.25220298E+04</pdfrwt>
<totfact> 0.14239624E+00</totfact>
</mgrwt>
</event>
<event>
 4    1  0.2048914E-008  0.3015567E+04  0.7816531E-02  0.8239300E-01
         -2   -1    0    0    0  501 -0.00000000000E+00  0.00000000000E+00  0.15509020666E+04  0.15509020666E+04  0.00000000000E+00 0. -1.
          2   -1    0    0  501    0  0.00000000000E+00 -0.00000000000E+00 -0.14658637586E+04  0.14658637586E+04  0.00000000000E+00 0.  1.
    2000013    1    1    2    0    0 -0.54993125165E+03 -0.86287873619E+03 -0.52685298558E+03  0.14923331275E+04  0.95000000000E+03 0.  0.
   -2000013    1    1    2    0    0  0.54993125165E+03  0.86287873619E+03  0.61189129355E+03  0.15244326978E+04  0.95000000000E+03 0.  0.
<mgrwt>
<rscale>  0 0.30155670E+04</rscale>
<asrwt>0</asrwt>
<pdfrwt beam="2">  1        2 0.22551750E+00 0.30155670E+04</pdfrwt>
<pdfrwt beam="1">  1       -2 0.23860032E+00 0.30155670E+04</pdfrwt>
<totfact> 0.85748311E-01</totfact>
</mgrwt>
</event>
<event>
 4    1  0.2048914E-008  0.3398197E+04  0.7816531E-02  0.8138349E-01
          2   -1    0    0  501    0  0.00000000000E+00  0.00000000000E+00  0.35022915617E+04  0.35022915617E+04  0.00000000000E+00 0.  1.
         -2   -1    0    0    0  501 -0.00000000000E+00 -0.00000000000E+00 -0.82429911216E+03  0.82429911216E+03  0.00000000000E+00 0. -1.
    2000013    1    1    2    0    0 -0.38343592230E+03 -0.13550454398E+04  0.13842723688E+04  0.21913195206E+04  0.95000000000E+03 0.  0.
   -2000013    1    1    2    0    0  0.38343592230E+03  0.13550454398E+04  0.12937200808E+04  0.21352711533E+04  0.95000000000E+03 0.  0.
<mgrwt>
<rscale>  0 0.33981971E+04</rscale>
<asrwt>0</asrwt>
<pdfrwt beam="1">  1        2 0.53881408E+00 0.33981971E+04</pdfrwt>
<pdfrwt beam="2">  1       -2 0.12681525E+00 0.33981971E+04</pdfrwt>
<totfact> 0.30984756E-01</totfact>
</mgrwt>
</event>
<event>
 4    1  0.2048914E-008  0.2321621E+04  0.7816531E-02  0.8469445E-01
         -2   -1    0    0    0  501 -0.00000000000E+00  0.00000000000E+00  0.21265812770E+04  0.21265812770E+04  0.00000000000E+00 0. -1.
          2   -1    0    0  501    0  0.00000000000E+00 -0.00000000000E+00 -0.63363744597E+03  0.63363744597E+03  0.00000000000E+00 0.  1.
    2000013    1    1    2    0    0 -0.59907145071E+03 -0.45142639934E+02  0.40177356105E+03  0.11936693241E+04  0.95000000000E+03 0.  0.
   -2000013    1    1    2    0    0  0.59907145071E+03  0.45142639934E+02  0.10911702700E+04  0.15665493989E+04  0.95000000000E+03 0.  0.
<mgrwt>
<rscale>  0 0.23216214E+04</rscale>
<asrwt>0</asrwt>
<pdfrwt beam="2">  1        2 0.97482685E-01 0.23216214E+04</pdfrwt>
<pdfrwt beam="1">  1       -2 0.32716635E+00 0.23216214E+04</pdfrwt>
<totfact> 0.90845454E-01</totfact>
</mgrwt>
</event>
<event>
 4    1  0.2048914E-008  0.2603415E+04  0.7816531E-02  0.8367042E-01
          1   -1    0    0  501    0  0.00000000000E+00  0.00000000000E+00  0.22606462719E+04  0.22606462719E+04  0.00000000000E+00 0.  1.
         -1   -1    0    0    0  501 -0.00000000000E+00 -0.00000000000E+00 -0.74953868584E+03  0.74953868584E+03  0.00000000000E+00 0. -1.
    2000013    1    1    2    0    0 -0.32757466263E+03  0.50351752099E+03  0.15147294612E+04  0.18861973370E+04  0.95000000000E+03 0.  0.
   -2000013    1    1    2    0    0  0.32757466263E+03 -0.50351752099E+03 -0.36218751589E+01  0.11239876207E+04  0.95000000000E+03 0.  0.
<mgrwt>
<rscale>  0 0.26034146E+04</rscale>
<asrwt>0</asrwt>
<pdfrwt beam="1">  1        1 0.34779173E+00 0.26034146E+04</pdfrwt>
<pdfrwt beam="2">  1       -1 0.11531364E+00 0.26034146E+04</pdfrwt>
<totfact> 0.11886541E+00</totfact>
</mgrwt>
</event>
<event>
 4    1  0.2048914E-008  0.3011808E+04  0.7816531E-02  0.8240367E-01
         -1   -1    0    0    0  501 -0.00000000000E+00  0.00000000000E+00  0.14274743966E+04  0.14274743966E+04  0.00000000000E+00 0. -1.
          1   -1    0    0  501    0  0.00000000000E+00 -0.00000000000E+00 -0.15886432469E+04  0.15886432469E+04  0.00000000000E+00 0.  1.
    2000013    1    1    2    0    0 -0.45399166739E+03  0.23708239741E+03 -0.11322922654E+04  0.15642577382E+04  0.95000000000E+03 0.  0.
   -2000013    1    1    2    0    0  0.45399166739E+03 -0.23708239741E+03  0.97112341515E+03  0.14518599053E+04  0.95000000000E+03 0.  0.
<mgrwt>
<rscale>  0 0.30118085E+04</rscale>
<asrwt>0</asrwt>
<pdfrwt beam="2">  1        1 0.24440665E+00 0.30118085E+04</pdfrwt>
<pdfrwt beam="1">  1       -1 0.21961145E+00 0.30118085E+04</pdfrwt>
<totfact> 0.53480165E-01</totfact>
</mgrwt>
</event>
<event>
 4    1  0.2048914E-008  0.2046256E+04  0.7816531E-02  0.8585295E-01
          2   -1    0    0  501    0  0.00000000000E+00  0.00000000000E+00  0.74717927728E+03  0.74717927728E+03  0.00000000000E+00 0.  1.
         -2   -1    0    0    0  501 -0.00000000000E+00 -0.00000000000E+00 -0.14009896719E+04  0.14009896719E+04  0.00000000000E+00 0. -1.
    2000013    1    1    2    0    0 -0.36059212925E+03 -0.10667242316E+03 -0.38329018404E+03  0.10912456436E+04  0.95000000000E+03 0.  0.
   -2000013    1    1    2    0    0  0.36059212925E+03  0.10667242316E+03 -0.27052021061E+03  0.10569233056E+04  0.95000000000E+03 0.  0.
<mgrwt>
<rscale>  0 0.20462556E+04</rscale>
<asrwt>0</asrwt>
<pdfrwt beam="1">  1        2 0.11495066E+00 0.20462556E+04</pdfrwt>
<pdfrwt beam="2">  1       -2 0.21553687E+00 0.20462556E+04</pdfrwt>
<totfact> 0.36784260E+00</totfact>
</mgrwt>
</event>
<event>
 4    1  0.2048914E-008  0.2188668E+04  0.7816531E-02  0.8523159E-01
         -2   -1    0    0    0  501 -0.00000000000E+00  0.00000000000E+00  0.72813121223E+03  0.72813121223E+03  0.00000000000E+00 0. -1.
          2   -1    0    0  501    0  0.00000000000E+00 -0.00000000000E+00 -0.16447137204E+04  0.16447137204E+04  0.00000000000E+00 0.  1.
    2000013    1    1    2    0    0  0.51633466789E+03  0.15041689745E+03 -0.37543592570E+03  0.11544171112E+04  0.95000000000E+03 0.  0.
   -2000013    1    1    2    0    0 -0.51633466789E+03 -0.15041689745E+03 -0.54114658244E+03  0.12184278214E+04  0.95000000000E+03 0.  0.
<mgrwt>
<rscale>  0 0.21886684E+04</rscale>
<asrwt>0</asrwt>
<pdfrwt beam="2">  1        2 0.25303288E+00 0.21886684E+04</pdfrwt>
<pdfrwt beam="1">  1       -2 0.11202019E+00 0.21886684E+04</pdfrwt>
<totfact> 0.60555763E+00</totfact>
</mgrwt>
</event>
<event>
 4    1  0.2048914E-008  0.2464984E+04  0.7816531E-02  0.8415567E-01
          1   -1    0    0  501    0  0.00000000000E+00  0.00000000000E+00  0.51910904834E+03  0.51910904834E+03  0.00000000000E+00 0. -1.
         -1   -1    0    0    0  501 -0.00000000000E+00 -0.00000000000E+00 -0.29262372988E+04  0.29262372988E+04  0.00000000000E+00 0.  1.
    2000013    1    1    2    0    0 -0.26978544197E+03 -0.72174502590E+03 -0.99234625171E+03  0.15751035364E+04  0.95000000000E+03 0.  0.
   -2000013    1    1    2    0    0  0.26978544197E+03  0.72174502590E+03 -0.14147819988E+04  0.18702428107E+04  0.95000000000E+03 0.  0.
<mgrwt>
<rscale>  0 0.24649838E+04</rscale>
<asrwt>0</asrwt>
<pdfrwt beam="1">  1        1 0.79862932E-01 0.24649838E+04</pdfrwt>
<pdfrwt beam="2">  1       -1 0.45019034E+00 0.24649838E+04</pdfrwt>
<totfact> 0.12085101E-01</totfact>
</mgrwt>
</event>
<event>
 4    1  0.2048914E-008  0.2102444E+04  0.7816531E-02  0.8560168E-01
         -1   -1    0    0    0  501 -0.00000000000E+00  0.00000000000E+00  0.23805350848E+03  0.23805350848E+03  0.00000000000E+00 0. -1.
          1   -1    0    0  501    0  0.00000000000E+00 -0.00000000000E+00 -0.46420978944E+04  0.46420978944E+04  0.00000000000E+00 0.  1.
    2000013    1    1    2    0    0 -0.44539862815E+03  0.41966210729E+02 -0.23163645209E+04  0.25432628048E+04  0.95000000000E+03 0.  0.
   -2000013    1    1    2    0    0  0.44539862815E+03 -0.41966210729E+02 -0.20876798650E+04  0.23368885981E+04  0.95000000000E+03 0.  0.
<mgrwt>
<rscale>  0 0.21024440E+04</rscale>
<asrwt>0</asrwt>
<pdfrwt beam="2">  1        1 0.71416889E+00 0.21024440E+04</pdfrwt>
<pdfrwt beam="1">  1       -1 0.36623617E-01 0.21024440E+04</pdfrwt>
<totfact> 0.15194105E-01</totfact>
</mgrwt>
</event>
<event>
 4    1  0.2048914E-008  0.2892938E+04  0.7816531E-02  0.8274982E-01
         -2   -1    0    0    0  501 -0.00000000000E+00  0.00000000000E+00  0.75988334845E+03  0.75988334845E+03  0.00000000000E+00 0. -1.
          2   -1    0    0  501    0  0.00000000000E+00 -0.00000000000E+00 -0.27534133642E+04  0.27534133642E+04  0.00000000000E+00 0.  1.
    2000013    1    1    2    0    0 -0.63157760183E+03 -0.47806693190E+03 -0.86069683910E+02  0.12398976768E+04  0.95000000000E+03 0.  0.
   -2000013    1    1    2    0    0  0.63157760183E+03  0.47806693190E+03 -0.19074603318E+04  0.22733990358E+04  0.95000000000E+03 0.  0.
<mgrwt>
<rscale>  0 0.28929383E+04</rscale>
<asrwt>0</asrwt>
<pdfrwt beam="2">  1        2 0.42360206E+00 0.28929383E+04</pdfrwt>
<pdfrwt beam="1">  1       -2 0.11690513E+00 0.28929383E+04</pdfrwt>
<totfact> 0.12062202E+00</totfact>
</mgrwt>
</event>
<event>
 4    1  0.2048914E-008  0.2801475E+04  0.7816531E-02  0.8302811E-01
         -2   -1    0    0    0  501 -0.00000000000E+00  0.00000000000E+00  0.12294398461E+04  0.12294398461E+04  0.00000000000E+00 0. -1.
          2   -1    0    0  501    0  0.00000000000E+00 -0.00000000000E+00 -0.15959016053E+04  0.15959016053E+04  0.00000000000E+00 0.  1.
    2000013    1    1    2    0    0 -0.95231907737E+03  0.32630117749E+03 -0.39995918451E+03  0.14407815354E+04  0.95000000000E+03 0.  0.
   -2000013    1    1    2    0    0  0.95231907737E+03 -0.32630117749E+03  0.33497425275E+02  0.13845599160E+04  0.95000000000E+03 0.  0.
<mgrwt>
<rscale>  0 0.28014746E+04</rscale>
<asrwt>0</asrwt>
<pdfrwt beam="2">  1        2 0.24552332E+00 0.28014746E+04</pdfrwt>
<pdfrwt beam="1">  1       -2 0.18914459E+00 0.28014746E+04</pdfrwt>
<totfact> 0.15322653E+00</totfact>
</mgrwt>
</event>
<event>
 4    1  0.2048914E-008  0.2322715E+04  0.7816531E-02  0.8469018E-01
         -2   -1    0    0    0  501 -0.00000000000E+00  0.00000000000E+00  0.12644551130E+04  0.12644551130E+04  0.00000000000E+00 0. -1.
          2   -1    0    0  501    0  0.00000000000E+00 -0.00000000000E+00 -0.10666657969E+04  0.10666657969E+04  0.00000000000E+00 0.  1.
    2000013    1    1    2    0    0  0.53584156400E+03  0.38305121049E+03  0.21063766827E+03  0.11750415477E+04  0.95000000000E+03 0.  0.
   -2000013    1    1    2    0    0 -0.53584156400E+03 -0.38305121049E+03 -0.12848352103E+02  0.11560793622E+04  0.95000000000E+03 0.  0.
<mgrwt>
<rscale>  0 0.23227148E+04</rscale>
<asrwt>0</asrwt>
<pdfrwt beam="2">  1        2 0.16410243E+00 0.23227148E+04</pdfrwt>
<pdfrwt beam="1">  1       -2 0.19453155E+00 0.23227148E+04</pdfrwt>
<totfact> 0.29887149E+00</totfact>
</mgrwt>
</event>
<event>
 4    1  0.2048914E-008  0.2654771E+04  0.7816531E-02  0.8349831E-01
          2   -1    0    0  501    0  0.00000000000E+00  0.00000000000E+00  0.25880240077E+04  0.25880240077E+04  0.00000000000E+00 0.  1.
         -2   -1    0    0    0  501 -0.00000000000E+00 -0.00000000000E+00 -0.68080981732E+03  0.68080981732E+03  0.00000000000E+00 0. -1.
    2000013    1    1    2    0    0  0.66651359257E+03  0.64127650673E+03  0.10312499066E+04  0.16797179219E+04  0.95000000000E+03 0.  0.
   -2000013    1    1    2    0    0 -0.66651359257E+03 -0.64127650673E+03  0.87596428376E+03  0.15891159031E+04  0.95000000000E+03 0.  0.
<mgrwt>
<rscale>  0 0.26547709E+04</rscale>
<asrwt>0</asrwt>
<pdfrwt beam="1">  1        2 0.39815754E+00 0.26547709E+04</pdfrwt>
<pdfrwt beam="2">  1       -2 0.10473997E+00 0.26547709E+04</pdfrwt>
<totfact> 0.20134510E+00</totfact>
</mgrwt>
</event>
<event>
 4    1  0.2048914E-008  0.3153746E+04  0.7816531E-02  0.8201141E-01
         -2   -1    0    0    0  501 -0.00000000000E+00  0.00000000000E+00  0.94178304672E+03  0.94178304672E+03  0.00000000000E+00 0. -1.
          2   -1    0    0  501    0  0.00000000000E+00 -0.00000000000E+00 -0.26402349770E+04  0.26402349770E+04  0.00000000000E+00 0.  1.
    2000013    1    1    2    0    0 -0.12571576635E+04  0.34384683523E+02 -0.79357368415E+03  0.17646208911E+04  0.95000000000E+03 0.  0.
   -2000013    1    1    2    0    0  0.12571576635E+04 -0.34384683523E+02 -0.90487824616E+03  0.18173971326E+04  0.95000000000E+03 0.  0.
<mgrwt>
<rscale>  0 0.31537461E+04</rscale>
<asrwt>0</asrwt>
<pdfrwt beam="2">  1        2 0.40618999E+00 0.31537461E+04</pdfrwt>
<pdfrwt beam="1">  1       -2 0.14488970E+00 0.31537461E+04</pdfrwt>
<totfact> 0.79945618E-01</totfact>
</mgrwt>
</event>
<event>
 4    1  0.2048914E-008  0.2972989E+04  0.7816531E-02  0.8251486E-01
          2   -1    0    0  501    0  0.00000000000E+00  0.00000000000E+00  0.13528704574E+04  0.13528704574E+04  0.00000000000E+00 0.  1.
         -2   -1    0    0    0  501 -0.00000000000E+00 -0.00000000000E+00 -0.16333168465E+04  0.16333168465E+04  0.00000000000E+00 0. -1.
    2000013    1    1    2    0    0 -0.61873211143E+03 -0.96079785189E+03 -0.10536797376E+03  0.14898202401E+04  0.95000000000E+03 0.  0.
   -2000013    1    1    2    0    0  0.61873211143E+03  0.96079785189E+03 -0.17507841536E+03  0.14963670637E+04  0.95000000000E+03 0.  0.
<mgrwt>
<rscale>  0 0.29729891E+04</rscale>
<asrwt>0</asrwt>
<pdfrwt beam="1">  1        2 0.20813392E+00 0.29729891E+04</pdfrwt>
<pdfrwt beam="2">  1       -2 0.25127952E+00 0.29729891E+04</pdfrwt>
<totfact> 0.83393450E-01</totfact>
</mgrwt>
</event>
<event>
 4    1  0.2048914E-008  0.2198491E+04  0.7816531E-02  0.8519057E-01
          2   -1    0    0  501    0  0.00000000000E+00  0.00000000000E+00  0.53626403609E+03  0.53626403609E+03  0.00000000000E+00 0.  1.
         -2   -1    0    0    0  501 -0.00000000000E+00 -0.00000000000E+00 -0.22532560863E+04  0.22532560863E+04  0.00000000000E+00 0. -1.
    2000013    1    1    2    0    0 -0.11249550609E+03  0.25789049454E+03 -0.25439571832E+03  0.10229271370E+04  0.95000000000E+03 0.  0.
   -2000013    1    1    2    0    0  0.11249550609E+03 -0.25789049454E+03 -0.14625963319E+04  0.17665929854E+04  0.95000000000E+03 0.  0.
<mgrwt>
<rscale>  0 0.21984906E+04</rscale>
<asrwt>0</asrwt>
<pdfrwt beam="1">  1        2 0.82502159E-01 0.21984906E+04</pdfrwt>
<pdfrwt beam="2">  1       -2 0.34665478E+00 0.21984906E+04</pdfrwt>
<totfact> 0.84805963E-01</totfact>
</mgrwt>
</event>
<event>
 4    1  0.2048914E-008  0.2075183E+04  0.7816531E-02  0.8572255E-01
          2   -1    0    0  501    0  0.00000000000E+00  0.00000000000E+00  0.19221319917E+04  0.19221319917E+04  0.00000000000E+00 0.  1.
         -2   -1    0    0    0  501 -0.00000000000E+00 -0.00000000000E+00 -0.56010525990E+03  0.56010525990E+03  0.00000000000E+00 0. -1.
    2000013    1    1    2    0    0 -0.40048511988E+03 -0.11708064160E+03  0.68122352610E+03  0.12412339427E+04  0.95000000000E+03 0.  0.
   -2000013    1    1    2    0    0  0.40048511988E+03  0.11708064160E+03  0.68080320567E+03  0.12410033089E+04  0.95000000000E+03 0.  0.
<mgrwt>
<rscale>  0 0.20751831E+04</rscale>
<asrwt>0</asrwt>
<pdfrwt beam="1">  1        2 0.29571261E+00 0.20751831E+04</pdfrwt>
<pdfrwt beam="2">  1       -2 0.86170041E-01 0.20751831E+04</pdfrwt>
<totfact> 0.79599469E+00</totfact>
</mgrwt>
</event>
<event>
 4    1  0.2048914E-008  0.2687996E+04  0.7816531E-02  0.8338910E-01
          2   -1    0    0  501    0  0.00000000000E+00  0.00000000000E+00  0.20678701026E+04  0.20678701026E+04  0.00000000000E+00 0.  1.
         -2   -1    0    0    0  501 -0.00000000000E+00 -0.00000000000E+00 -0.87352221267E+03  0.87352221267E+03  0.00000000000E+00 0. -1.
    2000013    1    1    2    0    0  0.70335026756E+03  0.24233438104E+03  0.12449251211E+04  0.17337145406E+04  0.95000000000E+03 0.  0.
   -2000013    1    1    2    0    0 -0.70335026756E+03 -0.24233438104E+03 -0.50577231197E+02  0.12076777747E+04  0.95000000000E+03 0.  0.
<mgrwt>
<rscale>  0 0.26879959E+04</rscale>
<asrwt>0</asrwt>
<pdfrwt beam="1">  1        2 0.31813386E+00 0.26879959E+04</pdfrwt>
<pdfrwt beam="2">  1       -2 0.13438803E+00 0.26879959E+04</pdfrwt>
<totfact> 0.21463860E+00</totfact>
</mgrwt>
</event>
<event>
 4    1  0.2048914E-008  0.2125759E+04  0.7816531E-02  0.8549981E-01
          2   -1    0    0  501    0  0.00000000000E+00  0.00000000000E+00  0.11486030339E+04  0.11486030339E+04  0.00000000000E+00 0.  1.
         -2   -1    0    0    0  501 -0.00000000000E+00 -0.00000000000E+00 -0.98355361011E+03  0.98355361011E+03  0.00000000000E+00 0. -1.
    2000013    1    1    2    0    0  0.19362894976E+03 -0.33354732108E+03  0.36348681126E+03  0.10878274898E+04  0.95000000000E+03 0.  0.
   -2000013    1    1    2    0    0 -0.19362894976E+03  0.33354732108E+03 -0.19843738748E+03  0.10443291542E+04  0.95000000000E+03 0.  0.
<mgrwt>
<rscale>  0 0.21257588E+04</rscale>
<asrwt>0</asrwt>
<pdfrwt beam="1">  1        2 0.17670816E+00 0.21257588E+04</pdfrwt>
<pdfrwt beam="2">  1       -2 0.15131594E+00 0.21257588E+04</pdfrwt>
<totfact> 0.54765435E+00</totfact>
</mgrwt>
</event>
<event>
 4    1  0.2048914E-008  0.2124830E+04  0.7816531E-02  0.8550384E-01
          2   -1    0    0  501    0  0.00000000000E+00  0.00000000000E+00  0.14973149110E+04  0.14973149110E+04  0.00000000000E+00 0.  1.
         -2   -1    0    0    0  501 -0.00000000000E+00 -0.00000000000E+00 -0.75383323838E+03  0.75383323838E+03  0.00000000000E+00 0. -1.
    2000013    1    1    2    0    0  0.27553051403E+03  0.15390141572E+03 -0.52547193881E+01  0.10010645943E+04  0.95000000000E+03 0.  0.
   -2000013    1    1    2    0    0 -0.27553051403E+03 -0.15390141572E+03  0.74873639202E+03  0.12500835551E+04  0.95000000000E+03 0.  0.
<mgrwt>
<rscale>  0 0.21248301E+04</rscale>
<asrwt>0</asrwt>
<pdfrwt beam="1">  1        2 0.23035614E+00 0.21248301E+04</pdfrwt>
<pdfrwt beam="2">  1       -2 0.11597434E+00 0.21248301E+04</pdfrwt>
<totfact> 0.67678313E+00</totfact>
</mgrwt>
</event>
<event>
 4    1  0.2048914E-008  0.3239537E+04  0.7816531E-02  0.8178453E-01
          2   -1    0    0  501    0  0.00000000000E+00  0.00000000000E+00  0.28693436869E+04  0.28693436869E+04  0.00000000000E+00 0.  1.
         -2   -1    0    0    0  501 -0.00000000000E+00 -0.00000000000E+00 -0.91437309096E+03  0.91437309096E+03  0.00000000000E+00 0. -1.
    2000013    1    1    2    0    0  0.12498711232E+04  0.75114252960E+02  0.14348368454E+04  0.21281627636E+04  0.95000000000E+03 0.  0.
   -2000013    1    1    2    0    0 -0.12498711232E+04 -0.75114252960E+02  0.52013375050E+03  0.16555540142E+04  0.95000000000E+03 0.  0.
<mgrwt>
<rscale>  0 0.32395374E+04</rscale>
<asrwt>0</asrwt>
<pdfrwt beam="1">  1        2 0.44143749E+00 0.32395374E+04</pdfrwt>
<pdfrwt beam="2">  1       -2 0.14067278E+00 0.32395374E+04</pdfrwt>
<totfact> 0.62428166E-01</totfact>
</mgrwt>
</event>
<event>
 4    1  0.2048914E-008  0.3401090E+04  0.7816531E-02  0.8137639E-01
          2   -1    0    0  501    0  0.00000000000E+00  0.00000000000E+00  0.27132116102E+04  0.27132116102E+04  0.00000000000E+00 0.  1.
         -2   -1    0    0    0  501 -0.00000000000E+00 -0.00000000000E+00 -0.10658414694E+04  0.10658414694E+04  0.00000000000E+00 0. -1.
    2000013    1    1    2    0    0  0.12920941044E+04 -0.28881781547E+03  0.28340786217E+03  0.16540081383E+04  0.95000000000E+03 0.  0.
   -2000013    1    1    2    0    0 -0.12920941044E+04  0.28881781547E+03  0.13639622786E+04  0.21250449413E+04  0.95000000000E+03 0.  0.
<mgrwt>
<rscale>  0 0.34010901E+04</rscale>
<asrwt>0</asrwt>
<pdfrwt beam="1">  1        2 0.41741717E+00 0.34010901E+04</pdfrwt>
<pdfrwt beam="2">  1       -2 0.16397561E+00 0.34010901E+04</pdfrwt>
<totfact> 0.50858482E-01</totfact>
</mgrwt>
</event>
<event>
 4    1  0.2048914E-008  0.2178165E+04  0.7816531E-02  0.8527572E-01
          2   -1    0    0  501    0  0.00000000000E+00  0.00000000000E+00  0.99732678623E+03  0.99732678623E+03  0.00000000000E+00 0.  1.
         -2   -1    0    0    0  501 -0.00000000000E+00 -0.00000000000E+00 -0.11892799675E+04  0.11892799675E+04  0.00000000000E+00 0. -1.
    2000013    1    1    2    0    0  0.16402766931E+03  0.44201916583E+03 -0.34455440909E+03  0.11151249975E+04  0.95000000000E+03 0.  0.
   -2000013    1    1    2    0    0 -0.16402766931E+03 -0.44201916583E+03  0.15260122779E+03  0.10714817563E+04  0.95000000000E+03 0.  0.
<mgrwt>
<rscale>  0 0.21781651E+04</rscale>
<asrwt>0</asrwt>
<pdfrwt beam="1">  1        2 0.15343489E+00 0.21781651E+04</pdfrwt>
<pdfrwt beam="2">  1       -2 0.18296615E+00 0.21781651E+04</pdfrwt>
<totfact> 0.40051405E+00</totfact>
</mgrwt>
</event>
<event>
 4    1  0.2048914E-008  0.2402791E+04  0.7816531E-02  0.8438460E-01
          2   -1    0    0  501    0  0.00000000000E+00  0.00000000000E+00  0.83819203647E+03  0.83819203647E+03  0.00000000000E+00 0.  1.
         -2   -1    0    0    0  501 -0.00000000000E+00 -0.00000000000E+00 -0.17219809865E+04  0.17219809865E+04  0.00000000000E+00 0. -1.
    2000013    1    1    2    0    0  0.50302195688E+03 -0.53610073068E+03 -0.42017114947E+03  0.12725874734E+04  0.95000000000E+03 0.  0.
   -2000013    1    1    2    0    0 -0.50302195688E+03  0.53610073068E+03 -0.46361780055E+03  0.12875855496E+04  0.95000000000E+03 0.  0.
<mgrwt>
<rscale>  0 0.24027907E+04</rscale>
<asrwt>0</asrwt>
<pdfrwt beam="1">  1        2 0.12895262E+00 0.24027907E+04</pdfrwt>
<pdfrwt beam="2">  1       -2 0.26492015E+00 0.24027907E+04</pdfrwt>
<totfact> 0.15139543E+00</totfact>
</mgrwt>
</event>
<event>
 4    1  0.2048914E-008  0.2588798E+04  0.7816531E-02  0.8372016E-01
         -2   -1    0    0    0  501 -0.00000000000E+00  0.00000000000E+00  0.57039354052E+03  0.57039354052E+03  0.00000000000E+00 0. -1.
          2   -1    0    0  501    0  0.00000000000E+00 -0.00000000000E+00 -0.29373907157E+04  0.29373907157E+04  0.00000000000E+00 0.  1.
    2000013    1    1    2    0    0  0.19551730682E+03  0.18300508327E+03 -0.23181733866E+04  0.25195526841E+04  0.95000000000E+03 0.  0.
   -2000013    1    1    2    0    0 -0.19551730682E+03 -0.18300508327E+03 -0.48823788595E+02  0.98823157210E+03  0.95000000000E+03 0.  0.
<mgrwt>
<rscale>  0 0.25887979E+04</rscale>
<asrwt>0</asrwt>
<pdfrwt beam="2">  1        2 0.45190626E+00 0.25887979E+04</pdfrwt>
<pdfrwt beam="1">  1       -2 0.87752854E-01 0.25887979E+04</pdfrwt>
<totfact> 0.18890897E+00</totfact>
</mgrwt>
</event>
<event>
 4    1  0.2048914E-008  0.2445072E+04  0.7816531E-02  0.8422820E-01
          2   -1    0    0  501    0  0.00000000000E+00  0.00000000000E+00  0.22178891120E+04  0.22178891120E+04  0.00000000000E+00 0. -1.
         -2   -1    0    0    0  501 -0.00000000000E+00 -0.00000000000E+00 -0.67388120976E+03  0.67388120976E+03  0.00000000000E+00 0.  1.
    2000013    1    1    2    0    0 -0.16470510335E+03 -0.74110859124E+03  0.62369926495E+03  0.13667005847E+04  0.95000000000E+03 0.  0.
   -2000013    1    1    2    0    0  0.16470510335E+03  0.74110859124E+03  0.92030863726E+03  0.15250697371E+04  0.95000000000E+03 0.  0.
<mgrwt>
<rscale>  0 0.24450716E+04</rscale>
<asrwt>0</asrwt>
<pdfrwt beam="1">  1        2 0.34121371E+00 0.24450716E+04</pdfrwt>
<pdfrwt beam="2">  1       -2 0.10367403E+00 0.24450716E+04</pdfrwt>
<totfact> 0.34251753E+00</totfact>
</mgrwt>
</event>
<event>
 4    1  0.2048914E-008  0.2888405E+04  0.7816531E-02  0.8276336E-01
         -2   -1    0    0    0  501 -0.00000000000E+00  0.00000000000E+00  0.16603238874E+04  0.16603238874E+04  0.00000000000E+00 0. -1.
          2   -1    0    0  501    0  0.00000000000E+00 -0.00000000000E+00 -0.12562130810E+04  0.12562130810E+04  0.00000000000E+00 0.  1.
    2000013    1    1    2    0    0  0.50271812898E+03  0.85789032297E+03  0.64739440716E+03  0.15199739609E+04  0.95000000000E+03 0.  0.
   -2000013    1    1    2    0    0 -0.50271812898E+03 -0.85789032297E+03 -0.24328360075E+03  0.13965630075E+04  0.95000000000E+03 0.  0.
<mgrwt>
<rscale>  0 0.28884048E+04</rscale>
<asrwt>0</asrwt>
<pdfrwt beam="2">  1        2 0.19326355E+00 0.28884048E+04</pdfrwt>
<pdfrwt beam="1">  1       -2 0.25543444E+00 0.28884048E+04</pdfrwt>
<totfact> 0.90159536E-01</totfact>
</mgrwt>
</event>
<event>
 4    1  0.2048914E-008  0.2547729E+04  0.7816531E-02  0.8386176E-01
         -1   -1    0    0    0  501 -0.00000000000E+00  0.00000000000E+00  0.17345450024E+04  0.17345450024E+04  0.00000000000E+00 0. -1.
          1   -1    0    0  501    0  0.00000000000E+00 -0.00000000000E+00 -0.93553709244E+03  0.93553709244E+03  0.00000000000E+00 0.  1.
    2000013    1    1    2    0    0  0.25745555017E+03  0.29986076315E+03  0.11865913354E+04  0.15705727728E+04  0.95000000000E+03 0.  0.
   -2000013    1    1    2    0    0 -0.25745555017E+03 -0.29986076315E+03 -0.38758342539E+03  0.10995093220E+04  0.95000000000E+03 0.  0.
<mgrwt>
<rscale>  0 0.25477293E+04</rscale>
<asrwt>0</asrwt>
<pdfrwt beam="2">  1        1 0.14392878E+00 0.25477293E+04</pdfrwt>
<pdfrwt beam="1">  1       -1 0.26685308E+00 0.25477293E+04</pdfrwt>
<totfact> 0.81568630E-01</totfact>
</mgrwt>
</event>
<event>
 4    1  0.2048914E-008  0.3111595E+04  0.7816531E-02  0.8212563E-01
         -2   -1    0    0    0  501 -0.00000000000E+00  0.00000000000E+00  0.76899917144E+03  0.76899917144E+03  0.00000000000E+00 0. -1.
          2   -1    0    0  501    0  0.00000000000E+00 -0.00000000000E+00 -0.31476048320E+04  0.31476048320E+04  0.00000000000E+00 0.  1.
    2000013    1    1    2    0    0  0.11252275830E+04 -0.44856862573E+03 -0.90600972865E+03  0.17862543363E+04  0.95000000000E+03 0.  0.
   -2000013    1    1    2    0    0 -0.11252275830E+04  0.44856862573E+03 -0.14725959319E+04  0.21303496672E+04  0.95000000000E+03 0.  0.
<mgrwt>
<rscale>  0 0.31115948E+04</rscale>
<asrwt>0</asrwt>
<pdfrwt beam="2">  1        2 0.48424690E+00 0.31115948E+04</pdfrwt>
<pdfrwt beam="1">  1       -2 0.11830756E+00 0.31115948E+04</pdfrwt>
<totfact> 0.65382146E-01</totfact>
</mgrwt>
</event>
<event>
 4    1  0.2048914E-008  0.2552011E+04  0.7816531E-02  0.8384687E-01
          2   -1    0    0  501    0  0.00000000000E+00  0.00000000000E+00  0.10723549622E+04  0.10723549622E+04  0.00000000000E+00 0.  1.
         -2   -1    0    0    0  501 -0.00000000000E+00 -0.00000000000E+00 -0.15183311364E+04  0.15183311364E+04  0.00000000000E+00 0. -1.
    2000013    1    1    2    0    0 -0.14357058203E+03  0.70617084658E+03 -0.68418593639E+03  0.13747364010E+04  0.95000000000E+03 0.  0.
   -2000013    1    1    2    0    0  0.14357058203E+03 -0.70617084658E+03  0.23820976220E+03  0.12159496977E+04  0.95000000000E+03 0.  0.
<mgrwt>
<rscale>  0 0.25520109E+04</rscale>
<asrwt>0</asrwt>
<pdfrwt beam="1">  1        2 0.16497769E+00 0.25520109E+04</pdfrwt>
<pdfrwt beam="2">  1       -2 0.23358941E+00 0.25520109E+04</pdfrwt>
<totfact> 0.16340918E+00</totfact>
</mgrwt>
</event>
<event>
 4    1  0.2048914E-008  0.2825242E+04  0.7816531E-02  0.8295474E-01
         -1   -1    0    0    0  501 -0.00000000000E+00  0.00000000000E+00  0.19056046836E+04  0.19056046836E+04  0.00000000000E+00 0.  1.
          1   -1    0    0  501    0  0.00000000000E+00 -0.00000000000E+00 -0.10471733517E+04  0.10471733517E+04  0.00000000000E+00 0. -1.
    2000013    1    1    2    0    0 -0.53490169413E+03 -0.89401688254E+03  0.33802783109E+03  0.14498788995E+04  0.95000000000E+03 0.  0.
   -2000013    1    1    2    0    0  0.53490169413E+03  0.89401688254E+03  0.52040350077E+03  0.15028991358E+04  0.95000000000E+03 0.  0.
<mgrwt>
<rscale>  0 0.28252423E+04</rscale>
<asrwt>0</asrwt>
<pdfrwt beam="2">  1        1 0.16110359E+00 0.28252423E+04</pdfrwt>
<pdfrwt beam="1">  1       -1 0.29316995E+00 0.28252423E+04</pdfrwt>
<totfact> 0.43934908E-01</totfact>
</mgrwt>
</event>
<event>
 4    1  0.2048914E-008  0.3193524E+04  0.7816531E-02  0.8190530E-01
          2   -1    0    0  501    0  0.00000000000E+00  0.00000000000E+00  0.23301140521E+04  0.23301140521E+04  0.00000000000E+00 0.  1.
         -2   -1    0    0    0  501 -0.00000000000E+00 -0.00000000000E+00 -0.10942162930E+04  0.10942162930E+04  0.00000000000E+00 0. -1.
    2000013    1    1    2    0    0  0.18654398613E+03  0.12593126704E+04  0.44345571858E+03  0.16491876894E+04  0.95000000000E+03 0.  0.
   -2000013    1    1    2    0    0 -0.18654398613E+03 -0.12593126704E+04  0.79244204048E+03  0.17751426557E+04  0.95000000000E+03 0.  0.
<mgrwt>
<rscale>  0 0.31935239E+04</rscale>
<asrwt>0</asrwt>
<pdfrwt beam="1">  1        2 0.35847909E+00 0.31935239E+04</pdfrwt>
<pdfrwt beam="2">  1       -2 0.16834097E+00 0.31935239E+04</pdfrwt>
<totfact> 0.80420531E-01</totfact>
</mgrwt>
</event>
<event>
 4    1  0.2048914E-008  0.2501749E+04  0.7816531E-02  0.8402363E-01
          2   -1    0    0  501    0  0.00000000000E+00  0.00000000000E+00  0.20432755418E+04  0.20432755418E+04  0.00000000000E+00 0. -1.
         -2   -1    0    0    0  501 -0.00000000000E+00 -0.00000000000E+00 -0.76577407964E+03  0.76577407964E+03  0.00000000000E+00 0.  1.
    2000013    1    1    2    0    0 -0.48796723687E+03  0.26890573566E+03  0.13047013215E+04  0.17073862648E+04  0.95000000000E+03 0.  0.
   -2000013    1    1    2    0    0  0.48796723687E+03 -0.26890573566E+03 -0.27199859366E+02  0.11016633566E+04  0.95000000000E+03 0.  0.
<mgrwt>
<rscale>  0 0.25017493E+04</rscale>
<asrwt>0</asrwt>
<pdfrwt beam="1">  1        2 0.31435008E+00 0.25017493E+04</pdfrwt>
<pdfrwt beam="2">  1       -2 0.11781140E+00 0.25017493E+04</pdfrwt>
<totfact> 0.31324004E+00</totfact>
</mgrwt>
</event>
<event>
 4    1  0.2048914E-008  0.3967299E+04  0.7816531E-02  0.8011176E-01
         -2   -1    0    0    0  501 -0.00000000000E+00  0.00000000000E+00  0.16894416074E+04  0.16894416074E+04  0.00000000000E+00 0. -1.
          2   -1    0    0  501    0  0.00000000000E+00 -0.00000000000E+00 -0.23290922266E+04  0.23290922266E+04  0.00000000000E+00 0.  1.
    2000013    1    1    2    0    0 -0.80135801431E+03 -0.15376801448E+04 -0.48230389884E+03  0.20351294665E+04  0.95000000000E+03 0.  0.
   -2000013    1    1    2    0    0  0.80135801431E+03  0.15376801448E+04 -0.15734672037E+03  0.19834043675E+04  0.95000000000E+03 0.  0.
<mgrwt>
<rscale>  0 0.39672990E+04</rscale>
<asrwt>0</asrwt>
<pdfrwt beam="2">  1        2 0.35832188E+00 0.39672990E+04</pdfrwt>
<pdfrwt beam="1">  1       -2 0.25991410E+00 0.39672990E+04</pdfrwt>
<totfact> 0.19283783E-01</totfact>
</mgrwt>
</event>
<event>
 4    1  0.2048914E-008  0.2291888E+04  0.7816531E-02  0.8481126E-01
          2   -1    0    0  501    0  0.00000000000E+00  0.00000000000E+00  0.94057726133E+03  0.94057726133E+03  0.00000000000E+00 0.  1.
         -2   -1    0    0    0  501 -0.00000000000E+00 -0.00000000000E+00 -0.13961513190E+04  0.13961513190E+04  0.00000000000E+00 0. -1.
    2000013    1    1    2    0    0  0.27177078008E+03 -0.52336063466E+03  0.27964173364E+02  0.11185024389E+04  0.95000000000E+03 0.  0.
   -2000013    1    1    2    0    0 -0.27177078008E+03  0.52336063466E+03 -0.48353823106E+03  0.12182261415E+04  0.95000000000E+03 0.  0.
<mgrwt>
<rscale>  0 0.22918885E+04</rscale>
<asrwt>0</asrwt>
<pdfrwt beam="1">  1        2 0.14470419E+00 0.22918885E+04</pdfrwt>
<pdfrwt beam="2">  1       -2 0.21479251E+00 0.22918885E+04</pdfrwt>
<totfact> 0.26647412E+00</totfact>
</mgrwt>
</event>
<event>
 4    1  0.2048914E-008  0.3595530E+04  0.7816531E-02  0.8091516E-01
         -2   -1    0    0    0  501 -0.00000000000E+00  0.00000000000E+00  0.17629834247E+04  0.17629834247E+04  0.00000000000E+00 0. -1.
          2   -1    0    0  501    0  0.00000000000E+00 -0.00000000000E+00 -0.18332329422E+04  0.18332329422E+04  0.00000000000E+00 0.  1.
    2000013    1    1    2    0    0 -0.14921604106E+04  0.32900325933E+02  0.28405080742E+03  0.17918733168E+04  0.95000000000E+03 0.  0.
   -2000013    1    1    2    0    0  0.14921604106E+04 -0.32900325933E+02 -0.35430032497E+03  0.18043430501E+04  0.95000000000E+03 0.  0.
<mgrwt>
<rscale>  0 0.35955302E+04</rscale>
<asrwt>0</asrwt>
<pdfrwt beam="2">  1        2 0.28203584E+00 0.35955302E+04</pdfrwt>
<pdfrwt beam="1">  1       -2 0.27122822E+00 0.35955302E+04</pdfrwt>
<totfact> 0.32121206E-01</totfact>
</mgrwt>
</event>
<event>
 4    1  0.2048914E-008  0.2855258E+04  0.7816531E-02  0.8286315E-01
          2   -1    0    0  501    0  0.00000000000E+00  0.00000000000E+00  0.92969063560E+03  0.92969063560E+03  0.00000000000E+00 0.  1.
         -2   -1    0    0    0  501 -0.00000000000E+00 -0.00000000000E+00 -0.21922616624E+04  0.21922616624E+04  0.00000000000E+00 0. -1.
    2000013    1    1    2    0    0 -0.78148156808E+03  0.72285855580E+03 -0.68470820100E+03  0.15825811996E+04  0.95000000000E+03 0.  0.
   -2000013    1    1    2    0    0  0.78148156808E+03 -0.72285855580E+03 -0.57786282575E+03  0.15393710983E+04  0.95000000000E+03 0.  0.
<mgrwt>
<rscale>  0 0.28552584E+04</rscale>
<asrwt>0</asrwt>
<pdfrwt beam="1">  1        2 0.14302933E+00 0.28552584E+04</pdfrwt>
<pdfrwt beam="2">  1       -2 0.33727102E+00 0.28552584E+04</pdfrwt>
<totfact> 0.45364481E-01</totfact>
</mgrwt>
</event>
<event>
 4    1  0.2048914E-008  0.2967170E+04  0.7816531E-02  0.8253168E-01
          1   -1    0    0  501    0  0.00000000000E+00  0.00000000000E+00  0.20083872473E+04  0.20083872473E+04  0.00000000000E+00 0.  1.
         -1   -1    0    0    0  501 -0.00000000000E+00 -0.00000000000E+00 -0.10959166264E+04  0.10959166264E+04  0.00000000000E+00 0. -1.
    2000013    1    1    2    0    0 -0.10719235764E+04 -0.16355021459E+03  0.82279387868E+03  0.16598971634E+04  0.95000000000E+03 0.  0.
   -2000013    1    1    2    0    0  0.10719235764E+04  0.16355021459E+03  0.89676742279E+02  0.14444067102E+04  0.95000000000E+03 0.  0.
<mgrwt>
<rscale>  0 0.29671704E+04</rscale>
<asrwt>0</asrwt>
<pdfrwt beam="1">  1        1 0.30898265E+00 0.29671704E+04</pdfrwt>
<pdfrwt beam="2">  1       -1 0.16860256E+00 0.29671704E+04</pdfrwt>
<totfact> 0.63246234E-01</totfact>
</mgrwt>
</event>
<event>
 4    1  0.2048914E-008  0.2808408E+04  0.7816531E-02  0.8300663E-01
         -2   -1    0    0    0  501 -0.00000000000E+00  0.00000000000E+00  0.13157082984E+04  0.13157082984E+04  0.00000000000E+00 0.  1.
          2   -1    0    0  501    0  0.00000000000E+00 -0.00000000000E+00 -0.14986517922E+04  0.14986517922E+04  0.00000000000E+00 0. -1.
    2000013    1    1    2    0    0  0.68052719596E+03  0.95100098412E+02  0.68290616740E+03  0.13568427052E+04  0.95000000000E+03 0.  0.
   -2000013    1    1    2    0    0 -0.68052719596E+03 -0.95100098412E+02 -0.86584966117E+03  0.14575173855E+04  0.95000000000E+03 0.  0.
<mgrwt>
<rscale>  0 0.28084078E+04</rscale>
<asrwt>0</asrwt>
<pdfrwt beam="2">  1        2 0.23056181E+00 0.28084078E+04</pdfrwt>
<pdfrwt beam="1">  1       -2 0.20241666E+00 0.28084078E+04</pdfrwt>
<totfact> 0.14181066E+00</totfact>
</mgrwt>
</event>
<event>
 4    1  0.2048914E-008  0.3115171E+04  0.7816531E-02  0.8211587E-01
          2   -1    0    0  501    0  0.00000000000E+00  0.00000000000E+00  0.27396804101E+04  0.27396804101E+04  0.00000000000E+00 0.  1.
         -2   -1    0    0    0  501 -0.00000000000E+00 -0.00000000000E+00 -0.88553118837E+03  0.88553118837E+03  0.00000000000E+00 0. -1.
    2000013    1    1    2    0    0 -0.78665825267E+03 -0.72424815008E+03  0.16446390125E+04  0.21796109907E+04  0.95000000000E+03 0.  0.
   -2000013    1    1    2    0    0  0.78665825267E+03  0.72424815008E+03  0.20951020922E+03  0.14456006078E+04  0.95000000000E+03 0.  0.
<mgrwt>
<rscale>  0 0.31151709E+04</rscale>
<asrwt>0</asrwt>
<pdfrwt beam="1">  1        2 0.42148929E+00 0.31151709E+04</pdfrwt>
<pdfrwt beam="2">  1       -2 0.13623557E+00 0.31151709E+04</pdfrwt>
<totfact> 0.82138298E-01</totfact>
</mgrwt>
</event>
<event>
 4    1  0.2048914E-008  0.2455427E+04  0.7816531E-02  0.8419039E-01
         -2   -1    0    0    0  501 -0.00000000000E+00  0.00000000000E+00  0.61851273021E+03  0.61851273021E+03  0.00000000000E+00 0. -1.
          2   -1    0    0  501    0  0.00000000000E+00 -0.00000000000E+00 -0.24369436132E+04  0.24369436132E+04  0.00000000000E+00 0.  1.
    2000013    1    1    2    0    0 -0.28369498404E+02 -0.53705272752E+03 -0.16082252125E+04  0.19437383556E+04  0.95000000000E+03 0.  0.
   -2000013    1    1    2    0    0  0.28369498404E+02  0.53705272752E+03 -0.21020567042E+03  0.11117179878E+04  0.95000000000E+03 0.  0.
<mgrwt>
<rscale>  0 0.24554272E+04</rscale>
<asrwt>0</asrwt>
<pdfrwt beam="2">  1        2 0.37491440E+00 0.24554272E+04</pdfrwt>
<pdfrwt beam="1">  1       -2 0.95155805E-01 0.24554272E+04</pdfrwt>
<totfact> 0.31458948E+00</totfact>
</mgrwt>
</event>
<event>
 4    1  0.2048914E-008  0.2152965E+04  0.7816531E-02  0.8538264E-01
          2   -1    0    0  501    0  0.00000000000E+00  0.00000000000E+00  0.32216286371E+04  0.32216286371E+04  0.00000000000E+00 0.  1.
         -2   -1    0    0    0  501 -0.00000000000E+00 -0.00000000000E+00 -0.35969845380E+03  0.35969845380E+03  0.00000000000E+00 0. -1.
    2000013    1    1    2    0    0 -0.36088450772E+03 -0.35181357884E+03  0.15108174107E+04  0.18544755783E+04  0.95000000000E+03 0.  0.
   -2000013    1    1    2    0    0  0.36088450772E+03  0.35181357884E+03  0.13511127726E+04  0.17268515126E+04  0.95000000000E+03 0.  0.
<mgrwt>
<rscale>  0 0.21529652E+04</rscale>
<asrwt>0</asrwt>
<pdfrwt beam="1">  1        2 0.49563515E+00 0.21529652E+04</pdfrwt>
<pdfrwt beam="2">  1       -2 0.55338226E-01 0.21529652E+04</pdfrwt>
<totfact> 0.35438141E+00</totfact>
</mgrwt>
</event>
<event>
 4    1  0.2048914E-008  0.2759553E+04  0.7816531E-02  0.8315937E-01
          2   -1    0    0  501    0  0.00000000000E+00  0.00000000000E+00  0.93384646511E+03  0.93384646511E+03  0.00000000000E+00 0.  1.
         -2   -1    0    0    0  501 -0.00000000000E+00 -0.00000000000E+00 -0.20386470187E+04  0.20386470187E+04  0.00000000000E+00 0. -1.
    2000013    1    1    2    0    0  0.70422046255E+03  0.67277855006E+03 -0.79974010496E+03  0.15781766925E+04  0.95000000000E+03 0.  0.
   -2000013    1    1    2    0    0 -0.70422046255E+03 -0.67277855006E+03 -0.30506044868E+03  0.13943167913E+04  0.95000000000E+03 0.  0.
<mgrwt>
<rscale>  0 0.27595531E+04</rscale>
<asrwt>0</asrwt>
<pdfrwt beam="1">  1        2 0.14366869E+00 0.27595531E+04</pdfrwt>
<pdfrwt beam="2">  1       -2 0.31363800E+00 0.27595531E+04</pdfrwt>
<totfact> 0.63672588E-01</totfact>
</mgrwt>
</event>
<event>
 4    1  0.2048914E-008  0.2015984E+04  0.7816531E-02  0.8599184E-01
          2   -1    0    0  501    0  0.00000000000E+00  0.00000000000E+00  0.39609096762E+04  0.39609096762E+04  0.00000000000E+00 0.  1.
         -2   -1    0    0    0  501 -0.00000000000E+00 -0.00000000000E+00 -0.25651891783E+03  0.25651891783E+03  0.00000000000E+00 0. -1.
    2000013    1    1    2    0    0  0.28666296979E+02 -0.33183097400E+03  0.17452227940E+04  0.20147546135E+04  0.95000000000E+03 0.  0.
   -2000013    1    1    2    0    0 -0.28666296979E+02  0.33183097400E+03  0.19591679643E+04  0.22026739805E+04  0.95000000000E+03 0.  0.
<mgrwt>
<rscale>  0 0.20159844E+04</rscale>
<asrwt>0</asrwt>
<pdfrwt beam="1">  1        2 0.60937068E+00 0.20159844E+04</pdfrwt>
<pdfrwt beam="2">  1       -2 0.39464452E-01 0.20159844E+04</pdfrwt>
<totfact> 0.20930223E+00</totfact>
</mgrwt>
</event>
<event>
 4    1  0.2048914E-008  0.2220017E+04  0.7816531E-02  0.8510143E-01
          2   -1    0    0  501    0  0.00000000000E+00  0.00000000000E+00  0.17145438043E+04  0.17145438043E+04  0.00000000000E+00 0.  1.
         -2   -1    0    0    0  501 -0.00000000000E+00 -0.00000000000E+00 -0.71862763953E+03  0.71862763953E+03  0.00000000000E+00 0. -1.
    2000013    1    1    2    0    0 -0.52356671279E+03  0.22097236516E+03  0.40846205168E+03  0.11799542943E+04  0.95000000000E+03 0.  0.
   -2000013    1    1    2    0    0  0.52356671279E+03 -0.22097236516E+03  0.58745411305E+03  0.12532171495E+04  0.95000000000E+03 0.  0.
<mgrwt>
<rscale>  0 0.22200167E+04</rscale>
<asrwt>0</asrwt>
<pdfrwt beam="1">  1        2 0.26377597E+00 0.22200167E+04</pdfrwt>
<pdfrwt beam="2">  1       -2 0.11055810E+00 0.22200167E+04</pdfrwt>
<totfact> 0.57012492E+00</totfact>
</mgrwt>
</event>
