<event>
 4    1  0.1321115E-008  0.2068970E+04  0.7816531E-02  0.8575037E-01
         -2   -1    0    0    0  501 -0.00000000000E+00  0.00000000000E+00  0.86982933630E+03  0.86982933630E+03  0.00000000000E+00 0. -1.
          2   -1    0    0  501    0  0.00000000000E+00 -0.00000000000E+00 -0.12303095345E+04  0.12303095345E+04  0.00000000000E+00 0.  1.
    2000013    1    1    2    0    0 -0.28665831097E+03  0.24494097554E+03 -0.18178206981E+02  0.10222521783E+04  0.95000000000E+03 0.  0.
   -2000013    1    1    2    0    0  0.28665831097E+03 -0.24494097554E+03 -0.34230199122E+03  0.10778866925E+04  0.95000000000E+03 0.  0.
<mgrwt>
<rscale>  0 0.20689701E+04</rscale>
<asrwt>0</asrwt>
<pdfrwt beam="2">  1        2 0.18927839E+00 0.20689701E+04</pdfrwt>
<pdfrwt beam="1">  1       -2 0.13381990E+00 0.20689701E+04</pdfrwt>
<totfact> 0.67735025E+00</totfact>
</mgrwt>
</event>
<event>
 4    1  0.1321115E-008  0.2319603E+04  0.7816531E-02  0.8470232E-01
          2   -1    0    0  501    0  0.00000000000E+00  0.00000000000E+00  0.21353971321E+04  0.21353971321E+04  0.00000000000E+00 0.  1.
         -2   -1    0    0    0  501 -0.00000000000E+00 -0.00000000000E+00 -0.62992457183E+03  0.62992457183E+03  0.00000000000E+00 0. -1.
    2000013    1    1    2    0    0 -0.30271292868E+03  0.47896934656E+03  0.11684412624E+04  0.16089753683E+04  0.95000000000E+03 0.  0.
   -2000013    1    1    2    0    0  0.30271292868E+03 -0.47896934656E+03  0.33703129784E+03  0.11563463356E+04  0.95000000000E+03 0.  0.
<mgrwt>
<rscale>  0 0.23196027E+04</rscale>
<asrwt>0</asrwt>
<pdfrwt beam="1">  1        2 0.32852263E+00 0.23196027E+04</pdfrwt>
<pdfrwt beam="2">  1       -2 0.96911474E-01 0.23196027E+04</pdfrwt>
<totfact> 0.45192686E+00</totfact>
</mgrwt>
</event>
<event>
 4    1  0.1321115E-008  0.2796485E+04  0.7816531E-02  0.8304361E-01
          2   -1    0    0  501    0  0.00000000000E+00  0.00000000000E+00  0.26413256802E+04  0.26413256802E+04  0.00000000000E+00 0.  1.
         -2   -1    0    0    0  501 -0.00000000000E+00 -0.00000000000E+00 -0.74018960204E+03  0.74018960204E+03  0.00000000000E+00 0. -1.
    2000013    1    1    2    0    0 -0.89750070290E+03  0.49511854014E+03  0.89741918991E+03  0.16608766008E+04  0.95000000000E+03 0.  0.
   -2000013    1    1    2    0    0  0.89750070290E+03 -0.49511854014E+03  0.10037168882E+04  0.17206386815E+04  0.95000000000E+03 0.  0.
<mgrwt>
<rscale>  0 0.27964848E+04</rscale>
<asrwt>0</asrwt>
<pdfrwt beam="1">  1        2 0.40635779E+00 0.27964848E+04</pdfrwt>
<pdfrwt beam="2">  1       -2 0.11387532E+00 0.27964848E+04</pdfrwt>
<totfact> 0.15121020E+00</totfact>
</mgrwt>
</event>
<event>
 4    1  0.1321115E-008  0.2181172E+04  0.7816531E-02  0.8526306E-01
         -2   -1    0    0    0  501 -0.00000000000E+00  0.00000000000E+00  0.32582030153E+03  0.32582030153E+03  0.00000000000E+00 0. -1.
          2   -1    0    0  501    0  0.00000000000E+00 -0.00000000000E+00 -0.36504115605E+04  0.36504115605E+04  0.00000000000E+00 0.  1.
    2000013    1    1    2    0    0  0.40134087689E+03 -0.19695649966E+03 -0.11245574428E+04  0.15385044051E+04  0.95000000000E+03 0.  0.
   -2000013    1    1    2    0    0 -0.40134087689E+03  0.19695649966E+03 -0.22000338161E+04  0.24377274569E+04  0.95000000000E+03 0.  0.
<mgrwt>
<rscale>  0 0.21811723E+04</rscale>
<asrwt>0</asrwt>
<pdfrwt beam="2">  1        2 0.56160175E+00 0.21811723E+04</pdfrwt>
<pdfrwt beam="1">  1       -2 0.50126202E-01 0.21811723E+04</pdfrwt>
<totfact> 0.21979002E+00</totfact>
</mgrwt>
</event>
<event>
 4    1  0.1321115E-008  0.2447769E+04  0.7816531E-02  0.8421833E-01
         -2   -1    0    0    0  501 -0.00000000000E+00  0.00000000000E+00  0.16860869892E+04  0.16860869892E+04  0.00000000000E+00 0. -1.
          2   -1    0    0  501    0  0.00000000000E+00 -0.00000000000E+00 -0.88838415847E+03  0.88838415847E+03  0.00000000000E+00 0.  1.
    2000013    1    1    2    0    0 -0.60147783564E+03 -0.12351095372E+03  0.89033226429E+03  0.14395214772E+04  0.95000000000E+03 0.  0.
   -2000013    1    1    2    0    0  0.60147783564E+03  0.12351095372E+03 -0.92629433602E+02  0.11349496704E+04  0.95000000000E+03 0.  0.
<mgrwt>
<rscale>  0 0.24477688E+04</rscale>
<asrwt>0</asrwt>
<pdfrwt beam="2">  1        2 0.13667449E+00 0.24477688E+04</pdfrwt>
<pdfrwt beam="1">  1       -2 0.25939800E+00 0.24477688E+04</pdfrwt>
<totfact> 0.15047992E+00</totfact>
</mgrwt>
</event>
<event>
 4    1  0.1321115E-008  0.2124768E+04  0.7816531E-02  0.8550411E-01
         -3   -1    0    0    0  501 -0.00000000000E+00  0.00000000000E+00  0.16369131632E+04  0.16369131632E+04  0.00000000000E+00 0. -1.
          3   -1    0    0  501    0  0.00000000000E+00 -0.00000000000E+00 -0.68950468326E+03  0.68950468326E+03  0.00000000000E+00 0.  1.
    2000013    1    1    2    0    0 -0.37163406947E+03  0.76421643787E+02  0.15977550383E+03  0.10353648443E+04  0.95000000000E+03 0.  0.
   -2000013    1    1    2    0    0  0.37163406947E+03 -0.76421643787E+02  0.78763297608E+03  0.12910530021E+04  0.95000000000E+03 0.  0.
<mgrwt>
<rscale>  0 0.21247676E+04</rscale>
<asrwt>0</asrwt>
<pdfrwt beam="2">  1        3 0.10607764E+00 0.21247676E+04</pdfrwt>
<pdfrwt beam="1">  1       -3 0.25183279E+00 0.21247676E+04</pdfrwt>
<totfact> 0.13046275E-01</totfact>
</mgrwt>
</event>
<event>
 4    1  0.1321115E-008  0.3834605E+04  0.7816531E-02  0.8038769E-01
         -2   -1    0    0    0  501 -0.00000000000E+00  0.00000000000E+00  0.18418426777E+04  0.18418426777E+04  0.00000000000E+00 0. -1.
          2   -1    0    0  501    0  0.00000000000E+00 -0.00000000000E+00 -0.19958542602E+04  0.19958542602E+04  0.00000000000E+00 0.  1.
    2000013    1    1    2    0    0 -0.11401594334E+04 -0.10711661278E+04  0.49458438433E+03  0.18959098396E+04  0.95000000000E+03 0.  0.
   -2000013    1    1    2    0    0  0.11401594334E+04  0.10711661278E+04 -0.64859596685E+03  0.19417870983E+04  0.95000000000E+03 0.  0.
<mgrwt>
<rscale>  0 0.38346054E+04</rscale>
<asrwt>0</asrwt>
<pdfrwt beam="2">  1        2 0.30705450E+00 0.38346054E+04</pdfrwt>
<pdfrwt beam="1">  1       -2 0.28336041E+00 0.38346054E+04</pdfrwt>
<totfact> 0.21574452E-01</totfact>
</mgrwt>
</event>
<event>
 4    1  0.1321115E-008  0.2346137E+04  0.7816531E-02  0.8459949E-01
         -2   -1    0    0    0  501 -0.00000000000E+00  0.00000000000E+00  0.57517457489E+03  0.57517457489E+03  0.00000000000E+00 0. -1.
          2   -1    0    0  501    0  0.00000000000E+00 -0.00000000000E+00 -0.23924736107E+04  0.23924736107E+04  0.00000000000E+00 0.  1.
    2000013    1    1    2    0    0 -0.27494865800E+03 -0.62621556546E+03 -0.81192503239E+03  0.14245929093E+04  0.95000000000E+03 0.  0.
   -2000013    1    1    2    0    0  0.27494865800E+03  0.62621556546E+03 -0.10053740034E+04  0.15430552763E+04  0.95000000000E+03 0.  0.
<mgrwt>
<rscale>  0 0.23461372E+04</rscale>
<asrwt>0</asrwt>
<pdfrwt beam="2">  1        2 0.36807286E+00 0.23461372E+04</pdfrwt>
<pdfrwt beam="1">  1       -2 0.88488396E-01 0.23461372E+04</pdfrwt>
<totfact> 0.39846772E+00</totfact>
</mgrwt>
</event>
<event>
 4    1  0.1321115E-008  0.2349362E+04  0.7816531E-02  0.8458709E-01
         -2   -1    0    0    0  501 -0.00000000000E+00  0.00000000000E+00  0.42027284764E+03  0.42027284764E+03  0.00000000000E+00 0. -1.
          2   -1    0    0  501    0  0.00000000000E+00 -0.00000000000E+00 -0.32832840220E+04  0.32832840220E+04  0.00000000000E+00 0.  1.
    2000013    1    1    2    0    0  0.37968558525E+03 -0.36641759302E+03 -0.72836296356E+03  0.13082184843E+04  0.95000000000E+03 0.  0.
   -2000013    1    1    2    0    0 -0.37968558525E+03  0.36641759302E+03 -0.21346482108E+04  0.23953383852E+04  0.95000000000E+03 0.  0.
<mgrwt>
<rscale>  0 0.23493617E+04</rscale>
<asrwt>0</asrwt>
<pdfrwt beam="2">  1        2 0.50512062E+00 0.23493617E+04</pdfrwt>
<pdfrwt beam="1">  1       -2 0.64657361E-01 0.23493617E+04</pdfrwt>
<totfact> 0.22818848E+00</totfact>
</mgrwt>
</event>
<event>
 4    1  0.1321115E-008  0.2151776E+04  0.7816531E-02  0.8538772E-01
         -2   -1    0    0    0  501 -0.00000000000E+00  0.00000000000E+00  0.85433264969E+03  0.85433264969E+03  0.00000000000E+00 0. -1.
          2   -1    0    0  501    0  0.00000000000E+00 -0.00000000000E+00 -0.13548995410E+04  0.13548995410E+04  0.00000000000E+00 0.  1.
    2000013    1    1    2    0    0 -0.28086578906E+03  0.22456665093E+03  0.11375313191E+03  0.10221328422E+04  0.95000000000E+03 0.  0.
   -2000013    1    1    2    0    0  0.28086578906E+03 -0.22456665093E+03 -0.61432002324E+03  0.11870993485E+04  0.95000000000E+03 0.  0.
<mgrwt>
<rscale>  0 0.21517759E+04</rscale>
<asrwt>0</asrwt>
<pdfrwt beam="2">  1        2 0.20844608E+00 0.21517759E+04</pdfrwt>
<pdfrwt beam="1">  1       -2 0.13143579E+00 0.21517759E+04</pdfrwt>
<totfact> 0.59549271E+00</totfact>
</mgrwt>
</event>
<event>
 4    1  0.1321115E-008  0.2450659E+04  0.7816531E-02  0.8420777E-01
          2   -1    0    0  501    0  0.00000000000E+00  0.00000000000E+00  0.82287153759E+03  0.82287153759E+03  0.00000000000E+00 0.  1.
         -2   -1    0    0    0  501 -0.00000000000E+00 -0.00000000000E+00 -0.18246261195E+04  0.18246261195E+04  0.00000000000E+00 0. -1.
    2000013    1    1    2    0    0 -0.40568440016E+03 -0.60782826758E+03 -0.77608958467E+03  0.14278830760E+04  0.95000000000E+03 0.  0.
   -2000013    1    1    2    0    0  0.40568440016E+03  0.60782826758E+03 -0.22566499727E+03  0.12196145811E+04  0.95000000000E+03 0.  0.
<mgrwt>
<rscale>  0 0.24506594E+04</rscale>
<asrwt>0</asrwt>
<pdfrwt beam="1">  1        2 0.12659562E+00 0.24506594E+04</pdfrwt>
<pdfrwt beam="2">  1       -2 0.28071171E+00 0.24506594E+04</pdfrwt>
<totfact> 0.12384624E+00</totfact>
</mgrwt>
</event>
<event>
 4    1  0.1321115E-008  0.2774787E+04  0.7816531E-02  0.8311139E-01
          1   -1    0    0  501    0  0.00000000000E+00  0.00000000000E+00  0.22683202160E+04  0.22683202160E+04  0.00000000000E+00 0.  1.
         -1   -1    0    0    0  501 -0.00000000000E+00 -0.00000000000E+00 -0.84858397028E+03  0.84858397028E+03  0.00000000000E+00 0. -1.
    2000013    1    1    2    0    0 -0.65274958402E+03  0.72027859037E+03  0.39720259488E+03  0.14160343105E+04  0.95000000000E+03 0.  0.
   -2000013    1    1    2    0    0  0.65274958402E+03 -0.72027859037E+03  0.10225336508E+04  0.17008698758E+04  0.95000000000E+03 0.  0.
<mgrwt>
<rscale>  0 0.27747866E+04</rscale>
<asrwt>0</asrwt>
<pdfrwt beam="1">  1        1 0.34897234E+00 0.27747866E+04</pdfrwt>
<pdfrwt beam="2">  1       -1 0.13055138E+00 0.27747866E+04</pdfrwt>
<totfact> 0.85143121E-01</totfact>
</mgrwt>
</event>
<event>
 4    1  0.1321115E-008  0.2547786E+04  0.7816531E-02  0.8386157E-01
         -2   -1    0    0    0  501 -0.00000000000E+00  0.00000000000E+00  0.74871547322E+03  0.74871547322E+03  0.00000000000E+00 0. -1.
          2   -1    0    0  501    0  0.00000000000E+00 -0.00000000000E+00 -0.21674494333E+04  0.21674494333E+04  0.00000000000E+00 0.  1.
    2000013    1    1    2    0    0  0.57451436215E+02 -0.76462699289E+03 -0.29296997972E+03  0.12555024949E+04  0.95000000000E+03 0.  0.
   -2000013    1    1    2    0    0 -0.57451436215E+02  0.76462699289E+03 -0.11257639803E+04  0.16606624116E+04  0.95000000000E+03 0.  0.
<mgrwt>
<rscale>  0 0.25477856E+04</rscale>
<asrwt>0</asrwt>
<pdfrwt beam="2">  1        2 0.33345376E+00 0.25477856E+04</pdfrwt>
<pdfrwt beam="1">  1       -2 0.11518700E+00 0.25477856E+04</pdfrwt>
<totfact> 0.28099694E+00</totfact>
</mgrwt>
</event>
<event>
 4    1  0.1321115E-008  0.2509505E+04  0.7816531E-02  0.8399607E-01
         -2   -1    0    0    0  501 -0.00000000000E+00  0.00000000000E+00  0.46650965871E+03  0.46650965871E+03  0.00000000000E+00 0. -1.
          2   -1    0    0  501    0  0.00000000000E+00 -0.00000000000E+00 -0.33748592846E+04  0.33748592846E+04  0.00000000000E+00 0.  1.
    2000013    1    1    2    0    0 -0.12769501189E+03 -0.80604594993E+03 -0.15716362146E+04  0.20096160033E+04  0.95000000000E+03 0.  0.
   -2000013    1    1    2    0    0  0.12769501189E+03  0.80604594993E+03 -0.13367134112E+04  0.18317529400E+04  0.95000000000E+03 0.  0.
<mgrwt>
<rscale>  0 0.25095055E+04</rscale>
<asrwt>0</asrwt>
<pdfrwt beam="2">  1        2 0.51920913E+00 0.25095055E+04</pdfrwt>
<pdfrwt beam="1">  1       -2 0.71770716E-01 0.25095055E+04</pdfrwt>
<totfact> 0.15567989E+00</totfact>
</mgrwt>
</event>
<event>
 4    1  0.1321115E-008  0.2219297E+04  0.7816531E-02  0.8510439E-01
         -1   -1    0    0    0  501 -0.00000000000E+00  0.00000000000E+00  0.12652059364E+04  0.12652059364E+04  0.00000000000E+00 0. -1.
          1   -1    0    0  501    0  0.00000000000E+00 -0.00000000000E+00 -0.97321664659E+03  0.97321664659E+03  0.00000000000E+00 0.  1.
    2000013    1    1    2    0    0 -0.54537830594E+03 -0.17618772858E+03  0.12740030382E+03  0.11167857671E+04  0.95000000000E+03 0.  0.
   -2000013    1    1    2    0    0  0.54537830594E+03  0.17618772858E+03  0.16458898596E+03  0.11216368158E+04  0.95000000000E+03 0.  0.
<mgrwt>
<rscale>  0 0.22192967E+04</rscale>
<asrwt>0</asrwt>
<pdfrwt beam="2">  1        1 0.14972564E+00 0.22192967E+04</pdfrwt>
<pdfrwt beam="1">  1       -1 0.19464707E+00 0.22192967E+04</pdfrwt>
<totfact> 0.23701465E+00</totfact>
</mgrwt>
</event>
<event>
 4    1  0.1321115E-008  0.2118709E+04  0.7816531E-02  0.8553046E-01
          2   -1    0    0  501    0  0.00000000000E+00  0.00000000000E+00  0.13406526461E+04  0.13406526461E+04  0.00000000000E+00 0.  1.
         -2   -1    0    0    0  501 -0.00000000000E+00 -0.00000000000E+00 -0.83707880815E+03  0.83707880815E+03  0.00000000000E+00 0. -1.
    2000013    1    1    2    0    0  0.45705417105E+03  0.98176008265E+02  0.28731684499E+03  0.10970815892E+04  0.95000000000E+03 0.  0.
   -2000013    1    1    2    0    0 -0.45705417105E+03 -0.98176008265E+02  0.21625699294E+03  0.10806498651E+04  0.95000000000E+03 0.  0.
<mgrwt>
<rscale>  0 0.21187090E+04</rscale>
<asrwt>0</asrwt>
<pdfrwt beam="1">  1        2 0.20625425E+00 0.21187090E+04</pdfrwt>
<pdfrwt beam="2">  1       -2 0.12878135E+00 0.21187090E+04</pdfrwt>
<totfact> 0.64084358E+00</totfact>
</mgrwt>
</event>
<event>
 4    1  0.1321115E-008  0.2779128E+04  0.7816531E-02  0.8309778E-01
         -2   -1    0    0    0  501 -0.00000000000E+00  0.00000000000E+00  0.20237713455E+04  0.20237713455E+04  0.00000000000E+00 0. -1.
          2   -1    0    0  501    0  0.00000000000E+00 -0.00000000000E+00 -0.95410383240E+03  0.95410383240E+03  0.00000000000E+00 0.  1.
    2000013    1    1    2    0    0 -0.48763469693E+03  0.82631436551E+03  0.88665117772E+03  0.16153121492E+04  0.95000000000E+03 0.  0.
   -2000013    1    1    2    0    0  0.48763469693E+03 -0.82631436551E+03  0.18301633539E+03  0.13625630287E+04  0.95000000000E+03 0.  0.
<mgrwt>
<rscale>  0 0.27791279E+04</rscale>
<asrwt>0</asrwt>
<pdfrwt beam="2">  1        2 0.14678521E+00 0.27791279E+04</pdfrwt>
<pdfrwt beam="1">  1       -2 0.31134944E+00 0.27791279E+04</pdfrwt>
<totfact> 0.63670614E-01</totfact>
</mgrwt>
</event>
<event>
 4    1  0.1321115E-008  0.2494615E+04  0.7816531E-02  0.8404906E-01
          2   -1    0    0  501    0  0.00000000000E+00  0.00000000000E+00  0.23123379374E+04  0.23123379374E+04  0.00000000000E+00 0.  1.
         -2   -1    0    0    0  501 -0.00000000000E+00 -0.00000000000E+00 -0.67281529880E+03  0.67281529880E+03  0.00000000000E+00 0. -1.
    2000013    1    1    2    0    0 -0.49861398738E+03 -0.96405198424E+02  0.67336747199E+02  0.10793257656E+04  0.95000000000E+03 0.  0.
   -2000013    1    1    2    0    0  0.49861398738E+03  0.96405198424E+02  0.15721858914E+04  0.19058274706E+04  0.95000000000E+03 0.  0.
<mgrwt>
<rscale>  0 0.24946153E+04</rscale>
<asrwt>0</asrwt>
<pdfrwt beam="1">  1        2 0.35574429E+00 0.24946153E+04</pdfrwt>
<pdfrwt beam="2">  1       -2 0.10351005E+00 0.24946153E+04</pdfrwt>
<totfact> 0.30275567E+00</totfact>
</mgrwt>
</event>
<event>
 4    1  0.1321115E-008  0.2572362E+04  0.7816531E-02  0.8377650E-01
          2   -1    0    0  501    0  0.00000000000E+00  0.00000000000E+00  0.19128673635E+04  0.19128673635E+04  0.00000000000E+00 0.  1.
         -2   -1    0    0    0  501 -0.00000000000E+00 -0.00000000000E+00 -0.86480702866E+03  0.86480702866E+03  0.00000000000E+00 0. -1.
    2000013    1    1    2    0    0  0.21961689447E+03 -0.46358743034E+03  0.12788325470E+04  0.16736360324E+04  0.95000000000E+03 0.  0.
   -2000013    1    1    2    0    0 -0.21961689447E+03  0.46358743034E+03 -0.23077221209E+03  0.11040383597E+04  0.95000000000E+03 0.  0.
<mgrwt>
<rscale>  0 0.25723617E+04</rscale>
<asrwt>0</asrwt>
<pdfrwt beam="1">  1        2 0.29428729E+00 0.25723617E+04</pdfrwt>
<pdfrwt beam="2">  1       -2 0.13304724E+00 0.25723617E+04</pdfrwt>
<totfact> 0.27118286E+00</totfact>
</mgrwt>
</event>
<event>
 4    1  0.1321115E-008  0.2426899E+04  0.7816531E-02  0.8429501E-01
          2   -1    0    0  501    0  0.00000000000E+00  0.00000000000E+00  0.34118633613E+04  0.34118633613E+04  0.00000000000E+00 0.  1.
         -2   -1    0    0    0  501 -0.00000000000E+00 -0.00000000000E+00 -0.43157055578E+03  0.43157055578E+03  0.00000000000E+00 0. -1.
    2000013    1    1    2    0    0  0.47870478448E+03 -0.53597860924E+03  0.11237426239E+04  0.16375984932E+04  0.95000000000E+03 0.  0.
   -2000013    1    1    2    0    0 -0.47870478448E+03  0.53597860924E+03  0.18565501817E+04  0.22058354239E+04  0.95000000000E+03 0.  0.
<mgrwt>
<rscale>  0 0.24268991E+04</rscale>
<asrwt>0</asrwt>
<pdfrwt beam="1">  1        2 0.52490204E+00 0.24268991E+04</pdfrwt>
<pdfrwt beam="2">  1       -2 0.66395472E-01 0.24268991E+04</pdfrwt>
<totfact> 0.17534130E+00</totfact>
</mgrwt>
</event>
<event>
 4    1  0.1321115E-008  0.2494156E+04  0.7816531E-02  0.8405070E-01
         -2   -1    0    0    0  501 -0.00000000000E+00  0.00000000000E+00  0.21756130236E+04  0.21756130236E+04  0.00000000000E+00 0. -1.
          2   -1    0    0  501    0  0.00000000000E+00 -0.00000000000E+00 -0.71483458032E+03  0.71483458032E+03  0.00000000000E+00 0.  1.
    2000013    1    1    2    0    0 -0.52843205185E+03  0.40617662615E+03  0.20124094300E+03  0.11778021066E+04  0.95000000000E+03 0.  0.
   -2000013    1    1    2    0    0  0.52843205185E+03 -0.40617662615E+03  0.12595375002E+04  0.17126454973E+04  0.95000000000E+03 0.  0.
<mgrwt>
<rscale>  0 0.24941559E+04</rscale>
<asrwt>0</asrwt>
<pdfrwt beam="2">  1        2 0.10997455E+00 0.24941559E+04</pdfrwt>
<pdfrwt beam="1">  1       -2 0.33470969E+00 0.24941559E+04</pdfrwt>
<totfact> 0.69099799E-01</totfact>
</mgrwt>
</event>
<event>
 4    1  0.1321115E-008  0.2173990E+04  0.7816531E-02  0.8529333E-01
         -2   -1    0    0    0  501 -0.00000000000E+00  0.00000000000E+00  0.61075518083E+03  0.61075518083E+03  0.00000000000E+00 0. -1.
          2   -1    0    0  501    0  0.00000000000E+00 -0.00000000000E+00 -0.19345860694E+04  0.19345860694E+04  0.00000000000E+00 0.  1.
    2000013    1    1    2    0    0 -0.40603952918E+03  0.22414545299E+03 -0.36583760228E+03  0.11186806669E+04  0.95000000000E+03 0.  0.
   -2000013    1    1    2    0    0  0.40603952918E+03 -0.22414545299E+03 -0.95799328630E+03  0.14266605833E+04  0.95000000000E+03 0.  0.
<mgrwt>
<rscale>  0 0.21739903E+04</rscale>
<asrwt>0</asrwt>
<pdfrwt beam="2">  1        2 0.29762862E+00 0.21739903E+04</pdfrwt>
<pdfrwt beam="1">  1       -2 0.93962336E-01 0.21739903E+04</pdfrwt>
<totfact> 0.63629317E+00</totfact>
</mgrwt>
</event>
<event>
 4    1  0.1321115E-008  0.2657296E+04  0.7816531E-02  0.8348995E-01
         -1   -1    0    0    0  501 -0.00000000000E+00  0.00000000000E+00  0.93629569112E+03  0.93629569112E+03  0.00000000000E+00 0.  1.
          1   -1    0    0  501    0  0.00000000000E+00 -0.00000000000E+00 -0.18854143097E+04  0.18854143097E+04  0.00000000000E+00 0. -1.
    2000013    1    1    2    0    0 -0.59978066478E+03  0.66788000947E+02 -0.12243706572E+04  0.16630637357E+04  0.95000000000E+03 0.  0.
   -2000013    1    1    2    0    0  0.59978066478E+03 -0.66788000947E+02  0.27525203859E+03  0.11586462651E+04  0.95000000000E+03 0.  0.
<mgrwt>
<rscale>  0 0.26572958E+04</rscale>
<asrwt>0</asrwt>
<pdfrwt beam="2">  1        1 0.29006374E+00 0.26572958E+04</pdfrwt>
<pdfrwt beam="1">  1       -1 0.14404549E+00 0.26572958E+04</pdfrwt>
<totfact> 0.12145691E+00</totfact>
</mgrwt>
</event>
<event>
 4    1  0.1321115E-008  0.2114448E+04  0.7816531E-02  0.8554905E-01
         -2   -1    0    0    0  501 -0.00000000000E+00  0.00000000000E+00  0.15416223439E+04  0.15416223439E+04  0.00000000000E+00 0. -1.
          2   -1    0    0  501    0  0.00000000000E+00 -0.00000000000E+00 -0.72503009536E+03  0.72503009536E+03  0.00000000000E+00 0.  1.
    2000013    1    1    2    0    0  0.43736687135E+03  0.67513325873E+02  0.25908330016E+03  0.10795702783E+04  0.95000000000E+03 0.  0.
   -2000013    1    1    2    0    0 -0.43736687135E+03 -0.67513325873E+02  0.55750894833E+03  0.11870821609E+04  0.95000000000E+03 0.  0.
<mgrwt>
<rscale>  0 0.21144480E+04</rscale>
<asrwt>0</asrwt>
<pdfrwt beam="2">  1        2 0.11154309E+00 0.21144480E+04</pdfrwt>
<pdfrwt beam="1">  1       -2 0.23717267E+00 0.21144480E+04</pdfrwt>
<totfact> 0.27803632E+00</totfact>
</mgrwt>
</event>
<event>
 4    1  0.1321115E-008  0.2000587E+04  0.7816531E-02  0.8606346E-01
          2   -1    0    0  501    0  0.00000000000E+00  0.00000000000E+00  0.27042274397E+04  0.27042274397E+04  0.00000000000E+00 0. -1.
         -2   -1    0    0    0  501 -0.00000000000E+00 -0.00000000000E+00 -0.37000857930E+03  0.37000857930E+03  0.00000000000E+00 0.  1.
    2000013    1    1    2    0    0  0.70570957352E+02  0.30507895498E+03  0.11581591847E+04  0.15303222294E+04  0.95000000000E+03 0.  0.
   -2000013    1    1    2    0    0 -0.70570957352E+02 -0.30507895498E+03  0.11760596757E+04  0.15439137896E+04  0.95000000000E+03 0.  0.
<mgrwt>
<rscale>  0 0.20005873E+04</rscale>
<asrwt>0</asrwt>
<pdfrwt beam="1">  1        2 0.41603498E+00 0.20005873E+04</pdfrwt>
<pdfrwt beam="2">  1       -2 0.56924399E-01 0.20005873E+04</pdfrwt>
<totfact> 0.71050886E+00</totfact>
</mgrwt>
</event>
<event>
 4    1  0.1321115E-008  0.2395274E+04  0.7816531E-02  0.8441275E-01
          2   -1    0    0  501    0  0.00000000000E+00  0.00000000000E+00  0.11834645436E+04  0.11834645436E+04  0.00000000000E+00 0.  1.
         -2   -1    0    0    0  501 -0.00000000000E+00 -0.00000000000E+00 -0.12119793424E+04  0.12119793424E+04  0.00000000000E+00 0. -1.
    2000013    1    1    2    0    0 -0.53731510214E+03 -0.75477283902E+02 -0.50156006558E+03  0.12035226790E+04  0.95000000000E+03 0.  0.
   -2000013    1    1    2    0    0  0.53731510214E+03  0.75477283902E+02  0.47304526675E+03  0.11919212070E+04  0.95000000000E+03 0.  0.
<mgrwt>
<rscale>  0 0.23952742E+04</rscale>
<asrwt>0</asrwt>
<pdfrwt beam="1">  1        2 0.18207147E+00 0.23952742E+04</pdfrwt>
<pdfrwt beam="2">  1       -2 0.18645836E+00 0.23952742E+04</pdfrwt>
<totfact> 0.28548642E+00</totfact>
</mgrwt>
</event>
<event>
 4    1  0.1321115E-008  0.2639910E+04  0.7816531E-02  0.8354770E-01
          2   -1    0    0  501    0  0.00000000000E+00  0.00000000000E+00  0.25886843943E+04  0.25886843943E+04  0.00000000000E+00 0.  1.
         -2   -1    0    0    0  501 -0.00000000000E+00 -0.00000000000E+00 -0.67303730522E+03  0.67303730522E+03  0.00000000000E+00 0. -1.
    2000013    1    1    2    0    0 -0.75009161974E+03  0.49404839448E+03  0.73317239234E+03  0.14989206153E+04  0.95000000000E+03 0.  0.
   -2000013    1    1    2    0    0  0.75009161974E+03 -0.49404839448E+03  0.11824746968E+04  0.17628010842E+04  0.95000000000E+03 0.  0.
<mgrwt>
<rscale>  0 0.26399100E+04</rscale>
<asrwt>0</asrwt>
<pdfrwt beam="1">  1        2 0.39825913E+00 0.26399100E+04</pdfrwt>
<pdfrwt beam="2">  1       -2 0.10354420E+00 0.26399100E+04</pdfrwt>
<totfact> 0.20703904E+00</totfact>
</mgrwt>
</event>
<event>
 4    1  0.1321115E-008  0.1998329E+04  0.7816531E-02  0.8607403E-01
          2   -1    0    0  501    0  0.00000000000E+00  0.00000000000E+00  0.17903037559E+04  0.17903037559E+04  0.00000000000E+00 0.  1.
         -2   -1    0    0    0  501 -0.00000000000E+00 -0.00000000000E+00 -0.55763122538E+03  0.55763122538E+03  0.00000000000E+00 0. -1.
    2000013    1    1    2    0    0 -0.74256828114E+02 -0.29298430250E+03  0.69493852939E+03  0.12152339024E+04  0.95000000000E+03 0.  0.
   -2000013    1    1    2    0    0  0.74256828114E+02  0.29298430250E+03  0.53773400115E+03  0.11327010789E+04  0.95000000000E+03 0.  0.
<mgrwt>
<rscale>  0 0.19983286E+04</rscale>
<asrwt>0</asrwt>
<pdfrwt beam="1">  1        2 0.27543134E+00 0.19983286E+04</pdfrwt>
<pdfrwt beam="2">  1       -2 0.85789420E-01 0.19983286E+04</pdfrwt>
<totfact> 0.95765108E+00</totfact>
</mgrwt>
</event>
<event>
 4    1  0.1321115E-008  0.2578450E+04  0.7816531E-02  0.8375558E-01
         -2   -1    0    0    0  501 -0.00000000000E+00  0.00000000000E+00  0.46099204420E+03  0.46099204420E+03  0.00000000000E+00 0. -1.
          2   -1    0    0  501    0  0.00000000000E+00 -0.00000000000E+00 -0.36054867135E+04  0.36054867135E+04  0.00000000000E+00 0.  1.
    2000013    1    1    2    0    0  0.62293354783E+03 -0.60108204655E+03 -0.14125400641E+04  0.19097421984E+04  0.95000000000E+03 0.  0.
   -2000013    1    1    2    0    0 -0.62293354783E+03  0.60108204655E+03 -0.17319546052E+04  0.21567365593E+04  0.95000000000E+03 0.  0.
<mgrwt>
<rscale>  0 0.25784497E+04</rscale>
<asrwt>0</asrwt>
<pdfrwt beam="2">  1        2 0.55469027E+00 0.25784497E+04</pdfrwt>
<pdfrwt beam="1">  1       -2 0.70921852E-01 0.25784497E+04</pdfrwt>
<totfact> 0.10963792E+00</totfact>
</mgrwt>
</event>
<event>
 4    1  0.1321115E-008  0.4121233E+04  0.7816531E-02  0.7980527E-01
         -2   -1    0    0    0  501 -0.00000000000E+00  0.00000000000E+00  0.24411854036E+04  0.24411854036E+04  0.00000000000E+00 0. -1.
          2   -1    0    0  501    0  0.00000000000E+00 -0.00000000000E+00 -0.17393764721E+04  0.17393764721E+04  0.00000000000E+00 0.  1.
    2000013    1    1    2    0    0 -0.17959953300E+04 -0.24130490818E+03  0.10281638700E+03  0.20486333234E+04  0.95000000000E+03 0.  0.
   -2000013    1    1    2    0    0  0.17959953300E+04  0.24130490818E+03  0.59899254447E+03  0.21319285524E+04  0.95000000000E+03 0.  0.
<mgrwt>
<rscale>  0 0.41212330E+04</rscale>
<asrwt>0</asrwt>
<pdfrwt beam="2">  1        2 0.26759638E+00 0.41212330E+04</pdfrwt>
<pdfrwt beam="1">  1       -2 0.37556699E+00 0.41212330E+04</pdfrwt>
<totfact> 0.77867928E-02</totfact>
</mgrwt>
</event>
<event>
 4    1  0.1321115E-008  0.2497600E+04  0.7816531E-02  0.8403841E-01
         -1   -1    0    0    0  501 -0.00000000000E+00  0.00000000000E+00  0.91687053790E+03  0.91687053790E+03  0.00000000000E+00 0. -1.
          1   -1    0    0  501    0  0.00000000000E+00 -0.00000000000E+00 -0.17008959301E+04  0.17008959301E+04  0.00000000000E+00 0.  1.
    2000013    1    1    2    0    0  0.35164311911E+03 -0.33557246362E+03  0.28783984041E+03  0.11052662735E+04  0.95000000000E+03 0.  0.
   -2000013    1    1    2    0    0 -0.35164311911E+03  0.33557246362E+03 -0.10718652326E+04  0.15125001945E+04  0.95000000000E+03 0.  0.
<mgrwt>
<rscale>  0 0.24975999E+04</rscale>
<asrwt>0</asrwt>
<pdfrwt beam="2">  1        1 0.26167629E+00 0.24975999E+04</pdfrwt>
<pdfrwt beam="1">  1       -1 0.14105701E+00 0.24975999E+04</pdfrwt>
<totfact> 0.17379670E+00</totfact>
</mgrwt>
</event>
<event>
 4    1  0.1321115E-008  0.2514701E+04  0.7816531E-02  0.8397767E-01
          1   -1    0    0  501    0  0.00000000000E+00  0.00000000000E+00  0.68203811371E+03  0.68203811371E+03  0.00000000000E+00 0.  1.
         -1   -1    0    0    0  501 -0.00000000000E+00 -0.00000000000E+00 -0.23179508241E+04  0.23179508241E+04  0.00000000000E+00 0. -1.
    2000013    1    1    2    0    0  0.64241255661E+03  0.45675193709E+03 -0.53285010989E+03  0.13445242521E+04  0.95000000000E+03 0.  0.
   -2000013    1    1    2    0    0 -0.64241255661E+03 -0.45675193709E+03 -0.11030626005E+04  0.16554646857E+04  0.95000000000E+03 0.  0.
<mgrwt>
<rscale>  0 0.25147014E+04</rscale>
<asrwt>0</asrwt>
<pdfrwt beam="1">  1        1 0.10492894E+00 0.25147014E+04</pdfrwt>
<pdfrwt beam="2">  1       -1 0.35660782E+00 0.25147014E+04</pdfrwt>
<totfact> 0.35321801E-01</totfact>
</mgrwt>
</event>
<event>
 4    1  0.1321115E-008  0.3620211E+04  0.7816531E-02  0.8085878E-01
         -2   -1    0    0    0  501 -0.00000000000E+00  0.00000000000E+00  0.14791485656E+04  0.14791485656E+04  0.00000000000E+00 0.  1.
          2   -1    0    0  501    0  0.00000000000E+00 -0.00000000000E+00 -0.22151137857E+04  0.22151137857E+04  0.00000000000E+00 0. -1.
    2000013    1    1    2    0    0  0.40364358044E+02 -0.13173443363E+04  0.44643822654E+03  0.16848835188E+04  0.95000000000E+03 0.  0.
   -2000013    1    1    2    0    0 -0.40364358044E+02  0.13173443363E+04 -0.11824034466E+04  0.20093788325E+04  0.95000000000E+03 0.  0.
<mgrwt>
<rscale>  0 0.36202113E+04</rscale>
<asrwt>0</asrwt>
<pdfrwt beam="2">  1        2 0.34078674E+00 0.36202113E+04</pdfrwt>
<pdfrwt beam="1">  1       -2 0.22756132E+00 0.36202113E+04</pdfrwt>
<totfact> 0.36490525E-01</totfact>
</mgrwt>
</event>
<event>
 4    1  0.1321115E-008  0.2132165E+04  0.7816531E-02  0.8547205E-01
          3   -1    0    0  501    0  0.00000000000E+00  0.00000000000E+00  0.11085206986E+04  0.11085206986E+04  0.00000000000E+00 0.  1.
         -3   -1    0    0    0  501 -0.00000000000E+00 -0.00000000000E+00 -0.10252690663E+04  0.10252690663E+04  0.00000000000E+00 0. -1.
    2000013    1    1    2    0    0  0.25029557555E+03 -0.41370556205E+03  0.26388760574E+02  0.10663003957E+04  0.95000000000E+03 0.  0.
   -2000013    1    1    2    0    0 -0.25029557555E+03  0.41370556205E+03  0.56862871727E+02  0.10674893692E+04  0.95000000000E+03 0.  0.
<mgrwt>
<rscale>  0 0.21321651E+04</rscale>
<asrwt>0</asrwt>
<pdfrwt beam="1">  1        3 0.17054165E+00 0.21321651E+04</pdfrwt>
<pdfrwt beam="2">  1       -3 0.15773370E+00 0.21321651E+04</pdfrwt>
<totfact> 0.15622467E-01</totfact>
</mgrwt>
</event>
<event>
 4    1  0.1321115E-008  0.2342211E+04  0.7816531E-02  0.8461461E-01
          2   -1    0    0  501    0  0.00000000000E+00  0.00000000000E+00  0.33795685842E+04  0.33795685842E+04  0.00000000000E+00 0. -1.
         -2   -1    0    0    0  501 -0.00000000000E+00 -0.00000000000E+00 -0.40581762216E+03  0.40581762216E+03  0.00000000000E+00 0.  1.
    2000013    1    1    2    0    0  0.12215399053E+03  0.45960065458E+03  0.22832896492E+04  0.25183458820E+04  0.95000000000E+03 0.  0.
   -2000013    1    1    2    0    0 -0.12215399053E+03 -0.45960065458E+03  0.69046131282E+03  0.12670403244E+04  0.95000000000E+03 0.  0.
<mgrwt>
<rscale>  0 0.23422113E+04</rscale>
<asrwt>0</asrwt>
<pdfrwt beam="1">  1        2 0.51993361E+00 0.23422113E+04</pdfrwt>
<pdfrwt beam="2">  1       -2 0.62433482E-01 0.23422113E+04</pdfrwt>
<totfact> 0.21209254E+00</totfact>
</mgrwt>
</event>
<event>
 4    1  0.1321115E-008  0.2093875E+04  0.7816531E-02  0.8563946E-01
         -2   -1    0    0    0  501 -0.00000000000E+00  0.00000000000E+00  0.69020414636E+03  0.69020414636E+03  0.00000000000E+00 0. -1.
          2   -1    0    0  501    0  0.00000000000E+00 -0.00000000000E+00 -0.15880496072E+04  0.15880496072E+04  0.00000000000E+00 0.  1.
    2000013    1    1    2    0    0 -0.22232525305E+03 -0.32542285152E+03 -0.66172011399E+03  0.12229889859E+04  0.95000000000E+03 0.  0.
   -2000013    1    1    2    0    0  0.22232525305E+03  0.32542285152E+03 -0.23612534688E+03  0.10552647677E+04  0.95000000000E+03 0.  0.
<mgrwt>
<rscale>  0 0.20938753E+04</rscale>
<asrwt>0</asrwt>
<pdfrwt beam="2">  1        2 0.24431532E+00 0.20938753E+04</pdfrwt>
<pdfrwt beam="1">  1       -2 0.10618525E+00 0.20938753E+04</pdfrwt>
<totfact> 0.74719845E+00</totfact>
</mgrwt>
</event>
<event>
 4    1  0.1321115E-008  0.2504058E+04  0.7816531E-02  0.8401541E-01
          2   -1    0    0  501    0  0.00000000000E+00  0.00000000000E+00  0.24908121507E+04  0.24908121507E+04  0.00000000000E+00 0.  1.
         -2   -1    0    0    0  501 -0.00000000000E+00 -0.00000000000E+00 -0.62934378203E+03  0.62934378203E+03  0.00000000000E+00 0. -1.
    2000013    1    1    2    0    0  0.49874109566E+03 -0.61907339531E+03  0.11573715917E+04  0.16952886334E+04  0.95000000000E+03 0.  0.
   -2000013    1    1    2    0    0 -0.49874109566E+03  0.61907339531E+03  0.70409677695E+03  0.14248672993E+04  0.95000000000E+03 0.  0.
<mgrwt>
<rscale>  0 0.25040584E+04</rscale>
<asrwt>0</asrwt>
<pdfrwt beam="1">  1        2 0.38320186E+00 0.25040584E+04</pdfrwt>
<pdfrwt beam="2">  1       -2 0.96822122E-01 0.25040584E+04</pdfrwt>
<totfact> 0.28003126E+00</totfact>
</mgrwt>
</event>
<event>
 4    1  0.1321115E-008  0.3048130E+04  0.7816531E-02  0.8230119E-01
          2   -1    0    0  501    0  0.00000000000E+00  0.00000000000E+00  0.35806133613E+04  0.35806133613E+04  0.00000000000E+00 0.  1.
         -2   -1    0    0    0  501 -0.00000000000E+00 -0.00000000000E+00 -0.64870828850E+03  0.64870828850E+03  0.00000000000E+00 0. -1.
    2000013    1    1    2    0    0 -0.65567902288E+03  0.97345124415E+03  0.17528401116E+04  0.23135407415E+04  0.95000000000E+03 0.  0.
   -2000013    1    1    2    0    0  0.65567902288E+03 -0.97345124415E+03  0.11790649612E+04  0.19157809083E+04  0.95000000000E+03 0.  0.
<mgrwt>
<rscale>  0 0.30481296E+04</rscale>
<asrwt>0</asrwt>
<pdfrwt beam="1">  1        2 0.55086358E+00 0.30481296E+04</pdfrwt>
<pdfrwt beam="2">  1       -2 0.99801277E-01 0.30481296E+04</pdfrwt>
<totfact> 0.50396435E-01</totfact>
</mgrwt>
</event>
<event>
 4    1  0.1321115E-008  0.3341633E+04  0.7816531E-02  0.8152382E-01
         -2   -1    0    0    0  501 -0.00000000000E+00  0.00000000000E+00  0.71493044137E+03  0.71493044137E+03  0.00000000000E+00 0. -1.
          2   -1    0    0  501    0  0.00000000000E+00 -0.00000000000E+00 -0.39047537004E+04  0.39047537004E+04  0.00000000000E+00 0.  1.
    2000013    1    1    2    0    0 -0.60551483400E+03  0.97193235375E+03 -0.26457896886E+04  0.30354577564E+04  0.95000000000E+03 0.  0.
   -2000013    1    1    2    0    0  0.60551483400E+03 -0.97193235375E+03 -0.54403357045E+03  0.15842263854E+04  0.95000000000E+03 0.  0.
<mgrwt>
<rscale>  0 0.33416327E+04</rscale>
<asrwt>0</asrwt>
<pdfrwt beam="2">  1        2 0.60073132E+00 0.33416327E+04</pdfrwt>
<pdfrwt beam="1">  1       -2 0.10998930E+00 0.33416327E+04</pdfrwt>
<totfact> 0.22247814E-01</totfact>
</mgrwt>
</event>
<event>
 4    1  0.1321115E-008  0.2520571E+04  0.7816531E-02  0.8395693E-01
         -2   -1    0    0    0  501 -0.00000000000E+00  0.00000000000E+00  0.45930415797E+03  0.45930415797E+03  0.00000000000E+00 0. -1.
          2   -1    0    0  501    0  0.00000000000E+00 -0.00000000000E+00 -0.34580994751E+04  0.34580994751E+04  0.00000000000E+00 0.  1.
    2000013    1    1    2    0    0 -0.58294380437E+03  0.21330283328E+03 -0.23513594341E+04  0.26108835221E+04  0.95000000000E+03 0.  0.
   -2000013    1    1    2    0    0  0.58294380437E+03 -0.21330283328E+03 -0.64743588307E+03  0.13065201110E+04  0.95000000000E+03 0.  0.
<mgrwt>
<rscale>  0 0.25205709E+04</rscale>
<asrwt>0</asrwt>
<pdfrwt beam="2">  1        2 0.53201529E+00 0.25205709E+04</pdfrwt>
<pdfrwt beam="1">  1       -2 0.70662181E-01 0.25205709E+04</pdfrwt>
<totfact> 0.14113042E+00</totfact>
</mgrwt>
</event>
<event>
 4    1  0.1321115E-008  0.2788133E+04  0.7816531E-02  0.8306962E-01
          2   -1    0    0  501    0  0.00000000000E+00  0.00000000000E+00  0.24311246100E+04  0.24311246100E+04  0.00000000000E+00 0.  1.
         -2   -1    0    0    0  501 -0.00000000000E+00 -0.00000000000E+00 -0.79939175713E+03  0.79939175713E+03  0.00000000000E+00 0. -1.
    2000013    1    1    2    0    0  0.91784103302E+03 -0.35877919992E+03  0.11219086478E+04  0.17698400183E+04  0.95000000000E+03 0.  0.
   -2000013    1    1    2    0    0 -0.91784103302E+03  0.35877919992E+03  0.50982420509E+03  0.14606763489E+04  0.95000000000E+03 0.  0.
<mgrwt>
<rscale>  0 0.27881327E+04</rscale>
<asrwt>0</asrwt>
<pdfrwt beam="1">  1        2 0.37401917E+00 0.27881327E+04</pdfrwt>
<pdfrwt beam="2">  1       -2 0.12298335E+00 0.27881327E+04</pdfrwt>
<totfact> 0.16593184E+00</totfact>
</mgrwt>
</event>
<event>
 4    1  0.1321115E-008  0.2125200E+04  0.7816531E-02  0.8550223E-01
         -1   -1    0    0    0  501 -0.00000000000E+00  0.00000000000E+00  0.10412315213E+04  0.10412315213E+04  0.00000000000E+00 0.  1.
          1   -1    0    0  501    0  0.00000000000E+00 -0.00000000000E+00 -0.10844069411E+04  0.10844069411E+04  0.00000000000E+00 0. -1.
    2000013    1    1    2    0    0 -0.22129561063E+03  0.27341503703E+03 -0.34242041736E+03  0.10693359023E+04  0.95000000000E+03 0.  0.
   -2000013    1    1    2    0    0  0.22129561063E+03 -0.27341503703E+03  0.29924499761E+03  0.10563025600E+04  0.95000000000E+03 0.  0.
<mgrwt>
<rscale>  0 0.21251999E+04</rscale>
<asrwt>0</asrwt>
<pdfrwt beam="2">  1        1 0.16683184E+00 0.21251999E+04</pdfrwt>
<pdfrwt beam="1">  1       -1 0.16018947E+00 0.21251999E+04</pdfrwt>
<totfact> 0.34824547E+00</totfact>
</mgrwt>
</event>
<event>
 4    1  0.1321115E-008  0.2219542E+04  0.7816531E-02  0.8510338E-01
         -1   -1    0    0    0  501 -0.00000000000E+00  0.00000000000E+00  0.19629632436E+04  0.19629632436E+04  0.00000000000E+00 0.  1.
          1   -1    0    0  501    0  0.00000000000E+00 -0.00000000000E+00 -0.62741440843E+03  0.62741440843E+03  0.00000000000E+00 0. -1.
    2000013    1    1    2    0    0  0.49236242917E+03  0.28596160821E+03  0.74944166673E+03  0.13372948870E+04  0.95000000000E+03 0.  0.
   -2000013    1    1    2    0    0 -0.49236242917E+03 -0.28596160821E+03  0.58610716840E+03  0.12530827650E+04  0.95000000000E+03 0.  0.
<mgrwt>
<rscale>  0 0.22195418E+04</rscale>
<asrwt>0</asrwt>
<pdfrwt beam="2">  1        1 0.96525295E-01 0.22195418E+04</pdfrwt>
<pdfrwt beam="1">  1       -1 0.30199434E+00 0.22195418E+04</pdfrwt>
<totfact> 0.93656697E-01</totfact>
</mgrwt>
</event>
<event>
 4    1  0.1321115E-008  0.2488035E+04  0.7816531E-02  0.8407261E-01
          2   -1    0    0  501    0  0.00000000000E+00  0.00000000000E+00  0.75288405342E+03  0.75288405342E+03  0.00000000000E+00 0.  1.
         -2   -1    0    0    0  501 -0.00000000000E+00 -0.00000000000E+00 -0.20555350033E+04  0.20555350033E+04  0.00000000000E+00 0. -1.
    2000013    1    1    2    0    0 -0.67926965479E+03 -0.12923135127E+03 -0.11125651179E+04  0.16181499150E+04  0.95000000000E+03 0.  0.
   -2000013    1    1    2    0    0  0.67926965479E+03  0.12923135127E+03 -0.19008583199E+03  0.11902691417E+04  0.95000000000E+03 0.  0.
<mgrwt>
<rscale>  0 0.24880350E+04</rscale>
<asrwt>0</asrwt>
<pdfrwt beam="1">  1        2 0.11582832E+00 0.24880350E+04</pdfrwt>
<pdfrwt beam="2">  1       -2 0.31623616E+00 0.24880350E+04</pdfrwt>
<totfact> 0.84171966E-01</totfact>
</mgrwt>
</event>
<event>
 4    1  0.1321115E-008  0.3419446E+04  0.7816531E-02  0.8133150E-01
         -2   -1    0    0    0  501 -0.00000000000E+00  0.00000000000E+00  0.82615202701E+03  0.82615202701E+03  0.00000000000E+00 0. -1.
          2   -1    0    0  501    0  0.00000000000E+00 -0.00000000000E+00 -0.35382740330E+04  0.35382740330E+04  0.00000000000E+00 0.  1.
    2000013    1    1    2    0    0  0.37259898241E+03  0.12952575671E+04 -0.19327278008E+04  0.25405627170E+04  0.95000000000E+03 0.  0.
   -2000013    1    1    2    0    0 -0.37259898241E+03 -0.12952575671E+04 -0.77939420513E+03  0.18238633430E+04  0.95000000000E+03 0.  0.
<mgrwt>
<rscale>  0 0.34194457E+04</rscale>
<asrwt>0</asrwt>
<pdfrwt beam="2">  1        2 0.54434985E+00 0.34194457E+04</pdfrwt>
<pdfrwt beam="1">  1       -2 0.12710031E+00 0.34194457E+04</pdfrwt>
<totfact> 0.29010781E-01</totfact>
</mgrwt>
</event>
<event>
 4    1  0.1321115E-008  0.3241130E+04  0.7816531E-02  0.8178038E-01
         -2   -1    0    0    0  501 -0.00000000000E+00  0.00000000000E+00  0.94145856909E+03  0.94145856909E+03  0.00000000000E+00 0. -1.
          2   -1    0    0  501    0  0.00000000000E+00 -0.00000000000E+00 -0.27895349996E+04  0.27895349996E+04  0.00000000000E+00 0.  1.
    2000013    1    1    2    0    0  0.38313973858E+03  0.12427297277E+04 -0.11317492056E+04  0.19683824577E+04  0.95000000000E+03 0.  0.
   -2000013    1    1    2    0    0 -0.38313973858E+03 -0.12427297277E+04 -0.71632722487E+03  0.17626111110E+04  0.95000000000E+03 0.  0.
<mgrwt>
<rscale>  0 0.32411304E+04</rscale>
<asrwt>0</asrwt>
<pdfrwt beam="2">  1        2 0.42915923E+00 0.32411304E+04</pdfrwt>
<pdfrwt beam="1">  1       -2 0.14483978E+00 0.32411304E+04</pdfrwt>
<totfact> 0.64680365E-01</totfact>
</mgrwt>
</event>
<event>
 4    1  0.1321115E-008  0.2225003E+04  0.7816531E-02  0.8508093E-01
          1   -1    0    0  501    0  0.00000000000E+00  0.00000000000E+00  0.25463594399E+04  0.25463594399E+04  0.00000000000E+00 0.  1.
         -1   -1    0    0    0  501 -0.00000000000E+00 -0.00000000000E+00 -0.48605062169E+03  0.48605062169E+03  0.00000000000E+00 0. -1.
    2000013    1    1    2    0    0 -0.35383207358E+03  0.40068691634E+03  0.13331075861E+04  0.17220403530E+04  0.95000000000E+03 0.  0.
   -2000013    1    1    2    0    0  0.35383207358E+03 -0.40068691634E+03  0.72720123214E+03  0.13103697086E+04  0.95000000000E+03 0.  0.
<mgrwt>
<rscale>  0 0.22250030E+04</rscale>
<asrwt>0</asrwt>
<pdfrwt beam="1">  1        1 0.39174760E+00 0.22250030E+04</pdfrwt>
<pdfrwt beam="2">  1       -1 0.74777020E-01 0.22250030E+04</pdfrwt>
<totfact> 0.20586921E+00</totfact>
</mgrwt>
</event>
<event>
 4    1  0.1321115E-008  0.3515176E+04  0.7816531E-02  0.8110203E-01
         -2   -1    0    0    0  501 -0.00000000000E+00  0.00000000000E+00  0.10862927193E+04  0.10862927193E+04  0.00000000000E+00 0.  1.
          2   -1    0    0  501    0  0.00000000000E+00 -0.00000000000E+00 -0.28437236571E+04  0.28437236571E+04  0.00000000000E+00 0. -1.
    2000013    1    1    2    0    0 -0.10807428627E+02 -0.13447301753E+04 -0.19115935877E+03  0.16575457597E+04  0.95000000000E+03 0.  0.
   -2000013    1    1    2    0    0  0.10807428627E+02  0.13447301753E+04 -0.15662715789E+04  0.22724706167E+04  0.95000000000E+03 0.  0.
<mgrwt>
<rscale>  0 0.35151764E+04</rscale>
<asrwt>0</asrwt>
<pdfrwt beam="2">  1        2 0.43749595E+00 0.35151764E+04</pdfrwt>
<pdfrwt beam="1">  1       -2 0.16712196E+00 0.35151764E+04</pdfrwt>
<totfact> 0.39876448E-01</totfact>
</mgrwt>
</event>
<event>
 4    1  0.1321115E-008  0.1984694E+04  0.7816531E-02  0.8613810E-01
         -2   -1    0    0    0  501 -0.00000000000E+00  0.00000000000E+00  0.69963059624E+03  0.69963059624E+03  0.00000000000E+00 0. -1.
          2   -1    0    0  501    0  0.00000000000E+00 -0.00000000000E+00 -0.14075321216E+04  0.14075321216E+04  0.00000000000E+00 0.  1.
    2000013    1    1    2    0    0  0.48048067043E+02  0.26074713154E+03 -0.47003591206E+03  0.10925801765E+04  0.95000000000E+03 0.  0.
   -2000013    1    1    2    0    0 -0.48048067043E+02 -0.26074713154E+03 -0.23786561333E+03  0.10145825414E+04  0.95000000000E+03 0.  0.
<mgrwt>
<rscale>  0 0.19846940E+04</rscale>
<asrwt>0</asrwt>
<pdfrwt beam="2">  1        2 0.21654340E+00 0.19846940E+04</pdfrwt>
<pdfrwt beam="1">  1       -2 0.10763548E+00 0.19846940E+04</pdfrwt>
<totfact> 0.92306036E+00</totfact>
</mgrwt>
</event>
<event>
 4    1  0.1321115E-008  0.2512411E+04  0.7816531E-02  0.8398577E-01
          2   -1    0    0  501    0  0.00000000000E+00  0.00000000000E+00  0.26382542221E+04  0.26382542221E+04  0.00000000000E+00 0.  1.
         -2   -1    0    0    0  501 -0.00000000000E+00 -0.00000000000E+00 -0.59814242953E+03  0.59814242953E+03  0.00000000000E+00 0. -1.
    2000013    1    1    2    0    0 -0.44927158860E+03  0.67764296902E+03  0.11752079316E+04  0.17160007681E+04  0.95000000000E+03 0.  0.
   -2000013    1    1    2    0    0  0.44927158860E+03 -0.67764296902E+03  0.86490386099E+03  0.15203958835E+04  0.95000000000E+03 0.  0.
<mgrwt>
<rscale>  0 0.25124106E+04</rscale>
<asrwt>0</asrwt>
<pdfrwt beam="1">  1        2 0.40588526E+00 0.25124106E+04</pdfrwt>
<pdfrwt beam="2">  1       -2 0.92021914E-01 0.25124106E+04</pdfrwt>
<totfact> 0.25837075E+00</totfact>
</mgrwt>
</event>
<event>
 4    1  0.1321115E-008  0.2160622E+04  0.7816531E-02  0.8534999E-01
         -2   -1    0    0    0  501 -0.00000000000E+00  0.00000000000E+00  0.42389201588E+03  0.42389201588E+03  0.00000000000E+00 0. -1.
          2   -1    0    0  501    0  0.00000000000E+00 -0.00000000000E+00 -0.27532286273E+04  0.27532286273E+04  0.00000000000E+00 0.  1.
    2000013    1    1    2    0    0  0.31394079350E+03  0.32276670402E+03 -0.79901436243E+03  0.13204776100E+04  0.95000000000E+03 0.  0.
   -2000013    1    1    2    0    0 -0.31394079350E+03 -0.32276670402E+03 -0.15303222490E+04  0.18566430333E+04  0.95000000000E+03 0.  0.
<mgrwt>
<rscale>  0 0.21606218E+04</rscale>
<asrwt>0</asrwt>
<pdfrwt beam="2">  1        2 0.42357362E+00 0.21606218E+04</pdfrwt>
<pdfrwt beam="1">  1       -2 0.65214159E-01 0.21606218E+04</pdfrwt>
<totfact> 0.49085858E+00</totfact>
</mgrwt>
</event>
<event>
 4    1  0.1321115E-008  0.2821686E+04  0.7816531E-02  0.8296567E-01
         -2   -1    0    0    0  501 -0.00000000000E+00  0.00000000000E+00  0.67389540246E+03  0.67389540246E+03  0.00000000000E+00 0. -1.
          2   -1    0    0  501    0  0.00000000000E+00 -0.00000000000E+00 -0.29536902550E+04  0.29536902550E+04  0.00000000000E+00 0.  1.
    2000013    1    1    2    0    0  0.92799813976E+03  0.26236059307E+03 -0.16508597994E+04  0.21349125756E+04  0.95000000000E+03 0.  0.
   -2000013    1    1    2    0    0 -0.92799813976E+03 -0.26236059307E+03 -0.62893505310E+03  0.14926730818E+04  0.95000000000E+03 0.  0.
<mgrwt>
<rscale>  0 0.28216862E+04</rscale>
<asrwt>0</asrwt>
<pdfrwt beam="2">  1        2 0.45441388E+00 0.28216862E+04</pdfrwt>
<pdfrwt beam="1">  1       -2 0.10367622E+00 0.28216862E+04</pdfrwt>
<totfact> 0.12245050E+00</totfact>
</mgrwt>
</event>
<event>
 4    1  0.1321115E-008  0.2978734E+04  0.7816531E-02  0.8249830E-01
          1   -1    0    0  501    0  0.00000000000E+00  0.00000000000E+00  0.25192580124E+04  0.25192580124E+04  0.00000000000E+00 0.  1.
         -1   -1    0    0    0  501 -0.00000000000E+00 -0.00000000000E+00 -0.88050317610E+03  0.88050317610E+03  0.00000000000E+00 0. -1.
    2000013    1    1    2    0    0 -0.91360110220E+03  0.67048069909E+03  0.10219566526E+04  0.17975279529E+04  0.95000000000E+03 0.  0.
   -2000013    1    1    2    0    0  0.91360110220E+03 -0.67048069909E+03  0.61679818373E+03  0.16022332356E+04  0.95000000000E+03 0.  0.
<mgrwt>
<rscale>  0 0.29787344E+04</rscale>
<asrwt>0</asrwt>
<pdfrwt beam="1">  1        1 0.38757815E+00 0.29787344E+04</pdfrwt>
<pdfrwt beam="2">  1       -1 0.13546203E+00 0.29787344E+04</pdfrwt>
<totfact> 0.51120333E-01</totfact>
</mgrwt>
</event>
<event>
 4    1  0.1321115E-008  0.2515842E+04  0.7816531E-02  0.8397363E-01
          2   -1    0    0  501    0  0.00000000000E+00  0.00000000000E+00  0.17232504916E+04  0.17232504916E+04  0.00000000000E+00 0. -1.
         -2   -1    0    0    0  501 -0.00000000000E+00 -0.00000000000E+00 -0.91824467586E+03  0.91824467586E+03  0.00000000000E+00 0.  1.
    2000013    1    1    2    0    0  0.14987229999E+03  0.77468312965E+03  0.15123921327E+03  0.12441740060E+04  0.95000000000E+03 0.  0.
   -2000013    1    1    2    0    0 -0.14987229999E+03 -0.77468312965E+03  0.65376660246E+03  0.13973211614E+04  0.95000000000E+03 0.  0.
<mgrwt>
<rscale>  0 0.25158423E+04</rscale>
<asrwt>0</asrwt>
<pdfrwt beam="1">  1        2 0.26511546E+00 0.25158423E+04</pdfrwt>
<pdfrwt beam="2">  1       -2 0.14126841E+00 0.25158423E+04</pdfrwt>
<totfact> 0.29749836E+00</totfact>
</mgrwt>
</event>
<event>
 4    1  0.1321115E-008  0.3925889E+04  0.7816531E-02  0.8019666E-01
          1   -1    0    0  501    0  0.00000000000E+00  0.00000000000E+00  0.33347190760E+04  0.33347190760E+04  0.00000000000E+00 0. -1.
         -1   -1    0    0    0  501 -0.00000000000E+00 -0.00000000000E+00 -0.11554651620E+04  0.11554651620E+04  0.00000000000E+00 0.  1.
    2000013    1    1    2    0    0  0.13116534357E+04 -0.10895466814E+04  0.85216721537E+03  0.21298440481E+04  0.95000000000E+03 0.  0.
   -2000013    1    1    2    0    0 -0.13116534357E+04  0.10895466814E+04  0.13270866986E+04  0.23603401899E+04  0.95000000000E+03 0.  0.
<mgrwt>
<rscale>  0 0.39258893E+04</rscale>
<asrwt>0</asrwt>
<pdfrwt beam="1">  1        1 0.51303370E+00 0.39258893E+04</pdfrwt>
<pdfrwt beam="2">  1       -1 0.17776387E+00 0.39258893E+04</pdfrwt>
<totfact> 0.57064342E-02</totfact>
</mgrwt>
</event>
<event>
 4    1  0.1321115E-008  0.2225643E+04  0.7816531E-02  0.8507830E-01
          1   -1    0    0  501    0  0.00000000000E+00  0.00000000000E+00  0.32311002637E+04  0.32311002637E+04  0.00000000000E+00 0. -1.
         -1   -1    0    0    0  501 -0.00000000000E+00 -0.00000000000E+00 -0.38326642337E+03  0.38326642337E+03  0.00000000000E+00 0.  1.
    2000013    1    1    2    0    0  0.42546457136E+03  0.33545355523E+03  0.10898256697E+04  0.15439459769E+04  0.95000000000E+03 0.  0.
   -2000013    1    1    2    0    0 -0.42546457136E+03 -0.33545355523E+03  0.17580081706E+04  0.20704207102E+04  0.95000000000E+03 0.  0.
<mgrwt>
<rscale>  0 0.22256435E+04</rscale>
<asrwt>0</asrwt>
<pdfrwt beam="1">  1        1 0.49709233E+00 0.22256435E+04</pdfrwt>
<pdfrwt beam="2">  1       -1 0.58964067E-01 0.22256435E+04</pdfrwt>
<totfact> 0.10697430E+00</totfact>
</mgrwt>
</event>
<event>
 4    1  0.1321115E-008  0.2219275E+04  0.7816531E-02  0.8510448E-01
          2   -1    0    0  501    0  0.00000000000E+00  0.00000000000E+00  0.15686249148E+04  0.15686249148E+04  0.00000000000E+00 0.  1.
         -2   -1    0    0    0  501 -0.00000000000E+00 -0.00000000000E+00 -0.78495225966E+03  0.78495225966E+03  0.00000000000E+00 0. -1.
    2000013    1    1    2    0    0  0.16058151960E+03 -0.43497585936E+03  0.74960179406E+03  0.12959140683E+04  0.95000000000E+03 0.  0.
   -2000013    1    1    2    0    0 -0.16058151960E+03  0.43497585936E+03  0.34070861098E+02  0.10576631062E+04  0.95000000000E+03 0.  0.
<mgrwt>
<rscale>  0 0.22192753E+04</rscale>
<asrwt>0</asrwt>
<pdfrwt beam="1">  1        2 0.24132691E+00 0.22192753E+04</pdfrwt>
<pdfrwt beam="2">  1       -2 0.12076189E+00 0.22192753E+04</pdfrwt>
<totfact> 0.55403532E+00</totfact>
</mgrwt>
</event>
<event>
 4    1  0.1321115E-008  0.2062992E+04  0.7816531E-02  0.8577723E-01
          2   -1    0    0  501    0  0.00000000000E+00  0.00000000000E+00  0.11890006834E+04  0.11890006834E+04  0.00000000000E+00 0.  1.
         -2   -1    0    0    0  501 -0.00000000000E+00 -0.00000000000E+00 -0.89485581241E+03  0.89485581241E+03  0.00000000000E+00 0. -1.
    2000013    1    1    2    0    0 -0.13361145783E+03  0.22922228022E+03  0.45193486347E+03  0.10849608271E+04  0.95000000000E+03 0.  0.
   -2000013    1    1    2    0    0  0.13361145783E+03 -0.22922228022E+03 -0.15778999246E+03  0.99889566879E+03  0.95000000000E+03 0.  0.
<mgrwt>
<rscale>  0 0.20629922E+04</rscale>
<asrwt>0</asrwt>
<pdfrwt beam="1">  1        2 0.18292318E+00 0.20629922E+04</pdfrwt>
<pdfrwt beam="2">  1       -2 0.13767012E+00 0.20629922E+04</pdfrwt>
<totfact> 0.66691067E+00</totfact>
</mgrwt>
</event>
<event>
 4    1  0.1321115E-008  0.2506029E+04  0.7816531E-02  0.8400841E-01
         -2   -1    0    0    0  501 -0.00000000000E+00  0.00000000000E+00  0.12408114451E+04  0.12408114451E+04  0.00000000000E+00 0. -1.
          2   -1    0    0  501    0  0.00000000000E+00 -0.00000000000E+00 -0.12653378834E+04  0.12653378834E+04  0.00000000000E+00 0.  1.
    2000013    1    1    2    0    0  0.70669847310E+03 -0.39373433627E+03  0.10218118907E+03  0.12519546537E+04  0.95000000000E+03 0.  0.
   -2000013    1    1    2    0    0 -0.70669847310E+03  0.39373433627E+03 -0.12670762742E+03  0.12541946748E+04  0.95000000000E+03 0.  0.
<mgrwt>
<rscale>  0 0.25060293E+04</rscale>
<asrwt>0</asrwt>
<pdfrwt beam="2">  1        2 0.19466737E+00 0.25060293E+04</pdfrwt>
<pdfrwt beam="1">  1       -2 0.19089407E+00 0.25060293E+04</pdfrwt>
<totfact> 0.23608412E+00</totfact>
</mgrwt>
</event>
<event>
 4    1  0.1321115E-008  0.2321904E+04  0.7816531E-02  0.8469334E-01
         -2   -1    0    0    0  501 -0.00000000000E+00  0.00000000000E+00  0.58150061552E+03  0.58150061552E+03  0.00000000000E+00 0. -1.
          2   -1    0    0  501    0  0.00000000000E+00 -0.00000000000E+00 -0.23178129838E+04  0.23178129838E+04  0.00000000000E+00 0.  1.
    2000013    1    1    2    0    0 -0.59239035073E+03 -0.30489145292E+03 -0.91528536814E+03  0.14778810611E+04  0.95000000000E+03 0.  0.
   -2000013    1    1    2    0    0  0.59239035073E+03  0.30489145292E+03 -0.82102700017E+03  0.14214325382E+04  0.95000000000E+03 0.  0.
<mgrwt>
<rscale>  0 0.23219041E+04</rscale>
<asrwt>0</asrwt>
<pdfrwt beam="2">  1        2 0.35658661E+00 0.23219041E+04</pdfrwt>
<pdfrwt beam="1">  1       -2 0.89461633E-01 0.23219041E+04</pdfrwt>
<totfact> 0.42945936E+00</totfact>
</mgrwt>
</event>
<event>
 4    1  0.1321115E-008  0.3754789E+04  0.7816531E-02  0.8055927E-01
          2   -1    0    0  501    0  0.00000000000E+00  0.00000000000E+00  0.14053766148E+04  0.14053766148E+04  0.00000000000E+00 0.  1.
         -2   -1    0    0    0  501 -0.00000000000E+00 -0.00000000000E+00 -0.25079476890E+04  0.25079476890E+04  0.00000000000E+00 0. -1.
    2000013    1    1    2    0    0  0.12983012197E+04 -0.96557786845E+03 -0.61870333495E+03  0.19756569778E+04  0.95000000000E+03 0.  0.
   -2000013    1    1    2    0    0 -0.12983012197E+04  0.96557786845E+03 -0.48386773930E+03  0.19376673260E+04  0.95000000000E+03 0.  0.
<mgrwt>
<rscale>  0 0.37547895E+04</rscale>
<asrwt>0</asrwt>
<pdfrwt beam="1">  1        2 0.21621179E+00 0.37547895E+04</pdfrwt>
<pdfrwt beam="2">  1       -2 0.38583810E+00 0.37547895E+04</pdfrwt>
<totfact> 0.10606726E-01</totfact>
</mgrwt>
</event>
<event>
 4    1  0.1321115E-008  0.2218872E+04  0.7816531E-02  0.8510614E-01
         -2   -1    0    0    0  501 -0.00000000000E+00  0.00000000000E+00  0.21354827362E+04  0.21354827362E+04  0.00000000000E+00 0. -1.
          2   -1    0    0  501    0  0.00000000000E+00 -0.00000000000E+00 -0.57637924510E+03  0.57637924510E+03  0.00000000000E+00 0.  1.
    2000013    1    1    2    0    0  0.12996439780E+03 -0.52145758232E+03  0.53652773937E+03  0.12162116469E+04  0.95000000000E+03 0.  0.
   -2000013    1    1    2    0    0 -0.12996439780E+03  0.52145758232E+03  0.10225757517E+04  0.14956503344E+04  0.95000000000E+03 0.  0.
<mgrwt>
<rscale>  0 0.22188717E+04</rscale>
<asrwt>0</asrwt>
<pdfrwt beam="2">  1        2 0.88673731E-01 0.22188717E+04</pdfrwt>
<pdfrwt beam="1">  1       -2 0.32853580E+00 0.22188717E+04</pdfrwt>
<totfact> 0.10081387E+00</totfact>
</mgrwt>
</event>
<event>
 4    1  0.1321115E-008  0.2537482E+04  0.7816531E-02  0.8389753E-01
          2   -1    0    0  501    0  0.00000000000E+00  0.00000000000E+00  0.17503961587E+04  0.17503961587E+04  0.00000000000E+00 0.  1.
         -2   -1    0    0    0  501 -0.00000000000E+00 -0.00000000000E+00 -0.91962256516E+03  0.91962256516E+03  0.00000000000E+00 0. -1.
    2000013    1    1    2    0    0  0.78934227416E+03  0.17222550920E+03  0.66098980204E+03  0.14114284857E+04  0.95000000000E+03 0.  0.
   -2000013    1    1    2    0    0 -0.78934227416E+03 -0.17222550920E+03  0.16978379150E+03  0.12585902382E+04  0.95000000000E+03 0.  0.
<mgrwt>
<rscale>  0 0.25374821E+04</rscale>
<asrwt>0</asrwt>
<pdfrwt beam="1">  1        2 0.26929172E+00 0.25374821E+04</pdfrwt>
<pdfrwt beam="2">  1       -2 0.14148039E+00 0.25374821E+04</pdfrwt>
<totfact> 0.28570515E+00</totfact>
</mgrwt>
</event>
<event>
 4    1  0.1321115E-008  0.2465335E+04  0.7816531E-02  0.8415440E-01
          2   -1    0    0  501    0  0.00000000000E+00  0.00000000000E+00  0.21380545968E+04  0.21380545968E+04  0.00000000000E+00 0.  1.
         -2   -1    0    0    0  501 -0.00000000000E+00 -0.00000000000E+00 -0.71067831890E+03  0.71067831890E+03  0.00000000000E+00 0. -1.
    2000013    1    1    2    0    0  0.22855383426E+03  0.73281238549E+03  0.52130885041E+03  0.13279735558E+04  0.95000000000E+03 0.  0.
   -2000013    1    1    2    0    0 -0.22855383426E+03 -0.73281238549E+03  0.90606742752E+03  0.15207593599E+04  0.95000000000E+03 0.  0.
<mgrwt>
<rscale>  0 0.24653349E+04</rscale>
<asrwt>0</asrwt>
<pdfrwt beam="1">  1        2 0.32893147E+00 0.24653349E+04</pdfrwt>
<pdfrwt beam="2">  1       -2 0.10933513E+00 0.24653349E+04</pdfrwt>
<totfact> 0.33359937E+00</totfact>
</mgrwt>
</event>
<event>
 4    1  0.1321115E-008  0.3043782E+04  0.7816531E-02  0.8231338E-01
         -1   -1    0    0    0  501 -0.00000000000E+00  0.00000000000E+00  0.11398988139E+04  0.11398988139E+04  0.00000000000E+00 0. -1.
          1   -1    0    0  501    0  0.00000000000E+00 -0.00000000000E+00 -0.20318934783E+04  0.20318934783E+04  0.00000000000E+00 0.  1.
    2000013    1    1    2    0    0 -0.28066415023E+03 -0.11290061848E+04 -0.19026724894E+03  0.15139778587E+04  0.95000000000E+03 0.  0.
   -2000013    1    1    2    0    0  0.28066415023E+03  0.11290061848E+04 -0.70172741546E+03  0.16578144335E+04  0.95000000000E+03 0.  0.
<mgrwt>
<rscale>  0 0.30437825E+04</rscale>
<asrwt>0</asrwt>
<pdfrwt beam="2">  1        1 0.31259899E+00 0.30437825E+04</pdfrwt>
<pdfrwt beam="1">  1       -1 0.17536905E+00 0.30437825E+04</pdfrwt>
<totfact> 0.54034393E-01</totfact>
</mgrwt>
</event>
<event>
 4    1  0.1321115E-008  0.3058721E+04  0.7816531E-02  0.8227159E-01
          2   -1    0    0  501    0  0.00000000000E+00  0.00000000000E+00  0.34259887546E+04  0.34259887546E+04  0.00000000000E+00 0.  1.
         -2   -1    0    0    0  501 -0.00000000000E+00 -0.00000000000E+00 -0.68270610788E+03  0.68270610788E+03  0.00000000000E+00 0. -1.
    2000013    1    1    2    0    0  0.10804980711E+04  0.44874793997E+03  0.10224095262E+04  0.18211732577E+04  0.95000000000E+03 0.  0.
   -2000013    1    1    2    0    0 -0.10804980711E+04 -0.44874793997E+03  0.17208731205E+04  0.22875216048E+04  0.95000000000E+03 0.  0.
<mgrwt>
<rscale>  0 0.30587209E+04</rscale>
<asrwt>0</asrwt>
<pdfrwt beam="1">  1        2 0.52707518E+00 0.30587209E+04</pdfrwt>
<pdfrwt beam="2">  1       -2 0.10503171E+00 0.30587209E+04</pdfrwt>
<totfact> 0.57208869E-01</totfact>
</mgrwt>
</event>
<event>
 4    1  0.1321115E-008  0.3037404E+04  0.7816531E-02  0.8233130E-01
          2   -1    0    0  501    0  0.00000000000E+00  0.00000000000E+00  0.24640031090E+04  0.24640031090E+04  0.00000000000E+00 0.  1.
         -2   -1    0    0    0  501 -0.00000000000E+00 -0.00000000000E+00 -0.93606057971E+03  0.93606057971E+03  0.00000000000E+00 0. -1.
    2000013    1    1    2    0    0  0.14174327218E+02 -0.82642668846E+03 -0.18637980470E+03  0.12729569571E+04  0.95000000000E+03 0.  0.
   -2000013    1    1    2    0    0 -0.14174327218E+02  0.82642668846E+03  0.17143223340E+04  0.21271067317E+04  0.95000000000E+03 0.  0.
<mgrwt>
<rscale>  0 0.30374043E+04</rscale>
<asrwt>0</asrwt>
<pdfrwt beam="1">  1        2 0.37907740E+00 0.30374043E+04</pdfrwt>
<pdfrwt beam="2">  1       -2 0.14400932E+00 0.30374043E+04</pdfrwt>
<totfact> 0.10396499E+00</totfact>
</mgrwt>
</event>
<event>
 4    1  0.1321115E-008  0.2907186E+04  0.7816531E-02  0.8270743E-01
         -2   -1    0    0    0  501 -0.00000000000E+00  0.00000000000E+00  0.10315061695E+04  0.10315061695E+04  0.00000000000E+00 0. -1.
          2   -1    0    0  501    0  0.00000000000E+00 -0.00000000000E+00 -0.20483954107E+04  0.20483954107E+04  0.00000000000E+00 0.  1.
    2000013    1    1    2    0    0 -0.91136948742E+03  0.60641890023E+03 -0.62495215593E+03  0.15784180126E+04  0.95000000000E+03 0.  0.
   -2000013    1    1    2    0    0  0.91136948742E+03 -0.60641890023E+03 -0.39193708518E+03  0.15014835676E+04  0.95000000000E+03 0.  0.
<mgrwt>
<rscale>  0 0.29071859E+04</rscale>
<asrwt>0</asrwt>
<pdfrwt beam="2">  1        2 0.31513775E+00 0.29071859E+04</pdfrwt>
<pdfrwt beam="1">  1       -2 0.15869326E+00 0.29071859E+04</pdfrwt>
<totfact> 0.13951193E+00</totfact>
</mgrwt>
</event>
<event>
 4    1  0.1321115E-008  0.2474419E+04  0.7816531E-02  0.8412156E-01
         -2   -1    0    0    0  501 -0.00000000000E+00  0.00000000000E+00  0.59482318467E+03  0.59482318467E+03  0.00000000000E+00 0. -1.
          2   -1    0    0  501    0  0.00000000000E+00 -0.00000000000E+00 -0.25733486664E+04  0.25733486664E+04  0.00000000000E+00 0.  1.
    2000013    1    1    2    0    0 -0.20397125941E+03 -0.73583234725E+03 -0.12612741095E+04  0.17539572108E+04  0.95000000000E+03 0.  0.
   -2000013    1    1    2    0    0  0.20397125941E+03  0.73583234725E+03 -0.71725137228E+03  0.14142146403E+04  0.95000000000E+03 0.  0.
<mgrwt>
<rscale>  0 0.24744191E+04</rscale>
<asrwt>0</asrwt>
<pdfrwt beam="2">  1        2 0.39589980E+00 0.24744191E+04</pdfrwt>
<pdfrwt beam="1">  1       -2 0.91511257E-01 0.24744191E+04</pdfrwt>
<totfact> 0.28667413E+00</totfact>
</mgrwt>
</event>
<event>
 4    1  0.1321115E-008  0.2445757E+04  0.7816531E-02  0.8422569E-01
          2   -1    0    0  501    0  0.00000000000E+00  0.00000000000E+00  0.30100785468E+04  0.30100785468E+04  0.00000000000E+00 0.  1.
         -2   -1    0    0    0  501 -0.00000000000E+00 -0.00000000000E+00 -0.49680814464E+03  0.49680814464E+03  0.00000000000E+00 0. -1.
    2000013    1    1    2    0    0 -0.59303587603E+03  0.29275282204E+03  0.18221234916E+04  0.21587102130E+04  0.95000000000E+03 0.  0.
   -2000013    1    1    2    0    0  0.59303587603E+03 -0.29275282204E+03  0.69114691062E+03  0.13481764785E+04  0.95000000000E+03 0.  0.
<mgrwt>
<rscale>  0 0.24457568E+04</rscale>
<asrwt>0</asrwt>
<pdfrwt beam="1">  1        2 0.46308900E+00 0.24457568E+04</pdfrwt>
<pdfrwt beam="2">  1       -2 0.76432024E-01 0.24457568E+04</pdfrwt>
<totfact> 0.23544040E+00</totfact>
</mgrwt>
</event>
<event>
 4    1  0.1321115E-008  0.2464363E+04  0.7816531E-02  0.8415793E-01
          2   -1    0    0  501    0  0.00000000000E+00  0.00000000000E+00  0.78493332788E+03  0.78493332788E+03  0.00000000000E+00 0.  1.
         -2   -1    0    0    0  501 -0.00000000000E+00 -0.00000000000E+00 -0.19342671803E+04  0.19342671803E+04  0.00000000000E+00 0. -1.
    2000013    1    1    2    0    0  0.16526457819E+03  0.75424800974E+03 -0.72901938267E+03  0.14248409390E+04  0.95000000000E+03 0.  0.
   -2000013    1    1    2    0    0 -0.16526457819E+03 -0.75424800974E+03 -0.42031446977E+03  0.12943595692E+04  0.95000000000E+03 0.  0.
<mgrwt>
<rscale>  0 0.24643626E+04</rscale>
<asrwt>0</asrwt>
<pdfrwt beam="1">  1        2 0.12075897E+00 0.24643626E+04</pdfrwt>
<pdfrwt beam="2">  1       -2 0.29757956E+00 0.24643626E+04</pdfrwt>
<totfact> 0.10394085E+00</totfact>
</mgrwt>
</event>
<event>
 4    1  0.1321115E-008  0.2753347E+04  0.7816531E-02  0.8317900E-01
          2   -1    0    0  501    0  0.00000000000E+00  0.00000000000E+00  0.20247198060E+04  0.20247198060E+04  0.00000000000E+00 0.  1.
         -2   -1    0    0    0  501 -0.00000000000E+00 -0.00000000000E+00 -0.93604543548E+03  0.93604543548E+03  0.00000000000E+00 0. -1.
    2000013    1    1    2    0    0 -0.85497641726E+03  0.38231729585E+03  0.90991653553E+03  0.16148062702E+04  0.95000000000E+03 0.  0.
   -2000013    1    1    2    0    0  0.85497641726E+03 -0.38231729585E+03  0.17875783503E+03  0.13459589713E+04  0.95000000000E+03 0.  0.
<mgrwt>
<rscale>  0 0.27533469E+04</rscale>
<asrwt>0</asrwt>
<pdfrwt beam="1">  1        2 0.31149535E+00 0.27533469E+04</pdfrwt>
<pdfrwt beam="2">  1       -2 0.14400699E+00 0.27533469E+04</pdfrwt>
<totfact> 0.18864522E+00</totfact>
</mgrwt>
</event>
<event>
 4    1  0.1321115E-008  0.2331291E+04  0.7816531E-02  0.8465685E-01
          1   -1    0    0  501    0  0.00000000000E+00  0.00000000000E+00  0.31495425997E+04  0.31495425997E+04  0.00000000000E+00 0.  1.
         -1   -1    0    0    0  501 -0.00000000000E+00 -0.00000000000E+00 -0.43140527753E+03  0.43140527753E+03  0.00000000000E+00 0. -1.
    2000013    1    1    2    0    0  0.56057820053E+03  0.29939246955E+03  0.10076366379E+04  0.15237176129E+04  0.95000000000E+03 0.  0.
   -2000013    1    1    2    0    0 -0.56057820053E+03 -0.29939246955E+03  0.17105006843E+04  0.20572302644E+04  0.95000000000E+03 0.  0.
<mgrwt>
<rscale>  0 0.23312909E+04</rscale>
<asrwt>0</asrwt>
<pdfrwt beam="1">  1        1 0.48454500E+00 0.23312909E+04</pdfrwt>
<pdfrwt beam="2">  1       -1 0.66370045E-01 0.23312909E+04</pdfrwt>
<totfact> 0.96228252E-01</totfact>
</mgrwt>
</event>
<event>
 4    1  0.1321115E-008  0.2496800E+04  0.7816531E-02  0.8404127E-01
          2   -1    0    0  501    0  0.00000000000E+00  0.00000000000E+00  0.20114352140E+04  0.20114352140E+04  0.00000000000E+00 0.  1.
         -2   -1    0    0    0  501 -0.00000000000E+00 -0.00000000000E+00 -0.77482088143E+03  0.77482088143E+03  0.00000000000E+00 0. -1.
    2000013    1    1    2    0    0 -0.52707111645E+03 -0.53558451153E+03  0.95558294261E+03  0.15428199801E+04  0.95000000000E+03 0.  0.
   -2000013    1    1    2    0    0  0.52707111645E+03  0.53558451153E+03  0.28103138998E+03  0.12434361153E+04  0.95000000000E+03 0.  0.
<mgrwt>
<rscale>  0 0.24967996E+04</rscale>
<asrwt>0</asrwt>
<pdfrwt beam="1">  1        2 0.30945157E+00 0.24967996E+04</pdfrwt>
<pdfrwt beam="2">  1       -2 0.11920321E+00 0.24967996E+04</pdfrwt>
<totfact> 0.31710026E+00</totfact>
</mgrwt>
</event>
<event>
 4    1  0.1321115E-008  0.3498806E+04  0.7816531E-02  0.8114073E-01
         -2   -1    0    0    0  501 -0.00000000000E+00  0.00000000000E+00  0.16924327195E+04  0.16924327195E+04  0.00000000000E+00 0. -1.
          2   -1    0    0  501    0  0.00000000000E+00 -0.00000000000E+00 -0.18082914485E+04  0.18082914485E+04  0.00000000000E+00 0.  1.
    2000013    1    1    2    0    0  0.34656920911E+03 -0.13408372252E+04  0.43219312100E+03  0.17341411635E+04  0.95000000000E+03 0.  0.
   -2000013    1    1    2    0    0 -0.34656920911E+03  0.13408372252E+04 -0.54805184998E+03  0.17665830044E+04  0.95000000000E+03 0.  0.
<mgrwt>
<rscale>  0 0.34988064E+04</rscale>
<asrwt>0</asrwt>
<pdfrwt beam="2">  1        2 0.27819868E+00 0.34988064E+04</pdfrwt>
<pdfrwt beam="1">  1       -2 0.26037427E+00 0.34988064E+04</pdfrwt>
<totfact> 0.38941615E-01</totfact>
</mgrwt>
</event>
<event>
 4    1  0.1321115E-008  0.2386457E+04  0.7816531E-02  0.8444591E-01
         -2   -1    0    0    0  501 -0.00000000000E+00  0.00000000000E+00  0.14282745064E+04  0.14282745064E+04  0.00000000000E+00 0. -1.
          2   -1    0    0  501    0  0.00000000000E+00 -0.00000000000E+00 -0.99686335696E+03  0.99686335696E+03  0.00000000000E+00 0.  1.
    2000013    1    1    2    0    0 -0.67012409681E+03 -0.13634115239E+03 -0.19649922037E+02  0.11707012148E+04  0.95000000000E+03 0.  0.
   -2000013    1    1    2    0    0  0.67012409681E+03  0.13634115239E+03  0.45106107147E+03  0.12544366485E+04  0.95000000000E+03 0.  0.
<mgrwt>
<rscale>  0 0.23864572E+04</rscale>
<asrwt>0</asrwt>
<pdfrwt beam="2">  1        2 0.15336359E+00 0.23864572E+04</pdfrwt>
<pdfrwt beam="1">  1       -2 0.21973454E+00 0.23864572E+04</pdfrwt>
<totfact> 0.22598572E+00</totfact>
</mgrwt>
</event>
<event>
 4    1  0.1321115E-008  0.2309539E+04  0.7816531E-02  0.8474169E-01
         -2   -1    0    0    0  501 -0.00000000000E+00  0.00000000000E+00  0.11157973027E+04  0.11157973027E+04  0.00000000000E+00 0. -1.
          2   -1    0    0  501    0  0.00000000000E+00 -0.00000000000E+00 -0.11951032182E+04  0.11951032182E+04  0.00000000000E+00 0.  1.
    2000013    1    1    2    0    0 -0.15794860807E+03  0.63569414034E+03 -0.83703267995E+02  0.11569619872E+04  0.95000000000E+03 0.  0.
   -2000013    1    1    2    0    0  0.15794860807E+03 -0.63569414034E+03  0.43973524813E+01  0.11539385337E+04  0.95000000000E+03 0.  0.
<mgrwt>
<rscale>  0 0.23095393E+04</rscale>
<asrwt>0</asrwt>
<pdfrwt beam="2">  1        2 0.18386203E+00 0.23095393E+04</pdfrwt>
<pdfrwt beam="1">  1       -2 0.17166112E+00 0.23095393E+04</pdfrwt>
<totfact> 0.35832861E+00</totfact>
</mgrwt>
</event>
<event>
 4    1  0.1321115E-008  0.2997095E+04  0.7816531E-02  0.8244561E-01
          2   -1    0    0  501    0  0.00000000000E+00  0.00000000000E+00  0.41386572391E+04  0.41386572391E+04  0.00000000000E+00 0.  1.
         -2   -1    0    0    0  501 -0.00000000000E+00 -0.00000000000E+00 -0.54260216278E+03  0.54260216278E+03  0.00000000000E+00 0. -1.
    2000013    1    1    2    0    0 -0.10570736270E+04  0.40256921065E+03  0.21921725771E+04  0.26434044772E+04  0.95000000000E+03 0.  0.
   -2000013    1    1    2    0    0  0.10570736270E+04 -0.40256921065E+03  0.14038824992E+04  0.20378549247E+04  0.95000000000E+03 0.  0.
<mgrwt>
<rscale>  0 0.29970948E+04</rscale>
<asrwt>0</asrwt>
<pdfrwt beam="1">  1        2 0.63671648E+00 0.29970948E+04</pdfrwt>
<pdfrwt beam="2">  1       -2 0.83477259E-01 0.29970948E+04</pdfrwt>
<totfact> 0.28204886E-01</totfact>
</mgrwt>
</event>
<event>
 4    1  0.1321115E-008  0.2613748E+04  0.7816531E-02  0.8363546E-01
          2   -1    0    0  501    0  0.00000000000E+00  0.00000000000E+00  0.18635472798E+04  0.18635472798E+04  0.00000000000E+00 0.  1.
         -2   -1    0    0    0  501 -0.00000000000E+00 -0.00000000000E+00 -0.91648872631E+03  0.91648872631E+03  0.00000000000E+00 0. -1.
    2000013    1    1    2    0    0 -0.63582032634E+03 -0.12068683243E+03  0.11348474090E+04  0.16153053707E+04  0.95000000000E+03 0.  0.
   -2000013    1    1    2    0    0  0.63582032634E+03  0.12068683243E+03 -0.18778885546E+03  0.11647306354E+04  0.95000000000E+03 0.  0.
<mgrwt>
<rscale>  0 0.26137483E+04</rscale>
<asrwt>0</asrwt>
<pdfrwt beam="1">  1        2 0.28669958E+00 0.26137483E+04</pdfrwt>
<pdfrwt beam="2">  1       -2 0.14099827E+00 0.26137483E+04</pdfrwt>
<totfact> 0.24786312E+00</totfact>
</mgrwt>
</event>
<event>
 4    1  0.1321115E-008  0.2294790E+04  0.7816531E-02  0.8479978E-01
         -2   -1    0    0    0  501 -0.00000000000E+00  0.00000000000E+00  0.57373752036E+03  0.57373752036E+03  0.00000000000E+00 0. -1.
          2   -1    0    0  501    0  0.00000000000E+00 -0.00000000000E+00 -0.22946296016E+04  0.22946296016E+04  0.00000000000E+00 0.  1.
    2000013    1    1    2    0    0 -0.41564932878E+03 -0.44697583789E+03 -0.60592486171E+03  0.12814822286E+04  0.95000000000E+03 0.  0.
   -2000013    1    1    2    0    0  0.41564932878E+03  0.44697583789E+03 -0.11149672196E+04  0.15868848934E+04  0.95000000000E+03 0.  0.
<mgrwt>
<rscale>  0 0.22947898E+04</rscale>
<asrwt>0</asrwt>
<pdfrwt beam="2">  1        2 0.35301994E+00 0.22947898E+04</pdfrwt>
<pdfrwt beam="1">  1       -2 0.88267310E-01 0.22947898E+04</pdfrwt>
<totfact> 0.45761073E+00</totfact>
</mgrwt>
</event>
<event>
 4    1  0.1321115E-008  0.2461959E+04  0.7816531E-02  0.8416665E-01
          2   -1    0    0  501    0  0.00000000000E+00  0.00000000000E+00  0.25477276776E+04  0.25477276776E+04  0.00000000000E+00 0.  1.
         -2   -1    0    0    0  501 -0.00000000000E+00 -0.00000000000E+00 -0.59476923720E+03  0.59476923720E+03  0.00000000000E+00 0. -1.
    2000013    1    1    2    0    0 -0.30247983677E+03  0.51459051836E+03  0.33000909602E+03  0.11694885449E+04  0.95000000000E+03 0.  0.
   -2000013    1    1    2    0    0  0.30247983677E+03 -0.51459051836E+03  0.16229493444E+04  0.19730083699E+04  0.95000000000E+03 0.  0.
<mgrwt>
<rscale>  0 0.24619586E+04</rscale>
<asrwt>0</asrwt>
<pdfrwt beam="1">  1        2 0.39195810E+00 0.24619586E+04</pdfrwt>
<pdfrwt beam="2">  1       -2 0.91502961E-01 0.24619586E+04</pdfrwt>
<totfact> 0.29710044E+00</totfact>
</mgrwt>
</event>
<event>
 4    1  0.1321115E-008  0.2510631E+04  0.7816531E-02  0.8399208E-01
          1   -1    0    0  501    0  0.00000000000E+00  0.00000000000E+00  0.21878021806E+04  0.21878021806E+04  0.00000000000E+00 0.  1.
         -1   -1    0    0    0  501 -0.00000000000E+00 -0.00000000000E+00 -0.72027402789E+03  0.72027402789E+03  0.00000000000E+00 0. -1.
    2000013    1    1    2    0    0  0.11104089843E+03  0.71127750159E+03  0.11898940705E+04  0.16842190073E+04  0.95000000000E+03 0.  0.
   -2000013    1    1    2    0    0 -0.11104089843E+03 -0.71127750159E+03  0.27763408217E+03  0.12238572012E+04  0.95000000000E+03 0.  0.
<mgrwt>
<rscale>  0 0.25106311E+04</rscale>
<asrwt>0</asrwt>
<pdfrwt beam="1">  1        1 0.33658495E+00 0.25106311E+04</pdfrwt>
<pdfrwt beam="2">  1       -1 0.11081139E+00 0.25106311E+04</pdfrwt>
<totfact> 0.14778845E+00</totfact>
</mgrwt>
</event>
<event>
 4    1  0.1321115E-008  0.2598090E+04  0.7816531E-02  0.8368850E-01
          2   -1    0    0  501    0  0.00000000000E+00  0.00000000000E+00  0.24986956632E+04  0.24986956632E+04  0.00000000000E+00 0.  1.
         -2   -1    0    0    0  501 -0.00000000000E+00 -0.00000000000E+00 -0.67535947168E+03  0.67535947168E+03  0.00000000000E+00 0. -1.
    2000013    1    1    2    0    0  0.84811177060E+03 -0.16128135951E+03  0.11551261086E+04  0.17268820397E+04  0.95000000000E+03 0.  0.
   -2000013    1    1    2    0    0 -0.84811177060E+03  0.16128135951E+03  0.66821008287E+03  0.14471730951E+04  0.95000000000E+03 0.  0.
<mgrwt>
<rscale>  0 0.25980899E+04</rscale>
<asrwt>0</asrwt>
<pdfrwt beam="1">  1        2 0.38441471E+00 0.25980899E+04</pdfrwt>
<pdfrwt beam="2">  1       -2 0.10390146E+00 0.25980899E+04</pdfrwt>
<totfact> 0.23252904E+00</totfact>
</mgrwt>
</event>
<event>
 4    1  0.1321115E-008  0.2804048E+04  0.7816531E-02  0.8302013E-01
          2   -1    0    0  501    0  0.00000000000E+00  0.00000000000E+00  0.10616001592E+04  0.10616001592E+04  0.00000000000E+00 0.  1.
         -2   -1    0    0    0  501 -0.00000000000E+00 -0.00000000000E+00 -0.18516123186E+04  0.18516123186E+04  0.00000000000E+00 0. -1.
    2000013    1    1    2    0    0 -0.40190691305E+03 -0.78365639671E+03  0.16208315841E+03  0.13055334025E+04  0.95000000000E+03 0.  0.
   -2000013    1    1    2    0    0  0.40190691305E+03  0.78365639671E+03 -0.95209531786E+03  0.16076790753E+04  0.95000000000E+03 0.  0.
<mgrwt>
<rscale>  0 0.28040485E+04</rscale>
<asrwt>0</asrwt>
<pdfrwt beam="1">  1        2 0.16332310E+00 0.28040485E+04</pdfrwt>
<pdfrwt beam="2">  1       -2 0.28486343E+00 0.28040485E+04</pdfrwt>
<totfact> 0.78751675E-01</totfact>
</mgrwt>
</event>
<event>
 4    1  0.1321115E-008  0.2211661E+04  0.7816531E-02  0.8513590E-01
         -2   -1    0    0    0  501 -0.00000000000E+00  0.00000000000E+00  0.12797656480E+04  0.12797656480E+04  0.00000000000E+00 0. -1.
          2   -1    0    0  501    0  0.00000000000E+00 -0.00000000000E+00 -0.95553533655E+03  0.95553533655E+03  0.00000000000E+00 0.  1.
    2000013    1    1    2    0    0 -0.19614568503E+02  0.54113560372E+03 -0.44150207912E+01  0.10934952973E+04  0.95000000000E+03 0.  0.
   -2000013    1    1    2    0    0  0.19614568503E+02 -0.54113560372E+03  0.32864533224E+03  0.11418056872E+04  0.95000000000E+03 0.  0.
<mgrwt>
<rscale>  0 0.22116612E+04</rscale>
<asrwt>0</asrwt>
<pdfrwt beam="2">  1        2 0.14700544E+00 0.22116612E+04</pdfrwt>
<pdfrwt beam="1">  1       -2 0.19688702E+00 0.22116612E+04</pdfrwt>
<totfact> 0.34271745E+00</totfact>
</mgrwt>
</event>
<event>
 4    1  0.1321115E-008  0.2512932E+04  0.7816531E-02  0.8398393E-01
         -2   -1    0    0    0  501 -0.00000000000E+00  0.00000000000E+00  0.10412795874E+04  0.10412795874E+04  0.00000000000E+00 0. -1.
          2   -1    0    0  501    0  0.00000000000E+00 -0.00000000000E+00 -0.15161225125E+04  0.15161225125E+04  0.00000000000E+00 0.  1.
    2000013    1    1    2    0    0 -0.47580195419E+03  0.60572858878E+03 -0.53046286921E+03  0.13331112026E+04  0.95000000000E+03 0.  0.
   -2000013    1    1    2    0    0  0.47580195419E+03 -0.60572858878E+03  0.55619944085E+02  0.12242908972E+04  0.95000000000E+03 0.  0.
<mgrwt>
<rscale>  0 0.25129325E+04</rscale>
<asrwt>0</asrwt>
<pdfrwt beam="2">  1        2 0.23324962E+00 0.25129325E+04</pdfrwt>
<pdfrwt beam="1">  1       -2 0.16019686E+00 0.25129325E+04</pdfrwt>
<totfact> 0.27807360E+00</totfact>
</mgrwt>
</event>
<event>
 4    1  0.1321115E-008  0.2282344E+04  0.7816531E-02  0.8484915E-01
         -2   -1    0    0    0  501 -0.00000000000E+00  0.00000000000E+00  0.52402772091E+03  0.52402772091E+03  0.00000000000E+00 0. -1.
          2   -1    0    0  501    0  0.00000000000E+00 -0.00000000000E+00 -0.24851230998E+04  0.24851230998E+04  0.00000000000E+00 0.  1.
    2000013    1    1    2    0    0  0.29775780734E+03  0.48763693232E+03 -0.13375620352E+04  0.17372454310E+04  0.95000000000E+03 0.  0.
   -2000013    1    1    2    0    0 -0.29775780734E+03 -0.48763693232E+03 -0.62353334370E+03  0.12719053897E+04  0.95000000000E+03 0.  0.
<mgrwt>
<rscale>  0 0.22823439E+04</rscale>
<asrwt>0</asrwt>
<pdfrwt beam="2">  1        2 0.38232664E+00 0.22823439E+04</pdfrwt>
<pdfrwt beam="1">  1       -2 0.80619647E-01 0.22823439E+04</pdfrwt>
<totfact> 0.43795752E+00</totfact>
</mgrwt>
</event>
<event>
 4    1  0.1321115E-008  0.4392068E+04  0.7816531E-02  0.7929810E-01
          2   -1    0    0  501    0  0.00000000000E+00  0.00000000000E+00  0.24943889007E+04  0.24943889007E+04  0.00000000000E+00 0. -1.
         -2   -1    0    0    0  501 -0.00000000000E+00 -0.00000000000E+00 -0.19333651921E+04  0.19333651921E+04  0.00000000000E+00 0.  1.
    2000013    1    1    2    0    0 -0.13053952137E+02  0.13239747665E+04  0.17645409937E+04  0.24019126766E+04  0.95000000000E+03 0.  0.
   -2000013    1    1    2    0    0  0.13053952137E+02 -0.13239747665E+04 -0.12035172851E+04  0.20258414162E+04  0.95000000000E+03 0.  0.
<mgrwt>
<rscale>  0 0.43920677E+04</rscale>
<asrwt>0</asrwt>
<pdfrwt beam="1">  1        2 0.38375214E+00 0.43920677E+04</pdfrwt>
<pdfrwt beam="2">  1       -2 0.29744080E+00 0.43920677E+04</pdfrwt>
<totfact> 0.88334039E-02</totfact>
</mgrwt>
</event>
<event>
 4    1  0.1321115E-008  0.3140142E+04  0.7816531E-02  0.8204807E-01
          2   -1    0    0  501    0  0.00000000000E+00  0.00000000000E+00  0.24348091917E+04  0.24348091917E+04  0.00000000000E+00 0.  1.
         -2   -1    0    0    0  501 -0.00000000000E+00 -0.00000000000E+00 -0.10124501494E+04  0.10124501494E+04  0.00000000000E+00 0. -1.
    2000013    1    1    2    0    0  0.11495104406E+04 -0.45359532828E+03  0.91802144608E+03  0.18089738391E+04  0.95000000000E+03 0.  0.
   -2000013    1    1    2    0    0 -0.11495104406E+04  0.45359532828E+03  0.50433759625E+03  0.16382855020E+04  0.95000000000E+03 0.  0.
<mgrwt>
<rscale>  0 0.31401420E+04</rscale>
<asrwt>0</asrwt>
<pdfrwt beam="1">  1        2 0.37458603E+00 0.31401420E+04</pdfrwt>
<pdfrwt beam="2">  1       -2 0.15576156E+00 0.31401420E+04</pdfrwt>
<totfact> 0.87026673E-01</totfact>
</mgrwt>
</event>
<event>
 4    1  0.1321115E-008  0.2668918E+04  0.7816531E-02  0.8345161E-01
         -2   -1    0    0    0  501 -0.00000000000E+00  0.00000000000E+00  0.63377544449E+03  0.63377544449E+03  0.00000000000E+00 0. -1.
          2   -1    0    0  501    0  0.00000000000E+00 -0.00000000000E+00 -0.28097971402E+04  0.28097971402E+04  0.00000000000E+00 0.  1.
    2000013    1    1    2    0    0  0.71076106793E+03  0.41764301696E+02 -0.18742752719E+04  0.22186332161E+04  0.95000000000E+03 0.  0.
   -2000013    1    1    2    0    0 -0.71076106793E+03 -0.41764301696E+02 -0.30174642384E+03  0.12249393687E+04  0.95000000000E+03 0.  0.
<mgrwt>
<rscale>  0 0.26689177E+04</rscale>
<asrwt>0</asrwt>
<pdfrwt beam="2">  1        2 0.43227648E+00 0.26689177E+04</pdfrwt>
<pdfrwt beam="1">  1       -2 0.97503916E-01 0.26689177E+04</pdfrwt>
<totfact> 0.17586008E+00</totfact>
</mgrwt>
</event>
<event>
 4    1  0.1321115E-008  0.2370641E+04  0.7816531E-02  0.8450577E-01
         -2   -1    0    0    0  501 -0.00000000000E+00  0.00000000000E+00  0.58836163361E+03  0.58836163361E+03  0.00000000000E+00 0. -1.
          2   -1    0    0  501    0  0.00000000000E+00 -0.00000000000E+00 -0.23879617665E+04  0.23879617665E+04  0.00000000000E+00 0.  1.
    2000013    1    1    2    0    0 -0.61557302546E+03 -0.34186665094E+03 -0.10024294457E+04  0.15502153884E+04  0.95000000000E+03 0.  0.
   -2000013    1    1    2    0    0  0.61557302546E+03  0.34186665094E+03 -0.79717068721E+03  0.14261080118E+04  0.95000000000E+03 0.  0.
<mgrwt>
<rscale>  0 0.23706413E+04</rscale>
<asrwt>0</asrwt>
<pdfrwt beam="2">  1        2 0.36737873E+00 0.23706413E+04</pdfrwt>
<pdfrwt beam="1">  1       -2 0.90517175E-01 0.23706413E+04</pdfrwt>
<totfact> 0.37965937E+00</totfact>
</mgrwt>
</event>
<event>
 4    1  0.1321115E-008  0.3565543E+04  0.7816531E-02  0.8098430E-01
          2   -1    0    0  501    0  0.00000000000E+00  0.00000000000E+00  0.19977221728E+04  0.19977221728E+04  0.00000000000E+00 0.  1.
         -2   -1    0    0    0  501 -0.00000000000E+00 -0.00000000000E+00 -0.15909491347E+04  0.15909491347E+04  0.00000000000E+00 0. -1.
    2000013    1    1    2    0    0  0.46808775479E+03 -0.89577354365E+03  0.13305876865E+04  0.19221030095E+04  0.95000000000E+03 0.  0.
   -2000013    1    1    2    0    0 -0.46808775479E+03  0.89577354365E+03 -0.92381464836E+03  0.16665682981E+04  0.95000000000E+03 0.  0.
<mgrwt>
<rscale>  0 0.35655431E+04</rscale>
<asrwt>0</asrwt>
<pdfrwt beam="1">  1        2 0.30734187E+00 0.35655431E+04</pdfrwt>
<pdfrwt beam="2">  1       -2 0.24476141E+00 0.35655431E+04</pdfrwt>
<totfact> 0.37912899E-01</totfact>
</mgrwt>
</event>
<event>
 4    1  0.1321115E-008  0.3101554E+04  0.7816531E-02  0.8215312E-01
          2   -1    0    0  501    0  0.00000000000E+00  0.00000000000E+00  0.19973455980E+04  0.19973455980E+04  0.00000000000E+00 0.  1.
         -2   -1    0    0    0  501 -0.00000000000E+00 -0.00000000000E+00 -0.12040527176E+04  0.12040527176E+04  0.00000000000E+00 0. -1.
    2000013    1    1    2    0    0 -0.11257549527E+03  0.86119661129E+03  0.12894036730E+04  0.18219206013E+04  0.95000000000E+03 0.  0.
   -2000013    1    1    2    0    0  0.11257549527E+03 -0.86119661129E+03 -0.49611079264E+03  0.13794777142E+04  0.95000000000E+03 0.  0.
<mgrwt>
<rscale>  0 0.31015541E+04</rscale>
<asrwt>0</asrwt>
<pdfrwt beam="1">  1        2 0.30728394E+00 0.31015541E+04</pdfrwt>
<pdfrwt beam="2">  1       -2 0.18523888E+00 0.31015541E+04</pdfrwt>
<totfact> 0.95006302E-01</totfact>
</mgrwt>
</event>
<event>
 4    1  0.1321115E-008  0.2586107E+04  0.7816531E-02  0.8372936E-01
         -2   -1    0    0    0  501 -0.00000000000E+00  0.00000000000E+00  0.85168123044E+03  0.85168123044E+03  0.00000000000E+00 0. -1.
          2   -1    0    0  501    0  0.00000000000E+00 -0.00000000000E+00 -0.19631614653E+04  0.19631614653E+04  0.00000000000E+00 0.  1.
    2000013    1    1    2    0    0  0.17862565292E+03  0.68732285943E+03  0.47501674152E+01  0.11861038745E+04  0.95000000000E+03 0.  0.
   -2000013    1    1    2    0    0 -0.17862565292E+03 -0.68732285943E+03 -0.11162304023E+04  0.16287388213E+04  0.95000000000E+03 0.  0.
<mgrwt>
<rscale>  0 0.25861073E+04</rscale>
<asrwt>0</asrwt>
<pdfrwt beam="2">  1        2 0.30202484E+00 0.25861073E+04</pdfrwt>
<pdfrwt beam="1">  1       -2 0.13102788E+00 0.25861073E+04</pdfrwt>
<totfact> 0.26406375E+00</totfact>
</mgrwt>
</event>
<event>
 4    1  0.1321115E-008  0.1950266E+04  0.7816531E-02  0.8630233E-01
          2   -1    0    0  501    0  0.00000000000E+00  0.00000000000E+00  0.72457883731E+03  0.72457883731E+03  0.00000000000E+00 0.  1.
         -2   -1    0    0    0  501 -0.00000000000E+00 -0.00000000000E+00 -0.13123268825E+04  0.13123268825E+04  0.00000000000E+00 0. -1.
    2000013    1    1    2    0    0  0.12310299250E+03 -0.90194916925E+02 -0.45932491447E+03  0.10661936254E+04  0.95000000000E+03 0.  0.
   -2000013    1    1    2    0    0 -0.12310299250E+03  0.90194916925E+02 -0.12842313077E+03  0.97071209445E+03  0.95000000000E+03 0.  0.
<mgrwt>
<rscale>  0 0.19502659E+04</rscale>
<asrwt>0</asrwt>
<pdfrwt beam="1">  1        2 0.11147367E+00 0.19502659E+04</pdfrwt>
<pdfrwt beam="2">  1       -2 0.20189644E+00 0.19502659E+04</pdfrwt>
<totfact> 0.47239041E+00</totfact>
</mgrwt>
</event>
<event>
 4    1  0.1321115E-008  0.2915339E+04  0.7816531E-02  0.8268328E-01
         -2   -1    0    0    0  501 -0.00000000000E+00  0.00000000000E+00  0.17888145170E+04  0.17888145170E+04  0.00000000000E+00 0. -1.
          2   -1    0    0  501    0  0.00000000000E+00 -0.00000000000E+00 -0.11878263917E+04  0.11878263917E+04  0.00000000000E+00 0.  1.
    2000013    1    1    2    0    0 -0.46910439159E+02  0.10573019039E+04 -0.25936472051E+02  0.14224136550E+04  0.95000000000E+03 0.  0.
   -2000013    1    1    2    0    0  0.46910439159E+02 -0.10573019039E+04  0.62692459727E+03  0.15542272537E+04  0.95000000000E+03 0.  0.
<mgrwt>
<rscale>  0 0.29153395E+04</rscale>
<asrwt>0</asrwt>
<pdfrwt beam="2">  1        2 0.18274252E+00 0.29153395E+04</pdfrwt>
<pdfrwt beam="1">  1       -2 0.27520223E+00 0.29153395E+04</pdfrwt>
<totfact> 0.74793918E-01</totfact>
</mgrwt>
</event>
<event>
 4    1  0.1321115E-008  0.2698607E+04  0.7816531E-02  0.8335457E-01
          1   -1    0    0  501    0  0.00000000000E+00  0.00000000000E+00  0.96279440905E+03  0.96279440905E+03  0.00000000000E+00 0.  1.
         -1   -1    0    0    0  501 -0.00000000000E+00 -0.00000000000E+00 -0.18909752312E+04  0.18909752312E+04  0.00000000000E+00 0. -1.
    2000013    1    1    2    0    0  0.50637841368E+00 -0.32068555192E+03  0.49075453101E+03  0.11163240969E+04  0.95000000000E+03 0.  0.
   -2000013    1    1    2    0    0 -0.50637841368E+00  0.32068555192E+03 -0.14189353531E+04  0.17374455433E+04  0.95000000000E+03 0.  0.
<mgrwt>
<rscale>  0 0.26986073E+04</rscale>
<asrwt>0</asrwt>
<pdfrwt beam="1">  1        1 0.14812222E+00 0.26986073E+04</pdfrwt>
<pdfrwt beam="2">  1       -1 0.29091926E+00 0.26986073E+04</pdfrwt>
<totfact> 0.53463576E-01</totfact>
</mgrwt>
</event>
<event>
 4    1  0.1321115E-008  0.2313950E+04  0.7816531E-02  0.8472441E-01
         -2   -1    0    0    0  501 -0.00000000000E+00  0.00000000000E+00  0.14961121146E+04  0.14961121146E+04  0.00000000000E+00 0. -1.
          2   -1    0    0  501    0  0.00000000000E+00 -0.00000000000E+00 -0.89471315556E+03  0.89471315556E+03  0.00000000000E+00 0.  1.
    2000013    1    1    2    0    0  0.62226858982E+03 -0.14999196326E+03  0.13289891301E+03  0.11532033247E+04  0.95000000000E+03 0.  0.
   -2000013    1    1    2    0    0 -0.62226858982E+03  0.14999196326E+03  0.46850004608E+03  0.12376219455E+04  0.95000000000E+03 0.  0.
<mgrwt>
<rscale>  0 0.23139500E+04</rscale>
<asrwt>0</asrwt>
<pdfrwt beam="2">  1        2 0.13764818E+00 0.23139500E+04</pdfrwt>
<pdfrwt beam="1">  1       -2 0.23017109E+00 0.23139500E+04</pdfrwt>
<totfact> 0.22828570E+00</totfact>
</mgrwt>
</event>
<event>
 4    1  0.1321115E-008  0.2175966E+04  0.7816531E-02  0.8528498E-01
          2   -1    0    0  501    0  0.00000000000E+00  0.00000000000E+00  0.17916070902E+04  0.17916070902E+04  0.00000000000E+00 0.  1.
         -2   -1    0    0    0  501 -0.00000000000E+00 -0.00000000000E+00 -0.66069593718E+03  0.66069593718E+03  0.00000000000E+00 0. -1.
    2000013    1    1    2    0    0  0.20732425034E+03 -0.39050287667E+03  0.23547178240E+03  0.10739752333E+04  0.95000000000E+03 0.  0.
   -2000013    1    1    2    0    0 -0.20732425034E+03  0.39050287667E+03  0.89543937064E+03  0.13783277941E+04  0.95000000000E+03 0.  0.
<mgrwt>
<rscale>  0 0.21759665E+04</rscale>
<asrwt>0</asrwt>
<pdfrwt beam="1">  1        2 0.27563186E+00 0.21759665E+04</pdfrwt>
<pdfrwt beam="2">  1       -2 0.10164553E+00 0.21759665E+04</pdfrwt>
<totfact> 0.63466332E+00</totfact>
</mgrwt>
</event>
<event>
 4    1  0.1321115E-008  0.2533863E+04  0.7816531E-02  0.8391020E-01
         -2   -1    0    0    0  501 -0.00000000000E+00  0.00000000000E+00  0.10179086331E+04  0.10179086331E+04  0.00000000000E+00 0. -1.
          2   -1    0    0  501    0  0.00000000000E+00 -0.00000000000E+00 -0.15768758401E+04  0.15768758401E+04  0.00000000000E+00 0.  1.
    2000013    1    1    2    0    0  0.82257611858E+03 -0.18457805840E+02 -0.44346919555E+03  0.13327179330E+04  0.95000000000E+03 0.  0.
   -2000013    1    1    2    0    0 -0.82257611858E+03  0.18457805840E+02 -0.11549801144E+03  0.12620665403E+04  0.95000000000E+03 0.  0.
<mgrwt>
<rscale>  0 0.25338631E+04</rscale>
<asrwt>0</asrwt>
<pdfrwt beam="2">  1        2 0.24259628E+00 0.25338631E+04</pdfrwt>
<pdfrwt beam="1">  1       -2 0.15660133E+00 0.25338631E+04</pdfrwt>
<totfact> 0.27290517E+00</totfact>
</mgrwt>
</event>
<event>
 4    1  0.1321115E-008  0.2348700E+04  0.7816531E-02  0.8458963E-01
         -2   -1    0    0    0  501 -0.00000000000E+00  0.00000000000E+00  0.44202966776E+03  0.44202966776E+03  0.00000000000E+00 0. -1.
          2   -1    0    0  501    0  0.00000000000E+00 -0.00000000000E+00 -0.31199205102E+04  0.31199205102E+04  0.00000000000E+00 0.  1.
    2000013    1    1    2    0    0  0.68251978398E+03  0.10038014204E+03 -0.13787244341E+04  0.18108811373E+04  0.95000000000E+03 0.  0.
   -2000013    1    1    2    0    0 -0.68251978398E+03 -0.10038014204E+03 -0.12991664084E+04  0.17510690406E+04  0.95000000000E+03 0.  0.
<mgrwt>
<rscale>  0 0.23486996E+04</rscale>
<asrwt>0</asrwt>
<pdfrwt beam="2">  1        2 0.47998776E+00 0.23486996E+04</pdfrwt>
<pdfrwt beam="1">  1       -2 0.68004565E-01 0.23486996E+04</pdfrwt>
<totfact> 0.26149836E+00</totfact>
</mgrwt>
</event>
<event>
 4    1  0.1321115E-008  0.2508623E+04  0.7816531E-02  0.8399920E-01
         -1   -1    0    0    0  501 -0.00000000000E+00  0.00000000000E+00  0.82840013453E+03  0.82840013453E+03  0.00000000000E+00 0. -1.
          1   -1    0    0  501    0  0.00000000000E+00 -0.00000000000E+00 -0.18991996309E+04  0.18991996309E+04  0.00000000000E+00 0.  1.
    2000013    1    1    2    0    0  0.68974114310E+03  0.15008478866E+03 -0.98702294301E+03  0.15410978484E+04  0.95000000000E+03 0.  0.
   -2000013    1    1    2    0    0 -0.68974114310E+03 -0.15008478866E+03 -0.83776553368E+02  0.11865019171E+04  0.95000000000E+03 0.  0.
<mgrwt>
<rscale>  0 0.25086229E+04</rscale>
<asrwt>0</asrwt>
<pdfrwt beam="2">  1        1 0.29218455E+00 0.25086229E+04</pdfrwt>
<pdfrwt beam="1">  1       -1 0.12744618E+00 0.25086229E+04</pdfrwt>
<totfact> 0.16508702E+00</totfact>
</mgrwt>
</event>
<event>
 4    1  0.1321115E-008  0.3593833E+04  0.7816531E-02  0.8091906E-01
          2   -1    0    0  501    0  0.00000000000E+00  0.00000000000E+00  0.21104378983E+04  0.21104378983E+04  0.00000000000E+00 0.  1.
         -2   -1    0    0    0  501 -0.00000000000E+00 -0.00000000000E+00 -0.15299711624E+04  0.15299711624E+04  0.00000000000E+00 0. -1.
    2000013    1    1    2    0    0 -0.11654023860E+04  0.32468293176E+03  0.12311567114E+04  0.19702356650E+04  0.95000000000E+03 0.  0.
   -2000013    1    1    2    0    0  0.11654023860E+04 -0.32468293176E+03 -0.65068997555E+03  0.16701733957E+04  0.95000000000E+03 0.  0.
<mgrwt>
<rscale>  0 0.35938331E+04</rscale>
<asrwt>0</asrwt>
<pdfrwt beam="1">  1        2 0.32468275E+00 0.35938331E+04</pdfrwt>
<pdfrwt beam="2">  1       -2 0.23538018E+00 0.35938331E+04</pdfrwt>
<totfact> 0.37412636E-01</totfact>
</mgrwt>
</event>
<event>
 4    1  0.1321115E-008  0.2648287E+04  0.7816531E-02  0.8351982E-01
         -2   -1    0    0    0  501 -0.00000000000E+00  0.00000000000E+00  0.88578871143E+03  0.88578871143E+03  0.00000000000E+00 0. -1.
          2   -1    0    0  501    0  0.00000000000E+00 -0.00000000000E+00 -0.19794286327E+04  0.19794286327E+04  0.00000000000E+00 0.  1.
    2000013    1    1    2    0    0  0.14914417449E+03  0.61645759336E+03 -0.12714530208E+04  0.17091976870E+04  0.95000000000E+03 0.  0.
   -2000013    1    1    2    0    0 -0.14914417449E+03 -0.61645759336E+03  0.17781309957E+03  0.11560196571E+04  0.95000000000E+03 0.  0.
<mgrwt>
<rscale>  0 0.26482866E+04</rscale>
<asrwt>0</asrwt>
<pdfrwt beam="2">  1        2 0.30452748E+00 0.26482866E+04</pdfrwt>
<pdfrwt beam="1">  1       -2 0.13627519E+00 0.26482866E+04</pdfrwt>
<totfact> 0.23277118E+00</totfact>
</mgrwt>
</event>
<event>
 4    1  0.1321115E-008  0.2072754E+04  0.7816531E-02  0.8573341E-01
         -2   -1    0    0    0  501 -0.00000000000E+00  0.00000000000E+00  0.45596540253E+03  0.45596540253E+03  0.00000000000E+00 0.  1.
          2   -1    0    0  501    0  0.00000000000E+00 -0.00000000000E+00 -0.23556117723E+04  0.23556117723E+04  0.00000000000E+00 0. -1.
    2000013    1    1    2    0    0 -0.19880866197E+03  0.31324170576E+03 -0.69995650590E+03  0.12369657879E+04  0.95000000000E+03 0.  0.
   -2000013    1    1    2    0    0  0.19880866197E+03 -0.31324170576E+03 -0.11996898638E+04  0.15746113869E+04  0.95000000000E+03 0.  0.
<mgrwt>
<rscale>  0 0.20727542E+04</rscale>
<asrwt>0</asrwt>
<pdfrwt beam="2">  1        2 0.36240182E+00 0.20727542E+04</pdfrwt>
<pdfrwt beam="1">  1       -2 0.70148523E-01 0.20727542E+04</pdfrwt>
<totfact> 0.72039365E+00</totfact>
</mgrwt>
</event>
<event>
 4    1  0.1321115E-008  0.2781141E+04  0.7816531E-02  0.8309147E-01
         -2   -1    0    0    0  501 -0.00000000000E+00  0.00000000000E+00  0.92055201326E+03  0.92055201326E+03  0.00000000000E+00 0. -1.
          2   -1    0    0  501    0  0.00000000000E+00 -0.00000000000E+00 -0.21005721514E+04  0.21005721514E+04  0.00000000000E+00 0.  1.
    2000013    1    1    2    0    0  0.55213657122E+03 -0.85095727198E+03 -0.64099456945E+03  0.15304761057E+04  0.95000000000E+03 0.  0.
   -2000013    1    1    2    0    0 -0.55213657122E+03  0.85095727198E+03 -0.53902556869E+03  0.14906480590E+04  0.95000000000E+03 0.  0.
<mgrwt>
<rscale>  0 0.27811407E+04</rscale>
<asrwt>0</asrwt>
<pdfrwt beam="2">  1        2 0.32316495E+00 0.27811407E+04</pdfrwt>
<pdfrwt beam="1">  1       -2 0.14162339E+00 0.27811407E+04</pdfrwt>
<totfact> 0.17834755E+00</totfact>
</mgrwt>
</event>
<event>
 4    1  0.1321115E-008  0.3504471E+04  0.7816531E-02  0.8112731E-01
         -2   -1    0    0    0  501 -0.00000000000E+00  0.00000000000E+00  0.11318494360E+04  0.11318494360E+04  0.00000000000E+00 0.  1.
          2   -1    0    0  501    0  0.00000000000E+00 -0.00000000000E+00 -0.27126656680E+04  0.27126656680E+04  0.00000000000E+00 0. -1.
    2000013    1    1    2    0    0  0.89491444598E+03 -0.58658477414E+03 -0.18999162959E+04  0.23784733537E+04  0.95000000000E+03 0.  0.
   -2000013    1    1    2    0    0 -0.89491444598E+03  0.58658477414E+03  0.31910006394E+03  0.14660417503E+04  0.95000000000E+03 0.  0.
<mgrwt>
<rscale>  0 0.35044709E+04</rscale>
<asrwt>0</asrwt>
<pdfrwt beam="2">  1        2 0.41733317E+00 0.35044709E+04</pdfrwt>
<pdfrwt beam="1">  1       -2 0.17413068E+00 0.35044709E+04</pdfrwt>
<totfact> 0.42701759E-01</totfact>
</mgrwt>
</event>
<event>
 4    1  0.1321115E-008  0.1978295E+04  0.7816531E-02  0.8616836E-01
         -2   -1    0    0    0  501 -0.00000000000E+00  0.00000000000E+00  0.43781956843E+03  0.43781956843E+03  0.00000000000E+00 0.  1.
          2   -1    0    0  501    0  0.00000000000E+00 -0.00000000000E+00 -0.22347386097E+04  0.22347386097E+04  0.00000000000E+00 0. -1.
    2000013    1    1    2    0    0  0.15472015167E+03 -0.21621037045E+03 -0.80078882031E+03  0.12706092965E+04  0.95000000000E+03 0.  0.
   -2000013    1    1    2    0    0 -0.15472015167E+03  0.21621037045E+03 -0.99613022098E+03  0.14019488817E+04  0.95000000000E+03 0.  0.
<mgrwt>
<rscale>  0 0.19782945E+04</rscale>
<asrwt>0</asrwt>
<pdfrwt beam="2">  1        2 0.34380595E+00 0.19782945E+04</pdfrwt>
<pdfrwt beam="1">  1       -2 0.67356855E-01 0.19782945E+04</pdfrwt>
<totfact> 0.92874205E+00</totfact>
</mgrwt>
</event>
<event>
 4    1  0.1321115E-008  0.2318345E+04  0.7816531E-02  0.8470723E-01
          2   -1    0    0  501    0  0.00000000000E+00  0.00000000000E+00  0.10216850357E+04  0.10216850357E+04  0.00000000000E+00 0.  1.
         -2   -1    0    0    0  501 -0.00000000000E+00 -0.00000000000E+00 -0.13151620706E+04  0.13151620706E+04  0.00000000000E+00 0. -1.
    2000013    1    1    2    0    0  0.62816319012E+03 -0.20545191172E+03 -0.21346291304E+03  0.11768032532E+04  0.95000000000E+03 0.  0.
   -2000013    1    1    2    0    0 -0.62816319012E+03  0.20545191172E+03 -0.80014121941E+02  0.11600438531E+04  0.95000000000E+03 0.  0.
<mgrwt>
<rscale>  0 0.23183455E+04</rscale>
<asrwt>0</asrwt>
<pdfrwt beam="1">  1        2 0.15718231E+00 0.23183455E+04</pdfrwt>
<pdfrwt beam="2">  1       -2 0.20233262E+00 0.23183455E+04</pdfrwt>
<totfact> 0.28350305E+00</totfact>
</mgrwt>
</event>
<event>
 4    1  0.1321115E-008  0.2317462E+04  0.7816531E-02  0.8471068E-01
          2   -1    0    0  501    0  0.00000000000E+00  0.00000000000E+00  0.32903901901E+04  0.32903901901E+04  0.00000000000E+00 0. -1.
         -2   -1    0    0    0  501 -0.00000000000E+00 -0.00000000000E+00 -0.40805436231E+03  0.40805436231E+03  0.00000000000E+00 0.  1.
    2000013    1    1    2    0    0 -0.54793206631E+03 -0.18414385387E+02  0.84491203658E+03  0.13845378249E+04  0.95000000000E+03 0.  0.
   -2000013    1    1    2    0    0  0.54793206631E+03  0.18414385387E+02  0.20374237912E+04  0.23139067276E+04  0.95000000000E+03 0.  0.
<mgrwt>
<rscale>  0 0.23174625E+04</rscale>
<asrwt>0</asrwt>
<pdfrwt beam="1">  1        2 0.50621386E+00 0.23174625E+04</pdfrwt>
<pdfrwt beam="2">  1       -2 0.62777596E-01 0.23174625E+04</pdfrwt>
<totfact> 0.24112909E+00</totfact>
</mgrwt>
</event>
<event>
 4    1  0.1321115E-008  0.3781190E+04  0.7816531E-02  0.8050203E-01
          2   -1    0    0  501    0  0.00000000000E+00  0.00000000000E+00  0.20711584285E+04  0.20711584285E+04  0.00000000000E+00 0.  1.
         -2   -1    0    0    0  501 -0.00000000000E+00 -0.00000000000E+00 -0.17257733369E+04  0.17257733369E+04  0.00000000000E+00 0. -1.
    2000013    1    1    2    0    0 -0.72297746441E+03 -0.11706153798E+04 -0.71348535195E+03  0.18178553652E+04  0.95000000000E+03 0.  0.
   -2000013    1    1    2    0    0  0.72297746441E+03  0.11706153798E+04  0.10588704436E+04  0.19790764002E+04  0.95000000000E+03 0.  0.
<mgrwt>
<rscale>  0 0.37811903E+04</rscale>
<asrwt>0</asrwt>
<pdfrwt beam="1">  1        2 0.31863976E+00 0.37811903E+04</pdfrwt>
<pdfrwt beam="2">  1       -2 0.26550359E+00 0.37811903E+04</pdfrwt>
<totfact> 0.25286454E-01</totfact>
</mgrwt>
</event>
<event>
 4    1  0.1321115E-008  0.4373668E+04  0.7816531E-02  0.7933135E-01
          2   -1    0    0  501    0  0.00000000000E+00  0.00000000000E+00  0.23113584166E+04  0.23113584166E+04  0.00000000000E+00 0.  1.
         -2   -1    0    0    0  501 -0.00000000000E+00 -0.00000000000E+00 -0.20690183478E+04  0.20690183478E+04  0.00000000000E+00 0. -1.
    2000013    1    1    2    0    0  0.86609923987E+03  0.15071237292E+04 -0.80663809279E+03  0.21388583032E+04  0.95000000000E+03 0.  0.
   -2000013    1    1    2    0    0 -0.86609923987E+03 -0.15071237292E+04  0.10489781616E+04  0.22415184612E+04  0.95000000000E+03 0.  0.
<mgrwt>
<rscale>  0 0.43736680E+04</rscale>
<asrwt>0</asrwt>
<pdfrwt beam="1">  1        2 0.35559360E+00 0.43736680E+04</pdfrwt>
<pdfrwt beam="2">  1       -2 0.31831052E+00 0.43736680E+04</pdfrwt>
<totfact> 0.83860711E-02</totfact>
</mgrwt>
</event>
<event>
 4    1  0.1321115E-008  0.2543858E+04  0.7816531E-02  0.8387526E-01
         -2   -1    0    0    0  501 -0.00000000000E+00  0.00000000000E+00  0.46798197283E+03  0.46798197283E+03  0.00000000000E+00 0. -1.
          2   -1    0    0  501    0  0.00000000000E+00 -0.00000000000E+00 -0.34569768335E+04  0.34569768335E+04  0.00000000000E+00 0.  1.
    2000013    1    1    2    0    0  0.46342410030E+03 -0.70669207291E+03 -0.14426945903E+04  0.19230297095E+04  0.95000000000E+03 0.  0.
   -2000013    1    1    2    0    0 -0.46342410030E+03  0.70669207291E+03 -0.15463002703E+04  0.20019290968E+04  0.95000000000E+03 0.  0.
<mgrwt>
<rscale>  0 0.25438576E+04</rscale>
<asrwt>0</asrwt>
<pdfrwt beam="2">  1        2 0.53184260E+00 0.25438576E+04</pdfrwt>
<pdfrwt beam="1">  1       -2 0.71997225E-01 0.25438576E+04</pdfrwt>
<totfact> 0.13541322E+00</totfact>
</mgrwt>
</event>
<event>
 4    1  0.1321115E-008  0.2012624E+04  0.7816531E-02  0.8600741E-01
         -2   -1    0    0    0  501 -0.00000000000E+00  0.00000000000E+00  0.42035918819E+03  0.42035918819E+03  0.00000000000E+00 0. -1.
          2   -1    0    0  501    0  0.00000000000E+00 -0.00000000000E+00 -0.24090452845E+04  0.24090452845E+04  0.00000000000E+00 0.  1.
    2000013    1    1    2    0    0 -0.31267343262E+03  0.26470213709E+01 -0.83784311138E+03  0.13047040896E+04  0.95000000000E+03 0.  0.
   -2000013    1    1    2    0    0  0.31267343262E+03 -0.26470213709E+01 -0.11508429849E+04  0.15247003831E+04  0.95000000000E+03 0.  0.
<mgrwt>
<rscale>  0 0.20126245E+04</rscale>
<asrwt>0</asrwt>
<pdfrwt beam="2">  1        2 0.37062236E+00 0.20126245E+04</pdfrwt>
<pdfrwt beam="1">  1       -2 0.64670642E-01 0.20126245E+04</pdfrwt>
<totfact> 0.80495367E+00</totfact>
</mgrwt>
</event>
<event>
 4    1  0.1321115E-008  0.2648106E+04  0.7816531E-02  0.8352042E-01
         -2   -1    0    0    0  501 -0.00000000000E+00  0.00000000000E+00  0.12584068136E+04  0.12584068136E+04  0.00000000000E+00 0. -1.
          2   -1    0    0  501    0  0.00000000000E+00 -0.00000000000E+00 -0.13931238199E+04  0.13931238199E+04  0.00000000000E+00 0.  1.
    2000013    1    1    2    0    0 -0.52335626271E+03 -0.74389323141E+03 -0.22032251429E+03  0.13335369990E+04  0.95000000000E+03 0.  0.
   -2000013    1    1    2    0    0  0.52335626271E+03  0.74389323141E+03  0.85605507964E+02  0.13179936344E+04  0.95000000000E+03 0.  0.
<mgrwt>
<rscale>  0 0.26481061E+04</rscale>
<asrwt>0</asrwt>
<pdfrwt beam="2">  1        2 0.21432674E+00 0.26481061E+04</pdfrwt>
<pdfrwt beam="1">  1       -2 0.19360105E+00 0.26481061E+04</pdfrwt>
<totfact> 0.18866857E+00</totfact>
</mgrwt>
</event>
<event>
 4    1  0.1321115E-008  0.2139803E+04  0.7816531E-02  0.8543910E-01
          3   -1    0    0  501    0  0.00000000000E+00  0.00000000000E+00  0.55560326843E+03  0.55560326843E+03  0.00000000000E+00 0.  1.
         -3   -1    0    0    0  501 -0.00000000000E+00 -0.00000000000E+00 -0.20602630025E+04  0.20602630025E+04  0.00000000000E+00 0. -1.
    2000013    1    1    2    0    0  0.37093586609E+03  0.32116721895E+03 -0.79883328709E+03  0.13346821419E+04  0.95000000000E+03 0.  0.
   -2000013    1    1    2    0    0 -0.37093586609E+03 -0.32116721895E+03 -0.70582644699E+03  0.12811841291E+04  0.95000000000E+03 0.  0.
<mgrwt>
<rscale>  0 0.21398027E+04</rscale>
<asrwt>0</asrwt>
<pdfrwt beam="1">  1        3 0.85477427E-01 0.21398027E+04</pdfrwt>
<pdfrwt beam="2">  1       -3 0.31696354E+00 0.21398027E+04</pdfrwt>
<totfact> 0.91976920E-02</totfact>
</mgrwt>
</event>
<event>
 4    1  0.1321115E-008  0.2030803E+04  0.7816531E-02  0.8592353E-01
          2   -1    0    0  501    0  0.00000000000E+00  0.00000000000E+00  0.85772563469E+03  0.85772563469E+03  0.00000000000E+00 0.  1.
         -2   -1    0    0    0  501 -0.00000000000E+00 -0.00000000000E+00 -0.12020625905E+04  0.12020625905E+04  0.00000000000E+00 0. -1.
    2000013    1    1    2    0    0  0.46733030958E+02  0.33094456240E+03 -0.40580024421E+02  0.10078963329E+04  0.95000000000E+03 0.  0.
   -2000013    1    1    2    0    0 -0.46733030958E+02 -0.33094456240E+03 -0.30375693135E+03  0.10518918922E+04  0.95000000000E+03 0.  0.
<mgrwt>
<rscale>  0 0.20308027E+04</rscale>
<asrwt>0</asrwt>
<pdfrwt beam="1">  1        2 0.13195779E+00 0.20308027E+04</pdfrwt>
<pdfrwt beam="2">  1       -2 0.18493271E+00 0.20308027E+04</pdfrwt>
<totfact> 0.48706566E+00</totfact>
</mgrwt>
</event>
<event>
 4    1  0.1321115E-008  0.2175757E+04  0.7816531E-02  0.8528587E-01
          2   -1    0    0  501    0  0.00000000000E+00  0.00000000000E+00  0.54315585870E+03  0.54315585870E+03  0.00000000000E+00 0.  1.
         -2   -1    0    0    0  501 -0.00000000000E+00 -0.00000000000E+00 -0.21788944206E+04  0.21788944206E+04  0.00000000000E+00 0. -1.
    2000013    1    1    2    0    0  0.45158457322E+03 -0.27705915554E+03 -0.83913280371E+03  0.13738028478E+04  0.95000000000E+03 0.  0.
   -2000013    1    1    2    0    0 -0.45158457322E+03  0.27705915554E+03 -0.79660575817E+03  0.13482474314E+04  0.95000000000E+03 0.  0.
<mgrwt>
<rscale>  0 0.21757567E+04</rscale>
<asrwt>0</asrwt>
<pdfrwt beam="1">  1        2 0.83562438E-01 0.21757567E+04</pdfrwt>
<pdfrwt beam="2">  1       -2 0.33521453E+00 0.21757567E+04</pdfrwt>
<totfact> 0.98701801E-01</totfact>
</mgrwt>
</event>
<event>
 4    1  0.1321115E-008  0.2730331E+04  0.7816531E-02  0.8325230E-01
         -2   -1    0    0    0  501 -0.00000000000E+00  0.00000000000E+00  0.94482964728E+03  0.94482964728E+03  0.00000000000E+00 0. -1.
          2   -1    0    0  501    0  0.00000000000E+00 -0.00000000000E+00 -0.19724997377E+04  0.19724997377E+04  0.00000000000E+00 0.  1.
    2000013    1    1    2    0    0  0.86669344385E+03 -0.40319812564E+02 -0.10016013776E+04  0.16304872071E+04  0.95000000000E+03 0.  0.
   -2000013    1    1    2    0    0 -0.86669344385E+03  0.40319812564E+02 -0.26068712771E+02  0.12868421778E+04  0.95000000000E+03 0.  0.
<mgrwt>
<rscale>  0 0.27303306E+04</rscale>
<asrwt>0</asrwt>
<pdfrwt beam="2">  1        2 0.30346150E+00 0.27303306E+04</pdfrwt>
<pdfrwt beam="1">  1       -2 0.14535841E+00 0.27303306E+04</pdfrwt>
<totfact> 0.19719100E+00</totfact>
</mgrwt>
</event>
<event>
 4    1  0.1321115E-008  0.2613801E+04  0.7816531E-02  0.8363528E-01
         -2   -1    0    0    0  501 -0.00000000000E+00  0.00000000000E+00  0.46783942407E+03  0.46783942407E+03  0.00000000000E+00 0. -1.
          2   -1    0    0  501    0  0.00000000000E+00 -0.00000000000E+00 -0.36508010921E+04  0.36508010921E+04  0.00000000000E+00 0.  1.
    2000013    1    1    2    0    0 -0.80538340023E+03 -0.15702825397E+03 -0.10185818548E+04  0.16165733169E+04  0.95000000000E+03 0.  0.
   -2000013    1    1    2    0    0  0.80538340023E+03  0.15702825397E+03 -0.21643798133E+04  0.25020671993E+04  0.95000000000E+03 0.  0.
<mgrwt>
<rscale>  0 0.26138008E+04</rscale>
<asrwt>0</asrwt>
<pdfrwt beam="2">  1        2 0.56166171E+00 0.26138008E+04</pdfrwt>
<pdfrwt beam="1">  1       -2 0.71975295E-01 0.26138008E+04</pdfrwt>
<totfact> 0.98117939E-01</totfact>
</mgrwt>
</event>
<event>
 4    1  0.1321115E-008  0.4058526E+04  0.7816531E-02  0.7992843E-01
          2   -1    0    0  501    0  0.00000000000E+00  0.00000000000E+00  0.33089256959E+04  0.33089256959E+04  0.00000000000E+00 0.  1.
         -2   -1    0    0    0  501 -0.00000000000E+00 -0.00000000000E+00 -0.12444847569E+04  0.12444847569E+04  0.00000000000E+00 0. -1.
    2000013    1    1    2    0    0  0.14895709341E+04  0.13239743899E+03  0.21423469994E+04  0.27800182221E+04  0.95000000000E+03 0.  0.
   -2000013    1    1    2    0    0 -0.14895709341E+04 -0.13239743899E+03 -0.77906060324E+02  0.17733922307E+04  0.95000000000E+03 0.  0.
<mgrwt>
<rscale>  0 0.40585256E+04</rscale>
<asrwt>0</asrwt>
<pdfrwt beam="1">  1        2 0.50906549E+00 0.40585256E+04</pdfrwt>
<pdfrwt beam="2">  1       -2 0.19145920E+00 0.40585256E+04</pdfrwt>
<totfact> 0.13056392E-01</totfact>
</mgrwt>
</event>
<event>
 4    1  0.1321115E-008  0.3103510E+04  0.7816531E-02  0.8214775E-01
          2   -1    0    0  501    0  0.00000000000E+00  0.00000000000E+00  0.30869790301E+04  0.30869790301E+04  0.00000000000E+00 0. -1.
         -2   -1    0    0    0  501 -0.00000000000E+00 -0.00000000000E+00 -0.78003227005E+03  0.78003227005E+03  0.00000000000E+00 0.  1.
    2000013    1    1    2    0    0 -0.13743858106E+03 -0.11980678015E+04  0.14353791891E+04  0.21016824777E+04  0.95000000000E+03 0.  0.
   -2000013    1    1    2    0    0  0.13743858106E+03  0.11980678015E+04  0.87156757092E+03  0.17653288224E+04  0.95000000000E+03 0.  0.
<mgrwt>
<rscale>  0 0.31035098E+04</rscale>
<asrwt>0</asrwt>
<pdfrwt beam="1">  1        2 0.47491984E+00 0.31035098E+04</pdfrwt>
<pdfrwt beam="2">  1       -2 0.12000497E+00 0.31035098E+04</pdfrwt>
<totfact> 0.69076883E-01</totfact>
</mgrwt>
</event>
<event>
 4    1  0.1321115E-008  0.2529786E+04  0.7816531E-02  0.8392450E-01
          2   -1    0    0  501    0  0.00000000000E+00  0.00000000000E+00  0.13304747748E+04  0.13304747748E+04  0.00000000000E+00 0.  1.
         -2   -1    0    0    0  501 -0.00000000000E+00 -0.00000000000E+00 -0.12025437976E+04  0.12025437976E+04  0.00000000000E+00 0. -1.
    2000013    1    1    2    0    0  0.63257037096E+02 -0.51280253979E+03 -0.59298746167E+03  0.12333296507E+04  0.95000000000E+03 0.  0.
   -2000013    1    1    2    0    0 -0.63257037096E+02  0.51280253979E+03  0.72091843892E+03  0.12996889217E+04  0.95000000000E+03 0.  0.
<mgrwt>
<rscale>  0 0.25297859E+04</rscale>
<asrwt>0</asrwt>
<pdfrwt beam="1">  1        2 0.20468843E+00 0.25297859E+04</pdfrwt>
<pdfrwt beam="2">  1       -2 0.18500674E+00 0.25297859E+04</pdfrwt>
<totfact> 0.23656417E+00</totfact>
</mgrwt>
</event>
<event>
 4    1  0.1321115E-008  0.2720805E+04  0.7816531E-02  0.8328286E-01
          1   -1    0    0  501    0  0.00000000000E+00  0.00000000000E+00  0.18753825197E+04  0.18753825197E+04  0.00000000000E+00 0.  1.
         -1   -1    0    0    0  501 -0.00000000000E+00 -0.00000000000E+00 -0.98683576921E+03  0.98683576921E+03  0.00000000000E+00 0. -1.
    2000013    1    1    2    0    0 -0.46215127597E+03 -0.84769068899E+03  0.31107804040E+03  0.13897599985E+04  0.95000000000E+03 0.  0.
   -2000013    1    1    2    0    0  0.46215127597E+03  0.84769068899E+03  0.57746871013E+03  0.14724582905E+04  0.95000000000E+03 0.  0.
<mgrwt>
<rscale>  0 0.27208047E+04</rscale>
<asrwt>0</asrwt>
<pdfrwt beam="1">  1        1 0.28852039E+00 0.27208047E+04</pdfrwt>
<pdfrwt beam="2">  1       -1 0.15182089E+00 0.27208047E+04</pdfrwt>
<totfact> 0.10656513E+00</totfact>
</mgrwt>
</event>
<event>
 4    1  0.1321115E-008  0.2685420E+04  0.7816531E-02  0.8339751E-01
          2   -1    0    0  501    0  0.00000000000E+00  0.00000000000E+00  0.17301302975E+04  0.17301302975E+04  0.00000000000E+00 0.  1.
         -2   -1    0    0    0  501 -0.00000000000E+00 -0.00000000000E+00 -0.10420426077E+04  0.10420426077E+04  0.00000000000E+00 0. -1.
    2000013    1    1    2    0    0 -0.93581777041E+03  0.59052754848E+02  0.19399564588E+03  0.13488426290E+04  0.95000000000E+03 0.  0.
   -2000013    1    1    2    0    0  0.93581777041E+03 -0.59052754848E+02  0.49409204391E+03  0.14233302762E+04  0.95000000000E+03 0.  0.
<mgrwt>
<rscale>  0 0.26854195E+04</rscale>
<asrwt>0</asrwt>
<pdfrwt beam="1">  1        2 0.26617389E+00 0.26854195E+04</pdfrwt>
<pdfrwt beam="2">  1       -2 0.16031425E+00 0.26854195E+04</pdfrwt>
<totfact> 0.20767868E+00</totfact>
</mgrwt>
</event>
<event>
 4    1  0.1321115E-008  0.2482331E+04  0.7816531E-02  0.8409308E-01
          2   -1    0    0  501    0  0.00000000000E+00  0.00000000000E+00  0.19888570159E+04  0.19888570159E+04  0.00000000000E+00 0.  1.
         -2   -1    0    0    0  501 -0.00000000000E+00 -0.00000000000E+00 -0.77456107933E+03  0.77456107933E+03  0.00000000000E+00 0. -1.
    2000013    1    1    2    0    0 -0.54211393148E+03 -0.22514659514E+03  0.41352617588E+01  0.11167343482E+04  0.95000000000E+03 0.  0.
   -2000013    1    1    2    0    0  0.54211393148E+03  0.22514659514E+03  0.12101606748E+04  0.16466837471E+04  0.95000000000E+03 0.  0.
<mgrwt>
<rscale>  0 0.24823305E+04</rscale>
<asrwt>0</asrwt>
<pdfrwt beam="1">  1        2 0.30597800E+00 0.24823305E+04</pdfrwt>
<pdfrwt beam="2">  1       -2 0.11916324E+00 0.24823305E+04</pdfrwt>
<totfact> 0.32707454E+00</totfact>
</mgrwt>
</event>
<event>
 4    1  0.1321115E-008  0.2826216E+04  0.7816531E-02  0.8295175E-01
         -2   -1    0    0    0  501 -0.00000000000E+00  0.00000000000E+00  0.45913168331E+03  0.45913168331E+03  0.00000000000E+00 0.  1.
          2   -1    0    0  501    0  0.00000000000E+00 -0.00000000000E+00 -0.43492411123E+04  0.43492411123E+04  0.00000000000E+00 0. -1.
    2000013    1    1    2    0    0 -0.91093104500E+03  0.46529040628E+03 -0.23181265238E+04  0.27060120309E+04  0.95000000000E+03 0.  0.
   -2000013    1    1    2    0    0  0.91093104500E+03 -0.46529040628E+03 -0.15719829052E+04  0.21023607648E+04  0.95000000000E+03 0.  0.
<mgrwt>
<rscale>  0 0.28262161E+04</rscale>
<asrwt>0</asrwt>
<pdfrwt beam="2">  1        2 0.66911401E+00 0.28262161E+04</pdfrwt>
<pdfrwt beam="1">  1       -2 0.70635645E-01 0.28262161E+04</pdfrwt>
<totfact> 0.27099270E-01</totfact>
</mgrwt>
</event>
<event>
 4    1  0.1321115E-008  0.2273197E+04  0.7816531E-02  0.8488565E-01
          2   -1    0    0  501    0  0.00000000000E+00  0.00000000000E+00  0.46126752932E+03  0.46126752932E+03  0.00000000000E+00 0.  1.
         -2   -1    0    0    0  501 -0.00000000000E+00 -0.00000000000E+00 -0.28006668169E+04  0.28006668169E+04  0.00000000000E+00 0. -1.
    2000013    1    1    2    0    0  0.48411199809E+03  0.31976038576E+03 -0.84014237562E+03  0.13946147648E+04  0.95000000000E+03 0.  0.
   -2000013    1    1    2    0    0 -0.48411199809E+03 -0.31976038576E+03 -0.14992569120E+04  0.18673195814E+04  0.95000000000E+03 0.  0.
<mgrwt>
<rscale>  0 0.22731975E+04</rscale>
<asrwt>0</asrwt>
<pdfrwt beam="1">  1        2 0.70964234E-01 0.22731975E+04</pdfrwt>
<pdfrwt beam="2">  1       -2 0.43087182E+00 0.22731975E+04</pdfrwt>
<totfact> 0.28557234E-01</totfact>
</mgrwt>
</event>
<event>
 4    1  0.1321115E-008  0.2903978E+04  0.7816531E-02  0.8271695E-01
         -2   -1    0    0    0  501 -0.00000000000E+00  0.00000000000E+00  0.89087545087E+03  0.89087545087E+03  0.00000000000E+00 0. -1.
          2   -1    0    0  501    0  0.00000000000E+00 -0.00000000000E+00 -0.23665171641E+04  0.23665171641E+04  0.00000000000E+00 0.  1.
    2000013    1    1    2    0    0  0.71519703114E+02 -0.10587628170E+04 -0.42119472983E+03  0.14852605061E+04  0.95000000000E+03 0.  0.
   -2000013    1    1    2    0    0 -0.71519703114E+02  0.10587628170E+04 -0.10544469834E+04  0.17721321088E+04  0.95000000000E+03 0.  0.
<mgrwt>
<rscale>  0 0.29039780E+04</rscale>
<asrwt>0</asrwt>
<pdfrwt beam="2">  1        2 0.36407956E+00 0.29039780E+04</pdfrwt>
<pdfrwt beam="1">  1       -2 0.13705776E+00 0.29039780E+04</pdfrwt>
<totfact> 0.13602235E+00</totfact>
</mgrwt>
</event>
<event>
 4    1  0.1321115E-008  0.2553769E+04  0.7816531E-02  0.8384077E-01
         -2   -1    0    0    0  501 -0.00000000000E+00  0.00000000000E+00  0.27583299754E+04  0.27583299754E+04  0.00000000000E+00 0. -1.
          2   -1    0    0  501    0  0.00000000000E+00 -0.00000000000E+00 -0.59109469323E+03  0.59109469323E+03  0.00000000000E+00 0.  1.
    2000013    1    1    2    0    0  0.64269119934E+03  0.26045612661E+03  0.43172440935E+03  0.12529067552E+04  0.95000000000E+03 0.  0.
   -2000013    1    1    2    0    0 -0.64269119934E+03 -0.26045612661E+03  0.17355108728E+04  0.20965179134E+04  0.95000000000E+03 0.  0.
<mgrwt>
<rscale>  0 0.25537691E+04</rscale>
<asrwt>0</asrwt>
<pdfrwt beam="2">  1        2 0.90937646E-01 0.25537691E+04</pdfrwt>
<pdfrwt beam="1">  1       -2 0.42435845E+00 0.25537691E+04</pdfrwt>
<totfact> 0.23003317E-01</totfact>
</mgrwt>
</event>
<event>
 4    1  0.1321115E-008  0.2525184E+04  0.7816531E-02  0.8394068E-01
         -2   -1    0    0    0  501 -0.00000000000E+00  0.00000000000E+00  0.65237434181E+03  0.65237434181E+03  0.00000000000E+00 0. -1.
          2   -1    0    0  501    0  0.00000000000E+00 -0.00000000000E+00 -0.24435941218E+04  0.24435941218E+04  0.00000000000E+00 0.  1.
    2000013    1    1    2    0    0 -0.41801309916E+03 -0.12502968967E+03 -0.17636498835E+04  0.20502020110E+04  0.95000000000E+03 0.  0.
   -2000013    1    1    2    0    0  0.41801309916E+03  0.12502968967E+03 -0.27569896587E+02  0.10457664527E+04  0.95000000000E+03 0.  0.
<mgrwt>
<rscale>  0 0.25251836E+04</rscale>
<asrwt>0</asrwt>
<pdfrwt beam="2">  1        2 0.37593756E+00 0.25251836E+04</pdfrwt>
<pdfrwt beam="1">  1       -2 0.10036528E+00 0.25251836E+04</pdfrwt>
<totfact> 0.27345162E+00</totfact>
</mgrwt>
</event>
<event>
 4    1  0.1321115E-008  0.2666634E+04  0.7816531E-02  0.8345913E-01
         -2   -1    0    0    0  501 -0.00000000000E+00  0.00000000000E+00  0.12334736616E+04  0.12334736616E+04  0.00000000000E+00 0. -1.
          2   -1    0    0  501    0  0.00000000000E+00 -0.00000000000E+00 -0.14412419526E+04  0.14412419526E+04  0.00000000000E+00 0.  1.
    2000013    1    1    2    0    0 -0.82481124310E+03  0.40677910943E+03 -0.27601765239E+03  0.13507289051E+04  0.95000000000E+03 0.  0.
   -2000013    1    1    2    0    0  0.82481124310E+03 -0.40677910943E+03  0.68249361415E+02  0.13239867091E+04  0.95000000000E+03 0.  0.
<mgrwt>
<rscale>  0 0.26666338E+04</rscale>
<asrwt>0</asrwt>
<pdfrwt beam="2">  1        2 0.22172953E+00 0.26666338E+04</pdfrwt>
<pdfrwt beam="1">  1       -2 0.18976518E+00 0.26666338E+04</pdfrwt>
<totfact> 0.18759702E+00</totfact>
</mgrwt>
</event>
<event>
 4    1  0.1321115E-008  0.2228622E+04  0.7816531E-02  0.8506609E-01
         -2   -1    0    0    0  501 -0.00000000000E+00  0.00000000000E+00  0.28719985787E+04  0.28719985787E+04  0.00000000000E+00 0. -1.
          2   -1    0    0  501    0  0.00000000000E+00 -0.00000000000E+00 -0.43234312590E+03  0.43234312590E+03  0.00000000000E+00 0.  1.
    2000013    1    1    2    0    0 -0.48300066540E+03  0.31019058032E+03  0.13657120984E+04  0.17598799319E+04  0.95000000000E+03 0.  0.
   -2000013    1    1    2    0    0  0.48300066540E+03 -0.31019058032E+03  0.10739433544E+04  0.15444617727E+04  0.95000000000E+03 0.  0.
<mgrwt>
<rscale>  0 0.22286219E+04</rscale>
<asrwt>0</asrwt>
<pdfrwt beam="2">  1        2 0.66514329E-01 0.22286219E+04</pdfrwt>
<pdfrwt beam="1">  1       -2 0.44184592E+00 0.22286219E+04</pdfrwt>
<totfact> 0.26103227E-01</totfact>
</mgrwt>
</event>
<event>
 4    1  0.1321115E-008  0.2957615E+04  0.7816531E-02  0.8255939E-01
          2   -1    0    0  501    0  0.00000000000E+00  0.00000000000E+00  0.29651833837E+04  0.29651833837E+04  0.00000000000E+00 0.  1.
         -2   -1    0    0    0  501 -0.00000000000E+00 -0.00000000000E+00 -0.73751626162E+03  0.73751626162E+03  0.00000000000E+00 0. -1.
    2000013    1    1    2    0    0 -0.60141576090E+02  0.96675570465E+03  0.37728539969E+03  0.14082179783E+04  0.95000000000E+03 0.  0.
   -2000013    1    1    2    0    0  0.60141576090E+02 -0.96675570465E+03  0.18503817224E+04  0.22944816670E+04  0.95000000000E+03 0.  0.
<mgrwt>
<rscale>  0 0.29576146E+04</rscale>
<asrwt>0</asrwt>
<pdfrwt beam="1">  1        2 0.45618205E+00 0.29576146E+04</pdfrwt>
<pdfrwt beam="2">  1       -2 0.11346404E+00 0.29576146E+04</pdfrwt>
<totfact> 0.95764999E-01</totfact>
</mgrwt>
</event>
<event>
 4    1  0.1321115E-008  0.2487246E+04  0.7816531E-02  0.8407543E-01
          2   -1    0    0  501    0  0.00000000000E+00  0.00000000000E+00  0.24156526816E+04  0.24156526816E+04  0.00000000000E+00 0.  1.
         -2   -1    0    0    0  501 -0.00000000000E+00 -0.00000000000E+00 -0.64024032590E+03  0.64024032590E+03  0.00000000000E+00 0. -1.
    2000013    1    1    2    0    0  0.75661976184E+03 -0.13170597295E+03  0.11739477051E+04  0.16942470722E+04  0.95000000000E+03 0.  0.
   -2000013    1    1    2    0    0 -0.75661976184E+03  0.13170597295E+03  0.60146465066E+03  0.13616459354E+04  0.95000000000E+03 0.  0.
<mgrwt>
<rscale>  0 0.24872461E+04</rscale>
<asrwt>0</asrwt>
<pdfrwt beam="1">  1        2 0.37163887E+00 0.24872461E+04</pdfrwt>
<pdfrwt beam="2">  1       -2 0.98498513E-01 0.24872461E+04</pdfrwt>
<totfact> 0.29758863E+00</totfact>
</mgrwt>
</event>
<event>
 4    1  0.1321115E-008  0.2643041E+04  0.7816531E-02  0.8353726E-01
          2   -1    0    0  501    0  0.00000000000E+00  0.00000000000E+00  0.22224676953E+04  0.22224676953E+04  0.00000000000E+00 0.  1.
         -2   -1    0    0    0  501 -0.00000000000E+00 -0.00000000000E+00 -0.78580064309E+03  0.78580064309E+03  0.00000000000E+00 0. -1.
    2000013    1    1    2    0    0 -0.72379402035E+03  0.56567422097E+03  0.71017058875E+03  0.15002357726E+04  0.95000000000E+03 0.  0.
   -2000013    1    1    2    0    0  0.72379402035E+03 -0.56567422097E+03  0.72649646344E+03  0.15080325658E+04  0.95000000000E+03 0.  0.
<mgrwt>
<rscale>  0 0.26430411E+04</rscale>
<asrwt>0</asrwt>
<pdfrwt beam="1">  1        2 0.34191810E+00 0.26430411E+04</pdfrwt>
<pdfrwt beam="2">  1       -2 0.12089241E+00 0.26430411E+04</pdfrwt>
<totfact> 0.23042815E+00</totfact>
</mgrwt>
</event>
<event>
 4    1  0.1321115E-008  0.2494027E+04  0.7816531E-02  0.8405117E-01
          2   -1    0    0  501    0  0.00000000000E+00  0.00000000000E+00  0.12750038378E+04  0.12750038378E+04  0.00000000000E+00 0.  1.
         -2   -1    0    0    0  501 -0.00000000000E+00 -0.00000000000E+00 -0.12196376781E+04  0.12196376781E+04  0.00000000000E+00 0. -1.
    2000013    1    1    2    0    0  0.58720068726E+03  0.27133900977E+03 -0.45628860326E+03  0.12365794737E+04  0.95000000000E+03 0.  0.
   -2000013    1    1    2    0    0 -0.58720068726E+03 -0.27133900977E+03  0.51165476300E+03  0.12580620421E+04  0.95000000000E+03 0.  0.
<mgrwt>
<rscale>  0 0.24940270E+04</rscale>
<asrwt>0</asrwt>
<pdfrwt beam="1">  1        2 0.19615444E+00 0.24940270E+04</pdfrwt>
<pdfrwt beam="2">  1       -2 0.18763657E+00 0.24940270E+04</pdfrwt>
<totfact> 0.24532458E+00</totfact>
</mgrwt>
</event>
<event>
 4    1  0.1321115E-008  0.2506208E+04  0.7816531E-02  0.8400777E-01
          2   -1    0    0  501    0  0.00000000000E+00  0.00000000000E+00  0.10991478779E+04  0.10991478779E+04  0.00000000000E+00 0.  1.
         -2   -1    0    0    0  501 -0.00000000000E+00 -0.00000000000E+00 -0.14286248474E+04  0.14286248474E+04  0.00000000000E+00 0. -1.
    2000013    1    1    2    0    0 -0.67695047832E+03 -0.43401061574E+03 -0.18081698200E+02  0.12447707068E+04  0.95000000000E+03 0.  0.
   -2000013    1    1    2    0    0  0.67695047832E+03  0.43401061574E+03 -0.31139527130E+03  0.12830020186E+04  0.95000000000E+03 0.  0.
<mgrwt>
<rscale>  0 0.25062083E+04</rscale>
<asrwt>0</asrwt>
<pdfrwt beam="1">  1        2 0.16909967E+00 0.25062083E+04</pdfrwt>
<pdfrwt beam="2">  1       -2 0.21978844E+00 0.25062083E+04</pdfrwt>
<totfact> 0.19275120E+00</totfact>
</mgrwt>
</event>
<event>
 4    1  0.1321115E-008  0.3839613E+04  0.7816531E-02  0.8037707E-01
          2   -1    0    0  501    0  0.00000000000E+00  0.00000000000E+00  0.42011695509E+04  0.42011695509E+04  0.00000000000E+00 0.  1.
         -2   -1    0    0    0  501 -0.00000000000E+00 -0.00000000000E+00 -0.87729317817E+03  0.87729317817E+03  0.00000000000E+00 0. -1.
    2000013    1    1    2    0    0 -0.13801641906E+04  0.57914562528E+03  0.26364846046E+04  0.31770763161E+04  0.95000000000E+03 0.  0.
   -2000013    1    1    2    0    0  0.13801641906E+04 -0.57914562528E+03  0.68739176818E+03  0.19013864130E+04  0.95000000000E+03 0.  0.
<mgrwt>
<rscale>  0 0.38396132E+04</rscale>
<asrwt>0</asrwt>
<pdfrwt beam="1">  1        2 0.64633376E+00 0.38396132E+04</pdfrwt>
<pdfrwt beam="2">  1       -2 0.13496818E+00 0.38396132E+04</pdfrwt>
<totfact> 0.72864565E-02</totfact>
</mgrwt>
</event>
<event>
 4    1  0.1321115E-008  0.2173809E+04  0.7816531E-02  0.8529409E-01
          1   -1    0    0  501    0  0.00000000000E+00  0.00000000000E+00  0.14387796207E+04  0.14387796207E+04  0.00000000000E+00 0.  1.
         -1   -1    0    0    0  501 -0.00000000000E+00 -0.00000000000E+00 -0.82108564754E+03  0.82108564754E+03  0.00000000000E+00 0. -1.
    2000013    1    1    2    0    0 -0.43077613286E+03 -0.38253386952E+02 -0.61839716872E+01  0.10438245254E+04  0.95000000000E+03 0.  0.
   -2000013    1    1    2    0    0  0.43077613286E+03  0.38253386952E+02  0.62387794485E+03  0.12160407429E+04  0.95000000000E+03 0.  0.
<mgrwt>
<rscale>  0 0.21738089E+04</rscale>
<asrwt>0</asrwt>
<pdfrwt beam="1">  1        1 0.22135071E+00 0.21738089E+04</pdfrwt>
<pdfrwt beam="2">  1       -1 0.12632087E+00 0.21738089E+04</pdfrwt>
<totfact> 0.35949576E+00</totfact>
</mgrwt>
</event>
<event>
 4    1  0.1321115E-008  0.2209349E+04  0.7816531E-02  0.8514547E-01
         -2   -1    0    0    0  501 -0.00000000000E+00  0.00000000000E+00  0.82513046593E+03  0.82513046593E+03  0.00000000000E+00 0. -1.
          2   -1    0    0  501    0  0.00000000000E+00 -0.00000000000E+00 -0.14789242414E+04  0.14789242414E+04  0.00000000000E+00 0.  1.
    2000013    1    1    2    0    0 -0.13307118600E+03  0.53415465914E+03 -0.45366542617E+03  0.11879989307E+04  0.95000000000E+03 0.  0.
   -2000013    1    1    2    0    0  0.13307118600E+03 -0.53415465914E+03 -0.20012834932E+03  0.11160557767E+04  0.95000000000E+03 0.  0.
<mgrwt>
<rscale>  0 0.22093487E+04</rscale>
<asrwt>0</asrwt>
<pdfrwt beam="2">  1        2 0.22752680E+00 0.22093487E+04</pdfrwt>
<pdfrwt beam="1">  1       -2 0.12694315E+00 0.22093487E+04</pdfrwt>
<totfact> 0.54972181E+00</totfact>
</mgrwt>
</event>
<event>
 4    1  0.1321115E-008  0.2139726E+04  0.7816531E-02  0.8543943E-01
         -2   -1    0    0    0  501 -0.00000000000E+00  0.00000000000E+00  0.65729550395E+03  0.65729550395E+03  0.00000000000E+00 0. -1.
          2   -1    0    0  501    0  0.00000000000E+00 -0.00000000000E+00 -0.17413877110E+04  0.17413877110E+04  0.00000000000E+00 0.  1.
    2000013    1    1    2    0    0  0.46695821989E+03 -0.79442512541E+02 -0.39271318931E+03  0.11318501407E+04  0.95000000000E+03 0.  0.
   -2000013    1    1    2    0    0 -0.46695821989E+03  0.79442512541E+02 -0.69137901779E+03  0.12668330743E+04  0.95000000000E+03 0.  0.
<mgrwt>
<rscale>  0 0.21397255E+04</rscale>
<asrwt>0</asrwt>
<pdfrwt beam="2">  1        2 0.26790580E+00 0.21397255E+04</pdfrwt>
<pdfrwt beam="1">  1       -2 0.10112239E+00 0.21397255E+04</pdfrwt>
<totfact> 0.68719992E+00</totfact>
</mgrwt>
</event>
<event>
 4    1  0.1321115E-008  0.2634968E+04  0.7816531E-02  0.8356420E-01
          2   -1    0    0  501    0  0.00000000000E+00  0.00000000000E+00  0.39894343064E+04  0.39894343064E+04  0.00000000000E+00 0.  1.
         -2   -1    0    0    0  501 -0.00000000000E+00 -0.00000000000E+00 -0.43509013104E+03  0.43509013104E+03  0.00000000000E+00 0. -1.
    2000013    1    1    2    0    0 -0.66001106251E+03 -0.56405496928E+03  0.13037483925E+04  0.18319477290E+04  0.95000000000E+03 0.  0.
   -2000013    1    1    2    0    0  0.66001106251E+03  0.56405496928E+03  0.22505957829E+04  0.25925767084E+04  0.95000000000E+03 0.  0.
<mgrwt>
<rscale>  0 0.26349675E+04</rscale>
<asrwt>0</asrwt>
<pdfrwt beam="1">  1        2 0.61375910E+00 0.26349675E+04</pdfrwt>
<pdfrwt beam="2">  1       -2 0.66936946E-01 0.26349675E+04</pdfrwt>
<totfact> 0.63186722E-01</totfact>
</mgrwt>
</event>
<event>
 4    1  0.1321115E-008  0.2537580E+04  0.7816531E-02  0.8389718E-01
         -2   -1    0    0    0  501 -0.00000000000E+00  0.00000000000E+00  0.10309550704E+04  0.10309550704E+04  0.00000000000E+00 0. -1.
          2   -1    0    0  501    0  0.00000000000E+00 -0.00000000000E+00 -0.15614920294E+04  0.15614920294E+04  0.00000000000E+00 0.  1.
    2000013    1    1    2    0    0 -0.19157293267E+03  0.80370073855E+03 -0.42580638870E+03  0.13290771785E+04  0.95000000000E+03 0.  0.
   -2000013    1    1    2    0    0  0.19157293267E+03 -0.80370073855E+03 -0.10473057033E+03  0.12633699213E+04  0.95000000000E+03 0.  0.
<mgrwt>
<rscale>  0 0.25375800E+04</rscale>
<asrwt>0</asrwt>
<pdfrwt beam="2">  1        2 0.24022954E+00 0.25375800E+04</pdfrwt>
<pdfrwt beam="1">  1       -2 0.15860847E+00 0.25375800E+04</pdfrwt>
<totfact> 0.26885591E+00</totfact>
</mgrwt>
</event>
<event>
 4    1  0.1321115E-008  0.2770111E+04  0.7816531E-02  0.8312608E-01
          2   -1    0    0  501    0  0.00000000000E+00  0.00000000000E+00  0.22250089478E+04  0.22250089478E+04  0.00000000000E+00 0.  1.
         -2   -1    0    0    0  501 -0.00000000000E+00 -0.00000000000E+00 -0.86218893088E+03  0.86218893088E+03  0.00000000000E+00 0. -1.
    2000013    1    1    2    0    0 -0.67888948508E+03  0.41826731434E+03  0.13684496547E+04  0.18468873644E+04  0.95000000000E+03 0.  0.
   -2000013    1    1    2    0    0  0.67888948508E+03 -0.41826731434E+03 -0.56296377522E+01  0.12403105144E+04  0.95000000000E+03 0.  0.
<mgrwt>
<rscale>  0 0.27701105E+04</rscale>
<asrwt>0</asrwt>
<pdfrwt beam="1">  1        2 0.34230907E+00 0.27701105E+04</pdfrwt>
<pdfrwt beam="2">  1       -2 0.13264445E+00 0.27701105E+04</pdfrwt>
<totfact> 0.17991941E+00</totfact>
</mgrwt>
</event>
<event>
 4    1  0.1321115E-008  0.3839986E+04  0.7816531E-02  0.8037628E-01
         -2   -1    0    0    0  501 -0.00000000000E+00  0.00000000000E+00  0.21677613353E+04  0.21677613353E+04  0.00000000000E+00 0. -1.
          2   -1    0    0  501    0  0.00000000000E+00 -0.00000000000E+00 -0.17005439725E+04  0.17005439725E+04  0.00000000000E+00 0.  1.
    2000013    1    1    2    0    0 -0.83237425122E+03 -0.12936562492E+04  0.88450072793E+03  0.20127679754E+04  0.95000000000E+03 0.  0.
   -2000013    1    1    2    0    0  0.83237425122E+03  0.12936562492E+04 -0.41728336522E+03  0.18555373324E+04  0.95000000000E+03 0.  0.
<mgrwt>
<rscale>  0 0.38399862E+04</rscale>
<asrwt>0</asrwt>
<pdfrwt beam="2">  1        2 0.26162215E+00 0.38399862E+04</pdfrwt>
<pdfrwt beam="1">  1       -2 0.33350174E+00 0.38399862E+04</pdfrwt>
<totfact> 0.15459300E-01</totfact>
</mgrwt>
</event>
<event>
 4    1  0.1321115E-008  0.3088349E+04  0.7816531E-02  0.8218943E-01
         -2   -1    0    0    0  501 -0.00000000000E+00  0.00000000000E+00  0.19275701455E+04  0.19275701455E+04  0.00000000000E+00 0. -1.
          2   -1    0    0  501    0  0.00000000000E+00 -0.00000000000E+00 -0.12370366743E+04  0.12370366743E+04  0.00000000000E+00 0.  1.
    2000013    1    1    2    0    0  0.11755499954E+04  0.21440010126E+03  0.10695197816E+03  0.15303019051E+04  0.95000000000E+03 0.  0.
   -2000013    1    1    2    0    0 -0.11755499954E+04 -0.21440010126E+03  0.58358149308E+03  0.16343049147E+04  0.95000000000E+03 0.  0.
<mgrwt>
<rscale>  0 0.30883490E+04</rscale>
<asrwt>0</asrwt>
<pdfrwt beam="2">  1        2 0.19031334E+00 0.30883490E+04</pdfrwt>
<pdfrwt beam="1">  1       -2 0.29654925E+00 0.30883490E+04</pdfrwt>
<totfact> 0.51045824E-01</totfact>
</mgrwt>
</event>
<event>
 4    1  0.1321115E-008  0.2272316E+04  0.7816531E-02  0.8488917E-01
         -1   -1    0    0    0  501 -0.00000000000E+00  0.00000000000E+00  0.53502623487E+03  0.53502623487E+03  0.00000000000E+00 0. -1.
          1   -1    0    0  501    0  0.00000000000E+00 -0.00000000000E+00 -0.24126952668E+04  0.24126952668E+04  0.00000000000E+00 0.  1.
    2000013    1    1    2    0    0  0.15605024743E+03  0.60208801497E+03 -0.98896891912E+03  0.15057958628E+04  0.95000000000E+03 0.  0.
   -2000013    1    1    2    0    0 -0.15605024743E+03 -0.60208801497E+03 -0.88870011286E+03  0.14419256389E+04  0.95000000000E+03 0.  0.
<mgrwt>
<rscale>  0 0.22723162E+04</rscale>
<asrwt>0</asrwt>
<pdfrwt beam="2">  1        1 0.37118388E+00 0.22723162E+04</pdfrwt>
<pdfrwt beam="1">  1       -1 0.82311729E-01 0.22723162E+04</pdfrwt>
<totfact> 0.20700155E+00</totfact>
</mgrwt>
</event>
<event>
 4    1  0.1321115E-008  0.2508787E+04  0.7816531E-02  0.8399862E-01
          2   -1    0    0  501    0  0.00000000000E+00  0.00000000000E+00  0.61751960739E+03  0.61751960739E+03  0.00000000000E+00 0.  1.
         -2   -1    0    0    0  501 -0.00000000000E+00 -0.00000000000E+00 -0.25481024615E+04  0.25481024615E+04  0.00000000000E+00 0. -1.
    2000013    1    1    2    0    0  0.61895008201E+03 -0.19878157690E+03 -0.33641947319E+03  0.11992878642E+04  0.95000000000E+03 0.  0.
   -2000013    1    1    2    0    0 -0.61895008201E+03  0.19878157690E+03 -0.15941633809E+04  0.19663342046E+04  0.95000000000E+03 0.  0.
<mgrwt>
<rscale>  0 0.25087871E+04</rscale>
<asrwt>0</asrwt>
<pdfrwt beam="1">  1        2 0.95003017E-01 0.25087871E+04</pdfrwt>
<pdfrwt beam="2">  1       -2 0.39201576E+00 0.25087871E+04</pdfrwt>
<totfact> 0.35731063E-01</totfact>
</mgrwt>
</event>
<event>
 4    1  0.1321115E-008  0.2283406E+04  0.7816531E-02  0.8484493E-01
         -2   -1    0    0    0  501 -0.00000000000E+00  0.00000000000E+00  0.37900706131E+03  0.37900706131E+03  0.00000000000E+00 0. -1.
          2   -1    0    0  501    0  0.00000000000E+00 -0.00000000000E+00 -0.34392109455E+04  0.34392109455E+04  0.00000000000E+00 0.  1.
    2000013    1    1    2    0    0  0.61536869848E+03  0.34518900933E+02 -0.17730836970E+04  0.21038526531E+04  0.95000000000E+03 0.  0.
   -2000013    1    1    2    0    0 -0.61536869848E+03 -0.34518900933E+02 -0.12871201873E+04  0.17143653537E+04  0.95000000000E+03 0.  0.
<mgrwt>
<rscale>  0 0.22834056E+04</rscale>
<asrwt>0</asrwt>
<pdfrwt beam="2">  1        2 0.52910936E+00 0.22834056E+04</pdfrwt>
<pdfrwt beam="1">  1       -2 0.58308780E-01 0.22834056E+04</pdfrwt>
<totfact> 0.22436423E+00</totfact>
</mgrwt>
</event>
<event>
 4    1  0.1321115E-008  0.2108752E+04  0.7816531E-02  0.8557398E-01
          2   -1    0    0  501    0  0.00000000000E+00  0.00000000000E+00  0.28716563677E+04  0.28716563677E+04  0.00000000000E+00 0.  1.
         -2   -1    0    0    0  501 -0.00000000000E+00 -0.00000000000E+00 -0.38713163645E+03  0.38713163645E+03  0.00000000000E+00 0. -1.
    2000013    1    1    2    0    0 -0.11625991549E+03 -0.43826752372E+03  0.11493573929E+04  0.15585625451E+04  0.95000000000E+03 0.  0.
   -2000013    1    1    2    0    0  0.11625991549E+03  0.43826752372E+03  0.13351673384E+04  0.17002254591E+04  0.95000000000E+03 0.  0.
<mgrwt>
<rscale>  0 0.21087523E+04</rscale>
<asrwt>0</asrwt>
<pdfrwt beam="1">  1        2 0.44179328E+00 0.21087523E+04</pdfrwt>
<pdfrwt beam="2">  1       -2 0.59558715E-01 0.21087523E+04</pdfrwt>
<totfact> 0.50726579E+00</totfact>
</mgrwt>
</event>
<event>
 4    1  0.1321115E-008  0.4469782E+04  0.7816531E-02  0.7915949E-01
          2   -1    0    0  501    0  0.00000000000E+00  0.00000000000E+00  0.19142275383E+04  0.19142275383E+04  0.00000000000E+00 0.  1.
         -2   -1    0    0    0  501 -0.00000000000E+00 -0.00000000000E+00 -0.26092706418E+04  0.26092706418E+04  0.00000000000E+00 0. -1.
    2000013    1    1    2    0    0  0.18752854453E+04  0.63308850638E+03 -0.77056569461E+03  0.23267505341E+04  0.95000000000E+03 0.  0.
   -2000013    1    1    2    0    0 -0.18752854453E+04 -0.63308850638E+03  0.75522591080E+02  0.21967476460E+04  0.95000000000E+03 0.  0.
<mgrwt>
<rscale>  0 0.44697820E+04</rscale>
<asrwt>0</asrwt>
<pdfrwt beam="1">  1        2 0.29449654E+00 0.44697820E+04</pdfrwt>
<pdfrwt beam="2">  1       -2 0.40142625E+00 0.44697820E+04</pdfrwt>
<totfact> 0.41148188E-02</totfact>
</mgrwt>
</event>
<event>
 4    1  0.1321115E-008  0.2503075E+04  0.7816531E-02  0.8401891E-01
          3   -1    0    0  501    0  0.00000000000E+00  0.00000000000E+00  0.17915441869E+04  0.17915441869E+04  0.00000000000E+00 0.  1.
         -3   -1    0    0    0  501 -0.00000000000E+00 -0.00000000000E+00 -0.87429938851E+03  0.87429938851E+03  0.00000000000E+00 0. -1.
    2000013    1    1    2    0    0  0.55274252025E+03  0.45270636313E+03  0.41519448714E+02  0.11894079239E+04  0.95000000000E+03 0.  0.
   -2000013    1    1    2    0    0 -0.55274252025E+03 -0.45270636313E+03  0.87572534969E+03  0.14764356515E+04  0.95000000000E+03 0.  0.
<mgrwt>
<rscale>  0 0.25030749E+04</rscale>
<asrwt>0</asrwt>
<pdfrwt beam="1">  1        3 0.27562218E+00 0.25030749E+04</pdfrwt>
<pdfrwt beam="2">  1       -3 0.13450760E+00 0.25030749E+04</pdfrwt>
<totfact> 0.52313610E-02</totfact>
</mgrwt>
</event>
<event>
 4    1  0.1321115E-008  0.2360927E+04  0.7816531E-02  0.8454278E-01
          2   -1    0    0  501    0  0.00000000000E+00  0.00000000000E+00  0.20194887552E+04  0.20194887552E+04  0.00000000000E+00 0.  1.
         -2   -1    0    0    0  501 -0.00000000000E+00 -0.00000000000E+00 -0.69002324658E+03  0.69002324658E+03  0.00000000000E+00 0. -1.
    2000013    1    1    2    0    0 -0.30937944325E+03  0.61756334216E+03  0.80000950978E+03  0.14211317100E+04  0.95000000000E+03 0.  0.
   -2000013    1    1    2    0    0  0.30937944325E+03 -0.61756334216E+03  0.52945599883E+03  0.12883802918E+04  0.95000000000E+03 0.  0.
<mgrwt>
<rscale>  0 0.23609271E+04</rscale>
<asrwt>0</asrwt>
<pdfrwt beam="1">  1        2 0.31069057E+00 0.23609271E+04</pdfrwt>
<pdfrwt beam="2">  1       -2 0.10615742E+00 0.23609271E+04</pdfrwt>
<totfact> 0.42084805E+00</totfact>
</mgrwt>
</event>
<event>
 4    1  0.1321115E-008  0.2976121E+04  0.7816531E-02  0.8250583E-01
         -2   -1    0    0    0  501 -0.00000000000E+00  0.00000000000E+00  0.89814459682E+03  0.89814459682E+03  0.00000000000E+00 0. -1.
          2   -1    0    0  501    0  0.00000000000E+00 -0.00000000000E+00 -0.24654433382E+04  0.24654433382E+04  0.00000000000E+00 0.  1.
    2000013    1    1    2    0    0 -0.62265837335E+03  0.51821699544E+02 -0.18685367523E+04  0.21873085134E+04  0.95000000000E+03 0.  0.
   -2000013    1    1    2    0    0  0.62265837335E+03 -0.51821699544E+02  0.30123801088E+03  0.11762794216E+04  0.95000000000E+03 0.  0.
<mgrwt>
<rscale>  0 0.29761214E+04</rscale>
<asrwt>0</asrwt>
<pdfrwt beam="2">  1        2 0.37929897E+00 0.29761214E+04</pdfrwt>
<pdfrwt beam="1">  1       -2 0.13817609E+00 0.29761214E+04</pdfrwt>
<totfact> 0.11615806E+00</totfact>
</mgrwt>
</event>
<event>
 4    1  0.1321115E-008  0.2186473E+04  0.7816531E-02  0.8524079E-01
         -2   -1    0    0    0  501 -0.00000000000E+00  0.00000000000E+00  0.19596822858E+04  0.19596822858E+04  0.00000000000E+00 0. -1.
          2   -1    0    0  501    0  0.00000000000E+00 -0.00000000000E+00 -0.60987768137E+03  0.60987768137E+03  0.00000000000E+00 0.  1.
    2000013    1    1    2    0    0 -0.20689190147E+03  0.43389466353E+03  0.38322903089E+03  0.11315623394E+04  0.95000000000E+03 0.  0.
   -2000013    1    1    2    0    0  0.20689190147E+03 -0.43389466353E+03  0.96657557350E+03  0.14379976277E+04  0.95000000000E+03 0.  0.
<mgrwt>
<rscale>  0 0.21864734E+04</rscale>
<asrwt>0</asrwt>
<pdfrwt beam="2">  1        2 0.93827336E-01 0.21864734E+04</pdfrwt>
<pdfrwt beam="1">  1       -2 0.30148958E+00 0.21864734E+04</pdfrwt>
<totfact> 0.13855743E+00</totfact>
</mgrwt>
</event>
<event>
 4    1  0.1321115E-008  0.2176156E+04  0.7816531E-02  0.8528419E-01
         -2   -1    0    0    0  501 -0.00000000000E+00  0.00000000000E+00  0.14829452700E+04  0.14829452700E+04  0.00000000000E+00 0.  1.
          2   -1    0    0  501    0  0.00000000000E+00 -0.00000000000E+00 -0.79835265826E+03  0.79835265826E+03  0.00000000000E+00 0. -1.
    2000013    1    1    2    0    0  0.21431422864E+03 -0.38246376851E+03  0.65539744871E+03  0.12346072001E+04  0.95000000000E+03 0.  0.
   -2000013    1    1    2    0    0 -0.21431422864E+03  0.38246376851E+03  0.29195163020E+02  0.10466907281E+04  0.95000000000E+03 0.  0.
<mgrwt>
<rscale>  0 0.21761556E+04</rscale>
<asrwt>0</asrwt>
<pdfrwt beam="2">  1        2 0.12282349E+00 0.21761556E+04</pdfrwt>
<pdfrwt beam="1">  1       -2 0.22814543E+00 0.21761556E+04</pdfrwt>
<totfact> 0.27770038E+00</totfact>
</mgrwt>
</event>
<event>
 4    1  0.1321115E-008  0.2133103E+04  0.7816531E-02  0.8546800E-01
         -2   -1    0    0    0  501 -0.00000000000E+00  0.00000000000E+00  0.11669688775E+04  0.11669688775E+04  0.00000000000E+00 0. -1.
          2   -1    0    0  501    0  0.00000000000E+00 -0.00000000000E+00 -0.97477514265E+03  0.97477514265E+03  0.00000000000E+00 0.  1.
    2000013    1    1    2    0    0  0.43214469515E+03  0.18403755048E+03  0.21663900130E+03  0.10816891025E+04  0.95000000000E+03 0.  0.
   -2000013    1    1    2    0    0 -0.43214469515E+03 -0.18403755048E+03 -0.24445266410E+02  0.10600549177E+04  0.95000000000E+03 0.  0.
<mgrwt>
<rscale>  0 0.21331031E+04</rscale>
<asrwt>0</asrwt>
<pdfrwt beam="2">  1        2 0.14996541E+00 0.21331031E+04</pdfrwt>
<pdfrwt beam="1">  1       -2 0.17953367E+00 0.21331031E+04</pdfrwt>
<totfact> 0.43899954E+00</totfact>
</mgrwt>
</event>
<event>
 4    1  0.1321115E-008  0.2269849E+04  0.7816531E-02  0.8489905E-01
         -2   -1    0    0    0  501 -0.00000000000E+00  0.00000000000E+00  0.18142463744E+04  0.18142463744E+04  0.00000000000E+00 0. -1.
          2   -1    0    0  501    0  0.00000000000E+00 -0.00000000000E+00 -0.70996600910E+03  0.70996600910E+03  0.00000000000E+00 0.  1.
    2000013    1    1    2    0    0 -0.33626362207E+03 -0.45377608431E+03  0.83905928086E+03  0.13876261871E+04  0.95000000000E+03 0.  0.
   -2000013    1    1    2    0    0  0.33626362207E+03  0.45377608431E+03  0.26522108439E+03  0.11365861964E+04  0.95000000000E+03 0.  0.
<mgrwt>
<rscale>  0 0.22698487E+04</rscale>
<asrwt>0</asrwt>
<pdfrwt beam="2">  1        2 0.10922554E+00 0.22698487E+04</pdfrwt>
<pdfrwt beam="1">  1       -2 0.27911483E+00 0.22698487E+04</pdfrwt>
<totfact> 0.15597224E+00</totfact>
</mgrwt>
</event>
<event>
 4    1  0.1321115E-008  0.2707103E+04  0.7816531E-02  0.8332704E-01
         -2   -1    0    0    0  501 -0.00000000000E+00  0.00000000000E+00  0.76023202211E+03  0.76023202211E+03  0.00000000000E+00 0. -1.
          2   -1    0    0  501    0  0.00000000000E+00 -0.00000000000E+00 -0.24099251574E+04  0.24099251574E+04  0.00000000000E+00 0.  1.
    2000013    1    1    2    0    0 -0.84541628145E+03 -0.22380480508E+03 -0.34947327848E+03  0.13377028265E+04  0.95000000000E+03 0.  0.
   -2000013    1    1    2    0    0  0.84541628145E+03  0.22380480508E+03 -0.13002198568E+04  0.18324543530E+04  0.95000000000E+03 0.  0.
<mgrwt>
<rscale>  0 0.27071035E+04</rscale>
<asrwt>0</asrwt>
<pdfrwt beam="2">  1        2 0.37075771E+00 0.27071035E+04</pdfrwt>
<pdfrwt beam="1">  1       -2 0.11695877E+00 0.27071035E+04</pdfrwt>
<totfact> 0.19460128E+00</totfact>
</mgrwt>
</event>
<event>
 4    1  0.1321115E-008  0.2089025E+04  0.7816531E-02  0.8566093E-01
          2   -1    0    0  501    0  0.00000000000E+00  0.00000000000E+00  0.13481244075E+04  0.13481244075E+04  0.00000000000E+00 0.  1.
         -2   -1    0    0    0  501 -0.00000000000E+00 -0.00000000000E+00 -0.80927718774E+03  0.80927718774E+03  0.00000000000E+00 0. -1.
    2000013    1    1    2    0    0 -0.21333236524E+03  0.13367762498E+03  0.63473314927E+03  0.11699429799E+04  0.95000000000E+03 0.  0.
   -2000013    1    1    2    0    0  0.21333236524E+03 -0.13367762498E+03 -0.95885929522E+02  0.98745861531E+03  0.95000000000E+03 0.  0.
<mgrwt>
<rscale>  0 0.20890250E+04</rscale>
<asrwt>0</asrwt>
<pdfrwt beam="1">  1        2 0.20740376E+00 0.20890250E+04</pdfrwt>
<pdfrwt beam="2">  1       -2 0.12450418E+00 0.20890250E+04</pdfrwt>
<totfact> 0.69252959E+00</totfact>
</mgrwt>
</event>
<event>
 4    1  0.1321115E-008  0.2162757E+04  0.7816531E-02  0.8534091E-01
          1   -1    0    0  501    0  0.00000000000E+00  0.00000000000E+00  0.21544401267E+04  0.21544401267E+04  0.00000000000E+00 0. -1.
         -1   -1    0    0    0  501 -0.00000000000E+00 -0.00000000000E+00 -0.54277668381E+03  0.54277668381E+03  0.00000000000E+00 0.  1.
    2000013    1    1    2    0    0 -0.24833036730E+03 -0.32532442031E+03  0.11989729875E+04  0.15835214475E+04  0.95000000000E+03 0.  0.
   -2000013    1    1    2    0    0  0.24833036730E+03  0.32532442031E+03  0.41269045540E+03  0.11136953631E+04  0.95000000000E+03 0.  0.
<mgrwt>
<rscale>  0 0.21627574E+04</rscale>
<asrwt>0</asrwt>
<pdfrwt beam="1">  1        1 0.33145232E+00 0.21627574E+04</pdfrwt>
<pdfrwt beam="2">  1       -1 0.83504106E-01 0.21627574E+04</pdfrwt>
<totfact> 0.30448888E+00</totfact>
</mgrwt>
</event>
<event>
 4    1  0.1321115E-008  0.2628022E+04  0.7816531E-02  0.8358744E-01
         -2   -1    0    0    0  501 -0.00000000000E+00  0.00000000000E+00  0.53839100966E+03  0.53839100966E+03  0.00000000000E+00 0. -1.
          2   -1    0    0  501    0  0.00000000000E+00 -0.00000000000E+00 -0.32070103544E+04  0.32070103544E+04  0.00000000000E+00 0.  1.
    2000013    1    1    2    0    0  0.63809552947E+03  0.59026313692E+03 -0.17074481734E+04  0.21385639435E+04  0.95000000000E+03 0.  0.
   -2000013    1    1    2    0    0 -0.63809552947E+03 -0.59026313692E+03 -0.96117117131E+03  0.16068374206E+04  0.95000000000E+03 0.  0.
<mgrwt>
<rscale>  0 0.26280225E+04</rscale>
<asrwt>0</asrwt>
<pdfrwt beam="2">  1        2 0.49338619E+00 0.26280225E+04</pdfrwt>
<pdfrwt beam="1">  1       -2 0.82829389E-01 0.26280225E+04</pdfrwt>
<totfact> 0.14471686E+00</totfact>
</mgrwt>
</event>
<event>
 4    1  0.1321115E-008  0.2679199E+04  0.7816531E-02  0.8341786E-01
          2   -1    0    0  501    0  0.00000000000E+00  0.00000000000E+00  0.11752088024E+04  0.11752088024E+04  0.00000000000E+00 0.  1.
         -2   -1    0    0    0  501 -0.00000000000E+00 -0.00000000000E+00 -0.15269853912E+04  0.15269853912E+04  0.00000000000E+00 0. -1.
    2000013    1    1    2    0    0 -0.11189469667E+03 -0.77820062004E+03  0.35196785004E+03  0.12823798172E+04  0.95000000000E+03 0.  0.
   -2000013    1    1    2    0    0  0.11189469667E+03  0.77820062004E+03 -0.70374443878E+03  0.14198143763E+04  0.95000000000E+03 0.  0.
<mgrwt>
<rscale>  0 0.26791989E+04</rscale>
<asrwt>0</asrwt>
<pdfrwt beam="1">  1        2 0.18080135E+00 0.26791989E+04</pdfrwt>
<pdfrwt beam="2">  1       -2 0.23492083E+00 0.26791989E+04</pdfrwt>
<totfact> 0.13721029E+00</totfact>
</mgrwt>
</event>
<event>
 4    1  0.1321115E-008  0.2430608E+04  0.7816531E-02  0.8428133E-01
          2   -1    0    0  501    0  0.00000000000E+00  0.00000000000E+00  0.24518624146E+04  0.24518624146E+04  0.00000000000E+00 0.  1.
         -2   -1    0    0    0  501 -0.00000000000E+00 -0.00000000000E+00 -0.60238423054E+03  0.60238423054E+03  0.00000000000E+00 0. -1.
    2000013    1    1    2    0    0 -0.68181742085E+03  0.27179159553E+03  0.11622208864E+04  0.16709288003E+04  0.95000000000E+03 0.  0.
   -2000013    1    1    2    0    0  0.68181742085E+03 -0.27179159553E+03  0.68725729768E+03  0.13833178449E+04  0.95000000000E+03 0.  0.
<mgrwt>
<rscale>  0 0.24306075E+04</rscale>
<asrwt>0</asrwt>
<pdfrwt beam="1">  1        2 0.37720960E+00 0.24306075E+04</pdfrwt>
<pdfrwt beam="2">  1       -2 0.92674499E-01 0.24306075E+04</pdfrwt>
<totfact> 0.32870425E+00</totfact>
</mgrwt>
</event>
<event>
 4    1  0.1321115E-008  0.3697977E+04  0.7816531E-02  0.8068410E-01
         -2   -1    0    0    0  501 -0.00000000000E+00  0.00000000000E+00  0.80752590360E+03  0.80752590360E+03  0.00000000000E+00 0. -1.
          2   -1    0    0  501    0  0.00000000000E+00 -0.00000000000E+00 -0.42336204432E+04  0.42336204432E+04  0.00000000000E+00 0.  1.
    2000013    1    1    2    0    0 -0.12804656496E+04 -0.92428727928E+03 -0.15092067468E+04  0.23820378374E+04  0.95000000000E+03 0.  0.
   -2000013    1    1    2    0    0  0.12804656496E+04  0.92428727928E+03 -0.19168877928E+04  0.26591085093E+04  0.95000000000E+03 0.  0.
<mgrwt>
<rscale>  0 0.36979768E+04</rscale>
<asrwt>0</asrwt>
<pdfrwt beam="2">  1        2 0.65132620E+00 0.36979768E+04</pdfrwt>
<pdfrwt beam="1">  1       -2 0.12423476E+00 0.36979768E+04</pdfrwt>
<totfact> 0.85199491E-02</totfact>
</mgrwt>
</event>
<event>
 4    1  0.1321115E-008  0.2133634E+04  0.7816531E-02  0.8546570E-01
          2   -1    0    0  501    0  0.00000000000E+00  0.00000000000E+00  0.70008780403E+03  0.70008780403E+03  0.00000000000E+00 0.  1.
         -2   -1    0    0    0  501 -0.00000000000E+00 -0.00000000000E+00 -0.16256518043E+04  0.16256518043E+04  0.00000000000E+00 0. -1.
    2000013    1    1    2    0    0  0.25829794843E+03 -0.32852897885E+03 -0.19367344427E+03  0.10557738977E+04  0.95000000000E+03 0.  0.
   -2000013    1    1    2    0    0 -0.25829794843E+03  0.32852897885E+03 -0.73189055597E+03  0.12699657106E+04  0.95000000000E+03 0.  0.
<mgrwt>
<rscale>  0 0.21336345E+04</rscale>
<asrwt>0</asrwt>
<pdfrwt beam="1">  1        2 0.10770582E+00 0.21336345E+04</pdfrwt>
<pdfrwt beam="2">  1       -2 0.25010028E+00 0.21336345E+04</pdfrwt>
<totfact> 0.24154741E+00</totfact>
</mgrwt>
</event>
<event>
 4    1  0.1321115E-008  0.2652067E+04  0.7816531E-02  0.8350727E-01
         -2   -1    0    0    0  501 -0.00000000000E+00  0.00000000000E+00  0.74609858176E+03  0.74609858176E+03  0.00000000000E+00 0. -1.
          2   -1    0    0  501    0  0.00000000000E+00 -0.00000000000E+00 -0.23567452797E+04  0.23567452797E+04  0.00000000000E+00 0.  1.
    2000013    1    1    2    0    0  0.90548902121E+03 -0.34997261951E+02 -0.58729022441E+03  0.14382437149E+04  0.95000000000E+03 0.  0.
   -2000013    1    1    2    0    0 -0.90548902121E+03  0.34997261951E+02 -0.10233564735E+04  0.16646001465E+04  0.95000000000E+03 0.  0.
<mgrwt>
<rscale>  0 0.26520666E+04</rscale>
<asrwt>0</asrwt>
<pdfrwt beam="2">  1        2 0.36257620E+00 0.26520666E+04</pdfrwt>
<pdfrwt beam="1">  1       -2 0.11478440E+00 0.26520666E+04</pdfrwt>
<totfact> 0.21953777E+00</totfact>
</mgrwt>
</event>
<event>
 4    1  0.1321115E-008  0.2780344E+04  0.7816531E-02  0.8309397E-01
         -2   -1    0    0    0  501 -0.00000000000E+00  0.00000000000E+00  0.51303320510E+03  0.51303320510E+03  0.00000000000E+00 0. -1.
          2   -1    0    0  501    0  0.00000000000E+00 -0.00000000000E+00 -0.37669657306E+04  0.37669657306E+04  0.00000000000E+00 0.  1.
    2000013    1    1    2    0    0  0.82029911677E+03 -0.19800727355E+03 -0.24950181100E+04  0.27999487300E+04  0.95000000000E+03 0.  0.
   -2000013    1    1    2    0    0 -0.82029911677E+03  0.19800727355E+03 -0.75891441549E+03  0.14800502057E+04  0.95000000000E+03 0.  0.
<mgrwt>
<rscale>  0 0.27803442E+04</rscale>
<asrwt>0</asrwt>
<pdfrwt beam="2">  1        2 0.57953319E+00 0.27803442E+04</pdfrwt>
<pdfrwt beam="1">  1       -2 0.78928185E-01 0.27803442E+04</pdfrwt>
<totfact> 0.64627190E-01</totfact>
</mgrwt>
</event>
<event>
 4    1  0.1321115E-008  0.2564868E+04  0.7816531E-02  0.8380233E-01
         -1   -1    0    0    0  501 -0.00000000000E+00  0.00000000000E+00  0.11633399855E+04  0.11633399855E+04  0.00000000000E+00 0.  1.
          1   -1    0    0  501    0  0.00000000000E+00 -0.00000000000E+00 -0.14137202654E+04  0.14137202654E+04  0.00000000000E+00 0. -1.
    2000013    1    1    2    0    0 -0.36683224978E+02  0.69477330501E+03  0.38524212621E+03  0.12389378920E+04  0.95000000000E+03 0.  0.
   -2000013    1    1    2    0    0  0.36683224978E+02 -0.69477330501E+03 -0.63562240605E+03  0.13381223589E+04  0.95000000000E+03 0.  0.
<mgrwt>
<rscale>  0 0.25648683E+04</rscale>
<asrwt>0</asrwt>
<pdfrwt beam="2">  1        1 0.21749542E+00 0.25648683E+04</pdfrwt>
<pdfrwt beam="1">  1       -1 0.17897538E+00 0.25648683E+04</pdfrwt>
<totfact> 0.14052430E+00</totfact>
</mgrwt>
</event>
<event>
 4    1  0.1321115E-008  0.3058842E+04  0.7816531E-02  0.8227125E-01
          2   -1    0    0  501    0  0.00000000000E+00  0.00000000000E+00  0.22846552998E+04  0.22846552998E+04  0.00000000000E+00 0.  1.
         -2   -1    0    0    0  501 -0.00000000000E+00 -0.00000000000E+00 -0.10238428738E+04  0.10238428738E+04  0.00000000000E+00 0. -1.
    2000013    1    1    2    0    0 -0.62738489551E+03 -0.98061911936E+03  0.32180866883E+03  0.15366478073E+04  0.95000000000E+03 0.  0.
   -2000013    1    1    2    0    0  0.62738489551E+03  0.98061911936E+03  0.93900375715E+03  0.17718503662E+04  0.95000000000E+03 0.  0.
<mgrwt>
<rscale>  0 0.30588416E+04</rscale>
<asrwt>0</asrwt>
<pdfrwt beam="1">  1        2 0.35148543E+00 0.30588416E+04</pdfrwt>
<pdfrwt beam="2">  1       -2 0.15751429E+00 0.30588416E+04</pdfrwt>
<totfact> 0.10356329E+00</totfact>
</mgrwt>
</event>
<event>
 4    1  0.1321115E-008  0.2104810E+04  0.7816531E-02  0.8559127E-01
         -2   -1    0    0    0  501 -0.00000000000E+00  0.00000000000E+00  0.49024634653E+03  0.49024634653E+03  0.00000000000E+00 0. -1.
          2   -1    0    0  501    0  0.00000000000E+00 -0.00000000000E+00 -0.22591840249E+04  0.22591840249E+04  0.00000000000E+00 0.  1.
    2000013    1    1    2    0    0 -0.24678016441E+03 -0.30424801121E+03 -0.58777397148E+03  0.11838266526E+04  0.95000000000E+03 0.  0.
   -2000013    1    1    2    0    0  0.24678016441E+03  0.30424801121E+03 -0.11811637069E+04  0.15656037188E+04  0.95000000000E+03 0.  0.
<mgrwt>
<rscale>  0 0.21048104E+04</rscale>
<asrwt>0</asrwt>
<pdfrwt beam="2">  1        2 0.34756678E+00 0.21048104E+04</pdfrwt>
<pdfrwt beam="1">  1       -2 0.75422514E-01 0.21048104E+04</pdfrwt>
<totfact> 0.69462080E+00</totfact>
</mgrwt>
</event>
<event>
 4    1  0.1321115E-008  0.2733159E+04  0.7816531E-02  0.8324325E-01
          2   -1    0    0  501    0  0.00000000000E+00  0.00000000000E+00  0.14150565690E+04  0.14150565690E+04  0.00000000000E+00 0.  1.
         -2   -1    0    0    0  501 -0.00000000000E+00 -0.00000000000E+00 -0.13197634419E+04  0.13197634419E+04  0.00000000000E+00 0. -1.
    2000013    1    1    2    0    0 -0.44900918585E+03 -0.85266215195E+03  0.23854491151E+03  0.13740617414E+04  0.95000000000E+03 0.  0.
   -2000013    1    1    2    0    0  0.44900918585E+03  0.85266215195E+03 -0.14325178437E+03  0.13607582695E+04  0.95000000000E+03 0.  0.
<mgrwt>
<rscale>  0 0.27331593E+04</rscale>
<asrwt>0</asrwt>
<pdfrwt beam="1">  1        2 0.21770101E+00 0.27331593E+04</pdfrwt>
<pdfrwt beam="2">  1       -2 0.20304053E+00 0.27331593E+04</pdfrwt>
<totfact> 0.15769320E+00</totfact>
</mgrwt>
</event>
<event>
 4    1  0.1321115E-008  0.3215029E+04  0.7816531E-02  0.8184859E-01
          2   -1    0    0  501    0  0.00000000000E+00  0.00000000000E+00  0.10141013332E+04  0.10141013332E+04  0.00000000000E+00 0.  1.
         -2   -1    0    0    0  501 -0.00000000000E+00 -0.00000000000E+00 -0.25481697451E+04  0.25481697451E+04  0.00000000000E+00 0. -1.
    2000013    1    1    2    0    0 -0.93096609039E+03 -0.82729254086E+03 -0.36678242754E+03  0.16087697656E+04  0.95000000000E+03 0.  0.
   -2000013    1    1    2    0    0  0.93096609039E+03  0.82729254086E+03 -0.11672859843E+04  0.19535013127E+04  0.95000000000E+03 0.  0.
<mgrwt>
<rscale>  0 0.32150287E+04</rscale>
<asrwt>0</asrwt>
<pdfrwt beam="1">  1        2 0.15601559E+00 0.32150287E+04</pdfrwt>
<pdfrwt beam="2">  1       -2 0.39202611E+00 0.32150287E+04</pdfrwt>
<totfact> 0.17345676E-01</totfact>
</mgrwt>
</event>
<event>
 4    1  0.1321115E-008  0.2071557E+04  0.7816531E-02  0.8573877E-01
         -2   -1    0    0    0  501 -0.00000000000E+00  0.00000000000E+00  0.53631574130E+03  0.53631574130E+03  0.00000000000E+00 0. -1.
          2   -1    0    0  501    0  0.00000000000E+00 -0.00000000000E+00 -0.20003832911E+04  0.20003832911E+04  0.00000000000E+00 0.  1.
    2000013    1    1    2    0    0  0.34936670153E+03  0.10675598164E+03 -0.49686163653E+03  0.11326188316E+04  0.95000000000E+03 0.  0.
   -2000013    1    1    2    0    0 -0.34936670153E+03 -0.10675598164E+03 -0.96720591332E+03  0.14040802009E+04  0.95000000000E+03 0.  0.
<mgrwt>
<rscale>  0 0.20715569E+04</rscale>
<asrwt>0</asrwt>
<pdfrwt beam="2">  1        2 0.30775128E+00 0.20715569E+04</pdfrwt>
<pdfrwt beam="1">  1       -2 0.82510113E-01 0.20715569E+04</pdfrwt>
<totfact> 0.79510084E+00</totfact>
</mgrwt>
</event>
<event>
 4    1  0.1321115E-008  0.2602754E+04  0.7816531E-02  0.8367266E-01
          2   -1    0    0  501    0  0.00000000000E+00  0.00000000000E+00  0.29286275601E+04  0.29286275601E+04  0.00000000000E+00 0.  1.
         -2   -1    0    0    0  501 -0.00000000000E+00 -0.00000000000E+00 -0.57828544496E+03  0.57828544496E+03  0.00000000000E+00 0. -1.
    2000013    1    1    2    0    0  0.77724021901E+03 -0.28616730535E+03  0.16119579642E+04  0.20461922107E+04  0.95000000000E+03 0.  0.
   -2000013    1    1    2    0    0 -0.77724021901E+03  0.28616730535E+03  0.73838415088E+03  0.14607207943E+04  0.95000000000E+03 0.  0.
<mgrwt>
<rscale>  0 0.26027545E+04</rscale>
<asrwt>0</asrwt>
<pdfrwt beam="1">  1        2 0.45055808E+00 0.26027545E+04</pdfrwt>
<pdfrwt beam="2">  1       -2 0.88966993E-01 0.26027545E+04</pdfrwt>
<totfact> 0.18511559E+00</totfact>
</mgrwt>
</event>
<event>
 4    1  0.1321115E-008  0.2862508E+04  0.7816531E-02  0.8284121E-01
         -2   -1    0    0    0  501 -0.00000000000E+00  0.00000000000E+00  0.54441149022E+03  0.54441149022E+03  0.00000000000E+00 0. -1.
          2   -1    0    0  501    0  0.00000000000E+00 -0.00000000000E+00 -0.37627566802E+04  0.37627566802E+04  0.00000000000E+00 0.  1.
    2000013    1    1    2    0    0  0.16903038637E+03 -0.10065007685E+04 -0.11230576134E+04  0.17903556830E+04  0.95000000000E+03 0.  0.
   -2000013    1    1    2    0    0 -0.16903038637E+03  0.10065007685E+04 -0.20952875766E+04  0.25168124875E+04  0.95000000000E+03 0.  0.
<mgrwt>
<rscale>  0 0.28625080E+04</rscale>
<asrwt>0</asrwt>
<pdfrwt beam="2">  1        2 0.57888564E+00 0.28625080E+04</pdfrwt>
<pdfrwt beam="1">  1       -2 0.83755614E-01 0.28625080E+04</pdfrwt>
<totfact> 0.56524959E-01</totfact>
</mgrwt>
</event>
<event>
 4    1  0.1321115E-008  0.2106783E+04  0.7816531E-02  0.8558261E-01
         -2   -1    0    0    0  501 -0.00000000000E+00  0.00000000000E+00  0.80197959833E+03  0.80197959833E+03  0.00000000000E+00 0. -1.
          2   -1    0    0  501    0  0.00000000000E+00 -0.00000000000E+00 -0.13836182930E+04  0.13836182930E+04  0.00000000000E+00 0.  1.
    2000013    1    1    2    0    0  0.75685810837E+02 -0.27746116387E+03 -0.65674816395E+03  0.11901811586E+04  0.95000000000E+03 0.  0.
   -2000013    1    1    2    0    0 -0.75685810837E+02  0.27746116387E+03  0.75109469285E+02  0.99541673273E+03  0.95000000000E+03 0.  0.
<mgrwt>
<rscale>  0 0.21067830E+04</rscale>
<asrwt>0</asrwt>
<pdfrwt beam="2">  1        2 0.21286435E+00 0.21067830E+04</pdfrwt>
<pdfrwt beam="1">  1       -2 0.12338148E+00 0.21067830E+04</pdfrwt>
<totfact> 0.67485999E+00</totfact>
</mgrwt>
</event>
<event>
 4    1  0.1321115E-008  0.2845858E+04  0.7816531E-02  0.8289171E-01
         -2   -1    0    0    0  501 -0.00000000000E+00  0.00000000000E+00  0.95298077918E+03  0.95298077918E+03  0.00000000000E+00 0. -1.
          2   -1    0    0  501    0  0.00000000000E+00 -0.00000000000E+00 -0.21246255317E+04  0.21246255317E+04  0.00000000000E+00 0.  1.
    2000013    1    1    2    0    0  0.53840622898E+02 -0.54100696454E+03  0.39741412681E+03  0.11644850092E+04  0.95000000000E+03 0.  0.
   -2000013    1    1    2    0    0 -0.53840622898E+02  0.54100696454E+03 -0.15690588794E+04  0.19131213018E+04  0.95000000000E+03 0.  0.
<mgrwt>
<rscale>  0 0.28458582E+04</rscale>
<asrwt>0</asrwt>
<pdfrwt beam="2">  1        2 0.32686547E+00 0.28458582E+04</pdfrwt>
<pdfrwt beam="1">  1       -2 0.14661243E+00 0.28458582E+04</pdfrwt>
<totfact> 0.15706075E+00</totfact>
</mgrwt>
</event>
<event>
 4    1  0.1321115E-008  0.2464645E+04  0.7816531E-02  0.8415690E-01
         -2   -1    0    0    0  501 -0.00000000000E+00  0.00000000000E+00  0.61943249441E+03  0.61943249441E+03  0.00000000000E+00 0. -1.
          2   -1    0    0  501    0  0.00000000000E+00 -0.00000000000E+00 -0.24516298455E+04  0.24516298455E+04  0.00000000000E+00 0.  1.
    2000013    1    1    2    0    0 -0.10844977003E+03 -0.65246237125E+03 -0.38943114298E+03  0.12213210526E+04  0.95000000000E+03 0.  0.
   -2000013    1    1    2    0    0  0.10844977003E+03  0.65246237125E+03 -0.14427662081E+04  0.18497412873E+04  0.95000000000E+03 0.  0.
<mgrwt>
<rscale>  0 0.24646454E+04</rscale>
<asrwt>0</asrwt>
<pdfrwt beam="2">  1        2 0.37717383E+00 0.24646454E+04</pdfrwt>
<pdfrwt beam="1">  1       -2 0.95297306E-01 0.24646454E+04</pdfrwt>
<totfact> 0.30721349E+00</totfact>
</mgrwt>
</event>
<event>
 4    1  0.1321115E-008  0.2889218E+04  0.7816531E-02  0.8276093E-01
         -2   -1    0    0    0  501 -0.00000000000E+00  0.00000000000E+00  0.20109537916E+04  0.20109537916E+04  0.00000000000E+00 0. -1.
          2   -1    0    0  501    0  0.00000000000E+00 -0.00000000000E+00 -0.10377638481E+04  0.10377638481E+04  0.00000000000E+00 0.  1.
    2000013    1    1    2    0    0  0.64507336485E+03  0.61505509302E+03  0.11455557744E+04  0.17347075966E+04  0.95000000000E+03 0.  0.
   -2000013    1    1    2    0    0 -0.64507336485E+03 -0.61505509302E+03 -0.17236583089E+03  0.13140100430E+04  0.95000000000E+03 0.  0.
<mgrwt>
<rscale>  0 0.28892180E+04</rscale>
<asrwt>0</asrwt>
<pdfrwt beam="2">  1        2 0.15965598E+00 0.28892180E+04</pdfrwt>
<pdfrwt beam="1">  1       -2 0.30937751E+00 0.28892180E+04</pdfrwt>
<totfact> 0.57301164E-01</totfact>
</mgrwt>
</event>
<event>
 4    1  0.1321115E-008  0.3032307E+04  0.7816531E-02  0.8234565E-01
         -2   -1    0    0    0  501 -0.00000000000E+00  0.00000000000E+00  0.13598635474E+04  0.13598635474E+04  0.00000000000E+00 0. -1.
          2   -1    0    0  501    0  0.00000000000E+00 -0.00000000000E+00 -0.16904063557E+04  0.16904063557E+04  0.00000000000E+00 0.  1.
    2000013    1    1    2    0    0  0.97918275487E+03 -0.28431370448E+03 -0.76595935273E+03  0.15902285622E+04  0.95000000000E+03 0.  0.
   -2000013    1    1    2    0    0 -0.97918275487E+03  0.28431370448E+03  0.43541654436E+03  0.14600413409E+04  0.95000000000E+03 0.  0.
<mgrwt>
<rscale>  0 0.30323074E+04</rscale>
<asrwt>0</asrwt>
<pdfrwt beam="2">  1        2 0.26006252E+00 0.30323074E+04</pdfrwt>
<pdfrwt beam="1">  1       -2 0.20920978E+00 0.30323074E+04</pdfrwt>
<totfact> 0.98215428E-01</totfact>
</mgrwt>
</event>
<event>
 4    1  0.1321115E-008  0.3697176E+04  0.7816531E-02  0.8068588E-01
          2   -1    0    0  501    0  0.00000000000E+00  0.00000000000E+00  0.20545776643E+04  0.20545776643E+04  0.00000000000E+00 0.  1.
         -2   -1    0    0    0  501 -0.00000000000E+00 -0.00000000000E+00 -0.16632504440E+04  0.16632504440E+04  0.00000000000E+00 0. -1.
    2000013    1    1    2    0    0  0.15624516712E+04  0.11475794688E+03  0.44270356643E+03  0.18849167247E+04  0.95000000000E+03 0.  0.
   -2000013    1    1    2    0    0 -0.15624516712E+04 -0.11475794688E+03 -0.51376346154E+02  0.18329113836E+04  0.95000000000E+03 0.  0.
<mgrwt>
<rscale>  0 0.36971758E+04</rscale>
<asrwt>0</asrwt>
<pdfrwt beam="1">  1        2 0.31608887E+00 0.36971758E+04</pdfrwt>
<pdfrwt beam="2">  1       -2 0.25588468E+00 0.36971758E+04</pdfrwt>
<totfact> 0.29784680E-01</totfact>
</mgrwt>
</event>
<event>
 4    1  0.1321115E-008  0.2513202E+04  0.7816531E-02  0.8398297E-01
         -2   -1    0    0    0  501 -0.00000000000E+00  0.00000000000E+00  0.67981390737E+03  0.67981390737E+03  0.00000000000E+00 0. -1.
          2   -1    0    0  501    0  0.00000000000E+00 -0.00000000000E+00 -0.23227628880E+04  0.23227628880E+04  0.00000000000E+00 0.  1.
    2000013    1    1    2    0    0 -0.46550140212E+03  0.67812415843E+03 -0.82339540770E+03  0.15023394846E+04  0.95000000000E+03 0.  0.
   -2000013    1    1    2    0    0  0.46550140212E+03 -0.67812415843E+03 -0.81955357290E+03  0.15002373107E+04  0.95000000000E+03 0.  0.
<mgrwt>
<rscale>  0 0.25132024E+04</rscale>
<asrwt>0</asrwt>
<pdfrwt beam="2">  1        2 0.35734814E+00 0.25132024E+04</pdfrwt>
<pdfrwt beam="1">  1       -2 0.10458676E+00 0.25132024E+04</pdfrwt>
<totfact> 0.29088367E+00</totfact>
</mgrwt>
</event>
<event>
 4    1  0.1321115E-008  0.2879039E+04  0.7816531E-02  0.8279142E-01
         -2   -1    0    0    0  501 -0.00000000000E+00  0.00000000000E+00  0.11471953925E+04  0.11471953925E+04  0.00000000000E+00 0. -1.
          2   -1    0    0  501    0  0.00000000000E+00 -0.00000000000E+00 -0.18063321223E+04  0.18063321223E+04  0.00000000000E+00 0.  1.
    2000013    1    1    2    0    0  0.89396623546E+03  0.57851525873E+03 -0.52383615846E+03  0.15201183690E+04  0.95000000000E+03 0.  0.
   -2000013    1    1    2    0    0 -0.89396623546E+03 -0.57851525873E+03 -0.13530057137E+03  0.14334091458E+04  0.95000000000E+03 0.  0.
<mgrwt>
<rscale>  0 0.28790387E+04</rscale>
<asrwt>0</asrwt>
<pdfrwt beam="2">  1        2 0.27789725E+00 0.28790387E+04</pdfrwt>
<pdfrwt beam="1">  1       -2 0.17649160E+00 0.28790387E+04</pdfrwt>
<totfact> 0.14195231E+00</totfact>
</mgrwt>
</event>
<event>
 4    1  0.1321115E-008  0.2129046E+04  0.7816531E-02  0.8548555E-01
         -2   -1    0    0    0  501 -0.00000000000E+00  0.00000000000E+00  0.45111781845E+03  0.45111781845E+03  0.00000000000E+00 0. -1.
          2   -1    0    0  501    0  0.00000000000E+00 -0.00000000000E+00 -0.25120025146E+04  0.25120025146E+04  0.00000000000E+00 0.  1.
    2000013    1    1    2    0    0 -0.36154536520E+03  0.31619722860E+03 -0.10253560717E+04  0.14780226021E+04  0.95000000000E+03 0.  0.
   -2000013    1    1    2    0    0  0.36154536520E+03 -0.31619722860E+03 -0.10355286245E+04  0.14850977310E+04  0.95000000000E+03 0.  0.
<mgrwt>
<rscale>  0 0.21290459E+04</rscale>
<asrwt>0</asrwt>
<pdfrwt beam="2">  1        2 0.38646193E+00 0.21290459E+04</pdfrwt>
<pdfrwt beam="1">  1       -2 0.69402741E-01 0.21290459E+04</pdfrwt>
<totfact> 0.59668397E+00</totfact>
</mgrwt>
</event>
<event>
 4    1  0.1321115E-008  0.2416670E+04  0.7816531E-02  0.8433289E-01
         -2   -1    0    0    0  501 -0.00000000000E+00  0.00000000000E+00  0.12100407874E+04  0.12100407874E+04  0.00000000000E+00 0. -1.
          2   -1    0    0  501    0  0.00000000000E+00 -0.00000000000E+00 -0.12066317034E+04  0.12066317034E+04  0.00000000000E+00 0.  1.
    2000013    1    1    2    0    0 -0.63719902327E+03  0.32499258822E+03  0.21601947446E+03  0.12086385692E+04  0.95000000000E+03 0.  0.
   -2000013    1    1    2    0    0  0.63719902327E+03 -0.32499258822E+03 -0.21261039048E+03  0.12080339216E+04  0.95000000000E+03 0.  0.
<mgrwt>
<rscale>  0 0.24166701E+04</rscale>
<asrwt>0</asrwt>
<pdfrwt beam="2">  1        2 0.18563565E+00 0.24166701E+04</pdfrwt>
<pdfrwt beam="1">  1       -2 0.18616012E+00 0.24166701E+04</pdfrwt>
<totfact> 0.27731238E+00</totfact>
</mgrwt>
</event>
<event>
 4    1  0.1321115E-008  0.1982107E+04  0.7816531E-02  0.8615032E-01
          2   -1    0    0  501    0  0.00000000000E+00  0.00000000000E+00  0.90880397942E+03  0.90880397942E+03  0.00000000000E+00 0.  1.
         -2   -1    0    0    0  501 -0.00000000000E+00 -0.00000000000E+00 -0.10807469149E+04  0.10807469149E+04  0.00000000000E+00 0. -1.
    2000013    1    1    2    0    0 -0.11092773999E+02  0.27975885782E+03 -0.12214886715E+03  0.99790200616E+03  0.95000000000E+03 0.  0.
   -2000013    1    1    2    0    0  0.11092773999E+02 -0.27975885782E+03 -0.49794068345E+02  0.99164888817E+03  0.95000000000E+03 0.  0.
<mgrwt>
<rscale>  0 0.19821071E+04</rscale>
<asrwt>0</asrwt>
<pdfrwt beam="1">  1        2 0.13981600E+00 0.19821071E+04</pdfrwt>
<pdfrwt beam="2">  1       -2 0.16626876E+00 0.19821071E+04</pdfrwt>
<totfact> 0.60978735E+00</totfact>
</mgrwt>
</event>
<event>
 4    1  0.1321115E-008  0.2215229E+04  0.7816531E-02  0.8512116E-01
          2   -1    0    0  501    0  0.00000000000E+00  0.00000000000E+00  0.38758152823E+04  0.38758152823E+04  0.00000000000E+00 0.  1.
         -2   -1    0    0    0  501 -0.00000000000E+00 -0.00000000000E+00 -0.31652948376E+03  0.31652948376E+03  0.00000000000E+00 0. -1.
    2000013    1    1    2    0    0  0.37399682552E+03 -0.42334795779E+03  0.19162802368E+04  0.22121769967E+04  0.95000000000E+03 0.  0.
   -2000013    1    1    2    0    0 -0.37399682552E+03  0.42334795779E+03  0.16430055618E+04  0.19801677694E+04  0.95000000000E+03 0.  0.
<mgrwt>
<rscale>  0 0.22152289E+04</rscale>
<asrwt>0</asrwt>
<pdfrwt beam="1">  1        2 0.59627924E+00 0.22152289E+04</pdfrwt>
<pdfrwt beam="2">  1       -2 0.48696846E-01 0.22152289E+04</pdfrwt>
<totfact> 0.15746136E+00</totfact>
</mgrwt>
</event>
<event>
 4    1  0.1321115E-008  0.2392160E+04  0.7816531E-02  0.8442444E-01
         -2   -1    0    0    0  501 -0.00000000000E+00  0.00000000000E+00  0.12924210941E+04  0.12924210941E+04  0.00000000000E+00 0.  1.
          2   -1    0    0  501    0  0.00000000000E+00 -0.00000000000E+00 -0.11069207307E+04  0.11069207307E+04  0.00000000000E+00 0. -1.
    2000013    1    1    2    0    0 -0.55548177328E+03 -0.55228319280E+02 -0.37393963721E+03  0.11635897129E+04  0.95000000000E+03 0.  0.
   -2000013    1    1    2    0    0  0.55548177328E+03  0.55228319280E+02  0.55944000057E+03  0.12357521118E+04  0.95000000000E+03 0.  0.
<mgrwt>
<rscale>  0 0.23921603E+04</rscale>
<asrwt>0</asrwt>
<pdfrwt beam="2">  1        2 0.17029550E+00 0.23921603E+04</pdfrwt>
<pdfrwt beam="1">  1       -2 0.19883402E+00 0.23921603E+04</pdfrwt>
<totfact> 0.26274587E+00</totfact>
</mgrwt>
</event>
<event>
 4    1  0.1321115E-008  0.3171884E+04  0.7816531E-02  0.8196282E-01
          1   -1    0    0  501    0  0.00000000000E+00  0.00000000000E+00  0.14741936845E+04  0.14741936845E+04  0.00000000000E+00 0.  1.
         -1   -1    0    0    0  501 -0.00000000000E+00 -0.00000000000E+00 -0.17061607236E+04  0.17061607236E+04  0.00000000000E+00 0. -1.
    2000013    1    1    2    0    0  0.83388564257E+03 -0.41985467822E+03 -0.97913566359E+03  0.16531333471E+04  0.95000000000E+03 0.  0.
   -2000013    1    1    2    0    0 -0.83388564257E+03  0.41985467822E+03  0.74716862441E+03  0.15272210610E+04  0.95000000000E+03 0.  0.
<mgrwt>
<rscale>  0 0.31718836E+04</rscale>
<asrwt>0</asrwt>
<pdfrwt beam="1">  1        1 0.22679903E+00 0.31718836E+04</pdfrwt>
<pdfrwt beam="2">  1       -1 0.26248627E+00 0.31718836E+04</pdfrwt>
<totfact> 0.33052468E-01</totfact>
</mgrwt>
</event>
<event>
 4    1  0.1321115E-008  0.2525102E+04  0.7816531E-02  0.8394097E-01
         -2   -1    0    0    0  501 -0.00000000000E+00  0.00000000000E+00  0.39550714943E+03  0.39550714943E+03  0.00000000000E+00 0. -1.
          2   -1    0    0  501    0  0.00000000000E+00 -0.00000000000E+00 -0.40303570458E+04  0.40303570458E+04  0.00000000000E+00 0.  1.
    2000013    1    1    2    0    0  0.64374455315E+03  0.12979610482E+03 -0.92321324839E+03  0.14785387315E+04  0.95000000000E+03 0.  0.
   -2000013    1    1    2    0    0 -0.64374455315E+03 -0.12979610482E+03 -0.27116366480E+04  0.29473254637E+04  0.95000000000E+03 0.  0.
<mgrwt>
<rscale>  0 0.25251020E+04</rscale>
<asrwt>0</asrwt>
<pdfrwt beam="2">  1        2 0.62005492E+00 0.25251020E+04</pdfrwt>
<pdfrwt beam="1">  1       -2 0.60847255E-01 0.25251020E+04</pdfrwt>
<totfact> 0.72558638E-01</totfact>
</mgrwt>
</event>
<event>
 4    1  0.1321115E-008  0.3115458E+04  0.7816531E-02  0.8211508E-01
         -2   -1    0    0    0  501 -0.00000000000E+00  0.00000000000E+00  0.15927495273E+04  0.15927495273E+04  0.00000000000E+00 0. -1.
          2   -1    0    0  501    0  0.00000000000E+00 -0.00000000000E+00 -0.15234784257E+04  0.15234784257E+04  0.00000000000E+00 0.  1.
    2000013    1    1    2    0    0  0.11403882215E+04 -0.22464640659E+03  0.45075308250E+03  0.15673639160E+04  0.95000000000E+03 0.  0.
   -2000013    1    1    2    0    0 -0.11403882215E+04  0.22464640659E+03 -0.38148198089E+03  0.15488640371E+04  0.95000000000E+03 0.  0.
<mgrwt>
<rscale>  0 0.31154579E+04</rscale>
<asrwt>0</asrwt>
<pdfrwt beam="2">  1        2 0.23438130E+00 0.31154579E+04</pdfrwt>
<pdfrwt beam="1">  1       -2 0.24503839E+00 0.31154579E+04</pdfrwt>
<totfact> 0.71985854E-01</totfact>
</mgrwt>
</event>
<event>
 4    1  0.1321115E-008  0.2660903E+04  0.7816531E-02  0.8347803E-01
         -2   -1    0    0    0  501 -0.00000000000E+00  0.00000000000E+00  0.95609175744E+03  0.95609175744E+03  0.00000000000E+00 0. -1.
          2   -1    0    0  501    0  0.00000000000E+00 -0.00000000000E+00 -0.18513928201E+04  0.18513928201E+04  0.00000000000E+00 0.  1.
    2000013    1    1    2    0    0  0.31419520500E+03 -0.83513235872E+03 -0.16565053854E+03  0.13138130706E+04  0.95000000000E+03 0.  0.
   -2000013    1    1    2    0    0 -0.31419520500E+03  0.83513235872E+03 -0.72965052410E+03  0.14936715070E+04  0.95000000000E+03 0.  0.
<mgrwt>
<rscale>  0 0.26609032E+04</rscale>
<asrwt>0</asrwt>
<pdfrwt beam="2">  1        2 0.28482966E+00 0.26609032E+04</pdfrwt>
<pdfrwt beam="1">  1       -2 0.14709104E+00 0.26609032E+04</pdfrwt>
<totfact> 0.22443521E+00</totfact>
</mgrwt>
</event>
<event>
 4    1  0.1321115E-008  0.3209769E+04  0.7816531E-02  0.8186242E-01
         -2   -1    0    0    0  501 -0.00000000000E+00  0.00000000000E+00  0.92267543502E+03  0.92267543502E+03  0.00000000000E+00 0.  1.
          2   -1    0    0  501    0  0.00000000000E+00 -0.00000000000E+00 -0.27915054029E+04  0.27915054029E+04  0.00000000000E+00 0. -1.
    2000013    1    1    2    0    0  0.11476389812E+04  0.11112492687E+03 -0.25599641674E+03  0.15157368327E+04  0.95000000000E+03 0.  0.
   -2000013    1    1    2    0    0 -0.11476389812E+04 -0.11112492687E+03 -0.16128335512E+04  0.21984440053E+04  0.95000000000E+03 0.  0.
<mgrwt>
<rscale>  0 0.32097685E+04</rscale>
<asrwt>0</asrwt>
<pdfrwt beam="2">  1        2 0.42946236E+00 0.32097685E+04</pdfrwt>
<pdfrwt beam="1">  1       -2 0.14195007E+00 0.32097685E+04</pdfrwt>
<totfact> 0.68174943E-01</totfact>
</mgrwt>
</event>
<event>
 4    1  0.1321115E-008  0.3031897E+04  0.7816531E-02  0.8234681E-01
          2   -1    0    0  501    0  0.00000000000E+00  0.00000000000E+00  0.20158270043E+04  0.20158270043E+04  0.00000000000E+00 0.  1.
         -2   -1    0    0    0  501 -0.00000000000E+00 -0.00000000000E+00 -0.11400286010E+04  0.11400286010E+04  0.00000000000E+00 0. -1.
    2000013    1    1    2    0    0 -0.25634584347E+03 -0.11482803568E+04  0.54873983776E+03  0.16086877816E+04  0.95000000000E+03 0.  0.
   -2000013    1    1    2    0    0  0.25634584347E+03  0.11482803568E+04  0.32705856556E+03  0.15471678237E+04  0.95000000000E+03 0.  0.
<mgrwt>
<rscale>  0 0.30318974E+04</rscale>
<asrwt>0</asrwt>
<pdfrwt beam="1">  1        2 0.31012723E+00 0.30318974E+04</pdfrwt>
<pdfrwt beam="2">  1       -2 0.17538902E+00 0.30318974E+04</pdfrwt>
<totfact> 0.10914578E+00</totfact>
</mgrwt>
</event>
<event>
 4    1  0.1321115E-008  0.2309464E+04  0.7816531E-02  0.8474199E-01
         -2   -1    0    0    0  501 -0.00000000000E+00  0.00000000000E+00  0.60276986064E+03  0.60276986064E+03  0.00000000000E+00 0. -1.
          2   -1    0    0  501    0  0.00000000000E+00 -0.00000000000E+00 -0.22121303132E+04  0.22121303132E+04  0.00000000000E+00 0.  1.
    2000013    1    1    2    0    0 -0.34381788092E+03  0.43528629114E+03 -0.37682826570E+03  0.11628346539E+04  0.95000000000E+03 0.  0.
   -2000013    1    1    2    0    0  0.34381788092E+03 -0.43528629114E+03 -0.12325321869E+04  0.16520655199E+04  0.95000000000E+03 0.  0.
<mgrwt>
<rscale>  0 0.23094636E+04</rscale>
<asrwt>0</asrwt>
<pdfrwt beam="2">  1        2 0.34032773E+00 0.23094636E+04</pdfrwt>
<pdfrwt beam="1">  1       -2 0.92733827E-01 0.23094636E+04</pdfrwt>
<totfact> 0.45398848E+00</totfact>
</mgrwt>
</event>
<event>
 4    1  0.1321115E-008  0.4870499E+04  0.7816531E-02  0.7848800E-01
         -2   -1    0    0    0  501 -0.00000000000E+00  0.00000000000E+00  0.23908999002E+04  0.23908999002E+04  0.00000000000E+00 0. -1.
          2   -1    0    0  501    0  0.00000000000E+00 -0.00000000000E+00 -0.24804216748E+04  0.24804216748E+04  0.00000000000E+00 0.  1.
    2000013    1    1    2    0    0 -0.19517570780E+04 -0.17554930213E+03  0.10452702868E+04  0.24156289494E+04  0.95000000000E+03 0.  0.
   -2000013    1    1    2    0    0  0.19517570780E+04  0.17554930213E+03 -0.11347920613E+04  0.24556926256E+04  0.95000000000E+03 0.  0.
<mgrwt>
<rscale>  0 0.48704989E+04</rscale>
<asrwt>0</asrwt>
<pdfrwt beam="2">  1        2 0.38160333E+00 0.48704989E+04</pdfrwt>
<pdfrwt beam="1">  1       -2 0.36783075E+00 0.48704989E+04</pdfrwt>
<totfact> 0.31510500E-02</totfact>
</mgrwt>
</event>
<event>
 4    1  0.1321115E-008  0.2293169E+04  0.7816531E-02  0.8480619E-01
          2   -1    0    0  501    0  0.00000000000E+00  0.00000000000E+00  0.23157909803E+04  0.23157909803E+04  0.00000000000E+00 0.  1.
         -2   -1    0    0    0  501 -0.00000000000E+00 -0.00000000000E+00 -0.56769214629E+03  0.56769214629E+03  0.00000000000E+00 0. -1.
    2000013    1    1    2    0    0 -0.59974569899E+03  0.11804560341E+03  0.11208590532E+04  0.15913688087E+04  0.95000000000E+03 0.  0.
   -2000013    1    1    2    0    0  0.59974569899E+03 -0.11804560341E+03  0.62723978072E+03  0.12921143179E+04  0.95000000000E+03 0.  0.
<mgrwt>
<rscale>  0 0.22931693E+04</rscale>
<asrwt>0</asrwt>
<pdfrwt beam="1">  1        2 0.35627553E+00 0.22931693E+04</pdfrwt>
<pdfrwt beam="2">  1       -2 0.87337255E-01 0.22931693E+04</pdfrwt>
<totfact> 0.45614203E+00</totfact>
</mgrwt>
</event>
<event>
 4    1  0.1321115E-008  0.2210750E+04  0.7816531E-02  0.8513967E-01
         -2   -1    0    0    0  501 -0.00000000000E+00  0.00000000000E+00  0.11731703935E+04  0.11731703935E+04  0.00000000000E+00 0. -1.
          2   -1    0    0  501    0  0.00000000000E+00 -0.00000000000E+00 -0.10414972494E+04  0.10414972494E+04  0.00000000000E+00 0.  1.
    2000013    1    1    2    0    0  0.48270822023E+03 -0.49804089429E+02 -0.22427301862E+03  0.10900853453E+04  0.95000000000E+03 0.  0.
   -2000013    1    1    2    0    0 -0.48270822023E+03  0.49804089429E+02  0.35594616281E+03  0.11245822976E+04  0.95000000000E+03 0.  0.
<mgrwt>
<rscale>  0 0.22107499E+04</rscale>
<asrwt>0</asrwt>
<pdfrwt beam="2">  1        2 0.16023035E+00 0.22107499E+04</pdfrwt>
<pdfrwt beam="1">  1       -2 0.18048775E+00 0.22107499E+04</pdfrwt>
<totfact> 0.38935462E+00</totfact>
</mgrwt>
</event>
<event>
 4    1  0.1321115E-008  0.3221245E+04  0.7816531E-02  0.8183229E-01
          2   -1    0    0  501    0  0.00000000000E+00  0.00000000000E+00  0.10352157887E+04  0.10352157887E+04  0.00000000000E+00 0.  1.
         -2   -1    0    0    0  501 -0.00000000000E+00 -0.00000000000E+00 -0.25058590468E+04  0.25058590468E+04  0.00000000000E+00 0. -1.
    2000013    1    1    2    0    0 -0.12915736937E+04  0.13366241638E+03 -0.81741274599E+03  0.18046306672E+04  0.95000000000E+03 0.  0.
   -2000013    1    1    2    0    0  0.12915736937E+04 -0.13366241638E+03 -0.65323051212E+03  0.17364441683E+04  0.95000000000E+03 0.  0.
<mgrwt>
<rscale>  0 0.32212450E+04</rscale>
<asrwt>0</asrwt>
<pdfrwt beam="1">  1        2 0.15926397E+00 0.32212450E+04</pdfrwt>
<pdfrwt beam="2">  1       -2 0.38551677E+00 0.32212450E+04</pdfrwt>
<totfact> 0.18527816E-01</totfact>
</mgrwt>
</event>
<event>
 4    1  0.1321115E-008  0.2215113E+04  0.7816531E-02  0.8512164E-01
         -1   -1    0    0    0  501 -0.00000000000E+00  0.00000000000E+00  0.50879602321E+03  0.50879602321E+03  0.00000000000E+00 0. -1.
          1   -1    0    0  501    0  0.00000000000E+00 -0.00000000000E+00 -0.24109487225E+04  0.24109487225E+04  0.00000000000E+00 0.  1.
    2000013    1    1    2    0    0 -0.44501038132E+03  0.12847948613E+03 -0.13875252192E+04  0.17442096926E+04  0.95000000000E+03 0.  0.
   -2000013    1    1    2    0    0  0.44501038132E+03 -0.12847948613E+03 -0.51462748011E+03  0.11755350531E+04  0.95000000000E+03 0.  0.
<mgrwt>
<rscale>  0 0.22151127E+04</rscale>
<asrwt>0</asrwt>
<pdfrwt beam="2">  1        1 0.37091519E+00 0.22151127E+04</pdfrwt>
<pdfrwt beam="1">  1       -1 0.78276311E-01 0.22151127E+04</pdfrwt>
<totfact> 0.23225260E+00</totfact>
</mgrwt>
</event>
<event>
 4    1  0.1321115E-008  0.4535912E+04  0.7816531E-02  0.7904380E-01
          2   -1    0    0  501    0  0.00000000000E+00  0.00000000000E+00  0.45660048452E+04  0.45660048452E+04  0.00000000000E+00 0.  1.
         -2   -1    0    0    0  501 -0.00000000000E+00 -0.00000000000E+00 -0.11265043525E+04  0.11265043525E+04  0.00000000000E+00 0. -1.
    2000013    1    1    2    0    0 -0.15639250870E+04 -0.77946598160E+03  0.30874528333E+04  0.36726412692E+04  0.95000000000E+03 0.  0.
   -2000013    1    1    2    0    0  0.15639250870E+04  0.77946598160E+03  0.35204765935E+03  0.20198679285E+04  0.95000000000E+03 0.  0.
<mgrwt>
<rscale>  0 0.45359120E+04</rscale>
<asrwt>0</asrwt>
<pdfrwt beam="1">  1        2 0.70246227E+00 0.45359120E+04</pdfrwt>
<pdfrwt beam="2">  1       -2 0.17330836E+00 0.45359120E+04</pdfrwt>
<totfact> 0.15993040E-02</totfact>
</mgrwt>
</event>
<event>
 4    1  0.1321115E-008  0.4111140E+04  0.7816531E-02  0.7982494E-01
          2   -1    0    0  501    0  0.00000000000E+00  0.00000000000E+00  0.17853674440E+04  0.17853674440E+04  0.00000000000E+00 0.  1.
         -2   -1    0    0    0  501 -0.00000000000E+00 -0.00000000000E+00 -0.23666652447E+04  0.23666652447E+04  0.00000000000E+00 0. -1.
    2000013    1    1    2    0    0  0.10601190073E+04 -0.76198187673E+03  0.99416807191E+03  0.18961378761E+04  0.95000000000E+03 0.  0.
   -2000013    1    1    2    0    0 -0.10601190073E+04  0.76198187673E+03 -0.15754658726E+04  0.22558948126E+04  0.95000000000E+03 0.  0.
<mgrwt>
<rscale>  0 0.41111395E+04</rscale>
<asrwt>0</asrwt>
<pdfrwt beam="1">  1        2 0.27467192E+00 0.41111395E+04</pdfrwt>
<pdfrwt beam="2">  1       -2 0.36410234E+00 0.41111395E+04</pdfrwt>
<totfact> 0.87015973E-02</totfact>
</mgrwt>
</event>
<event>
 4    1  0.1321115E-008  0.2502517E+04  0.7816531E-02  0.8402089E-01
         -2   -1    0    0    0  501 -0.00000000000E+00  0.00000000000E+00  0.13103642671E+04  0.13103642671E+04  0.00000000000E+00 0. -1.
          2   -1    0    0  501    0  0.00000000000E+00 -0.00000000000E+00 -0.11948185323E+04  0.11948185323E+04  0.00000000000E+00 0.  1.
    2000013    1    1    2    0    0  0.47176302386E+03  0.62465125621E+03 -0.16696121532E+03  0.12422260624E+04  0.95000000000E+03 0.  0.
   -2000013    1    1    2    0    0 -0.47176302386E+03 -0.62465125621E+03  0.28250695011E+03  0.12629567370E+04  0.95000000000E+03 0.  0.
<mgrwt>
<rscale>  0 0.25025167E+04</rscale>
<asrwt>0</asrwt>
<pdfrwt beam="2">  1        2 0.18381824E+00 0.25025167E+04</pdfrwt>
<pdfrwt beam="1">  1       -2 0.20159450E+00 0.25025167E+04</pdfrwt>
<totfact> 0.22084870E+00</totfact>
</mgrwt>
</event>
<event>
 4    1  0.1321115E-008  0.2409544E+04  0.7816531E-02  0.8435939E-01
         -2   -1    0    0    0  501 -0.00000000000E+00  0.00000000000E+00  0.67509890968E+03  0.67509890968E+03  0.00000000000E+00 0. -1.
          2   -1    0    0  501    0  0.00000000000E+00 -0.00000000000E+00 -0.21500191177E+04  0.21500191177E+04  0.00000000000E+00 0.  1.
    2000013    1    1    2    0    0 -0.23534806246E+03  0.68964558328E+03 -0.58026243381E+03  0.13304902229E+04  0.95000000000E+03 0.  0.
   -2000013    1    1    2    0    0  0.23534806246E+03 -0.68964558328E+03 -0.89465777419E+03  0.14946278045E+04  0.95000000000E+03 0.  0.
<mgrwt>
<rscale>  0 0.24095440E+04</rscale>
<asrwt>0</asrwt>
<pdfrwt beam="2">  1        2 0.33077217E+00 0.24095440E+04</pdfrwt>
<pdfrwt beam="1">  1       -2 0.10386137E+00 0.24095440E+04</pdfrwt>
<totfact> 0.37345967E+00</totfact>
</mgrwt>
</event>
<event>
 4    1  0.1321115E-008  0.2613716E+04  0.7816531E-02  0.8363557E-01
         -2   -1    0    0    0  501 -0.00000000000E+00  0.00000000000E+00  0.14309364466E+04  0.14309364466E+04  0.00000000000E+00 0. -1.
          2   -1    0    0  501    0  0.00000000000E+00 -0.00000000000E+00 -0.11935388349E+04  0.11935388349E+04  0.00000000000E+00 0.  1.
    2000013    1    1    2    0    0 -0.32435649853E+03 -0.82707633483E+03  0.24616945917E+03  0.13237680327E+04  0.95000000000E+03 0.  0.
   -2000013    1    1    2    0    0  0.32435649853E+03  0.82707633483E+03 -0.87718474787E+01  0.13007072488E+04  0.95000000000E+03 0.  0.
<mgrwt>
<rscale>  0 0.26137163E+04</rscale>
<asrwt>0</asrwt>
<pdfrwt beam="2">  1        2 0.18362136E+00 0.26137163E+04</pdfrwt>
<pdfrwt beam="1">  1       -2 0.22014407E+00 0.26137163E+04</pdfrwt>
<totfact> 0.16652877E+00</totfact>
</mgrwt>
</event>
<event>
 4    1  0.1321115E-008  0.1949702E+04  0.7816531E-02  0.8630505E-01
         -2   -1    0    0    0  501 -0.00000000000E+00  0.00000000000E+00  0.79613856647E+03  0.79613856647E+03  0.00000000000E+00 0. -1.
          2   -1    0    0  501    0  0.00000000000E+00 -0.00000000000E+00 -0.11936791763E+04  0.11936791763E+04  0.00000000000E+00 0.  1.
    2000013    1    1    2    0    0 -0.65497142089E+02  0.16363901781E+03 -0.66620845264E+02  0.96850706801E+03  0.95000000000E+03 0.  0.
   -2000013    1    1    2    0    0  0.65497142089E+02 -0.16363901781E+03 -0.33091976456E+03  0.10213106747E+04  0.95000000000E+03 0.  0.
<mgrwt>
<rscale>  0 0.19497015E+04</rscale>
<asrwt>0</asrwt>
<pdfrwt beam="2">  1        2 0.18364295E+00 0.19497015E+04</pdfrwt>
<pdfrwt beam="1">  1       -2 0.12248286E+00 0.19497015E+04</pdfrwt>
<totfact> 0.89943788E+00</totfact>
</mgrwt>
</event>
<event>
 4    1  0.1321115E-008  0.2425899E+04  0.7816531E-02  0.8429871E-01
          2   -1    0    0  501    0  0.00000000000E+00  0.00000000000E+00  0.24097181666E+04  0.24097181666E+04  0.00000000000E+00 0.  1.
         -2   -1    0    0    0  501 -0.00000000000E+00 -0.00000000000E+00 -0.61054693265E+03  0.61054693265E+03  0.00000000000E+00 0. -1.
    2000013    1    1    2    0    0  0.59725615322E+03 -0.41390507150E+03  0.11507990037E+04  0.16597803071E+04  0.95000000000E+03 0.  0.
   -2000013    1    1    2    0    0 -0.59725615322E+03  0.41390507150E+03  0.64837223017E+03  0.13604847921E+04  0.95000000000E+03 0.  0.
<mgrwt>
<rscale>  0 0.24258986E+04</rscale>
<asrwt>0</asrwt>
<pdfrwt beam="1">  1        2 0.37072587E+00 0.24258986E+04</pdfrwt>
<pdfrwt beam="2">  1       -2 0.93930299E-01 0.24258986E+04</pdfrwt>
<totfact> 0.33698251E+00</totfact>
</mgrwt>
</event>
<event>
 4    1  0.1321115E-008  0.2162341E+04  0.7816531E-02  0.8534268E-01
          2   -1    0    0  501    0  0.00000000000E+00  0.00000000000E+00  0.17686301272E+04  0.17686301272E+04  0.00000000000E+00 0.  1.
         -2   -1    0    0    0  501 -0.00000000000E+00 -0.00000000000E+00 -0.66092396138E+03  0.66092396138E+03  0.00000000000E+00 0. -1.
    2000013    1    1    2    0    0  0.41374093070E+03  0.39685542918E+02  0.89773612622E+03  0.13715635794E+04  0.95000000000E+03 0.  0.
   -2000013    1    1    2    0    0 -0.41374093070E+03 -0.39685542918E+02  0.20997003965E+03  0.10579905092E+04  0.95000000000E+03 0.  0.
<mgrwt>
<rscale>  0 0.21623414E+04</rscale>
<asrwt>0</asrwt>
<pdfrwt beam="1">  1        2 0.27209694E+00 0.21623414E+04</pdfrwt>
<pdfrwt beam="2">  1       -2 0.10168061E+00 0.21623414E+04</pdfrwt>
<totfact> 0.65378562E+00</totfact>
</mgrwt>
</event>
<event>
 4    1  0.1321115E-008  0.3348865E+04  0.7816531E-02  0.8150572E-01
          2   -1    0    0  501    0  0.00000000000E+00  0.00000000000E+00  0.17233582631E+04  0.17233582631E+04  0.00000000000E+00 0.  1.
         -2   -1    0    0    0  501 -0.00000000000E+00 -0.00000000000E+00 -0.16268958366E+04  0.16268958366E+04  0.00000000000E+00 0. -1.
    2000013    1    1    2    0    0  0.10673209127E+04 -0.32418378107E+03 -0.76263277310E+03  0.16517801915E+04  0.95000000000E+03 0.  0.
   -2000013    1    1    2    0    0 -0.10673209127E+04  0.32418378107E+03  0.85909519964E+03  0.16984739081E+04  0.95000000000E+03 0.  0.
<mgrwt>
<rscale>  0 0.33488651E+04</rscale>
<asrwt>0</asrwt>
<pdfrwt beam="1">  1        2 0.26513204E+00 0.33488651E+04</pdfrwt>
<pdfrwt beam="2">  1       -2 0.25029167E+00 0.33488651E+04</pdfrwt>
<totfact> 0.50673147E-01</totfact>
</mgrwt>
</event>
<event>
 4    1  0.1321115E-008  0.3003357E+04  0.7816531E-02  0.8242773E-01
         -2   -1    0    0    0  501 -0.00000000000E+00  0.00000000000E+00  0.67441904357E+03  0.67441904357E+03  0.00000000000E+00 0. -1.
          2   -1    0    0  501    0  0.00000000000E+00 -0.00000000000E+00 -0.33436744532E+04  0.33436744532E+04  0.00000000000E+00 0.  1.
    2000013    1    1    2    0    0  0.37100276245E+03  0.10878383442E+04 -0.15720847463E+04  0.21667915826E+04  0.95000000000E+03 0.  0.
   -2000013    1    1    2    0    0 -0.37100276245E+03 -0.10878383442E+04 -0.10971706633E+04  0.18513019142E+04  0.95000000000E+03 0.  0.
<mgrwt>
<rscale>  0 0.30033566E+04</rscale>
<asrwt>0</asrwt>
<pdfrwt beam="2">  1        2 0.51441146E+00 0.30033566E+04</pdfrwt>
<pdfrwt beam="1">  1       -2 0.10375678E+00 0.30033566E+04</pdfrwt>
<totfact> 0.67343151E-01</totfact>
</mgrwt>
</event>
<event>
 4    1  0.1321115E-008  0.1960647E+04  0.7816531E-02  0.8625244E-01
          2   -1    0    0  501    0  0.00000000000E+00  0.00000000000E+00  0.12758244561E+04  0.12758244561E+04  0.00000000000E+00 0.  1.
         -2   -1    0    0    0  501 -0.00000000000E+00 -0.00000000000E+00 -0.75326547631E+03  0.75326547631E+03  0.00000000000E+00 0. -1.
    2000013    1    1    2    0    0  0.17742888788E+03 -0.90137774831E+02  0.40366377608E+03  0.10512137142E+04  0.95000000000E+03 0.  0.
   -2000013    1    1    2    0    0 -0.17742888788E+03  0.90137774831E+02  0.11889520368E+03  0.97787621822E+03  0.95000000000E+03 0.  0.
<mgrwt>
<rscale>  0 0.19606474E+04</rscale>
<asrwt>0</asrwt>
<pdfrwt beam="1">  1        2 0.19628068E+00 0.19606474E+04</pdfrwt>
<pdfrwt beam="2">  1       -2 0.11588700E+00 0.19606474E+04</pdfrwt>
<totfact> 0.92129125E+00</totfact>
</mgrwt>
</event>
<event>
 4    1  0.1321115E-008  0.2334989E+04  0.7816531E-02  0.8464252E-01
         -2   -1    0    0    0  501 -0.00000000000E+00  0.00000000000E+00  0.85010292718E+03  0.85010292718E+03  0.00000000000E+00 0. -1.
          2   -1    0    0  501    0  0.00000000000E+00 -0.00000000000E+00 -0.16033868232E+04  0.16033868232E+04  0.00000000000E+00 0.  1.
    2000013    1    1    2    0    0  0.86064715451E+02  0.64280677287E+03 -0.58662412559E+03  0.12912147564E+04  0.95000000000E+03 0.  0.
   -2000013    1    1    2    0    0 -0.86064715451E+02 -0.64280677287E+03 -0.16665977044E+03  0.11622749940E+04  0.95000000000E+03 0.  0.
<mgrwt>
<rscale>  0 0.23349894E+04</rscale>
<asrwt>0</asrwt>
<pdfrwt beam="2">  1        2 0.24667490E+00 0.23349894E+04</pdfrwt>
<pdfrwt beam="1">  1       -2 0.13078507E+00 0.23349894E+04</pdfrwt>
<totfact> 0.42940071E+00</totfact>
</mgrwt>
</event>
<event>
 4    1  0.1321115E-008  0.2347935E+04  0.7816531E-02  0.8459257E-01
          2   -1    0    0  501    0  0.00000000000E+00  0.00000000000E+00  0.13367479624E+04  0.13367479624E+04  0.00000000000E+00 0.  1.
         -2   -1    0    0    0  501 -0.00000000000E+00 -0.00000000000E+00 -0.10310091662E+04  0.10310091662E+04  0.00000000000E+00 0. -1.
    2000013    1    1    2    0    0  0.57888678254E+03  0.23834752093E+02 -0.22448406155E+03  0.11351524551E+04  0.95000000000E+03 0.  0.
   -2000013    1    1    2    0    0 -0.57888678254E+03 -0.23834752093E+02  0.53022285773E+03  0.12326046736E+04  0.95000000000E+03 0.  0.
<mgrwt>
<rscale>  0 0.23479348E+04</rscale>
<asrwt>0</asrwt>
<pdfrwt beam="1">  1        2 0.20565353E+00 0.23479348E+04</pdfrwt>
<pdfrwt beam="2">  1       -2 0.15861679E+00 0.23479348E+04</pdfrwt>
<totfact> 0.36659549E+00</totfact>
</mgrwt>
</event>
<event>
 4    1  0.1321115E-008  0.2556503E+04  0.7816531E-02  0.8383128E-01
         -2   -1    0    0    0  501 -0.00000000000E+00  0.00000000000E+00  0.17971887488E+04  0.17971887488E+04  0.00000000000E+00 0. -1.
          2   -1    0    0  501    0  0.00000000000E+00 -0.00000000000E+00 -0.90915726144E+03  0.90915726144E+03  0.00000000000E+00 0.  1.
    2000013    1    1    2    0    0  0.13926333056E+03  0.68904397066E+03 -0.71617968680E+02  0.11839784636E+04  0.95000000000E+03 0.  0.
   -2000013    1    1    2    0    0 -0.13926333056E+03 -0.68904397066E+03  0.95964945609E+03  0.15223675467E+04  0.95000000000E+03 0.  0.
<mgrwt>
<rscale>  0 0.25565032E+04</rscale>
<asrwt>0</asrwt>
<pdfrwt beam="2">  1        2 0.13987035E+00 0.25565032E+04</pdfrwt>
<pdfrwt beam="1">  1       -2 0.27649058E+00 0.25565032E+04</pdfrwt>
<totfact> 0.11352704E+00</totfact>
</mgrwt>
</event>
<event>
 4    1  0.1321115E-008  0.4539630E+04  0.7816531E-02  0.7903735E-01
          2   -1    0    0  501    0  0.00000000000E+00  0.00000000000E+00  0.31777904615E+04  0.31777904615E+04  0.00000000000E+00 0.  1.
         -2   -1    0    0    0  501 -0.00000000000E+00 -0.00000000000E+00 -0.16212713114E+04  0.16212713114E+04  0.00000000000E+00 0. -1.
    2000013    1    1    2    0    0 -0.15393610478E+04  0.13054755744E+04  0.33518759915E+03  0.22558257108E+04  0.95000000000E+03 0.  0.
   -2000013    1    1    2    0    0  0.15393610478E+04 -0.13054755744E+04  0.12213315510E+04  0.25432360622E+04  0.95000000000E+03 0.  0.
<mgrwt>
<rscale>  0 0.45396302E+04</rscale>
<asrwt>0</asrwt>
<pdfrwt beam="1">  1        2 0.48889084E+00 0.45396302E+04</pdfrwt>
<pdfrwt beam="2">  1       -2 0.24942636E+00 0.45396302E+04</pdfrwt>
<totfact> 0.65543437E-02</totfact>
</mgrwt>
</event>
<event>
 4    1  0.1321115E-008  0.1933501E+04  0.7816531E-02  0.8638358E-01
         -2   -1    0    0    0  501 -0.00000000000E+00  0.00000000000E+00  0.60897683066E+03  0.60897683066E+03  0.00000000000E+00 0. -1.
          2   -1    0    0  501    0  0.00000000000E+00 -0.00000000000E+00 -0.15347166921E+04  0.15347166921E+04  0.00000000000E+00 0.  1.
    2000013    1    1    2    0    0 -0.84093984006E+02 -0.13823791570E+03 -0.37752522406E+03  0.10349912146E+04  0.95000000000E+03 0.  0.
   -2000013    1    1    2    0    0  0.84093984006E+02  0.13823791570E+03 -0.54821463736E+03  0.11087023081E+04  0.95000000000E+03 0.  0.
<mgrwt>
<rscale>  0 0.19335014E+04</rscale>
<asrwt>0</asrwt>
<pdfrwt beam="2">  1        2 0.23611026E+00 0.19335014E+04</pdfrwt>
<pdfrwt beam="1">  1       -2 0.93688744E-01 0.19335014E+04</pdfrwt>
<totfact> 0.10912399E+01</totfact>
</mgrwt>
</event>
<event>
 4    1  0.1321115E-008  0.2395776E+04  0.7816531E-02  0.8441087E-01
          2   -1    0    0  501    0  0.00000000000E+00  0.00000000000E+00  0.13765818140E+04  0.13765818140E+04  0.00000000000E+00 0.  1.
         -2   -1    0    0    0  501 -0.00000000000E+00 -0.00000000000E+00 -0.10423906140E+04  0.10423906140E+04  0.00000000000E+00 0. -1.
    2000013    1    1    2    0    0 -0.19864857118E+03 -0.61008106382E+03 -0.18379733938E+03  0.11610088808E+04  0.95000000000E+03 0.  0.
   -2000013    1    1    2    0    0  0.19864857118E+03  0.61008106382E+03  0.51798853944E+03  0.12579635473E+04  0.95000000000E+03 0.  0.
<mgrwt>
<rscale>  0 0.23957763E+04</rscale>
<asrwt>0</asrwt>
<pdfrwt beam="1">  1        2 0.21178182E+00 0.23957763E+04</pdfrwt>
<pdfrwt beam="2">  1       -2 0.16036779E+00 0.23957763E+04</pdfrwt>
<totfact> 0.33613136E+00</totfact>
</mgrwt>
</event>
<event>
 4    1  0.1321115E-008  0.2476085E+04  0.7816531E-02  0.8411555E-01
         -2   -1    0    0    0  501 -0.00000000000E+00  0.00000000000E+00  0.61548938992E+03  0.61548938992E+03  0.00000000000E+00 0. -1.
          2   -1    0    0  501    0  0.00000000000E+00 -0.00000000000E+00 -0.24902933393E+04  0.24902933393E+04  0.00000000000E+00 0.  1.
    2000013    1    1    2    0    0  0.65833257467E+03  0.42660702760E+03 -0.78453128538E+03  0.14606110614E+04  0.95000000000E+03 0.  0.
   -2000013    1    1    2    0    0 -0.65833257467E+03 -0.42660702760E+03 -0.10902726640E+04  0.16451716679E+04  0.95000000000E+03 0.  0.
<mgrwt>
<rscale>  0 0.24760849E+04</rscale>
<asrwt>0</asrwt>
<pdfrwt beam="2">  1        2 0.38312206E+00 0.24760849E+04</pdfrwt>
<pdfrwt beam="1">  1       -2 0.94690674E-01 0.24760849E+04</pdfrwt>
<totfact> 0.29591567E+00</totfact>
</mgrwt>
</event>
<event>
 4    1  0.1321115E-008  0.3638882E+04  0.7816531E-02  0.8081643E-01
         -2   -1    0    0    0  501 -0.00000000000E+00  0.00000000000E+00  0.16032544989E+04  0.16032544989E+04  0.00000000000E+00 0. -1.
          2   -1    0    0  501    0  0.00000000000E+00 -0.00000000000E+00 -0.20647787984E+04  0.20647787984E+04  0.00000000000E+00 0.  1.
    2000013    1    1    2    0    0 -0.10518673159E+04  0.48417608790E+03  0.81047690099E+03  0.17030044455E+04  0.95000000000E+03 0.  0.
   -2000013    1    1    2    0    0  0.10518673159E+04 -0.48417608790E+03 -0.12720012005E+04  0.19650288518E+04  0.95000000000E+03 0.  0.
<mgrwt>
<rscale>  0 0.36388822E+04</rscale>
<asrwt>0</asrwt>
<pdfrwt beam="2">  1        2 0.31765828E+00 0.36388822E+04</pdfrwt>
<pdfrwt beam="1">  1       -2 0.24665454E+00 0.36388822E+04</pdfrwt>
<totfact> 0.33662139E-01</totfact>
</mgrwt>
</event>
<event>
 4    1  0.1321115E-008  0.2213861E+04  0.7816531E-02  0.8512681E-01
          2   -1    0    0  501    0  0.00000000000E+00  0.00000000000E+00  0.30770118430E+04  0.30770118430E+04  0.00000000000E+00 0.  1.
         -2   -1    0    0    0  501 -0.00000000000E+00 -0.00000000000E+00 -0.39820958865E+03  0.39820958865E+03  0.00000000000E+00 0. -1.
    2000013    1    1    2    0    0  0.45504331434E+03 -0.14653065313E+03  0.85745810762E+03  0.13661149500E+04  0.95000000000E+03 0.  0.
   -2000013    1    1    2    0    0 -0.45504331434E+03  0.14653065313E+03  0.18213441467E+04  0.21091064817E+04  0.95000000000E+03 0.  0.
<mgrwt>
<rscale>  0 0.22138614E+04</rscale>
<asrwt>0</asrwt>
<pdfrwt beam="1">  1        2 0.47338642E+00 0.22138614E+04</pdfrwt>
<pdfrwt beam="2">  1       -2 0.61263016E-01 0.22138614E+04</pdfrwt>
<totfact> 0.35265546E+00</totfact>
</mgrwt>
</event>
<event>
 4    1  0.1321115E-008  0.2022740E+04  0.7816531E-02  0.8596062E-01
         -2   -1    0    0    0  501 -0.00000000000E+00  0.00000000000E+00  0.24147653279E+03  0.24147653279E+03  0.00000000000E+00 0.  1.
          2   -1    0    0  501    0  0.00000000000E+00 -0.00000000000E+00 -0.42358944043E+04  0.42358944043E+04  0.00000000000E+00 0. -1.
    2000013    1    1    2    0    0  0.18404078344E+03 -0.23389046689E+03 -0.23918943572E+04  0.25907980192E+04  0.95000000000E+03 0.  0.
   -2000013    1    1    2    0    0 -0.18404078344E+03  0.23389046689E+03 -0.16025235143E+04  0.18865729178E+04  0.95000000000E+03 0.  0.
<mgrwt>
<rscale>  0 0.20227398E+04</rscale>
<asrwt>0</asrwt>
<pdfrwt beam="2">  1        2 0.65167599E+00 0.20227398E+04</pdfrwt>
<pdfrwt beam="1">  1       -2 0.37150240E-01 0.20227398E+04</pdfrwt>
<totfact> 0.13877773E+00</totfact>
</mgrwt>
</event>
<event>
 4    1  0.1321115E-008  0.2403640E+04  0.7816531E-02  0.8438142E-01
         -2   -1    0    0    0  501 -0.00000000000E+00  0.00000000000E+00  0.14403099046E+04  0.14403099046E+04  0.00000000000E+00 0. -1.
          2   -1    0    0  501    0  0.00000000000E+00 -0.00000000000E+00 -0.10028195467E+04  0.10028195467E+04  0.00000000000E+00 0.  1.
    2000013    1    1    2    0    0  0.28715583033E+03 -0.64443922405E+03  0.52695467187E+01  0.11833377170E+04  0.95000000000E+03 0.  0.
   -2000013    1    1    2    0    0 -0.28715583033E+03  0.64443922405E+03  0.43222081118E+03  0.12597917344E+04  0.95000000000E+03 0.  0.
<mgrwt>
<rscale>  0 0.24036397E+04</rscale>
<asrwt>0</asrwt>
<pdfrwt beam="2">  1        2 0.15427993E+00 0.24036397E+04</pdfrwt>
<pdfrwt beam="1">  1       -2 0.22158614E+00 0.24036397E+04</pdfrwt>
<totfact> 0.21772771E+00</totfact>
</mgrwt>
</event>
<event>
 4    1  0.1321115E-008  0.2069873E+04  0.7816531E-02  0.8574632E-01
         -2   -1    0    0    0  501 -0.00000000000E+00  0.00000000000E+00  0.48991958139E+03  0.48991958139E+03  0.00000000000E+00 0. -1.
          2   -1    0    0  501    0  0.00000000000E+00 -0.00000000000E+00 -0.21862644359E+04  0.21862644359E+04  0.00000000000E+00 0.  1.
    2000013    1    1    2    0    0  0.39085132728E+03 -0.11588916855E+03 -0.91149521161E+03  0.13782302348E+04  0.95000000000E+03 0.  0.
   -2000013    1    1    2    0    0 -0.39085132728E+03  0.11588916855E+03 -0.78484964291E+03  0.12979537825E+04  0.95000000000E+03 0.  0.
<mgrwt>
<rscale>  0 0.20698732E+04</rscale>
<asrwt>0</asrwt>
<pdfrwt beam="2">  1        2 0.33634837E+00 0.20698732E+04</pdfrwt>
<pdfrwt beam="1">  1       -2 0.75372243E-01 0.20698732E+04</pdfrwt>
<totfact> 0.76690669E+00</totfact>
</mgrwt>
</event>
<event>
 4    1  0.1321115E-008  0.3004582E+04  0.7816531E-02  0.8242424E-01
         -2   -1    0    0    0  501 -0.00000000000E+00  0.00000000000E+00  0.13192676077E+04  0.13192676077E+04  0.00000000000E+00 0. -1.
          2   -1    0    0  501    0  0.00000000000E+00 -0.00000000000E+00 -0.17107050002E+04  0.17107050002E+04  0.00000000000E+00 0.  1.
    2000013    1    1    2    0    0 -0.10301522219E+04  0.40746004780E+03  0.16386209638E+03  0.14685326273E+04  0.95000000000E+03 0.  0.
   -2000013    1    1    2    0    0  0.10301522219E+04 -0.40746004780E+03 -0.55529948881E+03  0.15614399806E+04  0.95000000000E+03 0.  0.
<mgrwt>
<rscale>  0 0.30045816E+04</rscale>
<asrwt>0</asrwt>
<pdfrwt beam="2">  1        2 0.26318538E+00 0.30045816E+04</pdfrwt>
<pdfrwt beam="1">  1       -2 0.20296425E+00 0.30045816E+04</pdfrwt>
<totfact> 0.10528726E+00</totfact>
</mgrwt>
</event>
<event>
 4    1  0.1321115E-008  0.2381577E+04  0.7816531E-02  0.8446433E-01
          2   -1    0    0  501    0  0.00000000000E+00  0.00000000000E+00  0.18394165185E+04  0.18394165185E+04  0.00000000000E+00 0.  1.
         -2   -1    0    0    0  501 -0.00000000000E+00 -0.00000000000E+00 -0.77088455363E+03  0.77088455363E+03  0.00000000000E+00 0. -1.
    2000013    1    1    2    0    0  0.56290838102E+03 -0.44564048816E+03  0.53871699367E+03  0.13069725664E+04  0.95000000000E+03 0.  0.
   -2000013    1    1    2    0    0 -0.56290838102E+03  0.44564048816E+03  0.52981497123E+03  0.13033285057E+04  0.95000000000E+03 0.  0.
<mgrwt>
<rscale>  0 0.23815774E+04</rscale>
<asrwt>0</asrwt>
<pdfrwt beam="1">  1        2 0.28298715E+00 0.23815774E+04</pdfrwt>
<pdfrwt beam="2">  1       -2 0.11859762E+00 0.23815774E+04</pdfrwt>
<totfact> 0.40401948E+00</totfact>
</mgrwt>
</event>
<event>
 4    1  0.1321115E-008  0.2274553E+04  0.7816531E-02  0.8488023E-01
         -2   -1    0    0    0  501 -0.00000000000E+00  0.00000000000E+00  0.76223360496E+03  0.76223360496E+03  0.00000000000E+00 0. -1.
          2   -1    0    0  501    0  0.00000000000E+00 -0.00000000000E+00 -0.16968519994E+04  0.16968519994E+04  0.00000000000E+00 0.  1.
    2000013    1    1    2    0    0  0.62114303419E+03  0.35906836309E+02 -0.53386363077E+03  0.12548379760E+04  0.95000000000E+03 0.  0.
   -2000013    1    1    2    0    0 -0.62114303419E+03 -0.35906836309E+02 -0.40075476371E+03  0.12042476284E+04  0.95000000000E+03 0.  0.
<mgrwt>
<rscale>  0 0.22745528E+04</rscale>
<asrwt>0</asrwt>
<pdfrwt beam="2">  1        2 0.26105415E+00 0.22745528E+04</pdfrwt>
<pdfrwt beam="1">  1       -2 0.11726671E+00 0.22745528E+04</pdfrwt>
<totfact> 0.50291161E+00</totfact>
</mgrwt>
</event>
<event>
 4    1  0.1321115E-008  0.2403050E+04  0.7816531E-02  0.8438363E-01
          2   -1    0    0  501    0  0.00000000000E+00  0.00000000000E+00  0.78427987271E+03  0.78427987271E+03  0.00000000000E+00 0.  1.
         -2   -1    0    0    0  501 -0.00000000000E+00 -0.00000000000E+00 -0.18407488623E+04  0.18407488623E+04  0.00000000000E+00 0. -1.
    2000013    1    1    2    0    0  0.21617121505E+03  0.27524629297E+03 -0.12350533053E+04  0.15969806458E+04  0.95000000000E+03 0.  0.
   -2000013    1    1    2    0    0 -0.21617121505E+03 -0.27524629297E+03  0.17858431571E+03  0.10280480893E+04  0.95000000000E+03 0.  0.
<mgrwt>
<rscale>  0 0.24030500E+04</rscale>
<asrwt>0</asrwt>
<pdfrwt beam="1">  1        2 0.12065844E+00 0.24030500E+04</pdfrwt>
<pdfrwt beam="2">  1       -2 0.28319213E+00 0.24030500E+04</pdfrwt>
<totfact> 0.12803542E+00</totfact>
</mgrwt>
</event>
<event>
 4    1  0.1321115E-008  0.2420906E+04  0.7816531E-02  0.8431718E-01
         -2   -1    0    0    0  501 -0.00000000000E+00  0.00000000000E+00  0.17631025225E+04  0.17631025225E+04  0.00000000000E+00 0. -1.
          2   -1    0    0  501    0  0.00000000000E+00 -0.00000000000E+00 -0.83103284055E+03  0.83103284055E+03  0.00000000000E+00 0.  1.
    2000013    1    1    2    0    0  0.60720761569E+03 -0.29910494446E+03  0.81248264672E+03  0.14215459569E+04  0.95000000000E+03 0.  0.
   -2000013    1    1    2    0    0 -0.60720761569E+03  0.29910494446E+03  0.11958703519E+03  0.11725894061E+04  0.95000000000E+03 0.  0.
<mgrwt>
<rscale>  0 0.24209057E+04</rscale>
<asrwt>0</asrwt>
<pdfrwt beam="2">  1        2 0.12785121E+00 0.24209057E+04</pdfrwt>
<pdfrwt beam="1">  1       -2 0.27124654E+00 0.24209057E+04</pdfrwt>
<totfact> 0.13992090E+00</totfact>
</mgrwt>
</event>
<event>
 4    1  0.1321115E-008  0.2299790E+04  0.7816531E-02  0.8478004E-01
         -2   -1    0    0    0  501 -0.00000000000E+00  0.00000000000E+00  0.48226339434E+03  0.48226339434E+03  0.00000000000E+00 0. -1.
          2   -1    0    0  501    0  0.00000000000E+00 -0.00000000000E+00 -0.27417764851E+04  0.27417764851E+04  0.00000000000E+00 0.  1.
    2000013    1    1    2    0    0  0.55677436916E+03  0.19418324896E+03 -0.75345146263E+03  0.13482929722E+04  0.95000000000E+03 0.  0.
   -2000013    1    1    2    0    0 -0.55677436916E+03 -0.19418324896E+03 -0.15060616281E+04  0.18757469073E+04  0.95000000000E+03 0.  0.
<mgrwt>
<rscale>  0 0.22997899E+04</rscale>
<asrwt>0</asrwt>
<pdfrwt beam="2">  1        2 0.42181177E+00 0.22997899E+04</pdfrwt>
<pdfrwt beam="1">  1       -2 0.74194368E-01 0.22997899E+04</pdfrwt>
<totfact> 0.37184108E+00</totfact>
</mgrwt>
</event>
<event>
 4    1  0.1321115E-008  0.2059611E+04  0.7816531E-02  0.8579247E-01
          2   -1    0    0  501    0  0.00000000000E+00  0.00000000000E+00  0.93044100088E+03  0.93044100088E+03  0.00000000000E+00 0.  1.
         -2   -1    0    0    0  501 -0.00000000000E+00 -0.00000000000E+00 -0.11397818952E+04  0.11397818952E+04  0.00000000000E+00 0. -1.
    2000013    1    1    2    0    0  0.24666483141E+03  0.26348200582E+03 -0.27206224066E+03  0.10520381026E+04  0.95000000000E+03 0.  0.
   -2000013    1    1    2    0    0 -0.24666483141E+03 -0.26348200582E+03  0.62721346339E+02  0.10181847935E+04  0.95000000000E+03 0.  0.
<mgrwt>
<rscale>  0 0.20596114E+04</rscale>
<asrwt>0</asrwt>
<pdfrwt beam="1">  1        2 0.14314477E+00 0.20596114E+04</pdfrwt>
<pdfrwt beam="2">  1       -2 0.17535106E+00 0.20596114E+04</pdfrwt>
<totfact> 0.50512612E+00</totfact>
</mgrwt>
</event>
<event>
 4    1  0.1321115E-008  0.2028269E+04  0.7816531E-02  0.8593517E-01
          2   -1    0    0  501    0  0.00000000000E+00  0.00000000000E+00  0.13301891359E+04  0.13301891359E+04  0.00000000000E+00 0.  1.
         -2   -1    0    0    0  501 -0.00000000000E+00 -0.00000000000E+00 -0.77317457722E+03  0.77317457722E+03  0.00000000000E+00 0. -1.
    2000013    1    1    2    0    0 -0.31016121306E+03 -0.57465465826E+02  0.44721478644E+03  0.10963591214E+04  0.95000000000E+03 0.  0.
   -2000013    1    1    2    0    0  0.31016121306E+03  0.57465465826E+02  0.10979977228E+03  0.10070045918E+04  0.95000000000E+03 0.  0.
<mgrwt>
<rscale>  0 0.20282686E+04</rscale>
<asrwt>0</asrwt>
<pdfrwt beam="1">  1        2 0.20464448E+00 0.20282686E+04</pdfrwt>
<pdfrwt beam="2">  1       -2 0.11894994E+00 0.20282686E+04</pdfrwt>
<totfact> 0.79881882E+00</totfact>
</mgrwt>
</event>
<event>
 4    1  0.1321115E-008  0.2402079E+04  0.7816531E-02  0.8438726E-01
          2   -1    0    0  501    0  0.00000000000E+00  0.00000000000E+00  0.97241741687E+03  0.97241741687E+03  0.00000000000E+00 0.  1.
         -2   -1    0    0    0  501 -0.00000000000E+00 -0.00000000000E+00 -0.14834121906E+04  0.14834121906E+04  0.00000000000E+00 0. -1.
    2000013    1    1    2    0    0  0.62111128628E+03  0.36461441153E+03 -0.10638118804E+03  0.11968875704E+04  0.95000000000E+03 0.  0.
   -2000013    1    1    2    0    0 -0.62111128628E+03 -0.36461441153E+03 -0.40461358573E+03  0.12589420371E+04  0.95000000000E+03 0.  0.
<mgrwt>
<rscale>  0 0.24020790E+04</rscale>
<asrwt>0</asrwt>
<pdfrwt beam="1">  1        2 0.14960268E+00 0.24020790E+04</pdfrwt>
<pdfrwt beam="2">  1       -2 0.22821726E+00 0.24020790E+04</pdfrwt>
<totfact> 0.20697259E+00</totfact>
</mgrwt>
</event>
<event>
 4    1  0.1321115E-008  0.2668489E+04  0.7816531E-02  0.8345302E-01
         -2   -1    0    0    0  501 -0.00000000000E+00  0.00000000000E+00  0.26466623697E+04  0.26466623697E+04  0.00000000000E+00 0. -1.
          2   -1    0    0  501    0  0.00000000000E+00 -0.00000000000E+00 -0.67262365581E+03  0.67262365581E+03  0.00000000000E+00 0.  1.
    2000013    1    1    2    0    0 -0.11614759557E+03 -0.68369814412E+03  0.20349750993E+03  0.11936685691E+04  0.95000000000E+03 0.  0.
   -2000013    1    1    2    0    0  0.11614759557E+03  0.68369814412E+03  0.17705412040E+04  0.21256174565E+04  0.95000000000E+03 0.  0.
<mgrwt>
<rscale>  0 0.26684885E+04</rscale>
<asrwt>0</asrwt>
<pdfrwt beam="2">  1        2 0.10348056E+00 0.26684885E+04</pdfrwt>
<pdfrwt beam="1">  1       -2 0.40717882E+00 0.26684885E+04</pdfrwt>
<totfact> 0.25233025E-01</totfact>
</mgrwt>
</event>
<event>
 4    1  0.1321115E-008  0.2829415E+04  0.7816531E-02  0.8294194E-01
         -2   -1    0    0    0  501 -0.00000000000E+00  0.00000000000E+00  0.84742979869E+03  0.84742979869E+03  0.00000000000E+00 0. -1.
          2   -1    0    0  501    0  0.00000000000E+00 -0.00000000000E+00 -0.23617259266E+04  0.23617259266E+04  0.00000000000E+00 0.  1.
    2000013    1    1    2    0    0 -0.10349370897E+04  0.94995601999E+02 -0.91257226594E+03  0.16779174844E+04  0.95000000000E+03 0.  0.
   -2000013    1    1    2    0    0  0.10349370897E+04 -0.94995601999E+02 -0.60172386193E+03  0.15312382408E+04  0.95000000000E+03 0.  0.
<mgrwt>
<rscale>  0 0.28294147E+04</rscale>
<asrwt>0</asrwt>
<pdfrwt beam="2">  1        2 0.36334245E+00 0.28294147E+04</pdfrwt>
<pdfrwt beam="1">  1       -2 0.13037382E+00 0.28294147E+04</pdfrwt>
<totfact> 0.15646401E+00</totfact>
</mgrwt>
</event>
<event>
 4    1  0.1321115E-008  0.2610532E+04  0.7816531E-02  0.8364632E-01
          2   -1    0    0  501    0  0.00000000000E+00  0.00000000000E+00  0.92793852224E+03  0.92793852224E+03  0.00000000000E+00 0.  1.
         -2   -1    0    0    0  501 -0.00000000000E+00 -0.00000000000E+00 -0.18360266204E+04  0.18360266204E+04  0.00000000000E+00 0. -1.
    2000013    1    1    2    0    0  0.72740576720E+03 -0.16940687724E+03  0.68310688771E+02  0.12103653128E+04  0.95000000000E+03 0.  0.
   -2000013    1    1    2    0    0 -0.72740576720E+03  0.16940687724E+03 -0.97639878695E+03  0.15535998299E+04  0.95000000000E+03 0.  0.
<mgrwt>
<rscale>  0 0.26105324E+04</rscale>
<asrwt>0</asrwt>
<pdfrwt beam="1">  1        2 0.14275977E+00 0.26105324E+04</pdfrwt>
<pdfrwt beam="2">  1       -2 0.28246563E+00 0.26105324E+04</pdfrwt>
<totfact> 0.10095404E+00</totfact>
</mgrwt>
</event>
<event>
 4    1  0.1321115E-008  0.2392535E+04  0.7816531E-02  0.8442304E-01
          2   -1    0    0  501    0  0.00000000000E+00  0.00000000000E+00  0.17405256514E+04  0.17405256514E+04  0.00000000000E+00 0.  1.
         -2   -1    0    0    0  501 -0.00000000000E+00 -0.00000000000E+00 -0.82219739794E+03  0.82219739794E+03  0.00000000000E+00 0. -1.
    2000013    1    1    2    0    0 -0.18087861163E+03  0.34077019812E+03 -0.20087832788E+03  0.10448413768E+04  0.95000000000E+03 0.  0.
   -2000013    1    1    2    0    0  0.18087861163E+03 -0.34077019812E+03  0.11192065813E+04  0.15178816725E+04  0.95000000000E+03 0.  0.
<mgrwt>
<rscale>  0 0.23925348E+04</rscale>
<asrwt>0</asrwt>
<pdfrwt beam="1">  1        2 0.26777318E+00 0.23925348E+04</pdfrwt>
<pdfrwt beam="2">  1       -2 0.12649191E+00 0.23925348E+04</pdfrwt>
<totfact> 0.38992938E+00</totfact>
</mgrwt>
</event>
<event>
 4    1  0.1321115E-008  0.2428198E+04  0.7816531E-02  0.8429021E-01
          2   -1    0    0  501    0  0.00000000000E+00  0.00000000000E+00  0.76397647742E+03  0.76397647742E+03  0.00000000000E+00 0.  1.
         -2   -1    0    0    0  501 -0.00000000000E+00 -0.00000000000E+00 -0.19294271658E+04  0.19294271658E+04  0.00000000000E+00 0. -1.
    2000013    1    1    2    0    0 -0.58636605458E+03  0.45633085087E+03 -0.42793475486E+03  0.12797230754E+04  0.95000000000E+03 0.  0.
   -2000013    1    1    2    0    0  0.58636605458E+03 -0.45633085087E+03 -0.73751593348E+03  0.14136805677E+04  0.95000000000E+03 0.  0.
<mgrwt>
<rscale>  0 0.24281985E+04</rscale>
<asrwt>0</asrwt>
<pdfrwt beam="1">  1        2 0.11753484E+00 0.24281985E+04</pdfrwt>
<pdfrwt beam="2">  1       -2 0.29683495E+00 0.24281985E+04</pdfrwt>
<totfact> 0.10917134E+00</totfact>
</mgrwt>
</event>
<event>
 4    1  0.1321115E-008  0.2558606E+04  0.7816531E-02  0.8382399E-01
          2   -1    0    0  501    0  0.00000000000E+00  0.00000000000E+00  0.16564264559E+04  0.16564264559E+04  0.00000000000E+00 0.  1.
         -2   -1    0    0    0  501 -0.00000000000E+00 -0.00000000000E+00 -0.98804064389E+03  0.98804064389E+03  0.00000000000E+00 0. -1.
    2000013    1    1    2    0    0  0.40960370921E+03 -0.75192811859E+03  0.30241091775E+03  0.13142006914E+04  0.95000000000E+03 0.  0.
   -2000013    1    1    2    0    0 -0.40960370921E+03  0.75192811859E+03  0.36597489429E+03  0.13302664084E+04  0.95000000000E+03 0.  0.
<mgrwt>
<rscale>  0 0.25586064E+04</rscale>
<asrwt>0</asrwt>
<pdfrwt beam="1">  1        2 0.25483484E+00 0.25586064E+04</pdfrwt>
<pdfrwt beam="2">  1       -2 0.15200625E+00 0.25586064E+04</pdfrwt>
<totfact> 0.26626869E+00</totfact>
</mgrwt>
</event>
<event>
 4    1  0.1321115E-008  0.2736342E+04  0.7816531E-02  0.8323309E-01
         -2   -1    0    0    0  501 -0.00000000000E+00  0.00000000000E+00  0.15066658407E+04  0.15066658407E+04  0.00000000000E+00 0. -1.
          2   -1    0    0  501    0  0.00000000000E+00 -0.00000000000E+00 -0.12424070335E+04  0.12424070335E+04  0.00000000000E+00 0.  1.
    2000013    1    1    2    0    0 -0.86161344076E+02  0.91339546838E+03 -0.22685243195E+03  0.13400287627E+04  0.95000000000E+03 0.  0.
   -2000013    1    1    2    0    0  0.86161344076E+02 -0.91339546838E+03  0.49111123914E+03  0.14090441115E+04  0.95000000000E+03 0.  0.
<mgrwt>
<rscale>  0 0.27363423E+04</rscale>
<asrwt>0</asrwt>
<pdfrwt beam="2">  1        2 0.19113954E+00 0.27363423E+04</pdfrwt>
<pdfrwt beam="1">  1       -2 0.23179474E+00 0.27363423E+04</pdfrwt>
<totfact> 0.13024047E+00</totfact>
</mgrwt>
</event>
<event>
 4    1  0.1321115E-008  0.2338820E+04  0.7816531E-02  0.8462770E-01
         -2   -1    0    0    0  501 -0.00000000000E+00  0.00000000000E+00  0.98001274557E+03  0.98001274557E+03  0.00000000000E+00 0. -1.
          2   -1    0    0  501    0  0.00000000000E+00 -0.00000000000E+00 -0.13954096872E+04  0.13954096872E+04  0.00000000000E+00 0.  1.
    2000013    1    1    2    0    0 -0.34235561604E+01  0.57477843082E+03  0.16497360094E+03  0.11225409811E+04  0.95000000000E+03 0.  0.
   -2000013    1    1    2    0    0  0.34235561604E+01 -0.57477843082E+03 -0.58037054257E+03  0.12528814517E+04  0.95000000000E+03 0.  0.
<mgrwt>
<rscale>  0 0.23388196E+04</rscale>
<asrwt>0</asrwt>
<pdfrwt beam="2">  1        2 0.21467841E+00 0.23388196E+04</pdfrwt>
<pdfrwt beam="1">  1       -2 0.15077119E+00 0.23388196E+04</pdfrwt>
<totfact> 0.38894277E+00</totfact>
</mgrwt>
</event>
<event>
 4    1  0.1321115E-008  0.3347899E+04  0.7816531E-02  0.8150813E-01
         -2   -1    0    0    0  501 -0.00000000000E+00  0.00000000000E+00  0.17280322269E+04  0.17280322269E+04  0.00000000000E+00 0. -1.
          2   -1    0    0  501    0  0.00000000000E+00 -0.00000000000E+00 -0.16215589639E+04  0.16215589639E+04  0.00000000000E+00 0.  1.
    2000013    1    1    2    0    0  0.10849525145E+03  0.13531386590E+04  0.29179102322E+03  0.16823785101E+04  0.95000000000E+03 0.  0.
   -2000013    1    1    2    0    0 -0.10849525145E+03 -0.13531386590E+04 -0.18531776024E+03  0.16672126806E+04  0.95000000000E+03 0.  0.
<mgrwt>
<rscale>  0 0.33478985E+04</rscale>
<asrwt>0</asrwt>
<pdfrwt beam="2">  1        2 0.24947061E+00 0.33478985E+04</pdfrwt>
<pdfrwt beam="1">  1       -2 0.26585111E+00 0.33478985E+04</pdfrwt>
<totfact> 0.46365387E-01</totfact>
</mgrwt>
</event>
<event>
 4    1  0.1321115E-008  0.2647571E+04  0.7816531E-02  0.8352220E-01
         -2   -1    0    0    0  501 -0.00000000000E+00  0.00000000000E+00  0.14587218234E+04  0.14587218234E+04  0.00000000000E+00 0. -1.
          2   -1    0    0  501    0  0.00000000000E+00 -0.00000000000E+00 -0.12013309249E+04  0.12013309249E+04  0.00000000000E+00 0.  1.
    2000013    1    1    2    0    0  0.13090542871E+03 -0.90222289272E+03  0.26632761748E+03  0.13433438797E+04  0.95000000000E+03 0.  0.
   -2000013    1    1    2    0    0 -0.13090542871E+03  0.90222289272E+03 -0.89367189851E+01  0.13167088685E+04  0.95000000000E+03 0.  0.
<mgrwt>
<rscale>  0 0.26475707E+04</rscale>
<asrwt>0</asrwt>
<pdfrwt beam="2">  1        2 0.18482014E+00 0.26475707E+04</pdfrwt>
<pdfrwt beam="1">  1       -2 0.22441874E+00 0.26475707E+04</pdfrwt>
<totfact> 0.15438496E+00</totfact>
</mgrwt>
</event>
<event>
 4    1  0.1321115E-008  0.2226666E+04  0.7816531E-02  0.8507411E-01
         -1   -1    0    0    0  501 -0.00000000000E+00  0.00000000000E+00  0.91206236530E+03  0.91206236530E+03  0.00000000000E+00 0. -1.
          1   -1    0    0  501    0  0.00000000000E+00 -0.00000000000E+00 -0.13590188006E+04  0.13590188006E+04  0.00000000000E+00 0.  1.
    2000013    1    1    2    0    0 -0.34726100096E+03 -0.24015848976E+02  0.25037799802E+03  0.10422840811E+04  0.95000000000E+03 0.  0.
   -2000013    1    1    2    0    0  0.34726100096E+03  0.24015848976E+02 -0.69733443334E+03  0.12287970848E+04  0.95000000000E+03 0.  0.
<mgrwt>
<rscale>  0 0.22266656E+04</rscale>
<asrwt>0</asrwt>
<pdfrwt beam="2">  1        1 0.20907981E+00 0.22266656E+04</pdfrwt>
<pdfrwt beam="1">  1       -1 0.14031729E+00 0.22266656E+04</pdfrwt>
<totfact> 0.31125823E+00</totfact>
</mgrwt>
</event>
<event>
 4    1  0.1321115E-008  0.2039098E+04  0.7816531E-02  0.8588556E-01
          2   -1    0    0  501    0  0.00000000000E+00  0.00000000000E+00  0.33431904001E+04  0.33431904001E+04  0.00000000000E+00 0.  1.
         -2   -1    0    0    0  501 -0.00000000000E+00 -0.00000000000E+00 -0.31092450435E+03  0.31092450435E+03  0.00000000000E+00 0. -1.
    2000013    1    1    2    0    0 -0.20349328216E+03 -0.30914418459E+03  0.15168833367E+04  0.18276801416E+04  0.95000000000E+03 0.  0.
   -2000013    1    1    2    0    0  0.20349328216E+03  0.30914418459E+03  0.15153825590E+04  0.18264347629E+04  0.95000000000E+03 0.  0.
<mgrwt>
<rscale>  0 0.20390977E+04</rscale>
<asrwt>0</asrwt>
<pdfrwt beam="1">  1        2 0.51433696E+00 0.20390977E+04</pdfrwt>
<pdfrwt beam="2">  1       -2 0.47834541E-01 0.20390977E+04</pdfrwt>
<totfact> 0.40122737E+00</totfact>
</mgrwt>
</event>
<event>
 4    1  0.1321115E-008  0.2393423E+04  0.7816531E-02  0.8441970E-01
          2   -1    0    0  501    0  0.00000000000E+00  0.00000000000E+00  0.19937844331E+04  0.19937844331E+04  0.00000000000E+00 0.  1.
         -2   -1    0    0    0  501 -0.00000000000E+00 -0.00000000000E+00 -0.71829146688E+03  0.71829146688E+03  0.00000000000E+00 0. -1.
    2000013    1    1    2    0    0  0.17448696991E+03 -0.63508087791E+03  0.28694054058E+03  0.11910534404E+04  0.95000000000E+03 0.  0.
   -2000013    1    1    2    0    0 -0.17448696991E+03  0.63508087791E+03  0.98855242559E+03  0.15210224595E+04  0.95000000000E+03 0.  0.
<mgrwt>
<rscale>  0 0.23934229E+04</rscale>
<asrwt>0</asrwt>
<pdfrwt beam="1">  1        2 0.30673606E+00 0.23934229E+04</pdfrwt>
<pdfrwt beam="2">  1       -2 0.11050638E+00 0.23934229E+04</pdfrwt>
<totfact> 0.39368388E+00</totfact>
</mgrwt>
</event>
<event>
 4    1  0.1321115E-008  0.2410620E+04  0.7816531E-02  0.8435538E-01
         -1   -1    0    0    0  501 -0.00000000000E+00  0.00000000000E+00  0.19726744022E+04  0.19726744022E+04  0.00000000000E+00 0. -1.
          1   -1    0    0  501    0  0.00000000000E+00 -0.00000000000E+00 -0.73644783062E+03  0.73644783062E+03  0.00000000000E+00 0.  1.
    2000013    1    1    2    0    0  0.38414431983E+03 -0.63353120691E+03  0.57692631939E+03  0.13357666812E+04  0.95000000000E+03 0.  0.
   -2000013    1    1    2    0    0 -0.38414431983E+03  0.63353120691E+03  0.65930025214E+03  0.13733555516E+04  0.95000000000E+03 0.  0.
<mgrwt>
<rscale>  0 0.24106197E+04</rscale>
<asrwt>0</asrwt>
<pdfrwt beam="2">  1        1 0.11329967E+00 0.24106197E+04</pdfrwt>
<pdfrwt beam="1">  1       -1 0.30348837E+00 0.24106197E+04</pdfrwt>
<totfact> 0.70734101E-01</totfact>
</mgrwt>
</event>
<event>
 4    1  0.1321115E-008  0.2181999E+04  0.7816531E-02  0.8525958E-01
         -2   -1    0    0    0  501 -0.00000000000E+00  0.00000000000E+00  0.64180860424E+03  0.64180860424E+03  0.00000000000E+00 0. -1.
          2   -1    0    0  501    0  0.00000000000E+00 -0.00000000000E+00 -0.18545716423E+04  0.18545716423E+04  0.00000000000E+00 0.  1.
    2000013    1    1    2    0    0 -0.23924009154E+02  0.34148678011E+03 -0.13384146565E+03  0.10186260929E+04  0.95000000000E+03 0.  0.
   -2000013    1    1    2    0    0  0.23924009154E+02 -0.34148678011E+03 -0.10789215724E+04  0.14777541537E+04  0.95000000000E+03 0.  0.
<mgrwt>
<rscale>  0 0.21819991E+04</rscale>
<asrwt>0</asrwt>
<pdfrwt beam="2">  1        2 0.28531871E+00 0.21819991E+04</pdfrwt>
<pdfrwt beam="1">  1       -2 0.98739786E-01 0.21819991E+04</pdfrwt>
<totfact> 0.62700285E+00</totfact>
</mgrwt>
</event>
<event>
 4    1  0.1321115E-008  0.2797719E+04  0.7816531E-02  0.8303977E-01
         -1   -1    0    0    0  501 -0.00000000000E+00  0.00000000000E+00  0.12496550887E+04  0.12496550887E+04  0.00000000000E+00 0.  1.
          1   -1    0    0  501    0  0.00000000000E+00 -0.00000000000E+00 -0.15658778851E+04  0.15658778851E+04  0.00000000000E+00 0. -1.
    2000013    1    1    2    0    0 -0.72376965421E+03 -0.38345797313E+03  0.46504442910E+03  0.13377775789E+04  0.95000000000E+03 0.  0.
   -2000013    1    1    2    0    0  0.72376965421E+03  0.38345797313E+03 -0.78126722549E+03  0.14777553949E+04  0.95000000000E+03 0.  0.
<mgrwt>
<rscale>  0 0.27977185E+04</rscale>
<asrwt>0</asrwt>
<pdfrwt beam="2">  1        1 0.24090429E+00 0.27977185E+04</pdfrwt>
<pdfrwt beam="1">  1       -1 0.19225463E+00 0.27977185E+04</pdfrwt>
<totfact> 0.86904529E-01</totfact>
</mgrwt>
</event>
<event>
 4    1  0.1321115E-008  0.2969340E+04  0.7816531E-02  0.8252541E-01
          2   -1    0    0  501    0  0.00000000000E+00  0.00000000000E+00  0.10712779106E+04  0.10712779106E+04  0.00000000000E+00 0.  1.
         -2   -1    0    0    0  501 -0.00000000000E+00 -0.00000000000E+00 -0.20575845956E+04  0.20575845956E+04  0.00000000000E+00 0. -1.
    2000013    1    1    2    0    0 -0.94581938779E+03 -0.51394811908E+03 -0.94645378562E+02  0.14388101790E+04  0.95000000000E+03 0.  0.
   -2000013    1    1    2    0    0  0.94581938779E+03  0.51394811908E+03 -0.89166130642E+03  0.16900523272E+04  0.95000000000E+03 0.  0.
<mgrwt>
<rscale>  0 0.29693399E+04</rscale>
<asrwt>0</asrwt>
<pdfrwt beam="1">  1        2 0.16481199E+00 0.29693399E+04</pdfrwt>
<pdfrwt beam="2">  1       -2 0.31655147E+00 0.29693399E+04</pdfrwt>
<totfact> 0.48982749E-01</totfact>
</mgrwt>
</event>
<event>
 4    1  0.1321115E-008  0.2830175E+04  0.7816531E-02  0.8293961E-01
         -2   -1    0    0    0  501 -0.00000000000E+00  0.00000000000E+00  0.52016424093E+03  0.52016424093E+03  0.00000000000E+00 0. -1.
          2   -1    0    0  501    0  0.00000000000E+00 -0.00000000000E+00 -0.38496933344E+04  0.38496933344E+04  0.00000000000E+00 0.  1.
    2000013    1    1    2    0    0  0.78186159677E+03  0.69500169278E+03 -0.17806990541E+04  0.22732628600E+04  0.95000000000E+03 0.  0.
   -2000013    1    1    2    0    0 -0.78186159677E+03 -0.69500169278E+03 -0.15488300394E+04  0.20965947154E+04  0.95000000000E+03 0.  0.
<mgrwt>
<rscale>  0 0.28301751E+04</rscale>
<asrwt>0</asrwt>
<pdfrwt beam="2">  1        2 0.59226051E+00 0.28301751E+04</pdfrwt>
<pdfrwt beam="1">  1       -2 0.80025269E-01 0.28301751E+04</pdfrwt>
<totfact> 0.53950509E-01</totfact>
</mgrwt>
</event>
<event>
 4    1  0.1321115E-008  0.2598946E+04  0.7816531E-02  0.8368559E-01
          2   -1    0    0  501    0  0.00000000000E+00  0.00000000000E+00  0.18745763344E+04  0.18745763344E+04  0.00000000000E+00 0. -1.
         -2   -1    0    0    0  501 -0.00000000000E+00 -0.00000000000E+00 -0.90080627511E+03  0.90080627511E+03  0.00000000000E+00 0.  1.
    2000013    1    1    2    0    0  0.77291976183E+03  0.15648324222E+03  0.54109557783E+02  0.12358478092E+04  0.95000000000E+03 0.  0.
   -2000013    1    1    2    0    0 -0.77291976183E+03 -0.15648324222E+03  0.91966050155E+03  0.15395348003E+04  0.95000000000E+03 0.  0.
<mgrwt>
<rscale>  0 0.25989460E+04</rscale>
<asrwt>0</asrwt>
<pdfrwt beam="1">  1        2 0.28839636E+00 0.25989460E+04</pdfrwt>
<pdfrwt beam="2">  1       -2 0.13858558E+00 0.25989460E+04</pdfrwt>
<totfact> 0.25592098E+00</totfact>
</mgrwt>
</event>
<event>
 4    1  0.1321115E-008  0.2032141E+04  0.7816531E-02  0.8591739E-01
         -2   -1    0    0    0  501 -0.00000000000E+00  0.00000000000E+00  0.88449694520E+03  0.88449694520E+03  0.00000000000E+00 0. -1.
          2   -1    0    0  501    0  0.00000000000E+00 -0.00000000000E+00 -0.11672164547E+04  0.11672164547E+04  0.00000000000E+00 0.  1.
    2000013    1    1    2    0    0 -0.35834886774E+03  0.36139327421E+02 -0.12783572171E+03  0.10239931317E+04  0.95000000000E+03 0.  0.
   -2000013    1    1    2    0    0  0.35834886774E+03 -0.36139327421E+02 -0.15488378781E+03  0.10277202682E+04  0.95000000000E+03 0.  0.
<mgrwt>
<rscale>  0 0.20321411E+04</rscale>
<asrwt>0</asrwt>
<pdfrwt beam="2">  1        2 0.17957176E+00 0.20321411E+04</pdfrwt>
<pdfrwt beam="1">  1       -2 0.13607645E+00 0.20321411E+04</pdfrwt>
<totfact> 0.71007617E+00</totfact>
</mgrwt>
</event>
<event>
 4    1  0.1321115E-008  0.2255822E+04  0.7816531E-02  0.8495546E-01
         -2   -1    0    0    0  501 -0.00000000000E+00  0.00000000000E+00  0.65649560645E+03  0.65649560645E+03  0.00000000000E+00 0. -1.
          2   -1    0    0  501    0  0.00000000000E+00 -0.00000000000E+00 -0.19378393206E+04  0.19378393206E+04  0.00000000000E+00 0.  1.
    2000013    1    1    2    0    0 -0.75868357715E+01 -0.59861806303E+03 -0.51851678617E+03  0.12368349943E+04  0.95000000000E+03 0.  0.
   -2000013    1    1    2    0    0  0.75868357715E+01  0.59861806303E+03 -0.76282692795E+03  0.13574999328E+04  0.95000000000E+03 0.  0.
<mgrwt>
<rscale>  0 0.22558218E+04</rscale>
<asrwt>0</asrwt>
<pdfrwt beam="2">  1        2 0.29812912E+00 0.22558218E+04</pdfrwt>
<pdfrwt beam="1">  1       -2 0.10099933E+00 0.22558218E+04</pdfrwt>
<totfact> 0.53100656E+00</totfact>
</mgrwt>
</event>
<event>
 4    1  0.1321115E-008  0.3110324E+04  0.7816531E-02  0.8212910E-01
          2   -1    0    0  501    0  0.00000000000E+00  0.00000000000E+00  0.35525118335E+04  0.35525118335E+04  0.00000000000E+00 0.  1.
         -2   -1    0    0    0  501 -0.00000000000E+00 -0.00000000000E+00 -0.68079393701E+03  0.68079393701E+03  0.00000000000E+00 0. -1.
    2000013    1    1    2    0    0 -0.76813506004E+03  0.89150760519E+03  0.94284460859E+03  0.17822102111E+04  0.95000000000E+03 0.  0.
   -2000013    1    1    2    0    0  0.76813506004E+03 -0.89150760519E+03  0.19288732879E+04  0.24510955594E+04  0.95000000000E+03 0.  0.
<mgrwt>
<rscale>  0 0.31103238E+04</rscale>
<asrwt>0</asrwt>
<pdfrwt beam="1">  1        2 0.54654027E+00 0.31103238E+04</pdfrwt>
<pdfrwt beam="2">  1       -2 0.10473753E+00 0.31103238E+04</pdfrwt>
<totfact> 0.46778818E-01</totfact>
</mgrwt>
</event>
<event>
 4    1  0.1321115E-008  0.2962162E+04  0.7816531E-02  0.8254619E-01
          1   -1    0    0  501    0  0.00000000000E+00  0.00000000000E+00  0.12445826958E+04  0.12445826958E+04  0.00000000000E+00 0.  1.
         -1   -1    0    0    0  501 -0.00000000000E+00 -0.00000000000E+00 -0.17625188385E+04  0.17625188385E+04  0.00000000000E+00 0. -1.
    2000013    1    1    2    0    0 -0.87417859112E+03  0.41957129581E+03 -0.86029934704E+03  0.16071226611E+04  0.95000000000E+03 0.  0.
   -2000013    1    1    2    0    0  0.87417859112E+03 -0.41957129581E+03  0.34236320436E+03  0.13999788731E+04  0.95000000000E+03 0.  0.
<mgrwt>
<rscale>  0 0.29621617E+04</rscale>
<asrwt>0</asrwt>
<pdfrwt beam="1">  1        1 0.19147426E+00 0.29621617E+04</pdfrwt>
<pdfrwt beam="2">  1       -1 0.27115674E+00 0.29621617E+04</pdfrwt>
<totfact> 0.42992841E-01</totfact>
</mgrwt>
</event>
<event>
 4    1  0.1321115E-008  0.2540952E+04  0.7816531E-02  0.8388540E-01
          2   -1    0    0  501    0  0.00000000000E+00  0.00000000000E+00  0.24450648092E+04  0.24450648092E+04  0.00000000000E+00 0.  1.
         -2   -1    0    0    0  501 -0.00000000000E+00 -0.00000000000E+00 -0.66014965384E+03  0.66014965384E+03  0.00000000000E+00 0. -1.
    2000013    1    1    2    0    0 -0.10296748310E+03 -0.20420588746E+03  0.18847481000E+04  0.21229879292E+04  0.95000000000E+03 0.  0.
   -2000013    1    1    2    0    0  0.10296748310E+03  0.20420588746E+03 -0.99832944589E+02  0.98222653389E+03  0.95000000000E+03 0.  0.
<mgrwt>
<rscale>  0 0.25409515E+04</rscale>
<asrwt>0</asrwt>
<pdfrwt beam="1">  1        2 0.37616381E+00 0.25409515E+04</pdfrwt>
<pdfrwt beam="2">  1       -2 0.10156149E+00 0.25409515E+04</pdfrwt>
<totfact> 0.26497503E+00</totfact>
</mgrwt>
</event>
<event>
 4    1  0.1321115E-008  0.2217287E+04  0.7816531E-02  0.8511267E-01
          2   -1    0    0  501    0  0.00000000000E+00  0.00000000000E+00  0.11104683478E+04  0.11104683478E+04  0.00000000000E+00 0.  1.
         -2   -1    0    0    0  501 -0.00000000000E+00 -0.00000000000E+00 -0.11068216081E+04  0.11068216081E+04  0.00000000000E+00 0. -1.
    2000013    1    1    2    0    0 -0.48652908801E+03  0.29750221728E+03 -0.35220432986E+02  0.11085840526E+04  0.95000000000E+03 0.  0.
   -2000013    1    1    2    0    0  0.48652908801E+03 -0.29750221728E+03  0.38867172695E+02  0.11087059032E+04  0.95000000000E+03 0.  0.
<mgrwt>
<rscale>  0 0.22172870E+04</rscale>
<asrwt>0</asrwt>
<pdfrwt beam="1">  1        2 0.17084129E+00 0.22172870E+04</pdfrwt>
<pdfrwt beam="2">  1       -2 0.17028025E+00 0.22172870E+04</pdfrwt>
<totfact> 0.41563003E+00</totfact>
</mgrwt>
</event>
<event>
 4    1  0.1321115E-008  0.2295930E+04  0.7816531E-02  0.8479527E-01
         -2   -1    0    0    0  501 -0.00000000000E+00  0.00000000000E+00  0.10954279685E+04  0.10954279685E+04  0.00000000000E+00 0. -1.
          2   -1    0    0  501    0  0.00000000000E+00 -0.00000000000E+00 -0.12030221799E+04  0.12030221799E+04  0.00000000000E+00 0.  1.
    2000013    1    1    2    0    0 -0.55964520334E+03 -0.29155905225E+03 -0.18476387369E+03  0.11553558428E+04  0.95000000000E+03 0.  0.
   -2000013    1    1    2    0    0  0.55964520334E+03  0.29155905225E+03  0.77169662230E+02  0.11430943055E+04  0.95000000000E+03 0.  0.
<mgrwt>
<rscale>  0 0.22959304E+04</rscale>
<asrwt>0</asrwt>
<pdfrwt beam="2">  1        2 0.18508034E+00 0.22959304E+04</pdfrwt>
<pdfrwt beam="1">  1       -2 0.16852738E+00 0.22959304E+04</pdfrwt>
<totfact> 0.37353948E+00</totfact>
</mgrwt>
</event>
<event>
 4    1  0.1321115E-008  0.2365027E+04  0.7816531E-02  0.8452714E-01
          2   -1    0    0  501    0  0.00000000000E+00  0.00000000000E+00  0.19142685595E+04  0.19142685595E+04  0.00000000000E+00 0.  1.
         -2   -1    0    0    0  501 -0.00000000000E+00 -0.00000000000E+00 -0.73048174329E+03  0.73048174329E+03  0.00000000000E+00 0. -1.
    2000013    1    1    2    0    0 -0.14940405950E+03  0.67697140934E+03  0.72988314537E+03  0.13841391794E+04  0.95000000000E+03 0.  0.
   -2000013    1    1    2    0    0  0.14940405950E+03 -0.67697140934E+03  0.45390367089E+03  0.12606111234E+04  0.95000000000E+03 0.  0.
<mgrwt>
<rscale>  0 0.23650270E+04</rscale>
<asrwt>0</asrwt>
<pdfrwt beam="1">  1        2 0.29450285E+00 0.23650270E+04</pdfrwt>
<pdfrwt beam="2">  1       -2 0.11238181E+00 0.23650270E+04</pdfrwt>
<totfact> 0.41938970E+00</totfact>
</mgrwt>
</event>
<event>
 4    1  0.1321115E-008  0.2448028E+04  0.7816531E-02  0.8421738E-01
         -2   -1    0    0    0  501 -0.00000000000E+00  0.00000000000E+00  0.68179193745E+03  0.68179193745E+03  0.00000000000E+00 0. -1.
          2   -1    0    0  501    0  0.00000000000E+00 -0.00000000000E+00 -0.21974600965E+04  0.21974600965E+04  0.00000000000E+00 0.  1.
    2000013    1    1    2    0    0  0.62523336581E+03  0.43864313548E+03 -0.62693727274E+03  0.13707205791E+04  0.95000000000E+03 0.  0.
   -2000013    1    1    2    0    0 -0.62523336581E+03 -0.43864313548E+03 -0.88873088634E+03  0.15085314549E+04  0.95000000000E+03 0.  0.
<mgrwt>
<rscale>  0 0.24480282E+04</rscale>
<asrwt>0</asrwt>
<pdfrwt beam="2">  1        2 0.33807078E+00 0.24480282E+04</pdfrwt>
<pdfrwt beam="1">  1       -2 0.10489107E+00 0.24480282E+04</pdfrwt>
<totfact> 0.34192175E+00</totfact>
</mgrwt>
</event>
<event>
 4    1  0.1321115E-008  0.2622055E+04  0.7816531E-02  0.8360748E-01
         -2   -1    0    0    0  501 -0.00000000000E+00  0.00000000000E+00  0.14716479852E+04  0.14716479852E+04  0.00000000000E+00 0. -1.
          2   -1    0    0  501    0  0.00000000000E+00 -0.00000000000E+00 -0.11679374178E+04  0.11679374178E+04  0.00000000000E+00 0.  1.
    2000013    1    1    2    0    0 -0.66183786713E+03 -0.53106703097E+03 -0.16043027649E+03  0.12838611402E+04  0.95000000000E+03 0.  0.
   -2000013    1    1    2    0    0  0.66183786713E+03  0.53106703097E+03  0.46414084391E+03  0.13557242628E+04  0.95000000000E+03 0.  0.
<mgrwt>
<rscale>  0 0.26220547E+04</rscale>
<asrwt>0</asrwt>
<pdfrwt beam="2">  1        2 0.17968268E+00 0.26220547E+04</pdfrwt>
<pdfrwt beam="1">  1       -2 0.22640738E+00 0.26220547E+04</pdfrwt>
<totfact> 0.15742812E+00</totfact>
</mgrwt>
</event>
<event>
 4    1  0.1321115E-008  0.2003809E+04  0.7816531E-02  0.8604842E-01
          1   -1    0    0  501    0  0.00000000000E+00  0.00000000000E+00  0.67597594035E+03  0.67597594035E+03  0.00000000000E+00 0.  1.
         -1   -1    0    0    0  501 -0.00000000000E+00 -0.00000000000E+00 -0.14849829162E+04  0.14849829162E+04  0.00000000000E+00 0. -1.
    2000013    1    1    2    0    0 -0.36619607371E+02  0.31569741698E+03 -0.42339497963E+03  0.10875519130E+04  0.95000000000E+03 0.  0.
   -2000013    1    1    2    0    0  0.36619607371E+02 -0.31569741698E+03 -0.38561199618E+03  0.10734069435E+04  0.95000000000E+03 0.  0.
<mgrwt>
<rscale>  0 0.20038091E+04</rscale>
<asrwt>0</asrwt>
<pdfrwt beam="1">  1        1 0.10399630E+00 0.20038091E+04</pdfrwt>
<pdfrwt beam="2">  1       -1 0.22845891E+00 0.20038091E+04</pdfrwt>
<totfact> 0.25739350E+00</totfact>
</mgrwt>
</event>
<event>
 4    1  0.1321115E-008  0.2483950E+04  0.7816531E-02  0.8408726E-01
         -2   -1    0    0    0  501 -0.00000000000E+00  0.00000000000E+00  0.66884962842E+03  0.66884962842E+03  0.00000000000E+00 0. -1.
          2   -1    0    0  501    0  0.00000000000E+00 -0.00000000000E+00 -0.23062005782E+04  0.23062005782E+04  0.00000000000E+00 0.  1.
    2000013    1    1    2    0    0  0.20997449309E+03 -0.72612026803E+03 -0.11325153077E+04  0.16602502382E+04  0.95000000000E+03 0.  0.
   -2000013    1    1    2    0    0 -0.20997449309E+03  0.72612026803E+03 -0.50483564213E+03  0.13147999684E+04  0.95000000000E+03 0.  0.
<mgrwt>
<rscale>  0 0.24839496E+04</rscale>
<asrwt>0</asrwt>
<pdfrwt beam="2">  1        2 0.35480009E+00 0.24839496E+04</pdfrwt>
<pdfrwt beam="1">  1       -2 0.10289994E+00 0.24839496E+04</pdfrwt>
<totfact> 0.30981952E+00</totfact>
</mgrwt>
</event>
<event>
 4    1  0.1321115E-008  0.3463847E+04  0.7816531E-02  0.8122412E-01
          2   -1    0    0  501    0  0.00000000000E+00  0.00000000000E+00  0.12698638774E+04  0.12698638774E+04  0.00000000000E+00 0.  1.
         -2   -1    0    0    0  501 -0.00000000000E+00 -0.00000000000E+00 -0.23621101674E+04  0.23621101674E+04  0.00000000000E+00 0. -1.
    2000013    1    1    2    0    0 -0.61941081674E+03 -0.10316759959E+04 -0.13908524415E+04  0.20700231000E+04  0.95000000000E+03 0.  0.
   -2000013    1    1    2    0    0  0.61941081674E+03  0.10316759959E+04  0.29860615153E+03  0.15619509448E+04  0.95000000000E+03 0.  0.
<mgrwt>
<rscale>  0 0.34638466E+04</rscale>
<asrwt>0</asrwt>
<pdfrwt beam="1">  1        2 0.19536368E+00 0.34638466E+04</pdfrwt>
<pdfrwt beam="2">  1       -2 0.36340156E+00 0.34638466E+04</pdfrwt>
<totfact> 0.18143355E-01</totfact>
</mgrwt>
</event>
<event>
 4    1  0.1321115E-008  0.3296423E+04  0.7816531E-02  0.8163806E-01
          1   -1    0    0  501    0  0.00000000000E+00  0.00000000000E+00  0.44003827288E+04  0.44003827288E+04  0.00000000000E+00 0.  1.
         -1   -1    0    0    0  501 -0.00000000000E+00 -0.00000000000E+00 -0.61735570450E+03  0.61735570450E+03  0.00000000000E+00 0. -1.
    2000013    1    1    2    0    0  0.92846329494E+03  0.21228758842E+03  0.33411750541E+04  0.36018135504E+04  0.95000000000E+03 0.  0.
   -2000013    1    1    2    0    0 -0.92846329494E+03 -0.21228758842E+03  0.44185197021E+03  0.14159248828E+04  0.95000000000E+03 0.  0.
<mgrwt>
<rscale>  0 0.32964231E+04</rscale>
<asrwt>0</asrwt>
<pdfrwt beam="1">  1        1 0.67698194E+00 0.32964231E+04</pdfrwt>
<pdfrwt beam="2">  1       -1 0.94977804E-01 0.32964231E+04</pdfrwt>
<totfact> 0.36010117E-02</totfact>
</mgrwt>
</event>
<event>
 4    1  0.1321115E-008  0.2616310E+04  0.7816531E-02  0.8362682E-01
         -2   -1    0    0    0  501 -0.00000000000E+00  0.00000000000E+00  0.10792747395E+04  0.10792747395E+04  0.00000000000E+00 0. -1.
          2   -1    0    0  501    0  0.00000000000E+00 -0.00000000000E+00 -0.15855737500E+04  0.15855737500E+04  0.00000000000E+00 0.  1.
    2000013    1    1    2    0    0 -0.52370219413E+03  0.60995824914E+03  0.15738723816E+03  0.12544256840E+04  0.95000000000E+03 0.  0.
   -2000013    1    1    2    0    0  0.52370219413E+03 -0.60995824914E+03 -0.66368624866E+03  0.14104228056E+04  0.95000000000E+03 0.  0.
<mgrwt>
<rscale>  0 0.26163101E+04</rscale>
<asrwt>0</asrwt>
<pdfrwt beam="2">  1        2 0.24393442E+00 0.26163101E+04</pdfrwt>
<pdfrwt beam="1">  1       -2 0.16604227E+00 0.26163101E+04</pdfrwt>
<totfact> 0.22839432E+00</totfact>
</mgrwt>
</event>
<event>
 4    1  0.1321115E-008  0.2038140E+04  0.7816531E-02  0.8588994E-01
         -2   -1    0    0    0  501 -0.00000000000E+00  0.00000000000E+00  0.47636153494E+03  0.47636153494E+03  0.00000000000E+00 0. -1.
          2   -1    0    0  501    0  0.00000000000E+00 -0.00000000000E+00 -0.21800749096E+04  0.21800749096E+04  0.00000000000E+00 0.  1.
    2000013    1    1    2    0    0 -0.10975429104E+03 -0.19492915101E+03 -0.12339898493E+04  0.15733004565E+04  0.95000000000E+03 0.  0.
   -2000013    1    1    2    0    0  0.10975429104E+03  0.19492915101E+03 -0.46972352541E+03  0.10831359881E+04  0.95000000000E+03 0.  0.
<mgrwt>
<rscale>  0 0.20381402E+04</rscale>
<asrwt>0</asrwt>
<pdfrwt beam="2">  1        2 0.33539614E+00 0.20381402E+04</pdfrwt>
<pdfrwt beam="1">  1       -2 0.73286389E-01 0.20381402E+04</pdfrwt>
<totfact> 0.82480002E+00</totfact>
</mgrwt>
</event>
<event>
 4    1  0.1321115E-008  0.2690333E+04  0.7816531E-02  0.8338148E-01
          2   -1    0    0  501    0  0.00000000000E+00  0.00000000000E+00  0.17640428589E+04  0.17640428589E+04  0.00000000000E+00 0.  1.
         -2   -1    0    0    0  501 -0.00000000000E+00 -0.00000000000E+00 -0.10257532340E+04  0.10257532340E+04  0.00000000000E+00 0. -1.
    2000013    1    1    2    0    0  0.83136630065E+03  0.16615045495E+03 -0.80710167508E+02  0.12758487491E+04  0.95000000000E+03 0.  0.
   -2000013    1    1    2    0    0 -0.83136630065E+03 -0.16615045495E+03  0.81899979245E+03  0.15139473437E+04  0.95000000000E+03 0.  0.
<mgrwt>
<rscale>  0 0.26903328E+04</rscale>
<asrwt>0</asrwt>
<pdfrwt beam="1">  1        2 0.27139121E+00 0.26903328E+04</pdfrwt>
<pdfrwt beam="2">  1       -2 0.15780819E+00 0.26903328E+04</pdfrwt>
<totfact> 0.20748115E+00</totfact>
</mgrwt>
</event>
<event>
 4    1  0.1321115E-008  0.2276630E+04  0.7816531E-02  0.8487193E-01
         -2   -1    0    0    0  501 -0.00000000000E+00  0.00000000000E+00  0.13821941703E+04  0.13821941703E+04  0.00000000000E+00 0. -1.
          2   -1    0    0  501    0  0.00000000000E+00 -0.00000000000E+00 -0.93746698641E+03  0.93746698641E+03  0.00000000000E+00 0.  1.
    2000013    1    1    2    0    0 -0.57566802684E+03  0.25293178988E+02  0.47448342193E+03  0.12081671820E+04  0.95000000000E+03 0.  0.
   -2000013    1    1    2    0    0  0.57566802684E+03 -0.25293178988E+02 -0.29756238056E+02  0.11114939747E+04  0.95000000000E+03 0.  0.
<mgrwt>
<rscale>  0 0.22766303E+04</rscale>
<asrwt>0</asrwt>
<pdfrwt beam="2">  1        2 0.14422569E+00 0.22766303E+04</pdfrwt>
<pdfrwt beam="1">  1       -2 0.21264526E+00 0.22766303E+04</pdfrwt>
<totfact> 0.27670136E+00</totfact>
</mgrwt>
</event>
<event>
 4    1  0.1321115E-008  0.2241758E+04  0.7816531E-02  0.8501246E-01
          2   -1    0    0  501    0  0.00000000000E+00  0.00000000000E+00  0.28962810486E+04  0.28962810486E+04  0.00000000000E+00 0.  1.
         -2   -1    0    0    0  501 -0.00000000000E+00 -0.00000000000E+00 -0.43378712383E+03  0.43378712383E+03  0.00000000000E+00 0. -1.
    2000013    1    1    2    0    0 -0.24387165470E+03 -0.49276273796E+03  0.89387497743E+03  0.14155567721E+04  0.95000000000E+03 0.  0.
   -2000013    1    1    2    0    0  0.24387165470E+03  0.49276273796E+03  0.15686189473E+04  0.19145114003E+04  0.95000000000E+03 0.  0.
<mgrwt>
<rscale>  0 0.22417577E+04</rscale>
<asrwt>0</asrwt>
<pdfrwt beam="1">  1        2 0.44558169E+00 0.22417577E+04</pdfrwt>
<pdfrwt beam="2">  1       -2 0.66736482E-01 0.22417577E+04</pdfrwt>
<totfact> 0.37971691E+00</totfact>
</mgrwt>
</event>
<event>
 4    1  0.1321115E-008  0.3713560E+04  0.7816531E-02  0.8064963E-01
         -2   -1    0    0    0  501 -0.00000000000E+00  0.00000000000E+00  0.63387521580E+03  0.63387521580E+03  0.00000000000E+00 0. -1.
          2   -1    0    0  501    0  0.00000000000E+00 -0.00000000000E+00 -0.54389746247E+04  0.54389746247E+04  0.00000000000E+00 0.  1.
    2000013    1    1    2    0    0  0.60666891720E+03 -0.13175884302E+04 -0.34885838554E+04  0.38957417474E+04  0.95000000000E+03 0.  0.
   -2000013    1    1    2    0    0 -0.60666891720E+03  0.13175884302E+04 -0.13165155536E+04  0.21771080931E+04  0.95000000000E+03 0.  0.
<mgrwt>
<rscale>  0 0.37135596E+04</rscale>
<asrwt>0</asrwt>
<pdfrwt beam="2">  1        2 0.83676536E+00 0.37135596E+04</pdfrwt>
<pdfrwt beam="1">  1       -2 0.97519260E-01 0.37135596E+04</pdfrwt>
<totfact> 0.53774740E-03</totfact>
</mgrwt>
</event>
<event>
 4    1  0.1321115E-008  0.2365927E+04  0.7816531E-02  0.8452371E-01
         -2   -1    0    0    0  501 -0.00000000000E+00  0.00000000000E+00  0.58168340885E+03  0.58168340885E+03  0.00000000000E+00 0. -1.
          2   -1    0    0  501    0  0.00000000000E+00 -0.00000000000E+00 -0.24057799072E+04  0.24057799072E+04  0.00000000000E+00 0.  1.
    2000013    1    1    2    0    0 -0.41210442773E+03 -0.24879961549E+03 -0.15622741607E+04  0.18907490212E+04  0.95000000000E+03 0.  0.
   -2000013    1    1    2    0    0  0.41210442773E+03  0.24879961549E+03 -0.26182233766E+03  0.10967142948E+04  0.95000000000E+03 0.  0.
<mgrwt>
<rscale>  0 0.23659267E+04</rscale>
<asrwt>0</asrwt>
<pdfrwt beam="2">  1        2 0.37011998E+00 0.23659267E+04</pdfrwt>
<pdfrwt beam="1">  1       -2 0.89489758E-01 0.23659267E+04</pdfrwt>
<totfact> 0.38089052E+00</totfact>
</mgrwt>
</event>
<event>
 4    1  0.1321115E-008  0.2609118E+04  0.7816531E-02  0.8365111E-01
         -2   -1    0    0    0  501 -0.00000000000E+00  0.00000000000E+00  0.76859457465E+03  0.76859457465E+03  0.00000000000E+00 0. -1.
          2   -1    0    0  501    0  0.00000000000E+00 -0.00000000000E+00 -0.22142669391E+04  0.22142669391E+04  0.00000000000E+00 0.  1.
    2000013    1    1    2    0    0  0.77659250498E+03  0.13668068761E+03 -0.24104807770E+03  0.12579275436E+04  0.95000000000E+03 0.  0.
   -2000013    1    1    2    0    0 -0.77659250498E+03 -0.13668068761E+03 -0.12046242867E+04  0.17249339701E+04  0.95000000000E+03 0.  0.
<mgrwt>
<rscale>  0 0.26091175E+04</rscale>
<asrwt>0</asrwt>
<pdfrwt beam="2">  1        2 0.34065645E+00 0.26091175E+04</pdfrwt>
<pdfrwt beam="1">  1       -2 0.11824532E+00 0.26091175E+04</pdfrwt>
<totfact> 0.24675519E+00</totfact>
</mgrwt>
</event>
<event>
 4    1  0.1321115E-008  0.2129436E+04  0.7816531E-02  0.8548386E-01
         -2   -1    0    0    0  501 -0.00000000000E+00  0.00000000000E+00  0.72378345001E+03  0.72378345001E+03  0.00000000000E+00 0. -1.
          2   -1    0    0  501    0  0.00000000000E+00 -0.00000000000E+00 -0.15662477857E+04  0.15662477857E+04  0.00000000000E+00 0.  1.
    2000013    1    1    2    0    0 -0.40533282075E+03  0.13673076912E+03 -0.65717340517E+03  0.12318144679E+04  0.95000000000E+03 0.  0.
   -2000013    1    1    2    0    0  0.40533282075E+03 -0.13673076912E+03 -0.18529093053E+03  0.10582167678E+04  0.95000000000E+03 0.  0.
<mgrwt>
<rscale>  0 0.21294358E+04</rscale>
<asrwt>0</asrwt>
<pdfrwt beam="2">  1        2 0.24096120E+00 0.21294358E+04</pdfrwt>
<pdfrwt beam="1">  1       -2 0.11135130E+00 0.21294358E+04</pdfrwt>
<totfact> 0.68315120E+00</totfact>
</mgrwt>
</event>
<event>
 4    1  0.1321115E-008  0.2340084E+04  0.7816531E-02  0.8462282E-01
         -1   -1    0    0    0  501 -0.00000000000E+00  0.00000000000E+00  0.20305502457E+04  0.20305502457E+04  0.00000000000E+00 0. -1.
          1   -1    0    0  501    0  0.00000000000E+00 -0.00000000000E+00 -0.67420052177E+03  0.67420052177E+03  0.00000000000E+00 0.  1.
    2000013    1    1    2    0    0  0.89473619409E+02 -0.67679995538E+03  0.70226305580E+03  0.13644548757E+04  0.95000000000E+03 0.  0.
   -2000013    1    1    2    0    0 -0.89473619409E+02  0.67679995538E+03  0.65408666815E+03  0.13402958918E+04  0.95000000000E+03 0.  0.
<mgrwt>
<rscale>  0 0.23400838E+04</rscale>
<asrwt>0</asrwt>
<pdfrwt beam="2">  1        1 0.10372316E+00 0.23400838E+04</pdfrwt>
<pdfrwt beam="1">  1       -1 0.31239234E+00 0.23400838E+04</pdfrwt>
<totfact> 0.71288364E-01</totfact>
</mgrwt>
</event>
<event>
 4    1  0.1321115E-008  0.2785910E+04  0.7816531E-02  0.8307656E-01
          2   -1    0    0  501    0  0.00000000000E+00  0.00000000000E+00  0.32911241019E+04  0.32911241019E+04  0.00000000000E+00 0. -1.
         -2   -1    0    0    0  501 -0.00000000000E+00 -0.00000000000E+00 -0.58956279113E+03  0.58956279113E+03  0.00000000000E+00 0.  1.
    2000013    1    1    2    0    0 -0.83603210183E+01 -0.65772289490E+03  0.24343950414E+04  0.26947075015E+04  0.95000000000E+03 0.  0.
   -2000013    1    1    2    0    0  0.83603210183E+01  0.65772289490E+03  0.26716626937E+03  0.11859793914E+04  0.95000000000E+03 0.  0.
<mgrwt>
<rscale>  0 0.27859105E+04</rscale>
<asrwt>0</asrwt>
<pdfrwt beam="1">  1        2 0.50632677E+00 0.27859105E+04</pdfrwt>
<pdfrwt beam="2">  1       -2 0.90701970E-01 0.27859105E+04</pdfrwt>
<totfact> 0.10207324E+00</totfact>
</mgrwt>
</event>
<event>
 4    1  0.1321115E-008  0.2797506E+04  0.7816531E-02  0.8304043E-01
          2   -1    0    0  501    0  0.00000000000E+00  0.00000000000E+00  0.26229811242E+04  0.26229811242E+04  0.00000000000E+00 0.  1.
         -2   -1    0    0    0  501 -0.00000000000E+00 -0.00000000000E+00 -0.74591055917E+03  0.74591055917E+03  0.00000000000E+00 0. -1.
    2000013    1    1    2    0    0 -0.10081699638E+04 -0.18596544285E+03  0.87236191102E+03  0.16475755296E+04  0.95000000000E+03 0.  0.
   -2000013    1    1    2    0    0  0.10081699638E+04  0.18596544285E+03  0.10047086540E+04  0.17213161538E+04  0.95000000000E+03 0.  0.
<mgrwt>
<rscale>  0 0.27975055E+04</rscale>
<asrwt>0</asrwt>
<pdfrwt beam="1">  1        2 0.40353555E+00 0.27975055E+04</pdfrwt>
<pdfrwt beam="2">  1       -2 0.11475547E+00 0.27975055E+04</pdfrwt>
<totfact> 0.15213052E+00</totfact>
</mgrwt>
</event>
<event>
 4    1  0.1321115E-008  0.2662723E+04  0.7816531E-02  0.8347202E-01
          2   -1    0    0  501    0  0.00000000000E+00  0.00000000000E+00  0.20605089982E+04  0.20605089982E+04  0.00000000000E+00 0.  1.
         -2   -1    0    0    0  501 -0.00000000000E+00 -0.00000000000E+00 -0.86023592749E+03  0.86023592749E+03  0.00000000000E+00 0. -1.
    2000013    1    1    2    0    0 -0.14506288180E+03 -0.48138166512E+03 -0.26164851356E+03  0.11062239791E+04  0.95000000000E+03 0.  0.
   -2000013    1    1    2    0    0  0.14506288180E+03  0.48138166512E+03  0.14619215843E+04  0.18145209466E+04  0.95000000000E+03 0.  0.
<mgrwt>
<rscale>  0 0.26627233E+04</rscale>
<asrwt>0</asrwt>
<pdfrwt beam="1">  1        2 0.31700138E+00 0.26627233E+04</pdfrwt>
<pdfrwt beam="2">  1       -2 0.13234399E+00 0.26627233E+04</pdfrwt>
<totfact> 0.22578454E+00</totfact>
</mgrwt>
</event>
<event>
 4    1  0.1321115E-008  0.2251297E+04  0.7816531E-02  0.8497376E-01
          2   -1    0    0  501    0  0.00000000000E+00  0.00000000000E+00  0.34031958933E+04  0.34031958933E+04  0.00000000000E+00 0.  1.
         -2   -1    0    0    0  501 -0.00000000000E+00 -0.00000000000E+00 -0.37232186450E+03  0.37232186450E+03  0.00000000000E+00 0. -1.
    2000013    1    1    2    0    0  0.53414817457E+03 -0.11655808994E+03  0.19452446897E+04  0.22327957729E+04  0.95000000000E+03 0.  0.
   -2000013    1    1    2    0    0 -0.53414817457E+03  0.11655808994E+03  0.10856293390E+04  0.15427219848E+04  0.95000000000E+03 0.  0.
<mgrwt>
<rscale>  0 0.22512967E+04</rscale>
<asrwt>0</asrwt>
<pdfrwt beam="1">  1        2 0.52356858E+00 0.22512967E+04</pdfrwt>
<pdfrwt beam="2">  1       -2 0.57280289E-01 0.22512967E+04</pdfrwt>
<totfact> 0.24722781E+00</totfact>
</mgrwt>
</event>
<event>
 4    1  0.1321115E-008  0.2040266E+04  0.7816531E-02  0.8588023E-01
         -2   -1    0    0    0  501 -0.00000000000E+00  0.00000000000E+00  0.36747500533E+03  0.36747500533E+03  0.00000000000E+00 0. -1.
          2   -1    0    0  501    0  0.00000000000E+00 -0.00000000000E+00 -0.28319511436E+04  0.28319511436E+04  0.00000000000E+00 0.  1.
    2000013    1    1    2    0    0  0.31192420239E+03 -0.18761765273E+03 -0.13503616171E+04  0.16907020993E+04  0.95000000000E+03 0.  0.
   -2000013    1    1    2    0    0 -0.31192420239E+03  0.18761765273E+03 -0.11141145212E+04  0.15087240496E+04  0.95000000000E+03 0.  0.
<mgrwt>
<rscale>  0 0.20402659E+04</rscale>
<asrwt>0</asrwt>
<pdfrwt beam="2">  1        2 0.43568479E+00 0.20402659E+04</pdfrwt>
<pdfrwt beam="1">  1       -2 0.56534617E-01 0.20402659E+04</pdfrwt>
<totfact> 0.60198608E+00</totfact>
</mgrwt>
</event>
<event>
 4    1  0.1321115E-008  0.2419679E+04  0.7816531E-02  0.8432173E-01
          2   -1    0    0  501    0  0.00000000000E+00  0.00000000000E+00  0.15582862854E+04  0.15582862854E+04  0.00000000000E+00 0. -1.
         -2   -1    0    0    0  501 -0.00000000000E+00 -0.00000000000E+00 -0.93930818213E+03  0.93930818213E+03  0.00000000000E+00 0.  1.
    2000013    1    1    2    0    0  0.72534080031E+03 -0.84060008144E+02  0.13668956116E+03  0.12059723868E+04  0.95000000000E+03 0.  0.
   -2000013    1    1    2    0    0 -0.72534080031E+03  0.84060008144E+02  0.48228854209E+03  0.12916220807E+04  0.95000000000E+03 0.  0.
<mgrwt>
<rscale>  0 0.24196785E+04</rscale>
<asrwt>0</asrwt>
<pdfrwt beam="1">  1        2 0.23973635E+00 0.24196785E+04</pdfrwt>
<pdfrwt beam="2">  1       -2 0.14450895E+00 0.24196785E+04</pdfrwt>
<totfact> 0.34938763E+00</totfact>
</mgrwt>
</event>
<event>
 4    1  0.1321115E-008  0.3371402E+04  0.7816531E-02  0.8144961E-01
         -2   -1    0    0    0  501 -0.00000000000E+00  0.00000000000E+00  0.11923479357E+04  0.11923479357E+04  0.00000000000E+00 0. -1.
          2   -1    0    0  501    0  0.00000000000E+00 -0.00000000000E+00 -0.23831874849E+04  0.23831874849E+04  0.00000000000E+00 0.  1.
    2000013    1    1    2    0    0  0.20187970058E+03 -0.13777085324E+04 -0.61227096031E+03  0.17933800330E+04  0.95000000000E+03 0.  0.
   -2000013    1    1    2    0    0 -0.20187970058E+03  0.13777085324E+04 -0.57856858887E+03  0.17821553877E+04  0.95000000000E+03 0.  0.
<mgrwt>
<rscale>  0 0.33714025E+04</rscale>
<asrwt>0</asrwt>
<pdfrwt beam="2">  1        2 0.36664422E+00 0.33714025E+04</pdfrwt>
<pdfrwt beam="1">  1       -2 0.18343815E+00 0.33714025E+04</pdfrwt>
<totfact> 0.57953251E-01</totfact>
</mgrwt>
</event>
<event>
 4    1  0.1321115E-008  0.2700709E+04  0.7816531E-02  0.8334775E-01
         -2   -1    0    0    0  501 -0.00000000000E+00  0.00000000000E+00  0.14649582655E+04  0.14649582655E+04  0.00000000000E+00 0. -1.
          2   -1    0    0  501    0  0.00000000000E+00 -0.00000000000E+00 -0.12447166536E+04  0.12447166536E+04  0.00000000000E+00 0.  1.
    2000013    1    1    2    0    0 -0.13259000329E+03 -0.88717173372E+03 -0.23204525986E+03  0.13270262984E+04  0.95000000000E+03 0.  0.
   -2000013    1    1    2    0    0  0.13259000329E+03  0.88717173372E+03  0.45228687174E+03  0.13826486207E+04  0.95000000000E+03 0.  0.
<mgrwt>
<rscale>  0 0.27007095E+04</rscale>
<asrwt>0</asrwt>
<pdfrwt beam="2">  1        2 0.19149487E+00 0.27007095E+04</pdfrwt>
<pdfrwt beam="1">  1       -2 0.22537819E+00 0.27007095E+04</pdfrwt>
<totfact> 0.14284636E+00</totfact>
</mgrwt>
</event>
<event>
 4    1  0.1321115E-008  0.2865856E+04  0.7816531E-02  0.8283109E-01
         -2   -1    0    0    0  501 -0.00000000000E+00  0.00000000000E+00  0.16078343212E+04  0.16078343212E+04  0.00000000000E+00 0. -1.
          2   -1    0    0  501    0  0.00000000000E+00 -0.00000000000E+00 -0.12770484470E+04  0.12770484470E+04  0.00000000000E+00 0.  1.
    2000013    1    1    2    0    0  0.78061368784E+03  0.73402030886E+03  0.11368283590E+03  0.14365122104E+04  0.95000000000E+03 0.  0.
   -2000013    1    1    2    0    0 -0.78061368784E+03 -0.73402030886E+03  0.21710303828E+03  0.14483705578E+04  0.95000000000E+03 0.  0.
<mgrwt>
<rscale>  0 0.28658558E+04</rscale>
<asrwt>0</asrwt>
<pdfrwt beam="2">  1        2 0.19646899E+00 0.28658558E+04</pdfrwt>
<pdfrwt beam="1">  1       -2 0.24735913E+00 0.28658558E+04</pdfrwt>
<totfact> 0.98452380E-01</totfact>
</mgrwt>
</event>
<event>
 4    1  0.1321115E-008  0.2778436E+04  0.7816531E-02  0.8309995E-01
         -2   -1    0    0    0  501 -0.00000000000E+00  0.00000000000E+00  0.14258732976E+04  0.14258732976E+04  0.00000000000E+00 0. -1.
          2   -1    0    0  501    0  0.00000000000E+00 -0.00000000000E+00 -0.13535046202E+04  0.13535046202E+04  0.00000000000E+00 0.  1.
    2000013    1    1    2    0    0 -0.66866099810E+03  0.75161310560E+03  0.16030827070E+03  0.13929208637E+04  0.95000000000E+03 0.  0.
   -2000013    1    1    2    0    0  0.66866099810E+03 -0.75161310560E+03 -0.87939593256E+02  0.13864570541E+04  0.95000000000E+03 0.  0.
<mgrwt>
<rscale>  0 0.27784356E+04</rscale>
<asrwt>0</asrwt>
<pdfrwt beam="2">  1        2 0.20823148E+00 0.27784356E+04</pdfrwt>
<pdfrwt beam="1">  1       -2 0.21936512E+00 0.27784356E+04</pdfrwt>
<totfact> 0.13383136E+00</totfact>
</mgrwt>
</event>
<event>
 4    1  0.1321115E-008  0.2350103E+04  0.7816531E-02  0.8458424E-01
         -2   -1    0    0    0  501 -0.00000000000E+00  0.00000000000E+00  0.15002686716E+04  0.15002686716E+04  0.00000000000E+00 0. -1.
          2   -1    0    0  501    0  0.00000000000E+00 -0.00000000000E+00 -0.92033241740E+03  0.92033241740E+03  0.00000000000E+00 0.  1.
    2000013    1    1    2    0    0  0.19904130668E+03  0.62661146660E+03  0.51084570339E+03  0.12632191831E+04  0.95000000000E+03 0.  0.
   -2000013    1    1    2    0    0 -0.19904130668E+03 -0.62661146660E+03  0.69090550776E+02  0.11573819059E+04  0.95000000000E+03 0.  0.
<mgrwt>
<rscale>  0 0.23501029E+04</rscale>
<asrwt>0</asrwt>
<pdfrwt beam="2">  1        2 0.14158960E+00 0.23501029E+04</pdfrwt>
<pdfrwt beam="1">  1       -2 0.23081057E+00 0.23501029E+04</pdfrwt>
<totfact> 0.21672777E+00</totfact>
</mgrwt>
</event>
<event>
 4    1  0.1321115E-008  0.3144512E+04  0.7816531E-02  0.8203627E-01
         -4   -1    0    0    0  501 -0.00000000000E+00  0.00000000000E+00  0.10942838642E+04  0.10942838642E+04  0.00000000000E+00 0. -1.
          4   -1    0    0  501    0  0.00000000000E+00 -0.00000000000E+00 -0.22590012556E+04  0.22590012556E+04  0.00000000000E+00 0.  1.
    2000013    1    1    2    0    0 -0.30431944984E+03 -0.80624739228E+03 -0.15520397140E+04  0.20134479032E+04  0.95000000000E+03 0.  0.
   -2000013    1    1    2    0    0  0.30431944984E+03  0.80624739228E+03  0.38732232260E+03  0.13398372165E+04  0.95000000000E+03 0.  0.
<mgrwt>
<rscale>  0 0.31445118E+04</rscale>
<asrwt>0</asrwt>
<pdfrwt beam="2">  1        4 0.34753865E+00 0.31445118E+04</pdfrwt>
<pdfrwt beam="1">  1       -4 0.16835137E+00 0.31445118E+04</pdfrwt>
<totfact> 0.56029712E-03</totfact>
</mgrwt>
</event>
<event>
 4    1  0.1321115E-008  0.2396636E+04  0.7816531E-02  0.8440764E-01
         -2   -1    0    0    0  501 -0.00000000000E+00  0.00000000000E+00  0.83729978600E+03  0.83729978600E+03  0.00000000000E+00 0. -1.
          2   -1    0    0  501    0  0.00000000000E+00 -0.00000000000E+00 -0.17149969778E+04  0.17149969778E+04  0.00000000000E+00 0.  1.
    2000013    1    1    2    0    0  0.19409914455E+03  0.60845957239E+03 -0.61476008813E+02  0.11463755182E+04  0.95000000000E+03 0.  0.
   -2000013    1    1    2    0    0 -0.19409914455E+03 -0.60845957239E+03 -0.81622118295E+03  0.14059212455E+04  0.95000000000E+03 0.  0.
<mgrwt>
<rscale>  0 0.23966365E+04</rscale>
<asrwt>0</asrwt>
<pdfrwt beam="2">  1        2 0.26384569E+00 0.23966365E+04</pdfrwt>
<pdfrwt beam="1">  1       -2 0.12881535E+00 0.23966365E+04</pdfrwt>
<totfact> 0.38467156E+00</totfact>
</mgrwt>
</event>
<event>
 4    1  0.1321115E-008  0.2566851E+04  0.7816531E-02  0.8379549E-01
         -2   -1    0    0    0  501 -0.00000000000E+00  0.00000000000E+00  0.49900427252E+03  0.49900427252E+03  0.00000000000E+00 0. -1.
          2   -1    0    0  501    0  0.00000000000E+00 -0.00000000000E+00 -0.33009359254E+04  0.33009359254E+04  0.00000000000E+00 0.  1.
    2000013    1    1    2    0    0  0.85242731181E+03 -0.89046247687E+02 -0.15498872576E+04  0.20097791091E+04  0.95000000000E+03 0.  0.
   -2000013    1    1    2    0    0 -0.85242731181E+03  0.89046247687E+02 -0.12520443953E+04  0.17901610888E+04  0.95000000000E+03 0.  0.
<mgrwt>
<rscale>  0 0.25668511E+04</rscale>
<asrwt>0</asrwt>
<pdfrwt beam="2">  1        2 0.50783629E+00 0.25668511E+04</pdfrwt>
<pdfrwt beam="1">  1       -2 0.76769889E-01 0.25668511E+04</pdfrwt>
<totfact> 0.14963150E+00</totfact>
</mgrwt>
</event>
<event>
 4    1  0.1321115E-008  0.2261591E+04  0.7816531E-02  0.8493221E-01
         -2   -1    0    0    0  501 -0.00000000000E+00  0.00000000000E+00  0.59421762716E+03  0.59421762716E+03  0.00000000000E+00 0. -1.
          2   -1    0    0  501    0  0.00000000000E+00 -0.00000000000E+00 -0.21519020984E+04  0.21519020984E+04  0.00000000000E+00 0.  1.
    2000013    1    1    2    0    0  0.19424471507E+03 -0.57825624917E+03 -0.85646700414E+03  0.14170910444E+04  0.95000000000E+03 0.  0.
   -2000013    1    1    2    0    0 -0.19424471507E+03  0.57825624917E+03 -0.70121746708E+03  0.13290286811E+04  0.95000000000E+03 0.  0.
<mgrwt>
<rscale>  0 0.22615907E+04</rscale>
<asrwt>0</asrwt>
<pdfrwt beam="2">  1        2 0.33106186E+00 0.22615907E+04</pdfrwt>
<pdfrwt beam="1">  1       -2 0.91418096E-01 0.22615907E+04</pdfrwt>
<totfact> 0.50934934E+00</totfact>
</mgrwt>
</event>
<event>
 4    1  0.1321115E-008  0.2397295E+04  0.7816531E-02  0.8440517E-01
          2   -1    0    0  501    0  0.00000000000E+00  0.00000000000E+00  0.35004219104E+04  0.35004219104E+04  0.00000000000E+00 0.  1.
         -2   -1    0    0    0  501 -0.00000000000E+00 -0.00000000000E+00 -0.41045220765E+03  0.41045220765E+03  0.00000000000E+00 0. -1.
    2000013    1    1    2    0    0 -0.51332662009E+03 -0.33504693111E+03  0.21944568822E+04  0.24685829281E+04  0.95000000000E+03 0.  0.
   -2000013    1    1    2    0    0  0.51332662009E+03  0.33504693111E+03  0.89551282057E+03  0.14422911900E+04  0.95000000000E+03 0.  0.
<mgrwt>
<rscale>  0 0.23972951E+04</rscale>
<asrwt>0</asrwt>
<pdfrwt beam="1">  1        2 0.53852643E+00 0.23972951E+04</pdfrwt>
<pdfrwt beam="2">  1       -2 0.63146496E-01 0.23972951E+04</pdfrwt>
<totfact> 0.17008180E+00</totfact>
</mgrwt>
</event>
<event>
 4    1  0.1321115E-008  0.1997283E+04  0.7816531E-02  0.8607892E-01
          2   -1    0    0  501    0  0.00000000000E+00  0.00000000000E+00  0.11822354218E+04  0.11822354218E+04  0.00000000000E+00 0.  1.
         -2   -1    0    0    0  501 -0.00000000000E+00 -0.00000000000E+00 -0.84355873060E+03  0.84355873060E+03  0.00000000000E+00 0. -1.
    2000013    1    1    2    0    0 -0.25088312755E+03  0.17515392062E+03  0.20393942428E+03  0.10186817601E+04  0.95000000000E+03 0.  0.
   -2000013    1    1    2    0    0  0.25088312755E+03 -0.17515392062E+03  0.13473726690E+03  0.10071123923E+04  0.95000000000E+03 0.  0.
<mgrwt>
<rscale>  0 0.19972832E+04</rscale>
<asrwt>0</asrwt>
<pdfrwt beam="1">  1        2 0.18188237E+00 0.19972832E+04</pdfrwt>
<pdfrwt beam="2">  1       -2 0.12977827E+00 0.19972832E+04</pdfrwt>
<totfact> 0.78691115E+00</totfact>
</mgrwt>
</event>
<event>
 4    1  0.1321115E-008  0.3206945E+04  0.7816531E-02  0.8186985E-01
          2   -1    0    0  501    0  0.00000000000E+00  0.00000000000E+00  0.30268102362E+04  0.30268102362E+04  0.00000000000E+00 0.  1.
         -2   -1    0    0    0  501 -0.00000000000E+00 -0.00000000000E+00 -0.84945020380E+03  0.84945020380E+03  0.00000000000E+00 0. -1.
    2000013    1    1    2    0    0 -0.10526999938E+04  0.72422872320E+03  0.13178252044E+04  0.20668448877E+04  0.95000000000E+03 0.  0.
   -2000013    1    1    2    0    0  0.10526999938E+04 -0.72422872320E+03  0.85953482804E+03  0.18094155523E+04  0.95000000000E+03 0.  0.
<mgrwt>
<rscale>  0 0.32069453E+04</rscale>
<asrwt>0</asrwt>
<pdfrwt beam="1">  1        2 0.46566311E+00 0.32069453E+04</pdfrwt>
<pdfrwt beam="2">  1       -2 0.13068465E+00 0.32069453E+04</pdfrwt>
<totfact> 0.60360140E-01</totfact>
</mgrwt>
</event>
<event>
 4    1  0.1321115E-008  0.2797069E+04  0.7816531E-02  0.8304179E-01
         -2   -1    0    0    0  501 -0.00000000000E+00  0.00000000000E+00  0.46443527491E+03  0.46443527491E+03  0.00000000000E+00 0. -1.
          2   -1    0    0  501    0  0.00000000000E+00 -0.00000000000E+00 -0.42113487363E+04  0.42113487363E+04  0.00000000000E+00 0.  1.
    2000013    1    1    2    0    0  0.32384889290E+03 -0.77615312130E+03 -0.28569163214E+04  0.31259818683E+04  0.95000000000E+03 0.  0.
   -2000013    1    1    2    0    0 -0.32384889290E+03  0.77615312130E+03 -0.88999714000E+03  0.15498021430E+04  0.95000000000E+03 0.  0.
<mgrwt>
<rscale>  0 0.27970691E+04</rscale>
<asrwt>0</asrwt>
<pdfrwt beam="2">  1        2 0.64789982E+00 0.27970691E+04</pdfrwt>
<pdfrwt beam="1">  1       -2 0.71451580E-01 0.27970691E+04</pdfrwt>
<totfact> 0.35197587E-01</totfact>
</mgrwt>
</event>
<event>
 4    1  0.1321115E-008  0.2940685E+04  0.7816531E-02  0.8260874E-01
          2   -1    0    0  501    0  0.00000000000E+00  0.00000000000E+00  0.27805346258E+04  0.27805346258E+04  0.00000000000E+00 0.  1.
         -2   -1    0    0    0  501 -0.00000000000E+00 -0.00000000000E+00 -0.77751472047E+03  0.77751472047E+03  0.00000000000E+00 0. -1.
    2000013    1    1    2    0    0  0.90671963218E+03 -0.50178076999E+03  0.48041773008E+03  0.14856734594E+04  0.95000000000E+03 0.  0.
   -2000013    1    1    2    0    0 -0.90671963218E+03  0.50178076999E+03  0.15226021752E+04  0.20723758869E+04  0.95000000000E+03 0.  0.
<mgrwt>
<rscale>  0 0.29406847E+04</rscale>
<asrwt>0</asrwt>
<pdfrwt beam="1">  1        2 0.42777455E+00 0.29406847E+04</pdfrwt>
<pdfrwt beam="2">  1       -2 0.11961765E+00 0.29406847E+04</pdfrwt>
<totfact> 0.10934366E+00</totfact>
</mgrwt>
</event>
<event>
 4    1  0.1321115E-008  0.2300469E+04  0.7816531E-02  0.8477736E-01
         -1   -1    0    0    0  501 -0.00000000000E+00  0.00000000000E+00  0.90737136568E+03  0.90737136568E+03  0.00000000000E+00 0. -1.
          1   -1    0    0  501    0  0.00000000000E+00 -0.00000000000E+00 -0.14581010086E+04  0.14581010086E+04  0.00000000000E+00 0.  1.
    2000013    1    1    2    0    0 -0.14029096370E+03 -0.39535049734E+03  0.23313439885E+03  0.10643473203E+04  0.95000000000E+03 0.  0.
   -2000013    1    1    2    0    0  0.14029096370E+03  0.39535049734E+03 -0.78386404181E+03  0.13011250541E+04  0.95000000000E+03 0.  0.
<mgrwt>
<rscale>  0 0.23004687E+04</rscale>
<asrwt>0</asrwt>
<pdfrwt beam="2">  1        1 0.22432323E+00 0.23004687E+04</pdfrwt>
<pdfrwt beam="1">  1       -1 0.13959559E+00 0.23004687E+04</pdfrwt>
<totfact> 0.26706578E+00</totfact>
</mgrwt>
</event>
<event>
 4    1  0.1321115E-008  0.2837590E+04  0.7816531E-02  0.8291692E-01
          2   -1    0    0  501    0  0.00000000000E+00  0.00000000000E+00  0.14046136644E+04  0.14046136644E+04  0.00000000000E+00 0.  1.
         -2   -1    0    0    0  501 -0.00000000000E+00 -0.00000000000E+00 -0.14331199100E+04  0.14331199100E+04  0.00000000000E+00 0. -1.
    2000013    1    1    2    0    0  0.61070224020E+03  0.84935868645E+03  0.11268792638E+03  0.14175916102E+04  0.95000000000E+03 0.  0.
   -2000013    1    1    2    0    0 -0.61070224020E+03 -0.84935868645E+03 -0.14119417196E+03  0.14201419642E+04  0.95000000000E+03 0.  0.
<mgrwt>
<rscale>  0 0.28375904E+04</rscale>
<asrwt>0</asrwt>
<pdfrwt beam="1">  1        2 0.21609441E+00 0.28375904E+04</pdfrwt>
<pdfrwt beam="2">  1       -2 0.22047999E+00 0.28375904E+04</pdfrwt>
<totfact> 0.12246151E+00</totfact>
</mgrwt>
</event>
<event>
 4    1  0.1321115E-008  0.2424305E+04  0.7816531E-02  0.8430460E-01
          2   -1    0    0  501    0  0.00000000000E+00  0.00000000000E+00  0.42587855590E+04  0.42587855590E+04  0.00000000000E+00 0.  1.
         -2   -1    0    0    0  501 -0.00000000000E+00 -0.00000000000E+00 -0.34500765251E+03  0.34500765251E+03  0.00000000000E+00 0. -1.
    2000013    1    1    2    0    0  0.32279917419E+01  0.61566474059E+03  0.27797570676E+04  0.30014334655E+04  0.95000000000E+03 0.  0.
   -2000013    1    1    2    0    0 -0.32279917419E+01 -0.61566474059E+03  0.11340208389E+04  0.16023597461E+04  0.95000000000E+03 0.  0.
<mgrwt>
<rscale>  0 0.24243049E+04</rscale>
<asrwt>0</asrwt>
<pdfrwt beam="1">  1        2 0.65519774E+00 0.24243049E+04</pdfrwt>
<pdfrwt beam="2">  1       -2 0.53078103E-01 0.24243049E+04</pdfrwt>
<totfact> 0.62381325E-01</totfact>
</mgrwt>
</event>
<event>
 4    1  0.1321115E-008  0.2861797E+04  0.7816531E-02  0.8284336E-01
         -1   -1    0    0    0  501 -0.00000000000E+00  0.00000000000E+00  0.21361366132E+04  0.21361366132E+04  0.00000000000E+00 0. -1.
          1   -1    0    0  501    0  0.00000000000E+00 -0.00000000000E+00 -0.95849205528E+03  0.95849205528E+03  0.00000000000E+00 0.  1.
    2000013    1    1    2    0    0 -0.38982002027E+03 -0.99190729580E+03  0.48549597371E+03  0.15079940557E+04  0.95000000000E+03 0.  0.
   -2000013    1    1    2    0    0  0.38982002027E+03  0.99190729580E+03  0.69214858417E+03  0.15866346127E+04  0.95000000000E+03 0.  0.
<mgrwt>
<rscale>  0 0.28617966E+04</rscale>
<asrwt>0</asrwt>
<pdfrwt beam="2">  1        1 0.14746032E+00 0.28617966E+04</pdfrwt>
<pdfrwt beam="1">  1       -1 0.32863640E+00 0.28617966E+04</pdfrwt>
<totfact> 0.30193750E-01</totfact>
</mgrwt>
</event>
<event>
 4    1  0.1321115E-008  0.3034183E+04  0.7816531E-02  0.8234037E-01
          2   -1    0    0  501    0  0.00000000000E+00  0.00000000000E+00  0.23455576975E+04  0.23455576975E+04  0.00000000000E+00 0.  1.
         -2   -1    0    0    0  501 -0.00000000000E+00 -0.00000000000E+00 -0.98124499334E+03  0.98124499334E+03  0.00000000000E+00 0. -1.
    2000013    1    1    2    0    0 -0.64577942231E+03 -0.12954079391E+03 -0.39506824513E+03  0.12216344780E+04  0.95000000000E+03 0.  0.
   -2000013    1    1    2    0    0  0.64577942231E+03  0.12954079391E+03  0.17593809493E+04  0.21051682128E+04  0.95000000000E+03 0.  0.
<mgrwt>
<rscale>  0 0.30341831E+04</rscale>
<asrwt>0</asrwt>
<pdfrwt beam="1">  1        2 0.36085503E+00 0.30341831E+04</pdfrwt>
<pdfrwt beam="2">  1       -2 0.15096077E+00 0.30341831E+04</pdfrwt>
<totfact> 0.10738511E+00</totfact>
</mgrwt>
</event>
<event>
 4    1  0.1321115E-008  0.2459773E+04  0.7816531E-02  0.8417458E-01
          2   -1    0    0  501    0  0.00000000000E+00  0.00000000000E+00  0.19005770143E+04  0.19005770143E+04  0.00000000000E+00 0.  1.
         -2   -1    0    0    0  501 -0.00000000000E+00 -0.00000000000E+00 -0.79587441716E+03  0.79587441716E+03  0.00000000000E+00 0. -1.
    2000013    1    1    2    0    0  0.22883850926E+03 -0.56887432313E+03  0.21917374943E+02  0.11309135379E+04  0.95000000000E+03 0.  0.
   -2000013    1    1    2    0    0 -0.22883850926E+03  0.56887432313E+03  0.10827852222E+04  0.15655378936E+04  0.95000000000E+03 0.  0.
<mgrwt>
<rscale>  0 0.24597729E+04</rscale>
<asrwt>0</asrwt>
<pdfrwt beam="1">  1        2 0.29239646E+00 0.24597729E+04</pdfrwt>
<pdfrwt beam="2">  1       -2 0.12244222E+00 0.24597729E+04</pdfrwt>
<totfact> 0.34289084E+00</totfact>
</mgrwt>
</event>
<event>
 4    1  0.1321115E-008  0.2037941E+04  0.7816531E-02  0.8589085E-01
         -2   -1    0    0    0  501 -0.00000000000E+00  0.00000000000E+00  0.73785663841E+03  0.73785663841E+03  0.00000000000E+00 0. -1.
          2   -1    0    0  501    0  0.00000000000E+00 -0.00000000000E+00 -0.14071848261E+04  0.14071848261E+04  0.00000000000E+00 0.  1.
    2000013    1    1    2    0    0  0.34174132111E+03 -0.11686036901E+03 -0.41170344485E+03  0.10965597124E+04  0.95000000000E+03 0.  0.
   -2000013    1    1    2    0    0 -0.34174132111E+03  0.11686036901E+03 -0.25762474289E+03  0.10484817521E+04  0.95000000000E+03 0.  0.
<mgrwt>
<rscale>  0 0.20379408E+04</rscale>
<asrwt>0</asrwt>
<pdfrwt beam="2">  1        2 0.21648997E+00 0.20379408E+04</pdfrwt>
<pdfrwt beam="1">  1       -2 0.11351641E+00 0.20379408E+04</pdfrwt>
<totfact> 0.80819162E+00</totfact>
</mgrwt>
</event>
<event>
 4    1  0.1321115E-008  0.2553753E+04  0.7816531E-02  0.8384082E-01
         -2   -1    0    0    0  501 -0.00000000000E+00  0.00000000000E+00  0.47641625762E+04  0.47641625762E+04  0.00000000000E+00 0. -1.
          2   -1    0    0  501    0  0.00000000000E+00 -0.00000000000E+00 -0.34222458485E+03  0.34222458485E+03  0.00000000000E+00 0.  1.
    2000013    1    1    2    0    0 -0.81810654934E+03  0.22232177403E+03  0.20193001394E+04  0.23872156061E+04  0.95000000000E+03 0.  0.
   -2000013    1    1    2    0    0  0.81810654934E+03 -0.22232177403E+03  0.24026378519E+04  0.27191715549E+04  0.95000000000E+03 0.  0.
<mgrwt>
<rscale>  0 0.25537530E+04</rscale>
<asrwt>0</asrwt>
<pdfrwt beam="2">  1        2 0.52649940E-01 0.25537530E+04</pdfrwt>
<pdfrwt beam="1">  1       -2 0.73294804E+00 0.25537530E+04</pdfrwt>
<totfact> 0.14255850E-02</totfact>
</mgrwt>
</event>
<event>
 4    1  0.1321115E-008  0.2139313E+04  0.7816531E-02  0.8544121E-01
          2   -1    0    0  501    0  0.00000000000E+00  0.00000000000E+00  0.10414124648E+04  0.10414124648E+04  0.00000000000E+00 0.  1.
         -2   -1    0    0    0  501 -0.00000000000E+00 -0.00000000000E+00 -0.10986666214E+04  0.10986666214E+04  0.00000000000E+00 0. -1.
    2000013    1    1    2    0    0  0.25690827787E+03 -0.33340196516E+03 -0.28269908258E+03  0.10768368051E+04  0.95000000000E+03 0.  0.
   -2000013    1    1    2    0    0 -0.25690827787E+03  0.33340196516E+03  0.22544492597E+03  0.10632422811E+04  0.95000000000E+03 0.  0.
<mgrwt>
<rscale>  0 0.21393131E+04</rscale>
<asrwt>0</asrwt>
<pdfrwt beam="1">  1        2 0.16021730E+00 0.21393131E+04</pdfrwt>
<pdfrwt beam="2">  1       -2 0.16902563E+00 0.21393131E+04</pdfrwt>
<totfact> 0.47147728E+00</totfact>
</mgrwt>
</event>
<event>
 4    1  0.1321115E-008  0.2586196E+04  0.7816531E-02  0.8372905E-01
         -2   -1    0    0    0  501 -0.00000000000E+00  0.00000000000E+00  0.12236819673E+04  0.12236819673E+04  0.00000000000E+00 0. -1.
          2   -1    0    0  501    0  0.00000000000E+00 -0.00000000000E+00 -0.13664515444E+04  0.13664515444E+04  0.00000000000E+00 0.  1.
    2000013    1    1    2    0    0  0.62333155604E+03  0.53101914899E+03 -0.38663150773E+03  0.13124433276E+04  0.95000000000E+03 0.  0.
   -2000013    1    1    2    0    0 -0.62333155604E+03 -0.53101914899E+03  0.24386193057E+03  0.12776901841E+04  0.95000000000E+03 0.  0.
<mgrwt>
<rscale>  0 0.25861957E+04</rscale>
<asrwt>0</asrwt>
<pdfrwt beam="2">  1        2 0.21022331E+00 0.25861957E+04</pdfrwt>
<pdfrwt beam="1">  1       -2 0.18825877E+00 0.25861957E+04</pdfrwt>
<totfact> 0.21334529E+00</totfact>
</mgrwt>
</event>
<event>
 4    1  0.1321115E-008  0.2704239E+04  0.7816531E-02  0.8333631E-01
          2   -1    0    0  501    0  0.00000000000E+00  0.00000000000E+00  0.88064909540E+03  0.88064909540E+03  0.00000000000E+00 0. -1.
         -2   -1    0    0    0  501 -0.00000000000E+00 -0.00000000000E+00 -0.20759995267E+04  0.20759995267E+04  0.00000000000E+00 0.  1.
    2000013    1    1    2    0    0  0.61352507948E+03  0.54926722478E+03 -0.53614768388E+02  0.12583648321E+04  0.95000000000E+03 0.  0.
   -2000013    1    1    2    0    0 -0.61352507948E+03 -0.54926722478E+03 -0.11417356630E+04  0.16982837900E+04  0.95000000000E+03 0.  0.
<mgrwt>
<rscale>  0 0.27042390E+04</rscale>
<asrwt>0</asrwt>
<pdfrwt beam="1">  1        2 0.13548448E+00 0.27042390E+04</pdfrwt>
<pdfrwt beam="2">  1       -2 0.31938454E+00 0.27042390E+04</pdfrwt>
<totfact> 0.64033316E-01</totfact>
</mgrwt>
</event>
<event>
 4    1  0.1321115E-008  0.2451589E+04  0.7816531E-02  0.8420438E-01
          2   -1    0    0  501    0  0.00000000000E+00  0.00000000000E+00  0.12922048077E+04  0.12922048077E+04  0.00000000000E+00 0.  1.
         -2   -1    0    0    0  501 -0.00000000000E+00 -0.00000000000E+00 -0.11627973946E+04  0.11627973946E+04  0.00000000000E+00 0. -1.
    2000013    1    1    2    0    0  0.15696671690E+03  0.70217759758E+03 -0.22271582809E+03  0.12123507202E+04  0.95000000000E+03 0.  0.
   -2000013    1    1    2    0    0 -0.15696671690E+03 -0.70217759758E+03  0.35212324123E+03  0.12426514820E+04  0.95000000000E+03 0.  0.
<mgrwt>
<rscale>  0 0.24515892E+04</rscale>
<asrwt>0</asrwt>
<pdfrwt beam="1">  1        2 0.19880074E+00 0.24515892E+04</pdfrwt>
<pdfrwt beam="2">  1       -2 0.17889191E+00 0.24515892E+04</pdfrwt>
<totfact> 0.27610076E+00</totfact>
</mgrwt>
</event>
<event>
 4    1  0.1321115E-008  0.2463211E+04  0.7816531E-02  0.8416210E-01
          2   -1    0    0  501    0  0.00000000000E+00  0.00000000000E+00  0.10732792681E+04  0.10732792681E+04  0.00000000000E+00 0.  1.
         -2   -1    0    0    0  501 -0.00000000000E+00 -0.00000000000E+00 -0.14132877950E+04  0.14132877950E+04  0.00000000000E+00 0. -1.
    2000013    1    1    2    0    0  0.78184697226E+03 -0.10427805730E+02 -0.22491731983E+03  0.12507922401E+04  0.95000000000E+03 0.  0.
   -2000013    1    1    2    0    0 -0.78184697226E+03  0.10427805730E+02 -0.11509120707E+03  0.12357748230E+04  0.95000000000E+03 0.  0.
<mgrwt>
<rscale>  0 0.24632113E+04</rscale>
<asrwt>0</asrwt>
<pdfrwt beam="1">  1        2 0.16511989E+00 0.24632113E+04</pdfrwt>
<pdfrwt beam="2">  1       -2 0.21742889E+00 0.24632113E+04</pdfrwt>
<totfact> 0.20776921E+00</totfact>
</mgrwt>
</event>
<event>
 4    1  0.1321115E-008  0.2459291E+04  0.7816531E-02  0.8417633E-01
         -2   -1    0    0    0  501 -0.00000000000E+00  0.00000000000E+00  0.12943525642E+04  0.12943525642E+04  0.00000000000E+00 0. -1.
          2   -1    0    0  501    0  0.00000000000E+00 -0.00000000000E+00 -0.11681735920E+04  0.11681735920E+04  0.00000000000E+00 0.  1.
    2000013    1    1    2    0    0  0.14819419978E+03  0.72641046691E+03 -0.18196655815E+03  0.12187064928E+04  0.95000000000E+03 0.  0.
   -2000013    1    1    2    0    0 -0.14819419978E+03 -0.72641046691E+03  0.30814553036E+03  0.12438196634E+04  0.95000000000E+03 0.  0.
<mgrwt>
<rscale>  0 0.24592913E+04</rscale>
<asrwt>0</asrwt>
<pdfrwt beam="2">  1        2 0.17971901E+00 0.24592913E+04</pdfrwt>
<pdfrwt beam="1">  1       -2 0.19913116E+00 0.24592913E+04</pdfrwt>
<totfact> 0.23869287E+00</totfact>
</mgrwt>
</event>
<event>
 4    1  0.1321115E-008  0.3412992E+04  0.7816531E-02  0.8134725E-01
         -2   -1    0    0    0  501 -0.00000000000E+00  0.00000000000E+00  0.14446009817E+04  0.14446009817E+04  0.00000000000E+00 0. -1.
          2   -1    0    0  501    0  0.00000000000E+00 -0.00000000000E+00 -0.20158700802E+04  0.20158700802E+04  0.00000000000E+00 0.  1.
    2000013    1    1    2    0    0  0.12654457838E+04 -0.25844971311E+03  0.30685644942E+03  0.16324246281E+04  0.95000000000E+03 0.  0.
   -2000013    1    1    2    0    0 -0.12654457838E+04  0.25844971311E+03 -0.87812554795E+03  0.18280464338E+04  0.95000000000E+03 0.  0.
<mgrwt>
<rscale>  0 0.34129916E+04</rscale>
<asrwt>0</asrwt>
<pdfrwt beam="2">  1        2 0.31013386E+00 0.34129916E+04</pdfrwt>
<pdfrwt beam="1">  1       -2 0.22224631E+00 0.34129916E+04</pdfrwt>
<totfact> 0.51825537E-01</totfact>
</mgrwt>
</event>
<event>
 4    1  0.1321115E-008  0.2443093E+04  0.7816531E-02  0.8423544E-01
         -2   -1    0    0    0  501 -0.00000000000E+00  0.00000000000E+00  0.62940308465E+03  0.62940308465E+03  0.00000000000E+00 0. -1.
          2   -1    0    0  501    0  0.00000000000E+00 -0.00000000000E+00 -0.23707790860E+04  0.23707790860E+04  0.00000000000E+00 0.  1.
    2000013    1    1    2    0    0  0.11096854169E+03 -0.30946746759E+03 -0.18477115518E+02  0.10054479273E+04  0.95000000000E+03 0.  0.
   -2000013    1    1    2    0    0 -0.11096854169E+03  0.30946746759E+03 -0.17228988858E+04  0.19947342433E+04  0.95000000000E+03 0.  0.
<mgrwt>
<rscale>  0 0.24430929E+04</rscale>
<asrwt>0</asrwt>
<pdfrwt beam="2">  1        2 0.36473525E+00 0.24430929E+04</pdfrwt>
<pdfrwt beam="1">  1       -2 0.96831242E-01 0.24430929E+04</pdfrwt>
<totfact> 0.32989099E+00</totfact>
</mgrwt>
</event>
<event>
 4    1  0.1321115E-008  0.2534835E+04  0.7816531E-02  0.8390679E-01
          2   -1    0    0  501    0  0.00000000000E+00  0.00000000000E+00  0.33277054912E+04  0.33277054912E+04  0.00000000000E+00 0.  1.
         -2   -1    0    0    0  501 -0.00000000000E+00 -0.00000000000E+00 -0.48271931622E+03  0.48271931622E+03  0.00000000000E+00 0. -1.
    2000013    1    1    2    0    0 -0.35527394018E+02  0.82057753576E+03  0.16795312949E+04  0.20971254275E+04  0.95000000000E+03 0.  0.
   -2000013    1    1    2    0    0  0.35527394018E+02 -0.82057753576E+03  0.11654548801E+04  0.17132993800E+04  0.95000000000E+03 0.  0.
<mgrwt>
<rscale>  0 0.25348355E+04</rscale>
<asrwt>0</asrwt>
<pdfrwt beam="1">  1        2 0.51195468E+00 0.25348355E+04</pdfrwt>
<pdfrwt beam="2">  1       -2 0.74264512E-01 0.25348355E+04</pdfrwt>
<totfact> 0.15500709E+00</totfact>
</mgrwt>
</event>
<event>
 4    1  0.1321115E-008  0.2144305E+04  0.7816531E-02  0.8541974E-01
         -2   -1    0    0    0  501 -0.00000000000E+00  0.00000000000E+00  0.76725272147E+03  0.76725272147E+03  0.00000000000E+00 0.  1.
          2   -1    0    0  501    0  0.00000000000E+00 -0.00000000000E+00 -0.14982167856E+04  0.14982167856E+04  0.00000000000E+00 0. -1.
    2000013    1    1    2    0    0  0.43510372285E+03 -0.14540596513E+03 -0.16349114553E+03  0.10675614732E+04  0.95000000000E+03 0.  0.
   -2000013    1    1    2    0    0 -0.43510372285E+03  0.14540596513E+03 -0.56747291861E+03  0.11979080339E+04  0.95000000000E+03 0.  0.
<mgrwt>
<rscale>  0 0.21443049E+04</rscale>
<asrwt>0</asrwt>
<pdfrwt beam="2">  1        2 0.23049489E+00 0.21443049E+04</pdfrwt>
<pdfrwt beam="1">  1       -2 0.11803888E+00 0.21443049E+04</pdfrwt>
<totfact> 0.64633480E+00</totfact>
</mgrwt>
</event>
<event>
 4    1  0.1321115E-008  0.2393911E+04  0.7816531E-02  0.8441787E-01
         -2   -1    0    0    0  501 -0.00000000000E+00  0.00000000000E+00  0.70666746190E+03  0.70666746190E+03  0.00000000000E+00 0. -1.
          2   -1    0    0  501    0  0.00000000000E+00 -0.00000000000E+00 -0.20274073728E+04  0.20274073728E+04  0.00000000000E+00 0.  1.
    2000013    1    1    2    0    0  0.19010418617E+03 -0.48044757859E+03 -0.74403445957E+02  0.10839766373E+04  0.95000000000E+03 0.  0.
   -2000013    1    1    2    0    0 -0.19010418617E+03  0.48044757859E+03 -0.12463364650E+04  0.16500981975E+04  0.95000000000E+03 0.  0.
<mgrwt>
<rscale>  0 0.23939113E+04</rscale>
<asrwt>0</asrwt>
<pdfrwt beam="2">  1        2 0.31190882E+00 0.23939113E+04</pdfrwt>
<pdfrwt beam="1">  1       -2 0.10871807E+00 0.23939113E+04</pdfrwt>
<totfact> 0.39224924E+00</totfact>
</mgrwt>
</event>
<event>
 4    1  0.1321115E-008  0.2328511E+04  0.7816531E-02  0.8466764E-01
         -2   -1    0    0    0  501 -0.00000000000E+00  0.00000000000E+00  0.50358941367E+03  0.50358941367E+03  0.00000000000E+00 0. -1.
          2   -1    0    0  501    0  0.00000000000E+00 -0.00000000000E+00 -0.26916593000E+04  0.26916593000E+04  0.00000000000E+00 0.  1.
    2000013    1    1    2    0    0  0.21550664556E+03  0.59680810650E+03 -0.14020018923E+04  0.18085166121E+04  0.95000000000E+03 0.  0.
   -2000013    1    1    2    0    0 -0.21550664556E+03 -0.59680810650E+03 -0.78606799403E+03  0.13867321016E+04  0.95000000000E+03 0.  0.
<mgrwt>
<rscale>  0 0.23285112E+04</rscale>
<asrwt>0</asrwt>
<pdfrwt beam="2">  1        2 0.41410143E+00 0.23285112E+04</pdfrwt>
<pdfrwt beam="1">  1       -2 0.77475295E-01 0.23285112E+04</pdfrwt>
<totfact> 0.36093564E+00</totfact>
</mgrwt>
</event>
<event>
 4    1  0.1321115E-008  0.2168242E+04  0.7816531E-02  0.8531764E-01
         -2   -1    0    0    0  501 -0.00000000000E+00  0.00000000000E+00  0.71326435477E+03  0.71326435477E+03  0.00000000000E+00 0. -1.
          2   -1    0    0  501    0  0.00000000000E+00 -0.00000000000E+00 -0.16478021491E+04  0.16478021491E+04  0.00000000000E+00 0.  1.
    2000013    1    1    2    0    0  0.23583605903E+03 -0.46145718642E+03 -0.39621953799E+03  0.11524110829E+04  0.95000000000E+03 0.  0.
   -2000013    1    1    2    0    0 -0.23583605903E+03  0.46145718642E+03 -0.53831825638E+03  0.12086554210E+04  0.95000000000E+03 0.  0.
<mgrwt>
<rscale>  0 0.21682422E+04</rscale>
<asrwt>0</asrwt>
<pdfrwt beam="2">  1        2 0.25350802E+00 0.21682422E+04</pdfrwt>
<pdfrwt beam="1">  1       -2 0.10973298E+00 0.21682422E+04</pdfrwt>
<totfact> 0.63518717E+00</totfact>
</mgrwt>
</event>
<event>
 4    1  0.1321115E-008  0.2699712E+04  0.7816531E-02  0.8335098E-01
         -2   -1    0    0    0  501 -0.00000000000E+00  0.00000000000E+00  0.91713583078E+03  0.91713583078E+03  0.00000000000E+00 0. -1.
          2   -1    0    0  501    0  0.00000000000E+00 -0.00000000000E+00 -0.19867413184E+04  0.19867413184E+04  0.00000000000E+00 0.  1.
    2000013    1    1    2    0    0  0.76594295034E+03 -0.11052197863E+03 -0.11439596155E+04  0.16763136082E+04  0.95000000000E+03 0.  0.
   -2000013    1    1    2    0    0 -0.76594295034E+03  0.11052197863E+03  0.74354127898E+02  0.12275635410E+04  0.95000000000E+03 0.  0.
<mgrwt>
<rscale>  0 0.26997123E+04</rscale>
<asrwt>0</asrwt>
<pdfrwt beam="2">  1        2 0.30565250E+00 0.26997123E+04</pdfrwt>
<pdfrwt beam="1">  1       -2 0.14109782E+00 0.26997123E+04</pdfrwt>
<totfact> 0.20983287E+00</totfact>
</mgrwt>
</event>
<event>
 4    1  0.1321115E-008  0.2054441E+04  0.7816531E-02  0.8581582E-01
          2   -1    0    0  501    0  0.00000000000E+00  0.00000000000E+00  0.10367017374E+04  0.10367017374E+04  0.00000000000E+00 0.  1.
         -2   -1    0    0    0  501 -0.00000000000E+00 -0.00000000000E+00 -0.10178262273E+04  0.10178262273E+04  0.00000000000E+00 0. -1.
    2000013    1    1    2    0    0 -0.27635847148E+03 -0.27337164368E+03  0.49140285586E+02  0.10276287404E+04  0.95000000000E+03 0.  0.
   -2000013    1    1    2    0    0  0.27635847148E+03  0.27337164368E+03 -0.30264775403E+02  0.10268992243E+04  0.95000000000E+03 0.  0.
<mgrwt>
<rscale>  0 0.20544413E+04</rscale>
<asrwt>0</asrwt>
<pdfrwt beam="1">  1        2 0.15949258E+00 0.20544413E+04</pdfrwt>
<pdfrwt beam="2">  1       -2 0.15658865E+00 0.20544413E+04</pdfrwt>
<totfact> 0.58950400E+00</totfact>
</mgrwt>
</event>
<event>
 4    1  0.1321115E-008  0.2245309E+04  0.7816531E-02  0.8499803E-01
          1   -1    0    0  501    0  0.00000000000E+00  0.00000000000E+00  0.11053056534E+04  0.11053056534E+04  0.00000000000E+00 0. -1.
         -1   -1    0    0    0  501 -0.00000000000E+00 -0.00000000000E+00 -0.11402755585E+04  0.11402755585E+04  0.00000000000E+00 0.  1.
    2000013    1    1    2    0    0  0.44518949895E+03 -0.36502205648E+03  0.14507161559E+03  0.11202591510E+04  0.95000000000E+03 0.  0.
   -2000013    1    1    2    0    0 -0.44518949895E+03  0.36502205648E+03 -0.18004152073E+03  0.11253220610E+04  0.95000000000E+03 0.  0.
<mgrwt>
<rscale>  0 0.22453089E+04</rscale>
<asrwt>0</asrwt>
<pdfrwt beam="1">  1        1 0.17004702E+00 0.22453089E+04</pdfrwt>
<pdfrwt beam="2">  1       -1 0.17542701E+00 0.22453089E+04</pdfrwt>
<totfact> 0.25622343E+00</totfact>
</mgrwt>
</event>
<event>
 4    1  0.1321115E-008  0.2658980E+04  0.7816531E-02  0.8348438E-01
         -2   -1    0    0    0  501 -0.00000000000E+00  0.00000000000E+00  0.93522985736E+03  0.93522985736E+03  0.00000000000E+00 0. -1.
          2   -1    0    0  501    0  0.00000000000E+00 -0.00000000000E+00 -0.18899568051E+04  0.18899568051E+04  0.00000000000E+00 0.  1.
    2000013    1    1    2    0    0 -0.82814289734E+03 -0.35529314244E+03 -0.23277857629E+03  0.13299397509E+04  0.95000000000E+03 0.  0.
   -2000013    1    1    2    0    0  0.82814289734E+03  0.35529314244E+03 -0.72194837148E+03  0.14952469116E+04  0.95000000000E+03 0.  0.
<mgrwt>
<rscale>  0 0.26589803E+04</rscale>
<asrwt>0</asrwt>
<pdfrwt beam="2">  1        2 0.29076258E+00 0.26589803E+04</pdfrwt>
<pdfrwt beam="1">  1       -2 0.14388152E+00 0.26589803E+04</pdfrwt>
<totfact> 0.22643622E+00</totfact>
</mgrwt>
</event>
<event>
 4    1  0.1321115E-008  0.2649244E+04  0.7816531E-02  0.8351664E-01
         -2   -1    0    0    0  501 -0.00000000000E+00  0.00000000000E+00  0.92044463443E+03  0.92044463443E+03  0.00000000000E+00 0. -1.
          2   -1    0    0  501    0  0.00000000000E+00 -0.00000000000E+00 -0.19062784824E+04  0.19062784824E+04  0.00000000000E+00 0.  1.
    2000013    1    1    2    0    0  0.80165209768E+03  0.41239266699E+03 -0.70473572372E+03  0.14872344260E+04  0.95000000000E+03 0.  0.
   -2000013    1    1    2    0    0 -0.80165209768E+03 -0.41239266699E+03 -0.28109812425E+03  0.13394886909E+04  0.95000000000E+03 0.  0.
<mgrwt>
<rscale>  0 0.26492443E+04</rscale>
<asrwt>0</asrwt>
<pdfrwt beam="2">  1        2 0.29327361E+00 0.26492443E+04</pdfrwt>
<pdfrwt beam="1">  1       -2 0.14160687E+00 0.26492443E+04</pdfrwt>
<totfact> 0.23138316E+00</totfact>
</mgrwt>
</event>
<event>
 4    1  0.1321115E-008  0.2215198E+04  0.7816531E-02  0.8512129E-01
         -2   -1    0    0    0  501 -0.00000000000E+00  0.00000000000E+00  0.52371194588E+03  0.52371194588E+03  0.00000000000E+00 0. -1.
          2   -1    0    0  501    0  0.00000000000E+00 -0.00000000000E+00 -0.23424633690E+04  0.23424633690E+04  0.00000000000E+00 0.  1.
    2000013    1    1    2    0    0  0.44967002754E+03  0.28624150939E+03 -0.11685976996E+04  0.15975787677E+04  0.95000000000E+03 0.  0.
   -2000013    1    1    2    0    0 -0.44967002754E+03 -0.28624150939E+03 -0.65015372346E+03  0.12685965472E+04  0.95000000000E+03 0.  0.
<mgrwt>
<rscale>  0 0.22151985E+04</rscale>
<asrwt>0</asrwt>
<pdfrwt beam="2">  1        2 0.36037898E+00 0.22151985E+04</pdfrwt>
<pdfrwt beam="1">  1       -2 0.80571068E-01 0.22151985E+04</pdfrwt>
<totfact> 0.53250297E+00</totfact>
</mgrwt>
</event>
<event>
 4    1  0.1321115E-008  0.3502439E+04  0.7816531E-02  0.8113212E-01
          2   -1    0    0  501    0  0.00000000000E+00  0.00000000000E+00  0.25143962964E+04  0.25143962964E+04  0.00000000000E+00 0.  1.
         -2   -1    0    0    0  501 -0.00000000000E+00 -0.00000000000E+00 -0.12196841667E+04  0.12196841667E+04  0.00000000000E+00 0. -1.
    2000013    1    1    2    0    0 -0.10060205306E+04  0.10624166838E+04  0.81066251919E+03  0.19236632340E+04  0.95000000000E+03 0.  0.
   -2000013    1    1    2    0    0  0.10060205306E+04 -0.10624166838E+04  0.48404961046E+03  0.18104172291E+04  0.95000000000E+03 0.  0.
<mgrwt>
<rscale>  0 0.35024388E+04</rscale>
<asrwt>0</asrwt>
<pdfrwt beam="1">  1        2 0.38683020E+00 0.35024388E+04</pdfrwt>
<pdfrwt beam="2">  1       -2 0.18764372E+00 0.35024388E+04</pdfrwt>
<totfact> 0.45097086E-01</totfact>
</mgrwt>
</event>
<event>
 4    1  0.1321115E-008  0.3115519E+04  0.7816531E-02  0.8211492E-01
          2   -1    0    0  501    0  0.00000000000E+00  0.00000000000E+00  0.19881369457E+04  0.19881369457E+04  0.00000000000E+00 0. -1.
         -2   -1    0    0    0  501 -0.00000000000E+00 -0.00000000000E+00 -0.12205472455E+04  0.12205472455E+04  0.00000000000E+00 0.  1.
    2000013    1    1    2    0    0 -0.89369712818E+03  0.51365355199E+02 -0.49179402026E+03  0.13948814699E+04  0.95000000000E+03 0.  0.
   -2000013    1    1    2    0    0  0.89369712818E+03 -0.51365355199E+02  0.12593837205E+04  0.18138027214E+04  0.95000000000E+03 0.  0.
<mgrwt>
<rscale>  0 0.31155193E+04</rscale>
<asrwt>0</asrwt>
<pdfrwt beam="1">  1        2 0.30586722E+00 0.31155193E+04</pdfrwt>
<pdfrwt beam="2">  1       -2 0.18777650E+00 0.31155193E+04</pdfrwt>
<totfact> 0.92293086E-01</totfact>
</mgrwt>
</event>
<event>
 4    1  0.1321115E-008  0.2925043E+04  0.7816531E-02  0.8265465E-01
          2   -1    0    0  501    0  0.00000000000E+00  0.00000000000E+00  0.27248823141E+04  0.27248823141E+04  0.00000000000E+00 0.  1.
         -2   -1    0    0    0  501 -0.00000000000E+00 -0.00000000000E+00 -0.78497658452E+03  0.78497658452E+03  0.00000000000E+00 0. -1.
    2000013    1    1    2    0    0  0.20769297581E+03  0.86461635379E+03  0.16880377806E+03  0.13121328160E+04  0.95000000000E+03 0.  0.
   -2000013    1    1    2    0    0 -0.20769297581E+03 -0.86461635379E+03  0.17711019516E+04  0.21977260826E+04  0.95000000000E+03 0.  0.
<mgrwt>
<rscale>  0 0.29250428E+04</rscale>
<asrwt>0</asrwt>
<pdfrwt beam="1">  1        2 0.41921266E+00 0.29250428E+04</pdfrwt>
<pdfrwt beam="2">  1       -2 0.12076563E+00 0.29250428E+04</pdfrwt>
<totfact> 0.11547654E+00</totfact>
</mgrwt>
</event>
<event>
 4    1  0.1321115E-008  0.2914898E+04  0.7816531E-02  0.8268459E-01
          1   -1    0    0  501    0  0.00000000000E+00  0.00000000000E+00  0.21409937117E+04  0.21409937117E+04  0.00000000000E+00 0. -1.
         -1   -1    0    0    0  501 -0.00000000000E+00 -0.00000000000E+00 -0.99213648004E+03  0.99213648004E+03  0.00000000000E+00 0.  1.
    2000013    1    1    2    0    0 -0.36449100593E+03 -0.81911648995E+03  0.12692393446E+04  0.18213385274E+04  0.95000000000E+03 0.  0.
   -2000013    1    1    2    0    0  0.36449100593E+03  0.81911648995E+03 -0.12038211296E+03  0.13117916643E+04  0.95000000000E+03 0.  0.
<mgrwt>
<rscale>  0 0.29148983E+04</rscale>
<asrwt>0</asrwt>
<pdfrwt beam="1">  1        1 0.32938365E+00 0.29148983E+04</pdfrwt>
<pdfrwt beam="2">  1       -1 0.15263638E+00 0.29148983E+04</pdfrwt>
<totfact> 0.68175380E-01</totfact>
</mgrwt>
</event>
<event>
 4    1  0.1321115E-008  0.2605854E+04  0.7816531E-02  0.8366216E-01
         -2   -1    0    0    0  501 -0.00000000000E+00  0.00000000000E+00  0.12398373955E+04  0.12398373955E+04  0.00000000000E+00 0. -1.
          2   -1    0    0  501    0  0.00000000000E+00 -0.00000000000E+00 -0.13692266745E+04  0.13692266745E+04  0.00000000000E+00 0.  1.
    2000013    1    1    2    0    0 -0.57421880263E+03 -0.22488936384E+03 -0.70955019199E+03  0.13365118534E+04  0.95000000000E+03 0.  0.
   -2000013    1    1    2    0    0  0.57421880263E+03  0.22488936384E+03  0.58016091294E+03  0.12725522167E+04  0.95000000000E+03 0.  0.
<mgrwt>
<rscale>  0 0.26058537E+04</rscale>
<asrwt>0</asrwt>
<pdfrwt beam="2">  1        2 0.21065026E+00 0.26058537E+04</pdfrwt>
<pdfrwt beam="1">  1       -2 0.19074422E+00 0.26058537E+04</pdfrwt>
<totfact> 0.20420330E+00</totfact>
</mgrwt>
</event>
<event>
 4    1  0.1321115E-008  0.2364939E+04  0.7816531E-02  0.8452748E-01
          2   -1    0    0  501    0  0.00000000000E+00  0.00000000000E+00  0.30510656204E+04  0.30510656204E+04  0.00000000000E+00 0.  1.
         -2   -1    0    0    0  501 -0.00000000000E+00 -0.00000000000E+00 -0.45827729664E+03  0.45827729664E+03  0.00000000000E+00 0. -1.
    2000013    1    1    2    0    0  0.63063500993E+03  0.15222263597E+03  0.17024036349E+04  0.20546411810E+04  0.95000000000E+03 0.  0.
   -2000013    1    1    2    0    0 -0.63063500993E+03 -0.15222263597E+03  0.89038468890E+03  0.14547017361E+04  0.95000000000E+03 0.  0.
<mgrwt>
<rscale>  0 0.23649390E+04</rscale>
<asrwt>0</asrwt>
<pdfrwt beam="1">  1        2 0.46939470E+00 0.23649390E+04</pdfrwt>
<pdfrwt beam="2">  1       -2 0.70504201E-01 0.23649390E+04</pdfrwt>
<totfact> 0.26699644E+00</totfact>
</mgrwt>
</event>
<event>
 4    1  0.1321115E-008  0.2356330E+04  0.7816531E-02  0.8456036E-01
          2   -1    0    0  501    0  0.00000000000E+00  0.00000000000E+00  0.22634867350E+04  0.22634867350E+04  0.00000000000E+00 0.  1.
         -2   -1    0    0    0  501 -0.00000000000E+00 -0.00000000000E+00 -0.61324529551E+03  0.61324529551E+03  0.00000000000E+00 0. -1.
    2000013    1    1    2    0    0  0.50443289817E+03  0.25774568879E+03  0.13205632107E+04  0.17225773080E+04  0.95000000000E+03 0.  0.
   -2000013    1    1    2    0    0 -0.50443289817E+03 -0.25774568879E+03  0.32967822883E+03  0.11541547225E+04  0.95000000000E+03 0.  0.
<mgrwt>
<rscale>  0 0.23563299E+04</rscale>
<asrwt>0</asrwt>
<pdfrwt beam="1">  1        2 0.34822873E+00 0.23563299E+04</pdfrwt>
<pdfrwt beam="2">  1       -2 0.94345431E-01 0.23563299E+04</pdfrwt>
<totfact> 0.40638834E+00</totfact>
</mgrwt>
</event>
<event>
 4    1  0.1321115E-008  0.2032324E+04  0.7816531E-02  0.8591655E-01
         -2   -1    0    0    0  501 -0.00000000000E+00  0.00000000000E+00  0.79512137489E+03  0.79512137489E+03  0.00000000000E+00 0. -1.
          2   -1    0    0  501    0  0.00000000000E+00 -0.00000000000E+00 -0.12986513155E+04  0.12986513155E+04  0.00000000000E+00 0.  1.
    2000013    1    1    2    0    0 -0.24517698671E+03 -0.26421822389E+03 -0.26489369855E+03  0.10500436639E+04  0.95000000000E+03 0.  0.
   -2000013    1    1    2    0    0  0.24517698671E+03  0.26421822389E+03 -0.23863624206E+03  0.10437290265E+04  0.95000000000E+03 0.  0.
<mgrwt>
<rscale>  0 0.20323242E+04</rscale>
<asrwt>0</asrwt>
<pdfrwt beam="2">  1        2 0.19979251E+00 0.20323242E+04</pdfrwt>
<pdfrwt beam="1">  1       -2 0.12232637E+00 0.20323242E+04</pdfrwt>
<totfact> 0.77693249E+00</totfact>
</mgrwt>
</event>
<event>
 4    1  0.1321115E-008  0.2249922E+04  0.7816531E-02  0.8497932E-01
          2   -1    0    0  501    0  0.00000000000E+00  0.00000000000E+00  0.17700536609E+04  0.17700536609E+04  0.00000000000E+00 0.  1.
         -2   -1    0    0    0  501 -0.00000000000E+00 -0.00000000000E+00 -0.71497119930E+03  0.71497119930E+03  0.00000000000E+00 0. -1.
    2000013    1    1    2    0    0 -0.17648821362E+03  0.50636145284E+03  0.22408195075E+03  0.11136708361E+04  0.95000000000E+03 0.  0.
   -2000013    1    1    2    0    0  0.17648821362E+03 -0.50636145284E+03  0.83100051088E+03  0.13713540241E+04  0.95000000000E+03 0.  0.
<mgrwt>
<rscale>  0 0.22499221E+04</rscale>
<asrwt>0</asrwt>
<pdfrwt beam="1">  1        2 0.27231595E+00 0.22499221E+04</pdfrwt>
<pdfrwt beam="2">  1       -2 0.10999557E+00 0.22499221E+04</pdfrwt>
<totfact> 0.53631254E+00</totfact>
</mgrwt>
</event>
<event>
 4    1  0.1321115E-008  0.2059837E+04  0.7816531E-02  0.8579145E-01
          2   -1    0    0  501    0  0.00000000000E+00  0.00000000000E+00  0.15868682791E+04  0.15868682791E+04  0.00000000000E+00 0.  1.
         -2   -1    0    0    0  501 -0.00000000000E+00 -0.00000000000E+00 -0.66844389591E+03  0.66844389591E+03  0.00000000000E+00 0. -1.
    2000013    1    1    2    0    0 -0.99061763503E+02  0.28449897480E+03  0.74363192498E+03  0.12434795292E+04  0.95000000000E+03 0.  0.
   -2000013    1    1    2    0    0  0.99061763503E+02 -0.28449897480E+03  0.17479245817E+03  0.10118326458E+04  0.95000000000E+03 0.  0.
<mgrwt>
<rscale>  0 0.20598373E+04</rscale>
<asrwt>0</asrwt>
<pdfrwt beam="1">  1        2 0.24413358E+00 0.20598373E+04</pdfrwt>
<pdfrwt beam="2">  1       -2 0.10283752E+00 0.20598373E+04</pdfrwt>
<totfact> 0.81038319E+00</totfact>
</mgrwt>
</event>
<event>
 4    1  0.1321115E-008  0.2296984E+04  0.7816531E-02  0.8479111E-01
          2   -1    0    0  501    0  0.00000000000E+00  0.00000000000E+00  0.29655021281E+04  0.29655021281E+04  0.00000000000E+00 0.  1.
         -2   -1    0    0    0  501 -0.00000000000E+00 -0.00000000000E+00 -0.44479264211E+03  0.44479264211E+03  0.00000000000E+00 0. -1.
    2000013    1    1    2    0    0  0.59609607010E+03 -0.21842239151E+02  0.89448958527E+03  0.14347192152E+04  0.95000000000E+03 0.  0.
   -2000013    1    1    2    0    0 -0.59609607010E+03  0.21842239151E+02  0.16262199007E+04  0.19755755550E+04  0.95000000000E+03 0.  0.
<mgrwt>
<rscale>  0 0.22969837E+04</rscale>
<asrwt>0</asrwt>
<pdfrwt beam="1">  1        2 0.45623108E+00 0.22969837E+04</pdfrwt>
<pdfrwt beam="2">  1       -2 0.68429639E-01 0.22969837E+04</pdfrwt>
<totfact> 0.32434762E+00</totfact>
</mgrwt>
</event>
<event>
 4    1  0.1321115E-008  0.2753472E+04  0.7816531E-02  0.8317861E-01
          2   -1    0    0  501    0  0.00000000000E+00  0.00000000000E+00  0.16834409750E+04  0.16834409750E+04  0.00000000000E+00 0.  1.
         -2   -1    0    0    0  501 -0.00000000000E+00 -0.00000000000E+00 -0.11259092248E+04  0.11259092248E+04  0.00000000000E+00 0. -1.
    2000013    1    1    2    0    0  0.88623386390E+03 -0.20253892479E+03  0.69505230518E+03  0.14872895429E+04  0.95000000000E+03 0.  0.
   -2000013    1    1    2    0    0 -0.88623386390E+03  0.20253892479E+03 -0.13752055497E+03  0.13220606569E+04  0.95000000000E+03 0.  0.
<mgrwt>
<rscale>  0 0.27534718E+04</rscale>
<asrwt>0</asrwt>
<pdfrwt beam="1">  1        2 0.25899092E+00 0.27534718E+04</pdfrwt>
<pdfrwt beam="2">  1       -2 0.17321680E+00 0.27534718E+04</pdfrwt>
<totfact> 0.17698919E+00</totfact>
</mgrwt>
</event>
<event>
 4    1  0.1321115E-008  0.2631245E+04  0.7816531E-02  0.8357665E-01
         -2   -1    0    0    0  501 -0.00000000000E+00  0.00000000000E+00  0.99752336439E+03  0.99752336439E+03  0.00000000000E+00 0. -1.
          2   -1    0    0  501    0  0.00000000000E+00 -0.00000000000E+00 -0.17351592619E+04  0.17351592619E+04  0.00000000000E+00 0.  1.
    2000013    1    1    2    0    0  0.40828076796E+03 -0.76955289449E+03 -0.64252513131E+03  0.14402233810E+04  0.95000000000E+03 0.  0.
   -2000013    1    1    2    0    0 -0.40828076796E+03  0.76955289449E+03 -0.95110766243E+02  0.12924592453E+04  0.95000000000E+03 0.  0.
<mgrwt>
<rscale>  0 0.26312445E+04</rscale>
<asrwt>0</asrwt>
<pdfrwt beam="2">  1        2 0.26694758E+00 0.26312445E+04</pdfrwt>
<pdfrwt beam="1">  1       -2 0.15346513E+00 0.26312445E+04</pdfrwt>
<totfact> 0.23323807E+00</totfact>
</mgrwt>
</event>
<event>
 4    1  0.1321115E-008  0.2311039E+04  0.7816531E-02  0.8473581E-01
          2   -1    0    0  501    0  0.00000000000E+00  0.00000000000E+00  0.28851508734E+04  0.28851508734E+04  0.00000000000E+00 0.  1.
         -2   -1    0    0    0  501 -0.00000000000E+00 -0.00000000000E+00 -0.46279209272E+03  0.46279209272E+03  0.00000000000E+00 0. -1.
    2000013    1    1    2    0    0  0.64090912328E+03  0.13969346351E+03  0.12828301136E+04  0.17258133933E+04  0.95000000000E+03 0.  0.
   -2000013    1    1    2    0    0 -0.64090912328E+03 -0.13969346351E+03  0.11395286671E+04  0.16221295729E+04  0.95000000000E+03 0.  0.
<mgrwt>
<rscale>  0 0.23110387E+04</rscale>
<asrwt>0</asrwt>
<pdfrwt beam="1">  1        2 0.44386935E+00 0.23110387E+04</pdfrwt>
<pdfrwt beam="2">  1       -2 0.71198786E-01 0.23110387E+04</pdfrwt>
<totfact> 0.33303053E+00</totfact>
</mgrwt>
</event>
<event>
 4    1  0.1321115E-008  0.1961154E+04  0.7816531E-02  0.8625001E-01
         -2   -1    0    0    0  501 -0.00000000000E+00  0.00000000000E+00  0.34710133142E+03  0.34710133142E+03  0.00000000000E+00 0. -1.
          2   -1    0    0  501    0  0.00000000000E+00 -0.00000000000E+00 -0.27701744351E+04  0.27701744351E+04  0.00000000000E+00 0.  1.
    2000013    1    1    2    0    0 -0.76453857481E+02  0.15167211485E+03 -0.93539310278E+03  0.13439902825E+04  0.95000000000E+03 0.  0.
   -2000013    1    1    2    0    0  0.76453857481E+02 -0.15167211485E+03 -0.14876800009E+04  0.17732854841E+04  0.95000000000E+03 0.  0.
<mgrwt>
<rscale>  0 0.19611540E+04</rscale>
<asrwt>0</asrwt>
<pdfrwt beam="2">  1        2 0.42618068E+00 0.19611540E+04</pdfrwt>
<pdfrwt beam="1">  1       -2 0.53400205E-01 0.19611540E+04</pdfrwt>
<totfact> 0.74369893E+00</totfact>
</mgrwt>
</event>
<event>
 4    1  0.1321115E-008  0.3115132E+04  0.7816531E-02  0.8211597E-01
          2   -1    0    0  501    0  0.00000000000E+00  0.00000000000E+00  0.28801806481E+04  0.28801806481E+04  0.00000000000E+00 0.  1.
         -2   -1    0    0    0  501 -0.00000000000E+00 -0.00000000000E+00 -0.84231249416E+03  0.84231249416E+03  0.00000000000E+00 0. -1.
    2000013    1    1    2    0    0  0.10924670436E+04 -0.27282055703E+03  0.41479744245E+03  0.15305137098E+04  0.95000000000E+03 0.  0.
   -2000013    1    1    2    0    0 -0.10924670436E+04  0.27282055703E+03  0.16230707114E+04  0.21919794324E+04  0.95000000000E+03 0.  0.
<mgrwt>
<rscale>  0 0.31151322E+04</rscale>
<asrwt>0</asrwt>
<pdfrwt beam="1">  1        2 0.44310471E+00 0.31151322E+04</pdfrwt>
<pdfrwt beam="2">  1       -2 0.12958654E+00 0.31151322E+04</pdfrwt>
<totfact> 0.76667733E-01</totfact>
</mgrwt>
</event>
<event>
 4    1  0.1321115E-008  0.2812859E+04  0.7816531E-02  0.8299287E-01
          2   -1    0    0  501    0  0.00000000000E+00  0.00000000000E+00  0.88041336212E+03  0.88041336212E+03  0.00000000000E+00 0.  1.
         -2   -1    0    0    0  501 -0.00000000000E+00 -0.00000000000E+00 -0.22467224500E+04  0.22467224500E+04  0.00000000000E+00 0. -1.
    2000013    1    1    2    0    0  0.49934359984E+03 -0.86524349942E+03 -0.99275469587E+03  0.16988384944E+04  0.95000000000E+03 0.  0.
   -2000013    1    1    2    0    0 -0.49934359984E+03  0.86524349942E+03 -0.37355439203E+03  0.14282973177E+04  0.95000000000E+03 0.  0.
<mgrwt>
<rscale>  0 0.28128594E+04</rscale>
<asrwt>0</asrwt>
<pdfrwt beam="1">  1        2 0.13544821E+00 0.28128594E+04</pdfrwt>
<pdfrwt beam="2">  1       -2 0.34564961E+00 0.28128594E+04</pdfrwt>
<totfact> 0.43552603E-01</totfact>
</mgrwt>
</event>
<event>
 4    1  0.1321115E-008  0.3379677E+04  0.7816531E-02  0.8142912E-01
          1   -1    0    0  501    0  0.00000000000E+00  0.00000000000E+00  0.35873220173E+04  0.35873220173E+04  0.00000000000E+00 0.  1.
         -1   -1    0    0    0  501 -0.00000000000E+00 -0.00000000000E+00 -0.79601298675E+03  0.79601298675E+03  0.00000000000E+00 0. -1.
    2000013    1    1    2    0    0  0.11856557576E+04  0.66488434320E+03  0.97498035007E+03  0.19237820689E+04  0.95000000000E+03 0.  0.
   -2000013    1    1    2    0    0 -0.11856557576E+04 -0.66488434320E+03  0.18163286805E+04  0.24595529352E+04  0.95000000000E+03 0.  0.
<mgrwt>
<rscale>  0 0.33796774E+04</rscale>
<asrwt>0</asrwt>
<pdfrwt beam="1">  1        1 0.55189569E+00 0.33796774E+04</pdfrwt>
<pdfrwt beam="2">  1       -1 0.12246354E+00 0.33796774E+04</pdfrwt>
<totfact> 0.10317802E-01</totfact>
</mgrwt>
</event>
<event>
 4    1  0.1321115E-008  0.3745677E+04  0.7816531E-02  0.8057914E-01
         -2   -1    0    0    0  501 -0.00000000000E+00  0.00000000000E+00  0.13207552910E+04  0.13207552910E+04  0.00000000000E+00 0. -1.
          2   -1    0    0  501    0  0.00000000000E+00 -0.00000000000E+00 -0.26556960855E+04  0.26556960855E+04  0.00000000000E+00 0.  1.
    2000013    1    1    2    0    0 -0.32892053205E+02 -0.16007095163E+04 -0.45075662395E+03  0.19154723639E+04  0.95000000000E+03 0.  0.
   -2000013    1    1    2    0    0  0.32892053205E+02  0.16007095163E+04 -0.88418417055E+03  0.20609790126E+04  0.95000000000E+03 0.  0.
<mgrwt>
<rscale>  0 0.37456773E+04</rscale>
<asrwt>0</asrwt>
<pdfrwt beam="2">  1        2 0.40856863E+00 0.37456773E+04</pdfrwt>
<pdfrwt beam="1">  1       -2 0.20319312E+00 0.37456773E+04</pdfrwt>
<totfact> 0.28796596E-01</totfact>
</mgrwt>
</event>
<event>
 4    1  0.1321115E-008  0.2334198E+04  0.7816531E-02  0.8464558E-01
         -2   -1    0    0    0  501 -0.00000000000E+00  0.00000000000E+00  0.17424886846E+04  0.17424886846E+04  0.00000000000E+00 0. -1.
          2   -1    0    0  501    0  0.00000000000E+00 -0.00000000000E+00 -0.78170956420E+03  0.78170956420E+03  0.00000000000E+00 0.  1.
    2000013    1    1    2    0    0 -0.41409211439E+03 -0.15707335452E+03  0.10354702202E+04  0.14733780557E+04  0.95000000000E+03 0.  0.
   -2000013    1    1    2    0    0  0.41409211439E+03  0.15707335452E+03 -0.74691099844E+02  0.10508201931E+04  0.95000000000E+03 0.  0.
<mgrwt>
<rscale>  0 0.23341980E+04</rscale>
<asrwt>0</asrwt>
<pdfrwt beam="2">  1        2 0.12026301E+00 0.23341980E+04</pdfrwt>
<pdfrwt beam="1">  1       -2 0.26807518E+00 0.23341980E+04</pdfrwt>
<totfact> 0.15990966E+00</totfact>
</mgrwt>
</event>
<event>
 4    1  0.1321115E-008  0.4132950E+04  0.7816531E-02  0.7978250E-01
         -2   -1    0    0    0  501 -0.00000000000E+00  0.00000000000E+00  0.12573286155E+04  0.12573286155E+04  0.00000000000E+00 0.  1.
          2   -1    0    0  501    0  0.00000000000E+00 -0.00000000000E+00 -0.33963435335E+04  0.33963435335E+04  0.00000000000E+00 0. -1.
    2000013    1    1    2    0    0  0.12415396832E+04 -0.84688014916E+03 -0.22553831597E+04  0.28719122495E+04  0.95000000000E+03 0.  0.
   -2000013    1    1    2    0    0 -0.12415396832E+04  0.84688014916E+03  0.11636824164E+03  0.17817598996E+04  0.95000000000E+03 0.  0.
<mgrwt>
<rscale>  0 0.41329505E+04</rscale>
<asrwt>0</asrwt>
<pdfrwt beam="2">  1        2 0.52251439E+00 0.41329505E+04</pdfrwt>
<pdfrwt beam="1">  1       -2 0.19343517E+00 0.41329505E+04</pdfrwt>
<totfact> 0.10985142E-01</totfact>
</mgrwt>
</event>
<event>
 4    1  0.1321115E-008  0.2156365E+04  0.7816531E-02  0.8536813E-01
          2   -1    0    0  501    0  0.00000000000E+00  0.00000000000E+00  0.15750540655E+04  0.15750540655E+04  0.00000000000E+00 0.  1.
         -2   -1    0    0    0  501 -0.00000000000E+00 -0.00000000000E+00 -0.73805557553E+03  0.73805557553E+03  0.00000000000E+00 0. -1.
    2000013    1    1    2    0    0 -0.20270080162E+03  0.42876129287E+03  0.61933457151E+03  0.12292270631E+04  0.95000000000E+03 0.  0.
   -2000013    1    1    2    0    0  0.20270080162E+03 -0.42876129287E+03  0.21766391843E+03  0.10838825779E+04  0.95000000000E+03 0.  0.
<mgrwt>
<rscale>  0 0.21563649E+04</rscale>
<asrwt>0</asrwt>
<pdfrwt beam="1">  1        2 0.24231601E+00 0.21563649E+04</pdfrwt>
<pdfrwt beam="2">  1       -2 0.11354701E+00 0.21563649E+04</pdfrwt>
<totfact> 0.64266018E+00</totfact>
</mgrwt>
</event>
<event>
 4    1  0.1321115E-008  0.2608920E+04  0.7816531E-02  0.8365177E-01
         -2   -1    0    0    0  501 -0.00000000000E+00  0.00000000000E+00  0.43507159467E+03  0.43507159467E+03  0.00000000000E+00 0. -1.
          2   -1    0    0  501    0  0.00000000000E+00 -0.00000000000E+00 -0.39111182572E+04  0.39111182572E+04  0.00000000000E+00 0.  1.
    2000013    1    1    2    0    0  0.88517382844E+03  0.11179445118E+03 -0.16454835827E+04  0.20990824011E+04  0.95000000000E+03 0.  0.
   -2000013    1    1    2    0    0 -0.88517382844E+03 -0.11179445118E+03 -0.18305630799E+04  0.22471074508E+04  0.95000000000E+03 0.  0.
<mgrwt>
<rscale>  0 0.26089204E+04</rscale>
<asrwt>0</asrwt>
<pdfrwt beam="2">  1        2 0.60171049E+00 0.26089204E+04</pdfrwt>
<pdfrwt beam="1">  1       -2 0.66934092E-01 0.26089204E+04</pdfrwt>
<totfact> 0.73118281E-01</totfact>
</mgrwt>
</event>
<event>
 4    1  0.1321115E-008  0.3094194E+04  0.7816531E-02  0.8217333E-01
         -1   -1    0    0    0  501 -0.00000000000E+00  0.00000000000E+00  0.58650383350E+03  0.58650383350E+03  0.00000000000E+00 0.  1.
          1   -1    0    0  501    0  0.00000000000E+00 -0.00000000000E+00 -0.40809769610E+04  0.40809769610E+04  0.00000000000E+00 0. -1.
    2000013    1    1    2    0    0  0.56711649932E+03 -0.94892332853E+03 -0.25295058980E+04  0.29194137588E+04  0.95000000000E+03 0.  0.
   -2000013    1    1    2    0    0 -0.56711649932E+03  0.94892332853E+03 -0.96496722952E+03  0.17480670357E+04  0.95000000000E+03 0.  0.
<mgrwt>
<rscale>  0 0.30941937E+04</rscale>
<asrwt>0</asrwt>
<pdfrwt beam="2">  1        1 0.62784263E+00 0.30941937E+04</pdfrwt>
<pdfrwt beam="1">  1       -1 0.90231356E-01 0.30941937E+04</pdfrwt>
<totfact> 0.82318347E-02</totfact>
</mgrwt>
</event>
<event>
 4    1  0.1321115E-008  0.2196919E+04  0.7816531E-02  0.8519711E-01
          2   -1    0    0  501    0  0.00000000000E+00  0.00000000000E+00  0.93299058125E+03  0.93299058125E+03  0.00000000000E+00 0.  1.
         -2   -1    0    0    0  501 -0.00000000000E+00 -0.00000000000E+00 -0.12932754477E+04  0.12932754477E+04  0.00000000000E+00 0. -1.
    2000013    1    1    2    0    0  0.12088599824E+03  0.20390395747E+03 -0.68471289201E+03  0.11947895183E+04  0.95000000000E+03 0.  0.
   -2000013    1    1    2    0    0 -0.12088599824E+03 -0.20390395747E+03  0.32442802553E+03  0.10314765107E+04  0.95000000000E+03 0.  0.
<mgrwt>
<rscale>  0 0.21969195E+04</rscale>
<asrwt>0</asrwt>
<pdfrwt beam="1">  1        2 0.14353701E+00 0.21969195E+04</pdfrwt>
<pdfrwt beam="2">  1       -2 0.19896545E+00 0.21969195E+04</pdfrwt>
<totfact> 0.34406029E+00</totfact>
</mgrwt>
</event>
<event>
 4    1  0.1321115E-008  0.2076498E+04  0.7816531E-02  0.8571667E-01
          2   -1    0    0  501    0  0.00000000000E+00  0.00000000000E+00  0.16041077135E+04  0.16041077135E+04  0.00000000000E+00 0.  1.
         -2   -1    0    0    0  501 -0.00000000000E+00 -0.00000000000E+00 -0.67200059546E+03  0.67200059546E+03  0.00000000000E+00 0. -1.
    2000013    1    1    2    0    0 -0.36192625266E+03  0.58556826434E+02  0.24399134534E+03  0.10471157008E+04  0.95000000000E+03 0.  0.
   -2000013    1    1    2    0    0  0.36192625266E+03 -0.58556826434E+02  0.68811577274E+03  0.12289926082E+04  0.95000000000E+03 0.  0.
<mgrwt>
<rscale>  0 0.20764983E+04</rscale>
<asrwt>0</asrwt>
<pdfrwt beam="1">  1        2 0.24678580E+00 0.20764983E+04</pdfrwt>
<pdfrwt beam="2">  1       -2 0.10338471E+00 0.20764983E+04</pdfrwt>
<totfact> 0.78149548E+00</totfact>
</mgrwt>
</event>
<event>
 4    1  0.1321115E-008  0.2156680E+04  0.7816531E-02  0.8536678E-01
          2   -1    0    0  501    0  0.00000000000E+00  0.00000000000E+00  0.22532500549E+04  0.22532500549E+04  0.00000000000E+00 0.  1.
         -2   -1    0    0    0  501 -0.00000000000E+00 -0.00000000000E+00 -0.51606232849E+03  0.51606232849E+03  0.00000000000E+00 0. -1.
    2000013    1    1    2    0    0  0.45190934341E+03  0.22780171712E+03  0.78535933853E+03  0.13324432324E+04  0.95000000000E+03 0.  0.
   -2000013    1    1    2    0    0 -0.45190934341E+03 -0.22780171712E+03  0.95182838784E+03  0.14368691509E+04  0.95000000000E+03 0.  0.
<mgrwt>
<rscale>  0 0.21566803E+04</rscale>
<asrwt>0</asrwt>
<pdfrwt beam="1">  1        2 0.34665385E+00 0.21566803E+04</pdfrwt>
<pdfrwt beam="2">  1       -2 0.79394205E-01 0.21566803E+04</pdfrwt>
<totfact> 0.62149017E+00</totfact>
</mgrwt>
</event>
<event>
 4    1  0.1321115E-008  0.3169661E+04  0.7816531E-02  0.8196876E-01
         -2   -1    0    0    0  501 -0.00000000000E+00  0.00000000000E+00  0.23147137438E+04  0.23147137438E+04  0.00000000000E+00 0. -1.
          2   -1    0    0  501    0  0.00000000000E+00 -0.00000000000E+00 -0.10850966373E+04  0.10850966373E+04  0.00000000000E+00 0.  1.
    2000013    1    1    2    0    0  0.24255610144E+03 -0.11937131766E+04  0.99464501921E+03  0.18372815039E+04  0.95000000000E+03 0.  0.
   -2000013    1    1    2    0    0 -0.24255610144E+03  0.11937131766E+04  0.23497208726E+03  0.15625288772E+04  0.95000000000E+03 0.  0.
<mgrwt>
<rscale>  0 0.31696612E+04</rscale>
<asrwt>0</asrwt>
<pdfrwt beam="2">  1        2 0.16693794E+00 0.31696612E+04</pdfrwt>
<pdfrwt beam="1">  1       -2 0.35610981E+00 0.31696612E+04</pdfrwt>
<totfact> 0.26729639E-01</totfact>
</mgrwt>
</event>
<event>
 4    1  0.1321115E-008  0.3519796E+04  0.7816531E-02  0.8109114E-01
          2   -1    0    0  501    0  0.00000000000E+00  0.00000000000E+00  0.22805286244E+04  0.22805286244E+04  0.00000000000E+00 0.  1.
         -2   -1    0    0    0  501 -0.00000000000E+00 -0.00000000000E+00 -0.13581243263E+04  0.13581243263E+04  0.00000000000E+00 0. -1.
    2000013    1    1    2    0    0  0.88563878300E+03  0.23574640639E+03 -0.74206523498E+03  0.15142962838E+04  0.95000000000E+03 0.  0.
   -2000013    1    1    2    0    0 -0.88563878300E+03 -0.23574640639E+03  0.16644695330E+04  0.21243566669E+04  0.95000000000E+03 0.  0.
<mgrwt>
<rscale>  0 0.35197962E+04</rscale>
<asrwt>0</asrwt>
<pdfrwt beam="1">  1        2 0.35085056E+00 0.35197962E+04</pdfrwt>
<pdfrwt beam="2">  1       -2 0.20894220E+00 0.35197962E+04</pdfrwt>
<totfact> 0.44377823E-01</totfact>
</mgrwt>
</event>
<event>
 4    1  0.1321115E-008  0.2490178E+04  0.7816531E-02  0.8406493E-01
          2   -1    0    0  501    0  0.00000000000E+00  0.00000000000E+00  0.27840022350E+04  0.27840022350E+04  0.00000000000E+00 0.  1.
         -2   -1    0    0    0  501 -0.00000000000E+00 -0.00000000000E+00 -0.55684121662E+03  0.55684121662E+03  0.00000000000E+00 0. -1.
    2000013    1    1    2    0    0  0.71942751433E+03 -0.32172058190E+03  0.89449501035E+03  0.15243691826E+04  0.95000000000E+03 0.  0.
   -2000013    1    1    2    0    0 -0.71942751433E+03  0.32172058190E+03  0.13326660080E+04  0.18164742691E+04  0.95000000000E+03 0.  0.
<mgrwt>
<rscale>  0 0.24901785E+04</rscale>
<asrwt>0</asrwt>
<pdfrwt beam="1">  1        2 0.42830803E+00 0.24901785E+04</pdfrwt>
<pdfrwt beam="2">  1       -2 0.85667881E-01 0.24901785E+04</pdfrwt>
<totfact> 0.24979154E+00</totfact>
</mgrwt>
</event>
<event>
 4    1  0.1321115E-008  0.3713532E+04  0.7816531E-02  0.8064969E-01
          2   -1    0    0  501    0  0.00000000000E+00  0.00000000000E+00  0.31390583026E+04  0.31390583026E+04  0.00000000000E+00 0.  1.
         -2   -1    0    0    0  501 -0.00000000000E+00 -0.00000000000E+00 -0.10982850485E+04  0.10982850485E+04  0.00000000000E+00 0. -1.
    2000013    1    1    2    0    0  0.15040523756E+04 -0.49081813147E+03  0.12542466370E+04  0.22313024477E+04  0.95000000000E+03 0.  0.
   -2000013    1    1    2    0    0 -0.15040523756E+04  0.49081813147E+03  0.78652661711E+03  0.20060409034E+04  0.95000000000E+03 0.  0.
<mgrwt>
<rscale>  0 0.37135324E+04</rscale>
<asrwt>0</asrwt>
<pdfrwt beam="1">  1        2 0.48293204E+00 0.37135324E+04</pdfrwt>
<pdfrwt beam="2">  1       -2 0.16896693E+00 0.37135324E+04</pdfrwt>
<totfact> 0.24841288E-01</totfact>
</mgrwt>
</event>
<event>
 4    1  0.1321115E-008  0.2182034E+04  0.7816531E-02  0.8525944E-01
          2   -1    0    0  501    0  0.00000000000E+00  0.00000000000E+00  0.12533530345E+04  0.12533530345E+04  0.00000000000E+00 0.  1.
         -2   -1    0    0    0  501 -0.00000000000E+00 -0.00000000000E+00 -0.94970659346E+03  0.94970659346E+03  0.00000000000E+00 0. -1.
    2000013    1    1    2    0    0 -0.32134081810E+03 -0.39217763985E+03  0.32888245381E+03  0.11259337862E+04  0.95000000000E+03 0.  0.
   -2000013    1    1    2    0    0  0.32134081810E+03  0.39217763985E+03 -0.25236012752E+02  0.10771258417E+04  0.95000000000E+03 0.  0.
<mgrwt>
<rscale>  0 0.21820336E+04</rscale>
<asrwt>0</asrwt>
<pdfrwt beam="1">  1        2 0.19282354E+00 0.21820336E+04</pdfrwt>
<pdfrwt beam="2">  1       -2 0.14610871E+00 0.21820336E+04</pdfrwt>
<totfact> 0.51772058E+00</totfact>
</mgrwt>
</event>
<event>
 4    1  0.1321115E-008  0.2153342E+04  0.7816531E-02  0.8538103E-01
          2   -1    0    0  501    0  0.00000000000E+00  0.00000000000E+00  0.30263763043E+04  0.30263763043E+04  0.00000000000E+00 0.  1.
         -2   -1    0    0    0  501 -0.00000000000E+00 -0.00000000000E+00 -0.38303915221E+03  0.38303915221E+03  0.00000000000E+00 0. -1.
    2000013    1    1    2    0    0  0.24907113389E+03  0.35498941414E+03  0.90677188565E+03  0.13830362130E+04  0.95000000000E+03 0.  0.
   -2000013    1    1    2    0    0 -0.24907113389E+03 -0.35498941414E+03  0.17365652664E+04  0.20263792435E+04  0.95000000000E+03 0.  0.
<mgrwt>
<rscale>  0 0.21533422E+04</rscale>
<asrwt>0</asrwt>
<pdfrwt beam="1">  1        2 0.46559634E+00 0.21533422E+04</pdfrwt>
<pdfrwt beam="2">  1       -2 0.58929102E-01 0.21533422E+04</pdfrwt>
<totfact> 0.41436411E+00</totfact>
</mgrwt>
</event>
<event>
 4    1  0.1321115E-008  0.2190418E+04  0.7816531E-02  0.8522427E-01
          2   -1    0    0  501    0  0.00000000000E+00  0.00000000000E+00  0.11707265098E+04  0.11707265098E+04  0.00000000000E+00 0.  1.
         -2   -1    0    0    0  501 -0.00000000000E+00 -0.00000000000E+00 -0.10245623380E+04  0.10245623380E+04  0.00000000000E+00 0. -1.
    2000013    1    1    2    0    0 -0.29526224639E+03  0.31917747391E+03  0.40233702240E+03  0.11195664936E+04  0.95000000000E+03 0.  0.
   -2000013    1    1    2    0    0  0.29526224639E+03 -0.31917747391E+03 -0.25617285056E+03  0.10757223542E+04  0.95000000000E+03 0.  0.
<mgrwt>
<rscale>  0 0.21904176E+04</rscale>
<asrwt>0</asrwt>
<pdfrwt beam="1">  1        2 0.18011177E+00 0.21904176E+04</pdfrwt>
<pdfrwt beam="2">  1       -2 0.15762498E+00 0.21904176E+04</pdfrwt>
<totfact> 0.47335824E+00</totfact>
</mgrwt>
</event>
<event>
 4    1  0.1321115E-008  0.2407754E+04  0.7816531E-02  0.8436606E-01
          2   -1    0    0  501    0  0.00000000000E+00  0.00000000000E+00  0.10134997192E+04  0.10134997192E+04  0.00000000000E+00 0.  1.
         -2   -1    0    0    0  501 -0.00000000000E+00 -0.00000000000E+00 -0.14300147627E+04  0.14300147627E+04  0.00000000000E+00 0. -1.
    2000013    1    1    2    0    0  0.73645146844E+03  0.66612616236E+02 -0.20354589070E+03  0.12209541087E+04  0.95000000000E+03 0.  0.
   -2000013    1    1    2    0    0 -0.73645146844E+03 -0.66612616236E+02 -0.21296915274E+03  0.12225603732E+04  0.95000000000E+03 0.  0.
<mgrwt>
<rscale>  0 0.24077538E+04</rscale>
<asrwt>0</asrwt>
<pdfrwt beam="1">  1        2 0.15592303E+00 0.24077538E+04</pdfrwt>
<pdfrwt beam="2">  1       -2 0.22000227E+00 0.24077538E+04</pdfrwt>
<totfact> 0.21925538E+00</totfact>
</mgrwt>
</event>
<event>
 4    1  0.1321115E-008  0.2561221E+04  0.7816531E-02  0.8381494E-01
          2   -1    0    0  501    0  0.00000000000E+00  0.00000000000E+00  0.37790951027E+04  0.37790951027E+04  0.00000000000E+00 0.  1.
         -2   -1    0    0    0  501 -0.00000000000E+00 -0.00000000000E+00 -0.43395663801E+03  0.43395663801E+03  0.00000000000E+00 0. -1.
    2000013    1    1    2    0    0 -0.11318187048E+03  0.76000168249E+03  0.23033570318E+04  0.26073676973E+04  0.95000000000E+03 0.  0.
   -2000013    1    1    2    0    0  0.11318187048E+03 -0.76000168249E+03  0.10417814329E+04  0.16056840433E+04  0.95000000000E+03 0.  0.
<mgrwt>
<rscale>  0 0.25612211E+04</rscale>
<asrwt>0</asrwt>
<pdfrwt beam="1">  1        2 0.58139922E+00 0.25612211E+04</pdfrwt>
<pdfrwt beam="2">  1       -2 0.66762562E-01 0.25612211E+04</pdfrwt>
<totfact> 0.93320408E-01</totfact>
</mgrwt>
</event>
<event>
 4    1  0.1321115E-008  0.2226149E+04  0.7816531E-02  0.8507623E-01
          2   -1    0    0  501    0  0.00000000000E+00  0.00000000000E+00  0.17691442198E+04  0.17691442198E+04  0.00000000000E+00 0.  1.
         -2   -1    0    0    0  501 -0.00000000000E+00 -0.00000000000E+00 -0.70030177998E+03  0.70030177998E+03  0.00000000000E+00 0. -1.
    2000013    1    1    2    0    0  0.29165609047E+03 -0.34527538767E+03  0.93768529237E+03  0.14092665028E+04  0.95000000000E+03 0.  0.
   -2000013    1    1    2    0    0 -0.29165609047E+03  0.34527538767E+03  0.13115714745E+03  0.10601794970E+04  0.95000000000E+03 0.  0.
<mgrwt>
<rscale>  0 0.22261490E+04</rscale>
<asrwt>0</asrwt>
<pdfrwt beam="1">  1        2 0.27217603E+00 0.22261490E+04</pdfrwt>
<pdfrwt beam="2">  1       -2 0.10773874E+00 0.22261490E+04</pdfrwt>
<totfact> 0.56564016E+00</totfact>
</mgrwt>
</event>
<event>
 4    1  0.1321115E-008  0.2276048E+04  0.7816531E-02  0.8487425E-01
         -2   -1    0    0    0  501 -0.00000000000E+00  0.00000000000E+00  0.30224492500E+03  0.30224492500E+03  0.00000000000E+00 0. -1.
          2   -1    0    0  501    0  0.00000000000E+00 -0.00000000000E+00 -0.42849306017E+04  0.42849306017E+04  0.00000000000E+00 0.  1.
    2000013    1    1    2    0    0  0.61134449648E+03 -0.12773938519E+03 -0.18897875533E+04  0.22054152535E+04  0.95000000000E+03 0.  0.
   -2000013    1    1    2    0    0 -0.61134449648E+03  0.12773938519E+03 -0.20928981234E+04  0.23817602732E+04  0.95000000000E+03 0.  0.
<mgrwt>
<rscale>  0 0.22760479E+04</rscale>
<asrwt>0</asrwt>
<pdfrwt beam="2">  1        2 0.65922004E+00 0.22760479E+04</pdfrwt>
<pdfrwt beam="1">  1       -2 0.46499223E-01 0.22760479E+04</pdfrwt>
<totfact> 0.78589254E-01</totfact>
</mgrwt>
</event>
<event>
 4    1  0.1321115E-008  0.3803787E+04  0.7816531E-02  0.8045343E-01
         -1   -1    0    0    0  501 -0.00000000000E+00  0.00000000000E+00  0.17522799543E+04  0.17522799543E+04  0.00000000000E+00 0. -1.
          1   -1    0    0  501    0  0.00000000000E+00 -0.00000000000E+00 -0.20642810247E+04  0.20642810247E+04  0.00000000000E+00 0.  1.
    2000013    1    1    2    0    0 -0.58461116143E+03  0.15260786010E+04 -0.36649581448E+03  0.19254883247E+04  0.95000000000E+03 0.  0.
   -2000013    1    1    2    0    0  0.58461116143E+03 -0.15260786010E+04  0.54494744087E+02  0.18910726542E+04  0.95000000000E+03 0.  0.
<mgrwt>
<rscale>  0 0.38037867E+04</rscale>
<asrwt>0</asrwt>
<pdfrwt beam="2">  1        1 0.31758170E+00 0.38037867E+04</pdfrwt>
<pdfrwt beam="1">  1       -1 0.26958153E+00 0.38037867E+04</pdfrwt>
<totfact> 0.11146123E-01</totfact>
</mgrwt>
</event>
<event>
 4    1  0.1321115E-008  0.2177110E+04  0.7816531E-02  0.8528016E-01
          2   -1    0    0  501    0  0.00000000000E+00  0.00000000000E+00  0.69412637264E+03  0.69412637264E+03  0.00000000000E+00 0.  1.
         -2   -1    0    0    0  501 -0.00000000000E+00 -0.00000000000E+00 -0.17071121321E+04  0.17071121321E+04  0.00000000000E+00 0. -1.
    2000013    1    1    2    0    0 -0.22099435801E+03 -0.41878237389E+03 -0.77265404741E+03  0.13129019232E+04  0.95000000000E+03 0.  0.
   -2000013    1    1    2    0    0  0.22099435801E+03  0.41878237389E+03 -0.24033171207E+03  0.10883365816E+04  0.95000000000E+03 0.  0.
<mgrwt>
<rscale>  0 0.21771096E+04</rscale>
<asrwt>0</asrwt>
<pdfrwt beam="1">  1        2 0.10678867E+00 0.21771096E+04</pdfrwt>
<pdfrwt beam="2">  1       -2 0.26263263E+00 0.21771096E+04</pdfrwt>
<totfact> 0.20387676E+00</totfact>
</mgrwt>
</event>
<event>
 4    1  0.1321115E-008  0.2214023E+04  0.7816531E-02  0.8512614E-01
          2   -1    0    0  501    0  0.00000000000E+00  0.00000000000E+00  0.14973786605E+04  0.14973786605E+04  0.00000000000E+00 0.  1.
         -2   -1    0    0    0  501 -0.00000000000E+00 -0.00000000000E+00 -0.81841343880E+03  0.81841343880E+03  0.00000000000E+00 0. -1.
    2000013    1    1    2    0    0  0.51367480731E+03 -0.17028644403E+03  0.52099768171E+03  0.12111143072E+04  0.95000000000E+03 0.  0.
   -2000013    1    1    2    0    0 -0.51367480731E+03  0.17028644403E+03  0.15796753996E+03  0.11046777921E+04  0.95000000000E+03 0.  0.
<mgrwt>
<rscale>  0 0.22140233E+04</rscale>
<asrwt>0</asrwt>
<pdfrwt beam="1">  1        2 0.23036595E+00 0.22140233E+04</pdfrwt>
<pdfrwt beam="2">  1       -2 0.12590976E+00 0.22140233E+04</pdfrwt>
<totfact> 0.54760714E+00</totfact>
</mgrwt>
</event>
<event>
 4    1  0.1321115E-008  0.2584457E+04  0.7816531E-02  0.8373500E-01
          2   -1    0    0  501    0  0.00000000000E+00  0.00000000000E+00  0.19261137904E+04  0.19261137904E+04  0.00000000000E+00 0.  1.
         -2   -1    0    0    0  501 -0.00000000000E+00 -0.00000000000E+00 -0.86695556411E+03  0.86695556411E+03  0.00000000000E+00 0. -1.
    2000013    1    1    2    0    0 -0.36086049936E+03  0.77086911002E+03  0.30574894470E+03  0.13116561676E+04  0.95000000000E+03 0.  0.
   -2000013    1    1    2    0    0  0.36086049936E+03 -0.77086911002E+03  0.75340928157E+03  0.14814131869E+04  0.95000000000E+03 0.  0.
<mgrwt>
<rscale>  0 0.25844574E+04</rscale>
<asrwt>0</asrwt>
<pdfrwt beam="1">  1        2 0.29632520E+00 0.25844574E+04</pdfrwt>
<pdfrwt beam="2">  1       -2 0.13337778E+00 0.25844574E+04</pdfrwt>
<totfact> 0.26468096E+00</totfact>
</mgrwt>
</event>
<event>
 4    1  0.1321115E-008  0.2835168E+04  0.7816531E-02  0.8292432E-01
          2   -1    0    0  501    0  0.00000000000E+00  0.00000000000E+00  0.13353941844E+04  0.13353941844E+04  0.00000000000E+00 0.  1.
         -2   -1    0    0    0  501 -0.00000000000E+00 -0.00000000000E+00 -0.15048327526E+04  0.15048327526E+04  0.00000000000E+00 0. -1.
    2000013    1    1    2    0    0 -0.85919391021E+03  0.26907292162E+03 -0.63014502120E+03  0.14526517684E+04  0.95000000000E+03 0.  0.
   -2000013    1    1    2    0    0  0.85919391021E+03 -0.26907292162E+03  0.46070645302E+03  0.13875751685E+04  0.95000000000E+03 0.  0.
<mgrwt>
<rscale>  0 0.28351684E+04</rscale>
<asrwt>0</asrwt>
<pdfrwt beam="1">  1        2 0.20544526E+00 0.28351684E+04</pdfrwt>
<pdfrwt beam="2">  1       -2 0.23151273E+00 0.28351684E+04</pdfrwt>
<totfact> 0.11443803E+00</totfact>
</mgrwt>
</event>
<event>
 4    1  0.1321115E-008  0.2619192E+04  0.7816531E-02  0.8361711E-01
          2   -1    0    0  501    0  0.00000000000E+00  0.00000000000E+00  0.22728220601E+04  0.22728220601E+04  0.00000000000E+00 0.  1.
         -2   -1    0    0    0  501 -0.00000000000E+00 -0.00000000000E+00 -0.75458669048E+03  0.75458669048E+03  0.00000000000E+00 0. -1.
    2000013    1    1    2    0    0  0.65498400565E+03 -0.61086404135E+03  0.87689228686E+03  0.15727679446E+04  0.95000000000E+03 0.  0.
   -2000013    1    1    2    0    0 -0.65498400565E+03  0.61086404135E+03  0.64134308272E+03  0.14546408060E+04  0.95000000000E+03 0.  0.
<mgrwt>
<rscale>  0 0.26191917E+04</rscale>
<asrwt>0</asrwt>
<pdfrwt beam="1">  1        2 0.34966493E+00 0.26191917E+04</pdfrwt>
<pdfrwt beam="2">  1       -2 0.11609026E+00 0.26191917E+04</pdfrwt>
<totfact> 0.23900457E+00</totfact>
</mgrwt>
</event>
<event>
 4    1  0.1321115E-008  0.2241959E+04  0.7816531E-02  0.8501164E-01
          2   -1    0    0  501    0  0.00000000000E+00  0.00000000000E+00  0.19191251674E+04  0.19191251674E+04  0.00000000000E+00 0.  1.
         -2   -1    0    0    0  501 -0.00000000000E+00 -0.00000000000E+00 -0.65477518393E+03  0.65477518393E+03  0.00000000000E+00 0. -1.
    2000013    1    1    2    0    0  0.42839299961E+03 -0.16526555987E+03  0.10667151189E+04  0.15004047495E+04  0.95000000000E+03 0.  0.
   -2000013    1    1    2    0    0 -0.42839299961E+03  0.16526555987E+03  0.19763486452E+03  0.10734956018E+04  0.95000000000E+03 0.  0.
<mgrwt>
<rscale>  0 0.22419594E+04</rscale>
<asrwt>0</asrwt>
<pdfrwt beam="1">  1        2 0.29525002E+00 0.22419594E+04</pdfrwt>
<pdfrwt beam="2">  1       -2 0.10073464E+00 0.22419594E+04</pdfrwt>
<totfact> 0.54790259E+00</totfact>
</mgrwt>
</event>
<event>
 4    1  0.1321115E-008  0.2143770E+04  0.7816531E-02  0.8542204E-01
          2   -1    0    0  501    0  0.00000000000E+00  0.00000000000E+00  0.98386418549E+03  0.98386418549E+03  0.00000000000E+00 0.  1.
         -2   -1    0    0    0  501 -0.00000000000E+00 -0.00000000000E+00 -0.11677802602E+04  0.11677802602E+04  0.00000000000E+00 0. -1.
    2000013    1    1    2    0    0 -0.35769065377E+02  0.34277114475E+03  0.26665780411E+03  0.10451688228E+04  0.95000000000E+03 0.  0.
   -2000013    1    1    2    0    0  0.35769065377E+02 -0.34277114475E+03 -0.45057387880E+03  0.11064756229E+04  0.95000000000E+03 0.  0.
<mgrwt>
<rscale>  0 0.21437697E+04</rscale>
<asrwt>0</asrwt>
<pdfrwt beam="1">  1        2 0.15136372E+00 0.21437697E+04</pdfrwt>
<pdfrwt beam="2">  1       -2 0.17965850E+00 0.21437697E+04</pdfrwt>
<totfact> 0.43183669E+00</totfact>
</mgrwt>
</event>
<event>
 4    1  0.1321115E-008  0.3113094E+04  0.7816531E-02  0.8212153E-01
         -2   -1    0    0    0  501 -0.00000000000E+00  0.00000000000E+00  0.12049380041E+04  0.12049380041E+04  0.00000000000E+00 0. -1.
          2   -1    0    0  501    0  0.00000000000E+00 -0.00000000000E+00 -0.20107584120E+04  0.20107584120E+04  0.00000000000E+00 0.  1.
    2000013    1    1    2    0    0 -0.42958642930E+03  0.77999685360E+02 -0.15940461799E+04  0.19063346177E+04  0.95000000000E+03 0.  0.
   -2000013    1    1    2    0    0  0.42958642930E+03 -0.77999685360E+02  0.78822577203E+03  0.13093617983E+04  0.95000000000E+03 0.  0.
<mgrwt>
<rscale>  0 0.31130944E+04</rscale>
<asrwt>0</asrwt>
<pdfrwt beam="2">  1        2 0.30934745E+00 0.31130944E+04</pdfrwt>
<pdfrwt beam="1">  1       -2 0.18537508E+00 0.31130944E+04</pdfrwt>
<totfact> 0.93098947E-01</totfact>
</mgrwt>
</event>
<event>
 4    1  0.1321115E-008  0.3005958E+04  0.7816531E-02  0.8242032E-01
          1   -1    0    0  501    0  0.00000000000E+00  0.00000000000E+00  0.38328931820E+04  0.38328931820E+04  0.00000000000E+00 0.  1.
         -1   -1    0    0    0  501 -0.00000000000E+00 -0.00000000000E+00 -0.58935797428E+03  0.58935797428E+03  0.00000000000E+00 0. -1.
    2000013    1    1    2    0    0  0.11557462287E+04  0.14355470022E+03  0.16078992771E+04  0.22009537438E+04  0.95000000000E+03 0.  0.
   -2000013    1    1    2    0    0 -0.11557462287E+04 -0.14355470022E+03  0.16356359306E+04  0.22212974124E+04  0.95000000000E+03 0.  0.
<mgrwt>
<rscale>  0 0.30059582E+04</rscale>
<asrwt>0</asrwt>
<pdfrwt beam="1">  1        1 0.58967586E+00 0.30059582E+04</pdfrwt>
<pdfrwt beam="2">  1       -1 0.90670460E-01 0.30059582E+04</pdfrwt>
<totfact> 0.13504740E-01</totfact>
</mgrwt>
</event>
<event>
 4    1  0.1321115E-008  0.2347705E+04  0.7816531E-02  0.8459346E-01
         -2   -1    0    0    0  501 -0.00000000000E+00  0.00000000000E+00  0.52937519655E+03  0.52937519655E+03  0.00000000000E+00 0. -1.
          2   -1    0    0  501    0  0.00000000000E+00 -0.00000000000E+00 -0.26029367442E+04  0.26029367442E+04  0.00000000000E+00 0.  1.
    2000013    1    1    2    0    0 -0.50205087962E+03  0.20470731977E+03 -0.16051411621E+04  0.19424052931E+04  0.95000000000E+03 0.  0.
   -2000013    1    1    2    0    0  0.50205087962E+03 -0.20470731977E+03 -0.46842038558E+03  0.11899066476E+04  0.95000000000E+03 0.  0.
<mgrwt>
<rscale>  0 0.23477054E+04</rscale>
<asrwt>0</asrwt>
<pdfrwt beam="2">  1        2 0.40045181E+00 0.23477054E+04</pdfrwt>
<pdfrwt beam="1">  1       -2 0.81442337E-01 0.23477054E+04</pdfrwt>
<totfact> 0.36344683E+00</totfact>
</mgrwt>
</event>
<event>
 4    1  0.1321115E-008  0.2086732E+04  0.7816531E-02  0.8567111E-01
         -2   -1    0    0    0  501 -0.00000000000E+00  0.00000000000E+00  0.94789282792E+03  0.94789282792E+03  0.00000000000E+00 0. -1.
          2   -1    0    0  501    0  0.00000000000E+00 -0.00000000000E+00 -0.11484548962E+04  0.11484548962E+04  0.00000000000E+00 0.  1.
    2000013    1    1    2    0    0 -0.27916217890E+03  0.31401654869E+03 -0.19858000877E+03  0.10575783351E+04  0.95000000000E+03 0.  0.
   -2000013    1    1    2    0    0  0.27916217890E+03 -0.31401654869E+03 -0.19820594918E+01  0.10387693890E+04  0.95000000000E+03 0.  0.
<mgrwt>
<rscale>  0 0.20867316E+04</rscale>
<asrwt>0</asrwt>
<pdfrwt beam="2">  1        2 0.17668537E+00 0.20867316E+04</pdfrwt>
<pdfrwt beam="1">  1       -2 0.14582967E+00 0.20867316E+04</pdfrwt>
<totfact> 0.60593972E+00</totfact>
</mgrwt>
</event>
<event>
 4    1  0.1321115E-008  0.2055187E+04  0.7816531E-02  0.8581245E-01
          2   -1    0    0  501    0  0.00000000000E+00  0.00000000000E+00  0.27724817419E+04  0.27724817419E+04  0.00000000000E+00 0.  1.
         -2   -1    0    0    0  501 -0.00000000000E+00 -0.00000000000E+00 -0.38086747105E+03  0.38086747105E+03  0.00000000000E+00 0. -1.
    2000013    1    1    2    0    0  0.31831763835E+03 -0.15496631331E+03  0.93857135788E+03  0.13815776746E+04  0.95000000000E+03 0.  0.
   -2000013    1    1    2    0    0 -0.31831763835E+03  0.15496631331E+03  0.14530429129E+04  0.17717715383E+04  0.95000000000E+03 0.  0.
<mgrwt>
<rscale>  0 0.20551867E+04</rscale>
<asrwt>0</asrwt>
<pdfrwt beam="1">  1        2 0.42653564E+00 0.20551867E+04</pdfrwt>
<pdfrwt beam="2">  1       -2 0.58594997E-01 0.20551867E+04</pdfrwt>
<totfact> 0.60579179E+00</totfact>
</mgrwt>
</event>
<event>
 4    1  0.1321115E-008  0.1936570E+04  0.7816531E-02  0.8636864E-01
         -1   -1    0    0    0  501 -0.00000000000E+00  0.00000000000E+00  0.28892600298E+03  0.28892600298E+03  0.00000000000E+00 0. -1.
          1   -1    0    0  501    0  0.00000000000E+00 -0.00000000000E+00 -0.32450379774E+04  0.32450379774E+04  0.00000000000E+00 0.  1.
    2000013    1    1    2    0    0  0.43437796930E+01 -0.17443694267E+03 -0.13539021446E+04  0.16631290186E+04  0.95000000000E+03 0.  0.
   -2000013    1    1    2    0    0 -0.43437796930E+01  0.17443694267E+03 -0.16022098299E+04  0.18708349618E+04  0.95000000000E+03 0.  0.
<mgrwt>
<rscale>  0 0.19365700E+04</rscale>
<asrwt>0</asrwt>
<pdfrwt beam="2">  1        1 0.49923660E+00 0.19365700E+04</pdfrwt>
<pdfrwt beam="1">  1       -1 0.44450155E-01 0.19365700E+04</pdfrwt>
<totfact> 0.18438638E+00</totfact>
</mgrwt>
</event>
<event>
 4    1  0.1321115E-008  0.2127128E+04  0.7816531E-02  0.8549387E-01
         -2   -1    0    0    0  501 -0.00000000000E+00  0.00000000000E+00  0.36944012065E+03  0.36944012065E+03  0.00000000000E+00 0. -1.
          2   -1    0    0  501    0  0.00000000000E+00 -0.00000000000E+00 -0.30618438910E+04  0.30618438910E+04  0.00000000000E+00 0.  1.
    2000013    1    1    2    0    0 -0.26887994455E+03 -0.42463073633E+01 -0.70835424556E+03  0.12151461611E+04  0.95000000000E+03 0.  0.
   -2000013    1    1    2    0    0  0.26887994455E+03  0.42463073633E+01 -0.19840495248E+04  0.22161378505E+04  0.95000000000E+03 0.  0.
<mgrwt>
<rscale>  0 0.21271276E+04</rscale>
<asrwt>0</asrwt>
<pdfrwt beam="2">  1        2 0.47105292E+00 0.21271276E+04</pdfrwt>
<pdfrwt beam="1">  1       -2 0.56836940E-01 0.21271276E+04</pdfrwt>
<totfact> 0.42560215E+00</totfact>
</mgrwt>
</event>
<event>
 4    1  0.1321115E-008  0.3712970E+04  0.7816531E-02  0.8065094E-01
         -2   -1    0    0    0  501 -0.00000000000E+00  0.00000000000E+00  0.14049274525E+04  0.14049274525E+04  0.00000000000E+00 0. -1.
          2   -1    0    0  501    0  0.00000000000E+00 -0.00000000000E+00 -0.24531777065E+04  0.24531777065E+04  0.00000000000E+00 0.  1.
    2000013    1    1    2    0    0 -0.79401299867E+03  0.13479675949E+04 -0.20123189218E+03  0.18413222296E+04  0.95000000000E+03 0.  0.
   -2000013    1    1    2    0    0  0.79401299867E+03 -0.13479675949E+04 -0.84701836185E+03  0.20167829294E+04  0.95000000000E+03 0.  0.
<mgrwt>
<rscale>  0 0.37129701E+04</rscale>
<asrwt>0</asrwt>
<pdfrwt beam="2">  1        2 0.37741195E+00 0.37129701E+04</pdfrwt>
<pdfrwt beam="1">  1       -2 0.21614269E+00 0.37129701E+04</pdfrwt>
<totfact> 0.31289660E-01</totfact>
</mgrwt>
</event>
<event>
 4    1  0.1321115E-008  0.2184547E+04  0.7816531E-02  0.8524888E-01
          2   -1    0    0  501    0  0.00000000000E+00  0.00000000000E+00  0.81429829708E+03  0.81429829708E+03  0.00000000000E+00 0.  1.
         -2   -1    0    0    0  501 -0.00000000000E+00 -0.00000000000E+00 -0.14651403823E+04  0.14651403823E+04  0.00000000000E+00 0. -1.
    2000013    1    1    2    0    0 -0.21279204296E+03  0.49145518087E+03 -0.38934103585E+03  0.11579702460E+04  0.95000000000E+03 0.  0.
   -2000013    1    1    2    0    0  0.21279204296E+03 -0.49145518087E+03 -0.26150104940E+03  0.11214684334E+04  0.95000000000E+03 0.  0.
<mgrwt>
<rscale>  0 0.21845469E+04</rscale>
<asrwt>0</asrwt>
<pdfrwt beam="1">  1        2 0.12527666E+00 0.21845469E+04</pdfrwt>
<pdfrwt beam="2">  1       -2 0.22540621E+00 0.21845469E+04</pdfrwt>
<totfact> 0.28117932E+00</totfact>
</mgrwt>
</event>
<event>
 4    1  0.1321115E-008  0.2242783E+04  0.7816531E-02  0.8500829E-01
         -2   -1    0    0    0  501 -0.00000000000E+00  0.00000000000E+00  0.22289575199E+04  0.22289575199E+04  0.00000000000E+00 0. -1.
          2   -1    0    0  501    0  0.00000000000E+00 -0.00000000000E+00 -0.56417336911E+03  0.56417336911E+03  0.00000000000E+00 0.  1.
    2000013    1    1    2    0    0 -0.14505055341E+03  0.42890693982E+03  0.35002763925E+03  0.11090627459E+04  0.95000000000E+03 0.  0.
   -2000013    1    1    2    0    0  0.14505055341E+03 -0.42890693982E+03  0.13147565115E+04  0.16840681431E+04  0.95000000000E+03 0.  0.
<mgrwt>
<rscale>  0 0.22427826E+04</rscale>
<asrwt>0</asrwt>
<pdfrwt beam="2">  1        2 0.86795904E-01 0.22427826E+04</pdfrwt>
<pdfrwt beam="1">  1       -2 0.34291654E+00 0.22427826E+04</pdfrwt>
<totfact> 0.83963299E-01</totfact>
</mgrwt>
</event>
<event>
 4    1  0.1321115E-008  0.2021199E+04  0.7816531E-02  0.8596773E-01
         -2   -1    0    0    0  501 -0.00000000000E+00  0.00000000000E+00  0.39798626897E+03  0.39798626897E+03  0.00000000000E+00 0. -1.
          2   -1    0    0  501    0  0.00000000000E+00 -0.00000000000E+00 -0.25661982948E+04  0.25661982948E+04  0.00000000000E+00 0.  1.
    2000013    1    1    2    0    0  0.12847131149E+03 -0.31944602993E+03 -0.11078006654E+04  0.14994242089E+04  0.95000000000E+03 0.  0.
   -2000013    1    1    2    0    0 -0.12847131149E+03  0.31944602993E+03 -0.10604113604E+04  0.14647603549E+04  0.95000000000E+03 0.  0.
<mgrwt>
<rscale>  0 0.20211993E+04</rscale>
<asrwt>0</asrwt>
<pdfrwt beam="2">  1        2 0.39479972E+00 0.20211993E+04</pdfrwt>
<pdfrwt beam="1">  1       -2 0.61228659E-01 0.20211993E+04</pdfrwt>
<totfact> 0.73342140E+00</totfact>
</mgrwt>
</event>
<event>
 4    1  0.1321115E-008  0.2615305E+04  0.7816531E-02  0.8363021E-01
          2   -1    0    0  501    0  0.00000000000E+00  0.00000000000E+00  0.25937792524E+04  0.25937792524E+04  0.00000000000E+00 0.  1.
         -2   -1    0    0    0  501 -0.00000000000E+00 -0.00000000000E+00 -0.65925247252E+03  0.65925247252E+03  0.00000000000E+00 0. -1.
    2000013    1    1    2    0    0 -0.75911530411E+03 -0.42289952418E+02  0.37150119891E+03  0.12722254619E+04  0.95000000000E+03 0.  0.
   -2000013    1    1    2    0    0  0.75911530411E+03  0.42289952418E+02  0.15630255809E+04  0.19808062630E+04  0.95000000000E+03 0.  0.
<mgrwt>
<rscale>  0 0.26153052E+04</rscale>
<asrwt>0</asrwt>
<pdfrwt beam="1">  1        2 0.39904296E+00 0.26153052E+04</pdfrwt>
<pdfrwt beam="2">  1       -2 0.10142346E+00 0.26153052E+04</pdfrwt>
<totfact> 0.21648946E+00</totfact>
</mgrwt>
</event>
<event>
 4    1  0.1321115E-008  0.3825935E+04  0.7816531E-02  0.8040612E-01
          1   -1    0    0  501    0  0.00000000000E+00  0.00000000000E+00  0.13703394462E+04  0.13703394462E+04  0.00000000000E+00 0.  1.
         -1   -1    0    0    0  501 -0.00000000000E+00 -0.00000000000E+00 -0.26704657022E+04  0.26704657022E+04  0.00000000000E+00 0. -1.
    2000013    1    1    2    0    0  0.11677038442E+04  0.11753665250E+04 -0.53472489860E+03  0.19832925788E+04  0.95000000000E+03 0.  0.
   -2000013    1    1    2    0    0 -0.11677038442E+04 -0.11753665250E+04 -0.76540135739E+03  0.20575125695E+04  0.95000000000E+03 0.  0.
<mgrwt>
<rscale>  0 0.38259349E+04</rscale>
<asrwt>0</asrwt>
<pdfrwt beam="1">  1        1 0.21082146E+00 0.38259349E+04</pdfrwt>
<pdfrwt beam="2">  1       -1 0.41084087E+00 0.38259349E+04</pdfrwt>
<totfact> 0.38556928E-02</totfact>
</mgrwt>
</event>
<event>
 4    1  0.1321115E-008  0.2197161E+04  0.7816531E-02  0.8519611E-01
         -2   -1    0    0    0  501 -0.00000000000E+00  0.00000000000E+00  0.61711970435E+03  0.61711970435E+03  0.00000000000E+00 0. -1.
          2   -1    0    0  501    0  0.00000000000E+00 -0.00000000000E+00 -0.19556643745E+04  0.19556643745E+04  0.00000000000E+00 0.  1.
    2000013    1    1    2    0    0 -0.33013196267E+03 -0.43887819883E+03 -0.73098789183E+03  0.13185008472E+04  0.95000000000E+03 0.  0.
   -2000013    1    1    2    0    0  0.33013196267E+03  0.43887819883E+03 -0.60755677832E+03  0.12542832316E+04  0.95000000000E+03 0.  0.
<mgrwt>
<rscale>  0 0.21971609E+04</rscale>
<asrwt>0</asrwt>
<pdfrwt beam="2">  1        2 0.30087144E+00 0.21971609E+04</pdfrwt>
<pdfrwt beam="1">  1       -2 0.94941494E-01 0.21971609E+04</pdfrwt>
<totfact> 0.60339088E+00</totfact>
</mgrwt>
</event>
<event>
 4    1  0.1321115E-008  0.3060852E+04  0.7816531E-02  0.8226565E-01
          1   -1    0    0  501    0  0.00000000000E+00  0.00000000000E+00  0.15368957945E+04  0.15368957945E+04  0.00000000000E+00 0.  1.
         -1   -1    0    0    0  501 -0.00000000000E+00 -0.00000000000E+00 -0.15239835500E+04  0.15239835500E+04  0.00000000000E+00 0. -1.
    2000013    1    1    2    0    0 -0.37976507373E+03  0.54435250320E+03  0.10060463037E+04  0.15346564189E+04  0.95000000000E+03 0.  0.
   -2000013    1    1    2    0    0  0.37976507373E+03 -0.54435250320E+03 -0.99313405919E+03  0.15262229256E+04  0.95000000000E+03 0.  0.
<mgrwt>
<rscale>  0 0.30608521E+04</rscale>
<asrwt>0</asrwt>
<pdfrwt beam="1">  1        1 0.23644551E+00 0.30608521E+04</pdfrwt>
<pdfrwt beam="2">  1       -1 0.23445901E+00 0.30608521E+04</pdfrwt>
<totfact> 0.46052725E-01</totfact>
</mgrwt>
</event>
<event>
 4    1  0.1321115E-008  0.2444490E+04  0.7816531E-02  0.8423032E-01
          2   -1    0    0  501    0  0.00000000000E+00  0.00000000000E+00  0.10691039018E+04  0.10691039018E+04  0.00000000000E+00 0.  1.
         -2   -1    0    0    0  501 -0.00000000000E+00 -0.00000000000E+00 -0.13973224480E+04  0.13973224480E+04  0.00000000000E+00 0. -1.
    2000013    1    1    2    0    0 -0.76467315843E+03 -0.72447678934E+02 -0.12623341592E+03  0.12281728627E+04  0.95000000000E+03 0.  0.
   -2000013    1    1    2    0    0  0.76467315843E+03  0.72447678934E+02 -0.20198513032E+03  0.12382534871E+04  0.95000000000E+03 0.  0.
<mgrwt>
<rscale>  0 0.24444900E+04</rscale>
<asrwt>0</asrwt>
<pdfrwt beam="1">  1        2 0.16447752E+00 0.24444900E+04</pdfrwt>
<pdfrwt beam="2">  1       -2 0.21497268E+00 0.24444900E+04</pdfrwt>
<totfact> 0.21703178E+00</totfact>
</mgrwt>
</event>
<event>
 4    1  0.1321115E-008  0.3873008E+04  0.7816531E-02  0.8030666E-01
         -2   -1    0    0    0  501 -0.00000000000E+00  0.00000000000E+00  0.11481657851E+04  0.11481657851E+04  0.00000000000E+00 0. -1.
          2   -1    0    0  501    0  0.00000000000E+00 -0.00000000000E+00 -0.32661209591E+04  0.32661209591E+04  0.00000000000E+00 0.  1.
    2000013    1    1    2    0    0 -0.97576615129E+03 -0.12758530208E+03 -0.26213800771E+04  0.29567771475E+04  0.95000000000E+03 0.  0.
   -2000013    1    1    2    0    0  0.97576615129E+03  0.12758530208E+03  0.50342490315E+03  0.14575095967E+04  0.95000000000E+03 0.  0.
<mgrwt>
<rscale>  0 0.38730083E+04</rscale>
<asrwt>0</asrwt>
<pdfrwt beam="2">  1        2 0.50248015E+00 0.38730083E+04</pdfrwt>
<pdfrwt beam="1">  1       -2 0.17664089E+00 0.38730083E+04</pdfrwt>
<totfact> 0.17870752E-01</totfact>
</mgrwt>
</event>
<event>
 4    1  0.1321115E-008  0.2183580E+04  0.7816531E-02  0.8525294E-01
          2   -1    0    0  501    0  0.00000000000E+00  0.00000000000E+00  0.20287618954E+04  0.20287618954E+04  0.00000000000E+00 0.  1.
         -2   -1    0    0    0  501 -0.00000000000E+00 -0.00000000000E+00 -0.58755293682E+03  0.58755293682E+03  0.00000000000E+00 0. -1.
    2000013    1    1    2    0    0  0.36519136361E+03 -0.28616436458E+03  0.39411448149E+03  0.11283089117E+04  0.95000000000E+03 0.  0.
   -2000013    1    1    2    0    0 -0.36519136361E+03  0.28616436458E+03  0.10470944770E+04  0.14880059205E+04  0.95000000000E+03 0.  0.
<mgrwt>
<rscale>  0 0.21835796E+04</rscale>
<asrwt>0</asrwt>
<pdfrwt beam="1">  1        2 0.31211721E+00 0.21835796E+04</pdfrwt>
<pdfrwt beam="2">  1       -2 0.90392760E-01 0.21835796E+04</pdfrwt>
<totfact> 0.61655616E+00</totfact>
</mgrwt>
</event>
<event>
 4    1  0.1321115E-008  0.3870396E+04  0.7816531E-02  0.8031215E-01
         -2   -1    0    0    0  501 -0.00000000000E+00  0.00000000000E+00  0.22290130060E+04  0.22290130060E+04  0.00000000000E+00 0. -1.
          2   -1    0    0  501    0  0.00000000000E+00 -0.00000000000E+00 -0.16801119289E+04  0.16801119289E+04  0.00000000000E+00 0.  1.
    2000013    1    1    2    0    0  0.14408869694E+04 -0.80960586261E+03  0.61076058854E+03  0.20017855549E+04  0.95000000000E+03 0.  0.
   -2000013    1    1    2    0    0 -0.14408869694E+04  0.80960586261E+03 -0.61859511525E+02  0.19073393800E+04  0.95000000000E+03 0.  0.
<mgrwt>
<rscale>  0 0.38703960E+04</rscale>
<asrwt>0</asrwt>
<pdfrwt beam="2">  1        2 0.25847876E+00 0.38703960E+04</pdfrwt>
<pdfrwt beam="1">  1       -2 0.34292508E+00 0.38703960E+04</pdfrwt>
<totfact> 0.13820908E-01</totfact>
</mgrwt>
</event>
<event>
 4    1  0.1321115E-008  0.2559304E+04  0.7816531E-02  0.8382158E-01
          2   -1    0    0  501    0  0.00000000000E+00  0.00000000000E+00  0.26291453939E+04  0.26291453939E+04  0.00000000000E+00 0.  1.
         -2   -1    0    0    0  501 -0.00000000000E+00 -0.00000000000E+00 -0.62282927864E+03  0.62282927864E+03  0.00000000000E+00 0. -1.
    2000013    1    1    2    0    0  0.59658601590E+03 -0.53605275156E+03  0.13880225078E+04  0.18634306826E+04  0.95000000000E+03 0.  0.
   -2000013    1    1    2    0    0 -0.59658601590E+03  0.53605275156E+03  0.61829360742E+03  0.13885439899E+04  0.95000000000E+03 0.  0.
<mgrwt>
<rscale>  0 0.25593036E+04</rscale>
<asrwt>0</asrwt>
<pdfrwt beam="1">  1        2 0.40448390E+00 0.25593036E+04</pdfrwt>
<pdfrwt beam="2">  1       -2 0.95819890E-01 0.25593036E+04</pdfrwt>
<totfact> 0.23711159E+00</totfact>
</mgrwt>
</event>
<event>
 4    1  0.1321115E-008  0.3360052E+04  0.7816531E-02  0.8147781E-01
          2   -1    0    0  501    0  0.00000000000E+00  0.00000000000E+00  0.23214215403E+04  0.23214215403E+04  0.00000000000E+00 0.  1.
         -2   -1    0    0    0  501 -0.00000000000E+00 -0.00000000000E+00 -0.12158444801E+04  0.12158444801E+04  0.00000000000E+00 0. -1.
    2000013    1    1    2    0    0  0.25078915800E+03  0.99431236064E+03  0.15338369448E+04  0.20752609584E+04  0.95000000000E+03 0.  0.
   -2000013    1    1    2    0    0 -0.25078915800E+03 -0.99431236064E+03 -0.42825988459E+03  0.14620050619E+04  0.95000000000E+03 0.  0.
<mgrwt>
<rscale>  0 0.33600521E+04</rscale>
<asrwt>0</asrwt>
<pdfrwt beam="1">  1        2 0.35714178E+00 0.33600521E+04</pdfrwt>
<pdfrwt beam="2">  1       -2 0.18705300E+00 0.33600521E+04</pdfrwt>
<totfact> 0.59447364E-01</totfact>
</mgrwt>
</event>
<event>
 4    1  0.1321115E-008  0.2623390E+04  0.7816531E-02  0.8360299E-01
          2   -1    0    0  501    0  0.00000000000E+00  0.00000000000E+00  0.15751412801E+04  0.15751412801E+04  0.00000000000E+00 0.  1.
         -2   -1    0    0    0  501 -0.00000000000E+00 -0.00000000000E+00 -0.10923111235E+04  0.10923111235E+04  0.00000000000E+00 0. -1.
    2000013    1    1    2    0    0  0.74363811712E+03 -0.50934403637E+03  0.31760928678E+03  0.13475179612E+04  0.95000000000E+03 0.  0.
   -2000013    1    1    2    0    0 -0.74363811712E+03  0.50934403637E+03  0.16522086984E+03  0.13199344425E+04  0.95000000000E+03 0.  0.
<mgrwt>
<rscale>  0 0.26233904E+04</rscale>
<asrwt>0</asrwt>
<pdfrwt beam="1">  1        2 0.24232943E+00 0.26233904E+04</pdfrwt>
<pdfrwt beam="2">  1       -2 0.16804786E+00 0.26233904E+04</pdfrwt>
<totfact> 0.22379191E+00</totfact>
</mgrwt>
</event>
<event>
 4    1  0.1321115E-008  0.2504462E+04  0.7816531E-02  0.8401398E-01
         -2   -1    0    0    0  501 -0.00000000000E+00  0.00000000000E+00  0.15971202564E+04  0.15971202564E+04  0.00000000000E+00 0. -1.
          2   -1    0    0  501    0  0.00000000000E+00 -0.00000000000E+00 -0.98181859340E+03  0.98181859340E+03  0.00000000000E+00 0.  1.
    2000013    1    1    2    0    0 -0.59252243082E+03  0.78554843154E+02  0.87943689785E+03  0.14258902313E+04  0.95000000000E+03 0.  0.
   -2000013    1    1    2    0    0  0.59252243082E+03 -0.78554843154E+02 -0.26413523482E+03  0.11530486185E+04  0.95000000000E+03 0.  0.
<mgrwt>
<rscale>  0 0.25044619E+04</rscale>
<asrwt>0</asrwt>
<pdfrwt beam="2">  1        2 0.15104901E+00 0.25044619E+04</pdfrwt>
<pdfrwt beam="1">  1       -2 0.24571081E+00 0.25044619E+04</pdfrwt>
<totfact> 0.15755264E+00</totfact>
</mgrwt>
</event>
<event>
 4    1  0.1321115E-008  0.2388359E+04  0.7816531E-02  0.8443875E-01
         -2   -1    0    0    0  501 -0.00000000000E+00  0.00000000000E+00  0.64055763154E+03  0.64055763154E+03  0.00000000000E+00 0.  1.
          2   -1    0    0  501    0  0.00000000000E+00 -0.00000000000E+00 -0.22262853680E+04  0.22262853680E+04  0.00000000000E+00 0. -1.
    2000013    1    1    2    0    0  0.33410158585E+03  0.58464399817E+03 -0.11107424686E+04  0.16092486775E+04  0.95000000000E+03 0.  0.
   -2000013    1    1    2    0    0 -0.33410158585E+03 -0.58464399817E+03 -0.47498526780E+03  0.12575943221E+04  0.95000000000E+03 0.  0.
<mgrwt>
<rscale>  0 0.23883585E+04</rscale>
<asrwt>0</asrwt>
<pdfrwt beam="2">  1        2 0.34250544E+00 0.23883585E+04</pdfrwt>
<pdfrwt beam="1">  1       -2 0.98547328E-01 0.23883585E+04</pdfrwt>
<totfact> 0.38406002E+00</totfact>
</mgrwt>
</event>
<event>
 4    1  0.1321115E-008  0.2087506E+04  0.7816531E-02  0.8566767E-01
         -2   -1    0    0    0  501 -0.00000000000E+00  0.00000000000E+00  0.52729844196E+03  0.52729844196E+03  0.00000000000E+00 0. -1.
          2   -1    0    0  501    0  0.00000000000E+00 -0.00000000000E+00 -0.20660403090E+04  0.20660403090E+04  0.00000000000E+00 0.  1.
    2000013    1    1    2    0    0 -0.29819876109E+03  0.15467914954E+03 -0.43126113446E+03  0.10960539706E+04  0.95000000000E+03 0.  0.
   -2000013    1    1    2    0    0  0.29819876109E+03 -0.15467914954E+03 -0.11074807326E+04  0.14972847803E+04  0.95000000000E+03 0.  0.
<mgrwt>
<rscale>  0 0.20875055E+04</rscale>
<asrwt>0</asrwt>
<pdfrwt beam="2">  1        2 0.31785236E+00 0.20875055E+04</pdfrwt>
<pdfrwt beam="1">  1       -2 0.81122837E-01 0.20875055E+04</pdfrwt>
<totfact> 0.75843924E+00</totfact>
</mgrwt>
</event>
<event>
 4    1  0.1321115E-008  0.2019408E+04  0.7816531E-02  0.8597600E-01
          2   -1    0    0  501    0  0.00000000000E+00  0.00000000000E+00  0.14328940568E+04  0.14328940568E+04  0.00000000000E+00 0.  1.
         -2   -1    0    0    0  501 -0.00000000000E+00 -0.00000000000E+00 -0.71149890708E+03  0.71149890708E+03  0.00000000000E+00 0. -1.
    2000013    1    1    2    0    0  0.14606267391E+02 -0.28309286312E+03  0.56398159632E+03  0.11405832513E+04  0.95000000000E+03 0.  0.
   -2000013    1    1    2    0    0 -0.14606267391E+02  0.28309286312E+03  0.15741355337E+03  0.10038097125E+04  0.95000000000E+03 0.  0.
<mgrwt>
<rscale>  0 0.20194084E+04</rscale>
<asrwt>0</asrwt>
<pdfrwt beam="1">  1        2 0.22044524E+00 0.20194084E+04</pdfrwt>
<pdfrwt beam="2">  1       -2 0.10946137E+00 0.20194084E+04</pdfrwt>
<totfact> 0.85478712E+00</totfact>
</mgrwt>
</event>
<event>
 4    1  0.1321115E-008  0.2379995E+04  0.7816531E-02  0.8447031E-01
          1   -1    0    0  501    0  0.00000000000E+00  0.00000000000E+00  0.22204705664E+04  0.22204705664E+04  0.00000000000E+00 0.  1.
         -1   -1    0    0    0  501 -0.00000000000E+00 -0.00000000000E+00 -0.63774480888E+03  0.63774480888E+03  0.00000000000E+00 0. -1.
    2000013    1    1    2    0    0  0.60701583507E+03  0.38062261823E+03  0.81041861322E+03  0.14396597272E+04  0.95000000000E+03 0.  0.
   -2000013    1    1    2    0    0 -0.60701583507E+03 -0.38062261823E+03  0.77230714430E+03  0.14185556481E+04  0.95000000000E+03 0.  0.
<mgrwt>
<rscale>  0 0.23799946E+04</rscale>
<asrwt>0</asrwt>
<pdfrwt beam="1">  1        1 0.34161085E+00 0.23799946E+04</pdfrwt>
<pdfrwt beam="2">  1       -1 0.98114587E-01 0.23799946E+04</pdfrwt>
<totfact> 0.18845753E+00</totfact>
</mgrwt>
</event>
<event>
 4    1  0.1321115E-008  0.2705545E+04  0.7816531E-02  0.8333208E-01
         -1   -1    0    0    0  501 -0.00000000000E+00  0.00000000000E+00  0.85650558144E+03  0.85650558144E+03  0.00000000000E+00 0. -1.
          1   -1    0    0  501    0  0.00000000000E+00 -0.00000000000E+00 -0.21365815866E+04  0.21365815866E+04  0.00000000000E+00 0.  1.
    2000013    1    1    2    0    0  0.91893523411E+03 -0.26995865438E+03 -0.75162645216E+03  0.15442674520E+04  0.95000000000E+03 0.  0.
   -2000013    1    1    2    0    0 -0.91893523411E+03  0.26995865438E+03 -0.52844955296E+03  0.14488197160E+04  0.95000000000E+03 0.  0.
<mgrwt>
<rscale>  0 0.27055455E+04</rscale>
<asrwt>0</asrwt>
<pdfrwt beam="2">  1        1 0.32870486E+00 0.27055455E+04</pdfrwt>
<pdfrwt beam="1">  1       -1 0.13177009E+00 0.27055455E+04</pdfrwt>
<totfact> 0.10289889E+00</totfact>
</mgrwt>
</event>
<event>
 4    1  0.1321115E-008  0.2603519E+04  0.7816531E-02  0.8367007E-01
          2   -1    0    0  501    0  0.00000000000E+00  0.00000000000E+00  0.27332250029E+04  0.27332250029E+04  0.00000000000E+00 0. -1.
         -2   -1    0    0    0  501 -0.00000000000E+00 -0.00000000000E+00 -0.61999209985E+03  0.61999209985E+03  0.00000000000E+00 0.  1.
    2000013    1    1    2    0    0  0.32677895478E+03 -0.61074267783E+03  0.17763599060E+04  0.21301984929E+04  0.95000000000E+03 0.  0.
   -2000013    1    1    2    0    0 -0.32677895478E+03  0.61074267783E+03  0.33687299712E+03  0.12230186098E+04  0.95000000000E+03 0.  0.
<mgrwt>
<rscale>  0 0.26035191E+04</rscale>
<asrwt>0</asrwt>
<pdfrwt beam="1">  1        2 0.42049615E+00 0.26035191E+04</pdfrwt>
<pdfrwt beam="2">  1       -2 0.95383402E-01 0.26035191E+04</pdfrwt>
<totfact> 0.20707198E+00</totfact>
</mgrwt>
</event>
<event>
 4    1  0.1321115E-008  0.2314607E+04  0.7816531E-02  0.8472184E-01
         -2   -1    0    0    0  501 -0.00000000000E+00  0.00000000000E+00  0.15017236149E+04  0.15017236149E+04  0.00000000000E+00 0. -1.
          2   -1    0    0  501    0  0.00000000000E+00 -0.00000000000E+00 -0.89187584762E+03  0.89187584762E+03  0.00000000000E+00 0.  1.
    2000013    1    1    2    0    0  0.39649923348E+02 -0.48688016725E+03 -0.15549725160E+03  0.10794923848E+04  0.95000000000E+03 0.  0.
   -2000013    1    1    2    0    0 -0.39649923348E+02  0.48688016725E+03  0.76534501889E+03  0.13141070777E+04  0.95000000000E+03 0.  0.
<mgrwt>
<rscale>  0 0.23146067E+04</rscale>
<asrwt>0</asrwt>
<pdfrwt beam="2">  1        2 0.13721167E+00 0.23146067E+04</pdfrwt>
<pdfrwt beam="1">  1       -2 0.23103440E+00 0.23146067E+04</pdfrwt>
<totfact> 0.22645570E+00</totfact>
</mgrwt>
</event>
<event>
 4    1  0.1321115E-008  0.3971604E+04  0.7816531E-02  0.8010300E-01
         -2   -1    0    0    0  501 -0.00000000000E+00  0.00000000000E+00  0.17537191493E+04  0.17537191493E+04  0.00000000000E+00 0. -1.
          2   -1    0    0  501    0  0.00000000000E+00 -0.00000000000E+00 -0.22485981015E+04  0.22485981015E+04  0.00000000000E+00 0.  1.
    2000013    1    1    2    0    0 -0.69544385757E+03 -0.15200506508E+04 -0.74798312013E+03  0.20630498995E+04  0.95000000000E+03 0.  0.
   -2000013    1    1    2    0    0  0.69544385757E+03  0.15200506508E+04  0.25310416785E+03  0.19392673513E+04  0.95000000000E+03 0.  0.
<mgrwt>
<rscale>  0 0.39716040E+04</rscale>
<asrwt>0</asrwt>
<pdfrwt beam="2">  1        2 0.34593817E+00 0.39716040E+04</pdfrwt>
<pdfrwt beam="1">  1       -2 0.26980294E+00 0.39716040E+04</pdfrwt>
<totfact> 0.18631404E-01</totfact>
</mgrwt>
</event>
<event>
 4    1  0.1321115E-008  0.3183172E+04  0.7816531E-02  0.8193275E-01
         -2   -1    0    0    0  501 -0.00000000000E+00  0.00000000000E+00  0.10681627289E+04  0.10681627289E+04  0.00000000000E+00 0. -1.
          2   -1    0    0  501    0  0.00000000000E+00 -0.00000000000E+00 -0.23714988082E+04  0.23714988082E+04  0.00000000000E+00 0.  1.
    2000013    1    1    2    0    0  0.12065245303E+04  0.33164105675E+02 -0.11022118979E+04  0.18905481660E+04  0.95000000000E+03 0.  0.
   -2000013    1    1    2    0    0 -0.12065245303E+04 -0.33164105675E+02 -0.20112418142E+03  0.15491133711E+04  0.95000000000E+03 0.  0.
<mgrwt>
<rscale>  0 0.31831724E+04</rscale>
<asrwt>0</asrwt>
<pdfrwt beam="2">  1        2 0.36484597E+00 0.31831724E+04</pdfrwt>
<pdfrwt beam="1">  1       -2 0.16433273E+00 0.31831724E+04</pdfrwt>
<totfact> 0.81478825E-01</totfact>
</mgrwt>
</event>
<event>
 4    1  0.1321115E-008  0.2516038E+04  0.7816531E-02  0.8397294E-01
          2   -1    0    0  501    0  0.00000000000E+00  0.00000000000E+00  0.16593341731E+04  0.16593341731E+04  0.00000000000E+00 0.  1.
         -2   -1    0    0    0  501 -0.00000000000E+00 -0.00000000000E+00 -0.95376298297E+03  0.95376298297E+03  0.00000000000E+00 0. -1.
    2000013    1    1    2    0    0 -0.36926630515E+03  0.44601369869E+03  0.96265690966E+03  0.14712219918E+04  0.95000000000E+03 0.  0.
   -2000013    1    1    2    0    0  0.36926630515E+03 -0.44601369869E+03 -0.25708571951E+03  0.11418751642E+04  0.95000000000E+03 0.  0.
<mgrwt>
<rscale>  0 0.25160378E+04</rscale>
<asrwt>0</asrwt>
<pdfrwt beam="1">  1        2 0.25528218E+00 0.25160378E+04</pdfrwt>
<pdfrwt beam="2">  1       -2 0.14673277E+00 0.25160378E+04</pdfrwt>
<totfact> 0.29232292E+00</totfact>
</mgrwt>
</event>
<event>
 4    1  0.1321115E-008  0.2491369E+04  0.7816531E-02  0.8406067E-01
         -2   -1    0    0    0  501 -0.00000000000E+00  0.00000000000E+00  0.22989880237E+04  0.22989880237E+04  0.00000000000E+00 0.  1.
          2   -1    0    0  501    0  0.00000000000E+00 -0.00000000000E+00 -0.67496224519E+03  0.67496224519E+03  0.00000000000E+00 0. -1.
    2000013    1    1    2    0    0 -0.71213689429E+03  0.14072591018E+03  0.12294455556E+04  0.17149283111E+04  0.95000000000E+03 0.  0.
   -2000013    1    1    2    0    0  0.71213689429E+03 -0.14072591018E+03  0.39458022299E+03  0.12590219579E+04  0.95000000000E+03 0.  0.
<mgrwt>
<rscale>  0 0.24913692E+04</rscale>
<asrwt>0</asrwt>
<pdfrwt beam="2">  1        2 0.10384035E+00 0.24913692E+04</pdfrwt>
<pdfrwt beam="1">  1       -2 0.35369046E+00 0.24913692E+04</pdfrwt>
<totfact> 0.56486224E-01</totfact>
</mgrwt>
</event>
<event>
 4    1  0.1321115E-008  0.4154846E+04  0.7816531E-02  0.7974018E-01
          2   -1    0    0  501    0  0.00000000000E+00  0.00000000000E+00  0.27112436539E+04  0.27112436539E+04  0.00000000000E+00 0.  1.
         -2   -1    0    0    0  501 -0.00000000000E+00 -0.00000000000E+00 -0.15917734945E+04  0.15917734945E+04  0.00000000000E+00 0. -1.
    2000013    1    1    2    0    0 -0.36156044084E+03  0.98742397238E+03  0.21329377442E+04  0.25607919623E+04  0.95000000000E+03 0.  0.
   -2000013    1    1    2    0    0  0.36156044084E+03 -0.98742397238E+03 -0.10134675848E+04  0.17422251861E+04  0.95000000000E+03 0.  0.
<mgrwt>
<rscale>  0 0.41548457E+04</rscale>
<asrwt>0</asrwt>
<pdfrwt beam="1">  1        2 0.41711441E+00 0.41548457E+04</pdfrwt>
<pdfrwt beam="2">  1       -2 0.24488823E+00 0.41548457E+04</pdfrwt>
<totfact> 0.14074074E-01</totfact>
</mgrwt>
</event>
<event>
 4    1  0.1321115E-008  0.2557030E+04  0.7816531E-02  0.8382945E-01
         -2   -1    0    0    0  501 -0.00000000000E+00  0.00000000000E+00  0.68297938749E+03  0.68297938749E+03  0.00000000000E+00 0. -1.
          2   -1    0    0  501    0  0.00000000000E+00 -0.00000000000E+00 -0.23933373949E+04  0.23933373949E+04  0.00000000000E+00 0.  1.
    2000013    1    1    2    0    0 -0.50148779875E+03  0.48223714009E+03 -0.14543784770E+04  0.18712988607E+04  0.95000000000E+03 0.  0.
   -2000013    1    1    2    0    0  0.50148779875E+03 -0.48223714009E+03 -0.25597953035E+03  0.12050179217E+04  0.95000000000E+03 0.  0.
<mgrwt>
<rscale>  0 0.25570296E+04</rscale>
<asrwt>0</asrwt>
<pdfrwt beam="2">  1        2 0.36820575E+00 0.25570296E+04</pdfrwt>
<pdfrwt beam="1">  1       -2 0.10507375E+00 0.25570296E+04</pdfrwt>
<totfact> 0.26121658E+00</totfact>
</mgrwt>
</event>
<event>
 4    1  0.1321115E-008  0.2581391E+04  0.7816531E-02  0.8374550E-01
          2   -1    0    0  501    0  0.00000000000E+00  0.00000000000E+00  0.70835854495E+03  0.70835854495E+03  0.00000000000E+00 0.  1.
         -2   -1    0    0    0  501 -0.00000000000E+00 -0.00000000000E+00 -0.23517671485E+04  0.23517671485E+04  0.00000000000E+00 0. -1.
    2000013    1    1    2    0    0 -0.67096902766E+03 -0.55326513849E+03 -0.72186800710E+03  0.14764468054E+04  0.95000000000E+03 0.  0.
   -2000013    1    1    2    0    0  0.67096902766E+03  0.55326513849E+03 -0.92154059646E+03  0.15836788881E+04  0.95000000000E+03 0.  0.
<mgrwt>
<rscale>  0 0.25813906E+04</rscale>
<asrwt>0</asrwt>
<pdfrwt beam="1">  1        2 0.10897824E+00 0.25813906E+04</pdfrwt>
<pdfrwt beam="2">  1       -2 0.36181033E+00 0.25813906E+04</pdfrwt>
<totfact> 0.46838240E-01</totfact>
</mgrwt>
</event>
<event>
 4    1  0.1321115E-008  0.2634809E+04  0.7816531E-02  0.8356473E-01
          2   -1    0    0  501    0  0.00000000000E+00  0.00000000000E+00  0.11393973902E+04  0.11393973902E+04  0.00000000000E+00 0.  1.
         -2   -1    0    0    0  501 -0.00000000000E+00 -0.00000000000E+00 -0.15232211759E+04  0.15232211759E+04  0.00000000000E+00 0. -1.
    2000013    1    1    2    0    0  0.70099836569E+03 -0.18449855553E+03 -0.75239714505E+03  0.14121047729E+04  0.95000000000E+03 0.  0.
   -2000013    1    1    2    0    0 -0.70099836569E+03  0.18449855553E+03  0.36857335932E+03  0.12505137932E+04  0.95000000000E+03 0.  0.
<mgrwt>
<rscale>  0 0.26348087E+04</rscale>
<asrwt>0</asrwt>
<pdfrwt beam="1">  1        2 0.17529191E+00 0.26348087E+04</pdfrwt>
<pdfrwt beam="2">  1       -2 0.23434172E+00 0.26348087E+04</pdfrwt>
<totfact> 0.14597813E+00</totfact>
</mgrwt>
</event>
<event>
 4    1  0.1321115E-008  0.2056542E+04  0.7816531E-02  0.8580632E-01
         -2   -1    0    0    0  501 -0.00000000000E+00  0.00000000000E+00  0.45826271119E+03  0.45826271119E+03  0.00000000000E+00 0. -1.
          2   -1    0    0  501    0  0.00000000000E+00 -0.00000000000E+00 -0.23072828869E+04  0.23072828869E+04  0.00000000000E+00 0.  1.
    2000013    1    1    2    0    0  0.18934144667E+03 -0.21168450736E+03 -0.55824960458E+03  0.11378941669E+04  0.95000000000E+03 0.  0.
   -2000013    1    1    2    0    0 -0.18934144667E+03  0.21168450736E+03 -0.12907705711E+04  0.16276514311E+04  0.95000000000E+03 0.  0.
<mgrwt>
<rscale>  0 0.20565424E+04</rscale>
<asrwt>0</asrwt>
<pdfrwt beam="2">  1        2 0.35496660E+00 0.20565424E+04</pdfrwt>
<pdfrwt beam="1">  1       -2 0.70501956E-01 0.20565424E+04</pdfrwt>
<totfact> 0.76009527E+00</totfact>
</mgrwt>
</event>
<event>
 4    1  0.1321115E-008  0.2219286E+04  0.7816531E-02  0.8510443E-01
          2   -1    0    0  501    0  0.00000000000E+00  0.00000000000E+00  0.25595705514E+04  0.25595705514E+04  0.00000000000E+00 0.  1.
         -2   -1    0    0    0  501 -0.00000000000E+00 -0.00000000000E+00 -0.48106035380E+03  0.48106035380E+03  0.00000000000E+00 0. -1.
    2000013    1    1    2    0    0 -0.44349565583E+03  0.31311657917E+03  0.78633438205E+03  0.13474242648E+04  0.95000000000E+03 0.  0.
   -2000013    1    1    2    0    0  0.44349565583E+03 -0.31311657917E+03  0.12921758156E+04  0.16932066404E+04  0.95000000000E+03 0.  0.
<mgrwt>
<rscale>  0 0.22192863E+04</rscale>
<asrwt>0</asrwt>
<pdfrwt beam="1">  1        2 0.39378008E+00 0.22192863E+04</pdfrwt>
<pdfrwt beam="2">  1       -2 0.74009287E-01 0.22192863E+04</pdfrwt>
<totfact> 0.48241526E+00</totfact>
</mgrwt>
</event>
<event>
 4    1  0.1321115E-008  0.2726284E+04  0.7816531E-02  0.8326527E-01
         -2   -1    0    0    0  501 -0.00000000000E+00  0.00000000000E+00  0.66186967517E+03  0.66186967517E+03  0.00000000000E+00 0. -1.
          2   -1    0    0  501    0  0.00000000000E+00 -0.00000000000E+00 -0.28074350122E+04  0.28074350122E+04  0.00000000000E+00 0.  1.
    2000013    1    1    2    0    0 -0.22665693420E+03  0.88128216362E+03 -0.61817333749E+03  0.14535026291E+04  0.95000000000E+03 0.  0.
   -2000013    1    1    2    0    0  0.22665693420E+03 -0.88128216362E+03 -0.15273919996E+04  0.20158020583E+04  0.95000000000E+03 0.  0.
<mgrwt>
<rscale>  0 0.27262840E+04</rscale>
<asrwt>0</asrwt>
<pdfrwt beam="2">  1        2 0.43191309E+00 0.27262840E+04</pdfrwt>
<pdfrwt beam="1">  1       -2 0.10182610E+00 0.27262840E+04</pdfrwt>
<totfact> 0.15845063E+00</totfact>
</mgrwt>
</event>
<event>
 4    1  0.1321115E-008  0.2308783E+04  0.7816531E-02  0.8474466E-01
         -2   -1    0    0    0  501 -0.00000000000E+00  0.00000000000E+00  0.64573473696E+03  0.64573473696E+03  0.00000000000E+00 0. -1.
          2   -1    0    0  501    0  0.00000000000E+00 -0.00000000000E+00 -0.20637265349E+04  0.20637265349E+04  0.00000000000E+00 0.  1.
    2000013    1    1    2    0    0  0.62808619805E+03 -0.15718894705E+02 -0.92973645181E+03  0.14702548166E+04  0.95000000000E+03 0.  0.
   -2000013    1    1    2    0    0 -0.62808619805E+03  0.15718894705E+02 -0.48825534615E+03  0.12392064553E+04  0.95000000000E+03 0.  0.
<mgrwt>
<rscale>  0 0.23087832E+04</rscale>
<asrwt>0</asrwt>
<pdfrwt beam="2">  1        2 0.31749640E+00 0.23087832E+04</pdfrwt>
<pdfrwt beam="1">  1       -2 0.99343804E-01 0.23087832E+04</pdfrwt>
<totfact> 0.46791382E+00</totfact>
</mgrwt>
</event>
<event>
 4    1  0.1321115E-008  0.2385355E+04  0.7816531E-02  0.8445007E-01
          2   -1    0    0  501    0  0.00000000000E+00  0.00000000000E+00  0.25119674130E+04  0.25119674130E+04  0.00000000000E+00 0.  1.
         -2   -1    0    0    0  501 -0.00000000000E+00 -0.00000000000E+00 -0.56628130609E+03  0.56628130609E+03  0.00000000000E+00 0. -1.
    2000013    1    1    2    0    0  0.61102859848E+03  0.20634090482E+03  0.13891050654E+04  0.18022334477E+04  0.95000000000E+03 0.  0.
   -2000013    1    1    2    0    0 -0.61102859848E+03 -0.20634090482E+03  0.55658104153E+03  0.12760152714E+04  0.95000000000E+03 0.  0.
<mgrwt>
<rscale>  0 0.23853555E+04</rscale>
<asrwt>0</asrwt>
<pdfrwt beam="1">  1        2 0.38645652E+00 0.23853555E+04</pdfrwt>
<pdfrwt beam="2">  1       -2 0.87120202E-01 0.23853555E+04</pdfrwt>
<totfact> 0.35125074E+00</totfact>
</mgrwt>
</event>
<event>
 4    1  0.1321115E-008  0.2533728E+04  0.7816531E-02  0.8391067E-01
          1   -1    0    0  501    0  0.00000000000E+00  0.00000000000E+00  0.27229250208E+04  0.27229250208E+04  0.00000000000E+00 0.  1.
         -1   -1    0    0    0  501 -0.00000000000E+00 -0.00000000000E+00 -0.58941946555E+03  0.58941946555E+03  0.00000000000E+00 0. -1.
    2000013    1    1    2    0    0  0.53646504563E+03 -0.42061138910E+03  0.42933643300E+03  0.12456076664E+04  0.95000000000E+03 0.  0.
   -2000013    1    1    2    0    0 -0.53646504563E+03  0.42061138910E+03  0.17041691223E+04  0.20667368200E+04  0.95000000000E+03 0.  0.
<mgrwt>
<rscale>  0 0.25337285E+04</rscale>
<asrwt>0</asrwt>
<pdfrwt beam="1">  1        1 0.41891153E+00 0.25337285E+04</pdfrwt>
<pdfrwt beam="2">  1       -1 0.90679920E-01 0.25337285E+04</pdfrwt>
<totfact> 0.99460618E-01</totfact>
</mgrwt>
</event>
<event>
 4    1  0.1321115E-008  0.3332054E+04  0.7816531E-02  0.8154787E-01
         -2   -1    0    0    0  501 -0.00000000000E+00  0.00000000000E+00  0.24747014622E+04  0.24747014622E+04  0.00000000000E+00 0. -1.
          2   -1    0    0  501    0  0.00000000000E+00 -0.00000000000E+00 -0.11216085463E+04  0.11216085463E+04  0.00000000000E+00 0.  1.
    2000013    1    1    2    0    0  0.10750171508E+04 -0.81438924053E+03  0.42514757337E+03  0.17035674829E+04  0.95000000000E+03 0.  0.
   -2000013    1    1    2    0    0 -0.10750171508E+04  0.81438924053E+03  0.92794534244E+03  0.18927425256E+04  0.95000000000E+03 0.  0.
<mgrwt>
<rscale>  0 0.33320542E+04</rscale>
<asrwt>0</asrwt>
<pdfrwt beam="2">  1        2 0.17255516E+00 0.33320542E+04</pdfrwt>
<pdfrwt beam="1">  1       -2 0.38072330E+00 0.33320542E+04</pdfrwt>
<totfact> 0.17421694E-01</totfact>
</mgrwt>
</event>
<event>
 4    1  0.1321115E-008  0.2395322E+04  0.7816531E-02  0.8441257E-01
         -2   -1    0    0    0  501 -0.00000000000E+00  0.00000000000E+00  0.17388679180E+04  0.17388679180E+04  0.00000000000E+00 0. -1.
          2   -1    0    0  501    0  0.00000000000E+00 -0.00000000000E+00 -0.82489995387E+03  0.82489995387E+03  0.00000000000E+00 0.  1.
    2000013    1    1    2    0    0  0.53500176778E+03  0.41952498446E+03  0.73948424154E+03  0.13825935945E+04  0.95000000000E+03 0.  0.
   -2000013    1    1    2    0    0 -0.53500176778E+03 -0.41952498446E+03  0.17448372263E+03  0.11811742774E+04  0.95000000000E+03 0.  0.
<mgrwt>
<rscale>  0 0.23953222E+04</rscale>
<asrwt>0</asrwt>
<pdfrwt beam="2">  1        2 0.12690769E+00 0.23953222E+04</pdfrwt>
<pdfrwt beam="1">  1       -2 0.26751814E+00 0.23953222E+04</pdfrwt>
<totfact> 0.14924909E+00</totfact>
</mgrwt>
</event>
<event>
 4    1  0.1321115E-008  0.2218757E+04  0.7816531E-02  0.8510661E-01
          1   -1    0    0  501    0  0.00000000000E+00  0.00000000000E+00  0.12125322889E+04  0.12125322889E+04  0.00000000000E+00 0.  1.
         -1   -1    0    0    0  501 -0.00000000000E+00 -0.00000000000E+00 -0.10150000727E+04  0.10150000727E+04  0.00000000000E+00 0. -1.
    2000013    1    1    2    0    0 -0.35910529529E+03 -0.41920293739E+03  0.25277638784E+03  0.11274234422E+04  0.95000000000E+03 0.  0.
   -2000013    1    1    2    0    0  0.35910529529E+03  0.41920293739E+03 -0.55244171638E+02  0.11001089193E+04  0.95000000000E+03 0.  0.
<mgrwt>
<rscale>  0 0.22187567E+04</rscale>
<asrwt>0</asrwt>
<pdfrwt beam="1">  1        1 0.18654343E+00 0.22187567E+04</pdfrwt>
<pdfrwt beam="2">  1       -1 0.15615386E+00 0.22187567E+04</pdfrwt>
<totfact> 0.29779344E+00</totfact>
</mgrwt>
</event>
<event>
 4    1  0.1321115E-008  0.1930470E+04  0.7816531E-02  0.8639837E-01
          2   -1    0    0  501    0  0.00000000000E+00  0.00000000000E+00  0.17535927084E+04  0.17535927084E+04  0.00000000000E+00 0.  1.
         -2   -1    0    0    0  501 -0.00000000000E+00 -0.00000000000E+00 -0.53129681451E+03  0.53129681451E+03  0.00000000000E+00 0. -1.
    2000013    1    1    2    0    0  0.14737237072E+03 -0.14704041842E+02  0.51041458316E+03  0.10885577023E+04  0.95000000000E+03 0.  0.
   -2000013    1    1    2    0    0 -0.14737237072E+03  0.14704041842E+02  0.71188131078E+03  0.11963318207E+04  0.95000000000E+03 0.  0.
<mgrwt>
<rscale>  0 0.19304696E+04</rscale>
<asrwt>0</asrwt>
<pdfrwt beam="1">  1        2 0.26978349E+00 0.19304696E+04</pdfrwt>
<pdfrwt beam="2">  1       -2 0.81737972E-01 0.19304696E+04</pdfrwt>
<totfact> 0.11264571E+01</totfact>
</mgrwt>
</event>
<event>
 4    1  0.1321115E-008  0.2109267E+04  0.7816531E-02  0.8557172E-01
         -2   -1    0    0    0  501 -0.00000000000E+00  0.00000000000E+00  0.60240672346E+03  0.60240672346E+03  0.00000000000E+00 0. -1.
          2   -1    0    0  501    0  0.00000000000E+00 -0.00000000000E+00 -0.18463465008E+04  0.18463465008E+04  0.00000000000E+00 0.  1.
    2000013    1    1    2    0    0  0.20482083086E+03 -0.40962634637E+03 -0.62486751259E+03  0.12258485733E+04  0.95000000000E+03 0.  0.
   -2000013    1    1    2    0    0 -0.20482083086E+03  0.40962634637E+03 -0.61907226478E+03  0.12229046510E+04  0.95000000000E+03 0.  0.
<mgrwt>
<rscale>  0 0.21092667E+04</rscale>
<asrwt>0</asrwt>
<pdfrwt beam="2">  1        2 0.28405331E+00 0.21092667E+04</pdfrwt>
<pdfrwt beam="1">  1       -2 0.92677958E-01 0.21092667E+04</pdfrwt>
<totfact> 0.73940376E+00</totfact>
</mgrwt>
</event>
<event>
 4    1  0.1321115E-008  0.3070865E+04  0.7816531E-02  0.8223779E-01
          1   -1    0    0  501    0  0.00000000000E+00  0.00000000000E+00  0.17233363605E+04  0.17233363605E+04  0.00000000000E+00 0.  1.
         -1   -1    0    0    0  501 -0.00000000000E+00 -0.00000000000E+00 -0.13680170265E+04  0.13680170265E+04  0.00000000000E+00 0. -1.
    2000013    1    1    2    0    0  0.92285276365E+02 -0.11326074459E+04 -0.22968466140E+03  0.14988566450E+04  0.95000000000E+03 0.  0.
   -2000013    1    1    2    0    0 -0.92285276365E+02  0.11326074459E+04  0.58500399542E+03  0.15924967420E+04  0.95000000000E+03 0.  0.
<mgrwt>
<rscale>  0 0.30708653E+04</rscale>
<asrwt>0</asrwt>
<pdfrwt beam="1">  1        1 0.26512867E+00 0.30708653E+04</pdfrwt>
<pdfrwt beam="2">  1       -1 0.21046416E+00 0.30708653E+04</pdfrwt>
<totfact> 0.49606608E-01</totfact>
</mgrwt>
</event>
<event>
 4    1  0.1321115E-008  0.4767417E+04  0.7816531E-02  0.7865422E-01
          2   -1    0    0  501    0  0.00000000000E+00  0.00000000000E+00  0.37833278430E+04  0.37833278430E+04  0.00000000000E+00 0.  1.
         -2   -1    0    0    0  501 -0.00000000000E+00 -0.00000000000E+00 -0.15018702031E+04  0.15018702031E+04  0.00000000000E+00 0. -1.
    2000013    1    1    2    0    0 -0.28529609445E+03 -0.14118058112E+04  0.29640364004E+04  0.34296648952E+04  0.95000000000E+03 0.  0.
   -2000013    1    1    2    0    0  0.28529609445E+03  0.14118058112E+04 -0.68257876058E+03  0.18555331510E+04  0.95000000000E+03 0.  0.
<mgrwt>
<rscale>  0 0.47674175E+04</rscale>
<asrwt>0</asrwt>
<pdfrwt beam="1">  1        2 0.58205043E+00 0.47674175E+04</pdfrwt>
<pdfrwt beam="2">  1       -2 0.23105696E+00 0.47674175E+04</pdfrwt>
<totfact> 0.31473779E-02</totfact>
</mgrwt>
</event>
<event>
 4    1  0.1321115E-008  0.2507776E+04  0.7816531E-02  0.8400221E-01
          2   -1    0    0  501    0  0.00000000000E+00  0.00000000000E+00  0.19780796701E+04  0.19780796701E+04  0.00000000000E+00 0.  1.
         -2   -1    0    0    0  501 -0.00000000000E+00 -0.00000000000E+00 -0.79482869957E+03  0.79482869957E+03  0.00000000000E+00 0. -1.
    2000013    1    1    2    0    0  0.66310503801E+03  0.29135392015E+03  0.17037630726E+03  0.12066994175E+04  0.95000000000E+03 0.  0.
   -2000013    1    1    2    0    0 -0.66310503801E+03 -0.29135392015E+03  0.10128746633E+04  0.15662089521E+04  0.95000000000E+03 0.  0.
<mgrwt>
<rscale>  0 0.25077755E+04</rscale>
<asrwt>0</asrwt>
<pdfrwt beam="1">  1        2 0.30431995E+00 0.25077755E+04</pdfrwt>
<pdfrwt beam="2">  1       -2 0.12228134E+00 0.25077755E+04</pdfrwt>
<totfact> 0.31030526E+00</totfact>
</mgrwt>
</event>
<event>
 4    1  0.1321115E-008  0.2921612E+04  0.7816531E-02  0.8266476E-01
         -1   -1    0    0    0  501 -0.00000000000E+00  0.00000000000E+00  0.60221179518E+03  0.60221179518E+03  0.00000000000E+00 0. -1.
          1   -1    0    0  501    0  0.00000000000E+00 -0.00000000000E+00 -0.35435276390E+04  0.35435276390E+04  0.00000000000E+00 0.  1.
    2000013    1    1    2    0    0 -0.40800498446E+03 -0.74655838459E+03 -0.45964675771E+03  0.13555783381E+04  0.95000000000E+03 0.  0.
   -2000013    1    1    2    0    0  0.40800498446E+03  0.74655838459E+03 -0.24816690861E+04  0.27901610961E+04  0.95000000000E+03 0.  0.
<mgrwt>
<rscale>  0 0.29216120E+04</rscale>
<asrwt>0</asrwt>
<pdfrwt beam="2">  1        1 0.54515808E+00 0.29216120E+04</pdfrwt>
<pdfrwt beam="1">  1       -1 0.92647972E-01 0.29216120E+04</pdfrwt>
<totfact> 0.22384051E-01</totfact>
</mgrwt>
</event>
<event>
 4    1  0.1321115E-008  0.3167363E+04  0.7816531E-02  0.8197490E-01
          2   -1    0    0  501    0  0.00000000000E+00  0.00000000000E+00  0.29744185740E+04  0.29744185740E+04  0.00000000000E+00 0.  1.
         -2   -1    0    0    0  501 -0.00000000000E+00 -0.00000000000E+00 -0.84320564315E+03  0.84320564315E+03  0.00000000000E+00 0. -1.
    2000013    1    1    2    0    0  0.54206682257E+03  0.57217599761E+03 -0.13021014483E+03  0.12412399020E+04  0.95000000000E+03 0.  0.
   -2000013    1    1    2    0    0 -0.54206682257E+03 -0.57217599761E+03  0.22614230757E+04  0.25763843152E+04  0.95000000000E+03 0.  0.
<mgrwt>
<rscale>  0 0.31673626E+04</rscale>
<asrwt>0</asrwt>
<pdfrwt beam="1">  1        2 0.45760285E+00 0.31673626E+04</pdfrwt>
<pdfrwt beam="2">  1       -2 0.12972395E+00 0.31673626E+04</pdfrwt>
<totfact> 0.66557239E-01</totfact>
</mgrwt>
</event>
<event>
 4    1  0.1321115E-008  0.2066996E+04  0.7816531E-02  0.8575923E-01
          2   -1    0    0  501    0  0.00000000000E+00  0.00000000000E+00  0.14187241906E+04  0.14187241906E+04  0.00000000000E+00 0.  1.
         -2   -1    0    0    0  501 -0.00000000000E+00 -0.00000000000E+00 -0.75287193869E+03  0.75287193869E+03  0.00000000000E+00 0. -1.
    2000013    1    1    2    0    0  0.11082459049E+03 -0.38940236186E+03  0.28959146447E+03  0.10725108417E+04  0.95000000000E+03 0.  0.
   -2000013    1    1    2    0    0 -0.11082459049E+03  0.38940236186E+03  0.37626078749E+03  0.10990852876E+04  0.95000000000E+03 0.  0.
<mgrwt>
<rscale>  0 0.20669955E+04</rscale>
<asrwt>0</asrwt>
<pdfrwt beam="1">  1        2 0.21826526E+00 0.20669955E+04</pdfrwt>
<pdfrwt beam="2">  1       -2 0.11582645E+00 0.20669955E+04</pdfrwt>
<totfact> 0.75599882E+00</totfact>
</mgrwt>
</event>
<event>
 4    1  0.1321115E-008  0.2940579E+04  0.7816531E-02  0.8260905E-01
          1   -1    0    0  501    0  0.00000000000E+00  0.00000000000E+00  0.17856531147E+04  0.17856531147E+04  0.00000000000E+00 0. -1.
         -1   -1    0    0    0  501 -0.00000000000E+00 -0.00000000000E+00 -0.12106222682E+04  0.12106222682E+04  0.00000000000E+00 0.  1.
    2000013    1    1    2    0    0  0.18150297359E+02 -0.11124428781E+04  0.13848222901E+03  0.14695359533E+04  0.95000000000E+03 0.  0.
   -2000013    1    1    2    0    0 -0.18150297359E+02  0.11124428781E+04  0.43654861753E+03  0.15267394296E+04  0.95000000000E+03 0.  0.
<mgrwt>
<rscale>  0 0.29405791E+04</rscale>
<asrwt>0</asrwt>
<pdfrwt beam="1">  1        1 0.27471587E+00 0.29405791E+04</pdfrwt>
<pdfrwt beam="2">  1       -1 0.18624958E+00 0.29405791E+04</pdfrwt>
<totfact> 0.66935632E-01</totfact>
</mgrwt>
</event>
<event>
 4    1  0.1321115E-008  0.2693713E+04  0.7816531E-02  0.8337048E-01
          2   -1    0    0  501    0  0.00000000000E+00  0.00000000000E+00  0.18956307298E+04  0.18956307298E+04  0.00000000000E+00 0.  1.
         -2   -1    0    0    0  501 -0.00000000000E+00 -0.00000000000E+00 -0.95694935405E+03  0.95694935405E+03  0.00000000000E+00 0. -1.
    2000013    1    1    2    0    0 -0.54148727932E+03 -0.65567941690E+03  0.92898868750E+03  0.15775436453E+04  0.95000000000E+03 0.  0.
   -2000013    1    1    2    0    0  0.54148727932E+03  0.65567941690E+03  0.96926882815E+01  0.12750364385E+04  0.95000000000E+03 0.  0.
<mgrwt>
<rscale>  0 0.26937131E+04</rscale>
<asrwt>0</asrwt>
<pdfrwt beam="1">  1        2 0.29163550E+00 0.26937131E+04</pdfrwt>
<pdfrwt beam="2">  1       -2 0.14722298E+00 0.26937131E+04</pdfrwt>
<totfact> 0.21102195E+00</totfact>
</mgrwt>
</event>
<event>
 4    1  0.1321115E-008  0.2643199E+04  0.7816531E-02  0.8353674E-01
          2   -1    0    0  501    0  0.00000000000E+00  0.00000000000E+00  0.28112531549E+04  0.28112531549E+04  0.00000000000E+00 0.  1.
         -2   -1    0    0    0  501 -0.00000000000E+00 -0.00000000000E+00 -0.62129773721E+03  0.62129773721E+03  0.00000000000E+00 0. -1.
    2000013    1    1    2    0    0 -0.84815472544E+03 -0.14819890309E+03  0.67861199471E+03  0.14506355823E+04  0.95000000000E+03 0.  0.
   -2000013    1    1    2    0    0  0.84815472544E+03  0.14819890309E+03  0.15113434230E+04  0.19819153098E+04  0.95000000000E+03 0.  0.
<mgrwt>
<rscale>  0 0.26431990E+04</rscale>
<asrwt>0</asrwt>
<pdfrwt beam="1">  1        2 0.43250048E+00 0.26431990E+04</pdfrwt>
<pdfrwt beam="2">  1       -2 0.95584268E-01 0.26431990E+04</pdfrwt>
<totfact> 0.18428876E+00</totfact>
</mgrwt>
</event>
<event>
 4    1  0.1321115E-008  0.2347063E+04  0.7816531E-02  0.8459593E-01
         -2   -1    0    0    0  501 -0.00000000000E+00  0.00000000000E+00  0.76669779560E+03  0.76669779560E+03  0.00000000000E+00 0. -1.
          2   -1    0    0  501    0  0.00000000000E+00 -0.00000000000E+00 -0.17962431533E+04  0.17962431533E+04  0.00000000000E+00 0.  1.
    2000013    1    1    2    0    0  0.88002591907E+02 -0.58688977764E+03 -0.13259344487E+03  0.11279472899E+04  0.95000000000E+03 0.  0.
   -2000013    1    1    2    0    0 -0.88002591907E+02  0.58688977764E+03 -0.89695191281E+03  0.14349936589E+04  0.95000000000E+03 0.  0.
<mgrwt>
<rscale>  0 0.23470626E+04</rscale>
<asrwt>0</asrwt>
<pdfrwt beam="2">  1        2 0.27634510E+00 0.23470626E+04</pdfrwt>
<pdfrwt beam="1">  1       -2 0.11795351E+00 0.23470626E+04</pdfrwt>
<totfact> 0.43394330E+00</totfact>
</mgrwt>
</event>
<event>
 4    1  0.1321115E-008  0.2148133E+04  0.7816531E-02  0.8540332E-01
          2   -1    0    0  501    0  0.00000000000E+00  0.00000000000E+00  0.10808163127E+04  0.10808163127E+04  0.00000000000E+00 0.  1.
         -2   -1    0    0    0  501 -0.00000000000E+00 -0.00000000000E+00 -0.10673584258E+04  0.10673584258E+04  0.00000000000E+00 0. -1.
    2000013    1    1    2    0    0  0.94579610808E+01  0.50085050453E+03  0.20060262466E+02  0.10741708873E+04  0.95000000000E+03 0.  0.
   -2000013    1    1    2    0    0 -0.94579610808E+01 -0.50085050453E+03 -0.66023755662E+01  0.10740038511E+04  0.95000000000E+03 0.  0.
<mgrwt>
<rscale>  0 0.21481326E+04</rscale>
<asrwt>0</asrwt>
<pdfrwt beam="1">  1        2 0.16627943E+00 0.21481326E+04</pdfrwt>
<pdfrwt beam="2">  1       -2 0.16420899E+00 0.21481326E+04</pdfrwt>
<totfact> 0.48216067E+00</totfact>
</mgrwt>
</event>
<event>
 4    1  0.1321115E-008  0.2814437E+04  0.7816531E-02  0.8298800E-01
          1   -1    0    0  501    0  0.00000000000E+00  0.00000000000E+00  0.19454752456E+04  0.19454752456E+04  0.00000000000E+00 0.  1.
         -1   -1    0    0    0  501 -0.00000000000E+00 -0.00000000000E+00 -0.10178820497E+04  0.10178820497E+04  0.00000000000E+00 0. -1.
    2000013    1    1    2    0    0 -0.15699630408E+03 -0.98941698983E+03  0.75054966826E+03  0.15714383932E+04  0.95000000000E+03 0.  0.
   -2000013    1    1    2    0    0  0.15699630408E+03  0.98941698983E+03  0.17704352765E+03  0.13919189021E+04  0.95000000000E+03 0.  0.
<mgrwt>
<rscale>  0 0.28144373E+04</rscale>
<asrwt>0</asrwt>
<pdfrwt beam="1">  1        1 0.29930388E+00 0.28144373E+04</pdfrwt>
<pdfrwt beam="2">  1       -1 0.15659724E+00 0.28144373E+04</pdfrwt>
<totfact> 0.87042692E-01</totfact>
</mgrwt>
</event>
<event>
 4    1  0.1321115E-008  0.2230723E+04  0.7816531E-02  0.8505748E-01
         -4   -1    0    0    0  501 -0.00000000000E+00  0.00000000000E+00  0.49261601318E+03  0.49261601318E+03  0.00000000000E+00 0. -1.
          4   -1    0    0  501    0  0.00000000000E+00 -0.00000000000E+00 -0.25253564927E+04  0.25253564927E+04  0.00000000000E+00 0.  1.
    2000013    1    1    2    0    0 -0.15828827654E+03  0.25336830399E+03 -0.33683590604E+03  0.10512892578E+04  0.95000000000E+03 0.  0.
   -2000013    1    1    2    0    0  0.15828827654E+03 -0.25336830399E+03 -0.16959045735E+04  0.19666832481E+04  0.95000000000E+03 0.  0.
<mgrwt>
<rscale>  0 0.22307228E+04</rscale>
<asrwt>0</asrwt>
<pdfrwt beam="2">  1        4 0.38851639E+00 0.22307228E+04</pdfrwt>
<pdfrwt beam="1">  1       -4 0.75787077E-01 0.22307228E+04</pdfrwt>
<totfact> 0.23448524E-02</totfact>
</mgrwt>
</event>
<event>
 4    1  0.1321115E-008  0.2242857E+04  0.7816531E-02  0.8500799E-01
          2   -1    0    0  501    0  0.00000000000E+00  0.00000000000E+00  0.15913905135E+04  0.15913905135E+04  0.00000000000E+00 0.  1.
         -2   -1    0    0    0  501 -0.00000000000E+00 -0.00000000000E+00 -0.79025360466E+03  0.79025360466E+03  0.00000000000E+00 0. -1.
    2000013    1    1    2    0    0 -0.27285712822E+03 -0.25920681822E+03 -0.90041607815E+02  0.10257907575E+04  0.95000000000E+03 0.  0.
   -2000013    1    1    2    0    0  0.27285712822E+03  0.25920681822E+03  0.89117851662E+03  0.13558533606E+04  0.95000000000E+03 0.  0.
<mgrwt>
<rscale>  0 0.22428572E+04</rscale>
<asrwt>0</asrwt>
<pdfrwt beam="1">  1        2 0.24482931E+00 0.22428572E+04</pdfrwt>
<pdfrwt beam="2">  1       -2 0.12157748E+00 0.22428572E+04</pdfrwt>
<totfact> 0.52801080E+00</totfact>
</mgrwt>
</event>
<event>
 4    1  0.1321115E-008  0.2357911E+04  0.7816531E-02  0.8455431E-01
          2   -1    0    0  501    0  0.00000000000E+00  0.00000000000E+00  0.12305053521E+04  0.12305053521E+04  0.00000000000E+00 0.  1.
         -2   -1    0    0    0  501 -0.00000000000E+00 -0.00000000000E+00 -0.11295652257E+04  0.11295652257E+04  0.00000000000E+00 0. -1.
    2000013    1    1    2    0    0 -0.48568530161E+02 -0.58437568535E+03  0.42973955050E+03  0.11962566301E+04  0.95000000000E+03 0.  0.
   -2000013    1    1    2    0    0  0.48568530161E+02  0.58437568535E+03 -0.32879942407E+03  0.11638139478E+04  0.95000000000E+03 0.  0.
<mgrwt>
<rscale>  0 0.23579110E+04</rscale>
<asrwt>0</asrwt>
<pdfrwt beam="1">  1        2 0.18930852E+00 0.23579110E+04</pdfrwt>
<pdfrwt beam="2">  1       -2 0.17377927E+00 0.23579110E+04</pdfrwt>
<totfact> 0.32847996E+00</totfact>
</mgrwt>
</event>
<event>
 4    1  0.1321115E-008  0.2678924E+04  0.7816531E-02  0.8341876E-01
          2   -1    0    0  501    0  0.00000000000E+00  0.00000000000E+00  0.21812006028E+04  0.21812006028E+04  0.00000000000E+00 0.  1.
         -2   -1    0    0    0  501 -0.00000000000E+00 -0.00000000000E+00 -0.82255573445E+03  0.82255573445E+03  0.00000000000E+00 0. -1.
    2000013    1    1    2    0    0 -0.94093243191E+03  0.25571799456E+02  0.59503193558E+03  0.14637522887E+04  0.95000000000E+03 0.  0.
   -2000013    1    1    2    0    0  0.94093243191E+03 -0.25571799456E+02  0.76361293274E+03  0.15400040485E+04  0.95000000000E+03 0.  0.
<mgrwt>
<rscale>  0 0.26789245E+04</rscale>
<asrwt>0</asrwt>
<pdfrwt beam="1">  1        2 0.33556932E+00 0.26789245E+04</pdfrwt>
<pdfrwt beam="2">  1       -2 0.12654704E+00 0.26789245E+04</pdfrwt>
<totfact> 0.21614551E+00</totfact>
</mgrwt>
</event>
<event>
 4    1  0.1321115E-008  0.3196610E+04  0.7816531E-02  0.8189713E-01
         -2   -1    0    0    0  501 -0.00000000000E+00  0.00000000000E+00  0.57720532033E+03  0.57720532033E+03  0.00000000000E+00 0. -1.
          2   -1    0    0  501    0  0.00000000000E+00 -0.00000000000E+00 -0.44257727335E+04  0.44257727335E+04  0.00000000000E+00 0.  1.
    2000013    1    1    2    0    0  0.74005187629E+03 -0.90121139617E+03 -0.10782367770E+04  0.18506629373E+04  0.95000000000E+03 0.  0.
   -2000013    1    1    2    0    0 -0.74005187629E+03  0.90121139617E+03 -0.27703306362E+04  0.31523151166E+04  0.95000000000E+03 0.  0.
<mgrwt>
<rscale>  0 0.31966104E+04</rscale>
<asrwt>0</asrwt>
<pdfrwt beam="2">  1        2 0.68088810E+00 0.31966104E+04</pdfrwt>
<pdfrwt beam="1">  1       -2 0.88800820E-01 0.31966104E+04</pdfrwt>
<totfact> 0.13290052E-01</totfact>
</mgrwt>
</event>
<event>
 4    1  0.1321115E-008  0.2974538E+04  0.7816531E-02  0.8251039E-01
         -2   -1    0    0    0  501 -0.00000000000E+00  0.00000000000E+00  0.13435408959E+04  0.13435408959E+04  0.00000000000E+00 0. -1.
          2   -1    0    0  501    0  0.00000000000E+00 -0.00000000000E+00 -0.16463729273E+04  0.16463729273E+04  0.00000000000E+00 0.  1.
    2000013    1    1    2    0    0  0.63553526522E+02  0.11132950126E+04 -0.40965747491E+03  0.15211127777E+04  0.95000000000E+03 0.  0.
   -2000013    1    1    2    0    0 -0.63553526522E+02 -0.11132950126E+04  0.10682544353E+03  0.14688010455E+04  0.95000000000E+03 0.  0.
<mgrwt>
<rscale>  0 0.29745382E+04</rscale>
<asrwt>0</asrwt>
<pdfrwt beam="2">  1        2 0.25328814E+00 0.29745382E+04</pdfrwt>
<pdfrwt beam="1">  1       -2 0.20669860E+00 0.29745382E+04</pdfrwt>
<totfact> 0.10839605E+00</totfact>
</mgrwt>
</event>
<event>
 4    1  0.1321115E-008  0.2648065E+04  0.7816531E-02  0.8352056E-01
         -2   -1    0    0    0  501 -0.00000000000E+00  0.00000000000E+00  0.68272423685E+03  0.68272423685E+03  0.00000000000E+00 0. -1.
          2   -1    0    0  501    0  0.00000000000E+00 -0.00000000000E+00 -0.25677450313E+04  0.25677450313E+04  0.00000000000E+00 0.  1.
    2000013    1    1    2    0    0 -0.27451242325E+03  0.86913845482E+03 -0.11152466213E+04  0.17254082852E+04  0.95000000000E+03 0.  0.
   -2000013    1    1    2    0    0  0.27451242325E+03 -0.86913845482E+03 -0.76977417313E+03  0.15250609830E+04  0.95000000000E+03 0.  0.
<mgrwt>
<rscale>  0 0.26480648E+04</rscale>
<asrwt>0</asrwt>
<pdfrwt beam="2">  1        2 0.39503770E+00 0.26480648E+04</pdfrwt>
<pdfrwt beam="1">  1       -2 0.10503450E+00 0.26480648E+04</pdfrwt>
<totfact> 0.20565425E+00</totfact>
</mgrwt>
</event>
<event>
 4    1  0.1321115E-008  0.2110132E+04  0.7816531E-02  0.8556793E-01
         -2   -1    0    0    0  501 -0.00000000000E+00  0.00000000000E+00  0.99637729189E+03  0.99637729189E+03  0.00000000000E+00 0.  1.
          2   -1    0    0  501    0  0.00000000000E+00 -0.00000000000E+00 -0.11172118748E+04  0.11172118748E+04  0.00000000000E+00 0. -1.
    2000013    1    1    2    0    0 -0.33564397034E+03 -0.29875294237E+03 -0.15413523994E+03  0.10621524691E+04  0.95000000000E+03 0.  0.
   -2000013    1    1    2    0    0  0.33564397034E+03  0.29875294237E+03  0.33300656989E+02  0.10514366976E+04  0.95000000000E+03 0.  0.
<mgrwt>
<rscale>  0 0.21101323E+04</rscale>
<asrwt>0</asrwt>
<pdfrwt beam="2">  1        2 0.17187875E+00 0.21101323E+04</pdfrwt>
<pdfrwt beam="1">  1       -2 0.15328881E+00 0.21101323E+04</pdfrwt>
<totfact> 0.55363626E+00</totfact>
</mgrwt>
</event>
<event>
 4    1  0.1321115E-008  0.4459093E+04  0.7816531E-02  0.7917838E-01
         -1   -1    0    0    0  501 -0.00000000000E+00  0.00000000000E+00  0.29004021586E+04  0.29004021586E+04  0.00000000000E+00 0. -1.
          1   -1    0    0  501    0  0.00000000000E+00 -0.00000000000E+00 -0.17138577111E+04  0.17138577111E+04  0.00000000000E+00 0.  1.
    2000013    1    1    2    0    0  0.16524586892E+04 -0.99799560749E+03 -0.11674638589E+02  0.21515694851E+04  0.95000000000E+03 0.  0.
   -2000013    1    1    2    0    0 -0.16524586892E+04  0.99799560749E+03  0.11982190861E+04  0.24626903846E+04  0.95000000000E+03 0.  0.
<mgrwt>
<rscale>  0 0.44590926E+04</rscale>
<asrwt>0</asrwt>
<pdfrwt beam="2">  1        1 0.26367042E+00 0.44590926E+04</pdfrwt>
<pdfrwt beam="1">  1       -1 0.44621572E+00 0.44590926E+04</pdfrwt>
<totfact> 0.12090283E-02</totfact>
</mgrwt>
</event>
<event>
 4    1  0.1321115E-008  0.3636723E+04  0.7816531E-02  0.8082131E-01
         -2   -1    0    0    0  501 -0.00000000000E+00  0.00000000000E+00  0.16894463164E+04  0.16894463164E+04  0.00000000000E+00 0. -1.
          2   -1    0    0  501    0  0.00000000000E+00 -0.00000000000E+00 -0.19571133292E+04  0.19571133292E+04  0.00000000000E+00 0.  1.
    2000013    1    1    2    0    0 -0.14269203380E+04  0.54792453982E+03  0.12689860017E+03  0.18041414044E+04  0.95000000000E+03 0.  0.
   -2000013    1    1    2    0    0  0.14269203380E+04 -0.54792453982E+03 -0.39456561304E+03  0.18424182412E+04  0.95000000000E+03 0.  0.
<mgrwt>
<rscale>  0 0.36367226E+04</rscale>
<asrwt>0</asrwt>
<pdfrwt beam="2">  1        2 0.30109436E+00 0.36367226E+04</pdfrwt>
<pdfrwt beam="1">  1       -2 0.25991482E+00 0.36367226E+04</pdfrwt>
<totfact> 0.32041184E-01</totfact>
</mgrwt>
</event>
<event>
 4    1  0.1321115E-008  0.2436703E+04  0.7816531E-02  0.8425889E-01
          2   -1    0    0  501    0  0.00000000000E+00  0.00000000000E+00  0.22912932515E+04  0.22912932515E+04  0.00000000000E+00 0.  1.
         -2   -1    0    0    0  501 -0.00000000000E+00 -0.00000000000E+00 -0.64783504399E+03  0.64783504399E+03  0.00000000000E+00 0. -1.
    2000013    1    1    2    0    0 -0.17145021243E+03 -0.69750519801E+03  0.11315379409E+04  0.16427984625E+04  0.95000000000E+03 0.  0.
   -2000013    1    1    2    0    0  0.17145021243E+03  0.69750519801E+03  0.51192026658E+03  0.12963298330E+04  0.95000000000E+03 0.  0.
<mgrwt>
<rscale>  0 0.24367027E+04</rscale>
<asrwt>0</asrwt>
<pdfrwt beam="1">  1        2 0.35250665E+00 0.24367027E+04</pdfrwt>
<pdfrwt beam="2">  1       -2 0.99666931E-01 0.24367027E+04</pdfrwt>
<totfact> 0.34221993E+00</totfact>
</mgrwt>
</event>
<event>
 4    1  0.1321115E-008  0.2510852E+04  0.7816531E-02  0.8399130E-01
          2   -1    0    0  501    0  0.00000000000E+00  0.00000000000E+00  0.14404421488E+04  0.14404421488E+04  0.00000000000E+00 0.  1.
         -2   -1    0    0    0  501 -0.00000000000E+00 -0.00000000000E+00 -0.10941742305E+04  0.10941742305E+04  0.00000000000E+00 0. -1.
    2000013    1    1    2    0    0 -0.63587085868E+03  0.51129381700E+03  0.83743241636E+02  0.12550960309E+04  0.95000000000E+03 0.  0.
   -2000013    1    1    2    0    0  0.63587085868E+03 -0.51129381700E+03  0.26252467671E+03  0.12795203485E+04  0.95000000000E+03 0.  0.
<mgrwt>
<rscale>  0 0.25108522E+04</rscale>
<asrwt>0</asrwt>
<pdfrwt beam="1">  1        2 0.22160649E+00 0.25108522E+04</pdfrwt>
<pdfrwt beam="2">  1       -2 0.16833450E+00 0.25108522E+04</pdfrwt>
<totfact> 0.26786087E+00</totfact>
</mgrwt>
</event>
<event>
 4    1  0.1321115E-008  0.2431106E+04  0.7816531E-02  0.8427949E-01
         -2   -1    0    0    0  501 -0.00000000000E+00  0.00000000000E+00  0.52402402396E+03  0.52402402396E+03  0.00000000000E+00 0. -1.
          2   -1    0    0  501    0  0.00000000000E+00 -0.00000000000E+00 -0.28196592218E+04  0.28196592218E+04  0.00000000000E+00 0.  1.
    2000013    1    1    2    0    0 -0.20688368131E+03  0.67787031695E+03 -0.77682264051E+03  0.14171317649E+04  0.95000000000E+03 0.  0.
   -2000013    1    1    2    0    0  0.20688368131E+03 -0.67787031695E+03 -0.15188125573E+04  0.19265514809E+04  0.95000000000E+03 0.  0.
<mgrwt>
<rscale>  0 0.24311061E+04</rscale>
<asrwt>0</asrwt>
<pdfrwt beam="2">  1        2 0.43379372E+00 0.24311061E+04</pdfrwt>
<pdfrwt beam="1">  1       -2 0.80619082E-01 0.24311061E+04</pdfrwt>
<totfact> 0.27416122E+00</totfact>
</mgrwt>
</event>
<event>
 4    1  0.1321115E-008  0.2512080E+04  0.7816531E-02  0.8398695E-01
          2   -1    0    0  501    0  0.00000000000E+00  0.00000000000E+00  0.17554766631E+04  0.17554766631E+04  0.00000000000E+00 0.  1.
         -2   -1    0    0    0  501 -0.00000000000E+00 -0.00000000000E+00 -0.89869417985E+03  0.89869417985E+03  0.00000000000E+00 0. -1.
    2000013    1    1    2    0    0  0.25944233683E+03  0.76471769971E+03  0.58874246369E+03  0.13788477708E+04  0.95000000000E+03 0.  0.
   -2000013    1    1    2    0    0 -0.25944233683E+03 -0.76471769971E+03  0.26804001958E+03  0.12753230722E+04  0.95000000000E+03 0.  0.
<mgrwt>
<rscale>  0 0.25120801E+04</rscale>
<asrwt>0</asrwt>
<pdfrwt beam="1">  1        2 0.27007333E+00 0.25120801E+04</pdfrwt>
<pdfrwt beam="2">  1       -2 0.13826064E+00 0.25120801E+04</pdfrwt>
<totfact> 0.30199398E+00</totfact>
</mgrwt>
</event>
<event>
 4    1  0.1321115E-008  0.2000754E+04  0.7816531E-02  0.8606268E-01
         -2   -1    0    0    0  501 -0.00000000000E+00  0.00000000000E+00  0.10483696669E+04  0.10483696669E+04  0.00000000000E+00 0. -1.
          2   -1    0    0  501    0  0.00000000000E+00 -0.00000000000E+00 -0.95458129133E+03  0.95458129133E+03  0.00000000000E+00 0.  1.
    2000013    1    1    2    0    0  0.13733752548E+02  0.13918593440E+03 -0.23393609933E+03  0.98832557331E+03  0.95000000000E+03 0.  0.
   -2000013    1    1    2    0    0 -0.13733752548E+02 -0.13918593440E+03  0.32772447493E+03  0.10146253849E+04  0.95000000000E+03 0.  0.
<mgrwt>
<rscale>  0 0.20007539E+04</rscale>
<asrwt>0</asrwt>
<pdfrwt beam="2">  1        2 0.14685866E+00 0.20007539E+04</pdfrwt>
<pdfrwt beam="1">  1       -2 0.16128764E+00 0.20007539E+04</pdfrwt>
<totfact> 0.61714370E+00</totfact>
</mgrwt>
</event>
<event>
 4    1  0.1321115E-008  0.2228687E+04  0.7816531E-02  0.8506582E-01
         -1   -1    0    0    0  501 -0.00000000000E+00  0.00000000000E+00  0.61490468751E+03  0.61490468751E+03  0.00000000000E+00 0. -1.
          1   -1    0    0  501    0  0.00000000000E+00 -0.00000000000E+00 -0.20194379839E+04  0.20194379839E+04  0.00000000000E+00 0.  1.
    2000013    1    1    2    0    0 -0.42723345310E+02 -0.42295868873E+03 -0.11729144370E+04  0.15681031895E+04  0.95000000000E+03 0.  0.
   -2000013    1    1    2    0    0  0.42723345310E+02  0.42295868873E+03 -0.23161885941E+03  0.10662394818E+04  0.95000000000E+03 0.  0.
<mgrwt>
<rscale>  0 0.22286874E+04</rscale>
<asrwt>0</asrwt>
<pdfrwt beam="2">  1        1 0.31068276E+00 0.22286874E+04</pdfrwt>
<pdfrwt beam="1">  1       -1 0.94600722E-01 0.22286874E+04</pdfrwt>
<totfact> 0.28413303E+00</totfact>
</mgrwt>
</event>
<event>
 4    1  0.1321115E-008  0.2349179E+04  0.7816531E-02  0.8458779E-01
          2   -1    0    0  501    0  0.00000000000E+00  0.00000000000E+00  0.22429914382E+04  0.22429914382E+04  0.00000000000E+00 0.  1.
         -2   -1    0    0    0  501 -0.00000000000E+00 -0.00000000000E+00 -0.61509844451E+03  0.61509844451E+03  0.00000000000E+00 0. -1.
    2000013    1    1    2    0    0 -0.22946485276E+03 -0.48321706656E+03  0.13456691876E+04  0.17319002323E+04  0.95000000000E+03 0.  0.
   -2000013    1    1    2    0    0  0.22946485276E+03  0.48321706656E+03  0.28222380610E+03  0.11261896505E+04  0.95000000000E+03 0.  0.
<mgrwt>
<rscale>  0 0.23491790E+04</rscale>
<asrwt>0</asrwt>
<pdfrwt beam="1">  1        2 0.34507560E+00 0.23491790E+04</pdfrwt>
<pdfrwt beam="2">  1       -2 0.94630531E-01 0.23491790E+04</pdfrwt>
<totfact> 0.41468906E+00</totfact>
</mgrwt>
</event>
<event>
 4    1  0.1321115E-008  0.2466369E+04  0.7816531E-02  0.8415066E-01
         -2   -1    0    0    0  501 -0.00000000000E+00  0.00000000000E+00  0.17307938289E+04  0.17307938289E+04  0.00000000000E+00 0. -1.
          2   -1    0    0  501    0  0.00000000000E+00 -0.00000000000E+00 -0.87863981671E+03  0.87863981671E+03  0.00000000000E+00 0.  1.
    2000013    1    1    2    0    0  0.61040498249E+03 -0.31175655791E+03  0.83372933185E+03  0.14378424785E+04  0.95000000000E+03 0.  0.
   -2000013    1    1    2    0    0 -0.61040498249E+03  0.31175655791E+03  0.18424680310E+02  0.11715911671E+04  0.95000000000E+03 0.  0.
<mgrwt>
<rscale>  0 0.24663693E+04</rscale>
<asrwt>0</asrwt>
<pdfrwt beam="2">  1        2 0.13517536E+00 0.24663693E+04</pdfrwt>
<pdfrwt beam="1">  1       -2 0.26627597E+00 0.24663693E+04</pdfrwt>
<totfact> 0.13849724E+00</totfact>
</mgrwt>
</event>
<event>
 4    1  0.1321115E-008  0.2093235E+04  0.7816531E-02  0.8564229E-01
         -2   -1    0    0    0  501 -0.00000000000E+00  0.00000000000E+00  0.17688129198E+04  0.17688129198E+04  0.00000000000E+00 0. -1.
          2   -1    0    0  501    0  0.00000000000E+00 -0.00000000000E+00 -0.61928982295E+03  0.61928982295E+03  0.00000000000E+00 0.  1.
    2000013    1    1    2    0    0 -0.76430678153E+02 -0.42111021470E+03  0.46221178568E+03  0.11398750793E+04  0.95000000000E+03 0.  0.
   -2000013    1    1    2    0    0  0.76430678153E+02  0.42111021470E+03  0.68731131122E+03  0.12482276635E+04  0.95000000000E+03 0.  0.
<mgrwt>
<rscale>  0 0.20932347E+04</rscale>
<asrwt>0</asrwt>
<pdfrwt beam="2">  1        2 0.95275358E-01 0.20932347E+04</pdfrwt>
<pdfrwt beam="1">  1       -2 0.27212506E+00 0.20932347E+04</pdfrwt>
<totfact> 0.20702410E+00</totfact>
</mgrwt>
</event>
<event>
 4    1  0.1321115E-008  0.2310053E+04  0.7816531E-02  0.8473968E-01
         -2   -1    0    0    0  501 -0.00000000000E+00  0.00000000000E+00  0.71040675891E+03  0.71040675891E+03  0.00000000000E+00 0. -1.
          2   -1    0    0  501    0  0.00000000000E+00 -0.00000000000E+00 -0.18779181382E+04  0.18779181382E+04  0.00000000000E+00 0.  1.
    2000013    1    1    2    0    0 -0.43998592645E+03  0.16621524920E+03 -0.10976685198E+04  0.15259722487E+04  0.95000000000E+03 0.  0.
   -2000013    1    1    2    0    0  0.43998592645E+03 -0.16621524920E+03 -0.69842859518E+02  0.10623526484E+04  0.95000000000E+03 0.  0.
<mgrwt>
<rscale>  0 0.23100526E+04</rscale>
<asrwt>0</asrwt>
<pdfrwt beam="2">  1        2 0.28891048E+00 0.23100526E+04</pdfrwt>
<pdfrwt beam="1">  1       -2 0.10929335E+00 0.23100526E+04</pdfrwt>
<totfact> 0.47220051E+00</totfact>
</mgrwt>
</event>
<event>
 4    1  0.1321115E-008  0.2055115E+04  0.7816531E-02  0.8581277E-01
          2   -1    0    0  501    0  0.00000000000E+00  0.00000000000E+00  0.75488838589E+03  0.75488838589E+03  0.00000000000E+00 0.  1.
         -2   -1    0    0    0  501 -0.00000000000E+00 -0.00000000000E+00 -0.13987161717E+04  0.13987161717E+04  0.00000000000E+00 0. -1.
    2000013    1    1    2    0    0 -0.38316245900E+03 -0.37801691413E+02 -0.39698618744E+03  0.10992454098E+04  0.95000000000E+03 0.  0.
   -2000013    1    1    2    0    0  0.38316245900E+03  0.37801691413E+02 -0.24684159833E+03  0.10543591478E+04  0.95000000000E+03 0.  0.
<mgrwt>
<rscale>  0 0.20551152E+04</rscale>
<asrwt>0</asrwt>
<pdfrwt beam="1">  1        2 0.11613668E+00 0.20551152E+04</pdfrwt>
<pdfrwt beam="2">  1       -2 0.21518710E+00 0.20551152E+04</pdfrwt>
<totfact> 0.36457843E+00</totfact>
</mgrwt>
</event>
<event>
 4    1  0.1321115E-008  0.4895904E+04  0.7816531E-02  0.7844769E-01
          2   -1    0    0  501    0  0.00000000000E+00  0.00000000000E+00  0.28478312477E+04  0.28478312477E+04  0.00000000000E+00 0.  1.
         -2   -1    0    0    0  501 -0.00000000000E+00 -0.00000000000E+00 -0.21042215131E+04  0.21042215131E+04  0.00000000000E+00 0. -1.
    2000013    1    1    2    0    0 -0.15442283686E+03 -0.18965417115E+04  0.15978328897E+04  0.26601290983E+04  0.95000000000E+03 0.  0.
   -2000013    1    1    2    0    0  0.15442283686E+03  0.18965417115E+04 -0.85422315515E+03  0.22919236625E+04  0.95000000000E+03 0.  0.
<mgrwt>
<rscale>  0 0.48959035E+04</rscale>
<asrwt>0</asrwt>
<pdfrwt beam="1">  1        2 0.43812788E+00 0.48959035E+04</pdfrwt>
<pdfrwt beam="2">  1       -2 0.32372639E+00 0.48959035E+04</pdfrwt>
<totfact> 0.36036974E-02</totfact>
</mgrwt>
</event>
<event>
 4    1  0.1321115E-008  0.2301709E+04  0.7816531E-02  0.8477248E-01
          2   -1    0    0  501    0  0.00000000000E+00  0.00000000000E+00  0.11698344952E+04  0.11698344952E+04  0.00000000000E+00 0.  1.
         -2   -1    0    0    0  501 -0.00000000000E+00 -0.00000000000E+00 -0.11321822281E+04  0.11321822281E+04  0.00000000000E+00 0. -1.
    2000013    1    1    2    0    0  0.50057445405E+03  0.39756799011E+03  0.13430038028E+03  0.11528970825E+04  0.95000000000E+03 0.  0.
   -2000013    1    1    2    0    0 -0.50057445405E+03 -0.39756799011E+03 -0.96648113178E+02  0.11491196407E+04  0.95000000000E+03 0.  0.
<mgrwt>
<rscale>  0 0.23017088E+04</rscale>
<asrwt>0</asrwt>
<pdfrwt beam="1">  1        2 0.17997454E+00 0.23017088E+04</pdfrwt>
<pdfrwt beam="2">  1       -2 0.17418188E+00 0.23017088E+04</pdfrwt>
<totfact> 0.35642045E+00</totfact>
</mgrwt>
</event>
<event>
 4    1  0.1321115E-008  0.2130008E+04  0.7816531E-02  0.8548138E-01
         -2   -1    0    0    0  501 -0.00000000000E+00  0.00000000000E+00  0.99534155462E+03  0.99534155462E+03  0.00000000000E+00 0. -1.
          2   -1    0    0  501    0  0.00000000000E+00 -0.00000000000E+00 -0.11395424578E+04  0.11395424578E+04  0.00000000000E+00 0.  1.
    2000013    1    1    2    0    0 -0.82162200903E+02  0.45419995941E+03 -0.20910910978E+03  0.10766962664E+04  0.95000000000E+03 0.  0.
   -2000013    1    1    2    0    0  0.82162200903E+02 -0.45419995941E+03  0.64908206631E+02  0.10581877459E+04  0.95000000000E+03 0.  0.
<mgrwt>
<rscale>  0 0.21300084E+04</rscale>
<asrwt>0</asrwt>
<pdfrwt beam="2">  1        2 0.17531422E+00 0.21300084E+04</pdfrwt>
<pdfrwt beam="1">  1       -2 0.15312947E+00 0.21300084E+04</pdfrwt>
<totfact> 0.53711984E+00</totfact>
</mgrwt>
</event>
<event>
 4    1  0.1321115E-008  0.2181336E+04  0.7816531E-02  0.8526237E-01
         -2   -1    0    0    0  501 -0.00000000000E+00  0.00000000000E+00  0.18117328586E+04  0.18117328586E+04  0.00000000000E+00 0. -1.
          2   -1    0    0  501    0  0.00000000000E+00 -0.00000000000E+00 -0.65658499727E+03  0.65658499727E+03  0.00000000000E+00 0.  1.
    2000013    1    1    2    0    0 -0.23525551334E+03 -0.24121740168E+03  0.10489421921E+04  0.14547545201E+04  0.95000000000E+03 0.  0.
   -2000013    1    1    2    0    0  0.23525551334E+03  0.24121740168E+03  0.10620566924E+03  0.10135633358E+04  0.95000000000E+03 0.  0.
<mgrwt>
<rscale>  0 0.21813359E+04</rscale>
<asrwt>0</asrwt>
<pdfrwt beam="2">  1        2 0.10101308E+00 0.21813359E+04</pdfrwt>
<pdfrwt beam="1">  1       -2 0.27872813E+00 0.21813359E+04</pdfrwt>
<totfact> 0.17430229E+00</totfact>
</mgrwt>
</event>
<event>
 4    1  0.1321115E-008  0.2332502E+04  0.7816531E-02  0.8465215E-01
          2   -1    0    0  501    0  0.00000000000E+00  0.00000000000E+00  0.27262793271E+04  0.27262793271E+04  0.00000000000E+00 0.  1.
         -2   -1    0    0    0  501 -0.00000000000E+00 -0.00000000000E+00 -0.49890034999E+03  0.49890034999E+03  0.00000000000E+00 0. -1.
    2000013    1    1    2    0    0 -0.51069852039E+03 -0.42161834849E+03  0.92276149640E+03  0.14807308296E+04  0.95000000000E+03 0.  0.
   -2000013    1    1    2    0    0  0.51069852039E+03  0.42161834849E+03  0.13046174807E+04  0.17444488475E+04  0.95000000000E+03 0.  0.
<mgrwt>
<rscale>  0 0.23325023E+04</rscale>
<asrwt>0</asrwt>
<pdfrwt beam="1">  1        2 0.41942758E+00 0.23325023E+04</pdfrwt>
<pdfrwt beam="2">  1       -2 0.76753902E-01 0.23325023E+04</pdfrwt>
<totfact> 0.35132537E+00</totfact>
</mgrwt>
</event>
<event>
 4    1  0.1321115E-008  0.2165866E+04  0.7816531E-02  0.8532771E-01
          2   -1    0    0  501    0  0.00000000000E+00  0.00000000000E+00  0.32227860326E+04  0.32227860326E+04  0.00000000000E+00 0.  1.
         -2   -1    0    0    0  501 -0.00000000000E+00 -0.00000000000E+00 -0.36389139725E+03  0.36389139725E+03  0.00000000000E+00 0. -1.
    2000013    1    1    2    0    0  0.48836063018E+03  0.17805906453E+03  0.14185911112E+04  0.17846853718E+04  0.95000000000E+03 0.  0.
   -2000013    1    1    2    0    0 -0.48836063018E+03 -0.17805906453E+03  0.14403035241E+04  0.18019920580E+04  0.95000000000E+03 0.  0.
<mgrwt>
<rscale>  0 0.21658662E+04</rscale>
<asrwt>0</asrwt>
<pdfrwt beam="1">  1        2 0.49581322E+00 0.21658662E+04</pdfrwt>
<pdfrwt beam="2">  1       -2 0.55983294E-01 0.21658662E+04</pdfrwt>
<totfact> 0.34491447E+00</totfact>
</mgrwt>
</event>
<event>
 4    1  0.1321115E-008  0.3892085E+04  0.7816531E-02  0.8026677E-01
         -2   -1    0    0    0  501 -0.00000000000E+00  0.00000000000E+00  0.14024582226E+04  0.14024582226E+04  0.00000000000E+00 0. -1.
          2   -1    0    0  501    0  0.00000000000E+00 -0.00000000000E+00 -0.27003169065E+04  0.27003169065E+04  0.00000000000E+00 0.  1.
    2000013    1    1    2    0    0 -0.15087317899E+04 -0.18124947955E+03  0.15072527637E+03  0.17984273955E+04  0.95000000000E+03 0.  0.
   -2000013    1    1    2    0    0  0.15087317899E+04  0.18124947955E+03 -0.14485839602E+04  0.23043477337E+04  0.95000000000E+03 0.  0.
<mgrwt>
<rscale>  0 0.38920851E+04</rscale>
<asrwt>0</asrwt>
<pdfrwt beam="2">  1        2 0.41543337E+00 0.38920851E+04</pdfrwt>
<pdfrwt beam="1">  1       -2 0.21576281E+00 0.38920851E+04</pdfrwt>
<totfact> 0.22209821E-01</totfact>
</mgrwt>
</event>
<event>
 4    1  0.1321115E-008  0.2617251E+04  0.7816531E-02  0.8362365E-01
         -2   -1    0    0    0  501 -0.00000000000E+00  0.00000000000E+00  0.36299452753E+03  0.36299452753E+03  0.00000000000E+00 0. -1.
          2   -1    0    0  501    0  0.00000000000E+00 -0.00000000000E+00 -0.47177047473E+04  0.47177047473E+04  0.00000000000E+00 0.  1.
    2000013    1    1    2    0    0  0.10463078714E+03  0.53953618556E+03 -0.35608906361E+04  0.37261896113E+04  0.95000000000E+03 0.  0.
   -2000013    1    1    2    0    0 -0.10463078714E+03 -0.53953618556E+03 -0.79381958367E+03  0.13545096635E+04  0.95000000000E+03 0.  0.
<mgrwt>
<rscale>  0 0.26172512E+04</rscale>
<asrwt>0</asrwt>
<pdfrwt beam="2">  1        2 0.72580069E+00 0.26172512E+04</pdfrwt>
<pdfrwt beam="1">  1       -2 0.55845315E-01 0.26172512E+04</pdfrwt>
<totfact> 0.19634076E-01</totfact>
</mgrwt>
</event>
<event>
 4    1  0.1321115E-008  0.2448050E+04  0.7816531E-02  0.8421730E-01
         -2   -1    0    0    0  501 -0.00000000000E+00  0.00000000000E+00  0.15786031122E+04  0.15786031122E+04  0.00000000000E+00 0. -1.
          2   -1    0    0  501    0  0.00000000000E+00 -0.00000000000E+00 -0.94909015210E+03  0.94909015210E+03  0.00000000000E+00 0.  1.
    2000013    1    1    2    0    0  0.77660070965E+02  0.74769824267E+03  0.13398076657E+03  0.12188250877E+04  0.95000000000E+03 0.  0.
   -2000013    1    1    2    0    0 -0.77660070965E+02 -0.74769824267E+03  0.49553219351E+03  0.13088681765E+04  0.95000000000E+03 0.  0.
<mgrwt>
<rscale>  0 0.24480496E+04</rscale>
<asrwt>0</asrwt>
<pdfrwt beam="2">  1        2 0.14601387E+00 0.24480496E+04</pdfrwt>
<pdfrwt beam="1">  1       -2 0.24286202E+00 0.24480496E+04</pdfrwt>
<totfact> 0.17315081E+00</totfact>
</mgrwt>
</event>
<event>
 4    1  0.1321115E-008  0.2351158E+04  0.7816531E-02  0.8458019E-01
          2   -1    0    0  501    0  0.00000000000E+00  0.00000000000E+00  0.18123266243E+04  0.18123266243E+04  0.00000000000E+00 0.  1.
         -2   -1    0    0    0  501 -0.00000000000E+00 -0.00000000000E+00 -0.76254814557E+03  0.76254814557E+03  0.00000000000E+00 0. -1.
    2000013    1    1    2    0    0  0.90864855893E+02 -0.65640012593E+03  0.30485161550E+03  0.11977278718E+04  0.95000000000E+03 0.  0.
   -2000013    1    1    2    0    0 -0.90864855893E+02  0.65640012593E+03  0.74492686323E+03  0.13771468981E+04  0.95000000000E+03 0.  0.
<mgrwt>
<rscale>  0 0.23511583E+04</rscale>
<asrwt>0</asrwt>
<pdfrwt beam="1">  1        2 0.27881948E+00 0.23511583E+04</pdfrwt>
<pdfrwt beam="2">  1       -2 0.11731510E+00 0.23511583E+04</pdfrwt>
<totfact> 0.43066638E+00</totfact>
</mgrwt>
</event>
<event>
 4    1  0.1321115E-008  0.2780165E+04  0.7816531E-02  0.8309453E-01
          2   -1    0    0  501    0  0.00000000000E+00  0.00000000000E+00  0.12737510645E+04  0.12737510645E+04  0.00000000000E+00 0.  1.
         -2   -1    0    0    0  501 -0.00000000000E+00 -0.00000000000E+00 -0.15170379177E+04  0.15170379177E+04  0.00000000000E+00 0. -1.
    2000013    1    1    2    0    0  0.48868299828E+03 -0.75803551520E+03 -0.58860901849E+03  0.14361021871E+04  0.95000000000E+03 0.  0.
   -2000013    1    1    2    0    0 -0.48868299828E+03  0.75803551520E+03  0.34532216533E+03  0.13546867952E+04  0.95000000000E+03 0.  0.
<mgrwt>
<rscale>  0 0.27801645E+04</rscale>
<asrwt>0</asrwt>
<pdfrwt beam="1">  1        2 0.19596170E+00 0.27801645E+04</pdfrwt>
<pdfrwt beam="2">  1       -2 0.23339045E+00 0.27801645E+04</pdfrwt>
<totfact> 0.12154901E+00</totfact>
</mgrwt>
</event>
<event>
 4    1  0.1321115E-008  0.2722535E+04  0.7816531E-02  0.8327730E-01
         -2   -1    0    0    0  501 -0.00000000000E+00  0.00000000000E+00  0.61931696967E+03  0.61931696967E+03  0.00000000000E+00 0. -1.
          2   -1    0    0  501    0  0.00000000000E+00 -0.00000000000E+00 -0.29920844160E+04  0.29920844160E+04  0.00000000000E+00 0.  1.
    2000013    1    1    2    0    0  0.82907971593E+03 -0.42810759970E+03 -0.15613342837E+04  0.20520511781E+04  0.95000000000E+03 0.  0.
   -2000013    1    1    2    0    0 -0.82907971593E+03  0.42810759970E+03 -0.81143316266E+03  0.15593502075E+04  0.95000000000E+03 0.  0.
<mgrwt>
<rscale>  0 0.27225346E+04</rscale>
<asrwt>0</asrwt>
<pdfrwt beam="2">  1        2 0.46032067E+00 0.27225346E+04</pdfrwt>
<pdfrwt beam="1">  1       -2 0.95279536E-01 0.27225346E+04</pdfrwt>
<totfact> 0.14270596E+00</totfact>
</mgrwt>
</event>
<event>
 4    1  0.1321115E-008  0.3634395E+04  0.7816531E-02  0.8082658E-01
         -2   -1    0    0    0  501 -0.00000000000E+00  0.00000000000E+00  0.11738818819E+04  0.11738818819E+04  0.00000000000E+00 0. -1.
          2   -1    0    0  501    0  0.00000000000E+00 -0.00000000000E+00 -0.28130654986E+04  0.28130654986E+04  0.00000000000E+00 0.  1.
    2000013    1    1    2    0    0  0.13393129458E+04  0.77704607516E+03 -0.76876306060E+03  0.19725760855E+04  0.95000000000E+03 0.  0.
   -2000013    1    1    2    0    0 -0.13393129458E+04 -0.77704607516E+03 -0.87042055611E+03  0.20143712950E+04  0.95000000000E+03 0.  0.
<mgrwt>
<rscale>  0 0.36343949E+04</rscale>
<asrwt>0</asrwt>
<pdfrwt beam="2">  1        2 0.43277930E+00 0.36343949E+04</pdfrwt>
<pdfrwt beam="1">  1       -2 0.18059721E+00 0.36343949E+04</pdfrwt>
<totfact> 0.33133091E-01</totfact>
</mgrwt>
</event>
<event>
 4    1  0.1321115E-008  0.2861121E+04  0.7816531E-02  0.8284540E-01
         -2   -1    0    0    0  501 -0.00000000000E+00  0.00000000000E+00  0.11086593020E+04  0.11086593020E+04  0.00000000000E+00 0. -1.
          2   -1    0    0  501    0  0.00000000000E+00 -0.00000000000E+00 -0.18459266252E+04  0.18459266252E+04  0.00000000000E+00 0.  1.
    2000013    1    1    2    0    0  0.44513873091E+03 -0.86474135626E+03 -0.82823159288E+03  0.15919779127E+04  0.95000000000E+03 0.  0.
   -2000013    1    1    2    0    0 -0.44513873091E+03  0.86474135626E+03  0.90964269669E+02  0.13626080146E+04  0.95000000000E+03 0.  0.
<mgrwt>
<rscale>  0 0.28611213E+04</rscale>
<asrwt>0</asrwt>
<pdfrwt beam="2">  1        2 0.28398871E+00 0.28611213E+04</pdfrwt>
<pdfrwt beam="1">  1       -2 0.17056297E+00 0.28611213E+04</pdfrwt>
<totfact> 0.14879353E+00</totfact>
</mgrwt>
</event>
<event>
 4    1  0.1321115E-008  0.3406860E+04  0.7816531E-02  0.8136225E-01
          2   -1    0    0  501    0  0.00000000000E+00  0.00000000000E+00  0.28222960681E+04  0.28222960681E+04  0.00000000000E+00 0.  1.
         -2   -1    0    0    0  501 -0.00000000000E+00 -0.00000000000E+00 -0.10281251702E+04  0.10281251702E+04  0.00000000000E+00 0. -1.
    2000013    1    1    2    0    0 -0.55454863829E+03  0.88068700460E+03  0.19787962017E+04  0.24292526012E+04  0.95000000000E+03 0.  0.
   -2000013    1    1    2    0    0  0.55454863829E+03 -0.88068700460E+03 -0.18462530384E+03  0.14211686371E+04  0.95000000000E+03 0.  0.
<mgrwt>
<rscale>  0 0.34068599E+04</rscale>
<asrwt>0</asrwt>
<pdfrwt beam="1">  1        2 0.43419939E+00 0.34068599E+04</pdfrwt>
<pdfrwt beam="2">  1       -2 0.15817310E+00 0.34068599E+04</pdfrwt>
<totfact> 0.48208937E-01</totfact>
</mgrwt>
</event>
<event>
 4    1  0.1321115E-008  0.2216046E+04  0.7816531E-02  0.8511779E-01
         -2   -1    0    0    0  501 -0.00000000000E+00  0.00000000000E+00  0.86876122541E+03  0.86876122541E+03  0.00000000000E+00 0. -1.
          2   -1    0    0  501    0  0.00000000000E+00 -0.00000000000E+00 -0.14131789825E+04  0.14131789825E+04  0.00000000000E+00 0.  1.
    2000013    1    1    2    0    0 -0.42628246046E+03  0.17657374125E+03  0.72898442282E+02  0.10586355393E+04  0.95000000000E+03 0.  0.
   -2000013    1    1    2    0    0  0.42628246046E+03 -0.17657374125E+03 -0.61731619934E+03  0.12233046686E+04  0.95000000000E+03 0.  0.
<mgrwt>
<rscale>  0 0.22160461E+04</rscale>
<asrwt>0</asrwt>
<pdfrwt beam="2">  1        2 0.21741215E+00 0.22160461E+04</pdfrwt>
<pdfrwt beam="1">  1       -2 0.13365558E+00 0.22160461E+04</pdfrwt>
<totfact> 0.52551056E+00</totfact>
</mgrwt>
</event>
<event>
 4    1  0.1321115E-008  0.2279331E+04  0.7816531E-02  0.8486115E-01
         -2   -1    0    0    0  501 -0.00000000000E+00  0.00000000000E+00  0.59028320895E+03  0.59028320895E+03  0.00000000000E+00 0. -1.
          2   -1    0    0  501    0  0.00000000000E+00 -0.00000000000E+00 -0.22003641432E+04  0.22003641432E+04  0.00000000000E+00 0.  1.
    2000013    1    1    2    0    0  0.67915406330E+02 -0.58012063200E+03 -0.10926545752E+04  0.15612643821E+04  0.95000000000E+03 0.  0.
   -2000013    1    1    2    0    0 -0.67915406330E+02  0.58012063200E+03 -0.51742635911E+03  0.12293829701E+04  0.95000000000E+03 0.  0.
<mgrwt>
<rscale>  0 0.22793315E+04</rscale>
<asrwt>0</asrwt>
<pdfrwt beam="2">  1        2 0.33851756E+00 0.22793315E+04</pdfrwt>
<pdfrwt beam="1">  1       -2 0.90812802E-01 0.22793315E+04</pdfrwt>
<totfact> 0.48510129E+00</totfact>
</mgrwt>
</event>
<event>
 4    1  0.1321115E-008  0.3326546E+04  0.7816531E-02  0.8156173E-01
         -1   -1    0    0    0  501 -0.00000000000E+00  0.00000000000E+00  0.24869077145E+04  0.24869077145E+04  0.00000000000E+00 0. -1.
          1   -1    0    0  501    0  0.00000000000E+00 -0.00000000000E+00 -0.11124167847E+04  0.11124167847E+04  0.00000000000E+00 0.  1.
    2000013    1    1    2    0    0  0.30745278157E+03  0.10249379738E+04  0.16046853175E+04  0.21500093095E+04  0.95000000000E+03 0.  0.
   -2000013    1    1    2    0    0 -0.30745278157E+03 -0.10249379738E+04 -0.23019438763E+03  0.14493151897E+04  0.95000000000E+03 0.  0.
<mgrwt>
<rscale>  0 0.33265465E+04</rscale>
<asrwt>0</asrwt>
<pdfrwt beam="2">  1        1 0.17114104E+00 0.33265465E+04</pdfrwt>
<pdfrwt beam="1">  1       -1 0.38260119E+00 0.33265465E+04</pdfrwt>
<totfact> 0.96439031E-02</totfact>
</mgrwt>
</event>
<event>
 4    1  0.1321115E-008  0.1993649E+04  0.7816531E-02  0.8609596E-01
          2   -1    0    0  501    0  0.00000000000E+00  0.00000000000E+00  0.90396131065E+03  0.90396131065E+03  0.00000000000E+00 0.  1.
         -2   -1    0    0    0  501 -0.00000000000E+00 -0.00000000000E+00 -0.10992273642E+04  0.10992273642E+04  0.00000000000E+00 0. -1.
    2000013    1    1    2    0    0  0.15953759280E+03 -0.14469805785E+03  0.11496685638E+03  0.98087060795E+03  0.95000000000E+03 0.  0.
   -2000013    1    1    2    0    0 -0.15953759280E+03  0.14469805785E+03 -0.31023290989E+03  0.10223180669E+04  0.95000000000E+03 0.  0.
<mgrwt>
<rscale>  0 0.19936489E+04</rscale>
<asrwt>0</asrwt>
<pdfrwt beam="1">  1        2 0.13907097E+00 0.19936489E+04</pdfrwt>
<pdfrwt beam="2">  1       -2 0.16911190E+00 0.19936489E+04</pdfrwt>
<totfact> 0.58562372E+00</totfact>
</mgrwt>
</event>
<event>
 4    1  0.1321115E-008  0.2280992E+04  0.7816531E-02  0.8485454E-01
          1   -1    0    0  501    0  0.00000000000E+00  0.00000000000E+00  0.22118131023E+04  0.22118131023E+04  0.00000000000E+00 0.  1.
         -1   -1    0    0    0  501 -0.00000000000E+00 -0.00000000000E+00 -0.58808367935E+03  0.58808367935E+03  0.00000000000E+00 0. -1.
    2000013    1    1    2    0    0  0.42336676214E+03  0.45889012302E+03  0.69928548746E+03  0.13346609132E+04  0.95000000000E+03 0.  0.
   -2000013    1    1    2    0    0 -0.42336676214E+03 -0.45889012302E+03  0.92444393549E+03  0.14652358684E+04  0.95000000000E+03 0.  0.
<mgrwt>
<rscale>  0 0.22809921E+04</rscale>
<asrwt>0</asrwt>
<pdfrwt beam="1">  1        1 0.34027893E+00 0.22809921E+04</pdfrwt>
<pdfrwt beam="2">  1       -1 0.90474413E-01 0.22809921E+04</pdfrwt>
<totfact> 0.23111915E+00</totfact>
</mgrwt>
</event>
<event>
 4    1  0.1321115E-008  0.2026878E+04  0.7816531E-02  0.8594157E-01
          1   -1    0    0  501    0  0.00000000000E+00  0.00000000000E+00  0.21282207027E+04  0.21282207027E+04  0.00000000000E+00 0.  1.
         -1   -1    0    0    0  501 -0.00000000000E+00 -0.00000000000E+00 -0.48259004605E+03  0.48259004605E+03  0.00000000000E+00 0. -1.
    2000013    1    1    2    0    0  0.45749726393E+02  0.21088157820E+03  0.11825469532E+04  0.15321492663E+04  0.95000000000E+03 0.  0.
   -2000013    1    1    2    0    0 -0.45749726393E+02 -0.21088157820E+03  0.46308370346E+03  0.10786614825E+04  0.95000000000E+03 0.  0.
<mgrwt>
<rscale>  0 0.20268775E+04</rscale>
<asrwt>0</asrwt>
<pdfrwt beam="1">  1        1 0.32741856E+00 0.20268775E+04</pdfrwt>
<pdfrwt beam="2">  1       -1 0.74244624E-01 0.20268775E+04</pdfrwt>
<totfact> 0.41208679E+00</totfact>
</mgrwt>
</event>
<event>
 4    1  0.1321115E-008  0.2127405E+04  0.7816531E-02  0.8549267E-01
          2   -1    0    0  501    0  0.00000000000E+00  0.00000000000E+00  0.96776984878E+03  0.96776984878E+03  0.00000000000E+00 0.  1.
         -2   -1    0    0    0  501 -0.00000000000E+00 -0.00000000000E+00 -0.11691444290E+04  0.11691444290E+04  0.00000000000E+00 0. -1.
    2000013    1    1    2    0    0  0.35689768241E+03  0.23421018945E+03 -0.31783028815E+03  0.10889198596E+04  0.95000000000E+03 0.  0.
   -2000013    1    1    2    0    0 -0.35689768241E+03 -0.23421018945E+03  0.11645570797E+03  0.10479944181E+04  0.95000000000E+03 0.  0.
<mgrwt>
<rscale>  0 0.21274047E+04</rscale>
<asrwt>0</asrwt>
<pdfrwt beam="1">  1        2 0.14888767E+00 0.21274047E+04</pdfrwt>
<pdfrwt beam="2">  1       -2 0.17986837E+00 0.21274047E+04</pdfrwt>
<totfact> 0.44148448E+00</totfact>
</mgrwt>
</event>
<event>
 4    1  0.1321115E-008  0.2466675E+04  0.7816531E-02  0.8414955E-01
         -2   -1    0    0    0  501 -0.00000000000E+00  0.00000000000E+00  0.10529534474E+04  0.10529534474E+04  0.00000000000E+00 0. -1.
          2   -1    0    0  501    0  0.00000000000E+00 -0.00000000000E+00 -0.14446237276E+04  0.14446237276E+04  0.00000000000E+00 0.  1.
    2000013    1    1    2    0    0  0.38153198731E+03 -0.67699646401E+03 -0.31872559007E+03  0.12680602791E+04  0.95000000000E+03 0.  0.
   -2000013    1    1    2    0    0 -0.38153198731E+03  0.67699646401E+03 -0.72944690150E+02  0.12295168960E+04  0.95000000000E+03 0.  0.
<mgrwt>
<rscale>  0 0.24666751E+04</rscale>
<asrwt>0</asrwt>
<pdfrwt beam="2">  1        2 0.22224980E+00 0.24666751E+04</pdfrwt>
<pdfrwt beam="1">  1       -2 0.16199284E+00 0.24666751E+04</pdfrwt>
<totfact> 0.29722885E+00</totfact>
</mgrwt>
</event>
<event>
 4    1  0.1321115E-008  0.2578965E+04  0.7816531E-02  0.8375381E-01
          2   -1    0    0  501    0  0.00000000000E+00  0.00000000000E+00  0.27200262992E+04  0.27200262992E+04  0.00000000000E+00 0.  1.
         -2   -1    0    0    0  501 -0.00000000000E+00 -0.00000000000E+00 -0.61130494415E+03  0.61130494415E+03  0.00000000000E+00 0. -1.
    2000013    1    1    2    0    0  0.78710408747E+03 -0.25913593313E+03  0.70396729704E+03  0.14438678027E+04  0.95000000000E+03 0.  0.
   -2000013    1    1    2    0    0 -0.78710408747E+03  0.25913593313E+03  0.14047540581E+04  0.18874634407E+04  0.95000000000E+03 0.  0.
<mgrwt>
<rscale>  0 0.25789653E+04</rscale>
<asrwt>0</asrwt>
<pdfrwt beam="1">  1        2 0.41846558E+00 0.25789653E+04</pdfrwt>
<pdfrwt beam="2">  1       -2 0.94046916E-01 0.25789653E+04</pdfrwt>
<totfact> 0.21839203E+00</totfact>
</mgrwt>
</event>
<event>
 4    1  0.1321115E-008  0.2467557E+04  0.7816531E-02  0.8414636E-01
          2   -1    0    0  501    0  0.00000000000E+00  0.00000000000E+00  0.17393197047E+04  0.17393197047E+04  0.00000000000E+00 0.  1.
         -2   -1    0    0    0  501 -0.00000000000E+00 -0.00000000000E+00 -0.87517500882E+03  0.87517500882E+03  0.00000000000E+00 0. -1.
    2000013    1    1    2    0    0  0.70889116838E+03 -0.15961174989E+03  0.75293617624E+03  0.14132995029E+04  0.95000000000E+03 0.  0.
   -2000013    1    1    2    0    0 -0.70889116838E+03  0.15961174989E+03  0.11120851967E+03  0.12011952107E+04  0.95000000000E+03 0.  0.
<mgrwt>
<rscale>  0 0.24675568E+04</rscale>
<asrwt>0</asrwt>
<pdfrwt beam="1">  1        2 0.26758765E+00 0.24675568E+04</pdfrwt>
<pdfrwt beam="2">  1       -2 0.13464231E+00 0.24675568E+04</pdfrwt>
<totfact> 0.33127583E+00</totfact>
</mgrwt>
</event>
<event>
 4    1  0.1321115E-008  0.2674936E+04  0.7816531E-02  0.8343183E-01
          2   -1    0    0  501    0  0.00000000000E+00  0.00000000000E+00  0.38961441824E+04  0.38961441824E+04  0.00000000000E+00 0.  1.
         -2   -1    0    0    0  501 -0.00000000000E+00 -0.00000000000E+00 -0.45912601383E+03  0.45912601383E+03  0.00000000000E+00 0. -1.
    2000013    1    1    2    0    0 -0.12919139778E+02 -0.89646864799E+03  0.21861622748E+04  0.25466897009E+04  0.95000000000E+03 0.  0.
   -2000013    1    1    2    0    0  0.12919139778E+02  0.89646864799E+03  0.12508558938E+04  0.18085804953E+04  0.95000000000E+03 0.  0.
<mgrwt>
<rscale>  0 0.26749364E+04</rscale>
<asrwt>0</asrwt>
<pdfrwt beam="1">  1        2 0.59940677E+00 0.26749364E+04</pdfrwt>
<pdfrwt beam="2">  1       -2 0.70634774E-01 0.26749364E+04</pdfrwt>
<totfact> 0.66410611E-01</totfact>
</mgrwt>
</event>
<event>
 4    1  0.1321115E-008  0.2137282E+04  0.7816531E-02  0.8544996E-01
         -2   -1    0    0    0  501 -0.00000000000E+00  0.00000000000E+00  0.15371117354E+04  0.15371117354E+04  0.00000000000E+00 0. -1.
          2   -1    0    0  501    0  0.00000000000E+00 -0.00000000000E+00 -0.74294760869E+03  0.74294760869E+03  0.00000000000E+00 0.  1.
    2000013    1    1    2    0    0 -0.17276796883E+03 -0.23312367719E+03  0.81748657488E+03  0.12864601510E+04  0.95000000000E+03 0.  0.
   -2000013    1    1    2    0    0  0.17276796883E+03  0.23312367719E+03 -0.23322448205E+02  0.99359919309E+03  0.95000000000E+03 0.  0.
<mgrwt>
<rscale>  0 0.21372819E+04</rscale>
<asrwt>0</asrwt>
<pdfrwt beam="2">  1        2 0.11429963E+00 0.21372819E+04</pdfrwt>
<pdfrwt beam="1">  1       -2 0.23647873E+00 0.21372819E+04</pdfrwt>
<totfact> 0.27160362E+00</totfact>
</mgrwt>
</event>
<event>
 4    1  0.1321115E-008  0.2054114E+04  0.7816531E-02  0.8581730E-01
          2   -1    0    0  501    0  0.00000000000E+00  0.00000000000E+00  0.73593105854E+03  0.73593105854E+03  0.00000000000E+00 0.  1.
         -2   -1    0    0    0  501 -0.00000000000E+00 -0.00000000000E+00 -0.14333489580E+04  0.14333489580E+04  0.00000000000E+00 0. -1.
    2000013    1    1    2    0    0 -0.27759531257E+03  0.22237265113E+03 -0.51846072855E+03  0.11392147649E+04  0.95000000000E+03 0.  0.
   -2000013    1    1    2    0    0  0.27759531257E+03 -0.22237265113E+03 -0.17895717086E+03  0.10300652516E+04  0.95000000000E+03 0.  0.
<mgrwt>
<rscale>  0 0.20541139E+04</rscale>
<asrwt>0</asrwt>
<pdfrwt beam="1">  1        2 0.11322016E+00 0.20541139E+04</pdfrwt>
<pdfrwt beam="2">  1       -2 0.22051522E+00 0.20541139E+04</pdfrwt>
<totfact> 0.34854406E+00</totfact>
</mgrwt>
</event>
<event>
 4    1  0.1321115E-008  0.2685712E+04  0.7816531E-02  0.8339656E-01
          2   -1    0    0  501    0  0.00000000000E+00  0.00000000000E+00  0.21487079331E+04  0.21487079331E+04  0.00000000000E+00 0.  1.
         -2   -1    0    0    0  501 -0.00000000000E+00 -0.00000000000E+00 -0.83923095354E+03  0.83923095354E+03  0.00000000000E+00 0. -1.
    2000013    1    1    2    0    0 -0.31056189203E+03 -0.54257803538E+03  0.14491845254E+04  0.18421388118E+04  0.95000000000E+03 0.  0.
   -2000013    1    1    2    0    0  0.31056189203E+03  0.54257803538E+03 -0.13970754579E+03  0.11458000749E+04  0.95000000000E+03 0.  0.
<mgrwt>
<rscale>  0 0.26857120E+04</rscale>
<asrwt>0</asrwt>
<pdfrwt beam="1">  1        2 0.33057045E+00 0.26857120E+04</pdfrwt>
<pdfrwt beam="2">  1       -2 0.12911246E+00 0.26857120E+04</pdfrwt>
<totfact> 0.21416729E+00</totfact>
</mgrwt>
</event>
<event>
 4    1  0.1321115E-008  0.3485579E+04  0.7816531E-02  0.8117216E-01
          2   -1    0    0  501    0  0.00000000000E+00  0.00000000000E+00  0.48162633160E+04  0.48162633160E+04  0.00000000000E+00 0.  1.
         -2   -1    0    0    0  501 -0.00000000000E+00 -0.00000000000E+00 -0.63063729342E+03  0.63063729342E+03  0.00000000000E+00 0. -1.
    2000013    1    1    2    0    0  0.51924216702E+03 -0.33379983702E+03  0.23328703535E+02  0.11331720909E+04  0.95000000000E+03 0.  0.
   -2000013    1    1    2    0    0 -0.51924216702E+03  0.33379983702E+03  0.41622973191E+04  0.43137285185E+04  0.95000000000E+03 0.  0.
<mgrwt>
<rscale>  0 0.34855790E+04</rscale>
<asrwt>0</asrwt>
<pdfrwt beam="1">  1        2 0.74096356E+00 0.34855790E+04</pdfrwt>
<pdfrwt beam="2">  1       -2 0.97021125E-01 0.34855790E+04</pdfrwt>
<totfact> 0.41373236E-02</totfact>
</mgrwt>
</event>
<event>
 4    1  0.1321115E-008  0.2636995E+04  0.7816531E-02  0.8355742E-01
         -2   -1    0    0    0  501 -0.00000000000E+00  0.00000000000E+00  0.58748376517E+03  0.58748376517E+03  0.00000000000E+00 0. -1.
          2   -1    0    0  501    0  0.00000000000E+00 -0.00000000000E+00 -0.29591216053E+04  0.29591216053E+04  0.00000000000E+00 0.  1.
    2000013    1    1    2    0    0  0.15447682597E+03 -0.89849314399E+03 -0.12788329359E+04  0.18355017564E+04  0.95000000000E+03 0.  0.
   -2000013    1    1    2    0    0 -0.15447682597E+03  0.89849314399E+03 -0.10928049041E+04  0.17111036141E+04  0.95000000000E+03 0.  0.
<mgrwt>
<rscale>  0 0.26369952E+04</rscale>
<asrwt>0</asrwt>
<pdfrwt beam="2">  1        2 0.45524948E+00 0.26369952E+04</pdfrwt>
<pdfrwt beam="1">  1       -2 0.90382118E-01 0.26369952E+04</pdfrwt>
<totfact> 0.17039093E+00</totfact>
</mgrwt>
</event>
<event>
 4    1  0.1321115E-008  0.2440158E+04  0.7816531E-02  0.8424620E-01
         -1   -1    0    0    0  501 -0.00000000000E+00  0.00000000000E+00  0.15725487964E+04  0.15725487964E+04  0.00000000000E+00 0. -1.
          1   -1    0    0  501    0  0.00000000000E+00 -0.00000000000E+00 -0.94661162312E+03  0.94661162312E+03  0.00000000000E+00 0.  1.
    2000013    1    1    2    0    0  0.25821784657E+03  0.70559113841E+03  0.46454744534E+03  0.12972430920E+04  0.95000000000E+03 0.  0.
   -2000013    1    1    2    0    0 -0.25821784657E+03 -0.70559113841E+03  0.16138972794E+03  0.12219173275E+04  0.95000000000E+03 0.  0.
<mgrwt>
<rscale>  0 0.24401582E+04</rscale>
<asrwt>0</asrwt>
<pdfrwt beam="2">  1        1 0.14563256E+00 0.24401582E+04</pdfrwt>
<pdfrwt beam="1">  1       -1 0.24193058E+00 0.24401582E+04</pdfrwt>
<totfact> 0.11727230E+00</totfact>
</mgrwt>
</event>
<event>
 4    1  0.1321115E-008  0.2225713E+04  0.7816531E-02  0.8507801E-01
         -2   -1    0    0    0  501 -0.00000000000E+00  0.00000000000E+00  0.75349509758E+03  0.75349509758E+03  0.00000000000E+00 0. -1.
          2   -1    0    0  501    0  0.00000000000E+00 -0.00000000000E+00 -0.16436072171E+04  0.16436072171E+04  0.00000000000E+00 0.  1.
    2000013    1    1    2    0    0  0.55559161524E+03  0.15937807416E+03 -0.39852540872E+03  0.11812730061E+04  0.95000000000E+03 0.  0.
   -2000013    1    1    2    0    0 -0.55559161524E+03 -0.15937807416E+03 -0.49158671078E+03  0.12158293086E+04  0.95000000000E+03 0.  0.
<mgrwt>
<rscale>  0 0.22257134E+04</rscale>
<asrwt>0</asrwt>
<pdfrwt beam="2">  1        2 0.25286264E+00 0.22257134E+04</pdfrwt>
<pdfrwt beam="1">  1       -2 0.11592232E+00 0.22257134E+04</pdfrwt>
<totfact> 0.55613324E+00</totfact>
</mgrwt>
</event>
<event>
 4    1  0.1321115E-008  0.2526761E+04  0.7816531E-02  0.8393513E-01
         -2   -1    0    0    0  501 -0.00000000000E+00  0.00000000000E+00  0.83533462001E+03  0.83533462001E+03  0.00000000000E+00 0. -1.
          2   -1    0    0  501    0  0.00000000000E+00 -0.00000000000E+00 -0.19107682287E+04  0.19107682287E+04  0.00000000000E+00 0.  1.
    2000013    1    1    2    0    0 -0.19415025696E+03  0.79139766862E+03 -0.35065247884E+03  0.12997929655E+04  0.95000000000E+03 0.  0.
   -2000013    1    1    2    0    0  0.19415025696E+03 -0.79139766862E+03 -0.72478112986E+03  0.14463098832E+04  0.95000000000E+03 0.  0.
<mgrwt>
<rscale>  0 0.25267614E+04</rscale>
<asrwt>0</asrwt>
<pdfrwt beam="2">  1        2 0.29396434E+00 0.25267614E+04</pdfrwt>
<pdfrwt beam="1">  1       -2 0.12851302E+00 0.25267614E+04</pdfrwt>
<totfact> 0.29803994E+00</totfact>
</mgrwt>
</event>
<event>
 4    1  0.1321115E-008  0.2504838E+04  0.7816531E-02  0.8401264E-01
          2   -1    0    0  501    0  0.00000000000E+00  0.00000000000E+00  0.15681939374E+04  0.15681939374E+04  0.00000000000E+00 0.  1.
         -2   -1    0    0    0  501 -0.00000000000E+00 -0.00000000000E+00 -0.10002293072E+04  0.10002293072E+04  0.00000000000E+00 0. -1.
    2000013    1    1    2    0    0 -0.21926620492E+03 -0.78093457968E+03  0.37636402839E+03  0.13046403214E+04  0.95000000000E+03 0.  0.
   -2000013    1    1    2    0    0  0.21926620492E+03  0.78093457968E+03  0.19160060182E+03  0.12637829232E+04  0.95000000000E+03 0.  0.
<mgrwt>
<rscale>  0 0.25048381E+04</rscale>
<asrwt>0</asrwt>
<pdfrwt beam="1">  1        2 0.24126061E+00 0.25048381E+04</pdfrwt>
<pdfrwt beam="2">  1       -2 0.15388143E+00 0.25048381E+04</pdfrwt>
<totfact> 0.28999798E+00</totfact>
</mgrwt>
</event>
<event>
 4    1  0.1321115E-008  0.2538924E+04  0.7816531E-02  0.8389248E-01
          2   -1    0    0  501    0  0.00000000000E+00  0.00000000000E+00  0.66679298853E+03  0.66679298853E+03  0.00000000000E+00 0.  1.
         -2   -1    0    0    0  501 -0.00000000000E+00 -0.00000000000E+00 -0.24168430491E+04  0.24168430491E+04  0.00000000000E+00 0. -1.
    2000013    1    1    2    0    0 -0.36991996687E+03 -0.75288031212E+03 -0.96398120793E+03  0.15923031481E+04  0.95000000000E+03 0.  0.
   -2000013    1    1    2    0    0  0.36991996687E+03  0.75288031212E+03 -0.78606885263E+03  0.14913328895E+04  0.95000000000E+03 0.  0.
<mgrwt>
<rscale>  0 0.25389242E+04</rscale>
<asrwt>0</asrwt>
<pdfrwt beam="1">  1        2 0.10258354E+00 0.25389242E+04</pdfrwt>
<pdfrwt beam="2">  1       -2 0.37182201E+00 0.25389242E+04</pdfrwt>
<totfact> 0.43783118E-01</totfact>
</mgrwt>
</event>
<event>
 4    1  0.1321115E-008  0.2596489E+04  0.7816531E-02  0.8369395E-01
          2   -1    0    0  501    0  0.00000000000E+00  0.00000000000E+00  0.78449537873E+03  0.78449537873E+03  0.00000000000E+00 0.  1.
         -2   -1    0    0    0  501 -0.00000000000E+00 -0.00000000000E+00 -0.21484363593E+04  0.21484363593E+04  0.00000000000E+00 0. -1.
    2000013    1    1    2    0    0 -0.69821800945E+03 -0.50423579249E+02 -0.70654277827E+02  0.11821772088E+04  0.95000000000E+03 0.  0.
   -2000013    1    1    2    0    0  0.69821800945E+03  0.50423579249E+02 -0.12932867027E+04  0.17507545292E+04  0.95000000000E+03 0.  0.
<mgrwt>
<rscale>  0 0.25964887E+04</rscale>
<asrwt>0</asrwt>
<pdfrwt beam="1">  1        2 0.12069160E+00 0.25964887E+04</pdfrwt>
<pdfrwt beam="2">  1       -2 0.33052867E+00 0.25964887E+04</pdfrwt>
<totfact> 0.64460803E-01</totfact>
</mgrwt>
</event>
<event>
 4    1  0.1321115E-008  0.2715328E+04  0.7816531E-02  0.8330049E-01
          2   -1    0    0  501    0  0.00000000000E+00  0.00000000000E+00  0.16410105860E+04  0.16410105860E+04  0.00000000000E+00 0.  1.
         -2   -1    0    0    0  501 -0.00000000000E+00 -0.00000000000E+00 -0.11232414151E+04  0.11232414151E+04  0.00000000000E+00 0. -1.
    2000013    1    1    2    0    0  0.90373726513E+03  0.23552449843E+03  0.52539967267E+03  0.14320466647E+04  0.95000000000E+03 0.  0.
   -2000013    1    1    2    0    0 -0.90373726513E+03 -0.23552449843E+03 -0.76305017565E+01  0.13322053364E+04  0.95000000000E+03 0.  0.
<mgrwt>
<rscale>  0 0.27153276E+04</rscale>
<asrwt>0</asrwt>
<pdfrwt beam="1">  1        2 0.25246317E+00 0.27153276E+04</pdfrwt>
<pdfrwt beam="2">  1       -2 0.17280637E+00 0.27153276E+04</pdfrwt>
<totfact> 0.18873762E+00</totfact>
</mgrwt>
</event>
<event>
 4    1  0.1321115E-008  0.2628353E+04  0.7816531E-02  0.8358633E-01
          2   -1    0    0  501    0  0.00000000000E+00  0.00000000000E+00  0.24337169356E+04  0.24337169356E+04  0.00000000000E+00 0.  1.
         -2   -1    0    0    0  501 -0.00000000000E+00 -0.00000000000E+00 -0.70963899856E+03  0.70963899856E+03  0.00000000000E+00 0. -1.
    2000013    1    1    2    0    0 -0.51345206912E+03  0.73519730654E+03  0.10329051898E+04  0.16653952197E+04  0.95000000000E+03 0.  0.
   -2000013    1    1    2    0    0  0.51345206912E+03 -0.73519730654E+03  0.69117274725E+03  0.14779607144E+04  0.95000000000E+03 0.  0.
<mgrwt>
<rscale>  0 0.26283534E+04</rscale>
<asrwt>0</asrwt>
<pdfrwt beam="1">  1        2 0.37441798E+00 0.26283534E+04</pdfrwt>
<pdfrwt beam="2">  1       -2 0.10917523E+00 0.26283534E+04</pdfrwt>
<totfact> 0.22445755E+00</totfact>
</mgrwt>
</event>
<event>
 4    1  0.1321115E-008  0.2333284E+04  0.7816531E-02  0.8464912E-01
          2   -1    0    0  501    0  0.00000000000E+00  0.00000000000E+00  0.17538773430E+04  0.17538773430E+04  0.00000000000E+00 0.  1.
         -2   -1    0    0    0  501 -0.00000000000E+00 -0.00000000000E+00 -0.77602562361E+03  0.77602562361E+03  0.00000000000E+00 0. -1.
    2000013    1    1    2    0    0 -0.32517381811E+03  0.57596529024E+03  0.33150264956E+03  0.12041046608E+04  0.95000000000E+03 0.  0.
   -2000013    1    1    2    0    0  0.32517381811E+03 -0.57596529024E+03  0.64634906980E+03  0.13257983058E+04  0.95000000000E+03 0.  0.
<mgrwt>
<rscale>  0 0.23332842E+04</rscale>
<asrwt>0</asrwt>
<pdfrwt beam="1">  1        2 0.26982728E+00 0.23332842E+04</pdfrwt>
<pdfrwt beam="2">  1       -2 0.11938856E+00 0.23332842E+04</pdfrwt>
<totfact> 0.44510617E+00</totfact>
</mgrwt>
</event>
<event>
 4    1  0.1321115E-008  0.2131571E+04  0.7816531E-02  0.8547462E-01
         -2   -1    0    0    0  501 -0.00000000000E+00  0.00000000000E+00  0.22969187988E+04  0.22969187988E+04  0.00000000000E+00 0. -1.
          2   -1    0    0  501    0  0.00000000000E+00 -0.00000000000E+00 -0.49453174128E+03  0.49453174128E+03  0.00000000000E+00 0.  1.
    2000013    1    1    2    0    0  0.21933968536E+03  0.31577822278E+03  0.12842824610E+04  0.16430785810E+04  0.95000000000E+03 0.  0.
   -2000013    1    1    2    0    0 -0.21933968536E+03 -0.31577822278E+03  0.51810459650E+03  0.11483719591E+04  0.95000000000E+03 0.  0.
<mgrwt>
<rscale>  0 0.21315715E+04</rscale>
<asrwt>0</asrwt>
<pdfrwt beam="2">  1        2 0.76081808E-01 0.21315715E+04</pdfrwt>
<pdfrwt beam="1">  1       -2 0.35337212E+00 0.21315715E+04</pdfrwt>
<totfact> 0.85080241E-01</totfact>
</mgrwt>
</event>
<event>
 4    1  0.1321115E-008  0.2190275E+04  0.7816531E-02  0.8522487E-01
         -2   -1    0    0    0  501 -0.00000000000E+00  0.00000000000E+00  0.99158150621E+03  0.99158150621E+03  0.00000000000E+00 0. -1.
          2   -1    0    0  501    0  0.00000000000E+00 -0.00000000000E+00 -0.12095087238E+04  0.12095087238E+04  0.00000000000E+00 0.  1.
    2000013    1    1    2    0    0 -0.30516358891E+03 -0.42870838373E+03 -0.25076593707E+03  0.11145847879E+04  0.95000000000E+03 0.  0.
   -2000013    1    1    2    0    0  0.30516358891E+03  0.42870838373E+03  0.32838719445E+02  0.10865054421E+04  0.95000000000E+03 0.  0.
<mgrwt>
<rscale>  0 0.21902753E+04</rscale>
<asrwt>0</asrwt>
<pdfrwt beam="2">  1        2 0.18607827E+00 0.21902753E+04</pdfrwt>
<pdfrwt beam="1">  1       -2 0.15255100E+00 0.21902753E+04</pdfrwt>
<totfact> 0.48994127E+00</totfact>
</mgrwt>
</event>
<event>
 4    1  0.1321115E-008  0.3238521E+04  0.7816531E-02  0.8178717E-01
         -2   -1    0    0    0  501 -0.00000000000E+00  0.00000000000E+00  0.14105340352E+04  0.14105340352E+04  0.00000000000E+00 0. -1.
          2   -1    0    0  501    0  0.00000000000E+00 -0.00000000000E+00 -0.18588734171E+04  0.18588734171E+04  0.00000000000E+00 0.  1.
    2000013    1    1    2    0    0 -0.98395756939E+03  0.36504745743E+03  0.56950388460E+03  0.15258659244E+04  0.95000000000E+03 0.  0.
   -2000013    1    1    2    0    0  0.98395756939E+03 -0.36504745743E+03 -0.10178432665E+04  0.17435415279E+04  0.95000000000E+03 0.  0.
<mgrwt>
<rscale>  0 0.32385208E+04</rscale>
<asrwt>0</asrwt>
<pdfrwt beam="2">  1        2 0.28598052E+00 0.32385208E+04</pdfrwt>
<pdfrwt beam="1">  1       -2 0.21700524E+00 0.32385208E+04</pdfrwt>
<totfact> 0.69377215E-01</totfact>
</mgrwt>
</event>
<event>
 4    1  0.1321115E-008  0.2484220E+04  0.7816531E-02  0.8408629E-01
          2   -1    0    0  501    0  0.00000000000E+00  0.00000000000E+00  0.90207972833E+03  0.90207972833E+03  0.00000000000E+00 0.  1.
         -2   -1    0    0    0  501 -0.00000000000E+00 -0.00000000000E+00 -0.17103113742E+04  0.17103113742E+04  0.00000000000E+00 0. -1.
    2000013    1    1    2    0    0 -0.18500935898E+03 -0.73048262799E+03 -0.68727379399E+03  0.13938000576E+04  0.95000000000E+03 0.  0.
   -2000013    1    1    2    0    0  0.18500935898E+03  0.73048262799E+03 -0.12095785183E+03  0.12185910449E+04  0.95000000000E+03 0.  0.
<mgrwt>
<rscale>  0 0.24842200E+04</rscale>
<asrwt>0</asrwt>
<pdfrwt beam="1">  1        2 0.13878150E+00 0.24842200E+04</pdfrwt>
<pdfrwt beam="2">  1       -2 0.26312483E+00 0.24842200E+04</pdfrwt>
<totfact> 0.13934132E+00</totfact>
</mgrwt>
</event>
<event>
 4    1  0.1321115E-008  0.2444001E+04  0.7816531E-02  0.8423212E-01
          2   -1    0    0  501    0  0.00000000000E+00  0.00000000000E+00  0.18740323448E+04  0.18740323448E+04  0.00000000000E+00 0.  1.
         -2   -1    0    0    0  501 -0.00000000000E+00 -0.00000000000E+00 -0.79682969588E+03  0.79682969588E+03  0.00000000000E+00 0. -1.
    2000013    1    1    2    0    0  0.42934677465E+03  0.42088513398E+03  0.15297659106E+02  0.11243740335E+04  0.95000000000E+03 0.  0.
   -2000013    1    1    2    0    0 -0.42934677465E+03 -0.42088513398E+03  0.10619049898E+04  0.15464880072E+04  0.95000000000E+03 0.  0.
<mgrwt>
<rscale>  0 0.24440005E+04</rscale>
<asrwt>0</asrwt>
<pdfrwt beam="1">  1        2 0.28831267E+00 0.24440005E+04</pdfrwt>
<pdfrwt beam="2">  1       -2 0.12258919E+00 0.24440005E+04</pdfrwt>
<totfact> 0.35412516E+00</totfact>
</mgrwt>
</event>
<event>
 4    1  0.1321115E-008  0.2193329E+04  0.7816531E-02  0.8521210E-01
          2   -1    0    0  501    0  0.00000000000E+00  0.00000000000E+00  0.72204028341E+03  0.72204028341E+03  0.00000000000E+00 0.  1.
         -2   -1    0    0    0  501 -0.00000000000E+00 -0.00000000000E+00 -0.16656592969E+04  0.16656592969E+04  0.00000000000E+00 0. -1.
    2000013    1    1    2    0    0  0.11933472465E+03 -0.53472260325E+03 -0.47400622375E+03  0.11947179329E+04  0.95000000000E+03 0.  0.
   -2000013    1    1    2    0    0 -0.11933472465E+03  0.53472260325E+03 -0.46961278978E+03  0.11929816475E+04  0.95000000000E+03 0.  0.
<mgrwt>
<rscale>  0 0.21933291E+04</rscale>
<asrwt>0</asrwt>
<pdfrwt beam="1">  1        2 0.11108312E+00 0.21933291E+04</pdfrwt>
<pdfrwt beam="2">  1       -2 0.25625527E+00 0.21933291E+04</pdfrwt>
<totfact> 0.21183357E+00</totfact>
</mgrwt>
</event>
<event>
 4    1  0.1321115E-008  0.1929510E+04  0.7816531E-02  0.8640305E-01
         -2   -1    0    0    0  501 -0.00000000000E+00  0.00000000000E+00  0.23533718012E+04  0.23533718012E+04  0.00000000000E+00 0. -1.
          2   -1    0    0  501    0  0.00000000000E+00 -0.00000000000E+00 -0.39549734686E+03  0.39549734686E+03  0.00000000000E+00 0.  1.
    2000013    1    1    2    0    0 -0.14624023053E+03  0.31546052213E+02  0.86977785700E+03  0.12966861143E+04  0.95000000000E+03 0.  0.
   -2000013    1    1    2    0    0  0.14624023053E+03 -0.31546052213E+02  0.10880965973E+04  0.14521830338E+04  0.95000000000E+03 0.  0.
<mgrwt>
<rscale>  0 0.19295101E+04</rscale>
<asrwt>0</asrwt>
<pdfrwt beam="2">  1        2 0.60845747E-01 0.19295101E+04</pdfrwt>
<pdfrwt beam="1">  1       -2 0.36205719E+00 0.19295101E+04</pdfrwt>
<totfact> 0.98498594E-01</totfact>
</mgrwt>
</event>
<event>
 4    1  0.1321115E-008  0.2327238E+04  0.7816531E-02  0.8467258E-01
          2   -1    0    0  501    0  0.00000000000E+00  0.00000000000E+00  0.27230013669E+04  0.27230013669E+04  0.00000000000E+00 0.  1.
         -2   -1    0    0    0  501 -0.00000000000E+00 -0.00000000000E+00 -0.49724870008E+03  0.49724870008E+03  0.00000000000E+00 0. -1.
    2000013    1    1    2    0    0 -0.27482450784E+03 -0.50535142644E+03  0.63234350049E+03  0.12779933008E+04  0.95000000000E+03 0.  0.
   -2000013    1    1    2    0    0  0.27482450784E+03  0.50535142644E+03  0.15934091663E+04  0.19422567661E+04  0.95000000000E+03 0.  0.
<mgrwt>
<rscale>  0 0.23272378E+04</rscale>
<asrwt>0</asrwt>
<pdfrwt beam="1">  1        2 0.41892328E+00 0.23272378E+04</pdfrwt>
<pdfrwt beam="2">  1       -2 0.76499802E-01 0.23272378E+04</pdfrwt>
<totfact> 0.35569009E+00</totfact>
</mgrwt>
</event>
<event>
 4    1  0.1321115E-008  0.2467476E+04  0.7816531E-02  0.8414665E-01
         -1   -1    0    0    0  501 -0.00000000000E+00  0.00000000000E+00  0.86224081466E+03  0.86224081466E+03  0.00000000000E+00 0.  1.
          1   -1    0    0  501    0  0.00000000000E+00 -0.00000000000E+00 -0.17652950282E+04  0.17652950282E+04  0.00000000000E+00 0. -1.
    2000013    1    1    2    0    0  0.54910615006E+03  0.89741000042E+02  0.14140295260E+03  0.11099845972E+04  0.95000000000E+03 0.  0.
   -2000013    1    1    2    0    0 -0.54910615006E+03 -0.89741000042E+02 -0.10444571661E+04  0.15175512456E+04  0.95000000000E+03 0.  0.
<mgrwt>
<rscale>  0 0.24674760E+04</rscale>
<asrwt>0</asrwt>
<pdfrwt beam="2">  1        1 0.27158385E+00 0.24674760E+04</pdfrwt>
<pdfrwt beam="1">  1       -1 0.13265243E+00 0.24674760E+04</pdfrwt>
<totfact> 0.18462831E+00</totfact>
</mgrwt>
</event>
<event>
 4    1  0.1321115E-008  0.2025147E+04  0.7816531E-02  0.8594953E-01
          2   -1    0    0  501    0  0.00000000000E+00  0.00000000000E+00  0.15196057853E+04  0.15196057853E+04  0.00000000000E+00 0. -1.
         -2   -1    0    0    0  501 -0.00000000000E+00 -0.00000000000E+00 -0.67471764170E+03  0.67471764170E+03  0.00000000000E+00 0.  1.
    2000013    1    1    2    0    0 -0.25466112274E+03  0.24068392621E+03  0.42772924777E+03  0.10991966836E+04  0.95000000000E+03 0.  0.
   -2000013    1    1    2    0    0  0.25466112274E+03 -0.24068392621E+03  0.41715889581E+03  0.10951267434E+04  0.95000000000E+03 0.  0.
<mgrwt>
<rscale>  0 0.20251467E+04</rscale>
<asrwt>0</asrwt>
<pdfrwt beam="1">  1        2 0.23378550E+00 0.20251467E+04</pdfrwt>
<pdfrwt beam="2">  1       -2 0.10380271E+00 0.20251467E+04</pdfrwt>
<totfact> 0.86700795E+00</totfact>
</mgrwt>
</event>
<event>
 4    1  0.1321115E-008  0.3568311E+04  0.7816531E-02  0.8097789E-01
         -1   -1    0    0    0  501 -0.00000000000E+00  0.00000000000E+00  0.17380412755E+04  0.17380412755E+04  0.00000000000E+00 0.  1.
          1   -1    0    0  501    0  0.00000000000E+00 -0.00000000000E+00 -0.18314931480E+04  0.18314931480E+04  0.00000000000E+00 0. -1.
    2000013    1    1    2    0    0  0.11421983880E+04 -0.96478585227E+03  0.16614220759E+03  0.17791942366E+04  0.95000000000E+03 0.  0.
   -2000013    1    1    2    0    0 -0.11421983880E+04  0.96478585227E+03 -0.25959408014E+03  0.17903401869E+04  0.95000000000E+03 0.  0.
<mgrwt>
<rscale>  0 0.35683109E+04</rscale>
<asrwt>0</asrwt>
<pdfrwt beam="2">  1        1 0.28176818E+00 0.35683109E+04</pdfrwt>
<pdfrwt beam="1">  1       -1 0.26739097E+00 0.35683109E+04</pdfrwt>
<totfact> 0.16901025E-01</totfact>
</mgrwt>
</event>
<event>
 4    1  0.1321115E-008  0.2097965E+04  0.7816531E-02  0.8562140E-01
         -2   -1    0    0    0  501 -0.00000000000E+00  0.00000000000E+00  0.92523820937E+03  0.92523820937E+03  0.00000000000E+00 0. -1.
          2   -1    0    0  501    0  0.00000000000E+00 -0.00000000000E+00 -0.11892771140E+04  0.11892771140E+04  0.00000000000E+00 0.  1.
    2000013    1    1    2    0    0 -0.30314823237E+03 -0.32437803215E+03 -0.15952334364E+03  0.10606920645E+04  0.95000000000E+03 0.  0.
   -2000013    1    1    2    0    0  0.30314823237E+03  0.32437803215E+03 -0.10451556105E+03  0.10538232589E+04  0.95000000000E+03 0.  0.
<mgrwt>
<rscale>  0 0.20979653E+04</rscale>
<asrwt>0</asrwt>
<pdfrwt beam="2">  1        2 0.18296571E+00 0.20979653E+04</pdfrwt>
<pdfrwt beam="1">  1       -2 0.14234434E+00 0.20979653E+04</pdfrwt>
<totfact> 0.60945819E+00</totfact>
</mgrwt>
</event>
<event>
 4    1  0.1321115E-008  0.2979924E+04  0.7816531E-02  0.8249487E-01
          2   -1    0    0  501    0  0.00000000000E+00  0.00000000000E+00  0.13947126891E+04  0.13947126891E+04  0.00000000000E+00 0.  1.
         -2   -1    0    0    0  501 -0.00000000000E+00 -0.00000000000E+00 -0.15917164982E+04  0.15917164982E+04  0.00000000000E+00 0. -1.
    2000013    1    1    2    0    0  0.41397475620E+03 -0.79942164240E+03 -0.81212167818E+03  0.15402894797E+04  0.95000000000E+03 0.  0.
   -2000013    1    1    2    0    0 -0.41397475620E+03  0.79942164240E+03  0.61511786900E+03  0.14461397076E+04  0.95000000000E+03 0.  0.
<mgrwt>
<rscale>  0 0.29799243E+04</rscale>
<asrwt>0</asrwt>
<pdfrwt beam="1">  1        2 0.21457118E+00 0.29799243E+04</pdfrwt>
<pdfrwt beam="2">  1       -2 0.24487946E+00 0.29799243E+04</pdfrwt>
<totfact> 0.86344685E-01</totfact>
</mgrwt>
</event>
<event>
 4    1  0.1321115E-008  0.2532873E+04  0.7816531E-02  0.8391367E-01
          2   -1    0    0  501    0  0.00000000000E+00  0.00000000000E+00  0.71424619877E+03  0.71424619877E+03  0.00000000000E+00 0.  1.
         -2   -1    0    0    0  501 -0.00000000000E+00 -0.00000000000E+00 -0.22455305459E+04  0.22455305459E+04  0.00000000000E+00 0. -1.
    2000013    1    1    2    0    0  0.64497374922E+03  0.52640120360E+03 -0.87192386091E+03  0.15348747778E+04  0.95000000000E+03 0.  0.
   -2000013    1    1    2    0    0 -0.64497374922E+03 -0.52640120360E+03 -0.65936048618E+03  0.14249019668E+04  0.95000000000E+03 0.  0.
<mgrwt>
<rscale>  0 0.25328732E+04</rscale>
<asrwt>0</asrwt>
<pdfrwt beam="1">  1        2 0.10988403E+00 0.25328732E+04</pdfrwt>
<pdfrwt beam="2">  1       -2 0.34546623E+00 0.25328732E+04</pdfrwt>
<totfact> 0.59044255E-01</totfact>
</mgrwt>
</event>
<event>
 4    1  0.1321115E-008  0.2143249E+04  0.7816531E-02  0.8542427E-01
         -2   -1    0    0    0  501 -0.00000000000E+00  0.00000000000E+00  0.62060271399E+03  0.62060271399E+03  0.00000000000E+00 0. -1.
          2   -1    0    0  501    0  0.00000000000E+00 -0.00000000000E+00 -0.18504258808E+04  0.18504258808E+04  0.00000000000E+00 0.  1.
    2000013    1    1    2    0    0  0.41141900749E+03  0.18802284901E+03 -0.84910552899E+03  0.13520718882E+04  0.95000000000E+03 0.  0.
   -2000013    1    1    2    0    0 -0.41141900749E+03 -0.18802284901E+03 -0.38071763780E+03  0.11189567066E+04  0.95000000000E+03 0.  0.
<mgrwt>
<rscale>  0 0.21432492E+04</rscale>
<asrwt>0</asrwt>
<pdfrwt beam="2">  1        2 0.28468090E+00 0.21432492E+04</pdfrwt>
<pdfrwt beam="1">  1       -2 0.95477342E-01 0.21432492E+04</pdfrwt>
<totfact> 0.68431414E+00</totfact>
</mgrwt>
</event>
<event>
 4    1  0.1321115E-008  0.2778802E+04  0.7816531E-02  0.8309880E-01
          2   -1    0    0  501    0  0.00000000000E+00  0.00000000000E+00  0.14219580830E+04  0.14219580830E+04  0.00000000000E+00 0.  1.
         -2   -1    0    0    0  501 -0.00000000000E+00 -0.00000000000E+00 -0.13575894896E+04  0.13575894896E+04  0.00000000000E+00 0. -1.
    2000013    1    1    2    0    0 -0.45396264108E+03  0.82525094728E+03  0.40753706462E+03  0.13984661828E+04  0.95000000000E+03 0.  0.
   -2000013    1    1    2    0    0  0.45396264108E+03 -0.82525094728E+03 -0.34316847127E+03  0.13810813898E+04  0.95000000000E+03 0.  0.
<mgrwt>
<rscale>  0 0.27788022E+04</rscale>
<asrwt>0</asrwt>
<pdfrwt beam="1">  1        2 0.21876278E+00 0.27788022E+04</pdfrwt>
<pdfrwt beam="2">  1       -2 0.20885992E+00 0.27788022E+04</pdfrwt>
<totfact> 0.14272310E+00</totfact>
</mgrwt>
</event>
<event>
 4    1  0.1321115E-008  0.2668226E+04  0.7816531E-02  0.8345389E-01
         -2   -1    0    0    0  501 -0.00000000000E+00  0.00000000000E+00  0.25933849379E+04  0.25933849379E+04  0.00000000000E+00 0. -1.
          2   -1    0    0  501    0  0.00000000000E+00 -0.00000000000E+00 -0.68630684261E+03  0.68630684261E+03  0.00000000000E+00 0.  1.
    2000013    1    1    2    0    0 -0.22326938715E+03 -0.74035610728E+03  0.30384459630E+03  0.12620609825E+04  0.95000000000E+03 0.  0.
   -2000013    1    1    2    0    0  0.22326938715E+03  0.74035610728E+03  0.16032334990E+04  0.20176307980E+04  0.95000000000E+03 0.  0.
<mgrwt>
<rscale>  0 0.26682262E+04</rscale>
<asrwt>0</asrwt>
<pdfrwt beam="2">  1        2 0.10558567E+00 0.26682262E+04</pdfrwt>
<pdfrwt beam="1">  1       -2 0.39898229E+00 0.26682262E+04</pdfrwt>
<totfact> 0.27845394E-01</totfact>
</mgrwt>
</event>
<event>
 4    1  0.1321115E-008  0.2101816E+04  0.7816531E-02  0.8560444E-01
         -2   -1    0    0    0  501 -0.00000000000E+00  0.00000000000E+00  0.15084969795E+04  0.15084969795E+04  0.00000000000E+00 0. -1.
          2   -1    0    0  501    0  0.00000000000E+00 -0.00000000000E+00 -0.73212475218E+03  0.73212475218E+03  0.00000000000E+00 0.  1.
    2000013    1    1    2    0    0 -0.32408728589E+03  0.30996367654E+03  0.35807300946E+03  0.11098767183E+04  0.95000000000E+03 0.  0.
   -2000013    1    1    2    0    0  0.32408728589E+03 -0.30996367654E+03  0.41829921784E+03  0.11307450134E+04  0.95000000000E+03 0.  0.
<mgrwt>
<rscale>  0 0.21018163E+04</rscale>
<asrwt>0</asrwt>
<pdfrwt beam="2">  1        2 0.11263458E+00 0.21018163E+04</pdfrwt>
<pdfrwt beam="1">  1       -2 0.23207646E+00 0.21018163E+04</pdfrwt>
<totfact> 0.29569398E+00</totfact>
</mgrwt>
</event>
<event>
 4    1  0.1321115E-008  0.3008936E+04  0.7816531E-02  0.8241184E-01
          2   -1    0    0  501    0  0.00000000000E+00  0.00000000000E+00  0.13058182651E+04  0.13058182651E+04  0.00000000000E+00 0.  1.
         -2   -1    0    0    0  501 -0.00000000000E+00 -0.00000000000E+00 -0.17333375225E+04  0.17333375225E+04  0.00000000000E+00 0. -1.
    2000013    1    1    2    0    0  0.11634439051E+04 -0.79391587764E+02 -0.24600283010E+03  0.15241135578E+04  0.95000000000E+03 0.  0.
   -2000013    1    1    2    0    0 -0.11634439051E+04  0.79391587764E+02 -0.18151642727E+03  0.15150422298E+04  0.95000000000E+03 0.  0.
<mgrwt>
<rscale>  0 0.30089359E+04</rscale>
<asrwt>0</asrwt>
<pdfrwt beam="1">  1        2 0.20089512E+00 0.30089359E+04</pdfrwt>
<pdfrwt beam="2">  1       -2 0.26666731E+00 0.30089359E+04</pdfrwt>
<totfact> 0.71266299E-01</totfact>
</mgrwt>
</event>
<event>
 4    1  0.1321115E-008  0.2414363E+04  0.7816531E-02  0.8434146E-01
         -2   -1    0    0    0  501 -0.00000000000E+00  0.00000000000E+00  0.67627749878E+03  0.67627749878E+03  0.00000000000E+00 0. -1.
          2   -1    0    0  501    0  0.00000000000E+00 -0.00000000000E+00 -0.21548655004E+04  0.21548655004E+04  0.00000000000E+00 0.  1.
    2000013    1    1    2    0    0 -0.23322768542E+03 -0.22193796756E+03 -0.15269067330E+04  0.18269088061E+04  0.95000000000E+03 0.  0.
   -2000013    1    1    2    0    0  0.23322768542E+03  0.22193796756E+03  0.48318731356E+02  0.10042341931E+04  0.95000000000E+03 0.  0.
<mgrwt>
<rscale>  0 0.24143629E+04</rscale>
<asrwt>0</asrwt>
<pdfrwt beam="2">  1        2 0.33151776E+00 0.24143629E+04</pdfrwt>
<pdfrwt beam="1">  1       -2 0.10404269E+00 0.24143629E+04</pdfrwt>
<totfact> 0.36943323E+00</totfact>
</mgrwt>
</event>
<event>
 4    1  0.1321115E-008  0.2333469E+04  0.7816531E-02  0.8464841E-01
         -2   -1    0    0    0  501 -0.00000000000E+00  0.00000000000E+00  0.65974892902E+03  0.65974892902E+03  0.00000000000E+00 0. -1.
          2   -1    0    0  501    0  0.00000000000E+00 -0.00000000000E+00 -0.20633139928E+04  0.20633139928E+04  0.00000000000E+00 0.  1.
    2000013    1    1    2    0    0  0.46214959430E+03  0.43375837878E+03 -0.98048947294E+03  0.15051870931E+04  0.95000000000E+03 0.  0.
   -2000013    1    1    2    0    0 -0.46214959430E+03 -0.43375837878E+03 -0.42307559085E+03  0.12178758287E+04  0.95000000000E+03 0.  0.
<mgrwt>
<rscale>  0 0.23334688E+04</rscale>
<asrwt>0</asrwt>
<pdfrwt beam="2">  1        2 0.31743291E+00 0.23334688E+04</pdfrwt>
<pdfrwt beam="1">  1       -2 0.10149984E+00 0.23334688E+04</pdfrwt>
<totfact> 0.44397461E+00</totfact>
</mgrwt>
</event>
<event>
 4    1  0.1321115E-008  0.2409379E+04  0.7816531E-02  0.8436001E-01
         -2   -1    0    0    0  501 -0.00000000000E+00  0.00000000000E+00  0.39118674414E+03  0.39118674414E+03  0.00000000000E+00 0. -1.
          2   -1    0    0  501    0  0.00000000000E+00 -0.00000000000E+00 -0.37099329136E+04  0.37099329136E+04  0.00000000000E+00 0.  1.
    2000013    1    1    2    0    0  0.73391799698E+03 -0.98165250929E+02 -0.16976064797E+04  0.20814994121E+04  0.95000000000E+03 0.  0.
   -2000013    1    1    2    0    0 -0.73391799698E+03  0.98165250929E+02 -0.16211396898E+04  0.20196202456E+04  0.95000000000E+03 0.  0.
<mgrwt>
<rscale>  0 0.24093788E+04</rscale>
<asrwt>0</asrwt>
<pdfrwt beam="2">  1        2 0.57075894E+00 0.24093788E+04</pdfrwt>
<pdfrwt beam="1">  1       -2 0.60182573E-01 0.24093788E+04</pdfrwt>
<totfact> 0.13307727E+00</totfact>
</mgrwt>
</event>
<event>
 4    1  0.1321115E-008  0.2861685E+04  0.7816531E-02  0.8284369E-01
          2   -1    0    0  501    0  0.00000000000E+00  0.00000000000E+00  0.13059171716E+04  0.13059171716E+04  0.00000000000E+00 0.  1.
         -2   -1    0    0    0  501 -0.00000000000E+00 -0.00000000000E+00 -0.15677187692E+04  0.15677187692E+04  0.00000000000E+00 0. -1.
    2000013    1    1    2    0    0 -0.65658837271E+03  0.70451358046E+02  0.71448135508E+03  0.13597997249E+04  0.95000000000E+03 0.  0.
   -2000013    1    1    2    0    0  0.65658837271E+03 -0.70451358046E+02 -0.97628295264E+03  0.15138362159E+04  0.95000000000E+03 0.  0.
<mgrwt>
<rscale>  0 0.28616854E+04</rscale>
<asrwt>0</asrwt>
<pdfrwt beam="1">  1        2 0.20091034E+00 0.28616854E+04</pdfrwt>
<pdfrwt beam="2">  1       -2 0.24118750E+00 0.28616854E+04</pdfrwt>
<totfact> 0.10341598E+00</totfact>
</mgrwt>
</event>
<event>
 4    1  0.1321115E-008  0.3050265E+04  0.7816531E-02  0.8229521E-01
          2   -1    0    0  501    0  0.00000000000E+00  0.00000000000E+00  0.35536846930E+04  0.35536846930E+04  0.00000000000E+00 0.  1.
         -2   -1    0    0    0  501 -0.00000000000E+00 -0.00000000000E+00 -0.65454024914E+03  0.65454024914E+03  0.00000000000E+00 0. -1.
    2000013    1    1    2    0    0 -0.54527666442E+03 -0.92299942944E+03  0.21720999169E+04  0.26018786744E+04  0.95000000000E+03 0.  0.
   -2000013    1    1    2    0    0  0.54527666442E+03  0.92299942944E+03  0.72704452691E+03  0.16063462677E+04  0.95000000000E+03 0.  0.
<mgrwt>
<rscale>  0 0.30502653E+04</rscale>
<asrwt>0</asrwt>
<pdfrwt beam="1">  1        2 0.54672071E+00 0.30502653E+04</pdfrwt>
<pdfrwt beam="2">  1       -2 0.10069850E+00 0.30502653E+04</pdfrwt>
<totfact> 0.51556312E-01</totfact>
</mgrwt>
</event>
<event>
 4    1  0.1321115E-008  0.2198685E+04  0.7816531E-02  0.8518976E-01
          2   -1    0    0  501    0  0.00000000000E+00  0.00000000000E+00  0.27929486660E+04  0.27929486660E+04  0.00000000000E+00 0.  1.
         -2   -1    0    0    0  501 -0.00000000000E+00 -0.00000000000E+00 -0.43271593357E+03  0.43271593357E+03  0.00000000000E+00 0. -1.
    2000013    1    1    2    0    0  0.42883371358E+03  0.20606571283E+03  0.15942719674E+04  0.19158717436E+04  0.95000000000E+03 0.  0.
   -2000013    1    1    2    0    0 -0.42883371358E+03 -0.20606571283E+03  0.76596076497E+03  0.13097928559E+04  0.95000000000E+03 0.  0.
<mgrwt>
<rscale>  0 0.21986845E+04</rscale>
<asrwt>0</asrwt>
<pdfrwt beam="1">  1        2 0.42968440E+00 0.21986845E+04</pdfrwt>
<pdfrwt beam="2">  1       -2 0.66571684E-01 0.21986845E+04</pdfrwt>
<totfact> 0.44291178E+00</totfact>
</mgrwt>
</event>
<event>
 4    1  0.1321115E-008  0.3384305E+04  0.7816531E-02  0.8141769E-01
         -2   -1    0    0    0  501 -0.00000000000E+00  0.00000000000E+00  0.12894379100E+04  0.12894379100E+04  0.00000000000E+00 0. -1.
          2   -1    0    0  501    0  0.00000000000E+00 -0.00000000000E+00 -0.22206423996E+04  0.22206423996E+04  0.00000000000E+00 0.  1.
    2000013    1    1    2    0    0  0.52017814754E+03  0.52467936973E+03 -0.16993511545E+04  0.20823467752E+04  0.95000000000E+03 0.  0.
   -2000013    1    1    2    0    0 -0.52017814754E+03 -0.52467936973E+03  0.76814666494E+03  0.14277335343E+04  0.95000000000E+03 0.  0.
<mgrwt>
<rscale>  0 0.33843052E+04</rscale>
<asrwt>0</asrwt>
<pdfrwt beam="2">  1        2 0.34163729E+00 0.33843052E+04</pdfrwt>
<pdfrwt beam="1">  1       -2 0.19837506E+00 0.33843052E+04</pdfrwt>
<totfact> 0.56847513E-01</totfact>
</mgrwt>
</event>
<event>
 4    1  0.1321115E-008  0.2565328E+04  0.7816531E-02  0.8380075E-01
          2   -1    0    0  501    0  0.00000000000E+00  0.00000000000E+00  0.15078273411E+04  0.15078273411E+04  0.00000000000E+00 0.  1.
         -2   -1    0    0    0  501 -0.00000000000E+00 -0.00000000000E+00 -0.10911242764E+04  0.10911242764E+04  0.00000000000E+00 0. -1.
    2000013    1    1    2    0    0 -0.44378099905E+03  0.43600877091E+03 -0.39585595129E+03  0.12026001653E+04  0.95000000000E+03 0.  0.
   -2000013    1    1    2    0    0  0.44378099905E+03 -0.43600877091E+03  0.81255901601E+03  0.13963514522E+04  0.95000000000E+03 0.  0.
<mgrwt>
<rscale>  0 0.25653281E+04</rscale>
<asrwt>0</asrwt>
<pdfrwt beam="1">  1        2 0.23197344E+00 0.25653281E+04</pdfrwt>
<pdfrwt beam="2">  1       -2 0.16786527E+00 0.25653281E+04</pdfrwt>
<totfact> 0.24610361E+00</totfact>
</mgrwt>
</event>
<event>
 4    1  0.1321115E-008  0.2081206E+04  0.7816531E-02  0.8569568E-01
          2   -1    0    0  501    0  0.00000000000E+00  0.00000000000E+00  0.10707620364E+04  0.10707620364E+04  0.00000000000E+00 0.  1.
         -2   -1    0    0    0  501 -0.00000000000E+00 -0.00000000000E+00 -0.10112937626E+04  0.10112937626E+04  0.00000000000E+00 0. -1.
    2000013    1    1    2    0    0 -0.37665269296E+03 -0.95509404433E+01 -0.16629608178E+03  0.10354288283E+04  0.95000000000E+03 0.  0.
   -2000013    1    1    2    0    0  0.37665269296E+03  0.95509404433E+01  0.22576435562E+03  0.10466269707E+04  0.95000000000E+03 0.  0.
<mgrwt>
<rscale>  0 0.20812064E+04</rscale>
<asrwt>0</asrwt>
<pdfrwt beam="1">  1        2 0.16473262E+00 0.20812064E+04</pdfrwt>
<pdfrwt beam="2">  1       -2 0.15558366E+00 0.20812064E+04</pdfrwt>
<totfact> 0.56975858E+00</totfact>
</mgrwt>
</event>
<event>
 4    1  0.1321115E-008  0.3259569E+04  0.7816531E-02  0.8173260E-01
         -2   -1    0    0    0  501 -0.00000000000E+00  0.00000000000E+00  0.17701319884E+04  0.17701319884E+04  0.00000000000E+00 0. -1.
          2   -1    0    0  501    0  0.00000000000E+00 -0.00000000000E+00 -0.15005648404E+04  0.15005648404E+04  0.00000000000E+00 0.  1.
    2000013    1    1    2    0    0 -0.12009551751E+04 -0.44926856143E+03  0.46691545171E+03  0.16627223496E+04  0.95000000000E+03 0.  0.
   -2000013    1    1    2    0    0  0.12009551751E+04  0.44926856143E+03 -0.19734830371E+03  0.16079744792E+04  0.95000000000E+03 0.  0.
<mgrwt>
<rscale>  0 0.32595692E+04</rscale>
<asrwt>0</asrwt>
<pdfrwt beam="2">  1        2 0.23085613E+00 0.32595692E+04</pdfrwt>
<pdfrwt beam="1">  1       -2 0.27232800E+00 0.32595692E+04</pdfrwt>
<totfact> 0.49855727E-01</totfact>
</mgrwt>
</event>
<event>
 4    1  0.1321115E-008  0.2060044E+04  0.7816531E-02  0.8579051E-01
          2   -1    0    0  501    0  0.00000000000E+00  0.00000000000E+00  0.83858155943E+03  0.83858155943E+03  0.00000000000E+00 0.  1.
         -2   -1    0    0    0  501 -0.00000000000E+00 -0.00000000000E+00 -0.12651669905E+04  0.12651669905E+04  0.00000000000E+00 0. -1.
    2000013    1    1    2    0    0  0.15688577755E+03  0.18232880329E+03  0.11059315218E+03  0.98619865393E+03  0.95000000000E+03 0.  0.
   -2000013    1    1    2    0    0 -0.15688577755E+03 -0.18232880329E+03 -0.53717858323E+03  0.11175498960E+04  0.95000000000E+03 0.  0.
<mgrwt>
<rscale>  0 0.20600444E+04</rscale>
<asrwt>0</asrwt>
<pdfrwt beam="1">  1        2 0.12901255E+00 0.20600444E+04</pdfrwt>
<pdfrwt beam="2">  1       -2 0.19464107E+00 0.20600444E+04</pdfrwt>
<totfact> 0.43115003E+00</totfact>
</mgrwt>
</event>
<event>
 4    1  0.1321115E-008  0.3346044E+04  0.7816531E-02  0.8151277E-01
          2   -1    0    0  501    0  0.00000000000E+00  0.00000000000E+00  0.18737277012E+04  0.18737277012E+04  0.00000000000E+00 0.  1.
         -2   -1    0    0    0  501 -0.00000000000E+00 -0.00000000000E+00 -0.14938150779E+04  0.14938150779E+04  0.00000000000E+00 0. -1.
    2000013    1    1    2    0    0  0.83973988997E+03  0.50786499091E+03  0.11622967201E+04  0.17934669212E+04  0.95000000000E+03 0.  0.
   -2000013    1    1    2    0    0 -0.83973988997E+03 -0.50786499091E+03 -0.78238409681E+03  0.15740758580E+04  0.95000000000E+03 0.  0.
<mgrwt>
<rscale>  0 0.33460440E+04</rscale>
<asrwt>0</asrwt>
<pdfrwt beam="1">  1        2 0.28826580E+00 0.33460440E+04</pdfrwt>
<pdfrwt beam="2">  1       -2 0.22981770E+00 0.33460440E+04</pdfrwt>
<totfact> 0.56017763E-01</totfact>
</mgrwt>
</event>
<event>
 4    1  0.1321115E-008  0.2322225E+04  0.7816531E-02  0.8469209E-01
          2   -1    0    0  501    0  0.00000000000E+00  0.00000000000E+00  0.27211178882E+04  0.27211178882E+04  0.00000000000E+00 0.  1.
         -2   -1    0    0    0  501 -0.00000000000E+00 -0.00000000000E+00 -0.49545179971E+03  0.49545179971E+03  0.00000000000E+00 0. -1.
    2000013    1    1    2    0    0  0.66235127363E+03  0.11931117081E+02  0.99835112916E+03  0.15290704818E+04  0.95000000000E+03 0.  0.
   -2000013    1    1    2    0    0 -0.66235127363E+03 -0.11931117081E+02  0.12273149593E+04  0.16874992061E+04  0.95000000000E+03 0.  0.
<mgrwt>
<rscale>  0 0.23222254E+04</rscale>
<asrwt>0</asrwt>
<pdfrwt beam="1">  1        2 0.41863351E+00 0.23222254E+04</pdfrwt>
<pdfrwt beam="2">  1       -2 0.76223355E-01 0.23222254E+04</pdfrwt>
<totfact> 0.35965212E+00</totfact>
</mgrwt>
</event>
<event>
 4    1  0.1321115E-008  0.2048403E+04  0.7816531E-02  0.8584319E-01
          2   -1    0    0  501    0  0.00000000000E+00  0.00000000000E+00  0.21512844900E+04  0.21512844900E+04  0.00000000000E+00 0.  1.
         -2   -1    0    0    0  501 -0.00000000000E+00 -0.00000000000E+00 -0.48761029581E+03  0.48761029581E+03  0.00000000000E+00 0. -1.
    2000013    1    1    2    0    0  0.33907254011E+03 -0.59123187848E+02  0.10474932861E+04  0.14554064461E+04  0.95000000000E+03 0.  0.
   -2000013    1    1    2    0    0 -0.33907254011E+03  0.59123187848E+02  0.61618090803E+03  0.11834883397E+04  0.95000000000E+03 0.  0.
<mgrwt>
<rscale>  0 0.20484028E+04</rscale>
<asrwt>0</asrwt>
<pdfrwt beam="1">  1        2 0.33096684E+00 0.20484028E+04</pdfrwt>
<pdfrwt beam="2">  1       -2 0.75016970E-01 0.20484028E+04</pdfrwt>
<totfact> 0.81227431E+00</totfact>
</mgrwt>
</event>
<event>
 4    1  0.1321115E-008  0.2716270E+04  0.7816531E-02  0.8329745E-01
         -2   -1    0    0    0  501 -0.00000000000E+00  0.00000000000E+00  0.10280475244E+04  0.10280475244E+04  0.00000000000E+00 0. -1.
          2   -1    0    0  501    0  0.00000000000E+00 -0.00000000000E+00 -0.17942078821E+04  0.17942078821E+04  0.00000000000E+00 0.  1.
    2000013    1    1    2    0    0 -0.58974600987E+03  0.68427160583E+03 -0.14260777614E+02  0.13110039498E+04  0.95000000000E+03 0.  0.
   -2000013    1    1    2    0    0  0.58974600987E+03 -0.68427160583E+03 -0.75189958011E+03  0.15112514567E+04  0.95000000000E+03 0.  0.
<mgrwt>
<rscale>  0 0.27162702E+04</rscale>
<asrwt>0</asrwt>
<pdfrwt beam="2">  1        2 0.27603198E+00 0.27162702E+04</pdfrwt>
<pdfrwt beam="1">  1       -2 0.15816116E+00 0.27162702E+04</pdfrwt>
<totfact> 0.19800184E+00</totfact>
</mgrwt>
</event>
<event>
 4    1  0.1321115E-008  0.2538181E+04  0.7816531E-02  0.8389508E-01
          2   -1    0    0  501    0  0.00000000000E+00  0.00000000000E+00  0.10660704303E+04  0.10660704303E+04  0.00000000000E+00 0.  1.
         -2   -1    0    0    0  501 -0.00000000000E+00 -0.00000000000E+00 -0.15107727293E+04  0.15107727293E+04  0.00000000000E+00 0. -1.
    2000013    1    1    2    0    0  0.54466008857E+02  0.71506005092E+03  0.22459644217E+03  0.12112889764E+04  0.95000000000E+03 0.  0.
   -2000013    1    1    2    0    0 -0.54466008857E+02 -0.71506005092E+03 -0.66929874116E+03  0.13655541833E+04  0.95000000000E+03 0.  0.
<mgrwt>
<rscale>  0 0.25381806E+04</rscale>
<asrwt>0</asrwt>
<pdfrwt beam="1">  1        2 0.16401084E+00 0.25381806E+04</pdfrwt>
<pdfrwt beam="2">  1       -2 0.23242657E+00 0.25381806E+04</pdfrwt>
<totfact> 0.16786297E+00</totfact>
</mgrwt>
</event>
<event>
 4    1  0.1321115E-008  0.2479136E+04  0.7816531E-02  0.8410456E-01
         -2   -1    0    0    0  501 -0.00000000000E+00  0.00000000000E+00  0.97729802046E+03  0.97729802046E+03  0.00000000000E+00 0. -1.
          2   -1    0    0  501    0  0.00000000000E+00 -0.00000000000E+00 -0.15722208468E+04  0.15722208468E+04  0.00000000000E+00 0.  1.
    2000013    1    1    2    0    0 -0.32972612479E+03 -0.68196203859E+03 -0.45061715386E+02  0.12158626969E+04  0.95000000000E+03 0.  0.
   -2000013    1    1    2    0    0  0.32972612479E+03  0.68196203859E+03 -0.54986111093E+03  0.13336561704E+04  0.95000000000E+03 0.  0.
<mgrwt>
<rscale>  0 0.24791356E+04</rscale>
<asrwt>0</asrwt>
<pdfrwt beam="2">  1        2 0.24188013E+00 0.24791356E+04</pdfrwt>
<pdfrwt beam="1">  1       -2 0.15035354E+00 0.24791356E+04</pdfrwt>
<totfact> 0.30753892E+00</totfact>
</mgrwt>
</event>
<event>
 4    1  0.1321115E-008  0.2635119E+04  0.7816531E-02  0.8356369E-01
         -2   -1    0    0    0  501 -0.00000000000E+00  0.00000000000E+00  0.59171383516E+03  0.59171383516E+03  0.00000000000E+00 0. -1.
          2   -1    0    0  501    0  0.00000000000E+00 -0.00000000000E+00 -0.29337875504E+04  0.29337875504E+04  0.00000000000E+00 0.  1.
    2000013    1    1    2    0    0 -0.54372755676E+03 -0.72492430001E+03 -0.13194630937E+04  0.18613537419E+04  0.95000000000E+03 0.  0.
   -2000013    1    1    2    0    0  0.54372755676E+03  0.72492430001E+03 -0.10226106215E+04  0.16641476437E+04  0.95000000000E+03 0.  0.
<mgrwt>
<rscale>  0 0.26351187E+04</rscale>
<asrwt>0</asrwt>
<pdfrwt beam="2">  1        2 0.45135192E+00 0.26351187E+04</pdfrwt>
<pdfrwt beam="1">  1       -2 0.91032900E-01 0.26351187E+04</pdfrwt>
<totfact> 0.17379434E+00</totfact>
</mgrwt>
</event>
<event>
 4    1  0.1321115E-008  0.2465794E+04  0.7816531E-02  0.8415274E-01
          1   -1    0    0  501    0  0.00000000000E+00  0.00000000000E+00  0.24235798922E+04  0.24235798922E+04  0.00000000000E+00 0.  1.
         -1   -1    0    0    0  501 -0.00000000000E+00 -0.00000000000E+00 -0.62718587265E+03  0.62718587265E+03  0.00000000000E+00 0. -1.
    2000013    1    1    2    0    0  0.11559201735E+03  0.65270400484E+03  0.37598573750E+03  0.12178872309E+04  0.95000000000E+03 0.  0.
   -2000013    1    1    2    0    0 -0.11559201735E+03 -0.65270400484E+03  0.14204082820E+04  0.18328785339E+04  0.95000000000E+03 0.  0.
<mgrwt>
<rscale>  0 0.24657940E+04</rscale>
<asrwt>0</asrwt>
<pdfrwt beam="1">  1        1 0.37285844E+00 0.24657940E+04</pdfrwt>
<pdfrwt beam="2">  1       -1 0.96490136E-01 0.24657940E+04</pdfrwt>
<totfact> 0.14092491E+00</totfact>
</mgrwt>
</event>
<event>
 4    1  0.1321115E-008  0.2177066E+04  0.7816531E-02  0.8528035E-01
         -2   -1    0    0    0  501 -0.00000000000E+00  0.00000000000E+00  0.93681350342E+03  0.93681350342E+03  0.00000000000E+00 0. -1.
          2   -1    0    0  501    0  0.00000000000E+00 -0.00000000000E+00 -0.12648236342E+04  0.12648236342E+04  0.00000000000E+00 0.  1.
    2000013    1    1    2    0    0  0.37488934767E+03 -0.19039320779E+03  0.16464321532E+03  0.10518550209E+04  0.95000000000E+03 0.  0.
   -2000013    1    1    2    0    0 -0.37488934767E+03  0.19039320779E+03 -0.49265334609E+03  0.11497821167E+04  0.95000000000E+03 0.  0.
<mgrwt>
<rscale>  0 0.21770658E+04</rscale>
<asrwt>0</asrwt>
<pdfrwt beam="2">  1        2 0.19458825E+00 0.21770658E+04</pdfrwt>
<pdfrwt beam="1">  1       -2 0.14412516E+00 0.21770658E+04</pdfrwt>
<totfact> 0.52858837E+00</totfact>
</mgrwt>
</event>
<event>
 4    1  0.1321115E-008  0.2836012E+04  0.7816531E-02  0.8292175E-01
          2   -1    0    0  501    0  0.00000000000E+00  0.00000000000E+00  0.28850056790E+04  0.28850056790E+04  0.00000000000E+00 0.  1.
         -2   -1    0    0    0  501 -0.00000000000E+00 -0.00000000000E+00 -0.69696237282E+03  0.69696237282E+03  0.00000000000E+00 0. -1.
    2000013    1    1    2    0    0  0.63719191411E+03  0.43464840793E+03  0.19989257819E+04  0.23437442385E+04  0.95000000000E+03 0.  0.
   -2000013    1    1    2    0    0 -0.63719191411E+03 -0.43464840793E+03  0.18911752428E+03  0.12382238133E+04  0.95000000000E+03 0.  0.
<mgrwt>
<rscale>  0 0.28360116E+04</rscale>
<asrwt>0</asrwt>
<pdfrwt beam="1">  1        2 0.44384702E+00 0.28360116E+04</pdfrwt>
<pdfrwt beam="2">  1       -2 0.10722498E+00 0.28360116E+04</pdfrwt>
<totfact> 0.12438284E+00</totfact>
</mgrwt>
</event>
<event>
 4    1  0.1321115E-008  0.1978189E+04  0.7816531E-02  0.8616887E-01
          2   -1    0    0  501    0  0.00000000000E+00  0.00000000000E+00  0.22799454109E+04  0.22799454109E+04  0.00000000000E+00 0.  1.
         -2   -1    0    0    0  501 -0.00000000000E+00 -0.00000000000E+00 -0.42909256592E+03  0.42909256592E+03  0.00000000000E+00 0. -1.
    2000013    1    1    2    0    0 -0.16304627306E+03 -0.12897546816E+03  0.11726455193E+04  0.15234225522E+04  0.95000000000E+03 0.  0.
   -2000013    1    1    2    0    0  0.16304627306E+03  0.12897546816E+03  0.67820732569E+03  0.11856154247E+04  0.95000000000E+03 0.  0.
<mgrwt>
<rscale>  0 0.19781887E+04</rscale>
<asrwt>0</asrwt>
<pdfrwt beam="1">  1        2 0.35076083E+00 0.19781887E+04</pdfrwt>
<pdfrwt beam="2">  1       -2 0.66014242E-01 0.19781887E+04</pdfrwt>
<totfact> 0.91470554E+00</totfact>
</mgrwt>
</event>
<event>
 4    1  0.1321115E-008  0.2629063E+04  0.7816531E-02  0.8358396E-01
         -2   -1    0    0    0  501 -0.00000000000E+00  0.00000000000E+00  0.88399661960E+03  0.88399661960E+03  0.00000000000E+00 0.  1.
          2   -1    0    0  501    0  0.00000000000E+00 -0.00000000000E+00 -0.19547504905E+04  0.19547504905E+04  0.00000000000E+00 0. -1.
    2000013    1    1    2    0    0 -0.61020737706E+03  0.45936177806E+03 -0.40682205504E+01  0.12189679391E+04  0.95000000000E+03 0.  0.
   -2000013    1    1    2    0    0  0.61020737706E+03 -0.45936177806E+03 -0.10666856504E+04  0.16197791710E+04  0.95000000000E+03 0.  0.
<mgrwt>
<rscale>  0 0.26290628E+04</rscale>
<asrwt>0</asrwt>
<pdfrwt beam="2">  1        2 0.30073085E+00 0.26290628E+04</pdfrwt>
<pdfrwt beam="1">  1       -2 0.13599948E+00 0.26290628E+04</pdfrwt>
<totfact> 0.24187976E+00</totfact>
</mgrwt>
</event>
<event>
 4    1  0.1321115E-008  0.2500079E+04  0.7816531E-02  0.8402957E-01
          2   -1    0    0  501    0  0.00000000000E+00  0.00000000000E+00  0.38043882910E+04  0.38043882910E+04  0.00000000000E+00 0.  1.
         -2   -1    0    0    0  501 -0.00000000000E+00 -0.00000000000E+00 -0.41073582441E+03  0.41073582441E+03  0.00000000000E+00 0. -1.
    2000013    1    1    2    0    0  0.14497152766E+03  0.70043915146E+03  0.10471883338E+04  0.15845299477E+04  0.95000000000E+03 0.  0.
   -2000013    1    1    2    0    0 -0.14497152766E+03 -0.70043915146E+03  0.23464641328E+04  0.26305941677E+04  0.95000000000E+03 0.  0.
<mgrwt>
<rscale>  0 0.25000788E+04</rscale>
<asrwt>0</asrwt>
<pdfrwt beam="1">  1        2 0.58529048E+00 0.25000788E+04</pdfrwt>
<pdfrwt beam="2">  1       -2 0.63190129E-01 0.25000788E+04</pdfrwt>
<totfact> 0.10107349E+00</totfact>
</mgrwt>
</event>
<event>
 4    1  0.1321115E-008  0.2560970E+04  0.7816531E-02  0.8381581E-01
         -2   -1    0    0    0  501 -0.00000000000E+00  0.00000000000E+00  0.65037745502E+03  0.65037745502E+03  0.00000000000E+00 0. -1.
          2   -1    0    0  501    0  0.00000000000E+00 -0.00000000000E+00 -0.25210624932E+04  0.25210624932E+04  0.00000000000E+00 0.  1.
    2000013    1    1    2    0    0 -0.31152562280E+03 -0.79440436882E+03 -0.81775762843E+03  0.15163621117E+04  0.95000000000E+03 0.  0.
   -2000013    1    1    2    0    0  0.31152562280E+03  0.79440436882E+03 -0.10529274098E+04  0.16550778366E+04  0.95000000000E+03 0.  0.
<mgrwt>
<rscale>  0 0.25609703E+04</rscale>
<asrwt>0</asrwt>
<pdfrwt beam="2">  1        2 0.38785576E+00 0.25609703E+04</pdfrwt>
<pdfrwt beam="1">  1       -2 0.10005807E+00 0.25609703E+04</pdfrwt>
<totfact> 0.24769262E+00</totfact>
</mgrwt>
</event>
<event>
 4    1  0.1321115E-008  0.2959796E+04  0.7816531E-02  0.8255305E-01
          1   -1    0    0  501    0  0.00000000000E+00  0.00000000000E+00  0.19561475858E+04  0.19561475858E+04  0.00000000000E+00 0.  1.
         -1   -1    0    0    0  501 -0.00000000000E+00 -0.00000000000E+00 -0.11195978997E+04  0.11195978997E+04  0.00000000000E+00 0. -1.
    2000013    1    1    2    0    0  0.38809081124E+03  0.44300777999E+03 -0.58963264313E+03  0.12637393025E+04  0.95000000000E+03 0.  0.
   -2000013    1    1    2    0    0 -0.38809081124E+03 -0.44300777999E+03  0.14261823292E+04  0.18120061830E+04  0.95000000000E+03 0.  0.
<mgrwt>
<rscale>  0 0.29597964E+04</rscale>
<asrwt>0</asrwt>
<pdfrwt beam="1">  1        1 0.30094578E+00 0.29597964E+04</pdfrwt>
<pdfrwt beam="2">  1       -1 0.17224583E+00 0.29597964E+04</pdfrwt>
<totfact> 0.64565006E-01</totfact>
</mgrwt>
</event>
<event>
 4    1  0.1321115E-008  0.3426705E+04  0.7816531E-02  0.8131383E-01
          2   -1    0    0  501    0  0.00000000000E+00  0.00000000000E+00  0.25791863872E+04  0.25791863872E+04  0.00000000000E+00 0.  1.
         -2   -1    0    0    0  501 -0.00000000000E+00 -0.00000000000E+00 -0.11381796410E+04  0.11381796410E+04  0.00000000000E+00 0. -1.
    2000013    1    1    2    0    0  0.45493388347E+03 -0.13451887458E+04  0.86018802053E+03  0.19128306331E+04  0.95000000000E+03 0.  0.
   -2000013    1    1    2    0    0 -0.45493388347E+03  0.13451887458E+04  0.58081872573E+03  0.18045353951E+04  0.95000000000E+03 0.  0.
<mgrwt>
<rscale>  0 0.34267054E+04</rscale>
<asrwt>0</asrwt>
<pdfrwt beam="1">  1        2 0.39679790E+00 0.34267054E+04</pdfrwt>
<pdfrwt beam="2">  1       -2 0.17510456E+00 0.34267054E+04</pdfrwt>
<totfact> 0.50740858E-01</totfact>
</mgrwt>
</event>
<event>
 4    1  0.1321115E-008  0.2495994E+04  0.7816531E-02  0.8404414E-01
         -2   -1    0    0    0  501 -0.00000000000E+00  0.00000000000E+00  0.24229945689E+04  0.24229945689E+04  0.00000000000E+00 0. -1.
          2   -1    0    0  501    0  0.00000000000E+00 -0.00000000000E+00 -0.64279829024E+03  0.64279829024E+03  0.00000000000E+00 0.  1.
    2000013    1    1    2    0    0 -0.76840002949E+03  0.24919203312E+03  0.82915870739E+03  0.14975110807E+04  0.95000000000E+03 0.  0.
   -2000013    1    1    2    0    0  0.76840002949E+03 -0.24919203312E+03  0.95103757124E+03  0.15682817784E+04  0.95000000000E+03 0.  0.
<mgrwt>
<rscale>  0 0.24959942E+04</rscale>
<asrwt>0</asrwt>
<pdfrwt beam="2">  1        2 0.98892046E-01 0.24959942E+04</pdfrwt>
<pdfrwt beam="1">  1       -2 0.37276839E+00 0.24959942E+04</pdfrwt>
<totfact> 0.45351737E-01</totfact>
</mgrwt>
</event>
<event>
 4    1  0.1321115E-008  0.2705254E+04  0.7816531E-02  0.8333302E-01
         -2   -1    0    0    0  501 -0.00000000000E+00  0.00000000000E+00  0.94382081360E+03  0.94382081360E+03  0.00000000000E+00 0. -1.
          2   -1    0    0  501    0  0.00000000000E+00 -0.00000000000E+00 -0.19385032426E+04  0.19385032426E+04  0.00000000000E+00 0.  1.
    2000013    1    1    2    0    0 -0.77254980820E+03 -0.53462298310E+03 -0.72195949004E+03  0.15186772025E+04  0.95000000000E+03 0.  0.
   -2000013    1    1    2    0    0  0.77254980820E+03  0.53462298310E+03 -0.27272293899E+03  0.13636468537E+04  0.95000000000E+03 0.  0.
<mgrwt>
<rscale>  0 0.27052539E+04</rscale>
<asrwt>0</asrwt>
<pdfrwt beam="2">  1        2 0.29823127E+00 0.27052539E+04</pdfrwt>
<pdfrwt beam="1">  1       -2 0.14520320E+00 0.27052539E+04</pdfrwt>
<totfact> 0.20696658E+00</totfact>
</mgrwt>
</event>
<event>
 4    1  0.1321115E-008  0.2063671E+04  0.7816531E-02  0.8577418E-01
          2   -1    0    0  501    0  0.00000000000E+00  0.00000000000E+00  0.77583568921E+03  0.77583568921E+03  0.00000000000E+00 0.  1.
         -2   -1    0    0    0  501 -0.00000000000E+00 -0.00000000000E+00 -0.13723063350E+04  0.13723063350E+04  0.00000000000E+00 0. -1.
    2000013    1    1    2    0    0 -0.23744984106E+03 -0.18150560491E+03 -0.57920520918E+03  0.11520874038E+04  0.95000000000E+03 0.  0.
   -2000013    1    1    2    0    0  0.23744984106E+03  0.18150560491E+03 -0.17265436654E+02  0.99605462046E+03  0.95000000000E+03 0.  0.
<mgrwt>
<rscale>  0 0.20636707E+04</rscale>
<asrwt>0</asrwt>
<pdfrwt beam="1">  1        2 0.11935934E+00 0.20636707E+04</pdfrwt>
<pdfrwt beam="2">  1       -2 0.21112405E+00 0.20636707E+04</pdfrwt>
<totfact> 0.37323244E+00</totfact>
</mgrwt>
</event>
<event>
 4    1  0.1321115E-008  0.2705288E+04  0.7816531E-02  0.8333291E-01
         -2   -1    0    0    0  501 -0.00000000000E+00  0.00000000000E+00  0.70998739113E+03  0.70998739113E+03  0.00000000000E+00 0. -1.
          2   -1    0    0  501    0  0.00000000000E+00 -0.00000000000E+00 -0.25770114022E+04  0.25770114022E+04  0.00000000000E+00 0.  1.
    2000013    1    1    2    0    0  0.75663558982E+03 -0.58715060196E+03 -0.10544200939E+04  0.17121755108E+04  0.95000000000E+03 0.  0.
   -2000013    1    1    2    0    0 -0.75663558982E+03  0.58715060196E+03 -0.81260391714E+03  0.15748232826E+04  0.95000000000E+03 0.  0.
<mgrwt>
<rscale>  0 0.27052879E+04</rscale>
<asrwt>0</asrwt>
<pdfrwt beam="2">  1        2 0.39646329E+00 0.27052879E+04</pdfrwt>
<pdfrwt beam="1">  1       -2 0.10922883E+00 0.27052879E+04</pdfrwt>
<totfact> 0.18392601E+00</totfact>
</mgrwt>
</event>
<event>
 4    1  0.1321115E-008  0.3467280E+04  0.7816531E-02  0.8121588E-01
          2   -1    0    0  501    0  0.00000000000E+00  0.00000000000E+00  0.17467564375E+04  0.17467564375E+04  0.00000000000E+00 0.  1.
         -2   -1    0    0    0  501 -0.00000000000E+00 -0.00000000000E+00 -0.17206222933E+04  0.17206222933E+04  0.00000000000E+00 0. -1.
    2000013    1    1    2    0    0  0.87563393038E+03 -0.65640516796E+03 -0.93848796072E+03  0.17265173550E+04  0.95000000000E+03 0.  0.
   -2000013    1    1    2    0    0 -0.87563393038E+03  0.65640516796E+03  0.96462210492E+03  0.17408613758E+04  0.95000000000E+03 0.  0.
<mgrwt>
<rscale>  0 0.34672802E+04</rscale>
<asrwt>0</asrwt>
<pdfrwt beam="1">  1        2 0.26873176E+00 0.34672802E+04</pdfrwt>
<pdfrwt beam="2">  1       -2 0.26471112E+00 0.34672802E+04</pdfrwt>
<totfact> 0.39736042E-01</totfact>
</mgrwt>
</event>
<event>
 4    1  0.1321115E-008  0.2870344E+04  0.7816531E-02  0.8281756E-01
         -2   -1    0    0    0  501 -0.00000000000E+00  0.00000000000E+00  0.55244964785E+03  0.55244964785E+03  0.00000000000E+00 0. -1.
          2   -1    0    0  501    0  0.00000000000E+00 -0.00000000000E+00 -0.37283378488E+04  0.37283378488E+04  0.00000000000E+00 0.  1.
    2000013    1    1    2    0    0  0.32895693365E+03 -0.10036570332E+04 -0.18924161552E+04  0.23662795711E+04  0.95000000000E+03 0.  0.
   -2000013    1    1    2    0    0 -0.32895693365E+03  0.10036570332E+04 -0.12834720458E+04  0.19145079256E+04  0.95000000000E+03 0.  0.
<mgrwt>
<rscale>  0 0.28703442E+04</rscale>
<asrwt>0</asrwt>
<pdfrwt beam="2">  1        2 0.57359044E+00 0.28703442E+04</pdfrwt>
<pdfrwt beam="1">  1       -2 0.84992253E-01 0.28703442E+04</pdfrwt>
<totfact> 0.57971918E-01</totfact>
</mgrwt>
</event>
<event>
 4    1  0.1321115E-008  0.2605880E+04  0.7816531E-02  0.8366207E-01
         -2   -1    0    0    0  501 -0.00000000000E+00  0.00000000000E+00  0.12168117358E+04  0.12168117358E+04  0.00000000000E+00 0. -1.
          2   -1    0    0  501    0  0.00000000000E+00 -0.00000000000E+00 -0.13951642786E+04  0.13951642786E+04  0.00000000000E+00 0.  1.
    2000013    1    1    2    0    0 -0.58697318876E+03 -0.49951228557E+03  0.36031705906E+03  0.12752954288E+04  0.95000000000E+03 0.  0.
   -2000013    1    1    2    0    0  0.58697318876E+03  0.49951228557E+03 -0.53866960189E+03  0.13366805855E+04  0.95000000000E+03 0.  0.
<mgrwt>
<rscale>  0 0.26058797E+04</rscale>
<asrwt>0</asrwt>
<pdfrwt beam="2">  1        2 0.21464066E+00 0.26058797E+04</pdfrwt>
<pdfrwt beam="1">  1       -2 0.18720181E+00 0.26058797E+04</pdfrwt>
<totfact> 0.20845873E+00</totfact>
</mgrwt>
</event>
<event>
 4    1  0.1321115E-008  0.2336911E+04  0.7816531E-02  0.8463508E-01
          2   -1    0    0  501    0  0.00000000000E+00  0.00000000000E+00  0.30784129481E+04  0.30784129481E+04  0.00000000000E+00 0.  1.
         -2   -1    0    0    0  501 -0.00000000000E+00 -0.00000000000E+00 -0.44350389093E+03  0.44350389093E+03  0.00000000000E+00 0. -1.
    2000013    1    1    2    0    0  0.35669937290E+03  0.15141785911E+03  0.47479971163E+03  0.11305293348E+04  0.95000000000E+03 0.  0.
   -2000013    1    1    2    0    0 -0.35669937290E+03 -0.15141785911E+03  0.21601093455E+04  0.23913875042E+04  0.95000000000E+03 0.  0.
<mgrwt>
<rscale>  0 0.23369109E+04</rscale>
<asrwt>0</asrwt>
<pdfrwt beam="1">  1        2 0.47360198E+00 0.23369109E+04</pdfrwt>
<pdfrwt beam="2">  1       -2 0.68231370E-01 0.23369109E+04</pdfrwt>
<totfact> 0.27622543E+00</totfact>
</mgrwt>
</event>
<event>
 4    1  0.1321115E-008  0.2038062E+04  0.7816531E-02  0.8589029E-01
          2   -1    0    0  501    0  0.00000000000E+00  0.00000000000E+00  0.55789484529E+03  0.55789484529E+03  0.00000000000E+00 0.  1.
         -2   -1    0    0    0  501 -0.00000000000E+00 -0.00000000000E+00 -0.18613264537E+04  0.18613264537E+04  0.00000000000E+00 0. -1.
    2000013    1    1    2    0    0  0.77573440859E+02 -0.33243139187E+03 -0.81703226019E+03  0.12986800927E+04  0.95000000000E+03 0.  0.
   -2000013    1    1    2    0    0 -0.77573440859E+02  0.33243139187E+03 -0.48639934825E+03  0.11205412063E+04  0.95000000000E+03 0.  0.
<mgrwt>
<rscale>  0 0.20380623E+04</rscale>
<asrwt>0</asrwt>
<pdfrwt beam="1">  1        2 0.85829977E-01 0.20380623E+04</pdfrwt>
<pdfrwt beam="2">  1       -2 0.28635791E+00 0.20380623E+04</pdfrwt>
<totfact> 0.19318595E+00</totfact>
</mgrwt>
</event>
<event>
 4    1  0.1321115E-008  0.2254108E+04  0.7816531E-02  0.8496239E-01
          2   -1    0    0  501    0  0.00000000000E+00  0.00000000000E+00  0.15045935359E+04  0.15045935359E+04  0.00000000000E+00 0.  1.
         -2   -1    0    0    0  501 -0.00000000000E+00 -0.00000000000E+00 -0.84424825660E+03  0.84424825660E+03  0.00000000000E+00 0. -1.
    2000013    1    1    2    0    0 -0.53179443220E+03  0.19579279418E+02  0.63318908955E+03  0.12596098957E+04  0.95000000000E+03 0.  0.
   -2000013    1    1    2    0    0  0.53179443220E+03 -0.19579279418E+02  0.27156189753E+02  0.10892318968E+04  0.95000000000E+03 0.  0.
<mgrwt>
<rscale>  0 0.22541078E+04</rscale>
<asrwt>0</asrwt>
<pdfrwt beam="1">  1        2 0.23147593E+00 0.22541078E+04</pdfrwt>
<pdfrwt beam="2">  1       -2 0.12988435E+00 0.22541078E+04</pdfrwt>
<totfact> 0.49990786E+00</totfact>
</mgrwt>
</event>
<event>
 4    1  0.1321115E-008  0.2557232E+04  0.7816531E-02  0.8382875E-01
         -2   -1    0    0    0  501 -0.00000000000E+00  0.00000000000E+00  0.19587924516E+04  0.19587924516E+04  0.00000000000E+00 0. -1.
          2   -1    0    0  501    0  0.00000000000E+00 -0.00000000000E+00 -0.83462616706E+03  0.83462616706E+03  0.00000000000E+00 0.  1.
    2000013    1    1    2    0    0  0.79162830003E+03 -0.18411987450E+03  0.26941229041E+03  0.12789286438E+04  0.95000000000E+03 0.  0.
   -2000013    1    1    2    0    0 -0.79162830003E+03  0.18411987450E+03  0.85475399414E+03  0.15144899749E+04  0.95000000000E+03 0.  0.
<mgrwt>
<rscale>  0 0.25572324E+04</rscale>
<asrwt>0</asrwt>
<pdfrwt beam="2">  1        2 0.12840403E+00 0.25572324E+04</pdfrwt>
<pdfrwt beam="1">  1       -2 0.30135268E+00 0.25572324E+04</pdfrwt>
<totfact> 0.90080138E-01</totfact>
</mgrwt>
</event>
<event>
 4    1  0.1321115E-008  0.2206849E+04  0.7816531E-02  0.8515583E-01
         -2   -1    0    0    0  501 -0.00000000000E+00  0.00000000000E+00  0.30181630597E+03  0.30181630597E+03  0.00000000000E+00 0. -1.
          2   -1    0    0  501    0  0.00000000000E+00 -0.00000000000E+00 -0.40340634933E+04  0.40340634933E+04  0.00000000000E+00 0.  1.
    2000013    1    1    2    0    0 -0.20932547977E+03 -0.35824399259E+03 -0.26088105335E+04  0.28072314323E+04  0.95000000000E+03 0.  0.
   -2000013    1    1    2    0    0  0.20932547977E+03  0.35824399259E+03 -0.11234366538E+04  0.15286483670E+04  0.95000000000E+03 0.  0.
<mgrwt>
<rscale>  0 0.22068495E+04</rscale>
<asrwt>0</asrwt>
<pdfrwt beam="2">  1        2 0.62062514E+00 0.22068495E+04</pdfrwt>
<pdfrwt beam="1">  1       -2 0.46433279E-01 0.22068495E+04</pdfrwt>
<totfact> 0.12987458E+00</totfact>
</mgrwt>
</event>
<event>
 4    1  0.1321115E-008  0.2866039E+04  0.7816531E-02  0.8283054E-01
          2   -1    0    0  501    0  0.00000000000E+00  0.00000000000E+00  0.15686611215E+04  0.15686611215E+04  0.00000000000E+00 0.  1.
         -2   -1    0    0    0  501 -0.00000000000E+00 -0.00000000000E+00 -0.13091066547E+04  0.13091066547E+04  0.00000000000E+00 0. -1.
    2000013    1    1    2    0    0 -0.92470292815E+03  0.36383563060E+03  0.53589857867E+03  0.14755131846E+04  0.95000000000E+03 0.  0.
   -2000013    1    1    2    0    0  0.92470292815E+03 -0.36383563060E+03 -0.27634411183E+03  0.14022545916E+04  0.95000000000E+03 0.  0.
<mgrwt>
<rscale>  0 0.28660389E+04</rscale>
<asrwt>0</asrwt>
<pdfrwt beam="1">  1        2 0.24133248E+00 0.28660389E+04</pdfrwt>
<pdfrwt beam="2">  1       -2 0.20140102E+00 0.28660389E+04</pdfrwt>
<totfact> 0.13088097E+00</totfact>
</mgrwt>
</event>
<event>
 4    1  0.1321115E-008  0.3063075E+04  0.7816531E-02  0.8225945E-01
         -2   -1    0    0    0  501 -0.00000000000E+00  0.00000000000E+00  0.93496711515E+03  0.93496711515E+03  0.00000000000E+00 0. -1.
          2   -1    0    0  501    0  0.00000000000E+00 -0.00000000000E+00 -0.25087595672E+04  0.25087595672E+04  0.00000000000E+00 0.  1.
    2000013    1    1    2    0    0  0.10689927476E+04  0.14119460353E+03 -0.13822571819E+04  0.19939449159E+04  0.95000000000E+03 0.  0.
   -2000013    1    1    2    0    0 -0.10689927476E+04 -0.14119460353E+03 -0.19153527007E+03  0.14497817664E+04  0.95000000000E+03 0.  0.
<mgrwt>
<rscale>  0 0.30630754E+04</rscale>
<asrwt>0</asrwt>
<pdfrwt beam="2">  1        2 0.38596301E+00 0.30630754E+04</pdfrwt>
<pdfrwt beam="1">  1       -2 0.14384110E+00 0.30630754E+04</pdfrwt>
<totfact> 0.98031957E-01</totfact>
</mgrwt>
</event>
<event>
 4    1  0.1321115E-008  0.2968062E+04  0.7816531E-02  0.8252910E-01
         -2   -1    0    0    0  501 -0.00000000000E+00  0.00000000000E+00  0.76808858754E+03  0.76808858754E+03  0.00000000000E+00 0. -1.
          2   -1    0    0  501    0  0.00000000000E+00 -0.00000000000E+00 -0.28673090739E+04  0.28673090739E+04  0.00000000000E+00 0.  1.
    2000013    1    1    2    0    0 -0.98417853630E+03 -0.47891192644E+03 -0.14405687162E+04  0.20434535107E+04  0.95000000000E+03 0.  0.
   -2000013    1    1    2    0    0  0.98417853630E+03  0.47891192644E+03 -0.65865177024E+03  0.15919441507E+04  0.95000000000E+03 0.  0.
<mgrwt>
<rscale>  0 0.29680616E+04</rscale>
<asrwt>0</asrwt>
<pdfrwt beam="2">  1        2 0.44112448E+00 0.29680616E+04</pdfrwt>
<pdfrwt beam="1">  1       -2 0.11816747E+00 0.29680616E+04</pdfrwt>
<totfact> 0.99577483E-01</totfact>
</mgrwt>
</event>
<event>
 4    1  0.1321115E-008  0.2538092E+04  0.7816531E-02  0.8389539E-01
          1   -1    0    0  501    0  0.00000000000E+00  0.00000000000E+00  0.11784278260E+04  0.11784278260E+04  0.00000000000E+00 0.  1.
         -1   -1    0    0    0  501 -0.00000000000E+00 -0.00000000000E+00 -0.13666327923E+04  0.13666327923E+04  0.00000000000E+00 0. -1.
    2000013    1    1    2    0    0 -0.26134439959E+03 -0.76612968661E+03 -0.32434673480E+03  0.12895566666E+04  0.95000000000E+03 0.  0.
   -2000013    1    1    2    0    0  0.26134439959E+03  0.76612968661E+03  0.13614176848E+03  0.12555039518E+04  0.95000000000E+03 0.  0.
<mgrwt>
<rscale>  0 0.25380923E+04</rscale>
<asrwt>0</asrwt>
<pdfrwt beam="1">  1        1 0.18129659E+00 0.25380923E+04</pdfrwt>
<pdfrwt beam="2">  1       -1 0.21025120E+00 0.25380923E+04</pdfrwt>
<totfact> 0.12566833E+00</totfact>
</mgrwt>
</event>
<event>
 4    1  0.1321115E-008  0.2692073E+04  0.7816531E-02  0.8337582E-01
          2   -1    0    0  501    0  0.00000000000E+00  0.00000000000E+00  0.17075061013E+04  0.17075061013E+04  0.00000000000E+00 0.  1.
         -2   -1    0    0    0  501 -0.00000000000E+00 -0.00000000000E+00 -0.10610880070E+04  0.10610880070E+04  0.00000000000E+00 0. -1.
    2000013    1    1    2    0    0 -0.77110645210E+03 -0.54543975381E+03  0.45810354961E+03  0.14157925511E+04  0.95000000000E+03 0.  0.
   -2000013    1    1    2    0    0  0.77110645210E+03  0.54543975381E+03  0.18831454467E+03  0.13528015572E+04  0.95000000000E+03 0.  0.
<mgrwt>
<rscale>  0 0.26920730E+04</rscale>
<asrwt>0</asrwt>
<pdfrwt beam="1">  1        2 0.26269325E+00 0.26920730E+04</pdfrwt>
<pdfrwt beam="2">  1       -2 0.16324431E+00 0.26920730E+04</pdfrwt>
<totfact> 0.20333748E+00</totfact>
</mgrwt>
</event>
<event>
 4    1  0.1321115E-008  0.2305126E+04  0.7816531E-02  0.8475903E-01
          2   -1    0    0  501    0  0.00000000000E+00  0.00000000000E+00  0.14802088830E+04  0.14802088830E+04  0.00000000000E+00 0.  1.
         -2   -1    0    0    0  501 -0.00000000000E+00 -0.00000000000E+00 -0.89744175120E+03  0.89744175120E+03  0.00000000000E+00 0. -1.
    2000013    1    1    2    0    0  0.17952245801E+03 -0.43051065735E+03  0.76217979514E+03  0.13042184553E+04  0.95000000000E+03 0.  0.
   -2000013    1    1    2    0    0 -0.17952245801E+03  0.43051065735E+03 -0.17941266331E+03  0.10734321789E+04  0.95000000000E+03 0.  0.
<mgrwt>
<rscale>  0 0.23051258E+04</rscale>
<asrwt>0</asrwt>
<pdfrwt beam="1">  1        2 0.22772444E+00 0.23051258E+04</pdfrwt>
<pdfrwt beam="2">  1       -2 0.13806796E+00 0.23051258E+04</pdfrwt>
<totfact> 0.43960750E+00</totfact>
</mgrwt>
</event>
<event>
 4    1  0.1321115E-008  0.2337701E+04  0.7816531E-02  0.8463203E-01
         -2   -1    0    0    0  501 -0.00000000000E+00  0.00000000000E+00  0.58806448782E+03  0.58806448782E+03  0.00000000000E+00 0. -1.
          2   -1    0    0  501    0  0.00000000000E+00 -0.00000000000E+00 -0.23232341780E+04  0.23232341780E+04  0.00000000000E+00 0.  1.
    2000013    1    1    2    0    0 -0.47208232265E+03  0.28708601910E+03 -0.13632843048E+04  0.17510922870E+04  0.95000000000E+03 0.  0.
   -2000013    1    1    2    0    0  0.47208232265E+03 -0.28708601910E+03 -0.37188538539E+03  0.11602063789E+04  0.95000000000E+03 0.  0.
<mgrwt>
<rscale>  0 0.23377010E+04</rscale>
<asrwt>0</asrwt>
<pdfrwt beam="2">  1        2 0.35742065E+00 0.23377010E+04</pdfrwt>
<pdfrwt beam="1">  1       -2 0.90471458E-01 0.23377010E+04</pdfrwt>
<totfact> 0.41497158E+00</totfact>
</mgrwt>
</event>
<event>
 4    1  0.1321115E-008  0.2771489E+04  0.7816531E-02  0.8312175E-01
         -2   -1    0    0    0  501 -0.00000000000E+00  0.00000000000E+00  0.58452747532E+03  0.58452747532E+03  0.00000000000E+00 0. -1.
          2   -1    0    0  501    0  0.00000000000E+00 -0.00000000000E+00 -0.32851967956E+04  0.32851967956E+04  0.00000000000E+00 0.  1.
    2000013    1    1    2    0    0  0.40962198567E+03 -0.60302379714E+03 -0.37658850965E+03  0.12552875275E+04  0.95000000000E+03 0.  0.
   -2000013    1    1    2    0    0 -0.40962198567E+03  0.60302379714E+03 -0.23240808106E+04  0.26144367434E+04  0.95000000000E+03 0.  0.
<mgrwt>
<rscale>  0 0.27714890E+04</rscale>
<asrwt>0</asrwt>
<pdfrwt beam="2">  1        2 0.50541488E+00 0.27714890E+04</pdfrwt>
<pdfrwt beam="1">  1       -2 0.89927305E-01 0.27714890E+04</pdfrwt>
<totfact> 0.10519509E+00</totfact>
</mgrwt>
</event>
<event>
 4    1  0.1321115E-008  0.2030233E+04  0.7816531E-02  0.8592615E-01
          2   -1    0    0  501    0  0.00000000000E+00  0.00000000000E+00  0.23019959111E+04  0.23019959111E+04  0.00000000000E+00 0.  1.
         -2   -1    0    0    0  501 -0.00000000000E+00 -0.00000000000E+00 -0.44763829294E+03  0.44763829294E+03  0.00000000000E+00 0. -1.
    2000013    1    1    2    0    0  0.12913353147E+03 -0.26106284072E+03  0.12084531168E+04  0.15645089362E+04  0.95000000000E+03 0.  0.
   -2000013    1    1    2    0    0 -0.12913353147E+03  0.26106284072E+03  0.64590450135E+03  0.11851252679E+04  0.95000000000E+03 0.  0.
<mgrwt>
<rscale>  0 0.20302330E+04</rscale>
<asrwt>0</asrwt>
<pdfrwt beam="1">  1        2 0.35415321E+00 0.20302330E+04</pdfrwt>
<pdfrwt beam="2">  1       -2 0.68867431E-01 0.20302330E+04</pdfrwt>
<totfact> 0.80735510E+00</totfact>
</mgrwt>
</event>
<event>
 4    1  0.1321115E-008  0.2716355E+04  0.7816531E-02  0.8329718E-01
         -2   -1    0    0    0  501 -0.00000000000E+00  0.00000000000E+00  0.12667979934E+04  0.12667979934E+04  0.00000000000E+00 0. -1.
          2   -1    0    0  501    0  0.00000000000E+00 -0.00000000000E+00 -0.14561485387E+04  0.14561485387E+04  0.00000000000E+00 0.  1.
    2000013    1    1    2    0    0  0.49957564539E+02 -0.88283883568E+03 -0.49595390066E+03  0.13893777167E+04  0.95000000000E+03 0.  0.
   -2000013    1    1    2    0    0 -0.49957564539E+02  0.88283883568E+03  0.30660335534E+03  0.13335688155E+04  0.95000000000E+03 0.  0.
<mgrwt>
<rscale>  0 0.27163549E+04</rscale>
<asrwt>0</asrwt>
<pdfrwt beam="2">  1        2 0.22402285E+00 0.27163549E+04</pdfrwt>
<pdfrwt beam="1">  1       -2 0.19489200E+00 0.27163549E+04</pdfrwt>
<totfact> 0.16931118E+00</totfact>
</mgrwt>
</event>
<event>
 4    1  0.1321115E-008  0.2956973E+04  0.7816531E-02  0.8256125E-01
         -2   -1    0    0    0  501 -0.00000000000E+00  0.00000000000E+00  0.10279165746E+04  0.10279165746E+04  0.00000000000E+00 0. -1.
          2   -1    0    0  501    0  0.00000000000E+00 -0.00000000000E+00 -0.21265560246E+04  0.21265560246E+04  0.00000000000E+00 0.  1.
    2000013    1    1    2    0    0 -0.10951922209E+04  0.93831452494E+02 -0.84180702377E+03  0.16791037512E+04  0.95000000000E+03 0.  0.
   -2000013    1    1    2    0    0  0.10951922209E+04 -0.93831452494E+02 -0.25683242620E+03  0.14753688479E+04  0.95000000000E+03 0.  0.
<mgrwt>
<rscale>  0 0.29569729E+04</rscale>
<asrwt>0</asrwt>
<pdfrwt beam="2">  1        2 0.32716246E+00 0.29569729E+04</pdfrwt>
<pdfrwt beam="1">  1       -2 0.15814101E+00 0.29569729E+04</pdfrwt>
<totfact> 0.12683917E+00</totfact>
</mgrwt>
</event>
<event>
 4    1  0.1321115E-008  0.3568324E+04  0.7816531E-02  0.8097786E-01
         -1   -1    0    0    0  501 -0.00000000000E+00  0.00000000000E+00  0.71005869450E+03  0.71005869450E+03  0.00000000000E+00 0. -1.
          1   -1    0    0  501    0  0.00000000000E+00 -0.00000000000E+00 -0.44830567360E+04  0.44830567360E+04  0.00000000000E+00 0.  1.
    2000013    1    1    2    0    0 -0.57895012463E+03  0.11112513515E+04 -0.65963081268E+03  0.17051907876E+04  0.95000000000E+03 0.  0.
   -2000013    1    1    2    0    0  0.57895012463E+03 -0.11112513515E+04 -0.31133672289E+04  0.34879246429E+04  0.95000000000E+03 0.  0.
<mgrwt>
<rscale>  0 0.35683236E+04</rscale>
<asrwt>0</asrwt>
<pdfrwt beam="2">  1        1 0.68970104E+00 0.35683236E+04</pdfrwt>
<pdfrwt beam="1">  1       -1 0.10923980E+00 0.35683236E+04</pdfrwt>
<totfact> 0.21012162E-02</totfact>
</mgrwt>
</event>
<event>
 4    1  0.1321115E-008  0.2395601E+04  0.7816531E-02  0.8441152E-01
          2   -1    0    0  501    0  0.00000000000E+00  0.00000000000E+00  0.22408424734E+04  0.22408424734E+04  0.00000000000E+00 0.  1.
         -2   -1    0    0    0  501 -0.00000000000E+00 -0.00000000000E+00 -0.64026209839E+03  0.64026209839E+03  0.00000000000E+00 0. -1.
    2000013    1    1    2    0    0  0.71119031630E+03  0.81166058310E+02  0.96972041969E+03  0.15346782358E+04  0.95000000000E+03 0.  0.
   -2000013    1    1    2    0    0 -0.71119031630E+03 -0.81166058310E+02  0.63085995529E+03  0.13464263360E+04  0.95000000000E+03 0.  0.
<mgrwt>
<rscale>  0 0.23956014E+04</rscale>
<asrwt>0</asrwt>
<pdfrwt beam="1">  1        2 0.34474499E+00 0.23956014E+04</pdfrwt>
<pdfrwt beam="2">  1       -2 0.98501862E-01 0.23956014E+04</pdfrwt>
<totfact> 0.37704770E+00</totfact>
</mgrwt>
</event>
<event>
 4    1  0.1321115E-008  0.2413945E+04  0.7816531E-02  0.8434301E-01
          2   -1    0    0  501    0  0.00000000000E+00  0.00000000000E+00  0.18696939125E+04  0.18696939125E+04  0.00000000000E+00 0.  1.
         -2   -1    0    0    0  501 -0.00000000000E+00 -0.00000000000E+00 -0.77915556727E+03  0.77915556727E+03  0.00000000000E+00 0. -1.
    2000013    1    1    2    0    0  0.41583637271E+03 -0.58968042979E+03  0.34401038506E+03  0.12415659641E+04  0.95000000000E+03 0.  0.
   -2000013    1    1    2    0    0 -0.41583637271E+03  0.58968042979E+03  0.74652796013E+03  0.14072835156E+04  0.95000000000E+03 0.  0.
<mgrwt>
<rscale>  0 0.24139448E+04</rscale>
<asrwt>0</asrwt>
<pdfrwt beam="1">  1        2 0.28764522E+00 0.24139448E+04</pdfrwt>
<pdfrwt beam="2">  1       -2 0.11987009E+00 0.24139448E+04</pdfrwt>
<totfact> 0.37751044E+00</totfact>
</mgrwt>
</event>
<event>
 4    1  0.1321115E-008  0.2284307E+04  0.7816531E-02  0.8484134E-01
         -2   -1    0    0    0  501 -0.00000000000E+00  0.00000000000E+00  0.37113923360E+03  0.37113923360E+03  0.00000000000E+00 0. -1.
          2   -1    0    0  501    0  0.00000000000E+00 -0.00000000000E+00 -0.35148931095E+04  0.35148931095E+04  0.00000000000E+00 0.  1.
    2000013    1    1    2    0    0 -0.28869208544E+03  0.31503564382E+03 -0.77499471096E+03  0.12983479422E+04  0.95000000000E+03 0.  0.
   -2000013    1    1    2    0    0  0.28869208544E+03 -0.31503564382E+03 -0.23687591649E+04  0.25876844009E+04  0.95000000000E+03 0.  0.
<mgrwt>
<rscale>  0 0.22843071E+04</rscale>
<asrwt>0</asrwt>
<pdfrwt beam="2">  1        2 0.54075280E+00 0.22843071E+04</pdfrwt>
<pdfrwt beam="1">  1       -2 0.57098342E-01 0.22843071E+04</pdfrwt>
<totfact> 0.20772882E+00</totfact>
</mgrwt>
</event>
<event>
 4    1  0.1321115E-008  0.2953896E+04  0.7816531E-02  0.8257020E-01
         -1   -1    0    0    0  501 -0.00000000000E+00  0.00000000000E+00  0.15938759444E+04  0.15938759444E+04  0.00000000000E+00 0. -1.
          1   -1    0    0  501    0  0.00000000000E+00 -0.00000000000E+00 -0.13685978381E+04  0.13685978381E+04  0.00000000000E+00 0.  1.
    2000013    1    1    2    0    0  0.56265667898E+02 -0.11284581873E+04  0.16064731991E+03  0.14848876278E+04  0.95000000000E+03 0.  0.
   -2000013    1    1    2    0    0 -0.56265667898E+02  0.11284581873E+04  0.64630786410E+02  0.14775861546E+04  0.95000000000E+03 0.  0.
<mgrwt>
<rscale>  0 0.29538958E+04</rscale>
<asrwt>0</asrwt>
<pdfrwt beam="2">  1        1 0.21055351E+00 0.29538958E+04</pdfrwt>
<pdfrwt beam="1">  1       -1 0.24521168E+00 0.29538958E+04</pdfrwt>
<totfact> 0.51761893E-01</totfact>
</mgrwt>
</event>
<event>
 4    1  0.1321115E-008  0.2080107E+04  0.7816531E-02  0.8570057E-01
          1   -1    0    0  501    0  0.00000000000E+00  0.00000000000E+00  0.24866845321E+04  0.24866845321E+04  0.00000000000E+00 0.  1.
         -1   -1    0    0    0  501 -0.00000000000E+00 -0.00000000000E+00 -0.43500149698E+03  0.43500149698E+03  0.00000000000E+00 0. -1.
    2000013    1    1    2    0    0 -0.40479919819E+03 -0.11563272823E+03  0.10883127697E+04  0.15047119337E+04  0.95000000000E+03 0.  0.
   -2000013    1    1    2    0    0  0.40479919819E+03  0.11563272823E+03  0.96337026536E+03  0.14169740953E+04  0.95000000000E+03 0.  0.
<mgrwt>
<rscale>  0 0.20801072E+04</rscale>
<asrwt>0</asrwt>
<pdfrwt beam="1">  1        1 0.38256684E+00 0.20801072E+04</pdfrwt>
<pdfrwt beam="2">  1       -1 0.66923309E-01 0.20801072E+04</pdfrwt>
<totfact> 0.28845626E+00</totfact>
</mgrwt>
</event>
<event>
 4    1  0.1321115E-008  0.2931673E+04  0.7816531E-02  0.8263516E-01
          2   -1    0    0  501    0  0.00000000000E+00  0.00000000000E+00  0.15595110970E+04  0.15595110970E+04  0.00000000000E+00 0.  1.
         -2   -1    0    0    0  501 -0.00000000000E+00 -0.00000000000E+00 -0.13777882828E+04  0.13777882828E+04  0.00000000000E+00 0. -1.
    2000013    1    1    2    0    0 -0.57063801681E+03 -0.89033070254E+03 -0.26739950535E+03  0.14464850506E+04  0.95000000000E+03 0.  0.
   -2000013    1    1    2    0    0  0.57063801681E+03  0.89033070254E+03  0.44912231958E+03  0.14908143292E+04  0.95000000000E+03 0.  0.
<mgrwt>
<rscale>  0 0.29316726E+04</rscale>
<asrwt>0</asrwt>
<pdfrwt beam="1">  1        2 0.23992478E+00 0.29316726E+04</pdfrwt>
<pdfrwt beam="2">  1       -2 0.21196743E+00 0.29316726E+04</pdfrwt>
<totfact> 0.11251030E+00</totfact>
</mgrwt>
</event>
<event>
 4    1  0.1321115E-008  0.2397926E+04  0.7816531E-02  0.8440280E-01
         -1   -1    0    0    0  501 -0.00000000000E+00  0.00000000000E+00  0.32532512145E+03  0.32532512145E+03  0.00000000000E+00 0. -1.
          1   -1    0    0  501    0  0.00000000000E+00 -0.00000000000E+00 -0.44186952838E+04  0.44186952838E+04  0.00000000000E+00 0.  1.
    2000013    1    1    2    0    0 -0.20387604188E+03  0.69184298104E+03 -0.22873694450E+04  0.25796843080E+04  0.95000000000E+03 0.  0.
   -2000013    1    1    2    0    0  0.20387604188E+03 -0.69184298104E+03 -0.18060007173E+04  0.21643360972E+04  0.95000000000E+03 0.  0.
<mgrwt>
<rscale>  0 0.23979263E+04</rscale>
<asrwt>0</asrwt>
<pdfrwt beam="2">  1        1 0.67979924E+00 0.23979263E+04</pdfrwt>
<pdfrwt beam="1">  1       -1 0.50050021E-01 0.23979263E+04</pdfrwt>
<totfact> 0.14065347E-01</totfact>
</mgrwt>
</event>
<event>
 4    1  0.1321115E-008  0.2587893E+04  0.7816531E-02  0.8372325E-01
          2   -1    0    0  501    0  0.00000000000E+00  0.00000000000E+00  0.37942449092E+04  0.37942449092E+04  0.00000000000E+00 0.  1.
         -2   -1    0    0    0  501 -0.00000000000E+00 -0.00000000000E+00 -0.44127295059E+03  0.44127295059E+03  0.00000000000E+00 0. -1.
    2000013    1    1    2    0    0 -0.52184616166E+03  0.17619097610E+03  0.27966535319E+04  0.30045195379E+04  0.95000000000E+03 0.  0.
   -2000013    1    1    2    0    0  0.52184616166E+03 -0.17619097610E+03  0.55631842677E+03  0.12309983219E+04  0.95000000000E+03 0.  0.
<mgrwt>
<rscale>  0 0.25878931E+04</rscale>
<asrwt>0</asrwt>
<pdfrwt beam="1">  1        2 0.58372996E+00 0.25878931E+04</pdfrwt>
<pdfrwt beam="2">  1       -2 0.67888149E-01 0.25878931E+04</pdfrwt>
<totfact> 0.87442355E-01</totfact>
</mgrwt>
</event>
<event>
 4    1  0.1321115E-008  0.3886972E+04  0.7816531E-02  0.8027744E-01
          2   -1    0    0  501    0  0.00000000000E+00  0.00000000000E+00  0.24938592172E+04  0.24938592172E+04  0.00000000000E+00 0.  1.
         -2   -1    0    0    0  501 -0.00000000000E+00 -0.00000000000E+00 -0.15145751131E+04  0.15145751131E+04  0.00000000000E+00 0. -1.
    2000013    1    1    2    0    0  0.78641769044E+03  0.10580569180E+04 -0.60983535542E+03  0.17356083620E+04  0.95000000000E+03 0.  0.
   -2000013    1    1    2    0    0 -0.78641769044E+03 -0.10580569180E+04  0.15891194595E+04  0.22728259683E+04  0.95000000000E+03 0.  0.
<mgrwt>
<rscale>  0 0.38869716E+04</rscale>
<asrwt>0</asrwt>
<pdfrwt beam="1">  1        2 0.38367065E+00 0.38869716E+04</pdfrwt>
<pdfrwt beam="2">  1       -2 0.23301155E+00 0.38869716E+04</pdfrwt>
<totfact> 0.22876321E-01</totfact>
</mgrwt>
</event>
<event>
 4    1  0.1321115E-008  0.2384402E+04  0.7816531E-02  0.8445366E-01
         -2   -1    0    0    0  501 -0.00000000000E+00  0.00000000000E+00  0.88065195017E+03  0.88065195017E+03  0.00000000000E+00 0. -1.
          2   -1    0    0  501    0  0.00000000000E+00 -0.00000000000E+00 -0.16139676630E+04  0.16139676630E+04  0.00000000000E+00 0.  1.
    2000013    1    1    2    0    0  0.65379169493E+03  0.25522315108E+03 -0.53620214061E+03  0.12971488630E+04  0.95000000000E+03 0.  0.
   -2000013    1    1    2    0    0 -0.65379169493E+03 -0.25522315108E+03 -0.19711357225E+03  0.11974707502E+04  0.95000000000E+03 0.  0.
<mgrwt>
<rscale>  0 0.23844025E+04</rscale>
<asrwt>0</asrwt>
<pdfrwt beam="2">  1        2 0.24830271E+00 0.23844025E+04</pdfrwt>
<pdfrwt beam="1">  1       -2 0.13548492E+00 0.23844025E+04</pdfrwt>
<totfact> 0.38557290E+00</totfact>
</mgrwt>
</event>
<event>
 4    1  0.1321115E-008  0.2184420E+04  0.7816531E-02  0.8524941E-01
          2   -1    0    0  501    0  0.00000000000E+00  0.00000000000E+00  0.12724100376E+04  0.12724100376E+04  0.00000000000E+00 0.  1.
         -2   -1    0    0    0  501 -0.00000000000E+00 -0.00000000000E+00 -0.93752976874E+03  0.93752976874E+03  0.00000000000E+00 0. -1.
    2000013    1    1    2    0    0 -0.22355036059E+03  0.47536349206E+03  0.45713732528E+02  0.10865242559E+04  0.95000000000E+03 0.  0.
   -2000013    1    1    2    0    0  0.22355036059E+03 -0.47536349206E+03  0.28916653636E+03  0.11234155505E+04  0.95000000000E+03 0.  0.
<mgrwt>
<rscale>  0 0.21844196E+04</rscale>
<asrwt>0</asrwt>
<pdfrwt beam="1">  1        2 0.19575539E+00 0.21844196E+04</pdfrwt>
<pdfrwt beam="2">  1       -2 0.14423535E+00 0.21844196E+04</pdfrwt>
<totfact> 0.52182538E+00</totfact>
</mgrwt>
</event>
<event>
 4    1  0.1321115E-008  0.2387841E+04  0.7816531E-02  0.8444070E-01
          1   -1    0    0  501    0  0.00000000000E+00  0.00000000000E+00  0.19809276094E+04  0.19809276094E+04  0.00000000000E+00 0. -1.
         -1   -1    0    0    0  501 -0.00000000000E+00 -0.00000000000E+00 -0.71958543089E+03  0.71958543089E+03  0.00000000000E+00 0.  1.
    2000013    1    1    2    0    0  0.16425143971E+03 -0.46822841164E+03  0.35736622003E+02  0.10723774928E+04  0.95000000000E+03 0.  0.
   -2000013    1    1    2    0    0 -0.16425143971E+03  0.46822841164E+03  0.12256055566E+04  0.16281355475E+04  0.95000000000E+03 0.  0.
<mgrwt>
<rscale>  0 0.23878414E+04</rscale>
<asrwt>0</asrwt>
<pdfrwt beam="1">  1        1 0.30475809E+00 0.23878414E+04</pdfrwt>
<pdfrwt beam="2">  1       -1 0.11070545E+00 0.23878414E+04</pdfrwt>
<totfact> 0.20699085E+00</totfact>
</mgrwt>
</event>
<event>
 4    1  0.1321115E-008  0.3435055E+04  0.7816531E-02  0.8129356E-01
          2   -1    0    0  501    0  0.00000000000E+00  0.00000000000E+00  0.30362793491E+04  0.30362793491E+04  0.00000000000E+00 0.  1.
         -2   -1    0    0    0  501 -0.00000000000E+00 -0.00000000000E+00 -0.97155135213E+03  0.97155135213E+03  0.00000000000E+00 0. -1.
    2000013    1    1    2    0    0  0.32800792020E+03 -0.13875953783E+04  0.89239759780E+03  0.19318083761E+04  0.95000000000E+03 0.  0.
   -2000013    1    1    2    0    0 -0.32800792020E+03  0.13875953783E+04  0.11723303991E+04  0.20760223251E+04  0.95000000000E+03 0.  0.
<mgrwt>
<rscale>  0 0.34350553E+04</rscale>
<asrwt>0</asrwt>
<pdfrwt beam="1">  1        2 0.46711989E+00 0.34350553E+04</pdfrwt>
<pdfrwt beam="2">  1       -2 0.14946944E+00 0.34350553E+04</pdfrwt>
<totfact> 0.41241069E-01</totfact>
</mgrwt>
</event>
<event>
 4    1  0.1321115E-008  0.2172046E+04  0.7816531E-02  0.8530154E-01
          2   -1    0    0  501    0  0.00000000000E+00  0.00000000000E+00  0.15831483161E+04  0.15831483161E+04  0.00000000000E+00 0. -1.
         -2   -1    0    0    0  501 -0.00000000000E+00 -0.00000000000E+00 -0.74500005603E+03  0.74500005603E+03  0.00000000000E+00 0.  1.
    2000013    1    1    2    0    0 -0.23724554800E+03  0.46562735777E+03  0.48559306082E+03  0.11880214253E+04  0.95000000000E+03 0.  0.
   -2000013    1    1    2    0    0  0.23724554800E+03 -0.46562735777E+03  0.35255519929E+03  0.11401269468E+04  0.95000000000E+03 0.  0.
<mgrwt>
<rscale>  0 0.21720457E+04</rscale>
<asrwt>0</asrwt>
<pdfrwt beam="1">  1        2 0.24356128E+00 0.21720457E+04</pdfrwt>
<pdfrwt beam="2">  1       -2 0.11461539E+00 0.21720457E+04</pdfrwt>
<totfact> 0.62081098E+00</totfact>
</mgrwt>
</event>
<event>
 4    1  0.1321115E-008  0.3494865E+04  0.7816531E-02  0.8115008E-01
          2   -1    0    0  501    0  0.00000000000E+00  0.00000000000E+00  0.21894853701E+04  0.21894853701E+04  0.00000000000E+00 0.  1.
         -2   -1    0    0    0  501 -0.00000000000E+00 -0.00000000000E+00 -0.13946295409E+04  0.13946295409E+04  0.00000000000E+00 0. -1.
    2000013    1    1    2    0    0  0.22431127543E+03  0.14277698814E+04  0.65315217105E+03  0.18487698994E+04  0.95000000000E+03 0.  0.
   -2000013    1    1    2    0    0 -0.22431127543E+03 -0.14277698814E+04  0.14170365810E+03  0.17353450116E+04  0.95000000000E+03 0.  0.
<mgrwt>
<rscale>  0 0.34948654E+04</rscale>
<asrwt>0</asrwt>
<pdfrwt beam="1">  1        2 0.33684390E+00 0.34948654E+04</pdfrwt>
<pdfrwt beam="2">  1       -2 0.21455839E+00 0.34948654E+04</pdfrwt>
<totfact> 0.46064824E-01</totfact>
</mgrwt>
</event>
<event>
 4    1  0.1321115E-008  0.3688577E+04  0.7816531E-02  0.8070498E-01
         -2   -1    0    0    0  501 -0.00000000000E+00  0.00000000000E+00  0.98643809182E+03  0.98643809182E+03  0.00000000000E+00 0. -1.
          2   -1    0    0  501    0  0.00000000000E+00 -0.00000000000E+00 -0.34481632461E+04  0.34481632461E+04  0.00000000000E+00 0.  1.
    2000013    1    1    2    0    0 -0.69750625984E+03  0.45534070800E+03 -0.28461146655E+04  0.31139554962E+04  0.95000000000E+03 0.  0.
   -2000013    1    1    2    0    0  0.69750625984E+03 -0.45534070800E+03  0.38438951127E+03  0.13206458417E+04  0.95000000000E+03 0.  0.
<mgrwt>
<rscale>  0 0.36885767E+04</rscale>
<asrwt>0</asrwt>
<pdfrwt beam="2">  1        2 0.53048664E+00 0.36885767E+04</pdfrwt>
<pdfrwt beam="1">  1       -2 0.15175971E+00 0.36885767E+04</pdfrwt>
<totfact> 0.20730048E-01</totfact>
</mgrwt>
</event>
<event>
 4    1  0.1321115E-008  0.2429891E+04  0.7816531E-02  0.8428397E-01
          1   -1    0    0  501    0  0.00000000000E+00  0.00000000000E+00  0.10393439408E+04  0.10393439408E+04  0.00000000000E+00 0. -1.
         -1   -1    0    0    0  501 -0.00000000000E+00 -0.00000000000E+00 -0.14202157537E+04  0.14202157537E+04  0.00000000000E+00 0.  1.
    2000013    1    1    2    0    0 -0.54022308688E+03  0.52832751188E+03 -0.24226356986E+03  0.12378055504E+04  0.95000000000E+03 0.  0.
   -2000013    1    1    2    0    0  0.54022308688E+03 -0.52832751188E+03 -0.13860824302E+03  0.12217541440E+04  0.95000000000E+03 0.  0.
<mgrwt>
<rscale>  0 0.24298911E+04</rscale>
<asrwt>0</asrwt>
<pdfrwt beam="1">  1        1 0.15989907E+00 0.24298911E+04</pdfrwt>
<pdfrwt beam="2">  1       -1 0.21849473E+00 0.24298911E+04</pdfrwt>
<totfact> 0.14198189E+00</totfact>
</mgrwt>
</event>
<event>
 4    1  0.1321115E-008  0.2460158E+04  0.7816531E-02  0.8417318E-01
         -2   -1    0    0    0  501 -0.00000000000E+00  0.00000000000E+00  0.68527268174E+03  0.68527268174E+03  0.00000000000E+00 0. -1.
          2   -1    0    0  501    0  0.00000000000E+00 -0.00000000000E+00 -0.22080181294E+04  0.22080181294E+04  0.00000000000E+00 0.  1.
    2000013    1    1    2    0    0  0.68677799052E+03 -0.37169801268E+03 -0.79402999617E+03  0.14638330013E+04  0.95000000000E+03 0.  0.
   -2000013    1    1    2    0    0 -0.68677799052E+03  0.37169801268E+03 -0.72871545151E+03  0.14294578099E+04  0.95000000000E+03 0.  0.
<mgrwt>
<rscale>  0 0.24601581E+04</rscale>
<asrwt>0</asrwt>
<pdfrwt beam="2">  1        2 0.33969509E+00 0.24601581E+04</pdfrwt>
<pdfrwt beam="1">  1       -2 0.10542657E+00 0.24601581E+04</pdfrwt>
<totfact> 0.33283766E+00</totfact>
</mgrwt>
</event>
<event>
 4    1  0.1321115E-008  0.2644789E+04  0.7816531E-02  0.8353145E-01
          2   -1    0    0  501    0  0.00000000000E+00  0.00000000000E+00  0.21694132470E+04  0.21694132470E+04  0.00000000000E+00 0.  1.
         -2   -1    0    0    0  501 -0.00000000000E+00 -0.00000000000E+00 -0.80608288904E+03  0.80608288904E+03  0.00000000000E+00 0. -1.
    2000013    1    1    2    0    0  0.90321048467E+03  0.15985780396E+03  0.60304741621E+03  0.14517265181E+04  0.95000000000E+03 0.  0.
   -2000013    1    1    2    0    0 -0.90321048467E+03 -0.15985780396E+03  0.76028294173E+03  0.15237696180E+04  0.95000000000E+03 0.  0.
<mgrwt>
<rscale>  0 0.26447888E+04</rscale>
<asrwt>0</asrwt>
<pdfrwt beam="1">  1        2 0.33375588E+00 0.26447888E+04</pdfrwt>
<pdfrwt beam="2">  1       -2 0.12401275E+00 0.26447888E+04</pdfrwt>
<totfact> 0.23156742E+00</totfact>
</mgrwt>
</event>
<event>
 4    1  0.1321115E-008  0.2523625E+04  0.7816531E-02  0.8394617E-01
          2   -1    0    0  501    0  0.00000000000E+00  0.00000000000E+00  0.25412149554E+04  0.25412149554E+04  0.00000000000E+00 0. -1.
         -2   -1    0    0    0  501 -0.00000000000E+00 -0.00000000000E+00 -0.62653938553E+03  0.62653938553E+03  0.00000000000E+00 0.  1.
    2000013    1    1    2    0    0  0.51348780627E+03 -0.42382051256E+03  0.33428145871E+03  0.12072852387E+04  0.95000000000E+03 0.  0.
   -2000013    1    1    2    0    0 -0.51348780627E+03  0.42382051256E+03  0.15803941112E+04  0.19604691022E+04  0.95000000000E+03 0.  0.
<mgrwt>
<rscale>  0 0.25236254E+04</rscale>
<asrwt>0</asrwt>
<pdfrwt beam="1">  1        2 0.39095614E+00 0.25236254E+04</pdfrwt>
<pdfrwt beam="2">  1       -2 0.96390676E-01 0.25236254E+04</pdfrwt>
<totfact> 0.26409524E+00</totfact>
</mgrwt>
</event>
<event>
 4    1  0.1321115E-008  0.2102338E+04  0.7816531E-02  0.8560214E-01
         -2   -1    0    0    0  501 -0.00000000000E+00  0.00000000000E+00  0.68361389928E+03  0.68361389928E+03  0.00000000000E+00 0. -1.
          2   -1    0    0  501    0  0.00000000000E+00 -0.00000000000E+00 -0.16163459180E+04  0.16163459180E+04  0.00000000000E+00 0.  1.
    2000013    1    1    2    0    0  0.36384503512E+03  0.18610346552E+03 -0.67231388622E+03  0.12335005760E+04  0.95000000000E+03 0.  0.
   -2000013    1    1    2    0    0 -0.36384503512E+03 -0.18610346552E+03 -0.26041813246E+03  0.10664592412E+04  0.95000000000E+03 0.  0.
<mgrwt>
<rscale>  0 0.21023383E+04</rscale>
<asrwt>0</asrwt>
<pdfrwt beam="2">  1        2 0.24866860E+00 0.21023383E+04</pdfrwt>
<pdfrwt beam="1">  1       -2 0.10517137E+00 0.21023383E+04</pdfrwt>
<totfact> 0.73673654E+00</totfact>
</mgrwt>
</event>
<event>
 4    1  0.1321115E-008  0.2935568E+04  0.7816531E-02  0.8262373E-01
          2   -1    0    0  501    0  0.00000000000E+00  0.00000000000E+00  0.15019724871E+04  0.15019724871E+04  0.00000000000E+00 0.  1.
         -2   -1    0    0    0  501 -0.00000000000E+00 -0.00000000000E+00 -0.14343737140E+04  0.14343737140E+04  0.00000000000E+00 0. -1.
    2000013    1    1    2    0    0  0.10206892518E+04  0.22501649195E+02  0.49171653304E+03  0.14787149901E+04  0.95000000000E+03 0.  0.
   -2000013    1    1    2    0    0 -0.10206892518E+04 -0.22501649195E+02 -0.42411775988E+03  0.14576312110E+04  0.95000000000E+03 0.  0.
<mgrwt>
<rscale>  0 0.29355680E+04</rscale>
<asrwt>0</asrwt>
<pdfrwt beam="1">  1        2 0.23107269E+00 0.29355680E+04</pdfrwt>
<pdfrwt beam="2">  1       -2 0.22067288E+00 0.29355680E+04</pdfrwt>
<totfact> 0.10664316E+00</totfact>
</mgrwt>
</event>
<event>
 4    1  0.1321115E-008  0.2888240E+04  0.7816531E-02  0.8276385E-01
          2   -1    0    0  501    0  0.00000000000E+00  0.00000000000E+00  0.13593668925E+04  0.13593668925E+04  0.00000000000E+00 0.  1.
         -2   -1    0    0    0  501 -0.00000000000E+00 -0.00000000000E+00 -0.15341574421E+04  0.15341574421E+04  0.00000000000E+00 0. -1.
    2000013    1    1    2    0    0  0.24914891715E+02  0.99906614125E+03  0.34260897371E+03  0.14207866889E+04  0.95000000000E+03 0.  0.
   -2000013    1    1    2    0    0 -0.24914891715E+02 -0.99906614125E+03 -0.51739952327E+03  0.14727376457E+04  0.95000000000E+03 0.  0.
<mgrwt>
<rscale>  0 0.28882402E+04</rscale>
<asrwt>0</asrwt>
<pdfrwt beam="1">  1        2 0.20913337E+00 0.28882402E+04</pdfrwt>
<pdfrwt beam="2">  1       -2 0.23602422E+00 0.28882402E+04</pdfrwt>
<totfact> 0.10343847E+00</totfact>
</mgrwt>
</event>
<event>
 4    1  0.1321115E-008  0.2260450E+04  0.7816531E-02  0.8493680E-01
          1   -1    0    0  501    0  0.00000000000E+00  0.00000000000E+00  0.20255370435E+04  0.20255370435E+04  0.00000000000E+00 0.  1.
         -1   -1    0    0    0  501 -0.00000000000E+00 -0.00000000000E+00 -0.63065187386E+03  0.63065187386E+03  0.00000000000E+00 0. -1.
    2000013    1    1    2    0    0  0.55443231913E+03  0.11063477179E+02  0.10024886377E+04  0.14882879647E+04  0.95000000000E+03 0.  0.
   -2000013    1    1    2    0    0 -0.55443231913E+03 -0.11063477179E+02  0.39239653191E+03  0.11679009527E+04  0.95000000000E+03 0.  0.
<mgrwt>
<rscale>  0 0.22604502E+04</rscale>
<asrwt>0</asrwt>
<pdfrwt beam="1">  1        1 0.31162108E+00 0.22604502E+04</pdfrwt>
<pdfrwt beam="2">  1       -1 0.97023366E-01 0.22604502E+04</pdfrwt>
<totfact> 0.26510665E+00</totfact>
</mgrwt>
</event>
<event>
 4    1  0.1321115E-008  0.2182441E+04  0.7816531E-02  0.8525772E-01
         -2   -1    0    0    0  501 -0.00000000000E+00  0.00000000000E+00  0.20393953195E+04  0.20393953195E+04  0.00000000000E+00 0. -1.
          2   -1    0    0  501    0  0.00000000000E+00 -0.00000000000E+00 -0.58387984814E+03  0.58387984814E+03  0.00000000000E+00 0.  1.
    2000013    1    1    2    0    0  0.46078843099E+03  0.26228913930E+03  0.82932608011E+03  0.13679924407E+04  0.95000000000E+03 0.  0.
   -2000013    1    1    2    0    0 -0.46078843099E+03 -0.26228913930E+03  0.62618939121E+03  0.12552827269E+04  0.95000000000E+03 0.  0.
<mgrwt>
<rscale>  0 0.21824407E+04</rscale>
<asrwt>0</asrwt>
<pdfrwt beam="2">  1        2 0.89827670E-01 0.21824407E+04</pdfrwt>
<pdfrwt beam="1">  1       -2 0.31375312E+00 0.21824407E+04</pdfrwt>
<totfact> 0.12286749E+00</totfact>
</mgrwt>
</event>
<event>
 4    1  0.1321115E-008  0.2190540E+04  0.7816531E-02  0.8522376E-01
          1   -1    0    0  501    0  0.00000000000E+00  0.00000000000E+00  0.36617463082E+04  0.36617463082E+04  0.00000000000E+00 0.  1.
         -1   -1    0    0    0  501 -0.00000000000E+00 -0.00000000000E+00 -0.32760765260E+03  0.32760765260E+03  0.00000000000E+00 0. -1.
    2000013    1    1    2    0    0  0.32824810620E+03 -0.43352342896E+03  0.17358588498E+04  0.20521684456E+04  0.95000000000E+03 0.  0.
   -2000013    1    1    2    0    0 -0.32824810620E+03  0.43352342896E+03  0.15982798058E+04  0.19371855152E+04  0.95000000000E+03 0.  0.
<mgrwt>
<rscale>  0 0.21905398E+04</rscale>
<asrwt>0</asrwt>
<pdfrwt beam="1">  1        1 0.56334556E+00 0.21905398E+04</pdfrwt>
<pdfrwt beam="2">  1       -1 0.50401180E-01 0.21905398E+04</pdfrwt>
<totfact> 0.67121949E-01</totfact>
</mgrwt>
</event>
<event>
 4    1  0.1321115E-008  0.2804835E+04  0.7816531E-02  0.8301769E-01
          2   -1    0    0  501    0  0.00000000000E+00  0.00000000000E+00  0.19880810711E+04  0.19880810711E+04  0.00000000000E+00 0.  1.
         -2   -1    0    0    0  501 -0.00000000000E+00 -0.00000000000E+00 -0.98928277628E+03  0.98928277628E+03  0.00000000000E+00 0. -1.
    2000013    1    1    2    0    0  0.89461600947E+03  0.48448926377E+03  0.68081112937E+03  0.15495391073E+04  0.95000000000E+03 0.  0.
   -2000013    1    1    2    0    0 -0.89461600947E+03 -0.48448926377E+03  0.31798716549E+03  0.14278247401E+04  0.95000000000E+03 0.  0.
<mgrwt>
<rscale>  0 0.28048347E+04</rscale>
<asrwt>0</asrwt>
<pdfrwt beam="1">  1        2 0.30585863E+00 0.28048347E+04</pdfrwt>
<pdfrwt beam="2">  1       -2 0.15219735E+00 0.28048347E+04</pdfrwt>
<totfact> 0.17010505E+00</totfact>
</mgrwt>
</event>
<event>
 4    1  0.1321115E-008  0.2796493E+04  0.7816531E-02  0.8304358E-01
          2   -1    0    0  501    0  0.00000000000E+00  0.00000000000E+00  0.68870259318E+03  0.68870259318E+03  0.00000000000E+00 0.  1.
         -2   -1    0    0    0  501 -0.00000000000E+00 -0.00000000000E+00 -0.28388071703E+04  0.28388071703E+04  0.00000000000E+00 0. -1.
    2000013    1    1    2    0    0  0.93047744768E+03 -0.33991053247E+03 -0.73831061896E+03  0.15585024930E+04  0.95000000000E+03 0.  0.
   -2000013    1    1    2    0    0 -0.93047744768E+03  0.33991053247E+03 -0.14117939581E+04  0.19690072704E+04  0.95000000000E+03 0.  0.
<mgrwt>
<rscale>  0 0.27964934E+04</rscale>
<asrwt>0</asrwt>
<pdfrwt beam="1">  1        2 0.10595424E+00 0.27964934E+04</pdfrwt>
<pdfrwt beam="2">  1       -2 0.43673957E+00 0.27964934E+04</pdfrwt>
<totfact> 0.15450042E-01</totfact>
</mgrwt>
</event>
<event>
 4    1  0.1321115E-008  0.2282411E+04  0.7816531E-02  0.8484889E-01
         -2   -1    0    0    0  501 -0.00000000000E+00  0.00000000000E+00  0.15444041194E+04  0.15444041194E+04  0.00000000000E+00 0. -1.
          2   -1    0    0  501    0  0.00000000000E+00 -0.00000000000E+00 -0.84327032757E+03  0.84327032757E+03  0.00000000000E+00 0.  1.
    2000013    1    1    2    0    0  0.31772346000E+03 -0.51583276472E+03  0.54008067400E+03  0.12494874039E+04  0.95000000000E+03 0.  0.
   -2000013    1    1    2    0    0 -0.31772346000E+03  0.51583276472E+03  0.16105311785E+03  0.11381870430E+04  0.95000000000E+03 0.  0.
<mgrwt>
<rscale>  0 0.22824112E+04</rscale>
<asrwt>0</asrwt>
<pdfrwt beam="2">  1        2 0.12973390E+00 0.22824112E+04</pdfrwt>
<pdfrwt beam="1">  1       -2 0.23760063E+00 0.22824112E+04</pdfrwt>
<totfact> 0.22325192E+00</totfact>
</mgrwt>
</event>
<event>
 4    1  0.1321115E-008  0.3585288E+04  0.7816531E-02  0.8093870E-01
         -1   -1    0    0    0  501 -0.00000000000E+00  0.00000000000E+00  0.11492267977E+04  0.11492267977E+04  0.00000000000E+00 0.  1.
          1   -1    0    0  501    0  0.00000000000E+00 -0.00000000000E+00 -0.27962908259E+04  0.27962908259E+04  0.00000000000E+00 0. -1.
    2000013    1    1    2    0    0 -0.50971935454E+02  0.12580607020E+04 -0.17610415893E+04  0.23641240127E+04  0.95000000000E+03 0.  0.
   -2000013    1    1    2    0    0  0.50971935454E+02 -0.12580607020E+04  0.11397756112E+03  0.15813936109E+04  0.95000000000E+03 0.  0.
<mgrwt>
<rscale>  0 0.35852879E+04</rscale>
<asrwt>0</asrwt>
<pdfrwt beam="2">  1        1 0.43019859E+00 0.35852879E+04</pdfrwt>
<pdfrwt beam="1">  1       -1 0.17680412E+00 0.35852879E+04</pdfrwt>
<totfact> 0.14899766E-01</totfact>
</mgrwt>
</event>
<event>
 4    1  0.1321115E-008  0.1990125E+04  0.7816531E-02  0.8611252E-01
          2   -1    0    0  501    0  0.00000000000E+00  0.00000000000E+00  0.11079070394E+04  0.11079070394E+04  0.00000000000E+00 0.  1.
         -2   -1    0    0    0  501 -0.00000000000E+00 -0.00000000000E+00 -0.89371130514E+03  0.89371130514E+03  0.00000000000E+00 0. -1.
    2000013    1    1    2    0    0  0.13234701915E+03 -0.21361715455E+03  0.26452990144E+03  0.10176561752E+04  0.95000000000E+03 0.  0.
   -2000013    1    1    2    0    0 -0.13234701915E+03  0.21361715455E+03 -0.50334167209E+02  0.98396216928E+03  0.95000000000E+03 0.  0.
<mgrwt>
<rscale>  0 0.19901247E+04</rscale>
<asrwt>0</asrwt>
<pdfrwt beam="1">  1        2 0.17044724E+00 0.19901247E+04</pdfrwt>
<pdfrwt beam="2">  1       -2 0.13749405E+00 0.19901247E+04</pdfrwt>
<totfact> 0.75397029E+00</totfact>
</mgrwt>
</event>
<event>
 4    1  0.1321115E-008  0.2858350E+04  0.7816531E-02  0.8285378E-01
         -2   -1    0    0    0  501 -0.00000000000E+00  0.00000000000E+00  0.13533882942E+04  0.13533882942E+04  0.00000000000E+00 0. -1.
          2   -1    0    0  501    0  0.00000000000E+00 -0.00000000000E+00 -0.15092060012E+04  0.15092060012E+04  0.00000000000E+00 0.  1.
    2000013    1    1    2    0    0  0.10106501687E+04 -0.18103515618E+03  0.21553513765E+03  0.14153243045E+04  0.95000000000E+03 0.  0.
   -2000013    1    1    2    0    0 -0.10106501687E+04  0.18103515618E+03 -0.37135284461E+03  0.14472699909E+04  0.95000000000E+03 0.  0.
<mgrwt>
<rscale>  0 0.28583504E+04</rscale>
<asrwt>0</asrwt>
<pdfrwt beam="2">  1        2 0.23218554E+00 0.28583504E+04</pdfrwt>
<pdfrwt beam="1">  1       -2 0.20821358E+00 0.28583504E+04</pdfrwt>
<totfact> 0.12773544E+00</totfact>
</mgrwt>
</event>
<event>
 4    1  0.1321115E-008  0.3126442E+04  0.7816531E-02  0.8208518E-01
          2   -1    0    0  501    0  0.00000000000E+00  0.00000000000E+00  0.19250177305E+04  0.19250177305E+04  0.00000000000E+00 0.  1.
         -2   -1    0    0    0  501 -0.00000000000E+00 -0.00000000000E+00 -0.12694219488E+04  0.12694219488E+04  0.00000000000E+00 0. -1.
    2000013    1    1    2    0    0 -0.10145405118E+04 -0.45758522219E+03  0.88974425554E+03  0.17125482550E+04  0.95000000000E+03 0.  0.
   -2000013    1    1    2    0    0  0.10145405118E+04  0.45758522219E+03 -0.23414847382E+03  0.14818914243E+04  0.95000000000E+03 0.  0.
<mgrwt>
<rscale>  0 0.31264419E+04</rscale>
<asrwt>0</asrwt>
<pdfrwt beam="1">  1        2 0.29615658E+00 0.31264419E+04</pdfrwt>
<pdfrwt beam="2">  1       -2 0.19529568E+00 0.31264419E+04</pdfrwt>
<totfact> 0.89022557E-01</totfact>
</mgrwt>
</event>
<event>
 4    1  0.1321115E-008  0.2175524E+04  0.7816531E-02  0.8528685E-01
         -2   -1    0    0    0  501 -0.00000000000E+00  0.00000000000E+00  0.11843177758E+04  0.11843177758E+04  0.00000000000E+00 0. -1.
          2   -1    0    0  501    0  0.00000000000E+00 -0.00000000000E+00 -0.99907792700E+03  0.99907792700E+03  0.00000000000E+00 0.  1.
    2000013    1    1    2    0    0 -0.37993063019E+03 -0.34132597730E+03 -0.48869075020E+02  0.10796938886E+04  0.95000000000E+03 0.  0.
   -2000013    1    1    2    0    0  0.37993063019E+03  0.34132597730E+03  0.23410892383E+03  0.11037018142E+04  0.95000000000E+03 0.  0.
<mgrwt>
<rscale>  0 0.21755236E+04</rscale>
<asrwt>0</asrwt>
<pdfrwt beam="2">  1        2 0.15370430E+00 0.21755236E+04</pdfrwt>
<pdfrwt beam="1">  1       -2 0.18220274E+00 0.21755236E+04</pdfrwt>
<totfact> 0.40441099E+00</totfact>
</mgrwt>
</event>
<event>
 4    1  0.1321115E-008  0.3632121E+04  0.7816531E-02  0.8083173E-01
          2   -1    0    0  501    0  0.00000000000E+00  0.00000000000E+00  0.17009112841E+04  0.17009112841E+04  0.00000000000E+00 0.  1.
         -2   -1    0    0    0  501 -0.00000000000E+00 -0.00000000000E+00 -0.19390049216E+04  0.19390049216E+04  0.00000000000E+00 0. -1.
    2000013    1    1    2    0    0  0.12625648484E+04 -0.89526070353E+03 -0.12274628930E+03  0.18202000921E+04  0.95000000000E+03 0.  0.
   -2000013    1    1    2    0    0 -0.12625648484E+04  0.89526070353E+03 -0.11534734822E+03  0.18197161137E+04  0.95000000000E+03 0.  0.
<mgrwt>
<rscale>  0 0.36321208E+04</rscale>
<asrwt>0</asrwt>
<pdfrwt beam="1">  1        2 0.26167866E+00 0.36321208E+04</pdfrwt>
<pdfrwt beam="2">  1       -2 0.29830845E+00 0.36321208E+04</pdfrwt>
<totfact> 0.25917486E-01</totfact>
</mgrwt>
</event>
<event>
 4    1  0.1321115E-008  0.2352873E+04  0.7816531E-02  0.8457361E-01
         -2   -1    0    0    0  501 -0.00000000000E+00  0.00000000000E+00  0.15634858492E+04  0.15634858492E+04  0.00000000000E+00 0. -1.
          2   -1    0    0  501    0  0.00000000000E+00 -0.00000000000E+00 -0.88520343924E+03  0.88520343924E+03  0.00000000000E+00 0.  1.
    2000013    1    1    2    0    0  0.50264948051E+03  0.25463133566E+03 -0.82331618306E+02  0.11075974507E+04  0.95000000000E+03 0.  0.
   -2000013    1    1    2    0    0 -0.50264948051E+03 -0.25463133566E+03  0.76061402828E+03  0.13410918378E+04  0.95000000000E+03 0.  0.
<mgrwt>
<rscale>  0 0.23528732E+04</rscale>
<asrwt>0</asrwt>
<pdfrwt beam="2">  1        2 0.13618514E+00 0.23528732E+04</pdfrwt>
<pdfrwt beam="1">  1       -2 0.24053628E+00 0.23528732E+04</pdfrwt>
<totfact> 0.19909779E+00</totfact>
</mgrwt>
</event>
<event>
 4    1  0.1321115E-008  0.3561151E+04  0.7816531E-02  0.8099449E-01
         -2   -1    0    0    0  501 -0.00000000000E+00  0.00000000000E+00  0.14863857050E+04  0.14863857050E+04  0.00000000000E+00 0. -1.
          2   -1    0    0  501    0  0.00000000000E+00 -0.00000000000E+00 -0.21329927647E+04  0.21329927647E+04  0.00000000000E+00 0.  1.
    2000013    1    1    2    0    0  0.38674944864E+03  0.13792628053E+04  0.14906331481E+03  0.17253002330E+04  0.95000000000E+03 0.  0.
   -2000013    1    1    2    0    0 -0.38674944864E+03 -0.13792628053E+04 -0.79567037444E+03  0.18940782367E+04  0.95000000000E+03 0.  0.
<mgrwt>
<rscale>  0 0.35611515E+04</rscale>
<asrwt>0</asrwt>
<pdfrwt beam="2">  1        2 0.32815273E+00 0.35611515E+04</pdfrwt>
<pdfrwt beam="1">  1       -2 0.22867472E+00 0.35611515E+04</pdfrwt>
<totfact> 0.40128053E-01</totfact>
</mgrwt>
</event>
<event>
 4    1  0.1321115E-008  0.2602047E+04  0.7816531E-02  0.8367506E-01
         -2   -1    0    0    0  501 -0.00000000000E+00  0.00000000000E+00  0.11914712822E+04  0.11914712822E+04  0.00000000000E+00 0. -1.
          2   -1    0    0  501    0  0.00000000000E+00 -0.00000000000E+00 -0.14206491848E+04  0.14206491848E+04  0.00000000000E+00 0.  1.
    2000013    1    1    2    0    0 -0.87435696723E+03 -0.65714670166E+02 -0.26125100044E+03  0.13189278256E+04  0.95000000000E+03 0.  0.
   -2000013    1    1    2    0    0  0.87435696723E+03  0.65714670166E+02  0.32073097880E+02  0.12931926413E+04  0.95000000000E+03 0.  0.
<mgrwt>
<rscale>  0 0.26020474E+04</rscale>
<asrwt>0</asrwt>
<pdfrwt beam="2">  1        2 0.21856141E+00 0.26020474E+04</pdfrwt>
<pdfrwt beam="1">  1       -2 0.18330327E+00 0.26020474E+04</pdfrwt>
<totfact> 0.21434517E+00</totfact>
</mgrwt>
</event>
<event>
 4    1  0.1321115E-008  0.2862777E+04  0.7816531E-02  0.8284039E-01
         -2   -1    0    0    0  501 -0.00000000000E+00  0.00000000000E+00  0.76047168728E+03  0.76047168728E+03  0.00000000000E+00 0. -1.
          2   -1    0    0  501    0  0.00000000000E+00 -0.00000000000E+00 -0.26942125568E+04  0.26942125568E+04  0.00000000000E+00 0.  1.
    2000013    1    1    2    0    0  0.19454544640E+03  0.10226446370E+04 -0.66464417846E+03  0.15581726054E+04  0.95000000000E+03 0.  0.
   -2000013    1    1    2    0    0 -0.19454544640E+03 -0.10226446370E+04 -0.12690966910E+04  0.18965116386E+04  0.95000000000E+03 0.  0.
<mgrwt>
<rscale>  0 0.28627765E+04</rscale>
<asrwt>0</asrwt>
<pdfrwt beam="2">  1        2 0.41449424E+00 0.28627765E+04</pdfrwt>
<pdfrwt beam="1">  1       -2 0.11699564E+00 0.28627765E+04</pdfrwt>
<totfact> 0.13095335E+00</totfact>
</mgrwt>
</event>
<event>
 4    1  0.1321115E-008  0.3002302E+04  0.7816531E-02  0.8243074E-01
          1   -1    0    0  501    0  0.00000000000E+00  0.00000000000E+00  0.21251734027E+04  0.21251734027E+04  0.00000000000E+00 0.  1.
         -1   -1    0    0    0  501 -0.00000000000E+00 -0.00000000000E+00 -0.10603625119E+04  0.10603625119E+04  0.00000000000E+00 0. -1.
    2000013    1    1    2    0    0 -0.10633776558E+04 -0.12041129398E+02  0.10301152276E+04  0.17591345627E+04  0.95000000000E+03 0.  0.
   -2000013    1    1    2    0    0  0.10633776558E+04  0.12041129398E+02  0.34695663227E+02  0.14264013519E+04  0.95000000000E+03 0.  0.
<mgrwt>
<rscale>  0 0.30023019E+04</rscale>
<asrwt>0</asrwt>
<pdfrwt beam="1">  1        1 0.32694975E+00 0.30023019E+04</pdfrwt>
<pdfrwt beam="2">  1       -1 0.16313269E+00 0.30023019E+04</pdfrwt>
<totfact> 0.57687261E-01</totfact>
</mgrwt>
</event>
<event>
 4    1  0.1321115E-008  0.2699085E+04  0.7816531E-02  0.8335302E-01
          2   -1    0    0  501    0  0.00000000000E+00  0.00000000000E+00  0.41645806652E+04  0.41645806652E+04  0.00000000000E+00 0.  1.
         -2   -1    0    0    0  501 -0.00000000000E+00 -0.00000000000E+00 -0.43732264508E+03  0.43732264508E+03  0.00000000000E+00 0. -1.
    2000013    1    1    2    0    0 -0.77078979352E+03 -0.42066454547E+02  0.89481428562E+03  0.15162714461E+04  0.95000000000E+03 0.  0.
   -2000013    1    1    2    0    0  0.77078979352E+03  0.42066454547E+02  0.28324437345E+04  0.30856318642E+04  0.95000000000E+03 0.  0.
<mgrwt>
<rscale>  0 0.26990854E+04</rscale>
<asrwt>0</asrwt>
<pdfrwt beam="1">  1        2 0.64070469E+00 0.26990854E+04</pdfrwt>
<pdfrwt beam="2">  1       -2 0.67280410E-01 0.26990854E+04</pdfrwt>
<totfact> 0.44441054E-01</totfact>
</mgrwt>
</event>
<event>
 4    1  0.1321115E-008  0.2249208E+04  0.7816531E-02  0.8498221E-01
          1   -1    0    0  501    0  0.00000000000E+00  0.00000000000E+00  0.22379120441E+04  0.22379120441E+04  0.00000000000E+00 0.  1.
         -1   -1    0    0    0  501 -0.00000000000E+00 -0.00000000000E+00 -0.56514027099E+03  0.56514027099E+03  0.00000000000E+00 0. -1.
    2000013    1    1    2    0    0  0.20660843763E+03  0.56517274891E+03  0.82234499262E+03  0.13931470021E+04  0.95000000000E+03 0.  0.
   -2000013    1    1    2    0    0 -0.20660843763E+03 -0.56517274891E+03  0.85042678054E+03  0.14099053130E+04  0.95000000000E+03 0.  0.
<mgrwt>
<rscale>  0 0.22492081E+04</rscale>
<asrwt>0</asrwt>
<pdfrwt beam="1">  1        1 0.34429416E+00 0.22492081E+04</pdfrwt>
<pdfrwt beam="2">  1       -1 0.86944658E-01 0.22492081E+04</pdfrwt>
<totfact> 0.24279215E+00</totfact>
</mgrwt>
</event>
<event>
 4    1  0.1321115E-008  0.2636407E+04  0.7816531E-02  0.8355939E-01
         -2   -1    0    0    0  501 -0.00000000000E+00  0.00000000000E+00  0.12486864245E+04  0.12486864245E+04  0.00000000000E+00 0. -1.
          2   -1    0    0  501    0  0.00000000000E+00 -0.00000000000E+00 -0.13915911591E+04  0.13915911591E+04  0.00000000000E+00 0.  1.
    2000013    1    1    2    0    0  0.71058138171E+02  0.80028607960E+03 -0.50758439414E+03  0.13437443899E+04  0.95000000000E+03 0.  0.
   -2000013    1    1    2    0    0 -0.71058138171E+02 -0.80028607960E+03  0.36467965958E+03  0.12965331937E+04  0.95000000000E+03 0.  0.
<mgrwt>
<rscale>  0 0.26364074E+04</rscale>
<asrwt>0</asrwt>
<pdfrwt beam="2">  1        2 0.21409095E+00 0.26364074E+04</pdfrwt>
<pdfrwt beam="1">  1       -2 0.19210560E+00 0.26364074E+04</pdfrwt>
<totfact> 0.19364129E+00</totfact>
</mgrwt>
</event>
<event>
 4    1  0.1321115E-008  0.2801565E+04  0.7816531E-02  0.8302783E-01
         -2   -1    0    0    0  501 -0.00000000000E+00  0.00000000000E+00  0.33066364182E+04  0.33066364182E+04  0.00000000000E+00 0. -1.
          2   -1    0    0  501    0  0.00000000000E+00 -0.00000000000E+00 -0.59341026856E+03  0.59341026856E+03  0.00000000000E+00 0.  1.
    2000013    1    1    2    0    0  0.88268110512E+03  0.49397366579E+03  0.16227768350E+04  0.21351909919E+04  0.95000000000E+03 0.  0.
   -2000013    1    1    2    0    0 -0.88268110512E+03 -0.49397366579E+03  0.10904493147E+04  0.17648556949E+04  0.95000000000E+03 0.  0.
<mgrwt>
<rscale>  0 0.28015653E+04</rscale>
<asrwt>0</asrwt>
<pdfrwt beam="2">  1        2 0.91293889E-01 0.28015653E+04</pdfrwt>
<pdfrwt beam="1">  1       -2 0.50871329E+00 0.28015653E+04</pdfrwt>
<totfact> 0.63501382E-02</totfact>
</mgrwt>
</event>
<event>
 4    1  0.1321115E-008  0.2353878E+04  0.7816531E-02  0.8456976E-01
         -2   -1    0    0    0  501 -0.00000000000E+00  0.00000000000E+00  0.50120941928E+03  0.50120941928E+03  0.00000000000E+00 0. -1.
          2   -1    0    0  501    0  0.00000000000E+00 -0.00000000000E+00 -0.27636857933E+04  0.27636857933E+04  0.00000000000E+00 0.  1.
    2000013    1    1    2    0    0 -0.46684811982E+03  0.34209868673E+03 -0.16643095646E+04  0.20018503953E+04  0.95000000000E+03 0.  0.
   -2000013    1    1    2    0    0  0.46684811982E+03 -0.34209868673E+03 -0.59816680938E+03  0.12630448172E+04  0.95000000000E+03 0.  0.
<mgrwt>
<rscale>  0 0.23538780E+04</rscale>
<asrwt>0</asrwt>
<pdfrwt beam="2">  1        2 0.42518243E+00 0.23538780E+04</pdfrwt>
<pdfrwt beam="1">  1       -2 0.77109142E-01 0.23538780E+04</pdfrwt>
<totfact> 0.32962730E+00</totfact>
</mgrwt>
</event>
<event>
 4    1  0.1321115E-008  0.2276675E+04  0.7816531E-02  0.8487175E-01
          1   -1    0    0  501    0  0.00000000000E+00  0.00000000000E+00  0.24975477389E+04  0.24975477389E+04  0.00000000000E+00 0.  1.
         -1   -1    0    0    0  501 -0.00000000000E+00 -0.00000000000E+00 -0.51883374673E+03  0.51883374673E+03  0.00000000000E+00 0. -1.
    2000013    1    1    2    0    0 -0.49047143560E+03  0.30542740868E+03  0.66627554051E+03  0.12962527635E+04  0.95000000000E+03 0.  0.
   -2000013    1    1    2    0    0  0.49047143560E+03 -0.30542740868E+03  0.13124384517E+04  0.17201287221E+04  0.95000000000E+03 0.  0.
<mgrwt>
<rscale>  0 0.22766748E+04</rscale>
<asrwt>0</asrwt>
<pdfrwt beam="1">  1        1 0.38423811E+00 0.22766748E+04</pdfrwt>
<pdfrwt beam="2">  1       -1 0.79820578E-01 0.22766748E+04</pdfrwt>
<totfact> 0.19305606E+00</totfact>
</mgrwt>
</event>
<event>
 4    1  0.1321115E-008  0.2387648E+04  0.7816531E-02  0.8444143E-01
          2   -1    0    0  501    0  0.00000000000E+00  0.00000000000E+00  0.10645351234E+04  0.10645351234E+04  0.00000000000E+00 0.  1.
         -2   -1    0    0    0  501 -0.00000000000E+00 -0.00000000000E+00 -0.13388148665E+04  0.13388148665E+04  0.00000000000E+00 0. -1.
    2000013    1    1    2    0    0  0.26507456263E+03 -0.58854882117E+03 -0.46495202695E+03  0.12390862060E+04  0.95000000000E+03 0.  0.
   -2000013    1    1    2    0    0 -0.26507456263E+03  0.58854882117E+03  0.19067228380E+03  0.11642637839E+04  0.95000000000E+03 0.  0.
<mgrwt>
<rscale>  0 0.23876478E+04</rscale>
<asrwt>0</asrwt>
<pdfrwt beam="1">  1        2 0.16377463E+00 0.23876478E+04</pdfrwt>
<pdfrwt beam="2">  1       -2 0.20597152E+00 0.23876478E+04</pdfrwt>
<totfact> 0.25081387E+00</totfact>
</mgrwt>
</event>
<event>
 4    1  0.1321115E-008  0.2138679E+04  0.7816531E-02  0.8544394E-01
         -2   -1    0    0    0  501 -0.00000000000E+00  0.00000000000E+00  0.47629085231E+03  0.47629085231E+03  0.00000000000E+00 0. -1.
          2   -1    0    0  501    0  0.00000000000E+00 -0.00000000000E+00 -0.24008162869E+04  0.24008162869E+04  0.00000000000E+00 0.  1.
    2000013    1    1    2    0    0 -0.36808367348E+03  0.16407458160E+03 -0.13393732066E+04  0.16908065074E+04  0.95000000000E+03 0.  0.
   -2000013    1    1    2    0    0  0.36808367348E+03 -0.16407458160E+03 -0.58515222794E+03  0.11863006317E+04  0.95000000000E+03 0.  0.
<mgrwt>
<rscale>  0 0.21386789E+04</rscale>
<asrwt>0</asrwt>
<pdfrwt beam="2">  1        2 0.36935635E+00 0.21386789E+04</pdfrwt>
<pdfrwt beam="1">  1       -2 0.73275516E-01 0.21386789E+04</pdfrwt>
<totfact> 0.61337142E+00</totfact>
</mgrwt>
</event>
<event>
 4    1  0.1321115E-008  0.2876012E+04  0.7816531E-02  0.8280051E-01
         -2   -1    0    0    0  501 -0.00000000000E+00  0.00000000000E+00  0.14077693253E+04  0.14077693253E+04  0.00000000000E+00 0. -1.
          2   -1    0    0  501    0  0.00000000000E+00 -0.00000000000E+00 -0.14688921907E+04  0.14688921907E+04  0.00000000000E+00 0.  1.
    2000013    1    1    2    0    0 -0.49243832462E+03 -0.52659807091E+03 -0.83421055996E+03  0.14554065721E+04  0.95000000000E+03 0.  0.
   -2000013    1    1    2    0    0  0.49243832462E+03  0.52659807091E+03  0.77308769460E+03  0.14212549438E+04  0.95000000000E+03 0.  0.
<mgrwt>
<rscale>  0 0.28760121E+04</rscale>
<asrwt>0</asrwt>
<pdfrwt beam="2">  1        2 0.22598341E+00 0.28760121E+04</pdfrwt>
<pdfrwt beam="1">  1       -2 0.21657990E+00 0.28760121E+04</pdfrwt>
<totfact> 0.11879312E+00</totfact>
</mgrwt>
</event>
<event>
 4    1  0.1321115E-008  0.2649012E+04  0.7816531E-02  0.8351741E-01
          2   -1    0    0  501    0  0.00000000000E+00  0.00000000000E+00  0.14298326746E+04  0.14298326746E+04  0.00000000000E+00 0.  1.
         -2   -1    0    0    0  501 -0.00000000000E+00 -0.00000000000E+00 -0.12269384418E+04  0.12269384418E+04  0.00000000000E+00 0. -1.
    2000013    1    1    2    0    0 -0.98667504905E+01 -0.88745649644E+03  0.35544821946E+03  0.13477832996E+04  0.95000000000E+03 0.  0.
   -2000013    1    1    2    0    0  0.98667504905E+01  0.88745649644E+03 -0.15255398666E+03  0.13089878169E+04  0.95000000000E+03 0.  0.
<mgrwt>
<rscale>  0 0.26490124E+04</rscale>
<asrwt>0</asrwt>
<pdfrwt beam="1">  1        2 0.21997426E+00 0.26490124E+04</pdfrwt>
<pdfrwt beam="2">  1       -2 0.18875976E+00 0.26490124E+04</pdfrwt>
<totfact> 0.19369880E+00</totfact>
</mgrwt>
</event>
<event>
 4    1  0.1321115E-008  0.2802462E+04  0.7816531E-02  0.8302504E-01
          2   -1    0    0  501    0  0.00000000000E+00  0.00000000000E+00  0.10873775726E+04  0.10873775726E+04  0.00000000000E+00 0.  1.
         -2   -1    0    0    0  501 -0.00000000000E+00 -0.00000000000E+00 -0.18056726828E+04  0.18056726828E+04  0.00000000000E+00 0. -1.
    2000013    1    1    2    0    0  0.10093968004E+03 -0.82392478897E+03  0.27040721439E+03  0.12902173997E+04  0.95000000000E+03 0.  0.
   -2000013    1    1    2    0    0 -0.10093968004E+03  0.82392478897E+03 -0.98870232461E+03  0.16028328558E+04  0.95000000000E+03 0.  0.
<mgrwt>
<rscale>  0 0.28024618E+04</rscale>
<asrwt>0</asrwt>
<pdfrwt beam="1">  1        2 0.16728886E+00 0.28024618E+04</pdfrwt>
<pdfrwt beam="2">  1       -2 0.27779580E+00 0.28024618E+04</pdfrwt>
<totfact> 0.83821228E-01</totfact>
</mgrwt>
</event>
<event>
 4    1  0.1321115E-008  0.2389657E+04  0.7816531E-02  0.8443386E-01
         -2   -1    0    0    0  501 -0.00000000000E+00  0.00000000000E+00  0.71805275913E+03  0.71805275913E+03  0.00000000000E+00 0. -1.
          2   -1    0    0  501    0  0.00000000000E+00 -0.00000000000E+00 -0.19881764693E+04  0.19881764693E+04  0.00000000000E+00 0.  1.
    2000013    1    1    2    0    0  0.30031242441E+03  0.48720344066E+03 -0.13170105612E+03  0.11168705892E+04  0.95000000000E+03 0.  0.
   -2000013    1    1    2    0    0 -0.30031242441E+03 -0.48720344066E+03 -0.11384226540E+04  0.15893586392E+04  0.95000000000E+03 0.  0.
<mgrwt>
<rscale>  0 0.23896574E+04</rscale>
<asrwt>0</asrwt>
<pdfrwt beam="2">  1        2 0.30587330E+00 0.23896574E+04</pdfrwt>
<pdfrwt beam="1">  1       -2 0.11046966E+00 0.23896574E+04</pdfrwt>
<totfact> 0.39696587E+00</totfact>
</mgrwt>
</event>
<event>
 4    1  0.1321115E-008  0.2654753E+04  0.7816531E-02  0.8349837E-01
          2   -1    0    0  501    0  0.00000000000E+00  0.00000000000E+00  0.16548689257E+04  0.16548689257E+04  0.00000000000E+00 0.  1.
         -2   -1    0    0    0  501 -0.00000000000E+00 -0.00000000000E+00 -0.10646934085E+04  0.10646934085E+04  0.00000000000E+00 0. -1.
    2000013    1    1    2    0    0 -0.24135733464E+03 -0.70555131238E+03 -0.26915072038E+03  0.12373350911E+04  0.95000000000E+03 0.  0.
   -2000013    1    1    2    0    0  0.24135733464E+03  0.70555131238E+03  0.85932623760E+03  0.14822272430E+04  0.95000000000E+03 0.  0.
<mgrwt>
<rscale>  0 0.26547527E+04</rscale>
<asrwt>0</asrwt>
<pdfrwt beam="1">  1        2 0.25459522E+00 0.26547527E+04</pdfrwt>
<pdfrwt beam="2">  1       -2 0.16379899E+00 0.26547527E+04</pdfrwt>
<totfact> 0.21619104E+00</totfact>
</mgrwt>
</event>
<event>
 4    1  0.1321115E-008  0.3108158E+04  0.7816531E-02  0.8213503E-01
         -2   -1    0    0    0  501 -0.00000000000E+00  0.00000000000E+00  0.12380295930E+04  0.12380295930E+04  0.00000000000E+00 0. -1.
          2   -1    0    0  501    0  0.00000000000E+00 -0.00000000000E+00 -0.19508105194E+04  0.19508105194E+04  0.00000000000E+00 0.  1.
    2000013    1    1    2    0    0  0.11775851165E+04 -0.19271395384E+03 -0.66214629915E+03  0.16627636922E+04  0.95000000000E+03 0.  0.
   -2000013    1    1    2    0    0 -0.11775851165E+04  0.19271395384E+03 -0.50634627239E+02  0.15260764201E+04  0.95000000000E+03 0.  0.
<mgrwt>
<rscale>  0 0.31081578E+04</rscale>
<asrwt>0</asrwt>
<pdfrwt beam="2">  1        2 0.30012469E+00 0.31081578E+04</pdfrwt>
<pdfrwt beam="1">  1       -2 0.19046609E+00 0.31081578E+04</pdfrwt>
<totfact> 0.92914724E-01</totfact>
</mgrwt>
</event>
<event>
 4    1  0.1321115E-008  0.3612426E+04  0.7816531E-02  0.8087651E-01
          2   -1    0    0  501    0  0.00000000000E+00  0.00000000000E+00  0.23992712012E+04  0.23992712012E+04  0.00000000000E+00 0.  1.
         -2   -1    0    0    0  501 -0.00000000000E+00 -0.00000000000E+00 -0.13597482997E+04  0.13597482997E+04  0.00000000000E+00 0. -1.
    2000013    1    1    2    0    0 -0.57005687680E+03  0.11694327268E+04 -0.33031517824E+03  0.16444287343E+04  0.95000000000E+03 0.  0.
   -2000013    1    1    2    0    0  0.57005687680E+03 -0.11694327268E+04  0.13698380797E+04  0.21145907665E+04  0.95000000000E+03 0.  0.
<mgrwt>
<rscale>  0 0.36124257E+04</rscale>
<asrwt>0</asrwt>
<pdfrwt beam="1">  1        2 0.36911865E+00 0.36124257E+04</pdfrwt>
<pdfrwt beam="2">  1       -2 0.20919205E+00 0.36124257E+04</pdfrwt>
<totfact> 0.37547194E-01</totfact>
</mgrwt>
</event>
<event>
 4    1  0.1321115E-008  0.3225991E+04  0.7816531E-02  0.8181986E-01
          2   -1    0    0  501    0  0.00000000000E+00  0.00000000000E+00  0.21890243685E+04  0.21890243685E+04  0.00000000000E+00 0.  1.
         -2   -1    0    0    0  501 -0.00000000000E+00 -0.00000000000E+00 -0.11885455894E+04  0.11885455894E+04  0.00000000000E+00 0. -1.
    2000013    1    1    2    0    0 -0.95673460552E+03 -0.27460426054E+03  0.13815177440E+04  0.19498307317E+04  0.95000000000E+03 0.  0.
   -2000013    1    1    2    0    0  0.95673460552E+03  0.27460426054E+03 -0.38103896491E+03  0.14277392262E+04  0.95000000000E+03 0.  0.
<mgrwt>
<rscale>  0 0.32259915E+04</rscale>
<asrwt>0</asrwt>
<pdfrwt beam="1">  1        2 0.33677298E+00 0.32259915E+04</pdfrwt>
<pdfrwt beam="2">  1       -2 0.18285317E+00 0.32259915E+04</pdfrwt>
<totfact> 0.76275480E-01</totfact>
</mgrwt>
</event>
<event>
 4    1  0.1321115E-008  0.2943987E+04  0.7816531E-02  0.8259909E-01
          2   -1    0    0  501    0  0.00000000000E+00  0.00000000000E+00  0.48925783559E+04  0.48925783559E+04  0.00000000000E+00 0. -1.
         -2   -1    0    0    0  501 -0.00000000000E+00 -0.00000000000E+00 -0.44286780889E+03  0.44286780889E+03  0.00000000000E+00 0.  1.
    2000013    1    1    2    0    0 -0.61429290835E+03  0.40111765810E+03  0.68064163658E+03  0.13798638304E+04  0.95000000000E+03 0.  0.
   -2000013    1    1    2    0    0  0.61429290835E+03 -0.40111765810E+03  0.37690689104E+04  0.39555823344E+04  0.95000000000E+03 0.  0.
<mgrwt>
<rscale>  0 0.29439874E+04</rscale>
<asrwt>0</asrwt>
<pdfrwt beam="1">  1        2 0.75270433E+00 0.29439874E+04</pdfrwt>
<pdfrwt beam="2">  1       -2 0.68133512E-01 0.29439874E+04</pdfrwt>
<totfact> 0.78846963E-02</totfact>
</mgrwt>
</event>
<event>
 4    1  0.1321115E-008  0.2365426E+04  0.7816531E-02  0.8452562E-01
         -2   -1    0    0    0  501 -0.00000000000E+00  0.00000000000E+00  0.85827598491E+03  0.85827598491E+03  0.00000000000E+00 0. -1.
          2   -1    0    0  501    0  0.00000000000E+00 -0.00000000000E+00 -0.16297900975E+04  0.16297900975E+04  0.00000000000E+00 0.  1.
    2000013    1    1    2    0    0  0.53597952857E+03 -0.45697936810E+03 -0.40083568774E+03  0.12487087116E+04  0.95000000000E+03 0.  0.
   -2000013    1    1    2    0    0 -0.53597952857E+03  0.45697936810E+03 -0.37067842487E+03  0.12393573708E+04  0.95000000000E+03 0.  0.
<mgrwt>
<rscale>  0 0.23654257E+04</rscale>
<asrwt>0</asrwt>
<pdfrwt beam="2">  1        2 0.25073694E+00 0.23654257E+04</pdfrwt>
<pdfrwt beam="1">  1       -2 0.13204246E+00 0.23654257E+04</pdfrwt>
<totfact> 0.40406842E+00</totfact>
</mgrwt>
</event>
<event>
 4    1  0.1321115E-008  0.3101118E+04  0.7816531E-02  0.8215431E-01
         -2   -1    0    0    0  501 -0.00000000000E+00  0.00000000000E+00  0.16543122631E+04  0.16543122631E+04  0.00000000000E+00 0. -1.
          2   -1    0    0  501    0  0.00000000000E+00 -0.00000000000E+00 -0.14533130306E+04  0.14533130306E+04  0.00000000000E+00 0.  1.
    2000013    1    1    2    0    0 -0.18482916879E+03  0.10886980303E+04 -0.43194223189E+03  0.15193746459E+04  0.95000000000E+03 0.  0.
   -2000013    1    1    2    0    0  0.18482916879E+03 -0.10886980303E+04  0.63294146437E+03  0.15882506478E+04  0.95000000000E+03 0.  0.
<mgrwt>
<rscale>  0 0.31011182E+04</rscale>
<asrwt>0</asrwt>
<pdfrwt beam="2">  1        2 0.22358662E+00 0.31011182E+04</pdfrwt>
<pdfrwt beam="1">  1       -2 0.25450958E+00 0.31011182E+04</pdfrwt>
<totfact> 0.69051457E-01</totfact>
</mgrwt>
</event>
<event>
 4    1  0.1321115E-008  0.3069012E+04  0.7816531E-02  0.8224294E-01
          2   -1    0    0  501    0  0.00000000000E+00  0.00000000000E+00  0.22903017236E+04  0.22903017236E+04  0.00000000000E+00 0.  1.
         -2   -1    0    0    0  501 -0.00000000000E+00 -0.00000000000E+00 -0.10281216408E+04  0.10281216408E+04  0.00000000000E+00 0. -1.
    2000013    1    1    2    0    0 -0.10689724204E+04 -0.52671910099E+03  0.43744434126E+03  0.15855575040E+04  0.95000000000E+03 0.  0.
   -2000013    1    1    2    0    0  0.10689724204E+04  0.52671910099E+03  0.82473574152E+03  0.17328658604E+04  0.95000000000E+03 0.  0.
<mgrwt>
<rscale>  0 0.30690121E+04</rscale>
<asrwt>0</asrwt>
<pdfrwt beam="1">  1        2 0.35235411E+00 0.30690121E+04</pdfrwt>
<pdfrwt beam="2">  1       -2 0.15817256E+00 0.30690121E+04</pdfrwt>
<totfact> 0.10156101E+00</totfact>
</mgrwt>
</event>
<event>
 4    1  0.1321115E-008  0.2070838E+04  0.7816531E-02  0.8574199E-01
          2   -1    0    0  501    0  0.00000000000E+00  0.00000000000E+00  0.24242381290E+04  0.24242381290E+04  0.00000000000E+00 0.  1.
         -2   -1    0    0    0  501 -0.00000000000E+00 -0.00000000000E+00 -0.44223890964E+03  0.44223890964E+03  0.00000000000E+00 0. -1.
    2000013    1    1    2    0    0 -0.13690257509E+03  0.37119180278E+03  0.11492286779E+04  0.15426445552E+04  0.95000000000E+03 0.  0.
   -2000013    1    1    2    0    0  0.13690257509E+03 -0.37119180278E+03  0.83277054146E+03  0.13238324835E+04  0.95000000000E+03 0.  0.
<mgrwt>
<rscale>  0 0.20708379E+04</rscale>
<asrwt>0</asrwt>
<pdfrwt beam="1">  1        2 0.37295970E+00 0.20708379E+04</pdfrwt>
<pdfrwt beam="2">  1       -2 0.68036757E-01 0.20708379E+04</pdfrwt>
<totfact> 0.70358435E+00</totfact>
</mgrwt>
</event>
<event>
 4    1  0.1321115E-008  0.2034732E+04  0.7816531E-02  0.8590552E-01
          2   -1    0    0  501    0  0.00000000000E+00  0.00000000000E+00  0.49269442447E+03  0.49269442447E+03  0.00000000000E+00 0. -1.
         -2   -1    0    0    0  501 -0.00000000000E+00 -0.00000000000E+00 -0.21007616906E+04  0.21007616906E+04  0.00000000000E+00 0.  1.
    2000013    1    1    2    0    0  0.25279833746E+03  0.68817028982E+02 -0.48185939074E+03  0.10969645643E+04  0.95000000000E+03 0.  0.
   -2000013    1    1    2    0    0 -0.25279833746E+03 -0.68817028982E+02 -0.11262078754E+04  0.14964915508E+04  0.95000000000E+03 0.  0.
<mgrwt>
<rscale>  0 0.20347320E+04</rscale>
<asrwt>0</asrwt>
<pdfrwt beam="1">  1        2 0.75799142E-01 0.20347320E+04</pdfrwt>
<pdfrwt beam="2">  1       -2 0.32319411E+00 0.20347320E+04</pdfrwt>
<totfact> 0.13298800E+00</totfact>
</mgrwt>
</event>
<event>
 4    1  0.1321115E-008  0.2790618E+04  0.7816531E-02  0.8306187E-01
         -2   -1    0    0    0  501 -0.00000000000E+00  0.00000000000E+00  0.60531587086E+03  0.60531587086E+03  0.00000000000E+00 0. -1.
          2   -1    0    0  501    0  0.00000000000E+00 -0.00000000000E+00 -0.32163157239E+04  0.32163157239E+04  0.00000000000E+00 0.  1.
    2000013    1    1    2    0    0 -0.95936155874E+03  0.35976572316E+02 -0.82576354015E+03  0.15830522223E+04  0.95000000000E+03 0.  0.
   -2000013    1    1    2    0    0  0.95936155874E+03 -0.35976572316E+02 -0.17852363129E+04  0.22385793725E+04  0.95000000000E+03 0.  0.
<mgrwt>
<rscale>  0 0.27906178E+04</rscale>
<asrwt>0</asrwt>
<pdfrwt beam="2">  1        2 0.49481780E+00 0.27906178E+04</pdfrwt>
<pdfrwt beam="1">  1       -2 0.93125519E-01 0.27906178E+04</pdfrwt>
<totfact> 0.10754261E+00</totfact>
</mgrwt>
</event>
<event>
 4    1  0.1321115E-008  0.2038466E+04  0.7816531E-02  0.8588845E-01
         -1   -1    0    0    0  501 -0.00000000000E+00  0.00000000000E+00  0.14052113215E+04  0.14052113215E+04  0.00000000000E+00 0. -1.
          1   -1    0    0  501    0  0.00000000000E+00 -0.00000000000E+00 -0.73927382141E+03  0.73927382141E+03  0.00000000000E+00 0.  1.
    2000013    1    1    2    0    0  0.13129681577E+03 -0.14356243631E+03  0.28206269571E+01  0.96972005387E+03  0.95000000000E+03 0.  0.
   -2000013    1    1    2    0    0 -0.13129681577E+03  0.14356243631E+03  0.66311687309E+03  0.11747650890E+04  0.95000000000E+03 0.  0.
<mgrwt>
<rscale>  0 0.20384660E+04</rscale>
<asrwt>0</asrwt>
<pdfrwt beam="2">  1        1 0.11373443E+00 0.20384660E+04</pdfrwt>
<pdfrwt beam="1">  1       -1 0.21618636E+00 0.20384660E+04</pdfrwt>
<totfact> 0.27033712E+00</totfact>
</mgrwt>
</event>
<event>
 4    1  0.1321115E-008  0.2380699E+04  0.7816531E-02  0.8446765E-01
          2   -1    0    0  501    0  0.00000000000E+00  0.00000000000E+00  0.29440065730E+04  0.29440065730E+04  0.00000000000E+00 0.  1.
         -2   -1    0    0    0  501 -0.00000000000E+00 -0.00000000000E+00 -0.48129369698E+03  0.48129369698E+03  0.00000000000E+00 0. -1.
    2000013    1    1    2    0    0 -0.23181037084E+02 -0.61290271296E+03  0.17663129044E+04  0.20972716496E+04  0.95000000000E+03 0.  0.
   -2000013    1    1    2    0    0  0.23181037084E+02  0.61290271296E+03  0.69639997163E+03  0.13280286204E+04  0.95000000000E+03 0.  0.
<mgrwt>
<rscale>  0 0.23806989E+04</rscale>
<asrwt>0</asrwt>
<pdfrwt beam="1">  1        2 0.45292408E+00 0.23806989E+04</pdfrwt>
<pdfrwt beam="2">  1       -2 0.74045186E-01 0.23806989E+04</pdfrwt>
<totfact> 0.27932111E+00</totfact>
</mgrwt>
</event>
<event>
 4    1  0.1321115E-008  0.2768096E+04  0.7816531E-02  0.8313242E-01
          2   -1    0    0  501    0  0.00000000000E+00  0.00000000000E+00  0.13332808110E+04  0.13332808110E+04  0.00000000000E+00 0.  1.
         -2   -1    0    0    0  501 -0.00000000000E+00 -0.00000000000E+00 -0.14367479873E+04  0.14367479873E+04  0.00000000000E+00 0. -1.
    2000013    1    1    2    0    0 -0.48862957129E+03 -0.86601716707E+03  0.10440078391E+03  0.13791824083E+04  0.95000000000E+03 0.  0.
   -2000013    1    1    2    0    0  0.48862957129E+03  0.86601716707E+03 -0.20786796022E+03  0.13908463900E+04  0.95000000000E+03 0.  0.
<mgrwt>
<rscale>  0 0.27680958E+04</rscale>
<asrwt>0</asrwt>
<pdfrwt beam="1">  1        2 0.20512012E+00 0.27680958E+04</pdfrwt>
<pdfrwt beam="2">  1       -2 0.22103815E+00 0.27680958E+04</pdfrwt>
<totfact> 0.13428401E+00</totfact>
</mgrwt>
</event>
<event>
 4    1  0.1321115E-008  0.2462466E+04  0.7816531E-02  0.8416481E-01
         -2   -1    0    0    0  501 -0.00000000000E+00  0.00000000000E+00  0.61115081891E+03  0.61115081891E+03  0.00000000000E+00 0. -1.
          2   -1    0    0  501    0  0.00000000000E+00 -0.00000000000E+00 -0.24804586297E+04  0.24804586297E+04  0.00000000000E+00 0.  1.
    2000013    1    1    2    0    0  0.50430034950E+03 -0.59625279116E+03 -0.85934429359E+03  0.15002695919E+04  0.95000000000E+03 0.  0.
   -2000013    1    1    2    0    0 -0.50430034950E+03  0.59625279116E+03 -0.10099635172E+04  0.15913398567E+04  0.95000000000E+03 0.  0.
<mgrwt>
<rscale>  0 0.24624657E+04</rscale>
<asrwt>0</asrwt>
<pdfrwt beam="2">  1        2 0.38160903E+00 0.24624657E+04</pdfrwt>
<pdfrwt beam="1">  1       -2 0.94023200E-01 0.24624657E+04</pdfrwt>
<totfact> 0.30515902E+00</totfact>
</mgrwt>
</event>
<event>
 4    1  0.1321115E-008  0.2453867E+04  0.7816531E-02  0.8419607E-01
         -2   -1    0    0    0  501 -0.00000000000E+00  0.00000000000E+00  0.95201105340E+03  0.95201105340E+03  0.00000000000E+00 0. -1.
          2   -1    0    0  501    0  0.00000000000E+00 -0.00000000000E+00 -0.15812487300E+04  0.15812487300E+04  0.00000000000E+00 0.  1.
    2000013    1    1    2    0    0 -0.40220731127E+03 -0.65963565817E+03 -0.23481082098E+03  0.12468063380E+04  0.95000000000E+03 0.  0.
   -2000013    1    1    2    0    0  0.40220731127E+03  0.65963565817E+03 -0.39442685561E+03  0.12864534454E+04  0.95000000000E+03 0.  0.
<mgrwt>
<rscale>  0 0.24538674E+04</rscale>
<asrwt>0</asrwt>
<pdfrwt beam="2">  1        2 0.24326903E+00 0.24538674E+04</pdfrwt>
<pdfrwt beam="1">  1       -2 0.14646324E+00 0.24538674E+04</pdfrwt>
<totfact> 0.32647863E+00</totfact>
</mgrwt>
</event>
<event>
 4    1  0.1321115E-008  0.2220948E+04  0.7816531E-02  0.8509760E-01
         -2   -1    0    0    0  501 -0.00000000000E+00  0.00000000000E+00  0.13396886915E+04  0.13396886915E+04  0.00000000000E+00 0. -1.
          2   -1    0    0  501    0  0.00000000000E+00 -0.00000000000E+00 -0.92047652474E+03  0.92047652474E+03  0.00000000000E+00 0.  1.
    2000013    1    1    2    0    0 -0.38284955691E+03  0.23165180253E+03 -0.15790187011E+03  0.10619177658E+04  0.95000000000E+03 0.  0.
   -2000013    1    1    2    0    0  0.38284955691E+03 -0.23165180253E+03  0.57711403689E+03  0.11982474504E+04  0.95000000000E+03 0.  0.
<mgrwt>
<rscale>  0 0.22209475E+04</rscale>
<asrwt>0</asrwt>
<pdfrwt beam="2">  1        2 0.14161177E+00 0.22209475E+04</pdfrwt>
<pdfrwt beam="1">  1       -2 0.20610595E+00 0.22209475E+04</pdfrwt>
<totfact> 0.31438719E+00</totfact>
</mgrwt>
</event>
<event>
 4    1  0.1321115E-008  0.3822782E+04  0.7816531E-02  0.8041284E-01
         -2   -1    0    0    0  501 -0.00000000000E+00  0.00000000000E+00  0.13806219343E+04  0.13806219343E+04  0.00000000000E+00 0. -1.
          2   -1    0    0  501    0  0.00000000000E+00 -0.00000000000E+00 -0.26462097115E+04  0.26462097115E+04  0.00000000000E+00 0.  1.
    2000013    1    1    2    0    0 -0.27890208067E+03  0.15896964794E+04 -0.23030738397E+03  0.18869188531E+04  0.95000000000E+03 0.  0.
   -2000013    1    1    2    0    0  0.27890208067E+03 -0.15896964794E+04 -0.10352803933E+04  0.21399127926E+04  0.95000000000E+03 0.  0.
<mgrwt>
<rscale>  0 0.38227818E+04</rscale>
<asrwt>0</asrwt>
<pdfrwt beam="2">  1        2 0.40710918E+00 0.38227818E+04</pdfrwt>
<pdfrwt beam="1">  1       -2 0.21240338E+00 0.38227818E+04</pdfrwt>
<totfact> 0.25273607E-01</totfact>
</mgrwt>
</event>
<event>
 4    1  0.1321115E-008  0.2481222E+04  0.7816531E-02  0.8409706E-01
         -2   -1    0    0    0  501 -0.00000000000E+00  0.00000000000E+00  0.60686219421E+03  0.60686219421E+03  0.00000000000E+00 0. -1.
          2   -1    0    0  501    0  0.00000000000E+00 -0.00000000000E+00 -0.25361855090E+04  0.25361855090E+04  0.00000000000E+00 0.  1.
    2000013    1    1    2    0    0  0.52332248670E+02 -0.62031967571E+03 -0.15968621093E+04  0.19595927537E+04  0.95000000000E+03 0.  0.
   -2000013    1    1    2    0    0 -0.52332248670E+02  0.62031967571E+03 -0.33246120550E+03  0.11834549495E+04  0.95000000000E+03 0.  0.
<mgrwt>
<rscale>  0 0.24812216E+04</rscale>
<asrwt>0</asrwt>
<pdfrwt beam="2">  1        2 0.39018239E+00 0.24812216E+04</pdfrwt>
<pdfrwt beam="1">  1       -2 0.93363414E-01 0.24812216E+04</pdfrwt>
<totfact> 0.28749113E+00</totfact>
</mgrwt>
</event>
<event>
 4    1  0.1321115E-008  0.3022756E+04  0.7816531E-02  0.8237262E-01
         -2   -1    0    0    0  501 -0.00000000000E+00  0.00000000000E+00  0.68410519947E+03  0.68410519947E+03  0.00000000000E+00 0. -1.
          2   -1    0    0  501    0  0.00000000000E+00 -0.00000000000E+00 -0.33390529804E+04  0.33390529804E+04  0.00000000000E+00 0.  1.
    2000013    1    1    2    0    0  0.89661936840E+03  0.72891782776E+03 -0.16145289839E+04  0.22010114337E+04  0.95000000000E+03 0.  0.
   -2000013    1    1    2    0    0 -0.89661936840E+03 -0.72891782776E+03 -0.10404187971E+04  0.18221467462E+04  0.95000000000E+03 0.  0.
<mgrwt>
<rscale>  0 0.30227560E+04</rscale>
<asrwt>0</asrwt>
<pdfrwt beam="2">  1        2 0.51370046E+00 0.30227560E+04</pdfrwt>
<pdfrwt beam="1">  1       -2 0.10524695E+00 0.30227560E+04</pdfrwt>
<totfact> 0.65438767E-01</totfact>
</mgrwt>
</event>
<event>
 4    1  0.1321115E-008  0.2634729E+04  0.7816531E-02  0.8356499E-01
          2   -1    0    0  501    0  0.00000000000E+00  0.00000000000E+00  0.21541318376E+04  0.21541318376E+04  0.00000000000E+00 0.  1.
         -2   -1    0    0    0  501 -0.00000000000E+00 -0.00000000000E+00 -0.80563766416E+03  0.80563766416E+03  0.00000000000E+00 0. -1.
    2000013    1    1    2    0    0  0.59476166316E+03  0.69164123469E+03  0.70681909816E+03  0.14947248145E+04  0.95000000000E+03 0.  0.
   -2000013    1    1    2    0    0 -0.59476166316E+03 -0.69164123469E+03  0.64167507526E+03  0.14650446873E+04  0.95000000000E+03 0.  0.
<mgrwt>
<rscale>  0 0.26347294E+04</rscale>
<asrwt>0</asrwt>
<pdfrwt beam="1">  1        2 0.33140490E+00 0.26347294E+04</pdfrwt>
<pdfrwt beam="2">  1       -2 0.12394426E+00 0.26347294E+04</pdfrwt>
<totfact> 0.23671329E+00</totfact>
</mgrwt>
</event>
<event>
 4    1  0.1321115E-008  0.2145617E+04  0.7816531E-02  0.8541411E-01
          2   -1    0    0  501    0  0.00000000000E+00  0.00000000000E+00  0.11037240019E+04  0.11037240019E+04  0.00000000000E+00 0.  1.
         -2   -1    0    0    0  501 -0.00000000000E+00 -0.00000000000E+00 -0.10427592688E+04  0.10427592688E+04  0.00000000000E+00 0. -1.
    2000013    1    1    2    0    0 -0.10384704474E+03 -0.31835751807E+03  0.39979624499E+03  0.10837309424E+04  0.95000000000E+03 0.  0.
   -2000013    1    1    2    0    0  0.10384704474E+03  0.31835751807E+03 -0.33883151189E+03  0.10627523284E+04  0.95000000000E+03 0.  0.
<mgrwt>
<rscale>  0 0.21456173E+04</rscale>
<asrwt>0</asrwt>
<pdfrwt beam="1">  1        2 0.16980369E+00 0.21456173E+04</pdfrwt>
<pdfrwt beam="2">  1       -2 0.16042450E+00 0.21456173E+04</pdfrwt>
<totfact> 0.49755842E+00</totfact>
</mgrwt>
</event>
<event>
 4    1  0.1321115E-008  0.2218802E+04  0.7816531E-02  0.8510643E-01
         -1   -1    0    0    0  501 -0.00000000000E+00  0.00000000000E+00  0.58053217978E+03  0.58053217978E+03  0.00000000000E+00 0. -1.
          1   -1    0    0  501    0  0.00000000000E+00 -0.00000000000E+00 -0.21200739066E+04  0.21200739066E+04  0.00000000000E+00 0.  1.
    2000013    1    1    2    0    0  0.62936433590E+02  0.53755200877E+03 -0.54093460794E+03  0.12198497477E+04  0.95000000000E+03 0.  0.
   -2000013    1    1    2    0    0 -0.62936433590E+02 -0.53755200877E+03 -0.99860711893E+03  0.14807563388E+04  0.95000000000E+03 0.  0.
<mgrwt>
<rscale>  0 0.22188025E+04</rscale>
<asrwt>0</asrwt>
<pdfrwt beam="2">  1        1 0.32616521E+00 0.22188025E+04</pdfrwt>
<pdfrwt beam="1">  1       -1 0.89312644E-01 0.22188025E+04</pdfrwt>
<totfact> 0.27611497E+00</totfact>
</mgrwt>
</event>
<event>
 4    1  0.1321115E-008  0.2778135E+04  0.7816531E-02  0.8310089E-01
         -2   -1    0    0    0  501 -0.00000000000E+00  0.00000000000E+00  0.70698454468E+03  0.70698454468E+03  0.00000000000E+00 0. -1.
          2   -1    0    0  501    0  0.00000000000E+00 -0.00000000000E+00 -0.27292086356E+04  0.27292086356E+04  0.00000000000E+00 0.  1.
    2000013    1    1    2    0    0 -0.34085572397E+03 -0.63463902820E+03 -0.18927318221E+04  0.22369360901E+04  0.95000000000E+03 0.  0.
   -2000013    1    1    2    0    0  0.34085572397E+03  0.63463902820E+03 -0.12949226881E+03  0.11992570902E+04  0.95000000000E+03 0.  0.
<mgrwt>
<rscale>  0 0.27781349E+04</rscale>
<asrwt>0</asrwt>
<pdfrwt beam="2">  1        2 0.41987826E+00 0.27781349E+04</pdfrwt>
<pdfrwt beam="1">  1       -2 0.10876685E+00 0.27781349E+04</pdfrwt>
<totfact> 0.15009014E+00</totfact>
</mgrwt>
</event>
<event>
 4    1  0.1321115E-008  0.2074658E+04  0.7816531E-02  0.8572490E-01
         -1   -1    0    0    0  501 -0.00000000000E+00  0.00000000000E+00  0.92230942638E+03  0.92230942638E+03  0.00000000000E+00 0.  1.
          1   -1    0    0  501    0  0.00000000000E+00 -0.00000000000E+00 -0.11666920022E+04  0.11666920022E+04  0.00000000000E+00 0. -1.
    2000013    1    1    2    0    0  0.27219918042E+03 -0.38925431018E+02  0.19293163958E+03  0.10076359464E+04  0.95000000000E+03 0.  0.
   -2000013    1    1    2    0    0 -0.27219918042E+03  0.38925431018E+02 -0.43731421543E+03  0.10813654822E+04  0.95000000000E+03 0.  0.
<mgrwt>
<rscale>  0 0.20746576E+04</rscale>
<asrwt>0</asrwt>
<pdfrwt beam="2">  1        1 0.17949108E+00 0.20746576E+04</pdfrwt>
<pdfrwt beam="1">  1       -1 0.14189376E+00 0.20746576E+04</pdfrwt>
<totfact> 0.42167779E+00</totfact>
</mgrwt>
</event>
<event>
 4    1  0.1321115E-008  0.2062974E+04  0.7816531E-02  0.8577731E-01
          1   -1    0    0  501    0  0.00000000000E+00  0.00000000000E+00  0.69870214610E+03  0.69870214610E+03  0.00000000000E+00 0.  1.
         -1   -1    0    0    0  501 -0.00000000000E+00 -0.00000000000E+00 -0.15227742174E+04  0.15227742174E+04  0.00000000000E+00 0. -1.
    2000013    1    1    2    0    0 -0.30413294354E+03 -0.13738776636E+03 -0.17102439385E+03  0.10213332409E+04  0.95000000000E+03 0.  0.
   -2000013    1    1    2    0    0  0.30413294354E+03  0.13738776636E+03 -0.65304767746E+03  0.12001431226E+04  0.95000000000E+03 0.  0.
<mgrwt>
<rscale>  0 0.20629742E+04</rscale>
<asrwt>0</asrwt>
<pdfrwt beam="1">  1        1 0.10749264E+00 0.20629742E+04</pdfrwt>
<pdfrwt beam="2">  1       -1 0.23427296E+00 0.20629742E+04</pdfrwt>
<totfact> 0.22290418E+00</totfact>
</mgrwt>
</event>
<event>
 4    1  0.1321115E-008  0.2053195E+04  0.7816531E-02  0.8582146E-01
          2   -1    0    0  501    0  0.00000000000E+00  0.00000000000E+00  0.13433389333E+04  0.13433389333E+04  0.00000000000E+00 0.  1.
         -2   -1    0    0    0  501 -0.00000000000E+00 -0.00000000000E+00 -0.78453928967E+03  0.78453928967E+03  0.00000000000E+00 0. -1.
    2000013    1    1    2    0    0 -0.21198548452E+03 -0.32416885986E+03  0.24091589186E+03  0.10538328911E+04  0.95000000000E+03 0.  0.
   -2000013    1    1    2    0    0  0.21198548452E+03  0.32416885986E+03  0.31788375179E+03  0.10740453319E+04  0.95000000000E+03 0.  0.
<mgrwt>
<rscale>  0 0.20531948E+04</rscale>
<asrwt>0</asrwt>
<pdfrwt beam="1">  1        2 0.20666753E+00 0.20531948E+04</pdfrwt>
<pdfrwt beam="2">  1       -2 0.12069835E+00 0.20531948E+04</pdfrwt>
<totfact> 0.75542022E+00</totfact>
</mgrwt>
</event>
<event>
 4    1  0.1321115E-008  0.2712907E+04  0.7816531E-02  0.8330829E-01
         -2   -1    0    0    0  501 -0.00000000000E+00  0.00000000000E+00  0.11804238953E+04  0.11804238953E+04  0.00000000000E+00 0. -1.
          2   -1    0    0  501    0  0.00000000000E+00 -0.00000000000E+00 -0.15587335363E+04  0.15587335363E+04  0.00000000000E+00 0.  1.
    2000013    1    1    2    0    0  0.43528979312E+03 -0.58543126712E+03  0.45360478972E+03  0.12808061047E+04  0.95000000000E+03 0.  0.
   -2000013    1    1    2    0    0 -0.43528979312E+03  0.58543126712E+03 -0.83191443074E+03  0.14583513269E+04  0.95000000000E+03 0.  0.
<mgrwt>
<rscale>  0 0.27129072E+04</rscale>
<asrwt>0</asrwt>
<pdfrwt beam="2">  1        2 0.23980516E+00 0.27129072E+04</pdfrwt>
<pdfrwt beam="1">  1       -2 0.18160368E+00 0.27129072E+04</pdfrwt>
<totfact> 0.18224269E+00</totfact>
</mgrwt>
</event>
<event>
 4    1  0.1321115E-008  0.3348442E+04  0.7816531E-02  0.8150677E-01
          2   -1    0    0  501    0  0.00000000000E+00  0.00000000000E+00  0.84610198906E+03  0.84610198906E+03  0.00000000000E+00 0.  1.
         -2   -1    0    0    0  501 -0.00000000000E+00 -0.00000000000E+00 -0.33128586501E+04  0.33128586501E+04  0.00000000000E+00 0. -1.
    2000013    1    1    2    0    0  0.77704975145E+03  0.66295176937E+03 -0.23833425643E+04  0.27615454266E+04  0.95000000000E+03 0.  0.
   -2000013    1    1    2    0    0 -0.77704975145E+03 -0.66295176937E+03 -0.83414096800E+02  0.13974152126E+04  0.95000000000E+03 0.  0.
<mgrwt>
<rscale>  0 0.33484422E+04</rscale>
<asrwt>0</asrwt>
<pdfrwt beam="1">  1        2 0.13016954E+00 0.33484422E+04</pdfrwt>
<pdfrwt beam="2">  1       -2 0.50967057E+00 0.33484422E+04</pdfrwt>
<totfact> 0.38150354E-02</totfact>
</mgrwt>
</event>
<event>
 4    1  0.1321115E-008  0.3181929E+04  0.7816531E-02  0.8193606E-01
         -2   -1    0    0    0  501 -0.00000000000E+00  0.00000000000E+00  0.71326968716E+03  0.71326968716E+03  0.00000000000E+00 0. -1.
          2   -1    0    0  501    0  0.00000000000E+00 -0.00000000000E+00 -0.35486839636E+04  0.35486839636E+04  0.00000000000E+00 0.  1.
    2000013    1    1    2    0    0  0.47136768218E+03 -0.92322912448E+03 -0.24147726537E+04  0.27943096602E+04  0.95000000000E+03 0.  0.
   -2000013    1    1    2    0    0 -0.47136768218E+03  0.92322912448E+03 -0.42064162267E+03  0.14676439905E+04  0.95000000000E+03 0.  0.
<mgrwt>
<rscale>  0 0.31819294E+04</rscale>
<asrwt>0</asrwt>
<pdfrwt beam="2">  1        2 0.54595139E+00 0.31819294E+04</pdfrwt>
<pdfrwt beam="1">  1       -2 0.10973380E+00 0.31819294E+04</pdfrwt>
<totfact> 0.41813030E-01</totfact>
</mgrwt>
</event>
<event>
 4    1  0.1321115E-008  0.2288839E+04  0.7816531E-02  0.8482335E-01
          2   -1    0    0  501    0  0.00000000000E+00  0.00000000000E+00  0.20772484428E+04  0.20772484428E+04  0.00000000000E+00 0.  1.
         -2   -1    0    0    0  501 -0.00000000000E+00 -0.00000000000E+00 -0.63049574360E+03  0.63049574360E+03  0.00000000000E+00 0. -1.
    2000013    1    1    2    0    0 -0.31569502301E+03  0.53925906282E+03  0.57034716164E+03  0.12721083166E+04  0.95000000000E+03 0.  0.
   -2000013    1    1    2    0    0  0.31569502301E+03 -0.53925906282E+03  0.87640553757E+03  0.14356358698E+04  0.95000000000E+03 0.  0.
<mgrwt>
<rscale>  0 0.22888393E+04</rscale>
<asrwt>0</asrwt>
<pdfrwt beam="1">  1        2 0.31957668E+00 0.22888393E+04</pdfrwt>
<pdfrwt beam="2">  1       -2 0.96999346E-01 0.22888393E+04</pdfrwt>
<totfact> 0.48727110E+00</totfact>
</mgrwt>
</event>
<event>
 4    1  0.1321115E-008  0.2806488E+04  0.7816531E-02  0.8301257E-01
          1   -1    0    0  501    0  0.00000000000E+00  0.00000000000E+00  0.28445521502E+04  0.28445521502E+04  0.00000000000E+00 0.  1.
         -1   -1    0    0    0  501 -0.00000000000E+00 -0.00000000000E+00 -0.69223336454E+03  0.69223336454E+03  0.00000000000E+00 0. -1.
    2000013    1    1    2    0    0 -0.19686791101E+03  0.95444888871E+03  0.15069699643E+04  0.20305635003E+04  0.95000000000E+03 0.  0.
   -2000013    1    1    2    0    0  0.19686791101E+03 -0.95444888871E+03  0.64534882137E+03  0.15062220144E+04  0.95000000000E+03 0.  0.
<mgrwt>
<rscale>  0 0.28064881E+04</rscale>
<asrwt>0</asrwt>
<pdfrwt beam="1">  1        1 0.43762340E+00 0.28064881E+04</pdfrwt>
<pdfrwt beam="2">  1       -1 0.10649744E+00 0.28064881E+04</pdfrwt>
<totfact> 0.55157107E-01</totfact>
</mgrwt>
</event>
<event>
 4    1  0.1321115E-008  0.2719788E+04  0.7816531E-02  0.8328613E-01
         -2   -1    0    0    0  501 -0.00000000000E+00  0.00000000000E+00  0.32337115733E+04  0.32337115733E+04  0.00000000000E+00 0. -1.
          2   -1    0    0  501    0  0.00000000000E+00 -0.00000000000E+00 -0.57188517696E+03  0.57188517696E+03  0.00000000000E+00 0.  1.
    2000013    1    1    2    0    0 -0.64683486323E+03  0.12393408756E+03  0.32867627063E+03  0.12017832955E+04  0.95000000000E+03 0.  0.
   -2000013    1    1    2    0    0  0.64683486323E+03 -0.12393408756E+03  0.23331501257E+04  0.26038134548E+04  0.95000000000E+03 0.  0.
<mgrwt>
<rscale>  0 0.27197880E+04</rscale>
<asrwt>0</asrwt>
<pdfrwt beam="2">  1        2 0.87982337E-01 0.27197880E+04</pdfrwt>
<pdfrwt beam="1">  1       -2 0.49749408E+00 0.27197880E+04</pdfrwt>
<totfact> 0.78405681E-02</totfact>
</mgrwt>
</event>
<event>
 4    1  0.1321115E-008  0.2006703E+04  0.7816531E-02  0.8603493E-01
          2   -1    0    0  501    0  0.00000000000E+00  0.00000000000E+00  0.71615303555E+03  0.71615303555E+03  0.00000000000E+00 0.  1.
         -2   -1    0    0    0  501 -0.00000000000E+00 -0.00000000000E+00 -0.14057249596E+04  0.14057249596E+04  0.00000000000E+00 0. -1.
    2000013    1    1    2    0    0 -0.26268901658E+03  0.18638963434E+03 -0.36765069341E+03  0.10683696212E+04  0.95000000000E+03 0.  0.
   -2000013    1    1    2    0    0  0.26268901658E+03 -0.18638963434E+03 -0.32192123068E+03  0.10535083739E+04  0.95000000000E+03 0.  0.
<mgrwt>
<rscale>  0 0.20067030E+04</rscale>
<asrwt>0</asrwt>
<pdfrwt beam="1">  1        2 0.11017739E+00 0.20067030E+04</pdfrwt>
<pdfrwt beam="2">  1       -2 0.21626538E+00 0.20067030E+04</pdfrwt>
<totfact> 0.38557768E+00</totfact>
</mgrwt>
</event>
<event>
 4    1  0.1321115E-008  0.2512431E+04  0.7816531E-02  0.8398570E-01
         -2   -1    0    0    0  501 -0.00000000000E+00  0.00000000000E+00  0.95963599137E+03  0.95963599137E+03  0.00000000000E+00 0. -1.
          2   -1    0    0  501    0  0.00000000000E+00 -0.00000000000E+00 -0.16444542948E+04  0.16444542948E+04  0.00000000000E+00 0.  1.
    2000013    1    1    2    0    0 -0.66839724309E+02 -0.81920658075E+03 -0.33904150592E+03  0.13011595265E+04  0.95000000000E+03 0.  0.
   -2000013    1    1    2    0    0  0.66839724309E+02  0.81920658075E+03 -0.34577679747E+03  0.13029307596E+04  0.95000000000E+03 0.  0.
<mgrwt>
<rscale>  0 0.25124311E+04</rscale>
<asrwt>0</asrwt>
<pdfrwt beam="2">  1        2 0.25299297E+00 0.25124311E+04</pdfrwt>
<pdfrwt beam="1">  1       -2 0.14763631E+00 0.25124311E+04</pdfrwt>
<totfact> 0.29326509E+00</totfact>
</mgrwt>
</event>
<event>
 4    1  0.1321115E-008  0.2397916E+04  0.7816531E-02  0.8440284E-01
          2   -1    0    0  501    0  0.00000000000E+00  0.00000000000E+00  0.11790663008E+04  0.11790663008E+04  0.00000000000E+00 0.  1.
         -2   -1    0    0    0  501 -0.00000000000E+00 -0.00000000000E+00 -0.12191852461E+04  0.12191852461E+04  0.00000000000E+00 0. -1.
    2000013    1    1    2    0    0 -0.61102372425E+02  0.50821582507E+03  0.50249179409E+03  0.11903843194E+04  0.95000000000E+03 0.  0.
   -2000013    1    1    2    0    0  0.61102372425E+02 -0.50821582507E+03 -0.54261073944E+03  0.12078672275E+04  0.95000000000E+03 0.  0.
<mgrwt>
<rscale>  0 0.23979160E+04</rscale>
<asrwt>0</asrwt>
<pdfrwt beam="1">  1        2 0.18139481E+00 0.23979160E+04</pdfrwt>
<pdfrwt beam="2">  1       -2 0.18756696E+00 0.23979160E+04</pdfrwt>
<totfact> 0.28224631E+00</totfact>
</mgrwt>
</event>
<event>
 4    1  0.1321115E-008  0.2417736E+04  0.7816531E-02  0.8432893E-01
          2   -1    0    0  501    0  0.00000000000E+00  0.00000000000E+00  0.15625798229E+04  0.15625798229E+04  0.00000000000E+00 0.  1.
         -2   -1    0    0    0  501 -0.00000000000E+00 -0.00000000000E+00 -0.93522352291E+03  0.93522352291E+03  0.00000000000E+00 0. -1.
    2000013    1    1    2    0    0  0.78422268565E+02 -0.73406557110E+03  0.43530145988E+03  0.12794489735E+04  0.95000000000E+03 0.  0.
   -2000013    1    1    2    0    0 -0.78422268565E+02  0.73406557110E+03  0.19205484013E+03  0.12183543723E+04  0.95000000000E+03 0.  0.
<mgrwt>
<rscale>  0 0.24177356E+04</rscale>
<asrwt>0</asrwt>
<pdfrwt beam="1">  1        2 0.24039690E+00 0.24177356E+04</pdfrwt>
<pdfrwt beam="2">  1       -2 0.14388054E+00 0.24177356E+04</pdfrwt>
<totfact> 0.35150357E+00</totfact>
</mgrwt>
</event>
<event>
 4    1  0.1321115E-008  0.3165024E+04  0.7816531E-02  0.8198116E-01
         -2   -1    0    0    0  501 -0.00000000000E+00  0.00000000000E+00  0.77038467826E+03  0.77038467826E+03  0.00000000000E+00 0. -1.
          2   -1    0    0  501    0  0.00000000000E+00 -0.00000000000E+00 -0.32507715724E+04  0.32507715724E+04  0.00000000000E+00 0.  1.
    2000013    1    1    2    0    0 -0.11795263502E+04  0.31947188655E+03 -0.16586868411E+04  0.22687191835E+04  0.95000000000E+03 0.  0.
   -2000013    1    1    2    0    0  0.11795263502E+04 -0.31947188655E+03 -0.82170005308E+03  0.17524370671E+04  0.95000000000E+03 0.  0.
<mgrwt>
<rscale>  0 0.31650242E+04</rscale>
<asrwt>0</asrwt>
<pdfrwt beam="2">  1        2 0.50011871E+00 0.31650242E+04</pdfrwt>
<pdfrwt beam="1">  1       -2 0.11852072E+00 0.31650242E+04</pdfrwt>
<totfact> 0.55484823E-01</totfact>
</mgrwt>
</event>
<event>
 4    1  0.1321115E-008  0.2124295E+04  0.7816531E-02  0.8550616E-01
         -2   -1    0    0    0  501 -0.00000000000E+00  0.00000000000E+00  0.64544244258E+03  0.64544244258E+03  0.00000000000E+00 0.  1.
          2   -1    0    0  501    0  0.00000000000E+00 -0.00000000000E+00 -0.17478820009E+04  0.17478820009E+04  0.00000000000E+00 0. -1.
    2000013    1    1    2    0    0  0.40392704993E+03 -0.71741005958E+02 -0.82103492742E+03  0.13209474576E+04  0.95000000000E+03 0.  0.
   -2000013    1    1    2    0    0 -0.40392704993E+03  0.71741005958E+02 -0.28140463088E+03  0.10723769859E+04  0.95000000000E+03 0.  0.
<mgrwt>
<rscale>  0 0.21242949E+04</rscale>
<asrwt>0</asrwt>
<pdfrwt beam="2">  1        2 0.26890492E+00 0.21242949E+04</pdfrwt>
<pdfrwt beam="1">  1       -2 0.99298839E-01 0.21242949E+04</pdfrwt>
<totfact> 0.71250494E+00</totfact>
</mgrwt>
</event>
<event>
 4    1  0.1321115E-008  0.2083728E+04  0.7816531E-02  0.8568445E-01
         -2   -1    0    0    0  501 -0.00000000000E+00  0.00000000000E+00  0.92742454618E+03  0.92742454618E+03  0.00000000000E+00 0. -1.
          2   -1    0    0  501    0  0.00000000000E+00 -0.00000000000E+00 -0.11704251948E+04  0.11704251948E+04  0.00000000000E+00 0.  1.
    2000013    1    1    2    0    0  0.41671634549E+03 -0.45561103725E+02 -0.20724042005E+03  0.10588564201E+04  0.95000000000E+03 0.  0.
   -2000013    1    1    2    0    0 -0.41671634549E+03  0.45561103725E+02 -0.35760228555E+02  0.10389933208E+04  0.95000000000E+03 0.  0.
<mgrwt>
<rscale>  0 0.20837284E+04</rscale>
<asrwt>0</asrwt>
<pdfrwt beam="2">  1        2 0.18006541E+00 0.20837284E+04</pdfrwt>
<pdfrwt beam="1">  1       -2 0.14268070E+00 0.20837284E+04</pdfrwt>
<totfact> 0.62246022E+00</totfact>
</mgrwt>
</event>
<event>
 4    1  0.1321115E-008  0.2329917E+04  0.7816531E-02  0.8466218E-01
         -2   -1    0    0    0  501 -0.00000000000E+00  0.00000000000E+00  0.61773138378E+03  0.61773138378E+03  0.00000000000E+00 0. -1.
          2   -1    0    0  501    0  0.00000000000E+00 -0.00000000000E+00 -0.21969560239E+04  0.21969560239E+04  0.00000000000E+00 0.  1.
    2000013    1    1    2    0    0  0.16343749738E+03  0.64872803299E+03 -0.89118169153E+03  0.14643307972E+04  0.95000000000E+03 0.  0.
   -2000013    1    1    2    0    0 -0.16343749738E+03 -0.64872803299E+03 -0.68804294860E+03  0.13503566105E+04  0.95000000000E+03 0.  0.
<mgrwt>
<rscale>  0 0.23299173E+04</rscale>
<asrwt>0</asrwt>
<pdfrwt beam="2">  1        2 0.33799323E+00 0.23299173E+04</pdfrwt>
<pdfrwt beam="1">  1       -2 0.95035598E-01 0.23299173E+04</pdfrwt>
<totfact> 0.43654440E+00</totfact>
</mgrwt>
</event>
<event>
 4    1  0.1321115E-008  0.4364392E+04  0.7816531E-02  0.7934817E-01
          2   -1    0    0  501    0  0.00000000000E+00  0.00000000000E+00  0.26480005484E+04  0.26480005484E+04  0.00000000000E+00 0.  1.
         -2   -1    0    0    0  501 -0.00000000000E+00 -0.00000000000E+00 -0.17983304918E+04  0.17983304918E+04  0.00000000000E+00 0. -1.
    2000013    1    1    2    0    0  0.70043777214E+03  0.14389669713E+04 -0.73596039647E+03  0.20013437292E+04  0.95000000000E+03 0.  0.
   -2000013    1    1    2    0    0 -0.70043777214E+03 -0.14389669713E+04  0.15856304531E+04  0.24449873110E+04  0.95000000000E+03 0.  0.
<mgrwt>
<rscale>  0 0.43643923E+04</rscale>
<asrwt>0</asrwt>
<pdfrwt beam="1">  1        2 0.40738470E+00 0.43643923E+04</pdfrwt>
<pdfrwt beam="2">  1       -2 0.27666623E+00 0.43643923E+04</pdfrwt>
<totfact> 0.96383136E-02</totfact>
</mgrwt>
</event>
<event>
 4    1  0.1321115E-008  0.2493133E+04  0.7816531E-02  0.8405436E-01
         -2   -1    0    0    0  501 -0.00000000000E+00  0.00000000000E+00  0.21223575912E+04  0.21223575912E+04  0.00000000000E+00 0. -1.
          2   -1    0    0  501    0  0.00000000000E+00 -0.00000000000E+00 -0.73217096487E+03  0.73217096487E+03  0.00000000000E+00 0.  1.
    2000013    1    1    2    0    0  0.74208581108E+03  0.13687125959E+03  0.36722073661E+03  0.12675867474E+04  0.95000000000E+03 0.  0.
   -2000013    1    1    2    0    0 -0.74208581108E+03 -0.13687125959E+03  0.10229658897E+04  0.15869418087E+04  0.95000000000E+03 0.  0.
<mgrwt>
<rscale>  0 0.24931335E+04</rscale>
<asrwt>0</asrwt>
<pdfrwt beam="2">  1        2 0.11264169E+00 0.24931335E+04</pdfrwt>
<pdfrwt beam="1">  1       -2 0.32651655E+00 0.24931335E+04</pdfrwt>
<totfact> 0.75354467E-01</totfact>
</mgrwt>
</event>
<event>
 4    1  0.1321115E-008  0.2824468E+04  0.7816531E-02  0.8295712E-01
         -2   -1    0    0    0  501 -0.00000000000E+00  0.00000000000E+00  0.17040632936E+04  0.17040632936E+04  0.00000000000E+00 0. -1.
          2   -1    0    0  501    0  0.00000000000E+00 -0.00000000000E+00 -0.11703818063E+04  0.11703818063E+04  0.00000000000E+00 0.  1.
    2000013    1    1    2    0    0 -0.22845274502E+00  0.10441796274E+04  0.22621536962E+03  0.14296798732E+04  0.95000000000E+03 0.  0.
   -2000013    1    1    2    0    0  0.22845274502E+00 -0.10441796274E+04  0.30746611768E+03  0.14447652266E+04  0.95000000000E+03 0.  0.
<mgrwt>
<rscale>  0 0.28244679E+04</rscale>
<asrwt>0</asrwt>
<pdfrwt beam="2">  1        2 0.18005874E+00 0.28244679E+04</pdfrwt>
<pdfrwt beam="1">  1       -2 0.26216358E+00 0.28244679E+04</pdfrwt>
<totfact> 0.92738936E-01</totfact>
</mgrwt>
</event>
<event>
 4    1  0.1321115E-008  0.2855597E+04  0.7816531E-02  0.8286213E-01
         -1   -1    0    0    0  501 -0.00000000000E+00  0.00000000000E+00  0.18036089178E+04  0.18036089178E+04  0.00000000000E+00 0. -1.
          1   -1    0    0  501    0  0.00000000000E+00 -0.00000000000E+00 -0.11302937826E+04  0.11302937826E+04  0.00000000000E+00 0.  1.
    2000013    1    1    2    0    0  0.36986708025E+03  0.94853321440E+03  0.66089187621E+03  0.15413614073E+04  0.95000000000E+03 0.  0.
   -2000013    1    1    2    0    0 -0.36986708025E+03 -0.94853321440E+03  0.12423258980E+02  0.13925412932E+04  0.95000000000E+03 0.  0.
<mgrwt>
<rscale>  0 0.28555966E+04</rscale>
<asrwt>0</asrwt>
<pdfrwt beam="2">  1        1 0.17389135E+00 0.28555966E+04</pdfrwt>
<pdfrwt beam="1">  1       -1 0.27747829E+00 0.28555966E+04</pdfrwt>
<totfact> 0.47905481E-01</totfact>
</mgrwt>
</event>
<event>
 4    1  0.1321115E-008  0.2103733E+04  0.7816531E-02  0.8559601E-01
          2   -1    0    0  501    0  0.00000000000E+00  0.00000000000E+00  0.20161385995E+04  0.20161385995E+04  0.00000000000E+00 0.  1.
         -2   -1    0    0    0  501 -0.00000000000E+00 -0.00000000000E+00 -0.54878322629E+03  0.54878322629E+03  0.00000000000E+00 0. -1.
    2000013    1    1    2    0    0 -0.40647520009E+03 -0.16422836954E+03  0.86572590036E+03  0.13580038219E+04  0.95000000000E+03 0.  0.
   -2000013    1    1    2    0    0  0.40647520009E+03  0.16422836954E+03  0.60162947290E+03  0.12069180040E+04  0.95000000000E+03 0.  0.
<mgrwt>
<rscale>  0 0.21037329E+04</rscale>
<asrwt>0</asrwt>
<pdfrwt beam="1">  1        2 0.31017517E+00 0.21037329E+04</pdfrwt>
<pdfrwt beam="2">  1       -2 0.84428190E-01 0.21037329E+04</pdfrwt>
<totfact> 0.73764508E+00</totfact>
</mgrwt>
</event>
<event>
 4    1  0.1321115E-008  0.2238587E+04  0.7816531E-02  0.8502537E-01
         -2   -1    0    0    0  501 -0.00000000000E+00  0.00000000000E+00  0.84189966758E+03  0.84189966758E+03  0.00000000000E+00 0. -1.
          2   -1    0    0  501    0  0.00000000000E+00 -0.00000000000E+00 -0.14880846050E+04  0.14880846050E+04  0.00000000000E+00 0.  1.
    2000013    1    1    2    0    0 -0.45673092696E+03 -0.30467236403E+03 -0.92955169672E+02  0.11011671320E+04  0.95000000000E+03 0.  0.
   -2000013    1    1    2    0    0  0.45673092696E+03  0.30467236403E+03 -0.55322976773E+03  0.12288171406E+04  0.95000000000E+03 0.  0.
<mgrwt>
<rscale>  0 0.22385870E+04</rscale>
<asrwt>0</asrwt>
<pdfrwt beam="2">  1        2 0.22893609E+00 0.22385870E+04</pdfrwt>
<pdfrwt beam="1">  1       -2 0.12952303E+00 0.22385870E+04</pdfrwt>
<totfact> 0.51503878E+00</totfact>
</mgrwt>
</event>
<event>
 4    1  0.1321115E-008  0.2464703E+04  0.7816531E-02  0.8415669E-01
         -2   -1    0    0    0  501 -0.00000000000E+00  0.00000000000E+00  0.38299091350E+03  0.38299091350E+03  0.00000000000E+00 0. -1.
          2   -1    0    0  501    0  0.00000000000E+00 -0.00000000000E+00 -0.39653434566E+04  0.39653434566E+04  0.00000000000E+00 0.  1.
    2000013    1    1    2    0    0 -0.76693655362E+03 -0.24188088862E+02 -0.20832837621E+04  0.24148184144E+04  0.95000000000E+03 0.  0.
   -2000013    1    1    2    0    0  0.76693655362E+03  0.24188088862E+02 -0.14990687810E+04  0.19335159557E+04  0.95000000000E+03 0.  0.
<mgrwt>
<rscale>  0 0.24647032E+04</rscale>
<asrwt>0</asrwt>
<pdfrwt beam="2">  1        2 0.61005281E+00 0.24647032E+04</pdfrwt>
<pdfrwt beam="1">  1       -2 0.58921682E-01 0.24647032E+04</pdfrwt>
<totfact> 0.88144182E-01</totfact>
</mgrwt>
</event>
<event>
 4    1  0.1321115E-008  0.2214437E+04  0.7816531E-02  0.8512443E-01
          2   -1    0    0  501    0  0.00000000000E+00  0.00000000000E+00  0.23788985984E+04  0.23788985984E+04  0.00000000000E+00 0.  1.
         -2   -1    0    0    0  501 -0.00000000000E+00 -0.00000000000E+00 -0.51533633648E+03  0.51533633648E+03  0.00000000000E+00 0. -1.
    2000013    1    1    2    0    0 -0.42953641929E+03 -0.35085534523E+03  0.76733007000E+03  0.13412294528E+04  0.95000000000E+03 0.  0.
   -2000013    1    1    2    0    0  0.42953641929E+03  0.35085534523E+03  0.10962321920E+04  0.15530054821E+04  0.95000000000E+03 0.  0.
<mgrwt>
<rscale>  0 0.22144371E+04</rscale>
<asrwt>0</asrwt>
<pdfrwt beam="1">  1        2 0.36598439E+00 0.22144371E+04</pdfrwt>
<pdfrwt beam="2">  1       -2 0.79282515E-01 0.22144371E+04</pdfrwt>
<totfact> 0.52639382E+00</totfact>
</mgrwt>
</event>
<event>
 4    1  0.1321115E-008  0.2301758E+04  0.7816531E-02  0.8477228E-01
          2   -1    0    0  501    0  0.00000000000E+00  0.00000000000E+00  0.20037665160E+04  0.20037665160E+04  0.00000000000E+00 0.  1.
         -2   -1    0    0    0  501 -0.00000000000E+00 -0.00000000000E+00 -0.66101614852E+03  0.66101614852E+03  0.00000000000E+00 0. -1.
    2000013    1    1    2    0    0  0.36152739752E+03 -0.49294925469E+03  0.41688551600E+03  0.12041571992E+04  0.95000000000E+03 0.  0.
   -2000013    1    1    2    0    0 -0.36152739752E+03  0.49294925469E+03  0.92586485150E+03  0.14606254654E+04  0.95000000000E+03 0.  0.
<mgrwt>
<rscale>  0 0.23017576E+04</rscale>
<asrwt>0</asrwt>
<pdfrwt beam="1">  1        2 0.30827177E+00 0.23017576E+04</pdfrwt>
<pdfrwt beam="2">  1       -2 0.10169479E+00 0.23017576E+04</pdfrwt>
<totfact> 0.47829340E+00</totfact>
</mgrwt>
</event>
<event>
 4    1  0.1321115E-008  0.2283906E+04  0.7816531E-02  0.8484294E-01
          2   -1    0    0  501    0  0.00000000000E+00  0.00000000000E+00  0.26044057915E+04  0.26044057915E+04  0.00000000000E+00 0.  1.
         -2   -1    0    0    0  501 -0.00000000000E+00 -0.00000000000E+00 -0.50071199256E+03  0.50071199256E+03  0.00000000000E+00 0. -1.
    2000013    1    1    2    0    0  0.53376215321E+03  0.34110016562E+03  0.10756238915E+04  0.15686676242E+04  0.95000000000E+03 0.  0.
   -2000013    1    1    2    0    0 -0.53376215321E+03 -0.34110016562E+03  0.10280699074E+04  0.15364501599E+04  0.95000000000E+03 0.  0.
<mgrwt>
<rscale>  0 0.22839065E+04</rscale>
<asrwt>0</asrwt>
<pdfrwt beam="1">  1        2 0.40067781E+00 0.22839065E+04</pdfrwt>
<pdfrwt beam="2">  1       -2 0.77032616E-01 0.22839065E+04</pdfrwt>
<totfact> 0.41322049E+00</totfact>
</mgrwt>
</event>
<event>
 4    1  0.1321115E-008  0.2262974E+04  0.7816531E-02  0.8492665E-01
         -2   -1    0    0    0  501 -0.00000000000E+00  0.00000000000E+00  0.66187605489E+03  0.66187605489E+03  0.00000000000E+00 0. -1.
          2   -1    0    0  501    0  0.00000000000E+00 -0.00000000000E+00 -0.19342945213E+04  0.19342945213E+04  0.00000000000E+00 0.  1.
    2000013    1    1    2    0    0 -0.60847397407E+03  0.30405880153E+02 -0.72939811373E+03  0.13437584243E+04  0.95000000000E+03 0.  0.
   -2000013    1    1    2    0    0  0.60847397407E+03 -0.30405880153E+02 -0.54302035268E+03  0.12524121518E+04  0.95000000000E+03 0.  0.
<mgrwt>
<rscale>  0 0.22629743E+04</rscale>
<asrwt>0</asrwt>
<pdfrwt beam="2">  1        2 0.29758377E+00 0.22629743E+04</pdfrwt>
<pdfrwt beam="1">  1       -2 0.10182708E+00 0.22629743E+04</pdfrwt>
<totfact> 0.52283273E+00</totfact>
</mgrwt>
</event>
<event>
 4    1  0.1321115E-008  0.1995638E+04  0.7816531E-02  0.8608663E-01
         -2   -1    0    0    0  501 -0.00000000000E+00  0.00000000000E+00  0.11188054056E+04  0.11188054056E+04  0.00000000000E+00 0. -1.
          2   -1    0    0  501    0  0.00000000000E+00 -0.00000000000E+00 -0.88991553095E+03  0.88991553095E+03  0.00000000000E+00 0.  1.
    2000013    1    1    2    0    0 -0.16111804436E+03  0.22235689952E+03  0.24851234490E+03  0.10196371906E+04  0.95000000000E+03 0.  0.
   -2000013    1    1    2    0    0  0.16111804436E+03 -0.22235689952E+03 -0.19622470298E+02  0.98908374586E+03  0.95000000000E+03 0.  0.
<mgrwt>
<rscale>  0 0.19956375E+04</rscale>
<asrwt>0</asrwt>
<pdfrwt beam="2">  1        2 0.13691008E+00 0.19956375E+04</pdfrwt>
<pdfrwt beam="1">  1       -2 0.17212391E+00 0.19956375E+04</pdfrwt>
<totfact> 0.56973171E+00</totfact>
</mgrwt>
</event>
<event>
 4    1  0.1321115E-008  0.2571323E+04  0.7816531E-02  0.8378008E-01
         -1   -1    0    0    0  501 -0.00000000000E+00  0.00000000000E+00  0.13015330672E+04  0.13015330672E+04  0.00000000000E+00 0. -1.
          1   -1    0    0  501    0  0.00000000000E+00 -0.00000000000E+00 -0.12699829930E+04  0.12699829930E+04  0.00000000000E+00 0.  1.
    2000013    1    1    2    0    0  0.10466419275E+03  0.85585513299E+03  0.99341234818E+02  0.12867833084E+04  0.95000000000E+03 0.  0.
   -2000013    1    1    2    0    0 -0.10466419275E+03 -0.85585513299E+03 -0.67791160643E+02  0.12847327517E+04  0.95000000000E+03 0.  0.
<mgrwt>
<rscale>  0 0.25713225E+04</rscale>
<asrwt>0</asrwt>
<pdfrwt beam="2">  1        1 0.19538200E+00 0.25713225E+04</pdfrwt>
<pdfrwt beam="1">  1       -1 0.20023586E+00 0.25713225E+04</pdfrwt>
<totfact> 0.12584956E+00</totfact>
</mgrwt>
</event>
<event>
 4    1  0.1321115E-008  0.2669295E+04  0.7816531E-02  0.8345037E-01
         -2   -1    0    0    0  501 -0.00000000000E+00  0.00000000000E+00  0.13015640740E+04  0.13015640740E+04  0.00000000000E+00 0. -1.
          2   -1    0    0  501    0  0.00000000000E+00 -0.00000000000E+00 -0.13685719792E+04  0.13685719792E+04  0.00000000000E+00 0.  1.
    2000013    1    1    2    0    0 -0.35460481825E+01  0.84002604952E+03 -0.44972130295E+03  0.13455131321E+04  0.95000000000E+03 0.  0.
   -2000013    1    1    2    0    0  0.35460481825E+01 -0.84002604952E+03  0.38271339777E+03  0.13246229211E+04  0.95000000000E+03 0.  0.
<mgrwt>
<rscale>  0 0.26692951E+04</rscale>
<asrwt>0</asrwt>
<pdfrwt beam="2">  1        2 0.21054954E+00 0.26692951E+04</pdfrwt>
<pdfrwt beam="1">  1       -2 0.20024063E+00 0.26692951E+04</pdfrwt>
<totfact> 0.17582827E+00</totfact>
</mgrwt>
</event>
<event>
 4    1  0.1321115E-008  0.2766048E+04  0.7816531E-02  0.8313887E-01
          2   -1    0    0  501    0  0.00000000000E+00  0.00000000000E+00  0.20152350838E+04  0.20152350838E+04  0.00000000000E+00 0.  1.
         -2   -1    0    0    0  501 -0.00000000000E+00 -0.00000000000E+00 -0.94914717968E+03  0.94914717968E+03  0.00000000000E+00 0. -1.
    2000013    1    1    2    0    0  0.77195139950E+03 -0.45476871460E+03  0.44823220072E+02  0.13066111388E+04  0.95000000000E+03 0.  0.
   -2000013    1    1    2    0    0 -0.77195139950E+03  0.45476871460E+03  0.10212646841E+04  0.16577711247E+04  0.95000000000E+03 0.  0.
<mgrwt>
<rscale>  0 0.27660475E+04</rscale>
<asrwt>0</asrwt>
<pdfrwt beam="1">  1        2 0.31003617E+00 0.27660475E+04</pdfrwt>
<pdfrwt beam="2">  1       -2 0.14602264E+00 0.27660475E+04</pdfrwt>
<totfact> 0.18391596E+00</totfact>
</mgrwt>
</event>
<event>
 4    1  0.1321115E-008  0.2931808E+04  0.7816531E-02  0.8263476E-01
          2   -1    0    0  501    0  0.00000000000E+00  0.00000000000E+00  0.29438463436E+04  0.29438463436E+04  0.00000000000E+00 0.  1.
         -2   -1    0    0    0  501 -0.00000000000E+00 -0.00000000000E+00 -0.72995474614E+03  0.72995474614E+03  0.00000000000E+00 0. -1.
    2000013    1    1    2    0    0  0.63591318636E+03 -0.62601733252E+03  0.26626635350E+03  0.13302935962E+04  0.95000000000E+03 0.  0.
   -2000013    1    1    2    0    0 -0.63591318636E+03  0.62601733252E+03  0.19476252440E+04  0.23435074935E+04  0.95000000000E+03 0.  0.
<mgrwt>
<rscale>  0 0.29318080E+04</rscale>
<asrwt>0</asrwt>
<pdfrwt beam="1">  1        2 0.45289943E+00 0.29318080E+04</pdfrwt>
<pdfrwt beam="2">  1       -2 0.11230073E+00 0.29318080E+04</pdfrwt>
<totfact> 0.10146358E+00</totfact>
</mgrwt>
</event>
<event>
 4    1  0.1321115E-008  0.2299537E+04  0.7816531E-02  0.8478104E-01
          2   -1    0    0  501    0  0.00000000000E+00  0.00000000000E+00  0.81453730138E+03  0.81453730138E+03  0.00000000000E+00 0.  1.
         -2   -1    0    0    0  501 -0.00000000000E+00 -0.00000000000E+00 -0.16229668935E+04  0.16229668935E+04  0.00000000000E+00 0. -1.
    2000013    1    1    2    0    0 -0.44797148485E+03  0.88689642686E+02  0.82603385495E+02  0.10572925911E+04  0.95000000000E+03 0.  0.
   -2000013    1    1    2    0    0  0.44797148485E+03 -0.88689642686E+02 -0.89103297765E+03  0.13802116038E+04  0.95000000000E+03 0.  0.
<mgrwt>
<rscale>  0 0.22995365E+04</rscale>
<asrwt>0</asrwt>
<pdfrwt beam="1">  1        2 0.12531343E+00 0.22995365E+04</pdfrwt>
<pdfrwt beam="2">  1       -2 0.24968721E+00 0.22995365E+04</pdfrwt>
<totfact> 0.19674889E+00</totfact>
</mgrwt>
</event>
<event>
 4    1  0.1321115E-008  0.2876541E+04  0.7816531E-02  0.8279891E-01
         -1   -1    0    0    0  501 -0.00000000000E+00  0.00000000000E+00  0.87851635628E+03  0.87851635628E+03  0.00000000000E+00 0. -1.
          1   -1    0    0  501    0  0.00000000000E+00 -0.00000000000E+00 -0.23546775283E+04  0.23546775283E+04  0.00000000000E+00 0.  1.
    2000013    1    1    2    0    0 -0.95674502985E+03 -0.46466202902E+03 -0.52825042507E+03  0.15207959643E+04  0.95000000000E+03 0.  0.
   -2000013    1    1    2    0    0  0.95674502985E+03  0.46466202902E+03 -0.94791074699E+03  0.17123979203E+04  0.95000000000E+03 0.  0.
<mgrwt>
<rscale>  0 0.28765415E+04</rscale>
<asrwt>0</asrwt>
<pdfrwt beam="2">  1        1 0.36225808E+00 0.28765415E+04</pdfrwt>
<pdfrwt beam="1">  1       -1 0.13515636E+00 0.28765415E+04</pdfrwt>
<totfact> 0.67409543E-01</totfact>
</mgrwt>
</event>
<event>
 4    1  0.1321115E-008  0.2400243E+04  0.7816531E-02  0.8439413E-01
          2   -1    0    0  501    0  0.00000000000E+00  0.00000000000E+00  0.17820719599E+04  0.17820719599E+04  0.00000000000E+00 0.  1.
         -2   -1    0    0    0  501 -0.00000000000E+00 -0.00000000000E+00 -0.80821193231E+03  0.80821193231E+03  0.00000000000E+00 0. -1.
    2000013    1    1    2    0    0  0.22574073681E+03 -0.63797695349E+03  0.18203979542E+03  0.11805134309E+04  0.95000000000E+03 0.  0.
   -2000013    1    1    2    0    0 -0.22574073681E+03  0.63797695349E+03  0.79182023212E+03  0.14097704613E+04  0.95000000000E+03 0.  0.
<mgrwt>
<rscale>  0 0.24002432E+04</rscale>
<asrwt>0</asrwt>
<pdfrwt beam="1">  1        2 0.27416492E+00 0.24002432E+04</pdfrwt>
<pdfrwt beam="2">  1       -2 0.12434030E+00 0.24002432E+04</pdfrwt>
<totfact> 0.38579078E+00</totfact>
</mgrwt>
</event>
<event>
 4    1  0.1321115E-008  0.3091443E+04  0.7816531E-02  0.8218090E-01
         -2   -1    0    0    0  501 -0.00000000000E+00  0.00000000000E+00  0.10541592785E+04  0.10541592785E+04  0.00000000000E+00 0. -1.
          2   -1    0    0  501    0  0.00000000000E+00 -0.00000000000E+00 -0.22665029579E+04  0.22665029579E+04  0.00000000000E+00 0.  1.
    2000013    1    1    2    0    0  0.46001436475E+03  0.13658658452E+03  0.59787192706E+03  0.12207456541E+04  0.95000000000E+03 0.  0.
   -2000013    1    1    2    0    0 -0.46001436475E+03 -0.13658658452E+03 -0.18102156065E+04  0.20999165823E+04  0.95000000000E+03 0.  0.
<mgrwt>
<rscale>  0 0.30914431E+04</rscale>
<asrwt>0</asrwt>
<pdfrwt beam="2">  1        2 0.34869276E+00 0.30914431E+04</pdfrwt>
<pdfrwt beam="1">  1       -2 0.16217835E+00 0.30914431E+04</pdfrwt>
<totfact> 0.97679043E-01</totfact>
</mgrwt>
</event>
<event>
 4    1  0.1321115E-008  0.2458557E+04  0.7816531E-02  0.8417901E-01
         -2   -1    0    0    0  501 -0.00000000000E+00  0.00000000000E+00  0.53341011237E+03  0.53341011237E+03  0.00000000000E+00 0.  1.
          2   -1    0    0  501    0  0.00000000000E+00 -0.00000000000E+00 -0.28329516631E+04  0.28329516631E+04  0.00000000000E+00 0. -1.
    2000013    1    1    2    0    0 -0.18688936952E+03  0.58702305034E+03 -0.18051526507E+04  0.21308683184E+04  0.95000000000E+03 0.  0.
   -2000013    1    1    2    0    0  0.18688936952E+03 -0.58702305034E+03 -0.49438890011E+03  0.12354934571E+04  0.95000000000E+03 0.  0.
<mgrwt>
<rscale>  0 0.24585565E+04</rscale>
<asrwt>0</asrwt>
<pdfrwt beam="2">  1        2 0.43583873E+00 0.24585565E+04</pdfrwt>
<pdfrwt beam="1">  1       -2 0.82063092E-01 0.24585565E+04</pdfrwt>
<totfact> 0.25793204E+00</totfact>
</mgrwt>
</event>
<event>
 4    1  0.1321115E-008  0.2431124E+04  0.7816531E-02  0.8427942E-01
         -2   -1    0    0    0  501 -0.00000000000E+00  0.00000000000E+00  0.34010905059E+03  0.34010905059E+03  0.00000000000E+00 0. -1.
          2   -1    0    0  501    0  0.00000000000E+00 -0.00000000000E+00 -0.43444630552E+04  0.43444630552E+04  0.00000000000E+00 0.  1.
    2000013    1    1    2    0    0 -0.41344605552E+03 -0.48289875042E+03 -0.27989104270E+04  0.30233306836E+04  0.95000000000E+03 0.  0.
   -2000013    1    1    2    0    0  0.41344605552E+03  0.48289875042E+03 -0.12054435776E+04  0.16612414221E+04  0.95000000000E+03 0.  0.
<mgrwt>
<rscale>  0 0.24311242E+04</rscale>
<asrwt>0</asrwt>
<pdfrwt beam="2">  1        2 0.66837893E+00 0.24311242E+04</pdfrwt>
<pdfrwt beam="1">  1       -2 0.52324469E-01 0.24311242E+04</pdfrwt>
<totfact> 0.53765215E-01</totfact>
</mgrwt>
</event>
<event>
 4    1  0.1321115E-008  0.2234016E+04  0.7816531E-02  0.8504402E-01
          2   -1    0    0  501    0  0.00000000000E+00  0.00000000000E+00  0.51848604225E+03  0.51848604225E+03  0.00000000000E+00 0.  1.
         -2   -1    0    0    0  501 -0.00000000000E+00 -0.00000000000E+00 -0.24064427659E+04  0.24064427659E+04  0.00000000000E+00 0. -1.
    2000013    1    1    2    0    0  0.45717398725E+03  0.36068037528E+03 -0.84164911690E+03  0.13964138440E+04  0.95000000000E+03 0.  0.
   -2000013    1    1    2    0    0 -0.45717398725E+03 -0.36068037528E+03 -0.10463076068E+04  0.15285149642E+04  0.95000000000E+03 0.  0.
<mgrwt>
<rscale>  0 0.22340161E+04</rscale>
<asrwt>0</asrwt>
<pdfrwt beam="1">  1        2 0.79767084E-01 0.22340161E+04</pdfrwt>
<pdfrwt beam="2">  1       -2 0.37022196E+00 0.22340161E+04</pdfrwt>
<totfact> 0.62344784E-01</totfact>
</mgrwt>
</event>
<event>
 4    1  0.1321115E-008  0.2861027E+04  0.7816531E-02  0.8284568E-01
          2   -1    0    0  501    0  0.00000000000E+00  0.00000000000E+00  0.11074749304E+04  0.11074749304E+04  0.00000000000E+00 0.  1.
         -2   -1    0    0    0  501 -0.00000000000E+00 -0.00000000000E+00 -0.18477795446E+04  0.18477795446E+04  0.00000000000E+00 0. -1.
    2000013    1    1    2    0    0  0.10432479316E+04  0.21981358306E+03 -0.28259462829E+03  0.14556936429E+04  0.95000000000E+03 0.  0.
   -2000013    1    1    2    0    0 -0.10432479316E+04 -0.21981358306E+03 -0.45770998588E+03  0.14995608321E+04  0.95000000000E+03 0.  0.
<mgrwt>
<rscale>  0 0.28610275E+04</rscale>
<asrwt>0</asrwt>
<pdfrwt beam="1">  1        2 0.17038076E+00 0.28610275E+04</pdfrwt>
<pdfrwt beam="2">  1       -2 0.28427377E+00 0.28610275E+04</pdfrwt>
<totfact> 0.74014972E-01</totfact>
</mgrwt>
</event>
<event>
 4    1  0.1321115E-008  0.4038654E+04  0.7816531E-02  0.7996794E-01
         -2   -1    0    0    0  501 -0.00000000000E+00  0.00000000000E+00  0.18466303312E+04  0.18466303312E+04  0.00000000000E+00 0.  1.
          2   -1    0    0  501    0  0.00000000000E+00 -0.00000000000E+00 -0.22081740316E+04  0.22081740316E+04  0.00000000000E+00 0. -1.
    2000013    1    1    2    0    0 -0.25492602906E+02  0.16097810547E+04 -0.94745918516E+03  0.20957633035E+04  0.95000000000E+03 0.  0.
   -2000013    1    1    2    0    0  0.25492602906E+02 -0.16097810547E+04  0.58591548477E+03  0.19590410593E+04  0.95000000000E+03 0.  0.
<mgrwt>
<rscale>  0 0.40386538E+04</rscale>
<asrwt>0</asrwt>
<pdfrwt beam="2">  1        2 0.33971908E+00 0.40386538E+04</pdfrwt>
<pdfrwt beam="1">  1       -2 0.28409697E+00 0.40386538E+04</pdfrwt>
<totfact> 0.15976046E-01</totfact>
</mgrwt>
</event>
<event>
 4    1  0.1321115E-008  0.3500490E+04  0.7816531E-02  0.8113674E-01
          2   -1    0    0  501    0  0.00000000000E+00  0.00000000000E+00  0.38488336165E+04  0.38488336165E+04  0.00000000000E+00 0.  1.
         -2   -1    0    0    0  501 -0.00000000000E+00 -0.00000000000E+00 -0.79591862827E+03  0.79591862827E+03  0.00000000000E+00 0. -1.
    2000013    1    1    2    0    0 -0.50064558337E+03  0.84299391023E+03  0.29797301803E+04  0.32775870210E+04  0.95000000000E+03 0.  0.
   -2000013    1    1    2    0    0  0.50064558337E+03 -0.84299391023E+03  0.73184807882E+02  0.13671652237E+04  0.95000000000E+03 0.  0.
<mgrwt>
<rscale>  0 0.35004905E+04</rscale>
<asrwt>0</asrwt>
<pdfrwt beam="1">  1        2 0.59212824E+00 0.35004905E+04</pdfrwt>
<pdfrwt beam="2">  1       -2 0.12244902E+00 0.35004905E+04</pdfrwt>
<totfact> 0.18648975E-01</totfact>
</mgrwt>
</event>
<event>
 4    1  0.1321115E-008  0.3043950E+04  0.7816531E-02  0.8231291E-01
         -2   -1    0    0    0  501 -0.00000000000E+00  0.00000000000E+00  0.19519400355E+04  0.19519400355E+04  0.00000000000E+00 0. -1.
          2   -1    0    0  501    0  0.00000000000E+00 -0.00000000000E+00 -0.11867208410E+04  0.11867208410E+04  0.00000000000E+00 0.  1.
    2000013    1    1    2    0    0  0.89683226775E+03  0.37287700194E+03 -0.32470977996E+03  0.13968828928E+04  0.95000000000E+03 0.  0.
   -2000013    1    1    2    0    0 -0.89683226775E+03 -0.37287700194E+03  0.10899289744E+04  0.17417779836E+04  0.95000000000E+03 0.  0.
<mgrwt>
<rscale>  0 0.30439500E+04</rscale>
<asrwt>0</asrwt>
<pdfrwt beam="2">  1        2 0.18257244E+00 0.30439500E+04</pdfrwt>
<pdfrwt beam="1">  1       -2 0.30029847E+00 0.30439500E+04</pdfrwt>
<totfact> 0.52073798E-01</totfact>
</mgrwt>
</event>
<event>
 4    1  0.1321115E-008  0.2310417E+04  0.7816531E-02  0.8473825E-01
          1   -1    0    0  501    0  0.00000000000E+00  0.00000000000E+00  0.14650012454E+04  0.14650012454E+04  0.00000000000E+00 0.  1.
         -1   -1    0    0    0  501 -0.00000000000E+00 -0.00000000000E+00 -0.91092554034E+03  0.91092554034E+03  0.00000000000E+00 0. -1.
    2000013    1    1    2    0    0  0.64553885042E+03 -0.12307724964E+03  0.28914600461E+03  0.11907870627E+04  0.95000000000E+03 0.  0.
   -2000013    1    1    2    0    0 -0.64553885042E+03  0.12307724964E+03  0.26492970040E+03  0.11851397230E+04  0.95000000000E+03 0.  0.
<mgrwt>
<rscale>  0 0.23104173E+04</rscale>
<asrwt>0</asrwt>
<pdfrwt beam="1">  1        1 0.22538481E+00 0.23104173E+04</pdfrwt>
<pdfrwt beam="2">  1       -1 0.14014239E+00 0.23104173E+04</pdfrwt>
<totfact> 0.26120969E+00</totfact>
</mgrwt>
</event>
<event>
 4    1  0.1321115E-008  0.2209568E+04  0.7816531E-02  0.8514456E-01
         -2   -1    0    0    0  501 -0.00000000000E+00  0.00000000000E+00  0.47925419549E+03  0.47925419549E+03  0.00000000000E+00 0. -1.
          2   -1    0    0  501    0  0.00000000000E+00 -0.00000000000E+00 -0.25467649383E+04  0.25467649383E+04  0.00000000000E+00 0.  1.
    2000013    1    1    2    0    0 -0.29438203191E+03  0.34366999926E+03 -0.14946874546E+04  0.18279388491E+04  0.95000000000E+03 0.  0.
   -2000013    1    1    2    0    0  0.29438203191E+03 -0.34366999926E+03 -0.57282328822E+03  0.11980802847E+04  0.95000000000E+03 0.  0.
<mgrwt>
<rscale>  0 0.22095681E+04</rscale>
<asrwt>0</asrwt>
<pdfrwt beam="2">  1        2 0.39180999E+00 0.22095681E+04</pdfrwt>
<pdfrwt beam="1">  1       -2 0.73731415E-01 0.22095681E+04</pdfrwt>
<totfact> 0.49529292E+00</totfact>
</mgrwt>
</event>
<event>
 4    1  0.1321115E-008  0.2383773E+04  0.7816531E-02  0.8445604E-01
         -2   -1    0    0    0  501 -0.00000000000E+00  0.00000000000E+00  0.97871936957E+03  0.97871936957E+03  0.00000000000E+00 0. -1.
          2   -1    0    0  501    0  0.00000000000E+00 -0.00000000000E+00 -0.14514820740E+04  0.14514820740E+04  0.00000000000E+00 0.  1.
    2000013    1    1    2    0    0  0.20015615264E+03 -0.60605375029E+03 -0.57562363165E+03  0.12810957025E+04  0.95000000000E+03 0.  0.
   -2000013    1    1    2    0    0 -0.20015615264E+03  0.60605375029E+03  0.10286092726E+03  0.11491057410E+04  0.95000000000E+03 0.  0.
<mgrwt>
<rscale>  0 0.23837732E+04</rscale>
<asrwt>0</asrwt>
<pdfrwt beam="2">  1        2 0.22330493E+00 0.23837732E+04</pdfrwt>
<pdfrwt beam="1">  1       -2 0.15057221E+00 0.23837732E+04</pdfrwt>
<totfact> 0.36124095E+00</totfact>
</mgrwt>
</event>
<event>
 4    1  0.1321115E-008  0.2201072E+04  0.7816531E-02  0.8517982E-01
          1   -1    0    0  501    0  0.00000000000E+00  0.00000000000E+00  0.10061966314E+04  0.10061966314E+04  0.00000000000E+00 0.  1.
         -1   -1    0    0    0  501 -0.00000000000E+00 -0.00000000000E+00 -0.12037206381E+04  0.12037206381E+04  0.00000000000E+00 0. -1.
    2000013    1    1    2    0    0 -0.45197357718E+03  0.31037691544E+03 -0.18893218839E+03  0.11130181112E+04  0.95000000000E+03 0.  0.
   -2000013    1    1    2    0    0  0.45197357718E+03 -0.31037691544E+03 -0.85918183208E+01  0.10968991583E+04  0.95000000000E+03 0.  0.
<mgrwt>
<rscale>  0 0.22010721E+04</rscale>
<asrwt>0</asrwt>
<pdfrwt beam="1">  1        1 0.15479948E+00 0.22010721E+04</pdfrwt>
<pdfrwt beam="2">  1       -1 0.18518779E+00 0.22010721E+04</pdfrwt>
<totfact> 0.26065799E+00</totfact>
</mgrwt>
</event>
<event>
 4    1  0.1321115E-008  0.1997432E+04  0.7816531E-02  0.8607822E-01
         -1   -1    0    0    0  501 -0.00000000000E+00  0.00000000000E+00  0.17434162080E+04  0.17434162080E+04  0.00000000000E+00 0. -1.
          1   -1    0    0  501    0  0.00000000000E+00 -0.00000000000E+00 -0.57211468520E+03  0.57211468520E+03  0.00000000000E+00 0.  1.
    2000013    1    1    2    0    0 -0.19708089745E+02  0.18013495455E+03  0.87452833092E+03  0.13038929451E+04  0.95000000000E+03 0.  0.
   -2000013    1    1    2    0    0  0.19708089745E+02 -0.18013495455E+03  0.29677319187E+03  0.10116379481E+04  0.95000000000E+03 0.  0.
<mgrwt>
<rscale>  0 0.19974324E+04</rscale>
<asrwt>0</asrwt>
<pdfrwt beam="2">  1        1 0.88017645E-01 0.19974324E+04</pdfrwt>
<pdfrwt beam="1">  1       -1 0.26821787E+00 0.19974324E+04</pdfrwt>
<totfact> 0.18060737E+00</totfact>
</mgrwt>
</event>
<event>
 4    1  0.1321115E-008  0.2120533E+04  0.7816531E-02  0.8552252E-01
          2   -1    0    0  501    0  0.00000000000E+00  0.00000000000E+00  0.10528588997E+04  0.10528588997E+04  0.00000000000E+00 0.  1.
         -2   -1    0    0    0  501 -0.00000000000E+00 -0.00000000000E+00 -0.10677258166E+04  0.10677258166E+04  0.00000000000E+00 0. -1.
    2000013    1    1    2    0    0 -0.22516997348E+03 -0.34426394767E+03  0.22158187663E+03  0.10586867859E+04  0.95000000000E+03 0.  0.
   -2000013    1    1    2    0    0  0.22516997348E+03  0.34426394767E+03 -0.23644879344E+03  0.10618979304E+04  0.95000000000E+03 0.  0.
<mgrwt>
<rscale>  0 0.21205326E+04</rscale>
<asrwt>0</asrwt>
<pdfrwt beam="1">  1        2 0.16197829E+00 0.21205326E+04</pdfrwt>
<pdfrwt beam="2">  1       -2 0.16426551E+00 0.21205326E+04</pdfrwt>
<totfact> 0.50261988E+00</totfact>
</mgrwt>
</event>
<event>
 4    1  0.1321115E-008  0.2145940E+04  0.7816531E-02  0.8541272E-01
          2   -1    0    0  501    0  0.00000000000E+00  0.00000000000E+00  0.10424688622E+04  0.10424688622E+04  0.00000000000E+00 0.  1.
         -2   -1    0    0    0  501 -0.00000000000E+00 -0.00000000000E+00 -0.11043639670E+04  0.11043639670E+04  0.00000000000E+00 0. -1.
    2000013    1    1    2    0    0  0.22907539690E+03 -0.66821977359E+02  0.40721213882E+03  0.10607838800E+04  0.95000000000E+03 0.  0.
   -2000013    1    1    2    0    0 -0.22907539690E+03  0.66821977359E+02 -0.46910724360E+03  0.10860489492E+04  0.95000000000E+03 0.  0.
<mgrwt>
<rscale>  0 0.21459404E+04</rscale>
<asrwt>0</asrwt>
<pdfrwt beam="1">  1        2 0.16037983E+00 0.21459404E+04</pdfrwt>
<pdfrwt beam="2">  1       -2 0.16990215E+00 0.21459404E+04</pdfrwt>
<totfact> 0.46377117E+00</totfact>
</mgrwt>
</event>
<event>
 4    1  0.1321115E-008  0.2242843E+04  0.7816531E-02  0.8500805E-01
         -2   -1    0    0    0  501 -0.00000000000E+00  0.00000000000E+00  0.68690000751E+03  0.68690000751E+03  0.00000000000E+00 0.  1.
          2   -1    0    0  501    0  0.00000000000E+00 -0.00000000000E+00 -0.18308139936E+04  0.18308139936E+04  0.00000000000E+00 0. -1.
    2000013    1    1    2    0    0  0.82455895510E+02  0.45316487690E+03 -0.99634914937E+03  0.14516779973E+04  0.95000000000E+03 0.  0.
   -2000013    1    1    2    0    0 -0.82455895510E+02 -0.45316487690E+03 -0.14756483671E+03  0.10660360038E+04  0.95000000000E+03 0.  0.
<mgrwt>
<rscale>  0 0.22428430E+04</rscale>
<asrwt>0</asrwt>
<pdfrwt beam="2">  1        2 0.28166369E+00 0.22428430E+04</pdfrwt>
<pdfrwt beam="1">  1       -2 0.10567693E+00 0.22428430E+04</pdfrwt>
<totfact> 0.54691653E+00</totfact>
</mgrwt>
</event>
<event>
 4    1  0.1321115E-008  0.2331031E+04  0.7816531E-02  0.8465786E-01
         -2   -1    0    0    0  501 -0.00000000000E+00  0.00000000000E+00  0.90240113727E+03  0.90240113727E+03  0.00000000000E+00 0. -1.
          2   -1    0    0  501    0  0.00000000000E+00 -0.00000000000E+00 -0.15053458477E+04  0.15053458477E+04  0.00000000000E+00 0.  1.
    2000013    1    1    2    0    0 -0.32072327684E+03 -0.59070994760E+03 -0.23513934290E+03  0.11872624702E+04  0.95000000000E+03 0.  0.
   -2000013    1    1    2    0    0  0.32072327684E+03  0.59070994760E+03 -0.36780536753E+03  0.12204845148E+04  0.95000000000E+03 0.  0.
<mgrwt>
<rscale>  0 0.23310305E+04</rscale>
<asrwt>0</asrwt>
<pdfrwt beam="2">  1        2 0.23159167E+00 0.23310305E+04</pdfrwt>
<pdfrwt beam="1">  1       -2 0.13883094E+00 0.23310305E+04</pdfrwt>
<totfact> 0.41852330E+00</totfact>
</mgrwt>
</event>
<event>
 4    1  0.1321115E-008  0.4837734E+04  0.7816531E-02  0.7854038E-01
          2   -1    0    0  501    0  0.00000000000E+00  0.00000000000E+00  0.30101598859E+04  0.30101598859E+04  0.00000000000E+00 0.  1.
         -2   -1    0    0    0  501 -0.00000000000E+00 -0.00000000000E+00 -0.19437235730E+04  0.19437235730E+04  0.00000000000E+00 0. -1.
    2000013    1    1    2    0    0  0.11826003309E+04  0.17284025655E+04 -0.23478839893E+03  0.23116108157E+04  0.95000000000E+03 0.  0.
   -2000013    1    1    2    0    0 -0.11826003309E+04 -0.17284025655E+04  0.13012247119E+04  0.26422726433E+04  0.95000000000E+03 0.  0.
<mgrwt>
<rscale>  0 0.48377345E+04</rscale>
<asrwt>0</asrwt>
<pdfrwt beam="1">  1        2 0.46310152E+00 0.48377345E+04</pdfrwt>
<pdfrwt beam="2">  1       -2 0.29903440E+00 0.48377345E+04</pdfrwt>
<totfact> 0.40745388E-02</totfact>
</mgrwt>
</event>
<event>
 4    1  0.1321115E-008  0.3242918E+04  0.7816531E-02  0.8177574E-01
         -2   -1    0    0    0  501 -0.00000000000E+00  0.00000000000E+00  0.96699613939E+03  0.96699613939E+03  0.00000000000E+00 0.  1.
          2   -1    0    0  501    0  0.00000000000E+00 -0.00000000000E+00 -0.27188620743E+04  0.27188620743E+04  0.00000000000E+00 0. -1.
    2000013    1    1    2    0    0  0.28573478923E+03  0.10905626049E+04 -0.10870901372E+03  0.14782722397E+04  0.95000000000E+03 0.  0.
   -2000013    1    1    2    0    0 -0.28573478923E+03 -0.10905626049E+04 -0.16431569211E+04  0.22075859740E+04  0.95000000000E+03 0.  0.
<mgrwt>
<rscale>  0 0.32429179E+04</rscale>
<asrwt>0</asrwt>
<pdfrwt beam="2">  1        2 0.41828647E+00 0.32429179E+04</pdfrwt>
<pdfrwt beam="1">  1       -2 0.14876864E+00 0.32429179E+04</pdfrwt>
<totfact> 0.66463274E-01</totfact>
</mgrwt>
</event>
<event>
 4    1  0.1321115E-008  0.2546067E+04  0.7816531E-02  0.8386755E-01
          2   -1    0    0  501    0  0.00000000000E+00  0.00000000000E+00  0.12805061204E+04  0.12805061204E+04  0.00000000000E+00 0.  1.
         -2   -1    0    0    0  501 -0.00000000000E+00 -0.00000000000E+00 -0.12656040071E+04  0.12656040071E+04  0.00000000000E+00 0. -1.
    2000013    1    1    2    0    0  0.14658943025E+03 -0.83150023800E+03  0.79788803025E+02  0.12734784490E+04  0.95000000000E+03 0.  0.
   -2000013    1    1    2    0    0 -0.14658943025E+03  0.83150023800E+03 -0.64886689761E+02  0.12726316786E+04  0.95000000000E+03 0.  0.
<mgrwt>
<rscale>  0 0.25460665E+04</rscale>
<asrwt>0</asrwt>
<pdfrwt beam="1">  1        2 0.19700094E+00 0.25460665E+04</pdfrwt>
<pdfrwt beam="2">  1       -2 0.19470831E+00 0.25460665E+04</pdfrwt>
<totfact> 0.21738929E+00</totfact>
</mgrwt>
</event>
<event>
 4    1  0.1321115E-008  0.2417533E+04  0.7816531E-02  0.8432969E-01
          2   -1    0    0  501    0  0.00000000000E+00  0.00000000000E+00  0.33971506100E+04  0.33971506100E+04  0.00000000000E+00 0.  1.
         -2   -1    0    0    0  501 -0.00000000000E+00 -0.00000000000E+00 -0.43010048034E+03  0.43010048034E+03  0.00000000000E+00 0. -1.
    2000013    1    1    2    0    0 -0.40950962017E+03  0.59854087059E+03  0.17696580558E+04  0.21354481818E+04  0.95000000000E+03 0.  0.
   -2000013    1    1    2    0    0  0.40950962017E+03 -0.59854087059E+03  0.11973920739E+04  0.16918029086E+04  0.95000000000E+03 0.  0.
<mgrwt>
<rscale>  0 0.24175327E+04</rscale>
<asrwt>0</asrwt>
<pdfrwt beam="1">  1        2 0.52263854E+00 0.24175327E+04</pdfrwt>
<pdfrwt beam="2">  1       -2 0.66169307E-01 0.24175327E+04</pdfrwt>
<totfact> 0.18092157E+00</totfact>
</mgrwt>
</event>
<event>
 4    1  0.1321115E-008  0.2282084E+04  0.7816531E-02  0.8485019E-01
          2   -1    0    0  501    0  0.00000000000E+00  0.00000000000E+00  0.22849164034E+04  0.22849164034E+04  0.00000000000E+00 0.  1.
         -2   -1    0    0    0  501 -0.00000000000E+00 -0.00000000000E+00 -0.56981397225E+03  0.56981397225E+03  0.00000000000E+00 0. -1.
    2000013    1    1    2    0    0  0.47383239168E+03 -0.13275122014E+03  0.13537425794E+04  0.17254735562E+04  0.95000000000E+03 0.  0.
   -2000013    1    1    2    0    0 -0.47383239168E+03  0.13275122014E+03  0.36135985177E+03  0.11292568195E+04  0.95000000000E+03 0.  0.
<mgrwt>
<rscale>  0 0.22820844E+04</rscale>
<asrwt>0</asrwt>
<pdfrwt beam="1">  1        2 0.35152560E+00 0.22820844E+04</pdfrwt>
<pdfrwt beam="2">  1       -2 0.87663689E-01 0.22820844E+04</pdfrwt>
<totfact> 0.47130607E+00</totfact>
</mgrwt>
</event>
<event>
 4    1  0.1321115E-008  0.2711949E+04  0.7816531E-02  0.8331138E-01
          2   -1    0    0  501    0  0.00000000000E+00  0.00000000000E+00  0.24264945296E+04  0.24264945296E+04  0.00000000000E+00 0.  1.
         -2   -1    0    0    0  501 -0.00000000000E+00 -0.00000000000E+00 -0.75774595085E+03  0.75774595085E+03  0.00000000000E+00 0. -1.
    2000013    1    1    2    0    0 -0.79371500805E+03  0.17299929259E+03  0.14515073134E+04  0.19155379793E+04  0.95000000000E+03 0.  0.
   -2000013    1    1    2    0    0  0.79371500805E+03 -0.17299929259E+03  0.21724126544E+03  0.12687025012E+04  0.95000000000E+03 0.  0.
<mgrwt>
<rscale>  0 0.27119487E+04</rscale>
<asrwt>0</asrwt>
<pdfrwt beam="1">  1        2 0.37330685E+00 0.27119487E+04</pdfrwt>
<pdfrwt beam="2">  1       -2 0.11657630E+00 0.27119487E+04</pdfrwt>
<totfact> 0.19183860E+00</totfact>
</mgrwt>
</event>
<event>
 4    1  0.1321115E-008  0.2221642E+04  0.7816531E-02  0.8509474E-01
         -2   -1    0    0    0  501 -0.00000000000E+00  0.00000000000E+00  0.18087878616E+04  0.18087878616E+04  0.00000000000E+00 0. -1.
          2   -1    0    0  501    0  0.00000000000E+00 -0.00000000000E+00 -0.68218241614E+03  0.68218241614E+03  0.00000000000E+00 0.  1.
    2000013    1    1    2    0    0 -0.18271763447E+03 -0.54084469360E+03  0.47996469676E+03  0.12077933709E+04  0.95000000000E+03 0.  0.
   -2000013    1    1    2    0    0  0.18271763447E+03  0.54084469360E+03  0.64664074874E+03  0.12831769069E+04  0.95000000000E+03 0.  0.
<mgrwt>
<rscale>  0 0.22216420E+04</rscale>
<asrwt>0</asrwt>
<pdfrwt beam="2">  1        2 0.10495114E+00 0.22216420E+04</pdfrwt>
<pdfrwt beam="1">  1       -2 0.27827505E+00 0.22216420E+04</pdfrwt>
<totfact> 0.16666204E+00</totfact>
</mgrwt>
</event>
<event>
 4    1  0.1321115E-008  0.2941097E+04  0.7816531E-02  0.8260754E-01
          2   -1    0    0  501    0  0.00000000000E+00  0.00000000000E+00  0.17101868612E+04  0.17101868612E+04  0.00000000000E+00 0.  1.
         -2   -1    0    0    0  501 -0.00000000000E+00 -0.00000000000E+00 -0.12644892998E+04  0.12644892998E+04  0.00000000000E+00 0. -1.
    2000013    1    1    2    0    0  0.96850710811E+03  0.93244753111E+02 -0.34328506034E+03  0.14025138984E+04  0.95000000000E+03 0.  0.
   -2000013    1    1    2    0    0 -0.96850710811E+03 -0.93244753111E+02  0.78898262177E+03  0.15721622626E+04  0.95000000000E+03 0.  0.
<mgrwt>
<rscale>  0 0.29410971E+04</rscale>
<asrwt>0</asrwt>
<pdfrwt beam="1">  1        2 0.26310567E+00 0.29410971E+04</pdfrwt>
<pdfrwt beam="2">  1       -2 0.19453682E+00 0.29410971E+04</pdfrwt>
<totfact> 0.12036093E+00</totfact>
</mgrwt>
</event>
<event>
 4    1  0.1321115E-008  0.2544993E+04  0.7816531E-02  0.8387130E-01
         -2   -1    0    0    0  501 -0.00000000000E+00  0.00000000000E+00  0.10567473522E+04  0.10567473522E+04  0.00000000000E+00 0. -1.
          2   -1    0    0  501    0  0.00000000000E+00 -0.00000000000E+00 -0.15322939988E+04  0.15322939988E+04  0.00000000000E+00 0.  1.
    2000013    1    1    2    0    0 -0.12422965382E+03  0.72275071449E+03 -0.66811497571E+03  0.13735644226E+04  0.95000000000E+03 0.  0.
   -2000013    1    1    2    0    0  0.12422965382E+03 -0.72275071449E+03  0.19256832911E+03  0.12154769284E+04  0.95000000000E+03 0.  0.
<mgrwt>
<rscale>  0 0.25449932E+04</rscale>
<asrwt>0</asrwt>
<pdfrwt beam="2">  1        2 0.23573754E+00 0.25449932E+04</pdfrwt>
<pdfrwt beam="1">  1       -2 0.16257652E+00 0.25449932E+04</pdfrwt>
<totfact> 0.26084769E+00</totfact>
</mgrwt>
</event>
<event>
 4    1  0.1321115E-008  0.3024951E+04  0.7816531E-02  0.8236642E-01
         -2   -1    0    0    0  501 -0.00000000000E+00  0.00000000000E+00  0.88492489626E+03  0.88492489626E+03  0.00000000000E+00 0. -1.
          2   -1    0    0  501    0  0.00000000000E+00 -0.00000000000E+00 -0.25850583698E+04  0.25850583698E+04  0.00000000000E+00 0.  1.
    2000013    1    1    2    0    0 -0.11311326218E+04 -0.24102996014E+03 -0.59998907139E+03  0.16124649874E+04  0.95000000000E+03 0.  0.
   -2000013    1    1    2    0    0  0.11311326218E+04  0.24102996014E+03 -0.11001444021E+04  0.18575182786E+04  0.95000000000E+03 0.  0.
<mgrwt>
<rscale>  0 0.30249512E+04</rscale>
<asrwt>0</asrwt>
<pdfrwt beam="2">  1        2 0.39770129E+00 0.30249512E+04</pdfrwt>
<pdfrwt beam="1">  1       -2 0.13614229E+00 0.30249512E+04</pdfrwt>
<totfact> 0.10239389E+00</totfact>
</mgrwt>
</event>
<event>
 4    1  0.1321115E-008  0.2148072E+04  0.7816531E-02  0.8540358E-01
         -2   -1    0    0    0  501 -0.00000000000E+00  0.00000000000E+00  0.37239700741E+03  0.37239700741E+03  0.00000000000E+00 0. -1.
          2   -1    0    0  501    0  0.00000000000E+00 -0.00000000000E+00 -0.30976444337E+04  0.30976444337E+04  0.00000000000E+00 0.  1.
    2000013    1    1    2    0    0 -0.79148161245E+02 -0.48630823417E+03 -0.15097369527E+04  0.18505582392E+04  0.95000000000E+03 0.  0.
   -2000013    1    1    2    0    0  0.79148161245E+02  0.48630823417E+03 -0.12155104735E+04  0.16194832019E+04  0.95000000000E+03 0.  0.
<mgrwt>
<rscale>  0 0.21480722E+04</rscale>
<asrwt>0</asrwt>
<pdfrwt beam="2">  1        2 0.47656070E+00 0.21480722E+04</pdfrwt>
<pdfrwt beam="1">  1       -2 0.57291845E-01 0.21480722E+04</pdfrwt>
<totfact> 0.39646140E+00</totfact>
</mgrwt>
</event>
<event>
 4    1  0.1321115E-008  0.2353951E+04  0.7816531E-02  0.8456948E-01
         -2   -1    0    0    0  501 -0.00000000000E+00  0.00000000000E+00  0.31646557958E+03  0.31646557958E+03  0.00000000000E+00 0. -1.
          2   -1    0    0  501    0  0.00000000000E+00 -0.00000000000E+00 -0.43773204320E+04  0.43773204320E+04  0.00000000000E+00 0.  1.
    2000013    1    1    2    0    0  0.63235842384E+03  0.26069999582E+03 -0.17867867890E+04  0.21361059649E+04  0.95000000000E+03 0.  0.
   -2000013    1    1    2    0    0 -0.63235842384E+03 -0.26069999582E+03 -0.22740680634E+04  0.25576800467E+04  0.95000000000E+03 0.  0.
<mgrwt>
<rscale>  0 0.23539509E+04</rscale>
<asrwt>0</asrwt>
<pdfrwt beam="2">  1        2 0.67343384E+00 0.23539509E+04</pdfrwt>
<pdfrwt beam="1">  1       -2 0.48687018E-01 0.23539509E+04</pdfrwt>
<totfact> 0.58557903E-01</totfact>
</mgrwt>
</event>
<event>
 4    1  0.1321115E-008  0.2763428E+04  0.7816531E-02  0.8314713E-01
          2   -1    0    0  501    0  0.00000000000E+00  0.00000000000E+00  0.73977927621E+03  0.73977927621E+03  0.00000000000E+00 0.  1.
         -2   -1    0    0    0  501 -0.00000000000E+00 -0.00000000000E+00 -0.25806797963E+04  0.25806797963E+04  0.00000000000E+00 0. -1.
    2000013    1    1    2    0    0 -0.70705889594E+03  0.11859882026E+03 -0.17638099383E+04  0.21277977961E+04  0.95000000000E+03 0.  0.
   -2000013    1    1    2    0    0  0.70705889594E+03 -0.11859882026E+03 -0.77090581790E+02  0.11926612764E+04  0.95000000000E+03 0.  0.
<mgrwt>
<rscale>  0 0.27634279E+04</rscale>
<asrwt>0</asrwt>
<pdfrwt beam="1">  1        2 0.11381220E+00 0.27634279E+04</pdfrwt>
<pdfrwt beam="2">  1       -2 0.39702766E+00 0.27634279E+04</pdfrwt>
<totfact> 0.25851221E-01</totfact>
</mgrwt>
</event>
<event>
 4    1  0.1321115E-008  0.3517141E+04  0.7816531E-02  0.8109740E-01
          2   -1    0    0  501    0  0.00000000000E+00  0.00000000000E+00  0.26041629505E+04  0.26041629505E+04  0.00000000000E+00 0.  1.
         -2   -1    0    0    0  501 -0.00000000000E+00 -0.00000000000E+00 -0.11875487715E+04  0.11875487715E+04  0.00000000000E+00 0. -1.
    2000013    1    1    2    0    0  0.10295483634E+04  0.47304590732E+03  0.17346400315E+04  0.22793021524E+04  0.95000000000E+03 0.  0.
   -2000013    1    1    2    0    0 -0.10295483634E+04 -0.47304590732E+03 -0.31802585256E+03  0.15124095695E+04  0.95000000000E+03 0.  0.
<mgrwt>
<rscale>  0 0.35171412E+04</rscale>
<asrwt>0</asrwt>
<pdfrwt beam="1">  1        2 0.40064045E+00 0.35171412E+04</pdfrwt>
<pdfrwt beam="2">  1       -2 0.18269981E+00 0.35171412E+04</pdfrwt>
<totfact> 0.43130472E-01</totfact>
</mgrwt>
</event>
<event>
 4    1  0.1321115E-008  0.3273656E+04  0.7816531E-02  0.8169631E-01
         -1   -1    0    0    0  501 -0.00000000000E+00  0.00000000000E+00  0.75389303279E+03  0.75389303279E+03  0.00000000000E+00 0. -1.
          1   -1    0    0  501    0  0.00000000000E+00 -0.00000000000E+00 -0.35538285275E+04  0.35538285275E+04  0.00000000000E+00 0.  1.
    2000013    1    1    2    0    0  0.49741978164E+03  0.12322136373E+04 -0.12623994881E+04  0.20644440789E+04  0.95000000000E+03 0.  0.
   -2000013    1    1    2    0    0 -0.49741978164E+03 -0.12322136373E+04 -0.15375360065E+04  0.22432774814E+04  0.95000000000E+03 0.  0.
<mgrwt>
<rscale>  0 0.32736564E+04</rscale>
<asrwt>0</asrwt>
<pdfrwt beam="2">  1        1 0.54674285E+00 0.32736564E+04</pdfrwt>
<pdfrwt beam="1">  1       -1 0.11598354E+00 0.32736564E+04</pdfrwt>
<totfact> 0.12646468E-01</totfact>
</mgrwt>
</event>
<event>
 4    1  0.1321115E-008  0.2577526E+04  0.7816531E-02  0.8375875E-01
         -2   -1    0    0    0  501 -0.00000000000E+00  0.00000000000E+00  0.62690428354E+03  0.62690428354E+03  0.00000000000E+00 0. -1.
          2   -1    0    0  501    0  0.00000000000E+00 -0.00000000000E+00 -0.26493844966E+04  0.26493844966E+04  0.00000000000E+00 0.  1.
    2000013    1    1    2    0    0  0.13413963126E+03 -0.33704742126E+03 -0.20175902924E+04  0.22593726989E+04  0.95000000000E+03 0.  0.
   -2000013    1    1    2    0    0 -0.13413963126E+03  0.33704742126E+03 -0.48899206883E+01  0.10169160812E+04  0.95000000000E+03 0.  0.
<mgrwt>
<rscale>  0 0.25775263E+04</rscale>
<asrwt>0</asrwt>
<pdfrwt beam="2">  1        2 0.40759762E+00 0.25775263E+04</pdfrwt>
<pdfrwt beam="1">  1       -2 0.96446813E-01 0.25775263E+04</pdfrwt>
<totfact> 0.22682518E+00</totfact>
</mgrwt>
</event>
<event>
 4    1  0.1321115E-008  0.4937719E+04  0.7816531E-02  0.7838187E-01
         -2   -1    0    0    0  501 -0.00000000000E+00  0.00000000000E+00  0.16229087813E+04  0.16229087813E+04  0.00000000000E+00 0. -1.
          2   -1    0    0  501    0  0.00000000000E+00 -0.00000000000E+00 -0.37557674092E+04  0.37557674092E+04  0.00000000000E+00 0.  1.
    2000013    1    1    2    0    0  0.18030296626E+04  0.12748279432E+04 -0.16794138084E+04  0.29324107810E+04  0.95000000000E+03 0.  0.
   -2000013    1    1    2    0    0 -0.18030296626E+04 -0.12748279432E+04 -0.45344481953E+03  0.24462654094E+04  0.95000000000E+03 0.  0.
<mgrwt>
<rscale>  0 0.49377193E+04</rscale>
<asrwt>0</asrwt>
<pdfrwt beam="2">  1        2 0.57781037E+00 0.49377193E+04</pdfrwt>
<pdfrwt beam="1">  1       -2 0.24967828E+00 0.49377193E+04</pdfrwt>
<totfact> 0.24974064E-02</totfact>
</mgrwt>
</event>
<event>
 4    1  0.1321115E-008  0.3683470E+04  0.7816531E-02  0.8071635E-01
          2   -1    0    0  501    0  0.00000000000E+00  0.00000000000E+00  0.26452034299E+04  0.26452034299E+04  0.00000000000E+00 0.  1.
         -2   -1    0    0    0  501 -0.00000000000E+00 -0.00000000000E+00 -0.12823162176E+04  0.12823162176E+04  0.00000000000E+00 0. -1.
    2000013    1    1    2    0    0  0.46448520143E+02 -0.15678963279E+04  0.49977014497E+03  0.19007173798E+04  0.95000000000E+03 0.  0.
   -2000013    1    1    2    0    0 -0.46448520143E+02  0.15678963279E+04  0.86311706737E+03  0.20268022676E+04  0.95000000000E+03 0.  0.
<mgrwt>
<rscale>  0 0.36834697E+04</rscale>
<asrwt>0</asrwt>
<pdfrwt beam="1">  1        2 0.40695437E+00 0.36834697E+04</pdfrwt>
<pdfrwt beam="2">  1       -2 0.19727942E+00 0.36834697E+04</pdfrwt>
<totfact> 0.32107382E-01</totfact>
</mgrwt>
</event>
<event>
 4    1  0.1321115E-008  0.2507712E+04  0.7816531E-02  0.8400243E-01
         -2   -1    0    0    0  501 -0.00000000000E+00  0.00000000000E+00  0.75295465478E+03  0.75295465478E+03  0.00000000000E+00 0. -1.
          2   -1    0    0  501    0  0.00000000000E+00 -0.00000000000E+00 -0.20879805749E+04  0.20879805749E+04  0.00000000000E+00 0.  1.
    2000013    1    1    2    0    0  0.36975531390E+03  0.67850732657E+03 -0.36234225911E+03  0.12770603342E+04  0.95000000000E+03 0.  0.
   -2000013    1    1    2    0    0 -0.36975531390E+03 -0.67850732657E+03 -0.97268366099E+03  0.15638748955E+04  0.95000000000E+03 0.  0.
<mgrwt>
<rscale>  0 0.25077119E+04</rscale>
<asrwt>0</asrwt>
<pdfrwt beam="2">  1        2 0.32122778E+00 0.25077119E+04</pdfrwt>
<pdfrwt beam="1">  1       -2 0.11583918E+00 0.25077119E+04</pdfrwt>
<totfact> 0.30808499E+00</totfact>
</mgrwt>
</event>
<event>
 4    1  0.1321115E-008  0.2236523E+04  0.7816531E-02  0.8503378E-01
          2   -1    0    0  501    0  0.00000000000E+00  0.00000000000E+00  0.18221921575E+04  0.18221921575E+04  0.00000000000E+00 0.  1.
         -2   -1    0    0    0  501 -0.00000000000E+00 -0.00000000000E+00 -0.68626603567E+03  0.68626603567E+03  0.00000000000E+00 0. -1.
    2000013    1    1    2    0    0 -0.31589897667E+02  0.37057849601E+03  0.10815504615E+04  0.14868011784E+04  0.95000000000E+03 0.  0.
   -2000013    1    1    2    0    0  0.31589897667E+02 -0.37057849601E+03  0.54375660306E+02  0.10216570147E+04  0.95000000000E+03 0.  0.
<mgrwt>
<rscale>  0 0.22365228E+04</rscale>
<asrwt>0</asrwt>
<pdfrwt beam="1">  1        2 0.28033725E+00 0.22365228E+04</pdfrwt>
<pdfrwt beam="2">  1       -2 0.10557939E+00 0.22365228E+04</pdfrwt>
<totfact> 0.55449312E+00</totfact>
</mgrwt>
</event>
<event>
 4    1  0.1321115E-008  0.2248467E+04  0.7816531E-02  0.8498522E-01
         -2   -1    0    0    0  501 -0.00000000000E+00  0.00000000000E+00  0.80579286801E+03  0.80579286801E+03  0.00000000000E+00 0. -1.
          2   -1    0    0  501    0  0.00000000000E+00 -0.00000000000E+00 -0.15685181940E+04  0.15685181940E+04  0.00000000000E+00 0.  1.
    2000013    1    1    2    0    0 -0.57701854044E+03 -0.40927411871E+02 -0.55415262364E+03  0.12426626973E+04  0.95000000000E+03 0.  0.
   -2000013    1    1    2    0    0  0.57701854044E+03  0.40927411871E+02 -0.20857270233E+03  0.11316483646E+04  0.95000000000E+03 0.  0.
<mgrwt>
<rscale>  0 0.22484668E+04</rscale>
<asrwt>0</asrwt>
<pdfrwt beam="2">  1        2 0.24131049E+00 0.22484668E+04</pdfrwt>
<pdfrwt beam="1">  1       -2 0.12396813E+00 0.22484668E+04</pdfrwt>
<totfact> 0.51775118E+00</totfact>
</mgrwt>
</event>
<event>
 4    1  0.1321115E-008  0.3636223E+04  0.7816531E-02  0.8082244E-01
          2   -1    0    0  501    0  0.00000000000E+00  0.00000000000E+00  0.26650688148E+04  0.26650688148E+04  0.00000000000E+00 0.  1.
         -2   -1    0    0    0  501 -0.00000000000E+00 -0.00000000000E+00 -0.12403169832E+04  0.12403169832E+04  0.00000000000E+00 0. -1.
    2000013    1    1    2    0    0  0.44657934171E+03  0.14729266301E+04  0.51409103589E+03  0.18803551684E+04  0.95000000000E+03 0.  0.
   -2000013    1    1    2    0    0 -0.44657934171E+03 -0.14729266301E+04  0.91066079574E+03  0.20250306297E+04  0.95000000000E+03 0.  0.
<mgrwt>
<rscale>  0 0.36362234E+04</rscale>
<asrwt>0</asrwt>
<pdfrwt beam="1">  1        2 0.41001059E+00 0.36362234E+04</pdfrwt>
<pdfrwt beam="2">  1       -2 0.19081800E+00 0.36362234E+04</pdfrwt>
<totfact> 0.34638445E-01</totfact>
</mgrwt>
</event>
<event>
 4    1  0.1321115E-008  0.2576485E+04  0.7816531E-02  0.8376233E-01
         -1   -1    0    0    0  501 -0.00000000000E+00  0.00000000000E+00  0.13060837076E+04  0.13060837076E+04  0.00000000000E+00 0. -1.
          1   -1    0    0  501    0  0.00000000000E+00 -0.00000000000E+00 -0.12706450090E+04  0.12706450090E+04  0.00000000000E+00 0.  1.
    2000013    1    1    2    0    0 -0.62155685128E+03  0.60342632852E+03  0.99044265488E+02  0.12894828498E+04  0.95000000000E+03 0.  0.
   -2000013    1    1    2    0    0  0.62155685128E+03 -0.60342632852E+03 -0.63605566875E+02  0.12872458667E+04  0.95000000000E+03 0.  0.
<mgrwt>
<rscale>  0 0.25764850E+04</rscale>
<asrwt>0</asrwt>
<pdfrwt beam="2">  1        1 0.19548385E+00 0.25764850E+04</pdfrwt>
<pdfrwt beam="1">  1       -1 0.20093596E+00 0.25764850E+04</pdfrwt>
<totfact> 0.12426579E+00</totfact>
</mgrwt>
</event>
<event>
 4    1  0.1321115E-008  0.2289196E+04  0.7816531E-02  0.8482193E-01
          4   -1    0    0  501    0  0.00000000000E+00  0.00000000000E+00  0.62514395109E+03  0.62514395109E+03  0.00000000000E+00 0.  1.
         -4   -1    0    0    0  501 -0.00000000000E+00 -0.00000000000E+00 -0.20956851775E+04  0.20956851775E+04  0.00000000000E+00 0. -1.
    2000013    1    1    2    0    0  0.19803271677E+03 -0.58167272006E+03 -0.94128754162E+03  0.14717616472E+04  0.95000000000E+03 0.  0.
   -2000013    1    1    2    0    0 -0.19803271677E+03  0.58167272006E+03 -0.52925368477E+03  0.12490674814E+04  0.95000000000E+03 0.  0.
<mgrwt>
<rscale>  0 0.22891963E+04</rscale>
<asrwt>0</asrwt>
<pdfrwt beam="1">  1        4 0.96175990E-01 0.22891963E+04</pdfrwt>
<pdfrwt beam="2">  1       -4 0.32241311E+00 0.22891963E+04</pdfrwt>
<totfact> 0.36681463E-02</totfact>
</mgrwt>
</event>
<event>
 4    1  0.1321115E-008  0.2219029E+04  0.7816531E-02  0.8510550E-01
          1   -1    0    0  501    0  0.00000000000E+00  0.00000000000E+00  0.12605439019E+04  0.12605439019E+04  0.00000000000E+00 0.  1.
         -1   -1    0    0    0  501 -0.00000000000E+00 -0.00000000000E+00 -0.97657993895E+03  0.97657993895E+03  0.00000000000E+00 0. -1.
    2000013    1    1    2    0    0 -0.45155364066E+03  0.22904357357E+03  0.41279910497E+03  0.11529374441E+04  0.95000000000E+03 0.  0.
   -2000013    1    1    2    0    0  0.45155364066E+03 -0.22904357357E+03 -0.12883514204E+03  0.10841863967E+04  0.95000000000E+03 0.  0.
<mgrwt>
<rscale>  0 0.22190285E+04</rscale>
<asrwt>0</asrwt>
<pdfrwt beam="1">  1        1 0.19392983E+00 0.22190285E+04</pdfrwt>
<pdfrwt beam="2">  1       -1 0.15024307E+00 0.22190285E+04</pdfrwt>
<totfact> 0.30533306E+00</totfact>
</mgrwt>
</event>
<event>
 4    1  0.1321115E-008  0.2405324E+04  0.7816531E-02  0.8437513E-01
         -2   -1    0    0    0  501 -0.00000000000E+00  0.00000000000E+00  0.16285034206E+04  0.16285034206E+04  0.00000000000E+00 0. -1.
          2   -1    0    0  501    0  0.00000000000E+00 -0.00000000000E+00 -0.88817482283E+03  0.88817482283E+03  0.00000000000E+00 0.  1.
    2000013    1    1    2    0    0  0.56426444645E+03 -0.42384253160E+03  0.14610351342E+03  0.11924273956E+04  0.95000000000E+03 0.  0.
   -2000013    1    1    2    0    0 -0.56426444645E+03  0.42384253160E+03  0.59422508435E+03  0.13242508478E+04  0.95000000000E+03 0.  0.
<mgrwt>
<rscale>  0 0.24053239E+04</rscale>
<asrwt>0</asrwt>
<pdfrwt beam="2">  1        2 0.13664228E+00 0.24053239E+04</pdfrwt>
<pdfrwt beam="1">  1       -2 0.25053899E+00 0.24053239E+04</pdfrwt>
<totfact> 0.17119115E+00</totfact>
</mgrwt>
</event>
<event>
 4    1  0.1321115E-008  0.3371230E+04  0.7816531E-02  0.8145004E-01
         -2   -1    0    0    0  501 -0.00000000000E+00  0.00000000000E+00  0.10871135491E+04  0.10871135491E+04  0.00000000000E+00 0. -1.
          2   -1    0    0  501    0  0.00000000000E+00 -0.00000000000E+00 -0.26136160359E+04  0.26136160359E+04  0.00000000000E+00 0.  1.
    2000013    1    1    2    0    0 -0.13835343008E+04 -0.34792787289E+02 -0.93124367757E+03  0.19196594715E+04  0.95000000000E+03 0.  0.
   -2000013    1    1    2    0    0  0.13835343008E+04  0.34792787289E+02 -0.59525880921E+03  0.17810701136E+04  0.95000000000E+03 0.  0.
<mgrwt>
<rscale>  0 0.33712297E+04</rscale>
<asrwt>0</asrwt>
<pdfrwt beam="2">  1        2 0.40209477E+00 0.33712297E+04</pdfrwt>
<pdfrwt beam="1">  1       -2 0.16724824E+00 0.33712297E+04</pdfrwt>
<totfact> 0.55314277E-01</totfact>
</mgrwt>
</event>
<event>
 4    1  0.1321115E-008  0.2191823E+04  0.7816531E-02  0.8521839E-01
         -2   -1    0    0    0  501 -0.00000000000E+00  0.00000000000E+00  0.43331719471E+03  0.43331719471E+03  0.00000000000E+00 0. -1.
          2   -1    0    0  501    0  0.00000000000E+00 -0.00000000000E+00 -0.27716921594E+04  0.27716921594E+04  0.00000000000E+00 0.  1.
    2000013    1    1    2    0    0 -0.13669385505E+03 -0.45612792614E+03 -0.15609632792E+04  0.18883443156E+04  0.95000000000E+03 0.  0.
   -2000013    1    1    2    0    0  0.13669385505E+03  0.45612792614E+03 -0.77741168544E+03  0.13166650385E+04  0.95000000000E+03 0.  0.
<mgrwt>
<rscale>  0 0.21918229E+04</rscale>
<asrwt>0</asrwt>
<pdfrwt beam="2">  1        2 0.42641416E+00 0.21918229E+04</pdfrwt>
<pdfrwt beam="1">  1       -2 0.66664187E-01 0.21918229E+04</pdfrwt>
<totfact> 0.45507433E+00</totfact>
</mgrwt>
</event>
<event>
 4    1  0.1321115E-008  0.2970425E+04  0.7816531E-02  0.8252227E-01
         -2   -1    0    0    0  501 -0.00000000000E+00  0.00000000000E+00  0.14917978967E+04  0.14917978967E+04  0.00000000000E+00 0. -1.
          2   -1    0    0  501    0  0.00000000000E+00 -0.00000000000E+00 -0.14786561103E+04  0.14786561103E+04  0.00000000000E+00 0.  1.
    2000013    1    1    2    0    0  0.15052268266E+03 -0.11257104784E+04 -0.10951174993E+03  0.14847134345E+04  0.95000000000E+03 0.  0.
   -2000013    1    1    2    0    0 -0.15052268266E+03  0.11257104784E+04  0.12265353632E+03  0.14857405726E+04  0.95000000000E+03 0.  0.
<mgrwt>
<rscale>  0 0.29704249E+04</rscale>
<asrwt>0</asrwt>
<pdfrwt beam="2">  1        2 0.22748556E+00 0.29704249E+04</pdfrwt>
<pdfrwt beam="1">  1       -2 0.22950737E+00 0.29704249E+04</pdfrwt>
<totfact> 0.96444772E-01</totfact>
</mgrwt>
</event>
<event>
 4    1  0.1321115E-008  0.3019447E+04  0.7816531E-02  0.8238199E-01
         -2   -1    0    0    0  501 -0.00000000000E+00  0.00000000000E+00  0.11098466845E+04  0.11098466845E+04  0.00000000000E+00 0. -1.
          2   -1    0    0  501    0  0.00000000000E+00 -0.00000000000E+00 -0.20536753024E+04  0.20536753024E+04  0.00000000000E+00 0.  1.
    2000013    1    1    2    0    0 -0.67533094018E+03  0.71436824803E+03  0.19925444582E+03  0.13815195282E+04  0.95000000000E+03 0.  0.
   -2000013    1    1    2    0    0  0.67533094018E+03 -0.71436824803E+03 -0.11430830636E+04  0.17820024587E+04  0.95000000000E+03 0.  0.
<mgrwt>
<rscale>  0 0.30194468E+04</rscale>
<asrwt>0</asrwt>
<pdfrwt beam="2">  1        2 0.31595004E+00 0.30194468E+04</pdfrwt>
<pdfrwt beam="1">  1       -2 0.17074565E+00 0.30194468E+04</pdfrwt>
<totfact> 0.11223062E+00</totfact>
</mgrwt>
</event>
<event>
 4    1  0.1321115E-008  0.3987804E+04  0.7816531E-02  0.8007011E-01
          2   -1    0    0  501    0  0.00000000000E+00  0.00000000000E+00  0.20145918953E+04  0.20145918953E+04  0.00000000000E+00 0.  1.
         -2   -1    0    0    0  501 -0.00000000000E+00 -0.00000000000E+00 -0.19734244427E+04  0.19734244427E+04  0.00000000000E+00 0. -1.
    2000013    1    1    2    0    0  0.41002119124E+03 -0.17022408528E+04  0.10663242667E+03  0.19948964316E+04  0.95000000000E+03 0.  0.
   -2000013    1    1    2    0    0 -0.41002119124E+03  0.17022408528E+04 -0.65464974075E+02  0.19931199064E+04  0.95000000000E+03 0.  0.
<mgrwt>
<rscale>  0 0.39878039E+04</rscale>
<asrwt>0</asrwt>
<pdfrwt beam="1">  1        2 0.30993722E+00 0.39878039E+04</pdfrwt>
<pdfrwt beam="2">  1       -2 0.30360376E+00 0.39878039E+04</pdfrwt>
<totfact> 0.15642086E-01</totfact>
</mgrwt>
</event>
<event>
 4    1  0.1321115E-008  0.2629509E+04  0.7816531E-02  0.8358246E-01
          1   -1    0    0  501    0  0.00000000000E+00  0.00000000000E+00  0.92746052686E+03  0.92746052686E+03  0.00000000000E+00 0.  1.
         -1   -1    0    0    0  501 -0.00000000000E+00 -0.00000000000E+00 -0.18637765861E+04  0.18637765861E+04  0.00000000000E+00 0. -1.
    2000013    1    1    2    0    0  0.26162904070E+03 -0.86960233973E+03 -0.50817593235E+03  0.14090424984E+04  0.95000000000E+03 0.  0.
   -2000013    1    1    2    0    0 -0.26162904070E+03  0.86960233973E+03 -0.42814012691E+03  0.13821946145E+04  0.95000000000E+03 0.  0.
<mgrwt>
<rscale>  0 0.26295089E+04</rscale>
<asrwt>0</asrwt>
<pdfrwt beam="1">  1        1 0.14268624E+00 0.26295089E+04</pdfrwt>
<pdfrwt beam="2">  1       -1 0.28673485E+00 0.26295089E+04</pdfrwt>
<totfact> 0.61113422E-01</totfact>
</mgrwt>
</event>
<event>
 4    1  0.1321115E-008  0.2645151E+04  0.7816531E-02  0.8353024E-01
         -2   -1    0    0    0  501 -0.00000000000E+00  0.00000000000E+00  0.53797414765E+03  0.53797414765E+03  0.00000000000E+00 0. -1.
          2   -1    0    0  501    0  0.00000000000E+00 -0.00000000000E+00 -0.32514675458E+04  0.32514675458E+04  0.00000000000E+00 0.  1.
    2000013    1    1    2    0    0  0.55376596981E+03  0.68258186060E+03 -0.17468000149E+04  0.21740250776E+04  0.95000000000E+03 0.  0.
   -2000013    1    1    2    0    0 -0.55376596981E+03 -0.68258186060E+03 -0.96669338327E+03  0.16154166159E+04  0.95000000000E+03 0.  0.
<mgrwt>
<rscale>  0 0.26451506E+04</rscale>
<asrwt>0</asrwt>
<pdfrwt beam="2">  1        2 0.50022577E+00 0.26451506E+04</pdfrwt>
<pdfrwt beam="1">  1       -2 0.82765254E-01 0.26451506E+04</pdfrwt>
<totfact> 0.13534604E+00</totfact>
</mgrwt>
</event>
<event>
 4    1  0.1321115E-008  0.2883032E+04  0.7816531E-02  0.8277944E-01
          2   -1    0    0  501    0  0.00000000000E+00  0.00000000000E+00  0.22339125701E+04  0.22339125701E+04  0.00000000000E+00 0.  1.
         -2   -1    0    0    0  501 -0.00000000000E+00 -0.00000000000E+00 -0.93019236868E+03  0.93019236868E+03  0.00000000000E+00 0. -1.
    2000013    1    1    2    0    0  0.23200527761E+03 -0.10570281834E+04  0.72410639671E+03  0.16118204314E+04  0.95000000000E+03 0.  0.
   -2000013    1    1    2    0    0 -0.23200527761E+03  0.10570281834E+04  0.57961380468E+03  0.15522845074E+04  0.95000000000E+03 0.  0.
<mgrwt>
<rscale>  0 0.28830320E+04</rscale>
<asrwt>0</asrwt>
<pdfrwt beam="1">  1        2 0.34367886E+00 0.28830320E+04</pdfrwt>
<pdfrwt beam="2">  1       -2 0.14310652E+00 0.28830320E+04</pdfrwt>
<totfact> 0.14484182E+00</totfact>
</mgrwt>
</event>
<event>
 4    1  0.1321115E-008  0.2876451E+04  0.7816531E-02  0.8279919E-01
         -2   -1    0    0    0  501 -0.00000000000E+00  0.00000000000E+00  0.21194224821E+04  0.21194224821E+04  0.00000000000E+00 0. -1.
          2   -1    0    0  501    0  0.00000000000E+00 -0.00000000000E+00 -0.97596969210E+03  0.97596969210E+03  0.00000000000E+00 0.  1.
    2000013    1    1    2    0    0  0.53940205436E+03  0.87502518589E+03  0.92760738447E+03  0.16791602401E+04  0.95000000000E+03 0.  0.
   -2000013    1    1    2    0    0 -0.53940205436E+03 -0.87502518589E+03  0.21584540558E+03  0.14162319341E+04  0.95000000000E+03 0.  0.
<mgrwt>
<rscale>  0 0.28764507E+04</rscale>
<asrwt>0</asrwt>
<pdfrwt beam="2">  1        2 0.15014918E+00 0.28764507E+04</pdfrwt>
<pdfrwt beam="1">  1       -2 0.32606500E+00 0.28764507E+04</pdfrwt>
<totfact> 0.49573079E-01</totfact>
</mgrwt>
</event>
<event>
 4    1  0.1321115E-008  0.2835149E+04  0.7816531E-02  0.8292438E-01
          3   -1    0    0  501    0  0.00000000000E+00  0.00000000000E+00  0.19489572901E+04  0.19489572901E+04  0.00000000000E+00 0. -1.
         -3   -1    0    0    0  501 -0.00000000000E+00 -0.00000000000E+00 -0.10310734410E+04  0.10310734410E+04  0.00000000000E+00 0.  1.
    2000013    1    1    2    0    0 -0.10581081794E+03 -0.10028485303E+04  0.77447735936E+03  0.15872039202E+04  0.95000000000E+03 0.  0.
   -2000013    1    1    2    0    0  0.10581081794E+03  0.10028485303E+04  0.14340648980E+03  0.13928268110E+04  0.95000000000E+03 0.  0.
<mgrwt>
<rscale>  0 0.28351494E+04</rscale>
<asrwt>0</asrwt>
<pdfrwt beam="1">  1        3 0.29983958E+00 0.28351494E+04</pdfrwt>
<pdfrwt beam="2">  1       -3 0.15862668E+00 0.28351494E+04</pdfrwt>
<totfact> 0.24334956E-02</totfact>
</mgrwt>
</event>
<event>
 4    1  0.1321115E-008  0.2499249E+04  0.7816531E-02  0.8403253E-01
         -2   -1    0    0    0  501 -0.00000000000E+00  0.00000000000E+00  0.10987116723E+04  0.10987116723E+04  0.00000000000E+00 0. -1.
          2   -1    0    0  501    0  0.00000000000E+00 -0.00000000000E+00 -0.14212654890E+04  0.14212654890E+04  0.00000000000E+00 0.  1.
    2000013    1    1    2    0    0 -0.31950818732E+02  0.81119121358E+03 -0.16429209024E+03  0.12603745200E+04  0.95000000000E+03 0.  0.
   -2000013    1    1    2    0    0  0.31950818732E+02 -0.81119121358E+03 -0.15826172650E+03  0.12596026413E+04  0.95000000000E+03 0.  0.
<mgrwt>
<rscale>  0 0.24992487E+04</rscale>
<asrwt>0</asrwt>
<pdfrwt beam="2">  1        2 0.21865623E+00 0.24992487E+04</pdfrwt>
<pdfrwt beam="1">  1       -2 0.16903256E+00 0.24992487E+04</pdfrwt>
<totfact> 0.27180953E+00</totfact>
</mgrwt>
</event>
<event>
 4    1  0.1321115E-008  0.2623188E+04  0.7816531E-02  0.8360367E-01
          2   -1    0    0  501    0  0.00000000000E+00  0.00000000000E+00  0.24427073413E+04  0.24427073413E+04  0.00000000000E+00 0.  1.
         -2   -1    0    0    0  501 -0.00000000000E+00 -0.00000000000E+00 -0.70425063007E+03  0.70425063007E+03  0.00000000000E+00 0. -1.
    2000013    1    1    2    0    0  0.24204732961E+03 -0.86554596764E+03  0.74913279922E+03  0.15071352569E+04  0.95000000000E+03 0.  0.
   -2000013    1    1    2    0    0 -0.24204732961E+03  0.86554596764E+03  0.98932391205E+03  0.16398227145E+04  0.95000000000E+03 0.  0.
<mgrwt>
<rscale>  0 0.26231875E+04</rscale>
<asrwt>0</asrwt>
<pdfrwt beam="1">  1        2 0.37580113E+00 0.26231875E+04</pdfrwt>
<pdfrwt beam="2">  1       -2 0.10834625E+00 0.26231875E+04</pdfrwt>
<totfact> 0.22602041E+00</totfact>
</mgrwt>
</event>
<event>
 4    1  0.1321115E-008  0.2577270E+04  0.7816531E-02  0.8375963E-01
          2   -1    0    0  501    0  0.00000000000E+00  0.00000000000E+00  0.10284145086E+04  0.10284145086E+04  0.00000000000E+00 0.  1.
         -2   -1    0    0    0  501 -0.00000000000E+00 -0.00000000000E+00 -0.16146990498E+04  0.16146990498E+04  0.00000000000E+00 0. -1.
    2000013    1    1    2    0    0  0.73552555752E+03 -0.44414473230E+03 -0.43751355368E+03  0.13535806214E+04  0.95000000000E+03 0.  0.
   -2000013    1    1    2    0    0 -0.73552555752E+03  0.44414473230E+03 -0.14877098751E+03  0.12895329370E+04  0.95000000000E+03 0.  0.
<mgrwt>
<rscale>  0 0.25772698E+04</rscale>
<asrwt>0</asrwt>
<pdfrwt beam="1">  1        2 0.15821762E+00 0.25772698E+04</pdfrwt>
<pdfrwt beam="2">  1       -2 0.24841524E+00 0.25772698E+04</pdfrwt>
<totfact> 0.14068319E+00</totfact>
</mgrwt>
</event>
<event>
 4    1  0.1321115E-008  0.2070989E+04  0.7816531E-02  0.8574132E-01
          2   -1    0    0  501    0  0.00000000000E+00  0.00000000000E+00  0.17984896656E+04  0.17984896656E+04  0.00000000000E+00 0.  1.
         -2   -1    0    0    0  501 -0.00000000000E+00 -0.00000000000E+00 -0.59619407493E+03  0.59619407493E+03  0.00000000000E+00 0. -1.
    2000013    1    1    2    0    0  0.18037384582E+03 -0.19670481563E+03  0.23820715760E+03  0.10151207606E+04  0.95000000000E+03 0.  0.
   -2000013    1    1    2    0    0 -0.18037384582E+03  0.19670481563E+03  0.96408843310E+03  0.13795629799E+04  0.95000000000E+03 0.  0.
<mgrwt>
<rscale>  0 0.20709890E+04</rscale>
<asrwt>0</asrwt>
<pdfrwt beam="1">  1        2 0.27669071E+00 0.20709890E+04</pdfrwt>
<pdfrwt beam="2">  1       -2 0.91722166E-01 0.20709890E+04</pdfrwt>
<totfact> 0.80772553E+00</totfact>
</mgrwt>
</event>
<event>
 4    1  0.1321115E-008  0.2337589E+04  0.7816531E-02  0.8463246E-01
          2   -1    0    0  501    0  0.00000000000E+00  0.00000000000E+00  0.17416218466E+04  0.17416218466E+04  0.00000000000E+00 0.  1.
         -2   -1    0    0    0  501 -0.00000000000E+00 -0.00000000000E+00 -0.78437298786E+03  0.78437298786E+03  0.00000000000E+00 0. -1.
    2000013    1    1    2    0    0 -0.10086923701E+02 -0.67876090523E+03  0.53542545184E+03  0.12845226845E+04  0.95000000000E+03 0.  0.
   -2000013    1    1    2    0    0  0.10086923701E+02  0.67876090523E+03  0.42182340689E+03  0.12414721499E+04  0.95000000000E+03 0.  0.
<mgrwt>
<rscale>  0 0.23375895E+04</rscale>
<asrwt>0</asrwt>
<pdfrwt beam="1">  1        2 0.26794182E+00 0.23375895E+04</pdfrwt>
<pdfrwt beam="2">  1       -2 0.12067277E+00 0.23375895E+04</pdfrwt>
<totfact> 0.44011289E+00</totfact>
</mgrwt>
</event>
<event>
 4    1  0.1321115E-008  0.2084163E+04  0.7816531E-02  0.8568252E-01
         -2   -1    0    0    0  501 -0.00000000000E+00  0.00000000000E+00  0.68797314216E+03  0.68797314216E+03  0.00000000000E+00 0. -1.
          2   -1    0    0  501    0  0.00000000000E+00 -0.00000000000E+00 -0.15784531088E+04  0.15784531088E+04  0.00000000000E+00 0.  1.
    2000013    1    1    2    0    0  0.29292104207E+03  0.93976384433E+02 -0.12118838725E+03  0.10058930972E+04  0.95000000000E+03 0.  0.
   -2000013    1    1    2    0    0 -0.29292104207E+03 -0.93976384433E+02 -0.76929157942E+03  0.12605331538E+04  0.95000000000E+03 0.  0.
<mgrwt>
<rscale>  0 0.20841625E+04</rscale>
<asrwt>0</asrwt>
<pdfrwt beam="2">  1        2 0.24283894E+00 0.20841625E+04</pdfrwt>
<pdfrwt beam="1">  1       -2 0.10584202E+00 0.20841625E+04</pdfrwt>
<totfact> 0.76303756E+00</totfact>
</mgrwt>
</event>
<event>
 4    1  0.1321115E-008  0.2431662E+04  0.7816531E-02  0.8427744E-01
         -2   -1    0    0    0  501 -0.00000000000E+00  0.00000000000E+00  0.54860545399E+03  0.54860545399E+03  0.00000000000E+00 0. -1.
          2   -1    0    0  501    0  0.00000000000E+00 -0.00000000000E+00 -0.26945510800E+04  0.26945510800E+04  0.00000000000E+00 0.  1.
    2000013    1    1    2    0    0 -0.46073971475E+03 -0.41431480374E+03 -0.16570866901E+04  0.20080772246E+04  0.95000000000E+03 0.  0.
   -2000013    1    1    2    0    0  0.46073971475E+03  0.41431480374E+03 -0.48885893590E+03  0.12350793094E+04  0.95000000000E+03 0.  0.
<mgrwt>
<rscale>  0 0.24316623E+04</rscale>
<asrwt>0</asrwt>
<pdfrwt beam="2">  1        2 0.41454632E+00 0.24316623E+04</pdfrwt>
<pdfrwt beam="1">  1       -2 0.84400840E-01 0.24316623E+04</pdfrwt>
<totfact> 0.29381884E+00</totfact>
</mgrwt>
</event>
<event>
 4    1  0.1321115E-008  0.2449226E+04  0.7816531E-02  0.8421301E-01
         -2   -1    0    0    0  501 -0.00000000000E+00  0.00000000000E+00  0.51259871442E+03  0.51259871442E+03  0.00000000000E+00 0. -1.
          2   -1    0    0  501    0  0.00000000000E+00 -0.00000000000E+00 -0.29256350337E+04  0.29256350337E+04  0.00000000000E+00 0.  1.
    2000013    1    1    2    0    0 -0.28800045893E+03 -0.46731073499E+03 -0.44295549261E+03  0.11832299674E+04  0.95000000000E+03 0.  0.
   -2000013    1    1    2    0    0  0.28800045893E+03  0.46731073499E+03 -0.19700808267E+04  0.22550037807E+04  0.95000000000E+03 0.  0.
<mgrwt>
<rscale>  0 0.24492258E+04</rscale>
<asrwt>0</asrwt>
<pdfrwt beam="2">  1        2 0.45009770E+00 0.24492258E+04</pdfrwt>
<pdfrwt beam="1">  1       -2 0.78861340E-01 0.24492258E+04</pdfrwt>
<totfact> 0.24772212E+00</totfact>
</mgrwt>
</event>
<event>
 4    1  0.1321115E-008  0.2198324E+04  0.7816531E-02  0.8519126E-01
         -2   -1    0    0    0  501 -0.00000000000E+00  0.00000000000E+00  0.78425046798E+03  0.78425046798E+03  0.00000000000E+00 0. -1.
          2   -1    0    0  501    0  0.00000000000E+00 -0.00000000000E+00 -0.15405239124E+04  0.15405239124E+04  0.00000000000E+00 0.  1.
    2000013    1    1    2    0    0  0.11095580279E+03  0.54150003083E+03 -0.36640225218E+03  0.11585698442E+04  0.95000000000E+03 0.  0.
   -2000013    1    1    2    0    0 -0.11095580279E+03 -0.54150003083E+03 -0.38987119221E+03  0.11662045361E+04  0.95000000000E+03 0.  0.
<mgrwt>
<rscale>  0 0.21983235E+04</rscale>
<asrwt>0</asrwt>
<pdfrwt beam="2">  1        2 0.23700368E+00 0.21983235E+04</pdfrwt>
<pdfrwt beam="1">  1       -2 0.12065392E+00 0.21983235E+04</pdfrwt>
<totfact> 0.57683430E+00</totfact>
</mgrwt>
</event>
<event>
 4    1  0.1321115E-008  0.2144619E+04  0.7816531E-02  0.8541839E-01
          2   -1    0    0  501    0  0.00000000000E+00  0.00000000000E+00  0.12475321997E+04  0.12475321997E+04  0.00000000000E+00 0.  1.
         -2   -1    0    0    0  501 -0.00000000000E+00 -0.00000000000E+00 -0.92169738939E+03  0.92169738939E+03  0.00000000000E+00 0. -1.
    2000013    1    1    2    0    0  0.34038427110E+03  0.25107352319E+03  0.42754505992E+03  0.11243638843E+04  0.95000000000E+03 0.  0.
   -2000013    1    1    2    0    0 -0.34038427110E+03 -0.25107352319E+03 -0.10171024966E+03  0.10448657047E+04  0.95000000000E+03 0.  0.
<mgrwt>
<rscale>  0 0.21446185E+04</rscale>
<asrwt>0</asrwt>
<pdfrwt beam="1">  1        2 0.19192803E+00 0.21446185E+04</pdfrwt>
<pdfrwt beam="2">  1       -2 0.14179960E+00 0.21446185E+04</pdfrwt>
<totfact> 0.56618230E+00</totfact>
</mgrwt>
</event>
<event>
 4    1  0.1321115E-008  0.2584896E+04  0.7816531E-02  0.8373350E-01
          2   -1    0    0  501    0  0.00000000000E+00  0.00000000000E+00  0.22061538009E+04  0.22061538009E+04  0.00000000000E+00 0.  1.
         -2   -1    0    0    0  501 -0.00000000000E+00 -0.00000000000E+00 -0.75716455373E+03  0.75716455373E+03  0.00000000000E+00 0. -1.
    2000013    1    1    2    0    0  0.38731317338E+03 -0.28547883674E+03 -0.11512860629E+03  0.10711042230E+04  0.95000000000E+03 0.  0.
   -2000013    1    1    2    0    0 -0.38731317338E+03  0.28547883674E+03  0.15641178534E+04  0.18922141316E+04  0.95000000000E+03 0.  0.
<mgrwt>
<rscale>  0 0.25848957E+04</rscale>
<asrwt>0</asrwt>
<pdfrwt beam="1">  1        2 0.33940827E+00 0.25848957E+04</pdfrwt>
<pdfrwt beam="2">  1       -2 0.11648686E+00 0.25848957E+04</pdfrwt>
<totfact> 0.25922191E+00</totfact>
</mgrwt>
</event>
<event>
 4    1  0.1321115E-008  0.2119444E+04  0.7816531E-02  0.8552726E-01
          2   -1    0    0  501    0  0.00000000000E+00  0.00000000000E+00  0.15807673630E+04  0.15807673630E+04  0.00000000000E+00 0.  1.
         -2   -1    0    0    0  501 -0.00000000000E+00 -0.00000000000E+00 -0.71042141722E+03  0.71042141722E+03  0.00000000000E+00 0. -1.
    2000013    1    1    2    0    0  0.22969158176E+03  0.19245800419E+03  0.44334109592E+02  0.99712778488E+03  0.95000000000E+03 0.  0.
   -2000013    1    1    2    0    0 -0.22969158176E+03 -0.19245800419E+03  0.82601183618E+03  0.12940609953E+04  0.95000000000E+03 0.  0.
<mgrwt>
<rscale>  0 0.21194443E+04</rscale>
<asrwt>0</asrwt>
<pdfrwt beam="1">  1        2 0.24319498E+00 0.21194443E+04</pdfrwt>
<pdfrwt beam="2">  1       -2 0.10929560E+00 0.21194443E+04</pdfrwt>
<totfact> 0.70201148E+00</totfact>
</mgrwt>
</event>
<event>
 4    1  0.1321115E-008  0.2153420E+04  0.7816531E-02  0.8538070E-01
          2   -1    0    0  501    0  0.00000000000E+00  0.00000000000E+00  0.31448547183E+04  0.31448547183E+04  0.00000000000E+00 0.  1.
         -2   -1    0    0    0  501 -0.00000000000E+00 -0.00000000000E+00 -0.36863518343E+03  0.36863518343E+03  0.00000000000E+00 0. -1.
    2000013    1    1    2    0    0  0.47796199381E+03 -0.35966647008E+02  0.16565184888E+04  0.19688308132E+04  0.95000000000E+03 0.  0.
   -2000013    1    1    2    0    0 -0.47796199381E+03  0.35966647008E+02  0.11197010460E+04  0.15446590885E+04  0.95000000000E+03 0.  0.
<mgrwt>
<rscale>  0 0.21534197E+04</rscale>
<asrwt>0</asrwt>
<pdfrwt beam="1">  1        2 0.48382378E+00 0.21534197E+04</pdfrwt>
<pdfrwt beam="2">  1       -2 0.56713107E-01 0.21534197E+04</pdfrwt>
<totfact> 0.37756978E+00</totfact>
</mgrwt>
</event>
<event>
 4    1  0.1321115E-008  0.2188257E+04  0.7816531E-02  0.8523332E-01
          2   -1    0    0  501    0  0.00000000000E+00  0.00000000000E+00  0.28558294877E+04  0.28558294877E+04  0.00000000000E+00 0.  1.
         -2   -1    0    0    0  501 -0.00000000000E+00 -0.00000000000E+00 -0.41918359052E+03  0.41918359052E+03  0.00000000000E+00 0. -1.
    2000013    1    1    2    0    0  0.36657398520E+03 -0.16961430506E+03  0.67565977997E+03  0.12337591489E+04  0.95000000000E+03 0.  0.
   -2000013    1    1    2    0    0 -0.36657398520E+03  0.16961430506E+03  0.17609861172E+04  0.20412539293E+04  0.95000000000E+03 0.  0.
<mgrwt>
<rscale>  0 0.21882567E+04</rscale>
<asrwt>0</asrwt>
<pdfrwt beam="1">  1        2 0.43935837E+00 0.21882567E+04</pdfrwt>
<pdfrwt beam="2">  1       -2 0.64489785E-01 0.21882567E+04</pdfrwt>
<totfact> 0.43480471E+00</totfact>
</mgrwt>
</event>
<event>
 4    1  0.1321115E-008  0.2360821E+04  0.7816531E-02  0.8454319E-01
          2   -1    0    0  501    0  0.00000000000E+00  0.00000000000E+00  0.15123450991E+04  0.15123450991E+04  0.00000000000E+00 0.  1.
         -2   -1    0    0    0  501 -0.00000000000E+00 -0.00000000000E+00 -0.92132990274E+03  0.92132990274E+03  0.00000000000E+00 0. -1.
    2000013    1    1    2    0    0 -0.46996585621E+03  0.45500952237E+03  0.36831255348E+02  0.11540182463E+04  0.95000000000E+03 0.  0.
   -2000013    1    1    2    0    0  0.46996585621E+03 -0.45500952237E+03  0.55418394100E+03  0.12796567555E+04  0.95000000000E+03 0.  0.
<mgrwt>
<rscale>  0 0.23608208E+04</rscale>
<asrwt>0</asrwt>
<pdfrwt beam="1">  1        2 0.23266848E+00 0.23608208E+04</pdfrwt>
<pdfrwt beam="2">  1       -2 0.14174306E+00 0.23608208E+04</pdfrwt>
<totfact> 0.39196284E+00</totfact>
</mgrwt>
</event>
<event>
 4    1  0.1321115E-008  0.2114011E+04  0.7816531E-02  0.8555097E-01
         -2   -1    0    0    0  501 -0.00000000000E+00  0.00000000000E+00  0.51702261645E+03  0.51702261645E+03  0.00000000000E+00 0. -1.
          2   -1    0    0  501    0  0.00000000000E+00 -0.00000000000E+00 -0.21609503440E+04  0.21609503440E+04  0.00000000000E+00 0.  1.
    2000013    1    1    2    0    0 -0.39709346335E+03 -0.98584973596E+02 -0.10976377551E+04  0.15082144599E+04  0.95000000000E+03 0.  0.
   -2000013    1    1    2    0    0  0.39709346335E+03  0.98584973596E+02 -0.54628997254E+03  0.11697585006E+04  0.95000000000E+03 0.  0.
<mgrwt>
<rscale>  0 0.21140106E+04</rscale>
<asrwt>0</asrwt>
<pdfrwt beam="2">  1        2 0.33245389E+00 0.21140106E+04</pdfrwt>
<pdfrwt beam="1">  1       -2 0.79541943E-01 0.21140106E+04</pdfrwt>
<totfact> 0.70003853E+00</totfact>
</mgrwt>
</event>
<event>
 4    1  0.1321115E-008  0.2266515E+04  0.7816531E-02  0.8491242E-01
          2   -1    0    0  501    0  0.00000000000E+00  0.00000000000E+00  0.26109999551E+04  0.26109999551E+04  0.00000000000E+00 0.  1.
         -2   -1    0    0    0  501 -0.00000000000E+00 -0.00000000000E+00 -0.49186991523E+03  0.49186991523E+03  0.00000000000E+00 0. -1.
    2000013    1    1    2    0    0  0.61410346318E+03  0.15761171209E+02  0.96874675178E+03  0.14894098654E+04  0.95000000000E+03 0.  0.
   -2000013    1    1    2    0    0 -0.61410346318E+03 -0.15761171209E+02  0.11503832881E+04  0.16134600049E+04  0.95000000000E+03 0.  0.
<mgrwt>
<rscale>  0 0.22665148E+04</rscale>
<asrwt>0</asrwt>
<pdfrwt beam="1">  1        2 0.40169229E+00 0.22665148E+04</pdfrwt>
<pdfrwt beam="2">  1       -2 0.75672296E-01 0.22665148E+04</pdfrwt>
<totfact> 0.42675055E+00</totfact>
</mgrwt>
</event>
<event>
 4    1  0.1321115E-008  0.2270707E+04  0.7816531E-02  0.8489561E-01
          2   -1    0    0  501    0  0.00000000000E+00  0.00000000000E+00  0.13253089175E+04  0.13253089175E+04  0.00000000000E+00 0.  1.
         -2   -1    0    0    0  501 -0.00000000000E+00 -0.00000000000E+00 -0.97262392898E+03  0.97262392898E+03  0.00000000000E+00 0. -1.
    2000013    1    1    2    0    0 -0.50485073393E+03  0.32955760682E+03  0.32996742694E+03  0.11725446612E+04  0.95000000000E+03 0.  0.
   -2000013    1    1    2    0    0  0.50485073393E+03 -0.32955760682E+03  0.22717561537E+02  0.11253881852E+04  0.95000000000E+03 0.  0.
<mgrwt>
<rscale>  0 0.22707066E+04</rscale>
<asrwt>0</asrwt>
<pdfrwt beam="1">  1        2 0.20389368E+00 0.22707066E+04</pdfrwt>
<pdfrwt beam="2">  1       -2 0.14963445E+00 0.22707066E+04</pdfrwt>
<totfact> 0.43799724E+00</totfact>
</mgrwt>
</event>
<event>
 4    1  0.1321115E-008  0.4011949E+04  0.7816531E-02  0.8002140E-01
          2   -1    0    0  501    0  0.00000000000E+00  0.00000000000E+00  0.20716847782E+04  0.20716847782E+04  0.00000000000E+00 0.  1.
         -2   -1    0    0    0  501 -0.00000000000E+00 -0.00000000000E+00 -0.19423485738E+04  0.19423485738E+04  0.00000000000E+00 0. -1.
    2000013    1    1    2    0    0 -0.54938183624E+03  0.10650645016E+04  0.13635147501E+04  0.20488668254E+04  0.95000000000E+03 0.  0.
   -2000013    1    1    2    0    0  0.54938183624E+03 -0.10650645016E+04 -0.12341785457E+04  0.19651665266E+04  0.95000000000E+03 0.  0.
<mgrwt>
<rscale>  0 0.40119491E+04</rscale>
<asrwt>0</asrwt>
<pdfrwt beam="1">  1        2 0.31872074E+00 0.40119491E+04</pdfrwt>
<pdfrwt beam="2">  1       -2 0.29882286E+00 0.40119491E+04</pdfrwt>
<totfact> 0.15520694E-01</totfact>
</mgrwt>
</event>
<event>
 4    1  0.1321115E-008  0.2480775E+04  0.7816531E-02  0.8409867E-01
         -2   -1    0    0    0  501 -0.00000000000E+00  0.00000000000E+00  0.83650290747E+03  0.83650290747E+03  0.00000000000E+00 0. -1.
          2   -1    0    0  501    0  0.00000000000E+00 -0.00000000000E+00 -0.18392776526E+04  0.18392776526E+04  0.00000000000E+00 0.  1.
    2000013    1    1    2    0    0  0.14858315382E+02 -0.65354000626E+03 -0.99416523091E+03  0.15225635670E+04  0.95000000000E+03 0.  0.
   -2000013    1    1    2    0    0 -0.14858315382E+02  0.65354000626E+03 -0.86095142385E+01  0.11532169931E+04  0.95000000000E+03 0.  0.
<mgrwt>
<rscale>  0 0.24807750E+04</rscale>
<asrwt>0</asrwt>
<pdfrwt beam="2">  1        2 0.28296579E+00 0.24807750E+04</pdfrwt>
<pdfrwt beam="1">  1       -2 0.12869276E+00 0.24807750E+04</pdfrwt>
<totfact> 0.32664845E+00</totfact>
</mgrwt>
</event>
<event>
 4    1  0.1321115E-008  0.3056803E+04  0.7816531E-02  0.8227694E-01
          2   -1    0    0  501    0  0.00000000000E+00  0.00000000000E+00  0.20191887563E+04  0.20191887563E+04  0.00000000000E+00 0.  1.
         -2   -1    0    0    0  501 -0.00000000000E+00 -0.00000000000E+00 -0.11569058706E+04  0.11569058706E+04  0.00000000000E+00 0. -1.
    2000013    1    1    2    0    0 -0.94184049014E+03 -0.53952215896E+03 -0.93914417359E+02  0.14454990787E+04  0.95000000000E+03 0.  0.
   -2000013    1    1    2    0    0  0.94184049014E+03  0.53952215896E+03  0.95619730304E+03  0.17305955481E+04  0.95000000000E+03 0.  0.
<mgrwt>
<rscale>  0 0.30568031E+04</rscale>
<asrwt>0</asrwt>
<pdfrwt beam="1">  1        2 0.31064442E+00 0.30568031E+04</pdfrwt>
<pdfrwt beam="2">  1       -2 0.17798552E+00 0.30568031E+04</pdfrwt>
<totfact> 0.10401613E+00</totfact>
</mgrwt>
</event>
<event>
 4    1  0.1321115E-008  0.2503186E+04  0.7816531E-02  0.8401851E-01
          2   -1    0    0  501    0  0.00000000000E+00  0.00000000000E+00  0.13404304847E+04  0.13404304847E+04  0.00000000000E+00 0.  1.
         -2   -1    0    0    0  501 -0.00000000000E+00 -0.00000000000E+00 -0.11686435132E+04  0.11686435132E+04  0.00000000000E+00 0. -1.
    2000013    1    1    2    0    0  0.27296440306E+03 -0.67380634606E+03 -0.28302224266E+03  0.12292787101E+04  0.95000000000E+03 0.  0.
   -2000013    1    1    2    0    0 -0.27296440306E+03  0.67380634606E+03  0.45480921419E+03  0.12797952878E+04  0.95000000000E+03 0.  0.
<mgrwt>
<rscale>  0 0.25031863E+04</rscale>
<asrwt>0</asrwt>
<pdfrwt beam="1">  1        2 0.20622007E+00 0.25031863E+04</pdfrwt>
<pdfrwt beam="2">  1       -2 0.17979131E+00 0.25031863E+04</pdfrwt>
<totfact> 0.25406101E+00</totfact>
</mgrwt>
</event>
<event>
 4    1  0.1321115E-008  0.4457461E+04  0.7816531E-02  0.7918127E-01
          1   -1    0    0  501    0  0.00000000000E+00  0.00000000000E+00  0.19491141778E+04  0.19491141778E+04  0.00000000000E+00 0.  1.
         -1   -1    0    0    0  501 -0.00000000000E+00 -0.00000000000E+00 -0.25484600999E+04  0.25484600999E+04  0.00000000000E+00 0. -1.
    2000013    1    1    2    0    0 -0.18429717765E+04  0.45292255284E+03  0.38693289378E+03  0.21572901687E+04  0.95000000000E+03 0.  0.
   -2000013    1    1    2    0    0  0.18429717765E+04 -0.45292255284E+03 -0.98627881592E+03  0.23402841089E+04  0.95000000000E+03 0.  0.
<mgrwt>
<rscale>  0 0.44574610E+04</rscale>
<asrwt>0</asrwt>
<pdfrwt beam="1">  1        1 0.29986372E+00 0.44574610E+04</pdfrwt>
<pdfrwt beam="2">  1       -1 0.39207078E+00 0.44574610E+04</pdfrwt>
<totfact> 0.19709848E-02</totfact>
</mgrwt>
</event>
<event>
 4    1  0.1321115E-008  0.2504738E+04  0.7816531E-02  0.8401300E-01
         -2   -1    0    0    0  501 -0.00000000000E+00  0.00000000000E+00  0.18657571293E+04  0.18657571293E+04  0.00000000000E+00 0. -1.
          2   -1    0    0  501    0  0.00000000000E+00 -0.00000000000E+00 -0.84063871173E+03  0.84063871173E+03  0.00000000000E+00 0.  1.
    2000013    1    1    2    0    0 -0.81519372366E+03  0.37237766935E+02  0.51305581208E+03  0.13533860221E+04  0.95000000000E+03 0.  0.
   -2000013    1    1    2    0    0  0.81519372366E+03 -0.37237766935E+02  0.51206260553E+03  0.13530098190E+04  0.95000000000E+03 0.  0.
<mgrwt>
<rscale>  0 0.25047376E+04</rscale>
<asrwt>0</asrwt>
<pdfrwt beam="2">  1        2 0.12932903E+00 0.25047376E+04</pdfrwt>
<pdfrwt beam="1">  1       -2 0.28703956E+00 0.25047376E+04</pdfrwt>
<totfact> 0.10958910E+00</totfact>
</mgrwt>
</event>
<event>
 4    1  0.1321115E-008  0.2333003E+04  0.7816531E-02  0.8465021E-01
         -2   -1    0    0    0  501 -0.00000000000E+00  0.00000000000E+00  0.59859202164E+03  0.59859202164E+03  0.00000000000E+00 0. -1.
          2   -1    0    0  501    0  0.00000000000E+00 -0.00000000000E+00 -0.22732115455E+04  0.22732115455E+04  0.00000000000E+00 0.  1.
    2000013    1    1    2    0    0 -0.38700148718E+03 -0.41974342695E+03 -0.38962465362E+03  0.11748455500E+04  0.95000000000E+03 0.  0.
   -2000013    1    1    2    0    0  0.38700148718E+03  0.41974342695E+03 -0.12849948703E+04  0.16969580172E+04  0.95000000000E+03 0.  0.
<mgrwt>
<rscale>  0 0.23330035E+04</rscale>
<asrwt>0</asrwt>
<pdfrwt beam="2">  1        2 0.34972485E+00 0.23330035E+04</pdfrwt>
<pdfrwt beam="1">  1       -2 0.92091080E-01 0.23330035E+04</pdfrwt>
<totfact> 0.42532761E+00</totfact>
</mgrwt>
</event>
<event>
 4    1  0.1321115E-008  0.2346517E+04  0.7816531E-02  0.8459802E-01
          2   -1    0    0  501    0  0.00000000000E+00  0.00000000000E+00  0.19441509466E+04  0.19441509466E+04  0.00000000000E+00 0.  1.
         -2   -1    0    0    0  501 -0.00000000000E+00 -0.00000000000E+00 -0.70803971477E+03  0.70803971477E+03  0.00000000000E+00 0. -1.
    2000013    1    1    2    0    0  0.46254893431E+03  0.49396508349E+03  0.76139492463E+03  0.13929017380E+04  0.95000000000E+03 0.  0.
   -2000013    1    1    2    0    0 -0.46254893431E+03 -0.49396508349E+03  0.47471630720E+03  0.12592889234E+04  0.95000000000E+03 0.  0.
<mgrwt>
<rscale>  0 0.23465175E+04</rscale>
<asrwt>0</asrwt>
<pdfrwt beam="1">  1        2 0.29910014E+00 0.23465175E+04</pdfrwt>
<pdfrwt beam="2">  1       -2 0.10892919E+00 0.23465175E+04</pdfrwt>
<totfact> 0.43605966E+00</totfact>
</mgrwt>
</event>
<event>
 4    1  0.1321115E-008  0.2509967E+04  0.7816531E-02  0.8399443E-01
          2   -1    0    0  501    0  0.00000000000E+00  0.00000000000E+00  0.16978897992E+04  0.16978897992E+04  0.00000000000E+00 0.  1.
         -2   -1    0    0    0  501 -0.00000000000E+00 -0.00000000000E+00 -0.92761226642E+03  0.92761226642E+03  0.00000000000E+00 0. -1.
    2000013    1    1    2    0    0 -0.38373389456E+03  0.60477844771E+03  0.80286362272E+03  0.14353043821E+04  0.95000000000E+03 0.  0.
   -2000013    1    1    2    0    0  0.38373389456E+03 -0.60477844771E+03 -0.32586089902E+02  0.11901976835E+04  0.95000000000E+03 0.  0.
<mgrwt>
<rscale>  0 0.25099669E+04</rscale>
<asrwt>0</asrwt>
<pdfrwt beam="1">  1        2 0.26121381E+00 0.25099669E+04</pdfrwt>
<pdfrwt beam="2">  1       -2 0.14270958E+00 0.25099669E+04</pdfrwt>
<totfact> 0.29943159E+00</totfact>
</mgrwt>
</event>
<event>
 4    1  0.1321115E-008  0.2621614E+04  0.7816531E-02  0.8360896E-01
          2   -1    0    0  501    0  0.00000000000E+00  0.00000000000E+00  0.43050624744E+04  0.43050624744E+04  0.00000000000E+00 0.  1.
         -2   -1    0    0    0  501 -0.00000000000E+00 -0.00000000000E+00 -0.39911488039E+03  0.39911488039E+03  0.00000000000E+00 0. -1.
    2000013    1    1    2    0    0  0.79179986782E+03 -0.42141351049E+03  0.17632598198E+04  0.21945663740E+04  0.95000000000E+03 0.  0.
   -2000013    1    1    2    0    0 -0.79179986782E+03  0.42141351049E+03  0.21426877742E+04  0.25096109809E+04  0.95000000000E+03 0.  0.
<mgrwt>
<rscale>  0 0.26216136E+04</rscale>
<asrwt>0</asrwt>
<pdfrwt beam="1">  1        2 0.66231727E+00 0.26216136E+04</pdfrwt>
<pdfrwt beam="2">  1       -2 0.61402293E-01 0.26216136E+04</pdfrwt>
<totfact> 0.41001552E-01</totfact>
</mgrwt>
</event>
<event>
 4    1  0.1321115E-008  0.2305219E+04  0.7816531E-02  0.8475866E-01
          2   -1    0    0  501    0  0.00000000000E+00  0.00000000000E+00  0.33862281021E+04  0.33862281021E+04  0.00000000000E+00 0.  1.
         -2   -1    0    0    0  501 -0.00000000000E+00 -0.00000000000E+00 -0.39232712215E+03  0.39232712215E+03  0.00000000000E+00 0. -1.
    2000013    1    1    2    0    0  0.62955638305E+03 -0.16320053706E+03  0.15872288093E+04  0.19608087484E+04  0.95000000000E+03 0.  0.
   -2000013    1    1    2    0    0 -0.62955638305E+03  0.16320053706E+03  0.14066721706E+04  0.18177464758E+04  0.95000000000E+03 0.  0.
<mgrwt>
<rscale>  0 0.23052194E+04</rscale>
<asrwt>0</asrwt>
<pdfrwt beam="1">  1        2 0.52095815E+00 0.23052194E+04</pdfrwt>
<pdfrwt beam="2">  1       -2 0.60358021E-01 0.23052194E+04</pdfrwt>
<totfact> 0.22628263E+00</totfact>
</mgrwt>
</event>
<event>
 4    1  0.1321115E-008  0.2565536E+04  0.7816531E-02  0.8380003E-01
         -2   -1    0    0    0  501 -0.00000000000E+00  0.00000000000E+00  0.10590721315E+04  0.10590721315E+04  0.00000000000E+00 0. -1.
          2   -1    0    0  501    0  0.00000000000E+00 -0.00000000000E+00 -0.15537124403E+04  0.15537124403E+04  0.00000000000E+00 0.  1.
    2000013    1    1    2    0    0 -0.30982297075E+03 -0.58097176726E+03 -0.81387030123E+03  0.14136489433E+04  0.95000000000E+03 0.  0.
   -2000013    1    1    2    0    0  0.30982297075E+03  0.58097176726E+03  0.31922999238E+03  0.11991356285E+04  0.95000000000E+03 0.  0.
<mgrwt>
<rscale>  0 0.25655358E+04</rscale>
<asrwt>0</asrwt>
<pdfrwt beam="2">  1        2 0.23903268E+00 0.25655358E+04</pdfrwt>
<pdfrwt beam="1">  1       -2 0.16293418E+00 0.25655358E+04</pdfrwt>
<totfact> 0.25175766E+00</totfact>
</mgrwt>
</event>
<event>
 4    1  0.1321115E-008  0.2441574E+04  0.7816531E-02  0.8424101E-01
          2   -1    0    0  501    0  0.00000000000E+00  0.00000000000E+00  0.30585962990E+04  0.30585962990E+04  0.00000000000E+00 0.  1.
         -2   -1    0    0    0  501 -0.00000000000E+00 -0.00000000000E+00 -0.48725632387E+03  0.48725632387E+03  0.00000000000E+00 0. -1.
    2000013    1    1    2    0    0 -0.35707382720E+03  0.67704858956E+03  0.12219699565E+04  0.17267330672E+04  0.95000000000E+03 0.  0.
   -2000013    1    1    2    0    0  0.35707382720E+03 -0.67704858956E+03  0.13493700185E+04  0.18191195556E+04  0.95000000000E+03 0.  0.
<mgrwt>
<rscale>  0 0.24415736E+04</rscale>
<asrwt>0</asrwt>
<pdfrwt beam="1">  1        2 0.47055326E+00 0.24415736E+04</pdfrwt>
<pdfrwt beam="2">  1       -2 0.74962513E-01 0.24415736E+04</pdfrwt>
<totfact> 0.22918586E+00</totfact>
</mgrwt>
</event>
<event>
 4    1  0.1321115E-008  0.3693261E+04  0.7816531E-02  0.8069457E-01
          2   -1    0    0  501    0  0.00000000000E+00  0.00000000000E+00  0.17472452668E+04  0.17472452668E+04  0.00000000000E+00 0.  1.
         -2   -1    0    0    0  501 -0.00000000000E+00 -0.00000000000E+00 -0.19516688840E+04  0.19516688840E+04  0.00000000000E+00 0. -1.
    2000013    1    1    2    0    0  0.15600284132E+04 -0.27069192582E+03 -0.12636201615E+03  0.18507917570E+04  0.95000000000E+03 0.  0.
   -2000013    1    1    2    0    0 -0.15600284132E+04  0.27069192582E+03 -0.78061601048E+02  0.18481223937E+04  0.95000000000E+03 0.  0.
<mgrwt>
<rscale>  0 0.36932610E+04</rscale>
<asrwt>0</asrwt>
<pdfrwt beam="1">  1        2 0.26880697E+00 0.36932610E+04</pdfrwt>
<pdfrwt beam="2">  1       -2 0.30025675E+00 0.36932610E+04</pdfrwt>
<totfact> 0.23644394E-01</totfact>
</mgrwt>
</event>
<event>
 4    1  0.1321115E-008  0.3075765E+04  0.7816531E-02  0.8222421E-01
          2   -1    0    0  501    0  0.00000000000E+00  0.00000000000E+00  0.24796555995E+04  0.24796555995E+04  0.00000000000E+00 0.  1.
         -2   -1    0    0    0  501 -0.00000000000E+00 -0.00000000000E+00 -0.95379453124E+03  0.95379453124E+03  0.00000000000E+00 0. -1.
    2000013    1    1    2    0    0 -0.11956078820E+03  0.11662850508E+04  0.10942009448E+04  0.18639450929E+04  0.95000000000E+03 0.  0.
   -2000013    1    1    2    0    0  0.11956078820E+03 -0.11662850508E+04  0.43166012344E+03  0.15695050379E+04  0.95000000000E+03 0.  0.
<mgrwt>
<rscale>  0 0.30757646E+04</rscale>
<asrwt>0</asrwt>
<pdfrwt beam="1">  1        2 0.38148548E+00 0.30757646E+04</pdfrwt>
<pdfrwt beam="2">  1       -2 0.14673762E+00 0.30757646E+04</pdfrwt>
<totfact> 0.96612489E-01</totfact>
</mgrwt>
</event>
<event>
 4    1  0.1321115E-008  0.2723308E+04  0.7816531E-02  0.8327482E-01
         -1   -1    0    0    0  501 -0.00000000000E+00  0.00000000000E+00  0.10164766319E+04  0.10164766319E+04  0.00000000000E+00 0. -1.
          1   -1    0    0  501    0  0.00000000000E+00 -0.00000000000E+00 -0.18240479490E+04  0.18240479490E+04  0.00000000000E+00 0.  1.
    2000013    1    1    2    0    0  0.47702339562E+03 -0.84975044570E+03 -0.45013916505E+03  0.14334407584E+04  0.95000000000E+03 0.  0.
   -2000013    1    1    2    0    0 -0.47702339562E+03  0.84975044570E+03 -0.35743215205E+03  0.14070838224E+04  0.95000000000E+03 0.  0.
<mgrwt>
<rscale>  0 0.27233084E+04</rscale>
<asrwt>0</asrwt>
<pdfrwt beam="2">  1        1 0.28062276E+00 0.27233084E+04</pdfrwt>
<pdfrwt beam="1">  1       -1 0.15638102E+00 0.27233084E+04</pdfrwt>
<totfact> 0.10647219E+00</totfact>
</mgrwt>
</event>
<event>
 4    1  0.1321115E-008  0.2940955E+04  0.7816531E-02  0.8260795E-01
          2   -1    0    0  501    0  0.00000000000E+00  0.00000000000E+00  0.10886855656E+04  0.10886855656E+04  0.00000000000E+00 0.  1.
         -2   -1    0    0    0  501 -0.00000000000E+00 -0.00000000000E+00 -0.19861607028E+04  0.19861607028E+04  0.00000000000E+00 0. -1.
    2000013    1    1    2    0    0  0.86153389489E+03 -0.17046688580E+03  0.28201346580E+03  0.13241341345E+04  0.95000000000E+03 0.  0.
   -2000013    1    1    2    0    0 -0.86153389489E+03  0.17046688580E+03 -0.11794886030E+04  0.17507121339E+04  0.95000000000E+03 0.  0.
<mgrwt>
<rscale>  0 0.29409553E+04</rscale>
<asrwt>0</asrwt>
<pdfrwt beam="1">  1        2 0.16749009E+00 0.29409553E+04</pdfrwt>
<pdfrwt beam="2">  1       -2 0.30556319E+00 0.29409553E+04</pdfrwt>
<totfact> 0.55954966E-01</totfact>
</mgrwt>
</event>
<event>
 4    1  0.1321115E-008  0.1970408E+04  0.7816531E-02  0.8620582E-01
         -2   -1    0    0    0  501 -0.00000000000E+00  0.00000000000E+00  0.65833491007E+03  0.65833491007E+03  0.00000000000E+00 0. -1.
          2   -1    0    0  501    0  0.00000000000E+00 -0.00000000000E+00 -0.14743667103E+04  0.14743667103E+04  0.00000000000E+00 0.  1.
    2000013    1    1    2    0    0  0.17717419264E+03 -0.18279087745E+03 -0.47041758630E+03  0.10902274556E+04  0.95000000000E+03 0.  0.
   -2000013    1    1    2    0    0 -0.17717419264E+03  0.18279087745E+03 -0.34561421398E+03  0.10424741648E+04  0.95000000000E+03 0.  0.
<mgrwt>
<rscale>  0 0.19704082E+04</rscale>
<asrwt>0</asrwt>
<pdfrwt beam="2">  1        2 0.22682565E+00 0.19704082E+04</pdfrwt>
<pdfrwt beam="1">  1       -2 0.10128229E+00 0.19704082E+04</pdfrwt>
<totfact> 0.97960584E+00</totfact>
</mgrwt>
</event>
<event>
 4    1  0.1321115E-008  0.3521327E+04  0.7816531E-02  0.8108754E-01
          2   -1    0    0  501    0  0.00000000000E+00  0.00000000000E+00  0.11979439024E+04  0.11979439024E+04  0.00000000000E+00 0.  1.
         -2   -1    0    0    0  501 -0.00000000000E+00 -0.00000000000E+00 -0.25877136278E+04  0.25877136278E+04  0.00000000000E+00 0. -1.
    2000013    1    1    2    0    0 -0.13785976519E+04  0.48187522038E+03 -0.96834180888E+03  0.19932187719E+04  0.95000000000E+03 0.  0.
   -2000013    1    1    2    0    0  0.13785976519E+04 -0.48187522038E+03 -0.42142791650E+03  0.17924387584E+04  0.95000000000E+03 0.  0.
<mgrwt>
<rscale>  0 0.35213269E+04</rscale>
<asrwt>0</asrwt>
<pdfrwt beam="1">  1        2 0.18429906E+00 0.35213269E+04</pdfrwt>
<pdfrwt beam="2">  1       -2 0.39810978E+00 0.35213269E+04</pdfrwt>
<totfact> 0.11888678E-01</totfact>
</mgrwt>
</event>
<event>
 4    1  0.1321115E-008  0.2501470E+04  0.7816531E-02  0.8402462E-01
         -2   -1    0    0    0  501 -0.00000000000E+00  0.00000000000E+00  0.15282284938E+04  0.15282284938E+04  0.00000000000E+00 0. -1.
          2   -1    0    0  501    0  0.00000000000E+00 -0.00000000000E+00 -0.10236287620E+04  0.10236287620E+04  0.00000000000E+00 0.  1.
    2000013    1    1    2    0    0 -0.80341099164E+03 -0.61641800358E+02  0.13792684507E+03  0.12533127094E+04  0.95000000000E+03 0.  0.
   -2000013    1    1    2    0    0  0.80341099164E+03  0.61641800358E+02  0.36667288666E+03  0.12985445463E+04  0.95000000000E+03 0.  0.
<mgrwt>
<rscale>  0 0.25014705E+04</rscale>
<asrwt>0</asrwt>
<pdfrwt beam="2">  1        2 0.15748135E+00 0.25014705E+04</pdfrwt>
<pdfrwt beam="1">  1       -2 0.23511207E+00 0.25014705E+04</pdfrwt>
<totfact> 0.17230630E+00</totfact>
</mgrwt>
</event>
<event>
 4    1  0.1321115E-008  0.2298854E+04  0.7816531E-02  0.8478373E-01
          2   -1    0    0  501    0  0.00000000000E+00  0.00000000000E+00  0.85058045737E+03  0.85058045737E+03  0.00000000000E+00 0.  1.
         -2   -1    0    0    0  501 -0.00000000000E+00 -0.00000000000E+00 -0.15532714171E+04  0.15532714171E+04  0.00000000000E+00 0. -1.
    2000013    1    1    2    0    0  0.51813004586E+03 -0.26677649271E+03 -0.64535263644E+03  0.12878697399E+04  0.95000000000E+03 0.  0.
   -2000013    1    1    2    0    0 -0.51813004586E+03  0.26677649271E+03 -0.57338323306E+02  0.11159821346E+04  0.95000000000E+03 0.  0.
<mgrwt>
<rscale>  0 0.22988539E+04</rscale>
<asrwt>0</asrwt>
<pdfrwt beam="1">  1        2 0.13085853E+00 0.22988539E+04</pdfrwt>
<pdfrwt beam="2">  1       -2 0.23896483E+00 0.22988539E+04</pdfrwt>
<totfact> 0.21608894E+00</totfact>
</mgrwt>
</event>
<event>
 4    1  0.1321115E-008  0.5538014E+04  0.7816531E-02  0.7750480E-01
         -2   -1    0    0    0  501 -0.00000000000E+00  0.00000000000E+00  0.22005369918E+04  0.22005369918E+04  0.00000000000E+00 0. -1.
          2   -1    0    0  501    0  0.00000000000E+00 -0.00000000000E+00 -0.34843314774E+04  0.34843314774E+04  0.00000000000E+00 0.  1.
    2000013    1    1    2    0    0 -0.21236205200E+04  0.76667953107E+03  0.68359829603E+03  0.25431020913E+04  0.95000000000E+03 0.  0.
   -2000013    1    1    2    0    0  0.21236205200E+04 -0.76667953107E+03 -0.19673927816E+04  0.31417663779E+04  0.95000000000E+03 0.  0.
<mgrwt>
<rscale>  0 0.55380142E+04</rscale>
<asrwt>0</asrwt>
<pdfrwt beam="2">  1        2 0.53605099E+00 0.55380142E+04</pdfrwt>
<pdfrwt beam="1">  1       -2 0.33854415E+00 0.55380142E+04</pdfrwt>
<totfact> 0.10660792E-02</totfact>
</mgrwt>
</event>
<event>
 4    1  0.1321115E-008  0.3781148E+04  0.7816531E-02  0.8050213E-01
          2   -1    0    0  501    0  0.00000000000E+00  0.00000000000E+00  0.18550323686E+04  0.18550323686E+04  0.00000000000E+00 0.  1.
         -2   -1    0    0    0  501 -0.00000000000E+00 -0.00000000000E+00 -0.19267967752E+04  0.19267967752E+04  0.00000000000E+00 0. -1.
    2000013    1    1    2    0    0  0.54471555831E+03  0.11399773921E+04  0.10013710509E+04  0.18712315398E+04  0.95000000000E+03 0.  0.
   -2000013    1    1    2    0    0 -0.54471555831E+03 -0.11399773921E+04 -0.10731354575E+04  0.19105976039E+04  0.95000000000E+03 0.  0.
<mgrwt>
<rscale>  0 0.37811482E+04</rscale>
<asrwt>0</asrwt>
<pdfrwt beam="1">  1        2 0.28538960E+00 0.37811482E+04</pdfrwt>
<pdfrwt beam="2">  1       -2 0.29643027E+00 0.37811482E+04</pdfrwt>
<totfact> 0.21586890E-01</totfact>
</mgrwt>
</event>
<event>
 4    1  0.1321115E-008  0.2365091E+04  0.7816531E-02  0.8452690E-01
         -2   -1    0    0    0  501 -0.00000000000E+00  0.00000000000E+00  0.10453930172E+04  0.10453930172E+04  0.00000000000E+00 0.  1.
          2   -1    0    0  501    0  0.00000000000E+00 -0.00000000000E+00 -0.13376917881E+04  0.13376917881E+04  0.00000000000E+00 0. -1.
    2000013    1    1    2    0    0 -0.66931492492E+03 -0.16434656378E+03 -0.40663190372E+00  0.11736662333E+04  0.95000000000E+03 0.  0.
   -2000013    1    1    2    0    0  0.66931492492E+03  0.16434656378E+03 -0.29189213898E+03  0.12094185721E+04  0.95000000000E+03 0.  0.
<mgrwt>
<rscale>  0 0.23650908E+04</rscale>
<asrwt>0</asrwt>
<pdfrwt beam="2">  1        2 0.20579874E+00 0.23650908E+04</pdfrwt>
<pdfrwt beam="1">  1       -2 0.16082970E+00 0.23650908E+04</pdfrwt>
<totfact> 0.35207729E+00</totfact>
</mgrwt>
</event>
<event>
 4    1  0.1321115E-008  0.2328456E+04  0.7816531E-02  0.8466785E-01
         -2   -1    0    0    0  501 -0.00000000000E+00  0.00000000000E+00  0.66890230987E+03  0.66890230987E+03  0.00000000000E+00 0. -1.
          2   -1    0    0  501    0  0.00000000000E+00 -0.00000000000E+00 -0.20263457493E+04  0.20263457493E+04  0.00000000000E+00 0.  1.
    2000013    1    1    2    0    0 -0.22994265687E+03 -0.60984171769E+03 -0.48452352641E+03  0.12498174242E+04  0.95000000000E+03 0.  0.
   -2000013    1    1    2    0    0  0.22994265687E+03  0.60984171769E+03 -0.87291991301E+03  0.14454306350E+04  0.95000000000E+03 0.  0.
<mgrwt>
<rscale>  0 0.23284564E+04</rscale>
<asrwt>0</asrwt>
<pdfrwt beam="2">  1        2 0.31174550E+00 0.23284564E+04</pdfrwt>
<pdfrwt beam="1">  1       -2 0.10290805E+00 0.23284564E+04</pdfrwt>
<totfact> 0.45067281E+00</totfact>
</mgrwt>
</event>
<event>
 4    1  0.1321115E-008  0.1981726E+04  0.7816531E-02  0.8615212E-01
          2   -1    0    0  501    0  0.00000000000E+00  0.00000000000E+00  0.35640930777E+04  0.35640930777E+04  0.00000000000E+00 0.  1.
         -2   -1    0    0    0  501 -0.00000000000E+00 -0.00000000000E+00 -0.27547251113E+03  0.27547251113E+03  0.00000000000E+00 0. -1.
    2000013    1    1    2    0    0 -0.12698344559E+03  0.10420457803E+03  0.12011116884E+04  0.15401794303E+04  0.95000000000E+03 0.  0.
   -2000013    1    1    2    0    0  0.12698344559E+03 -0.10420457803E+03  0.20875088781E+04  0.22993861585E+04  0.95000000000E+03 0.  0.
<mgrwt>
<rscale>  0 0.19817262E+04</rscale>
<asrwt>0</asrwt>
<pdfrwt beam="1">  1        2 0.54832198E+00 0.19817262E+04</pdfrwt>
<pdfrwt beam="2">  1       -2 0.42380389E-01 0.19817262E+04</pdfrwt>
<totfact> 0.36198405E+00</totfact>
</mgrwt>
</event>
<event>
 4    1  0.1321115E-008  0.3408361E+04  0.7816531E-02  0.8135857E-01
         -2   -1    0    0    0  501 -0.00000000000E+00  0.00000000000E+00  0.18744924106E+04  0.18744924106E+04  0.00000000000E+00 0. -1.
          2   -1    0    0  501    0  0.00000000000E+00 -0.00000000000E+00 -0.15493428990E+04  0.15493428990E+04  0.00000000000E+00 0.  1.
    2000013    1    1    2    0    0  0.13719911843E+04 -0.44983409437E+02 -0.18154170696E+03  0.16792381333E+04  0.95000000000E+03 0.  0.
   -2000013    1    1    2    0    0 -0.13719911843E+04  0.44983409437E+02  0.50669121852E+03  0.17445971764E+04  0.95000000000E+03 0.  0.
<mgrwt>
<rscale>  0 0.34083612E+04</rscale>
<asrwt>0</asrwt>
<pdfrwt beam="2">  1        2 0.23836045E+00 0.34083612E+04</pdfrwt>
<pdfrwt beam="1">  1       -2 0.28838345E+00 0.34083612E+04</pdfrwt>
<totfact> 0.36893411E-01</totfact>
</mgrwt>
</event>
<event>
 4    1  0.1321115E-008  0.2361794E+04  0.7816531E-02  0.8453948E-01
         -2   -1    0    0    0  501 -0.00000000000E+00  0.00000000000E+00  0.77997899937E+03  0.77997899937E+03  0.00000000000E+00 0. -1.
          2   -1    0    0  501    0  0.00000000000E+00 -0.00000000000E+00 -0.17878907920E+04  0.17878907920E+04  0.00000000000E+00 0.  1.
    2000013    1    1    2    0    0  0.27416249128E+03  0.53971729155E+03 -0.88921444811E+03  0.14351523129E+04  0.95000000000E+03 0.  0.
   -2000013    1    1    2    0    0 -0.27416249128E+03 -0.53971729155E+03 -0.11869734450E+03  0.11327174785E+04  0.95000000000E+03 0.  0.
<mgrwt>
<rscale>  0 0.23617936E+04</rscale>
<asrwt>0</asrwt>
<pdfrwt beam="2">  1        2 0.27506012E+00 0.23617936E+04</pdfrwt>
<pdfrwt beam="1">  1       -2 0.11999677E+00 0.23617936E+04</pdfrwt>
<totfact> 0.41982291E+00</totfact>
</mgrwt>
</event>
<event>
 4    1  0.1321115E-008  0.2257624E+04  0.7816531E-02  0.8494819E-01
         -2   -1    0    0    0  501 -0.00000000000E+00  0.00000000000E+00  0.11556265316E+04  0.11556265316E+04  0.00000000000E+00 0. -1.
          2   -1    0    0  501    0  0.00000000000E+00 -0.00000000000E+00 -0.11026200486E+04  0.11026200486E+04  0.00000000000E+00 0.  1.
    2000013    1    1    2    0    0 -0.58717890719E+03  0.16293089715E+03  0.67130425375E+01  0.11286587665E+04  0.95000000000E+03 0.  0.
   -2000013    1    1    2    0    0  0.58717890719E+03 -0.16293089715E+03  0.46293440475E+02  0.11295878137E+04  0.95000000000E+03 0.  0.
<mgrwt>
<rscale>  0 0.22576244E+04</rscale>
<asrwt>0</asrwt>
<pdfrwt beam="2">  1        2 0.16963385E+00 0.22576244E+04</pdfrwt>
<pdfrwt beam="1">  1       -2 0.17778870E+00 0.22576244E+04</pdfrwt>
<totfact> 0.37090161E+00</totfact>
</mgrwt>
</event>
<event>
 4    1  0.1321115E-008  0.2191663E+04  0.7816531E-02  0.8521906E-01
          2   -1    0    0  501    0  0.00000000000E+00  0.00000000000E+00  0.10890823694E+04  0.10890823694E+04  0.00000000000E+00 0.  1.
         -2   -1    0    0    0  501 -0.00000000000E+00 -0.00000000000E+00 -0.11026225361E+04  0.11026225361E+04  0.00000000000E+00 0. -1.
    2000013    1    1    2    0    0  0.50950431921E+02  0.54199378847E+03  0.37879967235E+02  0.10955766085E+04  0.95000000000E+03 0.  0.
   -2000013    1    1    2    0    0 -0.50950431921E+02 -0.54199378847E+03 -0.51420133899E+02  0.10961282970E+04  0.95000000000E+03 0.  0.
<mgrwt>
<rscale>  0 0.21916631E+04</rscale>
<asrwt>0</asrwt>
<pdfrwt beam="1">  1        2 0.16755113E+00 0.21916631E+04</pdfrwt>
<pdfrwt beam="2">  1       -2 0.16963424E+00 0.21916631E+04</pdfrwt>
<totfact> 0.43393985E+00</totfact>
</mgrwt>
</event>
<event>
 4    1  0.1321115E-008  0.2589957E+04  0.7816531E-02  0.8371621E-01
         -2   -1    0    0    0  501 -0.00000000000E+00  0.00000000000E+00  0.11300700047E+04  0.11300700047E+04  0.00000000000E+00 0. -1.
          2   -1    0    0  501    0  0.00000000000E+00 -0.00000000000E+00 -0.14839512048E+04  0.14839512048E+04  0.00000000000E+00 0.  1.
    2000013    1    1    2    0    0  0.68707467388E+03  0.42614940740E+03  0.17384276119E+03  0.12595222231E+04  0.95000000000E+03 0.  0.
   -2000013    1    1    2    0    0 -0.68707467388E+03 -0.42614940740E+03 -0.52772396130E+03  0.13544989864E+04  0.95000000000E+03 0.  0.
<mgrwt>
<rscale>  0 0.25899566E+04</rscale>
<asrwt>0</asrwt>
<pdfrwt beam="2">  1        2 0.22830018E+00 0.25899566E+04</pdfrwt>
<pdfrwt beam="1">  1       -2 0.17385693E+00 0.25899566E+04</pdfrwt>
<totfact> 0.22971267E+00</totfact>
</mgrwt>
</event>
<event>
 4    1  0.1321115E-008  0.2394029E+04  0.7816531E-02  0.8441742E-01
         -2   -1    0    0    0  501 -0.00000000000E+00  0.00000000000E+00  0.19668183980E+04  0.19668183980E+04  0.00000000000E+00 0. -1.
          2   -1    0    0  501    0  0.00000000000E+00 -0.00000000000E+00 -0.72850851776E+03  0.72850851776E+03  0.00000000000E+00 0.  1.
    2000013    1    1    2    0    0 -0.13392902559E+03  0.61312901183E+03  0.20322884169E+03  0.11565751731E+04  0.95000000000E+03 0.  0.
   -2000013    1    1    2    0    0  0.13392902559E+03 -0.61312901183E+03  0.10350810386E+04  0.15387517426E+04  0.95000000000E+03 0.  0.
<mgrwt>
<rscale>  0 0.23940292E+04</rscale>
<asrwt>0</asrwt>
<pdfrwt beam="2">  1        2 0.11207823E+00 0.23940292E+04</pdfrwt>
<pdfrwt beam="1">  1       -2 0.30258744E+00 0.23940292E+04</pdfrwt>
<totfact> 0.10738102E+00</totfact>
</mgrwt>
</event>
<event>
 4    1  0.1321115E-008  0.2946054E+04  0.7816531E-02  0.8259305E-01
         -2   -1    0    0    0  501 -0.00000000000E+00  0.00000000000E+00  0.18141262474E+04  0.18141262474E+04  0.00000000000E+00 0. -1.
          2   -1    0    0  501    0  0.00000000000E+00 -0.00000000000E+00 -0.11960624824E+04  0.11960624824E+04  0.00000000000E+00 0.  1.
    2000013    1    1    2    0    0 -0.83230538670E+03  0.71053441874E+03  0.39244175296E+02  0.14497004940E+04  0.95000000000E+03 0.  0.
   -2000013    1    1    2    0    0  0.83230538670E+03 -0.71053441874E+03  0.57881958969E+03  0.15604882359E+04  0.95000000000E+03 0.  0.
<mgrwt>
<rscale>  0 0.29460539E+04</rscale>
<asrwt>0</asrwt>
<pdfrwt beam="2">  1        2 0.18400961E+00 0.29460539E+04</pdfrwt>
<pdfrwt beam="1">  1       -2 0.27909635E+00 0.29460539E+04</pdfrwt>
<totfact> 0.69834532E-01</totfact>
</mgrwt>
</event>
<event>
 4    1  0.1321115E-008  0.2724114E+04  0.7816531E-02  0.8327223E-01
          2   -1    0    0  501    0  0.00000000000E+00  0.00000000000E+00  0.17832723677E+04  0.17832723677E+04  0.00000000000E+00 0.  1.
         -2   -1    0    0    0  501 -0.00000000000E+00 -0.00000000000E+00 -0.10403345211E+04  0.10403345211E+04  0.00000000000E+00 0. -1.
    2000013    1    1    2    0    0 -0.81394669228E+03 -0.53821066134E+03  0.39510234454E+03  0.14180217899E+04  0.95000000000E+03 0.  0.
   -2000013    1    1    2    0    0  0.81394669228E+03  0.53821066134E+03  0.34783550211E+03  0.14055850989E+04  0.95000000000E+03 0.  0.
<mgrwt>
<rscale>  0 0.27241144E+04</rscale>
<asrwt>0</asrwt>
<pdfrwt beam="1">  1        2 0.27434959E+00 0.27241144E+04</pdfrwt>
<pdfrwt beam="2">  1       -2 0.16005146E+00 0.27241144E+04</pdfrwt>
<totfact> 0.19428005E+00</totfact>
</mgrwt>
</event>
<event>
 4    1  0.1321115E-008  0.3114597E+04  0.7816531E-02  0.8211743E-01
          2   -1    0    0  501    0  0.00000000000E+00  0.00000000000E+00  0.23587153379E+04  0.23587153379E+04  0.00000000000E+00 0.  1.
         -2   -1    0    0    0  501 -0.00000000000E+00 -0.00000000000E+00 -0.10281774347E+04  0.10281774347E+04  0.00000000000E+00 0. -1.
    2000013    1    1    2    0    0  0.22573543189E+02  0.11971192383E+04  0.98981383255E+03  0.18209435627E+04  0.95000000000E+03 0.  0.
   -2000013    1    1    2    0    0 -0.22573543189E+02 -0.11971192383E+04  0.34072407074E+03  0.15659492099E+04  0.95000000000E+03 0.  0.
<mgrwt>
<rscale>  0 0.31145965E+04</rscale>
<asrwt>0</asrwt>
<pdfrwt beam="1">  1        2 0.36287928E+00 0.31145965E+04</pdfrwt>
<pdfrwt beam="2">  1       -2 0.15818114E+00 0.31145965E+04</pdfrwt>
<totfact> 0.92488463E-01</totfact>
</mgrwt>
</event>
<event>
 4    1  0.1321115E-008  0.2668990E+04  0.7816531E-02  0.8345137E-01
         -2   -1    0    0    0  501 -0.00000000000E+00  0.00000000000E+00  0.61695185736E+03  0.61695185736E+03  0.00000000000E+00 0. -1.
          2   -1    0    0  501    0  0.00000000000E+00 -0.00000000000E+00 -0.28865728316E+04  0.28865728316E+04  0.00000000000E+00 0.  1.
    2000013    1    1    2    0    0  0.59747309557E+03 -0.71150872451E+03 -0.97319796332E+03  0.16470680134E+04  0.95000000000E+03 0.  0.
   -2000013    1    1    2    0    0 -0.59747309557E+03  0.71150872451E+03 -0.12964230109E+04  0.18564566756E+04  0.95000000000E+03 0.  0.
<mgrwt>
<rscale>  0 0.26689897E+04</rscale>
<asrwt>0</asrwt>
<pdfrwt beam="2">  1        2 0.44408813E+00 0.26689897E+04</pdfrwt>
<pdfrwt beam="1">  1       -2 0.94915670E-01 0.26689897E+04</pdfrwt>
<totfact> 0.16815534E+00</totfact>
</mgrwt>
</event>
<event>
 4    1  0.1321115E-008  0.2298616E+04  0.7816531E-02  0.8478467E-01
         -2   -1    0    0    0  501 -0.00000000000E+00  0.00000000000E+00  0.55289162893E+03  0.55289162893E+03  0.00000000000E+00 0. -1.
          2   -1    0    0  501    0  0.00000000000E+00 -0.00000000000E+00 -0.23890915183E+04  0.23890915183E+04  0.00000000000E+00 0.  1.
    2000013    1    1    2    0    0  0.58232230830E+03 -0.24479568003E+03 -0.73990263295E+03  0.13597720772E+04  0.95000000000E+03 0.  0.
   -2000013    1    1    2    0    0 -0.58232230830E+03  0.24479568003E+03 -0.10962972565E+04  0.15822110701E+04  0.95000000000E+03 0.  0.
<mgrwt>
<rscale>  0 0.22986158E+04</rscale>
<asrwt>0</asrwt>
<pdfrwt beam="2">  1        2 0.36755254E+00 0.22986158E+04</pdfrwt>
<pdfrwt beam="1">  1       -2 0.85060250E-01 0.22986158E+04</pdfrwt>
<totfact> 0.43987132E+00</totfact>
</mgrwt>
</event>
<event>
 4    1  0.1321115E-008  0.4420172E+04  0.7816531E-02  0.7924763E-01
          2   -1    0    0  501    0  0.00000000000E+00  0.00000000000E+00  0.38142016540E+04  0.38142016540E+04  0.00000000000E+00 0.  1.
         -2   -1    0    0    0  501 -0.00000000000E+00 -0.00000000000E+00 -0.12806035456E+04  0.12806035456E+04  0.00000000000E+00 0. -1.
    2000013    1    1    2    0    0  0.14731720557E+04  0.14305578469E+03  0.28094585120E+04  0.33145524576E+04  0.95000000000E+03 0.  0.
   -2000013    1    1    2    0    0 -0.14731720557E+04 -0.14305578469E+03 -0.27586040356E+03  0.17802527420E+04  0.95000000000E+03 0.  0.
<mgrwt>
<rscale>  0 0.44201720E+04</rscale>
<asrwt>0</asrwt>
<pdfrwt beam="1">  1        2 0.58680025E+00 0.44201720E+04</pdfrwt>
<pdfrwt beam="2">  1       -2 0.19701593E+00 0.44201720E+04</pdfrwt>
<totfact> 0.50676913E-02</totfact>
</mgrwt>
</event>
<event>
 4    1  0.1321115E-008  0.2943515E+04  0.7816531E-02  0.8260047E-01
          2   -1    0    0  501    0  0.00000000000E+00  0.00000000000E+00  0.19319474456E+04  0.19319474456E+04  0.00000000000E+00 0.  1.
         -2   -1    0    0    0  501 -0.00000000000E+00 -0.00000000000E+00 -0.11211846426E+04  0.11211846426E+04  0.00000000000E+00 0. -1.
    2000013    1    1    2    0    0 -0.96956549815E+03 -0.26486939093E+03  0.92747169534E+03  0.16652077333E+04  0.95000000000E+03 0.  0.
   -2000013    1    1    2    0    0  0.96956549815E+03  0.26486939093E+03 -0.11670889233E+03  0.13879243549E+04  0.95000000000E+03 0.  0.
<mgrwt>
<rscale>  0 0.29435148E+04</rscale>
<asrwt>0</asrwt>
<pdfrwt beam="1">  1        2 0.29722268E+00 0.29435148E+04</pdfrwt>
<pdfrwt beam="2">  1       -2 0.17248994E+00 0.29435148E+04</pdfrwt>
<totfact> 0.12830247E+00</totfact>
</mgrwt>
</event>
<event>
 4    1  0.1321115E-008  0.2703176E+04  0.7816531E-02  0.8333975E-01
         -2   -1    0    0    0  501 -0.00000000000E+00  0.00000000000E+00  0.11517245560E+04  0.11517245560E+04  0.00000000000E+00 0. -1.
          2   -1    0    0  501    0  0.00000000000E+00 -0.00000000000E+00 -0.15861340874E+04  0.15861340874E+04  0.00000000000E+00 0.  1.
    2000013    1    1    2    0    0  0.64284895888E+02  0.95064163531E+03 -0.87350927592E+02  0.13483257215E+04  0.95000000000E+03 0.  0.
   -2000013    1    1    2    0    0 -0.64284895888E+02 -0.95064163531E+03 -0.34705860388E+03  0.13895329219E+04  0.95000000000E+03 0.  0.
<mgrwt>
<rscale>  0 0.27031756E+04</rscale>
<asrwt>0</asrwt>
<pdfrwt beam="2">  1        2 0.24402063E+00 0.27031756E+04</pdfrwt>
<pdfrwt beam="1">  1       -2 0.17718839E+00 0.27031756E+04</pdfrwt>
<totfact> 0.18889204E+00</totfact>
</mgrwt>
</event>
<event>
 4    1  0.1321115E-008  0.3732938E+04  0.7816531E-02  0.8060701E-01
          2   -1    0    0  501    0  0.00000000000E+00  0.00000000000E+00  0.17060010984E+04  0.17060010984E+04  0.00000000000E+00 0.  1.
         -2   -1    0    0    0  501 -0.00000000000E+00 -0.00000000000E+00 -0.20420309195E+04  0.20420309195E+04  0.00000000000E+00 0. -1.
    2000013    1    1    2    0    0 -0.95243109254E+03  0.11328562651E+04  0.45958746474E+03  0.18177483162E+04  0.95000000000E+03 0.  0.
   -2000013    1    1    2    0    0  0.95243109254E+03 -0.11328562651E+04 -0.79561728582E+03  0.19302837017E+04  0.95000000000E+03 0.  0.
<mgrwt>
<rscale>  0 0.37329382E+04</rscale>
<asrwt>0</asrwt>
<pdfrwt beam="1">  1        2 0.26246171E+00 0.37329382E+04</pdfrwt>
<pdfrwt beam="2">  1       -2 0.31415860E+00 0.37329382E+04</pdfrwt>
<totfact> 0.20409588E-01</totfact>
</mgrwt>
</event>
<event>
 4    1  0.1321115E-008  0.2148174E+04  0.7816531E-02  0.8540314E-01
          2   -1    0    0  501    0  0.00000000000E+00  0.00000000000E+00  0.15003261799E+04  0.15003261799E+04  0.00000000000E+00 0.  1.
         -2   -1    0    0    0  501 -0.00000000000E+00 -0.00000000000E+00 -0.76894125769E+03  0.76894125769E+03  0.00000000000E+00 0. -1.
    2000013    1    1    2    0    0 -0.21580393614E+03 -0.44044486936E+03  0.25693411493E+03  0.10995809025E+04  0.95000000000E+03 0.  0.
   -2000013    1    1    2    0    0  0.21580393614E+03  0.44044486936E+03  0.47445080731E+03  0.11696865351E+04  0.95000000000E+03 0.  0.
<mgrwt>
<rscale>  0 0.21481738E+04</rscale>
<asrwt>0</asrwt>
<pdfrwt beam="1">  1        2 0.23081941E+00 0.21481738E+04</pdfrwt>
<pdfrwt beam="2">  1       -2 0.11829866E+00 0.21481738E+04</pdfrwt>
<totfact> 0.64088703E+00</totfact>
</mgrwt>
</event>
<event>
 4    1  0.1321115E-008  0.3082807E+04  0.7816531E-02  0.8220472E-01
         -1   -1    0    0    0  501 -0.00000000000E+00  0.00000000000E+00  0.15983618958E+04  0.15983618958E+04  0.00000000000E+00 0. -1.
          1   -1    0    0  501    0  0.00000000000E+00 -0.00000000000E+00 -0.14864752286E+04  0.14864752286E+04  0.00000000000E+00 0.  1.
    2000013    1    1    2    0    0 -0.22110845083E+03  0.11339110551E+04 -0.31683668944E+03  0.15288978762E+04  0.95000000000E+03 0.  0.
   -2000013    1    1    2    0    0  0.22110845083E+03 -0.11339110551E+04  0.42872335666E+03  0.15559392483E+04  0.95000000000E+03 0.  0.
<mgrwt>
<rscale>  0 0.30828074E+04</rscale>
<asrwt>0</asrwt>
<pdfrwt beam="2">  1        1 0.22868850E+00 0.30828074E+04</pdfrwt>
<pdfrwt beam="1">  1       -1 0.24590183E+00 0.30828074E+04</pdfrwt>
<totfact> 0.41892722E-01</totfact>
</mgrwt>
</event>
<event>
 4    1  0.1321115E-008  0.2006156E+04  0.7816531E-02  0.8603748E-01
          1   -1    0    0  501    0  0.00000000000E+00  0.00000000000E+00  0.66651974620E+03  0.66651974620E+03  0.00000000000E+00 0.  1.
         -1   -1    0    0    0  501 -0.00000000000E+00 -0.00000000000E+00 -0.15095815597E+04  0.15095815597E+04  0.00000000000E+00 0. -1.
    2000013    1    1    2    0    0 -0.20821235529E+03  0.23611987004E+03 -0.49478661970E+03  0.11164312684E+04  0.95000000000E+03 0.  0.
   -2000013    1    1    2    0    0  0.20821235529E+03 -0.23611987004E+03 -0.34827519384E+03  0.10596700376E+04  0.95000000000E+03 0.  0.
<mgrwt>
<rscale>  0 0.20061564E+04</rscale>
<asrwt>0</asrwt>
<pdfrwt beam="1">  1        1 0.10254150E+00 0.20061564E+04</pdfrwt>
<pdfrwt beam="2">  1       -1 0.23224331E+00 0.20061564E+04</pdfrwt>
<totfact> 0.24808036E+00</totfact>
</mgrwt>
</event>
<event>
 4    1  0.1321115E-008  0.2319230E+04  0.7816531E-02  0.8470377E-01
         -1   -1    0    0    0  501 -0.00000000000E+00  0.00000000000E+00  0.43543337514E+03  0.43543337514E+03  0.00000000000E+00 0. -1.
          1   -1    0    0  501    0  0.00000000000E+00 -0.00000000000E+00 -0.30882044181E+04  0.30882044181E+04  0.00000000000E+00 0.  1.
    2000013    1    1    2    0    0  0.57329424167E+03  0.33695721597E+03 -0.13250097676E+04  0.17607831602E+04  0.95000000000E+03 0.  0.
   -2000013    1    1    2    0    0 -0.57329424167E+03 -0.33695721597E+03 -0.13277612753E+04  0.17628546330E+04  0.95000000000E+03 0.  0.
<mgrwt>
<rscale>  0 0.23192303E+04</rscale>
<asrwt>0</asrwt>
<pdfrwt beam="2">  1        1 0.47510836E+00 0.23192303E+04</pdfrwt>
<pdfrwt beam="1">  1       -1 0.66989752E-01 0.23192303E+04</pdfrwt>
<totfact> 0.10495906E+00</totfact>
</mgrwt>
</event>
<event>
 4    1  0.1321115E-008  0.2111521E+04  0.7816531E-02  0.8556185E-01
          2   -1    0    0  501    0  0.00000000000E+00  0.00000000000E+00  0.15291602552E+04  0.15291602552E+04  0.00000000000E+00 0.  1.
         -2   -1    0    0    0  501 -0.00000000000E+00 -0.00000000000E+00 -0.72891683616E+03  0.72891683616E+03  0.00000000000E+00 0. -1.
    2000013    1    1    2    0    0 -0.41060369138E+03 -0.59445621075E+01  0.17707925457E+03  0.10499941865E+04  0.95000000000E+03 0.  0.
   -2000013    1    1    2    0    0  0.41060369138E+03  0.59445621075E+01  0.62316416442E+03  0.12080829049E+04  0.95000000000E+03 0.  0.
<mgrwt>
<rscale>  0 0.21115214E+04</rscale>
<asrwt>0</asrwt>
<pdfrwt beam="1">  1        2 0.23525542E+00 0.21115214E+04</pdfrwt>
<pdfrwt beam="2">  1       -2 0.11214105E+00 0.21115214E+04</pdfrwt>
<totfact> 0.70559767E+00</totfact>
</mgrwt>
</event>
<event>
 4    1  0.1321115E-008  0.2730785E+04  0.7816531E-02  0.8325085E-01
          2   -1    0    0  501    0  0.00000000000E+00  0.00000000000E+00  0.19248822822E+04  0.19248822822E+04  0.00000000000E+00 0.  1.
         -2   -1    0    0    0  501 -0.00000000000E+00 -0.00000000000E+00 -0.96852481202E+03  0.96852481202E+03  0.00000000000E+00 0. -1.
    2000013    1    1    2    0    0 -0.97303013600E+03 -0.25494745658E+02  0.60514211567E+03  0.14886687367E+04  0.95000000000E+03 0.  0.
   -2000013    1    1    2    0    0  0.97303013600E+03  0.25494745658E+02  0.35121535446E+03  0.14047383574E+04  0.95000000000E+03 0.  0.
<mgrwt>
<rscale>  0 0.27307847E+04</rscale>
<asrwt>0</asrwt>
<pdfrwt beam="1">  1        2 0.29613573E+00 0.27307847E+04</pdfrwt>
<pdfrwt beam="2">  1       -2 0.14900382E+00 0.27307847E+04</pdfrwt>
<totfact> 0.19631730E+00</totfact>
</mgrwt>
</event>
<event>
 4    1  0.1321115E-008  0.3108493E+04  0.7816531E-02  0.8213411E-01
          2   -1    0    0  501    0  0.00000000000E+00  0.00000000000E+00  0.14543381273E+04  0.14543381273E+04  0.00000000000E+00 0.  1.
         -2   -1    0    0    0  501 -0.00000000000E+00 -0.00000000000E+00 -0.16610185226E+04  0.16610185226E+04  0.00000000000E+00 0. -1.
    2000013    1    1    2    0    0  0.45455424821E+03 -0.11634041104E+03 -0.12429647416E+04  0.16332838102E+04  0.95000000000E+03 0.  0.
   -2000013    1    1    2    0    0 -0.45455424821E+03  0.11634041104E+03  0.10362843463E+04  0.14820728397E+04  0.95000000000E+03 0.  0.
<mgrwt>
<rscale>  0 0.31084932E+04</rscale>
<asrwt>0</asrwt>
<pdfrwt beam="1">  1        2 0.22374433E+00 0.31084932E+04</pdfrwt>
<pdfrwt beam="2">  1       -2 0.25554131E+00 0.31084932E+04</pdfrwt>
<totfact> 0.67919505E-01</totfact>
</mgrwt>
</event>
<event>
 4    1  0.1321115E-008  0.2874304E+04  0.7816531E-02  0.8280564E-01
          1   -1    0    0  501    0  0.00000000000E+00  0.00000000000E+00  0.15480922720E+04  0.15480922720E+04  0.00000000000E+00 0.  1.
         -1   -1    0    0    0  501 -0.00000000000E+00 -0.00000000000E+00 -0.13341617198E+04  0.13341617198E+04  0.00000000000E+00 0. -1.
    2000013    1    1    2    0    0 -0.18165745804E+03  0.10593430525E+04  0.18982557029E+02  0.14345966236E+04  0.95000000000E+03 0.  0.
   -2000013    1    1    2    0    0  0.18165745804E+03 -0.10593430525E+04  0.19494799519E+03  0.14476573682E+04  0.95000000000E+03 0.  0.
<mgrwt>
<rscale>  0 0.28743037E+04</rscale>
<asrwt>0</asrwt>
<pdfrwt beam="1">  1        1 0.23816804E+00 0.28743037E+04</pdfrwt>
<pdfrwt beam="2">  1       -1 0.20525565E+00 0.28743037E+04</pdfrwt>
<totfact> 0.72189878E-01</totfact>
</mgrwt>
</event>
<event>
 4    1  0.1321115E-008  0.1986048E+04  0.7816531E-02  0.8613172E-01
         -2   -1    0    0    0  501 -0.00000000000E+00  0.00000000000E+00  0.10045808476E+04  0.10045808476E+04  0.00000000000E+00 0. -1.
          2   -1    0    0  501    0  0.00000000000E+00 -0.00000000000E+00 -0.98159970334E+03  0.98159970334E+03  0.00000000000E+00 0.  1.
    2000013    1    1    2    0    0 -0.11596139513E+03  0.26483609774E+03  0.14816172930E+02  0.99312875440E+03  0.95000000000E+03 0.  0.
   -2000013    1    1    2    0    0  0.11596139513E+03 -0.26483609774E+03  0.81649713041E+01  0.99305179653E+03  0.95000000000E+03 0.  0.
<mgrwt>
<rscale>  0 0.19860476E+04</rscale>
<asrwt>0</asrwt>
<pdfrwt beam="2">  1        2 0.15101534E+00 0.19860476E+04</pdfrwt>
<pdfrwt beam="1">  1       -2 0.15455090E+00 0.19860476E+04</pdfrwt>
<totfact> 0.66607164E+00</totfact>
</mgrwt>
</event>
<event>
 4    1  0.1321115E-008  0.3544961E+04  0.7816531E-02  0.8103217E-01
          2   -1    0    0  501    0  0.00000000000E+00  0.00000000000E+00  0.18151805193E+04  0.18151805193E+04  0.00000000000E+00 0.  1.
         -2   -1    0    0    0  501 -0.00000000000E+00 -0.00000000000E+00 -0.17307848959E+04  0.17307848959E+04  0.00000000000E+00 0. -1.
    2000013    1    1    2    0    0  0.72781202634E+03  0.85342044683E+03 -0.94861312928E+03  0.17494009471E+04  0.95000000000E+03 0.  0.
   -2000013    1    1    2    0    0 -0.72781202634E+03 -0.85342044683E+03  0.10330087527E+04  0.17965644680E+04  0.95000000000E+03 0.  0.
<mgrwt>
<rscale>  0 0.35449609E+04</rscale>
<asrwt>0</asrwt>
<pdfrwt beam="1">  1        2 0.27925854E+00 0.35449609E+04</pdfrwt>
<pdfrwt beam="2">  1       -2 0.26627460E+00 0.35449609E+04</pdfrwt>
<totfact> 0.35389666E-01</totfact>
</mgrwt>
</event>
<event>
 4    1  0.1321115E-008  0.2022490E+04  0.7816531E-02  0.8596177E-01
         -2   -1    0    0    0  501 -0.00000000000E+00  0.00000000000E+00  0.15235089372E+04  0.15235089372E+04  0.00000000000E+00 0. -1.
          2   -1    0    0  501    0  0.00000000000E+00 -0.00000000000E+00 -0.67122455446E+03  0.67122455446E+03  0.00000000000E+00 0.  1.
    2000013    1    1    2    0    0  0.22221990734E+03  0.25926620760E+03  0.36179687156E+03  0.10723794244E+04  0.95000000000E+03 0.  0.
   -2000013    1    1    2    0    0 -0.22221990734E+03 -0.25926620760E+03  0.49048751115E+03  0.11223540672E+04  0.95000000000E+03 0.  0.
<mgrwt>
<rscale>  0 0.20224902E+04</rscale>
<asrwt>0</asrwt>
<pdfrwt beam="2">  1        2 0.10326532E+00 0.20224902E+04</pdfrwt>
<pdfrwt beam="1">  1       -2 0.23438599E+00 0.20224902E+04</pdfrwt>
<totfact> 0.32144331E+00</totfact>
</mgrwt>
</event>
<event>
 4    1  0.1321115E-008  0.2489479E+04  0.7816531E-02  0.8406743E-01
         -2   -1    0    0    0  501 -0.00000000000E+00  0.00000000000E+00  0.10442897062E+04  0.10442897062E+04  0.00000000000E+00 0. -1.
          2   -1    0    0  501    0  0.00000000000E+00 -0.00000000000E+00 -0.14836655082E+04  0.14836655082E+04  0.00000000000E+00 0.  1.
    2000013    1    1    2    0    0  0.33888381666E+03 -0.68239926601E+03  0.41908914764E+02  0.12185103022E+04  0.95000000000E+03 0.  0.
   -2000013    1    1    2    0    0 -0.33888381666E+03  0.68239926601E+03 -0.48128471679E+03  0.13094449122E+04  0.95000000000E+03 0.  0.
<mgrwt>
<rscale>  0 0.24894792E+04</rscale>
<asrwt>0</asrwt>
<pdfrwt beam="2">  1        2 0.22825623E+00 0.24894792E+04</pdfrwt>
<pdfrwt beam="1">  1       -2 0.16065995E+00 0.24894792E+04</pdfrwt>
<totfact> 0.28835161E+00</totfact>
</mgrwt>
</event>
<event>
 4    1  0.1321115E-008  0.2004846E+04  0.7816531E-02  0.8604358E-01
          2   -1    0    0  501    0  0.00000000000E+00  0.00000000000E+00  0.34253417811E+04  0.34253417811E+04  0.00000000000E+00 0.  1.
         -2   -1    0    0    0  501 -0.00000000000E+00 -0.00000000000E+00 -0.29335819698E+03  0.29335819698E+03  0.00000000000E+00 0. -1.
    2000013    1    1    2    0    0  0.40119697254E+02  0.21772311713E+03  0.11376079387E+04  0.14985542259E+04  0.95000000000E+03 0.  0.
   -2000013    1    1    2    0    0 -0.40119697254E+02 -0.21772311713E+03  0.19943756454E+04  0.22201457522E+04  0.95000000000E+03 0.  0.
<mgrwt>
<rscale>  0 0.20048462E+04</rscale>
<asrwt>0</asrwt>
<pdfrwt beam="1">  1        2 0.52697563E+00 0.20048462E+04</pdfrwt>
<pdfrwt beam="2">  1       -2 0.45132033E-01 0.20048462E+04</pdfrwt>
<totfact> 0.39805406E+00</totfact>
</mgrwt>
</event>
<event>
 4    1  0.1321115E-008  0.2355600E+04  0.7816531E-02  0.8456316E-01
         -2   -1    0    0    0  501 -0.00000000000E+00  0.00000000000E+00  0.88477755940E+03  0.88477755940E+03  0.00000000000E+00 0. -1.
          2   -1    0    0  501    0  0.00000000000E+00 -0.00000000000E+00 -0.15678662052E+04  0.15678662052E+04  0.00000000000E+00 0.  1.
    2000013    1    1    2    0    0  0.35104985256E+03 -0.56683738041E+03 -0.55023153782E+03  0.12844435994E+04  0.95000000000E+03 0.  0.
   -2000013    1    1    2    0    0 -0.35104985256E+03  0.56683738041E+03 -0.13285710795E+03  0.11682001652E+04  0.95000000000E+03 0.  0.
<mgrwt>
<rscale>  0 0.23556000E+04</rscale>
<asrwt>0</asrwt>
<pdfrwt beam="2">  1        2 0.24121019E+00 0.23556000E+04</pdfrwt>
<pdfrwt beam="1">  1       -2 0.13611962E+00 0.23556000E+04</pdfrwt>
<totfact> 0.40529192E+00</totfact>
</mgrwt>
</event>
<event>
 4    1  0.1321115E-008  0.2239510E+04  0.7816531E-02  0.8502161E-01
          2   -1    0    0  501    0  0.00000000000E+00  0.00000000000E+00  0.19978843086E+04  0.19978843086E+04  0.00000000000E+00 0.  1.
         -2   -1    0    0    0  501 -0.00000000000E+00 -0.00000000000E+00 -0.62758966591E+03  0.62758966591E+03  0.00000000000E+00 0. -1.
    2000013    1    1    2    0    0  0.54908331327E+03  0.15263376637E+03  0.87621402069E+03  0.14124590478E+04  0.95000000000E+03 0.  0.
   -2000013    1    1    2    0    0 -0.54908331327E+03 -0.15263376637E+03  0.49408062205E+03  0.12130149268E+04  0.95000000000E+03 0.  0.
<mgrwt>
<rscale>  0 0.22395103E+04</rscale>
<asrwt>0</asrwt>
<pdfrwt beam="1">  1        2 0.30736681E+00 0.22395103E+04</pdfrwt>
<pdfrwt beam="2">  1       -2 0.96552257E-01 0.22395103E+04</pdfrwt>
<totfact> 0.54762668E+00</totfact>
</mgrwt>
</event>
<event>
 4    1  0.1321115E-008  0.3059199E+04  0.7816531E-02  0.8227025E-01
          1   -1    0    0  501    0  0.00000000000E+00  0.00000000000E+00  0.13364737345E+04  0.13364737345E+04  0.00000000000E+00 0.  1.
         -1   -1    0    0    0  501 -0.00000000000E+00 -0.00000000000E+00 -0.17506328238E+04  0.17506328238E+04  0.00000000000E+00 0. -1.
    2000013    1    1    2    0    0  0.48601178495E+03  0.97332292521E+03  0.30111138170E+03  0.14753755576E+04  0.95000000000E+03 0.  0.
   -2000013    1    1    2    0    0 -0.48601178495E+03 -0.97332292521E+03 -0.71527047099E+03  0.16117310007E+04  0.95000000000E+03 0.  0.
<mgrwt>
<rscale>  0 0.30591991E+04</rscale>
<asrwt>0</asrwt>
<pdfrwt beam="1">  1        1 0.20561134E+00 0.30591991E+04</pdfrwt>
<pdfrwt beam="2">  1       -1 0.26932813E+00 0.30591991E+04</pdfrwt>
<totfact> 0.37649064E-01</totfact>
</mgrwt>
</event>
<event>
 4    1  0.1321115E-008  0.3226893E+04  0.7816531E-02  0.8181751E-01
         -2   -1    0    0    0  501 -0.00000000000E+00  0.00000000000E+00  0.11725917294E+04  0.11725917294E+04  0.00000000000E+00 0. -1.
          2   -1    0    0  501    0  0.00000000000E+00 -0.00000000000E+00 -0.22200480750E+04  0.22200480750E+04  0.00000000000E+00 0.  1.
    2000013    1    1    2    0    0  0.88794900560E+03 -0.66806090389E+03 -0.12413958285E+04  0.19178953076E+04  0.95000000000E+03 0.  0.
   -2000013    1    1    2    0    0 -0.88794900560E+03  0.66806090389E+03  0.19393948289E+03  0.14747444968E+04  0.95000000000E+03 0.  0.
<mgrwt>
<rscale>  0 0.32268932E+04</rscale>
<asrwt>0</asrwt>
<pdfrwt beam="2">  1        2 0.34154586E+00 0.32268932E+04</pdfrwt>
<pdfrwt beam="1">  1       -2 0.18039873E+00 0.32268932E+04</pdfrwt>
<totfact> 0.76166435E-01</totfact>
</mgrwt>
</event>
<event>
 4    1  0.1321115E-008  0.2460663E+04  0.7816531E-02  0.8417135E-01
          2   -1    0    0  501    0  0.00000000000E+00  0.00000000000E+00  0.94638211039E+03  0.94638211039E+03  0.00000000000E+00 0.  1.
         -2   -1    0    0    0  501 -0.00000000000E+00 -0.00000000000E+00 -0.15994754851E+04  0.15994754851E+04  0.00000000000E+00 0. -1.
    2000013    1    1    2    0    0  0.64612166576E+03  0.41431483847E+03 -0.48030219715E+03  0.13123719720E+04  0.95000000000E+03 0.  0.
   -2000013    1    1    2    0    0 -0.64612166576E+03 -0.41431483847E+03 -0.17279117758E+03  0.12334856235E+04  0.95000000000E+03 0.  0.
<mgrwt>
<rscale>  0 0.24606625E+04</rscale>
<asrwt>0</asrwt>
<pdfrwt beam="1">  1        2 0.14559725E+00 0.24606625E+04</pdfrwt>
<pdfrwt beam="2">  1       -2 0.24607315E+00 0.24606625E+04</pdfrwt>
<totfact> 0.16594034E+00</totfact>
</mgrwt>
</event>
<event>
 4    1  0.1321115E-008  0.2137384E+04  0.7816531E-02  0.8544952E-01
          2   -1    0    0  501    0  0.00000000000E+00  0.00000000000E+00  0.13810546496E+04  0.13810546496E+04  0.00000000000E+00 0.  1.
         -2   -1    0    0    0  501 -0.00000000000E+00 -0.00000000000E+00 -0.82697823537E+03  0.82697823537E+03  0.00000000000E+00 0. -1.
    2000013    1    1    2    0    0 -0.16711057369E+03  0.36621206022E+03 -0.10672314501E+02  0.10318193229E+04  0.95000000000E+03 0.  0.
   -2000013    1    1    2    0    0  0.16711057369E+03 -0.36621206022E+03  0.56474872871E+03  0.11762135620E+04  0.95000000000E+03 0.  0.
<mgrwt>
<rscale>  0 0.21373836E+04</rscale>
<asrwt>0</asrwt>
<pdfrwt beam="1">  1        2 0.21246995E+00 0.21373836E+04</pdfrwt>
<pdfrwt beam="2">  1       -2 0.12722742E+00 0.21373836E+04</pdfrwt>
<totfact> 0.62531214E+00</totfact>
</mgrwt>
</event>
<event>
 4    1  0.1321115E-008  0.2850717E+04  0.7816531E-02  0.8287693E-01
          2   -1    0    0  501    0  0.00000000000E+00  0.00000000000E+00  0.16140001630E+04  0.16140001630E+04  0.00000000000E+00 0.  1.
         -2   -1    0    0    0  501 -0.00000000000E+00 -0.00000000000E+00 -0.12587651539E+04  0.12587651539E+04  0.00000000000E+00 0. -1.
    2000013    1    1    2    0    0  0.67191781026E+03  0.71967086972E+03 -0.22515794370E+03  0.13865770098E+04  0.95000000000E+03 0.  0.
   -2000013    1    1    2    0    0 -0.67191781026E+03 -0.71967086972E+03  0.58039295279E+03  0.14861883071E+04  0.95000000000E+03 0.  0.
<mgrwt>
<rscale>  0 0.28507172E+04</rscale>
<asrwt>0</asrwt>
<pdfrwt beam="1">  1        2 0.24830772E+00 0.28507172E+04</pdfrwt>
<pdfrwt beam="2">  1       -2 0.19365618E+00 0.28507172E+04</pdfrwt>
<totfact> 0.13906684E+00</totfact>
</mgrwt>
</event>
<event>
 4    1  0.1321115E-008  0.2162483E+04  0.7816531E-02  0.8534208E-01
         -2   -1    0    0    0  501 -0.00000000000E+00  0.00000000000E+00  0.71656231007E+03  0.71656231007E+03  0.00000000000E+00 0. -1.
          2   -1    0    0  501    0  0.00000000000E+00 -0.00000000000E+00 -0.16315163173E+04  0.16315163173E+04  0.00000000000E+00 0.  1.
    2000013    1    1    2    0    0 -0.22024304405E+03  0.18410511604E+03  0.85196993632E+01  0.99245870316E+03  0.95000000000E+03 0.  0.
   -2000013    1    1    2    0    0  0.22024304405E+03 -0.18410511604E+03 -0.92347370663E+03  0.13556199243E+04  0.95000000000E+03 0.  0.
<mgrwt>
<rscale>  0 0.21624829E+04</rscale>
<asrwt>0</asrwt>
<pdfrwt beam="2">  1        2 0.25100251E+00 0.21624829E+04</pdfrwt>
<pdfrwt beam="1">  1       -2 0.11024036E+00 0.21624829E+04</pdfrwt>
<totfact> 0.64172396E+00</totfact>
</mgrwt>
</event>
<event>
 4    1  0.1321115E-008  0.2375474E+04  0.7816531E-02  0.8448743E-01
          2   -1    0    0  501    0  0.00000000000E+00  0.00000000000E+00  0.25658307496E+04  0.25658307496E+04  0.00000000000E+00 0.  1.
         -2   -1    0    0    0  501 -0.00000000000E+00 -0.00000000000E+00 -0.54980973586E+03  0.54980973586E+03  0.00000000000E+00 0. -1.
    2000013    1    1    2    0    0  0.57502282997E+03  0.37766036347E+03  0.12531759942E+04  0.17164581782E+04  0.95000000000E+03 0.  0.
   -2000013    1    1    2    0    0 -0.57502282997E+03 -0.37766036347E+03  0.76284501957E+03  0.13991823073E+04  0.95000000000E+03 0.  0.
<mgrwt>
<rscale>  0 0.23754736E+04</rscale>
<asrwt>0</asrwt>
<pdfrwt beam="1">  1        2 0.39474319E+00 0.23754736E+04</pdfrwt>
<pdfrwt beam="2">  1       -2 0.84586115E-01 0.23754736E+04</pdfrwt>
<totfact> 0.34984382E+00</totfact>
</mgrwt>
</event>
<event>
 4    1  0.1321115E-008  0.2324642E+04  0.7816531E-02  0.8468268E-01
          2   -1    0    0  501    0  0.00000000000E+00  0.00000000000E+00  0.13549638592E+04  0.13549638592E+04  0.00000000000E+00 0.  1.
         -2   -1    0    0    0  501 -0.00000000000E+00 -0.00000000000E+00 -0.99706694557E+03  0.99706694557E+03  0.00000000000E+00 0. -1.
    2000013    1    1    2    0    0 -0.45346214334E+03  0.48952041324E+03  0.12143217241E+03  0.11672634334E+04  0.95000000000E+03 0.  0.
   -2000013    1    1    2    0    0  0.45346214334E+03 -0.48952041324E+03  0.23646474119E+03  0.11847673714E+04  0.95000000000E+03 0.  0.
<mgrwt>
<rscale>  0 0.23246416E+04</rscale>
<asrwt>0</asrwt>
<pdfrwt beam="1">  1        2 0.20845598E+00 0.23246416E+04</pdfrwt>
<pdfrwt beam="2">  1       -2 0.15339491E+00 0.23246416E+04</pdfrwt>
<totfact> 0.39236384E+00</totfact>
</mgrwt>
</event>
<event>
 4    1  0.1321115E-008  0.2586321E+04  0.7816531E-02  0.8372862E-01
         -2   -1    0    0    0  501 -0.00000000000E+00  0.00000000000E+00  0.11441344347E+04  0.11441344347E+04  0.00000000000E+00 0. -1.
          2   -1    0    0  501    0  0.00000000000E+00 -0.00000000000E+00 -0.14615976666E+04  0.14615976666E+04  0.00000000000E+00 0.  1.
    2000013    1    1    2    0    0 -0.80581402904E+03  0.32596911849E+03 -0.27867173911E+03  0.13174786730E+04  0.95000000000E+03 0.  0.
   -2000013    1    1    2    0    0  0.80581402904E+03 -0.32596911849E+03 -0.38791492841E+02  0.12882534283E+04  0.95000000000E+03 0.  0.
<mgrwt>
<rscale>  0 0.25863211E+04</rscale>
<asrwt>0</asrwt>
<pdfrwt beam="2">  1        2 0.22486118E+00 0.25863211E+04</pdfrwt>
<pdfrwt beam="1">  1       -2 0.17602068E+00 0.25863211E+04</pdfrwt>
<totfact> 0.22844617E+00</totfact>
</mgrwt>
</event>
<event>
 4    1  0.1321115E-008  0.2535467E+04  0.7816531E-02  0.8390458E-01
          2   -1    0    0  501    0  0.00000000000E+00  0.00000000000E+00  0.21401891995E+04  0.21401891995E+04  0.00000000000E+00 0.  1.
         -2   -1    0    0    0  501 -0.00000000000E+00 -0.00000000000E+00 -0.75093749441E+03  0.75093749441E+03  0.00000000000E+00 0. -1.
    2000013    1    1    2    0    0  0.26403204477E+03  0.78587483088E+03  0.54448965628E+03  0.13734195121E+04  0.95000000000E+03 0.  0.
   -2000013    1    1    2    0    0 -0.26403204477E+03 -0.78587483088E+03  0.84476204877E+03  0.15177071817E+04  0.95000000000E+03 0.  0.
<mgrwt>
<rscale>  0 0.25354671E+04</rscale>
<asrwt>0</asrwt>
<pdfrwt beam="1">  1        2 0.32925987E+00 0.25354671E+04</pdfrwt>
<pdfrwt beam="2">  1       -2 0.11552885E+00 0.25354671E+04</pdfrwt>
<totfact> 0.28926589E+00</totfact>
</mgrwt>
</event>
<event>
 4    1  0.1321115E-008  0.2499774E+04  0.7816531E-02  0.8403066E-01
         -2   -1    0    0    0  501 -0.00000000000E+00  0.00000000000E+00  0.78313685825E+03  0.78313685825E+03  0.00000000000E+00 0. -1.
          2   -1    0    0  501    0  0.00000000000E+00 -0.00000000000E+00 -0.19948201735E+04  0.19948201735E+04  0.00000000000E+00 0.  1.
    2000013    1    1    2    0    0 -0.68055789374E+03 -0.41200941964E+03 -0.42389502378E+03  0.13096174250E+04  0.95000000000E+03 0.  0.
   -2000013    1    1    2    0    0  0.68055789374E+03  0.41200941964E+03 -0.78778829144E+03  0.14683396067E+04  0.95000000000E+03 0.  0.
<mgrwt>
<rscale>  0 0.24997738E+04</rscale>
<asrwt>0</asrwt>
<pdfrwt beam="2">  1        2 0.30689541E+00 0.24997738E+04</pdfrwt>
<pdfrwt beam="1">  1       -2 0.12048259E+00 0.24997738E+04</pdfrwt>
<totfact> 0.31536459E+00</totfact>
</mgrwt>
</event>
<event>
 4    1  0.1321115E-008  0.2329269E+04  0.7816531E-02  0.8466469E-01
         -2   -1    0    0    0  501 -0.00000000000E+00  0.00000000000E+00  0.58009545425E+03  0.58009545425E+03  0.00000000000E+00 0. -1.
          2   -1    0    0  501    0  0.00000000000E+00 -0.00000000000E+00 -0.23381907347E+04  0.23381907347E+04  0.00000000000E+00 0.  1.
    2000013    1    1    2    0    0  0.37297898344E+03 -0.45548979639E+03 -0.46866698898E+03  0.12119129603E+04  0.95000000000E+03 0.  0.
   -2000013    1    1    2    0    0 -0.37297898344E+03  0.45548979639E+03 -0.12894282915E+04  0.17063732287E+04  0.95000000000E+03 0.  0.
<mgrwt>
<rscale>  0 0.23292693E+04</rscale>
<asrwt>0</asrwt>
<pdfrwt beam="2">  1        2 0.35972165E+00 0.23292693E+04</pdfrwt>
<pdfrwt beam="1">  1       -2 0.89245454E-01 0.23292693E+04</pdfrwt>
<totfact> 0.42022755E+00</totfact>
</mgrwt>
</event>
<event>
 4    1  0.1321115E-008  0.2376642E+04  0.7816531E-02  0.8448300E-01
         -2   -1    0    0    0  501 -0.00000000000E+00  0.00000000000E+00  0.79317387410E+03  0.79317387410E+03  0.00000000000E+00 0. -1.
          2   -1    0    0  501    0  0.00000000000E+00 -0.00000000000E+00 -0.17803246789E+04  0.17803246789E+04  0.00000000000E+00 0.  1.
    2000013    1    1    2    0    0  0.44174690359E+03 -0.55701859989E+03 -0.56372550803E+03  0.13136576783E+04  0.95000000000E+03 0.  0.
   -2000013    1    1    2    0    0 -0.44174690359E+03  0.55701859989E+03 -0.42342529674E+03  0.12598408746E+04  0.95000000000E+03 0.  0.
<mgrwt>
<rscale>  0 0.23766422E+04</rscale>
<asrwt>0</asrwt>
<pdfrwt beam="2">  1        2 0.27389610E+00 0.23766422E+04</pdfrwt>
<pdfrwt beam="1">  1       -2 0.12202675E+00 0.23766422E+04</pdfrwt>
<totfact> 0.40605106E+00</totfact>
</mgrwt>
</event>
<event>
 4    1  0.1321115E-008  0.3323572E+04  0.7816531E-02  0.8156923E-01
         -2   -1    0    0    0  501 -0.00000000000E+00  0.00000000000E+00  0.16715200544E+04  0.16715200544E+04  0.00000000000E+00 0. -1.
          2   -1    0    0  501    0  0.00000000000E+00 -0.00000000000E+00 -0.16521086620E+04  0.16521086620E+04  0.00000000000E+00 0.  1.
    2000013    1    1    2    0    0 -0.13243424027E+04 -0.27818650875E+03  0.17632854678E+03  0.16627875059E+04  0.95000000000E+03 0.  0.
   -2000013    1    1    2    0    0  0.13243424027E+04  0.27818650875E+03 -0.15691715444E+03  0.16608412105E+04  0.95000000000E+03 0.  0.
<mgrwt>
<rscale>  0 0.33235720E+04</rscale>
<asrwt>0</asrwt>
<pdfrwt beam="2">  1        2 0.25417056E+00 0.33235720E+04</pdfrwt>
<pdfrwt beam="1">  1       -2 0.25715693E+00 0.33235720E+04</pdfrwt>
<totfact> 0.50488204E-01</totfact>
</mgrwt>
</event>
<event>
 4    1  0.1321115E-008  0.3037529E+04  0.7816531E-02  0.8233095E-01
         -2   -1    0    0    0  501 -0.00000000000E+00  0.00000000000E+00  0.68734715830E+03  0.68734715830E+03  0.00000000000E+00 0. -1.
          2   -1    0    0  501    0  0.00000000000E+00 -0.00000000000E+00 -0.33558677432E+04  0.33558677432E+04  0.00000000000E+00 0.  1.
    2000013    1    1    2    0    0 -0.35464023453E+02 -0.89309916007E+03 -0.29869336902E+03  0.13381336015E+04  0.95000000000E+03 0.  0.
   -2000013    1    1    2    0    0  0.35464023453E+02  0.89309916007E+03 -0.23698272159E+04  0.27050813000E+04  0.95000000000E+03 0.  0.
<mgrwt>
<rscale>  0 0.30375294E+04</rscale>
<asrwt>0</asrwt>
<pdfrwt beam="2">  1        2 0.51628734E+00 0.30375294E+04</pdfrwt>
<pdfrwt beam="1">  1       -2 0.10574572E+00 0.30375294E+04</pdfrwt>
<totfact> 0.62951172E-01</totfact>
</mgrwt>
</event>
<event>
 4    1  0.1321115E-008  0.2398520E+04  0.7816531E-02  0.8440058E-01
         -2   -1    0    0    0  501 -0.00000000000E+00  0.00000000000E+00  0.10645957753E+04  0.10645957753E+04  0.00000000000E+00 0. -1.
          2   -1    0    0  501    0  0.00000000000E+00 -0.00000000000E+00 -0.13509580013E+04  0.13509580013E+04  0.00000000000E+00 0.  1.
    2000013    1    1    2    0    0 -0.36252384822E+03  0.63226559674E+03 -0.21104555179E+03  0.12158221705E+04  0.95000000000E+03 0.  0.
   -2000013    1    1    2    0    0  0.36252384822E+03 -0.63226559674E+03 -0.75316674263E+02  0.11997316061E+04  0.95000000000E+03 0.  0.
<mgrwt>
<rscale>  0 0.23985197E+04</rscale>
<asrwt>0</asrwt>
<pdfrwt beam="2">  1        2 0.20783969E+00 0.23985197E+04</pdfrwt>
<pdfrwt beam="1">  1       -2 0.16378397E+00 0.23985197E+04</pdfrwt>
<totfact> 0.32818066E+00</totfact>
</mgrwt>
</event>
<event>
 4    1  0.1321115E-008  0.2001522E+04  0.7816531E-02  0.8605909E-01
         -2   -1    0    0    0  501 -0.00000000000E+00  0.00000000000E+00  0.94062610233E+03  0.94062610233E+03  0.00000000000E+00 0.  1.
          2   -1    0    0  501    0  0.00000000000E+00 -0.00000000000E+00 -0.10647403989E+04  0.10647403989E+04  0.00000000000E+00 0. -1.
    2000013    1    1    2    0    0 -0.11066341554E+03  0.28996044077E+03 -0.11411040576E+03  0.10059048829E+04  0.95000000000E+03 0.  0.
   -2000013    1    1    2    0    0  0.11066341554E+03 -0.28996044077E+03 -0.10003890849E+02  0.99946161837E+03  0.95000000000E+03 0.  0.
<mgrwt>
<rscale>  0 0.20015220E+04</rscale>
<asrwt>0</asrwt>
<pdfrwt beam="2">  1        2 0.16380621E+00 0.20015220E+04</pdfrwt>
<pdfrwt beam="1">  1       -2 0.14471171E+00 0.20015220E+04</pdfrwt>
<totfact> 0.70115776E+00</totfact>
</mgrwt>
</event>
<event>
 4    1  0.1321115E-008  0.1963967E+04  0.7816531E-02  0.8623655E-01
         -2   -1    0    0    0  501 -0.00000000000E+00  0.00000000000E+00  0.45028153645E+03  0.45028153645E+03  0.00000000000E+00 0.  1.
          2   -1    0    0  501    0  0.00000000000E+00 -0.00000000000E+00 -0.21415301329E+04  0.21415301329E+04  0.00000000000E+00 0. -1.
    2000013    1    1    2    0    0 -0.18693501019E+03 -0.14760739766E+03 -0.75176125921E+03  0.12346568887E+04  0.95000000000E+03 0.  0.
   -2000013    1    1    2    0    0  0.18693501019E+03  0.14760739766E+03 -0.93948733721E+03  0.13571547807E+04  0.95000000000E+03 0.  0.
<mgrwt>
<rscale>  0 0.19639669E+04</rscale>
<asrwt>0</asrwt>
<pdfrwt beam="2">  1        2 0.32946617E+00 0.19639669E+04</pdfrwt>
<pdfrwt beam="1">  1       -2 0.69274083E-01 0.19639669E+04</pdfrwt>
<totfact> 0.98690658E+00</totfact>
</mgrwt>
</event>
<event>
 4    1  0.1321115E-008  0.2162843E+04  0.7816531E-02  0.8534055E-01
          2   -1    0    0  501    0  0.00000000000E+00  0.00000000000E+00  0.97760592533E+03  0.97760592533E+03  0.00000000000E+00 0.  1.
         -2   -1    0    0    0  501 -0.00000000000E+00 -0.00000000000E+00 -0.11962615019E+04  0.11962615019E+04  0.00000000000E+00 0. -1.
    2000013    1    1    2    0    0  0.16414609578E+03  0.11593307655E+03 -0.58776665595E+03  0.11350568536E+04  0.95000000000E+03 0.  0.
   -2000013    1    1    2    0    0 -0.16414609578E+03 -0.11593307655E+03  0.36911107939E+03  0.10388105736E+04  0.95000000000E+03 0.  0.
<mgrwt>
<rscale>  0 0.21628429E+04</rscale>
<asrwt>0</asrwt>
<pdfrwt beam="1">  1        2 0.15040091E+00 0.21628429E+04</pdfrwt>
<pdfrwt beam="2">  1       -2 0.18404023E+00 0.21628429E+04</pdfrwt>
<totfact> 0.40604010E+00</totfact>
</mgrwt>
</event>
<event>
 4    1  0.1321115E-008  0.2693699E+04  0.7816531E-02  0.8337052E-01
         -1   -1    0    0    0  501 -0.00000000000E+00  0.00000000000E+00  0.11318287115E+04  0.11318287115E+04  0.00000000000E+00 0. -1.
          1   -1    0    0  501    0  0.00000000000E+00 -0.00000000000E+00 -0.16027193033E+04  0.16027193033E+04  0.00000000000E+00 0.  1.
    2000013    1    1    2    0    0 -0.53849664842E+03  0.65079615831E+03  0.21626239857E+03  0.12894897072E+04  0.95000000000E+03 0.  0.
   -2000013    1    1    2    0    0  0.53849664842E+03 -0.65079615831E+03 -0.68715299045E+03  0.14450583076E+04  0.95000000000E+03 0.  0.
<mgrwt>
<rscale>  0 0.26936991E+04</rscale>
<asrwt>0</asrwt>
<pdfrwt beam="2">  1        1 0.24657220E+00 0.26936991E+04</pdfrwt>
<pdfrwt beam="1">  1       -1 0.17412750E+00 0.26936991E+04</pdfrwt>
<totfact> 0.11141637E+00</totfact>
</mgrwt>
</event>
<event>
 4    1  0.1321115E-008  0.2371331E+04  0.7816531E-02  0.8450315E-01
         -1   -1    0    0    0  501 -0.00000000000E+00  0.00000000000E+00  0.85120723820E+03  0.85120723820E+03  0.00000000000E+00 0.  1.
          1   -1    0    0  501    0  0.00000000000E+00 -0.00000000000E+00 -0.16515396055E+04  0.16515396055E+04  0.00000000000E+00 0. -1.
    2000013    1    1    2    0    0 -0.64638394644E+03  0.28555167291E+03 -0.33382993148E+03  0.12301603096E+04  0.95000000000E+03 0.  0.
   -2000013    1    1    2    0    0  0.64638394644E+03 -0.28555167291E+03 -0.46650243577E+03  0.12725865341E+04  0.95000000000E+03 0.  0.
<mgrwt>
<rscale>  0 0.23713308E+04</rscale>
<asrwt>0</asrwt>
<pdfrwt beam="2">  1        1 0.25408302E+00 0.23713308E+04</pdfrwt>
<pdfrwt beam="1">  1       -1 0.13095496E+00 0.23713308E+04</pdfrwt>
<totfact> 0.23003562E+00</totfact>
</mgrwt>
</event>
<event>
 4    1  0.1321115E-008  0.2404144E+04  0.7816531E-02  0.8437954E-01
          2   -1    0    0  501    0  0.00000000000E+00  0.00000000000E+00  0.32845269982E+04  0.32845269982E+04  0.00000000000E+00 0.  1.
         -2   -1    0    0    0  501 -0.00000000000E+00 -0.00000000000E+00 -0.43993458024E+03  0.43993458024E+03  0.00000000000E+00 0. -1.
    2000013    1    1    2    0    0 -0.45245946056E+03 -0.38113231293E+03  0.74260220093E+03  0.13431081238E+04  0.95000000000E+03 0.  0.
   -2000013    1    1    2    0    0  0.45245946056E+03  0.38113231293E+03  0.21019902170E+04  0.23813534546E+04  0.95000000000E+03 0.  0.
<mgrwt>
<rscale>  0 0.24041439E+04</rscale>
<asrwt>0</asrwt>
<pdfrwt beam="1">  1        2 0.50531183E+00 0.24041439E+04</pdfrwt>
<pdfrwt beam="2">  1       -2 0.67682245E-01 0.24041439E+04</pdfrwt>
<totfact> 0.20534963E+00</totfact>
</mgrwt>
</event>
<event>
 4    1  0.1321115E-008  0.2596324E+04  0.7816531E-02  0.8369451E-01
         -2   -1    0    0    0  501 -0.00000000000E+00  0.00000000000E+00  0.74794201774E+03  0.74794201774E+03  0.00000000000E+00 0. -1.
          2   -1    0    0  501    0  0.00000000000E+00 -0.00000000000E+00 -0.22531484502E+04  0.22531484502E+04  0.00000000000E+00 0.  1.
    2000013    1    1    2    0    0  0.56486047541E+03 -0.53835019386E+03 -0.12345401614E+04  0.17422622357E+04  0.95000000000E+03 0.  0.
   -2000013    1    1    2    0    0 -0.56486047541E+03  0.53835019386E+03 -0.27066627103E+03  0.12588282322E+04  0.95000000000E+03 0.  0.
<mgrwt>
<rscale>  0 0.25963239E+04</rscale>
<asrwt>0</asrwt>
<pdfrwt beam="2">  1        2 0.34663823E+00 0.25963239E+04</pdfrwt>
<pdfrwt beam="1">  1       -2 0.11506800E+00 0.25963239E+04</pdfrwt>
<totfact> 0.25104846E+00</totfact>
</mgrwt>
</event>
<event>
 4    1  0.1321115E-008  0.1984583E+04  0.7816531E-02  0.8613863E-01
         -1   -1    0    0    0  501 -0.00000000000E+00  0.00000000000E+00  0.23212305999E+04  0.23212305999E+04  0.00000000000E+00 0. -1.
          1   -1    0    0  501    0  0.00000000000E+00 -0.00000000000E+00 -0.42418995056E+03  0.42418995056E+03  0.00000000000E+00 0.  1.
    2000013    1    1    2    0    0 -0.22394301040E+03 -0.10517142657E+03  0.11486615431E+04  0.15110045803E+04  0.95000000000E+03 0.  0.
   -2000013    1    1    2    0    0  0.22394301040E+03  0.10517142657E+03  0.74837910618E+03  0.12344159702E+04  0.95000000000E+03 0.  0.
<mgrwt>
<rscale>  0 0.19845833E+04</rscale>
<asrwt>0</asrwt>
<pdfrwt beam="2">  1        1 0.65259994E-01 0.19845833E+04</pdfrwt>
<pdfrwt beam="1">  1       -1 0.35711239E+00 0.19845833E+04</pdfrwt>
<totfact> 0.71909593E-01</totfact>
</mgrwt>
</event>
<event>
 4    1  0.1321115E-008  0.4200612E+04  0.7816531E-02  0.7965256E-01
          2   -1    0    0  501    0  0.00000000000E+00  0.00000000000E+00  0.29029172977E+04  0.29029172977E+04  0.00000000000E+00 0.  1.
         -2   -1    0    0    0  501 -0.00000000000E+00 -0.00000000000E+00 -0.15196039146E+04  0.15196039146E+04  0.00000000000E+00 0. -1.
    2000013    1    1    2    0    0  0.16632805093E+04  0.36485696126E+03 -0.13006308326E+03  0.19542361834E+04  0.95000000000E+03 0.  0.
   -2000013    1    1    2    0    0 -0.16632805093E+04 -0.36485696126E+03  0.15133764663E+04  0.24682850289E+04  0.95000000000E+03 0.  0.
<mgrwt>
<rscale>  0 0.42006116E+04</rscale>
<asrwt>0</asrwt>
<pdfrwt beam="1">  1        2 0.44660266E+00 0.42006116E+04</pdfrwt>
<pdfrwt beam="2">  1       -2 0.23378522E+00 0.42006116E+04</pdfrwt>
<totfact> 0.12569403E-01</totfact>
</mgrwt>
</event>
<event>
 4    1  0.1321115E-008  0.2154231E+04  0.7816531E-02  0.8537723E-01
          2   -1    0    0  501    0  0.00000000000E+00  0.00000000000E+00  0.28942809023E+04  0.28942809023E+04  0.00000000000E+00 0.  1.
         -2   -1    0    0    0  501 -0.00000000000E+00 -0.00000000000E+00 -0.40085201050E+03  0.40085201050E+03  0.00000000000E+00 0. -1.
    2000013    1    1    2    0    0 -0.29143903032E+03  0.33126889486E+03  0.16306510878E+04  0.19380915250E+04  0.95000000000E+03 0.  0.
   -2000013    1    1    2    0    0  0.29143903032E+03 -0.33126889486E+03  0.86277780393E+03  0.13570413877E+04  0.95000000000E+03 0.  0.
<mgrwt>
<rscale>  0 0.21542315E+04</rscale>
<asrwt>0</asrwt>
<pdfrwt beam="1">  1        2 0.44527397E+00 0.21542315E+04</pdfrwt>
<pdfrwt beam="2">  1       -2 0.61669542E-01 0.21542315E+04</pdfrwt>
<totfact> 0.45454548E+00</totfact>
</mgrwt>
</event>
<event>
 4    1  0.1321115E-008  0.3500487E+04  0.7816531E-02  0.8113675E-01
          1   -1    0    0  501    0  0.00000000000E+00  0.00000000000E+00  0.24615401057E+04  0.24615401057E+04  0.00000000000E+00 0.  1.
         -1   -1    0    0    0  501 -0.00000000000E+00 -0.00000000000E+00 -0.12444859954E+04  0.12444859954E+04  0.00000000000E+00 0. -1.
    2000013    1    1    2    0    0 -0.49408565758E+03  0.13756149571E+04  0.44309915825E+03  0.17986867462E+04  0.95000000000E+03 0.  0.
   -2000013    1    1    2    0    0  0.49408565758E+03 -0.13756149571E+04  0.77395495205E+03  0.19073393549E+04  0.95000000000E+03 0.  0.
<mgrwt>
<rscale>  0 0.35004869E+04</rscale>
<asrwt>0</asrwt>
<pdfrwt beam="1">  1        1 0.37869848E+00 0.35004869E+04</pdfrwt>
<pdfrwt beam="2">  1       -1 0.19145938E+00 0.35004869E+04</pdfrwt>
<totfact> 0.20279192E-01</totfact>
</mgrwt>
</event>
<event>
 4    1  0.1321115E-008  0.2957080E+04  0.7816531E-02  0.8256094E-01
          2   -1    0    0  501    0  0.00000000000E+00  0.00000000000E+00  0.12127174702E+04  0.12127174702E+04  0.00000000000E+00 0.  1.
         -2   -1    0    0    0  501 -0.00000000000E+00 -0.00000000000E+00 -0.18026298217E+04  0.18026298217E+04  0.00000000000E+00 0. -1.
    2000013    1    1    2    0    0 -0.10605682567E+04 -0.10104944505E+03 -0.68799188204E+03  0.15845658230E+04  0.95000000000E+03 0.  0.
   -2000013    1    1    2    0    0  0.10605682567E+04  0.10104944505E+03  0.98079530625E+02  0.14307814689E+04  0.95000000000E+03 0.  0.
<mgrwt>
<rscale>  0 0.29570801E+04</rscale>
<asrwt>0</asrwt>
<pdfrwt beam="1">  1        2 0.18657192E+00 0.29570801E+04</pdfrwt>
<pdfrwt beam="2">  1       -2 0.27732767E+00 0.29570801E+04</pdfrwt>
<totfact> 0.69905577E-01</totfact>
</mgrwt>
</event>
<event>
 4    1  0.1321115E-008  0.2552001E+04  0.7816531E-02  0.8384690E-01
          2   -1    0    0  501    0  0.00000000000E+00  0.00000000000E+00  0.92918776479E+03  0.92918776479E+03  0.00000000000E+00 0.  1.
         -2   -1    0    0    0  501 -0.00000000000E+00 -0.00000000000E+00 -0.17522592410E+04  0.17522592410E+04  0.00000000000E+00 0. -1.
    2000013    1    1    2    0    0 -0.76961352490E+03 -0.66588315214E+01 -0.27872801308E+02  0.12229579759E+04  0.95000000000E+03 0.  0.
   -2000013    1    1    2    0    0  0.76961352490E+03  0.66588315214E+01 -0.79519867490E+03  0.14584890299E+04  0.95000000000E+03 0.  0.
<mgrwt>
<rscale>  0 0.25520014E+04</rscale>
<asrwt>0</asrwt>
<pdfrwt beam="1">  1        2 0.14295197E+00 0.25520014E+04</pdfrwt>
<pdfrwt beam="2">  1       -2 0.26957834E+00 0.25520014E+04</pdfrwt>
<totfact> 0.12134375E+00</totfact>
</mgrwt>
</event>
<event>
 4    1  0.1321115E-008  0.2604586E+04  0.7816531E-02  0.8366645E-01
         -2   -1    0    0    0  501 -0.00000000000E+00  0.00000000000E+00  0.10910883636E+04  0.10910883636E+04  0.00000000000E+00 0. -1.
          2   -1    0    0  501    0  0.00000000000E+00 -0.00000000000E+00 -0.15543813087E+04  0.15543813087E+04  0.00000000000E+00 0.  1.
    2000013    1    1    2    0    0  0.86230522682E+02 -0.85570081644E+03 -0.46725257584E+03  0.13639958064E+04  0.95000000000E+03 0.  0.
   -2000013    1    1    2    0    0 -0.86230522682E+02  0.85570081644E+03  0.39596307640E+01  0.12814738659E+04  0.95000000000E+03 0.  0.
<mgrwt>
<rscale>  0 0.26045862E+04</rscale>
<asrwt>0</asrwt>
<pdfrwt beam="2">  1        2 0.23913559E+00 0.26045862E+04</pdfrwt>
<pdfrwt beam="1">  1       -2 0.16785975E+00 0.26045862E+04</pdfrwt>
<totfact> 0.23095424E+00</totfact>
</mgrwt>
</event>
<event>
 4    1  0.1321115E-008  0.2511776E+04  0.7816531E-02  0.8398802E-01
          2   -1    0    0  501    0  0.00000000000E+00  0.00000000000E+00  0.31162147794E+04  0.31162147794E+04  0.00000000000E+00 0.  1.
         -2   -1    0    0    0  501 -0.00000000000E+00 -0.00000000000E+00 -0.50614427224E+03  0.50614427224E+03  0.00000000000E+00 0. -1.
    2000013    1    1    2    0    0  0.63589465896E+03  0.38741617479E+03  0.18052369695E+04  0.21715970680E+04  0.95000000000E+03 0.  0.
   -2000013    1    1    2    0    0 -0.63589465896E+03 -0.38741617479E+03  0.80483353766E+03  0.14507619836E+04  0.95000000000E+03 0.  0.
<mgrwt>
<rscale>  0 0.25117757E+04</rscale>
<asrwt>0</asrwt>
<pdfrwt beam="1">  1        2 0.47941765E+00 0.25117757E+04</pdfrwt>
<pdfrwt beam="2">  1       -2 0.77868351E-01 0.25117757E+04</pdfrwt>
<totfact> 0.19233207E+00</totfact>
</mgrwt>
</event>
<event>
 4    1  0.1321115E-008  0.1961179E+04  0.7816531E-02  0.8624989E-01
          2   -1    0    0  501    0  0.00000000000E+00  0.00000000000E+00  0.85536761375E+03  0.85536761375E+03  0.00000000000E+00 0.  1.
         -2   -1    0    0    0  501 -0.00000000000E+00 -0.00000000000E+00 -0.11241433425E+04  0.11241433425E+04  0.00000000000E+00 0. -1.
    2000013    1    1    2    0    0 -0.21474884633E+03 -0.11149948549E+03 -0.11166956109E+03  0.98667081296E+03  0.95000000000E+03 0.  0.
   -2000013    1    1    2    0    0  0.21474884633E+03  0.11149948549E+03 -0.15710616769E+03  0.99284014332E+03  0.95000000000E+03 0.  0.
<mgrwt>
<rscale>  0 0.19611790E+04</rscale>
<asrwt>0</asrwt>
<pdfrwt beam="1">  1        2 0.13159502E+00 0.19611790E+04</pdfrwt>
<pdfrwt beam="2">  1       -2 0.17294513E+00 0.19611790E+04</pdfrwt>
<totfact> 0.59546799E+00</totfact>
</mgrwt>
</event>
<event>
 4    1  0.1321115E-008  0.2285225E+04  0.7816531E-02  0.8483770E-01
          2   -1    0    0  501    0  0.00000000000E+00  0.00000000000E+00  0.11070592033E+04  0.11070592033E+04  0.00000000000E+00 0.  1.
         -2   -1    0    0    0  501 -0.00000000000E+00 -0.00000000000E+00 -0.11793071524E+04  0.11793071524E+04  0.00000000000E+00 0. -1.
    2000013    1    1    2    0    0 -0.37464741654E+03 -0.49725268867E+03  0.88203608755E+02  0.11392544929E+04  0.95000000000E+03 0.  0.
   -2000013    1    1    2    0    0  0.37464741654E+03  0.49725268867E+03 -0.16045155783E+03  0.11471118627E+04  0.95000000000E+03 0.  0.
<mgrwt>
<rscale>  0 0.22852246E+04</rscale>
<asrwt>0</asrwt>
<pdfrwt beam="1">  1        2 0.17031680E+00 0.22852246E+04</pdfrwt>
<pdfrwt beam="2">  1       -2 0.18143187E+00 0.22852246E+04</pdfrwt>
<totfact> 0.34698943E+00</totfact>
</mgrwt>
</event>
<event>
 4    1  0.1321115E-008  0.2601525E+04  0.7816531E-02  0.8367683E-01
         -2   -1    0    0    0  501 -0.00000000000E+00  0.00000000000E+00  0.12756658326E+04  0.12756658326E+04  0.00000000000E+00 0. -1.
          2   -1    0    0  501    0  0.00000000000E+00 -0.00000000000E+00 -0.13263528548E+04  0.13263528548E+04  0.00000000000E+00 0.  1.
    2000013    1    1    2    0    0 -0.29806055940E+03  0.53380423391E+03 -0.67021075630E+03  0.13135712828E+04  0.95000000000E+03 0.  0.
   -2000013    1    1    2    0    0  0.29806055940E+03 -0.53380423391E+03  0.61952373410E+03  0.12884474046E+04  0.95000000000E+03 0.  0.
<mgrwt>
<rscale>  0 0.26015250E+04</rscale>
<asrwt>0</asrwt>
<pdfrwt beam="2">  1        2 0.20405428E+00 0.26015250E+04</pdfrwt>
<pdfrwt beam="1">  1       -2 0.19625628E+00 0.26015250E+04</pdfrwt>
<totfact> 0.19871316E+00</totfact>
</mgrwt>
</event>
<event>
 4    1  0.1321115E-008  0.2747098E+04  0.7816531E-02  0.8319883E-01
         -2   -1    0    0    0  501 -0.00000000000E+00  0.00000000000E+00  0.83397208157E+03  0.83397208157E+03  0.00000000000E+00 0. -1.
          2   -1    0    0  501    0  0.00000000000E+00 -0.00000000000E+00 -0.22622308460E+04  0.22622308460E+04  0.00000000000E+00 0.  1.
    2000013    1    1    2    0    0 -0.68061676985E+03 -0.71917145953E+03 -0.78259983895E+03  0.15796864510E+04  0.95000000000E+03 0.  0.
   -2000013    1    1    2    0    0  0.68061676985E+03  0.71917145953E+03 -0.64565892549E+03  0.15165164766E+04  0.95000000000E+03 0.  0.
<mgrwt>
<rscale>  0 0.27470984E+04</rscale>
<asrwt>0</asrwt>
<pdfrwt beam="2">  1        2 0.34803551E+00 0.27470984E+04</pdfrwt>
<pdfrwt beam="1">  1       -2 0.12830340E+00 0.27470984E+04</pdfrwt>
<totfact> 0.18685796E+00</totfact>
</mgrwt>
</event>
<event>
 4    1  0.1321115E-008  0.2962108E+04  0.7816531E-02  0.8254635E-01
         -2   -1    0    0    0  501 -0.00000000000E+00  0.00000000000E+00  0.14236628843E+04  0.14236628843E+04  0.00000000000E+00 0. -1.
          2   -1    0    0  501    0  0.00000000000E+00 -0.00000000000E+00 -0.15407585475E+04  0.15407585475E+04  0.00000000000E+00 0.  1.
    2000013    1    1    2    0    0 -0.77383116750E+03 -0.81635361824E+03  0.10211681151E+03  0.14758644074E+04  0.95000000000E+03 0.  0.
   -2000013    1    1    2    0    0  0.77383116750E+03  0.81635361824E+03 -0.21921247467E+03  0.14885570244E+04  0.95000000000E+03 0.  0.
<mgrwt>
<rscale>  0 0.29621079E+04</rscale>
<asrwt>0</asrwt>
<pdfrwt beam="2">  1        2 0.23703978E+00 0.29621079E+04</pdfrwt>
<pdfrwt beam="1">  1       -2 0.21902506E+00 0.29621079E+04</pdfrwt>
<totfact> 0.10364951E+00</totfact>
</mgrwt>
</event>
<event>
 4    1  0.1321115E-008  0.2582809E+04  0.7816531E-02  0.8374064E-01
          2   -1    0    0  501    0  0.00000000000E+00  0.00000000000E+00  0.21631041136E+04  0.21631041136E+04  0.00000000000E+00 0.  1.
         -2   -1    0    0    0  501 -0.00000000000E+00 -0.00000000000E+00 -0.77098691961E+03  0.77098691961E+03  0.00000000000E+00 0. -1.
    2000013    1    1    2    0    0 -0.31900703739E+03  0.78066862542E+03  0.96008205865E+03  0.15923148407E+04  0.95000000000E+03 0.  0.
   -2000013    1    1    2    0    0  0.31900703739E+03 -0.78066862542E+03  0.43203513536E+03  0.13417761925E+04  0.95000000000E+03 0.  0.
<mgrwt>
<rscale>  0 0.25828085E+04</rscale>
<asrwt>0</asrwt>
<pdfrwt beam="1">  1        2 0.33278524E+00 0.25828085E+04</pdfrwt>
<pdfrwt beam="2">  1       -2 0.11861337E+00 0.25828085E+04</pdfrwt>
<totfact> 0.26221767E+00</totfact>
</mgrwt>
</event>
<event>
 4    1  0.1321115E-008  0.2660110E+04  0.7816531E-02  0.8348065E-01
          2   -1    0    0  501    0  0.00000000000E+00  0.00000000000E+00  0.10764749078E+04  0.10764749078E+04  0.00000000000E+00 0.  1.
         -2   -1    0    0    0  501 -0.00000000000E+00 -0.00000000000E+00 -0.16433700227E+04  0.16433700227E+04  0.00000000000E+00 0. -1.
    2000013    1    1    2    0    0  0.57858064820E+03  0.72471154469E+03 -0.20048232092E+03  0.13426300870E+04  0.95000000000E+03 0.  0.
   -2000013    1    1    2    0    0 -0.57858064820E+03 -0.72471154469E+03 -0.36641279399E+03  0.13772148435E+04  0.95000000000E+03 0.  0.
<mgrwt>
<rscale>  0 0.26601102E+04</rscale>
<asrwt>0</asrwt>
<pdfrwt beam="1">  1        2 0.16561152E+00 0.26601102E+04</pdfrwt>
<pdfrwt beam="2">  1       -2 0.25282616E+00 0.26601102E+04</pdfrwt>
<totfact> 0.12243263E+00</totfact>
</mgrwt>
</event>
<event>
 4    1  0.1321115E-008  0.2186177E+04  0.7816531E-02  0.8524204E-01
          2   -1    0    0  501    0  0.00000000000E+00  0.00000000000E+00  0.26124081138E+04  0.26124081138E+04  0.00000000000E+00 0.  1.
         -2   -1    0    0    0  501 -0.00000000000E+00 -0.00000000000E+00 -0.45737201600E+03  0.45737201600E+03  0.00000000000E+00 0. -1.
    2000013    1    1    2    0    0  0.23407629733E+03 -0.47933093693E+03  0.12014720439E+04  0.16219078064E+04  0.95000000000E+03 0.  0.
   -2000013    1    1    2    0    0 -0.23407629733E+03  0.47933093693E+03  0.95356405385E+03  0.14478723234E+04  0.95000000000E+03 0.  0.
<mgrwt>
<rscale>  0 0.21861769E+04</rscale>
<asrwt>0</asrwt>
<pdfrwt beam="1">  1        2 0.40190893E+00 0.21861769E+04</pdfrwt>
<pdfrwt beam="2">  1       -2 0.70364927E-01 0.21861769E+04</pdfrwt>
<totfact> 0.50343812E+00</totfact>
</mgrwt>
</event>
<event>
 4    1  0.1321115E-008  0.2452090E+04  0.7816531E-02  0.8420255E-01
         -2   -1    0    0    0  501 -0.00000000000E+00  0.00000000000E+00  0.76609955252E+03  0.76609955252E+03  0.00000000000E+00 0. -1.
          2   -1    0    0  501    0  0.00000000000E+00 -0.00000000000E+00 -0.19621285151E+04  0.19621285151E+04  0.00000000000E+00 0.  1.
    2000013    1    1    2    0    0 -0.75108737282E+03 -0.72640800404E+02 -0.79478310623E+03  0.14503755077E+04  0.95000000000E+03 0.  0.
   -2000013    1    1    2    0    0  0.75108737282E+03  0.72640800404E+02 -0.40124585630E+03  0.12778525598E+04  0.95000000000E+03 0.  0.
<mgrwt>
<rscale>  0 0.24520895E+04</rscale>
<asrwt>0</asrwt>
<pdfrwt beam="2">  1        2 0.30186592E+00 0.24520895E+04</pdfrwt>
<pdfrwt beam="1">  1       -2 0.11786147E+00 0.24520895E+04</pdfrwt>
<totfact> 0.34864781E+00</totfact>
</mgrwt>
</event>
<event>
 4    1  0.1321115E-008  0.2273299E+04  0.7816531E-02  0.8488524E-01
          2   -1    0    0  501    0  0.00000000000E+00  0.00000000000E+00  0.22484451405E+04  0.22484451405E+04  0.00000000000E+00 0.  1.
         -2   -1    0    0    0  501 -0.00000000000E+00 -0.00000000000E+00 -0.57460687436E+03  0.57460687436E+03  0.00000000000E+00 0. -1.
    2000013    1    1    2    0    0 -0.45827075775E+03 -0.40084152595E+03  0.10071270259E+04  0.15124453255E+04  0.95000000000E+03 0.  0.
   -2000013    1    1    2    0    0  0.45827075775E+03  0.40084152595E+03  0.66671124024E+03  0.13106066894E+04  0.95000000000E+03 0.  0.
<mgrwt>
<rscale>  0 0.22732990E+04</rscale>
<asrwt>0</asrwt>
<pdfrwt beam="1">  1        2 0.34591463E+00 0.22732990E+04</pdfrwt>
<pdfrwt beam="2">  1       -2 0.88401059E-01 0.22732990E+04</pdfrwt>
<totfact> 0.48517442E+00</totfact>
</mgrwt>
</event>
<event>
 4    1  0.1321115E-008  0.2222745E+04  0.7816531E-02  0.8509020E-01
         -2   -1    0    0    0  501 -0.00000000000E+00  0.00000000000E+00  0.16211309519E+04  0.16211309519E+04  0.00000000000E+00 0. -1.
          2   -1    0    0  501    0  0.00000000000E+00 -0.00000000000E+00 -0.76190577678E+03  0.76190577678E+03  0.00000000000E+00 0.  1.
    2000013    1    1    2    0    0 -0.36105754673E+03  0.43589685782E+03  0.31080407192E+03  0.11486808930E+04  0.95000000000E+03 0.  0.
   -2000013    1    1    2    0    0  0.36105754673E+03 -0.43589685782E+03  0.54842110315E+03  0.12343558357E+04  0.95000000000E+03 0.  0.
<mgrwt>
<rscale>  0 0.22227452E+04</rscale>
<asrwt>0</asrwt>
<pdfrwt beam="2">  1        2 0.11721627E+00 0.22227452E+04</pdfrwt>
<pdfrwt beam="1">  1       -2 0.24940476E+00 0.22227452E+04</pdfrwt>
<totfact> 0.21716909E+00</totfact>
</mgrwt>
</event>
<event>
 4    1  0.1321115E-008  0.2863681E+04  0.7816531E-02  0.8283766E-01
          2   -1    0    0  501    0  0.00000000000E+00  0.00000000000E+00  0.88797594866E+03  0.88797594866E+03  0.00000000000E+00 0.  1.
         -2   -1    0    0    0  501 -0.00000000000E+00 -0.00000000000E+00 -0.23088095662E+04  0.23088095662E+04  0.00000000000E+00 0. -1.
    2000013    1    1    2    0    0 -0.19948080196E+03  0.42591961243E+03 -0.17849105321E+04  0.20759589866E+04  0.95000000000E+03 0.  0.
   -2000013    1    1    2    0    0  0.19948080196E+03 -0.42591961243E+03  0.36407691457E+03  0.11208265282E+04  0.95000000000E+03 0.  0.
<mgrwt>
<rscale>  0 0.28636811E+04</rscale>
<asrwt>0</asrwt>
<pdfrwt beam="1">  1        2 0.13661169E+00 0.28636811E+04</pdfrwt>
<pdfrwt beam="2">  1       -2 0.35520147E+00 0.28636811E+04</pdfrwt>
<totfact> 0.37301390E-01</totfact>
</mgrwt>
</event>
<event>
 4    1  0.1321115E-008  0.2208783E+04  0.7816531E-02  0.8514782E-01
         -2   -1    0    0    0  501 -0.00000000000E+00  0.00000000000E+00  0.61146801117E+03  0.61146801117E+03  0.00000000000E+00 0. -1.
          2   -1    0    0  501    0  0.00000000000E+00 -0.00000000000E+00 -0.19946751904E+04  0.19946751904E+04  0.00000000000E+00 0.  1.
    2000013    1    1    2    0    0 -0.23354274844E+03  0.44464726611E+03 -0.99225058200E+03  0.14626396084E+04  0.95000000000E+03 0.  0.
   -2000013    1    1    2    0    0  0.23354274844E+03 -0.44464726611E+03 -0.39095659720E+03  0.11435035931E+04  0.95000000000E+03 0.  0.
<mgrwt>
<rscale>  0 0.22087825E+04</rscale>
<asrwt>0</asrwt>
<pdfrwt beam="2">  1        2 0.30687311E+00 0.22087825E+04</pdfrwt>
<pdfrwt beam="1">  1       -2 0.94072001E-01 0.22087825E+04</pdfrwt>
<totfact> 0.58588995E+00</totfact>
</mgrwt>
</event>
<event>
 4    1  0.1321115E-008  0.2018485E+04  0.7816531E-02  0.8598027E-01
         -2   -1    0    0    0  501 -0.00000000000E+00  0.00000000000E+00  0.18848173250E+04  0.18848173250E+04  0.00000000000E+00 0. -1.
          2   -1    0    0  501    0  0.00000000000E+00 -0.00000000000E+00 -0.54040810126E+03  0.54040810126E+03  0.00000000000E+00 0.  1.
    2000013    1    1    2    0    0  0.16149784922E+03  0.27014843645E+03  0.51550654589E+03  0.11257480766E+04  0.95000000000E+03 0.  0.
   -2000013    1    1    2    0    0 -0.16149784922E+03 -0.27014843645E+03  0.82890267784E+03  0.12994773497E+04  0.95000000000E+03 0.  0.
<mgrwt>
<rscale>  0 0.20184851E+04</rscale>
<asrwt>0</asrwt>
<pdfrwt beam="2">  1        2 0.83139709E-01 0.20184851E+04</pdfrwt>
<pdfrwt beam="1">  1       -2 0.28997189E+00 0.20184851E+04</pdfrwt>
<totfact> 0.19101200E+00</totfact>
</mgrwt>
</event>
<event>
 4    1  0.1321115E-008  0.2899872E+04  0.7816531E-02  0.8272916E-01
          2   -1    0    0  501    0  0.00000000000E+00  0.00000000000E+00  0.30309185448E+04  0.30309185448E+04  0.00000000000E+00 0.  1.
         -2   -1    0    0    0  501 -0.00000000000E+00 -0.00000000000E+00 -0.69362282847E+03  0.69362282847E+03  0.00000000000E+00 0. -1.
    2000013    1    1    2    0    0  0.29014324157E+03 -0.24893015371E+03  0.24870419767E+04  0.26896146780E+04  0.95000000000E+03 0.  0.
   -2000013    1    1    2    0    0 -0.29014324157E+03  0.24893015371E+03 -0.14974626041E+03  0.10349266953E+04  0.95000000000E+03 0.  0.
<mgrwt>
<rscale>  0 0.28998719E+04</rscale>
<asrwt>0</asrwt>
<pdfrwt beam="1">  1        2 0.46629515E+00 0.28998719E+04</pdfrwt>
<pdfrwt beam="2">  1       -2 0.10671121E+00 0.28998719E+04</pdfrwt>
<totfact> 0.10154061E+00</totfact>
</mgrwt>
</event>
<event>
 4    1  0.1321115E-008  0.3051277E+04  0.7816531E-02  0.8229238E-01
          1   -1    0    0  501    0  0.00000000000E+00  0.00000000000E+00  0.15009467952E+04  0.15009467952E+04  0.00000000000E+00 0.  1.
         -1   -1    0    0    0  501 -0.00000000000E+00 -0.00000000000E+00 -0.15507363846E+04  0.15507363846E+04  0.00000000000E+00 0. -1.
    2000013    1    1    2    0    0  0.83324427353E+03 -0.27045846090E+03  0.78615644398E+03  0.15126089226E+04  0.95000000000E+03 0.  0.
   -2000013    1    1    2    0    0 -0.83324427353E+03  0.27045846090E+03 -0.83594603341E+03  0.15390742572E+04  0.95000000000E+03 0.  0.
<mgrwt>
<rscale>  0 0.30512770E+04</rscale>
<asrwt>0</asrwt>
<pdfrwt beam="1">  1        1 0.23091489E+00 0.30512770E+04</pdfrwt>
<pdfrwt beam="2">  1       -1 0.23857483E+00 0.30512770E+04</pdfrwt>
<totfact> 0.45851589E-01</totfact>
</mgrwt>
</event>
<event>
 4    1  0.1321115E-008  0.2671890E+04  0.7816531E-02  0.8344184E-01
         -2   -1    0    0    0  501 -0.00000000000E+00  0.00000000000E+00  0.97700472642E+03  0.97700472642E+03  0.00000000000E+00 0. -1.
          2   -1    0    0  501    0  0.00000000000E+00 -0.00000000000E+00 -0.18267551453E+04  0.18267551453E+04  0.00000000000E+00 0.  1.
    2000013    1    1    2    0    0  0.14131003455E+03 -0.46446997060E+03  0.41889181201E+03  0.11461549763E+04  0.95000000000E+03 0.  0.
   -2000013    1    1    2    0    0 -0.14131003455E+03  0.46446997060E+03 -0.12686422309E+04  0.16576048955E+04  0.95000000000E+03 0.  0.
<mgrwt>
<rscale>  0 0.26718895E+04</rscale>
<asrwt>0</asrwt>
<pdfrwt beam="2">  1        2 0.28103925E+00 0.26718895E+04</pdfrwt>
<pdfrwt beam="1">  1       -2 0.15030842E+00 0.26718895E+04</pdfrwt>
<totfact> 0.21852615E+00</totfact>
</mgrwt>
</event>
<event>
 4    1  0.1321115E-008  0.3473104E+04  0.7816531E-02  0.8120194E-01
          1   -1    0    0  501    0  0.00000000000E+00  0.00000000000E+00  0.22688245478E+04  0.22688245478E+04  0.00000000000E+00 0.  1.
         -1   -1    0    0    0  501 -0.00000000000E+00 -0.00000000000E+00 -0.13291522311E+04  0.13291522311E+04  0.00000000000E+00 0. -1.
    2000013    1    1    2    0    0 -0.98936999107E+03  0.95320403433E+03 -0.22282743946E+02  0.16704632384E+04  0.95000000000E+03 0.  0.
   -2000013    1    1    2    0    0  0.98936999107E+03 -0.95320403433E+03  0.96195506063E+03  0.19275135405E+04  0.95000000000E+03 0.  0.
<mgrwt>
<rscale>  0 0.34731042E+04</rscale>
<asrwt>0</asrwt>
<pdfrwt beam="1">  1        1 0.34904993E+00 0.34731042E+04</pdfrwt>
<pdfrwt beam="2">  1       -1 0.20448496E+00 0.34731042E+04</pdfrwt>
<totfact> 0.22409064E-01</totfact>
</mgrwt>
</event>
<event>
 4    1  0.1321115E-008  0.3192746E+04  0.7816531E-02  0.8190736E-01
         -2   -1    0    0    0  501 -0.00000000000E+00  0.00000000000E+00  0.62846360236E+03  0.62846360236E+03  0.00000000000E+00 0. -1.
          2   -1    0    0  501    0  0.00000000000E+00 -0.00000000000E+00 -0.40549789543E+04  0.40549789543E+04  0.00000000000E+00 0.  1.
    2000013    1    1    2    0    0 -0.53194505341E+03  0.11287121926E+04 -0.21507532201E+04  0.26618031797E+04  0.95000000000E+03 0.  0.
   -2000013    1    1    2    0    0  0.53194505341E+03 -0.11287121926E+04 -0.12757621318E+04  0.20216393769E+04  0.95000000000E+03 0.  0.
<mgrwt>
<rscale>  0 0.31927460E+04</rscale>
<asrwt>0</asrwt>
<pdfrwt beam="2">  1        2 0.62384294E+00 0.31927460E+04</pdfrwt>
<pdfrwt beam="1">  1       -2 0.96686705E-01 0.31927460E+04</pdfrwt>
<totfact> 0.23205433E-01</totfact>
</mgrwt>
</event>
<event>
 4    1  0.1321115E-008  0.2476479E+04  0.7816531E-02  0.8411413E-01
         -2   -1    0    0    0  501 -0.00000000000E+00  0.00000000000E+00  0.76751483804E+03  0.76751483804E+03  0.00000000000E+00 0. -1.
          2   -1    0    0  501    0  0.00000000000E+00 -0.00000000000E+00 -0.19976647698E+04  0.19976647698E+04  0.00000000000E+00 0.  1.
    2000013    1    1    2    0    0  0.22473355008E+03  0.75821668557E+03 -0.69666642539E+03  0.14188875287E+04  0.95000000000E+03 0.  0.
   -2000013    1    1    2    0    0 -0.22473355008E+03 -0.75821668557E+03 -0.53348350638E+03  0.13462920792E+04  0.95000000000E+03 0.  0.
<mgrwt>
<rscale>  0 0.24764792E+04</rscale>
<asrwt>0</asrwt>
<pdfrwt beam="2">  1        2 0.30733304E+00 0.24764792E+04</pdfrwt>
<pdfrwt beam="1">  1       -2 0.11807921E+00 0.24764792E+04</pdfrwt>
<totfact> 0.33095962E+00</totfact>
</mgrwt>
</event>
<event>
 4    1  0.1321115E-008  0.2059447E+04  0.7816531E-02  0.8579321E-01
          2   -1    0    0  501    0  0.00000000000E+00  0.00000000000E+00  0.70882191238E+03  0.70882191238E+03  0.00000000000E+00 0.  1.
         -2   -1    0    0    0  501 -0.00000000000E+00 -0.00000000000E+00 -0.14959055147E+04  0.14959055147E+04  0.00000000000E+00 0. -1.
    2000013    1    1    2    0    0 -0.18258936778E+03 -0.34840030515E+03 -0.33385041352E+03  0.10810539989E+04  0.95000000000E+03 0.  0.
   -2000013    1    1    2    0    0  0.18258936778E+03  0.34840030515E+03 -0.45323318882E+03  0.11236734282E+04  0.95000000000E+03 0.  0.
<mgrwt>
<rscale>  0 0.20594471E+04</rscale>
<asrwt>0</asrwt>
<pdfrwt beam="1">  1        2 0.10904952E+00 0.20594471E+04</pdfrwt>
<pdfrwt beam="2">  1       -2 0.23013931E+00 0.20594471E+04</pdfrwt>
<totfact> 0.31800747E+00</totfact>
</mgrwt>
</event>
<event>
 4    1  0.1321115E-008  0.2335082E+04  0.7816531E-02  0.8464216E-01
          2   -1    0    0  501    0  0.00000000000E+00  0.00000000000E+00  0.48394692831E+04  0.48394692831E+04  0.00000000000E+00 0.  1.
         -2   -1    0    0    0  501 -0.00000000000E+00 -0.00000000000E+00 -0.28167384009E+03  0.28167384009E+03  0.00000000000E+00 0. -1.
    2000013    1    1    2    0    0  0.88889805772E+02 -0.66825308132E+03  0.24514223607E+04  0.27141177514E+04  0.95000000000E+03 0.  0.
   -2000013    1    1    2    0    0 -0.88889805772E+02  0.66825308132E+03  0.21063730824E+04  0.24070253718E+04  0.95000000000E+03 0.  0.
<mgrwt>
<rscale>  0 0.23350819E+04</rscale>
<asrwt>0</asrwt>
<pdfrwt beam="1">  1        2 0.74453367E+00 0.23350819E+04</pdfrwt>
<pdfrwt beam="2">  1       -2 0.43334440E-01 0.23350819E+04</pdfrwt>
<totfact> 0.24790636E-01</totfact>
</mgrwt>
</event>
<event>
 4    1  0.1321115E-008  0.2250730E+04  0.7816531E-02  0.8497605E-01
          2   -1    0    0  501    0  0.00000000000E+00  0.00000000000E+00  0.14185603070E+04  0.14185603070E+04  0.00000000000E+00 0.  1.
         -2   -1    0    0    0  501 -0.00000000000E+00 -0.00000000000E+00 -0.89276872654E+03  0.89276872654E+03  0.00000000000E+00 0. -1.
    2000013    1    1    2    0    0  0.59483317146E+03  0.58125341554E+02  0.34721134389E+03  0.11748450002E+04  0.95000000000E+03 0.  0.
   -2000013    1    1    2    0    0 -0.59483317146E+03 -0.58125341554E+02  0.17858023661E+03  0.11364840334E+04  0.95000000000E+03 0.  0.
<mgrwt>
<rscale>  0 0.22507299E+04</rscale>
<asrwt>0</asrwt>
<pdfrwt beam="1">  1        2 0.21824005E+00 0.22507299E+04</pdfrwt>
<pdfrwt beam="2">  1       -2 0.13734903E+00 0.22507299E+04</pdfrwt>
<totfact> 0.48521472E+00</totfact>
</mgrwt>
</event>
<event>
 4    1  0.1321115E-008  0.2669738E+04  0.7816531E-02  0.8344891E-01
         -2   -1    0    0    0  501 -0.00000000000E+00  0.00000000000E+00  0.74753244680E+03  0.74753244680E+03  0.00000000000E+00 0. -1.
          2   -1    0    0  501    0  0.00000000000E+00 -0.00000000000E+00 -0.23836768363E+04  0.23836768363E+04  0.00000000000E+00 0.  1.
    2000013    1    1    2    0    0  0.16263929848E+03 -0.62319950137E+03 -0.18683431232E+02  0.11479016641E+04  0.95000000000E+03 0.  0.
   -2000013    1    1    2    0    0 -0.16263929848E+03  0.62319950137E+03 -0.16174609583E+04  0.19833076190E+04  0.95000000000E+03 0.  0.
<mgrwt>
<rscale>  0 0.26697384E+04</rscale>
<asrwt>0</asrwt>
<pdfrwt beam="2">  1        2 0.36671952E+00 0.26697384E+04</pdfrwt>
<pdfrwt beam="1">  1       -2 0.11500499E+00 0.26697384E+04</pdfrwt>
<totfact> 0.21058928E+00</totfact>
</mgrwt>
</event>
<event>
 4    1  0.1321115E-008  0.2216596E+04  0.7816531E-02  0.8511552E-01
          1   -1    0    0  501    0  0.00000000000E+00  0.00000000000E+00  0.42495921996E+04  0.42495921996E+04  0.00000000000E+00 0.  1.
         -1   -1    0    0    0  501 -0.00000000000E+00 -0.00000000000E+00 -0.28904516825E+03  0.28904516825E+03  0.00000000000E+00 0. -1.
    2000013    1    1    2    0    0 -0.52131845312E+03  0.21241268337E+03  0.21737881079E+04  0.24381851479E+04  0.95000000000E+03 0.  0.
   -2000013    1    1    2    0    0  0.52131845312E+03 -0.21241268337E+03  0.17867589235E+04  0.21004522199E+04  0.95000000000E+03 0.  0.
<mgrwt>
<rscale>  0 0.22165957E+04</rscale>
<asrwt>0</asrwt>
<pdfrwt beam="1">  1        1 0.65378337E+00 0.22165957E+04</pdfrwt>
<pdfrwt beam="2">  1       -1 0.44468491E-01 0.22165957E+04</pdfrwt>
<totfact> 0.26091324E-01</totfact>
</mgrwt>
</event>
<event>
 4    1  0.1321115E-008  0.2472003E+04  0.7816531E-02  0.8413028E-01
         -1   -1    0    0    0  501 -0.00000000000E+00  0.00000000000E+00  0.93998612759E+03  0.93998612759E+03  0.00000000000E+00 0. -1.
          1   -1    0    0  501    0  0.00000000000E+00 -0.00000000000E+00 -0.16252365135E+04  0.16252365135E+04  0.00000000000E+00 0.  1.
    2000013    1    1    2    0    0 -0.18421525248E+03 -0.76538500280E+03 -0.26601494606E+03  0.12621463518E+04  0.95000000000E+03 0.  0.
   -2000013    1    1    2    0    0  0.18421525248E+03  0.76538500280E+03 -0.41923543985E+03  0.13030762893E+04  0.95000000000E+03 0.  0.
<mgrwt>
<rscale>  0 0.24720031E+04</rscale>
<asrwt>0</asrwt>
<pdfrwt beam="2">  1        1 0.25003639E+00 0.24720031E+04</pdfrwt>
<pdfrwt beam="1">  1       -1 0.14461325E+00 0.24720031E+04</pdfrwt>
<totfact> 0.18374561E+00</totfact>
</mgrwt>
</event>
<event>
 4    1  0.1321115E-008  0.2818585E+04  0.7816531E-02  0.8297522E-01
         -2   -1    0    0    0  501 -0.00000000000E+00  0.00000000000E+00  0.42776992316E+03  0.42776992316E+03  0.00000000000E+00 0. -1.
          2   -1    0    0  501    0  0.00000000000E+00 -0.00000000000E+00 -0.46429288534E+04  0.46429288534E+04  0.00000000000E+00 0.  1.
    2000013    1    1    2    0    0  0.89582211878E+03 -0.13703159384E+03 -0.30290065711E+04  0.33013112144E+04  0.95000000000E+03 0.  0.
   -2000013    1    1    2    0    0 -0.89582211878E+03  0.13703159384E+03 -0.11861523591E+04  0.17693875622E+04  0.95000000000E+03 0.  0.
<mgrwt>
<rscale>  0 0.28185850E+04</rscale>
<asrwt>0</asrwt>
<pdfrwt beam="2">  1        2 0.71429672E+00 0.28185850E+04</pdfrwt>
<pdfrwt beam="1">  1       -2 0.65810760E-01 0.28185850E+04</pdfrwt>
<totfact> 0.16317229E-01</totfact>
</mgrwt>
</event>
<event>
 4    1  0.1321115E-008  0.3272237E+04  0.7816531E-02  0.8169996E-01
         -2   -1    0    0    0  501 -0.00000000000E+00  0.00000000000E+00  0.13123333612E+04  0.13123333612E+04  0.00000000000E+00 0. -1.
          2   -1    0    0  501    0  0.00000000000E+00 -0.00000000000E+00 -0.20397891173E+04  0.20397891173E+04  0.00000000000E+00 0.  1.
    2000013    1    1    2    0    0  0.97714136065E+02  0.13282990300E+04 -0.34182979243E+03  0.16713090596E+04  0.95000000000E+03 0.  0.
   -2000013    1    1    2    0    0 -0.97714136065E+02 -0.13282990300E+04 -0.38562596364E+03  0.16808134190E+04  0.95000000000E+03 0.  0.
<mgrwt>
<rscale>  0 0.32722367E+04</rscale>
<asrwt>0</asrwt>
<pdfrwt beam="2">  1        2 0.31381371E+00 0.32722367E+04</pdfrwt>
<pdfrwt beam="1">  1       -2 0.20189744E+00 0.32722367E+04</pdfrwt>
<totfact> 0.68691415E-01</totfact>
</mgrwt>
</event>
<event>
 4    1  0.1321115E-008  0.2951885E+04  0.7816531E-02  0.8257605E-01
         -2   -1    0    0    0  501 -0.00000000000E+00  0.00000000000E+00  0.18737585982E+04  0.18737585982E+04  0.00000000000E+00 0. -1.
          2   -1    0    0  501    0  0.00000000000E+00 -0.00000000000E+00 -0.11625866429E+04  0.11625866429E+04  0.00000000000E+00 0.  1.
    2000013    1    1    2    0    0  0.80913280884E+03 -0.27769829330E+03  0.11143187243E+04  0.16958827978E+04  0.95000000000E+03 0.  0.
   -2000013    1    1    2    0    0 -0.80913280884E+03  0.27769829330E+03 -0.40314676902E+03  0.13404624433E+04  0.95000000000E+03 0.  0.
<mgrwt>
<rscale>  0 0.29518853E+04</rscale>
<asrwt>0</asrwt>
<pdfrwt beam="2">  1        2 0.17885948E+00 0.29518853E+04</pdfrwt>
<pdfrwt beam="1">  1       -2 0.28827055E+00 0.29518853E+04</pdfrwt>
<totfact> 0.64271485E-01</totfact>
</mgrwt>
</event>
<event>
 4    1  0.1321115E-008  0.3502305E+04  0.7816531E-02  0.8113244E-01
         -2   -1    0    0    0  501 -0.00000000000E+00  0.00000000000E+00  0.10244584834E+04  0.10244584834E+04  0.00000000000E+00 0. -1.
          2   -1    0    0  501    0  0.00000000000E+00 -0.00000000000E+00 -0.29933228570E+04  0.29933228570E+04  0.00000000000E+00 0.  1.
    2000013    1    1    2    0    0  0.22851926835E+03 -0.13967480980E+04 -0.14446061980E+04  0.22343932896E+04  0.95000000000E+03 0.  0.
   -2000013    1    1    2    0    0 -0.22851926835E+03  0.13967480980E+04 -0.52425817556E+03  0.17833880508E+04  0.95000000000E+03 0.  0.
<mgrwt>
<rscale>  0 0.35023050E+04</rscale>
<asrwt>0</asrwt>
<pdfrwt beam="2">  1        2 0.46051119E+00 0.35023050E+04</pdfrwt>
<pdfrwt beam="1">  1       -2 0.15760900E+00 0.35023050E+04</pdfrwt>
<totfact> 0.37874485E-01</totfact>
</mgrwt>
</event>
<event>
 4    1  0.1321115E-008  0.2236994E+04  0.7816531E-02  0.8503186E-01
         -2   -1    0    0    0  501 -0.00000000000E+00  0.00000000000E+00  0.16486679159E+04  0.16486679159E+04  0.00000000000E+00 0.  1.
          2   -1    0    0  501    0  0.00000000000E+00 -0.00000000000E+00 -0.75881606078E+03  0.75881606078E+03  0.00000000000E+00 0. -1.
    2000013    1    1    2    0    0  0.21962254101E+03  0.52382269777E+03  0.61816430925E+03  0.12677741883E+04  0.95000000000E+03 0.  0.
   -2000013    1    1    2    0    0 -0.21962254101E+03 -0.52382269777E+03  0.27168754588E+03  0.11397097884E+04  0.95000000000E+03 0.  0.
<mgrwt>
<rscale>  0 0.22369941E+04</rscale>
<asrwt>0</asrwt>
<pdfrwt beam="2">  1        2 0.11674093E+00 0.22369941E+04</pdfrwt>
<pdfrwt beam="1">  1       -2 0.25364122E+00 0.22369941E+04</pdfrwt>
<totfact> 0.20538319E+00</totfact>
</mgrwt>
</event>
<event>
 4    1  0.1321115E-008  0.2004445E+04  0.7816531E-02  0.8604545E-01
         -2   -1    0    0    0  501 -0.00000000000E+00  0.00000000000E+00  0.54169515670E+03  0.54169515670E+03  0.00000000000E+00 0. -1.
          2   -1    0    0  501    0  0.00000000000E+00 -0.00000000000E+00 -0.18542711639E+04  0.18542711639E+04  0.00000000000E+00 0.  1.
    2000013    1    1    2    0    0  0.25844785736E+03 -0.18485312855E+03 -0.69377887880E+03  0.12185216891E+04  0.95000000000E+03 0.  0.
   -2000013    1    1    2    0    0 -0.25844785736E+03  0.18485312855E+03 -0.61879712835E+03  0.11774446315E+04  0.95000000000E+03 0.  0.
<mgrwt>
<rscale>  0 0.20044448E+04</rscale>
<asrwt>0</asrwt>
<pdfrwt beam="2">  1        2 0.28527249E+00 0.20044448E+04</pdfrwt>
<pdfrwt beam="1">  1       -2 0.83337716E-01 0.20044448E+04</pdfrwt>
<totfact> 0.94220158E+00</totfact>
</mgrwt>
</event>
<event>
 4    1  0.1321115E-008  0.3149323E+04  0.7816531E-02  0.8202330E-01
         -1   -1    0    0    0  501 -0.00000000000E+00  0.00000000000E+00  0.11447041753E+04  0.11447041753E+04  0.00000000000E+00 0. -1.
          1   -1    0    0  501    0  0.00000000000E+00 -0.00000000000E+00 -0.21661135569E+04  0.21661135569E+04  0.00000000000E+00 0.  1.
    2000013    1    1    2    0    0  0.15338552696E+03  0.11836169135E+04 -0.10005521623E+03  0.15287207607E+04  0.95000000000E+03 0.  0.
   -2000013    1    1    2    0    0 -0.15338552696E+03 -0.11836169135E+04 -0.92135416540E+03  0.17820969715E+04  0.95000000000E+03 0.  0.
<mgrwt>
<rscale>  0 0.31493232E+04</rscale>
<asrwt>0</asrwt>
<pdfrwt beam="2">  1        1 0.33324824E+00 0.31493232E+04</pdfrwt>
<pdfrwt beam="1">  1       -1 0.17610834E+00 0.31493232E+04</pdfrwt>
<totfact> 0.42862566E-01</totfact>
</mgrwt>
</event>
<event>
 4    1  0.1321115E-008  0.3129346E+04  0.7816531E-02  0.8207730E-01
         -2   -1    0    0    0  501 -0.00000000000E+00  0.00000000000E+00  0.14212761357E+04  0.14212761357E+04  0.00000000000E+00 0. -1.
          2   -1    0    0  501    0  0.00000000000E+00 -0.00000000000E+00 -0.17225379568E+04  0.17225379568E+04  0.00000000000E+00 0.  1.
    2000013    1    1    2    0    0 -0.93223316789E+03 -0.68398194776E+03  0.30844136560E+03  0.15279155933E+04  0.95000000000E+03 0.  0.
   -2000013    1    1    2    0    0  0.93223316789E+03  0.68398194776E+03 -0.60970318669E+03  0.16158984993E+04  0.95000000000E+03 0.  0.
<mgrwt>
<rscale>  0 0.31293463E+04</rscale>
<asrwt>0</asrwt>
<pdfrwt beam="2">  1        2 0.26500584E+00 0.31293463E+04</pdfrwt>
<pdfrwt beam="1">  1       -2 0.21865787E+00 0.31293463E+04</pdfrwt>
<totfact> 0.81344189E-01</totfact>
</mgrwt>
</event>
<event>
 4    1  0.1321115E-008  0.2577318E+04  0.7816531E-02  0.8375947E-01
          2   -1    0    0  501    0  0.00000000000E+00  0.00000000000E+00  0.32495009132E+04  0.32495009132E+04  0.00000000000E+00 0.  1.
         -2   -1    0    0    0  501 -0.00000000000E+00 -0.00000000000E+00 -0.51104537019E+03  0.51104537019E+03  0.00000000000E+00 0. -1.
    2000013    1    1    2    0    0  0.86879419075E+03 -0.57291919275E+02  0.13582421297E+04  0.18722733221E+04  0.95000000000E+03 0.  0.
   -2000013    1    1    2    0    0 -0.86879419075E+03  0.57291919275E+02  0.13802134134E+04  0.18882729613E+04  0.95000000000E+03 0.  0.
<mgrwt>
<rscale>  0 0.25773183E+04</rscale>
<asrwt>0</asrwt>
<pdfrwt beam="1">  1        2 0.49992320E+00 0.25773183E+04</pdfrwt>
<pdfrwt beam="2">  1       -2 0.78622367E-01 0.25773183E+04</pdfrwt>
<totfact> 0.15331356E+00</totfact>
</mgrwt>
</event>
<event>
 4    1  0.1321115E-008  0.2147369E+04  0.7816531E-02  0.8540659E-01
          2   -1    0    0  501    0  0.00000000000E+00  0.00000000000E+00  0.18493814759E+04  0.18493814759E+04  0.00000000000E+00 0.  1.
         -2   -1    0    0    0  501 -0.00000000000E+00 -0.00000000000E+00 -0.62334292783E+03  0.62334292783E+03  0.00000000000E+00 0. -1.
    2000013    1    1    2    0    0 -0.41427969655E+03 -0.28026116453E+03  0.62588722552E+03  0.12427424538E+04  0.95000000000E+03 0.  0.
   -2000013    1    1    2    0    0  0.41427969655E+03  0.28026116453E+03  0.60015132257E+03  0.12299819500E+04  0.95000000000E+03 0.  0.
<mgrwt>
<rscale>  0 0.21473694E+04</rscale>
<asrwt>0</asrwt>
<pdfrwt beam="1">  1        2 0.28452022E+00 0.21473694E+04</pdfrwt>
<pdfrwt beam="2">  1       -2 0.95898913E-01 0.21473694E+04</pdfrwt>
<totfact> 0.67796347E+00</totfact>
</mgrwt>
</event>
<event>
 4    1  0.1321115E-008  0.2540656E+04  0.7816531E-02  0.8388643E-01
         -2   -1    0    0    0  501 -0.00000000000E+00  0.00000000000E+00  0.45043513744E+03  0.45043513744E+03  0.00000000000E+00 0. -1.
          2   -1    0    0  501    0  0.00000000000E+00 -0.00000000000E+00 -0.35826086834E+04  0.35826086834E+04  0.00000000000E+00 0.  1.
    2000013    1    1    2    0    0  0.81333230792E+03  0.16547241669E+03 -0.13288124275E+04  0.18322480813E+04  0.95000000000E+03 0.  0.
   -2000013    1    1    2    0    0 -0.81333230792E+03 -0.16547241669E+03 -0.18033611184E+04  0.22007957396E+04  0.95000000000E+03 0.  0.
<mgrwt>
<rscale>  0 0.25406557E+04</rscale>
<asrwt>0</asrwt>
<pdfrwt beam="2">  1        2 0.55117056E+00 0.25406557E+04</pdfrwt>
<pdfrwt beam="1">  1       -2 0.69297714E-01 0.25406557E+04</pdfrwt>
<totfact> 0.12017805E+00</totfact>
</mgrwt>
</event>
<event>
 4    1  0.1321115E-008  0.2608224E+04  0.7816531E-02  0.8365413E-01
          1   -1    0    0  501    0  0.00000000000E+00  0.00000000000E+00  0.14688711203E+04  0.14688711203E+04  0.00000000000E+00 0.  1.
         -1   -1    0    0    0  501 -0.00000000000E+00 -0.00000000000E+00 -0.11578337330E+04  0.11578337330E+04  0.00000000000E+00 0. -1.
    2000013    1    1    2    0    0  0.58183955324E+03  0.64052986291E+03  0.37933822901E+03  0.13398556874E+04  0.95000000000E+03 0.  0.
   -2000013    1    1    2    0    0 -0.58183955324E+03 -0.64052986291E+03 -0.68300841693E+02  0.12868491660E+04  0.95000000000E+03 0.  0.
<mgrwt>
<rscale>  0 0.26082243E+04</rscale>
<asrwt>0</asrwt>
<pdfrwt beam="1">  1        1 0.22598017E+00 0.26082243E+04</pdfrwt>
<pdfrwt beam="2">  1       -1 0.17812827E+00 0.26082243E+04</pdfrwt>
<totfact> 0.12992024E+00</totfact>
</mgrwt>
</event>
<event>
 4    1  0.1321115E-008  0.2651630E+04  0.7816531E-02  0.8350872E-01
          2   -1    0    0  501    0  0.00000000000E+00  0.00000000000E+00  0.14406187971E+04  0.14406187971E+04  0.00000000000E+00 0.  1.
         -2   -1    0    0    0  501 -0.00000000000E+00 -0.00000000000E+00 -0.12201598182E+04  0.12201598182E+04  0.00000000000E+00 0. -1.
    2000013    1    1    2    0    0 -0.67376362363E+02  0.92022335926E+03  0.17317201726E+03  0.13356044148E+04  0.95000000000E+03 0.  0.
   -2000013    1    1    2    0    0  0.67376362363E+02 -0.92022335926E+03  0.47286961690E+02  0.13251742006E+04  0.95000000000E+03 0.  0.
<mgrwt>
<rscale>  0 0.26516298E+04</rscale>
<asrwt>0</asrwt>
<pdfrwt beam="1">  1        2 0.22163366E+00 0.26516298E+04</pdfrwt>
<pdfrwt beam="2">  1       -2 0.18771690E+00 0.26516298E+04</pdfrwt>
<totfact> 0.19405502E+00</totfact>
</mgrwt>
</event>
<event>
 4    1  0.1321115E-008  0.3577948E+04  0.7816531E-02  0.8095562E-01
          2   -1    0    0  501    0  0.00000000000E+00  0.00000000000E+00  0.16800679918E+04  0.16800679918E+04  0.00000000000E+00 0.  1.
         -2   -1    0    0    0  501 -0.00000000000E+00 -0.00000000000E+00 -0.19049397575E+04  0.19049397575E+04  0.00000000000E+00 0. -1.
    2000013    1    1    2    0    0 -0.13308043218E+04  0.33172955531E+03  0.53447231966E+03  0.17519261689E+04  0.95000000000E+03 0.  0.
   -2000013    1    1    2    0    0  0.13308043218E+04 -0.33172955531E+03 -0.75934408534E+03  0.18330815805E+04  0.95000000000E+03 0.  0.
<mgrwt>
<rscale>  0 0.35779482E+04</rscale>
<asrwt>0</asrwt>
<pdfrwt beam="1">  1        2 0.25847200E+00 0.35779482E+04</pdfrwt>
<pdfrwt beam="2">  1       -2 0.29306765E+00 0.35779482E+04</pdfrwt>
<totfact> 0.28786000E-01</totfact>
</mgrwt>
</event>
<event>
 4    1  0.1321115E-008  0.2452528E+04  0.7816531E-02  0.8420096E-01
         -2   -1    0    0    0  501 -0.00000000000E+00  0.00000000000E+00  0.10577569018E+04  0.10577569018E+04  0.00000000000E+00 0. -1.
          2   -1    0    0  501    0  0.00000000000E+00 -0.00000000000E+00 -0.14216151668E+04  0.14216151668E+04  0.00000000000E+00 0.  1.
    2000013    1    1    2    0    0 -0.19461776464E+03 -0.56893241098E+03 -0.67684152598E+03  0.13123165067E+04  0.95000000000E+03 0.  0.
   -2000013    1    1    2    0    0  0.19461776464E+03  0.56893241098E+03  0.31298326098E+03  0.11670555618E+04  0.95000000000E+03 0.  0.
<mgrwt>
<rscale>  0 0.24525279E+04</rscale>
<asrwt>0</asrwt>
<pdfrwt beam="2">  1        2 0.21871003E+00 0.24525279E+04</pdfrwt>
<pdfrwt beam="1">  1       -2 0.16273183E+00 0.24525279E+04</pdfrwt>
<totfact> 0.30289766E+00</totfact>
</mgrwt>
</event>
<event>
 4    1  0.1321115E-008  0.2188912E+04  0.7816531E-02  0.8523057E-01
         -2   -1    0    0    0  501 -0.00000000000E+00  0.00000000000E+00  0.86373406264E+03  0.86373406264E+03  0.00000000000E+00 0. -1.
          2   -1    0    0  501    0  0.00000000000E+00 -0.00000000000E+00 -0.13868084333E+04  0.13868084333E+04  0.00000000000E+00 0.  1.
    2000013    1    1    2    0    0  0.39504796938E+03 -0.16347717622E+03  0.83387270703E+02  0.10451034026E+04  0.95000000000E+03 0.  0.
   -2000013    1    1    2    0    0 -0.39504796938E+03  0.16347717622E+03 -0.60646164135E+03  0.12054390933E+04  0.95000000000E+03 0.  0.
<mgrwt>
<rscale>  0 0.21889118E+04</rscale>
<asrwt>0</asrwt>
<pdfrwt beam="2">  1        2 0.21335514E+00 0.21889118E+04</pdfrwt>
<pdfrwt beam="1">  1       -2 0.13288216E+00 0.21889118E+04</pdfrwt>
<totfact> 0.55346006E+00</totfact>
</mgrwt>
</event>
<event>
 4    1  0.1321115E-008  0.2569580E+04  0.7816531E-02  0.8378608E-01
         -2   -1    0    0    0  501 -0.00000000000E+00  0.00000000000E+00  0.11385941030E+04  0.11385941030E+04  0.00000000000E+00 0. -1.
          2   -1    0    0  501    0  0.00000000000E+00 -0.00000000000E+00 -0.14497572619E+04  0.14497572619E+04  0.00000000000E+00 0.  1.
    2000013    1    1    2    0    0  0.69111445659E+03 -0.42775017229E+03  0.14251215711E+03  0.12583398257E+04  0.95000000000E+03 0.  0.
   -2000013    1    1    2    0    0 -0.69111445659E+03  0.42775017229E+03 -0.45367531605E+03  0.13300115392E+04  0.95000000000E+03 0.  0.
<mgrwt>
<rscale>  0 0.25695798E+04</rscale>
<asrwt>0</asrwt>
<pdfrwt beam="2">  1        2 0.22303958E+00 0.25695798E+04</pdfrwt>
<pdfrwt beam="1">  1       -2 0.17516832E+00 0.25695798E+04</pdfrwt>
<totfact> 0.23555379E+00</totfact>
</mgrwt>
</event>
<event>
 4    1  0.1321115E-008  0.2316252E+04  0.7816531E-02  0.8471541E-01
         -2   -1    0    0    0  501 -0.00000000000E+00  0.00000000000E+00  0.76989437075E+03  0.76989437075E+03  0.00000000000E+00 0. -1.
          2   -1    0    0  501    0  0.00000000000E+00 -0.00000000000E+00 -0.17421295704E+04  0.17421295704E+04  0.00000000000E+00 0.  1.
    2000013    1    1    2    0    0  0.59382130218E+03  0.22166671751E+03 -0.27751743736E+03  0.11752769038E+04  0.95000000000E+03 0.  0.
   -2000013    1    1    2    0    0 -0.59382130218E+03 -0.22166671751E+03 -0.69471776226E+03  0.13367470373E+04  0.95000000000E+03 0.  0.
<mgrwt>
<rscale>  0 0.23162519E+04</rscale>
<asrwt>0</asrwt>
<pdfrwt beam="2">  1        2 0.26801993E+00 0.23162519E+04</pdfrwt>
<pdfrwt beam="1">  1       -2 0.11844529E+00 0.23162519E+04</pdfrwt>
<totfact> 0.46147580E+00</totfact>
</mgrwt>
</event>
<event>
 4    1  0.1321115E-008  0.2017635E+04  0.7816531E-02  0.8598420E-01
          1   -1    0    0  501    0  0.00000000000E+00  0.00000000000E+00  0.74593190227E+03  0.74593190227E+03  0.00000000000E+00 0.  1.
         -1   -1    0    0    0  501 -0.00000000000E+00 -0.00000000000E+00 -0.13643504482E+04  0.13643504482E+04  0.00000000000E+00 0. -1.
    2000013    1    1    2    0    0  0.98731577342E+02  0.32099663572E+03 -0.25769566241E+03  0.10400451043E+04  0.95000000000E+03 0.  0.
   -2000013    1    1    2    0    0 -0.98731577342E+02 -0.32099663572E+03 -0.36072288355E+03  0.10702372462E+04  0.95000000000E+03 0.  0.
<mgrwt>
<rscale>  0 0.20176348E+04</rscale>
<asrwt>0</asrwt>
<pdfrwt beam="1">  1        1 0.11475875E+00 0.20176348E+04</pdfrwt>
<pdfrwt beam="2">  1       -1 0.20990007E+00 0.20176348E+04</pdfrwt>
<totfact> 0.29456055E+00</totfact>
</mgrwt>
</event>
<event>
 4    1  0.1321115E-008  0.2208064E+04  0.7816531E-02  0.8515079E-01
         -2   -1    0    0    0  501 -0.00000000000E+00  0.00000000000E+00  0.99103360400E+03  0.99103360400E+03  0.00000000000E+00 0.  1.
          2   -1    0    0  501    0  0.00000000000E+00 -0.00000000000E+00 -0.12299146542E+04  0.12299146542E+04  0.00000000000E+00 0. -1.
    2000013    1    1    2    0    0 -0.45811093494E+03  0.24310642071E+03 -0.33847341642E+03  0.11340328982E+04  0.95000000000E+03 0.  0.
   -2000013    1    1    2    0    0  0.45811093494E+03 -0.24310642071E+03  0.99592366207E+02  0.10869153600E+04  0.95000000000E+03 0.  0.
<mgrwt>
<rscale>  0 0.22080641E+04</rscale>
<asrwt>0</asrwt>
<pdfrwt beam="2">  1        2 0.18921764E+00 0.22080641E+04</pdfrwt>
<pdfrwt beam="1">  1       -2 0.15246671E+00 0.22080641E+04</pdfrwt>
<totfact> 0.47643900E+00</totfact>
</mgrwt>
</event>
<event>
 4    1  0.1321115E-008  0.2816581E+04  0.7816531E-02  0.8298139E-01
         -2   -1    0    0    0  501 -0.00000000000E+00  0.00000000000E+00  0.13856667558E+04  0.13856667558E+04  0.00000000000E+00 0. -1.
          2   -1    0    0  501    0  0.00000000000E+00 -0.00000000000E+00 -0.14312833973E+04  0.14312833973E+04  0.00000000000E+00 0.  1.
    2000013    1    1    2    0    0  0.22213713839E+03  0.45528657114E+03  0.88513838937E+03  0.13937721257E+04  0.95000000000E+03 0.  0.
   -2000013    1    1    2    0    0 -0.22213713839E+03 -0.45528657114E+03 -0.93075503087E+03  0.14231780274E+04  0.95000000000E+03 0.  0.
<mgrwt>
<rscale>  0 0.28165808E+04</rscale>
<asrwt>0</asrwt>
<pdfrwt beam="2">  1        2 0.22019745E+00 0.28165808E+04</pdfrwt>
<pdfrwt beam="1">  1       -2 0.21317950E+00 0.28165808E+04</pdfrwt>
<totfact> 0.13183760E+00</totfact>
</mgrwt>
</event>
<event>
 4    1  0.1321115E-008  0.2244451E+04  0.7816531E-02  0.8500151E-01
          1   -1    0    0  501    0  0.00000000000E+00  0.00000000000E+00  0.28577814126E+04  0.28577814126E+04  0.00000000000E+00 0.  1.
         -1   -1    0    0    0  501 -0.00000000000E+00 -0.00000000000E+00 -0.44068815907E+03  0.44068815907E+03  0.00000000000E+00 0. -1.
    2000013    1    1    2    0    0 -0.59553797722E+03 -0.46215891510E+02  0.12224139276E+04  0.16593966378E+04  0.95000000000E+03 0.  0.
   -2000013    1    1    2    0    0  0.59553797722E+03  0.46215891510E+02  0.11946793259E+04  0.16390729339E+04  0.95000000000E+03 0.  0.
<mgrwt>
<rscale>  0 0.22444513E+04</rscale>
<asrwt>0</asrwt>
<pdfrwt beam="1">  1        1 0.43965867E+00 0.22444513E+04</pdfrwt>
<pdfrwt beam="2">  1       -1 0.67798180E-01 0.22444513E+04</pdfrwt>
<totfact> 0.15165672E+00</totfact>
</mgrwt>
</event>
<event>
 4    1  0.1321115E-008  0.2202940E+04  0.7816531E-02  0.8517205E-01
         -2   -1    0    0    0  501 -0.00000000000E+00  0.00000000000E+00  0.57714921497E+03  0.57714921497E+03  0.00000000000E+00 0. -1.
          2   -1    0    0  501    0  0.00000000000E+00 -0.00000000000E+00 -0.21021187079E+04  0.21021187079E+04  0.00000000000E+00 0.  1.
    2000013    1    1    2    0    0 -0.54344435796E+03 -0.59574134758E+02 -0.89490975583E+03  0.14150068264E+04  0.95000000000E+03 0.  0.
   -2000013    1    1    2    0    0  0.54344435796E+03  0.59574134758E+02 -0.63005973713E+03  0.12642610965E+04  0.95000000000E+03 0.  0.
<mgrwt>
<rscale>  0 0.22029400E+04</rscale>
<asrwt>0</asrwt>
<pdfrwt beam="2">  1        2 0.32340288E+00 0.22029400E+04</pdfrwt>
<pdfrwt beam="1">  1       -2 0.88792186E-01 0.22029400E+04</pdfrwt>
<totfact> 0.58374818E+00</totfact>
</mgrwt>
</event>
<event>
 4    1  0.1321115E-008  0.2159659E+04  0.7816531E-02  0.8535409E-01
          2   -1    0    0  501    0  0.00000000000E+00  0.00000000000E+00  0.60343888389E+03  0.60343888389E+03  0.00000000000E+00 0.  1.
         -2   -1    0    0    0  501 -0.00000000000E+00 -0.00000000000E+00 -0.19323105052E+04  0.19323105052E+04  0.00000000000E+00 0. -1.
    2000013    1    1    2    0    0 -0.37809021633E+03  0.16335764884E+03 -0.30465443799E+03  0.10793295418E+04  0.95000000000E+03 0.  0.
   -2000013    1    1    2    0    0  0.37809021633E+03 -0.16335764884E+03 -0.10242171833E+04  0.14564198474E+04  0.95000000000E+03 0.  0.
<mgrwt>
<rscale>  0 0.21596586E+04</rscale>
<asrwt>0</asrwt>
<pdfrwt beam="1">  1        2 0.92836751E-01 0.21596586E+04</pdfrwt>
<pdfrwt beam="2">  1       -2 0.29727854E+00 0.21596586E+04</pdfrwt>
<totfact> 0.14926378E+00</totfact>
</mgrwt>
</event>
<event>
 4    1  0.1321115E-008  0.2569491E+04  0.7816531E-02  0.8378639E-01
          2   -1    0    0  501    0  0.00000000000E+00  0.00000000000E+00  0.70794897698E+03  0.70794897698E+03  0.00000000000E+00 0.  1.
         -2   -1    0    0    0  501 -0.00000000000E+00 -0.00000000000E+00 -0.23314827815E+04  0.23314827815E+04  0.00000000000E+00 0. -1.
    2000013    1    1    2    0    0 -0.64187934799E+03  0.40112797773E+03 -0.13068298534E+04  0.17841572289E+04  0.95000000000E+03 0.  0.
   -2000013    1    1    2    0    0  0.64187934799E+03 -0.40112797773E+03 -0.31670395115E+03  0.12552745296E+04  0.95000000000E+03 0.  0.
<mgrwt>
<rscale>  0 0.25694909E+04</rscale>
<asrwt>0</asrwt>
<pdfrwt beam="1">  1        2 0.10891523E+00 0.25694909E+04</pdfrwt>
<pdfrwt beam="2">  1       -2 0.35868965E+00 0.25694909E+04</pdfrwt>
<totfact> 0.49113896E-01</totfact>
</mgrwt>
</event>
<event>
 4    1  0.1321115E-008  0.2064338E+04  0.7816531E-02  0.8577117E-01
         -2   -1    0    0    0  501 -0.00000000000E+00  0.00000000000E+00  0.15012716327E+04  0.15012716327E+04  0.00000000000E+00 0. -1.
          2   -1    0    0  501    0  0.00000000000E+00 -0.00000000000E+00 -0.70964700273E+03  0.70964700273E+03  0.00000000000E+00 0.  1.
    2000013    1    1    2    0    0 -0.30079219405E+02 -0.37074415087E+03  0.22811543638E+03  0.10454150550E+04  0.95000000000E+03 0.  0.
   -2000013    1    1    2    0    0  0.30079219405E+02  0.37074415087E+03  0.56350919363E+03  0.11655035805E+04  0.95000000000E+03 0.  0.
<mgrwt>
<rscale>  0 0.20643381E+04</rscale>
<asrwt>0</asrwt>
<pdfrwt beam="2">  1        2 0.10917646E+00 0.20643381E+04</pdfrwt>
<pdfrwt beam="1">  1       -2 0.23096487E+00 0.20643381E+04</pdfrwt>
<totfact> 0.31365874E+00</totfact>
</mgrwt>
</event>
<event>
 4    1  0.1321115E-008  0.2442283E+04  0.7816531E-02  0.8423841E-01
          1   -1    0    0  501    0  0.00000000000E+00  0.00000000000E+00  0.21501606677E+04  0.21501606677E+04  0.00000000000E+00 0. -1.
         -1   -1    0    0    0  501 -0.00000000000E+00 -0.00000000000E+00 -0.69352314142E+03  0.69352314142E+03  0.00000000000E+00 0.  1.
    2000013    1    1    2    0    0  0.54422048151E+03  0.27363106809E+03  0.12715078405E+04  0.17000829634E+04  0.95000000000E+03 0.  0.
   -2000013    1    1    2    0    0 -0.54422048151E+03 -0.27363106809E+03  0.18512968585E+03  0.11436008458E+04  0.95000000000E+03 0.  0.
<mgrwt>
<rscale>  0 0.24422827E+04</rscale>
<asrwt>0</asrwt>
<pdfrwt beam="1">  1        1 0.33079394E+00 0.24422827E+04</pdfrwt>
<pdfrwt beam="2">  1       -1 0.10669587E+00 0.24422827E+04</pdfrwt>
<totfact> 0.17244496E+00</totfact>
</mgrwt>
</event>
<event>
 4    1  0.1321115E-008  0.1995529E+04  0.7816531E-02  0.8608714E-01
         -2   -1    0    0    0  501 -0.00000000000E+00  0.00000000000E+00  0.62053044077E+03  0.62053044077E+03  0.00000000000E+00 0. -1.
          2   -1    0    0  501    0  0.00000000000E+00 -0.00000000000E+00 -0.16043279867E+04  0.16043279867E+04  0.00000000000E+00 0.  1.
    2000013    1    1    2    0    0  0.75182824383E+02 -0.24857097135E+03 -0.67026657614E+03  0.11913006623E+04  0.95000000000E+03 0.  0.
   -2000013    1    1    2    0    0 -0.75182824383E+02  0.24857097135E+03 -0.31353096975E+03  0.10335577651E+04  0.95000000000E+03 0.  0.
<mgrwt>
<rscale>  0 0.19955294E+04</rscale>
<asrwt>0</asrwt>
<pdfrwt beam="2">  1        2 0.24681969E+00 0.19955294E+04</pdfrwt>
<pdfrwt beam="1">  1       -2 0.95466221E-01 0.19955294E+04</pdfrwt>
<totfact> 0.94971420E+00</totfact>
</mgrwt>
</event>
<event>
 4    1  0.1321115E-008  0.2684617E+04  0.7816531E-02  0.8340014E-01
         -2   -1    0    0    0  501 -0.00000000000E+00  0.00000000000E+00  0.11218556760E+04  0.11218556760E+04  0.00000000000E+00 0. -1.
          2   -1    0    0  501    0  0.00000000000E+00 -0.00000000000E+00 -0.16060817987E+04  0.16060817987E+04  0.00000000000E+00 0.  1.
    2000013    1    1    2    0    0 -0.16830307478E+03  0.92084441710E+03 -0.39625671718E+03  0.13913302093E+04  0.95000000000E+03 0.  0.
   -2000013    1    1    2    0    0  0.16830307478E+03 -0.92084441710E+03 -0.87969405502E+02  0.13366072654E+04  0.95000000000E+03 0.  0.
<mgrwt>
<rscale>  0 0.26846169E+04</rscale>
<asrwt>0</asrwt>
<pdfrwt beam="2">  1        2 0.24708951E+00 0.26846169E+04</pdfrwt>
<pdfrwt beam="1">  1       -2 0.17259318E+00 0.26846169E+04</pdfrwt>
<totfact> 0.19859932E+00</totfact>
</mgrwt>
</event>
<event>
 4    1  0.1321115E-008  0.2267691E+04  0.7816531E-02  0.8490770E-01
         -2   -1    0    0    0  501 -0.00000000000E+00  0.00000000000E+00  0.14095208677E+04  0.14095208677E+04  0.00000000000E+00 0. -1.
          2   -1    0    0  501    0  0.00000000000E+00 -0.00000000000E+00 -0.91208696261E+03  0.91208696261E+03  0.00000000000E+00 0.  1.
    2000013    1    1    2    0    0  0.13064260910E+03 -0.59909658312E+03  0.16232213990E+03  0.11422927314E+04  0.95000000000E+03 0.  0.
   -2000013    1    1    2    0    0 -0.13064260910E+03  0.59909658312E+03  0.33511176519E+03  0.11793150989E+04  0.95000000000E+03 0.  0.
<mgrwt>
<rscale>  0 0.22676910E+04</rscale>
<asrwt>0</asrwt>
<pdfrwt beam="2">  1        2 0.14032107E+00 0.22676910E+04</pdfrwt>
<pdfrwt beam="1">  1       -2 0.21684937E+00 0.22676910E+04</pdfrwt>
<totfact> 0.27064286E+00</totfact>
</mgrwt>
</event>
<event>
 4    1  0.1321115E-008  0.2564153E+04  0.7816531E-02  0.8380481E-01
          2   -1    0    0  501    0  0.00000000000E+00  0.00000000000E+00  0.30397000774E+04  0.30397000774E+04  0.00000000000E+00 0.  1.
         -2   -1    0    0    0  501 -0.00000000000E+00 -0.00000000000E+00 -0.54075071537E+03  0.54075071537E+03  0.00000000000E+00 0. -1.
    2000013    1    1    2    0    0  0.99118528748E+02 -0.74158965642E+03  0.65468878594E+03  0.13750989447E+04  0.95000000000E+03 0.  0.
   -2000013    1    1    2    0    0 -0.99118528748E+02  0.74158965642E+03  0.18442605761E+04  0.22053518481E+04  0.95000000000E+03 0.  0.
<mgrwt>
<rscale>  0 0.25641529E+04</rscale>
<asrwt>0</asrwt>
<pdfrwt beam="1">  1        2 0.46764616E+00 0.25641529E+04</pdfrwt>
<pdfrwt beam="2">  1       -2 0.83192419E-01 0.25641529E+04</pdfrwt>
<totfact> 0.18452340E+00</totfact>
</mgrwt>
</event>
<event>
 4    1  0.1321115E-008  0.2162626E+04  0.7816531E-02  0.8534147E-01
          2   -1    0    0  501    0  0.00000000000E+00  0.00000000000E+00  0.15783227443E+04  0.15783227443E+04  0.00000000000E+00 0.  1.
         -2   -1    0    0    0  501 -0.00000000000E+00 -0.00000000000E+00 -0.74081001621E+03  0.74081001621E+03  0.00000000000E+00 0. -1.
    2000013    1    1    2    0    0 -0.27028453904E+03 -0.26918142235E+03  0.45385648862E+02  0.10247303193E+04  0.95000000000E+03 0.  0.
   -2000013    1    1    2    0    0  0.27028453904E+03  0.26918142235E+03  0.79212707925E+03  0.12944024412E+04  0.95000000000E+03 0.  0.
<mgrwt>
<rscale>  0 0.21626255E+04</rscale>
<asrwt>0</asrwt>
<pdfrwt beam="1">  1        2 0.24281888E+00 0.21626255E+04</pdfrwt>
<pdfrwt beam="2">  1       -2 0.11397077E+00 0.21626255E+04</pdfrwt>
<totfact> 0.63384004E+00</totfact>
</mgrwt>
</event>
<event>
 4    1  0.1321115E-008  0.2186120E+04  0.7816531E-02  0.8524227E-01
          2   -1    0    0  501    0  0.00000000000E+00  0.00000000000E+00  0.11018239359E+04  0.11018239359E+04  0.00000000000E+00 0.  1.
         -2   -1    0    0    0  501 -0.00000000000E+00 -0.00000000000E+00 -0.10843659328E+04  0.10843659328E+04  0.00000000000E+00 0. -1.
    2000013    1    1    2    0    0 -0.88316776654E+02  0.37650140413E+03 -0.36907555361E+03  0.10900779443E+04  0.95000000000E+03 0.  0.
   -2000013    1    1    2    0    0  0.88316776654E+02 -0.37650140413E+03  0.38653355677E+03  0.10961119244E+04  0.95000000000E+03 0.  0.
<mgrwt>
<rscale>  0 0.21861202E+04</rscale>
<asrwt>0</asrwt>
<pdfrwt beam="1">  1        2 0.16951138E+00 0.21861202E+04</pdfrwt>
<pdfrwt beam="2">  1       -2 0.16682553E+00 0.21861202E+04</pdfrwt>
<totfact> 0.44655921E+00</totfact>
</mgrwt>
</event>
<event>
 4    1  0.1321115E-008  0.2051076E+04  0.7816531E-02  0.8583106E-01
         -2   -1    0    0    0  501 -0.00000000000E+00  0.00000000000E+00  0.35469326913E+03  0.35469326913E+03  0.00000000000E+00 0. -1.
          2   -1    0    0  501    0  0.00000000000E+00 -0.00000000000E+00 -0.29651771948E+04  0.29651771948E+04  0.00000000000E+00 0.  1.
    2000013    1    1    2    0    0  0.15803508460E+03 -0.34546661345E+03 -0.14186146904E+04  0.17490825906E+04  0.95000000000E+03 0.  0.
   -2000013    1    1    2    0    0 -0.15803508460E+03  0.34546661345E+03 -0.11918692353E+04  0.15707878733E+04  0.95000000000E+03 0.  0.
<mgrwt>
<rscale>  0 0.20510762E+04</rscale>
<asrwt>0</asrwt>
<pdfrwt beam="2">  1        2 0.45618109E+00 0.20510762E+04</pdfrwt>
<pdfrwt beam="1">  1       -2 0.54568197E-01 0.20510762E+04</pdfrwt>
<totfact> 0.53632842E+00</totfact>
</mgrwt>
</event>
<event>
 4    1  0.1321115E-008  0.2246899E+04  0.7816531E-02  0.8499157E-01
         -2   -1    0    0    0  501 -0.00000000000E+00  0.00000000000E+00  0.56285287474E+03  0.56285287474E+03  0.00000000000E+00 0. -1.
          2   -1    0    0  501    0  0.00000000000E+00 -0.00000000000E+00 -0.22423964197E+04  0.22423964197E+04  0.00000000000E+00 0.  1.
    2000013    1    1    2    0    0  0.15439298898E+03  0.28641214743E+03 -0.21083338749E+03  0.10260700905E+04  0.95000000000E+03 0.  0.
   -2000013    1    1    2    0    0 -0.15439298898E+03 -0.28641214743E+03 -0.14687101575E+04  0.17791792040E+04  0.95000000000E+03 0.  0.
<mgrwt>
<rscale>  0 0.22468994E+04</rscale>
<asrwt>0</asrwt>
<pdfrwt beam="2">  1        2 0.34498406E+00 0.22468994E+04</pdfrwt>
<pdfrwt beam="1">  1       -2 0.86592751E-01 0.22468994E+04</pdfrwt>
<totfact> 0.51386258E+00</totfact>
</mgrwt>
</event>
<event>
 4    1  0.1321115E-008  0.2902158E+04  0.7816531E-02  0.8272236E-01
         -2   -1    0    0    0  501 -0.00000000000E+00  0.00000000000E+00  0.65551080237E+03  0.65551080237E+03  0.00000000000E+00 0. -1.
          2   -1    0    0  501    0  0.00000000000E+00 -0.00000000000E+00 -0.32121970696E+04  0.32121970696E+04  0.00000000000E+00 0.  1.
    2000013    1    1    2    0    0  0.72018333928E+03 -0.50026490234E+03 -0.40017435428E+03  0.13533545465E+04  0.95000000000E+03 0.  0.
   -2000013    1    1    2    0    0 -0.72018333928E+03  0.50026490234E+03 -0.21565119130E+04  0.25143533255E+04  0.95000000000E+03 0.  0.
<mgrwt>
<rscale>  0 0.29021577E+04</rscale>
<asrwt>0</asrwt>
<pdfrwt beam="2">  1        2 0.49418417E+00 0.29021577E+04</pdfrwt>
<pdfrwt beam="1">  1       -2 0.10084781E+00 0.29021577E+04</pdfrwt>
<totfact> 0.88893210E-01</totfact>
</mgrwt>
</event>
<event>
 4    1  0.1321115E-008  0.2492334E+04  0.7816531E-02  0.8405722E-01
          2   -1    0    0  501    0  0.00000000000E+00  0.00000000000E+00  0.20588561160E+04  0.20588561160E+04  0.00000000000E+00 0.  1.
         -2   -1    0    0    0  501 -0.00000000000E+00 -0.00000000000E+00 -0.75426930646E+03  0.75426930646E+03  0.00000000000E+00 0. -1.
    2000013    1    1    2    0    0 -0.32581523092E+03 -0.19635563997E+03  0.14549657922E+04  0.17788020009E+04  0.95000000000E+03 0.  0.
   -2000013    1    1    2    0    0  0.32581523092E+03  0.19635563997E+03 -0.15037898260E+03  0.10343234216E+04  0.95000000000E+03 0.  0.
<mgrwt>
<rscale>  0 0.24923338E+04</rscale>
<asrwt>0</asrwt>
<pdfrwt beam="1">  1        2 0.31674709E+00 0.24923338E+04</pdfrwt>
<pdfrwt beam="2">  1       -2 0.11604143E+00 0.24923338E+04</pdfrwt>
<totfact> 0.31888632E+00</totfact>
</mgrwt>
</event>
<event>
 4    1  0.1321115E-008  0.2213138E+04  0.7816531E-02  0.8512979E-01
          2   -1    0    0  501    0  0.00000000000E+00  0.00000000000E+00  0.78700062849E+03  0.78700062849E+03  0.00000000000E+00 0.  1.
         -2   -1    0    0    0  501 -0.00000000000E+00 -0.00000000000E+00 -0.15559013297E+04  0.15559013297E+04  0.00000000000E+00 0. -1.
    2000013    1    1    2    0    0 -0.42746442951E+03 -0.37232578960E+03 -0.41129442422E+03  0.11802607489E+04  0.95000000000E+03 0.  0.
   -2000013    1    1    2    0    0  0.42746442951E+03  0.37232578960E+03 -0.35760627701E+03  0.11626412093E+04  0.95000000000E+03 0.  0.
<mgrwt>
<rscale>  0 0.22131383E+04</rscale>
<asrwt>0</asrwt>
<pdfrwt beam="1">  1        2 0.12107702E+00 0.22131383E+04</pdfrwt>
<pdfrwt beam="2">  1       -2 0.23936943E+00 0.22131383E+04</pdfrwt>
<totfact> 0.24018848E+00</totfact>
</mgrwt>
</event>
<event>
 4    1  0.1321115E-008  0.2452746E+04  0.7816531E-02  0.8420016E-01
          2   -1    0    0  501    0  0.00000000000E+00  0.00000000000E+00  0.27854807257E+04  0.27854807257E+04  0.00000000000E+00 0.  1.
         -2   -1    0    0    0  501 -0.00000000000E+00 -0.00000000000E+00 -0.53993959642E+03  0.53993959642E+03  0.00000000000E+00 0. -1.
    2000013    1    1    2    0    0 -0.67801892062E+03  0.26754163893E+03  0.14820002301E+04  0.19052855081E+04  0.95000000000E+03 0.  0.
   -2000013    1    1    2    0    0  0.67801892062E+03 -0.26754163893E+03  0.76354089911E+03  0.14201348140E+04  0.95000000000E+03 0.  0.
<mgrwt>
<rscale>  0 0.24527465E+04</rscale>
<asrwt>0</asrwt>
<pdfrwt beam="1">  1        2 0.42853549E+00 0.24527465E+04</pdfrwt>
<pdfrwt beam="2">  1       -2 0.83067632E-01 0.24527465E+04</pdfrwt>
<totfact> 0.26823251E+00</totfact>
</mgrwt>
</event>
<event>
 4    1  0.1321115E-008  0.3136489E+04  0.7816531E-02  0.8205795E-01
         -2   -1    0    0    0  501 -0.00000000000E+00  0.00000000000E+00  0.21709603126E+04  0.21709603126E+04  0.00000000000E+00 0. -1.
          2   -1    0    0  501    0  0.00000000000E+00 -0.00000000000E+00 -0.11328582430E+04  0.11328582430E+04  0.00000000000E+00 0.  1.
    2000013    1    1    2    0    0 -0.10788496844E+04  0.69884442643E+02 -0.13715252908E+03  0.14457217205E+04  0.95000000000E+03 0.  0.
   -2000013    1    1    2    0    0  0.10788496844E+04 -0.69884442643E+02  0.11752545987E+04  0.18580968351E+04  0.95000000000E+03 0.  0.
<mgrwt>
<rscale>  0 0.31364887E+04</rscale>
<asrwt>0</asrwt>
<pdfrwt beam="2">  1        2 0.17428588E+00 0.31364887E+04</pdfrwt>
<pdfrwt beam="1">  1       -2 0.33399389E+00 0.31364887E+04</pdfrwt>
<totfact> 0.34500484E-01</totfact>
</mgrwt>
</event>
<event>
 4    1  0.1321115E-008  0.2620319E+04  0.7816531E-02  0.8361332E-01
          2   -1    0    0  501    0  0.00000000000E+00  0.00000000000E+00  0.60083485450E+03  0.60083485450E+03  0.00000000000E+00 0.  1.
         -2   -1    0    0    0  501 -0.00000000000E+00 -0.00000000000E+00 -0.28568878392E+04  0.28568878392E+04  0.00000000000E+00 0. -1.
    2000013    1    1    2    0    0  0.16682299435E+03 -0.81667244912E+03 -0.67237159079E+03  0.14315611607E+04  0.95000000000E+03 0.  0.
   -2000013    1    1    2    0    0 -0.16682299435E+03  0.81667244912E+03 -0.15836813940E+04  0.20261615331E+04  0.95000000000E+03 0.  0.
<mgrwt>
<rscale>  0 0.26203189E+04</rscale>
<asrwt>0</asrwt>
<pdfrwt beam="1">  1        2 0.92436131E-01 0.26203189E+04</pdfrwt>
<pdfrwt beam="2">  1       -2 0.43952121E+00 0.26203189E+04</pdfrwt>
<totfact> 0.17789176E-01</totfact>
</mgrwt>
</event>
<event>
 4    1  0.1321115E-008  0.2207442E+04  0.7816531E-02  0.8515337E-01
          2   -1    0    0  501    0  0.00000000000E+00  0.00000000000E+00  0.51971643103E+03  0.51971643103E+03  0.00000000000E+00 0.  1.
         -2   -1    0    0    0  501 -0.00000000000E+00 -0.00000000000E+00 -0.23439701220E+04  0.23439701220E+04  0.00000000000E+00 0. -1.
    2000013    1    1    2    0    0  0.24749989502E+02 -0.55309339119E+03 -0.78786509028E+03  0.13526848346E+04  0.95000000000E+03 0.  0.
   -2000013    1    1    2    0    0 -0.24749989502E+02  0.55309339119E+03 -0.10363886007E+04  0.15110017184E+04  0.95000000000E+03 0.  0.
<mgrwt>
<rscale>  0 0.22074418E+04</rscale>
<asrwt>0</asrwt>
<pdfrwt beam="1">  1        2 0.79956375E-01 0.22074418E+04</pdfrwt>
<pdfrwt beam="2">  1       -2 0.36061078E+00 0.22074418E+04</pdfrwt>
<totfact> 0.71764509E-01</totfact>
</mgrwt>
</event>
<event>
 4    1  0.1321115E-008  0.2283438E+04  0.7816531E-02  0.8484480E-01
          1   -1    0    0  501    0  0.00000000000E+00  0.00000000000E+00  0.17702241523E+04  0.17702241523E+04  0.00000000000E+00 0.  1.
         -1   -1    0    0    0  501 -0.00000000000E+00 -0.00000000000E+00 -0.73636031223E+03  0.73636031223E+03  0.00000000000E+00 0. -1.
    2000013    1    1    2    0    0  0.25485331405E+03  0.57440375941E+03  0.43096593454E+03  0.12178347701E+04  0.95000000000E+03 0.  0.
   -2000013    1    1    2    0    0 -0.25485331405E+03 -0.57440375941E+03  0.60289790557E+03  0.12887496945E+04  0.95000000000E+03 0.  0.
<mgrwt>
<rscale>  0 0.22834385E+04</rscale>
<asrwt>0</asrwt>
<pdfrwt beam="1">  1        1 0.27234218E+00 0.22834385E+04</pdfrwt>
<pdfrwt beam="2">  1       -1 0.11328620E+00 0.22834385E+04</pdfrwt>
<totfact> 0.27490118E+00</totfact>
</mgrwt>
</event>
<event>
 4    1  0.1321115E-008  0.2450208E+04  0.7816531E-02  0.8420942E-01
          1   -1    0    0  501    0  0.00000000000E+00  0.00000000000E+00  0.14734590020E+04  0.14734590020E+04  0.00000000000E+00 0.  1.
         -1   -1    0    0    0  501 -0.00000000000E+00 -0.00000000000E+00 -0.10186101158E+04  0.10186101158E+04  0.00000000000E+00 0. -1.
    2000013    1    1    2    0    0 -0.61371715705E+03  0.19496556464E+03  0.66337295157E+03  0.13256032563E+04  0.95000000000E+03 0.  0.
   -2000013    1    1    2    0    0  0.61371715705E+03 -0.19496556464E+03 -0.20852406537E+03  0.11664658615E+04  0.95000000000E+03 0.  0.
<mgrwt>
<rscale>  0 0.24502084E+04</rscale>
<asrwt>0</asrwt>
<pdfrwt beam="1">  1        1 0.22668600E+00 0.24502084E+04</pdfrwt>
<pdfrwt beam="2">  1       -1 0.15670925E+00 0.24502084E+04</pdfrwt>
<totfact> 0.18856773E+00</totfact>
</mgrwt>
</event>
<event>
 4    1  0.1321115E-008  0.2337324E+04  0.7816531E-02  0.8463349E-01
          2   -1    0    0  501    0  0.00000000000E+00  0.00000000000E+00  0.32495014488E+04  0.32495014488E+04  0.00000000000E+00 0.  1.
         -2   -1    0    0    0  501 -0.00000000000E+00 -0.00000000000E+00 -0.42030151430E+03  0.42030151430E+03  0.00000000000E+00 0. -1.
    2000013    1    1    2    0    0  0.45782997407E+03 -0.49584182530E+03  0.15532928321E+04  0.19418254358E+04  0.95000000000E+03 0.  0.
   -2000013    1    1    2    0    0 -0.45782997407E+03  0.49584182530E+03  0.12759071024E+04  0.17279775273E+04  0.95000000000E+03 0.  0.
<mgrwt>
<rscale>  0 0.23373236E+04</rscale>
<asrwt>0</asrwt>
<pdfrwt beam="1">  1        2 0.49992328E+00 0.23373236E+04</pdfrwt>
<pdfrwt beam="2">  1       -2 0.64661774E-01 0.23373236E+04</pdfrwt>
<totfact> 0.24044860E+00</totfact>
</mgrwt>
</event>
<event>
 4    1  0.1321115E-008  0.2502566E+04  0.7816531E-02  0.8402072E-01
          1   -1    0    0  501    0  0.00000000000E+00  0.00000000000E+00  0.15014466602E+04  0.15014466602E+04  0.00000000000E+00 0.  1.
         -1   -1    0    0    0  501 -0.00000000000E+00 -0.00000000000E+00 -0.10428003670E+04  0.10428003670E+04  0.00000000000E+00 0. -1.
    2000013    1    1    2    0    0 -0.59970034526E+03  0.54668576291E+03  0.15960029849E+03  0.12595547161E+04  0.95000000000E+03 0.  0.
   -2000013    1    1    2    0    0  0.59970034526E+03 -0.54668576291E+03  0.29904599474E+03  0.12846923112E+04  0.95000000000E+03 0.  0.
<mgrwt>
<rscale>  0 0.25025660E+04</rscale>
<asrwt>0</asrwt>
<pdfrwt beam="1">  1        1 0.23099179E+00 0.25025660E+04</pdfrwt>
<pdfrwt beam="2">  1       -1 0.16043083E+00 0.25025660E+04</pdfrwt>
<totfact> 0.16814889E+00</totfact>
</mgrwt>
</event>
<event>
 4    1  0.1321115E-008  0.2552516E+04  0.7816531E-02  0.8384512E-01
         -2   -1    0    0    0  501 -0.00000000000E+00  0.00000000000E+00  0.69349597616E+03  0.69349597616E+03  0.00000000000E+00 0. -1.
          2   -1    0    0  501    0  0.00000000000E+00 -0.00000000000E+00 -0.23487297348E+04  0.23487297348E+04  0.00000000000E+00 0.  1.
    2000013    1    1    2    0    0  0.53400868935E+03  0.58272061274E+03 -0.12075285864E+04  0.17278176639E+04  0.95000000000E+03 0.  0.
   -2000013    1    1    2    0    0 -0.53400868935E+03 -0.58272061274E+03 -0.44770517224E+03  0.13144080470E+04  0.95000000000E+03 0.  0.
<mgrwt>
<rscale>  0 0.25525161E+04</rscale>
<asrwt>0</asrwt>
<pdfrwt beam="2">  1        2 0.36134303E+00 0.25525161E+04</pdfrwt>
<pdfrwt beam="1">  1       -2 0.10669169E+00 0.25525161E+04</pdfrwt>
<totfact> 0.26711562E+00</totfact>
</mgrwt>
</event>
<event>
 4    1  0.1321115E-008  0.2194760E+04  0.7816531E-02  0.8520612E-01
         -2   -1    0    0    0  501 -0.00000000000E+00  0.00000000000E+00  0.50724961571E+03  0.50724961571E+03  0.00000000000E+00 0. -1.
          2   -1    0    0  501    0  0.00000000000E+00 -0.00000000000E+00 -0.23740638168E+04  0.23740638168E+04  0.00000000000E+00 0.  1.
    2000013    1    1    2    0    0  0.39038779323E+03  0.37789329548E+03 -0.82726388073E+03  0.13718861105E+04  0.95000000000E+03 0.  0.
   -2000013    1    1    2    0    0 -0.39038779323E+03 -0.37789329548E+03 -0.10395503204E+04  0.15094273220E+04  0.95000000000E+03 0.  0.
<mgrwt>
<rscale>  0 0.21947601E+04</rscale>
<asrwt>0</asrwt>
<pdfrwt beam="2">  1        2 0.36524058E+00 0.21947601E+04</pdfrwt>
<pdfrwt beam="1">  1       -2 0.78038404E-01 0.21947601E+04</pdfrwt>
<totfact> 0.54978434E+00</totfact>
</mgrwt>
</event>
<event>
 4    1  0.1321115E-008  0.2899369E+04  0.7816531E-02  0.8273065E-01
          2   -1    0    0  501    0  0.00000000000E+00  0.00000000000E+00  0.31005600113E+04  0.31005600113E+04  0.00000000000E+00 0.  1.
         -2   -1    0    0    0  501 -0.00000000000E+00 -0.00000000000E+00 -0.67780810370E+03  0.67780810370E+03  0.00000000000E+00 0. -1.
    2000013    1    1    2    0    0  0.23691747450E+03  0.10473955141E+04  0.93212819318E+03  0.17101257910E+04  0.95000000000E+03 0.  0.
   -2000013    1    1    2    0    0 -0.23691747450E+03 -0.10473955141E+04  0.14906237144E+04  0.20682423240E+04  0.95000000000E+03 0.  0.
<mgrwt>
<rscale>  0 0.28993687E+04</rscale>
<asrwt>0</asrwt>
<pdfrwt beam="1">  1        2 0.47700922E+00 0.28993687E+04</pdfrwt>
<pdfrwt beam="2">  1       -2 0.10427817E+00 0.28993687E+04</pdfrwt>
<totfact> 0.96937460E-01</totfact>
</mgrwt>
</event>
<event>
 4    1  0.1321115E-008  0.2596535E+04  0.7816531E-02  0.8369379E-01
          2   -1    0    0  501    0  0.00000000000E+00  0.00000000000E+00  0.15999174258E+04  0.15999174258E+04  0.00000000000E+00 0.  1.
         -2   -1    0    0    0  501 -0.00000000000E+00 -0.00000000000E+00 -0.10534906813E+04  0.10534906813E+04  0.00000000000E+00 0. -1.
    2000013    1    1    2    0    0  0.77987187270E+03  0.18834331095E+03 -0.10822472902E+03  0.12481530085E+04  0.95000000000E+03 0.  0.
   -2000013    1    1    2    0    0 -0.77987187270E+03 -0.18834331095E+03  0.65465147350E+03  0.14052550987E+04  0.95000000000E+03 0.  0.
<mgrwt>
<rscale>  0 0.25965347E+04</rscale>
<asrwt>0</asrwt>
<pdfrwt beam="1">  1        2 0.24614114E+00 0.25965347E+04</pdfrwt>
<pdfrwt beam="2">  1       -2 0.16207549E+00 0.25965347E+04</pdfrwt>
<totfact> 0.24001673E+00</totfact>
</mgrwt>
</event>
<event>
 4    1  0.1321115E-008  0.2501917E+04  0.7816531E-02  0.8402303E-01
          2   -1    0    0  501    0  0.00000000000E+00  0.00000000000E+00  0.11836306384E+04  0.11836306384E+04  0.00000000000E+00 0.  1.
         -2   -1    0    0    0  501 -0.00000000000E+00 -0.00000000000E+00 -0.13221161247E+04  0.13221161247E+04  0.00000000000E+00 0. -1.
    2000013    1    1    2    0    0 -0.52489926910E+03  0.34311739226E+03  0.45034650456E+03  0.12241571638E+04  0.95000000000E+03 0.  0.
   -2000013    1    1    2    0    0  0.52489926910E+03 -0.34311739226E+03 -0.58883199087E+03  0.12815895993E+04  0.95000000000E+03 0.  0.
<mgrwt>
<rscale>  0 0.25019170E+04</rscale>
<asrwt>0</asrwt>
<pdfrwt beam="1">  1        2 0.18209702E+00 0.25019170E+04</pdfrwt>
<pdfrwt beam="2">  1       -2 0.20340248E+00 0.25019170E+04</pdfrwt>
<totfact> 0.21827988E+00</totfact>
</mgrwt>
</event>
<event>
 4    1  0.1321115E-008  0.2924448E+04  0.7816531E-02  0.8265640E-01
          2   -1    0    0  501    0  0.00000000000E+00  0.00000000000E+00  0.25853297740E+04  0.25853297740E+04  0.00000000000E+00 0.  1.
         -2   -1    0    0    0  501 -0.00000000000E+00 -0.00000000000E+00 -0.82701199739E+03  0.82701199739E+03  0.00000000000E+00 0. -1.
    2000013    1    1    2    0    0 -0.57487341976E+03 -0.74391904085E+03  0.18717314198E+03  0.13496031910E+04  0.95000000000E+03 0.  0.
   -2000013    1    1    2    0    0  0.57487341976E+03  0.74391904085E+03  0.15711446346E+04  0.20627385804E+04  0.95000000000E+03 0.  0.
<mgrwt>
<rscale>  0 0.29244478E+04</rscale>
<asrwt>0</asrwt>
<pdfrwt beam="1">  1        2 0.39774304E+00 0.29244478E+04</pdfrwt>
<pdfrwt beam="2">  1       -2 0.12723262E+00 0.29244478E+04</pdfrwt>
<totfact> 0.12257937E+00</totfact>
</mgrwt>
</event>
<event>
 4    1  0.1321115E-008  0.2651292E+04  0.7816531E-02  0.8350984E-01
          2   -1    0    0  501    0  0.00000000000E+00  0.00000000000E+00  0.37466902679E+04  0.37466902679E+04  0.00000000000E+00 0.  1.
         -2   -1    0    0    0  501 -0.00000000000E+00 -0.00000000000E+00 -0.46903731181E+03  0.46903731181E+03  0.00000000000E+00 0. -1.
    2000013    1    1    2    0    0  0.57366417731E+03 -0.72058191791E+03  0.17671068373E+04  0.22075994798E+04  0.95000000000E+03 0.  0.
   -2000013    1    1    2    0    0 -0.57366417731E+03  0.72058191791E+03  0.15105461188E+04  0.20081281000E+04  0.95000000000E+03 0.  0.
<mgrwt>
<rscale>  0 0.26512922E+04</rscale>
<asrwt>0</asrwt>
<pdfrwt beam="1">  1        2 0.57641387E+00 0.26512922E+04</pdfrwt>
<pdfrwt beam="2">  1       -2 0.72159589E-01 0.26512922E+04</pdfrwt>
<totfact> 0.82622999E-01</totfact>
</mgrwt>
</event>
<event>
 4    1  0.1321115E-008  0.2149120E+04  0.7816531E-02  0.8539909E-01
         -2   -1    0    0    0  501 -0.00000000000E+00  0.00000000000E+00  0.50898690231E+03  0.50898690231E+03  0.00000000000E+00 0. -1.
          2   -1    0    0  501    0  0.00000000000E+00 -0.00000000000E+00 -0.22685836722E+04  0.22685836722E+04  0.00000000000E+00 0.  1.
    2000013    1    1    2    0    0 -0.30537132490E+03 -0.25425727057E+03 -0.48295748656E+03  0.11373857479E+04  0.95000000000E+03 0.  0.
   -2000013    1    1    2    0    0  0.30537132490E+03  0.25425727057E+03 -0.12766392833E+04  0.16401848266E+04  0.95000000000E+03 0.  0.
<mgrwt>
<rscale>  0 0.21491202E+04</rscale>
<asrwt>0</asrwt>
<pdfrwt beam="2">  1        2 0.34901288E+00 0.21491202E+04</pdfrwt>
<pdfrwt beam="1">  1       -2 0.78305677E-01 0.21491202E+04</pdfrwt>
<totfact> 0.62876470E+00</totfact>
</mgrwt>
</event>
<event>
 4    1  0.1321115E-008  0.3050492E+04  0.7816531E-02  0.8229458E-01
          2   -1    0    0  501    0  0.00000000000E+00  0.00000000000E+00  0.30233506325E+04  0.30233506325E+04  0.00000000000E+00 0.  1.
         -2   -1    0    0    0  501 -0.00000000000E+00 -0.00000000000E+00 -0.76946918944E+03  0.76946918944E+03  0.00000000000E+00 0. -1.
    2000013    1    1    2    0    0 -0.29378038561E+03  0.11470275101E+04  0.94295840300E+03  0.17870785024E+04  0.95000000000E+03 0.  0.
   -2000013    1    1    2    0    0  0.29378038561E+03 -0.11470275101E+04  0.13109230400E+04  0.20057413195E+04  0.95000000000E+03 0.  0.
<mgrwt>
<rscale>  0 0.30504919E+04</rscale>
<asrwt>0</asrwt>
<pdfrwt beam="1">  1        2 0.46513086E+00 0.30504919E+04</pdfrwt>
<pdfrwt beam="2">  1       -2 0.11837988E+00 0.30504919E+04</pdfrwt>
<totfact> 0.78761942E-01</totfact>
</mgrwt>
</event>
<event>
 4    1  0.1321115E-008  0.2910636E+04  0.7816531E-02  0.8269720E-01
         -2   -1    0    0    0  501 -0.00000000000E+00  0.00000000000E+00  0.10155530342E+04  0.10155530342E+04  0.00000000000E+00 0. -1.
          2   -1    0    0  501    0  0.00000000000E+00 -0.00000000000E+00 -0.20855148577E+04  0.20855148577E+04  0.00000000000E+00 0.  1.
    2000013    1    1    2    0    0 -0.16321774940E+03  0.10829553414E+04 -0.66982630160E+03  0.15970596668E+04  0.95000000000E+03 0.  0.
   -2000013    1    1    2    0    0  0.16321774940E+03 -0.10829553414E+04 -0.40013552196E+03  0.15040082251E+04  0.95000000000E+03 0.  0.
<mgrwt>
<rscale>  0 0.29106363E+04</rscale>
<asrwt>0</asrwt>
<pdfrwt beam="2">  1        2 0.32084844E+00 0.29106363E+04</pdfrwt>
<pdfrwt beam="1">  1       -2 0.15623893E+00 0.29106363E+04</pdfrwt>
<totfact> 0.13870872E+00</totfact>
</mgrwt>
</event>
<event>
 4    1  0.1321115E-008  0.2123523E+04  0.7816531E-02  0.8550952E-01
         -2   -1    0    0    0  501 -0.00000000000E+00  0.00000000000E+00  0.52560375049E+03  0.52560375049E+03  0.00000000000E+00 0.  1.
          2   -1    0    0  501    0  0.00000000000E+00 -0.00000000000E+00 -0.21448428575E+04  0.21448428575E+04  0.00000000000E+00 0. -1.
    2000013    1    1    2    0    0 -0.23951073436E+03 -0.30576815953E+03 -0.11516603499E+04  0.15426215093E+04  0.95000000000E+03 0.  0.
   -2000013    1    1    2    0    0  0.23951073436E+03  0.30576815953E+03 -0.46757875710E+03  0.11278250987E+04  0.95000000000E+03 0.  0.
<mgrwt>
<rscale>  0 0.21235230E+04</rscale>
<asrwt>0</asrwt>
<pdfrwt beam="2">  1        2 0.32997582E+00 0.21235230E+04</pdfrwt>
<pdfrwt beam="1">  1       -2 0.80862117E-01 0.21235230E+04</pdfrwt>
<totfact> 0.68820279E+00</totfact>
</mgrwt>
</event>
<event>
 4    1  0.1321115E-008  0.2116838E+04  0.7816531E-02  0.8553862E-01
          2   -1    0    0  501    0  0.00000000000E+00  0.00000000000E+00  0.24806364037E+04  0.24806364037E+04  0.00000000000E+00 0.  1.
         -2   -1    0    0    0  501 -0.00000000000E+00 -0.00000000000E+00 -0.45159803713E+03  0.45159803713E+03  0.00000000000E+00 0. -1.
    2000013    1    1    2    0    0 -0.22725538598E+03 -0.28750843335E+03  0.14146571569E+04  0.17430034370E+04  0.95000000000E+03 0.  0.
   -2000013    1    1    2    0    0  0.22725538598E+03  0.28750843335E+03  0.61438120961E+03  0.11892310038E+04  0.95000000000E+03 0.  0.
<mgrwt>
<rscale>  0 0.21168378E+04</rscale>
<asrwt>0</asrwt>
<pdfrwt beam="1">  1        2 0.38163636E+00 0.21168378E+04</pdfrwt>
<pdfrwt beam="2">  1       -2 0.69476622E-01 0.21168378E+04</pdfrwt>
<totfact> 0.62136263E+00</totfact>
</mgrwt>
</event>
<event>
 4    1  0.1321115E-008  0.2397529E+04  0.7816531E-02  0.8440429E-01
         -2   -1    0    0    0  501 -0.00000000000E+00  0.00000000000E+00  0.35520156534E+03  0.35520156534E+03  0.00000000000E+00 0. -1.
          2   -1    0    0  501    0  0.00000000000E+00 -0.00000000000E+00 -0.40456925531E+04  0.40456925531E+04  0.00000000000E+00 0.  1.
    2000013    1    1    2    0    0 -0.39702444363E+03  0.51242671234E+03 -0.24659016153E+04  0.27209153461E+04  0.95000000000E+03 0.  0.
   -2000013    1    1    2    0    0  0.39702444363E+03 -0.51242671234E+03 -0.12245893725E+04  0.16799787724E+04  0.95000000000E+03 0.  0.
<mgrwt>
<rscale>  0 0.23975290E+04</rscale>
<asrwt>0</asrwt>
<pdfrwt beam="2">  1        2 0.62241423E+00 0.23975290E+04</pdfrwt>
<pdfrwt beam="1">  1       -2 0.54646396E-01 0.23975290E+04</pdfrwt>
<totfact> 0.89413757E-01</totfact>
</mgrwt>
</event>
<event>
 4    1  0.1321115E-008  0.2264319E+04  0.7816531E-02  0.8492124E-01
          2   -1    0    0  501    0  0.00000000000E+00  0.00000000000E+00  0.18485437029E+04  0.18485437029E+04  0.00000000000E+00 0.  1.
         -2   -1    0    0    0  501 -0.00000000000E+00 -0.00000000000E+00 -0.69340256423E+03  0.69340256423E+03  0.00000000000E+00 0. -1.
    2000013    1    1    2    0    0  0.26450751568E+03  0.55560398584E+03  0.60563421130E+03  0.12837261440E+04  0.95000000000E+03 0.  0.
   -2000013    1    1    2    0    0 -0.26450751568E+03 -0.55560398584E+03  0.54950692734E+03  0.12582201231E+04  0.95000000000E+03 0.  0.
<mgrwt>
<rscale>  0 0.22643188E+04</rscale>
<asrwt>0</asrwt>
<pdfrwt beam="1">  1        2 0.28439134E+00 0.22643188E+04</pdfrwt>
<pdfrwt beam="2">  1       -2 0.10667732E+00 0.22643188E+04</pdfrwt>
<totfact> 0.52175489E+00</totfact>
</mgrwt>
</event>
<event>
 4    1  0.1321115E-008  0.2757416E+04  0.7816531E-02  0.8316612E-01
          2   -1    0    0  501    0  0.00000000000E+00  0.00000000000E+00  0.25429755395E+04  0.25429755395E+04  0.00000000000E+00 0.  1.
         -2   -1    0    0    0  501 -0.00000000000E+00 -0.00000000000E+00 -0.74748462200E+03  0.74748462200E+03  0.00000000000E+00 0. -1.
    2000013    1    1    2    0    0  0.78554196184E+03  0.12145866559E+03  0.17531608670E+03  0.12510252242E+04  0.95000000000E+03 0.  0.
   -2000013    1    1    2    0    0 -0.78554196184E+03 -0.12145866559E+03  0.16201748308E+04  0.20394349373E+04  0.95000000000E+03 0.  0.
<mgrwt>
<rscale>  0 0.27574155E+04</rscale>
<asrwt>0</asrwt>
<pdfrwt beam="1">  1        2 0.39122700E+00 0.27574155E+04</pdfrwt>
<pdfrwt beam="2">  1       -2 0.11499764E+00 0.27574155E+04</pdfrwt>
<totfact> 0.16917412E+00</totfact>
</mgrwt>
</event>
<event>
 4    1  0.1321115E-008  0.2960495E+04  0.7816531E-02  0.8255103E-01
          2   -1    0    0  501    0  0.00000000000E+00  0.00000000000E+00  0.11051652384E+04  0.11051652384E+04  0.00000000000E+00 0.  1.
         -2   -1    0    0    0  501 -0.00000000000E+00 -0.00000000000E+00 -0.19826287144E+04  0.19826287144E+04  0.00000000000E+00 0. -1.
    2000013    1    1    2    0    0 -0.11840692325E+03  0.79229688528E+03  0.40013916361E+03  0.13055136553E+04  0.95000000000E+03 0.  0.
   -2000013    1    1    2    0    0  0.11840692325E+03 -0.79229688528E+03 -0.12776026396E+04  0.17822802975E+04  0.95000000000E+03 0.  0.
<mgrwt>
<rscale>  0 0.29604948E+04</rscale>
<asrwt>0</asrwt>
<pdfrwt beam="1">  1        2 0.17002542E+00 0.29604948E+04</pdfrwt>
<pdfrwt beam="2">  1       -2 0.30501980E+00 0.29604948E+04</pdfrwt>
<totfact> 0.54989596E-01</totfact>
</mgrwt>
</event>
<event>
 4    1  0.1321115E-008  0.3582368E+04  0.7816531E-02  0.8094542E-01
         -2   -1    0    0    0  501 -0.00000000000E+00  0.00000000000E+00  0.10273372951E+04  0.10273372951E+04  0.00000000000E+00 0. -1.
          2   -1    0    0  501    0  0.00000000000E+00 -0.00000000000E+00 -0.31229668994E+04  0.31229668994E+04  0.00000000000E+00 0.  1.
    2000013    1    1    2    0    0 -0.42649533484E+03  0.13416957315E+04 -0.17070563302E+04  0.24080255441E+04  0.95000000000E+03 0.  0.
   -2000013    1    1    2    0    0  0.42649533484E+03 -0.13416957315E+04 -0.38857327408E+03  0.17422786505E+04  0.95000000000E+03 0.  0.
<mgrwt>
<rscale>  0 0.35823681E+04</rscale>
<asrwt>0</asrwt>
<pdfrwt beam="2">  1        2 0.48045645E+00 0.35823681E+04</pdfrwt>
<pdfrwt beam="1">  1       -2 0.15805189E+00 0.35823681E+04</pdfrwt>
<totfact> 0.30892893E-01</totfact>
</mgrwt>
</event>
<event>
 4    1  0.1321115E-008  0.3220871E+04  0.7816531E-02  0.8183327E-01
         -2   -1    0    0    0  501 -0.00000000000E+00  0.00000000000E+00  0.17525554085E+04  0.17525554085E+04  0.00000000000E+00 0. -1.
          2   -1    0    0  501    0  0.00000000000E+00 -0.00000000000E+00 -0.14798408571E+04  0.14798408571E+04  0.00000000000E+00 0.  1.
    2000013    1    1    2    0    0 -0.12720687185E+04  0.23387721071E+03  0.27154534359E+03  0.16276038363E+04  0.95000000000E+03 0.  0.
   -2000013    1    1    2    0    0  0.12720687185E+04 -0.23387721071E+03  0.11692078561E+01  0.16047924293E+04  0.95000000000E+03 0.  0.
<mgrwt>
<rscale>  0 0.32208714E+04</rscale>
<asrwt>0</asrwt>
<pdfrwt beam="2">  1        2 0.22766782E+00 0.32208714E+04</pdfrwt>
<pdfrwt beam="1">  1       -2 0.26962391E+00 0.32208714E+04</pdfrwt>
<totfact> 0.53374590E-01</totfact>
</mgrwt>
</event>
<event>
 4    1  0.1321115E-008  0.2801073E+04  0.7816531E-02  0.8302935E-01
          2   -1    0    0  501    0  0.00000000000E+00  0.00000000000E+00  0.10986638270E+04  0.10986638270E+04  0.00000000000E+00 0.  1.
         -2   -1    0    0    0  501 -0.00000000000E+00 -0.00000000000E+00 -0.17853524905E+04  0.17853524905E+04  0.00000000000E+00 0. -1.
    2000013    1    1    2    0    0 -0.31778045162E+02  0.98928402453E+03 -0.63330283806E+03  0.15110477193E+04  0.95000000000E+03 0.  0.
   -2000013    1    1    2    0    0  0.31778045162E+02 -0.98928402453E+03 -0.53385825403E+02  0.13729685982E+04  0.95000000000E+03 0.  0.
<mgrwt>
<rscale>  0 0.28010728E+04</rscale>
<asrwt>0</asrwt>
<pdfrwt beam="1">  1        2 0.16902520E+00 0.28010728E+04</pdfrwt>
<pdfrwt beam="2">  1       -2 0.27466961E+00 0.28010728E+04</pdfrwt>
<totfact> 0.86195902E-01</totfact>
</mgrwt>
</event>
<event>
 4    1  0.1321115E-008  0.3393566E+04  0.7816531E-02  0.8139487E-01
         -2   -1    0    0    0  501 -0.00000000000E+00  0.00000000000E+00  0.94190076863E+03  0.94190076863E+03  0.00000000000E+00 0. -1.
          2   -1    0    0  501    0  0.00000000000E+00 -0.00000000000E+00 -0.30566618811E+04  0.30566618811E+04  0.00000000000E+00 0.  1.
    2000013    1    1    2    0    0  0.20806293959E+03 -0.13661342701E+04 -0.75248395654E+03  0.18380275122E+04  0.95000000000E+03 0.  0.
   -2000013    1    1    2    0    0 -0.20806293959E+03  0.13661342701E+04 -0.13622771560E+04  0.21605351375E+04  0.95000000000E+03 0.  0.
<mgrwt>
<rscale>  0 0.33935658E+04</rscale>
<asrwt>0</asrwt>
<pdfrwt beam="2">  1        2 0.47025568E+00 0.33935658E+04</pdfrwt>
<pdfrwt beam="1">  1       -2 0.14490781E+00 0.33935658E+04</pdfrwt>
<totfact> 0.43591834E-01</totfact>
</mgrwt>
</event>
<event>
 4    1  0.1321115E-008  0.3881440E+04  0.7816531E-02  0.8028900E-01
         -1   -1    0    0    0  501 -0.00000000000E+00  0.00000000000E+00  0.11469402298E+04  0.11469402298E+04  0.00000000000E+00 0. -1.
          1   -1    0    0  501    0  0.00000000000E+00 -0.00000000000E+00 -0.32838626954E+04  0.32838626954E+04  0.00000000000E+00 0.  1.
    2000013    1    1    2    0    0  0.40549163667E+03 -0.44373882054E+03  0.73739168080E+03  0.13444605235E+04  0.95000000000E+03 0.  0.
   -2000013    1    1    2    0    0 -0.40549163667E+03  0.44373882054E+03 -0.28743141464E+04  0.30863424017E+04  0.95000000000E+03 0.  0.
<mgrwt>
<rscale>  0 0.38814401E+04</rscale>
<asrwt>0</asrwt>
<pdfrwt beam="2">  1        1 0.50520964E+00 0.38814401E+04</pdfrwt>
<pdfrwt beam="1">  1       -1 0.17645234E+00 0.38814401E+04</pdfrwt>
<totfact> 0.64022240E-02</totfact>
</mgrwt>
</event>
<event>
 4    1  0.1321115E-008  0.2286509E+04  0.7816531E-02  0.8483260E-01
         -2   -1    0    0    0  501 -0.00000000000E+00  0.00000000000E+00  0.42857854008E+03  0.42857854008E+03  0.00000000000E+00 0. -1.
          2   -1    0    0  501    0  0.00000000000E+00 -0.00000000000E+00 -0.30496871673E+04  0.30496871673E+04  0.00000000000E+00 0.  1.
    2000013    1    1    2    0    0  0.28617973759E+01  0.41744656500E+03 -0.58059313255E+03  0.11890576984E+04  0.95000000000E+03 0.  0.
   -2000013    1    1    2    0    0 -0.28617973759E+01 -0.41744656500E+03 -0.20405154947E+04  0.22892080090E+04  0.95000000000E+03 0.  0.
<mgrwt>
<rscale>  0 0.22865087E+04</rscale>
<asrwt>0</asrwt>
<pdfrwt beam="2">  1        2 0.46918264E+00 0.22865087E+04</pdfrwt>
<pdfrwt beam="1">  1       -2 0.65935160E-01 0.22865087E+04</pdfrwt>
<totfact> 0.31157548E+00</totfact>
</mgrwt>
</event>
<event>
 4    1  0.1321115E-008  0.3960260E+04  0.7816531E-02  0.8012612E-01
         -2   -1    0    0    0  501 -0.00000000000E+00  0.00000000000E+00  0.11523784974E+04  0.11523784974E+04  0.00000000000E+00 0. -1.
          2   -1    0    0  501    0  0.00000000000E+00 -0.00000000000E+00 -0.34024544944E+04  0.34024544944E+04  0.00000000000E+00 0.  1.
    2000013    1    1    2    0    0 -0.12371172073E+02  0.15710087677E+04 -0.27192497138E+03  0.18559808146E+04  0.95000000000E+03 0.  0.
   -2000013    1    1    2    0    0  0.12371172073E+02 -0.15710087677E+04 -0.19781510256E+04  0.26988521772E+04  0.95000000000E+03 0.  0.
<mgrwt>
<rscale>  0 0.39602603E+04</rscale>
<asrwt>0</asrwt>
<pdfrwt beam="2">  1        2 0.52345454E+00 0.39602603E+04</pdfrwt>
<pdfrwt beam="1">  1       -2 0.17728900E+00 0.39602603E+04</pdfrwt>
<totfact> 0.14211043E-01</totfact>
</mgrwt>
</event>
<event>
 4    1  0.1321115E-008  0.2506406E+04  0.7816531E-02  0.8400707E-01
          2   -1    0    0  501    0  0.00000000000E+00  0.00000000000E+00  0.28418570116E+04  0.28418570116E+04  0.00000000000E+00 0.  1.
         -2   -1    0    0    0  501 -0.00000000000E+00 -0.00000000000E+00 -0.55263806682E+03  0.55263806682E+03  0.00000000000E+00 0. -1.
    2000013    1    1    2    0    0 -0.55771450007E+03 -0.24853911874E+03  0.18804483726E+04  0.21934911076E+04  0.95000000000E+03 0.  0.
   -2000013    1    1    2    0    0  0.55771450007E+03  0.24853911874E+03  0.40877057211E+03  0.12010039708E+04  0.95000000000E+03 0.  0.
<mgrwt>
<rscale>  0 0.25064065E+04</rscale>
<asrwt>0</asrwt>
<pdfrwt beam="1">  1        2 0.43720876E+00 0.25064065E+04</pdfrwt>
<pdfrwt beam="2">  1       -2 0.85021242E-01 0.25064065E+04</pdfrwt>
<totfact> 0.23410039E+00</totfact>
</mgrwt>
</event>
<event>
 4    1  0.1321115E-008  0.3545284E+04  0.7816531E-02  0.8103141E-01
         -2   -1    0    0    0  501 -0.00000000000E+00  0.00000000000E+00  0.18710717117E+04  0.18710717117E+04  0.00000000000E+00 0. -1.
          2   -1    0    0  501    0  0.00000000000E+00 -0.00000000000E+00 -0.16793904771E+04  0.16793904771E+04  0.00000000000E+00 0.  1.
    2000013    1    1    2    0    0  0.32883754879E+03  0.13638471074E+04 -0.42602213495E+03  0.17470569325E+04  0.95000000000E+03 0.  0.
   -2000013    1    1    2    0    0 -0.32883754879E+03 -0.13638471074E+04  0.61770336957E+03  0.18034052563E+04  0.95000000000E+03 0.  0.
<mgrwt>
<rscale>  0 0.35452842E+04</rscale>
<asrwt>0</asrwt>
<pdfrwt beam="2">  1        2 0.25836777E+00 0.35452842E+04</pdfrwt>
<pdfrwt beam="1">  1       -2 0.28785719E+00 0.35452842E+04</pdfrwt>
<totfact> 0.31085832E-01</totfact>
</mgrwt>
</event>
<event>
 4    1  0.1321115E-008  0.2441106E+04  0.7816531E-02  0.8424272E-01
          2   -1    0    0  501    0  0.00000000000E+00  0.00000000000E+00  0.17956900422E+04  0.17956900422E+04  0.00000000000E+00 0.  1.
         -2   -1    0    0    0  501 -0.00000000000E+00 -0.00000000000E+00 -0.82962525708E+03  0.82962525708E+03  0.00000000000E+00 0. -1.
    2000013    1    1    2    0    0 -0.72774099334E+03 -0.43958895317E+02  0.73687424865E+03  0.14060664978E+04  0.95000000000E+03 0.  0.
   -2000013    1    1    2    0    0  0.72774099334E+03  0.43958895317E+02  0.22919053643E+03  0.12192488015E+04  0.95000000000E+03 0.  0.
<mgrwt>
<rscale>  0 0.24411062E+04</rscale>
<asrwt>0</asrwt>
<pdfrwt beam="1">  1        2 0.27626001E+00 0.24411062E+04</pdfrwt>
<pdfrwt beam="2">  1       -2 0.12763465E+00 0.24411062E+04</pdfrwt>
<totfact> 0.35379884E+00</totfact>
</mgrwt>
</event>
<event>
 4    1  0.1321115E-008  0.2601597E+04  0.7816531E-02  0.8367659E-01
         -2   -1    0    0    0  501 -0.00000000000E+00  0.00000000000E+00  0.47000984562E+03  0.47000984562E+03  0.00000000000E+00 0. -1.
          2   -1    0    0  501    0  0.00000000000E+00 -0.00000000000E+00 -0.36000890243E+04  0.36000890243E+04  0.00000000000E+00 0.  1.
    2000013    1    1    2    0    0 -0.68747747190E+03 -0.23323440022E+03 -0.76340959420E+03  0.14185618662E+04  0.95000000000E+03 0.  0.
   -2000013    1    1    2    0    0  0.68747747190E+03  0.23323440022E+03 -0.23666695845E+04  0.26515370037E+04  0.95000000000E+03 0.  0.
<mgrwt>
<rscale>  0 0.26015974E+04</rscale>
<asrwt>0</asrwt>
<pdfrwt beam="2">  1        2 0.55385986E+00 0.26015974E+04</pdfrwt>
<pdfrwt beam="1">  1       -2 0.72309206E-01 0.26015974E+04</pdfrwt>
<totfact> 0.10579307E+00</totfact>
</mgrwt>
</event>
<event>
 4    1  0.1321115E-008  0.2575451E+04  0.7816531E-02  0.8376588E-01
         -2   -1    0    0    0  501 -0.00000000000E+00  0.00000000000E+00  0.12894638835E+04  0.12894638835E+04  0.00000000000E+00 0. -1.
          2   -1    0    0  501    0  0.00000000000E+00 -0.00000000000E+00 -0.12859891492E+04  0.12859891492E+04  0.00000000000E+00 0.  1.
    2000013    1    1    2    0    0 -0.71496341097E+03 -0.36143958652E+03 -0.33579117399E+03  0.12872711316E+04  0.95000000000E+03 0.  0.
   -2000013    1    1    2    0    0  0.71496341097E+03  0.36143958652E+03  0.33926590831E+03  0.12881819011E+04  0.95000000000E+03 0.  0.
<mgrwt>
<rscale>  0 0.25754507E+04</rscale>
<asrwt>0</asrwt>
<pdfrwt beam="2">  1        2 0.19784449E+00 0.25754507E+04</pdfrwt>
<pdfrwt beam="1">  1       -2 0.19837906E+00 0.25754507E+04</pdfrwt>
<totfact> 0.20353992E+00</totfact>
</mgrwt>
</event>
<event>
 4    1  0.1321115E-008  0.2253678E+04  0.7816531E-02  0.8496412E-01
          2   -1    0    0  501    0  0.00000000000E+00  0.00000000000E+00  0.12385219270E+04  0.12385219270E+04  0.00000000000E+00 0.  1.
         -2   -1    0    0    0  501 -0.00000000000E+00 -0.00000000000E+00 -0.10252272578E+04  0.10252272578E+04  0.00000000000E+00 0. -1.
    2000013    1    1    2    0    0  0.45388587620E+03 -0.31516037519E+03  0.35661272148E+03  0.11554267973E+04  0.95000000000E+03 0.  0.
   -2000013    1    1    2    0    0 -0.45388587620E+03  0.31516037519E+03 -0.14331805225E+03  0.11083223876E+04  0.95000000000E+03 0.  0.
<mgrwt>
<rscale>  0 0.22536783E+04</rscale>
<asrwt>0</asrwt>
<pdfrwt beam="1">  1        2 0.19054183E+00 0.22536783E+04</pdfrwt>
<pdfrwt beam="2">  1       -2 0.15772727E+00 0.22536783E+04</pdfrwt>
<totfact> 0.42821960E+00</totfact>
</mgrwt>
</event>
<event>
 4    1  0.1321115E-008  0.2367541E+04  0.7816531E-02  0.8451757E-01
          2   -1    0    0  501    0  0.00000000000E+00  0.00000000000E+00  0.98684932011E+03  0.98684932011E+03  0.00000000000E+00 0.  1.
         -2   -1    0    0    0  501 -0.00000000000E+00 -0.00000000000E+00 -0.14199860043E+04  0.14199860043E+04  0.00000000000E+00 0. -1.
    2000013    1    1    2    0    0  0.35589182035E+03  0.46472129187E+03  0.18519643813E+03  0.11311156385E+04  0.95000000000E+03 0.  0.
   -2000013    1    1    2    0    0 -0.35589182035E+03 -0.46472129187E+03 -0.61833312231E+03  0.12757196859E+04  0.95000000000E+03 0.  0.
<mgrwt>
<rscale>  0 0.23675407E+04</rscale>
<asrwt>0</asrwt>
<pdfrwt beam="1">  1        2 0.15182297E+00 0.23675407E+04</pdfrwt>
<pdfrwt beam="2">  1       -2 0.21845938E+00 0.23675407E+04</pdfrwt>
<totfact> 0.23405257E+00</totfact>
</mgrwt>
</event>
<event>
 4    1  0.1321115E-008  0.2215575E+04  0.7816531E-02  0.8511973E-01
          2   -1    0    0  501    0  0.00000000000E+00  0.00000000000E+00  0.13108413911E+04  0.13108413911E+04  0.00000000000E+00 0.  1.
         -2   -1    0    0    0  501 -0.00000000000E+00 -0.00000000000E+00 -0.93618724989E+03  0.93618724989E+03  0.00000000000E+00 0. -1.
    2000013    1    1    2    0    0 -0.54288518135E+03 -0.17311085121E+03  0.18848787731E+03  0.11237078654E+04  0.95000000000E+03 0.  0.
   -2000013    1    1    2    0    0  0.54288518135E+03  0.17311085121E+03  0.18616626388E+03  0.11233207755E+04  0.95000000000E+03 0.  0.
<mgrwt>
<rscale>  0 0.22155749E+04</rscale>
<asrwt>0</asrwt>
<pdfrwt beam="1">  1        2 0.20166791E+00 0.22155749E+04</pdfrwt>
<pdfrwt beam="2">  1       -2 0.14402881E+00 0.22155749E+04</pdfrwt>
<totfact> 0.49610183E+00</totfact>
</mgrwt>
</event>
<event>
 4    1  0.1321115E-008  0.2852765E+04  0.7816531E-02  0.8287072E-01
          2   -1    0    0  501    0  0.00000000000E+00  0.00000000000E+00  0.43748127323E+04  0.43748127323E+04  0.00000000000E+00 0.  1.
         -2   -1    0    0    0  501 -0.00000000000E+00 -0.00000000000E+00 -0.46506388531E+03  0.46506388531E+03  0.00000000000E+00 0. -1.
    2000013    1    1    2    0    0 -0.74696546509E+03 -0.64562826606E+03  0.26276913623E+04  0.29634532491E+04  0.95000000000E+03 0.  0.
   -2000013    1    1    2    0    0  0.74696546509E+03  0.64562826606E+03  0.12820574847E+04  0.18764233686E+04  0.95000000000E+03 0.  0.
<mgrwt>
<rscale>  0 0.28527653E+04</rscale>
<asrwt>0</asrwt>
<pdfrwt beam="1">  1        2 0.67304808E+00 0.28527653E+04</pdfrwt>
<pdfrwt beam="2">  1       -2 0.71548293E-01 0.28527653E+04</pdfrwt>
<totfact> 0.24890961E-01</totfact>
</mgrwt>
</event>
<event>
 4    1  0.1321115E-008  0.2527240E+04  0.7816531E-02  0.8393345E-01
         -2   -1    0    0    0  501 -0.00000000000E+00  0.00000000000E+00  0.87732770470E+03  0.87732770470E+03  0.00000000000E+00 0.  1.
          2   -1    0    0  501    0  0.00000000000E+00 -0.00000000000E+00 -0.18199988876E+04  0.18199988876E+04  0.00000000000E+00 0. -1.
    2000013    1    1    2    0    0  0.21751868789E+03  0.79095245622E+03 -0.31551223084E+03  0.12942056001E+04  0.95000000000E+03 0.  0.
   -2000013    1    1    2    0    0 -0.21751868789E+03 -0.79095245622E+03 -0.62715895209E+03  0.14031209922E+04  0.95000000000E+03 0.  0.
<mgrwt>
<rscale>  0 0.25272400E+04</rscale>
<asrwt>0</asrwt>
<pdfrwt beam="2">  1        2 0.27999983E+00 0.25272400E+04</pdfrwt>
<pdfrwt beam="1">  1       -2 0.13497349E+00 0.25272400E+04</pdfrwt>
<totfact> 0.29546714E+00</totfact>
</mgrwt>
</event>
<event>
 4    1  0.1321115E-008  0.2106233E+04  0.7816531E-02  0.8558503E-01
         -1   -1    0    0    0  501 -0.00000000000E+00  0.00000000000E+00  0.84421778961E+03  0.84421778961E+03  0.00000000000E+00 0. -1.
          1   -1    0    0  501    0  0.00000000000E+00 -0.00000000000E+00 -0.13137068039E+04  0.13137068039E+04  0.00000000000E+00 0.  1.
    2000013    1    1    2    0    0  0.41920570709E+03  0.15241431375E+03 -0.32400973745E+03  0.10983832928E+04  0.95000000000E+03 0.  0.
   -2000013    1    1    2    0    0 -0.41920570709E+03 -0.15241431375E+03 -0.14547927681E+03  0.10595413007E+04  0.95000000000E+03 0.  0.
<mgrwt>
<rscale>  0 0.21062333E+04</rscale>
<asrwt>0</asrwt>
<pdfrwt beam="2">  1        1 0.20210874E+00 0.21062333E+04</pdfrwt>
<pdfrwt beam="1">  1       -1 0.12987966E+00 0.21062333E+04</pdfrwt>
<totfact> 0.41325651E+00</totfact>
</mgrwt>
</event>
<event>
 4    1  0.1321115E-008  0.2520267E+04  0.7816531E-02  0.8395801E-01
          2   -1    0    0  501    0  0.00000000000E+00  0.00000000000E+00  0.34498947421E+04  0.34498947421E+04  0.00000000000E+00 0. -1.
         -2   -1    0    0    0  501 -0.00000000000E+00 -0.00000000000E+00 -0.46028530899E+03  0.46028530899E+03  0.00000000000E+00 0.  1.
    2000013    1    1    2    0    0 -0.36671934646E+03  0.74223583029E+03  0.15044640016E+04  0.19624752327E+04  0.95000000000E+03 0.  0.
   -2000013    1    1    2    0    0  0.36671934646E+03 -0.74223583029E+03  0.14851454315E+04  0.19477048184E+04  0.95000000000E+03 0.  0.
<mgrwt>
<rscale>  0 0.25202665E+04</rscale>
<asrwt>0</asrwt>
<pdfrwt beam="1">  1        2 0.53075302E+00 0.25202665E+04</pdfrwt>
<pdfrwt beam="2">  1       -2 0.70813127E-01 0.25202665E+04</pdfrwt>
<totfact> 0.14232253E+00</totfact>
</mgrwt>
</event>
<event>
 4    1  0.1321115E-008  0.2141230E+04  0.7816531E-02  0.8543296E-01
          2   -1    0    0  501    0  0.00000000000E+00  0.00000000000E+00  0.25924721907E+04  0.25924721907E+04  0.00000000000E+00 0.  1.
         -2   -1    0    0    0  501 -0.00000000000E+00 -0.00000000000E+00 -0.44213247301E+03  0.44213247301E+03  0.00000000000E+00 0. -1.
    2000013    1    1    2    0    0  0.20635477145E+03 -0.22342205052E+03  0.16262799522E+04  0.19078223679E+04  0.95000000000E+03 0.  0.
   -2000013    1    1    2    0    0 -0.20635477145E+03  0.22342205052E+03  0.52405976542E+03  0.11267822958E+04  0.95000000000E+03 0.  0.
<mgrwt>
<rscale>  0 0.21412297E+04</rscale>
<asrwt>0</asrwt>
<pdfrwt beam="1">  1        2 0.39884187E+00 0.21412297E+04</pdfrwt>
<pdfrwt beam="2">  1       -2 0.68020382E-01 0.21412297E+04</pdfrwt>
<totfact> 0.55898415E+00</totfact>
</mgrwt>
</event>
<event>
 4    1  0.1321115E-008  0.3147223E+04  0.7816531E-02  0.8202896E-01
         -2   -1    0    0    0  501 -0.00000000000E+00  0.00000000000E+00  0.70700749612E+03  0.70700749612E+03  0.00000000000E+00 0. -1.
          2   -1    0    0  501    0  0.00000000000E+00 -0.00000000000E+00 -0.35024421469E+04  0.35024421469E+04  0.00000000000E+00 0.  1.
    2000013    1    1    2    0    0  0.81033080965E+03  0.92434308572E+03 -0.17326478823E+04  0.23271473622E+04  0.95000000000E+03 0.  0.
   -2000013    1    1    2    0    0 -0.81033080965E+03 -0.92434308572E+03 -0.10627867684E+04  0.18823022808E+04  0.95000000000E+03 0.  0.
<mgrwt>
<rscale>  0 0.31472228E+04</rscale>
<asrwt>0</asrwt>
<pdfrwt beam="2">  1        2 0.53883725E+00 0.31472228E+04</pdfrwt>
<pdfrwt beam="1">  1       -2 0.10877038E+00 0.31472228E+04</pdfrwt>
<totfact> 0.46183460E-01</totfact>
</mgrwt>
</event>
<event>
 4    1  0.1321115E-008  0.2486610E+04  0.7816531E-02  0.8407771E-01
          2   -1    0    0  501    0  0.00000000000E+00  0.00000000000E+00  0.15873500943E+04  0.15873500943E+04  0.00000000000E+00 0.  1.
         -2   -1    0    0    0  501 -0.00000000000E+00 -0.00000000000E+00 -0.97382893548E+03  0.97382893548E+03  0.00000000000E+00 0. -1.
    2000013    1    1    2    0    0  0.63295639257E+03 -0.48900351352E+03  0.24539868017E+03  0.12658904942E+04  0.95000000000E+03 0.  0.
   -2000013    1    1    2    0    0 -0.63295639257E+03  0.48900351352E+03  0.36812247868E+03  0.12952885356E+04  0.95000000000E+03 0.  0.
<mgrwt>
<rscale>  0 0.24866101E+04</rscale>
<asrwt>0</asrwt>
<pdfrwt beam="1">  1        2 0.24420771E+00 0.24866101E+04</pdfrwt>
<pdfrwt beam="2">  1       -2 0.14981984E+00 0.24866101E+04</pdfrwt>
<totfact> 0.30426127E+00</totfact>
</mgrwt>
</event>
<event>
 4    1  0.1321115E-008  0.2578227E+04  0.7816531E-02  0.8375635E-01
         -2   -1    0    0    0  501 -0.00000000000E+00  0.00000000000E+00  0.10311471121E+04  0.10311471121E+04  0.00000000000E+00 0. -1.
          2   -1    0    0  501    0  0.00000000000E+00 -0.00000000000E+00 -0.16116164941E+04  0.16116164941E+04  0.00000000000E+00 0.  1.
    2000013    1    1    2    0    0 -0.41078599896E+03  0.70800259677E+03  0.16078023234E+02  0.12541017968E+04  0.95000000000E+03 0.  0.
   -2000013    1    1    2    0    0  0.41078599896E+03 -0.70800259677E+03 -0.59654740530E+03  0.13886618093E+04  0.95000000000E+03 0.  0.
<mgrwt>
<rscale>  0 0.25782271E+04</rscale>
<asrwt>0</asrwt>
<pdfrwt beam="2">  1        2 0.24794100E+00 0.25782271E+04</pdfrwt>
<pdfrwt beam="1">  1       -2 0.15863802E+00 0.25782271E+04</pdfrwt>
<totfact> 0.25104217E+00</totfact>
</mgrwt>
</event>
<event>
 4    1  0.1321115E-008  0.2017280E+04  0.7816531E-02  0.8598584E-01
         -2   -1    0    0    0  501 -0.00000000000E+00  0.00000000000E+00  0.12062582784E+04  0.12062582784E+04  0.00000000000E+00 0. -1.
          2   -1    0    0  501    0  0.00000000000E+00 -0.00000000000E+00 -0.84339701725E+03  0.84339701725E+03  0.00000000000E+00 0.  1.
    2000013    1    1    2    0    0  0.46918460027E+01 -0.32273270003E+03  0.76446535921E+02  0.10062417612E+04  0.95000000000E+03 0.  0.
   -2000013    1    1    2    0    0 -0.46918460027E+01  0.32273270003E+03  0.28641472523E+03  0.10434135345E+04  0.95000000000E+03 0.  0.
<mgrwt>
<rscale>  0 0.20172800E+04</rscale>
<asrwt>0</asrwt>
<pdfrwt beam="2">  1        2 0.12975339E+00 0.20172800E+04</pdfrwt>
<pdfrwt beam="1">  1       -2 0.18557820E+00 0.20172800E+04</pdfrwt>
<totfact> 0.49393578E+00</totfact>
</mgrwt>
</event>
<event>
 4    1  0.1321115E-008  0.3070398E+04  0.7816531E-02  0.8223909E-01
         -1   -1    0    0    0  501 -0.00000000000E+00  0.00000000000E+00  0.23571671793E+04  0.23571671793E+04  0.00000000000E+00 0. -1.
          1   -1    0    0  501    0  0.00000000000E+00 -0.00000000000E+00 -0.99985942806E+03  0.99985942806E+03  0.00000000000E+00 0.  1.
    2000013    1    1    2    0    0  0.72246183395E+03 -0.14233579278E+03 -0.36555495291E+03  0.12563204221E+04  0.95000000000E+03 0.  0.
   -2000013    1    1    2    0    0 -0.72246183395E+03  0.14233579278E+03  0.17228627042E+04  0.21007061853E+04  0.95000000000E+03 0.  0.
<mgrwt>
<rscale>  0 0.30703979E+04</rscale>
<asrwt>0</asrwt>
<pdfrwt beam="2">  1        1 0.15382453E+00 0.30703979E+04</pdfrwt>
<pdfrwt beam="1">  1       -1 0.36264110E+00 0.30703979E+04</pdfrwt>
<totfact> 0.16381655E-01</totfact>
</mgrwt>
</event>
<event>
 4    1  0.1321115E-008  0.2326461E+04  0.7816531E-02  0.8467560E-01
         -2   -1    0    0    0  501 -0.00000000000E+00  0.00000000000E+00  0.46249962564E+03  0.46249962564E+03  0.00000000000E+00 0. -1.
          2   -1    0    0  501    0  0.00000000000E+00 -0.00000000000E+00 -0.29256362398E+04  0.29256362398E+04  0.00000000000E+00 0.  1.
    2000013    1    1    2    0    0 -0.55055957403E+03  0.38327237545E+03 -0.12670059783E+04  0.17198307205E+04  0.95000000000E+03 0.  0.
   -2000013    1    1    2    0    0  0.55055957403E+03 -0.38327237545E+03 -0.11961306359E+04  0.16683051449E+04  0.95000000000E+03 0.  0.
<mgrwt>
<rscale>  0 0.23264614E+04</rscale>
<asrwt>0</asrwt>
<pdfrwt beam="2">  1        2 0.45009788E+00 0.23264614E+04</pdfrwt>
<pdfrwt beam="1">  1       -2 0.71153789E-01 0.23264614E+04</pdfrwt>
<totfact> 0.31448082E+00</totfact>
</mgrwt>
</event>
<event>
 4    1  0.1321115E-008  0.1977343E+04  0.7816531E-02  0.8617287E-01
         -2   -1    0    0    0  501 -0.00000000000E+00  0.00000000000E+00  0.66144276966E+03  0.66144276966E+03  0.00000000000E+00 0. -1.
          2   -1    0    0  501    0  0.00000000000E+00 -0.00000000000E+00 -0.14777872362E+04  0.14777872362E+04  0.00000000000E+00 0.  1.
    2000013    1    1    2    0    0  0.15382448842E+03  0.21912924230E+03 -0.47024639625E+03  0.10933029183E+04  0.95000000000E+03 0.  0.
   -2000013    1    1    2    0    0 -0.15382448842E+03 -0.21912924230E+03 -0.34609807025E+03  0.10459270875E+04  0.95000000000E+03 0.  0.
<mgrwt>
<rscale>  0 0.19773434E+04</rscale>
<asrwt>0</asrwt>
<pdfrwt beam="2">  1        2 0.22735188E+00 0.19773434E+04</pdfrwt>
<pdfrwt beam="1">  1       -2 0.10176043E+00 0.19773434E+04</pdfrwt>
<totfact> 0.96380634E+00</totfact>
</mgrwt>
</event>
<event>
 4    1  0.1321115E-008  0.2698140E+04  0.7816531E-02  0.8335609E-01
          2   -1    0    0  501    0  0.00000000000E+00  0.00000000000E+00  0.26535190218E+04  0.26535190218E+04  0.00000000000E+00 0. -1.
         -2   -1    0    0    0  501 -0.00000000000E+00 -0.00000000000E+00 -0.68587758059E+03  0.68587758059E+03  0.00000000000E+00 0.  1.
    2000013    1    1    2    0    0 -0.68012835327E+03 -0.50096498190E+03  0.42488214022E+03  0.13403601468E+04  0.95000000000E+03 0.  0.
   -2000013    1    1    2    0    0  0.68012835327E+03  0.50096498190E+03  0.15427593009E+04  0.19990364556E+04  0.95000000000E+03 0.  0.
<mgrwt>
<rscale>  0 0.26981395E+04</rscale>
<asrwt>0</asrwt>
<pdfrwt beam="1">  1        2 0.40823369E+00 0.26981395E+04</pdfrwt>
<pdfrwt beam="2">  1       -2 0.10551963E+00 0.26981395E+04</pdfrwt>
<totfact> 0.18031493E+00</totfact>
</mgrwt>
</event>
<event>
 4    1  0.1321115E-008  0.2238834E+04  0.7816531E-02  0.8502436E-01
         -2   -1    0    0    0  501 -0.00000000000E+00  0.00000000000E+00  0.56409702429E+03  0.56409702429E+03  0.00000000000E+00 0. -1.
          2   -1    0    0  501    0  0.00000000000E+00 -0.00000000000E+00 -0.22214170165E+04  0.22214170165E+04  0.00000000000E+00 0.  1.
    2000013    1    1    2    0    0 -0.33931801090E+03  0.47035957761E+03 -0.97702498598E+03  0.14810309477E+04  0.95000000000E+03 0.  0.
   -2000013    1    1    2    0    0  0.33931801090E+03 -0.47035957761E+03 -0.68029500626E+03  0.13044830931E+04  0.95000000000E+03 0.  0.
<mgrwt>
<rscale>  0 0.22388343E+04</rscale>
<asrwt>0</asrwt>
<pdfrwt beam="2">  1        2 0.34175647E+00 0.22388343E+04</pdfrwt>
<pdfrwt beam="1">  1       -2 0.86784157E-01 0.22388343E+04</pdfrwt>
<totfact> 0.52574570E+00</totfact>
</mgrwt>
</event>
<event>
 4    1  0.1321115E-008  0.2474639E+04  0.7816531E-02  0.8412077E-01
          2   -1    0    0  501    0  0.00000000000E+00  0.00000000000E+00  0.99894699436E+03  0.99894699436E+03  0.00000000000E+00 0.  1.
         -2   -1    0    0    0  501 -0.00000000000E+00 -0.00000000000E+00 -0.15325733830E+04  0.15325733830E+04  0.00000000000E+00 0. -1.
    2000013    1    1    2    0    0 -0.68323357579E+03  0.39095512273E+03 -0.17081838465E+03  0.12455251694E+04  0.95000000000E+03 0.  0.
   -2000013    1    1    2    0    0  0.68323357579E+03 -0.39095512273E+03 -0.36280800396E+03  0.12859952079E+04  0.95000000000E+03 0.  0.
<mgrwt>
<rscale>  0 0.24746390E+04</rscale>
<asrwt>0</asrwt>
<pdfrwt beam="1">  1        2 0.15368415E+00 0.24746390E+04</pdfrwt>
<pdfrwt beam="2">  1       -2 0.23578052E+00 0.24746390E+04</pdfrwt>
<totfact> 0.17737679E+00</totfact>
</mgrwt>
</event>
<event>
 4    1  0.1321115E-008  0.3093520E+04  0.7816531E-02  0.8217519E-01
         -2   -1    0    0    0  501 -0.00000000000E+00  0.00000000000E+00  0.20989565870E+04  0.20989565870E+04  0.00000000000E+00 0. -1.
          2   -1    0    0  501    0  0.00000000000E+00 -0.00000000000E+00 -0.11398361911E+04  0.11398361911E+04  0.00000000000E+00 0.  1.
    2000013    1    1    2    0    0  0.38543361854E+02  0.63057227598E+03 -0.61392942333E+03  0.12955756724E+04  0.95000000000E+03 0.  0.
   -2000013    1    1    2    0    0 -0.38543361854E+02 -0.63057227598E+03  0.15730498192E+04  0.19432171057E+04  0.95000000000E+03 0.  0.
<mgrwt>
<rscale>  0 0.30935201E+04</rscale>
<asrwt>0</asrwt>
<pdfrwt beam="2">  1        2 0.17535941E+00 0.30935201E+04</pdfrwt>
<pdfrwt beam="1">  1       -2 0.32291640E+00 0.30935201E+04</pdfrwt>
<totfact> 0.40175289E-01</totfact>
</mgrwt>
</event>
<event>
 4    1  0.1321115E-008  0.2786088E+04  0.7816531E-02  0.8307601E-01
          2   -1    0    0  501    0  0.00000000000E+00  0.00000000000E+00  0.32512814056E+04  0.32512814056E+04  0.00000000000E+00 0.  1.
         -2   -1    0    0    0  501 -0.00000000000E+00 -0.00000000000E+00 -0.59686358050E+03  0.59686358050E+03  0.00000000000E+00 0. -1.
    2000013    1    1    2    0    0  0.95905581571E+03 -0.17488005779E+03  0.17362409453E+04  0.22062193255E+04  0.95000000000E+03 0.  0.
   -2000013    1    1    2    0    0 -0.95905581571E+03  0.17488005779E+03  0.91817687987E+03  0.16419256606E+04  0.95000000000E+03 0.  0.
<mgrwt>
<rscale>  0 0.27860879E+04</rscale>
<asrwt>0</asrwt>
<pdfrwt beam="1">  1        2 0.50019713E+00 0.27860879E+04</pdfrwt>
<pdfrwt beam="2">  1       -2 0.91825169E-01 0.27860879E+04</pdfrwt>
<totfact> 0.10542467E+00</totfact>
</mgrwt>
</event>
<event>
 4    1  0.1321115E-008  0.2416149E+04  0.7816531E-02  0.8433482E-01
          2   -1    0    0  501    0  0.00000000000E+00  0.00000000000E+00  0.20736253481E+04  0.20736253481E+04  0.00000000000E+00 0.  1.
         -2   -1    0    0    0  501 -0.00000000000E+00 -0.00000000000E+00 -0.70381265563E+03  0.70381265563E+03  0.00000000000E+00 0. -1.
    2000013    1    1    2    0    0  0.11855343101E+03 -0.64546880319E+03  0.10933683341E+04  0.15901695525E+04  0.95000000000E+03 0.  0.
   -2000013    1    1    2    0    0 -0.11855343101E+03  0.64546880319E+03  0.27644435841E+03  0.11872684512E+04  0.95000000000E+03 0.  0.
<mgrwt>
<rscale>  0 0.24161488E+04</rscale>
<asrwt>0</asrwt>
<pdfrwt beam="1">  1        2 0.31901928E+00 0.24161488E+04</pdfrwt>
<pdfrwt beam="2">  1       -2 0.10827887E+00 0.24161488E+04</pdfrwt>
<totfact> 0.37258978E+00</totfact>
</mgrwt>
</event>
<event>
 4    1  0.1321115E-008  0.2332819E+04  0.7816531E-02  0.8465092E-01
         -4   -1    0    0    0  501 -0.00000000000E+00  0.00000000000E+00  0.51640112051E+03  0.51640112051E+03  0.00000000000E+00 0. -1.
          4   -1    0    0  501    0  0.00000000000E+00 -0.00000000000E+00 -0.26346022956E+04  0.26346022956E+04  0.00000000000E+00 0.  1.
    2000013    1    1    2    0    0  0.66270227556E+02 -0.67291353033E+03 -0.10974768267E+04  0.16012993935E+04  0.95000000000E+03 0.  0.
   -2000013    1    1    2    0    0 -0.66270227556E+02  0.67291353033E+03 -0.10207243483E+04  0.15497040226E+04  0.95000000000E+03 0.  0.
<mgrwt>
<rscale>  0 0.23328194E+04</rscale>
<asrwt>0</asrwt>
<pdfrwt beam="2">  1        4 0.40532343E+00 0.23328194E+04</pdfrwt>
<pdfrwt beam="1">  1       -4 0.79446327E-01 0.23328194E+04</pdfrwt>
<totfact> 0.15954221E-02</totfact>
</mgrwt>
</event>
<event>
 4    1  0.1321115E-008  0.2896166E+04  0.7816531E-02  0.8274019E-01
         -2   -1    0    0    0  501 -0.00000000000E+00  0.00000000000E+00  0.11632010768E+04  0.11632010768E+04  0.00000000000E+00 0. -1.
          2   -1    0    0  501    0  0.00000000000E+00 -0.00000000000E+00 -0.18027360463E+04  0.18027360463E+04  0.00000000000E+00 0.  1.
    2000013    1    1    2    0    0 -0.99671641415E+03 -0.30676115443E+03 -0.65459741232E+03  0.15551668040E+04  0.95000000000E+03 0.  0.
   -2000013    1    1    2    0    0  0.99671641415E+03  0.30676115443E+03  0.15062442763E+02  0.14107703191E+04  0.95000000000E+03 0.  0.
<mgrwt>
<rscale>  0 0.28961661E+04</rscale>
<asrwt>0</asrwt>
<pdfrwt beam="2">  1        2 0.27734401E+00 0.28961661E+04</pdfrwt>
<pdfrwt beam="1">  1       -2 0.17895401E+00 0.28961661E+04</pdfrwt>
<totfact> 0.13689191E+00</totfact>
</mgrwt>
</event>
<event>
 4    1  0.1321115E-008  0.2379278E+04  0.7816531E-02  0.8447302E-01
         -2   -1    0    0    0  501 -0.00000000000E+00  0.00000000000E+00  0.60309892569E+03  0.60309892569E+03  0.00000000000E+00 0. -1.
          2   -1    0    0  501    0  0.00000000000E+00 -0.00000000000E+00 -0.23466158818E+04  0.23466158818E+04  0.00000000000E+00 0.  1.
    2000013    1    1    2    0    0  0.55485312578E+03  0.39895389806E+03 -0.11368315450E+04  0.16315367497E+04  0.95000000000E+03 0.  0.
   -2000013    1    1    2    0    0 -0.55485312578E+03 -0.39895389806E+03 -0.60668541110E+03  0.13181780578E+04  0.95000000000E+03 0.  0.
<mgrwt>
<rscale>  0 0.23792785E+04</rscale>
<asrwt>0</asrwt>
<pdfrwt beam="2">  1        2 0.36101782E+00 0.23792785E+04</pdfrwt>
<pdfrwt beam="1">  1       -2 0.92784451E-01 0.23792785E+04</pdfrwt>
<totfact> 0.37826106E+00</totfact>
</mgrwt>
</event>
<event>
 4    1  0.1321115E-008  0.2262463E+04  0.7816531E-02  0.8492870E-01
          1   -1    0    0  501    0  0.00000000000E+00  0.00000000000E+00  0.17606122043E+04  0.17606122043E+04  0.00000000000E+00 0.  1.
         -1   -1    0    0    0  501 -0.00000000000E+00 -0.00000000000E+00 -0.72684071110E+03  0.72684071110E+03  0.00000000000E+00 0. -1.
    2000013    1    1    2    0    0  0.30598832521E+03  0.36438426137E+03  0.89967127924E+02  0.10663014720E+04  0.95000000000E+03 0.  0.
   -2000013    1    1    2    0    0 -0.30598832521E+03 -0.36438426137E+03  0.94380436526E+03  0.14211514434E+04  0.95000000000E+03 0.  0.
<mgrwt>
<rscale>  0 0.22624629E+04</rscale>
<asrwt>0</asrwt>
<pdfrwt beam="1">  1        1 0.27086342E+00 0.22624629E+04</pdfrwt>
<pdfrwt beam="2">  1       -1 0.11182165E+00 0.22624629E+04</pdfrwt>
<totfact> 0.28839422E+00</totfact>
</mgrwt>
</event>
<event>
 4    1  0.1321115E-008  0.2715335E+04  0.7816531E-02  0.8330046E-01
          2   -1    0    0  501    0  0.00000000000E+00  0.00000000000E+00  0.17684376248E+04  0.17684376248E+04  0.00000000000E+00 0.  1.
         -2   -1    0    0    0  501 -0.00000000000E+00 -0.00000000000E+00 -0.10423106608E+04  0.10423106608E+04  0.00000000000E+00 0. -1.
    2000013    1    1    2    0    0  0.16597009178E+03 -0.60827939896E+03  0.11259904555E+04  0.16024682226E+04  0.95000000000E+03 0.  0.
   -2000013    1    1    2    0    0 -0.16597009178E+03  0.60827939896E+03 -0.39986349157E+03  0.12082800629E+04  0.95000000000E+03 0.  0.
<mgrwt>
<rscale>  0 0.27153353E+04</rscale>
<asrwt>0</asrwt>
<pdfrwt beam="1">  1        2 0.27206733E+00 0.27153353E+04</pdfrwt>
<pdfrwt beam="2">  1       -2 0.16035549E+00 0.27153353E+04</pdfrwt>
<totfact> 0.19712111E+00</totfact>
</mgrwt>
</event>
<event>
 4    1  0.1321115E-008  0.3100452E+04  0.7816531E-02  0.8215614E-01
          2   -1    0    0  501    0  0.00000000000E+00  0.00000000000E+00  0.32614456280E+04  0.32614456280E+04  0.00000000000E+00 0.  1.
         -2   -1    0    0    0  501 -0.00000000000E+00 -0.00000000000E+00 -0.73685120573E+03  0.73685120573E+03  0.00000000000E+00 0. -1.
    2000013    1    1    2    0    0  0.82461150970E+03 -0.90199399853E+03  0.13711341448E+04  0.20678699568E+04  0.95000000000E+03 0.  0.
   -2000013    1    1    2    0    0 -0.82461150970E+03  0.90199399853E+03  0.11534602774E+04  0.19304268769E+04  0.95000000000E+03 0.  0.
<mgrwt>
<rscale>  0 0.31004517E+04</rscale>
<asrwt>0</asrwt>
<pdfrwt beam="1">  1        2 0.50176086E+00 0.31004517E+04</pdfrwt>
<pdfrwt beam="2">  1       -2 0.11336173E+00 0.31004517E+04</pdfrwt>
<totfact> 0.61202883E-01</totfact>
</mgrwt>
</event>
<event>
 4    1  0.1321115E-008  0.2808456E+04  0.7816531E-02  0.8300648E-01
          2   -1    0    0  501    0  0.00000000000E+00  0.00000000000E+00  0.13344863624E+04  0.13344863624E+04  0.00000000000E+00 0.  1.
         -2   -1    0    0    0  501 -0.00000000000E+00 -0.00000000000E+00 -0.14776139837E+04  0.14776139837E+04  0.00000000000E+00 0. -1.
    2000013    1    1    2    0    0 -0.24661330698E+03 -0.73675556991E+03 -0.75489274012E+03  0.14408296020E+04  0.95000000000E+03 0.  0.
   -2000013    1    1    2    0    0  0.24661330698E+03  0.73675556991E+03  0.61176511885E+03  0.13712707441E+04  0.95000000000E+03 0.  0.
<mgrwt>
<rscale>  0 0.28084556E+04</rscale>
<asrwt>0</asrwt>
<pdfrwt beam="1">  1        2 0.20530560E+00 0.28084556E+04</pdfrwt>
<pdfrwt beam="2">  1       -2 0.22732523E+00 0.28084556E+04</pdfrwt>
<totfact> 0.12197766E+00</totfact>
</mgrwt>
</event>
<event>
 4    1  0.1321115E-008  0.3060443E+04  0.7816531E-02  0.8226679E-01
          2   -1    0    0  501    0  0.00000000000E+00  0.00000000000E+00  0.18008219038E+04  0.18008219038E+04  0.00000000000E+00 0.  1.
         -2   -1    0    0    0  501 -0.00000000000E+00 -0.00000000000E+00 -0.13002829970E+04  0.13002829970E+04  0.00000000000E+00 0. -1.
    2000013    1    1    2    0    0  0.94830913073E+03  0.51420873311E+03 -0.28146669499E+03  0.14647267080E+04  0.95000000000E+03 0.  0.
   -2000013    1    1    2    0    0 -0.94830913073E+03 -0.51420873311E+03  0.78200560183E+03  0.16363781928E+04  0.95000000000E+03 0.  0.
<mgrwt>
<rscale>  0 0.30604432E+04</rscale>
<asrwt>0</asrwt>
<pdfrwt beam="1">  1        2 0.27704952E+00 0.30604432E+04</pdfrwt>
<pdfrwt beam="2">  1       -2 0.20004354E+00 0.30604432E+04</pdfrwt>
<totfact> 0.97596409E-01</totfact>
</mgrwt>
</event>
<event>
 4    1  0.1321115E-008  0.2335613E+04  0.7816531E-02  0.8464010E-01
         -2   -1    0    0    0  501 -0.00000000000E+00  0.00000000000E+00  0.10669218475E+04  0.10669218475E+04  0.00000000000E+00 0. -1.
          2   -1    0    0  501    0  0.00000000000E+00 -0.00000000000E+00 -0.12782308516E+04  0.12782308516E+04  0.00000000000E+00 0.  1.
    2000013    1    1    2    0    0  0.31283989939E+03  0.53807983655E+03  0.16725278327E+03  0.11479861526E+04  0.95000000000E+03 0.  0.
   -2000013    1    1    2    0    0 -0.31283989939E+03 -0.53807983655E+03 -0.37856178736E+03  0.11971665465E+04  0.95000000000E+03 0.  0.
<mgrwt>
<rscale>  0 0.23356133E+04</rscale>
<asrwt>0</asrwt>
<pdfrwt beam="2">  1        2 0.19665090E+00 0.23356133E+04</pdfrwt>
<pdfrwt beam="1">  1       -2 0.16414182E+00 0.23356133E+04</pdfrwt>
<totfact> 0.36146870E+00</totfact>
</mgrwt>
</event>
<event>
 4    1  0.1321115E-008  0.2740813E+04  0.7816531E-02  0.8321883E-01
          1   -1    0    0  501    0  0.00000000000E+00  0.00000000000E+00  0.72374029441E+03  0.72374029441E+03  0.00000000000E+00 0.  1.
         -1   -1    0    0    0  501 -0.00000000000E+00 -0.00000000000E+00 -0.25948718568E+04  0.25948718568E+04  0.00000000000E+00 0. -1.
    2000013    1    1    2    0    0  0.77684904639E+03 -0.23329162438E+03 -0.25320627788E+03  0.12745716308E+04  0.95000000000E+03 0.  0.
   -2000013    1    1    2    0    0 -0.77684904639E+03  0.23329162438E+03 -0.16179252846E+04  0.20440405205E+04  0.95000000000E+03 0.  0.
<mgrwt>
<rscale>  0 0.27408125E+04</rscale>
<asrwt>0</asrwt>
<pdfrwt beam="1">  1        1 0.11134466E+00 0.27408125E+04</pdfrwt>
<pdfrwt beam="2">  1       -1 0.39921105E+00 0.27408125E+04</pdfrwt>
<totfact> 0.16307828E-01</totfact>
</mgrwt>
</event>
<event>
 4    1  0.1321115E-008  0.2159838E+04  0.7816531E-02  0.8535333E-01
          1   -1    0    0  501    0  0.00000000000E+00  0.00000000000E+00  0.25080273796E+04  0.25080273796E+04  0.00000000000E+00 0. -1.
         -1   -1    0    0    0  501 -0.00000000000E+00 -0.00000000000E+00 -0.46499714520E+03  0.46499714520E+03  0.00000000000E+00 0.  1.
    2000013    1    1    2    0    0 -0.51135028118E+03  0.47129556803E+02  0.10145960295E+04  0.14817575403E+04  0.95000000000E+03 0.  0.
   -2000013    1    1    2    0    0  0.51135028118E+03 -0.47129556803E+02  0.10284342048E+04  0.14912669844E+04  0.95000000000E+03 0.  0.
<mgrwt>
<rscale>  0 0.21598385E+04</rscale>
<asrwt>0</asrwt>
<pdfrwt beam="1">  1        1 0.38585036E+00 0.21598385E+04</pdfrwt>
<pdfrwt beam="2">  1       -1 0.71538024E-01 0.21598385E+04</pdfrwt>
<totfact> 0.24142842E+00</totfact>
</mgrwt>
</event>
<event>
 4    1  0.1321115E-008  0.2327546E+04  0.7816531E-02  0.8467139E-01
          2   -1    0    0  501    0  0.00000000000E+00  0.00000000000E+00  0.45333434243E+04  0.45333434243E+04  0.00000000000E+00 0.  1.
         -2   -1    0    0    0  501 -0.00000000000E+00 -0.00000000000E+00 -0.29875688725E+03  0.29875688725E+03  0.00000000000E+00 0. -1.
    2000013    1    1    2    0    0  0.66408910066E+03 -0.10109514265E+03  0.20650605596E+04  0.23702762869E+04  0.95000000000E+03 0.  0.
   -2000013    1    1    2    0    0 -0.66408910066E+03  0.10109514265E+03  0.21695259775E+04  0.24618240247E+04  0.95000000000E+03 0.  0.
<mgrwt>
<rscale>  0 0.23275460E+04</rscale>
<asrwt>0</asrwt>
<pdfrwt beam="1">  1        2 0.69743740E+00 0.23275460E+04</pdfrwt>
<pdfrwt beam="2">  1       -2 0.45962601E-01 0.23275460E+04</pdfrwt>
<totfact> 0.46758439E-01</totfact>
</mgrwt>
</event>
<event>
 4    1  0.1321115E-008  0.2420566E+04  0.7816531E-02  0.8431844E-01
          2   -1    0    0  501    0  0.00000000000E+00  0.00000000000E+00  0.14204733395E+04  0.14204733395E+04  0.00000000000E+00 0.  1.
         -2   -1    0    0    0  501 -0.00000000000E+00 -0.00000000000E+00 -0.10311948681E+04  0.10311948681E+04  0.00000000000E+00 0. -1.
    2000013    1    1    2    0    0 -0.26585137020E+03 -0.69167312325E+03  0.78288661977E+02  0.12073598366E+04  0.95000000000E+03 0.  0.
   -2000013    1    1    2    0    0  0.26585137020E+03  0.69167312325E+03  0.31098980937E+03  0.12443083709E+04  0.95000000000E+03 0.  0.
<mgrwt>
<rscale>  0 0.24205659E+04</rscale>
<asrwt>0</asrwt>
<pdfrwt beam="1">  1        2 0.21853436E+00 0.24205659E+04</pdfrwt>
<pdfrwt beam="2">  1       -2 0.15864537E+00 0.24205659E+04</pdfrwt>
<totfact> 0.32601818E+00</totfact>
</mgrwt>
</event>
<event>
 4    1  0.1321115E-008  0.2392148E+04  0.7816531E-02  0.8442449E-01
         -2   -1    0    0    0  501 -0.00000000000E+00  0.00000000000E+00  0.12525133743E+04  0.12525133743E+04  0.00000000000E+00 0. -1.
          2   -1    0    0  501    0  0.00000000000E+00 -0.00000000000E+00 -0.11421779303E+04  0.11421779303E+04  0.00000000000E+00 0.  1.
    2000013    1    1    2    0    0  0.52861033021E+03 -0.40456831145E+03  0.34700593190E+03  0.12107921030E+04  0.95000000000E+03 0.  0.
   -2000013    1    1    2    0    0 -0.52861033021E+03  0.40456831145E+03 -0.23667048794E+03  0.11838992017E+04  0.95000000000E+03 0.  0.
<mgrwt>
<rscale>  0 0.23921481E+04</rscale>
<asrwt>0</asrwt>
<pdfrwt beam="2">  1        2 0.17571968E+00 0.23921481E+04</pdfrwt>
<pdfrwt beam="1">  1       -2 0.19269437E+00 0.23921481E+04</pdfrwt>
<totfact> 0.27460619E+00</totfact>
</mgrwt>
</event>
<event>
 4    1  0.1321115E-008  0.2990969E+04  0.7816531E-02  0.8246314E-01
          1   -1    0    0  501    0  0.00000000000E+00  0.00000000000E+00  0.11457557629E+04  0.11457557629E+04  0.00000000000E+00 0.  1.
         -1   -1    0    0    0  501 -0.00000000000E+00 -0.00000000000E+00 -0.19519638238E+04  0.19519638238E+04  0.00000000000E+00 0. -1.
    2000013    1    1    2    0    0 -0.87180778644E+03  0.75520338482E+03 -0.34102447491E+03  0.15327030572E+04  0.95000000000E+03 0.  0.
   -2000013    1    1    2    0    0  0.87180778644E+03 -0.75520338482E+03 -0.46518358596E+03  0.15650165295E+04  0.95000000000E+03 0.  0.
<mgrwt>
<rscale>  0 0.29909689E+04</rscale>
<asrwt>0</asrwt>
<pdfrwt beam="1">  1        1 0.17627012E+00 0.29909689E+04</pdfrwt>
<pdfrwt beam="2">  1       -1 0.30030212E+00 0.29909689E+04</pdfrwt>
<totfact> 0.32805515E-01</totfact>
</mgrwt>
</event>
<event>
 4    1  0.1321115E-008  0.2118260E+04  0.7816531E-02  0.8553242E-01
          2   -1    0    0  501    0  0.00000000000E+00  0.00000000000E+00  0.81154848236E+03  0.81154848236E+03  0.00000000000E+00 0.  1.
         -2   -1    0    0    0  501 -0.00000000000E+00 -0.00000000000E+00 -0.13822418553E+04  0.13822418553E+04  0.00000000000E+00 0. -1.
    2000013    1    1    2    0    0 -0.32455532506E+03  0.78980827609E+02  0.54503668258E+02  0.10084863807E+04  0.95000000000E+03 0.  0.
   -2000013    1    1    2    0    0  0.32455532506E+03 -0.78980827609E+02 -0.62519704123E+03  0.11853039570E+04  0.95000000000E+03 0.  0.
<mgrwt>
<rscale>  0 0.21182599E+04</rscale>
<asrwt>0</asrwt>
<pdfrwt beam="1">  1        2 0.12485361E+00 0.21182599E+04</pdfrwt>
<pdfrwt beam="2">  1       -2 0.21265259E+00 0.21182599E+04</pdfrwt>
<totfact> 0.34219670E+00</totfact>
</mgrwt>
</event>
<event>
 4    1  0.1321115E-008  0.3856983E+04  0.7816531E-02  0.8034036E-01
          2   -1    0    0  501    0  0.00000000000E+00  0.00000000000E+00  0.12263569093E+04  0.12263569093E+04  0.00000000000E+00 0.  1.
         -2   -1    0    0    0  501 -0.00000000000E+00 -0.00000000000E+00 -0.30326248179E+04  0.30326248179E+04  0.00000000000E+00 0. -1.
    2000013    1    1    2    0    0  0.67158086652E+02 -0.16374117404E+04 -0.50354295773E+03  0.19600211546E+04  0.95000000000E+03 0.  0.
   -2000013    1    1    2    0    0 -0.67158086652E+02  0.16374117404E+04 -0.13027249509E+04  0.22989605725E+04  0.95000000000E+03 0.  0.
<mgrwt>
<rscale>  0 0.38569835E+04</rscale>
<asrwt>0</asrwt>
<pdfrwt beam="1">  1        2 0.18867029E+00 0.38569835E+04</pdfrwt>
<pdfrwt beam="2">  1       -2 0.46655766E+00 0.38569835E+04</pdfrwt>
<totfact> 0.39364293E-02</totfact>
</mgrwt>
</event>
<event>
 4    1  0.1321115E-008  0.2597167E+04  0.7816531E-02  0.8369164E-01
          2   -1    0    0  501    0  0.00000000000E+00  0.00000000000E+00  0.19595128828E+04  0.19595128828E+04  0.00000000000E+00 0.  1.
         -2   -1    0    0    0  501 -0.00000000000E+00 -0.00000000000E+00 -0.86058091883E+03  0.86058091883E+03  0.00000000000E+00 0. -1.
    2000013    1    1    2    0    0  0.73266561984E+03 -0.37809249707E+03  0.19918285360E+03  0.12735488432E+04  0.95000000000E+03 0.  0.
   -2000013    1    1    2    0    0 -0.73266561984E+03  0.37809249707E+03  0.89974911035E+03  0.15465449584E+04  0.95000000000E+03 0.  0.
<mgrwt>
<rscale>  0 0.25971672E+04</rscale>
<asrwt>0</asrwt>
<pdfrwt beam="1">  1        2 0.30146352E+00 0.25971672E+04</pdfrwt>
<pdfrwt beam="2">  1       -2 0.13239706E+00 0.25971672E+04</pdfrwt>
<totfact> 0.25814624E+00</totfact>
</mgrwt>
</event>
<event>
 4    1  0.1321115E-008  0.2214384E+04  0.7816531E-02  0.8512465E-01
         -2   -1    0    0    0  501 -0.00000000000E+00  0.00000000000E+00  0.77758096377E+03  0.77758096377E+03  0.00000000000E+00 0. -1.
          2   -1    0    0  501    0  0.00000000000E+00 -0.00000000000E+00 -0.15765225956E+04  0.15765225956E+04  0.00000000000E+00 0.  1.
    2000013    1    1    2    0    0 -0.43770813724E+03 -0.23617758607E+03 -0.69255725347E+03  0.12765201976E+04  0.95000000000E+03 0.  0.
   -2000013    1    1    2    0    0  0.43770813724E+03  0.23617758607E+03 -0.10638437835E+03  0.10775833618E+04  0.95000000000E+03 0.  0.
<mgrwt>
<rscale>  0 0.22143839E+04</rscale>
<asrwt>0</asrwt>
<pdfrwt beam="2">  1        2 0.24254194E+00 0.22143839E+04</pdfrwt>
<pdfrwt beam="1">  1       -2 0.11962784E+00 0.22143839E+04</pdfrwt>
<totfact> 0.56166421E+00</totfact>
</mgrwt>
</event>
<event>
 4    1  0.1321115E-008  0.2575357E+04  0.7816531E-02  0.8376620E-01
         -2   -1    0    0    0  501 -0.00000000000E+00  0.00000000000E+00  0.64395074053E+03  0.64395074053E+03  0.00000000000E+00 0.  1.
          2   -1    0    0  501    0  0.00000000000E+00 -0.00000000000E+00 -0.25749116785E+04  0.25749116785E+04  0.00000000000E+00 0. -1.
    2000013    1    1    2    0    0 -0.42526038028E+03 -0.73736110307E+03 -0.11857858137E+04  0.17415900159E+04  0.95000000000E+03 0.  0.
   -2000013    1    1    2    0    0  0.42526038028E+03  0.73736110307E+03 -0.74517512426E+03  0.14772724032E+04  0.95000000000E+03 0.  0.
<mgrwt>
<rscale>  0 0.25753573E+04</rscale>
<asrwt>0</asrwt>
<pdfrwt beam="2">  1        2 0.39614026E+00 0.25753573E+04</pdfrwt>
<pdfrwt beam="1">  1       -2 0.99069345E-01 0.25753573E+04</pdfrwt>
<totfact> 0.23559663E+00</totfact>
</mgrwt>
</event>
<event>
 4    1  0.1321115E-008  0.2803609E+04  0.7816531E-02  0.8302149E-01
          2   -1    0    0  501    0  0.00000000000E+00  0.00000000000E+00  0.39733902207E+04  0.39733902207E+04  0.00000000000E+00 0.  1.
         -2   -1    0    0    0  501 -0.00000000000E+00 -0.00000000000E+00 -0.49455401781E+03  0.49455401781E+03  0.00000000000E+00 0. -1.
    2000013    1    1    2    0    0 -0.88258644034E+03 -0.50171146353E+03  0.14548612487E+04  0.20124101148E+04  0.95000000000E+03 0.  0.
   -2000013    1    1    2    0    0  0.88258644034E+03  0.50171146353E+03  0.20239749542E+04  0.24555341237E+04  0.95000000000E+03 0.  0.
<mgrwt>
<rscale>  0 0.28036092E+04</rscale>
<asrwt>0</asrwt>
<pdfrwt beam="1">  1        2 0.61129078E+00 0.28036092E+04</pdfrwt>
<pdfrwt beam="2">  1       -2 0.76085236E-01 0.28036092E+04</pdfrwt>
<totfact> 0.48392229E-01</totfact>
</mgrwt>
</event>
<event>
 4    1  0.1321115E-008  0.2555862E+04  0.7816531E-02  0.8383350E-01
          2   -1    0    0  501    0  0.00000000000E+00  0.00000000000E+00  0.16512742805E+04  0.16512742805E+04  0.00000000000E+00 0.  1.
         -2   -1    0    0    0  501 -0.00000000000E+00 -0.00000000000E+00 -0.98899856379E+03  0.98899856379E+03  0.00000000000E+00 0. -1.
    2000013    1    1    2    0    0  0.62699173033E+03 -0.54236186198E+03  0.54617828578E+03  0.13740763221E+04  0.95000000000E+03 0.  0.
   -2000013    1    1    2    0    0 -0.62699173033E+03  0.54236186198E+03  0.11609743094E+03  0.12661965221E+04  0.95000000000E+03 0.  0.
<mgrwt>
<rscale>  0 0.25558622E+04</rscale>
<asrwt>0</asrwt>
<pdfrwt beam="1">  1        2 0.25404220E+00 0.25558622E+04</pdfrwt>
<pdfrwt beam="2">  1       -2 0.15215362E+00 0.25558622E+04</pdfrwt>
<totfact> 0.26740629E+00</totfact>
</mgrwt>
</event>
<event>
 4    1  0.1321115E-008  0.2088481E+04  0.7816531E-02  0.8566335E-01
          2   -1    0    0  501    0  0.00000000000E+00  0.00000000000E+00  0.19833528730E+04  0.19833528730E+04  0.00000000000E+00 0.  1.
         -2   -1    0    0    0  501 -0.00000000000E+00 -0.00000000000E+00 -0.54979546673E+03  0.54979546673E+03  0.00000000000E+00 0. -1.
    2000013    1    1    2    0    0 -0.26039936648E+03 -0.34649355107E+03  0.72712817529E+03  0.12724311354E+04  0.95000000000E+03 0.  0.
   -2000013    1    1    2    0    0  0.26039936648E+03  0.34649355107E+03  0.70642923101E+03  0.12607172044E+04  0.95000000000E+03 0.  0.
<mgrwt>
<rscale>  0 0.20884812E+04</rscale>
<asrwt>0</asrwt>
<pdfrwt beam="1">  1        2 0.30513121E+00 0.20884812E+04</pdfrwt>
<pdfrwt beam="2">  1       -2 0.84583919E-01 0.20884812E+04</pdfrwt>
<totfact> 0.76703717E+00</totfact>
</mgrwt>
</event>
<event>
 4    1  0.1321115E-008  0.2454676E+04  0.7816531E-02  0.8419313E-01
          2   -1    0    0  501    0  0.00000000000E+00  0.00000000000E+00  0.28919682530E+04  0.28919682530E+04  0.00000000000E+00 0.  1.
         -2   -1    0    0    0  501 -0.00000000000E+00 -0.00000000000E+00 -0.52087648856E+03  0.52087648856E+03  0.00000000000E+00 0. -1.
    2000013    1    1    2    0    0  0.70805311235E+03 -0.47161629160E+02  0.16258590687E+04  0.20123322640E+04  0.95000000000E+03 0.  0.
   -2000013    1    1    2    0    0 -0.70805311235E+03  0.47161629160E+02  0.74523269570E+03  0.14005124776E+04  0.95000000000E+03 0.  0.
<mgrwt>
<rscale>  0 0.24546758E+04</rscale>
<asrwt>0</asrwt>
<pdfrwt beam="1">  1        2 0.44491818E+00 0.24546758E+04</pdfrwt>
<pdfrwt beam="2">  1       -2 0.80134846E-01 0.24546758E+04</pdfrwt>
<totfact> 0.25053936E+00</totfact>
</mgrwt>
</event>
<event>
 4    1  0.1321115E-008  0.1994896E+04  0.7816531E-02  0.8609011E-01
          2   -1    0    0  501    0  0.00000000000E+00  0.00000000000E+00  0.10075542920E+04  0.10075542920E+04  0.00000000000E+00 0.  1.
         -2   -1    0    0    0  501 -0.00000000000E+00 -0.00000000000E+00 -0.98744320319E+03  0.98744320319E+03  0.00000000000E+00 0. -1.
    2000013    1    1    2    0    0  0.12984450407E+03  0.24775804586E+03 -0.10894206891E+03  0.99629916135E+03  0.95000000000E+03 0.  0.
   -2000013    1    1    2    0    0 -0.12984450407E+03 -0.24775804586E+03  0.12905315772E+03  0.99869833385E+03  0.95000000000E+03 0.  0.
<mgrwt>
<rscale>  0 0.19948961E+04</rscale>
<asrwt>0</asrwt>
<pdfrwt beam="1">  1        2 0.15500835E+00 0.19948961E+04</pdfrwt>
<pdfrwt beam="2">  1       -2 0.15191434E+00 0.19948961E+04</pdfrwt>
<totfact> 0.67057518E+00</totfact>
</mgrwt>
</event>
<event>
 4    1  0.1321115E-008  0.2529890E+04  0.7816531E-02  0.8392414E-01
          2   -1    0    0  501    0  0.00000000000E+00  0.00000000000E+00  0.26991431585E+04  0.26991431585E+04  0.00000000000E+00 0.  1.
         -2   -1    0    0    0  501 -0.00000000000E+00 -0.00000000000E+00 -0.59281269700E+03  0.59281269700E+03  0.00000000000E+00 0. -1.
    2000013    1    1    2    0    0  0.48264951985E+03  0.61396549161E+03  0.66785734470E+03  0.13994418947E+04  0.95000000000E+03 0.  0.
   -2000013    1    1    2    0    0 -0.48264951985E+03 -0.61396549161E+03  0.14384731168E+04  0.18925139607E+04  0.95000000000E+03 0.  0.
<mgrwt>
<rscale>  0 0.25298904E+04</rscale>
<asrwt>0</asrwt>
<pdfrwt beam="1">  1        2 0.41525279E+00 0.25298904E+04</pdfrwt>
<pdfrwt beam="2">  1       -2 0.91201955E-01 0.25298904E+04</pdfrwt>
<totfact> 0.24238197E+00</totfact>
</mgrwt>
</event>
<event>
 4    1  0.1321115E-008  0.2137358E+04  0.7816531E-02  0.8544963E-01
          2   -1    0    0  501    0  0.00000000000E+00  0.00000000000E+00  0.19127895237E+04  0.19127895237E+04  0.00000000000E+00 0.  1.
         -2   -1    0    0    0  501 -0.00000000000E+00 -0.00000000000E+00 -0.59707314485E+03  0.59707314485E+03  0.00000000000E+00 0. -1.
    2000013    1    1    2    0    0 -0.42759561802E+03 -0.22811771794E+03  0.57735728396E+03  0.12127312724E+04  0.95000000000E+03 0.  0.
   -2000013    1    1    2    0    0  0.42759561802E+03  0.22811771794E+03  0.73835909491E+03  0.12971313961E+04  0.95000000000E+03 0.  0.
<mgrwt>
<rscale>  0 0.21373584E+04</rscale>
<asrwt>0</asrwt>
<pdfrwt beam="1">  1        2 0.29427531E+00 0.21373584E+04</pdfrwt>
<pdfrwt beam="2">  1       -2 0.91857408E-01 0.21373584E+04</pdfrwt>
<totfact> 0.69177166E+00</totfact>
</mgrwt>
</event>
<event>
 4    1  0.1321115E-008  0.2245257E+04  0.7816531E-02  0.8499824E-01
         -2   -1    0    0    0  501 -0.00000000000E+00  0.00000000000E+00  0.82296015949E+03  0.82296015949E+03  0.00000000000E+00 0. -1.
          2   -1    0    0  501    0  0.00000000000E+00 -0.00000000000E+00 -0.15314160836E+04  0.15314160836E+04  0.00000000000E+00 0.  1.
    2000013    1    1    2    0    0 -0.54509451684E+03  0.51132792082E+01 -0.96007685062E+02  0.10994869956E+04  0.95000000000E+03 0.  0.
   -2000013    1    1    2    0    0  0.54509451684E+03 -0.51132792082E+01 -0.61244823902E+03  0.12548892475E+04  0.95000000000E+03 0.  0.
<mgrwt>
<rscale>  0 0.22452567E+04</rscale>
<asrwt>0</asrwt>
<pdfrwt beam="2">  1        2 0.23560247E+00 0.22452567E+04</pdfrwt>
<pdfrwt beam="1">  1       -2 0.12660926E+00 0.22452567E+04</pdfrwt>
<totfact> 0.51533886E+00</totfact>
</mgrwt>
</event>
<event>
 4    1  0.1321115E-008  0.3588958E+04  0.7816531E-02  0.8093026E-01
          2   -1    0    0  501    0  0.00000000000E+00  0.00000000000E+00  0.25054213084E+04  0.25054213084E+04  0.00000000000E+00 0.  1.
         -2   -1    0    0    0  501 -0.00000000000E+00 -0.00000000000E+00 -0.12852745022E+04  0.12852745022E+04  0.00000000000E+00 0. -1.
    2000013    1    1    2    0    0  0.85270899660E+03 -0.12323374191E+04  0.32688680157E+03  0.18041959784E+04  0.95000000000E+03 0.  0.
   -2000013    1    1    2    0    0 -0.85270899660E+03  0.12323374191E+04  0.89326000466E+03  0.19864998322E+04  0.95000000000E+03 0.  0.
<mgrwt>
<rscale>  0 0.35889576E+04</rscale>
<asrwt>0</asrwt>
<pdfrwt beam="1">  1        2 0.38544943E+00 0.35889576E+04</pdfrwt>
<pdfrwt beam="2">  1       -2 0.19773454E+00 0.35889576E+04</pdfrwt>
<totfact> 0.38804087E-01</totfact>
</mgrwt>
</event>
<event>
 4    1  0.1321115E-008  0.3273739E+04  0.7816531E-02  0.8169610E-01
         -1   -1    0    0    0  501 -0.00000000000E+00  0.00000000000E+00  0.82285488162E+03  0.82285488162E+03  0.00000000000E+00 0. -1.
          1   -1    0    0  501    0  0.00000000000E+00 -0.00000000000E+00 -0.32561525862E+04  0.32561525862E+04  0.00000000000E+00 0.  1.
    2000013    1    1    2    0    0  0.95487247226E+03 -0.39218654594E+03 -0.16584552429E+03  0.14126558190E+04  0.95000000000E+03 0.  0.
   -2000013    1    1    2    0    0 -0.95487247226E+03  0.39218654594E+03 -0.22674521803E+04  0.26663516488E+04  0.95000000000E+03 0.  0.
<mgrwt>
<rscale>  0 0.32737386E+04</rscale>
<asrwt>0</asrwt>
<pdfrwt beam="2">  1        1 0.50094655E+00 0.32737386E+04</pdfrwt>
<pdfrwt beam="1">  1       -1 0.12659306E+00 0.32737386E+04</pdfrwt>
<totfact> 0.17363783E-01</totfact>
</mgrwt>
</event>
<event>
 4    1  0.1321115E-008  0.3491961E+04  0.7816531E-02  0.8115698E-01
         -2   -1    0    0    0  501 -0.00000000000E+00  0.00000000000E+00  0.19766886813E+04  0.19766886813E+04  0.00000000000E+00 0. -1.
          2   -1    0    0  501    0  0.00000000000E+00 -0.00000000000E+00 -0.15421989587E+04  0.15421989587E+04  0.00000000000E+00 0.  1.
    2000013    1    1    2    0    0 -0.14068473359E+04  0.33130528403E+03  0.45775789752E+03  0.17891408303E+04  0.95000000000E+03 0.  0.
   -2000013    1    1    2    0    0  0.14068473359E+04 -0.33130528403E+03 -0.23268174857E+02  0.17297468097E+04  0.95000000000E+03 0.  0.
<mgrwt>
<rscale>  0 0.34919606E+04</rscale>
<asrwt>0</asrwt>
<pdfrwt beam="2">  1        2 0.23726138E+00 0.34919606E+04</pdfrwt>
<pdfrwt beam="1">  1       -2 0.30410595E+00 0.34919606E+04</pdfrwt>
<totfact> 0.29633643E-01</totfact>
</mgrwt>
</event>
<event>
 4    1  0.1321115E-008  0.3568883E+04  0.7816531E-02  0.8097657E-01
          2   -1    0    0  501    0  0.00000000000E+00  0.00000000000E+00  0.19987400471E+04  0.19987400471E+04  0.00000000000E+00 0.  1.
         -2   -1    0    0    0  501 -0.00000000000E+00 -0.00000000000E+00 -0.15931197871E+04  0.15931197871E+04  0.00000000000E+00 0. -1.
    2000013    1    1    2    0    0  0.11023071691E+04  0.47297716079E+03  0.11268406799E+04  0.19002785079E+04  0.95000000000E+03 0.  0.
   -2000013    1    1    2    0    0 -0.11023071691E+04 -0.47297716079E+03 -0.72122041985E+03  0.16915813264E+04  0.95000000000E+03 0.  0.
<mgrwt>
<rscale>  0 0.35688835E+04</rscale>
<asrwt>0</asrwt>
<pdfrwt beam="1">  1        2 0.30749847E+00 0.35688835E+04</pdfrwt>
<pdfrwt beam="2">  1       -2 0.24509535E+00 0.35688835E+04</pdfrwt>
<totfact> 0.37674027E-01</totfact>
</mgrwt>
</event>
<event>
 4    1  0.1321115E-008  0.2413659E+04  0.7816531E-02  0.8434407E-01
         -2   -1    0    0    0  501 -0.00000000000E+00  0.00000000000E+00  0.48066359446E+03  0.48066359446E+03  0.00000000000E+00 0. -1.
          2   -1    0    0  501    0  0.00000000000E+00 -0.00000000000E+00 -0.30300568527E+04  0.30300568527E+04  0.00000000000E+00 0.  1.
    2000013    1    1    2    0    0  0.46469123547E+03 -0.58075838781E+03 -0.12356739762E+04  0.17270229949E+04  0.95000000000E+03 0.  0.
   -2000013    1    1    2    0    0 -0.46469123547E+03  0.58075838781E+03 -0.13137192820E+04  0.17836974523E+04  0.95000000000E+03 0.  0.
<mgrwt>
<rscale>  0 0.24136595E+04</rscale>
<asrwt>0</asrwt>
<pdfrwt beam="2">  1        2 0.46616259E+00 0.24136595E+04</pdfrwt>
<pdfrwt beam="1">  1       -2 0.73948245E-01 0.24136595E+04</pdfrwt>
<totfact> 0.24681118E+00</totfact>
</mgrwt>
</event>
<event>
 4    1  0.1321115E-008  0.2858648E+04  0.7816531E-02  0.8285288E-01
          2   -1    0    0  501    0  0.00000000000E+00  0.00000000000E+00  0.21463436020E+04  0.21463436020E+04  0.00000000000E+00 0.  1.
         -2   -1    0    0    0  501 -0.00000000000E+00 -0.00000000000E+00 -0.95183605181E+03  0.95183605181E+03  0.00000000000E+00 0. -1.
    2000013    1    1    2    0    0  0.84664715376E+03  0.29287898366E+03  0.12272322037E+04  0.17919789016E+04  0.95000000000E+03 0.  0.
   -2000013    1    1    2    0    0 -0.84664715376E+03 -0.29287898366E+03 -0.32724653534E+02  0.13062007522E+04  0.95000000000E+03 0.  0.
<mgrwt>
<rscale>  0 0.28586481E+04</rscale>
<asrwt>0</asrwt>
<pdfrwt beam="1">  1        2 0.33020671E+00 0.28586481E+04</pdfrwt>
<pdfrwt beam="2">  1       -2 0.14643632E+00 0.28586481E+04</pdfrwt>
<totfact> 0.15304259E+00</totfact>
</mgrwt>
</event>
<event>
 4    1  0.1321115E-008  0.2979255E+04  0.7816531E-02  0.8249680E-01
         -2   -1    0    0    0  501 -0.00000000000E+00  0.00000000000E+00  0.20175641337E+04  0.20175641337E+04  0.00000000000E+00 0. -1.
          2   -1    0    0  501    0  0.00000000000E+00 -0.00000000000E+00 -0.10998361043E+04  0.10998361043E+04  0.00000000000E+00 0.  1.
    2000013    1    1    2    0    0  0.39258728375E+03  0.93408643768E+03 -0.10447494035E+03  0.13928593833E+04  0.95000000000E+03 0.  0.
   -2000013    1    1    2    0    0 -0.39258728375E+03 -0.93408643768E+03  0.10222029698E+04  0.17245408548E+04  0.95000000000E+03 0.  0.
<mgrwt>
<rscale>  0 0.29792549E+04</rscale>
<asrwt>0</asrwt>
<pdfrwt beam="2">  1        2 0.16920555E+00 0.29792549E+04</pdfrwt>
<pdfrwt beam="1">  1       -2 0.31039448E+00 0.29792549E+04</pdfrwt>
<totfact> 0.51271039E-01</totfact>
</mgrwt>
</event>
<event>
 4    1  0.1321115E-008  0.2900626E+04  0.7816531E-02  0.8272691E-01
          2   -1    0    0  501    0  0.00000000000E+00  0.00000000000E+00  0.17460804427E+04  0.17460804427E+04  0.00000000000E+00 0.  1.
         -2   -1    0    0    0  501 -0.00000000000E+00 -0.00000000000E+00 -0.12046457585E+04  0.12046457585E+04  0.00000000000E+00 0. -1.
    2000013    1    1    2    0    0 -0.80855826632E+03  0.70865545890E+03  0.48639190137E+03  0.15149376592E+04  0.95000000000E+03 0.  0.
   -2000013    1    1    2    0    0  0.80855826632E+03 -0.70865545890E+03  0.55042782774E+02  0.14357885420E+04  0.95000000000E+03 0.  0.
<mgrwt>
<rscale>  0 0.29006264E+04</rscale>
<asrwt>0</asrwt>
<pdfrwt beam="1">  1        2 0.26862776E+00 0.29006264E+04</pdfrwt>
<pdfrwt beam="2">  1       -2 0.18533012E+00 0.29006264E+04</pdfrwt>
<totfact> 0.13300923E+00</totfact>
</mgrwt>
</event>
<event>
 4    1  0.1321115E-008  0.2088420E+04  0.7816531E-02  0.8566362E-01
          2   -1    0    0  501    0  0.00000000000E+00  0.00000000000E+00  0.28546594258E+04  0.28546594258E+04  0.00000000000E+00 0.  1.
         -2   -1    0    0    0  501 -0.00000000000E+00 -0.00000000000E+00 -0.38196291732E+03  0.38196291732E+03  0.00000000000E+00 0. -1.
    2000013    1    1    2    0    0  0.39862172844E+03 -0.11145702735E+03  0.10369594763E+04  0.14659832560E+04  0.95000000000E+03 0.  0.
   -2000013    1    1    2    0    0 -0.39862172844E+03  0.11145702735E+03  0.14357370322E+04  0.17706390872E+04  0.95000000000E+03 0.  0.
<mgrwt>
<rscale>  0 0.20884195E+04</rscale>
<asrwt>0</asrwt>
<pdfrwt beam="1">  1        2 0.43917836E+00 0.20884195E+04</pdfrwt>
<pdfrwt beam="2">  1       -2 0.58763528E-01 0.20884195E+04</pdfrwt>
<totfact> 0.53542419E+00</totfact>
</mgrwt>
</event>
<event>
 4    1  0.1321115E-008  0.2258561E+04  0.7816531E-02  0.8494441E-01
          2   -1    0    0  501    0  0.00000000000E+00  0.00000000000E+00  0.29054472384E+04  0.29054472384E+04  0.00000000000E+00 0.  1.
         -2   -1    0    0    0  501 -0.00000000000E+00 -0.00000000000E+00 -0.43892536871E+03  0.43892536871E+03  0.00000000000E+00 0. -1.
    2000013    1    1    2    0    0  0.54565990269E+03  0.27021872298E+03  0.11668476422E+04  0.16232055655E+04  0.95000000000E+03 0.  0.
   -2000013    1    1    2    0    0 -0.54565990269E+03 -0.27021872298E+03  0.12996742274E+04  0.17211670416E+04  0.95000000000E+03 0.  0.
<mgrwt>
<rscale>  0 0.22585610E+04</rscale>
<asrwt>0</asrwt>
<pdfrwt beam="1">  1        2 0.44699187E+00 0.22585610E+04</pdfrwt>
<pdfrwt beam="2">  1       -2 0.67526981E-01 0.22585610E+04</pdfrwt>
<totfact> 0.36485609E+00</totfact>
</mgrwt>
</event>
<event>
 4    1  0.1321115E-008  0.3598919E+04  0.7816531E-02  0.8090739E-01
          2   -1    0    0  501    0  0.00000000000E+00  0.00000000000E+00  0.40575079748E+04  0.40575079748E+04  0.00000000000E+00 0.  1.
         -2   -1    0    0    0  501 -0.00000000000E+00 -0.00000000000E+00 -0.79804012634E+03  0.79804012634E+03  0.00000000000E+00 0. -1.
    2000013    1    1    2    0    0  0.13018195958E+04 -0.79862811434E+03  0.17037915028E+04  0.24774879637E+04  0.95000000000E+03 0.  0.
   -2000013    1    1    2    0    0 -0.13018195958E+04  0.79862811434E+03  0.15556763456E+04  0.23780601375E+04  0.95000000000E+03 0.  0.
<mgrwt>
<rscale>  0 0.35989188E+04</rscale>
<asrwt>0</asrwt>
<pdfrwt beam="1">  1        2 0.62423198E+00 0.35989188E+04</pdfrwt>
<pdfrwt beam="2">  1       -2 0.12277541E+00 0.35989188E+04</pdfrwt>
<totfact> 0.12511565E-01</totfact>
</mgrwt>
</event>
<event>
 4    1  0.1321115E-008  0.2387937E+04  0.7816531E-02  0.8444034E-01
         -2   -1    0    0    0  501 -0.00000000000E+00  0.00000000000E+00  0.23277049621E+04  0.23277049621E+04  0.00000000000E+00 0. -1.
          2   -1    0    0  501    0  0.00000000000E+00 -0.00000000000E+00 -0.61243181190E+03  0.61243181190E+03  0.00000000000E+00 0.  1.
    2000013    1    1    2    0    0 -0.19996869415E+03 -0.48731532415E+03  0.24745918667E+03  0.11140914473E+04  0.95000000000E+03 0.  0.
   -2000013    1    1    2    0    0  0.19996869415E+03  0.48731532415E+03  0.14678139636E+04  0.18260453268E+04  0.95000000000E+03 0.  0.
<mgrwt>
<rscale>  0 0.23879368E+04</rscale>
<asrwt>0</asrwt>
<pdfrwt beam="2">  1        2 0.94220280E-01 0.23879368E+04</pdfrwt>
<pdfrwt beam="1">  1       -2 0.35810845E+00 0.23879368E+04</pdfrwt>
<totfact> 0.60248745E-01</totfact>
</mgrwt>
</event>
<event>
 4    1  0.1321115E-008  0.2761901E+04  0.7816531E-02  0.8315195E-01
         -1   -1    0    0    0  501 -0.00000000000E+00  0.00000000000E+00  0.14247979877E+04  0.14247979877E+04  0.00000000000E+00 0. -1.
          1   -1    0    0  501    0  0.00000000000E+00 -0.00000000000E+00 -0.13384524281E+04  0.13384524281E+04  0.00000000000E+00 0.  1.
    2000013    1    1    2    0    0  0.83411641736E+03  0.27965222365E+03 -0.43723758198E+03  0.13666134300E+04  0.95000000000E+03 0.  0.
   -2000013    1    1    2    0    0 -0.83411641736E+03 -0.27965222365E+03  0.52358314165E+03  0.13966369858E+04  0.95000000000E+03 0.  0.
<mgrwt>
<rscale>  0 0.27619010E+04</rscale>
<asrwt>0</asrwt>
<pdfrwt beam="2">  1        1 0.20591576E+00 0.27619010E+04</pdfrwt>
<pdfrwt beam="1">  1       -1 0.21919969E+00 0.27619010E+04</pdfrwt>
<totfact> 0.82183392E-01</totfact>
</mgrwt>
</event>
<event>
 4    1  0.1321115E-008  0.3128304E+04  0.7816531E-02  0.8208013E-01
          2   -1    0    0  501    0  0.00000000000E+00  0.00000000000E+00  0.18628739418E+04  0.18628739418E+04  0.00000000000E+00 0.  1.
         -2   -1    0    0    0  501 -0.00000000000E+00 -0.00000000000E+00 -0.13133315648E+04  0.13133315648E+04  0.00000000000E+00 0. -1.
    2000013    1    1    2    0    0  0.74619437881E+03 -0.79588547289E+03 -0.32917447386E+03  0.14836089684E+04  0.95000000000E+03 0.  0.
   -2000013    1    1    2    0    0 -0.74619437881E+03  0.79588547289E+03  0.87871685095E+03  0.16925965382E+04  0.95000000000E+03 0.  0.
<mgrwt>
<rscale>  0 0.31283038E+04</rscale>
<asrwt>0</asrwt>
<pdfrwt beam="1">  1        2 0.28659599E+00 0.31283038E+04</pdfrwt>
<pdfrwt beam="2">  1       -2 0.20205101E+00 0.31283038E+04</pdfrwt>
<totfact> 0.86976267E-01</totfact>
</mgrwt>
</event>
<event>
 4    1  0.1321115E-008  0.2284601E+04  0.7816531E-02  0.8484018E-01
          2   -1    0    0  501    0  0.00000000000E+00  0.00000000000E+00  0.14087848234E+04  0.14087848234E+04  0.00000000000E+00 0.  1.
         -2   -1    0    0    0  501 -0.00000000000E+00 -0.00000000000E+00 -0.92622412651E+03  0.92622412651E+03  0.00000000000E+00 0. -1.
    2000013    1    1    2    0    0 -0.34458273488E+03  0.48827304791E+03  0.23980120224E+02  0.11225964888E+04  0.95000000000E+03 0.  0.
   -2000013    1    1    2    0    0  0.34458273488E+03 -0.48827304791E+03  0.45858057662E+03  0.12124124611E+04  0.95000000000E+03 0.  0.
<mgrwt>
<rscale>  0 0.22846011E+04</rscale>
<asrwt>0</asrwt>
<pdfrwt beam="1">  1        2 0.21673612E+00 0.22846011E+04</pdfrwt>
<pdfrwt beam="2">  1       -2 0.14249602E+00 0.22846011E+04</pdfrwt>
<totfact> 0.44542416E+00</totfact>
</mgrwt>
</event>
<event>
 4    1  0.1321115E-008  0.3064277E+04  0.7816531E-02  0.8225611E-01
         -2   -1    0    0    0  501 -0.00000000000E+00  0.00000000000E+00  0.80290714840E+03  0.80290714840E+03  0.00000000000E+00 0. -1.
          2   -1    0    0  501    0  0.00000000000E+00 -0.00000000000E+00 -0.29236866422E+04  0.29236866422E+04  0.00000000000E+00 0.  1.
    2000013    1    1    2    0    0  0.11386972392E+04 -0.34367959821E+03 -0.12717389711E+04  0.19835743191E+04  0.95000000000E+03 0.  0.
   -2000013    1    1    2    0    0 -0.11386972392E+04  0.34367959821E+03 -0.84904052269E+03  0.17430194715E+04  0.95000000000E+03 0.  0.
<mgrwt>
<rscale>  0 0.30642773E+04</rscale>
<asrwt>0</asrwt>
<pdfrwt beam="2">  1        2 0.44979794E+00 0.30642773E+04</pdfrwt>
<pdfrwt beam="1">  1       -2 0.12352418E+00 0.30642773E+04</pdfrwt>
<totfact> 0.81662886E-01</totfact>
</mgrwt>
</event>
<event>
 4    1  0.1321115E-008  0.2755606E+04  0.7816531E-02  0.8317185E-01
          2   -1    0    0  501    0  0.00000000000E+00  0.00000000000E+00  0.14608855531E+04  0.14608855531E+04  0.00000000000E+00 0.  1.
         -2   -1    0    0    0  501 -0.00000000000E+00 -0.00000000000E+00 -0.12994455579E+04  0.12994455579E+04  0.00000000000E+00 0. -1.
    2000013    1    1    2    0    0 -0.86289232255E+02  0.72567555230E+03 -0.59999684295E+03  0.13403533304E+04  0.95000000000E+03 0.  0.
   -2000013    1    1    2    0    0  0.86289232255E+02 -0.72567555230E+03  0.76143683822E+03  0.14199777806E+04  0.95000000000E+03 0.  0.
<mgrwt>
<rscale>  0 0.27556061E+04</rscale>
<asrwt>0</asrwt>
<pdfrwt beam="1">  1        2 0.22475162E+00 0.27556061E+04</pdfrwt>
<pdfrwt beam="2">  1       -2 0.19991470E+00 0.27556061E+04</pdfrwt>
<totfact> 0.15537595E+00</totfact>
</mgrwt>
</event>
<event>
 4    1  0.1321115E-008  0.3266422E+04  0.7816531E-02  0.8171492E-01
         -2   -1    0    0    0  501 -0.00000000000E+00  0.00000000000E+00  0.17195060143E+04  0.17195060143E+04  0.00000000000E+00 0. -1.
          2   -1    0    0  501    0  0.00000000000E+00 -0.00000000000E+00 -0.15512464154E+04  0.15512464154E+04  0.00000000000E+00 0.  1.
    2000013    1    1    2    0    0  0.10956148549E+04 -0.70101718402E+03 -0.18656274926E+03  0.16214507892E+04  0.95000000000E+03 0.  0.
   -2000013    1    1    2    0    0 -0.10956148549E+04  0.70101718402E+03  0.35482234819E+03  0.16493016405E+04  0.95000000000E+03 0.  0.
<mgrwt>
<rscale>  0 0.32664216E+04</rscale>
<asrwt>0</asrwt>
<pdfrwt beam="2">  1        2 0.23865329E+00 0.32664216E+04</pdfrwt>
<pdfrwt beam="1">  1       -2 0.26453939E+00 0.32664216E+04</pdfrwt>
<totfact> 0.52060106E-01</totfact>
</mgrwt>
</event>
<event>
 4    1  0.1321115E-008  0.2398551E+04  0.7816531E-02  0.8440046E-01
          2   -1    0    0  501    0  0.00000000000E+00  0.00000000000E+00  0.22038064563E+04  0.22038064563E+04  0.00000000000E+00 0.  1.
         -2   -1    0    0    0  501 -0.00000000000E+00 -0.00000000000E+00 -0.65262616781E+03  0.65262616781E+03  0.00000000000E+00 0. -1.
    2000013    1    1    2    0    0 -0.57173956949E+03 -0.34230800789E+03  0.41496025935E+03  0.12323769409E+04  0.95000000000E+03 0.  0.
   -2000013    1    1    2    0    0  0.57173956949E+03  0.34230800789E+03  0.11362200291E+04  0.16240556832E+04  0.95000000000E+03 0.  0.
<mgrwt>
<rscale>  0 0.23985510E+04</rscale>
<asrwt>0</asrwt>
<pdfrwt beam="1">  1        2 0.33904714E+00 0.23985510E+04</pdfrwt>
<pdfrwt beam="2">  1       -2 0.10040403E+00 0.23985510E+04</pdfrwt>
<totfact> 0.37802394E+00</totfact>
</mgrwt>
</event>
<event>
 4    1  0.1321115E-008  0.2328626E+04  0.7816531E-02  0.8466719E-01
          1   -1    0    0  501    0  0.00000000000E+00  0.00000000000E+00  0.11393666970E+04  0.11393666970E+04  0.00000000000E+00 0.  1.
         -1   -1    0    0    0  501 -0.00000000000E+00 -0.00000000000E+00 -0.11898054296E+04  0.11898054296E+04  0.00000000000E+00 0. -1.
    2000013    1    1    2    0    0 -0.26710128693E+03  0.49122414839E+03 -0.40011445816E+03  0.11727044986E+04  0.95000000000E+03 0.  0.
   -2000013    1    1    2    0    0  0.26710128693E+03 -0.49122414839E+03  0.34967572561E+03  0.11564676280E+04  0.95000000000E+03 0.  0.
<mgrwt>
<rscale>  0 0.23286259E+04</rscale>
<asrwt>0</asrwt>
<pdfrwt beam="1">  1        1 0.17528718E+00 0.23286259E+04</pdfrwt>
<pdfrwt beam="2">  1       -1 0.18304699E+00 0.23286259E+04</pdfrwt>
<totfact> 0.21139697E+00</totfact>
</mgrwt>
</event>
<event>
 4    1  0.1321115E-008  0.2239526E+04  0.7816531E-02  0.8502154E-01
          1   -1    0    0  501    0  0.00000000000E+00  0.00000000000E+00  0.22276077938E+04  0.22276077938E+04  0.00000000000E+00 0.  1.
         -1   -1    0    0    0  501 -0.00000000000E+00 -0.00000000000E+00 -0.56287682367E+03  0.56287682367E+03  0.00000000000E+00 0. -1.
    2000013    1    1    2    0    0  0.33621213786E+03  0.48777001372E+03  0.85761419006E+03  0.14103050333E+04  0.95000000000E+03 0.  0.
   -2000013    1    1    2    0    0 -0.33621213786E+03 -0.48777001372E+03  0.80711678005E+03  0.13801795842E+04  0.95000000000E+03 0.  0.
<mgrwt>
<rscale>  0 0.22395257E+04</rscale>
<asrwt>0</asrwt>
<pdfrwt beam="1">  1        1 0.34270889E+00 0.22395257E+04</pdfrwt>
<pdfrwt beam="2">  1       -1 0.86596435E-01 0.22395257E+04</pdfrwt>
<totfact> 0.24914205E+00</totfact>
</mgrwt>
</event>
<event>
 4    1  0.1321115E-008  0.2137119E+04  0.7816531E-02  0.8545066E-01
         -2   -1    0    0    0  501 -0.00000000000E+00  0.00000000000E+00  0.39082820652E+03  0.39082820652E+03  0.00000000000E+00 0. -1.
          2   -1    0    0  501    0  0.00000000000E+00 -0.00000000000E+00 -0.29215385012E+04  0.29215385012E+04  0.00000000000E+00 0.  1.
    2000013    1    1    2    0    0 -0.47372290448E+03 -0.11946415297E+03 -0.13043989742E+04  0.16860135699E+04  0.95000000000E+03 0.  0.
   -2000013    1    1    2    0    0  0.47372290448E+03  0.11946415297E+03 -0.12263113204E+04  0.16263531378E+04  0.95000000000E+03 0.  0.
<mgrwt>
<rscale>  0 0.21371192E+04</rscale>
<asrwt>0</asrwt>
<pdfrwt beam="2">  1        2 0.44946747E+00 0.21371192E+04</pdfrwt>
<pdfrwt beam="1">  1       -2 0.60127416E-01 0.21371192E+04</pdfrwt>
<totfact> 0.46217032E+00</totfact>
</mgrwt>
</event>
<event>
 4    1  0.1321115E-008  0.2556200E+04  0.7816531E-02  0.8383233E-01
         -2   -1    0    0    0  501 -0.00000000000E+00  0.00000000000E+00  0.70918391442E+03  0.70918391442E+03  0.00000000000E+00 0. -1.
          2   -1    0    0  501    0  0.00000000000E+00 -0.00000000000E+00 -0.23034081166E+04  0.23034081166E+04  0.00000000000E+00 0.  1.
    2000013    1    1    2    0    0 -0.30178890720E+03 -0.75819981047E+03 -0.10978057259E+04  0.16654191391E+04  0.95000000000E+03 0.  0.
   -2000013    1    1    2    0    0  0.30178890720E+03  0.75819981047E+03 -0.49641847627E+03  0.13471728919E+04  0.95000000000E+03 0.  0.
<mgrwt>
<rscale>  0 0.25562003E+04</rscale>
<asrwt>0</asrwt>
<pdfrwt beam="2">  1        2 0.35437047E+00 0.25562003E+04</pdfrwt>
<pdfrwt beam="1">  1       -2 0.10910522E+00 0.25562003E+04</pdfrwt>
<totfact> 0.26847574E+00</totfact>
</mgrwt>
</event>
<event>
 4    1  0.1321115E-008  0.2628799E+04  0.7816531E-02  0.8358484E-01
          2   -1    0    0  501    0  0.00000000000E+00  0.00000000000E+00  0.27657166439E+04  0.27657166439E+04  0.00000000000E+00 0.  1.
         -2   -1    0    0    0  501 -0.00000000000E+00 -0.00000000000E+00 -0.62466484880E+03  0.62466484880E+03  0.00000000000E+00 0. -1.
    2000013    1    1    2    0    0  0.73030314818E+03 -0.49503819285E+03  0.79169703423E+03  0.15191081906E+04  0.95000000000E+03 0.  0.
   -2000013    1    1    2    0    0 -0.73030314818E+03  0.49503819285E+03  0.13493547609E+04  0.18712733021E+04  0.95000000000E+03 0.  0.
<mgrwt>
<rscale>  0 0.26287989E+04</rscale>
<asrwt>0</asrwt>
<pdfrwt beam="1">  1        2 0.42549486E+00 0.26287989E+04</pdfrwt>
<pdfrwt beam="2">  1       -2 0.96102286E-01 0.26287989E+04</pdfrwt>
<totfact> 0.19410828E+00</totfact>
</mgrwt>
</event>
<event>
 4    1  0.1321115E-008  0.2896908E+04  0.7816531E-02  0.8273798E-01
          2   -1    0    0  501    0  0.00000000000E+00  0.00000000000E+00  0.11625724974E+04  0.11625724974E+04  0.00000000000E+00 0.  1.
         -2   -1    0    0    0  501 -0.00000000000E+00 -0.00000000000E+00 -0.18046353643E+04  0.18046353643E+04  0.00000000000E+00 0. -1.
    2000013    1    1    2    0    0  0.81115852573E+03 -0.87076263704E+02  0.42461743353E+03  0.13222557977E+04  0.95000000000E+03 0.  0.
   -2000013    1    1    2    0    0 -0.81115852573E+03  0.87076263704E+02 -0.10666803004E+04  0.16449520640E+04  0.95000000000E+03 0.  0.
<mgrwt>
<rscale>  0 0.28969083E+04</rscale>
<asrwt>0</asrwt>
<pdfrwt beam="1">  1        2 0.17885731E+00 0.28969083E+04</pdfrwt>
<pdfrwt beam="2">  1       -2 0.27763621E+00 0.28969083E+04</pdfrwt>
<totfact> 0.74971223E-01</totfact>
</mgrwt>
</event>
<event>
 4    1  0.1321115E-008  0.2369619E+04  0.7816531E-02  0.8450966E-01
         -2   -1    0    0    0  501 -0.00000000000E+00  0.00000000000E+00  0.61204756848E+03  0.61204756848E+03  0.00000000000E+00 0. -1.
          2   -1    0    0  501    0  0.00000000000E+00 -0.00000000000E+00 -0.22935687999E+04  0.22935687999E+04  0.00000000000E+00 0.  1.
    2000013    1    1    2    0    0 -0.44271845906E+03  0.47651924413E+03 -0.11836637566E+04  0.16512510750E+04  0.95000000000E+03 0.  0.
   -2000013    1    1    2    0    0  0.44271845906E+03 -0.47651924413E+03 -0.49785747485E+03  0.12543652934E+04  0.95000000000E+03 0.  0.
<mgrwt>
<rscale>  0 0.23696187E+04</rscale>
<asrwt>0</asrwt>
<pdfrwt beam="2">  1        2 0.35285675E+00 0.23696187E+04</pdfrwt>
<pdfrwt beam="1">  1       -2 0.94161162E-01 0.23696187E+04</pdfrwt>
<totfact> 0.39210679E+00</totfact>
</mgrwt>
</event>
<event>
 4    1  0.1321115E-008  0.2928329E+04  0.7816531E-02  0.8264498E-01
          2   -1    0    0  501    0  0.00000000000E+00  0.00000000000E+00  0.35558753124E+04  0.35558753124E+04  0.00000000000E+00 0.  1.
         -2   -1    0    0    0  501 -0.00000000000E+00 -0.00000000000E+00 -0.60288331376E+03  0.60288331376E+03  0.00000000000E+00 0. -1.
    2000013    1    1    2    0    0 -0.73307870612E+02 -0.10943098188E+04  0.11982351312E+04  0.18817958054E+04  0.95000000000E+03 0.  0.
   -2000013    1    1    2    0    0  0.73307870612E+02  0.10943098188E+04  0.17547568674E+04  0.22769628208E+04  0.95000000000E+03 0.  0.
<mgrwt>
<rscale>  0 0.29283291E+04</rscale>
<asrwt>0</asrwt>
<pdfrwt beam="1">  1        2 0.54705773E+00 0.29283291E+04</pdfrwt>
<pdfrwt beam="2">  1       -2 0.92751281E-01 0.29283291E+04</pdfrwt>
<totfact> 0.62968406E-01</totfact>
</mgrwt>
</event>
<event>
 4    1  0.1321115E-008  0.2245870E+04  0.7816531E-02  0.8499575E-01
          2   -1    0    0  501    0  0.00000000000E+00  0.00000000000E+00  0.17426872750E+04  0.17426872750E+04  0.00000000000E+00 0.  1.
         -2   -1    0    0    0  501 -0.00000000000E+00 -0.00000000000E+00 -0.72358554239E+03  0.72358554239E+03  0.00000000000E+00 0. -1.
    2000013    1    1    2    0    0  0.35881534825E+03 -0.47844119496E+03  0.54116664179E+03  0.12462005318E+04  0.95000000000E+03 0.  0.
   -2000013    1    1    2    0    0 -0.35881534825E+03  0.47844119496E+03  0.47793509086E+03  0.12200722857E+04  0.95000000000E+03 0.  0.
<mgrwt>
<rscale>  0 0.22458703E+04</rscale>
<asrwt>0</asrwt>
<pdfrwt beam="1">  1        2 0.26810573E+00 0.22458703E+04</pdfrwt>
<pdfrwt beam="2">  1       -2 0.11132085E+00 0.22458703E+04</pdfrwt>
<totfact> 0.53970080E+00</totfact>
</mgrwt>
</event>
<event>
 4    1  0.1321115E-008  0.2417977E+04  0.7816531E-02  0.8432804E-01
         -2   -1    0    0    0  501 -0.00000000000E+00  0.00000000000E+00  0.82741387695E+03  0.82741387695E+03  0.00000000000E+00 0. -1.
          2   -1    0    0  501    0  0.00000000000E+00 -0.00000000000E+00 -0.17665326027E+04  0.17665326027E+04  0.00000000000E+00 0.  1.
    2000013    1    1    2    0    0  0.23893097139E+02  0.43278742679E+03  0.18411018028E+03  0.10603171202E+04  0.95000000000E+03 0.  0.
   -2000013    1    1    2    0    0 -0.23893097139E+02 -0.43278742679E+03 -0.11232289061E+04  0.15336293595E+04  0.95000000000E+03 0.  0.
<mgrwt>
<rscale>  0 0.24179773E+04</rscale>
<asrwt>0</asrwt>
<pdfrwt beam="2">  1        2 0.27177424E+00 0.24179773E+04</pdfrwt>
<pdfrwt beam="1">  1       -2 0.12729444E+00 0.24179773E+04</pdfrwt>
<totfact> 0.37042670E+00</totfact>
</mgrwt>
</event>
<event>
 4    1  0.1321115E-008  0.2198531E+04  0.7816531E-02  0.8519040E-01
         -2   -1    0    0    0  501 -0.00000000000E+00  0.00000000000E+00  0.48308146980E+03  0.48308146980E+03  0.00000000000E+00 0. -1.
          2   -1    0    0  501    0  0.00000000000E+00 -0.00000000000E+00 -0.25014091683E+04  0.25014091683E+04  0.00000000000E+00 0.  1.
    2000013    1    1    2    0    0 -0.31178536934E+03 -0.45387744736E+03 -0.93902513147E+03  0.14448124623E+04  0.95000000000E+03 0.  0.
   -2000013    1    1    2    0    0  0.31178536934E+03  0.45387744736E+03 -0.10793025671E+04  0.15396781758E+04  0.95000000000E+03 0.  0.
<mgrwt>
<rscale>  0 0.21985308E+04</rscale>
<asrwt>0</asrwt>
<pdfrwt beam="2">  1        2 0.38483218E+00 0.21985308E+04</pdfrwt>
<pdfrwt beam="1">  1       -2 0.74320227E-01 0.21985308E+04</pdfrwt>
<totfact> 0.51758942E+00</totfact>
</mgrwt>
</event>
<event>
 4    1  0.1321115E-008  0.2717664E+04  0.7816531E-02  0.8329296E-01
          1   -1    0    0  501    0  0.00000000000E+00  0.00000000000E+00  0.10716310090E+04  0.10716310090E+04  0.00000000000E+00 0.  1.
         -1   -1    0    0    0  501 -0.00000000000E+00 -0.00000000000E+00 -0.17230037820E+04  0.17230037820E+04  0.00000000000E+00 0. -1.
    2000013    1    1    2    0    0 -0.52492346294E+03  0.81662919402E+03 -0.28590746288E+03  0.13880457340E+04  0.95000000000E+03 0.  0.
   -2000013    1    1    2    0    0  0.52492346294E+03 -0.81662919402E+03 -0.36546531010E+03  0.14065890570E+04  0.95000000000E+03 0.  0.
<mgrwt>
<rscale>  0 0.27176639E+04</rscale>
<asrwt>0</asrwt>
<pdfrwt beam="1">  1        1 0.16486631E+00 0.27176639E+04</pdfrwt>
<pdfrwt beam="2">  1       -1 0.26507750E+00 0.27176639E+04</pdfrwt>
<totfact> 0.64590560E-01</totfact>
</mgrwt>
</event>
<event>
 4    1  0.1321115E-008  0.4622521E+04  0.7816531E-02  0.7889531E-01
          1   -1    0    0  501    0  0.00000000000E+00  0.00000000000E+00  0.23843530212E+04  0.23843530212E+04  0.00000000000E+00 0.  1.
         -1   -1    0    0    0  501 -0.00000000000E+00 -0.00000000000E+00 -0.22404090443E+04  0.22404090443E+04  0.00000000000E+00 0. -1.
    2000013    1    1    2    0    0 -0.16815429179E+04 -0.11509928397E+04 -0.46406282760E+03  0.22956971511E+04  0.95000000000E+03 0.  0.
   -2000013    1    1    2    0    0  0.16815429179E+04  0.11509928397E+04  0.60800680452E+03  0.23290649145E+04  0.95000000000E+03 0.  0.
<mgrwt>
<rscale>  0 0.46225214E+04</rscale>
<asrwt>0</asrwt>
<pdfrwt beam="1">  1        1 0.36682354E+00 0.46225214E+04</pdfrwt>
<pdfrwt beam="2">  1       -1 0.34467832E+00 0.46225214E+04</pdfrwt>
<totfact> 0.20419140E-02</totfact>
</mgrwt>
</event>
<event>
 4    1  0.1321115E-008  0.2476440E+04  0.7816531E-02  0.8411427E-01
          2   -1    0    0  501    0  0.00000000000E+00  0.00000000000E+00  0.36931441502E+04  0.36931441502E+04  0.00000000000E+00 0.  1.
         -2   -1    0    0    0  501 -0.00000000000E+00 -0.00000000000E+00 -0.41514453868E+03  0.41514453868E+03  0.00000000000E+00 0. -1.
    2000013    1    1    2    0    0 -0.19021928889E+03 -0.76967028577E+03  0.15627440881E+04  0.19932999803E+04  0.95000000000E+03 0.  0.
   -2000013    1    1    2    0    0  0.19021928889E+03  0.76967028577E+03  0.17152555234E+04  0.21149887086E+04  0.95000000000E+03 0.  0.
<mgrwt>
<rscale>  0 0.24764399E+04</rscale>
<asrwt>0</asrwt>
<pdfrwt beam="1">  1        2 0.56817600E+00 0.24764399E+04</pdfrwt>
<pdfrwt beam="2">  1       -2 0.63868393E-01 0.24764399E+04</pdfrwt>
<totfact> 0.11990212E+00</totfact>
</mgrwt>
</event>
<event>
 4    1  0.1321115E-008  0.2692032E+04  0.7816531E-02  0.8337595E-01
         -2   -1    0    0    0  501 -0.00000000000E+00  0.00000000000E+00  0.72965690568E+03  0.72965690568E+03  0.00000000000E+00 0. -1.
          2   -1    0    0  501    0  0.00000000000E+00 -0.00000000000E+00 -0.24830289195E+04  0.24830289195E+04  0.00000000000E+00 0.  1.
    2000013    1    1    2    0    0  0.26740221777E+03  0.91502027273E+03 -0.90318800845E+03  0.16208067819E+04  0.95000000000E+03 0.  0.
   -2000013    1    1    2    0    0 -0.26740221777E+03 -0.91502027273E+03 -0.85018400540E+03  0.15918790433E+04  0.95000000000E+03 0.  0.
<mgrwt>
<rscale>  0 0.26920321E+04</rscale>
<asrwt>0</asrwt>
<pdfrwt beam="2">  1        2 0.38200446E+00 0.26920321E+04</pdfrwt>
<pdfrwt beam="1">  1       -2 0.11225491E+00 0.26920321E+04</pdfrwt>
<totfact> 0.19546051E+00</totfact>
</mgrwt>
</event>
<event>
 4    1  0.1321115E-008  0.2323715E+04  0.7816531E-02  0.8468629E-01
          2   -1    0    0  501    0  0.00000000000E+00  0.00000000000E+00  0.11072556715E+04  0.11072556715E+04  0.00000000000E+00 0.  1.
         -2   -1    0    0    0  501 -0.00000000000E+00 -0.00000000000E+00 -0.12191523195E+04  0.12191523195E+04  0.00000000000E+00 0. -1.
    2000013    1    1    2    0    0 -0.42830821757E+03  0.51117818494E+03 -0.42915006223E+01  0.11607193817E+04  0.95000000000E+03 0.  0.
   -2000013    1    1    2    0    0  0.42830821757E+03 -0.51117818494E+03 -0.10760514738E+03  0.11656886093E+04  0.95000000000E+03 0.  0.
<mgrwt>
<rscale>  0 0.23237154E+04</rscale>
<asrwt>0</asrwt>
<pdfrwt beam="1">  1        2 0.17034703E+00 0.23237154E+04</pdfrwt>
<pdfrwt beam="2">  1       -2 0.18756190E+00 0.23237154E+04</pdfrwt>
<totfact> 0.31405481E+00</totfact>
</mgrwt>
</event>
<event>
 4    1  0.1321115E-008  0.2673940E+04  0.7816531E-02  0.8343510E-01
         -1   -1    0    0    0  501 -0.00000000000E+00  0.00000000000E+00  0.64629201638E+03  0.64629201638E+03  0.00000000000E+00 0. -1.
          1   -1    0    0  501    0  0.00000000000E+00 -0.00000000000E+00 -0.27657611730E+04  0.27657611730E+04  0.00000000000E+00 0.  1.
    2000013    1    1    2    0    0 -0.29736638116E+03  0.76573373387E+03 -0.16447877607E+04  0.20694447791E+04  0.95000000000E+03 0.  0.
   -2000013    1    1    2    0    0  0.29736638116E+03 -0.76573373387E+03 -0.47468139591E+03  0.13426084103E+04  0.95000000000E+03 0.  0.
<mgrwt>
<rscale>  0 0.26739404E+04</rscale>
<asrwt>0</asrwt>
<pdfrwt beam="2">  1        1 0.42550171E+00 0.26739404E+04</pdfrwt>
<pdfrwt beam="1">  1       -1 0.99429542E-01 0.26739404E+04</pdfrwt>
<totfact> 0.74460603E-01</totfact>
</mgrwt>
</event>
<event>
 4    1  0.1321115E-008  0.2399885E+04  0.7816531E-02  0.8439547E-01
          2   -1    0    0  501    0  0.00000000000E+00  0.00000000000E+00  0.26763887139E+04  0.26763887139E+04  0.00000000000E+00 0.  1.
         -2   -1    0    0    0  501 -0.00000000000E+00 -0.00000000000E+00 -0.53798685811E+03  0.53798685811E+03  0.00000000000E+00 0. -1.
    2000013    1    1    2    0    0 -0.66999571823E+03  0.62109693510E+02  0.67960245612E+03  0.13480027355E+04  0.95000000000E+03 0.  0.
   -2000013    1    1    2    0    0  0.66999571823E+03 -0.62109693510E+02  0.14587993997E+04  0.18663728365E+04  0.95000000000E+03 0.  0.
<mgrwt>
<rscale>  0 0.23998850E+04</rscale>
<asrwt>0</asrwt>
<pdfrwt beam="1">  1        2 0.41175210E+00 0.23998850E+04</pdfrwt>
<pdfrwt beam="2">  1       -2 0.82767211E-01 0.23998850E+04</pdfrwt>
<totfact> 0.31572464E+00</totfact>
</mgrwt>
</event>
<event>
 4    1  0.1321115E-008  0.2310120E+04  0.7816531E-02  0.8473942E-01
          2   -1    0    0  501    0  0.00000000000E+00  0.00000000000E+00  0.35449419817E+04  0.35449419817E+04  0.00000000000E+00 0.  1.
         -2   -1    0    0    0  501 -0.00000000000E+00 -0.00000000000E+00 -0.37635680194E+03  0.37635680194E+03  0.00000000000E+00 0. -1.
    2000013    1    1    2    0    0  0.45122682179E+03 -0.46673265973E+03  0.14127078799E+04  0.18220012553E+04  0.95000000000E+03 0.  0.
   -2000013    1    1    2    0    0 -0.45122682179E+03  0.46673265973E+03  0.17558772998E+04  0.20992975283E+04  0.95000000000E+03 0.  0.
<mgrwt>
<rscale>  0 0.23101195E+04</rscale>
<asrwt>0</asrwt>
<pdfrwt beam="1">  1        2 0.54537567E+00 0.23101195E+04</pdfrwt>
<pdfrwt beam="2">  1       -2 0.57901049E-01 0.23101195E+04</pdfrwt>
<totfact> 0.19169789E+00</totfact>
</mgrwt>
</event>
<event>
 4    1  0.1321115E-008  0.3516634E+04  0.7816531E-02  0.8109859E-01
         -2   -1    0    0    0  501 -0.00000000000E+00  0.00000000000E+00  0.14008804863E+04  0.14008804863E+04  0.00000000000E+00 0. -1.
          2   -1    0    0  501    0  0.00000000000E+00 -0.00000000000E+00 -0.22069541133E+04  0.22069541133E+04  0.00000000000E+00 0.  1.
    2000013    1    1    2    0    0 -0.85835829933E+03  0.11594908769E+04 -0.65910326080E+02  0.17285954515E+04  0.95000000000E+03 0.  0.
   -2000013    1    1    2    0    0  0.85835829933E+03 -0.11594908769E+04 -0.74016330093E+03  0.18792391481E+04  0.95000000000E+03 0.  0.
<mgrwt>
<rscale>  0 0.35166342E+04</rscale>
<asrwt>0</asrwt>
<pdfrwt beam="2">  1        2 0.33953140E+00 0.35166342E+04</pdfrwt>
<pdfrwt beam="1">  1       -2 0.21552008E+00 0.35166342E+04</pdfrwt>
<totfact> 0.44321717E-01</totfact>
</mgrwt>
</event>
<event>
 4    1  0.1321115E-008  0.2379160E+04  0.7816531E-02  0.8447347E-01
         -2   -1    0    0    0  501 -0.00000000000E+00  0.00000000000E+00  0.18259571322E+04  0.18259571322E+04  0.00000000000E+00 0. -1.
          2   -1    0    0  501    0  0.00000000000E+00 -0.00000000000E+00 -0.77499087826E+03  0.77499087826E+03  0.00000000000E+00 0.  1.
    2000013    1    1    2    0    0 -0.40697258447E+03  0.58032263266E+03  0.63588808346E+03  0.13450853866E+04  0.95000000000E+03 0.  0.
   -2000013    1    1    2    0    0  0.40697258447E+03 -0.58032263266E+03  0.41507817050E+03  0.12558626239E+04  0.95000000000E+03 0.  0.
<mgrwt>
<rscale>  0 0.23791596E+04</rscale>
<asrwt>0</asrwt>
<pdfrwt beam="2">  1        2 0.11922937E+00 0.23791596E+04</pdfrwt>
<pdfrwt beam="1">  1       -2 0.28091648E+00 0.23791596E+04</pdfrwt>
<totfact> 0.13455037E+00</totfact>
</mgrwt>
</event>
<event>
 4    1  0.1321115E-008  0.2729340E+04  0.7816531E-02  0.8325547E-01
          3   -1    0    0  501    0  0.00000000000E+00  0.00000000000E+00  0.65769935322E+03  0.65769935322E+03  0.00000000000E+00 0.  1.
         -3   -1    0    0    0  501 -0.00000000000E+00 -0.00000000000E+00 -0.28315737871E+04  0.28315737871E+04  0.00000000000E+00 0. -1.
    2000013    1    1    2    0    0 -0.83496134370E+03  0.39988896961E+03 -0.14967389248E+04  0.19999497600E+04  0.95000000000E+03 0.  0.
   -2000013    1    1    2    0    0  0.83496134370E+03 -0.39988896961E+03 -0.67713550904E+03  0.14893233803E+04  0.95000000000E+03 0.  0.
<mgrwt>
<rscale>  0 0.27293400E+04</rscale>
<asrwt>0</asrwt>
<pdfrwt beam="1">  1        3 0.10118452E+00 0.27293400E+04</pdfrwt>
<pdfrwt beam="2">  1       -3 0.43562674E+00 0.27293400E+04</pdfrwt>
<totfact> 0.13059761E-02</totfact>
</mgrwt>
</event>
<event>
 4    1  0.1321115E-008  0.3671055E+04  0.7816531E-02  0.8074407E-01
         -2   -1    0    0    0  501 -0.00000000000E+00  0.00000000000E+00  0.13916660045E+04  0.13916660045E+04  0.00000000000E+00 0. -1.
          2   -1    0    0  501    0  0.00000000000E+00 -0.00000000000E+00 -0.24209548466E+04  0.24209548466E+04  0.00000000000E+00 0.  1.
    2000013    1    1    2    0    0  0.13785294844E+04  0.17562936706E+02  0.26670315587E+03  0.16953709238E+04  0.95000000000E+03 0.  0.
   -2000013    1    1    2    0    0 -0.13785294844E+04 -0.17562936706E+02 -0.12959919979E+04  0.21172499273E+04  0.95000000000E+03 0.  0.
<mgrwt>
<rscale>  0 0.36710546E+04</rscale>
<asrwt>0</asrwt>
<pdfrwt beam="2">  1        2 0.37245459E+00 0.36710546E+04</pdfrwt>
<pdfrwt beam="1">  1       -2 0.21410247E+00 0.36710546E+04</pdfrwt>
<totfact> 0.33766596E-01</totfact>
</mgrwt>
</event>
<event>
 4    1  0.1321115E-008  0.2305929E+04  0.7816531E-02  0.8475587E-01
          2   -1    0    0  501    0  0.00000000000E+00  0.00000000000E+00  0.12814940003E+04  0.12814940003E+04  0.00000000000E+00 0.  1.
         -2   -1    0    0    0  501 -0.00000000000E+00 -0.00000000000E+00 -0.10373262333E+04  0.10373262333E+04  0.00000000000E+00 0. -1.
    2000013    1    1    2    0    0  0.77895149601E+02  0.50735966047E+03 -0.28433622636E+03  0.11166147809E+04  0.95000000000E+03 0.  0.
   -2000013    1    1    2    0    0 -0.77895149601E+02 -0.50735966047E+03  0.52850399337E+03  0.12022054527E+04  0.95000000000E+03 0.  0.
<mgrwt>
<rscale>  0 0.23059292E+04</rscale>
<asrwt>0</asrwt>
<pdfrwt beam="1">  1        2 0.19715292E+00 0.23059292E+04</pdfrwt>
<pdfrwt beam="2">  1       -2 0.15958865E+00 0.23059292E+04</pdfrwt>
<totfact> 0.38963186E+00</totfact>
</mgrwt>
</event>
<event>
 4    1  0.1321115E-008  0.2679800E+04  0.7816531E-02  0.8341589E-01
          2   -1    0    0  501    0  0.00000000000E+00  0.00000000000E+00  0.26326635906E+04  0.26326635906E+04  0.00000000000E+00 0.  1.
         -2   -1    0    0    0  501 -0.00000000000E+00 -0.00000000000E+00 -0.68194519715E+03  0.68194519715E+03  0.00000000000E+00 0. -1.
    2000013    1    1    2    0    0  0.34628620318E+03 -0.86968110843E+03  0.11345908712E+04  0.17510156510E+04  0.95000000000E+03 0.  0.
   -2000013    1    1    2    0    0 -0.34628620318E+03  0.86968110843E+03  0.81612752223E+03  0.15635931368E+04  0.95000000000E+03 0.  0.
<mgrwt>
<rscale>  0 0.26798002E+04</rscale>
<asrwt>0</asrwt>
<pdfrwt beam="1">  1        2 0.40502516E+00 0.26798002E+04</pdfrwt>
<pdfrwt beam="2">  1       -2 0.10491465E+00 0.26798002E+04</pdfrwt>
<totfact> 0.18837425E+00</totfact>
</mgrwt>
</event>
<event>
 4    1  0.1321115E-008  0.2466340E+04  0.7816531E-02  0.8415076E-01
          1   -1    0    0  501    0  0.00000000000E+00  0.00000000000E+00  0.13270469809E+04  0.13270469809E+04  0.00000000000E+00 0.  1.
         -1   -1    0    0    0  501 -0.00000000000E+00 -0.00000000000E+00 -0.11459340520E+04  0.11459340520E+04  0.00000000000E+00 0. -1.
    2000013    1    1    2    0    0 -0.59680218871E+03 -0.48176882815E+03  0.26403755677E+03  0.12491956963E+04  0.95000000000E+03 0.  0.
   -2000013    1    1    2    0    0  0.59680218871E+03  0.48176882815E+03 -0.82924627943E+02  0.12237853366E+04  0.95000000000E+03 0.  0.
<mgrwt>
<rscale>  0 0.24663401E+04</rscale>
<asrwt>0</asrwt>
<pdfrwt beam="1">  1        1 0.20416107E+00 0.24663401E+04</pdfrwt>
<pdfrwt beam="2">  1       -1 0.17629755E+00 0.24663401E+04</pdfrwt>
<totfact> 0.17063672E+00</totfact>
</mgrwt>
</event>
<event>
 4    1  0.1321115E-008  0.3327891E+04  0.7816531E-02  0.8155834E-01
         -2   -1    0    0    0  501 -0.00000000000E+00  0.00000000000E+00  0.16734974314E+04  0.16734974314E+04  0.00000000000E+00 0. -1.
          2   -1    0    0  501    0  0.00000000000E+00 -0.00000000000E+00 -0.16544485791E+04  0.16544485791E+04  0.00000000000E+00 0.  1.
    2000013    1    1    2    0    0  0.45328918386E+03  0.12250907895E+04  0.40940210689E+03  0.16662618678E+04  0.95000000000E+03 0.  0.
   -2000013    1    1    2    0    0 -0.45328918386E+03 -0.12250907895E+04 -0.39035325462E+03  0.16616841427E+04  0.95000000000E+03 0.  0.
<mgrwt>
<rscale>  0 0.33278915E+04</rscale>
<asrwt>0</asrwt>
<pdfrwt beam="2">  1        2 0.25453055E+00 0.33278915E+04</pdfrwt>
<pdfrwt beam="1">  1       -2 0.25746115E+00 0.33278915E+04</pdfrwt>
<totfact> 0.50103371E-01</totfact>
</mgrwt>
</event>
<event>
 4    1  0.1321115E-008  0.2284663E+04  0.7816531E-02  0.8483993E-01
         -2   -1    0    0    0  501 -0.00000000000E+00  0.00000000000E+00  0.50464432260E+03  0.50464432260E+03  0.00000000000E+00 0. -1.
          2   -1    0    0  501    0  0.00000000000E+00 -0.00000000000E+00 -0.25858233447E+04  0.25858233447E+04  0.00000000000E+00 0.  1.
    2000013    1    1    2    0    0  0.24439469568E+03  0.54666322891E+03 -0.13238558001E+04  0.17359906775E+04  0.95000000000E+03 0.  0.
   -2000013    1    1    2    0    0 -0.24439469568E+03 -0.54666322891E+03 -0.75732322197E+03  0.13544769897E+04  0.95000000000E+03 0.  0.
<mgrwt>
<rscale>  0 0.22846628E+04</rscale>
<asrwt>0</asrwt>
<pdfrwt beam="2">  1        2 0.39781898E+00 0.22846628E+04</pdfrwt>
<pdfrwt beam="1">  1       -2 0.77637588E-01 0.22846628E+04</pdfrwt>
<totfact> 0.41635836E+00</totfact>
</mgrwt>
</event>
<event>
 4    1  0.1321115E-008  0.2570615E+04  0.7816531E-02  0.8378252E-01
         -1   -1    0    0    0  501 -0.00000000000E+00  0.00000000000E+00  0.10242525391E+04  0.10242525391E+04  0.00000000000E+00 0. -1.
          1   -1    0    0  501    0  0.00000000000E+00 -0.00000000000E+00 -0.16128984174E+04  0.16128984174E+04  0.00000000000E+00 0.  1.
    2000013    1    1    2    0    0  0.23810800688E+03  0.82182420701E+03 -0.42974283485E+03  0.13488029338E+04  0.95000000000E+03 0.  0.
   -2000013    1    1    2    0    0 -0.23810800688E+03 -0.82182420701E+03 -0.15890304349E+03  0.12883480226E+04  0.95000000000E+03 0.  0.
<mgrwt>
<rscale>  0 0.25706149E+04</rscale>
<asrwt>0</asrwt>
<pdfrwt beam="2">  1        1 0.24813822E+00 0.25706149E+04</pdfrwt>
<pdfrwt beam="1">  1       -1 0.15757731E+00 0.25706149E+04</pdfrwt>
<totfact> 0.14720871E+00</totfact>
</mgrwt>
</event>
<event>
 4    1  0.1321115E-008  0.2493292E+04  0.7816531E-02  0.8405379E-01
         -1   -1    0    0    0  501 -0.00000000000E+00  0.00000000000E+00  0.13907379962E+04  0.13907379962E+04  0.00000000000E+00 0. -1.
          1   -1    0    0  501    0  0.00000000000E+00 -0.00000000000E+00 -0.11174828289E+04  0.11174828289E+04  0.00000000000E+00 0.  1.
    2000013    1    1    2    0    0  0.53773855135E+03  0.23485715394E+03 -0.42104287262E+03  0.11933556607E+04  0.95000000000E+03 0.  0.
   -2000013    1    1    2    0    0 -0.53773855135E+03 -0.23485715394E+03  0.69429803992E+03  0.13148651644E+04  0.95000000000E+03 0.  0.
<mgrwt>
<rscale>  0 0.24932917E+04</rscale>
<asrwt>0</asrwt>
<pdfrwt beam="2">  1        1 0.17192044E+00 0.24932917E+04</pdfrwt>
<pdfrwt beam="1">  1       -1 0.21395969E+00 0.24932917E+04</pdfrwt>
<totfact> 0.13214377E+00</totfact>
</mgrwt>
</event>
<event>
 4    1  0.1321115E-008  0.4592963E+04  0.7816531E-02  0.7894561E-01
         -2   -1    0    0    0  501 -0.00000000000E+00  0.00000000000E+00  0.29306351030E+04  0.29306351030E+04  0.00000000000E+00 0. -1.
          2   -1    0    0  501    0  0.00000000000E+00 -0.00000000000E+00 -0.17995512336E+04  0.17995512336E+04  0.00000000000E+00 0.  1.
    2000013    1    1    2    0    0  0.16961521517E+04 -0.96610320963E+03 -0.20586292670E+03  0.21806345586E+04  0.95000000000E+03 0.  0.
   -2000013    1    1    2    0    0 -0.16961521517E+04  0.96610320963E+03  0.13369467961E+04  0.25495517781E+04  0.95000000000E+03 0.  0.
<mgrwt>
<rscale>  0 0.45929633E+04</rscale>
<asrwt>0</asrwt>
<pdfrwt beam="2">  1        2 0.27685404E+00 0.45929633E+04</pdfrwt>
<pdfrwt beam="1">  1       -2 0.45086694E+00 0.45929633E+04</pdfrwt>
<totfact> 0.22277066E-02</totfact>
</mgrwt>
</event>
<event>
 4    1  0.1321115E-008  0.2445661E+04  0.7816531E-02  0.8422604E-01
         -2   -1    0    0    0  501 -0.00000000000E+00  0.00000000000E+00  0.83519469502E+03  0.83519469502E+03  0.00000000000E+00 0. -1.
          2   -1    0    0  501    0  0.00000000000E+00 -0.00000000000E+00 -0.17903787868E+04  0.17903787868E+04  0.00000000000E+00 0.  1.
    2000013    1    1    2    0    0  0.63028428738E+03  0.71033431668E+02 -0.94617630441E+03  0.14832577761E+04  0.95000000000E+03 0.  0.
   -2000013    1    1    2    0    0 -0.63028428738E+03 -0.71033431668E+02 -0.90077873886E+01  0.11423157057E+04  0.95000000000E+03 0.  0.
<mgrwt>
<rscale>  0 0.24456614E+04</rscale>
<asrwt>0</asrwt>
<pdfrwt beam="2">  1        2 0.27544289E+00 0.24456614E+04</pdfrwt>
<pdfrwt beam="1">  1       -2 0.12849149E+00 0.24456614E+04</pdfrwt>
<totfact> 0.35011050E+00</totfact>
</mgrwt>
</event>
<event>
 4    1  0.1321115E-008  0.2151793E+04  0.7816531E-02  0.8538765E-01
          2   -1    0    0  501    0  0.00000000000E+00  0.00000000000E+00  0.12650256396E+04  0.12650256396E+04  0.00000000000E+00 0.  1.
         -2   -1    0    0    0  501 -0.00000000000E+00 -0.00000000000E+00 -0.91504345068E+03  0.91504345068E+03  0.00000000000E+00 0. -1.
    2000013    1    1    2    0    0  0.40222058504E+03  0.28584241082E+03  0.28395032549E+03  0.11075265551E+04  0.95000000000E+03 0.  0.
   -2000013    1    1    2    0    0 -0.40222058504E+03 -0.28584241082E+03  0.66031863451E+02  0.10725425352E+04  0.95000000000E+03 0.  0.
<mgrwt>
<rscale>  0 0.21517931E+04</rscale>
<asrwt>0</asrwt>
<pdfrwt beam="1">  1        2 0.19461933E+00 0.21517931E+04</pdfrwt>
<pdfrwt beam="2">  1       -2 0.14077591E+00 0.21517931E+04</pdfrwt>
<totfact> 0.56311200E+00</totfact>
</mgrwt>
</event>
<event>
 4    1  0.1321115E-008  0.2745945E+04  0.7816531E-02  0.8320250E-01
          2   -1    0    0  501    0  0.00000000000E+00  0.00000000000E+00  0.22214740913E+04  0.22214740913E+04  0.00000000000E+00 0.  1.
         -2   -1    0    0    0  501 -0.00000000000E+00 -0.00000000000E+00 -0.84855955450E+03  0.84855955450E+03  0.00000000000E+00 0. -1.
    2000013    1    1    2    0    0  0.14328814754E+03  0.98080397230E+03  0.67894567894E+03  0.15316576511E+04  0.95000000000E+03 0.  0.
   -2000013    1    1    2    0    0 -0.14328814754E+03 -0.98080397230E+03  0.69396885787E+03  0.15383759947E+04  0.95000000000E+03 0.  0.
<mgrwt>
<rscale>  0 0.27459447E+04</rscale>
<asrwt>0</asrwt>
<pdfrwt beam="1">  1        2 0.34176524E+00 0.27459447E+04</pdfrwt>
<pdfrwt beam="2">  1       -2 0.13054762E+00 0.27459447E+04</pdfrwt>
<totfact> 0.18858921E+00</totfact>
</mgrwt>
</event>
<event>
 4    1  0.1321115E-008  0.2736057E+04  0.7816531E-02  0.8323400E-01
          2   -1    0    0  501    0  0.00000000000E+00  0.00000000000E+00  0.16642603085E+04  0.16642603085E+04  0.00000000000E+00 0.  1.
         -2   -1    0    0    0  501 -0.00000000000E+00 -0.00000000000E+00 -0.11245249167E+04  0.11245249167E+04  0.00000000000E+00 0. -1.
    2000013    1    1    2    0    0 -0.92248917834E+03  0.10576076896E+03  0.60301603873E+03  0.14588694141E+04  0.95000000000E+03 0.  0.
   -2000013    1    1    2    0    0  0.92248917834E+03 -0.10576076896E+03 -0.63280646988E+02  0.13299158111E+04  0.95000000000E+03 0.  0.
<mgrwt>
<rscale>  0 0.27360572E+04</rscale>
<asrwt>0</asrwt>
<pdfrwt beam="1">  1        2 0.25604005E+00 0.27360572E+04</pdfrwt>
<pdfrwt beam="2">  1       -2 0.17300383E+00 0.27360572E+04</pdfrwt>
<totfact> 0.18228746E+00</totfact>
</mgrwt>
</event>
<event>
 4    1  0.1321115E-008  0.2504674E+04  0.7816531E-02  0.8401322E-01
          2   -1    0    0  501    0  0.00000000000E+00  0.00000000000E+00  0.77771655830E+03  0.77771655830E+03  0.00000000000E+00 0.  1.
         -2   -1    0    0    0  501 -0.00000000000E+00 -0.00000000000E+00 -0.20166058160E+04  0.20166058160E+04  0.00000000000E+00 0. -1.
    2000013    1    1    2    0    0  0.54922912371E+03 -0.59447731097E+03 -0.50354744008E+03  0.13457770722E+04  0.95000000000E+03 0.  0.
   -2000013    1    1    2    0    0 -0.54922912371E+03  0.59447731097E+03 -0.73534181764E+03  0.14485453021E+04  0.95000000000E+03 0.  0.
<mgrwt>
<rscale>  0 0.25046738E+04</rscale>
<asrwt>0</asrwt>
<pdfrwt beam="1">  1        2 0.11964870E+00 0.25046738E+04</pdfrwt>
<pdfrwt beam="2">  1       -2 0.31024705E+00 0.25046738E+04</pdfrwt>
<totfact> 0.87693593E-01</totfact>
</mgrwt>
</event>
<event>
 4    1  0.1321115E-008  0.3681665E+04  0.7816531E-02  0.8072037E-01
          2   -1    0    0  501    0  0.00000000000E+00  0.00000000000E+00  0.18214793756E+04  0.18214793756E+04  0.00000000000E+00 0.  1.
         -2   -1    0    0    0  501 -0.00000000000E+00 -0.00000000000E+00 -0.18603909771E+04  0.18603909771E+04  0.00000000000E+00 0. -1.
    2000013    1    1    2    0    0 -0.12091234757E+04 -0.98931188969E+03 -0.23264885248E+03  0.18431882929E+04  0.95000000000E+03 0.  0.
   -2000013    1    1    2    0    0  0.12091234757E+04  0.98931188969E+03  0.19373725105E+03  0.18386820598E+04  0.95000000000E+03 0.  0.
<mgrwt>
<rscale>  0 0.36816647E+04</rscale>
<asrwt>0</asrwt>
<pdfrwt beam="1">  1        2 0.28022760E+00 0.36816647E+04</pdfrwt>
<pdfrwt beam="2">  1       -2 0.28621400E+00 0.36816647E+04</pdfrwt>
<totfact> 0.26229647E-01</totfact>
</mgrwt>
</event>
<event>
 4    1  0.1321115E-008  0.2951072E+04  0.7816531E-02  0.8257842E-01
         -2   -1    0    0    0  501 -0.00000000000E+00  0.00000000000E+00  0.18710120463E+04  0.18710120463E+04  0.00000000000E+00 0. -1.
          2   -1    0    0  501    0  0.00000000000E+00 -0.00000000000E+00 -0.11636518368E+04  0.11636518368E+04  0.00000000000E+00 0.  1.
    2000013    1    1    2    0    0 -0.43384795281E+03  0.10311645583E+04  0.19711022597E+03  0.14808365317E+04  0.95000000000E+03 0.  0.
   -2000013    1    1    2    0    0  0.43384795281E+03 -0.10311645583E+04  0.51024998354E+03  0.15538273515E+04  0.95000000000E+03 0.  0.
<mgrwt>
<rscale>  0 0.29510721E+04</rscale>
<asrwt>0</asrwt>
<pdfrwt beam="2">  1        2 0.17902336E+00 0.29510721E+04</pdfrwt>
<pdfrwt beam="1">  1       -2 0.28784801E+00 0.29510721E+04</pdfrwt>
<totfact> 0.64563081E-01</totfact>
</mgrwt>
</event>
<event>
 4    1  0.1321115E-008  0.2423547E+04  0.7816531E-02  0.8430740E-01
          2   -1    0    0  501    0  0.00000000000E+00  0.00000000000E+00  0.11770613646E+04  0.11770613646E+04  0.00000000000E+00 0. -1.
         -2   -1    0    0    0  501 -0.00000000000E+00 -0.00000000000E+00 -0.12475088430E+04  0.12475088430E+04  0.00000000000E+00 0.  1.
    2000013    1    1    2    0    0 -0.61470093459E+02 -0.74810464741E+03  0.14348429097E+02  0.12108447519E+04  0.95000000000E+03 0.  0.
   -2000013    1    1    2    0    0  0.61470093459E+02  0.74810464741E+03 -0.84795907469E+02  0.12137254557E+04  0.95000000000E+03 0.  0.
<mgrwt>
<rscale>  0 0.24235465E+04</rscale>
<asrwt>0</asrwt>
<pdfrwt beam="1">  1        2 0.18108636E+00 0.24235465E+04</pdfrwt>
<pdfrwt beam="2">  1       -2 0.19192444E+00 0.24235465E+04</pdfrwt>
<totfact> 0.26401583E+00</totfact>
</mgrwt>
</event>
<event>
 4    1  0.1321115E-008  0.2052874E+04  0.7816531E-02  0.8582292E-01
          2   -1    0    0  501    0  0.00000000000E+00  0.00000000000E+00  0.15297929686E+04  0.15297929686E+04  0.00000000000E+00 0.  1.
         -2   -1    0    0    0  501 -0.00000000000E+00 -0.00000000000E+00 -0.68870272318E+03  0.68870272318E+03  0.00000000000E+00 0. -1.
    2000013    1    1    2    0    0  0.29707364114E+03 -0.23952882688E+03  0.50029430886E+03  0.11394828663E+04  0.95000000000E+03 0.  0.
   -2000013    1    1    2    0    0 -0.29707364114E+03  0.23952882688E+03  0.34079593660E+03  0.10790128255E+04  0.95000000000E+03 0.  0.
<mgrwt>
<rscale>  0 0.20528737E+04</rscale>
<asrwt>0</asrwt>
<pdfrwt beam="1">  1        2 0.23535276E+00 0.20528737E+04</pdfrwt>
<pdfrwt beam="2">  1       -2 0.10595427E+00 0.20528737E+04</pdfrwt>
<totfact> 0.81265012E+00</totfact>
</mgrwt>
</event>
<event>
 4    1  0.1321115E-008  0.2096272E+04  0.7816531E-02  0.8562887E-01
          2   -1    0    0  501    0  0.00000000000E+00  0.00000000000E+00  0.25768754380E+04  0.25768754380E+04  0.00000000000E+00 0.  1.
         -2   -1    0    0    0  501 -0.00000000000E+00 -0.00000000000E+00 -0.42632614703E+03  0.42632614703E+03  0.00000000000E+00 0. -1.
    2000013    1    1    2    0    0  0.20511668779E+01 -0.38452673113E+03  0.76066644444E+03  0.12763144025E+04  0.95000000000E+03 0.  0.
   -2000013    1    1    2    0    0 -0.20511668779E+01  0.38452673113E+03  0.13898828466E+04  0.17268871826E+04  0.95000000000E+03 0.  0.
<mgrwt>
<rscale>  0 0.20962723E+04</rscale>
<asrwt>0</asrwt>
<pdfrwt beam="1">  1        2 0.39644237E+00 0.20962723E+04</pdfrwt>
<pdfrwt beam="2">  1       -2 0.65588639E-01 0.20962723E+04</pdfrwt>
<totfact> 0.62002125E+00</totfact>
</mgrwt>
</event>
<event>
 4    1  0.1321115E-008  0.3238883E+04  0.7816531E-02  0.8178623E-01
          2   -1    0    0  501    0  0.00000000000E+00  0.00000000000E+00  0.20877575225E+04  0.20877575225E+04  0.00000000000E+00 0.  1.
         -2   -1    0    0    0  501 -0.00000000000E+00 -0.00000000000E+00 -0.12561756877E+04  0.12561756877E+04  0.00000000000E+00 0. -1.
    2000013    1    1    2    0    0  0.34886245740E+03 -0.92032439919E+03 -0.47915042618E+03  0.14494092399E+04  0.95000000000E+03 0.  0.
   -2000013    1    1    2    0    0 -0.34886245740E+03  0.92032439919E+03  0.13107322609E+04  0.18945239702E+04  0.95000000000E+03 0.  0.
<mgrwt>
<rscale>  0 0.32388827E+04</rscale>
<asrwt>0</asrwt>
<pdfrwt beam="1">  1        2 0.32119346E+00 0.32388827E+04</pdfrwt>
<pdfrwt beam="2">  1       -2 0.19325780E+00 0.32388827E+04</pdfrwt>
<totfact> 0.73860285E-01</totfact>
</mgrwt>
</event>
<event>
 4    1  0.1321115E-008  0.3165704E+04  0.7816531E-02  0.8197934E-01
         -2   -1    0    0    0  501 -0.00000000000E+00  0.00000000000E+00  0.15907827409E+04  0.15907827409E+04  0.00000000000E+00 0. -1.
          2   -1    0    0  501    0  0.00000000000E+00 -0.00000000000E+00 -0.15749603702E+04  0.15749603702E+04  0.00000000000E+00 0.  1.
    2000013    1    1    2    0    0 -0.62277490180E+03 -0.10617553408E+04 -0.28831336541E+03  0.15813910265E+04  0.95000000000E+03 0.  0.
   -2000013    1    1    2    0    0  0.62277490180E+03  0.10617553408E+04  0.30413573606E+03  0.15843520846E+04  0.95000000000E+03 0.  0.
<mgrwt>
<rscale>  0 0.31657036E+04</rscale>
<asrwt>0</asrwt>
<pdfrwt beam="2">  1        2 0.24230160E+00 0.31657036E+04</pdfrwt>
<pdfrwt beam="1">  1       -2 0.24473581E+00 0.31657036E+04</pdfrwt>
<totfact> 0.67354646E-01</totfact>
</mgrwt>
</event>
<event>
 4    1  0.1321115E-008  0.2651033E+04  0.7816531E-02  0.8351070E-01
         -2   -1    0    0    0  501 -0.00000000000E+00  0.00000000000E+00  0.10129964616E+04  0.10129964616E+04  0.00000000000E+00 0. -1.
          2   -1    0    0  501    0  0.00000000000E+00 -0.00000000000E+00 -0.17344520208E+04  0.17344520208E+04  0.00000000000E+00 0.  1.
    2000013    1    1    2    0    0  0.62266391215E+03 -0.60091081590E+03 -0.69765072391E+03  0.14621972127E+04  0.95000000000E+03 0.  0.
   -2000013    1    1    2    0    0 -0.62266391215E+03  0.60091081590E+03 -0.23804835231E+02  0.12852512697E+04  0.95000000000E+03 0.  0.
<mgrwt>
<rscale>  0 0.26510328E+04</rscale>
<asrwt>0</asrwt>
<pdfrwt beam="2">  1        2 0.26683877E+00 0.26510328E+04</pdfrwt>
<pdfrwt beam="1">  1       -2 0.15584561E+00 0.26510328E+04</pdfrwt>
<totfact> 0.22363606E+00</totfact>
</mgrwt>
</event>
<event>
 4    1  0.1321115E-008  0.2122849E+04  0.7816531E-02  0.8551244E-01
         -2   -1    0    0    0  501 -0.00000000000E+00  0.00000000000E+00  0.44127324525E+03  0.44127324525E+03  0.00000000000E+00 0. -1.
          2   -1    0    0  501    0  0.00000000000E+00 -0.00000000000E+00 -0.25531169283E+04  0.25531169283E+04  0.00000000000E+00 0.  1.
    2000013    1    1    2    0    0 -0.53674199088E+02  0.47004499311E+03 -0.10315320369E+04  0.14799937697E+04  0.95000000000E+03 0.  0.
   -2000013    1    1    2    0    0  0.53674199088E+02 -0.47004499311E+03 -0.10803116462E+04  0.15143964039E+04  0.95000000000E+03 0.  0.
<mgrwt>
<rscale>  0 0.21228492E+04</rscale>
<asrwt>0</asrwt>
<pdfrwt beam="2">  1        2 0.39278722E+00 0.21228492E+04</pdfrwt>
<pdfrwt beam="1">  1       -2 0.67888191E-01 0.21228492E+04</pdfrwt>
<totfact> 0.59281436E+00</totfact>
</mgrwt>
</event>
<event>
 4    1  0.1321115E-008  0.2591122E+04  0.7816531E-02  0.8371223E-01
          2   -1    0    0  501    0  0.00000000000E+00  0.00000000000E+00  0.19615869305E+04  0.19615869305E+04  0.00000000000E+00 0.  1.
         -2   -1    0    0    0  501 -0.00000000000E+00 -0.00000000000E+00 -0.85567358534E+03  0.85567358534E+03  0.00000000000E+00 0. -1.
    2000013    1    1    2    0    0  0.54174932928E+03  0.69357104256E+03  0.51162601324E+03  0.13924059409E+04  0.95000000000E+03 0.  0.
   -2000013    1    1    2    0    0 -0.54174932928E+03 -0.69357104256E+03  0.59428733194E+03  0.14248545749E+04  0.95000000000E+03 0.  0.
<mgrwt>
<rscale>  0 0.25911219E+04</rscale>
<asrwt>0</asrwt>
<pdfrwt beam="1">  1        2 0.30178260E+00 0.25911219E+04</pdfrwt>
<pdfrwt beam="2">  1       -2 0.13164209E+00 0.25911219E+04</pdfrwt>
<totfact> 0.26136386E+00</totfact>
</mgrwt>
</event>
<event>
 4    1  0.1321115E-008  0.2206217E+04  0.7816531E-02  0.8515845E-01
          2   -1    0    0  501    0  0.00000000000E+00  0.00000000000E+00  0.23734347596E+04  0.23734347596E+04  0.00000000000E+00 0.  1.
         -2   -1    0    0    0  501 -0.00000000000E+00 -0.00000000000E+00 -0.51269525630E+03  0.51269525630E+03  0.00000000000E+00 0. -1.
    2000013    1    1    2    0    0  0.53921587999E+03  0.74839292093E+02  0.75488792402E+03  0.13299287435E+04  0.95000000000E+03 0.  0.
   -2000013    1    1    2    0    0 -0.53921587999E+03 -0.74839292093E+02  0.11058515792E+04  0.15562012724E+04  0.95000000000E+03 0.  0.
<mgrwt>
<rscale>  0 0.22062173E+04</rscale>
<asrwt>0</asrwt>
<pdfrwt beam="1">  1        2 0.36514380E+00 0.22062173E+04</pdfrwt>
<pdfrwt beam="2">  1       -2 0.78876195E-01 0.22062173E+04</pdfrwt>
<totfact> 0.53671328E+00</totfact>
</mgrwt>
</event>
<event>
 4    1  0.1321115E-008  0.2241347E+04  0.7816531E-02  0.8501413E-01
          1   -1    0    0  501    0  0.00000000000E+00  0.00000000000E+00  0.41105600429E+04  0.41105600429E+04  0.00000000000E+00 0. -1.
         -1   -1    0    0    0  501 -0.00000000000E+00 -0.00000000000E+00 -0.30553238176E+03  0.30553238176E+03  0.00000000000E+00 0.  1.
    2000013    1    1    2    0    0  0.27717817915E+03  0.49859647860E+03  0.22321055122E+04  0.24920315426E+04  0.95000000000E+03 0.  0.
   -2000013    1    1    2    0    0 -0.27717817915E+03 -0.49859647860E+03  0.15729221490E+04  0.19240608821E+04  0.95000000000E+03 0.  0.
<mgrwt>
<rscale>  0 0.22413471E+04</rscale>
<asrwt>0</asrwt>
<pdfrwt beam="1">  1        1 0.63239382E+00 0.22413471E+04</pdfrwt>
<pdfrwt beam="2">  1       -1 0.47004985E-01 0.22413471E+04</pdfrwt>
<totfact> 0.31513349E-01</totfact>
</mgrwt>
</event>
<event>
 4    1  0.1321115E-008  0.2888973E+04  0.7816531E-02  0.8276166E-01
         -1   -1    0    0    0  501 -0.00000000000E+00  0.00000000000E+00  0.20571785954E+04  0.20571785954E+04  0.00000000000E+00 0.  1.
          1   -1    0    0  501    0  0.00000000000E+00 -0.00000000000E+00 -0.10142730553E+04  0.10142730553E+04  0.00000000000E+00 0. -1.
    2000013    1    1    2    0    0  0.94738550734E+03 -0.48804827995E+02 -0.45244145470E+02  0.13433049704E+04  0.95000000000E+03 0.  0.
   -2000013    1    1    2    0    0 -0.94738550734E+03  0.48804827995E+02  0.10881496856E+04  0.17281466804E+04  0.95000000000E+03 0.  0.
<mgrwt>
<rscale>  0 0.28889727E+04</rscale>
<asrwt>0</asrwt>
<pdfrwt beam="2">  1        1 0.15604201E+00 0.28889727E+04</pdfrwt>
<pdfrwt beam="1">  1       -1 0.31648901E+00 0.28889727E+04</pdfrwt>
<totfact> 0.32687455E-01</totfact>
</mgrwt>
</event>
<event>
 4    1  0.1321115E-008  0.2284045E+04  0.7816531E-02  0.8484239E-01
          2   -1    0    0  501    0  0.00000000000E+00  0.00000000000E+00  0.21171957759E+04  0.21171957759E+04  0.00000000000E+00 0.  1.
         -2   -1    0    0    0  501 -0.00000000000E+00 -0.00000000000E+00 -0.61601054837E+03  0.61601054837E+03  0.00000000000E+00 0. -1.
    2000013    1    1    2    0    0 -0.32312856504E+03  0.11426730754E+03  0.13885841231E+04  0.17170133820E+04  0.95000000000E+03 0.  0.
   -2000013    1    1    2    0    0  0.32312856504E+03 -0.11426730754E+03  0.11260110440E+03  0.10161929422E+04  0.95000000000E+03 0.  0.
<mgrwt>
<rscale>  0 0.22840446E+04</rscale>
<asrwt>0</asrwt>
<pdfrwt beam="1">  1        2 0.32572242E+00 0.22840446E+04</pdfrwt>
<pdfrwt beam="2">  1       -2 0.94770854E-01 0.22840446E+04</pdfrwt>
<totfact> 0.48894624E+00</totfact>
</mgrwt>
</event>
<event>
 4    1  0.1321115E-008  0.2342018E+04  0.7816531E-02  0.8461536E-01
         -2   -1    0    0    0  501 -0.00000000000E+00  0.00000000000E+00  0.78490095475E+03  0.78490095475E+03  0.00000000000E+00 0. -1.
          2   -1    0    0  501    0  0.00000000000E+00 -0.00000000000E+00 -0.17470507872E+04  0.17470507872E+04  0.00000000000E+00 0.  1.
    2000013    1    1    2    0    0 -0.30641156551E+03 -0.12394934599E+03 -0.11292926814E+04  0.15123007135E+04  0.95000000000E+03 0.  0.
   -2000013    1    1    2    0    0  0.30641156551E+03  0.12394934599E+03  0.16714284894E+03  0.10196510284E+04  0.95000000000E+03 0.  0.
<mgrwt>
<rscale>  0 0.23420178E+04</rscale>
<asrwt>0</asrwt>
<pdfrwt beam="2">  1        2 0.26877704E+00 0.23420178E+04</pdfrwt>
<pdfrwt beam="1">  1       -2 0.12075399E+00 0.23420178E+04</pdfrwt>
<totfact> 0.43617482E+00</totfact>
</mgrwt>
</event>
<event>
 4    1  0.1321115E-008  0.2517949E+04  0.7816531E-02  0.8396619E-01
         -2   -1    0    0    0  501 -0.00000000000E+00  0.00000000000E+00  0.13261636874E+04  0.13261636874E+04  0.00000000000E+00 0. -1.
          2   -1    0    0  501    0  0.00000000000E+00 -0.00000000000E+00 -0.11951889665E+04  0.11951889665E+04  0.00000000000E+00 0.  1.
    2000013    1    1    2    0    0  0.65978383735E+03 -0.42940164271E+03  0.31645685118E+03  0.12737132414E+04  0.95000000000E+03 0.  0.
   -2000013    1    1    2    0    0 -0.65978383735E+03  0.42940164271E+03 -0.18548213024E+03  0.12476394124E+04  0.95000000000E+03 0.  0.
<mgrwt>
<rscale>  0 0.25179485E+04</rscale>
<asrwt>0</asrwt>
<pdfrwt beam="2">  1        2 0.18387523E+00 0.25179485E+04</pdfrwt>
<pdfrwt beam="1">  1       -2 0.20402518E+00 0.25179485E+04</pdfrwt>
<totfact> 0.21254301E+00</totfact>
</mgrwt>
</event>
<event>
 4    1  0.1321115E-008  0.3233146E+04  0.7816531E-02  0.8180118E-01
          2   -1    0    0  501    0  0.00000000000E+00  0.00000000000E+00  0.18186284404E+04  0.18186284404E+04  0.00000000000E+00 0.  1.
         -2   -1    0    0    0  501 -0.00000000000E+00 -0.00000000000E+00 -0.14369666267E+04  0.14369666267E+04  0.00000000000E+00 0. -1.
    2000013    1    1    2    0    0 -0.93684732688E+03  0.17460980267E+03  0.10929515295E+04  0.17335554629E+04  0.95000000000E+03 0.  0.
   -2000013    1    1    2    0    0  0.93684732688E+03 -0.17460980267E+03 -0.71128971585E+03  0.15220396043E+04  0.95000000000E+03 0.  0.
<mgrwt>
<rscale>  0 0.32331461E+04</rscale>
<asrwt>0</asrwt>
<pdfrwt beam="1">  1        2 0.27978899E+00 0.32331461E+04</pdfrwt>
<pdfrwt beam="2">  1       -2 0.22107179E+00 0.32331461E+04</pdfrwt>
<totfact> 0.68853346E-01</totfact>
</mgrwt>
</event>
<event>
 4    1  0.1321115E-008  0.2231400E+04  0.7816531E-02  0.8505471E-01
         -1   -1    0    0    0  501 -0.00000000000E+00  0.00000000000E+00  0.42248532672E+03  0.42248532672E+03  0.00000000000E+00 0. -1.
          1   -1    0    0  501    0  0.00000000000E+00 -0.00000000000E+00 -0.29463438574E+04  0.29463438574E+04  0.00000000000E+00 0.  1.
    2000013    1    1    2    0    0 -0.21596758924E+03  0.53087562069E+03 -0.10844716834E+04  0.15514669691E+04  0.95000000000E+03 0.  0.
   -2000013    1    1    2    0    0  0.21596758924E+03 -0.53087562069E+03 -0.14393868473E+04  0.18173622150E+04  0.95000000000E+03 0.  0.
<mgrwt>
<rscale>  0 0.22314005E+04</rscale>
<asrwt>0</asrwt>
<pdfrwt beam="2">  1        1 0.45328366E+00 0.22314005E+04</pdfrwt>
<pdfrwt beam="1">  1       -1 0.64997745E-01 0.22314005E+04</pdfrwt>
<totfact> 0.14279785E+00</totfact>
</mgrwt>
</event>
<event>
 4    1  0.1321115E-008  0.2070987E+04  0.7816531E-02  0.8574133E-01
         -2   -1    0    0    0  501 -0.00000000000E+00  0.00000000000E+00  0.90576138902E+03  0.90576138902E+03  0.00000000000E+00 0. -1.
          2   -1    0    0  501    0  0.00000000000E+00 -0.00000000000E+00 -0.11838070354E+04  0.11838070354E+04  0.00000000000E+00 0.  1.
    2000013    1    1    2    0    0  0.33942414925E+03  0.38372896643E+02  0.93403471410E+02  0.10138567161E+04  0.95000000000E+03 0.  0.
   -2000013    1    1    2    0    0 -0.33942414925E+03 -0.38372896643E+02 -0.37144911775E+03  0.10757117083E+04  0.95000000000E+03 0.  0.
<mgrwt>
<rscale>  0 0.20709869E+04</rscale>
<asrwt>0</asrwt>
<pdfrwt beam="2">  1        2 0.18212416E+00 0.20709869E+04</pdfrwt>
<pdfrwt beam="1">  1       -2 0.13934791E+00 0.20709869E+04</pdfrwt>
<totfact> 0.65052216E+00</totfact>
</mgrwt>
</event>
<event>
 4    1  0.1321115E-008  0.4971436E+04  0.7816531E-02  0.7832929E-01
          2   -1    0    0  501    0  0.00000000000E+00  0.00000000000E+00  0.32878129680E+04  0.32878129680E+04  0.00000000000E+00 0.  1.
         -2   -1    0    0    0  501 -0.00000000000E+00 -0.00000000000E+00 -0.18793022370E+04  0.18793022370E+04  0.00000000000E+00 0. -1.
    2000013    1    1    2    0    0  0.20583042528E+04 -0.10146118973E+04  0.59907655126E+03  0.25548867712E+04  0.95000000000E+03 0.  0.
   -2000013    1    1    2    0    0 -0.20583042528E+04  0.10146118973E+04  0.80943417974E+03  0.26122284338E+04  0.95000000000E+03 0.  0.
<mgrwt>
<rscale>  0 0.49714361E+04</rscale>
<asrwt>0</asrwt>
<pdfrwt beam="1">  1        2 0.50581738E+00 0.49714361E+04</pdfrwt>
<pdfrwt beam="2">  1       -2 0.28912342E+00 0.49714361E+04</pdfrwt>
<totfact> 0.30638606E-02</totfact>
</mgrwt>
</event>
<event>
 4    1  0.1321115E-008  0.2702824E+04  0.7816531E-02  0.8334089E-01
         -1   -1    0    0    0  501 -0.00000000000E+00  0.00000000000E+00  0.43619457757E+03  0.43619457757E+03  0.00000000000E+00 0.  1.
          1   -1    0    0  501    0  0.00000000000E+00 -0.00000000000E+00 -0.41869271082E+04  0.41869271082E+04  0.00000000000E+00 0. -1.
    2000013    1    1    2    0    0  0.33124718822E+02  0.55389855268E+03 -0.32177526929E+04  0.34006371824E+04  0.95000000000E+03 0.  0.
   -2000013    1    1    2    0    0 -0.33124718822E+02 -0.55389855268E+03 -0.53297983779E+03  0.12224845034E+04  0.95000000000E+03 0.  0.
<mgrwt>
<rscale>  0 0.27028244E+04</rscale>
<asrwt>0</asrwt>
<pdfrwt beam="2">  1        1 0.64414264E+00 0.27028244E+04</pdfrwt>
<pdfrwt beam="1">  1       -1 0.67106857E-01 0.27028244E+04</pdfrwt>
<totfact> 0.12789871E-01</totfact>
</mgrwt>
</event>
<event>
 4    1  0.1321115E-008  0.3219277E+04  0.7816531E-02  0.8183745E-01
         -2   -1    0    0    0  501 -0.00000000000E+00  0.00000000000E+00  0.11452872893E+04  0.11452872893E+04  0.00000000000E+00 0. -1.
          2   -1    0    0  501    0  0.00000000000E+00 -0.00000000000E+00 -0.22622582969E+04  0.22622582969E+04  0.00000000000E+00 0.  1.
    2000013    1    1    2    0    0  0.12565226705E+04  0.15581914081E+03 -0.24933119266E+03  0.16024340454E+04  0.95000000000E+03 0.  0.
   -2000013    1    1    2    0    0 -0.12565226705E+04 -0.15581914081E+03 -0.86763981489E+03  0.18051115408E+04  0.95000000000E+03 0.  0.
<mgrwt>
<rscale>  0 0.32192767E+04</rscale>
<asrwt>0</asrwt>
<pdfrwt beam="2">  1        2 0.34803974E+00 0.32192767E+04</pdfrwt>
<pdfrwt beam="1">  1       -2 0.17619804E+00 0.32192767E+04</pdfrwt>
<totfact> 0.77159903E-01</totfact>
</mgrwt>
</event>
<event>
 4    1  0.1321115E-008  0.3262073E+04  0.7816531E-02  0.8172613E-01
         -2   -1    0    0    0  501 -0.00000000000E+00  0.00000000000E+00  0.13476416817E+04  0.13476416817E+04  0.00000000000E+00 0. -1.
          2   -1    0    0  501    0  0.00000000000E+00 -0.00000000000E+00 -0.19740266584E+04  0.19740266584E+04  0.00000000000E+00 0.  1.
    2000013    1    1    2    0    0  0.91463268530E+03 -0.87116249202E+03 -0.72342169994E+03  0.17381933127E+04  0.95000000000E+03 0.  0.
   -2000013    1    1    2    0    0 -0.91463268530E+03  0.87116249202E+03  0.97036723226E+02  0.15834750273E+04  0.95000000000E+03 0.  0.
<mgrwt>
<rscale>  0 0.32620733E+04</rscale>
<asrwt>0</asrwt>
<pdfrwt beam="2">  1        2 0.30369641E+00 0.32620733E+04</pdfrwt>
<pdfrwt beam="1">  1       -2 0.20732949E+00 0.32620733E+04</pdfrwt>
<totfact> 0.68951695E-01</totfact>
</mgrwt>
</event>
<event>
 4    1  0.1321115E-008  0.2724605E+04  0.7816531E-02  0.8327065E-01
          2   -1    0    0  501    0  0.00000000000E+00  0.00000000000E+00  0.24479312745E+04  0.24479312745E+04  0.00000000000E+00 0.  1.
         -2   -1    0    0    0  501 -0.00000000000E+00 -0.00000000000E+00 -0.75813727759E+03  0.75813727759E+03  0.00000000000E+00 0. -1.
    2000013    1    1    2    0    0  0.77522468966E+03  0.57776189807E+03  0.10053176064E+04  0.16875857371E+04  0.95000000000E+03 0.  0.
   -2000013    1    1    2    0    0 -0.77522468966E+03 -0.57776189807E+03  0.68447639058E+03  0.15184828150E+04  0.95000000000E+03 0.  0.
<mgrwt>
<rscale>  0 0.27246049E+04</rscale>
<asrwt>0</asrwt>
<pdfrwt beam="1">  1        2 0.37660481E+00 0.27246049E+04</pdfrwt>
<pdfrwt beam="2">  1       -2 0.11663651E+00 0.27246049E+04</pdfrwt>
<totfact> 0.18603271E+00</totfact>
</mgrwt>
</event>
<event>
 4    1  0.1321115E-008  0.2481781E+04  0.7816531E-02  0.8409505E-01
         -2   -1    0    0    0  501 -0.00000000000E+00  0.00000000000E+00  0.10835030693E+04  0.10835030693E+04  0.00000000000E+00 0. -1.
          2   -1    0    0  501    0  0.00000000000E+00 -0.00000000000E+00 -0.14211395949E+04  0.14211395949E+04  0.00000000000E+00 0.  1.
    2000013    1    1    2    0    0 -0.66989687396E+03 -0.32368026890E+03  0.12329299941E+03  0.12129434867E+04  0.95000000000E+03 0.  0.
   -2000013    1    1    2    0    0  0.66989687396E+03  0.32368026890E+03 -0.46092952499E+03  0.12916991775E+04  0.95000000000E+03 0.  0.
<mgrwt>
<rscale>  0 0.24817809E+04</rscale>
<asrwt>0</asrwt>
<pdfrwt beam="2">  1        2 0.21863686E+00 0.24817809E+04</pdfrwt>
<pdfrwt beam="1">  1       -2 0.16669278E+00 0.24817809E+04</pdfrwt>
<totfact> 0.28297852E+00</totfact>
</mgrwt>
</event>
<event>
 4    1  0.1321115E-008  0.2343162E+04  0.7816531E-02  0.8461095E-01
          2   -1    0    0  501    0  0.00000000000E+00  0.00000000000E+00  0.22396580559E+04  0.22396580559E+04  0.00000000000E+00 0.  1.
         -2   -1    0    0    0  501 -0.00000000000E+00 -0.00000000000E+00 -0.61286236158E+03  0.61286236158E+03  0.00000000000E+00 0. -1.
    2000013    1    1    2    0    0  0.52992855308E+03  0.47507391009E+02  0.13398652737E+04  0.17265051912E+04  0.95000000000E+03 0.  0.
   -2000013    1    1    2    0    0 -0.52992855308E+03 -0.47507391009E+02  0.28693042065E+03  0.11260152263E+04  0.95000000000E+03 0.  0.
<mgrwt>
<rscale>  0 0.23431621E+04</rscale>
<asrwt>0</asrwt>
<pdfrwt beam="1">  1        2 0.34456277E+00 0.23431621E+04</pdfrwt>
<pdfrwt beam="2">  1       -2 0.94286518E-01 0.23431621E+04</pdfrwt>
<totfact> 0.42025605E+00</totfact>
</mgrwt>
</event>
<event>
 4    1  0.1321115E-008  0.2443633E+04  0.7816531E-02  0.8423346E-01
          2   -1    0    0  501    0  0.00000000000E+00  0.00000000000E+00  0.28750779633E+04  0.28750779633E+04  0.00000000000E+00 0.  1.
         -2   -1    0    0    0  501 -0.00000000000E+00 -0.00000000000E+00 -0.51923297599E+03  0.51923297599E+03  0.00000000000E+00 0. -1.
    2000013    1    1    2    0    0  0.60398047410E+03  0.12502540652E+03  0.18143278415E+04  0.21388570036E+04  0.95000000000E+03 0.  0.
   -2000013    1    1    2    0    0 -0.60398047410E+03 -0.12502540652E+03  0.54151714574E+03  0.12554539356E+04  0.95000000000E+03 0.  0.
<mgrwt>
<rscale>  0 0.24436328E+04</rscale>
<asrwt>0</asrwt>
<pdfrwt beam="1">  1        2 0.44231968E+00 0.24436328E+04</pdfrwt>
<pdfrwt beam="2">  1       -2 0.79881998E-01 0.24436328E+04</pdfrwt>
<totfact> 0.25866353E+00</totfact>
</mgrwt>
</event>
<event>
 4    1  0.1321115E-008  0.2625210E+04  0.7816531E-02  0.8359688E-01
          2   -1    0    0  501    0  0.00000000000E+00  0.00000000000E+00  0.12318103496E+04  0.12318103496E+04  0.00000000000E+00 0.  1.
         -2   -1    0    0    0  501 -0.00000000000E+00 -0.00000000000E+00 -0.13986984894E+04  0.13986984894E+04  0.00000000000E+00 0. -1.
    2000013    1    1    2    0    0 -0.10924338538E+03 -0.74978251981E+03 -0.58075564406E+03  0.13468055028E+04  0.95000000000E+03 0.  0.
   -2000013    1    1    2    0    0  0.10924338538E+03  0.74978251981E+03  0.41386750428E+03  0.12837033362E+04  0.95000000000E+03 0.  0.
<mgrwt>
<rscale>  0 0.26252095E+04</rscale>
<asrwt>0</asrwt>
<pdfrwt beam="1">  1        2 0.18950928E+00 0.26252095E+04</pdfrwt>
<pdfrwt beam="2">  1       -2 0.21518438E+00 0.26252095E+04</pdfrwt>
<totfact> 0.16975499E+00</totfact>
</mgrwt>
</event>
<event>
 4    1  0.1321115E-008  0.2104145E+04  0.7816531E-02  0.8559420E-01
         -2   -1    0    0    0  501 -0.00000000000E+00  0.00000000000E+00  0.62563037647E+03  0.62563037647E+03  0.00000000000E+00 0. -1.
          2   -1    0    0  501    0  0.00000000000E+00 -0.00000000000E+00 -0.17691861621E+04  0.17691861621E+04  0.00000000000E+00 0.  1.
    2000013    1    1    2    0    0 -0.14989211134E+03  0.17869173076E+03 -0.10125171325E+04  0.14078669409E+04  0.95000000000E+03 0.  0.
   -2000013    1    1    2    0    0  0.14989211134E+03 -0.17869173076E+03 -0.13103865310E+03  0.98694959765E+03  0.95000000000E+03 0.  0.
<mgrwt>
<rscale>  0 0.21041451E+04</rscale>
<asrwt>0</asrwt>
<pdfrwt beam="2">  1        2 0.27218248E+00 0.21041451E+04</pdfrwt>
<pdfrwt beam="1">  1       -2 0.96250828E-01 0.21041451E+04</pdfrwt>
<totfact> 0.74738711E+00</totfact>
</mgrwt>
</event>
<event>
 4    1  0.1321115E-008  0.2456106E+04  0.7816531E-02  0.8418792E-01
         -2   -1    0    0    0  501 -0.00000000000E+00  0.00000000000E+00  0.43586558174E+03  0.43586558174E+03  0.00000000000E+00 0. -1.
          2   -1    0    0  501    0  0.00000000000E+00 -0.00000000000E+00 -0.34600431456E+04  0.34600431456E+04  0.00000000000E+00 0.  1.
    2000013    1    1    2    0    0 -0.22265401141E+03  0.56657690156E+03 -0.22810827684E+04  0.25448816849E+04  0.95000000000E+03 0.  0.
   -2000013    1    1    2    0    0  0.22265401141E+03 -0.56657690156E+03 -0.74309479544E+03  0.13510270424E+04  0.95000000000E+03 0.  0.
<mgrwt>
<rscale>  0 0.24561056E+04</rscale>
<asrwt>0</asrwt>
<pdfrwt beam="2">  1        2 0.53231432E+00 0.24561056E+04</pdfrwt>
<pdfrwt beam="1">  1       -2 0.67056244E-01 0.24561056E+04</pdfrwt>
<totfact> 0.15860149E+00</totfact>
</mgrwt>
</event>
<event>
 4    1  0.1321115E-008  0.2230613E+04  0.7816531E-02  0.8505793E-01
          1   -1    0    0  501    0  0.00000000000E+00  0.00000000000E+00  0.20161709999E+04  0.20161709999E+04  0.00000000000E+00 0. -1.
         -1   -1    0    0    0  501 -0.00000000000E+00 -0.00000000000E+00 -0.61696580270E+03  0.61696580270E+03  0.00000000000E+00 0.  1.
    2000013    1    1    2    0    0 -0.43522453727E+03  0.12155946644E+03  0.11368672681E+04  0.15489235898E+04  0.95000000000E+03 0.  0.
   -2000013    1    1    2    0    0  0.43522453727E+03 -0.12155946644E+03  0.26233792907E+03  0.10842132128E+04  0.95000000000E+03 0.  0.
<mgrwt>
<rscale>  0 0.22306130E+04</rscale>
<asrwt>0</asrwt>
<pdfrwt beam="1">  1        1 0.31018015E+00 0.22306130E+04</pdfrwt>
<pdfrwt beam="2">  1       -1 0.94917817E-01 0.22306130E+04</pdfrwt>
<totfact> 0.28340144E+00</totfact>
</mgrwt>
</event>
<event>
 4    1  0.1321115E-008  0.3310345E+04  0.7816531E-02  0.8160268E-01
          2   -1    0    0  501    0  0.00000000000E+00  0.00000000000E+00  0.24448448456E+04  0.24448448456E+04  0.00000000000E+00 0.  1.
         -2   -1    0    0    0  501 -0.00000000000E+00 -0.00000000000E+00 -0.11205602877E+04  0.11205602877E+04  0.00000000000E+00 0. -1.
    2000013    1    1    2    0    0  0.88497667895E+03  0.99752520270E+03  0.40084780460E+03  0.16856509766E+04  0.95000000000E+03 0.  0.
   -2000013    1    1    2    0    0 -0.88497667895E+03 -0.99752520270E+03  0.92343675332E+03  0.18797541567E+04  0.95000000000E+03 0.  0.
<mgrwt>
<rscale>  0 0.33103450E+04</rscale>
<asrwt>0</asrwt>
<pdfrwt beam="1">  1        2 0.37612998E+00 0.33103450E+04</pdfrwt>
<pdfrwt beam="2">  1       -2 0.17239389E+00 0.33103450E+04</pdfrwt>
<totfact> 0.64071150E-01</totfact>
</mgrwt>
</event>
<event>
 4    1  0.1321115E-008  0.2094796E+04  0.7816531E-02  0.8563539E-01
          2   -1    0    0  501    0  0.00000000000E+00  0.00000000000E+00  0.22523281399E+04  0.22523281399E+04  0.00000000000E+00 0.  1.
         -2   -1    0    0    0  501 -0.00000000000E+00 -0.00000000000E+00 -0.48707031833E+03  0.48707031833E+03  0.00000000000E+00 0. -1.
    2000013    1    1    2    0    0 -0.25643761253E+03  0.28766794304E+03  0.60206633521E+03  0.11889057854E+04  0.95000000000E+03 0.  0.
   -2000013    1    1    2    0    0  0.25643761253E+03 -0.28766794304E+03  0.11631914864E+04  0.15504926729E+04  0.95000000000E+03 0.  0.
<mgrwt>
<rscale>  0 0.20947956E+04</rscale>
<asrwt>0</asrwt>
<pdfrwt beam="1">  1        2 0.34651202E+00 0.20947956E+04</pdfrwt>
<pdfrwt beam="2">  1       -2 0.74933896E-01 0.20947956E+04</pdfrwt>
<totfact> 0.71162195E+00</totfact>
</mgrwt>
</event>
<event>
 4    1  0.1321115E-008  0.2774318E+04  0.7816531E-02  0.8311286E-01
          2   -1    0    0  501    0  0.00000000000E+00  0.00000000000E+00  0.11778100952E+04  0.11778100952E+04  0.00000000000E+00 0.  1.
         -2   -1    0    0    0  501 -0.00000000000E+00 -0.00000000000E+00 -0.16337183969E+04  0.16337183969E+04  0.00000000000E+00 0. -1.
    2000013    1    1    2    0    0 -0.25586402845E+03  0.94441882846E+03  0.29054723869E+02  0.13640885241E+04  0.95000000000E+03 0.  0.
   -2000013    1    1    2    0    0  0.25586402845E+03 -0.94441882846E+03 -0.48496302561E+03  0.14474399679E+04  0.95000000000E+03 0.  0.
<mgrwt>
<rscale>  0 0.27743179E+04</rscale>
<asrwt>0</asrwt>
<pdfrwt beam="1">  1        2 0.18120155E+00 0.27743179E+04</pdfrwt>
<pdfrwt beam="2">  1       -2 0.25134129E+00 0.27743179E+04</pdfrwt>
<totfact> 0.10737932E+00</totfact>
</mgrwt>
</event>
<event>
 4    1  0.1321115E-008  0.2274357E+04  0.7816531E-02  0.8488101E-01
          2   -1    0    0  501    0  0.00000000000E+00  0.00000000000E+00  0.30616976364E+04  0.30616976364E+04  0.00000000000E+00 0.  1.
         -2   -1    0    0    0  501 -0.00000000000E+00 -0.00000000000E+00 -0.42237178962E+03  0.42237178962E+03  0.00000000000E+00 0. -1.
    2000013    1    1    2    0    0  0.35346530064E+03  0.46270924175E+03  0.97155866936E+03  0.14783314274E+04  0.95000000000E+03 0.  0.
   -2000013    1    1    2    0    0 -0.35346530064E+03 -0.46270924175E+03  0.16677671774E+04  0.20057379987E+04  0.95000000000E+03 0.  0.
<mgrwt>
<rscale>  0 0.22743568E+04</rscale>
<asrwt>0</asrwt>
<pdfrwt beam="1">  1        2 0.47103039E+00 0.22743568E+04</pdfrwt>
<pdfrwt beam="2">  1       -2 0.64980277E-01 0.22743568E+04</pdfrwt>
<totfact> 0.31628101E+00</totfact>
</mgrwt>
</event>
<event>
 4    1  0.1321115E-008  0.2278593E+04  0.7816531E-02  0.8486410E-01
         -1   -1    0    0    0  501 -0.00000000000E+00  0.00000000000E+00  0.11786526878E+04  0.11786526878E+04  0.00000000000E+00 0. -1.
          1   -1    0    0  501    0  0.00000000000E+00 -0.00000000000E+00 -0.11012539719E+04  0.11012539719E+04  0.00000000000E+00 0.  1.
    2000013    1    1    2    0    0  0.56507229236E+03  0.21793844846E+03  0.20818444972E+03  0.11457070428E+04  0.95000000000E+03 0.  0.
   -2000013    1    1    2    0    0 -0.56507229236E+03 -0.21793844846E+03 -0.13078573383E+03  0.11341996169E+04  0.95000000000E+03 0.  0.
<mgrwt>
<rscale>  0 0.22785925E+04</rscale>
<asrwt>0</asrwt>
<pdfrwt beam="2">  1        1 0.16942369E+00 0.22785925E+04</pdfrwt>
<pdfrwt beam="1">  1       -1 0.18133118E+00 0.22785925E+04</pdfrwt>
<totfact> 0.23323704E+00</totfact>
</mgrwt>
</event>
<event>
 4    1  0.1321115E-008  0.2934547E+04  0.7816531E-02  0.8262672E-01
         -2   -1    0    0    0  501 -0.00000000000E+00  0.00000000000E+00  0.16253625683E+04  0.16253625683E+04  0.00000000000E+00 0.  1.
          2   -1    0    0  501    0  0.00000000000E+00 -0.00000000000E+00 -0.13245612152E+04  0.13245612152E+04  0.00000000000E+00 0. -1.
    2000013    1    1    2    0    0 -0.42464746578E+03  0.58241833035E+03  0.10097810996E+04  0.15625922216E+04  0.95000000000E+03 0.  0.
   -2000013    1    1    2    0    0  0.42464746578E+03 -0.58241833035E+03 -0.70897974651E+03  0.13873315619E+04  0.95000000000E+03 0.  0.
<mgrwt>
<rscale>  0 0.29345475E+04</rscale>
<asrwt>0</asrwt>
<pdfrwt beam="2">  1        2 0.20377865E+00 0.29345475E+04</pdfrwt>
<pdfrwt beam="1">  1       -2 0.25005578E+00 0.29345475E+04</pdfrwt>
<totfact> 0.88395535E-01</totfact>
</mgrwt>
</event>
<event>
 4    1  0.1321115E-008  0.2567261E+04  0.7816531E-02  0.8379408E-01
          2   -1    0    0  501    0  0.00000000000E+00  0.00000000000E+00  0.12462099421E+04  0.12462099421E+04  0.00000000000E+00 0.  1.
         -2   -1    0    0    0  501 -0.00000000000E+00 -0.00000000000E+00 -0.13221743877E+04  0.13221743877E+04  0.00000000000E+00 0. -1.
    2000013    1    1    2    0    0 -0.15094780670E+03 -0.84122944330E+03 -0.15950410929E+03  0.12877863866E+04  0.95000000000E+03 0.  0.
   -2000013    1    1    2    0    0  0.15094780670E+03  0.84122944330E+03  0.83539663732E+02  0.12805979432E+04  0.95000000000E+03 0.  0.
<mgrwt>
<rscale>  0 0.25672607E+04</rscale>
<asrwt>0</asrwt>
<pdfrwt beam="1">  1        2 0.19172461E+00 0.25672607E+04</pdfrwt>
<pdfrwt beam="2">  1       -2 0.20341144E+00 0.25672607E+04</pdfrwt>
<totfact> 0.19921842E+00</totfact>
</mgrwt>
</event>
<event>
 4    1  0.1321115E-008  0.2034567E+04  0.7816531E-02  0.8590628E-01
         -2   -1    0    0    0  501 -0.00000000000E+00  0.00000000000E+00  0.52843027524E+03  0.52843027524E+03  0.00000000000E+00 0. -1.
          2   -1    0    0  501    0  0.00000000000E+00 -0.00000000000E+00 -0.19583767738E+04  0.19583767738E+04  0.00000000000E+00 0.  1.
    2000013    1    1    2    0    0 -0.16758644503E+03  0.32115979025E+03 -0.67376324706E+03  0.12197072356E+04  0.95000000000E+03 0.  0.
   -2000013    1    1    2    0    0  0.16758644503E+03 -0.32115979025E+03 -0.75618325153E+03  0.12670998135E+04  0.95000000000E+03 0.  0.
<mgrwt>
<rscale>  0 0.20345669E+04</rscale>
<asrwt>0</asrwt>
<pdfrwt beam="2">  1        2 0.30128874E+00 0.20345669E+04</pdfrwt>
<pdfrwt beam="1">  1       -2 0.81296965E-01 0.20345669E+04</pdfrwt>
<totfact> 0.87026225E+00</totfact>
</mgrwt>
</event>
<event>
 4    1  0.1321115E-008  0.2025096E+04  0.7816531E-02  0.8594976E-01
         -2   -1    0    0    0  501 -0.00000000000E+00  0.00000000000E+00  0.89148678853E+03  0.89148678853E+03  0.00000000000E+00 0. -1.
          2   -1    0    0  501    0  0.00000000000E+00 -0.00000000000E+00 -0.11500491670E+04  0.11500491670E+04  0.00000000000E+00 0.  1.
    2000013    1    1    2    0    0  0.12125645999E+03  0.28638572912E+03  0.33378344340E+02  0.10001670005E+04  0.95000000000E+03 0.  0.
   -2000013    1    1    2    0    0 -0.12125645999E+03 -0.28638572912E+03 -0.29194072280E+03  0.10413689551E+04  0.95000000000E+03 0.  0.
<mgrwt>
<rscale>  0 0.20250962E+04</rscale>
<asrwt>0</asrwt>
<pdfrwt beam="2">  1        2 0.17693064E+00 0.20250962E+04</pdfrwt>
<pdfrwt beam="1">  1       -2 0.13715181E+00 0.20250962E+04</pdfrwt>
<totfact> 0.71310785E+00</totfact>
</mgrwt>
</event>
<event>
 4    1  0.1321115E-008  0.3151316E+04  0.7816531E-02  0.8201794E-01
          2   -1    0    0  501    0  0.00000000000E+00  0.00000000000E+00  0.42439390366E+04  0.42439390366E+04  0.00000000000E+00 0.  1.
         -2   -1    0    0    0  501 -0.00000000000E+00 -0.00000000000E+00 -0.58499871348E+03  0.58499871348E+03  0.00000000000E+00 0. -1.
    2000013    1    1    2    0    0  0.84771380698E+03  0.88457530075E+03  0.22604592382E+04  0.27410341350E+04  0.95000000000E+03 0.  0.
   -2000013    1    1    2    0    0 -0.84771380698E+03 -0.88457530075E+03  0.13984810848E+04  0.20879036151E+04  0.95000000000E+03 0.  0.
<mgrwt>
<rscale>  0 0.31513165E+04</rscale>
<asrwt>0</asrwt>
<pdfrwt beam="1">  1        2 0.65291368E+00 0.31513165E+04</pdfrwt>
<pdfrwt beam="2">  1       -2 0.89999805E-01 0.31513165E+04</pdfrwt>
<totfact> 0.18981981E-01</totfact>
</mgrwt>
</event>
<event>
 4    1  0.1321115E-008  0.1935176E+04  0.7816531E-02  0.8637542E-01
          2   -1    0    0  501    0  0.00000000000E+00  0.00000000000E+00  0.31957020733E+04  0.31957020733E+04  0.00000000000E+00 0.  1.
         -2   -1    0    0    0  501 -0.00000000000E+00 -0.00000000000E+00 -0.29296439777E+03  0.29296439777E+03  0.00000000000E+00 0. -1.
    2000013    1    1    2    0    0 -0.12042214337E+03  0.44694235508E+02  0.12147471033E+04  0.15474526139E+04  0.95000000000E+03 0.  0.
   -2000013    1    1    2    0    0  0.12042214337E+03 -0.44694235508E+02  0.16879905722E+04  0.19412138571E+04  0.95000000000E+03 0.  0.
<mgrwt>
<rscale>  0 0.19351764E+04</rscale>
<asrwt>0</asrwt>
<pdfrwt beam="1">  1        2 0.49164645E+00 0.19351764E+04</pdfrwt>
<pdfrwt beam="2">  1       -2 0.45071448E-01 0.19351764E+04</pdfrwt>
<totfact> 0.57133781E+00</totfact>
</mgrwt>
</event>
<event>
 4    1  0.1321115E-008  0.3166595E+04  0.7816531E-02  0.8197696E-01
         -2   -1    0    0    0  501 -0.00000000000E+00  0.00000000000E+00  0.96608752173E+03  0.96608752173E+03  0.00000000000E+00 0. -1.
          2   -1    0    0  501    0  0.00000000000E+00 -0.00000000000E+00 -0.25948275897E+04  0.25948275897E+04  0.00000000000E+00 0.  1.
    2000013    1    1    2    0    0 -0.90366990612E+02  0.12609753557E+04 -0.72650212728E+03  0.17402673305E+04  0.95000000000E+03 0.  0.
   -2000013    1    1    2    0    0  0.90366990612E+02 -0.12609753557E+04 -0.90223794067E+03  0.18206477809E+04  0.95000000000E+03 0.  0.
<mgrwt>
<rscale>  0 0.31665947E+04</rscale>
<asrwt>0</asrwt>
<pdfrwt beam="2">  1        2 0.39920424E+00 0.31665947E+04</pdfrwt>
<pdfrwt beam="1">  1       -2 0.14862885E+00 0.31665947E+04</pdfrwt>
<totfact> 0.79419617E-01</totfact>
</mgrwt>
</event>
<event>
 4    1  0.1321115E-008  0.3624336E+04  0.7816531E-02  0.8084940E-01
          2   -1    0    0  501    0  0.00000000000E+00  0.00000000000E+00  0.11947431029E+04  0.11947431029E+04  0.00000000000E+00 0.  1.
         -2   -1    0    0    0  501 -0.00000000000E+00 -0.00000000000E+00 -0.27486683139E+04  0.27486683139E+04  0.00000000000E+00 0. -1.
    2000013    1    1    2    0    0 -0.54359768167E+02 -0.14421102867E+04 -0.13717273014E+04  0.22060763479E+04  0.95000000000E+03 0.  0.
   -2000013    1    1    2    0    0  0.54359768167E+02  0.14421102867E+04 -0.18219790960E+03  0.17373350689E+04  0.95000000000E+03 0.  0.
<mgrwt>
<rscale>  0 0.36243358E+04</rscale>
<asrwt>0</asrwt>
<pdfrwt beam="1">  1        2 0.18380663E+00 0.36243358E+04</pdfrwt>
<pdfrwt beam="2">  1       -2 0.42287204E+00 0.36243358E+04</pdfrwt>
<totfact> 0.81379001E-02</totfact>
</mgrwt>
</event>
<event>
 4    1  0.1321115E-008  0.2334380E+04  0.7816531E-02  0.8464488E-01
         -2   -1    0    0    0  501 -0.00000000000E+00  0.00000000000E+00  0.84738317055E+03  0.84738317055E+03  0.00000000000E+00 0. -1.
          2   -1    0    0  501    0  0.00000000000E+00 -0.00000000000E+00 -0.16076932778E+04  0.16076932778E+04  0.00000000000E+00 0.  1.
    2000013    1    1    2    0    0  0.53116207424E+03  0.40032383888E+03 -0.51904331101E+03  0.12705503862E+04  0.95000000000E+03 0.  0.
   -2000013    1    1    2    0    0 -0.53116207424E+03 -0.40032383888E+03 -0.24126679627E+03  0.11845260622E+04  0.95000000000E+03 0.  0.
<mgrwt>
<rscale>  0 0.23343798E+04</rscale>
<asrwt>0</asrwt>
<pdfrwt beam="2">  1        2 0.24733742E+00 0.23343798E+04</pdfrwt>
<pdfrwt beam="1">  1       -2 0.13036664E+00 0.23343798E+04</pdfrwt>
<totfact> 0.43053086E+00</totfact>
</mgrwt>
</event>
<event>
 4    1  0.1321115E-008  0.2448187E+04  0.7816531E-02  0.8421680E-01
          2   -1    0    0  501    0  0.00000000000E+00  0.00000000000E+00  0.73306581635E+03  0.73306581635E+03  0.00000000000E+00 0.  1.
         -2   -1    0    0    0  501 -0.00000000000E+00 -0.00000000000E+00 -0.20440246153E+04  0.20440246153E+04  0.00000000000E+00 0. -1.
    2000013    1    1    2    0    0  0.61298334217E+03 -0.34244462372E+03 -0.10193334036E+04  0.15603068563E+04  0.95000000000E+03 0.  0.
   -2000013    1    1    2    0    0 -0.61298334217E+03  0.34244462372E+03 -0.29162539539E+03  0.12167835754E+04  0.95000000000E+03 0.  0.
<mgrwt>
<rscale>  0 0.24481867E+04</rscale>
<asrwt>0</asrwt>
<pdfrwt beam="1">  1        2 0.11277936E+00 0.24481867E+04</pdfrwt>
<pdfrwt beam="2">  1       -2 0.31446532E+00 0.24481867E+04</pdfrwt>
<totfact> 0.89645307E-01</totfact>
</mgrwt>
</event>
<event>
 4    1  0.1321115E-008  0.2997876E+04  0.7816531E-02  0.8244338E-01
         -1   -1    0    0    0  501 -0.00000000000E+00  0.00000000000E+00  0.11154770578E+04  0.11154770578E+04  0.00000000000E+00 0. -1.
          1   -1    0    0  501    0  0.00000000000E+00 -0.00000000000E+00 -0.20142195329E+04  0.20142195329E+04  0.00000000000E+00 0.  1.
    2000013    1    1    2    0    0  0.86540171076E+03  0.77072433137E+03 -0.41059558028E+03  0.15537132446E+04  0.95000000000E+03 0.  0.
   -2000013    1    1    2    0    0 -0.86540171076E+03 -0.77072433137E+03 -0.48814689481E+03  0.15759833460E+04  0.95000000000E+03 0.  0.
<mgrwt>
<rscale>  0 0.29978764E+04</rscale>
<asrwt>0</asrwt>
<pdfrwt beam="2">  1        1 0.30987993E+00 0.29978764E+04</pdfrwt>
<pdfrwt beam="1">  1       -1 0.17161186E+00 0.29978764E+04</pdfrwt>
<totfact> 0.59401664E-01</totfact>
</mgrwt>
</event>
<event>
 4    1  0.1321115E-008  0.2276883E+04  0.7816531E-02  0.8487092E-01
          2   -1    0    0  501    0  0.00000000000E+00  0.00000000000E+00  0.96021597141E+03  0.96021597141E+03  0.00000000000E+00 0.  1.
         -2   -1    0    0    0  501 -0.00000000000E+00 -0.00000000000E+00 -0.13497475023E+04  0.13497475023E+04  0.00000000000E+00 0. -1.
    2000013    1    1    2    0    0 -0.21712331854E+03  0.47602594845E+03  0.15639293788E+03  0.10957654813E+04  0.95000000000E+03 0.  0.
   -2000013    1    1    2    0    0  0.21712331854E+03 -0.47602594845E+03 -0.54592446873E+03  0.12141979923E+04  0.95000000000E+03 0.  0.
<mgrwt>
<rscale>  0 0.22768831E+04</rscale>
<asrwt>0</asrwt>
<pdfrwt beam="1">  1        2 0.14772553E+00 0.22768831E+04</pdfrwt>
<pdfrwt beam="2">  1       -2 0.20765346E+00 0.22768831E+04</pdfrwt>
<totfact> 0.28783844E+00</totfact>
</mgrwt>
</event>
<event>
 4    1  0.1321115E-008  0.2868146E+04  0.7816531E-02  0.8282418E-01
         -2   -1    0    0    0  501 -0.00000000000E+00  0.00000000000E+00  0.12701738869E+04  0.12701738869E+04  0.00000000000E+00 0. -1.
          2   -1    0    0  501    0  0.00000000000E+00 -0.00000000000E+00 -0.16191215329E+04  0.16191215329E+04  0.00000000000E+00 0.  1.
    2000013    1    1    2    0    0 -0.79791552790E+03  0.24522467164E+03 -0.85567123094E+03  0.15269176745E+04  0.95000000000E+03 0.  0.
   -2000013    1    1    2    0    0  0.79791552790E+03 -0.24522467164E+03  0.50672358491E+03  0.13623777453E+04  0.95000000000E+03 0.  0.
<mgrwt>
<rscale>  0 0.28681464E+04</rscale>
<asrwt>0</asrwt>
<pdfrwt beam="2">  1        2 0.24909562E+00 0.28681464E+04</pdfrwt>
<pdfrwt beam="1">  1       -2 0.19541137E+00 0.28681464E+04</pdfrwt>
<totfact> 0.13429241E+00</totfact>
</mgrwt>
</event>
<event>
 4    1  0.1321115E-008  0.2334600E+04  0.7816531E-02  0.8464403E-01
         -2   -1    0    0    0  501 -0.00000000000E+00  0.00000000000E+00  0.13945139390E+04  0.13945139390E+04  0.00000000000E+00 0. -1.
          2   -1    0    0  501    0  0.00000000000E+00 -0.00000000000E+00 -0.97710670308E+03  0.97710670308E+03  0.00000000000E+00 0.  1.
    2000013    1    1    2    0    0  0.60233231337E+03 -0.30104654791E+03  0.29157964764E+03  0.12003965722E+04  0.95000000000E+03 0.  0.
   -2000013    1    1    2    0    0 -0.60233231337E+03  0.30104654791E+03  0.12582758825E+03  0.11712240698E+04  0.95000000000E+03 0.  0.
<mgrwt>
<rscale>  0 0.23345997E+04</rscale>
<asrwt>0</asrwt>
<pdfrwt beam="2">  1        2 0.15032411E+00 0.23345997E+04</pdfrwt>
<pdfrwt beam="1">  1       -2 0.21454061E+00 0.23345997E+04</pdfrwt>
<totfact> 0.25222385E+00</totfact>
</mgrwt>
</event>
<event>
 4    1  0.1321115E-008  0.2173218E+04  0.7816531E-02  0.8529659E-01
         -2   -1    0    0    0  501 -0.00000000000E+00  0.00000000000E+00  0.63270759463E+03  0.63270759463E+03  0.00000000000E+00 0. -1.
          2   -1    0    0  501    0  0.00000000000E+00 -0.00000000000E+00 -0.18661371479E+04  0.18661371479E+04  0.00000000000E+00 0.  1.
    2000013    1    1    2    0    0 -0.39668664339E+03  0.34447596177E+03 -0.67058757622E+03  0.12760139806E+04  0.95000000000E+03 0.  0.
   -2000013    1    1    2    0    0  0.39668664339E+03 -0.34447596177E+03 -0.56284197709E+03  0.12228307620E+04  0.95000000000E+03 0.  0.
<mgrwt>
<rscale>  0 0.21732180E+04</rscale>
<asrwt>0</asrwt>
<pdfrwt beam="2">  1        2 0.28709803E+00 0.21732180E+04</pdfrwt>
<pdfrwt beam="1">  1       -2 0.97339628E-01 0.21732180E+04</pdfrwt>
<totfact> 0.63940663E+00</totfact>
</mgrwt>
</event>
<event>
 4    1  0.1321115E-008  0.2225629E+04  0.7816531E-02  0.8507836E-01
         -1   -1    0    0    0  501 -0.00000000000E+00  0.00000000000E+00  0.64399165603E+03  0.64399165603E+03  0.00000000000E+00 0. -1.
          1   -1    0    0  501    0  0.00000000000E+00 -0.00000000000E+00 -0.19229385382E+04  0.19229385382E+04  0.00000000000E+00 0.  1.
    2000013    1    1    2    0    0 -0.37090569585E+03 -0.38796244561E+02 -0.12784823970E+03  0.10285530401E+04  0.95000000000E+03 0.  0.
   -2000013    1    1    2    0    0  0.37090569585E+03  0.38796244561E+02 -0.11510986425E+04  0.15383771542E+04  0.95000000000E+03 0.  0.
<mgrwt>
<rscale>  0 0.22256292E+04</rscale>
<asrwt>0</asrwt>
<pdfrwt beam="2">  1        1 0.29583670E+00 0.22256292E+04</pdfrwt>
<pdfrwt beam="1">  1       -1 0.99075640E-01 0.22256292E+04</pdfrwt>
<totfact> 0.29765276E+00</totfact>
</mgrwt>
</event>
<event>
 4    1  0.1321115E-008  0.2250509E+04  0.7816531E-02  0.8497694E-01
         -2   -1    0    0    0  501 -0.00000000000E+00  0.00000000000E+00  0.82151050077E+03  0.82151050077E+03  0.00000000000E+00 0. -1.
          2   -1    0    0  501    0  0.00000000000E+00 -0.00000000000E+00 -0.15413042842E+04  0.15413042842E+04  0.00000000000E+00 0.  1.
    2000013    1    1    2    0    0 -0.48206371466E+02 -0.29792805539E+03 -0.90807533469E+03  0.13484011992E+04  0.95000000000E+03 0.  0.
   -2000013    1    1    2    0    0  0.48206371466E+02  0.29792805539E+03  0.18828155130E+03  0.10144135858E+04  0.95000000000E+03 0.  0.
<mgrwt>
<rscale>  0 0.22505090E+04</rscale>
<asrwt>0</asrwt>
<pdfrwt beam="2">  1        2 0.23712373E+00 0.22505090E+04</pdfrwt>
<pdfrwt beam="1">  1       -2 0.12638623E+00 0.22505090E+04</pdfrwt>
<totfact> 0.51081924E+00</totfact>
</mgrwt>
</event>
<event>
 4    1  0.1321115E-008  0.2894415E+04  0.7816531E-02  0.8274541E-01
          2   -1    0    0  501    0  0.00000000000E+00  0.00000000000E+00  0.24899131235E+04  0.24899131235E+04  0.00000000000E+00 0.  1.
         -2   -1    0    0    0  501 -0.00000000000E+00 -0.00000000000E+00 -0.84115786868E+03  0.84115786868E+03  0.00000000000E+00 0. -1.
    2000013    1    1    2    0    0 -0.73425661164E+03  0.80646914275E+03  0.76817638127E+03  0.16377179863E+04  0.95000000000E+03 0.  0.
   -2000013    1    1    2    0    0  0.73425661164E+03 -0.80646914275E+03  0.88057887354E+03  0.16933530059E+04  0.95000000000E+03 0.  0.
<mgrwt>
<rscale>  0 0.28944153E+04</rscale>
<asrwt>0</asrwt>
<pdfrwt beam="1">  1        2 0.38306355E+00 0.28944153E+04</pdfrwt>
<pdfrwt beam="2">  1       -2 0.12940890E+00 0.28944153E+04</pdfrwt>
<totfact> 0.13381934E+00</totfact>
</mgrwt>
</event>
<event>
 4    1  0.1321115E-008  0.2563270E+04  0.7816531E-02  0.8380786E-01
         -2   -1    0    0    0  501 -0.00000000000E+00  0.00000000000E+00  0.13286587542E+04  0.13286587542E+04  0.00000000000E+00 0. -1.
          2   -1    0    0  501    0  0.00000000000E+00 -0.00000000000E+00 -0.12362756223E+04  0.12362756223E+04  0.00000000000E+00 0.  1.
    2000013    1    1    2    0    0  0.69731336898E+03  0.50380448144E+03  0.51046327410E+02  0.12826420458E+04  0.95000000000E+03 0.  0.
   -2000013    1    1    2    0    0 -0.69731336898E+03 -0.50380448144E+03  0.41336804516E+02  0.12822923307E+04  0.95000000000E+03 0.  0.
<mgrwt>
<rscale>  0 0.25632701E+04</rscale>
<asrwt>0</asrwt>
<pdfrwt beam="2">  1        2 0.19019625E+00 0.25632701E+04</pdfrwt>
<pdfrwt beam="1">  1       -2 0.20440904E+00 0.25632701E+04</pdfrwt>
<totfact> 0.19899921E+00</totfact>
</mgrwt>
</event>
<event>
 4    1  0.1321115E-008  0.2447875E+04  0.7816531E-02  0.8421794E-01
          2   -1    0    0  501    0  0.00000000000E+00  0.00000000000E+00  0.24949556378E+04  0.24949556378E+04  0.00000000000E+00 0.  1.
         -2   -1    0    0    0  501 -0.00000000000E+00 -0.00000000000E+00 -0.60042078151E+03  0.60042078151E+03  0.00000000000E+00 0. -1.
    2000013    1    1    2    0    0  0.64492790362E+02  0.70888293746E+03  0.13241882840E+04  0.17783838029E+04  0.95000000000E+03 0.  0.
   -2000013    1    1    2    0    0 -0.64492790362E+02 -0.70888293746E+03  0.57034657228E+03  0.13169926164E+04  0.95000000000E+03 0.  0.
<mgrwt>
<rscale>  0 0.24478752E+04</rscale>
<asrwt>0</asrwt>
<pdfrwt beam="1">  1        2 0.38383932E+00 0.24478752E+04</pdfrwt>
<pdfrwt beam="2">  1       -2 0.92372429E-01 0.24478752E+04</pdfrwt>
<totfact> 0.31229622E+00</totfact>
</mgrwt>
</event>
<event>
 4    1  0.1321115E-008  0.2607915E+04  0.7816531E-02  0.8365517E-01
         -2   -1    0    0    0  501 -0.00000000000E+00  0.00000000000E+00  0.88751856189E+03  0.88751856189E+03  0.00000000000E+00 0. -1.
          2   -1    0    0  501    0  0.00000000000E+00 -0.00000000000E+00 -0.19157973712E+04  0.19157973712E+04  0.00000000000E+00 0.  1.
    2000013    1    1    2    0    0  0.28852494154E+03  0.15658315260E+03 -0.14070663457E+04  0.17291907433E+04  0.95000000000E+03 0.  0.
   -2000013    1    1    2    0    0 -0.28852494154E+03 -0.15658315260E+03  0.37878753641E+03  0.10741251898E+04  0.95000000000E+03 0.  0.
<mgrwt>
<rscale>  0 0.26079154E+04</rscale>
<asrwt>0</asrwt>
<pdfrwt beam="2">  1        2 0.29473806E+00 0.26079154E+04</pdfrwt>
<pdfrwt beam="1">  1       -2 0.13654132E+00 0.26079154E+04</pdfrwt>
<totfact> 0.25210430E+00</totfact>
</mgrwt>
</event>
<event>
 4    1  0.1321115E-008  0.2057282E+04  0.7816531E-02  0.8580298E-01
         -1   -1    0    0    0  501 -0.00000000000E+00  0.00000000000E+00  0.70761888564E+03  0.70761888564E+03  0.00000000000E+00 0. -1.
          1   -1    0    0  501    0  0.00000000000E+00 -0.00000000000E+00 -0.14953000521E+04  0.14953000521E+04  0.00000000000E+00 0.  1.
    2000013    1    1    2    0    0  0.20555394144E+03  0.22063938295E+03 -0.66614249156E+03  0.11988244155E+04  0.95000000000E+03 0.  0.
   -2000013    1    1    2    0    0 -0.20555394144E+03 -0.22063938295E+03 -0.12153867494E+03  0.10040945223E+04  0.95000000000E+03 0.  0.
<mgrwt>
<rscale>  0 0.20572822E+04</rscale>
<asrwt>0</asrwt>
<pdfrwt beam="2">  1        1 0.23004616E+00 0.20572822E+04</pdfrwt>
<pdfrwt beam="1">  1       -1 0.10886444E+00 0.20572822E+04</pdfrwt>
<totfact> 0.47584100E+00</totfact>
</mgrwt>
</event>
<event>
 4    1  0.1321115E-008  0.2630633E+04  0.7816531E-02  0.8357870E-01
          2   -1    0    0  501    0  0.00000000000E+00  0.00000000000E+00  0.14365790317E+04  0.14365790317E+04  0.00000000000E+00 0.  1.
         -2   -1    0    0    0  501 -0.00000000000E+00 -0.00000000000E+00 -0.12042902346E+04  0.12042902346E+04  0.00000000000E+00 0. -1.
    2000013    1    1    2    0    0 -0.51648849179E+03  0.16677134371E+03 -0.61675451671E+03  0.12559694173E+04  0.95000000000E+03 0.  0.
   -2000013    1    1    2    0    0  0.51648849179E+03 -0.16677134371E+03  0.84904331383E+03  0.13848998491E+04  0.95000000000E+03 0.  0.
<mgrwt>
<rscale>  0 0.26306335E+04</rscale>
<asrwt>0</asrwt>
<pdfrwt beam="1">  1        2 0.22101216E+00 0.26306335E+04</pdfrwt>
<pdfrwt beam="2">  1       -2 0.18527542E+00 0.26306335E+04</pdfrwt>
<totfact> 0.20302016E+00</totfact>
</mgrwt>
</event>
<event>
 4    1  0.1321115E-008  0.2319181E+04  0.7816531E-02  0.8470396E-01
         -2   -1    0    0    0  501 -0.00000000000E+00  0.00000000000E+00  0.54383690297E+03  0.54383690297E+03  0.00000000000E+00 0. -1.
          2   -1    0    0  501    0  0.00000000000E+00 -0.00000000000E+00 -0.24725255860E+04  0.24725255860E+04  0.00000000000E+00 0.  1.
    2000013    1    1    2    0    0  0.55347202320E+03  0.18295273072E+03 -0.13804348338E+04  0.17742331619E+04  0.95000000000E+03 0.  0.
   -2000013    1    1    2    0    0 -0.55347202320E+03 -0.18295273072E+03 -0.54825384918E+03  0.12421293271E+04  0.95000000000E+03 0.  0.
<mgrwt>
<rscale>  0 0.23191815E+04</rscale>
<asrwt>0</asrwt>
<pdfrwt beam="2">  1        2 0.38038855E+00 0.23191815E+04</pdfrwt>
<pdfrwt beam="1">  1       -2 0.83667216E-01 0.23191815E+04</pdfrwt>
<totfact> 0.40824262E+00</totfact>
</mgrwt>
</event>
<event>
 4    1  0.1321115E-008  0.2304260E+04  0.7816531E-02  0.8476243E-01
         -1   -1    0    0    0  501 -0.00000000000E+00  0.00000000000E+00  0.68556401237E+03  0.68556401237E+03  0.00000000000E+00 0. -1.
          1   -1    0    0  501    0  0.00000000000E+00 -0.00000000000E+00 -0.19362216017E+04  0.19362216017E+04  0.00000000000E+00 0.  1.
    2000013    1    1    2    0    0  0.24806561658E+03  0.34106669739E+03 -0.59806158039E+02  0.10411243051E+04  0.95000000000E+03 0.  0.
   -2000013    1    1    2    0    0 -0.24806561658E+03 -0.34106669739E+03 -0.11908514313E+04  0.15806613090E+04  0.95000000000E+03 0.  0.
<mgrwt>
<rscale>  0 0.23042603E+04</rscale>
<asrwt>0</asrwt>
<pdfrwt beam="2">  1        1 0.29788024E+00 0.23042603E+04</pdfrwt>
<pdfrwt beam="1">  1       -1 0.10547139E+00 0.23042603E+04</pdfrwt>
<totfact> 0.25058610E+00</totfact>
</mgrwt>
</event>
<event>
 4    1  0.1321115E-008  0.2351141E+04  0.7816531E-02  0.8458025E-01
         -1   -1    0    0    0  501 -0.00000000000E+00  0.00000000000E+00  0.64691867885E+03  0.64691867885E+03  0.00000000000E+00 0. -1.
          1   -1    0    0  501    0  0.00000000000E+00 -0.00000000000E+00 -0.21362286032E+04  0.21362286032E+04  0.00000000000E+00 0.  1.
    2000013    1    1    2    0    0  0.50039199765E+03 -0.17734163529E+03 -0.21842290042E+03  0.11099778243E+04  0.95000000000E+03 0.  0.
   -2000013    1    1    2    0    0 -0.50039199765E+03  0.17734163529E+03 -0.12708870240E+04  0.16731694578E+04  0.95000000000E+03 0.  0.
<mgrwt>
<rscale>  0 0.23511412E+04</rscale>
<asrwt>0</asrwt>
<pdfrwt beam="2">  1        1 0.32865055E+00 0.23511412E+04</pdfrwt>
<pdfrwt beam="1">  1       -1 0.99525951E-01 0.23511412E+04</pdfrwt>
<totfact> 0.20873740E+00</totfact>
</mgrwt>
</event>
<event>
 4    1  0.1321115E-008  0.3410604E+04  0.7816531E-02  0.8135309E-01
         -2   -1    0    0    0  501 -0.00000000000E+00  0.00000000000E+00  0.98039641295E+03  0.98039641295E+03  0.00000000000E+00 0. -1.
          2   -1    0    0  501    0  0.00000000000E+00 -0.00000000000E+00 -0.29662038560E+04  0.29662038560E+04  0.00000000000E+00 0.  1.
    2000013    1    1    2    0    0  0.70837312896E+03 -0.11595398044E+04 -0.14546517178E+04  0.22056374743E+04  0.95000000000E+03 0.  0.
   -2000013    1    1    2    0    0 -0.70837312896E+03  0.11595398044E+04 -0.53115572522E+03  0.17409627946E+04  0.95000000000E+03 0.  0.
<mgrwt>
<rscale>  0 0.34106044E+04</rscale>
<asrwt>0</asrwt>
<pdfrwt beam="2">  1        2 0.45633905E+00 0.34106044E+04</pdfrwt>
<pdfrwt beam="1">  1       -2 0.15083022E+00 0.34106044E+04</pdfrwt>
<totfact> 0.44644029E-01</totfact>
</mgrwt>
</event>
<event>
 4    1  0.1321115E-008  0.3142569E+04  0.7816531E-02  0.8204151E-01
         -2   -1    0    0    0  501 -0.00000000000E+00  0.00000000000E+00  0.10849310793E+04  0.10849310793E+04  0.00000000000E+00 0. -1.
          2   -1    0    0  501    0  0.00000000000E+00 -0.00000000000E+00 -0.22756609656E+04  0.22756609656E+04  0.00000000000E+00 0.  1.
    2000013    1    1    2    0    0 -0.96539057524E+03  0.72885061393E+03 -0.93895491987E+03  0.18020373253E+04  0.95000000000E+03 0.  0.
   -2000013    1    1    2    0    0  0.96539057524E+03 -0.72885061393E+03 -0.25177496643E+03  0.15585547196E+04  0.95000000000E+03 0.  0.
<mgrwt>
<rscale>  0 0.31425692E+04</rscale>
<asrwt>0</asrwt>
<pdfrwt beam="2">  1        2 0.35010168E+00 0.31425692E+04</pdfrwt>
<pdfrwt beam="1">  1       -2 0.16691248E+00 0.31425692E+04</pdfrwt>
<totfact> 0.88794184E-01</totfact>
</mgrwt>
</event>
<event>
 4    1  0.1321115E-008  0.2316290E+04  0.7816531E-02  0.8471526E-01
         -2   -1    0    0    0  501 -0.00000000000E+00  0.00000000000E+00  0.65999876554E+03  0.65999876554E+03  0.00000000000E+00 0.  1.
          2   -1    0    0  501    0  0.00000000000E+00 -0.00000000000E+00 -0.20322770865E+04  0.20322770865E+04  0.00000000000E+00 0. -1.
    2000013    1    1    2    0    0 -0.20563366598E+03  0.29088090292E+03 -0.13352765690E+04  0.16770093679E+04  0.95000000000E+03 0.  0.
   -2000013    1    1    2    0    0  0.20563366598E+03 -0.29088090292E+03 -0.37001751996E+02  0.10152664842E+04  0.95000000000E+03 0.  0.
<mgrwt>
<rscale>  0 0.23162905E+04</rscale>
<asrwt>0</asrwt>
<pdfrwt beam="2">  1        2 0.31265800E+00 0.23162905E+04</pdfrwt>
<pdfrwt beam="1">  1       -2 0.10153828E+00 0.23162905E+04</pdfrwt>
<totfact> 0.46226440E+00</totfact>
</mgrwt>
</event>
<event>
 4    1  0.1321115E-008  0.2982048E+04  0.7816531E-02  0.8248876E-01
         -2   -1    0    0    0  501 -0.00000000000E+00  0.00000000000E+00  0.20454792183E+04  0.20454792183E+04  0.00000000000E+00 0. -1.
          2   -1    0    0  501    0  0.00000000000E+00 -0.00000000000E+00 -0.10868611635E+04  0.10868611635E+04  0.00000000000E+00 0.  1.
    2000013    1    1    2    0    0  0.72342483601E+03  0.49377597400E+03 -0.30215812959E+03  0.13270108293E+04  0.95000000000E+03 0.  0.
   -2000013    1    1    2    0    0 -0.72342483601E+03 -0.49377597400E+03  0.12607761844E+04  0.18053295525E+04  0.95000000000E+03 0.  0.
<mgrwt>
<rscale>  0 0.29820476E+04</rscale>
<asrwt>0</asrwt>
<pdfrwt beam="2">  1        2 0.16720941E+00 0.29820476E+04</pdfrwt>
<pdfrwt beam="1">  1       -2 0.31468911E+00 0.29820476E+04</pdfrwt>
<totfact> 0.49132209E-01</totfact>
</mgrwt>
</event>
<event>
 4    1  0.1321115E-008  0.2378969E+04  0.7816531E-02  0.8447419E-01
          2   -1    0    0  501    0  0.00000000000E+00  0.00000000000E+00  0.26184033486E+04  0.26184033486E+04  0.00000000000E+00 0.  1.
         -2   -1    0    0    0  501 -0.00000000000E+00 -0.00000000000E+00 -0.54035731401E+03  0.54035731401E+03  0.00000000000E+00 0. -1.
    2000013    1    1    2    0    0  0.56298997311E+03 -0.29565671143E+03  0.14753835275E+04  0.18664477367E+04  0.95000000000E+03 0.  0.
   -2000013    1    1    2    0    0 -0.56298997311E+03  0.29565671143E+03  0.60266250707E+03  0.12923129258E+04  0.95000000000E+03 0.  0.
<mgrwt>
<rscale>  0 0.23789690E+04</rscale>
<asrwt>0</asrwt>
<pdfrwt beam="1">  1        2 0.40283128E+00 0.23789690E+04</pdfrwt>
<pdfrwt beam="2">  1       -2 0.83131896E-01 0.23789690E+04</pdfrwt>
<totfact> 0.33885797E+00</totfact>
</mgrwt>
</event>
<event>
 4    1  0.1321115E-008  0.2700645E+04  0.7816531E-02  0.8334796E-01
         -2   -1    0    0    0  501 -0.00000000000E+00  0.00000000000E+00  0.83893580049E+03  0.83893580049E+03  0.00000000000E+00 0. -1.
          2   -1    0    0  501    0  0.00000000000E+00 -0.00000000000E+00 -0.21734339060E+04  0.21734339060E+04  0.00000000000E+00 0.  1.
    2000013    1    1    2    0    0  0.51334228572E+03 -0.70345644642E+03 -0.11168919067E+04  0.17053793729E+04  0.95000000000E+03 0.  0.
   -2000013    1    1    2    0    0 -0.51334228572E+03  0.70345644642E+03 -0.21760619882E+03  0.13069903336E+04  0.95000000000E+03 0.  0.
<mgrwt>
<rscale>  0 0.27006455E+04</rscale>
<asrwt>0</asrwt>
<pdfrwt beam="2">  1        2 0.33437445E+00 0.27006455E+04</pdfrwt>
<pdfrwt beam="1">  1       -2 0.12906705E+00 0.27006455E+04</pdfrwt>
<totfact> 0.20735942E+00</totfact>
</mgrwt>
</event>
<event>
 4    1  0.1321115E-008  0.2338881E+04  0.7816531E-02  0.8462747E-01
          4   -1    0    0  501    0  0.00000000000E+00  0.00000000000E+00  0.13355446298E+04  0.13355446298E+04  0.00000000000E+00 0.  1.
         -4   -1    0    0    0  501 -0.00000000000E+00 -0.00000000000E+00 -0.10239953596E+04  0.10239953596E+04  0.00000000000E+00 0. -1.
    2000013    1    1    2    0    0 -0.37033247146E+03  0.57243773543E+03  0.17205417915E+03  0.11819195154E+04  0.95000000000E+03 0.  0.
   -2000013    1    1    2    0    0  0.37033247146E+03 -0.57243773543E+03  0.13949509104E+03  0.11776204740E+04  0.95000000000E+03 0.  0.
<mgrwt>
<rscale>  0 0.23388814E+04</rscale>
<asrwt>0</asrwt>
<pdfrwt beam="1">  1        4 0.20546840E+00 0.23388814E+04</pdfrwt>
<pdfrwt beam="2">  1       -4 0.15753775E+00 0.23388814E+04</pdfrwt>
<totfact> 0.57055915E-02</totfact>
</mgrwt>
</event>
<event>
 4    1  0.1321115E-008  0.2685675E+04  0.7816531E-02  0.8339668E-01
          2   -1    0    0  501    0  0.00000000000E+00  0.00000000000E+00  0.34589144417E+04  0.34589144417E+04  0.00000000000E+00 0.  1.
         -2   -1    0    0    0  501 -0.00000000000E+00 -0.00000000000E+00 -0.52132343470E+03  0.52132343470E+03  0.00000000000E+00 0. -1.
    2000013    1    1    2    0    0  0.84182747013E+03 -0.72442959646E+02  0.21093178248E+04  0.24628526464E+04  0.95000000000E+03 0.  0.
   -2000013    1    1    2    0    0 -0.84182747013E+03  0.72442959646E+02  0.82827318221E+03  0.15173852300E+04  0.95000000000E+03 0.  0.
<mgrwt>
<rscale>  0 0.26856755E+04</rscale>
<asrwt>0</asrwt>
<pdfrwt beam="1">  1        2 0.53214067E+00 0.26856755E+04</pdfrwt>
<pdfrwt beam="2">  1       -2 0.80203607E-01 0.26856755E+04</pdfrwt>
<totfact> 0.10485107E+00</totfact>
</mgrwt>
</event>
<event>
 4    1  0.1321115E-008  0.3153081E+04  0.7816531E-02  0.8201320E-01
          2   -1    0    0  501    0  0.00000000000E+00  0.00000000000E+00  0.30947559813E+04  0.30947559813E+04  0.00000000000E+00 0.  1.
         -2   -1    0    0    0  501 -0.00000000000E+00 -0.00000000000E+00 -0.80312605674E+03  0.80312605674E+03  0.00000000000E+00 0. -1.
    2000013    1    1    2    0    0 -0.17227506607E+03  0.86189708256E+03  0.22587054463E+04  0.26032279141E+04  0.95000000000E+03 0.  0.
   -2000013    1    1    2    0    0  0.17227506607E+03 -0.86189708256E+03  0.32924478168E+02  0.12946541239E+04  0.95000000000E+03 0.  0.
<mgrwt>
<rscale>  0 0.31530805E+04</rscale>
<asrwt>0</asrwt>
<pdfrwt beam="1">  1        2 0.47611630E+00 0.31530805E+04</pdfrwt>
<pdfrwt beam="2">  1       -2 0.12355786E+00 0.31530805E+04</pdfrwt>
<totfact> 0.63232222E-01</totfact>
</mgrwt>
</event>
<event>
 4    1  0.1321115E-008  0.2809677E+04  0.7816531E-02  0.8300270E-01
         -2   -1    0    0    0  501 -0.00000000000E+00  0.00000000000E+00  0.10176465980E+04  0.10176465980E+04  0.00000000000E+00 0. -1.
          2   -1    0    0  501    0  0.00000000000E+00 -0.00000000000E+00 -0.19393477974E+04  0.19393477974E+04  0.00000000000E+00 0.  1.
    2000013    1    1    2    0    0 -0.21988867870E+03 -0.97791654461E+03 -0.18966003861E+03  0.13939665453E+04  0.95000000000E+03 0.  0.
   -2000013    1    1    2    0    0  0.21988867870E+03  0.97791654461E+03 -0.73204116080E+03  0.15630278501E+04  0.95000000000E+03 0.  0.
<mgrwt>
<rscale>  0 0.28096766E+04</rscale>
<asrwt>0</asrwt>
<pdfrwt beam="2">  1        2 0.29836120E+00 0.28096766E+04</pdfrwt>
<pdfrwt beam="1">  1       -2 0.15656102E+00 0.28096766E+04</pdfrwt>
<totfact> 0.16777117E+00</totfact>
</mgrwt>
</event>
<event>
 4    1  0.1321115E-008  0.2694704E+04  0.7816531E-02  0.8336725E-01
          2   -1    0    0  501    0  0.00000000000E+00  0.00000000000E+00  0.43405550557E+04  0.43405550557E+04  0.00000000000E+00 0.  1.
         -2   -1    0    0    0  501 -0.00000000000E+00 -0.00000000000E+00 -0.41823171033E+03  0.41823171033E+03  0.00000000000E+00 0. -1.
    2000013    1    1    2    0    0 -0.70920546646E+03  0.55215713240E+03  0.13888981484E+04  0.19077179978E+04  0.95000000000E+03 0.  0.
   -2000013    1    1    2    0    0  0.70920546646E+03 -0.55215713240E+03  0.25334251970E+04  0.28510687683E+04  0.95000000000E+03 0.  0.
<mgrwt>
<rscale>  0 0.26947043E+04</rscale>
<asrwt>0</asrwt>
<pdfrwt beam="1">  1        2 0.66777767E+00 0.26947043E+04</pdfrwt>
<pdfrwt beam="2">  1       -2 0.64343343E-01 0.26947043E+04</pdfrwt>
<totfact> 0.34205894E-01</totfact>
</mgrwt>
</event>
<event>
 4    1  0.1321115E-008  0.2344183E+04  0.7816531E-02  0.8460701E-01
          2   -1    0    0  501    0  0.00000000000E+00  0.00000000000E+00  0.28568011212E+04  0.28568011212E+04  0.00000000000E+00 0.  1.
         -2   -1    0    0    0  501 -0.00000000000E+00 -0.00000000000E+00 -0.48088692106E+03  0.48088692106E+03  0.00000000000E+00 0. -1.
    2000013    1    1    2    0    0  0.24604129776E+03 -0.64084952588E+03  0.12001936658E+04  0.16775545507E+04  0.95000000000E+03 0.  0.
   -2000013    1    1    2    0    0 -0.24604129776E+03  0.64084952588E+03  0.11757205343E+04  0.16601334916E+04  0.95000000000E+03 0.  0.
<mgrwt>
<rscale>  0 0.23441828E+04</rscale>
<asrwt>0</asrwt>
<pdfrwt beam="1">  1        2 0.43950786E+00 0.23441828E+04</pdfrwt>
<pdfrwt beam="2">  1       -2 0.73982605E-01 0.23441828E+04</pdfrwt>
<totfact> 0.31762290E+00</totfact>
</mgrwt>
</event>
<event>
 4    1  0.1321115E-008  0.1989378E+04  0.7816531E-02  0.8611603E-01
         -2   -1    0    0    0  501 -0.00000000000E+00  0.00000000000E+00  0.36783603753E+03  0.36783603753E+03  0.00000000000E+00 0. -1.
          2   -1    0    0  501    0  0.00000000000E+00 -0.00000000000E+00 -0.26898021500E+04  0.26898021500E+04  0.00000000000E+00 0.  1.
    2000013    1    1    2    0    0 -0.27918936371E+03  0.94648057230E+02 -0.11592930364E+04  0.15275356951E+04  0.95000000000E+03 0.  0.
   -2000013    1    1    2    0    0  0.27918936371E+03 -0.94648057230E+02 -0.11626730761E+04  0.15301024924E+04  0.95000000000E+03 0.  0.
<mgrwt>
<rscale>  0 0.19893780E+04</rscale>
<asrwt>0</asrwt>
<pdfrwt beam="2">  1        2 0.41381572E+00 0.19893780E+04</pdfrwt>
<pdfrwt beam="1">  1       -2 0.56590160E-01 0.19893780E+04</pdfrwt>
<totfact> 0.73436870E+00</totfact>
</mgrwt>
</event>
<event>
 4    1  0.1321115E-008  0.2552336E+04  0.7816531E-02  0.8384574E-01
         -2   -1    0    0    0  501 -0.00000000000E+00  0.00000000000E+00  0.47124326298E+03  0.47124326298E+03  0.00000000000E+00 0. -1.
          2   -1    0    0  501    0  0.00000000000E+00 -0.00000000000E+00 -0.34559745728E+04  0.34559745728E+04  0.00000000000E+00 0.  1.
    2000013    1    1    2    0    0 -0.21538448741E+03  0.82425668755E+03 -0.14650494958E+04  0.19428483187E+04  0.95000000000E+03 0.  0.
   -2000013    1    1    2    0    0  0.21538448741E+03 -0.82425668755E+03 -0.15196818140E+04  0.19843695170E+04  0.95000000000E+03 0.  0.
<mgrwt>
<rscale>  0 0.25523360E+04</rscale>
<asrwt>0</asrwt>
<pdfrwt beam="2">  1        2 0.53168839E+00 0.25523360E+04</pdfrwt>
<pdfrwt beam="1">  1       -2 0.72498965E-01 0.25523360E+04</pdfrwt>
<totfact> 0.13347221E+00</totfact>
</mgrwt>
</event>
<event>
 4    1  0.1321115E-008  0.3314820E+04  0.7816531E-02  0.8159135E-01
          2   -1    0    0  501    0  0.00000000000E+00  0.00000000000E+00  0.31444494628E+04  0.31444494628E+04  0.00000000000E+00 0.  1.
         -2   -1    0    0    0  501 -0.00000000000E+00 -0.00000000000E+00 -0.87360555503E+03  0.87360555503E+03  0.00000000000E+00 0. -1.
    2000013    1    1    2    0    0 -0.11330398327E+04 -0.57573798155E+03  0.55503810385E+03  0.16810177818E+04  0.95000000000E+03 0.  0.
   -2000013    1    1    2    0    0  0.11330398327E+04  0.57573798155E+03  0.17158058039E+04  0.23370372361E+04  0.95000000000E+03 0.  0.
<mgrwt>
<rscale>  0 0.33148204E+04</rscale>
<asrwt>0</asrwt>
<pdfrwt beam="1">  1        2 0.48376145E+00 0.33148204E+04</pdfrwt>
<pdfrwt beam="2">  1       -2 0.13440086E+00 0.33148204E+04</pdfrwt>
<totfact> 0.46859764E-01</totfact>
</mgrwt>
</event>
<event>
 4    1  0.1321115E-008  0.2389991E+04  0.7816531E-02  0.8443260E-01
          2   -1    0    0  501    0  0.00000000000E+00  0.00000000000E+00  0.12689308199E+04  0.12689308199E+04  0.00000000000E+00 0.  1.
         -2   -1    0    0    0  501 -0.00000000000E+00 -0.00000000000E+00 -0.11253676705E+04  0.11253676705E+04  0.00000000000E+00 0. -1.
    2000013    1    1    2    0    0 -0.41122642752E+03 -0.50007497499E+03 -0.25489140208E+03  0.11775617955E+04  0.95000000000E+03 0.  0.
   -2000013    1    1    2    0    0  0.41122642752E+03  0.50007497499E+03  0.39845455152E+03  0.12167366950E+04  0.95000000000E+03 0.  0.
<mgrwt>
<rscale>  0 0.23899906E+04</rscale>
<asrwt>0</asrwt>
<pdfrwt beam="1">  1        2 0.19522013E+00 0.23899906E+04</pdfrwt>
<pdfrwt beam="2">  1       -2 0.17313349E+00 0.23899906E+04</pdfrwt>
<totfact> 0.31421742E+00</totfact>
</mgrwt>
</event>
<event>
 4    1  0.1321115E-008  0.3472515E+04  0.7816531E-02  0.8120335E-01
          2   -1    0    0  501    0  0.00000000000E+00  0.00000000000E+00  0.33986513488E+04  0.33986513488E+04  0.00000000000E+00 0.  1.
         -2   -1    0    0    0  501 -0.00000000000E+00 -0.00000000000E+00 -0.88699578002E+03  0.88699578002E+03  0.00000000000E+00 0. -1.
    2000013    1    1    2    0    0  0.42704740042E+03 -0.11886858167E+04  0.21430060030E+04  0.26627651383E+04  0.95000000000E+03 0.  0.
   -2000013    1    1    2    0    0 -0.42704740042E+03  0.11886858167E+04  0.36864956585E+03  0.16228819906E+04  0.95000000000E+03 0.  0.
<mgrwt>
<rscale>  0 0.34725146E+04</rscale>
<asrwt>0</asrwt>
<pdfrwt beam="1">  1        2 0.52286943E+00 0.34725146E+04</pdfrwt>
<pdfrwt beam="2">  1       -2 0.13646089E+00 0.34725146E+04</pdfrwt>
<totfact> 0.30156188E-01</totfact>
</mgrwt>
</event>
<event>
 4    1  0.1321115E-008  0.2651232E+04  0.7816531E-02  0.8351004E-01
         -2   -1    0    0    0  501 -0.00000000000E+00  0.00000000000E+00  0.22444776526E+04  0.22444776526E+04  0.00000000000E+00 0. -1.
          2   -1    0    0  501    0  0.00000000000E+00 -0.00000000000E+00 -0.78292508862E+03  0.78292508862E+03  0.00000000000E+00 0.  1.
    2000013    1    1    2    0    0 -0.85705481588E+03  0.12590162699E+03  0.36188604179E+03  0.13356106036E+04  0.95000000000E+03 0.  0.
   -2000013    1    1    2    0    0  0.85705481588E+03 -0.12590162699E+03  0.10996665222E+04  0.16917921377E+04  0.95000000000E+03 0.  0.
<mgrwt>
<rscale>  0 0.26512321E+04</rscale>
<asrwt>0</asrwt>
<pdfrwt beam="2">  1        2 0.12045002E+00 0.26512321E+04</pdfrwt>
<pdfrwt beam="1">  1       -2 0.34530425E+00 0.26512321E+04</pdfrwt>
<totfact> 0.52008206E-01</totfact>
</mgrwt>
</event>
<event>
 4    1  0.1321115E-008  0.2628913E+04  0.7816531E-02  0.8358446E-01
         -2   -1    0    0    0  501 -0.00000000000E+00  0.00000000000E+00  0.66207824149E+03  0.66207824149E+03  0.00000000000E+00 0. -1.
          2   -1    0    0  501    0  0.00000000000E+00 -0.00000000000E+00 -0.26096544771E+04  0.26096544771E+04  0.00000000000E+00 0.  1.
    2000013    1    1    2    0    0  0.21169726509E+03 -0.87617870699E+03 -0.11145376374E+04  0.17196508378E+04  0.95000000000E+03 0.  0.
   -2000013    1    1    2    0    0 -0.21169726509E+03  0.87617870699E+03 -0.83303859816E+03  0.15520818808E+04  0.95000000000E+03 0.  0.
<mgrwt>
<rscale>  0 0.26289127E+04</rscale>
<asrwt>0</asrwt>
<pdfrwt beam="2">  1        2 0.40148531E+00 0.26289127E+04</pdfrwt>
<pdfrwt beam="1">  1       -2 0.10185819E+00 0.26289127E+04</pdfrwt>
<totfact> 0.20949772E+00</totfact>
</mgrwt>
</event>
<event>
 4    1  0.1321115E-008  0.2295329E+04  0.7816531E-02  0.8479765E-01
          2   -1    0    0  501    0  0.00000000000E+00  0.00000000000E+00  0.14762696146E+04  0.14762696146E+04  0.00000000000E+00 0.  1.
         -2   -1    0    0    0  501 -0.00000000000E+00 -0.00000000000E+00 -0.89220416292E+03  0.89220416292E+03  0.00000000000E+00 0. -1.
    2000013    1    1    2    0    0  0.62771073757E+03  0.12073075433E+03  0.37220824625E+03  0.12040081660E+04  0.95000000000E+03 0.  0.
   -2000013    1    1    2    0    0 -0.62771073757E+03 -0.12073075433E+03  0.21185720547E+03  0.11644656116E+04  0.95000000000E+03 0.  0.
<mgrwt>
<rscale>  0 0.22953291E+04</rscale>
<asrwt>0</asrwt>
<pdfrwt beam="1">  1        2 0.22711840E+00 0.22953291E+04</pdfrwt>
<pdfrwt beam="2">  1       -2 0.13726218E+00 0.22953291E+04</pdfrwt>
<totfact> 0.44897745E+00</totfact>
</mgrwt>
</event>
<event>
 4    1  0.1321115E-008  0.2415248E+04  0.7816531E-02  0.8433817E-01
         -2   -1    0    0    0  501 -0.00000000000E+00  0.00000000000E+00  0.13208103550E+04  0.13208103550E+04  0.00000000000E+00 0. -1.
          2   -1    0    0  501    0  0.00000000000E+00 -0.00000000000E+00 -0.11041374119E+04  0.11041374119E+04  0.00000000000E+00 0.  1.
    2000013    1    1    2    0    0  0.66975946291E+03  0.12737646731E+03  0.41129920892E+03  0.12395440863E+04  0.95000000000E+03 0.  0.
   -2000013    1    1    2    0    0 -0.66975946291E+03 -0.12737646731E+03 -0.19462626578E+03  0.11854036806E+04  0.95000000000E+03 0.  0.
<mgrwt>
<rscale>  0 0.24152483E+04</rscale>
<asrwt>0</asrwt>
<pdfrwt beam="2">  1        2 0.16986730E+00 0.24152483E+04</pdfrwt>
<pdfrwt beam="1">  1       -2 0.20320159E+00 0.24152483E+04</pdfrwt>
<totfact> 0.24648474E+00</totfact>
</mgrwt>
</event>
<event>
 4    1  0.1321115E-008  0.2610315E+04  0.7816531E-02  0.8364706E-01
          2   -1    0    0  501    0  0.00000000000E+00  0.00000000000E+00  0.19002334042E+04  0.19002334042E+04  0.00000000000E+00 0.  1.
         -2   -1    0    0    0  501 -0.00000000000E+00 -0.00000000000E+00 -0.89643503122E+03  0.89643503122E+03  0.00000000000E+00 0. -1.
    2000013    1    1    2    0    0  0.20785801998E+03  0.78814718328E+03  0.89781392476E+03  0.15404385033E+04  0.95000000000E+03 0.  0.
   -2000013    1    1    2    0    0 -0.20785801998E+03 -0.78814718328E+03  0.10598444817E+03  0.12562299321E+04  0.95000000000E+03 0.  0.
<mgrwt>
<rscale>  0 0.26103148E+04</rscale>
<asrwt>0</asrwt>
<pdfrwt beam="1">  1        2 0.29234360E+00 0.26103148E+04</pdfrwt>
<pdfrwt beam="2">  1       -2 0.13791308E+00 0.26103148E+04</pdfrwt>
<totfact> 0.25056766E+00</totfact>
</mgrwt>
</event>
<event>
 4    1  0.1321115E-008  0.2276114E+04  0.7816531E-02  0.8487399E-01
          2   -1    0    0  501    0  0.00000000000E+00  0.00000000000E+00  0.15625902385E+04  0.15625902385E+04  0.00000000000E+00 0.  1.
         -2   -1    0    0    0  501 -0.00000000000E+00 -0.00000000000E+00 -0.82886333180E+03  0.82886333180E+03  0.00000000000E+00 0. -1.
    2000013    1    1    2    0    0 -0.13141402350E+03 -0.61254427138E+03  0.35224354776E+03  0.11912412211E+04  0.95000000000E+03 0.  0.
   -2000013    1    1    2    0    0  0.13141402350E+03  0.61254427138E+03  0.38148335894E+03  0.12002123492E+04  0.95000000000E+03 0.  0.
<mgrwt>
<rscale>  0 0.22761140E+04</rscale>
<asrwt>0</asrwt>
<pdfrwt beam="1">  1        2 0.24039850E+00 0.22761140E+04</pdfrwt>
<pdfrwt beam="2">  1       -2 0.12751744E+00 0.22761140E+04</pdfrwt>
<totfact> 0.48488298E+00</totfact>
</mgrwt>
</event>
<event>
 4    1  0.1321115E-008  0.2513536E+04  0.7816531E-02  0.8398179E-01
         -2   -1    0    0    0  501 -0.00000000000E+00  0.00000000000E+00  0.48612390690E+03  0.48612390690E+03  0.00000000000E+00 0. -1.
          2   -1    0    0  501    0  0.00000000000E+00 -0.00000000000E+00 -0.32491009866E+04  0.32491009866E+04  0.00000000000E+00 0.  1.
    2000013    1    1    2    0    0  0.37286928872E+03 -0.51738201904E+03 -0.21540170579E+04  0.24390582498E+04  0.95000000000E+03 0.  0.
   -2000013    1    1    2    0    0 -0.37286928872E+03  0.51738201904E+03 -0.60896002177E+03  0.12961666437E+04  0.95000000000E+03 0.  0.
<mgrwt>
<rscale>  0 0.25135359E+04</rscale>
<asrwt>0</asrwt>
<pdfrwt beam="2">  1        2 0.49986168E+00 0.25135359E+04</pdfrwt>
<pdfrwt beam="1">  1       -2 0.74788295E-01 0.25135359E+04</pdfrwt>
<totfact> 0.17245012E+00</totfact>
</mgrwt>
</event>
<event>
 4    1  0.1321115E-008  0.2212166E+04  0.7816531E-02  0.8513381E-01
          2   -1    0    0  501    0  0.00000000000E+00  0.00000000000E+00  0.20904182874E+04  0.20904182874E+04  0.00000000000E+00 0.  1.
         -2   -1    0    0    0  501 -0.00000000000E+00 -0.00000000000E+00 -0.58525136243E+03  0.58525136243E+03  0.00000000000E+00 0. -1.
    2000013    1    1    2    0    0 -0.48748900670E+03 -0.13629770723E+03  0.44493226251E+03  0.11647692110E+04  0.95000000000E+03 0.  0.
   -2000013    1    1    2    0    0  0.48748900670E+03  0.13629770723E+03  0.10602346625E+04  0.15109004389E+04  0.95000000000E+03 0.  0.
<mgrwt>
<rscale>  0 0.22121665E+04</rscale>
<asrwt>0</asrwt>
<pdfrwt beam="1">  1        2 0.32160281E+00 0.22121665E+04</pdfrwt>
<pdfrwt beam="2">  1       -2 0.90038672E-01 0.22121665E+04</pdfrwt>
<totfact> 0.57342488E+00</totfact>
</mgrwt>
</event>
<event>
 4    1  0.1321115E-008  0.2753424E+04  0.7816531E-02  0.8317876E-01
          1   -1    0    0  501    0  0.00000000000E+00  0.00000000000E+00  0.97880965520E+03  0.97880965520E+03  0.00000000000E+00 0.  1.
         -1   -1    0    0    0  501 -0.00000000000E+00 -0.00000000000E+00 -0.19363675422E+04  0.19363675422E+04  0.00000000000E+00 0. -1.
    2000013    1    1    2    0    0 -0.86428359711E+03  0.16938244691E+03 -0.97215782543E+03  0.16196503904E+04  0.95000000000E+03 0.  0.
   -2000013    1    1    2    0    0  0.86428359711E+03 -0.16938244691E+03  0.14599938390E+02  0.12955268070E+04  0.95000000000E+03 0.  0.
<mgrwt>
<rscale>  0 0.27534235E+04</rscale>
<asrwt>0</asrwt>
<pdfrwt beam="1">  1        1 0.15058610E+00 0.27534235E+04</pdfrwt>
<pdfrwt beam="2">  1       -1 0.29790270E+00 0.27534235E+04</pdfrwt>
<totfact> 0.46565028E-01</totfact>
</mgrwt>
</event>
<event>
 4    1  0.1321115E-008  0.2523060E+04  0.7816531E-02  0.8394816E-01
         -2   -1    0    0    0  501 -0.00000000000E+00  0.00000000000E+00  0.15392088344E+04  0.15392088344E+04  0.00000000000E+00 0. -1.
          2   -1    0    0  501    0  0.00000000000E+00 -0.00000000000E+00 -0.10339456066E+04  0.10339456066E+04  0.00000000000E+00 0.  1.
    2000013    1    1    2    0    0 -0.45773793131E+03 -0.54258743161E+03 -0.18606362764E+03  0.12004352578E+04  0.95000000000E+03 0.  0.
   -2000013    1    1    2    0    0  0.45773793131E+03  0.54258743161E+03  0.69132685543E+03  0.13727191831E+04  0.95000000000E+03 0.  0.
<mgrwt>
<rscale>  0 0.25230602E+04</rscale>
<asrwt>0</asrwt>
<pdfrwt beam="2">  1        2 0.15906855E+00 0.25230602E+04</pdfrwt>
<pdfrwt beam="1">  1       -2 0.23680136E+00 0.25230602E+04</pdfrwt>
<totfact> 0.16537458E+00</totfact>
</mgrwt>
</event>
<event>
 4    1  0.1321115E-008  0.2070948E+04  0.7816531E-02  0.8574150E-01
         -2   -1    0    0    0  501 -0.00000000000E+00  0.00000000000E+00  0.75542937851E+03  0.75542937851E+03  0.00000000000E+00 0. -1.
          2   -1    0    0  501    0  0.00000000000E+00 -0.00000000000E+00 -0.14193334891E+04  0.14193334891E+04  0.00000000000E+00 0.  1.
    2000013    1    1    2    0    0 -0.34235459159E+03 -0.21625669264E+03 -0.41146141807E+03  0.11116537780E+04  0.95000000000E+03 0.  0.
   -2000013    1    1    2    0    0  0.34235459159E+03  0.21625669264E+03 -0.25244269251E+03  0.10631090896E+04  0.95000000000E+03 0.  0.
<mgrwt>
<rscale>  0 0.20709478E+04</rscale>
<asrwt>0</asrwt>
<pdfrwt beam="2">  1        2 0.21835900E+00 0.20709478E+04</pdfrwt>
<pdfrwt beam="1">  1       -2 0.11621990E+00 0.20709478E+04</pdfrwt>
<totfact> 0.74890739E+00</totfact>
</mgrwt>
</event>
<event>
 4    1  0.1321115E-008  0.4039728E+04  0.7816531E-02  0.7996580E-01
         -2   -1    0    0    0  501 -0.00000000000E+00  0.00000000000E+00  0.91941273729E+03  0.91941273729E+03  0.00000000000E+00 0. -1.
          2   -1    0    0  501    0  0.00000000000E+00 -0.00000000000E+00 -0.44374524017E+04  0.44374524017E+04  0.00000000000E+00 0.  1.
    2000013    1    1    2    0    0  0.10518930350E+04 -0.95802630829E+03 -0.33510513077E+03  0.17432982571E+04  0.95000000000E+03 0.  0.
   -2000013    1    1    2    0    0 -0.10518930350E+04  0.95802630829E+03 -0.31829345337E+04  0.36135668819E+04  0.95000000000E+03 0.  0.
<mgrwt>
<rscale>  0 0.40397278E+04</rscale>
<asrwt>0</asrwt>
<pdfrwt beam="2">  1        2 0.68268499E+00 0.40397278E+04</pdfrwt>
<pdfrwt beam="1">  1       -2 0.14144811E+00 0.40397278E+04</pdfrwt>
<totfact> 0.38632736E-02</totfact>
</mgrwt>
</event>
<event>
 4    1  0.1321115E-008  0.3320673E+04  0.7816531E-02  0.8157655E-01
         -2   -1    0    0    0  501 -0.00000000000E+00  0.00000000000E+00  0.92254270600E+03  0.92254270600E+03  0.00000000000E+00 0. -1.
          2   -1    0    0  501    0  0.00000000000E+00 -0.00000000000E+00 -0.29881733945E+04  0.29881733945E+04  0.00000000000E+00 0.  1.
    2000013    1    1    2    0    0  0.12695813401E+04  0.47637778114E+03 -0.88645476843E+03  0.18780507517E+04  0.95000000000E+03 0.  0.
   -2000013    1    1    2    0    0 -0.12695813401E+04 -0.47637778114E+03 -0.11791759200E+04  0.20326653487E+04  0.95000000000E+03 0.  0.
<mgrwt>
<rscale>  0 0.33206732E+04</rscale>
<asrwt>0</asrwt>
<pdfrwt beam="2">  1        2 0.45971899E+00 0.33206732E+04</pdfrwt>
<pdfrwt beam="1">  1       -2 0.14192964E+00 0.33206732E+04</pdfrwt>
<totfact> 0.51144266E-01</totfact>
</mgrwt>
</event>
<event>
 4    1  0.1321115E-008  0.2847408E+04  0.7816531E-02  0.8288699E-01
         -2   -1    0    0    0  501 -0.00000000000E+00  0.00000000000E+00  0.70583159507E+03  0.70583159507E+03  0.00000000000E+00 0. -1.
          2   -1    0    0  501    0  0.00000000000E+00 -0.00000000000E+00 -0.28716956407E+04  0.28716956407E+04  0.00000000000E+00 0.  1.
    2000013    1    1    2    0    0  0.36130610010E+03  0.34786300665E+03  0.90914061445E+02  0.10781076644E+04  0.95000000000E+03 0.  0.
   -2000013    1    1    2    0    0 -0.36130610010E+03 -0.34786300665E+03 -0.22567781071E+04  0.24994195714E+04  0.95000000000E+03 0.  0.
<mgrwt>
<rscale>  0 0.28474083E+04</rscale>
<asrwt>0</asrwt>
<pdfrwt beam="2">  1        2 0.44179933E+00 0.28474083E+04</pdfrwt>
<pdfrwt beam="1">  1       -2 0.10858948E+00 0.28474083E+04</pdfrwt>
<totfact> 0.12281676E+00</totfact>
</mgrwt>
</event>
<event>
 4    1  0.1321115E-008  0.2513760E+04  0.7816531E-02  0.8398100E-01
          1   -1    0    0  501    0  0.00000000000E+00  0.00000000000E+00  0.16540211506E+04  0.16540211506E+04  0.00000000000E+00 0.  1.
         -1   -1    0    0    0  501 -0.00000000000E+00 -0.00000000000E+00 -0.95509465448E+03  0.95509465448E+03  0.00000000000E+00 0. -1.
    2000013    1    1    2    0    0  0.78017153724E+03  0.38123664782E+02  0.61837767068E+03  0.13765943429E+04  0.95000000000E+03 0.  0.
   -2000013    1    1    2    0    0 -0.78017153724E+03 -0.38123664782E+02  0.80548825409E+02  0.12325214621E+04  0.95000000000E+03 0.  0.
<mgrwt>
<rscale>  0 0.25137595E+04</rscale>
<asrwt>0</asrwt>
<pdfrwt beam="1">  1        1 0.25446479E+00 0.25137595E+04</pdfrwt>
<pdfrwt beam="2">  1       -1 0.14693764E+00 0.25137595E+04</pdfrwt>
<totfact> 0.16767129E+00</totfact>
</mgrwt>
</event>
<event>
 4    1  0.1321115E-008  0.2769329E+04  0.7816531E-02  0.8312854E-01
          1   -1    0    0  501    0  0.00000000000E+00  0.00000000000E+00  0.18081209015E+04  0.18081209015E+04  0.00000000000E+00 0.  1.
         -1   -1    0    0    0  501 -0.00000000000E+00 -0.00000000000E+00 -0.10603805483E+04  0.10603805483E+04  0.00000000000E+00 0. -1.
    2000013    1    1    2    0    0 -0.69992833650E+03 -0.49238369218E+03 -0.17662686790E+03  0.12907511096E+04  0.95000000000E+03 0.  0.
   -2000013    1    1    2    0    0  0.69992833650E+03  0.49238369218E+03  0.92436722113E+03  0.15777503402E+04  0.95000000000E+03 0.  0.
<mgrwt>
<rscale>  0 0.27693293E+04</rscale>
<asrwt>0</asrwt>
<pdfrwt beam="1">  1        1 0.27817245E+00 0.27693293E+04</pdfrwt>
<pdfrwt beam="2">  1       -1 0.16313547E+00 0.27693293E+04</pdfrwt>
<totfact> 0.96625877E-01</totfact>
</mgrwt>
</event>
<event>
 4    1  0.1321115E-008  0.2457833E+04  0.7816531E-02  0.8418163E-01
         -2   -1    0    0    0  501 -0.00000000000E+00  0.00000000000E+00  0.67520790953E+03  0.67520790953E+03  0.00000000000E+00 0. -1.
          2   -1    0    0  501    0  0.00000000000E+00 -0.00000000000E+00 -0.22366980433E+04  0.22366980433E+04  0.00000000000E+00 0.  1.
    2000013    1    1    2    0    0 -0.38894895625E+03  0.47924386434E+03 -0.21655230204E+03  0.11534083716E+04  0.95000000000E+03 0.  0.
   -2000013    1    1    2    0    0  0.38894895625E+03 -0.47924386434E+03 -0.13449378317E+04  0.17584975812E+04  0.95000000000E+03 0.  0.
<mgrwt>
<rscale>  0 0.24578334E+04</rscale>
<asrwt>0</asrwt>
<pdfrwt beam="2">  1        2 0.34410739E+00 0.24578334E+04</pdfrwt>
<pdfrwt beam="1">  1       -2 0.10387814E+00 0.24578334E+04</pdfrwt>
<totfact> 0.33232773E+00</totfact>
</mgrwt>
</event>
<event>
 4    1  0.1321115E-008  0.2520529E+04  0.7816531E-02  0.8395708E-01
         -2   -1    0    0    0  501 -0.00000000000E+00  0.00000000000E+00  0.59714498321E+03  0.59714498321E+03  0.00000000000E+00 0. -1.
          2   -1    0    0  501    0  0.00000000000E+00 -0.00000000000E+00 -0.26597666146E+04  0.26597666146E+04  0.00000000000E+00 0.  1.
    2000013    1    1    2    0    0  0.45562601871E+02 -0.81768348317E+03 -0.87261208361E+03  0.15279509409E+04  0.95000000000E+03 0.  0.
   -2000013    1    1    2    0    0 -0.45562601871E+02  0.81768348317E+03 -0.11900095478E+04  0.17289606569E+04  0.95000000000E+03 0.  0.
<mgrwt>
<rscale>  0 0.25205287E+04</rscale>
<asrwt>0</asrwt>
<pdfrwt beam="2">  1        2 0.40919487E+00 0.25205287E+04</pdfrwt>
<pdfrwt beam="1">  1       -2 0.91868457E-01 0.25205287E+04</pdfrwt>
<totfact> 0.25171268E+00</totfact>
</mgrwt>
</event>
<event>
 4    1  0.1321115E-008  0.2649948E+04  0.7816531E-02  0.8351430E-01
          2   -1    0    0  501    0  0.00000000000E+00  0.00000000000E+00  0.24547559677E+04  0.24547559677E+04  0.00000000000E+00 0.  1.
         -2   -1    0    0    0  501 -0.00000000000E+00 -0.00000000000E+00 -0.71516543171E+03  0.71516543171E+03  0.00000000000E+00 0. -1.
    2000013    1    1    2    0    0  0.37782098527E+03 -0.43571602789E+03  0.68077166750E+01  0.11113700999E+04  0.95000000000E+03 0.  0.
   -2000013    1    1    2    0    0 -0.37782098527E+03  0.43571602789E+03  0.17327828193E+04  0.20585512995E+04  0.95000000000E+03 0.  0.
<mgrwt>
<rscale>  0 0.26499484E+04</rscale>
<asrwt>0</asrwt>
<pdfrwt beam="1">  1        2 0.37765476E+00 0.26499484E+04</pdfrwt>
<pdfrwt beam="2">  1       -2 0.11002545E+00 0.26499484E+04</pdfrwt>
<totfact> 0.21383034E+00</totfact>
</mgrwt>
</event>
<event>
 4    1  0.1321115E-008  0.2791499E+04  0.7816531E-02  0.8305912E-01
          1   -1    0    0  501    0  0.00000000000E+00  0.00000000000E+00  0.39075079974E+04  0.39075079974E+04  0.00000000000E+00 0.  1.
         -1   -1    0    0    0  501 -0.00000000000E+00 -0.00000000000E+00 -0.49855748338E+03  0.49855748338E+03  0.00000000000E+00 0. -1.
    2000013    1    1    2    0    0  0.21580492102E+03 -0.87122244608E+03  0.93119943591E+03  0.16047531598E+04  0.95000000000E+03 0.  0.
   -2000013    1    1    2    0    0 -0.21580492102E+03  0.87122244608E+03  0.24777510781E+04  0.28013123209E+04  0.95000000000E+03 0.  0.
<mgrwt>
<rscale>  0 0.27914995E+04</rscale>
<asrwt>0</asrwt>
<pdfrwt beam="1">  1        1 0.60115506E+00 0.27914995E+04</pdfrwt>
<pdfrwt beam="2">  1       -1 0.76701154E-01 0.27914995E+04</pdfrwt>
<totfact> 0.17070142E-01</totfact>
</mgrwt>
</event>
<event>
 4    1  0.1321115E-008  0.2439577E+04  0.7816531E-02  0.8424833E-01
          2   -1    0    0  501    0  0.00000000000E+00  0.00000000000E+00  0.11201185760E+04  0.11201185760E+04  0.00000000000E+00 0.  1.
         -2   -1    0    0    0  501 -0.00000000000E+00 -0.00000000000E+00 -0.13283275520E+04  0.13283275520E+04  0.00000000000E+00 0. -1.
    2000013    1    1    2    0    0  0.66712682741E+03 -0.34759932405E+03 -0.24425767698E+03  0.12361412972E+04  0.95000000000E+03 0.  0.
   -2000013    1    1    2    0    0 -0.66712682741E+03  0.34759932405E+03  0.36048700921E+02  0.12123048308E+04  0.95000000000E+03 0.  0.
<mgrwt>
<rscale>  0 0.24395773E+04</rscale>
<asrwt>0</asrwt>
<pdfrwt beam="1">  1        2 0.17232594E+00 0.24395773E+04</pdfrwt>
<pdfrwt beam="2">  1       -2 0.20435808E+00 0.24395773E+04</pdfrwt>
<totfact> 0.23635204E+00</totfact>
</mgrwt>
</event>
<event>
 4    1  0.1321115E-008  0.3249522E+04  0.7816531E-02  0.8175860E-01
          2   -1    0    0  501    0  0.00000000000E+00  0.00000000000E+00  0.15351734061E+04  0.15351734061E+04  0.00000000000E+00 0. -1.
         -2   -1    0    0    0  501 -0.00000000000E+00 -0.00000000000E+00 -0.17195767082E+04  0.17195767082E+04  0.00000000000E+00 0.  1.
    2000013    1    1    2    0    0 -0.37257311889E+02  0.91518479140E+03  0.85716142208E+03  0.15735873071E+04  0.95000000000E+03 0.  0.
   -2000013    1    1    2    0    0  0.37257311889E+02 -0.91518479140E+03 -0.10415647242E+04  0.16811628072E+04  0.95000000000E+03 0.  0.
<mgrwt>
<rscale>  0 0.32495221E+04</rscale>
<asrwt>0</asrwt>
<pdfrwt beam="1">  1        2 0.23618052E+00 0.32495221E+04</pdfrwt>
<pdfrwt beam="2">  1       -2 0.26455026E+00 0.32495221E+04</pdfrwt>
<totfact> 0.53220511E-01</totfact>
</mgrwt>
</event>
<event>
 4    1  0.1321115E-008  0.2891713E+04  0.7816531E-02  0.8275347E-01
          1   -1    0    0  501    0  0.00000000000E+00  0.00000000000E+00  0.11101878542E+04  0.11101878542E+04  0.00000000000E+00 0.  1.
         -1   -1    0    0    0  501 -0.00000000000E+00 -0.00000000000E+00 -0.18830153902E+04  0.18830153902E+04  0.00000000000E+00 0. -1.
    2000013    1    1    2    0    0 -0.72904710042E+03  0.78917832678E+03 -0.57640048070E+03  0.15456550780E+04  0.95000000000E+03 0.  0.
   -2000013    1    1    2    0    0  0.72904710042E+03 -0.78917832678E+03 -0.19642705531E+03  0.14475481664E+04  0.95000000000E+03 0.  0.
<mgrwt>
<rscale>  0 0.28917129E+04</rscale>
<asrwt>0</asrwt>
<pdfrwt beam="1">  1        1 0.17079813E+00 0.28917129E+04</pdfrwt>
<pdfrwt beam="2">  1       -1 0.28969468E+00 0.28917129E+04</pdfrwt>
<totfact> 0.41207922E-01</totfact>
</mgrwt>
</event>
<event>
 4    1  0.1321115E-008  0.2515436E+04  0.7816531E-02  0.8397507E-01
         -2   -1    0    0    0  501 -0.00000000000E+00  0.00000000000E+00  0.21526819752E+04  0.21526819752E+04  0.00000000000E+00 0. -1.
          2   -1    0    0  501    0  0.00000000000E+00 -0.00000000000E+00 -0.73482963607E+03  0.73482963607E+03  0.00000000000E+00 0.  1.
    2000013    1    1    2    0    0  0.39998071650E+03 -0.64930725589E+03  0.34999320934E+03  0.12675092634E+04  0.95000000000E+03 0.  0.
   -2000013    1    1    2    0    0 -0.39998071650E+03  0.64930725589E+03  0.10678591298E+04  0.16200023479E+04  0.95000000000E+03 0.  0.
<mgrwt>
<rscale>  0 0.25154360E+04</rscale>
<asrwt>0</asrwt>
<pdfrwt beam="2">  1        2 0.11305071E+00 0.25154360E+04</pdfrwt>
<pdfrwt beam="1">  1       -2 0.33118184E+00 0.25154360E+04</pdfrwt>
<totfact> 0.70030492E-01</totfact>
</mgrwt>
</event>
<event>
 4    1  0.1321115E-008  0.2265879E+04  0.7816531E-02  0.8491497E-01
         -2   -1    0    0    0  501 -0.00000000000E+00  0.00000000000E+00  0.10928540436E+04  0.10928540436E+04  0.00000000000E+00 0. -1.
          2   -1    0    0  501    0  0.00000000000E+00 -0.00000000000E+00 -0.11744957606E+04  0.11744957606E+04  0.00000000000E+00 0.  1.
    2000013    1    1    2    0    0 -0.39247766647E+03  0.44297183966E+03  0.13476286416E+03  0.11273525620E+04  0.95000000000E+03 0.  0.
   -2000013    1    1    2    0    0  0.39247766647E+03 -0.44297183966E+03 -0.21640458115E+03  0.11399972422E+04  0.95000000000E+03 0.  0.
<mgrwt>
<rscale>  0 0.22658795E+04</rscale>
<asrwt>0</asrwt>
<pdfrwt beam="2">  1        2 0.18069166E+00 0.22658795E+04</pdfrwt>
<pdfrwt beam="1">  1       -2 0.16813139E+00 0.22658795E+04</pdfrwt>
<totfact> 0.39206540E+00</totfact>
</mgrwt>
</event>
<event>
 4    1  0.1321115E-008  0.3562101E+04  0.7816531E-02  0.8099228E-01
          2   -1    0    0  501    0  0.00000000000E+00  0.00000000000E+00  0.18285190645E+04  0.18285190645E+04  0.00000000000E+00 0.  1.
         -2   -1    0    0    0  501 -0.00000000000E+00 -0.00000000000E+00 -0.17348146641E+04  0.17348146641E+04  0.00000000000E+00 0. -1.
    2000013    1    1    2    0    0 -0.13019895958E+04  0.62155324236E+03 -0.38704471954E+03  0.17702567485E+04  0.95000000000E+03 0.  0.
   -2000013    1    1    2    0    0  0.13019895958E+04 -0.62155324236E+03  0.48074911991E+03  0.17930769802E+04  0.95000000000E+03 0.  0.
<mgrwt>
<rscale>  0 0.35621015E+04</rscale>
<asrwt>0</asrwt>
<pdfrwt beam="1">  1        2 0.28131063E+00 0.35621015E+04</pdfrwt>
<pdfrwt beam="2">  1       -2 0.26689456E+00 0.35621015E+04</pdfrwt>
<totfact> 0.34440919E-01</totfact>
</mgrwt>
</event>
<event>
 4    1  0.1321115E-008  0.2136029E+04  0.7816531E-02  0.8545536E-01
         -2   -1    0    0    0  501 -0.00000000000E+00  0.00000000000E+00  0.59042279617E+03  0.59042279617E+03  0.00000000000E+00 0. -1.
          2   -1    0    0  501    0  0.00000000000E+00 -0.00000000000E+00 -0.19319284253E+04  0.19319284253E+04  0.00000000000E+00 0.  1.
    2000013    1    1    2    0    0 -0.78246962780E+02 -0.43755465459E+03 -0.43288078444E+03  0.11346640192E+04  0.95000000000E+03 0.  0.
   -2000013    1    1    2    0    0  0.78246962780E+02  0.43755465459E+03 -0.90862484467E+03  0.13876872023E+04  0.95000000000E+03 0.  0.
<mgrwt>
<rscale>  0 0.21360286E+04</rscale>
<asrwt>0</asrwt>
<pdfrwt beam="2">  1        2 0.29721975E+00 0.21360286E+04</pdfrwt>
<pdfrwt beam="1">  1       -2 0.90834279E-01 0.21360286E+04</pdfrwt>
<totfact> 0.69286638E+00</totfact>
</mgrwt>
</event>
<event>
 4    1  0.1321115E-008  0.2747278E+04  0.7816531E-02  0.8319826E-01
         -2   -1    0    0    0  501 -0.00000000000E+00  0.00000000000E+00  0.46645339399E+03  0.46645339399E+03  0.00000000000E+00 0. -1.
          2   -1    0    0  501    0  0.00000000000E+00 -0.00000000000E+00 -0.40451714372E+04  0.40451714372E+04  0.00000000000E+00 0.  1.
    2000013    1    1    2    0    0 -0.40048015710E+02 -0.89518102970E+03 -0.10898615212E+04  0.17009559238E+04  0.95000000000E+03 0.  0.
   -2000013    1    1    2    0    0  0.40048015710E+02  0.89518102970E+03 -0.24888565221E+04  0.28106689074E+04  0.95000000000E+03 0.  0.
<mgrwt>
<rscale>  0 0.27472779E+04</rscale>
<asrwt>0</asrwt>
<pdfrwt beam="2">  1        2 0.62233405E+00 0.27472779E+04</pdfrwt>
<pdfrwt beam="1">  1       -2 0.71762062E-01 0.27472779E+04</pdfrwt>
<totfact> 0.48404481E-01</totfact>
</mgrwt>
</event>
<event>
 4    1  0.1321115E-008  0.2590115E+04  0.7816531E-02  0.8371567E-01
         -2   -1    0    0    0  501 -0.00000000000E+00  0.00000000000E+00  0.59555913815E+03  0.59555913815E+03  0.00000000000E+00 0. -1.
          2   -1    0    0  501    0  0.00000000000E+00 -0.00000000000E+00 -0.28161329875E+04  0.28161329875E+04  0.00000000000E+00 0.  1.
    2000013    1    1    2    0    0  0.70520606357E+03  0.52434034065E+03 -0.11751560473E+04  0.17480675389E+04  0.95000000000E+03 0.  0.
   -2000013    1    1    2    0    0 -0.70520606357E+03 -0.52434034065E+03 -0.10454178020E+04  0.16636245868E+04  0.95000000000E+03 0.  0.
<mgrwt>
<rscale>  0 0.25901149E+04</rscale>
<asrwt>0</asrwt>
<pdfrwt beam="2">  1        2 0.43325122E+00 0.25901149E+04</pdfrwt>
<pdfrwt beam="1">  1       -2 0.91624484E-01 0.25901149E+04</pdfrwt>
<totfact> 0.20290925E+00</totfact>
</mgrwt>
</event>
<event>
 4    1  0.1321115E-008  0.3473402E+04  0.7816531E-02  0.8120122E-01
          2   -1    0    0  501    0  0.00000000000E+00  0.00000000000E+00  0.21767743641E+04  0.21767743641E+04  0.00000000000E+00 0.  1.
         -2   -1    0    0    0  501 -0.00000000000E+00 -0.00000000000E+00 -0.13855959455E+04  0.13855959455E+04  0.00000000000E+00 0. -1.
    2000013    1    1    2    0    0 -0.88683804375E+03  0.11147303848E+04  0.69376649547E+03  0.18474083189E+04  0.95000000000E+03 0.  0.
   -2000013    1    1    2    0    0  0.88683804375E+03 -0.11147303848E+04  0.97411923180E+02  0.17149619906E+04  0.95000000000E+03 0.  0.
<mgrwt>
<rscale>  0 0.34734016E+04</rscale>
<asrwt>0</asrwt>
<pdfrwt beam="1">  1        2 0.33488836E+00 0.34734016E+04</pdfrwt>
<pdfrwt beam="2">  1       -2 0.21316861E+00 0.34734016E+04</pdfrwt>
<totfact> 0.47882780E-01</totfact>
</mgrwt>
</event>
<event>
 4    1  0.1321115E-008  0.3079293E+04  0.7816531E-02  0.8221444E-01
         -2   -1    0    0    0  501 -0.00000000000E+00  0.00000000000E+00  0.81058458272E+03  0.81058458272E+03  0.00000000000E+00 0. -1.
          2   -1    0    0  501    0  0.00000000000E+00 -0.00000000000E+00 -0.29244457082E+04  0.29244457082E+04  0.00000000000E+00 0.  1.
    2000013    1    1    2    0    0 -0.25487772635E+03  0.11522477975E+04 -0.72392539580E+03  0.16790490228E+04  0.95000000000E+03 0.  0.
   -2000013    1    1    2    0    0  0.25487772635E+03 -0.11522477975E+04 -0.13899357297E+04  0.20559812682E+04  0.95000000000E+03 0.  0.
<mgrwt>
<rscale>  0 0.30792925E+04</rscale>
<asrwt>0</asrwt>
<pdfrwt beam="2">  1        2 0.44991473E+00 0.30792925E+04</pdfrwt>
<pdfrwt beam="1">  1       -2 0.12470532E+00 0.30792925E+04</pdfrwt>
<totfact> 0.79551880E-01</totfact>
</mgrwt>
</event>
<event>
 4    1  0.1321115E-008  0.2384854E+04  0.7816531E-02  0.8445196E-01
         -2   -1    0    0    0  501 -0.00000000000E+00  0.00000000000E+00  0.52207447229E+03  0.52207447229E+03  0.00000000000E+00 0. -1.
          2   -1    0    0  501    0  0.00000000000E+00 -0.00000000000E+00 -0.27235233774E+04  0.27235233774E+04  0.00000000000E+00 0.  1.
    2000013    1    1    2    0    0  0.64513510833E+03  0.43964281959E+01 -0.15378394810E+04  0.19192886458E+04  0.95000000000E+03 0.  0.
   -2000013    1    1    2    0    0 -0.64513510833E+03 -0.43964281959E+01 -0.66360942411E+03  0.13263092039E+04  0.95000000000E+03 0.  0.
<mgrwt>
<rscale>  0 0.23848539E+04</rscale>
<asrwt>0</asrwt>
<pdfrwt beam="2">  1        2 0.41900361E+00 0.23848539E+04</pdfrwt>
<pdfrwt beam="1">  1       -2 0.80319148E-01 0.23848539E+04</pdfrwt>
<totfact> 0.31713860E+00</totfact>
</mgrwt>
</event>
<event>
 4    1  0.1321115E-008  0.2154810E+04  0.7816531E-02  0.8537476E-01
         -4   -1    0    0    0  501 -0.00000000000E+00  0.00000000000E+00  0.92669989782E+03  0.92669989782E+03  0.00000000000E+00 0. -1.
          4   -1    0    0  501    0  0.00000000000E+00 -0.00000000000E+00 -0.12526187660E+04  0.12526187660E+04  0.00000000000E+00 0.  1.
    2000013    1    1    2    0    0  0.27797884728E+03 -0.25971079054E+03 -0.50380855556E+03  0.11406335936E+04  0.95000000000E+03 0.  0.
   -2000013    1    1    2    0    0 -0.27797884728E+03  0.25971079054E+03  0.17788968735E+03  0.10386850702E+04  0.95000000000E+03 0.  0.
<mgrwt>
<rscale>  0 0.21548101E+04</rscale>
<asrwt>0</asrwt>
<pdfrwt beam="2">  1        4 0.19271058E+00 0.21548101E+04</pdfrwt>
<pdfrwt beam="1">  1       -4 0.14256922E+00 0.21548101E+04</pdfrwt>
<totfact> 0.91981953E-02</totfact>
</mgrwt>
</event>
<event>
 4    1  0.1321115E-008  0.2465291E+04  0.7816531E-02  0.8415456E-01
          2   -1    0    0  501    0  0.00000000000E+00  0.00000000000E+00  0.18011933908E+04  0.18011933908E+04  0.00000000000E+00 0.  1.
         -2   -1    0    0    0  501 -0.00000000000E+00 -0.00000000000E+00 -0.84356045712E+03  0.84356045712E+03  0.00000000000E+00 0. -1.
    2000013    1    1    2    0    0 -0.14948173291E+03 -0.75212652781E+03  0.66111729488E+03  0.13883858181E+04  0.95000000000E+03 0.  0.
   -2000013    1    1    2    0    0  0.14948173291E+03  0.75212652781E+03  0.29651563882E+03  0.12563680298E+04  0.95000000000E+03 0.  0.
<mgrwt>
<rscale>  0 0.24652915E+04</rscale>
<asrwt>0</asrwt>
<pdfrwt beam="1">  1        2 0.27710667E+00 0.24652915E+04</pdfrwt>
<pdfrwt beam="2">  1       -2 0.12977853E+00 0.24652915E+04</pdfrwt>
<totfact> 0.33615995E+00</totfact>
</mgrwt>
</event>
<event>
 4    1  0.1321115E-008  0.2763914E+04  0.7816531E-02  0.8314560E-01
         -2   -1    0    0    0  501 -0.00000000000E+00  0.00000000000E+00  0.14491553325E+04  0.14491553325E+04  0.00000000000E+00 0. -1.
          2   -1    0    0  501    0  0.00000000000E+00 -0.00000000000E+00 -0.13178746291E+04  0.13178746291E+04  0.00000000000E+00 0.  1.
    2000013    1    1    2    0    0 -0.56703791281E+02 -0.55647794253E+03 -0.76861901521E+03  0.13439338566E+04  0.95000000000E+03 0.  0.
   -2000013    1    1    2    0    0  0.56703791281E+02  0.55647794253E+03  0.89989971856E+03  0.14230961050E+04  0.95000000000E+03 0.  0.
<mgrwt>
<rscale>  0 0.27639139E+04</rscale>
<asrwt>0</asrwt>
<pdfrwt beam="2">  1        2 0.20274994E+00 0.27639139E+04</pdfrwt>
<pdfrwt beam="1">  1       -2 0.22294697E+00 0.27639139E+04</pdfrwt>
<totfact> 0.13336877E+00</totfact>
</mgrwt>
</event>
<event>
 4    1  0.1321115E-008  0.2566806E+04  0.7816531E-02  0.8379565E-01
         -2   -1    0    0    0  501 -0.00000000000E+00  0.00000000000E+00  0.49725250962E+03  0.49725250962E+03  0.00000000000E+00 0. -1.
          2   -1    0    0  501    0  0.00000000000E+00 -0.00000000000E+00 -0.33124485046E+04  0.33124485046E+04  0.00000000000E+00 0.  1.
    2000013    1    1    2    0    0 -0.40760000062E+03 -0.33635606752E+03 -0.24200810802E+04  0.26530295135E+04  0.95000000000E+03 0.  0.
   -2000013    1    1    2    0    0  0.40760000062E+03  0.33635606752E+03 -0.39511491473E+03  0.11566715007E+04  0.95000000000E+03 0.  0.
<mgrwt>
<rscale>  0 0.25668061E+04</rscale>
<asrwt>0</asrwt>
<pdfrwt beam="2">  1        2 0.50960746E+00 0.25668061E+04</pdfrwt>
<pdfrwt beam="1">  1       -2 0.76500386E-01 0.25668061E+04</pdfrwt>
<totfact> 0.14816362E+00</totfact>
</mgrwt>
</event>
<event>
 4    1  0.1321115E-008  0.2570622E+04  0.7816531E-02  0.8378249E-01
         -2   -1    0    0    0  501 -0.00000000000E+00  0.00000000000E+00  0.13508833245E+04  0.13508833245E+04  0.00000000000E+00 0. -1.
          2   -1    0    0  501    0  0.00000000000E+00 -0.00000000000E+00 -0.12229212446E+04  0.12229212446E+04  0.00000000000E+00 0.  1.
    2000013    1    1    2    0    0  0.55793311991E+03  0.61320038823E+03  0.31372893174E+03  0.12993190236E+04  0.95000000000E+03 0.  0.
   -2000013    1    1    2    0    0 -0.55793311991E+03 -0.61320038823E+03 -0.18576685189E+03  0.12744855455E+04  0.95000000000E+03 0.  0.
<mgrwt>
<rscale>  0 0.25706216E+04</rscale>
<asrwt>0</asrwt>
<pdfrwt beam="2">  1        2 0.18814173E+00 0.25706216E+04</pdfrwt>
<pdfrwt beam="1">  1       -2 0.20782820E+00 0.25706216E+04</pdfrwt>
<totfact> 0.19246042E+00</totfact>
</mgrwt>
</event>
<event>
 4    1  0.1321115E-008  0.3427160E+04  0.7816531E-02  0.8131272E-01
         -2   -1    0    0    0  501 -0.00000000000E+00  0.00000000000E+00  0.10851936302E+04  0.10851936302E+04  0.00000000000E+00 0. -1.
          2   -1    0    0  501    0  0.00000000000E+00 -0.00000000000E+00 -0.27058368438E+04  0.27058368438E+04  0.00000000000E+00 0.  1.
    2000013    1    1    2    0    0  0.10209877673E+04 -0.78851990472E+03 -0.14828865386E+04  0.21830327866E+04  0.95000000000E+03 0.  0.
   -2000013    1    1    2    0    0 -0.10209877673E+04  0.78851990472E+03 -0.13775667500E+03  0.16079976874E+04  0.95000000000E+03 0.  0.
<mgrwt>
<rscale>  0 0.34271603E+04</rscale>
<asrwt>0</asrwt>
<pdfrwt beam="2">  1        2 0.41628259E+00 0.34271603E+04</pdfrwt>
<pdfrwt beam="1">  1       -2 0.16695287E+00 0.34271603E+04</pdfrwt>
<totfact> 0.48785433E-01</totfact>
</mgrwt>
</event>
<event>
 4    1  0.1321115E-008  0.3270099E+04  0.7816531E-02  0.8170546E-01
          2   -1    0    0  501    0  0.00000000000E+00  0.00000000000E+00  0.16123648308E+04  0.16123648308E+04  0.00000000000E+00 0.  1.
         -2   -1    0    0    0  501 -0.00000000000E+00 -0.00000000000E+00 -0.16580530794E+04  0.16580530794E+04  0.00000000000E+00 0. -1.
    2000013    1    1    2    0    0  0.39027768981E+03  0.10005900168E+04  0.76297387784E+03  0.16242309550E+04  0.95000000000E+03 0.  0.
   -2000013    1    1    2    0    0 -0.39027768981E+03 -0.10005900168E+04 -0.80866212650E+03  0.16461869552E+04  0.95000000000E+03 0.  0.
<mgrwt>
<rscale>  0 0.32700988E+04</rscale>
<asrwt>0</asrwt>
<pdfrwt beam="1">  1        2 0.24805613E+00 0.32700988E+04</pdfrwt>
<pdfrwt beam="2">  1       -2 0.25508509E+00 0.32700988E+04</pdfrwt>
<totfact> 0.54952886E-01</totfact>
</mgrwt>
</event>
<event>
 4    1  0.1321115E-008  0.2711729E+04  0.7816531E-02  0.8331209E-01
          2   -1    0    0  501    0  0.00000000000E+00  0.00000000000E+00  0.32616923176E+04  0.32616923176E+04  0.00000000000E+00 0.  1.
         -2   -1    0    0    0  501 -0.00000000000E+00 -0.00000000000E+00 -0.56362428103E+03  0.56362428103E+03  0.00000000000E+00 0. -1.
    2000013    1    1    2    0    0 -0.87558937760E+03 -0.39949050776E+03  0.12106777854E+04  0.18150730355E+04  0.95000000000E+03 0.  0.
   -2000013    1    1    2    0    0  0.87558937760E+03  0.39949050776E+03  0.14873902511E+04  0.20102435631E+04  0.95000000000E+03 0.  0.
<mgrwt>
<rscale>  0 0.27117293E+04</rscale>
<asrwt>0</asrwt>
<pdfrwt beam="1">  1        2 0.50179881E+00 0.27117293E+04</pdfrwt>
<pdfrwt beam="2">  1       -2 0.86711429E-01 0.27117293E+04</pdfrwt>
<totfact> 0.11916303E+00</totfact>
</mgrwt>
</event>
<event>
 4    1  0.1321115E-008  0.2798747E+04  0.7816531E-02  0.8303657E-01
          2   -1    0    0  501    0  0.00000000000E+00  0.00000000000E+00  0.18550994431E+04  0.18550994431E+04  0.00000000000E+00 0.  1.
         -2   -1    0    0    0  501 -0.00000000000E+00 -0.00000000000E+00 -0.10556018332E+04  0.10556018332E+04  0.00000000000E+00 0. -1.
    2000013    1    1    2    0    0 -0.78883102562E+03 -0.64948347357E+03  0.51206513463E+03  0.14862011545E+04  0.95000000000E+03 0.  0.
   -2000013    1    1    2    0    0  0.78883102562E+03  0.64948347357E+03  0.28743247529E+03  0.14245001219E+04  0.95000000000E+03 0.  0.
<mgrwt>
<rscale>  0 0.27987471E+04</rscale>
<asrwt>0</asrwt>
<pdfrwt beam="1">  1        2 0.28539991E+00 0.27987471E+04</pdfrwt>
<pdfrwt beam="2">  1       -2 0.16240028E+00 0.27987471E+04</pdfrwt>
<totfact> 0.16927871E+00</totfact>
</mgrwt>
</event>
<event>
 4    1  0.1321115E-008  0.2591342E+04  0.7816531E-02  0.8371148E-01
          2   -1    0    0  501    0  0.00000000000E+00  0.00000000000E+00  0.20228866667E+04  0.20228866667E+04  0.00000000000E+00 0.  1.
         -2   -1    0    0    0  501 -0.00000000000E+00 -0.00000000000E+00 -0.82988520519E+03  0.82988520519E+03  0.00000000000E+00 0. -1.
    2000013    1    1    2    0    0  0.43333105657E+03 -0.73347347151E+03  0.84390525440E+03  0.15298481024E+04  0.95000000000E+03 0.  0.
   -2000013    1    1    2    0    0 -0.43333105657E+03  0.73347347151E+03  0.34909620707E+03  0.13229237695E+04  0.95000000000E+03 0.  0.
<mgrwt>
<rscale>  0 0.25913423E+04</rscale>
<asrwt>0</asrwt>
<pdfrwt beam="1">  1        2 0.31121333E+00 0.25913423E+04</pdfrwt>
<pdfrwt beam="2">  1       -2 0.12767465E+00 0.25913423E+04</pdfrwt>
<totfact> 0.26107949E+00</totfact>
</mgrwt>
</event>
<event>
 4    1  0.1321115E-008  0.2402019E+04  0.7816531E-02  0.8438748E-01
          1   -1    0    0  501    0  0.00000000000E+00  0.00000000000E+00  0.13066680638E+04  0.13066680638E+04  0.00000000000E+00 0.  1.
         -1   -1    0    0    0  501 -0.00000000000E+00 -0.00000000000E+00 -0.11038949913E+04  0.11038949913E+04  0.00000000000E+00 0. -1.
    2000013    1    1    2    0    0  0.64189336857E+03  0.35758651245E+03  0.10680205873E+03  0.12057370734E+04  0.95000000000E+03 0.  0.
   -2000013    1    1    2    0    0 -0.64189336857E+03 -0.35758651245E+03  0.95971013746E+02  0.12048259816E+04  0.95000000000E+03 0.  0.
<mgrwt>
<rscale>  0 0.24020194E+04</rscale>
<asrwt>0</asrwt>
<pdfrwt beam="1">  1        1 0.20102585E+00 0.24020194E+04</pdfrwt>
<pdfrwt beam="2">  1       -1 0.16983000E+00 0.24020194E+04</pdfrwt>
<totfact> 0.19782776E+00</totfact>
</mgrwt>
</event>
<event>
 4    1  0.1321115E-008  0.2642172E+04  0.7816531E-02  0.8354016E-01
         -2   -1    0    0    0  501 -0.00000000000E+00  0.00000000000E+00  0.10547005690E+04  0.10547005690E+04  0.00000000000E+00 0. -1.
          2   -1    0    0  501    0  0.00000000000E+00 -0.00000000000E+00 -0.16547517392E+04  0.16547517392E+04  0.00000000000E+00 0.  1.
    2000013    1    1    2    0    0 -0.34225035287E+03 -0.79093817473E+03  0.24334269015E+02  0.12828915219E+04  0.95000000000E+03 0.  0.
   -2000013    1    1    2    0    0  0.34225035287E+03  0.79093817473E+03 -0.62438543929E+03  0.14265607863E+04  0.95000000000E+03 0.  0.
<mgrwt>
<rscale>  0 0.26421715E+04</rscale>
<asrwt>0</asrwt>
<pdfrwt beam="2">  1        2 0.25457719E+00 0.26421715E+04</pdfrwt>
<pdfrwt beam="1">  1       -2 0.16226163E+00 0.26421715E+04</pdfrwt>
<totfact> 0.22212284E+00</totfact>
</mgrwt>
</event>
<event>
 4    1  0.1321115E-008  0.2263236E+04  0.7816531E-02  0.8492559E-01
          2   -1    0    0  501    0  0.00000000000E+00  0.00000000000E+00  0.15780283613E+04  0.15780283613E+04  0.00000000000E+00 0.  1.
         -2   -1    0    0    0  501 -0.00000000000E+00 -0.00000000000E+00 -0.81149325526E+03  0.81149325526E+03  0.00000000000E+00 0. -1.
    2000013    1    1    2    0    0  0.58728674622E+03  0.15852034722E+03  0.47784819319E+03  0.12251013503E+04  0.95000000000E+03 0.  0.
   -2000013    1    1    2    0    0 -0.58728674622E+03 -0.15852034722E+03  0.28868691282E+03  0.11644202662E+04  0.95000000000E+03 0.  0.
<mgrwt>
<rscale>  0 0.22632361E+04</rscale>
<asrwt>0</asrwt>
<pdfrwt beam="1">  1        2 0.24277359E+00 0.22632361E+04</pdfrwt>
<pdfrwt beam="2">  1       -2 0.12484512E+00 0.22632361E+04</pdfrwt>
<totfact> 0.50185622E+00</totfact>
</mgrwt>
</event>
<event>
 4    1  0.1321115E-008  0.2181606E+04  0.7816531E-02  0.8526123E-01
          2   -1    0    0  501    0  0.00000000000E+00  0.00000000000E+00  0.53162237436E+03  0.53162237436E+03  0.00000000000E+00 0.  1.
         -2   -1    0    0    0  501 -0.00000000000E+00 -0.00000000000E+00 -0.22381507314E+04  0.22381507314E+04  0.00000000000E+00 0. -1.
    2000013    1    1    2    0    0  0.51916863523E+03 -0.12369937633E+03 -0.91691420381E+03  0.14241029684E+04  0.95000000000E+03 0.  0.
   -2000013    1    1    2    0    0 -0.51916863523E+03  0.12369937633E+03 -0.78961415320E+03  0.13456701373E+04  0.95000000000E+03 0.  0.
<mgrwt>
<rscale>  0 0.21816058E+04</rscale>
<asrwt>0</asrwt>
<pdfrwt beam="1">  1        2 0.81788058E-01 0.21816058E+04</pdfrwt>
<pdfrwt beam="2">  1       -2 0.34433088E+00 0.21816058E+04</pdfrwt>
<totfact> 0.88737938E-01</totfact>
</mgrwt>
</event>
<event>
 4    1  0.1321115E-008  0.2622311E+04  0.7816531E-02  0.8360662E-01
         -2   -1    0    0    0  501 -0.00000000000E+00  0.00000000000E+00  0.18592429903E+04  0.18592429903E+04  0.00000000000E+00 0. -1.
          2   -1    0    0  501    0  0.00000000000E+00 -0.00000000000E+00 -0.92463881656E+03  0.92463881656E+03  0.00000000000E+00 0.  1.
    2000013    1    1    2    0    0  0.90763053126E+02  0.89387555441E+03  0.57010229166E+03  0.14264529651E+04  0.95000000000E+03 0.  0.
   -2000013    1    1    2    0    0 -0.90763053126E+02 -0.89387555441E+03  0.36450188213E+03  0.13574288418E+04  0.95000000000E+03 0.  0.
<mgrwt>
<rscale>  0 0.26223106E+04</rscale>
<asrwt>0</asrwt>
<pdfrwt beam="2">  1        2 0.14225213E+00 0.26223106E+04</pdfrwt>
<pdfrwt beam="1">  1       -2 0.28603738E+00 0.26223106E+04</pdfrwt>
<totfact> 0.96406381E-01</totfact>
</mgrwt>
</event>
<event>
 4    1  0.1321115E-008  0.3031721E+04  0.7816531E-02  0.8234730E-01
          2   -1    0    0  501    0  0.00000000000E+00  0.00000000000E+00  0.22392346894E+04  0.22392346894E+04  0.00000000000E+00 0.  1.
         -2   -1    0    0    0  501 -0.00000000000E+00 -0.00000000000E+00 -0.10261686045E+04  0.10261686045E+04  0.00000000000E+00 0. -1.
    2000013    1    1    2    0    0  0.66171598099E+03 -0.97748645690E+03  0.55855132675E+03  0.16148768986E+04  0.95000000000E+03 0.  0.
   -2000013    1    1    2    0    0 -0.66171598099E+03  0.97748645690E+03  0.65451475823E+03  0.16505263953E+04  0.95000000000E+03 0.  0.
<mgrwt>
<rscale>  0 0.30317205E+04</rscale>
<asrwt>0</asrwt>
<pdfrwt beam="1">  1        2 0.34449764E+00 0.30317205E+04</pdfrwt>
<pdfrwt beam="2">  1       -2 0.15787209E+00 0.30317205E+04</pdfrwt>
<totfact> 0.10944879E+00</totfact>
</mgrwt>
</event>
<event>
 4    1  0.1321115E-008  0.3327637E+04  0.7816531E-02  0.8155898E-01
          2   -1    0    0  501    0  0.00000000000E+00  0.00000000000E+00  0.28248071660E+04  0.28248071660E+04  0.00000000000E+00 0.  1.
         -2   -1    0    0    0  501 -0.00000000000E+00 -0.00000000000E+00 -0.97999348254E+03  0.97999348254E+03  0.00000000000E+00 0. -1.
    2000013    1    1    2    0    0  0.36766510408E+03  0.97417656562E+03  0.19332570417E+04  0.23925259453E+04  0.95000000000E+03 0.  0.
   -2000013    1    1    2    0    0 -0.36766510408E+03 -0.97417656562E+03 -0.88443358219E+02  0.14122747032E+04  0.95000000000E+03 0.  0.
<mgrwt>
<rscale>  0 0.33276374E+04</rscale>
<asrwt>0</asrwt>
<pdfrwt beam="1">  1        2 0.43458571E+00 0.33276374E+04</pdfrwt>
<pdfrwt beam="2">  1       -2 0.15076823E+00 0.33276374E+04</pdfrwt>
<totfact> 0.54990503E-01</totfact>
</mgrwt>
</event>
<event>
 4    1  0.1321115E-008  0.2562048E+04  0.7816531E-02  0.8381208E-01
         -2   -1    0    0    0  501 -0.00000000000E+00  0.00000000000E+00  0.19440655855E+04  0.19440655855E+04  0.00000000000E+00 0. -1.
          2   -1    0    0  501    0  0.00000000000E+00 -0.00000000000E+00 -0.84411890230E+03  0.84411890230E+03  0.00000000000E+00 0.  1.
    2000013    1    1    2    0    0  0.85464267525E+03 -0.11280012595E+02  0.45275069451E+03  0.13557376341E+04  0.95000000000E+03 0.  0.
   -2000013    1    1    2    0    0 -0.85464267525E+03  0.11280012595E+02  0.64719598874E+03  0.14324468538E+04  0.95000000000E+03 0.  0.
<mgrwt>
<rscale>  0 0.25620480E+04</rscale>
<asrwt>0</asrwt>
<pdfrwt beam="2">  1        2 0.12986445E+00 0.25620480E+04</pdfrwt>
<pdfrwt beam="1">  1       -2 0.29908701E+00 0.25620480E+04</pdfrwt>
<totfact> 0.91546039E-01</totfact>
</mgrwt>
</event>
<event>
 4    1  0.1321115E-008  0.2873837E+04  0.7816531E-02  0.8280705E-01
         -2   -1    0    0    0  501 -0.00000000000E+00  0.00000000000E+00  0.88664634246E+03  0.88664634246E+03  0.00000000000E+00 0. -1.
          2   -1    0    0  501    0  0.00000000000E+00 -0.00000000000E+00 -0.23287009521E+04  0.23287009521E+04  0.00000000000E+00 0.  1.
    2000013    1    1    2    0    0  0.45422922327E+03 -0.97247722599E+03 -0.60804142695E+03  0.15570004879E+04  0.95000000000E+03 0.  0.
   -2000013    1    1    2    0    0 -0.45422922327E+03  0.97247722599E+03 -0.83401318270E+03  0.16583468067E+04  0.95000000000E+03 0.  0.
<mgrwt>
<rscale>  0 0.28738366E+04</rscale>
<asrwt>0</asrwt>
<pdfrwt beam="2">  1        2 0.35826168E+00 0.28738366E+04</pdfrwt>
<pdfrwt beam="1">  1       -2 0.13640713E+00 0.28738366E+04</pdfrwt>
<totfact> 0.14507062E+00</totfact>
</mgrwt>
</event>
<event>
 4    1  0.1321115E-008  0.2324216E+04  0.7816531E-02  0.8468434E-01
         -2   -1    0    0    0  501 -0.00000000000E+00  0.00000000000E+00  0.11189194410E+04  0.11189194410E+04  0.00000000000E+00 0. -1.
          2   -1    0    0  501    0  0.00000000000E+00 -0.00000000000E+00 -0.12069640203E+04  0.12069640203E+04  0.00000000000E+00 0.  1.
    2000013    1    1    2    0    0  0.12255880950E+03  0.64229146750E+03 -0.18708116668E+03  0.11683571175E+04  0.95000000000E+03 0.  0.
   -2000013    1    1    2    0    0 -0.12255880950E+03 -0.64229146750E+03  0.99036587444E+02  0.11575263438E+04  0.95000000000E+03 0.  0.
<mgrwt>
<rscale>  0 0.23242164E+04</rscale>
<asrwt>0</asrwt>
<pdfrwt beam="2">  1        2 0.18568677E+00 0.23242164E+04</pdfrwt>
<pdfrwt beam="1">  1       -2 0.17214145E+00 0.23242164E+04</pdfrwt>
<totfact> 0.34935696E+00</totfact>
</mgrwt>
</event>
<event>
 4    1  0.1321115E-008  0.2537642E+04  0.7816531E-02  0.8389697E-01
          2   -1    0    0  501    0  0.00000000000E+00  0.00000000000E+00  0.11421567758E+04  0.11421567758E+04  0.00000000000E+00 0.  1.
         -2   -1    0    0    0  501 -0.00000000000E+00 -0.00000000000E+00 -0.14095319747E+04  0.14095319747E+04  0.00000000000E+00 0. -1.
    2000013    1    1    2    0    0  0.33591072795E+03 -0.71741895493E+03 -0.41788350913E+03  0.13056234531E+04  0.95000000000E+03 0.  0.
   -2000013    1    1    2    0    0 -0.33591072795E+03  0.71741895493E+03  0.15050831020E+03  0.12460652974E+04  0.95000000000E+03 0.  0.
<mgrwt>
<rscale>  0 0.25376418E+04</rscale>
<asrwt>0</asrwt>
<pdfrwt beam="1">  1        2 0.17571643E+00 0.25376418E+04</pdfrwt>
<pdfrwt beam="2">  1       -2 0.21685107E+00 0.25376418E+04</pdfrwt>
<totfact> 0.18887408E+00</totfact>
</mgrwt>
</event>
<event>
 4    1  0.1321115E-008  0.2755189E+04  0.7816531E-02  0.8317317E-01
          2   -1    0    0  501    0  0.00000000000E+00  0.00000000000E+00  0.21366204183E+04  0.21366204183E+04  0.00000000000E+00 0. -1.
         -2   -1    0    0    0  501 -0.00000000000E+00 -0.00000000000E+00 -0.88820925088E+03  0.88820925088E+03  0.00000000000E+00 0.  1.
    2000013    1    1    2    0    0 -0.18713032064E+03  0.82138109162E+03  0.12109034773E+04  0.17545574616E+04  0.95000000000E+03 0.  0.
   -2000013    1    1    2    0    0  0.18713032064E+03 -0.82138109162E+03  0.37507690095E+02  0.12702722076E+04  0.95000000000E+03 0.  0.
<mgrwt>
<rscale>  0 0.27551886E+04</rscale>
<asrwt>0</asrwt>
<pdfrwt beam="1">  1        2 0.32871083E+00 0.27551886E+04</pdfrwt>
<pdfrwt beam="2">  1       -2 0.13664758E+00 0.27551886E+04</pdfrwt>
<totfact> 0.18720562E+00</totfact>
</mgrwt>
</event>
<event>
 4    1  0.1321115E-008  0.3033928E+04  0.7816531E-02  0.8234108E-01
          2   -1    0    0  501    0  0.00000000000E+00  0.00000000000E+00  0.26304661812E+04  0.26304661812E+04  0.00000000000E+00 0.  1.
         -2   -1    0    0    0  501 -0.00000000000E+00 -0.00000000000E+00 -0.87481841321E+03  0.87481841321E+03  0.00000000000E+00 0. -1.
    2000013    1    1    2    0    0  0.11557022642E+04 -0.24487662159E+03  0.81382928355E+03  0.17205901273E+04  0.95000000000E+03 0.  0.
   -2000013    1    1    2    0    0 -0.11557022642E+04  0.24487662159E+03  0.94181848441E+03  0.17846944671E+04  0.95000000000E+03 0.  0.
<mgrwt>
<rscale>  0 0.30339283E+04</rscale>
<asrwt>0</asrwt>
<pdfrwt beam="1">  1        2 0.40468710E+00 0.30339283E+04</pdfrwt>
<pdfrwt beam="2">  1       -2 0.13458745E+00 0.30339283E+04</pdfrwt>
<totfact> 0.99081105E-01</totfact>
</mgrwt>
</event>
<event>
 4    1  0.1321115E-008  0.2283902E+04  0.7816531E-02  0.8484295E-01
          2   -1    0    0  501    0  0.00000000000E+00  0.00000000000E+00  0.13135447825E+04  0.13135447825E+04  0.00000000000E+00 0.  1.
         -2   -1    0    0    0  501 -0.00000000000E+00 -0.00000000000E+00 -0.99277336531E+03  0.99277336531E+03  0.00000000000E+00 0. -1.
    2000013    1    1    2    0    0 -0.36228490826E+03  0.11968412929E+03  0.67129373554E+03  0.12242180872E+04  0.95000000000E+03 0.  0.
   -2000013    1    1    2    0    0  0.36228490826E+03 -0.11968412929E+03 -0.35052231836E+03  0.10821000606E+04  0.95000000000E+03 0.  0.
<mgrwt>
<rscale>  0 0.22839022E+04</rscale>
<asrwt>0</asrwt>
<pdfrwt beam="1">  1        2 0.20208381E+00 0.22839022E+04</pdfrwt>
<pdfrwt beam="2">  1       -2 0.15273436E+00 0.22839022E+04</pdfrwt>
<totfact> 0.42087278E+00</totfact>
</mgrwt>
</event>
<event>
 4    1  0.1321115E-008  0.2283318E+04  0.7816531E-02  0.8484528E-01
         -2   -1    0    0    0  501 -0.00000000000E+00  0.00000000000E+00  0.32647776163E+03  0.32647776163E+03  0.00000000000E+00 0. -1.
          2   -1    0    0  501    0  0.00000000000E+00 -0.00000000000E+00 -0.39922620673E+04  0.39922620673E+04  0.00000000000E+00 0.  1.
    2000013    1    1    2    0    0  0.51297183991E+03  0.17238948285E+03 -0.12112278092E+04  0.16316957585E+04  0.95000000000E+03 0.  0.
   -2000013    1    1    2    0    0 -0.51297183991E+03 -0.17238948285E+03 -0.24545564964E+04  0.26870440704E+04  0.95000000000E+03 0.  0.
<mgrwt>
<rscale>  0 0.22833176E+04</rscale>
<asrwt>0</asrwt>
<pdfrwt beam="2">  1        2 0.61419419E+00 0.22833176E+04</pdfrwt>
<pdfrwt beam="1">  1       -2 0.50227346E-01 0.22833176E+04</pdfrwt>
<totfact> 0.11885028E+00</totfact>
</mgrwt>
</event>
<event>
 4    1  0.1321115E-008  0.2553210E+04  0.7816531E-02  0.8384271E-01
         -2   -1    0    0    0  501 -0.00000000000E+00  0.00000000000E+00  0.19116926756E+04  0.19116926756E+04  0.00000000000E+00 0. -1.
          2   -1    0    0  501    0  0.00000000000E+00 -0.00000000000E+00 -0.85250138671E+03  0.85250138671E+03  0.00000000000E+00 0.  1.
    2000013    1    1    2    0    0  0.29378677629E+03 -0.41205776410E+03 -0.21350386681E+03  0.10973541689E+04  0.95000000000E+03 0.  0.
   -2000013    1    1    2    0    0 -0.29378677629E+03  0.41205776410E+03  0.12726951557E+04  0.16668398934E+04  0.95000000000E+03 0.  0.
<mgrwt>
<rscale>  0 0.25532103E+04</rscale>
<asrwt>0</asrwt>
<pdfrwt beam="2">  1        2 0.13115406E+00 0.25532103E+04</pdfrwt>
<pdfrwt beam="1">  1       -2 0.29410656E+00 0.25532103E+04</pdfrwt>
<totfact> 0.96949847E-01</totfact>
</mgrwt>
</event>
<event>
 4    1  0.1321115E-008  0.2676336E+04  0.7816531E-02  0.8342724E-01
          2   -1    0    0  501    0  0.00000000000E+00  0.00000000000E+00  0.16874972463E+04  0.16874972463E+04  0.00000000000E+00 0.  1.
         -2   -1    0    0    0  501 -0.00000000000E+00 -0.00000000000E+00 -0.10611534800E+04  0.10611534800E+04  0.00000000000E+00 0. -1.
    2000013    1    1    2    0    0 -0.53734282575E+03  0.76387244602E+03  0.18344518675E+03  0.13447641290E+04  0.95000000000E+03 0.  0.
   -2000013    1    1    2    0    0  0.53734282575E+03 -0.76387244602E+03  0.44289857952E+03  0.14038865972E+04  0.95000000000E+03 0.  0.
<mgrwt>
<rscale>  0 0.26763360E+04</rscale>
<asrwt>0</asrwt>
<pdfrwt beam="1">  1        2 0.25961496E+00 0.26763360E+04</pdfrwt>
<pdfrwt beam="2">  1       -2 0.16325438E+00 0.26763360E+04</pdfrwt>
<totfact> 0.20885577E+00</totfact>
</mgrwt>
</event>
<event>
 4    1  0.1321115E-008  0.1963015E+04  0.7816531E-02  0.8624110E-01
         -1   -1    0    0    0  501 -0.00000000000E+00  0.00000000000E+00  0.92371622018E+03  0.92371622018E+03  0.00000000000E+00 0. -1.
          1   -1    0    0  501    0  0.00000000000E+00 -0.00000000000E+00 -0.10429139879E+04  0.10429139879E+04  0.00000000000E+00 0.  1.
    2000013    1    1    2    0    0 -0.21663664206E+03  0.26857011442E+01 -0.17779040819E+03  0.99047871099E+03  0.95000000000E+03 0.  0.
   -2000013    1    1    2    0    0  0.21663664206E+03 -0.26857011442E+01  0.58592640513E+02  0.97615149705E+03  0.95000000000E+03 0.  0.
<mgrwt>
<rscale>  0 0.19630146E+04</rscale>
<asrwt>0</asrwt>
<pdfrwt beam="2">  1        1 0.16044831E+00 0.19630146E+04</pdfrwt>
<pdfrwt beam="1">  1       -1 0.14211019E+00 0.19630146E+04</pdfrwt>
<totfact> 0.52561797E+00</totfact>
</mgrwt>
</event>
<event>
 4    1  0.1321115E-008  0.3172187E+04  0.7816531E-02  0.8196201E-01
          2   -1    0    0  501    0  0.00000000000E+00  0.00000000000E+00  0.13928001670E+04  0.13928001670E+04  0.00000000000E+00 0.  1.
         -2   -1    0    0    0  501 -0.00000000000E+00 -0.00000000000E+00 -0.18062124780E+04  0.18062124780E+04  0.00000000000E+00 0. -1.
    2000013    1    1    2    0    0 -0.88043095859E+02  0.35139453452E+03 -0.14343598254E+04  0.17581575056E+04  0.95000000000E+03 0.  0.
   -2000013    1    1    2    0    0  0.88043095859E+02 -0.35139453452E+03  0.10209475144E+04  0.14408551394E+04  0.95000000000E+03 0.  0.
<mgrwt>
<rscale>  0 0.31721873E+04</rscale>
<asrwt>0</asrwt>
<pdfrwt beam="1">  1        2 0.21427695E+00 0.31721873E+04</pdfrwt>
<pdfrwt beam="2">  1       -2 0.27787884E+00 0.31721873E+04</pdfrwt>
<totfact> 0.53491930E-01</totfact>
</mgrwt>
</event>
<event>
 4    1  0.1321115E-008  0.2653746E+04  0.7816531E-02  0.8350171E-01
          2   -1    0    0  501    0  0.00000000000E+00  0.00000000000E+00  0.18123284706E+04  0.18123284706E+04  0.00000000000E+00 0.  1.
         -2   -1    0    0    0  501 -0.00000000000E+00 -0.00000000000E+00 -0.97145267188E+03  0.97145267188E+03  0.00000000000E+00 0. -1.
    2000013    1    1    2    0    0 -0.12774688432E+03  0.78789600385E+03 -0.72695077331E+02  0.12429336079E+04  0.95000000000E+03 0.  0.
   -2000013    1    1    2    0    0  0.12774688432E+03 -0.78789600385E+03  0.91357087608E+03  0.15408475346E+04  0.95000000000E+03 0.  0.
<mgrwt>
<rscale>  0 0.26537455E+04</rscale>
<asrwt>0</asrwt>
<pdfrwt beam="1">  1        2 0.27881976E+00 0.26537455E+04</pdfrwt>
<pdfrwt beam="2">  1       -2 0.14945426E+00 0.26537455E+04</pdfrwt>
<totfact> 0.22632441E+00</totfact>
</mgrwt>
</event>
<event>
 4    1  0.1321115E-008  0.2685679E+04  0.7816531E-02  0.8339667E-01
          2   -1    0    0  501    0  0.00000000000E+00  0.00000000000E+00  0.18662995188E+04  0.18662995188E+04  0.00000000000E+00 0.  1.
         -2   -1    0    0    0  501 -0.00000000000E+00 -0.00000000000E+00 -0.96619974231E+03  0.96619974231E+03  0.00000000000E+00 0. -1.
    2000013    1    1    2    0    0 -0.45049316547E+03  0.78690654456E+03  0.15445657026E+03  0.13223172214E+04  0.95000000000E+03 0.  0.
   -2000013    1    1    2    0    0  0.45049316547E+03 -0.78690654456E+03  0.74564320625E+03  0.15101820397E+04  0.95000000000E+03 0.  0.
<mgrwt>
<rscale>  0 0.26856791E+04</rscale>
<asrwt>0</asrwt>
<pdfrwt beam="1">  1        2 0.28712300E+00 0.26856791E+04</pdfrwt>
<pdfrwt beam="2">  1       -2 0.14864611E+00 0.26856791E+04</pdfrwt>
<totfact> 0.21372639E+00</totfact>
</mgrwt>
</event>
<event>
 4    1  0.1321115E-008  0.2047228E+04  0.7816531E-02  0.8584853E-01
          2   -1    0    0  501    0  0.00000000000E+00  0.00000000000E+00  0.21720078169E+04  0.21720078169E+04  0.00000000000E+00 0.  1.
         -2   -1    0    0    0  501 -0.00000000000E+00 -0.00000000000E+00 -0.48240394641E+03  0.48240394641E+03  0.00000000000E+00 0. -1.
    2000013    1    1    2    0    0  0.21375372580E+02 -0.33939804492E+03  0.10680156050E+04  0.14692873347E+04  0.95000000000E+03 0.  0.
   -2000013    1    1    2    0    0 -0.21375372580E+02  0.33939804492E+03  0.62158826550E+03  0.11851244286E+04  0.95000000000E+03 0.  0.
<mgrwt>
<rscale>  0 0.20472275E+04</rscale>
<asrwt>0</asrwt>
<pdfrwt beam="1">  1        2 0.33415504E+00 0.20472275E+04</pdfrwt>
<pdfrwt beam="2">  1       -2 0.74215993E-01 0.20472275E+04</pdfrwt>
<totfact> 0.80993693E+00</totfact>
</mgrwt>
</event>
<event>
 4    1  0.1321115E-008  0.2370983E+04  0.7816531E-02  0.8450448E-01
          1   -1    0    0  501    0  0.00000000000E+00  0.00000000000E+00  0.21434300236E+04  0.21434300236E+04  0.00000000000E+00 0.  1.
         -1   -1    0    0    0  501 -0.00000000000E+00 -0.00000000000E+00 -0.65567321543E+03  0.65567321543E+03  0.00000000000E+00 0. -1.
    2000013    1    1    2    0    0  0.32558466004E+03  0.40025775122E+03  0.16953781916E+03  0.10942827379E+04  0.95000000000E+03 0.  0.
   -2000013    1    1    2    0    0 -0.32558466004E+03 -0.40025775122E+03  0.13182189890E+04  0.17048205012E+04  0.95000000000E+03 0.  0.
<mgrwt>
<rscale>  0 0.23709826E+04</rscale>
<asrwt>0</asrwt>
<pdfrwt beam="1">  1        1 0.32975846E+00 0.23709826E+04</pdfrwt>
<pdfrwt beam="2">  1       -1 0.10087280E+00 0.23709826E+04</pdfrwt>
<totfact> 0.19978134E+00</totfact>
</mgrwt>
</event>
<event>
 4    1  0.1321115E-008  0.2325075E+04  0.7816531E-02  0.8468100E-01
         -2   -1    0    0    0  501 -0.00000000000E+00  0.00000000000E+00  0.11273357102E+04  0.11273357102E+04  0.00000000000E+00 0. -1.
          2   -1    0    0  501    0  0.00000000000E+00 -0.00000000000E+00 -0.11988381780E+04  0.11988381780E+04  0.00000000000E+00 0.  1.
    2000013    1    1    2    0    0  0.27138524575E+03 -0.13589580317E+03 -0.63342420177E+03  0.11814583532E+04  0.95000000000E+03 0.  0.
   -2000013    1    1    2    0    0 -0.27138524575E+03  0.13589580317E+03  0.56192173405E+03  0.11447155350E+04  0.95000000000E+03 0.  0.
<mgrwt>
<rscale>  0 0.23250747E+04</rscale>
<asrwt>0</asrwt>
<pdfrwt beam="2">  1        2 0.18443664E+00 0.23250747E+04</pdfrwt>
<pdfrwt beam="1">  1       -2 0.17343626E+00 0.23250747E+04</pdfrwt>
<totfact> 0.34591081E+00</totfact>
</mgrwt>
</event>
<event>
 4    1  0.1321115E-008  0.2588385E+04  0.7816531E-02  0.8372157E-01
          2   -1    0    0  501    0  0.00000000000E+00  0.00000000000E+00  0.21976846868E+04  0.21976846868E+04  0.00000000000E+00 0.  1.
         -2   -1    0    0    0  501 -0.00000000000E+00 -0.00000000000E+00 -0.76213554337E+03  0.76213554337E+03  0.00000000000E+00 0. -1.
    2000013    1    1    2    0    0 -0.44124404970E+03  0.73738280057E+03  0.92863784756E+03  0.15821813922E+04  0.95000000000E+03 0.  0.
   -2000013    1    1    2    0    0  0.44124404970E+03 -0.73738280057E+03  0.50691129590E+03  0.13776388380E+04  0.95000000000E+03 0.  0.
<mgrwt>
<rscale>  0 0.25883845E+04</rscale>
<asrwt>0</asrwt>
<pdfrwt beam="1">  1        2 0.33810533E+00 0.25883845E+04</pdfrwt>
<pdfrwt beam="2">  1       -2 0.11725162E+00 0.25883845E+04</pdfrwt>
<totfact> 0.25784011E+00</totfact>
</mgrwt>
</event>
<event>
 4    1  0.1321115E-008  0.2797364E+04  0.7816531E-02  0.8304087E-01
          2   -1    0    0  501    0  0.00000000000E+00  0.00000000000E+00  0.13529939941E+04  0.13529939941E+04  0.00000000000E+00 0.  1.
         -2   -1    0    0    0  501 -0.00000000000E+00 -0.00000000000E+00 -0.14459126908E+04  0.14459126908E+04  0.00000000000E+00 0. -1.
    2000013    1    1    2    0    0  0.71743790598E+03 -0.71745832011E+03 -0.20258256946E+03  0.14046363542E+04  0.95000000000E+03 0.  0.
   -2000013    1    1    2    0    0 -0.71743790598E+03  0.71745832011E+03  0.10966387272E+03  0.13942703307E+04  0.95000000000E+03 0.  0.
<mgrwt>
<rscale>  0 0.27973639E+04</rscale>
<asrwt>0</asrwt>
<pdfrwt beam="1">  1        2 0.20815292E+00 0.27973639E+04</pdfrwt>
<pdfrwt beam="2">  1       -2 0.22244811E+00 0.27973639E+04</pdfrwt>
<totfact> 0.12783837E+00</totfact>
</mgrwt>
</event>
<event>
 4    1  0.1321115E-008  0.2206559E+04  0.7816531E-02  0.8515703E-01
         -1   -1    0    0    0  501 -0.00000000000E+00  0.00000000000E+00  0.39074470788E+03  0.39074470788E+03  0.00000000000E+00 0.  1.
          1   -1    0    0  501    0  0.00000000000E+00 -0.00000000000E+00 -0.31151433792E+04  0.31151433792E+04  0.00000000000E+00 0. -1.
    2000013    1    1    2    0    0  0.31654150217E+03 -0.23215903448E+03 -0.72541104886E+03  0.12581007629E+04  0.95000000000E+03 0.  0.
   -2000013    1    1    2    0    0 -0.31654150217E+03  0.23215903448E+03 -0.19989876225E+04  0.22477873242E+04  0.95000000000E+03 0.  0.
<mgrwt>
<rscale>  0 0.22065591E+04</rscale>
<asrwt>0</asrwt>
<pdfrwt beam="2">  1        1 0.47925282E+00 0.22065591E+04</pdfrwt>
<pdfrwt beam="1">  1       -1 0.60114571E-01 0.22065591E+04</pdfrwt>
<totfact> 0.12588977E+00</totfact>
</mgrwt>
</event>
<event>
 4    1  0.1321115E-008  0.2130136E+04  0.7816531E-02  0.8548083E-01
          1   -1    0    0  501    0  0.00000000000E+00  0.00000000000E+00  0.16672517487E+04  0.16672517487E+04  0.00000000000E+00 0.  1.
         -1   -1    0    0    0  501 -0.00000000000E+00 -0.00000000000E+00 -0.68038281834E+03  0.68038281834E+03  0.00000000000E+00 0. -1.
    2000013    1    1    2    0    0 -0.12337001133E+03  0.46252161981E+03  0.43592360493E+03  0.11496415954E+04  0.95000000000E+03 0.  0.
   -2000013    1    1    2    0    0  0.12337001133E+03 -0.46252161981E+03  0.55094532541E+03  0.11979929716E+04  0.95000000000E+03 0.  0.
<mgrwt>
<rscale>  0 0.21301356E+04</rscale>
<asrwt>0</asrwt>
<pdfrwt beam="1">  1        1 0.25650027E+00 0.21301356E+04</pdfrwt>
<pdfrwt beam="2">  1       -1 0.10467428E+00 0.21301356E+04</pdfrwt>
<totfact> 0.39469076E+00</totfact>
</mgrwt>
</event>
<event>
 4    1  0.1321115E-008  0.2472561E+04  0.7816531E-02  0.8412826E-01
          2   -1    0    0  501    0  0.00000000000E+00  0.00000000000E+00  0.87887203863E+03  0.87887203863E+03  0.00000000000E+00 0.  1.
         -2   -1    0    0    0  501 -0.00000000000E+00 -0.00000000000E+00 -0.17390356725E+04  0.17390356725E+04  0.00000000000E+00 0. -1.
    2000013    1    1    2    0    0  0.68764593751E+03  0.58522348592E+02 -0.20552766887E+02  0.11743952558E+04  0.95000000000E+03 0.  0.
   -2000013    1    1    2    0    0 -0.68764593751E+03 -0.58522348592E+02 -0.83961086696E+03  0.14435124553E+04  0.95000000000E+03 0.  0.
<mgrwt>
<rscale>  0 0.24725613E+04</rscale>
<asrwt>0</asrwt>
<pdfrwt beam="1">  1        2 0.13521108E+00 0.24725613E+04</pdfrwt>
<pdfrwt beam="2">  1       -2 0.26754395E+00 0.24725613E+04</pdfrwt>
<totfact> 0.13592915E+00</totfact>
</mgrwt>
</event>
<event>
 4    1  0.1321115E-008  0.2624225E+04  0.7816531E-02  0.8360019E-01
         -2   -1    0    0    0  501 -0.00000000000E+00  0.00000000000E+00  0.83564122827E+03  0.83564122827E+03  0.00000000000E+00 0. -1.
          2   -1    0    0  501    0  0.00000000000E+00 -0.00000000000E+00 -0.20602614505E+04  0.20602614505E+04  0.00000000000E+00 0.  1.
    2000013    1    1    2    0    0 -0.73453359445E+03  0.27545924175E+03 -0.11103932607E+04  0.16585808960E+04  0.95000000000E+03 0.  0.
   -2000013    1    1    2    0    0  0.73453359445E+03 -0.27545924175E+03 -0.11422696152E+03  0.12373217827E+04  0.95000000000E+03 0.  0.
<mgrwt>
<rscale>  0 0.26242251E+04</rscale>
<asrwt>0</asrwt>
<pdfrwt beam="2">  1        2 0.31696330E+00 0.26242251E+04</pdfrwt>
<pdfrwt beam="1">  1       -2 0.12856019E+00 0.26242251E+04</pdfrwt>
<totfact> 0.24387346E+00</totfact>
</mgrwt>
</event>
<event>
 4    1  0.1321115E-008  0.2557304E+04  0.7816531E-02  0.8382850E-01
         -2   -1    0    0    0  501 -0.00000000000E+00  0.00000000000E+00  0.16988009761E+04  0.16988009761E+04  0.00000000000E+00 0. -1.
          2   -1    0    0  501    0  0.00000000000E+00 -0.00000000000E+00 -0.96241465171E+03  0.96241465171E+03  0.00000000000E+00 0.  1.
    2000013    1    1    2    0    0  0.55607196694E+03 -0.12368916826E+02 -0.30868412664E+03  0.11433087564E+04  0.95000000000E+03 0.  0.
   -2000013    1    1    2    0    0 -0.55607196694E+03  0.12368916826E+02  0.10450704510E+04  0.15179068714E+04  0.95000000000E+03 0.  0.
<mgrwt>
<rscale>  0 0.25573040E+04</rscale>
<asrwt>0</asrwt>
<pdfrwt beam="2">  1        2 0.14806379E+00 0.25573040E+04</pdfrwt>
<pdfrwt beam="1">  1       -2 0.26135400E+00 0.25573040E+04</pdfrwt>
<totfact> 0.12945697E+00</totfact>
</mgrwt>
</event>
<event>
 4    1  0.1321115E-008  0.2831967E+04  0.7816531E-02  0.8293412E-01
         -2   -1    0    0    0  501 -0.00000000000E+00  0.00000000000E+00  0.11321539767E+04  0.11321539767E+04  0.00000000000E+00 0. -1.
          2   -1    0    0  501    0  0.00000000000E+00 -0.00000000000E+00 -0.17709681878E+04  0.17709681878E+04  0.00000000000E+00 0.  1.
    2000013    1    1    2    0    0 -0.60222077816E+03  0.68365151472E+03 -0.85449866352E+03  0.15693046948E+04  0.95000000000E+03 0.  0.
   -2000013    1    1    2    0    0  0.60222077816E+03 -0.68365151472E+03  0.21568445244E+03  0.13338174696E+04  0.95000000000E+03 0.  0.
<mgrwt>
<rscale>  0 0.28319666E+04</rscale>
<asrwt>0</asrwt>
<pdfrwt beam="2">  1        2 0.27245664E+00 0.28319666E+04</pdfrwt>
<pdfrwt beam="1">  1       -2 0.17417753E+00 0.28319666E+04</pdfrwt>
<totfact> 0.15477442E+00</totfact>
</mgrwt>
</event>
<event>
 4    1  0.1321115E-008  0.3520077E+04  0.7816531E-02  0.8109048E-01
         -2   -1    0    0    0  501 -0.00000000000E+00  0.00000000000E+00  0.11951754453E+04  0.11951754453E+04  0.00000000000E+00 0. -1.
          2   -1    0    0  501    0  0.00000000000E+00 -0.00000000000E+00 -0.25918663574E+04  0.25918663574E+04  0.00000000000E+00 0.  1.
    2000013    1    1    2    0    0 -0.13441804133E+04 -0.58759519412E+03 -0.47487614096E+03  0.18111036539E+04  0.95000000000E+03 0.  0.
   -2000013    1    1    2    0    0  0.13441804133E+04  0.58759519412E+03 -0.92181477115E+03  0.19759381488E+04  0.95000000000E+03 0.  0.
<mgrwt>
<rscale>  0 0.35200767E+04</rscale>
<asrwt>0</asrwt>
<pdfrwt beam="2">  1        2 0.39874867E+00 0.35200767E+04</pdfrwt>
<pdfrwt beam="1">  1       -2 0.18387315E+00 0.35200767E+04</pdfrwt>
<totfact> 0.43040488E-01</totfact>
</mgrwt>
</event>
<event>
 4    1  0.1321115E-008  0.2668118E+04  0.7816531E-02  0.8345424E-01
          2   -1    0    0  501    0  0.00000000000E+00  0.00000000000E+00  0.13523435843E+04  0.13523435843E+04  0.00000000000E+00 0.  1.
         -2   -1    0    0    0  501 -0.00000000000E+00 -0.00000000000E+00 -0.13160219741E+04  0.13160219741E+04  0.00000000000E+00 0. -1.
    2000013    1    1    2    0    0 -0.49285035695E+03  0.74912296753E+03  0.28860623487E+03  0.13378640640E+04  0.95000000000E+03 0.  0.
   -2000013    1    1    2    0    0  0.49285035695E+03 -0.74912296753E+03 -0.25228462470E+03  0.13305014944E+04  0.95000000000E+03 0.  0.
<mgrwt>
<rscale>  0 0.26681183E+04</rscale>
<asrwt>0</asrwt>
<pdfrwt beam="1">  1        2 0.20805286E+00 0.26681183E+04</pdfrwt>
<pdfrwt beam="2">  1       -2 0.20246492E+00 0.26681183E+04</pdfrwt>
<totfact> 0.17374678E+00</totfact>
</mgrwt>
</event>
<event>
 4    1  0.1321115E-008  0.3555646E+04  0.7816531E-02  0.8100728E-01
          2   -1    0    0  501    0  0.00000000000E+00  0.00000000000E+00  0.19499678471E+04  0.19499678471E+04  0.00000000000E+00 0.  1.
         -2   -1    0    0    0  501 -0.00000000000E+00 -0.00000000000E+00 -0.16208754688E+04  0.16208754688E+04  0.00000000000E+00 0. -1.
    2000013    1    1    2    0    0 -0.11385986076E+04  0.85658033869E+02  0.11456612845E+04  0.18758421753E+04  0.95000000000E+03 0.  0.
   -2000013    1    1    2    0    0  0.11385986076E+04 -0.85658033869E+02 -0.81656890622E+03  0.16950011406E+04  0.95000000000E+03 0.  0.
<mgrwt>
<rscale>  0 0.35556462E+04</rscale>
<asrwt>0</asrwt>
<pdfrwt beam="1">  1        2 0.29999505E+00 0.35556462E+04</pdfrwt>
<pdfrwt beam="2">  1       -2 0.24936546E+00 0.35556462E+04</pdfrwt>
<totfact> 0.37784762E-01</totfact>
</mgrwt>
</event>
<event>
 4    1  0.1321115E-008  0.2218570E+04  0.7816531E-02  0.8510738E-01
          2   -1    0    0  501    0  0.00000000000E+00  0.00000000000E+00  0.19790776832E+04  0.19790776832E+04  0.00000000000E+00 0.  1.
         -2   -1    0    0    0  501 -0.00000000000E+00 -0.00000000000E+00 -0.62176114522E+03  0.62176114522E+03  0.00000000000E+00 0. -1.
    2000013    1    1    2    0    0  0.34772856166E+03  0.45496660519E+03  0.66671213296E+03  0.12941850071E+04  0.95000000000E+03 0.  0.
   -2000013    1    1    2    0    0 -0.34772856166E+03 -0.45496660519E+03  0.69060440497E+03  0.13066538213E+04  0.95000000000E+03 0.  0.
<mgrwt>
<rscale>  0 0.22185704E+04</rscale>
<asrwt>0</asrwt>
<pdfrwt beam="1">  1        2 0.30447349E+00 0.22185704E+04</pdfrwt>
<pdfrwt beam="2">  1       -2 0.95655562E-01 0.22185704E+04</pdfrwt>
<totfact> 0.57437507E+00</totfact>
</mgrwt>
</event>
<event>
 4    1  0.1321115E-008  0.2651047E+04  0.7816531E-02  0.8351065E-01
         -2   -1    0    0    0  501 -0.00000000000E+00  0.00000000000E+00  0.98773282430E+03  0.98773282430E+03  0.00000000000E+00 0. -1.
          2   -1    0    0  501    0  0.00000000000E+00 -0.00000000000E+00 -0.17788343399E+04  0.17788343399E+04  0.00000000000E+00 0.  1.
    2000013    1    1    2    0    0 -0.42599059024E+03  0.34466478513E+03  0.38137062600E+03  0.11611224533E+04  0.95000000000E+03 0.  0.
   -2000013    1    1    2    0    0  0.42599059024E+03 -0.34466478513E+03 -0.11724721416E+04  0.16054447109E+04  0.95000000000E+03 0.  0.
<mgrwt>
<rscale>  0 0.26510474E+04</rscale>
<asrwt>0</asrwt>
<pdfrwt beam="2">  1        2 0.27366682E+00 0.26510474E+04</pdfrwt>
<pdfrwt beam="1">  1       -2 0.15195890E+00 0.26510474E+04</pdfrwt>
<totfact> 0.22607269E+00</totfact>
</mgrwt>
</event>
<event>
 4    1  0.1321115E-008  0.2749130E+04  0.7816531E-02  0.8319238E-01
          2   -1    0    0  501    0  0.00000000000E+00  0.00000000000E+00  0.20381611692E+04  0.20381611692E+04  0.00000000000E+00 0.  1.
         -2   -1    0    0    0  501 -0.00000000000E+00 -0.00000000000E+00 -0.92702619633E+03  0.92702619633E+03  0.00000000000E+00 0. -1.
    2000013    1    1    2    0    0  0.43885345668E+03  0.70396849378E+03  0.11451187765E+04  0.17035143114E+04  0.95000000000E+03 0.  0.
   -2000013    1    1    2    0    0 -0.43885345668E+03 -0.70396849378E+03 -0.33983803675E+02  0.12616730542E+04  0.95000000000E+03 0.  0.
<mgrwt>
<rscale>  0 0.27491299E+04</rscale>
<asrwt>0</asrwt>
<pdfrwt beam="1">  1        2 0.31356325E+00 0.27491299E+04</pdfrwt>
<pdfrwt beam="2">  1       -2 0.14261942E+00 0.27491299E+04</pdfrwt>
<totfact> 0.19024457E+00</totfact>
</mgrwt>
</event>
<event>
 4    1  0.1321115E-008  0.2216341E+04  0.7816531E-02  0.8511657E-01
         -2   -1    0    0    0  501 -0.00000000000E+00  0.00000000000E+00  0.34748977631E+03  0.34748977631E+03  0.00000000000E+00 0. -1.
          2   -1    0    0  501    0  0.00000000000E+00 -0.00000000000E+00 -0.35340388167E+04  0.35340388167E+04  0.00000000000E+00 0.  1.
    2000013    1    1    2    0    0 -0.36919758912E+03  0.90533102360E+02 -0.84810943455E+03  0.13290194564E+04  0.95000000000E+03 0.  0.
   -2000013    1    1    2    0    0  0.36919758912E+03 -0.90533102360E+02 -0.23384396058E+04  0.25525091366E+04  0.95000000000E+03 0.  0.
<mgrwt>
<rscale>  0 0.22163415E+04</rscale>
<asrwt>0</asrwt>
<pdfrwt beam="2">  1        2 0.54369831E+00 0.22163415E+04</pdfrwt>
<pdfrwt beam="1">  1       -2 0.53459963E-01 0.22163415E+04</pdfrwt>
<totfact> 0.23241990E+00</totfact>
</mgrwt>
</event>
<event>
 4    1  0.1321115E-008  0.2122395E+04  0.7816531E-02  0.8551442E-01
          2   -1    0    0  501    0  0.00000000000E+00  0.00000000000E+00  0.12360080836E+04  0.12360080836E+04  0.00000000000E+00 0.  1.
         -2   -1    0    0    0  501 -0.00000000000E+00 -0.00000000000E+00 -0.91111049489E+03  0.91111049489E+03  0.00000000000E+00 0. -1.
    2000013    1    1    2    0    0 -0.39544160653E+03  0.51218309545E+02  0.41965954604E+03  0.11124798937E+04  0.95000000000E+03 0.  0.
   -2000013    1    1    2    0    0  0.39544160653E+03 -0.51218309545E+02 -0.94761957325E+02  0.10346386847E+04  0.95000000000E+03 0.  0.
<mgrwt>
<rscale>  0 0.21223948E+04</rscale>
<asrwt>0</asrwt>
<pdfrwt beam="1">  1        2 0.19015509E+00 0.21223948E+04</pdfrwt>
<pdfrwt beam="2">  1       -2 0.14017085E+00 0.21223948E+04</pdfrwt>
<totfact> 0.59380384E+00</totfact>
</mgrwt>
</event>
<event>
 4    1  0.1321115E-008  0.3144725E+04  0.7816531E-02  0.8203570E-01
         -2   -1    0    0    0  501 -0.00000000000E+00  0.00000000000E+00  0.13181487100E+04  0.13181487100E+04  0.00000000000E+00 0. -1.
          2   -1    0    0  501    0  0.00000000000E+00 -0.00000000000E+00 -0.18756028360E+04  0.18756028360E+04  0.00000000000E+00 0.  1.
    2000013    1    1    2    0    0 -0.11747273890E+04 -0.91968514044E+02 -0.71125499533E+03  0.16723714642E+04  0.95000000000E+03 0.  0.
   -2000013    1    1    2    0    0  0.11747273890E+04  0.91968514044E+02  0.15380086929E+03  0.15213800818E+04  0.95000000000E+03 0.  0.
<mgrwt>
<rscale>  0 0.31447248E+04</rscale>
<asrwt>0</asrwt>
<pdfrwt beam="2">  1        2 0.28855428E+00 0.31447248E+04</pdfrwt>
<pdfrwt beam="1">  1       -2 0.20279211E+00 0.31447248E+04</pdfrwt>
<totfact> 0.84509154E-01</totfact>
</mgrwt>
</event>
<event>
 4    1  0.1321115E-008  0.2988778E+04  0.7816531E-02  0.8246943E-01
         -2   -1    0    0    0  501 -0.00000000000E+00  0.00000000000E+00  0.19112588250E+04  0.19112588250E+04  0.00000000000E+00 0. -1.
          2   -1    0    0  501    0  0.00000000000E+00 -0.00000000000E+00 -0.11684441073E+04  0.11684441073E+04  0.00000000000E+00 0.  1.
    2000013    1    1    2    0    0 -0.53245550789E+03 -0.91088379608E+03 -0.10912841215E+03  0.14239477407E+04  0.95000000000E+03 0.  0.
   -2000013    1    1    2    0    0  0.53245550789E+03  0.91088379608E+03  0.85194312988E+03  0.16557551916E+04  0.95000000000E+03 0.  0.
<mgrwt>
<rscale>  0 0.29887784E+04</rscale>
<asrwt>0</asrwt>
<pdfrwt beam="2">  1        2 0.17976063E+00 0.29887784E+04</pdfrwt>
<pdfrwt beam="1">  1       -2 0.29403982E+00 0.29887784E+04</pdfrwt>
<totfact> 0.58600194E-01</totfact>
</mgrwt>
</event>
<event>
 4    1  0.1321115E-008  0.3148540E+04  0.7816531E-02  0.8202542E-01
          1   -1    0    0  501    0  0.00000000000E+00  0.00000000000E+00  0.12309290985E+04  0.12309290985E+04  0.00000000000E+00 0.  1.
         -1   -1    0    0    0  501 -0.00000000000E+00 -0.00000000000E+00 -0.20133777601E+04  0.20133777601E+04  0.00000000000E+00 0. -1.
    2000013    1    1    2    0    0  0.59470067110E+03 -0.10001094882E+04  0.94207239995E+02  0.15050790281E+04  0.95000000000E+03 0.  0.
   -2000013    1    1    2    0    0 -0.59470067110E+03  0.10001094882E+04 -0.87665590166E+03  0.17392278305E+04  0.95000000000E+03 0.  0.
<mgrwt>
<rscale>  0 0.31485395E+04</rscale>
<asrwt>0</asrwt>
<pdfrwt beam="1">  1        1 0.18937371E+00 0.31485395E+04</pdfrwt>
<pdfrwt beam="2">  1       -1 0.30975042E+00 0.31485395E+04</pdfrwt>
<totfact> 0.24328600E-01</totfact>
</mgrwt>
</event>
<event>
 4    1  0.1321115E-008  0.2269930E+04  0.7816531E-02  0.8489873E-01
         -2   -1    0    0    0  501 -0.00000000000E+00  0.00000000000E+00  0.33074092845E+03  0.33074092845E+03  0.00000000000E+00 0.  1.
          2   -1    0    0  501    0  0.00000000000E+00 -0.00000000000E+00 -0.38947252767E+04  0.38947252767E+04  0.00000000000E+00 0. -1.
    2000013    1    1    2    0    0 -0.44892565556E+03  0.32023951781E+03 -0.12503810005E+04  0.16643437864E+04  0.95000000000E+03 0.  0.
   -2000013    1    1    2    0    0  0.44892565556E+03 -0.32023951781E+03 -0.23136033478E+04  0.25611224187E+04  0.95000000000E+03 0.  0.
<mgrwt>
<rscale>  0 0.22699296E+04</rscale>
<asrwt>0</asrwt>
<pdfrwt beam="2">  1        2 0.59918851E+00 0.22699296E+04</pdfrwt>
<pdfrwt beam="1">  1       -2 0.50883219E-01 0.22699296E+04</pdfrwt>
<totfact> 0.13845304E+00</totfact>
</mgrwt>
</event>
<event>
 4    1  0.1321115E-008  0.3128631E+04  0.7816531E-02  0.8207924E-01
          2   -1    0    0  501    0  0.00000000000E+00  0.00000000000E+00  0.12401736914E+04  0.12401736914E+04  0.00000000000E+00 0.  1.
         -2   -1    0    0    0  501 -0.00000000000E+00 -0.00000000000E+00 -0.19731771346E+04  0.19731771346E+04  0.00000000000E+00 0. -1.
    2000013    1    1    2    0    0 -0.11460685496E+04 -0.48015888872E+03 -0.39073495136E+03  0.16122033002E+04  0.95000000000E+03 0.  0.
   -2000013    1    1    2    0    0  0.11460685496E+04  0.48015888872E+03 -0.34226849179E+03  0.16011475258E+04  0.95000000000E+03 0.  0.
<mgrwt>
<rscale>  0 0.31286306E+04</rscale>
<asrwt>0</asrwt>
<pdfrwt beam="1">  1        2 0.19079595E+00 0.31286306E+04</pdfrwt>
<pdfrwt beam="2">  1       -2 0.30356571E+00 0.31286306E+04</pdfrwt>
<totfact> 0.45886199E-01</totfact>
</mgrwt>
</event>
<event>
 4    1  0.1321115E-008  0.2909580E+04  0.7816531E-02  0.8270033E-01
         -2   -1    0    0    0  501 -0.00000000000E+00  0.00000000000E+00  0.89479924091E+03  0.89479924091E+03  0.00000000000E+00 0.  1.
          2   -1    0    0  501    0  0.00000000000E+00 -0.00000000000E+00 -0.23652389544E+04  0.23652389544E+04  0.00000000000E+00 0. -1.
    2000013    1    1    2    0    0 -0.35831978656E+03 -0.96843949069E+03 -0.11657495204E+04  0.18242094345E+04  0.95000000000E+03 0.  0.
   -2000013    1    1    2    0    0  0.35831978656E+03  0.96843949069E+03 -0.30469019303E+03  0.14358287608E+04  0.95000000000E+03 0.  0.
<mgrwt>
<rscale>  0 0.29095801E+04</rscale>
<asrwt>0</asrwt>
<pdfrwt beam="2">  1        2 0.36388291E+00 0.29095801E+04</pdfrwt>
<pdfrwt beam="1">  1       -2 0.13766142E+00 0.29095801E+04</pdfrwt>
<totfact> 0.13464963E+00</totfact>
</mgrwt>
</event>
<event>
 4    1  0.1321115E-008  0.2313512E+04  0.7816531E-02  0.8472612E-01
          1   -1    0    0  501    0  0.00000000000E+00  0.00000000000E+00  0.17209106449E+04  0.17209106449E+04  0.00000000000E+00 0.  1.
         -1   -1    0    0    0  501 -0.00000000000E+00 -0.00000000000E+00 -0.77754449583E+03  0.77754449583E+03  0.00000000000E+00 0. -1.
    2000013    1    1    2    0    0 -0.72097359032E+02 -0.39207504893E+03  0.10397191072E+04  0.14637064921E+04  0.95000000000E+03 0.  0.
   -2000013    1    1    2    0    0  0.72097359032E+02  0.39207504893E+03 -0.96352958168E+02  0.10347486486E+04  0.95000000000E+03 0.  0.
<mgrwt>
<rscale>  0 0.23135121E+04</rscale>
<asrwt>0</asrwt>
<pdfrwt beam="1">  1        1 0.26475548E+00 0.23135121E+04</pdfrwt>
<pdfrwt beam="2">  1       -1 0.11962223E+00 0.23135121E+04</pdfrwt>
<totfact> 0.25975567E+00</totfact>
</mgrwt>
</event>
<event>
 4    1  0.1321115E-008  0.2029532E+04  0.7816531E-02  0.8592937E-01
         -2   -1    0    0    0  501 -0.00000000000E+00  0.00000000000E+00  0.12567052005E+04  0.12567052005E+04  0.00000000000E+00 0. -1.
          2   -1    0    0  501    0  0.00000000000E+00 -0.00000000000E+00 -0.81940432231E+03  0.81940432231E+03  0.00000000000E+00 0.  1.
    2000013    1    1    2    0    0  0.18847097914E+03  0.26987419552E+03  0.78031890270E+02  0.10084356039E+04  0.95000000000E+03 0.  0.
   -2000013    1    1    2    0    0 -0.18847097914E+03 -0.26987419552E+03  0.35926898792E+03  0.10676739189E+04  0.95000000000E+03 0.  0.
<mgrwt>
<rscale>  0 0.20295316E+04</rscale>
<asrwt>0</asrwt>
<pdfrwt beam="2">  1        2 0.12606220E+00 0.20295316E+04</pdfrwt>
<pdfrwt beam="1">  1       -2 0.19333926E+00 0.20295316E+04</pdfrwt>
<totfact> 0.45495037E+00</totfact>
</mgrwt>
</event>
<event>
 4    1  0.1321115E-008  0.2159499E+04  0.7816531E-02  0.8535477E-01
         -2   -1    0    0    0  501 -0.00000000000E+00  0.00000000000E+00  0.10950435624E+04  0.10950435624E+04  0.00000000000E+00 0. -1.
          2   -1    0    0  501    0  0.00000000000E+00 -0.00000000000E+00 -0.10646692403E+04  0.10646692403E+04  0.00000000000E+00 0.  1.
    2000013    1    1    2    0    0  0.41593502490E+03 -0.54183808688E+02 -0.28051313109E+03  0.10756976558E+04  0.95000000000E+03 0.  0.
   -2000013    1    1    2    0    0 -0.41593502490E+03  0.54183808688E+02  0.31088745326E+03  0.10840151469E+04  0.95000000000E+03 0.  0.
<mgrwt>
<rscale>  0 0.21594992E+04</rscale>
<asrwt>0</asrwt>
<pdfrwt beam="2">  1        2 0.16379527E+00 0.21594992E+04</pdfrwt>
<pdfrwt beam="1">  1       -2 0.16846824E+00 0.21594992E+04</pdfrwt>
<totfact> 0.45931614E+00</totfact>
</mgrwt>
</event>
<event>
 4    1  0.1321115E-008  0.3557817E+04  0.7816531E-02  0.8100223E-01
          2   -1    0    0  501    0  0.00000000000E+00  0.00000000000E+00  0.27437891677E+04  0.27437891677E+04  0.00000000000E+00 0.  1.
         -2   -1    0    0    0  501 -0.00000000000E+00 -0.00000000000E+00 -0.11533377078E+04  0.11533377078E+04  0.00000000000E+00 0. -1.
    2000013    1    1    2    0    0 -0.13930114787E+04  0.54274825395E+03  0.97507625738E+03  0.20219620063E+04  0.95000000000E+03 0.  0.
   -2000013    1    1    2    0    0  0.13930114787E+04 -0.54274825395E+03  0.61537520244E+03  0.18751648692E+04  0.95000000000E+03 0.  0.
<mgrwt>
<rscale>  0 0.35578170E+04</rscale>
<asrwt>0</asrwt>
<pdfrwt beam="1">  1        2 0.42212141E+00 0.35578170E+04</pdfrwt>
<pdfrwt beam="2">  1       -2 0.17743657E+00 0.35578170E+04</pdfrwt>
<totfact> 0.38613693E-01</totfact>
</mgrwt>
</event>
<event>
 4    1  0.1321115E-008  0.3033443E+04  0.7816531E-02  0.8234245E-01
         -2   -1    0    0    0  501 -0.00000000000E+00  0.00000000000E+00  0.88320351008E+03  0.88320351008E+03  0.00000000000E+00 0. -1.
          2   -1    0    0  501    0  0.00000000000E+00 -0.00000000000E+00 -0.26046595665E+04  0.26046595665E+04  0.00000000000E+00 0.  1.
    2000013    1    1    2    0    0 -0.11807313000E+04  0.60918626745E+02 -0.84883493101E+03  0.17380616278E+04  0.95000000000E+03 0.  0.
   -2000013    1    1    2    0    0  0.11807313000E+04 -0.60918626745E+02 -0.87262112544E+03  0.17498014488E+04  0.95000000000E+03 0.  0.
<mgrwt>
<rscale>  0 0.30334432E+04</rscale>
<asrwt>0</asrwt>
<pdfrwt beam="2">  1        2 0.40071685E+00 0.30334432E+04</pdfrwt>
<pdfrwt beam="1">  1       -2 0.13587746E+00 0.30334432E+04</pdfrwt>
<totfact> 0.10014290E+00</totfact>
</mgrwt>
</event>
<event>
 4    1  0.1321115E-008  0.2596093E+04  0.7816531E-02  0.8369530E-01
         -1   -1    0    0    0  501 -0.00000000000E+00  0.00000000000E+00  0.48785275982E+03  0.48785275982E+03  0.00000000000E+00 0. -1.
          1   -1    0    0  501    0  0.00000000000E+00 -0.00000000000E+00 -0.34537556340E+04  0.34537556340E+04  0.00000000000E+00 0.  1.
    2000013    1    1    2    0    0  0.46009173410E+03 -0.75280548904E+03 -0.13866424953E+04  0.18983355652E+04  0.95000000000E+03 0.  0.
   -2000013    1    1    2    0    0 -0.46009173410E+03  0.75280548904E+03 -0.15792603789E+04  0.20432728287E+04  0.95000000000E+03 0.  0.
<mgrwt>
<rscale>  0 0.25960926E+04</rscale>
<asrwt>0</asrwt>
<pdfrwt beam="2">  1        1 0.53134702E+00 0.25960926E+04</pdfrwt>
<pdfrwt beam="1">  1       -1 0.75054270E-01 0.25960926E+04</pdfrwt>
<totfact> 0.42749216E-01</totfact>
</mgrwt>
</event>
<event>
 4    1  0.1321115E-008  0.2272664E+04  0.7816531E-02  0.8488778E-01
         -2   -1    0    0    0  501 -0.00000000000E+00  0.00000000000E+00  0.39393890070E+03  0.39393890070E+03  0.00000000000E+00 0. -1.
          2   -1    0    0  501    0  0.00000000000E+00 -0.00000000000E+00 -0.32777937913E+04  0.32777937913E+04  0.00000000000E+00 0.  1.
    2000013    1    1    2    0    0 -0.54837036233E+03  0.23571297063E+03 -0.11507601138E+04  0.16071774943E+04  0.95000000000E+03 0.  0.
   -2000013    1    1    2    0    0  0.54837036233E+03 -0.23571297063E+03 -0.17330947768E+04  0.20645551977E+04  0.95000000000E+03 0.  0.
<mgrwt>
<rscale>  0 0.22726641E+04</rscale>
<asrwt>0</asrwt>
<pdfrwt beam="2">  1        2 0.50427597E+00 0.22726641E+04</pdfrwt>
<pdfrwt beam="1">  1       -2 0.60605985E-01 0.22726641E+04</pdfrwt>
<totfact> 0.26598849E+00</totfact>
</mgrwt>
</event>
<event>
 4    1  0.1321115E-008  0.2458085E+04  0.7816531E-02  0.8418072E-01
          2   -1    0    0  501    0  0.00000000000E+00  0.00000000000E+00  0.42013071390E+04  0.42013071390E+04  0.00000000000E+00 0. -1.
         -2   -1    0    0    0  501 -0.00000000000E+00 -0.00000000000E+00 -0.35954190008E+03  0.35954190008E+03  0.00000000000E+00 0.  1.
    2000013    1    1    2    0    0  0.41654359878E+03  0.61353872649E+03  0.14736172749E+04  0.19036770240E+04  0.95000000000E+03 0.  0.
   -2000013    1    1    2    0    0 -0.41654359878E+03 -0.61353872649E+03  0.23681479640E+04  0.26571720151E+04  0.95000000000E+03 0.  0.
<mgrwt>
<rscale>  0 0.24580854E+04</rscale>
<asrwt>0</asrwt>
<pdfrwt beam="1">  1        2 0.64635491E+00 0.24580854E+04</pdfrwt>
<pdfrwt beam="2">  1       -2 0.55314142E-01 0.24580854E+04</pdfrwt>
<totfact> 0.64088496E-01</totfact>
</mgrwt>
</event>
<event>
 4    1  0.1321115E-008  0.2513745E+04  0.7816531E-02  0.8398105E-01
          2   -1    0    0  501    0  0.00000000000E+00  0.00000000000E+00  0.87729205033E+03  0.87729205033E+03  0.00000000000E+00 0.  1.
         -2   -1    0    0    0  501 -0.00000000000E+00 -0.00000000000E+00 -0.18006871264E+04  0.18006871264E+04  0.00000000000E+00 0. -1.
    2000013    1    1    2    0    0  0.46794732905E+03  0.59315896526E+03 -0.80922564026E+03  0.14588208929E+04  0.95000000000E+03 0.  0.
   -2000013    1    1    2    0    0 -0.46794732905E+03 -0.59315896526E+03 -0.11416943580E+03  0.12191582838E+04  0.95000000000E+03 0.  0.
<mgrwt>
<rscale>  0 0.25137450E+04</rscale>
<asrwt>0</asrwt>
<pdfrwt beam="1">  1        2 0.13496801E+00 0.25137450E+04</pdfrwt>
<pdfrwt beam="2">  1       -2 0.27702878E+00 0.25137450E+04</pdfrwt>
<totfact> 0.11885941E+00</totfact>
</mgrwt>
</event>
<event>
 4    1  0.1321115E-008  0.2841402E+04  0.7816531E-02  0.8290529E-01
          2   -1    0    0  501    0  0.00000000000E+00  0.00000000000E+00  0.29375481688E+04  0.29375481688E+04  0.00000000000E+00 0.  1.
         -2   -1    0    0    0  501 -0.00000000000E+00 -0.00000000000E+00 -0.68710057797E+03  0.68710057797E+03  0.00000000000E+00 0. -1.
    2000013    1    1    2    0    0 -0.98684292405E+03 -0.23562106333E+03  0.15004373214E+04  0.20452844296E+04  0.95000000000E+03 0.  0.
   -2000013    1    1    2    0    0  0.98684292405E+03  0.23562106333E+03  0.75001026936E+03  0.15793643172E+04  0.95000000000E+03 0.  0.
<mgrwt>
<rscale>  0 0.28414018E+04</rscale>
<asrwt>0</asrwt>
<pdfrwt beam="1">  1        2 0.45193048E+00 0.28414018E+04</pdfrwt>
<pdfrwt beam="2">  1       -2 0.10570778E+00 0.28414018E+04</pdfrwt>
<totfact> 0.11940990E+00</totfact>
</mgrwt>
</event>
<event>
 4    1  0.1321115E-008  0.3393101E+04  0.7816531E-02  0.8139602E-01
          2   -1    0    0  501    0  0.00000000000E+00  0.00000000000E+00  0.26501452523E+04  0.26501452523E+04  0.00000000000E+00 0.  1.
         -2   -1    0    0    0  501 -0.00000000000E+00 -0.00000000000E+00 -0.10860854151E+04  0.10860854151E+04  0.00000000000E+00 0. -1.
    2000013    1    1    2    0    0 -0.12315230247E+04  0.45342984254E+03  0.22758664208E+03  0.16360144443E+04  0.95000000000E+03 0.  0.
   -2000013    1    1    2    0    0  0.12315230247E+04 -0.45342984254E+03  0.13364731952E+04  0.21002162231E+04  0.95000000000E+03 0.  0.
<mgrwt>
<rscale>  0 0.33931013E+04</rscale>
<asrwt>0</asrwt>
<pdfrwt beam="1">  1        2 0.40771465E+00 0.33931013E+04</pdfrwt>
<pdfrwt beam="2">  1       -2 0.16709007E+00 0.33931013E+04</pdfrwt>
<totfact> 0.52677432E-01</totfact>
</mgrwt>
</event>
<event>
 4    1  0.1321115E-008  0.2058204E+04  0.7816531E-02  0.8579882E-01
         -2   -1    0    0    0  501 -0.00000000000E+00  0.00000000000E+00  0.43019303377E+03  0.43019303377E+03  0.00000000000E+00 0. -1.
          2   -1    0    0  501    0  0.00000000000E+00 -0.00000000000E+00 -0.24618039212E+04  0.24618039212E+04  0.00000000000E+00 0.  1.
    2000013    1    1    2    0    0 -0.21735795271E+03 -0.32475546575E+03 -0.11028802053E+04  0.15071679864E+04  0.95000000000E+03 0.  0.
   -2000013    1    1    2    0    0  0.21735795271E+03  0.32475546575E+03 -0.92873068220E+03  0.13848289686E+04  0.95000000000E+03 0.  0.
<mgrwt>
<rscale>  0 0.20582040E+04</rscale>
<asrwt>0</asrwt>
<pdfrwt beam="2">  1        2 0.37873906E+00 0.20582040E+04</pdfrwt>
<pdfrwt beam="1">  1       -2 0.66183545E-01 0.20582040E+04</pdfrwt>
<totfact> 0.71145392E+00</totfact>
</mgrwt>
</event>
<event>
 4    1  0.1321115E-008  0.2439025E+04  0.7816531E-02  0.8425036E-01
          2   -1    0    0  501    0  0.00000000000E+00  0.00000000000E+00  0.95665026836E+03  0.95665026836E+03  0.00000000000E+00 0. -1.
         -2   -1    0    0    0  501 -0.00000000000E+00 -0.00000000000E+00 -0.15546023246E+04  0.15546023246E+04  0.00000000000E+00 0.  1.
    2000013    1    1    2    0    0  0.24180664112E+03  0.51424712410E+03 -0.82578215679E+03  0.13810636216E+04  0.95000000000E+03 0.  0.
   -2000013    1    1    2    0    0 -0.24180664112E+03 -0.51424712410E+03  0.22783010055E+03  0.11301889714E+04  0.95000000000E+03 0.  0.
<mgrwt>
<rscale>  0 0.24390250E+04</rscale>
<asrwt>0</asrwt>
<pdfrwt beam="1">  1        2 0.14717697E+00 0.24390250E+04</pdfrwt>
<pdfrwt beam="2">  1       -2 0.23916959E+00 0.24390250E+04</pdfrwt>
<totfact> 0.18055904E+00</totfact>
</mgrwt>
</event>
<event>
 4    1  0.1321115E-008  0.2815609E+04  0.7816531E-02  0.8298439E-01
          2   -1    0    0  501    0  0.00000000000E+00  0.00000000000E+00  0.12280858876E+04  0.12280858876E+04  0.00000000000E+00 0.  1.
         -2   -1    0    0    0  501 -0.00000000000E+00 -0.00000000000E+00 -0.16138232018E+04  0.16138232018E+04  0.00000000000E+00 0. -1.
    2000013    1    1    2    0    0 -0.57687831667E+03  0.78116624707E+03 -0.56564789088E+03  0.14715525251E+04  0.95000000000E+03 0.  0.
   -2000013    1    1    2    0    0  0.57687831667E+03 -0.78116624707E+03  0.17991057667E+03  0.13703565643E+04  0.95000000000E+03 0.  0.
<mgrwt>
<rscale>  0 0.28156090E+04</rscale>
<asrwt>0</asrwt>
<pdfrwt beam="1">  1        2 0.18893629E+00 0.28156090E+04</pdfrwt>
<pdfrwt beam="2">  1       -2 0.24828049E+00 0.28156090E+04</pdfrwt>
<totfact> 0.10428773E+00</totfact>
</mgrwt>
</event>
<event>
 4    1  0.1321115E-008  0.2707425E+04  0.7816531E-02  0.8332600E-01
          2   -1    0    0  501    0  0.00000000000E+00  0.00000000000E+00  0.29268205187E+04  0.29268205187E+04  0.00000000000E+00 0.  1.
         -2   -1    0    0    0  501 -0.00000000000E+00 -0.00000000000E+00 -0.62611903420E+03  0.62611903420E+03  0.00000000000E+00 0. -1.
    2000013    1    1    2    0    0  0.79303869542E+03 -0.51793283808E+03  0.13882825885E+04  0.19305422406E+04  0.95000000000E+03 0.  0.
   -2000013    1    1    2    0    0 -0.79303869542E+03  0.51793283808E+03  0.91241889599E+03  0.16223973123E+04  0.95000000000E+03 0.  0.
<mgrwt>
<rscale>  0 0.27074254E+04</rscale>
<asrwt>0</asrwt>
<pdfrwt beam="1">  1        2 0.45028007E+00 0.27074254E+04</pdfrwt>
<pdfrwt beam="2">  1       -2 0.96326007E-01 0.27074254E+04</pdfrwt>
<totfact> 0.15293106E+00</totfact>
</mgrwt>
</event>
<event>
 4    1  0.1321115E-008  0.2267355E+04  0.7816531E-02  0.8490905E-01
         -2   -1    0    0    0  501 -0.00000000000E+00  0.00000000000E+00  0.10288365548E+04  0.10288365548E+04  0.00000000000E+00 0. -1.
          2   -1    0    0  501    0  0.00000000000E+00 -0.00000000000E+00 -0.12492025349E+04  0.12492025349E+04  0.00000000000E+00 0.  1.
    2000013    1    1    2    0    0 -0.66337219615E+02  0.61394194116E+03 -0.14777450394E+03  0.11426559578E+04  0.95000000000E+03 0.  0.
   -2000013    1    1    2    0    0  0.66337219615E+02 -0.61394194116E+03 -0.72591476237E+02  0.11353831319E+04  0.95000000000E+03 0.  0.
<mgrwt>
<rscale>  0 0.22673555E+04</rscale>
<asrwt>0</asrwt>
<pdfrwt beam="2">  1        2 0.19218500E+00 0.22673555E+04</pdfrwt>
<pdfrwt beam="1">  1       -2 0.15828255E+00 0.22673555E+04</pdfrwt>
<totfact> 0.41756503E+00</totfact>
</mgrwt>
</event>
<event>
 4    1  0.1321115E-008  0.2127129E+04  0.7816531E-02  0.8549386E-01
         -2   -1    0    0    0  501 -0.00000000000E+00  0.00000000000E+00  0.12749231122E+04  0.12749231122E+04  0.00000000000E+00 0. -1.
          2   -1    0    0  501    0  0.00000000000E+00 -0.00000000000E+00 -0.88724508238E+03  0.88724508238E+03  0.00000000000E+00 0.  1.
    2000013    1    1    2    0    0  0.43532129853E+03  0.12411343115E+03  0.37155490514E+02  0.10529906492E+04  0.95000000000E+03 0.  0.
   -2000013    1    1    2    0    0 -0.43532129853E+03 -0.12411343115E+03  0.35052253933E+03  0.11091775454E+04  0.95000000000E+03 0.  0.
<mgrwt>
<rscale>  0 0.21271288E+04</rscale>
<asrwt>0</asrwt>
<pdfrwt beam="2">  1        2 0.13649924E+00 0.21271288E+04</pdfrwt>
<pdfrwt beam="1">  1       -2 0.19614202E+00 0.21271288E+04</pdfrwt>
<totfact> 0.38777394E+00</totfact>
</mgrwt>
</event>
<event>
 4    1  0.1321115E-008  0.3700581E+04  0.7816531E-02  0.8067833E-01
         -2   -1    0    0    0  501 -0.00000000000E+00  0.00000000000E+00  0.23242432616E+04  0.23242432616E+04  0.00000000000E+00 0. -1.
          2   -1    0    0  501    0  0.00000000000E+00 -0.00000000000E+00 -0.14729850110E+04  0.14729850110E+04  0.00000000000E+00 0.  1.
    2000013    1    1    2    0    0  0.43768677771E+03  0.14780001729E+04  0.34866882927E+02  0.18110135079E+04  0.95000000000E+03 0.  0.
   -2000013    1    1    2    0    0 -0.43768677771E+03 -0.14780001729E+04  0.81639136758E+03  0.19862147647E+04  0.95000000000E+03 0.  0.
<mgrwt>
<rscale>  0 0.37005813E+04</rscale>
<asrwt>0</asrwt>
<pdfrwt beam="2">  1        2 0.22661308E+00 0.37005813E+04</pdfrwt>
<pdfrwt beam="1">  1       -2 0.35757588E+00 0.37005813E+04</pdfrwt>
<totfact> 0.14802684E-01</totfact>
</mgrwt>
</event>
<event>
 4    1  0.1321115E-008  0.3011060E+04  0.7816531E-02  0.8240580E-01
          2   -1    0    0  501    0  0.00000000000E+00  0.00000000000E+00  0.12367972427E+04  0.12367972427E+04  0.00000000000E+00 0.  1.
         -2   -1    0    0    0  501 -0.00000000000E+00 -0.00000000000E+00 -0.18326534416E+04  0.18326534416E+04  0.00000000000E+00 0. -1.
    2000013    1    1    2    0    0 -0.84428673014E+03  0.14683779601E+03  0.51102182029E+03  0.13776881802E+04  0.95000000000E+03 0.  0.
   -2000013    1    1    2    0    0  0.84428673014E+03 -0.14683779601E+03 -0.11068780192E+04  0.16917625041E+04  0.95000000000E+03 0.  0.
<mgrwt>
<rscale>  0 0.30110601E+04</rscale>
<asrwt>0</asrwt>
<pdfrwt beam="1">  1        2 0.19027650E+00 0.30110601E+04</pdfrwt>
<pdfrwt beam="2">  1       -2 0.28194668E+00 0.30110601E+04</pdfrwt>
<totfact> 0.63108882E-01</totfact>
</mgrwt>
</event>
<event>
 4    1  0.1321115E-008  0.3119148E+04  0.7816531E-02  0.8210503E-01
          2   -1    0    0  501    0  0.00000000000E+00  0.00000000000E+00  0.15338590252E+04  0.15338590252E+04  0.00000000000E+00 0.  1.
         -2   -1    0    0    0  501 -0.00000000000E+00 -0.00000000000E+00 -0.15857198146E+04  0.15857198146E+04  0.00000000000E+00 0. -1.
    2000013    1    1    2    0    0  0.11286566214E+04 -0.15915072989E+03 -0.50617998235E+03  0.15677732292E+04  0.95000000000E+03 0.  0.
   -2000013    1    1    2    0    0 -0.11286566214E+04  0.15915072989E+03  0.45431919296E+03  0.15518056105E+04  0.95000000000E+03 0.  0.
<mgrwt>
<rscale>  0 0.31191477E+04</rscale>
<asrwt>0</asrwt>
<pdfrwt beam="1">  1        2 0.23597831E+00 0.31191477E+04</pdfrwt>
<pdfrwt beam="2">  1       -2 0.24395689E+00 0.31191477E+04</pdfrwt>
<totfact> 0.72100912E-01</totfact>
</mgrwt>
</event>
<event>
 4    1  0.1321115E-008  0.1987637E+04  0.7816531E-02  0.8612423E-01
          2   -1    0    0  501    0  0.00000000000E+00  0.00000000000E+00  0.20197592908E+04  0.20197592908E+04  0.00000000000E+00 0.  1.
         -2   -1    0    0    0  501 -0.00000000000E+00 -0.00000000000E+00 -0.48900632196E+03  0.48900632196E+03  0.00000000000E+00 0. -1.
    2000013    1    1    2    0    0  0.21950413348E+03  0.14013344464E+03  0.93165764768E+03  0.13558412220E+04  0.95000000000E+03 0.  0.
   -2000013    1    1    2    0    0 -0.21950413348E+03 -0.14013344464E+03  0.59909532120E+03  0.11529243908E+04  0.95000000000E+03 0.  0.
<mgrwt>
<rscale>  0 0.19876369E+04</rscale>
<asrwt>0</asrwt>
<pdfrwt beam="1">  1        2 0.31073219E+00 0.19876369E+04</pdfrwt>
<pdfrwt beam="2">  1       -2 0.75231743E-01 0.19876369E+04</pdfrwt>
<totfact> 0.96067314E+00</totfact>
</mgrwt>
</event>
<event>
 4    1  0.1321115E-008  0.2319880E+04  0.7816531E-02  0.8470124E-01
          2   -1    0    0  501    0  0.00000000000E+00  0.00000000000E+00  0.16530933458E+04  0.16530933458E+04  0.00000000000E+00 0.  1.
         -2   -1    0    0    0  501 -0.00000000000E+00 -0.00000000000E+00 -0.81390522492E+03  0.81390522492E+03  0.00000000000E+00 0. -1.
    2000013    1    1    2    0    0  0.58904189897E+03  0.15207354908E+03  0.70664670550E+03  0.13311447290E+04  0.95000000000E+03 0.  0.
   -2000013    1    1    2    0    0 -0.58904189897E+03 -0.15207354908E+03  0.13254141541E+03  0.11358538418E+04  0.95000000000E+03 0.  0.
<mgrwt>
<rscale>  0 0.23198804E+04</rscale>
<asrwt>0</asrwt>
<pdfrwt beam="1">  1        2 0.25432205E+00 0.23198804E+04</pdfrwt>
<pdfrwt beam="2">  1       -2 0.12521619E+00 0.23198804E+04</pdfrwt>
<totfact> 0.45013034E+00</totfact>
</mgrwt>
</event>
<event>
 4    1  0.1321115E-008  0.2297341E+04  0.7816531E-02  0.8478970E-01
         -2   -1    0    0    0  501 -0.00000000000E+00  0.00000000000E+00  0.28398197524E+04  0.28398197524E+04  0.00000000000E+00 0. -1.
          2   -1    0    0  501    0  0.00000000000E+00 -0.00000000000E+00 -0.46462229067E+03  0.46462229067E+03  0.00000000000E+00 0.  1.
    2000013    1    1    2    0    0 -0.42915677760E+03  0.19971889239E+03  0.55589016718E+03  0.11981556884E+04  0.95000000000E+03 0.  0.
   -2000013    1    1    2    0    0  0.42915677760E+03 -0.19971889239E+03  0.18193072945E+04  0.21062863546E+04  0.95000000000E+03 0.  0.
<mgrwt>
<rscale>  0 0.22973407E+04</rscale>
<asrwt>0</asrwt>
<pdfrwt beam="2">  1        2 0.71480354E-01 0.22973407E+04</pdfrwt>
<pdfrwt beam="1">  1       -2 0.43689534E+00 0.22973407E+04</pdfrwt>
<totfact> 0.25775007E-01</totfact>
</mgrwt>
</event>
<event>
 4    1  0.1321115E-008  0.2675879E+04  0.7816531E-02  0.8342874E-01
          2   -1    0    0  501    0  0.00000000000E+00  0.00000000000E+00  0.27168149436E+04  0.27168149436E+04  0.00000000000E+00 0.  1.
         -2   -1    0    0    0  501 -0.00000000000E+00 -0.00000000000E+00 -0.65889003774E+03  0.65889003774E+03  0.00000000000E+00 0. -1.
    2000013    1    1    2    0    0 -0.31431589680E+03 -0.52369040296E+03  0.12405128425E+03  0.11361931360E+04  0.95000000000E+03 0.  0.
   -2000013    1    1    2    0    0  0.31431589680E+03  0.52369040296E+03  0.19338736216E+04  0.22395118453E+04  0.95000000000E+03 0.  0.
<mgrwt>
<rscale>  0 0.26758791E+04</rscale>
<asrwt>0</asrwt>
<pdfrwt beam="1">  1        2 0.41797153E+00 0.26758791E+04</pdfrwt>
<pdfrwt beam="2">  1       -2 0.10136770E+00 0.26758791E+04</pdfrwt>
<totfact> 0.18235992E+00</totfact>
</mgrwt>
</event>
<event>
 4    1  0.1321115E-008  0.2457826E+04  0.7816531E-02  0.8418166E-01
         -2   -1    0    0    0  501 -0.00000000000E+00  0.00000000000E+00  0.37277593913E+03  0.37277593913E+03  0.00000000000E+00 0. -1.
          2   -1    0    0  501    0  0.00000000000E+00 -0.00000000000E+00 -0.40512988388E+04  0.40512988388E+04  0.00000000000E+00 0.  1.
    2000013    1    1    2    0    0 -0.50008832204E+03 -0.58906093667E+03 -0.16535422894E+04  0.20576159068E+04  0.95000000000E+03 0.  0.
   -2000013    1    1    2    0    0  0.50008832204E+03  0.58906093667E+03 -0.20249806103E+04  0.23664588712E+04  0.95000000000E+03 0.  0.
<mgrwt>
<rscale>  0 0.24578256E+04</rscale>
<asrwt>0</asrwt>
<pdfrwt beam="2">  1        2 0.62327674E+00 0.24578256E+04</pdfrwt>
<pdfrwt beam="1">  1       -2 0.57350144E-01 0.24578256E+04</pdfrwt>
<totfact> 0.79528918E-01</totfact>
</mgrwt>
</event>
<event>
 4    1  0.1321115E-008  0.2206493E+04  0.7816531E-02  0.8515731E-01
          2   -1    0    0  501    0  0.00000000000E+00  0.00000000000E+00  0.12818906814E+04  0.12818906814E+04  0.00000000000E+00 0.  1.
         -2   -1    0    0    0  501 -0.00000000000E+00 -0.00000000000E+00 -0.94949783972E+03  0.94949783972E+03  0.00000000000E+00 0. -1.
    2000013    1    1    2    0    0 -0.28284388784E+03  0.34818208650E+03  0.50677666610E+03  0.11664278887E+04  0.95000000000E+03 0.  0.
   -2000013    1    1    2    0    0  0.28284388784E+03 -0.34818208650E+03 -0.17438382447E+03  0.10649606324E+04  0.95000000000E+03 0.  0.
<mgrwt>
<rscale>  0 0.22064926E+04</rscale>
<asrwt>0</asrwt>
<pdfrwt beam="1">  1        2 0.19721395E+00 0.22064926E+04</pdfrwt>
<pdfrwt beam="2">  1       -2 0.14607659E+00 0.22064926E+04</pdfrwt>
<totfact> 0.49738771E+00</totfact>
</mgrwt>
</event>
<event>
 4    1  0.1321115E-008  0.2463139E+04  0.7816531E-02  0.8416237E-01
          1   -1    0    0  501    0  0.00000000000E+00  0.00000000000E+00  0.20569713940E+04  0.20569713940E+04  0.00000000000E+00 0.  1.
         -1   -1    0    0    0  501 -0.00000000000E+00 -0.00000000000E+00 -0.73737678650E+03  0.73737678650E+03  0.00000000000E+00 0. -1.
    2000013    1    1    2    0    0 -0.30705960744E+03  0.63885359241E+03  0.28039765241E+03  0.12180075363E+04  0.95000000000E+03 0.  0.
   -2000013    1    1    2    0    0  0.30705960744E+03 -0.63885359241E+03  0.10391969551E+04  0.15763406442E+04  0.95000000000E+03 0.  0.
<mgrwt>
<rscale>  0 0.24631386E+04</rscale>
<asrwt>0</asrwt>
<pdfrwt beam="1">  1        1 0.31645713E+00 0.24631386E+04</pdfrwt>
<pdfrwt beam="2">  1       -1 0.11344258E+00 0.24631386E+04</pdfrwt>
<totfact> 0.17226858E+00</totfact>
</mgrwt>
</event>
<event>
 4    1  0.1321115E-008  0.2847911E+04  0.7816531E-02  0.8288547E-01
         -1   -1    0    0    0  501 -0.00000000000E+00  0.00000000000E+00  0.16372831222E+04  0.16372831222E+04  0.00000000000E+00 0. -1.
          1   -1    0    0  501    0  0.00000000000E+00 -0.00000000000E+00 -0.12384227411E+04  0.12384227411E+04  0.00000000000E+00 0.  1.
    2000013    1    1    2    0    0 -0.20044973322E+03 -0.91218415382E+03  0.70721857720E+03  0.15082831770E+04  0.95000000000E+03 0.  0.
   -2000013    1    1    2    0    0  0.20044973322E+03  0.91218415382E+03 -0.30835819616E+03  0.13674226864E+04  0.95000000000E+03 0.  0.
<mgrwt>
<rscale>  0 0.28479106E+04</rscale>
<asrwt>0</asrwt>
<pdfrwt beam="2">  1        1 0.19052658E+00 0.28479106E+04</pdfrwt>
<pdfrwt beam="1">  1       -1 0.25188971E+00 0.28479106E+04</pdfrwt>
<totfact> 0.58531765E-01</totfact>
</mgrwt>
</event>
<event>
 4    1  0.1321115E-008  0.3568729E+04  0.7816531E-02  0.8097692E-01
          2   -1    0    0  501    0  0.00000000000E+00  0.00000000000E+00  0.26010265675E+04  0.26010265675E+04  0.00000000000E+00 0.  1.
         -2   -1    0    0    0  501 -0.00000000000E+00 -0.00000000000E+00 -0.12241154072E+04  0.12241154072E+04  0.00000000000E+00 0. -1.
    2000013    1    1    2    0    0 -0.89939792825E+03 -0.11641570565E+04  0.10555206193E+04  0.20447009716E+04  0.95000000000E+03 0.  0.
   -2000013    1    1    2    0    0  0.89939792825E+03  0.11641570565E+04  0.32139054106E+03  0.17804410031E+04  0.95000000000E+03 0.  0.
<mgrwt>
<rscale>  0 0.35687290E+04</rscale>
<asrwt>0</asrwt>
<pdfrwt beam="1">  1        2 0.40015793E+00 0.35687290E+04</pdfrwt>
<pdfrwt beam="2">  1       -2 0.18832545E+00 0.35687290E+04</pdfrwt>
<totfact> 0.39495104E-01</totfact>
</mgrwt>
</event>
<event>
 4    1  0.1321115E-008  0.2102108E+04  0.7816531E-02  0.8560315E-01
         -2   -1    0    0    0  501 -0.00000000000E+00  0.00000000000E+00  0.36479342448E+03  0.36479342448E+03  0.00000000000E+00 0. -1.
          2   -1    0    0  501    0  0.00000000000E+00 -0.00000000000E+00 -0.30283280964E+04  0.30283280964E+04  0.00000000000E+00 0.  1.
    2000013    1    1    2    0    0 -0.31928053381E+03  0.23079263116E+03 -0.16817402239E+04  0.19712826988E+04  0.95000000000E+03 0.  0.
   -2000013    1    1    2    0    0  0.31928053381E+03 -0.23079263116E+03 -0.98179444807E+03  0.14218388221E+04  0.95000000000E+03 0.  0.
<mgrwt>
<rscale>  0 0.21021077E+04</rscale>
<asrwt>0</asrwt>
<pdfrwt beam="2">  1        2 0.46589662E+00 0.21021077E+04</pdfrwt>
<pdfrwt beam="1">  1       -2 0.56122067E-01 0.21021077E+04</pdfrwt>
<totfact> 0.45983983E+00</totfact>
</mgrwt>
</event>
<event>
 4    1  0.1321115E-008  0.2138959E+04  0.7816531E-02  0.8544273E-01
         -2   -1    0    0    0  501 -0.00000000000E+00  0.00000000000E+00  0.31170050511E+04  0.31170050511E+04  0.00000000000E+00 0. -1.
          2   -1    0    0  501    0  0.00000000000E+00 -0.00000000000E+00 -0.36695040573E+03  0.36695040573E+03  0.00000000000E+00 0.  1.
    2000013    1    1    2    0    0 -0.29899198488E+02 -0.48820906418E+03  0.14486706705E+04  0.18001079868E+04  0.95000000000E+03 0.  0.
   -2000013    1    1    2    0    0  0.29899198488E+02  0.48820906418E+03  0.13013839748E+04  0.16838474701E+04  0.95000000000E+03 0.  0.
<mgrwt>
<rscale>  0 0.21389589E+04</rscale>
<asrwt>0</asrwt>
<pdfrwt beam="2">  1        2 0.56453911E-01 0.21389589E+04</pdfrwt>
<pdfrwt beam="1">  1       -2 0.47953922E+00 0.21389589E+04</pdfrwt>
<totfact> 0.17871596E-01</totfact>
</mgrwt>
</event>
<event>
 4    1  0.1321115E-008  0.2601032E+04  0.7816531E-02  0.8367851E-01
         -3   -1    0    0    0  501 -0.00000000000E+00  0.00000000000E+00  0.93943848909E+03  0.93943848909E+03  0.00000000000E+00 0. -1.
          3   -1    0    0  501    0  0.00000000000E+00 -0.00000000000E+00 -0.18003747010E+04  0.18003747010E+04  0.00000000000E+00 0.  1.
    2000013    1    1    2    0    0  0.76893755996E+03 -0.14706912859E+02  0.37487792949E+02  0.12228600079E+04  0.95000000000E+03 0.  0.
   -2000013    1    1    2    0    0 -0.76893755996E+03  0.14706912859E+02 -0.89842400489E+03  0.15169531822E+04  0.95000000000E+03 0.  0.
<mgrwt>
<rscale>  0 0.26010316E+04</rscale>
<asrwt>0</asrwt>
<pdfrwt beam="2">  1        3 0.27698072E+00 0.26010316E+04</pdfrwt>
<pdfrwt beam="1">  1       -3 0.14452900E+00 0.26010316E+04</pdfrwt>
<totfact> 0.42442619E-02</totfact>
</mgrwt>
</event>
<event>
 4    1  0.1321115E-008  0.2481157E+04  0.7816531E-02  0.8409729E-01
         -2   -1    0    0    0  501 -0.00000000000E+00  0.00000000000E+00  0.52812137321E+03  0.52812137321E+03  0.00000000000E+00 0. -1.
          2   -1    0    0  501    0  0.00000000000E+00 -0.00000000000E+00 -0.29141690023E+04  0.29141690023E+04  0.00000000000E+00 0.  1.
    2000013    1    1    2    0    0 -0.55831503688E+03 -0.27635609600E+03 -0.50149582247E+03  0.12418077275E+04  0.95000000000E+03 0.  0.
   -2000013    1    1    2    0    0  0.55831503688E+03  0.27635609600E+03 -0.18845518066E+04  0.22004826480E+04  0.95000000000E+03 0.  0.
<mgrwt>
<rscale>  0 0.24811569E+04</rscale>
<asrwt>0</asrwt>
<pdfrwt beam="2">  1        2 0.44833370E+00 0.24811569E+04</pdfrwt>
<pdfrwt beam="1">  1       -2 0.81249441E-01 0.24811569E+04</pdfrwt>
<totfact> 0.23480289E+00</totfact>
</mgrwt>
</event>
<event>
 4    1  0.1321115E-008  0.4248955E+04  0.7816531E-02  0.7956125E-01
          2   -1    0    0  501    0  0.00000000000E+00  0.00000000000E+00  0.24683225555E+04  0.24683225555E+04  0.00000000000E+00 0.  1.
         -2   -1    0    0    0  501 -0.00000000000E+00 -0.00000000000E+00 -0.18285310446E+04  0.18285310446E+04  0.00000000000E+00 0. -1.
    2000013    1    1    2    0    0 -0.50728773018E+03  0.17554635520E+04 -0.20743373829E+03  0.20699086645E+04  0.95000000000E+03 0.  0.
   -2000013    1    1    2    0    0  0.50728773018E+03 -0.17554635520E+04  0.84722524921E+03  0.22269449356E+04  0.95000000000E+03 0.  0.
<mgrwt>
<rscale>  0 0.42489549E+04</rscale>
<asrwt>0</asrwt>
<pdfrwt beam="1">  1        2 0.37974193E+00 0.42489549E+04</pdfrwt>
<pdfrwt beam="2">  1       -2 0.28131247E+00 0.42489549E+04</pdfrwt>
<totfact> 0.11608375E-01</totfact>
</mgrwt>
</event>
<event>
 4    1  0.1321115E-008  0.2324833E+04  0.7816531E-02  0.8468194E-01
          2   -1    0    0  501    0  0.00000000000E+00  0.00000000000E+00  0.27882344891E+04  0.27882344891E+04  0.00000000000E+00 0.  1.
         -2   -1    0    0    0  501 -0.00000000000E+00 -0.00000000000E+00 -0.48461216355E+03  0.48461216355E+03  0.00000000000E+00 0. -1.
    2000013    1    1    2    0    0  0.40835446528E+03 -0.47022848219E+03  0.80456033841E+03  0.13920077345E+04  0.95000000000E+03 0.  0.
   -2000013    1    1    2    0    0 -0.40835446528E+03  0.47022848219E+03  0.14990619872E+04  0.18808389182E+04  0.95000000000E+03 0.  0.
<mgrwt>
<rscale>  0 0.23248332E+04</rscale>
<asrwt>0</asrwt>
<pdfrwt beam="1">  1        2 0.42895914E+00 0.23248332E+04</pdfrwt>
<pdfrwt beam="2">  1       -2 0.74555720E-01 0.23248332E+04</pdfrwt>
<totfact> 0.34421154E+00</totfact>
</mgrwt>
</event>
<event>
 4    1  0.1321115E-008  0.2524945E+04  0.7816531E-02  0.8394152E-01
          2   -1    0    0  501    0  0.00000000000E+00  0.00000000000E+00  0.20847850489E+04  0.20847850489E+04  0.00000000000E+00 0.  1.
         -2   -1    0    0    0  501 -0.00000000000E+00 -0.00000000000E+00 -0.76450881880E+03  0.76450881880E+03  0.00000000000E+00 0. -1.
    2000013    1    1    2    0    0 -0.21634260129E+02 -0.81321300090E+03  0.46614465371E+03  0.13347562565E+04  0.95000000000E+03 0.  0.
   -2000013    1    1    2    0    0  0.21634260129E+02  0.81321300090E+03  0.85413157640E+03  0.15145376112E+04  0.95000000000E+03 0.  0.
<mgrwt>
<rscale>  0 0.25249448E+04</rscale>
<asrwt>0</asrwt>
<pdfrwt beam="1">  1        2 0.32073616E+00 0.25249448E+04</pdfrwt>
<pdfrwt beam="2">  1       -2 0.11761674E+00 0.25249448E+04</pdfrwt>
<totfact> 0.29760013E+00</totfact>
</mgrwt>
</event>
<event>
 4    1  0.1321115E-008  0.3505517E+04  0.7816531E-02  0.8112484E-01
          2   -1    0    0  501    0  0.00000000000E+00  0.00000000000E+00  0.21177108560E+04  0.21177108560E+04  0.00000000000E+00 0.  1.
         -2   -1    0    0    0  501 -0.00000000000E+00 -0.00000000000E+00 -0.14506993543E+04  0.14506993543E+04  0.00000000000E+00 0. -1.
    2000013    1    1    2    0    0  0.65671565401E+01  0.14662214626E+04  0.19022073451E+03  0.17574220986E+04  0.95000000000E+03 0.  0.
   -2000013    1    1    2    0    0 -0.65671565401E+01 -0.14662214626E+04  0.47679076717E+03  0.18109881117E+04  0.95000000000E+03 0.  0.
<mgrwt>
<rscale>  0 0.35055167E+04</rscale>
<asrwt>0</asrwt>
<pdfrwt beam="1">  1        2 0.32580167E+00 0.35055167E+04</pdfrwt>
<pdfrwt beam="2">  1       -2 0.22318452E+00 0.35055167E+04</pdfrwt>
<totfact> 0.44512531E-01</totfact>
</mgrwt>
</event>
<event>
 4    1  0.1321115E-008  0.2899654E+04  0.7816531E-02  0.8272980E-01
          2   -1    0    0  501    0  0.00000000000E+00  0.00000000000E+00  0.17330984933E+04  0.17330984933E+04  0.00000000000E+00 0.  1.
         -2   -1    0    0    0  501 -0.00000000000E+00 -0.00000000000E+00 -0.12128560415E+04  0.12128560415E+04  0.00000000000E+00 0. -1.
    2000013    1    1    2    0    0 -0.50037865209E+03 -0.96679611684E+03  0.38214501217E+03  0.14945261247E+04  0.95000000000E+03 0.  0.
   -2000013    1    1    2    0    0  0.50037865209E+03  0.96679611684E+03  0.13809743967E+03  0.14514284102E+04  0.95000000000E+03 0.  0.
<mgrwt>
<rscale>  0 0.28996544E+04</rscale>
<asrwt>0</asrwt>
<pdfrwt beam="1">  1        2 0.26663054E+00 0.28996544E+04</pdfrwt>
<pdfrwt beam="2">  1       -2 0.18659324E+00 0.28996544E+04</pdfrwt>
<totfact> 0.13260292E+00</totfact>
</mgrwt>
</event>
<event>
 4    1  0.1321115E-008  0.2275602E+04  0.7816531E-02  0.8487604E-01
         -2   -1    0    0    0  501 -0.00000000000E+00  0.00000000000E+00  0.46013858998E+03  0.46013858998E+03  0.00000000000E+00 0. -1.
          2   -1    0    0  501    0  0.00000000000E+00 -0.00000000000E+00 -0.28134803335E+04  0.28134803335E+04  0.00000000000E+00 0.  1.
    2000013    1    1    2    0    0  0.36502338854E+03  0.43156066207E+03 -0.78904503943E+03  0.13581526989E+04  0.95000000000E+03 0.  0.
   -2000013    1    1    2    0    0 -0.36502338854E+03 -0.43156066207E+03 -0.15642967041E+04  0.19154662247E+04  0.95000000000E+03 0.  0.
<mgrwt>
<rscale>  0 0.22756018E+04</rscale>
<asrwt>0</asrwt>
<pdfrwt beam="2">  1        2 0.43284312E+00 0.22756018E+04</pdfrwt>
<pdfrwt beam="1">  1       -2 0.70790553E-01 0.22756018E+04</pdfrwt>
<totfact> 0.37407512E+00</totfact>
</mgrwt>
</event>
<event>
 4    1  0.1321115E-008  0.3044907E+04  0.7816531E-02  0.8231022E-01
         -2   -1    0    0    0  501 -0.00000000000E+00  0.00000000000E+00  0.60496125898E+03  0.60496125898E+03  0.00000000000E+00 0. -1.
          2   -1    0    0  501    0  0.00000000000E+00 -0.00000000000E+00 -0.38314264122E+04  0.38314264122E+04  0.00000000000E+00 0.  1.
    2000013    1    1    2    0    0  0.95905554905E+02  0.11653407231E+04 -0.19329329204E+04  0.24507032769E+04  0.95000000000E+03 0.  0.
   -2000013    1    1    2    0    0 -0.95905554905E+02 -0.11653407231E+04 -0.12935322328E+04  0.19856843943E+04  0.95000000000E+03 0.  0.
<mgrwt>
<rscale>  0 0.30449069E+04</rscale>
<asrwt>0</asrwt>
<pdfrwt beam="2">  1        2 0.58945021E+00 0.30449069E+04</pdfrwt>
<pdfrwt beam="1">  1       -2 0.93070963E-01 0.30449069E+04</pdfrwt>
<totfact> 0.38712900E-01</totfact>
</mgrwt>
</event>
<event>
 4    1  0.1321115E-008  0.2610812E+04  0.7816531E-02  0.8364538E-01
          2   -1    0    0  501    0  0.00000000000E+00  0.00000000000E+00  0.26284802676E+04  0.26284802676E+04  0.00000000000E+00 0.  1.
         -2   -1    0    0    0  501 -0.00000000000E+00 -0.00000000000E+00 -0.64831568907E+03  0.64831568907E+03  0.00000000000E+00 0. -1.
    2000013    1    1    2    0    0  0.69951980472E+03  0.50947977679E+03  0.70199297935E+03  0.14643058913E+04  0.95000000000E+03 0.  0.
   -2000013    1    1    2    0    0 -0.69951980472E+03 -0.50947977679E+03  0.12781715991E+04  0.18124900653E+04  0.95000000000E+03 0.  0.
<mgrwt>
<rscale>  0 0.26108121E+04</rscale>
<asrwt>0</asrwt>
<pdfrwt beam="1">  1        2 0.40438157E+00 0.26108121E+04</pdfrwt>
<pdfrwt beam="2">  1       -2 0.99740877E-01 0.26108121E+04</pdfrwt>
<totfact> 0.21501100E+00</totfact>
</mgrwt>
</event>
<event>
 4    1  0.1321115E-008  0.2354216E+04  0.7816531E-02  0.8456846E-01
         -1   -1    0    0    0  501 -0.00000000000E+00  0.00000000000E+00  0.27889907343E+04  0.27889907343E+04  0.00000000000E+00 0. -1.
          1   -1    0    0  501    0  0.00000000000E+00 -0.00000000000E+00 -0.49680453977E+03  0.49680453977E+03  0.00000000000E+00 0.  1.
    2000013    1    1    2    0    0  0.28896075440E+03 -0.16553096923E+03  0.29461536084E+03  0.10489027744E+04  0.95000000000E+03 0.  0.
   -2000013    1    1    2    0    0 -0.28896075440E+03  0.16553096923E+03  0.19975708337E+04  0.22368924996E+04  0.95000000000E+03 0.  0.
<mgrwt>
<rscale>  0 0.23542160E+04</rscale>
<asrwt>0</asrwt>
<pdfrwt beam="2">  1        1 0.76431470E-01 0.23542160E+04</pdfrwt>
<pdfrwt beam="1">  1       -1 0.42907549E+00 0.23542160E+04</pdfrwt>
<totfact> 0.18158653E-01</totfact>
</mgrwt>
</event>
<event>
 4    1  0.1321115E-008  0.2917566E+04  0.7816531E-02  0.8267670E-01
          2   -1    0    0  501    0  0.00000000000E+00  0.00000000000E+00  0.25233658234E+04  0.25233658234E+04  0.00000000000E+00 0.  1.
         -2   -1    0    0    0  501 -0.00000000000E+00 -0.00000000000E+00 -0.84333722685E+03  0.84333722685E+03  0.00000000000E+00 0. -1.
    2000013    1    1    2    0    0 -0.10444871016E+04  0.32103434541E+03  0.10449226647E+04  0.17856034642E+04  0.95000000000E+03 0.  0.
   -2000013    1    1    2    0    0  0.10444871016E+04 -0.32103434541E+03  0.63510593183E+03  0.15810995860E+04  0.95000000000E+03 0.  0.
<mgrwt>
<rscale>  0 0.29175663E+04</rscale>
<asrwt>0</asrwt>
<pdfrwt beam="1">  1        2 0.38821012E+00 0.29175663E+04</pdfrwt>
<pdfrwt beam="2">  1       -2 0.12974419E+00 0.29175663E+04</pdfrwt>
<totfact> 0.12688703E+00</totfact>
</mgrwt>
</event>
<event>
 4    1  0.1321115E-008  0.2372158E+04  0.7816531E-02  0.8450001E-01
         -2   -1    0    0    0  501 -0.00000000000E+00  0.00000000000E+00  0.72249334946E+03  0.72249334946E+03  0.00000000000E+00 0. -1.
          2   -1    0    0  501    0  0.00000000000E+00 -0.00000000000E+00 -0.19471221699E+04  0.19471221699E+04  0.00000000000E+00 0.  1.
    2000013    1    1    2    0    0 -0.69919854021E+03  0.75272005275E+02 -0.50125694120E+03  0.12838625294E+04  0.95000000000E+03 0.  0.
   -2000013    1    1    2    0    0  0.69919854021E+03 -0.75272005275E+02 -0.72337187925E+03  0.13857529899E+04  0.95000000000E+03 0.  0.
<mgrwt>
<rscale>  0 0.23721575E+04</rscale>
<asrwt>0</asrwt>
<pdfrwt beam="2">  1        2 0.29955725E+00 0.23721575E+04</pdfrwt>
<pdfrwt beam="1">  1       -2 0.11115283E+00 0.23721575E+04</pdfrwt>
<totfact> 0.41277499E+00</totfact>
</mgrwt>
</event>
<event>
 4    1  0.1321115E-008  0.1921666E+04  0.7816531E-02  0.8644146E-01
          2   -1    0    0  501    0  0.00000000000E+00  0.00000000000E+00  0.13379973542E+04  0.13379973542E+04  0.00000000000E+00 0.  1.
         -2   -1    0    0    0  501 -0.00000000000E+00 -0.00000000000E+00 -0.68998659496E+03  0.68998659496E+03  0.00000000000E+00 0. -1.
    2000013    1    1    2    0    0  0.12509334184E+03  0.68625908526E+02  0.34353258719E+03  0.10202315904E+04  0.95000000000E+03 0.  0.
   -2000013    1    1    2    0    0 -0.12509334184E+03 -0.68625908526E+02  0.30447817210E+03  0.10077523589E+04  0.95000000000E+03 0.  0.
<mgrwt>
<rscale>  0 0.19216662E+04</rscale>
<asrwt>0</asrwt>
<pdfrwt beam="1">  1        2 0.20584575E+00 0.19216662E+04</pdfrwt>
<pdfrwt beam="2">  1       -2 0.10615178E+00 0.19216662E+04</pdfrwt>
<totfact> 0.10519773E+01</totfact>
</mgrwt>
</event>
<event>
 4    1  0.1321115E-008  0.4463586E+04  0.7816531E-02  0.7917043E-01
          2   -1    0    0  501    0  0.00000000000E+00  0.00000000000E+00  0.15807827078E+04  0.15807827078E+04  0.00000000000E+00 0.  1.
         -2   -1    0    0    0  501 -0.00000000000E+00 -0.00000000000E+00 -0.31509072419E+04  0.31509072419E+04  0.00000000000E+00 0. -1.
    2000013    1    1    2    0    0  0.15107209508E+04 -0.10735428754E+03 -0.22011901012E+04  0.28357610259E+04  0.95000000000E+03 0.  0.
   -2000013    1    1    2    0    0 -0.15107209508E+04  0.10735428754E+03  0.63106556712E+03  0.18959289239E+04  0.95000000000E+03 0.  0.
<mgrwt>
<rscale>  0 0.44635859E+04</rscale>
<asrwt>0</asrwt>
<pdfrwt beam="1">  1        2 0.24319734E+00 0.44635859E+04</pdfrwt>
<pdfrwt beam="2">  1       -2 0.48475495E+00 0.44635859E+04</pdfrwt>
<totfact> 0.17934035E-02</totfact>
</mgrwt>
</event>
<event>
 4    1  0.1321115E-008  0.2160706E+04  0.7816531E-02  0.8534964E-01
         -2   -1    0    0    0  501 -0.00000000000E+00  0.00000000000E+00  0.66703742058E+03  0.66703742058E+03  0.00000000000E+00 0. -1.
          2   -1    0    0  501    0  0.00000000000E+00 -0.00000000000E+00 -0.17497703700E+04  0.17497703700E+04  0.00000000000E+00 0.  1.
    2000013    1    1    2    0    0  0.27121096536E+03 -0.31822455817E+03 -0.87662628735E+03  0.13586007157E+04  0.95000000000E+03 0.  0.
   -2000013    1    1    2    0    0 -0.27121096536E+03  0.31822455817E+03 -0.20610666211E+03  0.10582070749E+04  0.95000000000E+03 0.  0.
<mgrwt>
<rscale>  0 0.21607057E+04</rscale>
<asrwt>0</asrwt>
<pdfrwt beam="2">  1        2 0.26919544E+00 0.21607057E+04</pdfrwt>
<pdfrwt beam="1">  1       -2 0.10262114E+00 0.21607057E+04</pdfrwt>
<totfact> 0.65527513E+00</totfact>
</mgrwt>
</event>
<event>
 4    1  0.1321115E-008  0.3675846E+04  0.7816531E-02  0.8073336E-01
          2   -1    0    0  501    0  0.00000000000E+00  0.00000000000E+00  0.94283311036E+03  0.94283311036E+03  0.00000000000E+00 0.  1.
         -2   -1    0    0    0  501 -0.00000000000E+00 -0.00000000000E+00 -0.35827767762E+04  0.35827767762E+04  0.00000000000E+00 0. -1.
    2000013    1    1    2    0    0  0.86304570500E+03 -0.13003790657E+04 -0.15650559985E+04  0.24057709538E+04  0.95000000000E+03 0.  0.
   -2000013    1    1    2    0    0 -0.86304570500E+03  0.13003790657E+04 -0.10748876673E+04  0.21198389328E+04  0.95000000000E+03 0.  0.
<mgrwt>
<rscale>  0 0.36758458E+04</rscale>
<asrwt>0</asrwt>
<pdfrwt beam="1">  1        2 0.14505125E+00 0.36758458E+04</pdfrwt>
<pdfrwt beam="2">  1       -2 0.55119642E+00 0.36758458E+04</pdfrwt>
<totfact> 0.18672460E-02</totfact>
</mgrwt>
</event>
<event>
 4    1  0.1321115E-008  0.2242733E+04  0.7816531E-02  0.8500849E-01
          2   -1    0    0  501    0  0.00000000000E+00  0.00000000000E+00  0.19840625466E+04  0.19840625466E+04  0.00000000000E+00 0.  1.
         -2   -1    0    0    0  501 -0.00000000000E+00 -0.00000000000E+00 -0.63378212954E+03  0.63378212954E+03  0.00000000000E+00 0. -1.
    2000013    1    1    2    0    0  0.19973323316E+03 -0.50880647719E+03  0.39845864259E+03  0.11662103950E+04  0.95000000000E+03 0.  0.
   -2000013    1    1    2    0    0 -0.19973323316E+03  0.50880647719E+03  0.95182177445E+03  0.14516342811E+04  0.95000000000E+03 0.  0.
<mgrwt>
<rscale>  0 0.22427335E+04</rscale>
<asrwt>0</asrwt>
<pdfrwt beam="1">  1        2 0.30524039E+00 0.22427335E+04</pdfrwt>
<pdfrwt beam="2">  1       -2 0.97504944E-01 0.22427335E+04</pdfrwt>
<totfact> 0.54455268E+00</totfact>
</mgrwt>
</event>
<event>
 4    1  0.1321115E-008  0.2942386E+04  0.7816531E-02  0.8260377E-01
         -2   -1    0    0    0  501 -0.00000000000E+00  0.00000000000E+00  0.10849909799E+04  0.10849909799E+04  0.00000000000E+00 0. -1.
          2   -1    0    0  501    0  0.00000000000E+00 -0.00000000000E+00 -0.19948630036E+04  0.19948630036E+04  0.00000000000E+00 0.  1.
    2000013    1    1    2    0    0 -0.64062431927E+02  0.91392488036E+03  0.22546878060E+03  0.13389170449E+04  0.95000000000E+03 0.  0.
   -2000013    1    1    2    0    0  0.64062431927E+02 -0.91392488036E+03 -0.11353408044E+04  0.17409369386E+04  0.95000000000E+03 0.  0.
<mgrwt>
<rscale>  0 0.29423857E+04</rscale>
<asrwt>0</asrwt>
<pdfrwt beam="2">  1        2 0.30690200E+00 0.29423857E+04</pdfrwt>
<pdfrwt beam="1">  1       -2 0.16692169E+00 0.29423857E+04</pdfrwt>
<totfact> 0.12971196E+00</totfact>
</mgrwt>
</event>
<event>
 4    1  0.1321115E-008  0.2298887E+04  0.7816531E-02  0.8478360E-01
         -2   -1    0    0    0  501 -0.00000000000E+00  0.00000000000E+00  0.10113528575E+04  0.10113528575E+04  0.00000000000E+00 0. -1.
          2   -1    0    0  501    0  0.00000000000E+00 -0.00000000000E+00 -0.13063889875E+04  0.13063889875E+04  0.00000000000E+00 0.  1.
    2000013    1    1    2    0    0  0.58476975671E+03  0.22675712656E+03 -0.30802737453E+03  0.11793028984E+04  0.95000000000E+03 0.  0.
   -2000013    1    1    2    0    0 -0.58476975671E+03 -0.22675712656E+03  0.12991244524E+02  0.11384389466E+04  0.95000000000E+03 0.  0.
<mgrwt>
<rscale>  0 0.22988869E+04</rscale>
<asrwt>0</asrwt>
<pdfrwt beam="2">  1        2 0.20098292E+00 0.22988869E+04</pdfrwt>
<pdfrwt beam="1">  1       -2 0.15559275E+00 0.22988869E+04</pdfrwt>
<totfact> 0.40384151E+00</totfact>
</mgrwt>
</event>
<event>
 4    1  0.1321115E-008  0.3421702E+04  0.7816531E-02  0.8132600E-01
          2   -1    0    0  501    0  0.00000000000E+00  0.00000000000E+00  0.20922258383E+04  0.20922258383E+04  0.00000000000E+00 0.  1.
         -2   -1    0    0    0  501 -0.00000000000E+00 -0.00000000000E+00 -0.13989940945E+04  0.13989940945E+04  0.00000000000E+00 0. -1.
    2000013    1    1    2    0    0 -0.12823968847E+04  0.98136672119E+02 -0.27430280824E+03  0.16223176652E+04  0.95000000000E+03 0.  0.
   -2000013    1    1    2    0    0  0.12823968847E+04 -0.98136672119E+02  0.96753455210E+03  0.18689022676E+04  0.95000000000E+03 0.  0.
<mgrwt>
<rscale>  0 0.34217023E+04</rscale>
<asrwt>0</asrwt>
<pdfrwt beam="1">  1        2 0.32188090E+00 0.34217023E+04</pdfrwt>
<pdfrwt beam="2">  1       -2 0.21522986E+00 0.34217023E+04</pdfrwt>
<totfact> 0.52024203E-01</totfact>
</mgrwt>
</event>
<event>
 4    1  0.1321115E-008  0.2452747E+04  0.7816531E-02  0.8420016E-01
          1   -1    0    0  501    0  0.00000000000E+00  0.00000000000E+00  0.58346653835E+03  0.58346653835E+03  0.00000000000E+00 0.  1.
         -1   -1    0    0    0  501 -0.00000000000E+00 -0.00000000000E+00 -0.25776834009E+04  0.25776834009E+04  0.00000000000E+00 0. -1.
    2000013    1    1    2    0    0 -0.26106918345E+02 -0.73410372260E+03 -0.13177687734E+04  0.17828640966E+04  0.95000000000E+03 0.  0.
   -2000013    1    1    2    0    0  0.26106918345E+02  0.73410372260E+03 -0.67644808906E+03  0.13782858426E+04  0.95000000000E+03 0.  0.
<mgrwt>
<rscale>  0 0.24527470E+04</rscale>
<asrwt>0</asrwt>
<pdfrwt beam="1">  1        1 0.89764085E-01 0.24527470E+04</pdfrwt>
<pdfrwt beam="2">  1       -1 0.39656667E+00 0.24527470E+04</pdfrwt>
<totfact> 0.24022398E-01</totfact>
</mgrwt>
</event>
<event>
 4    1  0.1321115E-008  0.2186322E+04  0.7816531E-02  0.8524143E-01
          2   -1    0    0  501    0  0.00000000000E+00  0.00000000000E+00  0.65253223486E+03  0.65253223486E+03  0.00000000000E+00 0.  1.
         -2   -1    0    0    0  501 -0.00000000000E+00 -0.00000000000E+00 -0.18313281062E+04  0.18313281062E+04  0.00000000000E+00 0. -1.
    2000013    1    1    2    0    0 -0.41249067622E+03  0.32712553652E+01 -0.19202364197E+03  0.10533434094E+04  0.95000000000E+03 0.  0.
   -2000013    1    1    2    0    0  0.41249067622E+03 -0.32712553652E+01 -0.98677222936E+03  0.14305169316E+04  0.95000000000E+03 0.  0.
<mgrwt>
<rscale>  0 0.21863217E+04</rscale>
<asrwt>0</asrwt>
<pdfrwt beam="1">  1        2 0.10038958E+00 0.21863217E+04</pdfrwt>
<pdfrwt beam="2">  1       -2 0.28174278E+00 0.21863217E+04</pdfrwt>
<totfact> 0.16830458E+00</totfact>
</mgrwt>
</event>
<event>
 4    1  0.1321115E-008  0.3051213E+04  0.7816531E-02  0.8229256E-01
         -2   -1    0    0    0  501 -0.00000000000E+00  0.00000000000E+00  0.18265531988E+04  0.18265531988E+04  0.00000000000E+00 0. -1.
          2   -1    0    0  501    0  0.00000000000E+00 -0.00000000000E+00 -0.12742448008E+04  0.12742448008E+04  0.00000000000E+00 0.  1.
    2000013    1    1    2    0    0 -0.19429888396E+03 -0.84078118891E+03 -0.56205916600E+03  0.14010979873E+04  0.95000000000E+03 0.  0.
   -2000013    1    1    2    0    0  0.19429888396E+03  0.84078118891E+03  0.11143675641E+04  0.16997000123E+04  0.95000000000E+03 0.  0.
<mgrwt>
<rscale>  0 0.30512135E+04</rscale>
<asrwt>0</asrwt>
<pdfrwt beam="2">  1        2 0.19603766E+00 0.30512135E+04</pdfrwt>
<pdfrwt beam="1">  1       -2 0.28100819E+00 0.30512135E+04</pdfrwt>
<totfact> 0.60574789E-01</totfact>
</mgrwt>
</event>
<event>
 4    1  0.1321115E-008  0.3221651E+04  0.7816531E-02  0.8183123E-01
          2   -1    0    0  501    0  0.00000000000E+00  0.00000000000E+00  0.18091069753E+04  0.18091069753E+04  0.00000000000E+00 0.  1.
         -2   -1    0    0    0  501 -0.00000000000E+00 -0.00000000000E+00 -0.14342759808E+04  0.14342759808E+04  0.00000000000E+00 0. -1.
    2000013    1    1    2    0    0 -0.11843360033E+04  0.53595286510E+03  0.23633793905E+03  0.16273453425E+04  0.95000000000E+03 0.  0.
   -2000013    1    1    2    0    0  0.11843360033E+04 -0.53595286510E+03  0.13849305550E+03  0.16160376136E+04  0.95000000000E+03 0.  0.
<mgrwt>
<rscale>  0 0.32216509E+04</rscale>
<asrwt>0</asrwt>
<pdfrwt beam="1">  1        2 0.27832415E+00 0.32216509E+04</pdfrwt>
<pdfrwt beam="2">  1       -2 0.22065784E+00 0.32216509E+04</pdfrwt>
<totfact> 0.70184820E-01</totfact>
</mgrwt>
</event>
<event>
 4    1  0.1321115E-008  0.2391331E+04  0.7816531E-02  0.8442756E-01
         -2   -1    0    0    0  501 -0.00000000000E+00  0.00000000000E+00  0.11542957550E+04  0.11542957550E+04  0.00000000000E+00 0. -1.
          2   -1    0    0  501    0  0.00000000000E+00 -0.00000000000E+00 -0.12385184264E+04  0.12385184264E+04  0.00000000000E+00 0.  1.
    2000013    1    1    2    0    0  0.59498835225E+02 -0.72355295802E+03 -0.49012548984E+02  0.11966500008E+04  0.95000000000E+03 0.  0.
   -2000013    1    1    2    0    0 -0.59498835225E+02  0.72355295802E+03 -0.35210122411E+02  0.11961641807E+04  0.95000000000E+03 0.  0.
<mgrwt>
<rscale>  0 0.23913315E+04</rscale>
<asrwt>0</asrwt>
<pdfrwt beam="2">  1        2 0.19054130E+00 0.23913315E+04</pdfrwt>
<pdfrwt beam="1">  1       -2 0.17758396E+00 0.23913315E+04</pdfrwt>
<totfact> 0.30471469E+00</totfact>
</mgrwt>
</event>
<event>
 4    1  0.1321115E-008  0.2353510E+04  0.7816531E-02  0.8457117E-01
          2   -1    0    0  501    0  0.00000000000E+00  0.00000000000E+00  0.15155898072E+04  0.15155898072E+04  0.00000000000E+00 0.  1.
         -2   -1    0    0    0  501 -0.00000000000E+00 -0.00000000000E+00 -0.91367194933E+03  0.91367194933E+03  0.00000000000E+00 0. -1.
    2000013    1    1    2    0    0 -0.64858312292E+03  0.21767638128E+03  0.42399638059E+03  0.12451168640E+04  0.95000000000E+03 0.  0.
   -2000013    1    1    2    0    0  0.64858312292E+03 -0.21767638128E+03  0.17792147724E+03  0.11841448925E+04  0.95000000000E+03 0.  0.
<mgrwt>
<rscale>  0 0.23535096E+04</rscale>
<asrwt>0</asrwt>
<pdfrwt beam="1">  1        2 0.23316766E+00 0.23535096E+04</pdfrwt>
<pdfrwt beam="2">  1       -2 0.14056492E+00 0.23535096E+04</pdfrwt>
<totfact> 0.39913948E+00</totfact>
</mgrwt>
</event>
<event>
 4    1  0.1321115E-008  0.2428784E+04  0.7816531E-02  0.8428805E-01
          2   -1    0    0  501    0  0.00000000000E+00  0.00000000000E+00  0.19841411229E+04  0.19841411229E+04  0.00000000000E+00 0.  1.
         -2   -1    0    0    0  501 -0.00000000000E+00 -0.00000000000E+00 -0.74326791667E+03  0.74326791667E+03  0.00000000000E+00 0. -1.
    2000013    1    1    2    0    0  0.25421092838E+02  0.73853986849E+03  0.80206721850E+03  0.14463399297E+04  0.95000000000E+03 0.  0.
   -2000013    1    1    2    0    0 -0.25421092838E+02 -0.73853986849E+03  0.43880598772E+03  0.12810691098E+04  0.95000000000E+03 0.  0.
<mgrwt>
<rscale>  0 0.24287844E+04</rscale>
<asrwt>0</asrwt>
<pdfrwt beam="1">  1        2 0.30525248E+00 0.24287844E+04</pdfrwt>
<pdfrwt beam="2">  1       -2 0.11434891E+00 0.24287844E+04</pdfrwt>
<totfact> 0.36571110E+00</totfact>
</mgrwt>
</event>
<event>
 4    1  0.1321115E-008  0.2156680E+04  0.7816531E-02  0.8536678E-01
         -1   -1    0    0    0  501 -0.00000000000E+00  0.00000000000E+00  0.41763917863E+03  0.41763917863E+03  0.00000000000E+00 0.  1.
          1   -1    0    0  501    0  0.00000000000E+00 -0.00000000000E+00 -0.27842628954E+04  0.27842628954E+04  0.00000000000E+00 0. -1.
    2000013    1    1    2    0    0 -0.13861128787E+02 -0.45916017489E+03 -0.15129465217E+04  0.18445940948E+04  0.95000000000E+03 0.  0.
   -2000013    1    1    2    0    0  0.13861128787E+02  0.45916017489E+03 -0.85367719510E+03  0.13573079792E+04  0.95000000000E+03 0.  0.
<mgrwt>
<rscale>  0 0.21566801E+04</rscale>
<asrwt>0</asrwt>
<pdfrwt beam="2">  1        1 0.42834815E+00 0.21566801E+04</pdfrwt>
<pdfrwt beam="1">  1       -1 0.64252180E-01 0.21566801E+04</pdfrwt>
<totfact> 0.19235961E+00</totfact>
</mgrwt>
</event>
<event>
 4    1  0.1321115E-008  0.2874999E+04  0.7816531E-02  0.8280355E-01
          2   -1    0    0  501    0  0.00000000000E+00  0.00000000000E+00  0.29334753298E+04  0.29334753298E+04  0.00000000000E+00 0.  1.
         -2   -1    0    0    0  501 -0.00000000000E+00 -0.00000000000E+00 -0.70442216874E+03  0.70442216874E+03  0.00000000000E+00 0. -1.
    2000013    1    1    2    0    0 -0.72383214589E+03  0.43182764898E+03  0.19666449445E+04  0.23410682245E+04  0.95000000000E+03 0.  0.
   -2000013    1    1    2    0    0  0.72383214589E+03 -0.43182764898E+03  0.26240821648E+03  0.12968292740E+04  0.95000000000E+03 0.  0.
<mgrwt>
<rscale>  0 0.28749992E+04</rscale>
<asrwt>0</asrwt>
<pdfrwt beam="1">  1        2 0.45130389E+00 0.28749992E+04</pdfrwt>
<pdfrwt beam="2">  1       -2 0.10837264E+00 0.28749992E+04</pdfrwt>
<totfact> 0.11279319E+00</totfact>
</mgrwt>
</event>
<event>
 4    1  0.1321115E-008  0.3000941E+04  0.7816531E-02  0.8243462E-01
         -2   -1    0    0    0  501 -0.00000000000E+00  0.00000000000E+00  0.14209262688E+04  0.14209262688E+04  0.00000000000E+00 0. -1.
          2   -1    0    0  501    0  0.00000000000E+00 -0.00000000000E+00 -0.15844680130E+04  0.15844680130E+04  0.00000000000E+00 0.  1.
    2000013    1    1    2    0    0 -0.97569224651E+03  0.57048555138E+03  0.18598908634E+03  0.14881266964E+04  0.95000000000E+03 0.  0.
   -2000013    1    1    2    0    0  0.97569224651E+03 -0.57048555138E+03 -0.34953083049E+03  0.15172675854E+04  0.95000000000E+03 0.  0.
<mgrwt>
<rscale>  0 0.30009413E+04</rscale>
<asrwt>0</asrwt>
<pdfrwt beam="2">  1        2 0.24376431E+00 0.30009413E+04</pdfrwt>
<pdfrwt beam="1">  1       -2 0.21860404E+00 0.30009413E+04</pdfrwt>
<totfact> 0.98244489E-01</totfact>
</mgrwt>
</event>
<event>
 4    1  0.1321115E-008  0.2661772E+04  0.7816531E-02  0.8347516E-01
          2   -1    0    0  501    0  0.00000000000E+00  0.00000000000E+00  0.17481906789E+04  0.17481906789E+04  0.00000000000E+00 0.  1.
         -2   -1    0    0    0  501 -0.00000000000E+00 -0.00000000000E+00 -0.10131944790E+04  0.10131944790E+04  0.00000000000E+00 0. -1.
    2000013    1    1    2    0    0  0.48833510083E+03  0.79390057148E+03  0.36459033731E+03  0.13799186216E+04  0.95000000000E+03 0.  0.
   -2000013    1    1    2    0    0 -0.48833510083E+03 -0.79390057148E+03  0.37040586256E+03  0.13814665364E+04  0.95000000000E+03 0.  0.
<mgrwt>
<rscale>  0 0.26617717E+04</rscale>
<asrwt>0</asrwt>
<pdfrwt beam="1">  1        2 0.26895241E+00 0.26617717E+04</pdfrwt>
<pdfrwt beam="2">  1       -2 0.15587607E+00 0.26617717E+04</pdfrwt>
<totfact> 0.21942662E+00</totfact>
</mgrwt>
</event>
<event>
 4    1  0.1321115E-008  0.2755697E+04  0.7816531E-02  0.8317156E-01
         -2   -1    0    0    0  501 -0.00000000000E+00  0.00000000000E+00  0.14991642209E+04  0.14991642209E+04  0.00000000000E+00 0. -1.
          2   -1    0    0  501    0  0.00000000000E+00 -0.00000000000E+00 -0.12663496444E+04  0.12663496444E+04  0.00000000000E+00 0.  1.
    2000013    1    1    2    0    0  0.31470057612E+03  0.79852434052E+03  0.62742511895E+03  0.14257769303E+04  0.95000000000E+03 0.  0.
   -2000013    1    1    2    0    0 -0.31470057612E+03 -0.79852434052E+03 -0.39461054248E+03  0.13397369351E+04  0.95000000000E+03 0.  0.
<mgrwt>
<rscale>  0 0.27556967E+04</rscale>
<asrwt>0</asrwt>
<pdfrwt beam="2">  1        2 0.19482302E+00 0.27556967E+04</pdfrwt>
<pdfrwt beam="1">  1       -2 0.23064065E+00 0.27556967E+04</pdfrwt>
<totfact> 0.12798344E+00</totfact>
</mgrwt>
</event>
<event>
 4    1  0.1321115E-008  0.2754549E+04  0.7816531E-02  0.8317520E-01
         -2   -1    0    0    0  501 -0.00000000000E+00  0.00000000000E+00  0.14043066689E+04  0.14043066689E+04  0.00000000000E+00 0.  1.
          2   -1    0    0  501    0  0.00000000000E+00 -0.00000000000E+00 -0.13507625195E+04  0.13507625195E+04  0.00000000000E+00 0. -1.
    2000013    1    1    2    0    0  0.36783044305E+03 -0.92375933912E+03 -0.49099112499E+02  0.13760600548E+04  0.95000000000E+03 0.  0.
   -2000013    1    1    2    0    0 -0.36783044305E+03  0.92375933912E+03  0.10264326191E+03  0.13790091336E+04  0.95000000000E+03 0.  0.
<mgrwt>
<rscale>  0 0.27545488E+04</rscale>
<asrwt>0</asrwt>
<pdfrwt beam="2">  1        2 0.20780962E+00 0.27545488E+04</pdfrwt>
<pdfrwt beam="1">  1       -2 0.21604718E+00 0.27545488E+04</pdfrwt>
<totfact> 0.14128815E+00</totfact>
</mgrwt>
</event>
<event>
 4    1  0.1321115E-008  0.2071878E+04  0.7816531E-02  0.8573733E-01
          2   -1    0    0  501    0  0.00000000000E+00  0.00000000000E+00  0.30738479240E+04  0.30738479240E+04  0.00000000000E+00 0.  1.
         -2   -1    0    0    0  501 -0.00000000000E+00 -0.00000000000E+00 -0.34912907064E+03  0.34912907064E+03  0.00000000000E+00 0. -1.
    2000013    1    1    2    0    0 -0.38395930263E+03  0.15004941114E+03  0.13177188174E+04  0.16759541920E+04  0.95000000000E+03 0.  0.
   -2000013    1    1    2    0    0  0.38395930263E+03 -0.15004941114E+03  0.14070000359E+04  0.17470228026E+04  0.95000000000E+03 0.  0.
<mgrwt>
<rscale>  0 0.20718781E+04</rscale>
<asrwt>0</asrwt>
<pdfrwt beam="1">  1        2 0.47289966E+00 0.20718781E+04</pdfrwt>
<pdfrwt beam="2">  1       -2 0.53712167E-01 0.20718781E+04</pdfrwt>
<totfact> 0.47279764E+00</totfact>
</mgrwt>
</event>
<event>
 4    1  0.1321115E-008  0.2089669E+04  0.7816531E-02  0.8565808E-01
         -2   -1    0    0    0  501 -0.00000000000E+00  0.00000000000E+00  0.39356797561E+03  0.39356797561E+03  0.00000000000E+00 0. -1.
          2   -1    0    0  501    0  0.00000000000E+00 -0.00000000000E+00 -0.27737994453E+04  0.27737994453E+04  0.00000000000E+00 0.  1.
    2000013    1    1    2    0    0 -0.38625397130E+03 -0.15473848081E+03 -0.99813522901E+03  0.14394130968E+04  0.95000000000E+03 0.  0.
   -2000013    1    1    2    0    0  0.38625397130E+03  0.15473848081E+03 -0.13820962407E+04  0.17279543242E+04  0.95000000000E+03 0.  0.
<mgrwt>
<rscale>  0 0.20896685E+04</rscale>
<asrwt>0</asrwt>
<pdfrwt beam="2">  1        2 0.42673836E+00 0.20896685E+04</pdfrwt>
<pdfrwt beam="1">  1       -2 0.60548921E-01 0.20896685E+04</pdfrwt>
<totfact> 0.56251403E+00</totfact>
</mgrwt>
</event>
<event>
 4    1  0.1321115E-008  0.2822823E+04  0.7816531E-02  0.8296218E-01
          2   -1    0    0  501    0  0.00000000000E+00  0.00000000000E+00  0.17679935755E+04  0.17679935755E+04  0.00000000000E+00 0.  1.
         -2   -1    0    0    0  501 -0.00000000000E+00 -0.00000000000E+00 -0.11267474199E+04  0.11267474199E+04  0.00000000000E+00 0. -1.
    2000013    1    1    2    0    0 -0.65590708367E+03 -0.47188875233E+03  0.99828372431E+03  0.15974866169E+04  0.95000000000E+03 0.  0.
   -2000013    1    1    2    0    0  0.65590708367E+03  0.47188875233E+03 -0.35703756865E+03  0.12972543785E+04  0.95000000000E+03 0.  0.
<mgrwt>
<rscale>  0 0.28228228E+04</rscale>
<asrwt>0</asrwt>
<pdfrwt beam="1">  1        2 0.27199901E+00 0.28228228E+04</pdfrwt>
<pdfrwt beam="2">  1       -2 0.17334576E+00 0.28228228E+04</pdfrwt>
<totfact> 0.15759468E+00</totfact>
</mgrwt>
</event>
<event>
 4    1  0.1321115E-008  0.2658135E+04  0.7816531E-02  0.8348718E-01
          2   -1    0    0  501    0  0.00000000000E+00  0.00000000000E+00  0.17120409254E+04  0.17120409254E+04  0.00000000000E+00 0.  1.
         -2   -1    0    0    0  501 -0.00000000000E+00 -0.00000000000E+00 -0.10317632289E+04  0.10317632289E+04  0.00000000000E+00 0. -1.
    2000013    1    1    2    0    0  0.47824414008E+03 -0.70602184142E+03  0.72183551605E+03  0.14665370129E+04  0.95000000000E+03 0.  0.
   -2000013    1    1    2    0    0 -0.47824414008E+03  0.70602184142E+03 -0.41557819541E+02  0.12772671414E+04  0.95000000000E+03 0.  0.
<mgrwt>
<rscale>  0 0.26581353E+04</rscale>
<asrwt>0</asrwt>
<pdfrwt beam="1">  1        2 0.26339091E+00 0.26581353E+04</pdfrwt>
<pdfrwt beam="2">  1       -2 0.15873280E+00 0.26581353E+04</pdfrwt>
<totfact> 0.21885522E+00</totfact>
</mgrwt>
</event>
<event>
 4    1  0.1321115E-008  0.2562674E+04  0.7816531E-02  0.8380992E-01
         -2   -1    0    0    0  501 -0.00000000000E+00  0.00000000000E+00  0.97598078162E+03  0.97598078162E+03  0.00000000000E+00 0. -1.
          2   -1    0    0  501    0  0.00000000000E+00 -0.00000000000E+00 -0.16822301756E+04  0.16822301756E+04  0.00000000000E+00 0.  1.
    2000013    1    1    2    0    0 -0.20964481408E+03  0.81059737566E+03 -0.55613840283E+03  0.13830433748E+04  0.95000000000E+03 0.  0.
   -2000013    1    1    2    0    0  0.20964481408E+03 -0.81059737566E+03 -0.15011099112E+03  0.12751675824E+04  0.95000000000E+03 0.  0.
<mgrwt>
<rscale>  0 0.25626739E+04</rscale>
<asrwt>0</asrwt>
<pdfrwt beam="2">  1        2 0.25880464E+00 0.25626739E+04</pdfrwt>
<pdfrwt beam="1">  1       -2 0.15015089E+00 0.25626739E+04</pdfrwt>
<totfact> 0.26605571E+00</totfact>
</mgrwt>
</event>
<event>
 4    1  0.1321115E-008  0.3230201E+04  0.7816531E-02  0.8180886E-01
          2   -1    0    0  501    0  0.00000000000E+00  0.00000000000E+00  0.25780288634E+04  0.25780288634E+04  0.00000000000E+00 0.  1.
         -2   -1    0    0    0  501 -0.00000000000E+00 -0.00000000000E+00 -0.10118389644E+04  0.10118389644E+04  0.00000000000E+00 0. -1.
    2000013    1    1    2    0    0  0.19992609242E+03 -0.12902842187E+04  0.74386198754E+03  0.17778173314E+04  0.95000000000E+03 0.  0.
   -2000013    1    1    2    0    0 -0.19992609242E+03  0.12902842187E+04  0.82232791149E+03  0.18120504964E+04  0.95000000000E+03 0.  0.
<mgrwt>
<rscale>  0 0.32302013E+04</rscale>
<asrwt>0</asrwt>
<pdfrwt beam="1">  1        2 0.39661982E+00 0.32302013E+04</pdfrwt>
<pdfrwt beam="2">  1       -2 0.15566753E+00 0.32302013E+04</pdfrwt>
<totfact> 0.71438470E-01</totfact>
</mgrwt>
</event>
<event>
 4    1  0.1321115E-008  0.2576438E+04  0.7816531E-02  0.8376249E-01
          2   -1    0    0  501    0  0.00000000000E+00  0.00000000000E+00  0.18706802416E+04  0.18706802416E+04  0.00000000000E+00 0.  1.
         -2   -1    0    0    0  501 -0.00000000000E+00 -0.00000000000E+00 -0.88711511629E+03  0.88711511629E+03  0.00000000000E+00 0. -1.
    2000013    1    1    2    0    0 -0.40723674324E+03  0.44186749358E+03 -0.18173051315E+03  0.11386898728E+04  0.95000000000E+03 0.  0.
   -2000013    1    1    2    0    0  0.40723674324E+03 -0.44186749358E+03  0.11652956384E+04  0.16191054851E+04  0.95000000000E+03 0.  0.
<mgrwt>
<rscale>  0 0.25764384E+04</rscale>
<asrwt>0</asrwt>
<pdfrwt beam="1">  1        2 0.28779696E+00 0.25764384E+04</pdfrwt>
<pdfrwt beam="2">  1       -2 0.13647925E+00 0.25764384E+04</pdfrwt>
<totfact> 0.26808399E+00</totfact>
</mgrwt>
</event>
<event>
 4    1  0.1321115E-008  0.2184177E+04  0.7816531E-02  0.8525043E-01
          2   -1    0    0  501    0  0.00000000000E+00  0.00000000000E+00  0.18590146429E+04  0.18590146429E+04  0.00000000000E+00 0.  1.
         -2   -1    0    0    0  501 -0.00000000000E+00 -0.00000000000E+00 -0.64155327506E+03  0.64155327506E+03  0.00000000000E+00 0. -1.
    2000013    1    1    2    0    0  0.49325174440E+03  0.11761336987E+03  0.81678837435E+03  0.13515818276E+04  0.95000000000E+03 0.  0.
   -2000013    1    1    2    0    0 -0.49325174440E+03 -0.11761336987E+03  0.40067299345E+03  0.11489860903E+04  0.95000000000E+03 0.  0.
<mgrwt>
<rscale>  0 0.21841767E+04</rscale>
<asrwt>0</asrwt>
<pdfrwt beam="1">  1        2 0.28600225E+00 0.21841767E+04</pdfrwt>
<pdfrwt beam="2">  1       -2 0.98700504E-01 0.21841767E+04</pdfrwt>
<totfact> 0.62392604E+00</totfact>
</mgrwt>
</event>
<event>
 4    1  0.1321115E-008  0.2317360E+04  0.7816531E-02  0.8471108E-01
          2   -1    0    0  501    0  0.00000000000E+00  0.00000000000E+00  0.21671303765E+04  0.21671303765E+04  0.00000000000E+00 0.  1.
         -2   -1    0    0    0  501 -0.00000000000E+00 -0.00000000000E+00 -0.61950094799E+03  0.61950094799E+03  0.00000000000E+00 0. -1.
    2000013    1    1    2    0    0  0.11242306058E+03  0.64993579751E+03  0.85870694335E+03  0.14404628076E+04  0.95000000000E+03 0.  0.
   -2000013    1    1    2    0    0 -0.11242306058E+03 -0.64993579751E+03  0.68892248520E+03  0.13461685170E+04  0.95000000000E+03 0.  0.
<mgrwt>
<rscale>  0 0.23173600E+04</rscale>
<asrwt>0</asrwt>
<pdfrwt beam="1">  1        2 0.33340467E+00 0.23173600E+04</pdfrwt>
<pdfrwt beam="2">  1       -2 0.95307839E-01 0.23173600E+04</pdfrwt>
<totfact> 0.45116804E+00</totfact>
</mgrwt>
</event>
<event>
 4    1  0.1321115E-008  0.2826868E+04  0.7816531E-02  0.8294975E-01
         -1   -1    0    0    0  501 -0.00000000000E+00  0.00000000000E+00  0.62619994912E+03  0.62619994912E+03  0.00000000000E+00 0. -1.
          1   -1    0    0  501    0  0.00000000000E+00 -0.00000000000E+00 -0.31903478884E+04  0.31903478884E+04  0.00000000000E+00 0.  1.
    2000013    1    1    2    0    0  0.36344037233E+03  0.93684061300E+03 -0.16769318251E+04  0.21735591974E+04  0.95000000000E+03 0.  0.
   -2000013    1    1    2    0    0 -0.36344037233E+03 -0.93684061300E+03 -0.88721611419E+03  0.16429886402E+04  0.95000000000E+03 0.  0.
<mgrwt>
<rscale>  0 0.28268680E+04</rscale>
<asrwt>0</asrwt>
<pdfrwt beam="2">  1        1 0.49082275E+00 0.28268680E+04</pdfrwt>
<pdfrwt beam="1">  1       -1 0.96338453E-01 0.28268680E+04</pdfrwt>
<totfact> 0.38710639E-01</totfact>
</mgrwt>
</event>
<event>
 4    1  0.1321115E-008  0.2687000E+04  0.7816531E-02  0.8339235E-01
         -1   -1    0    0    0  501 -0.00000000000E+00  0.00000000000E+00  0.66043191940E+03  0.66043191940E+03  0.00000000000E+00 0.  1.
          1   -1    0    0  501    0  0.00000000000E+00 -0.00000000000E+00 -0.27330486307E+04  0.27330486307E+04  0.00000000000E+00 0. -1.
    2000013    1    1    2    0    0 -0.57626885376E+03 -0.71970476363E+03 -0.13254929177E+04  0.18733638765E+04  0.95000000000E+03 0.  0.
   -2000013    1    1    2    0    0  0.57626885376E+03  0.71970476363E+03 -0.74712379356E+03  0.15201166736E+04  0.95000000000E+03 0.  0.
<mgrwt>
<rscale>  0 0.26870002E+04</rscale>
<asrwt>0</asrwt>
<pdfrwt beam="2">  1        1 0.42046901E+00 0.26870002E+04</pdfrwt>
<pdfrwt beam="1">  1       -1 0.10160491E+00 0.26870002E+04</pdfrwt>
<totfact> 0.74654062E-01</totfact>
</mgrwt>
</event>
<event>
 4    1  0.1321115E-008  0.2279774E+04  0.7816531E-02  0.8485939E-01
         -2   -1    0    0    0  501 -0.00000000000E+00  0.00000000000E+00  0.64090102009E+03  0.64090102009E+03  0.00000000000E+00 0. -1.
          2   -1    0    0  501    0  0.00000000000E+00 -0.00000000000E+00 -0.20273691204E+04  0.20273691204E+04  0.00000000000E+00 0.  1.
    2000013    1    1    2    0    0  0.62567153159E+03 -0.88343234785E+01 -0.77844137528E+03  0.13784099120E+04  0.95000000000E+03 0.  0.
   -2000013    1    1    2    0    0 -0.62567153159E+03  0.88343234785E+01 -0.60802672501E+03  0.12898602285E+04  0.95000000000E+03 0.  0.
<mgrwt>
<rscale>  0 0.22797745E+04</rscale>
<asrwt>0</asrwt>
<pdfrwt beam="2">  1        2 0.31190295E+00 0.22797745E+04</pdfrwt>
<pdfrwt beam="1">  1       -2 0.98600156E-01 0.22797745E+04</pdfrwt>
<totfact> 0.50024389E+00</totfact>
</mgrwt>
</event>
<event>
 4    1  0.1321115E-008  0.2302977E+04  0.7816531E-02  0.8476748E-01
          2   -1    0    0  501    0  0.00000000000E+00  0.00000000000E+00  0.22687066143E+04  0.22687066143E+04  0.00000000000E+00 0.  1.
         -2   -1    0    0    0  501 -0.00000000000E+00 -0.00000000000E+00 -0.58444148769E+03  0.58444148769E+03  0.00000000000E+00 0. -1.
    2000013    1    1    2    0    0 -0.11892329329E+03  0.38210993102E+03  0.14778145018E+04  0.18018286408E+04  0.95000000000E+03 0.  0.
   -2000013    1    1    2    0    0  0.11892329329E+03 -0.38210993102E+03  0.20645062484E+03  0.10513194612E+04  0.95000000000E+03 0.  0.
<mgrwt>
<rscale>  0 0.23029774E+04</rscale>
<asrwt>0</asrwt>
<pdfrwt beam="1">  1        2 0.34903178E+00 0.23029774E+04</pdfrwt>
<pdfrwt beam="2">  1       -2 0.89914076E-01 0.23029774E+04</pdfrwt>
<totfact> 0.45331447E+00</totfact>
</mgrwt>
</event>
<event>
 4    1  0.1321115E-008  0.2335274E+04  0.7816531E-02  0.8464141E-01
         -2   -1    0    0    0  501 -0.00000000000E+00  0.00000000000E+00  0.68577730403E+03  0.68577730403E+03  0.00000000000E+00 0. -1.
          2   -1    0    0  501    0  0.00000000000E+00 -0.00000000000E+00 -0.19880750476E+04  0.19880750476E+04  0.00000000000E+00 0.  1.
    2000013    1    1    2    0    0 -0.51334272072E+03  0.37797531365E+03 -0.91842521332E+03  0.14671029136E+04  0.95000000000E+03 0.  0.
   -2000013    1    1    2    0    0  0.51334272072E+03 -0.37797531365E+03 -0.38387253022E+03  0.12067494380E+04  0.95000000000E+03 0.  0.
<mgrwt>
<rscale>  0 0.23352745E+04</rscale>
<asrwt>0</asrwt>
<pdfrwt beam="2">  1        2 0.30585770E+00 0.23352745E+04</pdfrwt>
<pdfrwt beam="1">  1       -2 0.10550420E+00 0.23352745E+04</pdfrwt>
<totfact> 0.44563493E+00</totfact>
</mgrwt>
</event>
<event>
 4    1  0.1321115E-008  0.3169146E+04  0.7816531E-02  0.8197013E-01
          2   -1    0    0  501    0  0.00000000000E+00  0.00000000000E+00  0.13250928968E+04  0.13250928968E+04  0.00000000000E+00 0.  1.
         -2   -1    0    0    0  501 -0.00000000000E+00 -0.00000000000E+00 -0.18948649532E+04  0.18948649532E+04  0.00000000000E+00 0. -1.
    2000013    1    1    2    0    0  0.43968373819E+03 -0.11895292832E+04 -0.27636196744E+03  0.16084705911E+04  0.95000000000E+03 0.  0.
   -2000013    1    1    2    0    0 -0.43968373819E+03  0.11895292832E+04 -0.29341008893E+03  0.16114872589E+04  0.95000000000E+03 0.  0.
<mgrwt>
<rscale>  0 0.31691463E+04</rscale>
<asrwt>0</asrwt>
<pdfrwt beam="1">  1        2 0.20386045E+00 0.31691463E+04</pdfrwt>
<pdfrwt beam="2">  1       -2 0.29151768E+00 0.31691463E+04</pdfrwt>
<totfact> 0.48327595E-01</totfact>
</mgrwt>
</event>
<event>
 4    1  0.1321115E-008  0.2961996E+04  0.7816531E-02  0.8254667E-01
         -2   -1    0    0    0  501 -0.00000000000E+00  0.00000000000E+00  0.14348110497E+04  0.14348110497E+04  0.00000000000E+00 0. -1.
          2   -1    0    0  501    0  0.00000000000E+00 -0.00000000000E+00 -0.15286721482E+04  0.15286721482E+04  0.00000000000E+00 0.  1.
    2000013    1    1    2    0    0 -0.90647083173E+03 -0.18972436233E+02  0.63810749587E+03  0.14600446905E+04  0.95000000000E+03 0.  0.
   -2000013    1    1    2    0    0  0.90647083173E+03  0.18972436233E+02 -0.73196859447E+03  0.15034385074E+04  0.95000000000E+03 0.  0.
<mgrwt>
<rscale>  0 0.29619964E+04</rscale>
<asrwt>0</asrwt>
<pdfrwt beam="2">  1        2 0.23518033E+00 0.29619964E+04</pdfrwt>
<pdfrwt beam="1">  1       -2 0.22074016E+00 0.29619964E+04</pdfrwt>
<totfact> 0.10268350E+00</totfact>
</mgrwt>
</event>
<event>
 4    1  0.1321115E-008  0.2402380E+04  0.7816531E-02  0.8438613E-01
         -2   -1    0    0    0  501 -0.00000000000E+00  0.00000000000E+00  0.95260076180E+03  0.95260076180E+03  0.00000000000E+00 0. -1.
          2   -1    0    0  501    0  0.00000000000E+00 -0.00000000000E+00 -0.15146510344E+04  0.15146510344E+04  0.00000000000E+00 0.  1.
    2000013    1    1    2    0    0 -0.31710615856E+03 -0.17952280126E+03  0.37462840907E+03  0.10842652797E+04  0.95000000000E+03 0.  0.
   -2000013    1    1    2    0    0  0.31710615856E+03  0.17952280126E+03 -0.93667868162E+03  0.13829865164E+04  0.95000000000E+03 0.  0.
<mgrwt>
<rscale>  0 0.24023803E+04</rscale>
<asrwt>0</asrwt>
<pdfrwt beam="2">  1        2 0.23302324E+00 0.24023803E+04</pdfrwt>
<pdfrwt beam="1">  1       -2 0.14655396E+00 0.24023803E+04</pdfrwt>
<totfact> 0.35681366E+00</totfact>
</mgrwt>
</event>
<event>
 4    1  0.1321115E-008  0.2165090E+04  0.7816531E-02  0.8533101E-01
          2   -1    0    0  501    0  0.00000000000E+00  0.00000000000E+00  0.10746703210E+04  0.10746703210E+04  0.00000000000E+00 0.  1.
         -2   -1    0    0    0  501 -0.00000000000E+00 -0.00000000000E+00 -0.10904770922E+04  0.10904770922E+04  0.00000000000E+00 0. -1.
    2000013    1    1    2    0    0  0.29842738770E+03  0.28409936864E+03 -0.32355718362E+03  0.10848781536E+04  0.95000000000E+03 0.  0.
   -2000013    1    1    2    0    0 -0.29842738770E+03 -0.28409936864E+03  0.30775041235E+03  0.10802692596E+04  0.95000000000E+03 0.  0.
<mgrwt>
<rscale>  0 0.21650897E+04</rscale>
<asrwt>0</asrwt>
<pdfrwt beam="1">  1        2 0.16533390E+00 0.21650897E+04</pdfrwt>
<pdfrwt beam="2">  1       -2 0.16776571E+00 0.21650897E+04</pdfrwt>
<totfact> 0.45783076E+00</totfact>
</mgrwt>
</event>
<event>
 4    1  0.1321115E-008  0.2266712E+04  0.7816531E-02  0.8491163E-01
         -2   -1    0    0    0  501 -0.00000000000E+00  0.00000000000E+00  0.42122128474E+03  0.42122128474E+03  0.00000000000E+00 0. -1.
          2   -1    0    0  501    0  0.00000000000E+00 -0.00000000000E+00 -0.30494548091E+04  0.30494548091E+04  0.00000000000E+00 0.  1.
    2000013    1    1    2    0    0  0.51651179032E+02 -0.57675696005E+03 -0.16449261672E+04  0.19858495741E+04  0.95000000000E+03 0.  0.
   -2000013    1    1    2    0    0 -0.51651179032E+02  0.57675696005E+03 -0.98330735719E+03  0.14848265198E+04  0.95000000000E+03 0.  0.
<mgrwt>
<rscale>  0 0.22667115E+04</rscale>
<asrwt>0</asrwt>
<pdfrwt beam="2">  1        2 0.46914688E+00 0.22667115E+04</pdfrwt>
<pdfrwt beam="1">  1       -2 0.64803276E-01 0.22667115E+04</pdfrwt>
<totfact> 0.32408063E+00</totfact>
</mgrwt>
</event>
<event>
 4    1  0.1321115E-008  0.2117919E+04  0.7816531E-02  0.8553391E-01
         -1   -1    0    0    0  501 -0.00000000000E+00  0.00000000000E+00  0.75501822838E+03  0.75501822838E+03  0.00000000000E+00 0.  1.
          1   -1    0    0  501    0  0.00000000000E+00 -0.00000000000E+00 -0.14852553069E+04  0.14852553069E+04  0.00000000000E+00 0. -1.
    2000013    1    1    2    0    0 -0.41664891811E+03 -0.13815229093E+03 -0.53637446957E+03  0.11759591609E+04  0.95000000000E+03 0.  0.
   -2000013    1    1    2    0    0  0.41664891811E+03  0.13815229093E+03 -0.19386260899E+03  0.10643143744E+04  0.95000000000E+03 0.  0.
<mgrwt>
<rscale>  0 0.21179186E+04</rscale>
<asrwt>0</asrwt>
<pdfrwt beam="2">  1        1 0.22850082E+00 0.21179186E+04</pdfrwt>
<pdfrwt beam="1">  1       -1 0.11615665E+00 0.21179186E+04</pdfrwt>
<totfact> 0.41210340E+00</totfact>
</mgrwt>
</event>
<event>
 4    1  0.1321115E-008  0.1997844E+04  0.7816531E-02  0.8607629E-01
          1   -1    0    0  501    0  0.00000000000E+00  0.00000000000E+00  0.91626524936E+03  0.91626524936E+03  0.00000000000E+00 0. -1.
         -1   -1    0    0    0  501 -0.00000000000E+00 -0.00000000000E+00 -0.10890349401E+04  0.10890349401E+04  0.00000000000E+00 0.  1.
    2000013    1    1    2    0    0 -0.11298065415E+03 -0.20427535964E+03  0.11648784589E+03  0.98517128917E+03  0.95000000000E+03 0.  0.
   -2000013    1    1    2    0    0  0.11298065415E+03  0.20427535964E+03 -0.28925753668E+03  0.10201289003E+04  0.95000000000E+03 0.  0.
<mgrwt>
<rscale>  0 0.19978437E+04</rscale>
<asrwt>0</asrwt>
<pdfrwt beam="1">  1        1 0.14096389E+00 0.19978437E+04</pdfrwt>
<pdfrwt beam="2">  1       -1 0.16754384E+00 0.19978437E+04</pdfrwt>
<totfact> 0.42009330E+00</totfact>
</mgrwt>
</event>
<event>
 4    1  0.1321115E-008  0.1968928E+04  0.7816531E-02  0.8621287E-01
         -2   -1    0    0    0  501 -0.00000000000E+00  0.00000000000E+00  0.32172870292E+03  0.32172870292E+03  0.00000000000E+00 0. -1.
          2   -1    0    0  501    0  0.00000000000E+00 -0.00000000000E+00 -0.30123793864E+04  0.30123793864E+04  0.00000000000E+00 0.  1.
    2000013    1    1    2    0    0 -0.68279805454E+01  0.24918612690E+03 -0.12313711591E+04  0.15750921492E+04  0.95000000000E+03 0.  0.
   -2000013    1    1    2    0    0  0.68279805454E+01 -0.24918612690E+03 -0.14592795244E+04  0.17590159401E+04  0.95000000000E+03 0.  0.
<mgrwt>
<rscale>  0 0.19689275E+04</rscale>
<asrwt>0</asrwt>
<pdfrwt beam="2">  1        2 0.46344296E+00 0.19689275E+04</pdfrwt>
<pdfrwt beam="1">  1       -2 0.49496726E-01 0.19689275E+04</pdfrwt>
<totfact> 0.61702103E+00</totfact>
</mgrwt>
</event>
<event>
 4    1  0.1321115E-008  0.2170787E+04  0.7816531E-02  0.8530686E-01
          2   -1    0    0  501    0  0.00000000000E+00  0.00000000000E+00  0.22138513818E+04  0.22138513818E+04  0.00000000000E+00 0.  1.
         -2   -1    0    0    0  501 -0.00000000000E+00 -0.00000000000E+00 -0.53214020114E+03  0.53214020114E+03  0.00000000000E+00 0. -1.
    2000013    1    1    2    0    0 -0.42928501368E+03  0.28424986265E+03  0.71126069436E+03  0.12936287654E+04  0.95000000000E+03 0.  0.
   -2000013    1    1    2    0    0  0.42928501368E+03 -0.28424986265E+03  0.97045048631E+03  0.14523628175E+04  0.95000000000E+03 0.  0.
<mgrwt>
<rscale>  0 0.21707872E+04</rscale>
<asrwt>0</asrwt>
<pdfrwt beam="1">  1        2 0.34059252E+00 0.21707872E+04</pdfrwt>
<pdfrwt beam="2">  1       -2 0.81867724E-01 0.21707872E+04</pdfrwt>
<totfact> 0.60969781E+00</totfact>
</mgrwt>
</event>
<event>
 4    1  0.1321115E-008  0.1955254E+04  0.7816531E-02  0.8627831E-01
         -2   -1    0    0    0  501 -0.00000000000E+00  0.00000000000E+00  0.14742866894E+04  0.14742866894E+04  0.00000000000E+00 0. -1.
          2   -1    0    0  501    0  0.00000000000E+00 -0.00000000000E+00 -0.64828284567E+03  0.64828284567E+03  0.00000000000E+00 0.  1.
    2000013    1    1    2    0    0  0.93108445156E+02 -0.19762070718E+03  0.33226246926E+03  0.10298647848E+04  0.95000000000E+03 0.  0.
   -2000013    1    1    2    0    0 -0.93108445156E+02  0.19762070718E+03  0.49374137452E+03  0.10927047503E+04  0.95000000000E+03 0.  0.
<mgrwt>
<rscale>  0 0.19552542E+04</rscale>
<asrwt>0</asrwt>
<pdfrwt beam="2">  1        2 0.99735823E-01 0.19552542E+04</pdfrwt>
<pdfrwt beam="1">  1       -2 0.22681334E+00 0.19552542E+04</pdfrwt>
<totfact> 0.37635566E+00</totfact>
</mgrwt>
</event>
<event>
 4    1  0.1321115E-008  0.3312748E+04  0.7816531E-02  0.8159659E-01
         -2   -1    0    0    0  501 -0.00000000000E+00  0.00000000000E+00  0.91301509283E+03  0.91301509283E+03  0.00000000000E+00 0. -1.
          2   -1    0    0  501    0  0.00000000000E+00 -0.00000000000E+00 -0.30049608549E+04  0.30049608549E+04  0.00000000000E+00 0.  1.
    2000013    1    1    2    0    0  0.10484465817E+04  0.64380213393E+03 -0.36929548122E+03  0.15976860063E+04  0.95000000000E+03 0.  0.
   -2000013    1    1    2    0    0 -0.10484465817E+04 -0.64380213393E+03 -0.17226502808E+04  0.23202899414E+04  0.95000000000E+03 0.  0.
<mgrwt>
<rscale>  0 0.33127479E+04</rscale>
<asrwt>0</asrwt>
<pdfrwt beam="2">  1        2 0.46230166E+00 0.33127479E+04</pdfrwt>
<pdfrwt beam="1">  1       -2 0.14046386E+00 0.33127479E+04</pdfrwt>
<totfact> 0.51321479E-01</totfact>
</mgrwt>
</event>
<event>
 4    1  0.1321115E-008  0.2447494E+04  0.7816531E-02  0.8421933E-01
          2   -1    0    0  501    0  0.00000000000E+00  0.00000000000E+00  0.25505250860E+04  0.25505250860E+04  0.00000000000E+00 0.  1.
         -2   -1    0    0    0  501 -0.00000000000E+00 -0.00000000000E+00 -0.58715635412E+03  0.58715635412E+03  0.00000000000E+00 0. -1.
    2000013    1    1    2    0    0  0.69039394351E+02  0.64982987235E+03  0.15071652796E+04  0.18976544683E+04  0.95000000000E+03 0.  0.
   -2000013    1    1    2    0    0 -0.69039394351E+02 -0.64982987235E+03  0.45620345228E+03  0.12400269718E+04  0.95000000000E+03 0.  0.
<mgrwt>
<rscale>  0 0.24474942E+04</rscale>
<asrwt>0</asrwt>
<pdfrwt beam="1">  1        2 0.39238847E+00 0.24474942E+04</pdfrwt>
<pdfrwt beam="2">  1       -2 0.90331748E-01 0.24474942E+04</pdfrwt>
<totfact> 0.30531180E+00</totfact>
</mgrwt>
</event>
<event>
 4    1  0.1321115E-008  0.2382633E+04  0.7816531E-02  0.8446034E-01
          1   -1    0    0  501    0  0.00000000000E+00  0.00000000000E+00  0.13957475001E+04  0.13957475001E+04  0.00000000000E+00 0.  1.
         -1   -1    0    0    0  501 -0.00000000000E+00 -0.00000000000E+00 -0.10168280637E+04  0.10168280637E+04  0.00000000000E+00 0. -1.
    2000013    1    1    2    0    0 -0.25068245270E+03  0.67370895600E+03  0.18629336179E+03  0.12057904736E+04  0.95000000000E+03 0.  0.
   -2000013    1    1    2    0    0  0.25068245270E+03 -0.67370895600E+03  0.19262607455E+03  0.12067850903E+04  0.95000000000E+03 0.  0.
<mgrwt>
<rscale>  0 0.23826332E+04</rscale>
<asrwt>0</asrwt>
<pdfrwt beam="1">  1        1 0.21473039E+00 0.23826332E+04</pdfrwt>
<pdfrwt beam="2">  1       -1 0.15643509E+00 0.23826332E+04</pdfrwt>
<totfact> 0.21601796E+00</totfact>
</mgrwt>
</event>
<event>
 4    1  0.1321115E-008  0.3289973E+04  0.7816531E-02  0.8165451E-01
         -2   -1    0    0    0  501 -0.00000000000E+00  0.00000000000E+00  0.71832908672E+03  0.71832908672E+03  0.00000000000E+00 0. -1.
          2   -1    0    0  501    0  0.00000000000E+00 -0.00000000000E+00 -0.37670485660E+04  0.37670485660E+04  0.00000000000E+00 0.  1.
    2000013    1    1    2    0    0  0.35608624846E+03  0.11856598116E+04 -0.81477161770E+03  0.17603804686E+04  0.95000000000E+03 0.  0.
   -2000013    1    1    2    0    0 -0.35608624846E+03 -0.11856598116E+04 -0.22339478616E+04  0.27249971841E+04  0.95000000000E+03 0.  0.
<mgrwt>
<rscale>  0 0.32899730E+04</rscale>
<asrwt>0</asrwt>
<pdfrwt beam="2">  1        2 0.57954594E+00 0.32899730E+04</pdfrwt>
<pdfrwt beam="1">  1       -2 0.11051217E+00 0.32899730E+04</pdfrwt>
<totfact> 0.28197811E-01</totfact>
</mgrwt>
</event>
<event>
 4    1  0.1321115E-008  0.2592177E+04  0.7816531E-02  0.8370863E-01
          2   -1    0    0  501    0  0.00000000000E+00  0.00000000000E+00  0.31869194662E+04  0.31869194662E+04  0.00000000000E+00 0.  1.
         -2   -1    0    0    0  501 -0.00000000000E+00 -0.00000000000E+00 -0.52710650105E+03  0.52710650105E+03  0.00000000000E+00 0. -1.
    2000013    1    1    2    0    0  0.48192466725E+02 -0.87770990111E+03  0.12322165249E+04  0.17870519715E+04  0.95000000000E+03 0.  0.
   -2000013    1    1    2    0    0 -0.48192466725E+02  0.87770990111E+03  0.14275964402E+04  0.19269739958E+04  0.95000000000E+03 0.  0.
<mgrwt>
<rscale>  0 0.25921774E+04</rscale>
<asrwt>0</asrwt>
<pdfrwt beam="1">  1        2 0.49029529E+00 0.25921774E+04</pdfrwt>
<pdfrwt beam="2">  1       -2 0.81093310E-01 0.25921774E+04</pdfrwt>
<totfact> 0.15695600E+00</totfact>
</mgrwt>
</event>
<event>
 4    1  0.1321115E-008  0.2528851E+04  0.7816531E-02  0.8392779E-01
          2   -1    0    0  501    0  0.00000000000E+00  0.00000000000E+00  0.24491523578E+04  0.24491523578E+04  0.00000000000E+00 0.  1.
         -2   -1    0    0    0  501 -0.00000000000E+00 -0.00000000000E+00 -0.65278581292E+03  0.65278581292E+03  0.00000000000E+00 0. -1.
    2000013    1    1    2    0    0  0.78630892856E+03  0.89797034488E+02  0.12225462835E+04  0.17388112761E+04  0.95000000000E+03 0.  0.
   -2000013    1    1    2    0    0 -0.78630892856E+03 -0.89797034488E+02  0.57382026137E+03  0.13631268946E+04  0.95000000000E+03 0.  0.
<mgrwt>
<rscale>  0 0.25288511E+04</rscale>
<asrwt>0</asrwt>
<pdfrwt beam="1">  1        2 0.37679267E+00 0.25288511E+04</pdfrwt>
<pdfrwt beam="2">  1       -2 0.10042859E+00 0.25288511E+04</pdfrwt>
<totfact> 0.27095243E+00</totfact>
</mgrwt>
</event>
<event>
 4    1  0.1321115E-008  0.2545305E+04  0.7816531E-02  0.8387021E-01
          2   -1    0    0  501    0  0.00000000000E+00  0.00000000000E+00  0.22223168991E+04  0.22223168991E+04  0.00000000000E+00 0.  1.
         -2   -1    0    0    0  501 -0.00000000000E+00 -0.00000000000E+00 -0.72880911564E+03  0.72880911564E+03  0.00000000000E+00 0. -1.
    2000013    1    1    2    0    0  0.67767334922E+03 -0.13583063729E+03  0.17939400439E+03  0.11884331446E+04  0.95000000000E+03 0.  0.
   -2000013    1    1    2    0    0 -0.67767334922E+03  0.13583063729E+03  0.13141137791E+04  0.17626928702E+04  0.95000000000E+03 0.  0.
<mgrwt>
<rscale>  0 0.25453053E+04</rscale>
<asrwt>0</asrwt>
<pdfrwt beam="1">  1        2 0.34189490E+00 0.25453053E+04</pdfrwt>
<pdfrwt beam="2">  1       -2 0.11212448E+00 0.25453053E+04</pdfrwt>
<totfact> 0.27953429E+00</totfact>
</mgrwt>
</event>
<event>
 4    1  0.1321115E-008  0.2640520E+04  0.7816531E-02  0.8354566E-01
         -2   -1    0    0    0  501 -0.00000000000E+00  0.00000000000E+00  0.85227398788E+03  0.85227398788E+03  0.00000000000E+00 0. -1.
          2   -1    0    0  501    0  0.00000000000E+00 -0.00000000000E+00 -0.20452187918E+04  0.20452187918E+04  0.00000000000E+00 0.  1.
    2000013    1    1    2    0    0  0.56627487292E+03  0.68786225119E+03 -0.35917463841E+03  0.13510470492E+04  0.95000000000E+03 0.  0.
   -2000013    1    1    2    0    0 -0.56627487292E+03 -0.68786225119E+03 -0.83377016547E+03  0.15464457304E+04  0.95000000000E+03 0.  0.
<mgrwt>
<rscale>  0 0.26405202E+04</rscale>
<asrwt>0</asrwt>
<pdfrwt beam="2">  1        2 0.31464904E+00 0.26405202E+04</pdfrwt>
<pdfrwt beam="1">  1       -2 0.13111908E+00 0.26405202E+04</pdfrwt>
<totfact> 0.23620547E+00</totfact>
</mgrwt>
</event>
<event>
 4    1  0.1321115E-008  0.2227135E+04  0.7816531E-02  0.8507218E-01
         -2   -1    0    0    0  501 -0.00000000000E+00  0.00000000000E+00  0.56250252692E+03  0.56250252692E+03  0.00000000000E+00 0. -1.
          2   -1    0    0  501    0  0.00000000000E+00 -0.00000000000E+00 -0.22044917587E+04  0.22044917587E+04  0.00000000000E+00 0.  1.
    2000013    1    1    2    0    0  0.23857908742E+03 -0.34548379570E+02 -0.14777285457E+04  0.17732160687E+04  0.95000000000E+03 0.  0.
   -2000013    1    1    2    0    0 -0.23857908742E+03  0.34548379570E+02 -0.16426068608E+03  0.99377821695E+03  0.95000000000E+03 0.  0.
<mgrwt>
<rscale>  0 0.22271346E+04</rscale>
<asrwt>0</asrwt>
<pdfrwt beam="2">  1        2 0.33915257E+00 0.22271346E+04</pdfrwt>
<pdfrwt beam="1">  1       -2 0.86538852E-01 0.22271346E+04</pdfrwt>
<totfact> 0.54142842E+00</totfact>
</mgrwt>
</event>
<event>
 4    1  0.1321115E-008  0.4052405E+04  0.7816531E-02  0.7994057E-01
         -1   -1    0    0    0  501 -0.00000000000E+00  0.00000000000E+00  0.17127549506E+04  0.17127549506E+04  0.00000000000E+00 0. -1.
          1   -1    0    0  501    0  0.00000000000E+00 -0.00000000000E+00 -0.23970135247E+04  0.23970135247E+04  0.00000000000E+00 0.  1.
    2000013    1    1    2    0    0  0.12949515893E+04  0.10757601682E+04 -0.95804583794E+03  0.21574316642E+04  0.95000000000E+03 0.  0.
   -2000013    1    1    2    0    0 -0.12949515893E+04 -0.10757601682E+04  0.27378726385E+03  0.19523368111E+04  0.95000000000E+03 0.  0.
<mgrwt>
<rscale>  0 0.40524051E+04</rscale>
<asrwt>0</asrwt>
<pdfrwt beam="2">  1        1 0.36877131E+00 0.40524051E+04</pdfrwt>
<pdfrwt beam="1">  1       -1 0.26350076E+00 0.40524051E+04</pdfrwt>
<totfact> 0.70835239E-02</totfact>
</mgrwt>
</event>
<event>
 4    1  0.1321115E-008  0.2281768E+04  0.7816531E-02  0.8485144E-01
         -2   -1    0    0    0  501 -0.00000000000E+00  0.00000000000E+00  0.43019780870E+03  0.43019780870E+03  0.00000000000E+00 0. -1.
          2   -1    0    0  501    0  0.00000000000E+00 -0.00000000000E+00 -0.30256239444E+04  0.30256239444E+04  0.00000000000E+00 0.  1.
    2000013    1    1    2    0    0  0.56075437219E+02  0.50885005164E+03 -0.18583861661E+04  0.21489932462E+04  0.95000000000E+03 0.  0.
   -2000013    1    1    2    0    0 -0.56075437219E+02 -0.50885005164E+03 -0.73703996957E+03  0.13068285069E+04  0.95000000000E+03 0.  0.
<mgrwt>
<rscale>  0 0.22817684E+04</rscale>
<asrwt>0</asrwt>
<pdfrwt beam="2">  1        2 0.46548060E+00 0.22817684E+04</pdfrwt>
<pdfrwt beam="1">  1       -2 0.66184279E-01 0.22817684E+04</pdfrwt>
<totfact> 0.32016702E+00</totfact>
</mgrwt>
</event>
<event>
 4    1  0.1321115E-008  0.2698301E+04  0.7816531E-02  0.8335556E-01
         -1   -1    0    0    0  501 -0.00000000000E+00  0.00000000000E+00  0.22056786917E+04  0.22056786917E+04  0.00000000000E+00 0. -1.
          1   -1    0    0  501    0  0.00000000000E+00 -0.00000000000E+00 -0.82523677487E+03  0.82523677487E+03  0.00000000000E+00 0.  1.
    2000013    1    1    2    0    0  0.25986808898E+03 -0.78775553550E+03  0.12284726480E+04  0.17606065018E+04  0.95000000000E+03 0.  0.
   -2000013    1    1    2    0    0 -0.25986808898E+03  0.78775553550E+03  0.15196926889E+03  0.12703089648E+04  0.95000000000E+03 0.  0.
<mgrwt>
<rscale>  0 0.26983011E+04</rscale>
<asrwt>0</asrwt>
<pdfrwt beam="2">  1        1 0.12695950E+00 0.26983011E+04</pdfrwt>
<pdfrwt beam="1">  1       -1 0.33933518E+00 0.26983011E+04</pdfrwt>
<totfact> 0.33557729E-01</totfact>
</mgrwt>
</event>
<event>
 4    1  0.1321115E-008  0.3192978E+04  0.7816531E-02  0.8190674E-01
          2   -1    0    0  501    0  0.00000000000E+00  0.00000000000E+00  0.15711351419E+04  0.15711351419E+04  0.00000000000E+00 0.  1.
         -2   -1    0    0    0  501 -0.00000000000E+00 -0.00000000000E+00 -0.16222520019E+04  0.16222520019E+04  0.00000000000E+00 0. -1.
    2000013    1    1    2    0    0  0.53721044401E+03 -0.11257321115E+04 -0.32627832044E+03  0.16015072246E+04  0.95000000000E+03 0.  0.
   -2000013    1    1    2    0    0 -0.53721044401E+03  0.11257321115E+04  0.27516146042E+03  0.15918799192E+04  0.95000000000E+03 0.  0.
<mgrwt>
<rscale>  0 0.31929780E+04</rscale>
<asrwt>0</asrwt>
<pdfrwt beam="1">  1        2 0.24171310E+00 0.31929780E+04</pdfrwt>
<pdfrwt beam="2">  1       -2 0.24957723E+00 0.31929780E+04</pdfrwt>
<totfact> 0.63051451E-01</totfact>
</mgrwt>
</event>
<event>
 4    1  0.1321115E-008  0.2545910E+04  0.7816531E-02  0.8386810E-01
          2   -1    0    0  501    0  0.00000000000E+00  0.00000000000E+00  0.13842186464E+04  0.13842186464E+04  0.00000000000E+00 0.  1.
         -2   -1    0    0    0  501 -0.00000000000E+00 -0.00000000000E+00 -0.11706345896E+04  0.11706345896E+04  0.00000000000E+00 0. -1.
    2000013    1    1    2    0    0 -0.87822399040E+02  0.83716569437E+03  0.97307350231E+01  0.12693123575E+04  0.95000000000E+03 0.  0.
   -2000013    1    1    2    0    0  0.87822399040E+02 -0.83716569437E+03  0.20385332183E+03  0.12855408786E+04  0.95000000000E+03 0.  0.
<mgrwt>
<rscale>  0 0.25459098E+04</rscale>
<asrwt>0</asrwt>
<pdfrwt beam="1">  1        2 0.21295672E+00 0.25459098E+04</pdfrwt>
<pdfrwt beam="2">  1       -2 0.18009763E+00 0.25459098E+04</pdfrwt>
<totfact> 0.23770739E+00</totfact>
</mgrwt>
</event>
<event>
 4    1  0.1321115E-008  0.2445792E+04  0.7816531E-02  0.8422556E-01
          2   -1    0    0  501    0  0.00000000000E+00  0.00000000000E+00  0.23184587855E+04  0.23184587855E+04  0.00000000000E+00 0.  1.
         -2   -1    0    0    0  501 -0.00000000000E+00 -0.00000000000E+00 -0.64502967815E+03  0.64502967815E+03  0.00000000000E+00 0. -1.
    2000013    1    1    2    0    0  0.76656811959E+03 -0.57775838199E+02  0.78239187583E+03  0.14510691840E+04  0.95000000000E+03 0.  0.
   -2000013    1    1    2    0    0 -0.76656811959E+03  0.57775838199E+02  0.89103723154E+03  0.15124192796E+04  0.95000000000E+03 0.  0.
<mgrwt>
<rscale>  0 0.24457921E+04</rscale>
<asrwt>0</asrwt>
<pdfrwt beam="1">  1        2 0.35668596E+00 0.24457921E+04</pdfrwt>
<pdfrwt beam="2">  1       -2 0.99235337E-01 0.24457921E+04</pdfrwt>
<totfact> 0.33343103E+00</totfact>
</mgrwt>
</event>
<event>
 4    1  0.1321115E-008  0.2225157E+04  0.7816531E-02  0.8508029E-01
         -2   -1    0    0    0  501 -0.00000000000E+00  0.00000000000E+00  0.29835568309E+03  0.29835568309E+03  0.00000000000E+00 0. -1.
          2   -1    0    0  501    0  0.00000000000E+00 -0.00000000000E+00 -0.41488443381E+04  0.41488443381E+04  0.00000000000E+00 0.  1.
    2000013    1    1    2    0    0  0.12352512891E+03 -0.40299449518E+03 -0.27188377969E+04  0.29107115945E+04  0.95000000000E+03 0.  0.
   -2000013    1    1    2    0    0 -0.12352512891E+03  0.40299449518E+03 -0.11316508581E+04  0.15364884267E+04  0.95000000000E+03 0.  0.
<mgrwt>
<rscale>  0 0.22251573E+04</rscale>
<asrwt>0</asrwt>
<pdfrwt beam="2">  1        2 0.63828367E+00 0.22251573E+04</pdfrwt>
<pdfrwt beam="1">  1       -2 0.45900880E-01 0.22251573E+04</pdfrwt>
<totfact> 0.10648827E+00</totfact>
</mgrwt>
</event>
<event>
 4    1  0.1321115E-008  0.2202006E+04  0.7816531E-02  0.8517593E-01
          1   -1    0    0  501    0  0.00000000000E+00  0.00000000000E+00  0.13601823327E+04  0.13601823327E+04  0.00000000000E+00 0.  1.
         -1   -1    0    0    0  501 -0.00000000000E+00 -0.00000000000E+00 -0.89120992092E+03  0.89120992092E+03  0.00000000000E+00 0. -1.
    2000013    1    1    2    0    0 -0.18298845668E+03  0.51997547864E+03  0.31267830078E+03  0.11419837974E+04  0.95000000000E+03 0.  0.
   -2000013    1    1    2    0    0  0.18298845668E+03 -0.51997547864E+03  0.15629411099E+03  0.11094084562E+04  0.95000000000E+03 0.  0.
<mgrwt>
<rscale>  0 0.22020063E+04</rscale>
<asrwt>0</asrwt>
<pdfrwt beam="1">  1        1 0.20925882E+00 0.22020063E+04</pdfrwt>
<pdfrwt beam="2">  1       -1 0.13710922E+00 0.22020063E+04</pdfrwt>
<totfact> 0.33069813E+00</totfact>
</mgrwt>
</event>
<event>
 4    1  0.1321115E-008  0.2626601E+04  0.7816531E-02  0.8359221E-01
         -1   -1    0    0    0  501 -0.00000000000E+00  0.00000000000E+00  0.80351591187E+03  0.80351591187E+03  0.00000000000E+00 0. -1.
          1   -1    0    0  501    0  0.00000000000E+00 -0.00000000000E+00 -0.21465134255E+04  0.21465134255E+04  0.00000000000E+00 0.  1.
    2000013    1    1    2    0    0  0.44932038305E+03  0.73841418884E+03 -0.97931456658E+03  0.16151474673E+04  0.95000000000E+03 0.  0.
   -2000013    1    1    2    0    0 -0.44932038305E+03 -0.73841418884E+03 -0.36368294701E+03  0.13348818700E+04  0.95000000000E+03 0.  0.
<mgrwt>
<rscale>  0 0.26266006E+04</rscale>
<asrwt>0</asrwt>
<pdfrwt beam="2">  1        1 0.33023284E+00 0.26266006E+04</pdfrwt>
<pdfrwt beam="1">  1       -1 0.12361783E+00 0.26266006E+04</pdfrwt>
<totfact> 0.11975015E+00</totfact>
</mgrwt>
</event>
<event>
 4    1  0.1321115E-008  0.2128114E+04  0.7816531E-02  0.8548959E-01
          2   -1    0    0  501    0  0.00000000000E+00  0.00000000000E+00  0.39540230129E+04  0.39540230129E+04  0.00000000000E+00 0. -1.
         -2   -1    0    0    0  501 -0.00000000000E+00 -0.00000000000E+00 -0.28634575243E+03  0.28634575243E+03  0.00000000000E+00 0.  1.
    2000013    1    1    2    0    0 -0.37843067370E+03 -0.22940951504E+03  0.22005929175E+04  0.24374059344E+04  0.95000000000E+03 0.  0.
   -2000013    1    1    2    0    0  0.37843067370E+03  0.22940951504E+03  0.14670843429E+04  0.18029628309E+04  0.95000000000E+03 0.  0.
<mgrwt>
<rscale>  0 0.21281144E+04</rscale>
<asrwt>0</asrwt>
<pdfrwt beam="1">  1        2 0.60831119E+00 0.21281144E+04</pdfrwt>
<pdfrwt beam="2">  1       -2 0.44053195E-01 0.21281144E+04</pdfrwt>
<totfact> 0.16869961E+00</totfact>
</mgrwt>
</event>
<event>
 4    1  0.1321115E-008  0.2373277E+04  0.7816531E-02  0.8449576E-01
         -2   -1    0    0    0  501 -0.00000000000E+00  0.00000000000E+00  0.34477312629E+04  0.34477312629E+04  0.00000000000E+00 0. -1.
          2   -1    0    0  501    0  0.00000000000E+00 -0.00000000000E+00 -0.40841668560E+03  0.40841668560E+03  0.00000000000E+00 0.  1.
    2000013    1    1    2    0    0  0.69363075338E+03 -0.14717056445E+03  0.14332483576E+04  0.18599687233E+04  0.95000000000E+03 0.  0.
   -2000013    1    1    2    0    0 -0.69363075338E+03  0.14717056445E+03  0.16060662197E+04  0.19961792252E+04  0.95000000000E+03 0.  0.
<mgrwt>
<rscale>  0 0.23732770E+04</rscale>
<asrwt>0</asrwt>
<pdfrwt beam="2">  1        2 0.62833338E-01 0.23732770E+04</pdfrwt>
<pdfrwt beam="1">  1       -2 0.53042018E+00 0.23732770E+04</pdfrwt>
<totfact> 0.75556836E-02</totfact>
</mgrwt>
</event>
<event>
 4    1  0.1321115E-008  0.2726582E+04  0.7816531E-02  0.8326431E-01
          2   -1    0    0  501    0  0.00000000000E+00  0.00000000000E+00  0.13437785954E+04  0.13437785954E+04  0.00000000000E+00 0.  1.
         -2   -1    0    0    0  501 -0.00000000000E+00 -0.00000000000E+00 -0.13830868267E+04  0.13830868267E+04  0.00000000000E+00 0. -1.
    2000013    1    1    2    0    0 -0.56674461385E+03 -0.79065848587E+03  0.78957219045E+02  0.13620112118E+04  0.95000000000E+03 0.  0.
   -2000013    1    1    2    0    0  0.56674461385E+03  0.79065848587E+03 -0.11826545031E+03  0.13648542103E+04  0.95000000000E+03 0.  0.
<mgrwt>
<rscale>  0 0.27265821E+04</rscale>
<asrwt>0</asrwt>
<pdfrwt beam="1">  1        2 0.20673517E+00 0.27265821E+04</pdfrwt>
<pdfrwt beam="2">  1       -2 0.21278259E+00 0.27265821E+04</pdfrwt>
<totfact> 0.14997856E+00</totfact>
</mgrwt>
</event>
<event>
 4    1  0.1321115E-008  0.2357684E+04  0.7816531E-02  0.8455518E-01
         -2   -1    0    0    0  501 -0.00000000000E+00  0.00000000000E+00  0.65597605213E+03  0.65597605213E+03  0.00000000000E+00 0. -1.
          2   -1    0    0  501    0  0.00000000000E+00 -0.00000000000E+00 -0.21184742028E+04  0.21184742028E+04  0.00000000000E+00 0.  1.
    2000013    1    1    2    0    0  0.56033621937E+03  0.41551551670E+03 -0.75855724441E+03  0.14016201042E+04  0.95000000000E+03 0.  0.
   -2000013    1    1    2    0    0 -0.56033621937E+03 -0.41551551670E+03 -0.70394090629E+03  0.13728301508E+04  0.95000000000E+03 0.  0.
<mgrwt>
<rscale>  0 0.23576839E+04</rscale>
<asrwt>0</asrwt>
<pdfrwt beam="2">  1        2 0.32591911E+00 0.23576839E+04</pdfrwt>
<pdfrwt beam="1">  1       -2 0.10091939E+00 0.23576839E+04</pdfrwt>
<totfact> 0.41840442E+00</totfact>
</mgrwt>
</event>
<event>
 4    1  0.1321115E-008  0.2651223E+04  0.7816531E-02  0.8351007E-01
          2   -1    0    0  501    0  0.00000000000E+00  0.00000000000E+00  0.14080796443E+04  0.14080796443E+04  0.00000000000E+00 0.  1.
         -2   -1    0    0    0  501 -0.00000000000E+00 -0.00000000000E+00 -0.12479733865E+04  0.12479733865E+04  0.00000000000E+00 0. -1.
    2000013    1    1    2    0    0 -0.43120079307E+03  0.81529624210E+03  0.14423102301E+03  0.13318951439E+04  0.95000000000E+03 0.  0.
   -2000013    1    1    2    0    0  0.43120079307E+03 -0.81529624210E+03  0.15875234856E+02  0.13241578869E+04  0.95000000000E+03 0.  0.
<mgrwt>
<rscale>  0 0.26512231E+04</rscale>
<asrwt>0</asrwt>
<pdfrwt beam="1">  1        2 0.21662764E+00 0.26512231E+04</pdfrwt>
<pdfrwt beam="2">  1       -2 0.19199591E+00 0.26512231E+04</pdfrwt>
<totfact> 0.18956355E+00</totfact>
</mgrwt>
</event>
<event>
 4    1  0.1321115E-008  0.2208084E+04  0.7816531E-02  0.8515071E-01
          2   -1    0    0  501    0  0.00000000000E+00  0.00000000000E+00  0.23436061676E+04  0.23436061676E+04  0.00000000000E+00 0.  1.
         -2   -1    0    0    0  501 -0.00000000000E+00 -0.00000000000E+00 -0.52009978093E+03  0.52009978093E+03  0.00000000000E+00 0. -1.
    2000013    1    1    2    0    0  0.16175066591E+03 -0.50415826581E+03  0.11580660984E+04  0.15886962967E+04  0.95000000000E+03 0.  0.
   -2000013    1    1    2    0    0 -0.16175066591E+03  0.50415826581E+03  0.66544028820E+03  0.12750096518E+04  0.95000000000E+03 0.  0.
<mgrwt>
<rscale>  0 0.22080843E+04</rscale>
<asrwt>0</asrwt>
<pdfrwt beam="1">  1        2 0.36055479E+00 0.22080843E+04</pdfrwt>
<pdfrwt beam="2">  1       -2 0.80015352E-01 0.22080843E+04</pdfrwt>
<totfact> 0.54038061E+00</totfact>
</mgrwt>
</event>
<event>
 4    1  0.1321115E-008  0.2208645E+04  0.7816531E-02  0.8514839E-01
          2   -1    0    0  501    0  0.00000000000E+00  0.00000000000E+00  0.10859929481E+04  0.10859929481E+04  0.00000000000E+00 0.  1.
         -2   -1    0    0    0  501 -0.00000000000E+00 -0.00000000000E+00 -0.11229610452E+04  0.11229610452E+04  0.00000000000E+00 0. -1.
    2000013    1    1    2    0    0  0.37210473425E+03  0.34265358375E+03 -0.26581277147E+03  0.11086161830E+04  0.95000000000E+03 0.  0.
   -2000013    1    1    2    0    0 -0.37210473425E+03 -0.34265358375E+03  0.22884467440E+03  0.11003378103E+04  0.95000000000E+03 0.  0.
<mgrwt>
<rscale>  0 0.22086446E+04</rscale>
<asrwt>0</asrwt>
<pdfrwt beam="1">  1        2 0.16707584E+00 0.22086446E+04</pdfrwt>
<pdfrwt beam="2">  1       -2 0.17276324E+00 0.22086446E+04</pdfrwt>
<totfact> 0.41357100E+00</totfact>
</mgrwt>
</event>
<event>
 4    1  0.1321115E-008  0.2368695E+04  0.7816531E-02  0.8451318E-01
         -2   -1    0    0    0  501 -0.00000000000E+00  0.00000000000E+00  0.91783768052E+03  0.91783768052E+03  0.00000000000E+00 0.  1.
          2   -1    0    0  501    0  0.00000000000E+00 -0.00000000000E+00 -0.15282423607E+04  0.15282423607E+04  0.00000000000E+00 0. -1.
    2000013    1    1    2    0    0  0.66060839877E+03  0.18319393408E+03 -0.48470568559E+03  0.12678340095E+04  0.95000000000E+03 0.  0.
   -2000013    1    1    2    0    0 -0.66060839877E+03 -0.18319393408E+03 -0.12569899458E+03  0.11782460317E+04  0.95000000000E+03 0.  0.
<mgrwt>
<rscale>  0 0.23686945E+04</rscale>
<asrwt>0</asrwt>
<pdfrwt beam="2">  1        2 0.23511421E+00 0.23686945E+04</pdfrwt>
<pdfrwt beam="1">  1       -2 0.14120580E+00 0.23686945E+04</pdfrwt>
<totfact> 0.38752689E+00</totfact>
</mgrwt>
</event>
<event>
 4    1  0.1321115E-008  0.2796197E+04  0.7816531E-02  0.8304450E-01
          2   -1    0    0  501    0  0.00000000000E+00  0.00000000000E+00  0.30709406425E+04  0.30709406425E+04  0.00000000000E+00 0.  1.
         -2   -1    0    0    0  501 -0.00000000000E+00 -0.00000000000E+00 -0.63650830792E+03  0.63650830792E+03  0.00000000000E+00 0. -1.
    2000013    1    1    2    0    0  0.66209168324E+03 -0.58916422379E+03  0.19019446842E+04  0.23033396322E+04  0.95000000000E+03 0.  0.
   -2000013    1    1    2    0    0 -0.66209168324E+03  0.58916422379E+03  0.53248765038E+03  0.14041093182E+04  0.95000000000E+03 0.  0.
<mgrwt>
<rscale>  0 0.27961969E+04</rscale>
<asrwt>0</asrwt>
<pdfrwt beam="1">  1        2 0.47245240E+00 0.27961969E+04</pdfrwt>
<pdfrwt beam="2">  1       -2 0.97924357E-01 0.27961969E+04</pdfrwt>
<totfact> 0.11860271E+00</totfact>
</mgrwt>
</event>
<event>
 4    1  0.1321115E-008  0.2596329E+04  0.7816531E-02  0.8369449E-01
          1   -1    0    0  501    0  0.00000000000E+00  0.00000000000E+00  0.30932738819E+04  0.30932738819E+04  0.00000000000E+00 0.  1.
         -1   -1    0    0    0  501 -0.00000000000E+00 -0.00000000000E+00 -0.54480509799E+03  0.54480509799E+03  0.00000000000E+00 0. -1.
    2000013    1    1    2    0    0  0.69050201308E+03 -0.32032573651E+03  0.64238605562E+03  0.13764306928E+04  0.95000000000E+03 0.  0.
   -2000013    1    1    2    0    0 -0.69050201308E+03  0.32032573651E+03  0.19060827283E+04  0.22616482871E+04  0.95000000000E+03 0.  0.
<mgrwt>
<rscale>  0 0.25963292E+04</rscale>
<asrwt>0</asrwt>
<pdfrwt beam="1">  1        1 0.47588828E+00 0.25963292E+04</pdfrwt>
<pdfrwt beam="2">  1       -1 0.83816171E-01 0.25963292E+04</pdfrwt>
<totfact> 0.63462969E-01</totfact>
</mgrwt>
</event>
<event>
 4    1  0.1321115E-008  0.2674829E+04  0.7816531E-02  0.8343219E-01
         -2   -1    0    0    0  501 -0.00000000000E+00  0.00000000000E+00  0.12426526293E+04  0.12426526293E+04  0.00000000000E+00 0. -1.
          2   -1    0    0  501    0  0.00000000000E+00 -0.00000000000E+00 -0.14394022083E+04  0.14394022083E+04  0.00000000000E+00 0.  1.
    2000013    1    1    2    0    0  0.35932527216E+03 -0.86124915814E+03  0.25701885630E+02  0.13319254298E+04  0.95000000000E+03 0.  0.
   -2000013    1    1    2    0    0 -0.35932527216E+03  0.86124915814E+03 -0.22245146463E+03  0.13501294078E+04  0.95000000000E+03 0.  0.
<mgrwt>
<rscale>  0 0.26748285E+04</rscale>
<asrwt>0</asrwt>
<pdfrwt beam="2">  1        2 0.22144649E+00 0.26748285E+04</pdfrwt>
<pdfrwt beam="1">  1       -2 0.19117733E+00 0.26748285E+04</pdfrwt>
<totfact> 0.18386789E+00</totfact>
</mgrwt>
</event>
<event>
 4    1  0.1321115E-008  0.2154711E+04  0.7816531E-02  0.8537518E-01
         -2   -1    0    0    0  501 -0.00000000000E+00  0.00000000000E+00  0.63904123204E+03  0.63904123204E+03  0.00000000000E+00 0. -1.
          2   -1    0    0  501    0  0.00000000000E+00 -0.00000000000E+00 -0.18163069886E+04  0.18163069886E+04  0.00000000000E+00 0.  1.
    2000013    1    1    2    0    0 -0.91241045743E+02 -0.49210166793E+03 -0.48860048312E+03  0.11797115801E+04  0.95000000000E+03 0.  0.
   -2000013    1    1    2    0    0  0.91241045743E+02  0.49210166793E+03 -0.68866527345E+03  0.12756366406E+04  0.95000000000E+03 0.  0.
<mgrwt>
<rscale>  0 0.21547112E+04</rscale>
<asrwt>0</asrwt>
<pdfrwt beam="2">  1        2 0.27943184E+00 0.21547112E+04</pdfrwt>
<pdfrwt beam="1">  1       -2 0.98314037E-01 0.21547112E+04</pdfrwt>
<totfact> 0.66667484E+00</totfact>
</mgrwt>
</event>
<event>
 4    1  0.1321115E-008  0.2964501E+04  0.7816531E-02  0.8253941E-01
         -2   -1    0    0    0  501 -0.00000000000E+00  0.00000000000E+00  0.88411044741E+03  0.88411044741E+03  0.00000000000E+00 0. -1.
          2   -1    0    0  501    0  0.00000000000E+00 -0.00000000000E+00 -0.24850595978E+04  0.24850595978E+04  0.00000000000E+00 0.  1.
    2000013    1    1    2    0    0  0.21661630174E+03 -0.78254661717E+03 -0.17063090474E+04  0.21150159327E+04  0.95000000000E+03 0.  0.
   -2000013    1    1    2    0    0 -0.21661630174E+03  0.78254661717E+03  0.10535989696E+03  0.12541541126E+04  0.95000000000E+03 0.  0.
<mgrwt>
<rscale>  0 0.29645014E+04</rscale>
<asrwt>0</asrwt>
<pdfrwt beam="2">  1        2 0.38231687E+00 0.29645014E+04</pdfrwt>
<pdfrwt beam="1">  1       -2 0.13601699E+00 0.29645014E+04</pdfrwt>
<totfact> 0.11796539E+00</totfact>
</mgrwt>
</event>
<event>
 4    1  0.1321115E-008  0.2958850E+04  0.7816531E-02  0.8255580E-01
          2   -1    0    0  501    0  0.00000000000E+00  0.00000000000E+00  0.19290069922E+04  0.19290069922E+04  0.00000000000E+00 0.  1.
         -2   -1    0    0    0  501 -0.00000000000E+00 -0.00000000000E+00 -0.11346243950E+04  0.11346243950E+04  0.00000000000E+00 0. -1.
    2000013    1    1    2    0    0  0.32774453831E+02 -0.95620101193E+03 -0.23330954716E+03  0.13683303274E+04  0.95000000000E+03 0.  0.
   -2000013    1    1    2    0    0 -0.32774453831E+02  0.95620101193E+03  0.10276921443E+04  0.16953010599E+04  0.95000000000E+03 0.  0.
<mgrwt>
<rscale>  0 0.29588500E+04</rscale>
<asrwt>0</asrwt>
<pdfrwt beam="1">  1        2 0.29677031E+00 0.29588500E+04</pdfrwt>
<pdfrwt beam="2">  1       -2 0.17455760E+00 0.29588500E+04</pdfrwt>
<totfact> 0.12437989E+00</totfact>
</mgrwt>
</event>
<event>
 4    1  0.1321115E-008  0.2567688E+04  0.7816531E-02  0.8379260E-01
          2   -1    0    0  501    0  0.00000000000E+00  0.00000000000E+00  0.18829404669E+04  0.18829404669E+04  0.00000000000E+00 0.  1.
         -2   -1    0    0    0  501 -0.00000000000E+00 -0.00000000000E+00 -0.87536233277E+03  0.87536233277E+03  0.00000000000E+00 0. -1.
    2000013    1    1    2    0    0  0.74528020727E+02  0.48276683661E+03 -0.26121251784E+03  0.10997046076E+04  0.95000000000E+03 0.  0.
   -2000013    1    1    2    0    0 -0.74528020727E+02 -0.48276683661E+03  0.12687906520E+04  0.16585981922E+04  0.95000000000E+03 0.  0.
<mgrwt>
<rscale>  0 0.25676878E+04</rscale>
<asrwt>0</asrwt>
<pdfrwt beam="1">  1        2 0.28968315E+00 0.25676878E+04</pdfrwt>
<pdfrwt beam="2">  1       -2 0.13467113E+00 0.25676878E+04</pdfrwt>
<totfact> 0.27327871E+00</totfact>
</mgrwt>
</event>
<event>
 4    1  0.1321115E-008  0.2346197E+04  0.7816531E-02  0.8459926E-01
         -2   -1    0    0    0  501 -0.00000000000E+00  0.00000000000E+00  0.79867396200E+03  0.79867396200E+03  0.00000000000E+00 0. -1.
          2   -1    0    0  501    0  0.00000000000E+00 -0.00000000000E+00 -0.17230565739E+04  0.17230565739E+04  0.00000000000E+00 0.  1.
    2000013    1    1    2    0    0 -0.67428723796E+03 -0.89224502779E+02 -0.34927867080E+03  0.12194752482E+04  0.95000000000E+03 0.  0.
   -2000013    1    1    2    0    0  0.67428723796E+03  0.89224502779E+02 -0.57510394109E+03  0.13022552877E+04  0.95000000000E+03 0.  0.
<mgrwt>
<rscale>  0 0.23461973E+04</rscale>
<asrwt>0</asrwt>
<pdfrwt beam="2">  1        2 0.26508563E+00 0.23461973E+04</pdfrwt>
<pdfrwt beam="1">  1       -2 0.12287292E+00 0.23461973E+04</pdfrwt>
<totfact> 0.43052087E+00</totfact>
</mgrwt>
</event>
<event>
 4    1  0.1321115E-008  0.2298478E+04  0.7816531E-02  0.8478522E-01
          2   -1    0    0  501    0  0.00000000000E+00  0.00000000000E+00  0.82058484734E+03  0.82058484734E+03  0.00000000000E+00 0.  1.
         -2   -1    0    0    0  501 -0.00000000000E+00 -0.00000000000E+00 -0.16095228945E+04  0.16095228945E+04  0.00000000000E+00 0. -1.
    2000013    1    1    2    0    0 -0.31153698449E+03 -0.46573039723E+03 -0.73590285182E+03  0.13259008647E+04  0.95000000000E+03 0.  0.
   -2000013    1    1    2    0    0  0.31153698449E+03  0.46573039723E+03 -0.53035195331E+02  0.11042068772E+04  0.95000000000E+03 0.  0.
<mgrwt>
<rscale>  0 0.22984778E+04</rscale>
<asrwt>0</asrwt>
<pdfrwt beam="1">  1        2 0.12624382E+00 0.22984778E+04</pdfrwt>
<pdfrwt beam="2">  1       -2 0.24761891E+00 0.22984778E+04</pdfrwt>
<totfact> 0.20061597E+00</totfact>
</mgrwt>
</event>
<event>
 4    1  0.1321115E-008  0.2253380E+04  0.7816531E-02  0.8496533E-01
         -4   -1    0    0    0  501 -0.00000000000E+00  0.00000000000E+00  0.89078834787E+03  0.89078834787E+03  0.00000000000E+00 0. -1.
          4   -1    0    0  501    0  0.00000000000E+00 -0.00000000000E+00 -0.14250642933E+04  0.14250642933E+04  0.00000000000E+00 0.  1.
    2000013    1    1    2    0    0 -0.66920446767E+02 -0.60203342943E+03 -0.27005770309E+03  0.11585999134E+04  0.95000000000E+03 0.  0.
   -2000013    1    1    2    0    0  0.66920446767E+02  0.60203342943E+03 -0.26421824235E+03  0.11572527278E+04  0.95000000000E+03 0.  0.
<mgrwt>
<rscale>  0 0.22533803E+04</rscale>
<asrwt>0</asrwt>
<pdfrwt beam="2">  1        4 0.21924066E+00 0.22533803E+04</pdfrwt>
<pdfrwt beam="1">  1       -4 0.13704436E+00 0.22533803E+04</pdfrwt>
<totfact> 0.67776746E-02</totfact>
</mgrwt>
</event>
<event>
 4    1  0.1321115E-008  0.2339745E+04  0.7816531E-02  0.8462413E-01
         -2   -1    0    0    0  501 -0.00000000000E+00  0.00000000000E+00  0.43061126071E+03  0.43061126071E+03  0.00000000000E+00 0. -1.
          2   -1    0    0  501    0  0.00000000000E+00 -0.00000000000E+00 -0.31782771777E+04  0.31782771777E+04  0.00000000000E+00 0.  1.
    2000013    1    1    2    0    0  0.93796278519E+02  0.63404740308E+03 -0.10111554002E+04  0.15283157705E+04  0.95000000000E+03 0.  0.
   -2000013    1    1    2    0    0 -0.93796278519E+02 -0.63404740308E+03 -0.17365105168E+04  0.20805726679E+04  0.95000000000E+03 0.  0.
<mgrwt>
<rscale>  0 0.23397452E+04</rscale>
<asrwt>0</asrwt>
<pdfrwt beam="2">  1        2 0.48896574E+00 0.23397452E+04</pdfrwt>
<pdfrwt beam="1">  1       -2 0.66247884E-01 0.23397452E+04</pdfrwt>
<totfact> 0.25398172E+00</totfact>
</mgrwt>
</event>
<event>
 4    1  0.1321115E-008  0.2343156E+04  0.7816531E-02  0.8461097E-01
         -2   -1    0    0    0  501 -0.00000000000E+00  0.00000000000E+00  0.75123995742E+03  0.75123995742E+03  0.00000000000E+00 0. -1.
          2   -1    0    0  501    0  0.00000000000E+00 -0.00000000000E+00 -0.18271058717E+04  0.18271058717E+04  0.00000000000E+00 0.  1.
    2000013    1    1    2    0    0 -0.32608437173E+03 -0.48505116751E+03 -0.14349978551E+03  0.11245878539E+04  0.95000000000E+03 0.  0.
   -2000013    1    1    2    0    0  0.32608437173E+03  0.48505116751E+03 -0.93236612879E+03  0.14537579753E+04  0.95000000000E+03 0.  0.
<mgrwt>
<rscale>  0 0.23431559E+04</rscale>
<asrwt>0</asrwt>
<pdfrwt beam="2">  1        2 0.28109321E+00 0.23431559E+04</pdfrwt>
<pdfrwt beam="1">  1       -2 0.11557538E+00 0.23431559E+04</pdfrwt>
<totfact> 0.43864358E+00</totfact>
</mgrwt>
</event>
<event>
 4    1  0.1321115E-008  0.2740579E+04  0.7816531E-02  0.8321957E-01
         -2   -1    0    0    0  501 -0.00000000000E+00  0.00000000000E+00  0.85737613776E+03  0.85737613776E+03  0.00000000000E+00 0. -1.
          2   -1    0    0  501    0  0.00000000000E+00 -0.00000000000E+00 -0.21900468626E+04  0.21900468626E+04  0.00000000000E+00 0.  1.
    2000013    1    1    2    0    0 -0.49179651574E+03 -0.38470027985E+03  0.18439687410E+03  0.11516771793E+04  0.95000000000E+03 0.  0.
   -2000013    1    1    2    0    0  0.49179651574E+03  0.38470027985E+03 -0.15170675990E+04  0.18957458211E+04  0.95000000000E+03 0.  0.
<mgrwt>
<rscale>  0 0.27405794E+04</rscale>
<asrwt>0</asrwt>
<pdfrwt beam="2">  1        2 0.33693029E+00 0.27405794E+04</pdfrwt>
<pdfrwt beam="1">  1       -2 0.13190402E+00 0.27405794E+04</pdfrwt>
<totfact> 0.19143148E+00</totfact>
</mgrwt>
</event>
<event>
 4    1  0.1321115E-008  0.2528229E+04  0.7816531E-02  0.8392997E-01
         -2   -1    0    0    0  501 -0.00000000000E+00  0.00000000000E+00  0.74555731581E+03  0.74555731581E+03  0.00000000000E+00 0. -1.
          2   -1    0    0  501    0  0.00000000000E+00 -0.00000000000E+00 -0.21433443852E+04  0.21433443852E+04  0.00000000000E+00 0.  1.
    2000013    1    1    2    0    0 -0.79249331748E+03  0.24873377250E+03 -0.61359934580E+03  0.14031814940E+04  0.95000000000E+03 0.  0.
   -2000013    1    1    2    0    0  0.79249331748E+03 -0.24873377250E+03 -0.78418772359E+03  0.14857202071E+04  0.95000000000E+03 0.  0.
<mgrwt>
<rscale>  0 0.25282295E+04</rscale>
<asrwt>0</asrwt>
<pdfrwt beam="2">  1        2 0.32974529E+00 0.25282295E+04</pdfrwt>
<pdfrwt beam="1">  1       -2 0.11470113E+00 0.25282295E+04</pdfrwt>
<totfact> 0.29337168E+00</totfact>
</mgrwt>
</event>
<event>
 4    1  0.1321115E-008  0.2268629E+04  0.7816531E-02  0.8490394E-01
          2   -1    0    0  501    0  0.00000000000E+00  0.00000000000E+00  0.98603147501E+03  0.98603147501E+03  0.00000000000E+00 0.  1.
         -2   -1    0    0    0  501 -0.00000000000E+00 -0.00000000000E+00 -0.13048969844E+04  0.13048969844E+04  0.00000000000E+00 0. -1.
    2000013    1    1    2    0    0  0.37846478340E+03 -0.28661336973E+03  0.24296455280E+03  0.10894560982E+04  0.95000000000E+03 0.  0.
   -2000013    1    1    2    0    0 -0.37846478340E+03  0.28661336973E+03 -0.56183006219E+03  0.12014723612E+04  0.95000000000E+03 0.  0.
<mgrwt>
<rscale>  0 0.22686291E+04</rscale>
<asrwt>0</asrwt>
<pdfrwt beam="1">  1        2 0.15169715E+00 0.22686291E+04</pdfrwt>
<pdfrwt beam="2">  1       -2 0.20075338E+00 0.22686291E+04</pdfrwt>
<totfact> 0.30729268E+00</totfact>
</mgrwt>
</event>
<event>
 4    1  0.1321115E-008  0.2991655E+04  0.7816531E-02  0.8246118E-01
          2   -1    0    0  501    0  0.00000000000E+00  0.00000000000E+00  0.20335092769E+04  0.20335092769E+04  0.00000000000E+00 0.  1.
         -2   -1    0    0    0  501 -0.00000000000E+00 -0.00000000000E+00 -0.11003147492E+04  0.11003147492E+04  0.00000000000E+00 0. -1.
    2000013    1    1    2    0    0 -0.88133266393E+03  0.23998257330E+03  0.12077967285E+04  0.17876274325E+04  0.95000000000E+03 0.  0.
   -2000013    1    1    2    0    0  0.88133266393E+03 -0.23998257330E+03 -0.27460220086E+03  0.13461965936E+04  0.95000000000E+03 0.  0.
<mgrwt>
<rscale>  0 0.29916552E+04</rscale>
<asrwt>0</asrwt>
<pdfrwt beam="1">  1        2 0.31284758E+00 0.29916552E+04</pdfrwt>
<pdfrwt beam="2">  1       -2 0.16927919E+00 0.29916552E+04</pdfrwt>
<totfact> 0.11824750E+00</totfact>
</mgrwt>
</event>
<event>
 4    1  0.1321115E-008  0.2026538E+04  0.7816531E-02  0.8594313E-01
         -2   -1    0    0    0  501 -0.00000000000E+00  0.00000000000E+00  0.24783533107E+04  0.24783533107E+04  0.00000000000E+00 0. -1.
          2   -1    0    0  501    0  0.00000000000E+00 -0.00000000000E+00 -0.41427269032E+03  0.41427269032E+03  0.00000000000E+00 0.  1.
    2000013    1    1    2    0    0  0.21476876984E+03 -0.63884788628E+02  0.14203466876E+04  0.17233953707E+04  0.95000000000E+03 0.  0.
   -2000013    1    1    2    0    0 -0.21476876984E+03  0.63884788628E+02  0.64373393278E+03  0.11692306303E+04  0.95000000000E+03 0.  0.
<mgrwt>
<rscale>  0 0.20265380E+04</rscale>
<asrwt>0</asrwt>
<pdfrwt beam="2">  1        2 0.63734262E-01 0.20265380E+04</pdfrwt>
<pdfrwt beam="1">  1       -2 0.38128512E+00 0.20265380E+04</pdfrwt>
<totfact> 0.69783143E-01</totfact>
</mgrwt>
</event>
<event>
 4    1  0.1321115E-008  0.2270202E+04  0.7816531E-02  0.8489764E-01
         -2   -1    0    0    0  501 -0.00000000000E+00  0.00000000000E+00  0.95142913206E+03  0.95142913206E+03  0.00000000000E+00 0. -1.
          2   -1    0    0  501    0  0.00000000000E+00 -0.00000000000E+00 -0.13542304495E+04  0.13542304495E+04  0.00000000000E+00 0.  1.
    2000013    1    1    2    0    0 -0.45315757810E+03 -0.40403990874E+03 -0.33519377375E+03  0.11762035982E+04  0.95000000000E+03 0.  0.
   -2000013    1    1    2    0    0  0.45315757810E+03  0.40403990874E+03 -0.67607543709E+02  0.11294559834E+04  0.95000000000E+03 0.  0.
<mgrwt>
<rscale>  0 0.22702020E+04</rscale>
<asrwt>0</asrwt>
<pdfrwt beam="2">  1        2 0.20834315E+00 0.22702020E+04</pdfrwt>
<pdfrwt beam="1">  1       -2 0.14637371E+00 0.22702020E+04</pdfrwt>
<totfact> 0.44671981E+00</totfact>
</mgrwt>
</event>
<event>
 4    1  0.1321115E-008  0.2340681E+04  0.7816531E-02  0.8462052E-01
          2   -1    0    0  501    0  0.00000000000E+00  0.00000000000E+00  0.20557869889E+04  0.20557869889E+04  0.00000000000E+00 0.  1.
         -2   -1    0    0    0  501 -0.00000000000E+00 -0.00000000000E+00 -0.66626401778E+03  0.66626401778E+03  0.00000000000E+00 0. -1.
    2000013    1    1    2    0    0  0.65063715164E+03  0.85989051485E+02  0.91686027596E+03  0.14744000765E+04  0.95000000000E+03 0.  0.
   -2000013    1    1    2    0    0 -0.65063715164E+03 -0.85989051485E+02  0.47266269515E+03  0.12476509301E+04  0.95000000000E+03 0.  0.
<mgrwt>
<rscale>  0 0.23406810E+04</rscale>
<asrwt>0</asrwt>
<pdfrwt beam="1">  1        2 0.31627492E+00 0.23406810E+04</pdfrwt>
<pdfrwt beam="2">  1       -2 0.10250216E+00 0.23406810E+04</pdfrwt>
<totfact> 0.43763521E+00</totfact>
</mgrwt>
</event>
<event>
 4    1  0.1321115E-008  0.3325918E+04  0.7816531E-02  0.8156332E-01
          1   -1    0    0  501    0  0.00000000000E+00  0.00000000000E+00  0.15590677093E+04  0.15590677093E+04  0.00000000000E+00 0. -1.
         -1   -1    0    0    0  501 -0.00000000000E+00 -0.00000000000E+00 -0.17737736135E+04  0.17737736135E+04  0.00000000000E+00 0.  1.
    2000013    1    1    2    0    0  0.82988354499E+03  0.55362524776E+03 -0.10408098111E+04  0.17265551471E+04  0.95000000000E+03 0.  0.
   -2000013    1    1    2    0    0 -0.82988354499E+03 -0.55362524776E+03  0.82610390695E+03  0.16062861757E+04  0.95000000000E+03 0.  0.
<mgrwt>
<rscale>  0 0.33259183E+04</rscale>
<asrwt>0</asrwt>
<pdfrwt beam="1">  1        1 0.23985657E+00 0.33259183E+04</pdfrwt>
<pdfrwt beam="2">  1       -1 0.27288825E+00 0.33259183E+04</pdfrwt>
<totfact> 0.24391659E-01</totfact>
</mgrwt>
</event>
<event>
 4    1  0.1321115E-008  0.2476051E+04  0.7816531E-02  0.8411568E-01
         -2   -1    0    0    0  501 -0.00000000000E+00  0.00000000000E+00  0.11331102797E+04  0.11331102797E+04  0.00000000000E+00 0. -1.
          2   -1    0    0  501    0  0.00000000000E+00 -0.00000000000E+00 -0.13526544059E+04  0.13526544059E+04  0.00000000000E+00 0.  1.
    2000013    1    1    2    0    0  0.61064219210E+03 -0.22067419564E+03  0.34877543477E+03  0.12023831716E+04  0.95000000000E+03 0.  0.
   -2000013    1    1    2    0    0 -0.61064219210E+03  0.22067419564E+03 -0.56831956096E+03  0.12833815141E+04  0.95000000000E+03 0.  0.
<mgrwt>
<rscale>  0 0.24760506E+04</rscale>
<asrwt>0</asrwt>
<pdfrwt beam="2">  1        2 0.20810068E+00 0.24760506E+04</pdfrwt>
<pdfrwt beam="1">  1       -2 0.17432466E+00 0.24760506E+04</pdfrwt>
<totfact> 0.27352695E+00</totfact>
</mgrwt>
</event>
<event>
 4    1  0.1321115E-008  0.2167808E+04  0.7816531E-02  0.8531948E-01
         -2   -1    0    0    0  501 -0.00000000000E+00  0.00000000000E+00  0.45644382468E+03  0.45644382468E+03  0.00000000000E+00 0. -1.
          2   -1    0    0  501    0  0.00000000000E+00 -0.00000000000E+00 -0.25739145759E+04  0.25739145759E+04  0.00000000000E+00 0.  1.
    2000013    1    1    2    0    0  0.51249034356E+03  0.91946636119E+02 -0.11080965086E+04  0.15496704193E+04  0.95000000000E+03 0.  0.
   -2000013    1    1    2    0    0 -0.51249034356E+03 -0.91946636119E+02 -0.10093742426E+04  0.14806879812E+04  0.95000000000E+03 0.  0.
<mgrwt>
<rscale>  0 0.21678076E+04</rscale>
<asrwt>0</asrwt>
<pdfrwt beam="2">  1        2 0.39598686E+00 0.21678076E+04</pdfrwt>
<pdfrwt beam="1">  1       -2 0.70222126E-01 0.21678076E+04</pdfrwt>
<totfact> 0.53348564E+00</totfact>
</mgrwt>
</event>
<event>
 4    1  0.1321115E-008  0.2704115E+04  0.7816531E-02  0.8333671E-01
          2   -1    0    0  501    0  0.00000000000E+00  0.00000000000E+00  0.39396589540E+04  0.39396589540E+04  0.00000000000E+00 0.  1.
         -2   -1    0    0    0  501 -0.00000000000E+00 -0.00000000000E+00 -0.46401480085E+03  0.46401480085E+03  0.00000000000E+00 0. -1.
    2000013    1    1    2    0    0 -0.90249497551E+03 -0.32763112620E+03  0.18371574542E+04  0.22802383312E+04  0.95000000000E+03 0.  0.
   -2000013    1    1    2    0    0  0.90249497551E+03  0.32763112620E+03  0.16384866990E+04  0.21234354237E+04  0.95000000000E+03 0.  0.
<mgrwt>
<rscale>  0 0.27041154E+04</rscale>
<asrwt>0</asrwt>
<pdfrwt beam="1">  1        2 0.60610136E+00 0.27041154E+04</pdfrwt>
<pdfrwt beam="2">  1       -2 0.71386895E-01 0.27041154E+04</pdfrwt>
<totfact> 0.59804273E-01</totfact>
</mgrwt>
</event>
<event>
 4    1  0.1321115E-008  0.2600408E+04  0.7816531E-02  0.8368063E-01
          2   -1    0    0  501    0  0.00000000000E+00  0.00000000000E+00  0.15332403191E+04  0.15332403191E+04  0.00000000000E+00 0.  1.
         -2   -1    0    0    0  501 -0.00000000000E+00 -0.00000000000E+00 -0.11025863358E+04  0.11025863358E+04  0.00000000000E+00 0. -1.
    2000013    1    1    2    0    0  0.30858711418E+03  0.83222694170E+03  0.22973808852E+03  0.13202678815E+04  0.95000000000E+03 0.  0.
   -2000013    1    1    2    0    0 -0.30858711418E+03 -0.83222694170E+03  0.20091589475E+03  0.13155587734E+04  0.95000000000E+03 0.  0.
<mgrwt>
<rscale>  0 0.26004075E+04</rscale>
<asrwt>0</asrwt>
<pdfrwt beam="1">  1        2 0.23588312E+00 0.26004075E+04</pdfrwt>
<pdfrwt beam="2">  1       -2 0.16962867E+00 0.26004075E+04</pdfrwt>
<totfact> 0.23063005E+00</totfact>
</mgrwt>
</event>
<event>
 4    1  0.1321115E-008  0.2203199E+04  0.7816531E-02  0.8517098E-01
          2   -1    0    0  501    0  0.00000000000E+00  0.00000000000E+00  0.12701004442E+04  0.12701004442E+04  0.00000000000E+00 0.  1.
         -2   -1    0    0    0  501 -0.00000000000E+00 -0.00000000000E+00 -0.95545280088E+03  0.95545280088E+03  0.00000000000E+00 0. -1.
    2000013    1    1    2    0    0 -0.48458199215E+03 -0.21254626636E+03 -0.20603673729E+02  0.10876213191E+04  0.95000000000E+03 0.  0.
   -2000013    1    1    2    0    0  0.48458199215E+03  0.21254626636E+03  0.33525131702E+03  0.11379319259E+04  0.95000000000E+03 0.  0.
<mgrwt>
<rscale>  0 0.22031986E+04</rscale>
<asrwt>0</asrwt>
<pdfrwt beam="1">  1        2 0.19540007E+00 0.22031986E+04</pdfrwt>
<pdfrwt beam="2">  1       -2 0.14699274E+00 0.22031986E+04</pdfrwt>
<totfact> 0.49724973E+00</totfact>
</mgrwt>
</event>
<event>
 4    1  0.1321115E-008  0.2315200E+04  0.7816531E-02  0.8471952E-01
         -2   -1    0    0    0  501 -0.00000000000E+00  0.00000000000E+00  0.10629071857E+04  0.10629071857E+04  0.00000000000E+00 0. -1.
          2   -1    0    0  501    0  0.00000000000E+00 -0.00000000000E+00 -0.12607290371E+04  0.12607290371E+04  0.00000000000E+00 0.  1.
    2000013    1    1    2    0    0 -0.62382289869E+03 -0.21981126804E+03 -0.10706149366E+03  0.11625120068E+04  0.95000000000E+03 0.  0.
   -2000013    1    1    2    0    0  0.62382289869E+03  0.21981126804E+03 -0.90760357770E+02  0.11611242160E+04  0.95000000000E+03 0.  0.
<mgrwt>
<rscale>  0 0.23152002E+04</rscale>
<asrwt>0</asrwt>
<pdfrwt beam="2">  1        2 0.19395831E+00 0.23152002E+04</pdfrwt>
<pdfrwt beam="1">  1       -2 0.16352418E+00 0.23152002E+04</pdfrwt>
<totfact> 0.37461270E+00</totfact>
</mgrwt>
</event>
<event>
 4    1  0.1321115E-008  0.2458772E+04  0.7816531E-02  0.8417822E-01
         -2   -1    0    0    0  501 -0.00000000000E+00  0.00000000000E+00  0.27562425138E+04  0.27562425138E+04  0.00000000000E+00 0. -1.
          2   -1    0    0  501    0  0.00000000000E+00 -0.00000000000E+00 -0.54835165689E+03  0.54835165689E+03  0.00000000000E+00 0.  1.
    2000013    1    1    2    0    0 -0.64040628102E+03  0.35109623638E+03  0.73464715257E+03  0.14055586828E+04  0.95000000000E+03 0.  0.
   -2000013    1    1    2    0    0  0.64040628102E+03 -0.35109623638E+03  0.14732437043E+04  0.18990354879E+04  0.95000000000E+03 0.  0.
<mgrwt>
<rscale>  0 0.24587722E+04</rscale>
<asrwt>0</asrwt>
<pdfrwt beam="2">  1        2 0.84361795E-01 0.24587722E+04</pdfrwt>
<pdfrwt beam="1">  1       -2 0.42403730E+00 0.24587722E+04</pdfrwt>
<totfact> 0.25495428E-01</totfact>
</mgrwt>
</event>
<event>
 4    1  0.1321115E-008  0.2569297E+04  0.7816531E-02  0.8378706E-01
         -2   -1    0    0    0  501 -0.00000000000E+00  0.00000000000E+00  0.10104021413E+04  0.10104021413E+04  0.00000000000E+00 0. -1.
          2   -1    0    0  501    0  0.00000000000E+00 -0.00000000000E+00 -0.16333312835E+04  0.16333312835E+04  0.00000000000E+00 0.  1.
    2000013    1    1    2    0    0 -0.62531645670E+03  0.58285062737E+03 -0.17696455182E+03  0.12901751732E+04  0.95000000000E+03 0.  0.
   -2000013    1    1    2    0    0  0.62531645670E+03 -0.58285062737E+03 -0.44596459035E+03  0.13535582517E+04  0.95000000000E+03 0.  0.
<mgrwt>
<rscale>  0 0.25692967E+04</rscale>
<asrwt>0</asrwt>
<pdfrwt beam="2">  1        2 0.25128174E+00 0.25692967E+04</pdfrwt>
<pdfrwt beam="1">  1       -2 0.15544648E+00 0.25692967E+04</pdfrwt>
<totfact> 0.25812178E+00</totfact>
</mgrwt>
</event>
<event>
 4    1  0.1321115E-008  0.2282446E+04  0.7816531E-02  0.8484875E-01
         -2   -1    0    0    0  501 -0.00000000000E+00  0.00000000000E+00  0.34477212891E+03  0.34477212891E+03  0.00000000000E+00 0. -1.
          2   -1    0    0  501    0  0.00000000000E+00 -0.00000000000E+00 -0.37775377123E+04  0.37775377123E+04  0.00000000000E+00 0.  1.
    2000013    1    1    2    0    0 -0.23722114800E+02  0.59358402164E+03 -0.21078719356E+04  0.23871591540E+04  0.95000000000E+03 0.  0.
   -2000013    1    1    2    0    0  0.23722114800E+02 -0.59358402164E+03 -0.13248936478E+04  0.17351506873E+04  0.95000000000E+03 0.  0.
<mgrwt>
<rscale>  0 0.22824458E+04</rscale>
<asrwt>0</asrwt>
<pdfrwt beam="2">  1        2 0.58115964E+00 0.22824458E+04</pdfrwt>
<pdfrwt beam="1">  1       -2 0.53041867E-01 0.22824458E+04</pdfrwt>
<totfact> 0.15612640E+00</totfact>
</mgrwt>
</event>
<event>
 4    1  0.1321115E-008  0.2715344E+04  0.7816531E-02  0.8330043E-01
          2   -1    0    0  501    0  0.00000000000E+00  0.00000000000E+00  0.10087581406E+04  0.10087581406E+04  0.00000000000E+00 0.  1.
         -2   -1    0    0    0  501 -0.00000000000E+00 -0.00000000000E+00 -0.18272703828E+04  0.18272703828E+04  0.00000000000E+00 0. -1.
    2000013    1    1    2    0    0  0.23607505149E+03 -0.62898860772E+03  0.32141954955E+03  0.12071323976E+04  0.95000000000E+03 0.  0.
   -2000013    1    1    2    0    0 -0.23607505149E+03  0.62898860772E+03 -0.11399317918E+04  0.16288961257E+04  0.95000000000E+03 0.  0.
<mgrwt>
<rscale>  0 0.27153445E+04</rscale>
<asrwt>0</asrwt>
<pdfrwt beam="1">  1        2 0.15519356E+00 0.27153445E+04</pdfrwt>
<pdfrwt beam="2">  1       -2 0.28111852E+00 0.27153445E+04</pdfrwt>
<totfact> 0.90314293E-01</totfact>
</mgrwt>
</event>
<event>
 4    1  0.1321115E-008  0.2828072E+04  0.7816531E-02  0.8294606E-01
         -2   -1    0    0    0  501 -0.00000000000E+00  0.00000000000E+00  0.65520704656E+03  0.65520704656E+03  0.00000000000E+00 0. -1.
          2   -1    0    0  501    0  0.00000000000E+00 -0.00000000000E+00 -0.30517040162E+04  0.30517040162E+04  0.00000000000E+00 0.  1.
    2000013    1    1    2    0    0  0.10323063081E+04 -0.67488397467E+02 -0.98372070084E+03  0.17147645362E+04  0.95000000000E+03 0.  0.
   -2000013    1    1    2    0    0 -0.10323063081E+04  0.67488397467E+02 -0.14127762689E+04  0.19921465266E+04  0.95000000000E+03 0.  0.
<mgrwt>
<rscale>  0 0.28280721E+04</rscale>
<asrwt>0</asrwt>
<pdfrwt beam="2">  1        2 0.46949293E+00 0.28280721E+04</pdfrwt>
<pdfrwt beam="1">  1       -2 0.10080108E+00 0.28280721E+04</pdfrwt>
<totfact> 0.11360283E+00</totfact>
</mgrwt>
</event>
<event>
 4    1  0.1321115E-008  0.2335930E+04  0.7816531E-02  0.8463888E-01
          2   -1    0    0  501    0  0.00000000000E+00  0.00000000000E+00  0.11074620427E+04  0.11074620427E+04  0.00000000000E+00 0.  1.
         -2   -1    0    0    0  501 -0.00000000000E+00 -0.00000000000E+00 -0.12317736213E+04  0.12317736213E+04  0.00000000000E+00 0. -1.
    2000013    1    1    2    0    0  0.60793351811E+03  0.18994917223E+03 -0.29908872433E+03  0.11822089136E+04  0.95000000000E+03 0.  0.
   -2000013    1    1    2    0    0 -0.60793351811E+03 -0.18994917223E+03  0.17477714577E+03  0.11570267504E+04  0.95000000000E+03 0.  0.
<mgrwt>
<rscale>  0 0.23359302E+04</rscale>
<asrwt>0</asrwt>
<pdfrwt beam="1">  1        2 0.17037878E+00 0.23359302E+04</pdfrwt>
<pdfrwt beam="2">  1       -2 0.18950363E+00 0.23359302E+04</pdfrwt>
<totfact> 0.30433344E+00</totfact>
</mgrwt>
</event>
<event>
 4    1  0.1321115E-008  0.2283236E+04  0.7816531E-02  0.8484560E-01
          2   -1    0    0  501    0  0.00000000000E+00  0.00000000000E+00  0.32297423206E+04  0.32297423206E+04  0.00000000000E+00 0.  1.
         -2   -1    0    0    0  501 -0.00000000000E+00 -0.00000000000E+00 -0.40352822061E+03  0.40352822061E+03  0.00000000000E+00 0. -1.
    2000013    1    1    2    0    0 -0.51864616931E+03  0.35451547458E+03  0.15375641493E+04  0.19134467811E+04  0.95000000000E+03 0.  0.
   -2000013    1    1    2    0    0  0.51864616931E+03 -0.35451547458E+03  0.12886499507E+04  0.17198237602E+04  0.95000000000E+03 0.  0.
<mgrwt>
<rscale>  0 0.22832365E+04</rscale>
<asrwt>0</asrwt>
<pdfrwt beam="1">  1        2 0.49688342E+00 0.22832365E+04</pdfrwt>
<pdfrwt beam="2">  1       -2 0.62081267E-01 0.22832365E+04</pdfrwt>
<totfact> 0.27159457E+00</totfact>
</mgrwt>
</event>
<event>
 4    1  0.1321115E-008  0.2420336E+04  0.7816531E-02  0.8431929E-01
         -2   -1    0    0    0  501 -0.00000000000E+00  0.00000000000E+00  0.15590123298E+04  0.15590123298E+04  0.00000000000E+00 0. -1.
          2   -1    0    0  501    0  0.00000000000E+00 -0.00000000000E+00 -0.93938121761E+03  0.93938121761E+03  0.00000000000E+00 0.  1.
    2000013    1    1    2    0    0 -0.31880233988E+03  0.67739754282E+03  0.26977623778E+03  0.12392665498E+04  0.95000000000E+03 0.  0.
   -2000013    1    1    2    0    0  0.31880233988E+03 -0.67739754282E+03  0.34985487437E+03  0.12591269976E+04  0.95000000000E+03 0.  0.
<mgrwt>
<rscale>  0 0.24203363E+04</rscale>
<asrwt>0</asrwt>
<pdfrwt beam="2">  1        2 0.14452019E+00 0.24203363E+04</pdfrwt>
<pdfrwt beam="1">  1       -2 0.23984805E+00 0.24203363E+04</pdfrwt>
<totfact> 0.18385507E+00</totfact>
</mgrwt>
</event>
<event>
 4    1  0.1321115E-008  0.2628331E+04  0.7816531E-02  0.8358641E-01
         -2   -1    0    0    0  501 -0.00000000000E+00  0.00000000000E+00  0.21492987452E+04  0.21492987452E+04  0.00000000000E+00 0. -1.
          2   -1    0    0  501    0  0.00000000000E+00 -0.00000000000E+00 -0.80353242666E+03  0.80353242666E+03  0.00000000000E+00 0.  1.
    2000013    1    1    2    0    0  0.23857688934E+03 -0.61863627314E+03 -0.24117690221E+02  0.11587542593E+04  0.95000000000E+03 0.  0.
   -2000013    1    1    2    0    0 -0.23857688934E+03  0.61863627314E+03  0.13698840088E+04  0.17940769125E+04  0.95000000000E+03 0.  0.
<mgrwt>
<rscale>  0 0.26283312E+04</rscale>
<asrwt>0</asrwt>
<pdfrwt beam="2">  1        2 0.12362037E+00 0.26283312E+04</pdfrwt>
<pdfrwt beam="1">  1       -2 0.33066134E+00 0.26283312E+04</pdfrwt>
<totfact> 0.62153686E-01</totfact>
</mgrwt>
</event>
<event>
 4    1  0.1321115E-008  0.2381799E+04  0.7816531E-02  0.8446349E-01
          2   -1    0    0  501    0  0.00000000000E+00  0.00000000000E+00  0.14753957725E+04  0.14753957725E+04  0.00000000000E+00 0.  1.
         -2   -1    0    0    0  501 -0.00000000000E+00 -0.00000000000E+00 -0.96126177178E+03  0.96126177178E+03  0.00000000000E+00 0. -1.
    2000013    1    1    2    0    0  0.89398219241E+02 -0.71256227591E+03  0.25924095279E+03  0.12187874754E+04  0.95000000000E+03 0.  0.
   -2000013    1    1    2    0    0 -0.89398219241E+02  0.71256227591E+03  0.25489304789E+03  0.12178700688E+04  0.95000000000E+03 0.  0.
<mgrwt>
<rscale>  0 0.23817989E+04</rscale>
<asrwt>0</asrwt>
<pdfrwt beam="1">  1        2 0.22698397E+00 0.23817989E+04</pdfrwt>
<pdfrwt beam="2">  1       -2 0.14788643E+00 0.23817989E+04</pdfrwt>
<totfact> 0.36728394E+00</totfact>
</mgrwt>
</event>
<event>
 4    1  0.1321115E-008  0.2222602E+04  0.7816531E-02  0.8509079E-01
          2   -1    0    0  501    0  0.00000000000E+00  0.00000000000E+00  0.14549156959E+04  0.14549156959E+04  0.00000000000E+00 0.  1.
         -2   -1    0    0    0  501 -0.00000000000E+00 -0.00000000000E+00 -0.84883956194E+03  0.84883956194E+03  0.00000000000E+00 0. -1.
    2000013    1    1    2    0    0  0.51033562498E+03  0.15678480185E+03  0.52886009129E+03  0.12112872989E+04  0.95000000000E+03 0.  0.
   -2000013    1    1    2    0    0 -0.51033562498E+03 -0.15678480185E+03  0.77216042688E+02  0.10924679590E+04  0.95000000000E+03 0.  0.
<mgrwt>
<rscale>  0 0.22226021E+04</rscale>
<asrwt>0</asrwt>
<pdfrwt beam="1">  1        2 0.22383318E+00 0.22226021E+04</pdfrwt>
<pdfrwt beam="2">  1       -2 0.13059070E+00 0.22226021E+04</pdfrwt>
<totfact> 0.52745324E+00</totfact>
</mgrwt>
</event>
<event>
 4    1  0.1321115E-008  0.2226466E+04  0.7816531E-02  0.8507492E-01
         -2   -1    0    0    0  501 -0.00000000000E+00  0.00000000000E+00  0.28113046213E+04  0.28113046213E+04  0.00000000000E+00 0. -1.
          2   -1    0    0  501    0  0.00000000000E+00 -0.00000000000E+00 -0.44082296806E+03  0.44082296806E+03  0.00000000000E+00 0.  1.
    2000013    1    1    2    0    0  0.55572890591E+03  0.14094945876E+03  0.10538920838E+04  0.15303234597E+04  0.95000000000E+03 0.  0.
   -2000013    1    1    2    0    0 -0.55572890591E+03 -0.14094945876E+03  0.13165895694E+04  0.17218041297E+04  0.95000000000E+03 0.  0.
<mgrwt>
<rscale>  0 0.22264659E+04</rscale>
<asrwt>0</asrwt>
<pdfrwt beam="2">  1        2 0.67818920E-01 0.22264659E+04</pdfrwt>
<pdfrwt beam="1">  1       -2 0.43250839E+00 0.22264659E+04</pdfrwt>
<totfact> 0.29455235E-01</totfact>
</mgrwt>
</event>
<event>
 4    1  0.1321115E-008  0.2434103E+04  0.7816531E-02  0.8426845E-01
          2   -1    0    0  501    0  0.00000000000E+00  0.00000000000E+00  0.39078738824E+04  0.39078738824E+04  0.00000000000E+00 0.  1.
         -2   -1    0    0    0  501 -0.00000000000E+00 -0.00000000000E+00 -0.37903326388E+03  0.37903326388E+03  0.00000000000E+00 0. -1.
    2000013    1    1    2    0    0  0.52572855625E+03  0.46277923116E+03  0.12414962469E+04  0.17129997264E+04  0.95000000000E+03 0.  0.
   -2000013    1    1    2    0    0 -0.52572855625E+03 -0.46277923116E+03  0.22873443717E+04  0.25739074199E+04  0.95000000000E+03 0.  0.
<mgrwt>
<rscale>  0 0.24341029E+04</rscale>
<asrwt>0</asrwt>
<pdfrwt beam="1">  1        2 0.60121134E+00 0.24341029E+04</pdfrwt>
<pdfrwt beam="2">  1       -2 0.58312813E-01 0.24341029E+04</pdfrwt>
<totfact> 0.10032717E+00</totfact>
</mgrwt>
</event>
<event>
 4    1  0.1321115E-008  0.2914528E+04  0.7816531E-02  0.8268568E-01
         -2   -1    0    0    0  501 -0.00000000000E+00  0.00000000000E+00  0.12146077194E+04  0.12146077194E+04  0.00000000000E+00 0. -1.
          2   -1    0    0  501    0  0.00000000000E+00 -0.00000000000E+00 -0.17483981640E+04  0.17483981640E+04  0.00000000000E+00 0.  1.
    2000013    1    1    2    0    0 -0.76945141660E+03 -0.75767276133E+03 -0.50530474898E+03  0.15244528150E+04  0.95000000000E+03 0.  0.
   -2000013    1    1    2    0    0  0.76945141660E+03  0.75767276133E+03 -0.28485695645E+02  0.14385530684E+04  0.95000000000E+03 0.  0.
<mgrwt>
<rscale>  0 0.29145277E+04</rscale>
<asrwt>0</asrwt>
<pdfrwt beam="2">  1        2 0.26898433E+00 0.29145277E+04</pdfrwt>
<pdfrwt beam="1">  1       -2 0.18686273E+00 0.29145277E+04</pdfrwt>
<totfact> 0.12932777E+00</totfact>
</mgrwt>
</event>
<event>
 4    1  0.1321115E-008  0.2728494E+04  0.7816531E-02  0.8325818E-01
          2   -1    0    0  501    0  0.00000000000E+00  0.00000000000E+00  0.44056248477E+04  0.44056248477E+04  0.00000000000E+00 0. -1.
         -2   -1    0    0    0  501 -0.00000000000E+00 -0.00000000000E+00 -0.42245313759E+03  0.42245313759E+03  0.00000000000E+00 0.  1.
    2000013    1    1    2    0    0 -0.51807981451E+03 -0.53674317106E+03  0.86942232172E+03  0.14882523641E+04  0.95000000000E+03 0.  0.
   -2000013    1    1    2    0    0  0.51807981451E+03  0.53674317106E+03  0.31137493884E+04  0.33398256211E+04  0.95000000000E+03 0.  0.
<mgrwt>
<rscale>  0 0.27284941E+04</rscale>
<asrwt>0</asrwt>
<pdfrwt beam="1">  1        2 0.67778841E+00 0.27284941E+04</pdfrwt>
<pdfrwt beam="2">  1       -2 0.64992793E-01 0.27284941E+04</pdfrwt>
<totfact> 0.29041192E-01</totfact>
</mgrwt>
</event>
<event>
 4    1  0.1321115E-008  0.3015741E+04  0.7816531E-02  0.8239250E-01
         -2   -1    0    0    0  501 -0.00000000000E+00  0.00000000000E+00  0.15759705602E+04  0.15759705602E+04  0.00000000000E+00 0. -1.
          2   -1    0    0  501    0  0.00000000000E+00 -0.00000000000E+00 -0.14427126831E+04  0.14427126831E+04  0.00000000000E+00 0.  1.
    2000013    1    1    2    0    0 -0.17303832992E+03  0.11482097731E+04  0.21792128407E+03  0.15160203273E+04  0.95000000000E+03 0.  0.
   -2000013    1    1    2    0    0  0.17303832992E+03 -0.11482097731E+04 -0.84663406936E+02  0.15026629160E+04  0.95000000000E+03 0.  0.
<mgrwt>
<rscale>  0 0.30157405E+04</rscale>
<asrwt>0</asrwt>
<pdfrwt beam="2">  1        2 0.22195580E+00 0.30157405E+04</pdfrwt>
<pdfrwt beam="1">  1       -2 0.24245701E+00 0.30157405E+04</pdfrwt>
<totfact> 0.83655385E-01</totfact>
</mgrwt>
</event>
<event>
 4    1  0.1321115E-008  0.2211382E+04  0.7816531E-02  0.8513706E-01
         -2   -1    0    0    0  501 -0.00000000000E+00  0.00000000000E+00  0.37181858712E+03  0.37181858712E+03  0.00000000000E+00 0. -1.
          2   -1    0    0  501    0  0.00000000000E+00 -0.00000000000E+00 -0.32880356244E+04  0.32880356244E+04  0.00000000000E+00 0.  1.
    2000013    1    1    2    0    0 -0.28934000537E+03  0.39148257229E+03 -0.98108573159E+03  0.14498294575E+04  0.95000000000E+03 0.  0.
   -2000013    1    1    2    0    0  0.28934000537E+03 -0.39148257229E+03 -0.19351313057E+04  0.22100247540E+04  0.95000000000E+03 0.  0.
<mgrwt>
<rscale>  0 0.22113822E+04</rscale>
<asrwt>0</asrwt>
<pdfrwt beam="2">  1        2 0.50585164E+00 0.22113822E+04</pdfrwt>
<pdfrwt beam="1">  1       -2 0.57202859E-01 0.22113822E+04</pdfrwt>
<totfact> 0.29740239E+00</totfact>
</mgrwt>
</event>
<event>
 4    1  0.1321115E-008  0.2199378E+04  0.7816531E-02  0.8518687E-01
          2   -1    0    0  501    0  0.00000000000E+00  0.00000000000E+00  0.14894940188E+04  0.14894940188E+04  0.00000000000E+00 0.  1.
         -2   -1    0    0    0  501 -0.00000000000E+00 -0.00000000000E+00 -0.81189722394E+03  0.81189722394E+03  0.00000000000E+00 0. -1.
    2000013    1    1    2    0    0  0.30975876590E+03 -0.43945919895E+03  0.19942439197E+03  0.11096598437E+04  0.95000000000E+03 0.  0.
   -2000013    1    1    2    0    0 -0.30975876590E+03  0.43945919895E+03  0.47817240290E+03  0.11917313990E+04  0.95000000000E+03 0.  0.
<mgrwt>
<rscale>  0 0.21993781E+04</rscale>
<asrwt>0</asrwt>
<pdfrwt beam="1">  1        2 0.22915293E+00 0.21993781E+04</pdfrwt>
<pdfrwt beam="2">  1       -2 0.12490727E+00 0.21993781E+04</pdfrwt>
<totfact> 0.56517023E+00</totfact>
</mgrwt>
</event>
<event>
 4    1  0.1321115E-008  0.2728081E+04  0.7816531E-02  0.8325951E-01
          2   -1    0    0  501    0  0.00000000000E+00  0.00000000000E+00  0.23012959284E+04  0.23012959284E+04  0.00000000000E+00 0.  1.
         -2   -1    0    0    0  501 -0.00000000000E+00 -0.00000000000E+00 -0.80850405170E+03  0.80850405170E+03  0.00000000000E+00 0. -1.
    2000013    1    1    2    0    0  0.85945212829E+02 -0.80794366241E+03  0.12417441656E+03  0.12562160750E+04  0.95000000000E+03 0.  0.
   -2000013    1    1    2    0    0 -0.85945212829E+02  0.80794366241E+03  0.13686174602E+04  0.18535839052E+04  0.95000000000E+03 0.  0.
<mgrwt>
<rscale>  0 0.27280814E+04</rscale>
<asrwt>0</asrwt>
<pdfrwt beam="1">  1        2 0.35404553E+00 0.27280814E+04</pdfrwt>
<pdfrwt beam="2">  1       -2 0.12438524E+00 0.27280814E+04</pdfrwt>
<totfact> 0.19228680E+00</totfact>
</mgrwt>
</event>
<event>
 4    1  0.1321115E-008  0.2198400E+04  0.7816531E-02  0.8519094E-01
          2   -1    0    0  501    0  0.00000000000E+00  0.00000000000E+00  0.83809183321E+03  0.83809183321E+03  0.00000000000E+00 0.  1.
         -2   -1    0    0    0  501 -0.00000000000E+00 -0.00000000000E+00 -0.14416568620E+04  0.14416568620E+04  0.00000000000E+00 0. -1.
    2000013    1    1    2    0    0 -0.30471764148E+03 -0.24440171463E+03 -0.70761513528E+03  0.12473188120E+04  0.95000000000E+03 0.  0.
   -2000013    1    1    2    0    0  0.30471764148E+03  0.24440171463E+03  0.10405010644E+03  0.10324298832E+04  0.95000000000E+03 0.  0.
<mgrwt>
<rscale>  0 0.21984002E+04</rscale>
<asrwt>0</asrwt>
<pdfrwt beam="1">  1        2 0.12893721E+00 0.21984002E+04</pdfrwt>
<pdfrwt beam="2">  1       -2 0.22179336E+00 0.21984002E+04</pdfrwt>
<totfact> 0.28468876E+00</totfact>
</mgrwt>
</event>
<event>
 4    1  0.1321115E-008  0.2190828E+04  0.7816531E-02  0.8522255E-01
          1   -1    0    0  501    0  0.00000000000E+00  0.00000000000E+00  0.92316972708E+03  0.92316972708E+03  0.00000000000E+00 0.  1.
         -1   -1    0    0    0  501 -0.00000000000E+00 -0.00000000000E+00 -0.12997959066E+04  0.12997959066E+04  0.00000000000E+00 0. -1.
    2000013    1    1    2    0    0  0.42055856420E+03  0.23823580026E+03 -0.44461781691E+03  0.11549072714E+04  0.95000000000E+03 0.  0.
   -2000013    1    1    2    0    0 -0.42055856420E+03 -0.23823580026E+03  0.67991637393E+02  0.10680583623E+04  0.95000000000E+03 0.  0.
<mgrwt>
<rscale>  0 0.21908284E+04</rscale>
<asrwt>0</asrwt>
<pdfrwt beam="1">  1        1 0.14202611E+00 0.21908284E+04</pdfrwt>
<pdfrwt beam="2">  1       -1 0.19996860E+00 0.21908284E+04</pdfrwt>
<totfact> 0.23934609E+00</totfact>
</mgrwt>
</event>
<event>
 4    1  0.1321115E-008  0.2558709E+04  0.7816531E-02  0.8382364E-01
         -2   -1    0    0    0  501 -0.00000000000E+00  0.00000000000E+00  0.98898635176E+03  0.98898635176E+03  0.00000000000E+00 0. -1.
          2   -1    0    0  501    0  0.00000000000E+00 -0.00000000000E+00 -0.16549750222E+04  0.16549750222E+04  0.00000000000E+00 0.  1.
    2000013    1    1    2    0    0 -0.60553085357E+03 -0.60160710226E+03 -0.41065831107E+03  0.13415435023E+04  0.95000000000E+03 0.  0.
   -2000013    1    1    2    0    0  0.60553085357E+03  0.60160710226E+03 -0.25533035942E+03  0.13024178717E+04  0.95000000000E+03 0.  0.
<mgrwt>
<rscale>  0 0.25587088E+04</rscale>
<asrwt>0</asrwt>
<pdfrwt beam="2">  1        2 0.25461154E+00 0.25587088E+04</pdfrwt>
<pdfrwt beam="1">  1       -2 0.15215175E+00 0.25587088E+04</pdfrwt>
<totfact> 0.26608410E+00</totfact>
</mgrwt>
</event>
<event>
 4    1  0.1321115E-008  0.3902267E+04  0.7816531E-02  0.8024558E-01
         -2   -1    0    0    0  501 -0.00000000000E+00  0.00000000000E+00  0.18872689013E+04  0.18872689013E+04  0.00000000000E+00 0.  1.
          2   -1    0    0  501    0  0.00000000000E+00 -0.00000000000E+00 -0.20171591694E+04  0.20171591694E+04  0.00000000000E+00 0. -1.
    2000013    1    1    2    0    0 -0.98941105052E+03  0.13428829713E+04  0.28475217385E+03  0.19405805064E+04  0.95000000000E+03 0.  0.
   -2000013    1    1    2    0    0  0.98941105052E+03 -0.13428829713E+04 -0.41464244195E+03  0.19638475644E+04  0.95000000000E+03 0.  0.
<mgrwt>
<rscale>  0 0.39022669E+04</rscale>
<asrwt>0</asrwt>
<pdfrwt beam="2">  1        2 0.31033218E+00 0.39022669E+04</pdfrwt>
<pdfrwt beam="1">  1       -2 0.29034906E+00 0.39022669E+04</pdfrwt>
<totfact> 0.18922721E-01</totfact>
</mgrwt>
</event>
<event>
 4    1  0.1321115E-008  0.2870764E+04  0.7816531E-02  0.8281630E-01
         -2   -1    0    0    0  501 -0.00000000000E+00  0.00000000000E+00  0.88279284638E+03  0.88279284638E+03  0.00000000000E+00 0. -1.
          2   -1    0    0  501    0  0.00000000000E+00 -0.00000000000E+00 -0.23338666593E+04  0.23338666593E+04  0.00000000000E+00 0.  1.
    2000013    1    1    2    0    0 -0.10236494374E+04 -0.28749876338E+03 -0.91069611573E+03  0.16918573004E+04  0.95000000000E+03 0.  0.
   -2000013    1    1    2    0    0  0.10236494374E+04  0.28749876338E+03 -0.54037769721E+03  0.15248022053E+04  0.95000000000E+03 0.  0.
<mgrwt>
<rscale>  0 0.28707635E+04</rscale>
<asrwt>0</asrwt>
<pdfrwt beam="2">  1        2 0.35905641E+00 0.28707635E+04</pdfrwt>
<pdfrwt beam="1">  1       -2 0.13581428E+00 0.28707635E+04</pdfrwt>
<totfact> 0.14574516E+00</totfact>
</mgrwt>
</event>
<event>
 4    1  0.1321115E-008  0.1944933E+04  0.7816531E-02  0.8632808E-01
          2   -1    0    0  501    0  0.00000000000E+00  0.00000000000E+00  0.26958536059E+04  0.26958536059E+04  0.00000000000E+00 0.  1.
         -2   -1    0    0    0  501 -0.00000000000E+00 -0.00000000000E+00 -0.35079473656E+03  0.35079473656E+03  0.00000000000E+00 0. -1.
    2000013    1    1    2    0    0  0.15527434655E+03 -0.48908200176E+02  0.97016491294E+03  0.13675606360E+04  0.95000000000E+03 0.  0.
   -2000013    1    1    2    0    0 -0.15527434655E+03  0.48908200176E+02  0.13748939564E+04  0.16790877065E+04  0.95000000000E+03 0.  0.
<mgrwt>
<rscale>  0 0.19449332E+04</rscale>
<asrwt>0</asrwt>
<pdfrwt beam="1">  1        2 0.41474670E+00 0.19449332E+04</pdfrwt>
<pdfrwt beam="2">  1       -2 0.53968423E-01 0.19449332E+04</pdfrwt>
<totfact> 0.80701065E+00</totfact>
</mgrwt>
</event>
<event>
 4    1  0.1321115E-008  0.2281331E+04  0.7816531E-02  0.8485318E-01
         -2   -1    0    0    0  501 -0.00000000000E+00  0.00000000000E+00  0.15919866127E+04  0.15919866127E+04  0.00000000000E+00 0. -1.
          2   -1    0    0  501    0  0.00000000000E+00 -0.00000000000E+00 -0.81729211123E+03  0.81729211123E+03  0.00000000000E+00 0.  1.
    2000013    1    1    2    0    0  0.49294326017E+03 -0.37378526351E+03  0.25413978143E+03  0.11618070018E+04  0.95000000000E+03 0.  0.
   -2000013    1    1    2    0    0 -0.49294326017E+03  0.37378526351E+03  0.52055472005E+03  0.12474717221E+04  0.95000000000E+03 0.  0.
<mgrwt>
<rscale>  0 0.22813313E+04</rscale>
<asrwt>0</asrwt>
<pdfrwt beam="2">  1        2 0.12573725E+00 0.22813313E+04</pdfrwt>
<pdfrwt beam="1">  1       -2 0.24492102E+00 0.22813313E+04</pdfrwt>
<totfact> 0.20986750E+00</totfact>
</mgrwt>
</event>
<event>
 4    1  0.1321115E-008  0.2443312E+04  0.7816531E-02  0.8423464E-01
          2   -1    0    0  501    0  0.00000000000E+00  0.00000000000E+00  0.14090545713E+04  0.14090545713E+04  0.00000000000E+00 0.  1.
         -2   -1    0    0    0  501 -0.00000000000E+00 -0.00000000000E+00 -0.10591809215E+04  0.10591809215E+04  0.00000000000E+00 0. -1.
    2000013    1    1    2    0    0 -0.67830030792E+01 -0.76120204946E+03  0.27829940132E+03  0.12487694447E+04  0.95000000000E+03 0.  0.
   -2000013    1    1    2    0    0  0.67830030792E+01  0.76120204946E+03  0.71574248503E+02  0.12194660480E+04  0.95000000000E+03 0.  0.
<mgrwt>
<rscale>  0 0.24433123E+04</rscale>
<asrwt>0</asrwt>
<pdfrwt beam="1">  1        2 0.21677763E+00 0.24433123E+04</pdfrwt>
<pdfrwt beam="2">  1       -2 0.16295091E+00 0.24433123E+04</pdfrwt>
<totfact> 0.30704434E+00</totfact>
</mgrwt>
</event>
<event>
 4    1  0.1321115E-008  0.2700563E+04  0.7816531E-02  0.8334822E-01
         -2   -1    0    0    0  501 -0.00000000000E+00  0.00000000000E+00  0.55389509172E+03  0.55389509172E+03  0.00000000000E+00 0. -1.
          2   -1    0    0  501    0  0.00000000000E+00 -0.00000000000E+00 -0.32917054263E+04  0.32917054263E+04  0.00000000000E+00 0.  1.
    2000013    1    1    2    0    0 -0.89537885889E+03 -0.26804713637E+03 -0.10595105724E+04  0.17025320030E+04  0.95000000000E+03 0.  0.
   -2000013    1    1    2    0    0  0.89537885889E+03  0.26804713637E+03 -0.16782997622E+04  0.21430685150E+04  0.95000000000E+03 0.  0.
<mgrwt>
<rscale>  0 0.27005625E+04</rscale>
<asrwt>0</asrwt>
<pdfrwt beam="2">  1        2 0.50641621E+00 0.27005625E+04</pdfrwt>
<pdfrwt beam="1">  1       -2 0.85214630E-01 0.27005625E+04</pdfrwt>
<totfact> 0.11855256E+00</totfact>
</mgrwt>
</event>
<event>
 4    1  0.1321115E-008  0.2728052E+04  0.7816531E-02  0.8325960E-01
          2   -1    0    0  501    0  0.00000000000E+00  0.00000000000E+00  0.57289518251E+03  0.57289518251E+03  0.00000000000E+00 0.  1.
         -2   -1    0    0    0  501 -0.00000000000E+00 -0.00000000000E+00 -0.32476570332E+04  0.32476570332E+04  0.00000000000E+00 0. -1.
    2000013    1    1    2    0    0 -0.83959040094E+03 -0.18012583929E+03 -0.19953177561E+04  0.23708965197E+04  0.95000000000E+03 0.  0.
   -2000013    1    1    2    0    0  0.83959040094E+03  0.18012583929E+03 -0.67944409461E+03  0.14496556960E+04  0.95000000000E+03 0.  0.
<mgrwt>
<rscale>  0 0.27280521E+04</rscale>
<asrwt>0</asrwt>
<pdfrwt beam="1">  1        2 0.88137720E-01 0.27280521E+04</pdfrwt>
<pdfrwt beam="2">  1       -2 0.49963955E+00 0.27280521E+04</pdfrwt>
<totfact> 0.75809026E-02</totfact>
</mgrwt>
</event>
<event>
 4    1  0.1321115E-008  0.3189353E+04  0.7816531E-02  0.8191635E-01
          2   -1    0    0  501    0  0.00000000000E+00  0.00000000000E+00  0.17179251422E+04  0.17179251422E+04  0.00000000000E+00 0.  1.
         -2   -1    0    0    0  501 -0.00000000000E+00 -0.00000000000E+00 -0.14802701648E+04  0.14802701648E+04  0.00000000000E+00 0. -1.
    2000013    1    1    2    0    0 -0.29897612681E+03  0.12416814035E+04  0.21947522982E+02  0.15918985916E+04  0.95000000000E+03 0.  0.
   -2000013    1    1    2    0    0  0.29897612681E+03 -0.12416814035E+04  0.21570745442E+03  0.16062967154E+04  0.95000000000E+03 0.  0.
<mgrwt>
<rscale>  0 0.31893531E+04</rscale>
<asrwt>0</asrwt>
<pdfrwt beam="1">  1        2 0.26429617E+00 0.31893531E+04</pdfrwt>
<pdfrwt beam="2">  1       -2 0.22773387E+00 0.31893531E+04</pdfrwt>
<totfact> 0.71363692E-01</totfact>
</mgrwt>
</event>
<event>
 4    1  0.1321115E-008  0.2514387E+04  0.7816531E-02  0.8397878E-01
         -1   -1    0    0    0  501 -0.00000000000E+00  0.00000000000E+00  0.13407539735E+04  0.13407539735E+04  0.00000000000E+00 0. -1.
          1   -1    0    0  501    0  0.00000000000E+00 -0.00000000000E+00 -0.11788409745E+04  0.11788409745E+04  0.00000000000E+00 0.  1.
    2000013    1    1    2    0    0  0.54466089441E+03 -0.43926059468E+03  0.51594123339E+03  0.12877502538E+04  0.95000000000E+03 0.  0.
   -2000013    1    1    2    0    0 -0.54466089441E+03  0.43926059468E+03 -0.35402823435E+03  0.12318446942E+04  0.95000000000E+03 0.  0.
<mgrwt>
<rscale>  0 0.25143872E+04</rscale>
<asrwt>0</asrwt>
<pdfrwt beam="2">  1        1 0.18136015E+00 0.25143872E+04</pdfrwt>
<pdfrwt beam="1">  1       -1 0.20626984E+00 0.25143872E+04</pdfrwt>
<totfact> 0.13394135E+00</totfact>
</mgrwt>
</event>
<event>
 4    1  0.1321115E-008  0.2233119E+04  0.7816531E-02  0.8504768E-01
          2   -1    0    0  501    0  0.00000000000E+00  0.00000000000E+00  0.28753040143E+04  0.28753040143E+04  0.00000000000E+00 0.  1.
         -2   -1    0    0    0  501 -0.00000000000E+00 -0.00000000000E+00 -0.43359072787E+03  0.43359072787E+03  0.00000000000E+00 0. -1.
    2000013    1    1    2    0    0 -0.15130240639E+03 -0.53259568606E+03  0.93332875996E+03  0.14422736069E+04  0.95000000000E+03 0.  0.
   -2000013    1    1    2    0    0  0.15130240639E+03  0.53259568606E+03  0.15083845265E+04  0.18666211353E+04  0.95000000000E+03 0.  0.
<mgrwt>
<rscale>  0 0.22331190E+04</rscale>
<asrwt>0</asrwt>
<pdfrwt beam="1">  1        2 0.44235445E+00 0.22331190E+04</pdfrwt>
<pdfrwt beam="2">  1       -2 0.66706268E-01 0.22331190E+04</pdfrwt>
<totfact> 0.39180442E+00</totfact>
</mgrwt>
</event>
<event>
 4    1  0.1321115E-008  0.3488729E+04  0.7816531E-02  0.8116466E-01
         -2   -1    0    0    0  501 -0.00000000000E+00  0.00000000000E+00  0.28402124677E+04  0.28402124677E+04  0.00000000000E+00 0. -1.
          2   -1    0    0  501    0  0.00000000000E+00 -0.00000000000E+00 -0.10713310599E+04  0.10713310599E+04  0.00000000000E+00 0.  1.
    2000013    1    1    2    0    0 -0.57903043512E+03  0.10038131105E+04 -0.11674935058E+03  0.15030127799E+04  0.95000000000E+03 0.  0.
   -2000013    1    1    2    0    0  0.57903043512E+03 -0.10038131105E+04  0.18856307584E+04  0.24085307477E+04  0.95000000000E+03 0.  0.
<mgrwt>
<rscale>  0 0.34887292E+04</rscale>
<asrwt>0</asrwt>
<pdfrwt beam="2">  1        2 0.16482016E+00 0.34887292E+04</pdfrwt>
<pdfrwt beam="1">  1       -2 0.43695576E+00 0.34887292E+04</pdfrwt>
<totfact> 0.78966265E-02</totfact>
</mgrwt>
</event>
<event>
 4    1  0.1321115E-008  0.1991658E+04  0.7816531E-02  0.8610531E-01
         -2   -1    0    0    0  501 -0.00000000000E+00  0.00000000000E+00  0.31556782812E+03  0.31556782812E+03  0.00000000000E+00 0. -1.
          2   -1    0    0  501    0  0.00000000000E+00 -0.00000000000E+00 -0.31425103753E+04  0.31425103753E+04  0.00000000000E+00 0.  1.
    2000013    1    1    2    0    0 -0.53234602374E+02 -0.29100002554E+03 -0.13427247612E+04  0.16712045722E+04  0.95000000000E+03 0.  0.
   -2000013    1    1    2    0    0  0.53234602374E+02  0.29100002554E+03 -0.14842177860E+04  0.17868736313E+04  0.95000000000E+03 0.  0.
<mgrwt>
<rscale>  0 0.19916578E+04</rscale>
<asrwt>0</asrwt>
<pdfrwt beam="2">  1        2 0.48346313E+00 0.19916578E+04</pdfrwt>
<pdfrwt beam="1">  1       -2 0.48548897E-01 0.19916578E+04</pdfrwt>
<totfact> 0.52961838E+00</totfact>
</mgrwt>
</event>
<event>
 4    1  0.1321115E-008  0.2544800E+04  0.7816531E-02  0.8387197E-01
         -2   -1    0    0    0  501 -0.00000000000E+00  0.00000000000E+00  0.14291278554E+04  0.14291278554E+04  0.00000000000E+00 0.  1.
          2   -1    0    0  501    0  0.00000000000E+00 -0.00000000000E+00 -0.11328598433E+04  0.11328598433E+04  0.00000000000E+00 0. -1.
    2000013    1    1    2    0    0 -0.75493918274E+03 -0.22543060662E+03  0.45965800587E+03  0.13170184548E+04  0.95000000000E+03 0.  0.
   -2000013    1    1    2    0    0  0.75493918274E+03  0.22543060662E+03 -0.16338999377E+03  0.12449692438E+04  0.95000000000E+03 0.  0.
<mgrwt>
<rscale>  0 0.25447998E+04</rscale>
<asrwt>0</asrwt>
<pdfrwt beam="2">  1        2 0.17428613E+00 0.25447998E+04</pdfrwt>
<pdfrwt beam="1">  1       -2 0.21986582E+00 0.25447998E+04</pdfrwt>
<totfact> 0.18298765E+00</totfact>
</mgrwt>
</event>
<event>
 4    1  0.1321115E-008  0.1955614E+04  0.7816531E-02  0.8627658E-01
         -2   -1    0    0    0  501 -0.00000000000E+00  0.00000000000E+00  0.10899608339E+04  0.10899608339E+04  0.00000000000E+00 0. -1.
          2   -1    0    0  501    0  0.00000000000E+00 -0.00000000000E+00 -0.87719356539E+03  0.87719356539E+03  0.00000000000E+00 0.  1.
    2000013    1    1    2    0    0 -0.10566551912E+01  0.23050380332E+03  0.12827233297E+03  0.98594467962E+03  0.95000000000E+03 0.  0.
   -2000013    1    1    2    0    0  0.10566551912E+01 -0.23050380332E+03  0.84494935552E+02  0.98120971968E+03  0.95000000000E+03 0.  0.
<mgrwt>
<rscale>  0 0.19556141E+04</rscale>
<asrwt>0</asrwt>
<pdfrwt beam="2">  1        2 0.13495286E+00 0.19556141E+04</pdfrwt>
<pdfrwt beam="1">  1       -2 0.16768628E+00 0.19556141E+04</pdfrwt>
<totfact> 0.62717381E+00</totfact>
</mgrwt>
</event>
<event>
 4    1  0.1321115E-008  0.3038684E+04  0.7816531E-02  0.8232770E-01
          2   -1    0    0  501    0  0.00000000000E+00  0.00000000000E+00  0.15004491848E+04  0.15004491848E+04  0.00000000000E+00 0.  1.
         -2   -1    0    0    0  501 -0.00000000000E+00 -0.00000000000E+00 -0.15384725063E+04  0.15384725063E+04  0.00000000000E+00 0. -1.
    2000013    1    1    2    0    0  0.82815403848E+03 -0.74786700163E+03  0.38196318261E+03  0.15144438043E+04  0.95000000000E+03 0.  0.
   -2000013    1    1    2    0    0 -0.82815403848E+03  0.74786700163E+03 -0.41998650407E+03  0.15244778867E+04  0.95000000000E+03 0.  0.
<mgrwt>
<rscale>  0 0.30386838E+04</rscale>
<asrwt>0</asrwt>
<pdfrwt beam="1">  1        2 0.23083834E+00 0.30386838E+04</pdfrwt>
<pdfrwt beam="2">  1       -2 0.23668808E+00 0.30386838E+04</pdfrwt>
<totfact> 0.84079590E-01</totfact>
</mgrwt>
</event>
<event>
 4    1  0.1321115E-008  0.2426995E+04  0.7816531E-02  0.8429466E-01
          2   -1    0    0  501    0  0.00000000000E+00  0.00000000000E+00  0.12009118612E+04  0.12009118612E+04  0.00000000000E+00 0.  1.
         -2   -1    0    0    0  501 -0.00000000000E+00 -0.00000000000E+00 -0.12262154219E+04  0.12262154219E+04  0.00000000000E+00 0. -1.
    2000013    1    1    2    0    0  0.65322281722E+03  0.28985172630E+03  0.23100581747E+03  0.12110234349E+04  0.95000000000E+03 0.  0.
   -2000013    1    1    2    0    0 -0.65322281722E+03 -0.28985172630E+03 -0.25630937818E+03  0.12161038482E+04  0.95000000000E+03 0.  0.
<mgrwt>
<rscale>  0 0.24269954E+04</rscale>
<asrwt>0</asrwt>
<pdfrwt beam="1">  1        2 0.18475567E+00 0.24269954E+04</pdfrwt>
<pdfrwt beam="2">  1       -2 0.18864853E+00 0.24269954E+04</pdfrwt>
<totfact> 0.26864857E+00</totfact>
</mgrwt>
</event>
<event>
 4    1  0.1321115E-008  0.2526486E+04  0.7816531E-02  0.8393610E-01
          2   -1    0    0  501    0  0.00000000000E+00  0.00000000000E+00  0.44213091756E+04  0.44213091756E+04  0.00000000000E+00 0.  1.
         -2   -1    0    0    0  501 -0.00000000000E+00 -0.00000000000E+00 -0.36092994883E+03  0.36092994883E+03  0.00000000000E+00 0. -1.
    2000013    1    1    2    0    0  0.34045640358E+03 -0.47620601007E+03  0.31509698122E+04  0.33427224659E+04  0.95000000000E+03 0.  0.
   -2000013    1    1    2    0    0 -0.34045640358E+03  0.47620601007E+03  0.90940941452E+03  0.14395166585E+04  0.95000000000E+03 0.  0.
<mgrwt>
<rscale>  0 0.25264860E+04</rscale>
<asrwt>0</asrwt>
<pdfrwt beam="1">  1        2 0.68020137E+00 0.25264860E+04</pdfrwt>
<pdfrwt beam="2">  1       -2 0.55527688E-01 0.25264860E+04</pdfrwt>
<totfact> 0.39947801E-01</totfact>
</mgrwt>
</event>
<event>
 4    1  0.1321115E-008  0.2252433E+04  0.7816531E-02  0.8496916E-01
         -2   -1    0    0    0  501 -0.00000000000E+00  0.00000000000E+00  0.59313059720E+03  0.59313059720E+03  0.00000000000E+00 0. -1.
          2   -1    0    0  501    0  0.00000000000E+00 -0.00000000000E+00 -0.21384215084E+04  0.21384215084E+04  0.00000000000E+00 0.  1.
    2000013    1    1    2    0    0 -0.49800933655E+03 -0.21775615194E+03 -0.45080305828E+03  0.11837036953E+04  0.95000000000E+03 0.  0.
   -2000013    1    1    2    0    0  0.49800933655E+03  0.21775615194E+03 -0.10944878530E+04  0.15478484103E+04  0.95000000000E+03 0.  0.
<mgrwt>
<rscale>  0 0.22524327E+04</rscale>
<asrwt>0</asrwt>
<pdfrwt beam="2">  1        2 0.32898793E+00 0.22524327E+04</pdfrwt>
<pdfrwt beam="1">  1       -2 0.91250861E-01 0.22524327E+04</pdfrwt>
<totfact> 0.52088634E+00</totfact>
</mgrwt>
</event>
<event>
 4    1  0.1321115E-008  0.2802925E+04  0.7816531E-02  0.8302361E-01
          2   -1    0    0  501    0  0.00000000000E+00  0.00000000000E+00  0.28393352559E+04  0.28393352559E+04  0.00000000000E+00 0.  1.
         -2   -1    0    0    0  501 -0.00000000000E+00 -0.00000000000E+00 -0.69174531899E+03  0.69174531899E+03  0.00000000000E+00 0. -1.
    2000013    1    1    2    0    0 -0.89007765215E+03 -0.26265642249E+03  0.16377088678E+04  0.21085106020E+04  0.95000000000E+03 0.  0.
   -2000013    1    1    2    0    0  0.89007765215E+03  0.26265642249E+03  0.50988106912E+03  0.14225699729E+04  0.95000000000E+03 0.  0.
<mgrwt>
<rscale>  0 0.28029248E+04</rscale>
<asrwt>0</asrwt>
<pdfrwt beam="1">  1        2 0.43682080E+00 0.28029248E+04</pdfrwt>
<pdfrwt beam="2">  1       -2 0.10642236E+00 0.28029248E+04</pdfrwt>
<totfact> 0.13544613E+00</totfact>
</mgrwt>
</event>
<event>
 4    1  0.1321115E-008  0.2241434E+04  0.7816531E-02  0.8501378E-01
         -2   -1    0    0    0  501 -0.00000000000E+00  0.00000000000E+00  0.14539398241E+04  0.14539398241E+04  0.00000000000E+00 0. -1.
          2   -1    0    0  501    0  0.00000000000E+00 -0.00000000000E+00 -0.86386401322E+03  0.86386401322E+03  0.00000000000E+00 0.  1.
    2000013    1    1    2    0    0  0.12103380377E+03 -0.29844072786E+03 -0.22178113884E+03  0.10273280505E+04  0.95000000000E+03 0.  0.
   -2000013    1    1    2    0    0 -0.12103380377E+03  0.29844072786E+03  0.81185694972E+03  0.12904757869E+04  0.95000000000E+03 0.  0.
<mgrwt>
<rscale>  0 0.22414337E+04</rscale>
<asrwt>0</asrwt>
<pdfrwt beam="2">  1        2 0.13290216E+00 0.22414337E+04</pdfrwt>
<pdfrwt beam="1">  1       -2 0.22368305E+00 0.22414337E+04</pdfrwt>
<totfact> 0.26480461E+00</totfact>
</mgrwt>
</event>
<event>
 4    1  0.1321115E-008  0.2975567E+04  0.7816531E-02  0.8250743E-01
          2   -1    0    0  501    0  0.00000000000E+00  0.00000000000E+00  0.14284960240E+04  0.14284960240E+04  0.00000000000E+00 0.  1.
         -2   -1    0    0    0  501 -0.00000000000E+00 -0.00000000000E+00 -0.15495312085E+04  0.15495312085E+04  0.00000000000E+00 0. -1.
    2000013    1    1    2    0    0  0.79545758889E+02  0.50545052551E+03 -0.10856650766E+04  0.15306784183E+04  0.95000000000E+03 0.  0.
   -2000013    1    1    2    0    0 -0.79545758889E+02 -0.50545052551E+03  0.96462989212E+03  0.14473488143E+04  0.95000000000E+03 0.  0.
<mgrwt>
<rscale>  0 0.29755666E+04</rscale>
<asrwt>0</asrwt>
<pdfrwt beam="1">  1        2 0.21976862E+00 0.29755666E+04</pdfrwt>
<pdfrwt beam="2">  1       -2 0.23838942E+00 0.29755666E+04</pdfrwt>
<totfact> 0.90619741E-01</totfact>
</mgrwt>
</event>
<event>
 4    1  0.1321115E-008  0.2775735E+04  0.7816531E-02  0.8310841E-01
          2   -1    0    0  501    0  0.00000000000E+00  0.00000000000E+00  0.29774870398E+04  0.29774870398E+04  0.00000000000E+00 0.  1.
         -2   -1    0    0    0  501 -0.00000000000E+00 -0.00000000000E+00 -0.64691336844E+03  0.64691336844E+03  0.00000000000E+00 0. -1.
    2000013    1    1    2    0    0 -0.54694890978E+03  0.55510878621E+03  0.20078484943E+04  0.23539869266E+04  0.95000000000E+03 0.  0.
   -2000013    1    1    2    0    0  0.54694890978E+03 -0.55510878621E+03  0.32272517702E+03  0.12704134816E+04  0.95000000000E+03 0.  0.
<mgrwt>
<rscale>  0 0.27757350E+04</rscale>
<asrwt>0</asrwt>
<pdfrwt beam="1">  1        2 0.45807492E+00 0.27757350E+04</pdfrwt>
<pdfrwt beam="2">  1       -2 0.99525136E-01 0.27757350E+04</pdfrwt>
<totfact> 0.13095014E+00</totfact>
</mgrwt>
</event>
<event>
 4    1  0.1321115E-008  0.3344711E+04  0.7816531E-02  0.8151611E-01
         -1   -1    0    0    0  501 -0.00000000000E+00  0.00000000000E+00  0.13629874358E+04  0.13629874358E+04  0.00000000000E+00 0.  1.
          1   -1    0    0  501    0  0.00000000000E+00 -0.00000000000E+00 -0.20519431748E+04  0.20519431748E+04  0.00000000000E+00 0. -1.
    2000013    1    1    2    0    0 -0.11215242312E+04 -0.13023058440E+03 -0.11480828250E+04  0.18695910727E+04  0.95000000000E+03 0.  0.
   -2000013    1    1    2    0    0  0.11215242312E+04  0.13023058440E+03  0.45912708592E+03  0.15453395378E+04  0.95000000000E+03 0.  0.
<mgrwt>
<rscale>  0 0.33447109E+04</rscale>
<asrwt>0</asrwt>
<pdfrwt beam="2">  1        1 0.31568357E+00 0.33447109E+04</pdfrwt>
<pdfrwt beam="1">  1       -1 0.20969037E+00 0.33447109E+04</pdfrwt>
<totfact> 0.29337593E-01</totfact>
</mgrwt>
</event>
<event>
 4    1  0.1321115E-008  0.2861123E+04  0.7816531E-02  0.8284539E-01
          2   -1    0    0  501    0  0.00000000000E+00  0.00000000000E+00  0.90660862573E+03  0.90660862573E+03  0.00000000000E+00 0.  1.
         -2   -1    0    0    0  501 -0.00000000000E+00 -0.00000000000E+00 -0.22573205939E+04  0.22573205939E+04  0.00000000000E+00 0. -1.
    2000013    1    1    2    0    0  0.75340602256E+03  0.27264055515E+03  0.10819077997E+03  0.12474609220E+04  0.95000000000E+03 0.  0.
   -2000013    1    1    2    0    0 -0.75340602256E+03 -0.27264055515E+03 -0.14589027482E+04  0.19164682976E+04  0.95000000000E+03 0.  0.
<mgrwt>
<rscale>  0 0.28611231E+04</rscale>
<asrwt>0</asrwt>
<pdfrwt beam="1">  1        2 0.13947825E+00 0.28611231E+04</pdfrwt>
<pdfrwt beam="2">  1       -2 0.34728009E+00 0.28611231E+04</pdfrwt>
<totfact> 0.40662367E-01</totfact>
</mgrwt>
</event>
<event>
 4    1  0.1321115E-008  0.2587536E+04  0.7816531E-02  0.8372447E-01
          2   -1    0    0  501    0  0.00000000000E+00  0.00000000000E+00  0.14269630363E+04  0.14269630363E+04  0.00000000000E+00 0.  1.
         -2   -1    0    0    0  501 -0.00000000000E+00 -0.00000000000E+00 -0.11730056338E+04  0.11730056338E+04  0.00000000000E+00 0. -1.
    2000013    1    1    2    0    0 -0.36322299062E+03  0.73292015938E+03  0.44825359869E+03  0.13313655357E+04  0.95000000000E+03 0.  0.
   -2000013    1    1    2    0    0  0.36322299062E+03 -0.73292015938E+03 -0.19429619618E+03  0.12686031345E+04  0.95000000000E+03 0.  0.
<mgrwt>
<rscale>  0 0.25875360E+04</rscale>
<asrwt>0</asrwt>
<pdfrwt beam="1">  1        2 0.21953278E+00 0.25875360E+04</pdfrwt>
<pdfrwt beam="2">  1       -2 0.18046240E+00 0.25875360E+04</pdfrwt>
<totfact> 0.22261982E+00</totfact>
</mgrwt>
</event>
<event>
 4    1  0.1321115E-008  0.2615877E+04  0.7816531E-02  0.8362828E-01
         -2   -1    0    0    0  501 -0.00000000000E+00  0.00000000000E+00  0.68980313387E+03  0.68980313387E+03  0.00000000000E+00 0. -1.
          2   -1    0    0  501    0  0.00000000000E+00 -0.00000000000E+00 -0.24799876664E+04  0.24799876664E+04  0.00000000000E+00 0.  1.
    2000013    1    1    2    0    0 -0.52842343639E+03 -0.72703245920E+03 -0.91919786292E+03  0.15985093794E+04  0.95000000000E+03 0.  0.
   -2000013    1    1    2    0    0  0.52842343639E+03  0.72703245920E+03 -0.87098666958E+03  0.15712814208E+04  0.95000000000E+03 0.  0.
<mgrwt>
<rscale>  0 0.26158771E+04</rscale>
<asrwt>0</asrwt>
<pdfrwt beam="2">  1        2 0.38153657E+00 0.26158771E+04</pdfrwt>
<pdfrwt beam="1">  1       -2 0.10612356E+00 0.26158771E+04</pdfrwt>
<totfact> 0.22625389E+00</totfact>
</mgrwt>
</event>
<event>
 4    1  0.1321115E-008  0.2623822E+04  0.7816531E-02  0.8360154E-01
         -2   -1    0    0    0  501 -0.00000000000E+00  0.00000000000E+00  0.89741998063E+03  0.89741998063E+03  0.00000000000E+00 0. -1.
          2   -1    0    0  501    0  0.00000000000E+00 -0.00000000000E+00 -0.19178428316E+04  0.19178428316E+04  0.00000000000E+00 0.  1.
    2000013    1    1    2    0    0 -0.41364561384E+03 -0.77262041555E+03 -0.26893681365E+03  0.13201787796E+04  0.95000000000E+03 0.  0.
   -2000013    1    1    2    0    0  0.41364561384E+03  0.77262041555E+03 -0.75148603734E+03  0.14950840327E+04  0.95000000000E+03 0.  0.
<mgrwt>
<rscale>  0 0.26238220E+04</rscale>
<asrwt>0</asrwt>
<pdfrwt beam="2">  1        2 0.29505274E+00 0.26238220E+04</pdfrwt>
<pdfrwt beam="1">  1       -2 0.13806461E+00 0.26238220E+04</pdfrwt>
<totfact> 0.24401910E+00</totfact>
</mgrwt>
</event>
<event>
 4    1  0.1321115E-008  0.2463083E+04  0.7816531E-02  0.8416257E-01
         -2   -1    0    0    0  501 -0.00000000000E+00  0.00000000000E+00  0.17285250658E+04  0.17285250658E+04  0.00000000000E+00 0. -1.
          2   -1    0    0  501    0  0.00000000000E+00 -0.00000000000E+00 -0.87744998210E+03  0.87744998210E+03  0.00000000000E+00 0.  1.
    2000013    1    1    2    0    0  0.37893453537E+03  0.52947017519E+03  0.88703553482E+03  0.14537063282E+04  0.95000000000E+03 0.  0.
   -2000013    1    1    2    0    0 -0.37893453537E+03 -0.52947017519E+03 -0.35960451093E+02  0.11522687198E+04  0.95000000000E+03 0.  0.
<mgrwt>
<rscale>  0 0.24630829E+04</rscale>
<asrwt>0</asrwt>
<pdfrwt beam="2">  1        2 0.13499231E+00 0.24630829E+04</pdfrwt>
<pdfrwt beam="1">  1       -2 0.26592693E+00 0.24630829E+04</pdfrwt>
<totfact> 0.13947895E+00</totfact>
</mgrwt>
</event>
<event>
 4    1  0.1321115E-008  0.2721316E+04  0.7816531E-02  0.8328122E-01
         -2   -1    0    0    0  501 -0.00000000000E+00  0.00000000000E+00  0.13906820173E+04  0.13906820173E+04  0.00000000000E+00 0. -1.
          2   -1    0    0  501    0  0.00000000000E+00 -0.00000000000E+00 -0.13312820788E+04  0.13312820788E+04  0.00000000000E+00 0.  1.
    2000013    1    1    2    0    0 -0.57060438880E+03  0.73916973582E+02 -0.75651331326E+03  0.13438249442E+04  0.95000000000E+03 0.  0.
   -2000013    1    1    2    0    0  0.57060438880E+03 -0.73916973582E+02  0.81591325173E+03  0.13781391518E+04  0.95000000000E+03 0.  0.
<mgrwt>
<rscale>  0 0.27213159E+04</rscale>
<asrwt>0</asrwt>
<pdfrwt beam="2">  1        2 0.20481263E+00 0.27213159E+04</pdfrwt>
<pdfrwt beam="1">  1       -2 0.21395108E+00 0.27213159E+04</pdfrwt>
<totfact> 0.14995603E+00</totfact>
</mgrwt>
</event>
<event>
 4    1  0.1321115E-008  0.3559274E+04  0.7816531E-02  0.8099885E-01
          2   -1    0    0  501    0  0.00000000000E+00  0.00000000000E+00  0.29510731621E+04  0.29510731621E+04  0.00000000000E+00 0.  1.
         -2   -1    0    0    0  501 -0.00000000000E+00 -0.00000000000E+00 -0.10732055269E+04  0.10732055269E+04  0.00000000000E+00 0. -1.
    2000013    1    1    2    0    0  0.10759351955E+04  0.23871058292E+03 -0.21962726405E+03  0.14715146695E+04  0.95000000000E+03 0.  0.
   -2000013    1    1    2    0    0 -0.10759351955E+04 -0.23871058292E+03  0.20974948992E+04  0.25527640196E+04  0.95000000000E+03 0.  0.
<mgrwt>
<rscale>  0 0.35592741E+04</rscale>
<asrwt>0</asrwt>
<pdfrwt beam="1">  1        2 0.45401125E+00 0.35592741E+04</pdfrwt>
<pdfrwt beam="2">  1       -2 0.16510854E+00 0.35592741E+04</pdfrwt>
<totfact> 0.35280520E-01</totfact>
</mgrwt>
</event>
<event>
 4    1  0.1321115E-008  0.2464274E+04  0.7816531E-02  0.8415825E-01
         -2   -1    0    0    0  501 -0.00000000000E+00  0.00000000000E+00  0.25689348780E+04  0.25689348780E+04  0.00000000000E+00 0. -1.
          2   -1    0    0  501    0  0.00000000000E+00 -0.00000000000E+00 -0.59096937126E+03  0.59096937126E+03  0.00000000000E+00 0.  1.
    2000013    1    1    2    0    0 -0.34806057559E+03 -0.68716894597E+03  0.11805311507E+04  0.16998532649E+04  0.95000000000E+03 0.  0.
   -2000013    1    1    2    0    0  0.34806057559E+03  0.68716894597E+03  0.79743435604E+03  0.14600509843E+04  0.95000000000E+03 0.  0.
<mgrwt>
<rscale>  0 0.24642742E+04</rscale>
<asrwt>0</asrwt>
<pdfrwt beam="2">  1        2 0.90918366E-01 0.24642742E+04</pdfrwt>
<pdfrwt beam="1">  1       -2 0.39522075E+00 0.24642742E+04</pdfrwt>
<totfact> 0.36056589E-01</totfact>
</mgrwt>
</event>
<event>
 4    1  0.1321115E-008  0.2070880E+04  0.7816531E-02  0.8574181E-01
         -2   -1    0    0    0  501 -0.00000000000E+00  0.00000000000E+00  0.11006818943E+04  0.11006818943E+04  0.00000000000E+00 0. -1.
          2   -1    0    0  501    0  0.00000000000E+00 -0.00000000000E+00 -0.97406479883E+03  0.97406479883E+03  0.00000000000E+00 0.  1.
    2000013    1    1    2    0    0 -0.27848989631E+03  0.23599146695E+03  0.25441825053E+03  0.10490363392E+04  0.95000000000E+03 0.  0.
   -2000013    1    1    2    0    0  0.27848989631E+03 -0.23599146695E+03 -0.12780115508E+03  0.10257103539E+04  0.95000000000E+03 0.  0.
<mgrwt>
<rscale>  0 0.20708795E+04</rscale>
<asrwt>0</asrwt>
<pdfrwt beam="2">  1        2 0.14985612E+00 0.20708795E+04</pdfrwt>
<pdfrwt beam="1">  1       -2 0.16933568E+00 0.20708795E+04</pdfrwt>
<totfact> 0.52099816E+00</totfact>
</mgrwt>
</event>
<event>
 4    1  0.1321115E-008  0.2404978E+04  0.7816531E-02  0.8437642E-01
         -2   -1    0    0    0  501 -0.00000000000E+00  0.00000000000E+00  0.30438445274E+04  0.30438445274E+04  0.00000000000E+00 0. -1.
          2   -1    0    0  501    0  0.00000000000E+00 -0.00000000000E+00 -0.47505055553E+03  0.47505055553E+03  0.00000000000E+00 0.  1.
    2000013    1    1    2    0    0 -0.62345058436E+03  0.71517961907E+00  0.70873829057E+03  0.13392166020E+04  0.95000000000E+03 0.  0.
   -2000013    1    1    2    0    0  0.62345058436E+03 -0.71517961907E+00  0.18600556813E+04  0.21796784809E+04  0.95000000000E+03 0.  0.
<mgrwt>
<rscale>  0 0.24049782E+04</rscale>
<asrwt>0</asrwt>
<pdfrwt beam="2">  1        2 0.73084703E-01 0.24049782E+04</pdfrwt>
<pdfrwt beam="1">  1       -2 0.46828376E+00 0.24049782E+04</pdfrwt>
<totfact> 0.15430822E-01</totfact>
</mgrwt>
</event>
<event>
 4    1  0.1321115E-008  0.2791222E+04  0.7816531E-02  0.8305999E-01
         -1   -1    0    0    0  501 -0.00000000000E+00  0.00000000000E+00  0.15577233773E+04  0.15577233773E+04  0.00000000000E+00 0.  1.
          1   -1    0    0  501    0  0.00000000000E+00 -0.00000000000E+00 -0.12503697613E+04  0.12503697613E+04  0.00000000000E+00 0. -1.
    2000013    1    1    2    0    0 -0.60539798166E+03 -0.55022966992E+03 -0.46319393343E+03  0.13365283483E+04  0.95000000000E+03 0.  0.
   -2000013    1    1    2    0    0  0.60539798166E+03  0.55022966992E+03  0.77054754945E+03  0.14715647902E+04  0.95000000000E+03 0.  0.
<mgrwt>
<rscale>  0 0.27912221E+04</rscale>
<asrwt>0</asrwt>
<pdfrwt beam="2">  1        1 0.19236458E+00 0.27912221E+04</pdfrwt>
<pdfrwt beam="1">  1       -1 0.23964975E+00 0.27912221E+04</pdfrwt>
<totfact> 0.69347191E-01</totfact>
</mgrwt>
</event>
<event>
 4    1  0.1321115E-008  0.2096144E+04  0.7816531E-02  0.8562944E-01
          2   -1    0    0  501    0  0.00000000000E+00  0.00000000000E+00  0.19014768822E+04  0.19014768822E+04  0.00000000000E+00 0.  1.
         -2   -1    0    0    0  501 -0.00000000000E+00 -0.00000000000E+00 -0.57768510195E+03  0.57768510195E+03  0.00000000000E+00 0. -1.
    2000013    1    1    2    0    0  0.47736686598E+02  0.43668463483E+03  0.72648832712E+03  0.12740712504E+04  0.95000000000E+03 0.  0.
   -2000013    1    1    2    0    0 -0.47736686598E+02 -0.43668463483E+03  0.59730345310E+03  0.12050907338E+04  0.95000000000E+03 0.  0.
<mgrwt>
<rscale>  0 0.20961440E+04</rscale>
<asrwt>0</asrwt>
<pdfrwt beam="1">  1        2 0.29253490E+00 0.20961440E+04</pdfrwt>
<pdfrwt beam="2">  1       -2 0.88874632E-01 0.20961440E+04</pdfrwt>
<totfact> 0.76005597E+00</totfact>
</mgrwt>
</event>
<event>
 4    1  0.1321115E-008  0.2363858E+04  0.7816531E-02  0.8453160E-01
         -2   -1    0    0    0  501 -0.00000000000E+00  0.00000000000E+00  0.13294430251E+04  0.13294430251E+04  0.00000000000E+00 0. -1.
          2   -1    0    0  501    0  0.00000000000E+00 -0.00000000000E+00 -0.10507828994E+04  0.10507828994E+04  0.00000000000E+00 0.  1.
    2000013    1    1    2    0    0  0.59469977736E+03  0.36376848185E+03  0.46711290920E+02  0.11792698072E+04  0.95000000000E+03 0.  0.
   -2000013    1    1    2    0    0 -0.59469977736E+03 -0.36376848185E+03  0.23194883476E+03  0.12009561172E+04  0.95000000000E+03 0.  0.
<mgrwt>
<rscale>  0 0.23638579E+04</rscale>
<asrwt>0</asrwt>
<pdfrwt beam="2">  1        2 0.16165891E+00 0.23638579E+04</pdfrwt>
<pdfrwt beam="1">  1       -2 0.20452970E+00 0.23638579E+04</pdfrwt>
<totfact> 0.26193490E+00</totfact>
</mgrwt>
</event>
<event>
 4    1  0.1321115E-008  0.2474701E+04  0.7816531E-02  0.8412054E-01
         -2   -1    0    0    0  501 -0.00000000000E+00  0.00000000000E+00  0.28465350979E+04  0.28465350979E+04  0.00000000000E+00 0. -1.
          2   -1    0    0  501    0  0.00000000000E+00 -0.00000000000E+00 -0.53785966487E+03  0.53785966487E+03  0.00000000000E+00 0.  1.
    2000013    1    1    2    0    0  0.35836435251E+03  0.28045897093E+03  0.26650031492E+03  0.10865563314E+04  0.95000000000E+03 0.  0.
   -2000013    1    1    2    0    0 -0.35836435251E+03 -0.28045897093E+03  0.20421751181E+04  0.22978384313E+04  0.95000000000E+03 0.  0.
<mgrwt>
<rscale>  0 0.24747011E+04</rscale>
<asrwt>0</asrwt>
<pdfrwt beam="2">  1        2 0.82747642E-01 0.24747011E+04</pdfrwt>
<pdfrwt beam="1">  1       -2 0.43792847E+00 0.24747011E+04</pdfrwt>
<totfact> 0.21069798E-01</totfact>
</mgrwt>
</event>
<event>
 4    1  0.1321115E-008  0.2256182E+04  0.7816531E-02  0.8495401E-01
         -2   -1    0    0    0  501 -0.00000000000E+00  0.00000000000E+00  0.83608131771E+03  0.83608131771E+03  0.00000000000E+00 0. -1.
          2   -1    0    0  501    0  0.00000000000E+00 -0.00000000000E+00 -0.15220873673E+04  0.15220873673E+04  0.00000000000E+00 0.  1.
    2000013    1    1    2    0    0 -0.44148694213E+03 -0.10966217534E+03 -0.76518279652E+03  0.13018990840E+04  0.95000000000E+03 0.  0.
   -2000013    1    1    2    0    0  0.44148694213E+03  0.10966217534E+03  0.79176746945E+02  0.10562696010E+04  0.95000000000E+03 0.  0.
<mgrwt>
<rscale>  0 0.22561816E+04</rscale>
<asrwt>0</asrwt>
<pdfrwt beam="2">  1        2 0.23416729E+00 0.22561816E+04</pdfrwt>
<pdfrwt beam="1">  1       -2 0.12862790E+00 0.22561816E+04</pdfrwt>
<totfact> 0.50075741E+00</totfact>
</mgrwt>
</event>
<event>
 4    1  0.1321115E-008  0.3183478E+04  0.7816531E-02  0.8193194E-01
         -2   -1    0    0    0  501 -0.00000000000E+00  0.00000000000E+00  0.11691190452E+04  0.11691190452E+04  0.00000000000E+00 0.  1.
          2   -1    0    0  501    0  0.00000000000E+00 -0.00000000000E+00 -0.21671296969E+04  0.21671296969E+04  0.00000000000E+00 0. -1.
    2000013    1    1    2    0    0 -0.20169089855E+03 -0.12535952417E+04 -0.35473128985E+03  0.16249660109E+04  0.95000000000E+03 0.  0.
   -2000013    1    1    2    0    0  0.20169089855E+03  0.12535952417E+04 -0.64327936190E+03  0.17112827312E+04  0.95000000000E+03 0.  0.
<mgrwt>
<rscale>  0 0.31834777E+04</rscale>
<asrwt>0</asrwt>
<pdfrwt beam="2">  1        2 0.33340457E+00 0.31834777E+04</pdfrwt>
<pdfrwt beam="1">  1       -2 0.17986447E+00 0.31834777E+04</pdfrwt>
<totfact> 0.82565221E-01</totfact>
</mgrwt>
</event>
<event>
 4    1  0.1321115E-008  0.2051210E+04  0.7816531E-02  0.8583045E-01
         -1   -1    0    0    0  501 -0.00000000000E+00  0.00000000000E+00  0.71545171271E+03  0.71545171271E+03  0.00000000000E+00 0. -1.
          1   -1    0    0  501    0  0.00000000000E+00 -0.00000000000E+00 -0.14702122988E+04  0.14702122988E+04  0.00000000000E+00 0.  1.
    2000013    1    1    2    0    0  0.66644231041E+02  0.36500088758E+03 -0.26212948432E+03  0.10530332227E+04  0.95000000000E+03 0.  0.
   -2000013    1    1    2    0    0 -0.66644231041E+02 -0.36500088758E+03 -0.49263110181E+03  0.11326307889E+04  0.95000000000E+03 0.  0.
<mgrwt>
<rscale>  0 0.20512103E+04</rscale>
<asrwt>0</asrwt>
<pdfrwt beam="2">  1        1 0.22618651E+00 0.20512103E+04</pdfrwt>
<pdfrwt beam="1">  1       -1 0.11006949E+00 0.20512103E+04</pdfrwt>
<totfact> 0.48287618E+00</totfact>
</mgrwt>
</event>
<event>
 4    1  0.1321115E-008  0.2588492E+04  0.7816531E-02  0.8372121E-01
         -1   -1    0    0    0  501 -0.00000000000E+00  0.00000000000E+00  0.81870112729E+03  0.81870112729E+03  0.00000000000E+00 0. -1.
          1   -1    0    0  501    0  0.00000000000E+00 -0.00000000000E+00 -0.20460125627E+04  0.20460125627E+04  0.00000000000E+00 0.  1.
    2000013    1    1    2    0    0 -0.73166649795E+03 -0.11704396918E+03 -0.11369062914E+04  0.16565298278E+04  0.95000000000E+03 0.  0.
   -2000013    1    1    2    0    0  0.73166649795E+03  0.11704396918E+03 -0.90405144070E+02  0.12081838623E+04  0.95000000000E+03 0.  0.
<mgrwt>
<rscale>  0 0.25884921E+04</rscale>
<asrwt>0</asrwt>
<pdfrwt beam="2">  1        1 0.31477116E+00 0.25884921E+04</pdfrwt>
<pdfrwt beam="1">  1       -1 0.12595402E+00 0.25884921E+04</pdfrwt>
<totfact> 0.13422357E+00</totfact>
</mgrwt>
</event>
<event>
 4    1  0.1321115E-008  0.3056983E+04  0.7816531E-02  0.8227644E-01
          2   -1    0    0  501    0  0.00000000000E+00  0.00000000000E+00  0.24290136645E+04  0.24290136645E+04  0.00000000000E+00 0.  1.
         -2   -1    0    0    0  501 -0.00000000000E+00 -0.00000000000E+00 -0.96182502372E+03  0.96182502372E+03  0.00000000000E+00 0. -1.
    2000013    1    1    2    0    0 -0.69220841513E+03  0.97553542676E+03  0.79398539461E+03  0.17215500764E+04  0.95000000000E+03 0.  0.
   -2000013    1    1    2    0    0  0.69220841513E+03 -0.97553542676E+03  0.67320324619E+03  0.16692886118E+04  0.95000000000E+03 0.  0.
<mgrwt>
<rscale>  0 0.30569829E+04</rscale>
<asrwt>0</asrwt>
<pdfrwt beam="1">  1        2 0.37369441E+00 0.30569829E+04</pdfrwt>
<pdfrwt beam="2">  1       -2 0.14797308E+00 0.30569829E+04</pdfrwt>
<totfact> 0.10123371E+00</totfact>
</mgrwt>
</event>
<event>
 4    1  0.1321115E-008  0.2836411E+04  0.7816531E-02  0.8292053E-01
          2   -1    0    0  501    0  0.00000000000E+00  0.00000000000E+00  0.17614299782E+04  0.17614299782E+04  0.00000000000E+00 0.  1.
         -2   -1    0    0    0  501 -0.00000000000E+00 -0.00000000000E+00 -0.11418598297E+04  0.11418598297E+04  0.00000000000E+00 0. -1.
    2000013    1    1    2    0    0  0.62738682575E+03 -0.55572329570E+03  0.96228229147E+03  0.15908896313E+04  0.95000000000E+03 0.  0.
   -2000013    1    1    2    0    0 -0.62738682575E+03  0.55572329570E+03 -0.34271214297E+03  0.13124001766E+04  0.95000000000E+03 0.  0.
<mgrwt>
<rscale>  0 0.28364105E+04</rscale>
<asrwt>0</asrwt>
<pdfrwt beam="1">  1        2 0.27098923E+00 0.28364105E+04</pdfrwt>
<pdfrwt beam="2">  1       -2 0.17567074E+00 0.28364105E+04</pdfrwt>
<totfact> 0.15287833E+00</totfact>
</mgrwt>
</event>
<event>
 4    1  0.1321115E-008  0.3869608E+04  0.7816531E-02  0.8031380E-01
          2   -1    0    0  501    0  0.00000000000E+00  0.00000000000E+00  0.20533235864E+04  0.20533235864E+04  0.00000000000E+00 0.  1.
         -2   -1    0    0    0  501 -0.00000000000E+00 -0.00000000000E+00 -0.18231251667E+04  0.18231251667E+04  0.00000000000E+00 0. -1.
    2000013    1    1    2    0    0 -0.16490261159E+04  0.33086996224E+03  0.44329043798E+01  0.19316525861E+04  0.95000000000E+03 0.  0.
   -2000013    1    1    2    0    0  0.16490261159E+04 -0.33086996224E+03  0.22576551536E+03  0.19447961669E+04  0.95000000000E+03 0.  0.
<mgrwt>
<rscale>  0 0.38696077E+04</rscale>
<asrwt>0</asrwt>
<pdfrwt beam="1">  1        2 0.31589594E+00 0.38696077E+04</pdfrwt>
<pdfrwt beam="2">  1       -2 0.28048079E+00 0.38696077E+04</pdfrwt>
<totfact> 0.20808699E-01</totfact>
</mgrwt>
</event>
<event>
 4    1  0.1321115E-008  0.2321120E+04  0.7816531E-02  0.8469640E-01
          2   -1    0    0  501    0  0.00000000000E+00  0.00000000000E+00  0.21554937750E+04  0.21554937750E+04  0.00000000000E+00 0.  1.
         -2   -1    0    0    0  501 -0.00000000000E+00 -0.00000000000E+00 -0.62486819940E+03  0.62486819940E+03  0.00000000000E+00 0. -1.
    2000013    1    1    2    0    0  0.48834112286E+03 -0.40449875910E+03  0.10116842703E+04  0.15258117057E+04  0.95000000000E+03 0.  0.
   -2000013    1    1    2    0    0 -0.48834112286E+03  0.40449875910E+03  0.51894130527E+03  0.12545502687E+04  0.95000000000E+03 0.  0.
<mgrwt>
<rscale>  0 0.23211200E+04</rscale>
<asrwt>0</asrwt>
<pdfrwt beam="1">  1        2 0.33161442E+00 0.23211200E+04</pdfrwt>
<pdfrwt beam="2">  1       -2 0.96133571E-01 0.23211200E+04</pdfrwt>
<totfact> 0.44870410E+00</totfact>
</mgrwt>
</event>
<event>
 4    1  0.1321115E-008  0.2227864E+04  0.7816531E-02  0.8506919E-01
          2   -1    0    0  501    0  0.00000000000E+00  0.00000000000E+00  0.16561133193E+04  0.16561133193E+04  0.00000000000E+00 0.  1.
         -2   -1    0    0    0  501 -0.00000000000E+00 -0.00000000000E+00 -0.74925080095E+03  0.74925080095E+03  0.00000000000E+00 0. -1.
    2000013    1    1    2    0    0  0.57131102620E+03  0.10004165393E+03  0.40588138443E+03  0.11847549618E+04  0.95000000000E+03 0.  0.
   -2000013    1    1    2    0    0 -0.57131102620E+03 -0.10004165393E+03  0.50098113389E+03  0.12206091585E+04  0.95000000000E+03 0.  0.
<mgrwt>
<rscale>  0 0.22278638E+04</rscale>
<asrwt>0</asrwt>
<pdfrwt beam="1">  1        2 0.25478666E+00 0.22278638E+04</pdfrwt>
<pdfrwt beam="2">  1       -2 0.11526935E+00 0.22278638E+04</pdfrwt>
<totfact> 0.55478161E+00</totfact>
</mgrwt>
</event>
<event>
 4    1  0.1321115E-008  0.2082560E+04  0.7816531E-02  0.8568965E-01
          2   -1    0    0  501    0  0.00000000000E+00  0.00000000000E+00  0.17091513596E+04  0.17091513596E+04  0.00000000000E+00 0.  1.
         -2   -1    0    0    0  501 -0.00000000000E+00 -0.00000000000E+00 -0.63438724244E+03  0.63438724244E+03  0.00000000000E+00 0. -1.
    2000013    1    1    2    0    0 -0.66912540691E+02  0.37609701726E+03  0.75041358064E+03  0.12694671309E+04  0.95000000000E+03 0.  0.
   -2000013    1    1    2    0    0  0.66912540691E+02 -0.37609701726E+03  0.32435053649E+03  0.10740714711E+04  0.95000000000E+03 0.  0.
<mgrwt>
<rscale>  0 0.20825598E+04</rscale>
<asrwt>0</asrwt>
<pdfrwt beam="1">  1        2 0.26294636E+00 0.20825598E+04</pdfrwt>
<pdfrwt beam="2">  1       -2 0.97598038E-01 0.20825598E+04</pdfrwt>
<totfact> 0.78254340E+00</totfact>
</mgrwt>
</event>
<event>
 4    1  0.1321115E-008  0.2768628E+04  0.7816531E-02  0.8313075E-01
         -2   -1    0    0    0  501 -0.00000000000E+00  0.00000000000E+00  0.74632717554E+03  0.74632717554E+03  0.00000000000E+00 0. -1.
          2   -1    0    0  501    0  0.00000000000E+00 -0.00000000000E+00 -0.25676743990E+04  0.25676743990E+04  0.00000000000E+00 0.  1.
    2000013    1    1    2    0    0  0.29159623109E+03  0.86797302010E+03 -0.14120077044E+04  0.19325297625E+04  0.95000000000E+03 0.  0.
   -2000013    1    1    2    0    0 -0.29159623109E+03 -0.86797302010E+03 -0.40933951904E+03  0.13814718120E+04  0.95000000000E+03 0.  0.
<mgrwt>
<rscale>  0 0.27686280E+04</rscale>
<asrwt>0</asrwt>
<pdfrwt beam="2">  1        2 0.39502684E+00 0.27686280E+04</pdfrwt>
<pdfrwt beam="1">  1       -2 0.11481956E+00 0.27686280E+04</pdfrwt>
<totfact> 0.16411394E+00</totfact>
</mgrwt>
</event>
<event>
 4    1  0.1321115E-008  0.3534552E+04  0.7816531E-02  0.8105650E-01
          2   -1    0    0  501    0  0.00000000000E+00  0.00000000000E+00  0.39487236419E+04  0.39487236419E+04  0.00000000000E+00 0.  1.
         -2   -1    0    0    0  501 -0.00000000000E+00 -0.00000000000E+00 -0.79095537069E+03  0.79095537069E+03  0.00000000000E+00 0. -1.
    2000013    1    1    2    0    0  0.89655608251E+03  0.11253497711E+04  0.10586013494E+04  0.20232058060E+04  0.95000000000E+03 0.  0.
   -2000013    1    1    2    0    0 -0.89655608251E+03 -0.11253497711E+04  0.20991669218E+04  0.27164732066E+04  0.95000000000E+03 0.  0.
<mgrwt>
<rscale>  0 0.35345518E+04</rscale>
<asrwt>0</asrwt>
<pdfrwt beam="1">  1        2 0.60749594E+00 0.35345518E+04</pdfrwt>
<pdfrwt beam="2">  1       -2 0.12168544E+00 0.35345518E+04</pdfrwt>
<totfact> 0.15766617E-01</totfact>
</mgrwt>
</event>
<event>
 4    1  0.1321115E-008  0.1969741E+04  0.7816531E-02  0.8620900E-01
          2   -1    0    0  501    0  0.00000000000E+00  0.00000000000E+00  0.54783707321E+03  0.54783707321E+03  0.00000000000E+00 0.  1.
         -2   -1    0    0    0  501 -0.00000000000E+00 -0.00000000000E+00 -0.17705453376E+04  0.17705453376E+04  0.00000000000E+00 0. -1.
    2000013    1    1    2    0    0 -0.22113393242E+03 -0.12972032361E+03 -0.66049007375E+03  0.11851053607E+04  0.95000000000E+03 0.  0.
   -2000013    1    1    2    0    0  0.22113393242E+03  0.12972032361E+03 -0.56221819064E+03  0.11332770501E+04  0.95000000000E+03 0.  0.
<mgrwt>
<rscale>  0 0.19697415E+04</rscale>
<asrwt>0</asrwt>
<pdfrwt beam="1">  1        2 0.84282627E-01 0.19697415E+04</pdfrwt>
<pdfrwt beam="2">  1       -2 0.27239159E+00 0.19697415E+04</pdfrwt>
<totfact> 0.24148499E+00</totfact>
</mgrwt>
</event>
<event>
 4    1  0.1321115E-008  0.2570262E+04  0.7816531E-02  0.8378373E-01
          2   -1    0    0  501    0  0.00000000000E+00  0.00000000000E+00  0.13956135400E+04  0.13956135400E+04  0.00000000000E+00 0.  1.
         -2   -1    0    0    0  501 -0.00000000000E+00 -0.00000000000E+00 -0.11833945927E+04  0.11833945927E+04  0.00000000000E+00 0. -1.
    2000013    1    1    2    0    0  0.42492134963E+03 -0.59171449131E+03 -0.36278931263E+03  0.12509197728E+04  0.95000000000E+03 0.  0.
   -2000013    1    1    2    0    0 -0.42492134963E+03  0.59171449131E+03  0.57500825996E+03  0.13280883599E+04  0.95000000000E+03 0.  0.
<mgrwt>
<rscale>  0 0.25702619E+04</rscale>
<asrwt>0</asrwt>
<pdfrwt beam="1">  1        2 0.21470978E+00 0.25702619E+04</pdfrwt>
<pdfrwt beam="2">  1       -2 0.18206071E+00 0.25702619E+04</pdfrwt>
<totfact> 0.22651686E+00</totfact>
</mgrwt>
</event>
<event>
 4    1  0.1321115E-008  0.2776803E+04  0.7816531E-02  0.8310506E-01
         -2   -1    0    0    0  501 -0.00000000000E+00  0.00000000000E+00  0.25067237581E+04  0.25067237581E+04  0.00000000000E+00 0. -1.
          2   -1    0    0  501    0  0.00000000000E+00 -0.00000000000E+00 -0.76899544364E+03  0.76899544364E+03  0.00000000000E+00 0.  1.
    2000013    1    1    2    0    0 -0.81579054412E+03  0.54469376527E+03  0.57287761353E+03  0.14808424190E+04  0.95000000000E+03 0.  0.
   -2000013    1    1    2    0    0  0.81579054412E+03 -0.54469376527E+03  0.11648507010E+04  0.17948767828E+04  0.95000000000E+03 0.  0.
<mgrwt>
<rscale>  0 0.27768033E+04</rscale>
<asrwt>0</asrwt>
<pdfrwt beam="2">  1        2 0.11830699E+00 0.27768033E+04</pdfrwt>
<pdfrwt beam="1">  1       -2 0.38564980E+00 0.27768033E+04</pdfrwt>
<totfact> 0.29117693E-01</totfact>
</mgrwt>
</event>
<event>
 4    1  0.1321115E-008  0.2459544E+04  0.7816531E-02  0.8417542E-01
         -2   -1    0    0    0  501 -0.00000000000E+00  0.00000000000E+00  0.36817469870E+03  0.36817469870E+03  0.00000000000E+00 0. -1.
          2   -1    0    0  501    0  0.00000000000E+00 -0.00000000000E+00 -0.41076658418E+04  0.41076658418E+04  0.00000000000E+00 0.  1.
    2000013    1    1    2    0    0  0.61011136835E+03  0.45213326552E+03 -0.15382735299E+04  0.19609808322E+04  0.95000000000E+03 0.  0.
   -2000013    1    1    2    0    0 -0.61011136835E+03 -0.45213326552E+03 -0.22012176132E+04  0.25148597083E+04  0.95000000000E+03 0.  0.
<mgrwt>
<rscale>  0 0.24595436E+04</rscale>
<asrwt>0</asrwt>
<pdfrwt beam="2">  1        2 0.63194854E+00 0.24595436E+04</pdfrwt>
<pdfrwt beam="1">  1       -2 0.56642266E-01 0.24595436E+04</pdfrwt>
<totfact> 0.73279719E-01</totfact>
</mgrwt>
</event>
<event>
 4    1  0.1321115E-008  0.2839515E+04  0.7816531E-02  0.8291104E-01
         -2   -1    0    0    0  501 -0.00000000000E+00  0.00000000000E+00  0.11213766245E+04  0.11213766245E+04  0.00000000000E+00 0. -1.
          2   -1    0    0  501    0  0.00000000000E+00 -0.00000000000E+00 -0.17975333425E+04  0.17975333425E+04  0.00000000000E+00 0.  1.
    2000013    1    1    2    0    0 -0.18375061106E+03 -0.10046206554E+04 -0.65746535840E+02  0.13963701355E+04  0.95000000000E+03 0.  0.
   -2000013    1    1    2    0    0  0.18375061106E+03  0.10046206554E+04 -0.61041018210E+03  0.15225398315E+04  0.95000000000E+03 0.  0.
<mgrwt>
<rscale>  0 0.28395154E+04</rscale>
<asrwt>0</asrwt>
<pdfrwt beam="2">  1        2 0.27654359E+00 0.28395154E+04</pdfrwt>
<pdfrwt beam="1">  1       -2 0.17251948E+00 0.28395154E+04</pdfrwt>
<totfact> 0.15359064E+00</totfact>
</mgrwt>
</event>
<event>
 4    1  0.1321115E-008  0.2723632E+04  0.7816531E-02  0.8327378E-01
          2   -1    0    0  501    0  0.00000000000E+00  0.00000000000E+00  0.10558151338E+04  0.10558151338E+04  0.00000000000E+00 0.  1.
         -2   -1    0    0    0  501 -0.00000000000E+00 -0.00000000000E+00 -0.17565033506E+04  0.17565033506E+04  0.00000000000E+00 0. -1.
    2000013    1    1    2    0    0 -0.39830790069E+02  0.79301262014E+03  0.23520796912E+03  0.12602691364E+04  0.95000000000E+03 0.  0.
   -2000013    1    1    2    0    0  0.39830790069E+02 -0.79301262014E+03 -0.93589618600E+03  0.15520493480E+04  0.95000000000E+03 0.  0.
<mgrwt>
<rscale>  0 0.27236320E+04</rscale>
<asrwt>0</asrwt>
<pdfrwt beam="1">  1        2 0.16243310E+00 0.27236320E+04</pdfrwt>
<pdfrwt beam="2">  1       -2 0.27023128E+00 0.27236320E+04</pdfrwt>
<totfact> 0.98183225E-01</totfact>
</mgrwt>
</event>
<event>
 4    1  0.1321115E-008  0.2797221E+04  0.7816531E-02  0.8304132E-01
         -1   -1    0    0    0  501 -0.00000000000E+00  0.00000000000E+00  0.84970771408E+03  0.84970771408E+03  0.00000000000E+00 0. -1.
          1   -1    0    0  501    0  0.00000000000E+00 -0.00000000000E+00 -0.23020990084E+04  0.23020990084E+04  0.00000000000E+00 0.  1.
    2000013    1    1    2    0    0  0.52308805305E+03 -0.79597027861E+03 -0.11573524212E+04  0.17745857045E+04  0.95000000000E+03 0.  0.
   -2000013    1    1    2    0    0 -0.52308805305E+03  0.79597027861E+03 -0.29503887305E+03  0.13772210180E+04  0.95000000000E+03 0.  0.
<mgrwt>
<rscale>  0 0.27972210E+04</rscale>
<asrwt>0</asrwt>
<pdfrwt beam="2">  1        1 0.35416908E+00 0.27972210E+04</pdfrwt>
<pdfrwt beam="1">  1       -1 0.13072426E+00 0.27972210E+04</pdfrwt>
<totfact> 0.80300081E-01</totfact>
</mgrwt>
</event>
<event>
 4    1  0.1321115E-008  0.3100551E+04  0.7816531E-02  0.8215587E-01
          2   -1    0    0  501    0  0.00000000000E+00  0.00000000000E+00  0.25513923967E+04  0.25513923967E+04  0.00000000000E+00 0.  1.
         -2   -1    0    0    0  501 -0.00000000000E+00 -0.00000000000E+00 -0.94197734230E+03  0.94197734230E+03  0.00000000000E+00 0. -1.
    2000013    1    1    2    0    0 -0.11818373840E+04  0.18837119237E+03  0.50954287397E+03  0.16107008564E+04  0.95000000000E+03 0.  0.
   -2000013    1    1    2    0    0  0.11818373840E+04 -0.18837119237E+03  0.10998721805E+04  0.18826688826E+04  0.95000000000E+03 0.  0.
<mgrwt>
<rscale>  0 0.31005508E+04</rscale>
<asrwt>0</asrwt>
<pdfrwt beam="1">  1        2 0.39252190E+00 0.31005508E+04</pdfrwt>
<pdfrwt beam="2">  1       -2 0.14491959E+00 0.31005508E+04</pdfrwt>
<totfact> 0.90505908E-01</totfact>
</mgrwt>
</event>
<event>
 4    1  0.1321115E-008  0.2732163E+04  0.7816531E-02  0.8324644E-01
          2   -1    0    0  501    0  0.00000000000E+00  0.00000000000E+00  0.12639036966E+04  0.12639036966E+04  0.00000000000E+00 0.  1.
         -2   -1    0    0    0  501 -0.00000000000E+00 -0.00000000000E+00 -0.14765201876E+04  0.14765201876E+04  0.00000000000E+00 0. -1.
    2000013    1    1    2    0    0  0.42610377785E+03 -0.72948473040E+03  0.39517027136E+03  0.13313046025E+04  0.95000000000E+03 0.  0.
   -2000013    1    1    2    0    0 -0.42610377785E+03  0.72948473040E+03 -0.60778676240E+03  0.14091192817E+04  0.95000000000E+03 0.  0.
<mgrwt>
<rscale>  0 0.27321635E+04</rscale>
<asrwt>0</asrwt>
<pdfrwt beam="1">  1        2 0.19444672E+00 0.27321635E+04</pdfrwt>
<pdfrwt beam="2">  1       -2 0.22715695E+00 0.27321635E+04</pdfrwt>
<totfact> 0.13528878E+00</totfact>
</mgrwt>
</event>
<event>
 4    1  0.1321115E-008  0.2225659E+04  0.7816531E-02  0.8507824E-01
          2   -1    0    0  501    0  0.00000000000E+00  0.00000000000E+00  0.25335663338E+04  0.25335663338E+04  0.00000000000E+00 0.  1.
         -2   -1    0    0    0  501 -0.00000000000E+00 -0.00000000000E+00 -0.48879282568E+03  0.48879282568E+03  0.00000000000E+00 0. -1.
    2000013    1    1    2    0    0  0.33173748048E+03 -0.47208240716E+03  0.10964858393E+04  0.15613112280E+04  0.95000000000E+03 0.  0.
   -2000013    1    1    2    0    0 -0.33173748048E+03  0.47208240716E+03  0.94828766889E+03  0.14610479315E+04  0.95000000000E+03 0.  0.
<mgrwt>
<rscale>  0 0.22256586E+04</rscale>
<asrwt>0</asrwt>
<pdfrwt beam="1">  1        2 0.38977943E+00 0.22256586E+04</pdfrwt>
<pdfrwt beam="2">  1       -2 0.75198898E-01 0.22256586E+04</pdfrwt>
<totfact> 0.48194467E+00</totfact>
</mgrwt>
</event>
<event>
 4    1  0.1321115E-008  0.2571869E+04  0.7816531E-02  0.8377820E-01
          2   -1    0    0  501    0  0.00000000000E+00  0.00000000000E+00  0.80085265217E+03  0.80085265217E+03  0.00000000000E+00 0.  1.
         -2   -1    0    0    0  501 -0.00000000000E+00 -0.00000000000E+00 -0.20648337803E+04  0.20648337803E+04  0.00000000000E+00 0. -1.
    2000013    1    1    2    0    0 -0.53081087241E+03  0.68431456812E+03 -0.66862524586E+03  0.14490018391E+04  0.95000000000E+03 0.  0.
   -2000013    1    1    2    0    0  0.53081087241E+03 -0.68431456812E+03 -0.59535588225E+03  0.14166845933E+04  0.95000000000E+03 0.  0.
<mgrwt>
<rscale>  0 0.25718691E+04</rscale>
<asrwt>0</asrwt>
<pdfrwt beam="1">  1        2 0.12320810E+00 0.25718691E+04</pdfrwt>
<pdfrwt beam="2">  1       -2 0.31766673E+00 0.25718691E+04</pdfrwt>
<totfact> 0.75502378E-01</totfact>
</mgrwt>
</event>
<event>
 4    1  0.1321115E-008  0.2291083E+04  0.7816531E-02  0.8481445E-01
          2   -1    0    0  501    0  0.00000000000E+00  0.00000000000E+00  0.65872495797E+03  0.65872495797E+03  0.00000000000E+00 0. -1.
         -2   -1    0    0    0  501 -0.00000000000E+00 -0.00000000000E+00 -0.19921285102E+04  0.19921285102E+04  0.00000000000E+00 0.  1.
    2000013    1    1    2    0    0  0.52555884298E+03 -0.29968774267E+03 -0.90868431360E+03  0.14471461648E+04  0.95000000000E+03 0.  0.
   -2000013    1    1    2    0    0 -0.52555884298E+03  0.29968774267E+03 -0.42471923866E+03  0.12037073034E+04  0.95000000000E+03 0.  0.
<mgrwt>
<rscale>  0 0.22910825E+04</rscale>
<asrwt>0</asrwt>
<pdfrwt beam="1">  1        2 0.10134230E+00 0.22910825E+04</pdfrwt>
<pdfrwt beam="2">  1       -2 0.30648131E+00 0.22910825E+04</pdfrwt>
<totfact> 0.11643231E+00</totfact>
</mgrwt>
</event>
<event>
 4    1  0.1321115E-008  0.2359252E+04  0.7816531E-02  0.8454919E-01
          1   -1    0    0  501    0  0.00000000000E+00  0.00000000000E+00  0.18851391863E+04  0.18851391863E+04  0.00000000000E+00 0. -1.
         -1   -1    0    0    0  501 -0.00000000000E+00 -0.00000000000E+00 -0.73815100371E+03  0.73815100371E+03  0.00000000000E+00 0.  1.
    2000013    1    1    2    0    0 -0.68781447976E+03  0.50786270418E+02  0.70196433507E+03  0.13678164831E+04  0.95000000000E+03 0.  0.
   -2000013    1    1    2    0    0  0.68781447976E+03 -0.50786270418E+02  0.44502384755E+03  0.12554737069E+04  0.95000000000E+03 0.  0.
<mgrwt>
<rscale>  0 0.23592519E+04</rscale>
<asrwt>0</asrwt>
<pdfrwt beam="1">  1        1 0.29002141E+00 0.23592519E+04</pdfrwt>
<pdfrwt beam="2">  1       -1 0.11356169E+00 0.23592519E+04</pdfrwt>
<totfact> 0.22682778E+00</totfact>
</mgrwt>
</event>
<event>
 4    1  0.1321115E-008  0.3549174E+04  0.7816531E-02  0.8102234E-01
          2   -1    0    0  501    0  0.00000000000E+00  0.00000000000E+00  0.25237409526E+04  0.25237409526E+04  0.00000000000E+00 0.  1.
         -2   -1    0    0    0  501 -0.00000000000E+00 -0.00000000000E+00 -0.12478138660E+04  0.12478138660E+04  0.00000000000E+00 0. -1.
    2000013    1    1    2    0    0 -0.43921291391E+03  0.13943046539E+04  0.28605634089E+03  0.17667262611E+04  0.95000000000E+03 0.  0.
   -2000013    1    1    2    0    0  0.43921291391E+03 -0.13943046539E+04  0.98987074577E+03  0.20048285575E+04  0.95000000000E+03 0.  0.
<mgrwt>
<rscale>  0 0.35491740E+04</rscale>
<asrwt>0</asrwt>
<pdfrwt beam="1">  1        2 0.38826784E+00 0.35491740E+04</pdfrwt>
<pdfrwt beam="2">  1       -2 0.19197136E+00 0.35491740E+04</pdfrwt>
<totfact> 0.41493131E-01</totfact>
</mgrwt>
</event>
<event>
 4    1  0.1321115E-008  0.2158303E+04  0.7816531E-02  0.8535986E-01
          2   -1    0    0  501    0  0.00000000000E+00  0.00000000000E+00  0.14239282121E+04  0.14239282121E+04  0.00000000000E+00 0.  1.
         -2   -1    0    0    0  501 -0.00000000000E+00 -0.00000000000E+00 -0.81785598083E+03  0.81785598083E+03  0.00000000000E+00 0. -1.
    2000013    1    1    2    0    0 -0.27485959866E+03 -0.43157234654E+03  0.28610484246E+03  0.11163146824E+04  0.95000000000E+03 0.  0.
   -2000013    1    1    2    0    0  0.27485959866E+03  0.43157234654E+03  0.31996738884E+03  0.11254695106E+04  0.95000000000E+03 0.  0.
<mgrwt>
<rscale>  0 0.21583032E+04</rscale>
<asrwt>0</asrwt>
<pdfrwt beam="1">  1        2 0.21906588E+00 0.21583032E+04</pdfrwt>
<pdfrwt beam="2">  1       -2 0.12582400E+00 0.21583032E+04</pdfrwt>
<totfact> 0.60663510E+00</totfact>
</mgrwt>
</event>
<event>
 4    1  0.1321115E-008  0.2422344E+04  0.7816531E-02  0.8431186E-01
         -2   -1    0    0    0  501 -0.00000000000E+00  0.00000000000E+00  0.52247457438E+03  0.52247457438E+03  0.00000000000E+00 0. -1.
          2   -1    0    0  501    0  0.00000000000E+00 -0.00000000000E+00 -0.28076719525E+04  0.28076719525E+04  0.00000000000E+00 0.  1.
    2000013    1    1    2    0    0 -0.28194355611E+03  0.67873850431E+03 -0.92847497430E+03  0.15181383020E+04  0.95000000000E+03 0.  0.
   -2000013    1    1    2    0    0  0.28194355611E+03 -0.67873850431E+03 -0.13567224038E+04  0.18120082249E+04  0.95000000000E+03 0.  0.
<mgrwt>
<rscale>  0 0.24223437E+04</rscale>
<asrwt>0</asrwt>
<pdfrwt beam="2">  1        2 0.43194954E+00 0.24223437E+04</pdfrwt>
<pdfrwt beam="1">  1       -2 0.80380703E-01 0.24223437E+04</pdfrwt>
<totfact> 0.28086291E+00</totfact>
</mgrwt>
</event>
<event>
 4    1  0.1321115E-008  0.2579973E+04  0.7816531E-02  0.8375036E-01
          2   -1    0    0  501    0  0.00000000000E+00  0.00000000000E+00  0.12479389052E+04  0.12479389052E+04  0.00000000000E+00 0.  1.
         -2   -1    0    0    0  501 -0.00000000000E+00 -0.00000000000E+00 -0.13334513393E+04  0.13334513393E+04  0.00000000000E+00 0. -1.
    2000013    1    1    2    0    0  0.60822752316E+03  0.23839754576E+03  0.53617338760E+03  0.12715172084E+04  0.95000000000E+03 0.  0.
   -2000013    1    1    2    0    0 -0.60822752316E+03 -0.23839754576E+03 -0.62168582170E+03  0.13098730361E+04  0.95000000000E+03 0.  0.
<mgrwt>
<rscale>  0 0.25799735E+04</rscale>
<asrwt>0</asrwt>
<pdfrwt beam="1">  1        2 0.19199060E+00 0.25799735E+04</pdfrwt>
<pdfrwt beam="2">  1       -2 0.20514636E+00 0.25799735E+04</pdfrwt>
<totfact> 0.19344538E+00</totfact>
</mgrwt>
</event>
<event>
 4    1  0.1321115E-008  0.2212938E+04  0.7816531E-02  0.8513062E-01
          2   -1    0    0  501    0  0.00000000000E+00  0.00000000000E+00  0.22255460357E+04  0.22255460357E+04  0.00000000000E+00 0.  1.
         -2   -1    0    0    0  501 -0.00000000000E+00 -0.00000000000E+00 -0.55010034519E+03  0.55010034519E+03  0.00000000000E+00 0. -1.
    2000013    1    1    2    0    0 -0.17454937051E+03 -0.37534723887E+03  0.35126124599E+03  0.10941834834E+04  0.95000000000E+03 0.  0.
   -2000013    1    1    2    0    0  0.17454937051E+03  0.37534723887E+03  0.13241844446E+04  0.16814628975E+04  0.95000000000E+03 0.  0.
<mgrwt>
<rscale>  0 0.22129380E+04</rscale>
<asrwt>0</asrwt>
<pdfrwt beam="1">  1        2 0.34239169E+00 0.22129380E+04</pdfrwt>
<pdfrwt beam="2">  1       -2 0.84630824E-01 0.22129380E+04</pdfrwt>
<totfact> 0.55499579E+00</totfact>
</mgrwt>
</event>
<event>
 4    1  0.1321115E-008  0.2013547E+04  0.7816531E-02  0.8600313E-01
          1   -1    0    0  501    0  0.00000000000E+00  0.00000000000E+00  0.14941782431E+04  0.14941782431E+04  0.00000000000E+00 0.  1.
         -1   -1    0    0    0  501 -0.00000000000E+00 -0.00000000000E+00 -0.67836118307E+03  0.67836118307E+03  0.00000000000E+00 0. -1.
    2000013    1    1    2    0    0 -0.20865287492E+02 -0.33214151746E+03  0.42777938450E+03  0.10937314797E+04  0.95000000000E+03 0.  0.
   -2000013    1    1    2    0    0  0.20865287492E+02  0.33214151746E+03  0.38803767557E+03  0.10788079465E+04  0.95000000000E+03 0.  0.
<mgrwt>
<rscale>  0 0.20135466E+04</rscale>
<asrwt>0</asrwt>
<pdfrwt beam="1">  1        1 0.22987357E+00 0.20135466E+04</pdfrwt>
<pdfrwt beam="2">  1       -1 0.10436326E+00 0.20135466E+04</pdfrwt>
<totfact> 0.52828074E+00</totfact>
</mgrwt>
</event>
<event>
 4    1  0.1321115E-008  0.2024287E+04  0.7816531E-02  0.8595349E-01
          2   -1    0    0  501    0  0.00000000000E+00  0.00000000000E+00  0.18083063856E+04  0.18083063856E+04  0.00000000000E+00 0.  1.
         -2   -1    0    0    0  501 -0.00000000000E+00 -0.00000000000E+00 -0.56651615391E+03  0.56651615391E+03  0.00000000000E+00 0. -1.
    2000013    1    1    2    0    0  0.32854527640E+03 -0.11713732752E+03  0.60156007417E+03  0.11773010129E+04  0.95000000000E+03 0.  0.
   -2000013    1    1    2    0    0 -0.32854527640E+03  0.11713732752E+03  0.64023015755E+03  0.11975215266E+04  0.95000000000E+03 0.  0.
<mgrwt>
<rscale>  0 0.20242873E+04</rscale>
<asrwt>0</asrwt>
<pdfrwt beam="1">  1        2 0.27820098E+00 0.20242873E+04</pdfrwt>
<pdfrwt beam="2">  1       -2 0.87156332E-01 0.20242873E+04</pdfrwt>
<totfact> 0.90071990E+00</totfact>
</mgrwt>
</event>
<event>
 4    1  0.1321115E-008  0.2540848E+04  0.7816531E-02  0.8388576E-01
         -2   -1    0    0    0  501 -0.00000000000E+00  0.00000000000E+00  0.70504837554E+03  0.70504837554E+03  0.00000000000E+00 0. -1.
          2   -1    0    0  501    0  0.00000000000E+00 -0.00000000000E+00 -0.22891730120E+04  0.22891730120E+04  0.00000000000E+00 0.  1.
    2000013    1    1    2    0    0  0.41295276991E+03 -0.42516294226E+03 -0.84821248746E+02  0.11229372921E+04  0.95000000000E+03 0.  0.
   -2000013    1    1    2    0    0 -0.41295276991E+03  0.42516294226E+03 -0.14993033877E+04  0.18712840955E+04  0.95000000000E+03 0.  0.
<mgrwt>
<rscale>  0 0.25408485E+04</rscale>
<asrwt>0</asrwt>
<pdfrwt beam="2">  1        2 0.35218046E+00 0.25408485E+04</pdfrwt>
<pdfrwt beam="1">  1       -2 0.10846898E+00 0.25408485E+04</pdfrwt>
<totfact> 0.27776645E+00</totfact>
</mgrwt>
</event>
<event>
 4    1  0.1321115E-008  0.2773423E+04  0.7816531E-02  0.8311567E-01
          2   -1    0    0  501    0  0.00000000000E+00  0.00000000000E+00  0.23277195974E+04  0.23277195974E+04  0.00000000000E+00 0.  1.
         -2   -1    0    0    0  501 -0.00000000000E+00 -0.00000000000E+00 -0.82611725818E+03  0.82611725818E+03  0.00000000000E+00 0. -1.
    2000013    1    1    2    0    0 -0.72441262058E+03 -0.63891416075E+03  0.10871487544E+04  0.17370599770E+04  0.95000000000E+03 0.  0.
   -2000013    1    1    2    0    0  0.72441262058E+03  0.63891416075E+03  0.41445358490E+03  0.14167768786E+04  0.95000000000E+03 0.  0.
<mgrwt>
<rscale>  0 0.27734234E+04</rscale>
<asrwt>0</asrwt>
<pdfrwt beam="1">  1        2 0.35811070E+00 0.27734234E+04</pdfrwt>
<pdfrwt beam="2">  1       -2 0.12709496E+00 0.27734234E+04</pdfrwt>
<totfact> 0.17529588E+00</totfact>
</mgrwt>
</event>
<event>
 4    1  0.1321115E-008  0.2456115E+04  0.7816531E-02  0.8418789E-01
         -2   -1    0    0    0  501 -0.00000000000E+00  0.00000000000E+00  0.70005006588E+03  0.70005006588E+03  0.00000000000E+00 0. -1.
          2   -1    0    0  501    0  0.00000000000E+00 -0.00000000000E+00 -0.21543112211E+04  0.21543112211E+04  0.00000000000E+00 0.  1.
    2000013    1    1    2    0    0  0.57865220482E+03  0.49910004630E+03 -0.55598931694E+03  0.13399863249E+04  0.95000000000E+03 0.  0.
   -2000013    1    1    2    0    0 -0.57865220482E+03 -0.49910004630E+03 -0.89827183830E+03  0.15143749621E+04  0.95000000000E+03 0.  0.
<mgrwt>
<rscale>  0 0.24561154E+04</rscale>
<asrwt>0</asrwt>
<pdfrwt beam="2">  1        2 0.33143250E+00 0.24561154E+04</pdfrwt>
<pdfrwt beam="1">  1       -2 0.10770001E+00 0.24561154E+04</pdfrwt>
<totfact> 0.33904293E+00</totfact>
</mgrwt>
</event>
<event>
 4    1  0.1321115E-008  0.2512242E+04  0.7816531E-02  0.8398637E-01
         -2   -1    0    0    0  501 -0.00000000000E+00  0.00000000000E+00  0.13144862739E+04  0.13144862739E+04  0.00000000000E+00 0. -1.
          2   -1    0    0  501    0  0.00000000000E+00 -0.00000000000E+00 -0.12003475295E+04  0.12003475295E+04  0.00000000000E+00 0.  1.
    2000013    1    1    2    0    0 -0.76204888661E+03 -0.29500388939E+03 -0.30167245784E+02  0.12534575633E+04  0.95000000000E+03 0.  0.
   -2000013    1    1    2    0    0  0.76204888661E+03  0.29500388939E+03  0.14430599023E+03  0.12613762401E+04  0.95000000000E+03 0.  0.
<mgrwt>
<rscale>  0 0.25122423E+04</rscale>
<asrwt>0</asrwt>
<pdfrwt beam="2">  1        2 0.18466885E+00 0.25122423E+04</pdfrwt>
<pdfrwt beam="1">  1       -2 0.20222866E+00 0.25122423E+04</pdfrwt>
<totfact> 0.21691400E+00</totfact>
</mgrwt>
</event>
<event>
 4    1  0.1321115E-008  0.2151757E+04  0.7816531E-02  0.8538780E-01
         -2   -1    0    0    0  501 -0.00000000000E+00  0.00000000000E+00  0.67657823270E+03  0.67657823270E+03  0.00000000000E+00 0. -1.
          2   -1    0    0  501    0  0.00000000000E+00 -0.00000000000E+00 -0.17108364878E+04  0.17108364878E+04  0.00000000000E+00 0.  1.
    2000013    1    1    2    0    0  0.73962881485E+02 -0.46933369738E+03 -0.32730705449E+03  0.11114740371E+04  0.95000000000E+03 0.  0.
   -2000013    1    1    2    0    0 -0.73962881485E+02  0.46933369738E+03 -0.70695120056E+03  0.12759406833E+04  0.95000000000E+03 0.  0.
<mgrwt>
<rscale>  0 0.21517572E+04</rscale>
<asrwt>0</asrwt>
<pdfrwt beam="2">  1        2 0.26320561E+00 0.21517572E+04</pdfrwt>
<pdfrwt beam="1">  1       -2 0.10408896E+00 0.21517572E+04</pdfrwt>
<totfact> 0.66623759E+00</totfact>
</mgrwt>
</event>
<event>
 4    1  0.1321115E-008  0.3198414E+04  0.7816531E-02  0.8189236E-01
          2   -1    0    0  501    0  0.00000000000E+00  0.00000000000E+00  0.25075534772E+04  0.25075534772E+04  0.00000000000E+00 0.  1.
         -2   -1    0    0    0  501 -0.00000000000E+00 -0.00000000000E+00 -0.10199035105E+04  0.10199035105E+04  0.00000000000E+00 0. -1.
    2000013    1    1    2    0    0 -0.10515384113E+04  0.46754523073E+03  0.13779850416E+04  0.20311756074E+04  0.95000000000E+03 0.  0.
   -2000013    1    1    2    0    0  0.10515384113E+04 -0.46754523073E+03  0.10966492514E+03  0.14962813803E+04  0.95000000000E+03 0.  0.
<mgrwt>
<rscale>  0 0.31984137E+04</rscale>
<asrwt>0</asrwt>
<pdfrwt beam="1">  1        2 0.38577746E+00 0.31984137E+04</pdfrwt>
<pdfrwt beam="2">  1       -2 0.15690823E+00 0.31984137E+04</pdfrwt>
<totfact> 0.77069437E-01</totfact>
</mgrwt>
</event>
<event>
 4    1  0.1321115E-008  0.2365238E+04  0.7816531E-02  0.8452634E-01
         -2   -1    0    0    0  501 -0.00000000000E+00  0.00000000000E+00  0.17773016237E+04  0.17773016237E+04  0.00000000000E+00 0. -1.
          2   -1    0    0  501    0  0.00000000000E+00 -0.00000000000E+00 -0.78691653871E+03  0.78691653871E+03  0.00000000000E+00 0.  1.
    2000013    1    1    2    0    0 -0.54856667521E+03 -0.43803714883E+03  0.43304549080E+03  0.12581058533E+04  0.95000000000E+03 0.  0.
   -2000013    1    1    2    0    0  0.54856667521E+03  0.43803714883E+03  0.55733959421E+03  0.13061123092E+04  0.95000000000E+03 0.  0.
<mgrwt>
<rscale>  0 0.23652383E+04</rscale>
<asrwt>0</asrwt>
<pdfrwt beam="2">  1        2 0.12106408E+00 0.23652383E+04</pdfrwt>
<pdfrwt beam="1">  1       -2 0.27343102E+00 0.23652383E+04</pdfrwt>
<totfact> 0.14664464E+00</totfact>
</mgrwt>
</event>
<event>
 4    1  0.1321115E-008  0.2482481E+04  0.7816531E-02  0.8409253E-01
         -2   -1    0    0    0  501 -0.00000000000E+00  0.00000000000E+00  0.10950517553E+04  0.10950517553E+04  0.00000000000E+00 0. -1.
          2   -1    0    0  501    0  0.00000000000E+00 -0.00000000000E+00 -0.14069452307E+04  0.14069452307E+04  0.00000000000E+00 0.  1.
    2000013    1    1    2    0    0  0.25428794245E+03  0.42923267226E+03  0.47287712347E+03  0.11726106850E+04  0.95000000000E+03 0.  0.
   -2000013    1    1    2    0    0 -0.25428794245E+03 -0.42923267226E+03 -0.78477059887E+03  0.13293863011E+04  0.95000000000E+03 0.  0.
<mgrwt>
<rscale>  0 0.24824809E+04</rscale>
<asrwt>0</asrwt>
<pdfrwt beam="2">  1        2 0.21645311E+00 0.24824809E+04</pdfrwt>
<pdfrwt beam="1">  1       -2 0.16846950E+00 0.24824809E+04</pdfrwt>
<totfact> 0.27994841E+00</totfact>
</mgrwt>
</event>
<event>
 4    1  0.1321115E-008  0.2478990E+04  0.7816531E-02  0.8410509E-01
         -2   -1    0    0    0  501 -0.00000000000E+00  0.00000000000E+00  0.36721242067E+03  0.36721242067E+03  0.00000000000E+00 0. -1.
          2   -1    0    0  501    0  0.00000000000E+00 -0.00000000000E+00 -0.41838125909E+04  0.41838125909E+04  0.00000000000E+00 0.  1.
    2000013    1    1    2    0    0  0.18757632078E+03 -0.75862560184E+03 -0.21876267896E+04  0.25097626681E+04  0.95000000000E+03 0.  0.
   -2000013    1    1    2    0    0 -0.18757632078E+03  0.75862560184E+03 -0.16289733807E+04  0.20412623435E+04  0.95000000000E+03 0.  0.
<mgrwt>
<rscale>  0 0.24789901E+04</rscale>
<asrwt>0</asrwt>
<pdfrwt beam="2">  1        2 0.64366348E+00 0.24789901E+04</pdfrwt>
<pdfrwt beam="1">  1       -2 0.56494219E-01 0.24789901E+04</pdfrwt>
<totfact> 0.63369180E-01</totfact>
</mgrwt>
</event>
<event>
 4    1  0.1321115E-008  0.2697441E+04  0.7816531E-02  0.8335836E-01
         -1   -1    0    0    0  501 -0.00000000000E+00  0.00000000000E+00  0.41500637371E+03  0.41500637371E+03  0.00000000000E+00 0. -1.
          1   -1    0    0  501    0  0.00000000000E+00 -0.00000000000E+00 -0.43831800245E+04  0.43831800245E+04  0.00000000000E+00 0.  1.
    2000013    1    1    2    0    0  0.93552393254E+03 -0.11601962029E+03 -0.16870655472E+04  0.21534520522E+04  0.95000000000E+03 0.  0.
   -2000013    1    1    2    0    0 -0.93552393254E+03  0.11601962029E+03 -0.22811081036E+04  0.26447343460E+04  0.95000000000E+03 0.  0.
<mgrwt>
<rscale>  0 0.26974415E+04</rscale>
<asrwt>0</asrwt>
<pdfrwt beam="2">  1        1 0.67433540E+00 0.26974415E+04</pdfrwt>
<pdfrwt beam="1">  1       -1 0.63847133E-01 0.26974415E+04</pdfrwt>
<totfact> 0.91947573E-02</totfact>
</mgrwt>
</event>
<event>
 4    1  0.1321115E-008  0.3005538E+04  0.7816531E-02  0.8242151E-01
         -2   -1    0    0    0  501 -0.00000000000E+00  0.00000000000E+00  0.11665611677E+04  0.11665611677E+04  0.00000000000E+00 0.  1.
          2   -1    0    0  501    0  0.00000000000E+00 -0.00000000000E+00 -0.19358734889E+04  0.19358734889E+04  0.00000000000E+00 0. -1.
    2000013    1    1    2    0    0  0.76702842641E+02  0.11058425142E+04 -0.16732922225E+02  0.14599832132E+04  0.95000000000E+03 0.  0.
   -2000013    1    1    2    0    0 -0.76702842641E+02 -0.11058425142E+04 -0.75257939889E+03  0.16424514434E+04  0.95000000000E+03 0.  0.
<mgrwt>
<rscale>  0 0.30055381E+04</rscale>
<asrwt>0</asrwt>
<pdfrwt beam="2">  1        2 0.29782669E+00 0.30055381E+04</pdfrwt>
<pdfrwt beam="1">  1       -2 0.17947095E+00 0.30055381E+04</pdfrwt>
<totfact> 0.11349318E+00</totfact>
</mgrwt>
</event>
<event>
 4    1  0.1321115E-008  0.2479467E+04  0.7816531E-02  0.8410337E-01
         -2   -1    0    0    0  501 -0.00000000000E+00  0.00000000000E+00  0.59441350918E+03  0.59441350918E+03  0.00000000000E+00 0. -1.
          2   -1    0    0  501    0  0.00000000000E+00 -0.00000000000E+00 -0.25856402588E+04  0.25856402588E+04  0.00000000000E+00 0.  1.
    2000013    1    1    2    0    0 -0.35861818411E+03 -0.40467228476E+03 -0.24548537296E+03  0.11203257242E+04  0.95000000000E+03 0.  0.
   -2000013    1    1    2    0    0  0.35861818411E+03  0.40467228476E+03 -0.17457413766E+04  0.20597280437E+04  0.95000000000E+03 0.  0.
<mgrwt>
<rscale>  0 0.24794673E+04</rscale>
<asrwt>0</asrwt>
<pdfrwt beam="2">  1        2 0.39779081E+00 0.24794673E+04</pdfrwt>
<pdfrwt beam="1">  1       -2 0.91448232E-01 0.24794673E+04</pdfrwt>
<totfact> 0.28229190E+00</totfact>
</mgrwt>
</event>
<event>
 4    1  0.1321115E-008  0.2633960E+04  0.7816531E-02  0.8356756E-01
          2   -1    0    0  501    0  0.00000000000E+00  0.00000000000E+00  0.32322530311E+04  0.32322530311E+04  0.00000000000E+00 0.  1.
         -2   -1    0    0    0  501 -0.00000000000E+00 -0.00000000000E+00 -0.53660289607E+03  0.53660289607E+03  0.00000000000E+00 0. -1.
    2000013    1    1    2    0    0  0.74002985464E+03  0.16285709683E+03  0.20742927619E+04  0.24040293430E+04  0.95000000000E+03 0.  0.
   -2000013    1    1    2    0    0 -0.74002985464E+03 -0.16285709683E+03  0.62135737309E+03  0.13648265842E+04  0.95000000000E+03 0.  0.
<mgrwt>
<rscale>  0 0.26339600E+04</rscale>
<asrwt>0</asrwt>
<pdfrwt beam="1">  1        2 0.49726968E+00 0.26339600E+04</pdfrwt>
<pdfrwt beam="2">  1       -2 0.82554294E-01 0.26339600E+04</pdfrwt>
<totfact> 0.14029132E+00</totfact>
</mgrwt>
</event>
<event>
 4    1  0.1321115E-008  0.2404819E+04  0.7816531E-02  0.8437702E-01
         -1   -1    0    0    0  501 -0.00000000000E+00  0.00000000000E+00  0.54679819956E+03  0.54679819956E+03  0.00000000000E+00 0. -1.
          1   -1    0    0  501    0  0.00000000000E+00 -0.00000000000E+00 -0.26440980068E+04  0.26440980068E+04  0.00000000000E+00 0.  1.
    2000013    1    1    2    0    0  0.37349524941E+03  0.31660236900E+03 -0.17796999531E+04  0.20759498271E+04  0.95000000000E+03 0.  0.
   -2000013    1    1    2    0    0 -0.37349524941E+03 -0.31660236900E+03 -0.31759985415E+03  0.11149463793E+04  0.95000000000E+03 0.  0.
<mgrwt>
<rscale>  0 0.24048185E+04</rscale>
<asrwt>0</asrwt>
<pdfrwt beam="2">  1        1 0.40678431E+00 0.24048185E+04</pdfrwt>
<pdfrwt beam="1">  1       -1 0.84122800E-01 0.24048185E+04</pdfrwt>
<totfact> 0.13475357E+00</totfact>
</mgrwt>
</event>
<event>
 4    1  0.1321115E-008  0.2116180E+04  0.7816531E-02  0.8554149E-01
          2   -1    0    0  501    0  0.00000000000E+00  0.00000000000E+00  0.34978516469E+04  0.34978516469E+04  0.00000000000E+00 0. -1.
         -2   -1    0    0    0  501 -0.00000000000E+00 -0.00000000000E+00 -0.32006927496E+03  0.32006927496E+03  0.00000000000E+00 0.  1.
    2000013    1    1    2    0    0 -0.42770158144E+03 -0.16993530462E+03  0.17195922196E+04  0.20177472717E+04  0.95000000000E+03 0.  0.
   -2000013    1    1    2    0    0  0.42770158144E+03  0.16993530462E+03  0.14581901523E+04  0.18001736502E+04  0.95000000000E+03 0.  0.
<mgrwt>
<rscale>  0 0.21161804E+04</rscale>
<asrwt>0</asrwt>
<pdfrwt beam="1">  1        2 0.53813100E+00 0.21161804E+04</pdfrwt>
<pdfrwt beam="2">  1       -2 0.49241429E-01 0.21161804E+04</pdfrwt>
<totfact> 0.29440503E+00</totfact>
</mgrwt>
</event>
<event>
 4    1  0.1321115E-008  0.2318372E+04  0.7816531E-02  0.8470713E-01
         -2   -1    0    0    0  501 -0.00000000000E+00  0.00000000000E+00  0.51862804040E+03  0.51862804040E+03  0.00000000000E+00 0. -1.
          2   -1    0    0  501    0  0.00000000000E+00 -0.00000000000E+00 -0.25908965634E+04  0.25908965634E+04  0.00000000000E+00 0.  1.
    2000013    1    1    2    0    0  0.18999053419E+03 -0.62810648156E+03 -0.11742081966E+04  0.16467783834E+04  0.95000000000E+03 0.  0.
   -2000013    1    1    2    0    0 -0.18999053419E+03  0.62810648156E+03 -0.89806032643E+03  0.14627462204E+04  0.95000000000E+03 0.  0.
<mgrwt>
<rscale>  0 0.23183715E+04</rscale>
<asrwt>0</asrwt>
<pdfrwt beam="2">  1        2 0.39859947E+00 0.23183715E+04</pdfrwt>
<pdfrwt beam="1">  1       -2 0.79788930E-01 0.23183715E+04</pdfrwt>
<totfact> 0.38783948E+00</totfact>
</mgrwt>
</event>
<event>
 4    1  0.1321115E-008  0.2331155E+04  0.7816531E-02  0.8465737E-01
          2   -1    0    0  501    0  0.00000000000E+00  0.00000000000E+00  0.12942992720E+04  0.12942992720E+04  0.00000000000E+00 0. -1.
         -2   -1    0    0    0  501 -0.00000000000E+00 -0.00000000000E+00 -0.10496575022E+04  0.10496575022E+04  0.00000000000E+00 0.  1.
    2000013    1    1    2    0    0 -0.64876403090E+03 -0.44882714177E+02  0.30542450643E+03  0.11910891465E+04  0.95000000000E+03 0.  0.
   -2000013    1    1    2    0    0  0.64876403090E+03  0.44882714177E+02 -0.60782736663E+02  0.11528676277E+04  0.95000000000E+03 0.  0.
<mgrwt>
<rscale>  0 0.23311550E+04</rscale>
<asrwt>0</asrwt>
<pdfrwt beam="1">  1        2 0.19912297E+00 0.23311550E+04</pdfrwt>
<pdfrwt beam="2">  1       -2 0.16148577E+00 0.23311550E+04</pdfrwt>
<totfact> 0.37004726E+00</totfact>
</mgrwt>
</event>
<event>
 4    1  0.1321115E-008  0.2403479E+04  0.7816531E-02  0.8438202E-01
         -1   -1    0    0    0  501 -0.00000000000E+00  0.00000000000E+00  0.58193853541E+03  0.58193853541E+03  0.00000000000E+00 0. -1.
          1   -1    0    0  501    0  0.00000000000E+00 -0.00000000000E+00 -0.24816675079E+04  0.24816675079E+04  0.00000000000E+00 0.  1.
    2000013    1    1    2    0    0  0.64292559229E+03 -0.21946859982E+03 -0.13107475217E+04  0.17555850447E+04  0.95000000000E+03 0.  0.
   -2000013    1    1    2    0    0 -0.64292559229E+03  0.21946859982E+03 -0.58898145086E+03  0.13080209987E+04  0.95000000000E+03 0.  0.
<mgrwt>
<rscale>  0 0.24034791E+04</rscale>
<asrwt>0</asrwt>
<pdfrwt beam="2">  1        1 0.38179500E+00 0.24034791E+04</pdfrwt>
<pdfrwt beam="1">  1       -1 0.89529005E-01 0.24034791E+04</pdfrwt>
<totfact> 0.15268264E+00</totfact>
</mgrwt>
</event>
<event>
 4    1  0.1321115E-008  0.2747400E+04  0.7816531E-02  0.8319787E-01
         -2   -1    0    0    0  501 -0.00000000000E+00  0.00000000000E+00  0.10322943833E+04  0.10322943833E+04  0.00000000000E+00 0. -1.
          2   -1    0    0  501    0  0.00000000000E+00 -0.00000000000E+00 -0.18280165670E+04  0.18280165670E+04  0.00000000000E+00 0.  1.
    2000013    1    1    2    0    0  0.90515601278E+03 -0.35359204156E+03 -0.18907886868E+03  0.13720734521E+04  0.95000000000E+03 0.  0.
   -2000013    1    1    2    0    0 -0.90515601278E+03  0.35359204156E+03 -0.60664331511E+03  0.14882374982E+04  0.95000000000E+03 0.  0.
<mgrwt>
<rscale>  0 0.27473997E+04</rscale>
<asrwt>0</asrwt>
<pdfrwt beam="2">  1        2 0.28123332E+00 0.27473997E+04</pdfrwt>
<pdfrwt beam="1">  1       -2 0.15881452E+00 0.27473997E+04</pdfrwt>
<totfact> 0.18703709E+00</totfact>
</mgrwt>
</event>
<event>
 4    1  0.1321115E-008  0.2576296E+04  0.7816531E-02  0.8376298E-01
          2   -1    0    0  501    0  0.00000000000E+00  0.00000000000E+00  0.15031767800E+04  0.15031767800E+04  0.00000000000E+00 0.  1.
         -2   -1    0    0    0  501 -0.00000000000E+00 -0.00000000000E+00 -0.11038794002E+04  0.11038794002E+04  0.00000000000E+00 0. -1.
    2000013    1    1    2    0    0 -0.11851903289E+03 -0.79025315668E+03  0.54767213371E+03  0.13568314482E+04  0.95000000000E+03 0.  0.
   -2000013    1    1    2    0    0  0.11851903289E+03  0.79025315668E+03 -0.14837475397E+03  0.12502247320E+04  0.95000000000E+03 0.  0.
<mgrwt>
<rscale>  0 0.25762965E+04</rscale>
<asrwt>0</asrwt>
<pdfrwt beam="1">  1        2 0.23125797E+00 0.25762965E+04</pdfrwt>
<pdfrwt beam="2">  1       -2 0.16982760E+00 0.25762965E+04</pdfrwt>
<totfact> 0.23950766E+00</totfact>
</mgrwt>
</event>
<event>
 4    1  0.1321115E-008  0.2304273E+04  0.7816531E-02  0.8476238E-01
          2   -1    0    0  501    0  0.00000000000E+00  0.00000000000E+00  0.29839696193E+04  0.29839696193E+04  0.00000000000E+00 0.  1.
         -2   -1    0    0    0  501 -0.00000000000E+00 -0.00000000000E+00 -0.44484979332E+03  0.44484979332E+03  0.00000000000E+00 0. -1.
    2000013    1    1    2    0    0 -0.18508689803E+02 -0.63414136875E+03  0.10466516208E+04  0.15493409769E+04  0.95000000000E+03 0.  0.
   -2000013    1    1    2    0    0  0.18508689803E+02  0.63414136875E+03  0.14924682051E+04  0.18794784357E+04  0.95000000000E+03 0.  0.
<mgrwt>
<rscale>  0 0.23042728E+04</rscale>
<asrwt>0</asrwt>
<pdfrwt beam="1">  1        2 0.45907224E+00 0.23042728E+04</pdfrwt>
<pdfrwt beam="2">  1       -2 0.68438432E-01 0.23042728E+04</pdfrwt>
<totfact> 0.31558003E+00</totfact>
</mgrwt>
</event>
<event>
 4    1  0.1321115E-008  0.3532588E+04  0.7816531E-02  0.8106110E-01
         -2   -1    0    0    0  501 -0.00000000000E+00  0.00000000000E+00  0.13537852826E+04  0.13537852826E+04  0.00000000000E+00 0. -1.
          2   -1    0    0  501    0  0.00000000000E+00 -0.00000000000E+00 -0.23044978991E+04  0.23044978991E+04  0.00000000000E+00 0.  1.
    2000013    1    1    2    0    0  0.11170499246E+04 -0.45112664758E+03  0.43098726761E+03  0.15936015220E+04  0.95000000000E+03 0.  0.
   -2000013    1    1    2    0    0 -0.11170499246E+04  0.45112664758E+03 -0.13816998841E+04  0.20646816597E+04  0.95000000000E+03 0.  0.
<mgrwt>
<rscale>  0 0.35325885E+04</rscale>
<asrwt>0</asrwt>
<pdfrwt beam="2">  1        2 0.35453813E+00 0.35325885E+04</pdfrwt>
<pdfrwt beam="1">  1       -2 0.20827466E+00 0.35325885E+04</pdfrwt>
<totfact> 0.43392751E-01</totfact>
</mgrwt>
</event>
<event>
 4    1  0.1321115E-008  0.2464198E+04  0.7816531E-02  0.8415852E-01
         -2   -1    0    0    0  501 -0.00000000000E+00  0.00000000000E+00  0.18329145938E+04  0.18329145938E+04  0.00000000000E+00 0. -1.
          2   -1    0    0  501    0  0.00000000000E+00 -0.00000000000E+00 -0.82822644746E+03  0.82822644746E+03  0.00000000000E+00 0.  1.
    2000013    1    1    2    0    0 -0.21651703680E+03 -0.75174869712E+03  0.43788612472E+03  0.13062350436E+04  0.95000000000E+03 0.  0.
   -2000013    1    1    2    0    0  0.21651703680E+03  0.75174869712E+03  0.56680202164E+03  0.13549059977E+04  0.95000000000E+03 0.  0.
<mgrwt>
<rscale>  0 0.24641983E+04</rscale>
<asrwt>0</asrwt>
<pdfrwt beam="2">  1        2 0.12741945E+00 0.24641983E+04</pdfrwt>
<pdfrwt beam="1">  1       -2 0.28198686E+00 0.24641983E+04</pdfrwt>
<totfact> 0.12045321E+00</totfact>
</mgrwt>
</event>
<event>
 4    1  0.1321115E-008  0.3032996E+04  0.7816531E-02  0.8234371E-01
          2   -1    0    0  501    0  0.00000000000E+00  0.00000000000E+00  0.20101936781E+04  0.20101936781E+04  0.00000000000E+00 0.  1.
         -2   -1    0    0    0  501 -0.00000000000E+00 -0.00000000000E+00 -0.11440523438E+04  0.11440523438E+04  0.00000000000E+00 0. -1.
    2000013    1    1    2    0    0  0.91747299627E+03  0.73365046824E+03  0.56972805846E+03  0.16146484971E+04  0.95000000000E+03 0.  0.
   -2000013    1    1    2    0    0 -0.91747299627E+03 -0.73365046824E+03  0.29641327577E+03  0.15395975248E+04  0.95000000000E+03 0.  0.
<mgrwt>
<rscale>  0 0.30329964E+04</rscale>
<asrwt>0</asrwt>
<pdfrwt beam="1">  1        2 0.30926057E+00 0.30329964E+04</pdfrwt>
<pdfrwt beam="2">  1       -2 0.17600805E+00 0.30329964E+04</pdfrwt>
<totfact> 0.10883438E+00</totfact>
</mgrwt>
</event>
<event>
 4    1  0.1321115E-008  0.3338506E+04  0.7816531E-02  0.8153166E-01
         -2   -1    0    0    0  501 -0.00000000000E+00  0.00000000000E+00  0.15850826979E+04  0.15850826979E+04  0.00000000000E+00 0. -1.
          2   -1    0    0  501    0  0.00000000000E+00 -0.00000000000E+00 -0.17578926714E+04  0.17578926714E+04  0.00000000000E+00 0.  1.
    2000013    1    1    2    0    0 -0.12069609895E+04 -0.10651320936E+03  0.55928802267E+03  0.16381095770E+04  0.95000000000E+03 0.  0.
   -2000013    1    1    2    0    0  0.12069609895E+04  0.10651320936E+03 -0.73209799614E+03  0.17048657923E+04  0.95000000000E+03 0.  0.
<mgrwt>
<rscale>  0 0.33385058E+04</rscale>
<asrwt>0</asrwt>
<pdfrwt beam="2">  1        2 0.27044503E+00 0.33385058E+04</pdfrwt>
<pdfrwt beam="1">  1       -2 0.24385888E+00 0.33385058E+04</pdfrwt>
<totfact> 0.53162159E-01</totfact>
</mgrwt>
</event>
<event>
 4    1  0.1321115E-008  0.2330435E+04  0.7816531E-02  0.8466017E-01
         -2   -1    0    0    0  501 -0.00000000000E+00  0.00000000000E+00  0.75151293875E+03  0.75151293875E+03  0.00000000000E+00 0. -1.
          2   -1    0    0  501    0  0.00000000000E+00 -0.00000000000E+00 -0.18066649393E+04  0.18066649393E+04  0.00000000000E+00 0.  1.
    2000013    1    1    2    0    0  0.66740174764E+03 -0.89754711194E+02 -0.57351127557E+03  0.12980355096E+04  0.95000000000E+03 0.  0.
   -2000013    1    1    2    0    0 -0.66740174764E+03  0.89754711194E+02 -0.48164072502E+03  0.12601423685E+04  0.95000000000E+03 0.  0.
<mgrwt>
<rscale>  0 0.23304352E+04</rscale>
<asrwt>0</asrwt>
<pdfrwt beam="2">  1        2 0.27794845E+00 0.23304352E+04</pdfrwt>
<pdfrwt beam="1">  1       -2 0.11561737E+00 0.23304352E+04</pdfrwt>
<totfact> 0.45032708E+00</totfact>
</mgrwt>
</event>
<event>
 4    1  0.1321115E-008  0.2225653E+04  0.7816531E-02  0.8507826E-01
          2   -1    0    0  501    0  0.00000000000E+00  0.00000000000E+00  0.90795808595E+03  0.90795808595E+03  0.00000000000E+00 0.  1.
         -2   -1    0    0    0  501 -0.00000000000E+00 -0.00000000000E+00 -0.13639201754E+04  0.13639201754E+04  0.00000000000E+00 0. -1.
    2000013    1    1    2    0    0 -0.14001281736E+03 -0.38015396624E+03  0.19506815651E+03  0.10510338780E+04  0.95000000000E+03 0.  0.
   -2000013    1    1    2    0    0  0.14001281736E+03  0.38015396624E+03 -0.65103024592E+03  0.12208443833E+04  0.95000000000E+03 0.  0.
<mgrwt>
<rscale>  0 0.22256526E+04</rscale>
<asrwt>0</asrwt>
<pdfrwt beam="1">  1        2 0.13968586E+00 0.22256526E+04</pdfrwt>
<pdfrwt beam="2">  1       -2 0.20983387E+00 0.22256526E+04</pdfrwt>
<totfact> 0.30312855E+00</totfact>
</mgrwt>
</event>
<event>
 4    1  0.1321115E-008  0.2351566E+04  0.7816531E-02  0.8457862E-01
         -2   -1    0    0    0  501 -0.00000000000E+00  0.00000000000E+00  0.11631869445E+04  0.11631869445E+04  0.00000000000E+00 0.  1.
          2   -1    0    0  501    0  0.00000000000E+00 -0.00000000000E+00 -0.11885157340E+04  0.11885157340E+04  0.00000000000E+00 0. -1.
    2000013    1    1    2    0    0 -0.24017798980E+03 -0.51987828451E+03  0.37723908405E+03  0.11716519210E+04  0.95000000000E+03 0.  0.
   -2000013    1    1    2    0    0  0.24017798980E+03  0.51987828451E+03 -0.40256787345E+03  0.11800507575E+04  0.95000000000E+03 0.  0.
<mgrwt>
<rscale>  0 0.23515663E+04</rscale>
<asrwt>0</asrwt>
<pdfrwt beam="2">  1        2 0.18284857E+00 0.23515663E+04</pdfrwt>
<pdfrwt beam="1">  1       -2 0.17895184E+00 0.23515663E+04</pdfrwt>
<totfact> 0.32033134E+00</totfact>
</mgrwt>
</event>
<event>
 4    1  0.1321115E-008  0.3307364E+04  0.7816531E-02  0.8161024E-01
         -2   -1    0    0    0  501 -0.00000000000E+00  0.00000000000E+00  0.17448070927E+04  0.17448070927E+04  0.00000000000E+00 0. -1.
          2   -1    0    0  501    0  0.00000000000E+00 -0.00000000000E+00 -0.15673157262E+04  0.15673157262E+04  0.00000000000E+00 0.  1.
    2000013    1    1    2    0    0  0.83886585548E+03 -0.10736004918E+03  0.11471209802E+04  0.17127780495E+04  0.95000000000E+03 0.  0.
   -2000013    1    1    2    0    0 -0.83886585548E+03  0.10736004918E+03 -0.96962961370E+03  0.15993447694E+04  0.95000000000E+03 0.  0.
<mgrwt>
<rscale>  0 0.33073637E+04</rscale>
<asrwt>0</asrwt>
<pdfrwt beam="2">  1        2 0.24112550E+00 0.33073637E+04</pdfrwt>
<pdfrwt beam="1">  1       -2 0.26843186E+00 0.33073637E+04</pdfrwt>
<totfact> 0.48109869E-01</totfact>
</mgrwt>
</event>
<event>
 4    1  0.1321115E-008  0.2261261E+04  0.7816531E-02  0.8493354E-01
          2   -1    0    0  501    0  0.00000000000E+00  0.00000000000E+00  0.33406359521E+04  0.33406359521E+04  0.00000000000E+00 0.  1.
         -2   -1    0    0    0  501 -0.00000000000E+00 -0.00000000000E+00 -0.38265936748E+03  0.38265936748E+03  0.00000000000E+00 0. -1.
    2000013    1    1    2    0    0  0.13672858336E+03 -0.55779410439E+03  0.11258539588E+04  0.15810996506E+04  0.95000000000E+03 0.  0.
   -2000013    1    1    2    0    0 -0.13672858336E+03  0.55779410439E+03  0.18321226258E+04  0.21421956690E+04  0.95000000000E+03 0.  0.
<mgrwt>
<rscale>  0 0.22612613E+04</rscale>
<asrwt>0</asrwt>
<pdfrwt beam="1">  1        2 0.51394397E+00 0.22612613E+04</pdfrwt>
<pdfrwt beam="2">  1       -2 0.58870674E-01 0.22612613E+04</pdfrwt>
<totfact> 0.25706962E+00</totfact>
</mgrwt>
</event>
<event>
 4    1  0.1321115E-008  0.2172333E+04  0.7816531E-02  0.8530033E-01
          2   -1    0    0  501    0  0.00000000000E+00  0.00000000000E+00  0.21973475075E+04  0.21973475075E+04  0.00000000000E+00 0.  1.
         -2   -1    0    0    0  501 -0.00000000000E+00 -0.00000000000E+00 -0.53690061512E+03  0.53690061512E+03  0.00000000000E+00 0. -1.
    2000013    1    1    2    0    0  0.29560837497E+03 -0.43553534267E+03  0.84719833210E+03  0.13774325247E+04  0.95000000000E+03 0.  0.
   -2000013    1    1    2    0    0 -0.29560837497E+03  0.43553534267E+03  0.81324856027E+03  0.13568155980E+04  0.95000000000E+03 0.  0.
<mgrwt>
<rscale>  0 0.21723326E+04</rscale>
<asrwt>0</asrwt>
<pdfrwt beam="1">  1        2 0.33805346E+00 0.21723326E+04</pdfrwt>
<pdfrwt beam="2">  1       -2 0.82600096E-01 0.21723326E+04</pdfrwt>
<totfact> 0.61036866E+00</totfact>
</mgrwt>
</event>
<event>
 4    1  0.1321115E-008  0.2128692E+04  0.7816531E-02  0.8548709E-01
         -2   -1    0    0    0  501 -0.00000000000E+00  0.00000000000E+00  0.29357726405E+03  0.29357726405E+03  0.00000000000E+00 0. -1.
          2   -1    0    0  501    0  0.00000000000E+00 -0.00000000000E+00 -0.38587203997E+04  0.38587203997E+04  0.00000000000E+00 0.  1.
    2000013    1    1    2    0    0  0.17707318340E+03  0.44475680174E+03 -0.17158766619E+04  0.20188849011E+04  0.95000000000E+03 0.  0.
   -2000013    1    1    2    0    0 -0.17707318340E+03 -0.44475680174E+03 -0.18492664737E+04  0.21334127626E+04  0.95000000000E+03 0.  0.
<mgrwt>
<rscale>  0 0.21286922E+04</rscale>
<asrwt>0</asrwt>
<pdfrwt beam="2">  1        2 0.59364933E+00 0.21286922E+04</pdfrwt>
<pdfrwt beam="1">  1       -2 0.45165730E-01 0.21286922E+04</pdfrwt>
<totfact> 0.19054330E+00</totfact>
</mgrwt>
</event>
<event>
 4    1  0.1321115E-008  0.2835583E+04  0.7816531E-02  0.8292306E-01
         -2   -1    0    0    0  501 -0.00000000000E+00  0.00000000000E+00  0.13358452846E+04  0.13358452846E+04  0.00000000000E+00 0. -1.
          2   -1    0    0  501    0  0.00000000000E+00 -0.00000000000E+00 -0.15047641342E+04  0.15047641342E+04  0.00000000000E+00 0.  1.
    2000013    1    1    2    0    0 -0.60299972550E+03  0.48896418273E+03 -0.79630864573E+03  0.14626353271E+04  0.95000000000E+03 0.  0.
   -2000013    1    1    2    0    0  0.60299972550E+03 -0.48896418273E+03  0.62738979619E+03  0.13779740917E+04  0.95000000000E+03 0.  0.
<mgrwt>
<rscale>  0 0.28355825E+04</rscale>
<asrwt>0</asrwt>
<pdfrwt beam="2">  1        2 0.23150217E+00 0.28355825E+04</pdfrwt>
<pdfrwt beam="1">  1       -2 0.20551466E+00 0.28355825E+04</pdfrwt>
<totfact> 0.13400028E+00</totfact>
</mgrwt>
</event>
<event>
 4    1  0.1321115E-008  0.3057900E+04  0.7816531E-02  0.8227388E-01
         -2   -1    0    0    0  501 -0.00000000000E+00  0.00000000000E+00  0.95990380183E+03  0.95990380183E+03  0.00000000000E+00 0. -1.
          2   -1    0    0  501    0  0.00000000000E+00 -0.00000000000E+00 -0.24353364183E+04  0.24353364183E+04  0.00000000000E+00 0.  1.
    2000013    1    1    2    0    0  0.10623103359E+04 -0.54024488603E+03 -0.87288759974E+03  0.17563600281E+04  0.95000000000E+03 0.  0.
   -2000013    1    1    2    0    0 -0.10623103359E+04  0.54024488603E+03 -0.60254501673E+03  0.16388801920E+04  0.95000000000E+03 0.  0.
<mgrwt>
<rscale>  0 0.30579004E+04</rscale>
<asrwt>0</asrwt>
<pdfrwt beam="2">  1        2 0.37466714E+00 0.30579004E+04</pdfrwt>
<pdfrwt beam="1">  1       -2 0.14767751E+00 0.30579004E+04</pdfrwt>
<totfact> 0.10091276E+00</totfact>
</mgrwt>
</event>
<event>
 4    1  0.1321115E-008  0.3097536E+04  0.7816531E-02  0.8216414E-01
         -2   -1    0    0    0  501 -0.00000000000E+00  0.00000000000E+00  0.76869242697E+03  0.76869242697E+03  0.00000000000E+00 0. -1.
          2   -1    0    0  501    0  0.00000000000E+00 -0.00000000000E+00 -0.31204717939E+04  0.31204717939E+04  0.00000000000E+00 0.  1.
    2000013    1    1    2    0    0 -0.93940474491E+03 -0.51895503515E+03 -0.19127132400E+04  0.23901396490E+04  0.95000000000E+03 0.  0.
   -2000013    1    1    2    0    0  0.93940474491E+03  0.51895503515E+03 -0.43906612693E+03  0.14990245719E+04  0.95000000000E+03 0.  0.
<mgrwt>
<rscale>  0 0.30975365E+04</rscale>
<asrwt>0</asrwt>
<pdfrwt beam="2">  1        2 0.48007257E+00 0.30975365E+04</pdfrwt>
<pdfrwt beam="1">  1       -2 0.11826038E+00 0.30975365E+04</pdfrwt>
<totfact> 0.68215182E-01</totfact>
</mgrwt>
</event>
<event>
 4    1  0.1321115E-008  0.2551982E+04  0.7816531E-02  0.8384697E-01
          1   -1    0    0  501    0  0.00000000000E+00  0.00000000000E+00  0.19793655327E+04  0.19793655327E+04  0.00000000000E+00 0.  1.
         -1   -1    0    0    0  501 -0.00000000000E+00 -0.00000000000E+00 -0.82256315378E+03  0.82256315378E+03  0.00000000000E+00 0. -1.
    2000013    1    1    2    0    0  0.57983601119E+03 -0.57139947489E+03  0.85386433782E+03  0.15146918720E+04  0.95000000000E+03 0.  0.
   -2000013    1    1    2    0    0 -0.57983601119E+03  0.57139947489E+03  0.30293804111E+03  0.12872368145E+04  0.95000000000E+03 0.  0.
<mgrwt>
<rscale>  0 0.25519821E+04</rscale>
<asrwt>0</asrwt>
<pdfrwt beam="1">  1        1 0.30451777E+00 0.25519821E+04</pdfrwt>
<pdfrwt beam="2">  1       -1 0.12654818E+00 0.25519821E+04</pdfrwt>
<totfact> 0.14769154E+00</totfact>
</mgrwt>
</event>
<event>
 4    1  0.1321115E-008  0.3064041E+04  0.7816531E-02  0.8225676E-01
         -2   -1    0    0    0  501 -0.00000000000E+00  0.00000000000E+00  0.13302532884E+04  0.13302532884E+04  0.00000000000E+00 0. -1.
          2   -1    0    0  501    0  0.00000000000E+00 -0.00000000000E+00 -0.17643914306E+04  0.17643914306E+04  0.00000000000E+00 0.  1.
    2000013    1    1    2    0    0  0.10761233471E+04  0.38294220122E+03 -0.59483871705E+03  0.16003184954E+04  0.95000000000E+03 0.  0.
   -2000013    1    1    2    0    0 -0.10761233471E+04 -0.38294220122E+03  0.16070057487E+03  0.14943262235E+04  0.95000000000E+03 0.  0.
<mgrwt>
<rscale>  0 0.30640415E+04</rscale>
<asrwt>0</asrwt>
<pdfrwt beam="2">  1        2 0.27144484E+00 0.30640415E+04</pdfrwt>
<pdfrwt beam="1">  1       -2 0.20465435E+00 0.30640415E+04</pdfrwt>
<totfact> 0.95365818E-01</totfact>
</mgrwt>
</event>
<event>
 4    1  0.1321115E-008  0.2724717E+04  0.7816531E-02  0.8327030E-01
         -2   -1    0    0    0  501 -0.00000000000E+00  0.00000000000E+00  0.87140056364E+03  0.87140056364E+03  0.00000000000E+00 0. -1.
          2   -1    0    0  501    0  0.00000000000E+00 -0.00000000000E+00 -0.21299279744E+04  0.21299279744E+04  0.00000000000E+00 0.  1.
    2000013    1    1    2    0    0  0.69469845577E+03  0.61102732699E+03 -0.97331902758E+03  0.16449347307E+04  0.95000000000E+03 0.  0.
   -2000013    1    1    2    0    0 -0.69469845577E+03 -0.61102732699E+03 -0.28520838317E+03  0.13563938073E+04  0.95000000000E+03 0.  0.
<mgrwt>
<rscale>  0 0.27247168E+04</rscale>
<asrwt>0</asrwt>
<pdfrwt beam="2">  1        2 0.32768122E+00 0.27247168E+04</pdfrwt>
<pdfrwt beam="1">  1       -2 0.13406163E+00 0.27247168E+04</pdfrwt>
<totfact> 0.19878590E+00</totfact>
</mgrwt>
</event>
<event>
 4    1  0.1321115E-008  0.2055237E+04  0.7816531E-02  0.8581222E-01
         -2   -1    0    0    0  501 -0.00000000000E+00  0.00000000000E+00  0.94528984834E+03  0.94528984834E+03  0.00000000000E+00 0. -1.
          2   -1    0    0  501    0  0.00000000000E+00 -0.00000000000E+00 -0.11171177929E+04  0.11171177929E+04  0.00000000000E+00 0.  1.
    2000013    1    1    2    0    0 -0.38213505685E+02  0.29773411186E+03  0.16674656580E+03  0.10101535975E+04  0.95000000000E+03 0.  0.
   -2000013    1    1    2    0    0  0.38213505685E+02 -0.29773411186E+03 -0.33857451033E+03  0.10522540437E+04  0.95000000000E+03 0.  0.
<mgrwt>
<rscale>  0 0.20552373E+04</rscale>
<asrwt>0</asrwt>
<pdfrwt beam="2">  1        2 0.17186427E+00 0.20552373E+04</pdfrwt>
<pdfrwt beam="1">  1       -2 0.14542921E+00 0.20552373E+04</pdfrwt>
<totfact> 0.63947097E+00</totfact>
</mgrwt>
</event>
<event>
 4    1  0.1321115E-008  0.2658894E+04  0.7816531E-02  0.8348467E-01
          2   -1    0    0  501    0  0.00000000000E+00  0.00000000000E+00  0.16977725022E+04  0.16977725022E+04  0.00000000000E+00 0.  1.
         -2   -1    0    0    0  501 -0.00000000000E+00 -0.00000000000E+00 -0.10410283920E+04  0.10410283920E+04  0.00000000000E+00 0. -1.
    2000013    1    1    2    0    0 -0.58975182453E+03 -0.66146083590E+03  0.37773539070E+02  0.12997170816E+04  0.95000000000E+03 0.  0.
   -2000013    1    1    2    0    0  0.58975182453E+03  0.66146083590E+03  0.61897057110E+03  0.14390838127E+04  0.95000000000E+03 0.  0.
<mgrwt>
<rscale>  0 0.26588940E+04</rscale>
<asrwt>0</asrwt>
<pdfrwt beam="1">  1        2 0.26119577E+00 0.26588940E+04</pdfrwt>
<pdfrwt beam="2">  1       -2 0.16015821E+00 0.26588940E+04</pdfrwt>
<totfact> 0.21752176E+00</totfact>
</mgrwt>
</event>
<event>
 4    1  0.1321115E-008  0.2966072E+04  0.7816531E-02  0.8253486E-01
          2   -1    0    0  501    0  0.00000000000E+00  0.00000000000E+00  0.21195826478E+04  0.21195826478E+04  0.00000000000E+00 0.  1.
         -2   -1    0    0    0  501 -0.00000000000E+00 -0.00000000000E+00 -0.10376551915E+04  0.10376551915E+04  0.00000000000E+00 0. -1.
    2000013    1    1    2    0    0  0.70821155291E+03  0.53333497782E+03 -0.21986631403E+03  0.13178964293E+04  0.95000000000E+03 0.  0.
   -2000013    1    1    2    0    0 -0.70821155291E+03 -0.53333497782E+03  0.13017937703E+04  0.18393414100E+04  0.95000000000E+03 0.  0.
<mgrwt>
<rscale>  0 0.29660721E+04</rscale>
<asrwt>0</asrwt>
<pdfrwt beam="1">  1        2 0.32608964E+00 0.29660721E+04</pdfrwt>
<pdfrwt beam="2">  1       -2 0.15963926E+00 0.29660721E+04</pdfrwt>
<totfact> 0.12465266E+00</totfact>
</mgrwt>
</event>
<event>
 4    1  0.1321115E-008  0.2752674E+04  0.7816531E-02  0.8318114E-01
          2   -1    0    0  501    0  0.00000000000E+00  0.00000000000E+00  0.11892670653E+04  0.11892670653E+04  0.00000000000E+00 0.  1.
         -2   -1    0    0    0  501 -0.00000000000E+00 -0.00000000000E+00 -0.15928321900E+04  0.15928321900E+04  0.00000000000E+00 0. -1.
    2000013    1    1    2    0    0 -0.52176022175E+03 -0.84746143279E+03 -0.23930427902E+03  0.13964924443E+04  0.95000000000E+03 0.  0.
   -2000013    1    1    2    0    0  0.52176022175E+03  0.84746143279E+03 -0.16426084570E+03  0.13856068109E+04  0.95000000000E+03 0.  0.
<mgrwt>
<rscale>  0 0.27526735E+04</rscale>
<asrwt>0</asrwt>
<pdfrwt beam="1">  1        2 0.18296417E+00 0.27526735E+04</pdfrwt>
<pdfrwt beam="2">  1       -2 0.24505110E+00 0.27526735E+04</pdfrwt>
<totfact> 0.11575794E+00</totfact>
</mgrwt>
</event>
<event>
 4    1  0.1321115E-008  0.2208455E+04  0.7816531E-02  0.8514917E-01
         -2   -1    0    0    0  501 -0.00000000000E+00  0.00000000000E+00  0.75766721854E+03  0.75766721854E+03  0.00000000000E+00 0. -1.
          2   -1    0    0  501    0  0.00000000000E+00 -0.00000000000E+00 -0.16093066453E+04  0.16093066453E+04  0.00000000000E+00 0.  1.
    2000013    1    1    2    0    0  0.17875771220E+03  0.44736244009E+03 -0.11383949971E+03  0.10712361570E+04  0.95000000000E+03 0.  0.
   -2000013    1    1    2    0    0 -0.17875771220E+03 -0.44736244009E+03 -0.73779992709E+03  0.12957377068E+04  0.95000000000E+03 0.  0.
<mgrwt>
<rscale>  0 0.22084555E+04</rscale>
<asrwt>0</asrwt>
<pdfrwt beam="2">  1        2 0.24758563E+00 0.22084555E+04</pdfrwt>
<pdfrwt beam="1">  1       -2 0.11656419E+00 0.22084555E+04</pdfrwt>
<totfact> 0.57424441E+00</totfact>
</mgrwt>
</event>
<event>
 4    1  0.1321115E-008  0.4007239E+04  0.7816531E-02  0.8003088E-01
         -2   -1    0    0    0  501 -0.00000000000E+00  0.00000000000E+00  0.19116974314E+04  0.19116974314E+04  0.00000000000E+00 0.  1.
          2   -1    0    0  501    0  0.00000000000E+00 -0.00000000000E+00 -0.20999612607E+04  0.20999612607E+04  0.00000000000E+00 0. -1.
    2000013    1    1    2    0    0 -0.36150475988E+03 -0.17223110302E+04  0.28271388787E+02  0.20000850601E+04  0.95000000000E+03 0.  0.
   -2000013    1    1    2    0    0  0.36150475988E+03  0.17223110302E+04 -0.21653521811E+03  0.20115736320E+04  0.95000000000E+03 0.  0.
<mgrwt>
<rscale>  0 0.40072387E+04</rscale>
<asrwt>0</asrwt>
<pdfrwt beam="2">  1        2 0.32307096E+00 0.40072387E+04</pdfrwt>
<pdfrwt beam="1">  1       -2 0.29410730E+00 0.40072387E+04</pdfrwt>
<totfact> 0.16000240E-01</totfact>
</mgrwt>
</event>
<event>
 4    1  0.1321115E-008  0.2168257E+04  0.7816531E-02  0.8531758E-01
         -2   -1    0    0    0  501 -0.00000000000E+00  0.00000000000E+00  0.11555288137E+04  0.11555288137E+04  0.00000000000E+00 0.  1.
          2   -1    0    0  501    0  0.00000000000E+00 -0.00000000000E+00 -0.10171395757E+04  0.10171395757E+04  0.00000000000E+00 0. -1.
    2000013    1    1    2    0    0 -0.66798835448E+02 -0.29660495301E+03  0.49479111844E+03  0.11134427841E+04  0.95000000000E+03 0.  0.
   -2000013    1    1    2    0    0  0.66798835448E+02  0.29660495301E+03 -0.35640188045E+03  0.10592256053E+04  0.95000000000E+03 0.  0.
<mgrwt>
<rscale>  0 0.21682565E+04</rscale>
<asrwt>0</asrwt>
<pdfrwt beam="2">  1        2 0.15648301E+00 0.21682565E+04</pdfrwt>
<pdfrwt beam="1">  1       -2 0.17777366E+00 0.21682565E+04</pdfrwt>
<totfact> 0.42280887E+00</totfact>
</mgrwt>
</event>
<event>
 4    1  0.1321115E-008  0.2672213E+04  0.7816531E-02  0.8344078E-01
          2   -1    0    0  501    0  0.00000000000E+00  0.00000000000E+00  0.15152818214E+04  0.15152818214E+04  0.00000000000E+00 0.  1.
         -2   -1    0    0    0  501 -0.00000000000E+00 -0.00000000000E+00 -0.11781175706E+04  0.11781175706E+04  0.00000000000E+00 0. -1.
    2000013    1    1    2    0    0 -0.56240179685E+03 -0.59616272719E+03 -0.29437905622E+03  0.12887454392E+04  0.95000000000E+03 0.  0.
   -2000013    1    1    2    0    0  0.56240179685E+03  0.59616272719E+03  0.63154330705E+03  0.14046539528E+04  0.95000000000E+03 0.  0.
<mgrwt>
<rscale>  0 0.26722127E+04</rscale>
<asrwt>0</asrwt>
<pdfrwt beam="1">  1        2 0.23312028E+00 0.26722127E+04</pdfrwt>
<pdfrwt beam="2">  1       -2 0.18124886E+00 0.26722127E+04</pdfrwt>
<totfact> 0.19453833E+00</totfact>
</mgrwt>
</event>
<event>
 4    1  0.1321115E-008  0.2926799E+04  0.7816531E-02  0.8264948E-01
          2   -1    0    0  501    0  0.00000000000E+00  0.00000000000E+00  0.17358364577E+04  0.17358364577E+04  0.00000000000E+00 0.  1.
         -2   -1    0    0    0  501 -0.00000000000E+00 -0.00000000000E+00 -0.12337209552E+04  0.12337209552E+04  0.00000000000E+00 0. -1.
    2000013    1    1    2    0    0  0.71856252359E+03  0.64245404979E+03 -0.31381501468E+03  0.13892656945E+04  0.95000000000E+03 0.  0.
   -2000013    1    1    2    0    0 -0.71856252359E+03 -0.64245404979E+03  0.81593051719E+03  0.15802917184E+04  0.95000000000E+03 0.  0.
<mgrwt>
<rscale>  0 0.29267988E+04</rscale>
<asrwt>0</asrwt>
<pdfrwt beam="1">  1        2 0.26705176E+00 0.29267988E+04</pdfrwt>
<pdfrwt beam="2">  1       -2 0.18980322E+00 0.29267988E+04</pdfrwt>
<totfact> 0.12542857E+00</totfact>
</mgrwt>
</event>
<event>
 4    1  0.1321115E-008  0.3061982E+04  0.7816531E-02  0.8226250E-01
          2   -1    0    0  501    0  0.00000000000E+00  0.00000000000E+00  0.12454219221E+04  0.12454219221E+04  0.00000000000E+00 0.  1.
         -2   -1    0    0    0  501 -0.00000000000E+00 -0.00000000000E+00 -0.18820396785E+04  0.18820396785E+04  0.00000000000E+00 0. -1.
    2000013    1    1    2    0    0 -0.69987879300E+03 -0.23335545358E+03 -0.12857431951E+04  0.17606591540E+04  0.95000000000E+03 0.  0.
   -2000013    1    1    2    0    0  0.69987879300E+03  0.23335545358E+03  0.64912543876E+03  0.13668024465E+04  0.95000000000E+03 0.  0.
<mgrwt>
<rscale>  0 0.30619820E+04</rscale>
<asrwt>0</asrwt>
<pdfrwt beam="1">  1        2 0.19160337E+00 0.30619820E+04</pdfrwt>
<pdfrwt beam="2">  1       -2 0.28954456E+00 0.30619820E+04</pdfrwt>
<totfact> 0.55817024E-01</totfact>
</mgrwt>
</event>
<event>
 4    1  0.1321115E-008  0.1972459E+04  0.7816531E-02  0.8619606E-01
          1   -1    0    0  501    0  0.00000000000E+00  0.00000000000E+00  0.24906591113E+04  0.24906591113E+04  0.00000000000E+00 0.  1.
         -1   -1    0    0    0  501 -0.00000000000E+00 -0.00000000000E+00 -0.39051875634E+03  0.39051875634E+03  0.00000000000E+00 0. -1.
    2000013    1    1    2    0    0 -0.20138374347E+03  0.16119072875E+03  0.11378490268E+04  0.15045724545E+04  0.95000000000E+03 0.  0.
   -2000013    1    1    2    0    0  0.20138374347E+03 -0.16119072875E+03  0.96229132825E+03  0.13766054132E+04  0.95000000000E+03 0.  0.
<mgrwt>
<rscale>  0 0.19724595E+04</rscale>
<asrwt>0</asrwt>
<pdfrwt beam="1">  1        1 0.38317832E+00 0.19724595E+04</pdfrwt>
<pdfrwt beam="2">  1       -1 0.60079810E-01 0.19724595E+04</pdfrwt>
<totfact> 0.35937845E+00</totfact>
</mgrwt>
</event>
<event>
 4    1  0.1321115E-008  0.2434550E+04  0.7816531E-02  0.8426681E-01
         -2   -1    0    0    0  501 -0.00000000000E+00  0.00000000000E+00  0.18175972571E+04  0.18175972571E+04  0.00000000000E+00 0. -1.
          2   -1    0    0  501    0  0.00000000000E+00 -0.00000000000E+00 -0.81522952283E+03  0.81522952283E+03  0.00000000000E+00 0.  1.
    2000013    1    1    2    0    0 -0.45884363306E+03  0.86071894205E+02 -0.14886403748E+03  0.10689276646E+04  0.95000000000E+03 0.  0.
   -2000013    1    1    2    0    0  0.45884363306E+03 -0.86071894205E+02  0.11512317718E+04  0.15638991153E+04  0.95000000000E+03 0.  0.
<mgrwt>
<rscale>  0 0.24345504E+04</rscale>
<asrwt>0</asrwt>
<pdfrwt beam="2">  1        2 0.12541993E+00 0.24345504E+04</pdfrwt>
<pdfrwt beam="1">  1       -2 0.27963035E+00 0.24345504E+04</pdfrwt>
<totfact> 0.12749928E+00</totfact>
</mgrwt>
</event>
<event>
 4    1  0.1321115E-008  0.2080378E+04  0.7816531E-02  0.8569937E-01
          2   -1    0    0  501    0  0.00000000000E+00  0.00000000000E+00  0.29648693032E+04  0.29648693032E+04  0.00000000000E+00 0.  1.
         -2   -1    0    0    0  501 -0.00000000000E+00 -0.00000000000E+00 -0.36493796791E+03  0.36493796791E+03  0.00000000000E+00 0. -1.
    2000013    1    1    2    0    0  0.29771448369E+03 -0.50078844741E+02  0.17757213082E+04  0.20363761855E+04  0.95000000000E+03 0.  0.
   -2000013    1    1    2    0    0 -0.29771448369E+03  0.50078844741E+02  0.82421002712E+03  0.12934310856E+04  0.95000000000E+03 0.  0.
<mgrwt>
<rscale>  0 0.20803782E+04</rscale>
<asrwt>0</asrwt>
<pdfrwt beam="1">  1        2 0.45613372E+00 0.20803782E+04</pdfrwt>
<pdfrwt beam="2">  1       -2 0.56144305E-01 0.20803782E+04</pdfrwt>
<totfact> 0.50435966E+00</totfact>
</mgrwt>
</event>
<event>
 4    1  0.1321115E-008  0.3352890E+04  0.7816531E-02  0.8149566E-01
         -2   -1    0    0    0  501 -0.00000000000E+00  0.00000000000E+00  0.15638476197E+04  0.15638476197E+04  0.00000000000E+00 0. -1.
          2   -1    0    0  501    0  0.00000000000E+00 -0.00000000000E+00 -0.17971496295E+04  0.17971496295E+04  0.00000000000E+00 0.  1.
    2000013    1    1    2    0    0 -0.10031885249E+04  0.92712134642E+03 -0.32215147941E+03  0.16947633414E+04  0.95000000000E+03 0.  0.
   -2000013    1    1    2    0    0  0.10031885249E+04 -0.92712134642E+03  0.88849469569E+02  0.16662339079E+04  0.95000000000E+03 0.  0.
<mgrwt>
<rscale>  0 0.33528902E+04</rscale>
<asrwt>0</asrwt>
<pdfrwt beam="2">  1        2 0.27648456E+00 0.33528902E+04</pdfrwt>
<pdfrwt beam="1">  1       -2 0.24059194E+00 0.33528902E+04</pdfrwt>
<totfact> 0.52904492E-01</totfact>
</mgrwt>
</event>
<event>
 4    1  0.1321115E-008  0.2515262E+04  0.7816531E-02  0.8397568E-01
         -2   -1    0    0    0  501 -0.00000000000E+00  0.00000000000E+00  0.77755258655E+03  0.77755258655E+03  0.00000000000E+00 0. -1.
          2   -1    0    0  501    0  0.00000000000E+00 -0.00000000000E+00 -0.20341210721E+04  0.20341210721E+04  0.00000000000E+00 0.  1.
    2000013    1    1    2    0    0  0.70194878490E+03  0.15172400945E+03 -0.17644269031E+03  0.12039037730E+04  0.95000000000E+03 0.  0.
   -2000013    1    1    2    0    0 -0.70194878490E+03 -0.15172400945E+03 -0.10801257952E+04  0.16077698856E+04  0.95000000000E+03 0.  0.
<mgrwt>
<rscale>  0 0.25152623E+04</rscale>
<asrwt>0</asrwt>
<pdfrwt beam="2">  1        2 0.31294169E+00 0.25152623E+04</pdfrwt>
<pdfrwt beam="1">  1       -2 0.11962348E+00 0.25152623E+04</pdfrwt>
<totfact> 0.30485697E+00</totfact>
</mgrwt>
</event>
<event>
 4    1  0.1321115E-008  0.2828972E+04  0.7816531E-02  0.8294330E-01
          2   -1    0    0  501    0  0.00000000000E+00  0.00000000000E+00  0.21063705620E+04  0.21063705620E+04  0.00000000000E+00 0.  1.
         -2   -1    0    0    0  501 -0.00000000000E+00 -0.00000000000E+00 -0.94986635426E+03  0.94986635426E+03  0.00000000000E+00 0. -1.
    2000013    1    1    2    0    0  0.82409864049E+03  0.45308807615E+03  0.78670940443E+02  0.13390729968E+04  0.95000000000E+03 0.  0.
   -2000013    1    1    2    0    0 -0.82409864049E+03 -0.45308807615E+03  0.10778332673E+04  0.17171639194E+04  0.95000000000E+03 0.  0.
<mgrwt>
<rscale>  0 0.28289719E+04</rscale>
<asrwt>0</asrwt>
<pdfrwt beam="1">  1        2 0.32405701E+00 0.28289719E+04</pdfrwt>
<pdfrwt beam="2">  1       -2 0.14613329E+00 0.28289719E+04</pdfrwt>
<totfact> 0.16241832E+00</totfact>
</mgrwt>
</event>
<event>
 4    1  0.1321115E-008  0.2696447E+04  0.7816531E-02  0.8336159E-01
         -2   -1    0    0    0  501 -0.00000000000E+00  0.00000000000E+00  0.12358677678E+04  0.12358677678E+04  0.00000000000E+00 0. -1.
          2   -1    0    0  501    0  0.00000000000E+00 -0.00000000000E+00 -0.14707933755E+04  0.14707933755E+04  0.00000000000E+00 0.  1.
    2000013    1    1    2    0    0 -0.55989193484E+03 -0.32141205838E+03  0.59120126464E+03  0.12918218241E+04  0.95000000000E+03 0.  0.
   -2000013    1    1    2    0    0  0.55989193484E+03  0.32141205838E+03 -0.82612687232E+03  0.14148393192E+04  0.95000000000E+03 0.  0.
<mgrwt>
<rscale>  0 0.26964466E+04</rscale>
<asrwt>0</asrwt>
<pdfrwt beam="2">  1        2 0.22627590E+00 0.26964466E+04</pdfrwt>
<pdfrwt beam="1">  1       -2 0.19013350E+00 0.26964466E+04</pdfrwt>
<totfact> 0.17901663E+00</totfact>
</mgrwt>
</event>
<event>
 4    1  0.1321115E-008  0.3379960E+04  0.7816531E-02  0.8142842E-01
         -2   -1    0    0    0  501 -0.00000000000E+00  0.00000000000E+00  0.19189846704E+04  0.19189846704E+04  0.00000000000E+00 0. -1.
          2   -1    0    0  501    0  0.00000000000E+00 -0.00000000000E+00 -0.14883036341E+04  0.14883036341E+04  0.00000000000E+00 0.  1.
    2000013    1    1    2    0    0 -0.10758825278E+03  0.13553766787E+04  0.54185859153E+03  0.17449160170E+04  0.95000000000E+03 0.  0.
   -2000013    1    1    2    0    0  0.10758825278E+03 -0.13553766787E+04 -0.11117755527E+03  0.16623722875E+04  0.95000000000E+03 0.  0.
<mgrwt>
<rscale>  0 0.33799597E+04</rscale>
<asrwt>0</asrwt>
<pdfrwt beam="2">  1        2 0.22896979E+00 0.33799597E+04</pdfrwt>
<pdfrwt beam="1">  1       -2 0.29522841E+00 0.33799597E+04</pdfrwt>
<totfact> 0.36352811E-01</totfact>
</mgrwt>
</event>
<event>
 4    1  0.1321115E-008  0.2469454E+04  0.7816531E-02  0.8413949E-01
         -2   -1    0    0    0  501 -0.00000000000E+00  0.00000000000E+00  0.10798488714E+04  0.10798488714E+04  0.00000000000E+00 0. -1.
          2   -1    0    0  501    0  0.00000000000E+00 -0.00000000000E+00 -0.14118184066E+04  0.14118184066E+04  0.00000000000E+00 0.  1.
    2000013    1    1    2    0    0  0.72205561812E+03 -0.30432124415E+03 -0.75316684496E+02  0.12337537592E+04  0.95000000000E+03 0.  0.
   -2000013    1    1    2    0    0 -0.72205561812E+03  0.30432124415E+03 -0.25665285070E+03  0.12579135189E+04  0.95000000000E+03 0.  0.
<mgrwt>
<rscale>  0 0.24694538E+04</rscale>
<asrwt>0</asrwt>
<pdfrwt beam="2">  1        2 0.21720283E+00 0.24694538E+04</pdfrwt>
<pdfrwt beam="1">  1       -2 0.16613060E+00 0.24694538E+04</pdfrwt>
<totfact> 0.28945239E+00</totfact>
</mgrwt>
</event>
<event>
 4    1  0.1321115E-008  0.2391108E+04  0.7816531E-02  0.8442840E-01
         -2   -1    0    0    0  501 -0.00000000000E+00  0.00000000000E+00  0.10917452523E+04  0.10917452523E+04  0.00000000000E+00 0. -1.
          2   -1    0    0  501    0  0.00000000000E+00 -0.00000000000E+00 -0.13092337900E+04  0.13092337900E+04  0.00000000000E+00 0.  1.
    2000013    1    1    2    0    0  0.71133119893E+03  0.14230373572E+03 -0.83998132411E+02  0.11982479351E+04  0.95000000000E+03 0.  0.
   -2000013    1    1    2    0    0 -0.71133119893E+03 -0.14230373572E+03 -0.13349040532E+03  0.12027311071E+04  0.95000000000E+03 0.  0.
<mgrwt>
<rscale>  0 0.23911083E+04</rscale>
<asrwt>0</asrwt>
<pdfrwt beam="2">  1        2 0.20142058E+00 0.23911083E+04</pdfrwt>
<pdfrwt beam="1">  1       -2 0.16796081E+00 0.23911083E+04</pdfrwt>
<totfact> 0.32387556E+00</totfact>
</mgrwt>
</event>
<event>
 4    1  0.1321115E-008  0.2306601E+04  0.7816531E-02  0.8475323E-01
          2   -1    0    0  501    0  0.00000000000E+00  0.00000000000E+00  0.57796701840E+03  0.57796701840E+03  0.00000000000E+00 0.  1.
         -2   -1    0    0    0  501 -0.00000000000E+00 -0.00000000000E+00 -0.23013464445E+04  0.23013464445E+04  0.00000000000E+00 0. -1.
    2000013    1    1    2    0    0 -0.53756904625E+03 -0.35714388122E+03 -0.73035110194E+03  0.13610455406E+04  0.95000000000E+03 0.  0.
   -2000013    1    1    2    0    0  0.53756904625E+03  0.35714388122E+03 -0.99302832413E+03  0.15182679223E+04  0.95000000000E+03 0.  0.
<mgrwt>
<rscale>  0 0.23066013E+04</rscale>
<asrwt>0</asrwt>
<pdfrwt beam="1">  1        2 0.88918006E-01 0.23066013E+04</pdfrwt>
<pdfrwt beam="2">  1       -2 0.35405329E+00 0.23066013E+04</pdfrwt>
<totfact> 0.69033645E-01</totfact>
</mgrwt>
</event>
<event>
 4    1  0.1321115E-008  0.2159433E+04  0.7816531E-02  0.8535505E-01
          2   -1    0    0  501    0  0.00000000000E+00  0.00000000000E+00  0.83529574430E+03  0.83529574430E+03  0.00000000000E+00 0.  1.
         -2   -1    0    0    0  501 -0.00000000000E+00 -0.00000000000E+00 -0.13956583266E+04  0.13956583266E+04  0.00000000000E+00 0. -1.
    2000013    1    1    2    0    0 -0.31221357341E+03  0.20770198875E+03 -0.64202429341E+03  0.12063633884E+04  0.95000000000E+03 0.  0.
   -2000013    1    1    2    0    0  0.31221357341E+03 -0.20770198875E+03  0.81661711129E+02  0.10245906825E+04  0.95000000000E+03 0.  0.
<mgrwt>
<rscale>  0 0.21594328E+04</rscale>
<asrwt>0</asrwt>
<pdfrwt beam="1">  1        2 0.12850704E+00 0.21594328E+04</pdfrwt>
<pdfrwt beam="2">  1       -2 0.21471666E+00 0.21594328E+04</pdfrwt>
<totfact> 0.31820462E+00</totfact>
</mgrwt>
</event>
<event>
 4    1  0.1321115E-008  0.2352133E+04  0.7816531E-02  0.8457645E-01
          2   -1    0    0  501    0  0.00000000000E+00  0.00000000000E+00  0.19246585916E+04  0.19246585916E+04  0.00000000000E+00 0.  1.
         -2   -1    0    0    0  501 -0.00000000000E+00 -0.00000000000E+00 -0.71863761325E+03  0.71863761325E+03  0.00000000000E+00 0. -1.
    2000013    1    1    2    0    0  0.47805590337E+03  0.45085869661E+02  0.11649735304E+04  0.15780473722E+04  0.95000000000E+03 0.  0.
   -2000013    1    1    2    0    0 -0.47805590337E+03 -0.45085869661E+02  0.41047447891E+02  0.10652488326E+04  0.95000000000E+03 0.  0.
<mgrwt>
<rscale>  0 0.23521327E+04</rscale>
<asrwt>0</asrwt>
<pdfrwt beam="1">  1        2 0.29610132E+00 0.23521327E+04</pdfrwt>
<pdfrwt beam="2">  1       -2 0.11055963E+00 0.23521327E+04</pdfrwt>
<totfact> 0.43107177E+00</totfact>
</mgrwt>
</event>
<event>
 4    1  0.1321115E-008  0.2414435E+04  0.7816531E-02  0.8434119E-01
         -2   -1    0    0    0  501 -0.00000000000E+00  0.00000000000E+00  0.11582594212E+04  0.11582594212E+04  0.00000000000E+00 0.  1.
          2   -1    0    0  501    0  0.00000000000E+00 -0.00000000000E+00 -0.12582450550E+04  0.12582450550E+04  0.00000000000E+00 0. -1.
    2000013    1    1    2    0    0 -0.35396249614E+03 -0.62986646318E+03 -0.23140207600E+03  0.12157582535E+04  0.95000000000E+03 0.  0.
   -2000013    1    1    2    0    0  0.35396249614E+03  0.62986646318E+03  0.13141644216E+03  0.12007462227E+04  0.95000000000E+03 0.  0.
<mgrwt>
<rscale>  0 0.24144351E+04</rscale>
<asrwt>0</asrwt>
<pdfrwt beam="2">  1        2 0.19357616E+00 0.24144351E+04</pdfrwt>
<pdfrwt beam="1">  1       -2 0.17819376E+00 0.24144351E+04</pdfrwt>
<totfact> 0.29320648E+00</totfact>
</mgrwt>
</event>
<event>
 4    1  0.1321115E-008  0.2334396E+04  0.7816531E-02  0.8464481E-01
         -2   -1    0    0    0  501 -0.00000000000E+00  0.00000000000E+00  0.77656055518E+03  0.77656055518E+03  0.00000000000E+00 0. -1.
          2   -1    0    0  501    0  0.00000000000E+00 -0.00000000000E+00 -0.17543396238E+04  0.17543396238E+04  0.00000000000E+00 0.  1.
    2000013    1    1    2    0    0  0.66363750155E+03 -0.13124866119E+03 -0.43792155499E+03  0.12457592997E+04  0.95000000000E+03 0.  0.
   -2000013    1    1    2    0    0 -0.66363750155E+03  0.13124866119E+03 -0.53985751365E+03  0.12851408793E+04  0.95000000000E+03 0.  0.
<mgrwt>
<rscale>  0 0.23343958E+04</rscale>
<asrwt>0</asrwt>
<pdfrwt beam="2">  1        2 0.26989840E+00 0.23343958E+04</pdfrwt>
<pdfrwt beam="1">  1       -2 0.11947086E+00 0.23343958E+04</pdfrwt>
<totfact> 0.44404157E+00</totfact>
</mgrwt>
</event>
<event>
 4    1  0.1321115E-008  0.3310307E+04  0.7816531E-02  0.8160278E-01
         -2   -1    0    0    0  501 -0.00000000000E+00  0.00000000000E+00  0.21882827394E+04  0.21882827394E+04  0.00000000000E+00 0. -1.
          2   -1    0    0  501    0  0.00000000000E+00 -0.00000000000E+00 -0.12519097123E+04  0.12519097123E+04  0.00000000000E+00 0.  1.
    2000013    1    1    2    0    0  0.10728494584E+04  0.72197239280E+03  0.46325078614E+02  0.16052713507E+04  0.95000000000E+03 0.  0.
   -2000013    1    1    2    0    0 -0.10728494584E+04 -0.72197239280E+03  0.89004794849E+03  0.18349211010E+04  0.95000000000E+03 0.  0.
<mgrwt>
<rscale>  0 0.33103066E+04</rscale>
<asrwt>0</asrwt>
<pdfrwt beam="2">  1        2 0.19260149E+00 0.33103066E+04</pdfrwt>
<pdfrwt beam="1">  1       -2 0.33665888E+00 0.33103066E+04</pdfrwt>
<totfact> 0.27767528E-01</totfact>
</mgrwt>
</event>
<event>
 4    1  0.1321115E-008  0.2449643E+04  0.7816531E-02  0.8421148E-01
         -1   -1    0    0    0  501 -0.00000000000E+00  0.00000000000E+00  0.25767190607E+04  0.25767190607E+04  0.00000000000E+00 0. -1.
          1   -1    0    0  501    0  0.00000000000E+00 -0.00000000000E+00 -0.58220853280E+03  0.58220853280E+03  0.00000000000E+00 0.  1.
    2000013    1    1    2    0    0  0.53633454058E+03  0.23163881544E+03  0.34431116428E+03  0.11672024066E+04  0.95000000000E+03 0.  0.
   -2000013    1    1    2    0    0 -0.53633454058E+03 -0.23163881544E+03  0.16501993636E+04  0.19917251868E+04  0.95000000000E+03 0.  0.
<mgrwt>
<rscale>  0 0.24496431E+04</rscale>
<asrwt>0</asrwt>
<pdfrwt beam="2">  1        1 0.89570545E-01 0.24496431E+04</pdfrwt>
<pdfrwt beam="1">  1       -1 0.39641831E+00 0.24496431E+04</pdfrwt>
<totfact> 0.24159978E-01</totfact>
</mgrwt>
</event>
<event>
 4    1  0.1321115E-008  0.2397750E+04  0.7816531E-02  0.8440346E-01
          2   -1    0    0  501    0  0.00000000000E+00  0.00000000000E+00  0.16878628309E+04  0.16878628309E+04  0.00000000000E+00 0.  1.
         -2   -1    0    0    0  501 -0.00000000000E+00 -0.00000000000E+00 -0.85155118409E+03  0.85155118409E+03  0.00000000000E+00 0. -1.
    2000013    1    1    2    0    0 -0.67237776488E+03 -0.18565315862E+03  0.65077477190E+03  0.13463159948E+04  0.95000000000E+03 0.  0.
   -2000013    1    1    2    0    0  0.67237776488E+03  0.18565315862E+03  0.18553687496E+03  0.11930980203E+04  0.95000000000E+03 0.  0.
<mgrwt>
<rscale>  0 0.23977503E+04</rscale>
<asrwt>0</asrwt>
<pdfrwt beam="1">  1        2 0.25967120E+00 0.23977503E+04</pdfrwt>
<pdfrwt beam="2">  1       -2 0.13100787E+00 0.23977503E+04</pdfrwt>
<totfact> 0.38158028E+00</totfact>
</mgrwt>
</event>
<event>
 4    1  0.1321115E-008  0.2363374E+04  0.7816531E-02  0.8453344E-01
         -2   -1    0    0    0  501 -0.00000000000E+00  0.00000000000E+00  0.35793950066E+03  0.35793950066E+03  0.00000000000E+00 0. -1.
          2   -1    0    0  501    0  0.00000000000E+00 -0.00000000000E+00 -0.39011739871E+04  0.39011739871E+04  0.00000000000E+00 0.  1.
    2000013    1    1    2    0    0 -0.54460901937E+03  0.39255472122E+03 -0.21461231002E+04  0.24411150228E+04  0.95000000000E+03 0.  0.
   -2000013    1    1    2    0    0  0.54460901937E+03 -0.39255472122E+03 -0.13971113862E+04  0.18179984650E+04  0.95000000000E+03 0.  0.
<mgrwt>
<rscale>  0 0.23633741E+04</rscale>
<asrwt>0</asrwt>
<pdfrwt beam="2">  1        2 0.60018064E+00 0.23633741E+04</pdfrwt>
<pdfrwt beam="1">  1       -2 0.55067613E-01 0.23633741E+04</pdfrwt>
<totfact> 0.11523374E+00</totfact>
</mgrwt>
</event>
<event>
 4    1  0.1321115E-008  0.3555046E+04  0.7816531E-02  0.8100867E-01
         -2   -1    0    0    0  501 -0.00000000000E+00  0.00000000000E+00  0.14918647736E+04  0.14918647736E+04  0.00000000000E+00 0. -1.
          2   -1    0    0  501    0  0.00000000000E+00 -0.00000000000E+00 -0.21178778922E+04  0.21178778922E+04  0.00000000000E+00 0.  1.
    2000013    1    1    2    0    0  0.13777413889E+04  0.58783214423E+03 -0.43041192734E+03  0.18252321473E+04  0.95000000000E+03 0.  0.
   -2000013    1    1    2    0    0 -0.13777413889E+04 -0.58783214423E+03 -0.19560119130E+03  0.17845105185E+04  0.95000000000E+03 0.  0.
<mgrwt>
<rscale>  0 0.35550457E+04</rscale>
<asrwt>0</asrwt>
<pdfrwt beam="2">  1        2 0.32582737E+00 0.35550457E+04</pdfrwt>
<pdfrwt beam="1">  1       -2 0.22951766E+00 0.35550457E+04</pdfrwt>
<totfact> 0.40443179E-01</totfact>
</mgrwt>
</event>
<event>
 4    1  0.1321115E-008  0.2885239E+04  0.7816531E-02  0.8277283E-01
         -2   -1    0    0    0  501 -0.00000000000E+00  0.00000000000E+00  0.89549367233E+03  0.89549367233E+03  0.00000000000E+00 0. -1.
          2   -1    0    0  501    0  0.00000000000E+00 -0.00000000000E+00 -0.23240262894E+04  0.23240262894E+04  0.00000000000E+00 0.  1.
    2000013    1    1    2    0    0  0.40476500855E+03 -0.98014028805E+03 -0.97390717278E+03  0.17249651816E+04  0.95000000000E+03 0.  0.
   -2000013    1    1    2    0    0 -0.40476500855E+03  0.98014028805E+03 -0.45462544434E+03  0.14945547802E+04  0.95000000000E+03 0.  0.
<mgrwt>
<rscale>  0 0.28852389E+04</rscale>
<asrwt>0</asrwt>
<pdfrwt beam="2">  1        2 0.35754250E+00 0.28852389E+04</pdfrwt>
<pdfrwt beam="1">  1       -2 0.13776826E+00 0.28852389E+04</pdfrwt>
<totfact> 0.14213690E+00</totfact>
</mgrwt>
</event>
<event>
 4    1  0.1321115E-008  0.2389422E+04  0.7816531E-02  0.8443474E-01
         -2   -1    0    0    0  501 -0.00000000000E+00  0.00000000000E+00  0.14527355185E+04  0.14527355185E+04  0.00000000000E+00 0. -1.
          2   -1    0    0  501    0  0.00000000000E+00 -0.00000000000E+00 -0.98251523928E+03  0.98251523928E+03  0.00000000000E+00 0.  1.
    2000013    1    1    2    0    0  0.44523648948E+03 -0.35838896909E+03  0.68879578500E+03  0.13052271136E+04  0.95000000000E+03 0.  0.
   -2000013    1    1    2    0    0 -0.44523648948E+03  0.35838896909E+03 -0.21857550574E+03  0.11300236442E+04  0.95000000000E+03 0.  0.
<mgrwt>
<rscale>  0 0.23894223E+04</rscale>
<asrwt>0</asrwt>
<pdfrwt beam="2">  1        2 0.15115619E+00 0.23894223E+04</pdfrwt>
<pdfrwt beam="1">  1       -2 0.22349777E+00 0.23894223E+04</pdfrwt>
<totfact> 0.21850156E+00</totfact>
</mgrwt>
</event>
<event>
 4    1  0.1321115E-008  0.2432998E+04  0.7816531E-02  0.8427252E-01
         -1   -1    0    0    0  501 -0.00000000000E+00  0.00000000000E+00  0.51544875751E+03  0.51544875751E+03  0.00000000000E+00 0. -1.
          1   -1    0    0  501    0  0.00000000000E+00 -0.00000000000E+00 -0.28710317958E+04  0.28710317958E+04  0.00000000000E+00 0.  1.
    2000013    1    1    2    0    0  0.29271707377E+03 -0.69621513178E+03 -0.10615787997E+04  0.16124045221E+04  0.95000000000E+03 0.  0.
   -2000013    1    1    2    0    0 -0.29271707377E+03  0.69621513178E+03 -0.12940042387E+04  0.17740760313E+04  0.95000000000E+03 0.  0.
<mgrwt>
<rscale>  0 0.24329980E+04</rscale>
<asrwt>0</asrwt>
<pdfrwt beam="2">  1        1 0.44169721E+00 0.24329980E+04</pdfrwt>
<pdfrwt beam="1">  1       -1 0.79299808E-01 0.24329980E+04</pdfrwt>
<totfact> 0.10527450E+00</totfact>
</mgrwt>
</event>
<event>
 4    1  0.1321115E-008  0.4311917E+04  0.7816531E-02  0.7944418E-01
          2   -1    0    0  501    0  0.00000000000E+00  0.00000000000E+00  0.18034303984E+04  0.18034303984E+04  0.00000000000E+00 0.  1.
         -2   -1    0    0    0  501 -0.00000000000E+00 -0.00000000000E+00 -0.25773969968E+04  0.25773969968E+04  0.00000000000E+00 0. -1.
    2000013    1    1    2    0    0  0.16831426026E+04  0.47759749301E+03  0.45363790923E+03  0.20419000315E+04  0.95000000000E+03 0.  0.
   -2000013    1    1    2    0    0 -0.16831426026E+04 -0.47759749301E+03 -0.12276045076E+04  0.23389273638E+04  0.95000000000E+03 0.  0.
<mgrwt>
<rscale>  0 0.43119166E+04</rscale>
<asrwt>0</asrwt>
<pdfrwt beam="1">  1        2 0.27745083E+00 0.43119166E+04</pdfrwt>
<pdfrwt beam="2">  1       -2 0.39652261E+00 0.43119166E+04</pdfrwt>
<totfact> 0.51683410E-02</totfact>
</mgrwt>
</event>
<event>
 4    1  0.1321115E-008  0.3190979E+04  0.7816531E-02  0.8191204E-01
          2   -1    0    0  501    0  0.00000000000E+00  0.00000000000E+00  0.12526959330E+04  0.12526959330E+04  0.00000000000E+00 0.  1.
         -2   -1    0    0    0  501 -0.00000000000E+00 -0.00000000000E+00 -0.20320872121E+04  0.20320872121E+04  0.00000000000E+00 0. -1.
    2000013    1    1    2    0    0  0.17814602785E+02  0.34122565985E+03  0.88207163375E+03  0.13406351771E+04  0.95000000000E+03 0.  0.
   -2000013    1    1    2    0    0 -0.17814602785E+02 -0.34122565985E+03 -0.16614629128E+04  0.19441479681E+04  0.95000000000E+03 0.  0.
<mgrwt>
<rscale>  0 0.31909794E+04</rscale>
<asrwt>0</asrwt>
<pdfrwt beam="1">  1        2 0.19272245E+00 0.31909794E+04</pdfrwt>
<pdfrwt beam="2">  1       -2 0.31262880E+00 0.31909794E+04</pdfrwt>
<totfact> 0.39476053E-01</totfact>
</mgrwt>
</event>
<event>
 4    1  0.1321115E-008  0.1932524E+04  0.7816531E-02  0.8638835E-01
          2   -1    0    0  501    0  0.00000000000E+00  0.00000000000E+00  0.10617433962E+04  0.10617433962E+04  0.00000000000E+00 0.  1.
         -2   -1    0    0    0  501 -0.00000000000E+00 -0.00000000000E+00 -0.87936671378E+03  0.87936671378E+03  0.00000000000E+00 0. -1.
    2000013    1    1    2    0    0  0.13789271396E+03 -0.10228753499E+03  0.13241532997E+03  0.97442852995E+03  0.95000000000E+03 0.  0.
   -2000013    1    1    2    0    0 -0.13789271396E+03  0.10228753499E+03  0.49961352436E+02  0.96668158000E+03  0.95000000000E+03 0.  0.
<mgrwt>
<rscale>  0 0.19325235E+04</rscale>
<asrwt>0</asrwt>
<pdfrwt beam="1">  1        2 0.16334514E+00 0.19325235E+04</pdfrwt>
<pdfrwt beam="2">  1       -2 0.13528719E+00 0.19325235E+04</pdfrwt>
<totfact> 0.84354896E+00</totfact>
</mgrwt>
</event>
<event>
 4    1  0.1321115E-008  0.2374894E+04  0.7816531E-02  0.8448963E-01
          2   -1    0    0  501    0  0.00000000000E+00  0.00000000000E+00  0.71279753112E+03  0.71279753112E+03  0.00000000000E+00 0.  1.
         -2   -1    0    0    0  501 -0.00000000000E+00 -0.00000000000E+00 -0.19781646795E+04  0.19781646795E+04  0.00000000000E+00 0. -1.
    2000013    1    1    2    0    0 -0.67223436764E+01 -0.68285627305E+03 -0.40271149830E+03  0.12373416789E+04  0.95000000000E+03 0.  0.
   -2000013    1    1    2    0    0  0.67223436764E+01  0.68285627305E+03 -0.86265565009E+03  0.14536205317E+04  0.95000000000E+03 0.  0.
<mgrwt>
<rscale>  0 0.23748944E+04</rscale>
<asrwt>0</asrwt>
<pdfrwt beam="1">  1        2 0.10966116E+00 0.23748944E+04</pdfrwt>
<pdfrwt beam="2">  1       -2 0.30433303E+00 0.23748944E+04</pdfrwt>
<totfact> 0.10790706E+00</totfact>
</mgrwt>
</event>
<event>
 4    1  0.1321115E-008  0.2683902E+04  0.7816531E-02  0.8340247E-01
         -1   -1    0    0    0  501 -0.00000000000E+00  0.00000000000E+00  0.15655271796E+04  0.15655271796E+04  0.00000000000E+00 0. -1.
          1   -1    0    0  501    0  0.00000000000E+00 -0.00000000000E+00 -0.11503042650E+04  0.11503042650E+04  0.00000000000E+00 0.  1.
    2000013    1    1    2    0    0 -0.27268881635E+03 -0.61861877016E+03 -0.46458364485E+03  0.12551439505E+04  0.95000000000E+03 0.  0.
   -2000013    1    1    2    0    0  0.27268881635E+03  0.61861877016E+03  0.87980655949E+03  0.14606874941E+04  0.95000000000E+03 0.  0.
<mgrwt>
<rscale>  0 0.26839021E+04</rscale>
<asrwt>0</asrwt>
<pdfrwt beam="2">  1        1 0.17696989E+00 0.26839021E+04</pdfrwt>
<pdfrwt beam="1">  1       -1 0.24085034E+00 0.26839021E+04</pdfrwt>
<totfact> 0.81359329E-01</totfact>
</mgrwt>
</event>
<event>
 4    1  0.1321115E-008  0.2365354E+04  0.7816531E-02  0.8452589E-01
         -1   -1    0    0    0  501 -0.00000000000E+00  0.00000000000E+00  0.35355943669E+03  0.35355943669E+03  0.00000000000E+00 0. -1.
          1   -1    0    0  501    0  0.00000000000E+00 -0.00000000000E+00 -0.39561245384E+04  0.39561245384E+04  0.00000000000E+00 0.  1.
    2000013    1    1    2    0    0 -0.22907683165E+03 -0.54483759543E+03 -0.24996139292E+04  0.27385934337E+04  0.95000000000E+03 0.  0.
   -2000013    1    1    2    0    0  0.22907683165E+03  0.54483759543E+03 -0.11029511725E+04  0.15710905414E+04  0.95000000000E+03 0.  0.
<mgrwt>
<rscale>  0 0.23653542E+04</rscale>
<asrwt>0</asrwt>
<pdfrwt beam="2">  1        1 0.60863455E+00 0.23653542E+04</pdfrwt>
<pdfrwt beam="1">  1       -1 0.54393759E-01 0.23653542E+04</pdfrwt>
<totfact> 0.32280678E-01</totfact>
</mgrwt>
</event>
<event>
 4    1  0.1321115E-008  0.2131308E+04  0.7816531E-02  0.8547576E-01
          2   -1    0    0  501    0  0.00000000000E+00  0.00000000000E+00  0.32943639436E+04  0.32943639436E+04  0.00000000000E+00 0.  1.
         -2   -1    0    0    0  501 -0.00000000000E+00 -0.00000000000E+00 -0.34471545405E+03  0.34471545405E+03  0.00000000000E+00 0. -1.
    2000013    1    1    2    0    0 -0.43040456202E+03  0.20922569801E+03  0.13655656758E+04  0.17309803854E+04  0.95000000000E+03 0.  0.
   -2000013    1    1    2    0    0  0.43040456202E+03 -0.20922569801E+03  0.15840828138E+04  0.19080990123E+04  0.95000000000E+03 0.  0.
<mgrwt>
<rscale>  0 0.21313077E+04</rscale>
<asrwt>0</asrwt>
<pdfrwt beam="1">  1        2 0.50682520E+00 0.21313077E+04</pdfrwt>
<pdfrwt beam="2">  1       -2 0.53033149E-01 0.21313077E+04</pdfrwt>
<totfact> 0.34730589E+00</totfact>
</mgrwt>
</event>
<event>
 4    1  0.1321115E-008  0.2506540E+04  0.7816531E-02  0.8400659E-01
         -2   -1    0    0    0  501 -0.00000000000E+00  0.00000000000E+00  0.52375277240E+03  0.52375277240E+03  0.00000000000E+00 0. -1.
          2   -1    0    0  501    0  0.00000000000E+00 -0.00000000000E+00 -0.29989073720E+04  0.29989073720E+04  0.00000000000E+00 0.  1.
    2000013    1    1    2    0    0  0.18747101493E+03  0.78954992848E+03 -0.10995085961E+04  0.16643177653E+04  0.95000000000E+03 0.  0.
   -2000013    1    1    2    0    0 -0.18747101493E+03 -0.78954992848E+03 -0.13756460035E+04  0.18583423791E+04  0.95000000000E+03 0.  0.
<mgrwt>
<rscale>  0 0.25065403E+04</rscale>
<asrwt>0</asrwt>
<pdfrwt beam="2">  1        2 0.46137037E+00 0.25065403E+04</pdfrwt>
<pdfrwt beam="1">  1       -2 0.80577349E-01 0.25065403E+04</pdfrwt>
<totfact> 0.21145833E+00</totfact>
</mgrwt>
</event>
<event>
 4    1  0.1321115E-008  0.3087495E+04  0.7816531E-02  0.8219178E-01
         -2   -1    0    0    0  501 -0.00000000000E+00  0.00000000000E+00  0.14124486610E+04  0.14124486610E+04  0.00000000000E+00 0. -1.
          2   -1    0    0  501    0  0.00000000000E+00 -0.00000000000E+00 -0.16872519197E+04  0.16872519197E+04  0.00000000000E+00 0.  1.
    2000013    1    1    2    0    0 -0.93576090429E+03 -0.67579891781E+03  0.24922341165E+03  0.15155741342E+04  0.95000000000E+03 0.  0.
   -2000013    1    1    2    0    0  0.93576090429E+03  0.67579891781E+03 -0.52402667038E+03  0.15841264465E+04  0.95000000000E+03 0.  0.
<mgrwt>
<rscale>  0 0.30874952E+04</rscale>
<asrwt>0</asrwt>
<pdfrwt beam="2">  1        2 0.25957722E+00 0.30874952E+04</pdfrwt>
<pdfrwt beam="1">  1       -2 0.21729979E+00 0.30874952E+04</pdfrwt>
<totfact> 0.87116491E-01</totfact>
</mgrwt>
</event>
<event>
 4    1  0.1321115E-008  0.2516212E+04  0.7816531E-02  0.8397233E-01
          2   -1    0    0  501    0  0.00000000000E+00  0.00000000000E+00  0.10035954748E+04  0.10035954748E+04  0.00000000000E+00 0.  1.
         -2   -1    0    0    0  501 -0.00000000000E+00 -0.00000000000E+00 -0.15771600861E+04  0.15771600861E+04  0.00000000000E+00 0. -1.
    2000013    1    1    2    0    0 -0.44847674016E+03 -0.68168144271E+03 -0.41032856493E+03  0.13178355387E+04  0.95000000000E+03 0.  0.
   -2000013    1    1    2    0    0  0.44847674016E+03  0.68168144271E+03 -0.16323604632E+03  0.12629200223E+04  0.95000000000E+03 0.  0.
<mgrwt>
<rscale>  0 0.25162120E+04</rscale>
<asrwt>0</asrwt>
<pdfrwt beam="1">  1        2 0.15439931E+00 0.25162120E+04</pdfrwt>
<pdfrwt beam="2">  1       -2 0.24264001E+00 0.25162120E+04</pdfrwt>
<totfact> 0.15918334E+00</totfact>
</mgrwt>
</event>
<event>
 4    1  0.1321115E-008  0.2059240E+04  0.7816531E-02  0.8579414E-01
          2   -1    0    0  501    0  0.00000000000E+00  0.00000000000E+00  0.84757655322E+03  0.84757655322E+03  0.00000000000E+00 0.  1.
         -2   -1    0    0    0  501 -0.00000000000E+00 -0.00000000000E+00 -0.12507630108E+04  0.12507630108E+04  0.00000000000E+00 0. -1.
    2000013    1    1    2    0    0 -0.38909234427E+03  0.48344139430E+02 -0.26512603539E+03  0.10613773235E+04  0.95000000000E+03 0.  0.
   -2000013    1    1    2    0    0  0.38909234427E+03 -0.48344139430E+02 -0.13806042224E+03  0.10369622406E+04  0.95000000000E+03 0.  0.
<mgrwt>
<rscale>  0 0.20592401E+04</rscale>
<asrwt>0</asrwt>
<pdfrwt beam="1">  1        2 0.13039639E+00 0.20592401E+04</pdfrwt>
<pdfrwt beam="2">  1       -2 0.19242508E+00 0.20592401E+04</pdfrwt>
<totfact> 0.43968086E+00</totfact>
</mgrwt>
</event>
<event>
 4    1  0.1321115E-008  0.2899024E+04  0.7816531E-02  0.8273168E-01
          2   -1    0    0  501    0  0.00000000000E+00  0.00000000000E+00  0.23952267070E+04  0.23952267070E+04  0.00000000000E+00 0.  1.
         -2   -1    0    0    0  501 -0.00000000000E+00 -0.00000000000E+00 -0.87719680345E+03  0.87719680345E+03  0.00000000000E+00 0. -1.
    2000013    1    1    2    0    0 -0.20833446282E+03 -0.56158232986E+03 -0.27543023966E+03  0.11563476028E+04  0.95000000000E+03 0.  0.
   -2000013    1    1    2    0    0  0.20833446282E+03  0.56158232986E+03  0.17934601432E+04  0.21160759076E+04  0.95000000000E+03 0.  0.
<mgrwt>
<rscale>  0 0.28990241E+04</rscale>
<asrwt>0</asrwt>
<pdfrwt beam="1">  1        2 0.36849641E+00 0.28990241E+04</pdfrwt>
<pdfrwt beam="2">  1       -2 0.13495336E+00 0.28990241E+04</pdfrwt>
<totfact> 0.13632814E+00</totfact>
</mgrwt>
</event>
<event>
 4    1  0.1321115E-008  0.2113917E+04  0.7816531E-02  0.8555138E-01
         -1   -1    0    0    0  501 -0.00000000000E+00  0.00000000000E+00  0.10215447216E+04  0.10215447216E+04  0.00000000000E+00 0. -1.
          1   -1    0    0  501    0  0.00000000000E+00 -0.00000000000E+00 -0.10935997368E+04  0.10935997368E+04  0.00000000000E+00 0.  1.
    2000013    1    1    2    0    0 -0.21858756624E+03 -0.31736736098E+03  0.22133476508E+03  0.10488048647E+04  0.95000000000E+03 0.  0.
   -2000013    1    1    2    0    0  0.21858756624E+03  0.31736736098E+03 -0.29338978028E+03  0.10663395937E+04  0.95000000000E+03 0.  0.
<mgrwt>
<rscale>  0 0.21139168E+04</rscale>
<asrwt>0</asrwt>
<pdfrwt beam="2">  1        1 0.16824611E+00 0.21139168E+04</pdfrwt>
<pdfrwt beam="1">  1       -1 0.15716073E+00 0.21139168E+04</pdfrwt>
<totfact> 0.36176132E+00</totfact>
</mgrwt>
</event>
<event>
 4    1  0.1321115E-008  0.3369955E+04  0.7816531E-02  0.8145320E-01
          1   -1    0    0  501    0  0.00000000000E+00  0.00000000000E+00  0.16923409003E+04  0.16923409003E+04  0.00000000000E+00 0. -1.
         -1   -1    0    0    0  501 -0.00000000000E+00 -0.00000000000E+00 -0.16776457378E+04  0.16776457378E+04  0.00000000000E+00 0.  1.
    2000013    1    1    2    0    0  0.13332756600E+04  0.19670195162E+03  0.35424114305E+03  0.16865059830E+04  0.95000000000E+03 0.  0.
   -2000013    1    1    2    0    0 -0.13332756600E+04 -0.19670195162E+03 -0.33954598051E+03  0.16834806551E+04  0.95000000000E+03 0.  0.
<mgrwt>
<rscale>  0 0.33699546E+04</rscale>
<asrwt>0</asrwt>
<pdfrwt beam="1">  1        1 0.26036014E+00 0.33699546E+04</pdfrwt>
<pdfrwt beam="2">  1       -1 0.25809934E+00 0.33699546E+04</pdfrwt>
<totfact> 0.24561188E-01</totfact>
</mgrwt>
</event>
<event>
 4    1  0.1321115E-008  0.2323296E+04  0.7816531E-02  0.8468792E-01
         -2   -1    0    0    0  501 -0.00000000000E+00  0.00000000000E+00  0.78524967253E+03  0.78524967253E+03  0.00000000000E+00 0. -1.
          2   -1    0    0  501    0  0.00000000000E+00 -0.00000000000E+00 -0.17184672762E+04  0.17184672762E+04  0.00000000000E+00 0.  1.
    2000013    1    1    2    0    0 -0.51634018269E+03 -0.21288498886E+03 -0.86256345603E+03  0.13994437889E+04  0.95000000000E+03 0.  0.
   -2000013    1    1    2    0    0  0.51634018269E+03  0.21288498886E+03 -0.70654147608E+02  0.11042731597E+04  0.95000000000E+03 0.  0.
<mgrwt>
<rscale>  0 0.23232958E+04</rscale>
<asrwt>0</asrwt>
<pdfrwt beam="2">  1        2 0.26437958E+00 0.23232958E+04</pdfrwt>
<pdfrwt beam="1">  1       -2 0.12080764E+00 0.23232958E+04</pdfrwt>
<totfact> 0.45262810E+00</totfact>
</mgrwt>
</event>
<event>
 4    1  0.1321115E-008  0.2289749E+04  0.7816531E-02  0.8481974E-01
         -2   -1    0    0    0  501 -0.00000000000E+00  0.00000000000E+00  0.57100057470E+03  0.57100057470E+03  0.00000000000E+00 0. -1.
          2   -1    0    0  501    0  0.00000000000E+00 -0.00000000000E+00 -0.22955110122E+04  0.22955110122E+04  0.00000000000E+00 0.  1.
    2000013    1    1    2    0    0 -0.48471962450E+03 -0.31812743875E+03 -0.52615181727E+03  0.12310539860E+04  0.95000000000E+03 0.  0.
   -2000013    1    1    2    0    0  0.48471962450E+03  0.31812743875E+03 -0.11983586203E+04  0.16354576009E+04  0.95000000000E+03 0.  0.
<mgrwt>
<rscale>  0 0.22897494E+04</rscale>
<asrwt>0</asrwt>
<pdfrwt beam="2">  1        2 0.35315554E+00 0.22897494E+04</pdfrwt>
<pdfrwt beam="1">  1       -2 0.87846241E-01 0.22897494E+04</pdfrwt>
<totfact> 0.46232509E+00</totfact>
</mgrwt>
</event>
<event>
 4    1  0.1321115E-008  0.2952500E+04  0.7816531E-02  0.8257426E-01
         -1   -1    0    0    0  501 -0.00000000000E+00  0.00000000000E+00  0.17249499189E+04  0.17249499189E+04  0.00000000000E+00 0.  1.
          1   -1    0    0  501    0  0.00000000000E+00 -0.00000000000E+00 -0.12634071958E+04  0.12634071958E+04  0.00000000000E+00 0. -1.
    2000013    1    1    2    0    0  0.75975428668E+03  0.86835456019E+02  0.10727681384E+04  0.16242224143E+04  0.95000000000E+03 0.  0.
   -2000013    1    1    2    0    0 -0.75975428668E+03 -0.86835456019E+02 -0.61122541526E+03  0.13641347004E+04  0.95000000000E+03 0.  0.
<mgrwt>
<rscale>  0 0.29525001E+04</rscale>
<asrwt>0</asrwt>
<pdfrwt beam="2">  1        1 0.19437034E+00 0.29525001E+04</pdfrwt>
<pdfrwt beam="1">  1       -1 0.26537691E+00 0.29525001E+04</pdfrwt>
<totfact> 0.45464049E-01</totfact>
</mgrwt>
</event>
<event>
 4    1  0.1321115E-008  0.2686359E+04  0.7816531E-02  0.8339444E-01
          2   -1    0    0  501    0  0.00000000000E+00  0.00000000000E+00  0.10426821379E+04  0.10426821379E+04  0.00000000000E+00 0. -1.
         -2   -1    0    0    0  501 -0.00000000000E+00 -0.00000000000E+00 -0.17302795699E+04  0.17302795699E+04  0.00000000000E+00 0.  1.
    2000013    1    1    2    0    0  0.26685049083E+03  0.88608620926E+03 -0.56343420087E+03  0.14409427655E+04  0.95000000000E+03 0.  0.
   -2000013    1    1    2    0    0 -0.26685049083E+03 -0.88608620926E+03 -0.12416323121E+03  0.13320189423E+04  0.95000000000E+03 0.  0.
<mgrwt>
<rscale>  0 0.26863593E+04</rscale>
<asrwt>0</asrwt>
<pdfrwt beam="1">  1        2 0.16041264E+00 0.26863593E+04</pdfrwt>
<pdfrwt beam="2">  1       -2 0.26619686E+00 0.26863593E+04</pdfrwt>
<totfact> 0.10623947E+00</totfact>
</mgrwt>
</event>
<event>
 4    1  0.1321115E-008  0.2863594E+04  0.7816531E-02  0.8283793E-01
          1   -1    0    0  501    0  0.00000000000E+00  0.00000000000E+00  0.74283827360E+03  0.74283827360E+03  0.00000000000E+00 0. -1.
         -1   -1    0    0    0  501 -0.00000000000E+00 -0.00000000000E+00 -0.27597423463E+04  0.27597423463E+04  0.00000000000E+00 0.  1.
    2000013    1    1    2    0    0 -0.96781010466E+03 -0.45705556472E+03 -0.95394255262E+03  0.17199019105E+04  0.95000000000E+03 0.  0.
   -2000013    1    1    2    0    0  0.96781010466E+03  0.45705556472E+03 -0.10629615201E+04  0.17826787095E+04  0.95000000000E+03 0.  0.
<mgrwt>
<rscale>  0 0.28635937E+04</rscale>
<asrwt>0</asrwt>
<pdfrwt beam="1">  1        1 0.11428281E+00 0.28635937E+04</pdfrwt>
<pdfrwt beam="2">  1       -1 0.42457575E+00 0.28635937E+04</pdfrwt>
<totfact> 0.10370399E-01</totfact>
</mgrwt>
</event>
<event>
 4    1  0.1321115E-008  0.2965460E+04  0.7816531E-02  0.8253663E-01
          2   -1    0    0  501    0  0.00000000000E+00  0.00000000000E+00  0.21055647659E+04  0.21055647659E+04  0.00000000000E+00 0.  1.
         -2   -1    0    0    0  501 -0.00000000000E+00 -0.00000000000E+00 -0.10441321079E+04  0.10441321079E+04  0.00000000000E+00 0. -1.
    2000013    1    1    2    0    0 -0.10591759107E+04 -0.33392850071E+03  0.26491704359E+03  0.14852753594E+04  0.95000000000E+03 0.  0.
   -2000013    1    1    2    0    0  0.10591759107E+04  0.33392850071E+03  0.79651561438E+03  0.16644215143E+04  0.95000000000E+03 0.  0.
<mgrwt>
<rscale>  0 0.29654597E+04</rscale>
<asrwt>0</asrwt>
<pdfrwt beam="1">  1        2 0.32393304E+00 0.29654597E+04</pdfrwt>
<pdfrwt beam="2">  1       -2 0.16063571E+00 0.29654597E+04</pdfrwt>
<totfact> 0.12479668E+00</totfact>
</mgrwt>
</event>
<event>
 4    1  0.1321115E-008  0.2528757E+04  0.7816531E-02  0.8392812E-01
         -1   -1    0    0    0  501 -0.00000000000E+00  0.00000000000E+00  0.11309686190E+04  0.11309686190E+04  0.00000000000E+00 0. -1.
          1   -1    0    0  501    0  0.00000000000E+00 -0.00000000000E+00 -0.14135252937E+04  0.14135252937E+04  0.00000000000E+00 0.  1.
    2000013    1    1    2    0    0  0.49332595371E+03  0.23161188599E+03 -0.77698387005E+03  0.13428397137E+04  0.95000000000E+03 0.  0.
   -2000013    1    1    2    0    0 -0.49332595371E+03 -0.23161188599E+03  0.49442719534E+03  0.12016541989E+04  0.95000000000E+03 0.  0.
<mgrwt>
<rscale>  0 0.25287568E+04</rscale>
<asrwt>0</asrwt>
<pdfrwt beam="2">  1        1 0.21746543E+00 0.25287568E+04</pdfrwt>
<pdfrwt beam="1">  1       -1 0.17399517E+00 0.25287568E+04</pdfrwt>
<totfact> 0.15323998E+00</totfact>
</mgrwt>
</event>
<event>
 4    1  0.1321115E-008  0.2668715E+04  0.7816531E-02  0.8345228E-01
          2   -1    0    0  501    0  0.00000000000E+00  0.00000000000E+00  0.24866853766E+04  0.24866853766E+04  0.00000000000E+00 0.  1.
         -2   -1    0    0    0  501 -0.00000000000E+00 -0.00000000000E+00 -0.71601721802E+03  0.71601721802E+03  0.00000000000E+00 0. -1.
    2000013    1    1    2    0    0  0.80787326499E+03  0.47304349061E+03  0.83762851935E+03  0.15749764737E+04  0.95000000000E+03 0.  0.
   -2000013    1    1    2    0    0 -0.80787326499E+03 -0.47304349061E+03  0.93303963921E+03  0.16277261209E+04  0.95000000000E+03 0.  0.
<mgrwt>
<rscale>  0 0.26687147E+04</rscale>
<asrwt>0</asrwt>
<pdfrwt beam="1">  1        2 0.38256698E+00 0.26687147E+04</pdfrwt>
<pdfrwt beam="2">  1       -2 0.11015650E+00 0.26687147E+04</pdfrwt>
<totfact> 0.20402253E+00</totfact>
</mgrwt>
</event>
<event>
 4    1  0.1321115E-008  0.2027615E+04  0.7816531E-02  0.8593818E-01
          2   -1    0    0  501    0  0.00000000000E+00  0.00000000000E+00  0.14266081062E+04  0.14266081062E+04  0.00000000000E+00 0.  1.
         -2   -1    0    0    0  501 -0.00000000000E+00 -0.00000000000E+00 -0.72045399959E+03  0.72045399959E+03  0.00000000000E+00 0. -1.
    2000013    1    1    2    0    0 -0.76278264412E+02 -0.27434850604E+03  0.57575063907E+03  0.11467668790E+04  0.95000000000E+03 0.  0.
   -2000013    1    1    2    0    0  0.76278264412E+02  0.27434850604E+03  0.13040346755E+03  0.10002952268E+04  0.95000000000E+03 0.  0.
<mgrwt>
<rscale>  0 0.20276149E+04</rscale>
<asrwt>0</asrwt>
<pdfrwt beam="1">  1        2 0.21947817E+00 0.20276149E+04</pdfrwt>
<pdfrwt beam="2">  1       -2 0.11083908E+00 0.20276149E+04</pdfrwt>
<totfact> 0.83557887E+00</totfact>
</mgrwt>
</event>
<event>
 4    1  0.1321115E-008  0.2010851E+04  0.7816531E-02  0.8601564E-01
          2   -1    0    0  501    0  0.00000000000E+00  0.00000000000E+00  0.13713436867E+04  0.13713436867E+04  0.00000000000E+00 0.  1.
         -2   -1    0    0    0  501 -0.00000000000E+00 -0.00000000000E+00 -0.73714609508E+03  0.73714609508E+03  0.00000000000E+00 0. -1.
    2000013    1    1    2    0    0  0.11162382268E+03  0.29968836853E+03  0.23515264629E+03  0.10295968935E+04  0.95000000000E+03 0.  0.
   -2000013    1    1    2    0    0 -0.11162382268E+03 -0.29968836853E+03  0.39904494534E+03  0.10788928883E+04  0.95000000000E+03 0.  0.
<mgrwt>
<rscale>  0 0.20108512E+04</rscale>
<asrwt>0</asrwt>
<pdfrwt beam="1">  1        2 0.21097595E+00 0.20108512E+04</pdfrwt>
<pdfrwt beam="2">  1       -2 0.11340709E+00 0.20108512E+04</pdfrwt>
<totfact> 0.85126574E+00</totfact>
</mgrwt>
</event>
<event>
 4    1  0.1321115E-008  0.2753708E+04  0.7816531E-02  0.8317786E-01
         -2   -1    0    0    0  501 -0.00000000000E+00  0.00000000000E+00  0.50819479012E+03  0.50819479012E+03  0.00000000000E+00 0. -1.
          2   -1    0    0  501    0  0.00000000000E+00 -0.00000000000E+00 -0.37303157655E+04  0.37303157655E+04  0.00000000000E+00 0.  1.
    2000013    1    1    2    0    0  0.77045609414E+03  0.61653513758E+03 -0.18260470987E+04  0.22826883658E+04  0.95000000000E+03 0.  0.
   -2000013    1    1    2    0    0 -0.77045609414E+03 -0.61653513758E+03 -0.13960738767E+04  0.19558221898E+04  0.95000000000E+03 0.  0.
<mgrwt>
<rscale>  0 0.27537081E+04</rscale>
<asrwt>0</asrwt>
<pdfrwt beam="2">  1        2 0.57389472E+00 0.27537081E+04</pdfrwt>
<pdfrwt beam="1">  1       -2 0.78183816E-01 0.27537081E+04</pdfrwt>
<totfact> 0.70484187E-01</totfact>
</mgrwt>
</event>
<event>
 4    1  0.1321115E-008  0.2715150E+04  0.7816531E-02  0.8330106E-01
          2   -1    0    0  501    0  0.00000000000E+00  0.00000000000E+00  0.27532465549E+04  0.27532465549E+04  0.00000000000E+00 0.  1.
         -2   -1    0    0    0  501 -0.00000000000E+00 -0.00000000000E+00 -0.66939538135E+03  0.66939538135E+03  0.00000000000E+00 0. -1.
    2000013    1    1    2    0    0 -0.74040027484E+03 -0.61807069030E+03  0.91395065591E+03  0.16334043427E+04  0.95000000000E+03 0.  0.
   -2000013    1    1    2    0    0  0.74040027484E+03  0.61807069030E+03  0.11699005177E+04  0.17892375936E+04  0.95000000000E+03 0.  0.
<mgrwt>
<rscale>  0 0.27151505E+04</rscale>
<asrwt>0</asrwt>
<pdfrwt beam="1">  1        2 0.42357639E+00 0.27151505E+04</pdfrwt>
<pdfrwt beam="2">  1       -2 0.10298391E+00 0.27151505E+04</pdfrwt>
<totfact> 0.16644518E+00</totfact>
</mgrwt>
</event>
<event>
 4    1  0.1321115E-008  0.2349692E+04  0.7816531E-02  0.8458582E-01
         -2   -1    0    0    0  501 -0.00000000000E+00  0.00000000000E+00  0.61347692531E+03  0.61347692531E+03  0.00000000000E+00 0. -1.
          2   -1    0    0  501    0  0.00000000000E+00 -0.00000000000E+00 -0.22499025464E+04  0.22499025464E+04  0.00000000000E+00 0.  1.
    2000013    1    1    2    0    0 -0.59132043409E+03 -0.15793668961E+03 -0.42681135596E+03  0.12080032232E+04  0.95000000000E+03 0.  0.
   -2000013    1    1    2    0    0  0.59132043409E+03  0.15793668961E+03 -0.12096142652E+04  0.16553762485E+04  0.95000000000E+03 0.  0.
<mgrwt>
<rscale>  0 0.23496921E+04</rscale>
<asrwt>0</asrwt>
<pdfrwt beam="2">  1        2 0.34613886E+00 0.23496921E+04</pdfrwt>
<pdfrwt beam="1">  1       -2 0.94381064E-01 0.23496921E+04</pdfrwt>
<totfact> 0.41350158E+00</totfact>
</mgrwt>
</event>
<event>
 4    1  0.1321115E-008  0.2065692E+04  0.7816531E-02  0.8576509E-01
          2   -1    0    0  501    0  0.00000000000E+00  0.00000000000E+00  0.24160361189E+04  0.24160361189E+04  0.00000000000E+00 0.  1.
         -2   -1    0    0    0  501 -0.00000000000E+00 -0.00000000000E+00 -0.44153773955E+03  0.44153773955E+03  0.00000000000E+00 0. -1.
    2000013    1    1    2    0    0  0.85191786111E+02 -0.37619900255E+03  0.81509140654E+03  0.13098310315E+04  0.95000000000E+03 0.  0.
   -2000013    1    1    2    0    0 -0.85191786111E+02  0.37619900255E+03  0.11594069728E+04  0.15477428270E+04  0.95000000000E+03 0.  0.
<mgrwt>
<rscale>  0 0.20656923E+04</rscale>
<asrwt>0</asrwt>
<pdfrwt beam="1">  1        2 0.37169786E+00 0.20656923E+04</pdfrwt>
<pdfrwt beam="2">  1       -2 0.67928884E-01 0.20656923E+04</pdfrwt>
<totfact> 0.71401564E+00</totfact>
</mgrwt>
</event>
<event>
 4    1  0.1321115E-008  0.2742594E+04  0.7816531E-02  0.8321316E-01
          2   -1    0    0  501    0  0.00000000000E+00  0.00000000000E+00  0.33024921981E+04  0.33024921981E+04  0.00000000000E+00 0. -1.
         -2   -1    0    0    0  501 -0.00000000000E+00 -0.00000000000E+00 -0.56940489037E+03  0.56940489037E+03  0.00000000000E+00 0.  1.
    2000013    1    1    2    0    0  0.68933443766E+03  0.28542265220E+03  0.22828943804E+04  0.25827804416E+04  0.95000000000E+03 0.  0.
   -2000013    1    1    2    0    0 -0.68933443766E+03 -0.28542265220E+03  0.45019292724E+03  0.12891166468E+04  0.95000000000E+03 0.  0.
<mgrwt>
<rscale>  0 0.27425938E+04</rscale>
<asrwt>0</asrwt>
<pdfrwt beam="1">  1        2 0.50807571E+00 0.27425938E+04</pdfrwt>
<pdfrwt beam="2">  1       -2 0.87600754E-01 0.27425938E+04</pdfrwt>
<totfact> 0.10907742E+00</totfact>
</mgrwt>
</event>
<event>
 4    1  0.1321115E-008  0.2670324E+04  0.7816531E-02  0.8344698E-01
         -2   -1    0    0    0  501 -0.00000000000E+00  0.00000000000E+00  0.53672958643E+03  0.53672958643E+03  0.00000000000E+00 0. -1.
          2   -1    0    0  501    0  0.00000000000E+00 -0.00000000000E+00 -0.33213333896E+04  0.33213333896E+04  0.00000000000E+00 0.  1.
    2000013    1    1    2    0    0 -0.21795241665E+03 -0.74755198078E+03 -0.21483308637E+04  0.24747045722E+04  0.95000000000E+03 0.  0.
   -2000013    1    1    2    0    0  0.21795241665E+03  0.74755198078E+03 -0.63627293951E+03  0.13833584038E+04  0.95000000000E+03 0.  0.
<mgrwt>
<rscale>  0 0.26703242E+04</rscale>
<asrwt>0</asrwt>
<pdfrwt beam="2">  1        2 0.51097436E+00 0.26703242E+04</pdfrwt>
<pdfrwt beam="1">  1       -2 0.82573784E-01 0.26703242E+04</pdfrwt>
<totfact> 0.12198686E+00</totfact>
</mgrwt>
</event>
<event>
 4    1  0.1321115E-008  0.2644762E+04  0.7816531E-02  0.8353154E-01
          2   -1    0    0  501    0  0.00000000000E+00  0.00000000000E+00  0.21434265231E+04  0.21434265231E+04  0.00000000000E+00 0.  1.
         -2   -1    0    0    0  501 -0.00000000000E+00 -0.00000000000E+00 -0.81583896453E+03  0.81583896453E+03  0.00000000000E+00 0. -1.
    2000013    1    1    2    0    0  0.65200461037E+02 -0.90837632614E+03  0.80878828172E+03  0.15446802694E+04  0.95000000000E+03 0.  0.
   -2000013    1    1    2    0    0 -0.65200461037E+02  0.90837632614E+03  0.51879927688E+03  0.14145852183E+04  0.95000000000E+03 0.  0.
<mgrwt>
<rscale>  0 0.26447615E+04</rscale>
<asrwt>0</asrwt>
<pdfrwt beam="1">  1        2 0.32975792E+00 0.26447615E+04</pdfrwt>
<pdfrwt beam="2">  1       -2 0.12551369E+00 0.26447615E+04</pdfrwt>
<totfact> 0.23235421E+00</totfact>
</mgrwt>
</event>
<event>
 4    1  0.1321115E-008  0.2161291E+04  0.7816531E-02  0.8534715E-01
         -2   -1    0    0    0  501 -0.00000000000E+00  0.00000000000E+00  0.70614820686E+03  0.70614820686E+03  0.00000000000E+00 0. -1.
          2   -1    0    0  501    0  0.00000000000E+00 -0.00000000000E+00 -0.16537526004E+04  0.16537526004E+04  0.00000000000E+00 0.  1.
    2000013    1    1    2    0    0 -0.40377112315E+03  0.17524576015E+03 -0.18172869281E+03  0.10626699931E+04  0.95000000000E+03 0.  0.
   -2000013    1    1    2    0    0  0.40377112315E+03 -0.17524576015E+03 -0.76587570070E+03  0.12972308142E+04  0.95000000000E+03 0.  0.
<mgrwt>
<rscale>  0 0.21612908E+04</rscale>
<asrwt>0</asrwt>
<pdfrwt beam="2">  1        2 0.25442347E+00 0.21612908E+04</pdfrwt>
<pdfrwt beam="1">  1       -2 0.10863819E+00 0.21612908E+04</pdfrwt>
<totfact> 0.64619921E+00</totfact>
</mgrwt>
</event>
<event>
 4    1  0.1321115E-008  0.3013470E+04  0.7816531E-02  0.8239895E-01
         -2   -1    0    0    0  501 -0.00000000000E+00  0.00000000000E+00  0.79436688244E+03  0.79436688244E+03  0.00000000000E+00 0. -1.
          2   -1    0    0  501    0  0.00000000000E+00 -0.00000000000E+00 -0.28579371208E+04  0.28579371208E+04  0.00000000000E+00 0.  1.
    2000013    1    1    2    0    0 -0.81220194560E+03  0.55477236550E+02 -0.20494267200E+04  0.24011246542E+04  0.95000000000E+03 0.  0.
   -2000013    1    1    2    0    0  0.81220194560E+03 -0.55477236550E+02 -0.14143518263E+02  0.12511793490E+04  0.95000000000E+03 0.  0.
<mgrwt>
<rscale>  0 0.30134702E+04</rscale>
<asrwt>0</asrwt>
<pdfrwt beam="2">  1        2 0.43968264E+00 0.30134702E+04</pdfrwt>
<pdfrwt beam="1">  1       -2 0.12221029E+00 0.30134702E+04</pdfrwt>
<totfact> 0.92454242E-01</totfact>
</mgrwt>
</event>
<event>
 4    1  0.1321115E-008  0.3296111E+04  0.7816531E-02  0.8163886E-01
         -2   -1    0    0    0  501 -0.00000000000E+00  0.00000000000E+00  0.12330763322E+04  0.12330763322E+04  0.00000000000E+00 0. -1.
          2   -1    0    0  501    0  0.00000000000E+00 -0.00000000000E+00 -0.22026917607E+04  0.22026917607E+04  0.00000000000E+00 0.  1.
    2000013    1    1    2    0    0  0.10856545706E+04 -0.70639797793E+03 -0.10048094920E+03  0.16094223718E+04  0.95000000000E+03 0.  0.
   -2000013    1    1    2    0    0 -0.10856545706E+04  0.70639797793E+03 -0.86913447928E+03  0.18263457211E+04  0.95000000000E+03 0.  0.
<mgrwt>
<rscale>  0 0.32961111E+04</rscale>
<asrwt>0</asrwt>
<pdfrwt beam="2">  1        2 0.33887565E+00 0.32961111E+04</pdfrwt>
<pdfrwt beam="1">  1       -2 0.18970405E+00 0.32961111E+04</pdfrwt>
<totfact> 0.66944408E-01</totfact>
</mgrwt>
</event>
<event>
 4    1  0.1321115E-008  0.2254864E+04  0.7816531E-02  0.8495933E-01
          2   -1    0    0  501    0  0.00000000000E+00  0.00000000000E+00  0.11848031534E+04  0.11848031534E+04  0.00000000000E+00 0.  1.
         -2   -1    0    0    0  501 -0.00000000000E+00 -0.00000000000E+00 -0.10728386560E+04  0.10728386560E+04  0.00000000000E+00 0. -1.
    2000013    1    1    2    0    0  0.55500628573E+03  0.16473065406E+03  0.23905844219E+03  0.11379003051E+04  0.95000000000E+03 0.  0.
   -2000013    1    1    2    0    0 -0.55500628573E+03 -0.16473065406E+03 -0.12709394474E+03  0.11197415043E+04  0.95000000000E+03 0.  0.
<mgrwt>
<rscale>  0 0.22548637E+04</rscale>
<asrwt>0</asrwt>
<pdfrwt beam="1">  1        2 0.18227741E+00 0.22548637E+04</pdfrwt>
<pdfrwt beam="2">  1       -2 0.16505210E+00 0.22548637E+04</pdfrwt>
<totfact> 0.40714968E+00</totfact>
</mgrwt>
</event>
<event>
 4    1  0.1321115E-008  0.2456542E+04  0.7816531E-02  0.8418633E-01
          2   -1    0    0  501    0  0.00000000000E+00  0.00000000000E+00  0.89068584413E+03  0.89068584413E+03  0.00000000000E+00 0.  1.
         -2   -1    0    0    0  501 -0.00000000000E+00 -0.00000000000E+00 -0.16938061352E+04  0.16938061352E+04  0.00000000000E+00 0. -1.
    2000013    1    1    2    0    0 -0.45239154832E+03  0.61830716257E+03 -0.25582716280E+03  0.12469600625E+04  0.95000000000E+03 0.  0.
   -2000013    1    1    2    0    0  0.45239154832E+03 -0.61830716257E+03 -0.54729312830E+03  0.13375319168E+04  0.95000000000E+03 0.  0.
<mgrwt>
<rscale>  0 0.24565416E+04</rscale>
<asrwt>0</asrwt>
<pdfrwt beam="1">  1        2 0.13702859E+00 0.24565416E+04</pdfrwt>
<pdfrwt beam="2">  1       -2 0.26058556E+00 0.24565416E+04</pdfrwt>
<totfact> 0.14734321E+00</totfact>
</mgrwt>
</event>
<event>
 4    1  0.1321115E-008  0.3073022E+04  0.7816531E-02  0.8223181E-01
          2   -1    0    0  501    0  0.00000000000E+00  0.00000000000E+00  0.33427201233E+04  0.33427201233E+04  0.00000000000E+00 0.  1.
         -2   -1    0    0    0  501 -0.00000000000E+00 -0.00000000000E+00 -0.70627093641E+03  0.70627093641E+03  0.00000000000E+00 0. -1.
    2000013    1    1    2    0    0  0.87815429592E+03  0.46716814913E+03  0.22205254588E+04  0.26120172970E+04  0.95000000000E+03 0.  0.
   -2000013    1    1    2    0    0 -0.87815429592E+03 -0.46716814913E+03  0.41592372813E+03  0.14369737627E+04  0.95000000000E+03 0.  0.
<mgrwt>
<rscale>  0 0.30730220E+04</rscale>
<asrwt>0</asrwt>
<pdfrwt beam="1">  1        2 0.51426463E+00 0.30730220E+04</pdfrwt>
<pdfrwt beam="2">  1       -2 0.10865707E+00 0.30730220E+04</pdfrwt>
<totfact> 0.59998163E-01</totfact>
</mgrwt>
</event>
<event>
 4    1  0.1321115E-008  0.2828275E+04  0.7816531E-02  0.8294543E-01
         -2   -1    0    0    0  501 -0.00000000000E+00  0.00000000000E+00  0.13069652310E+04  0.13069652310E+04  0.00000000000E+00 0. -1.
          2   -1    0    0  501    0  0.00000000000E+00 -0.00000000000E+00 -0.15300982985E+04  0.15300982985E+04  0.00000000000E+00 0.  1.
    2000013    1    1    2    0    0 -0.10263913705E+04 -0.58339419618E+02 -0.31319494676E+03  0.14343896988E+04  0.95000000000E+03 0.  0.
   -2000013    1    1    2    0    0  0.10263913705E+04  0.58339419618E+02  0.90061879233E+02  0.14026738308E+04  0.95000000000E+03 0.  0.
<mgrwt>
<rscale>  0 0.28282753E+04</rscale>
<asrwt>0</asrwt>
<pdfrwt beam="2">  1        2 0.23539974E+00 0.28282753E+04</pdfrwt>
<pdfrwt beam="1">  1       -2 0.20107157E+00 0.28282753E+04</pdfrwt>
<totfact> 0.13869595E+00</totfact>
</mgrwt>
</event>
<event>
 4    1  0.1321115E-008  0.2668731E+04  0.7816531E-02  0.8345223E-01
          2   -1    0    0  501    0  0.00000000000E+00  0.00000000000E+00  0.15261771410E+04  0.15261771410E+04  0.00000000000E+00 0.  1.
         -2   -1    0    0    0  501 -0.00000000000E+00 -0.00000000000E+00 -0.11666606442E+04  0.11666606442E+04  0.00000000000E+00 0. -1.
    2000013    1    1    2    0    0 -0.20801657519E+03 -0.88585446263E+03  0.40543406913E+03  0.13765485131E+04  0.95000000000E+03 0.  0.
   -2000013    1    1    2    0    0  0.20801657519E+03  0.88585446263E+03 -0.45917572308E+02  0.13162892721E+04  0.95000000000E+03 0.  0.
<mgrwt>
<rscale>  0 0.26687306E+04</rscale>
<asrwt>0</asrwt>
<pdfrwt beam="1">  1        2 0.23479648E+00 0.26687306E+04</pdfrwt>
<pdfrwt beam="2">  1       -2 0.17948625E+00 0.26687306E+04</pdfrwt>
<totfact> 0.19731619E+00</totfact>
</mgrwt>
</event>
<event>
 4    1  0.1321115E-008  0.3692018E+04  0.7816531E-02  0.8069733E-01
          2   -1    0    0  501    0  0.00000000000E+00  0.00000000000E+00  0.19964697200E+04  0.19964697200E+04  0.00000000000E+00 0.  1.
         -2   -1    0    0    0  501 -0.00000000000E+00 -0.00000000000E+00 -0.17068874256E+04  0.17068874256E+04  0.00000000000E+00 0. -1.
    2000013    1    1    2    0    0 -0.43311924418E+03 -0.15223644254E+04  0.15277407136E+03  0.18523027939E+04  0.95000000000E+03 0.  0.
   -2000013    1    1    2    0    0  0.43311924418E+03  0.15223644254E+04  0.13680822306E+03  0.18510543518E+04  0.95000000000E+03 0.  0.
<mgrwt>
<rscale>  0 0.36920179E+04</rscale>
<asrwt>0</asrwt>
<pdfrwt beam="1">  1        2 0.30714919E+00 0.36920179E+04</pdfrwt>
<pdfrwt beam="2">  1       -2 0.26259806E+00 0.36920179E+04</pdfrwt>
<totfact> 0.29204005E-01</totfact>
</mgrwt>
</event>
<event>
 4    1  0.1321115E-008  0.2670593E+04  0.7816531E-02  0.8344610E-01
         -2   -1    0    0    0  501 -0.00000000000E+00  0.00000000000E+00  0.13878853061E+04  0.13878853061E+04  0.00000000000E+00 0. -1.
          2   -1    0    0  501    0  0.00000000000E+00 -0.00000000000E+00 -0.12847002283E+04  0.12847002283E+04  0.00000000000E+00 0.  1.
    2000013    1    1    2    0    0 -0.85118127046E+03 -0.36795768338E+03  0.19527598142E+03  0.13418401995E+04  0.95000000000E+03 0.  0.
   -2000013    1    1    2    0    0  0.85118127046E+03  0.36795768338E+03 -0.92090903626E+02  0.13307453349E+04  0.95000000000E+03 0.  0.
<mgrwt>
<rscale>  0 0.26705929E+04</rscale>
<asrwt>0</asrwt>
<pdfrwt beam="2">  1        2 0.19764619E+00 0.26705929E+04</pdfrwt>
<pdfrwt beam="1">  1       -2 0.21352082E+00 0.26705929E+04</pdfrwt>
<totfact> 0.16131404E+00</totfact>
</mgrwt>
</event>
<event>
 4    1  0.1321115E-008  0.2503145E+04  0.7816531E-02  0.8401866E-01
         -1   -1    0    0    0  501 -0.00000000000E+00  0.00000000000E+00  0.53540059267E+03  0.53540059267E+03  0.00000000000E+00 0. -1.
          1   -1    0    0  501    0  0.00000000000E+00 -0.00000000000E+00 -0.29257236575E+04  0.29257236575E+04  0.00000000000E+00 0.  1.
    2000013    1    1    2    0    0 -0.57368070201E+03 -0.21023993409E+03 -0.44974896698E+03  0.12157649901E+04  0.95000000000E+03 0.  0.
   -2000013    1    1    2    0    0  0.57368070201E+03  0.21023993409E+03 -0.19405740978E+04  0.22453592601E+04  0.95000000000E+03 0.  0.
<mgrwt>
<rscale>  0 0.25031454E+04</rscale>
<asrwt>0</asrwt>
<pdfrwt beam="2">  1        1 0.45011134E+00 0.25031454E+04</pdfrwt>
<pdfrwt beam="1">  1       -1 0.82369321E-01 0.25031454E+04</pdfrwt>
<totfact> 0.88085567E-01</totfact>
</mgrwt>
</event>
<event>
 4    1  0.1321115E-008  0.4440450E+04  0.7816531E-02  0.7921146E-01
         -2   -1    0    0    0  501 -0.00000000000E+00  0.00000000000E+00  0.10507206440E+04  0.10507206440E+04  0.00000000000E+00 0. -1.
          2   -1    0    0  501    0  0.00000000000E+00 -0.00000000000E+00 -0.46914450182E+04  0.46914450182E+04  0.00000000000E+00 0.  1.
    2000013    1    1    2    0    0  0.97098833875E+03 -0.15759360784E+04 -0.81827114526E+03  0.22357237183E+04  0.95000000000E+03 0.  0.
   -2000013    1    1    2    0    0 -0.97098833875E+03  0.15759360784E+04 -0.28224532289E+04  0.35064419440E+04  0.95000000000E+03 0.  0.
<mgrwt>
<rscale>  0 0.44404496E+04</rscale>
<asrwt>0</asrwt>
<pdfrwt beam="2">  1        2 0.72176078E+00 0.44404496E+04</pdfrwt>
<pdfrwt beam="1">  1       -2 0.16164933E+00 0.44404496E+04</pdfrwt>
<totfact> 0.14462397E-02</totfact>
</mgrwt>
</event>
<event>
 4    1  0.1321115E-008  0.2616208E+04  0.7816531E-02  0.8362716E-01
         -1   -1    0    0    0  501 -0.00000000000E+00  0.00000000000E+00  0.72728554610E+03  0.72728554610E+03  0.00000000000E+00 0. -1.
          1   -1    0    0  501    0  0.00000000000E+00 -0.00000000000E+00 -0.23527713394E+04  0.23527713394E+04  0.00000000000E+00 0.  1.
    2000013    1    1    2    0    0  0.18982604912E+02  0.89514832141E+03 -0.71434351742E+03  0.14880986249E+04  0.95000000000E+03 0.  0.
   -2000013    1    1    2    0    0 -0.18982604912E+02 -0.89514832141E+03 -0.91114227592E+03  0.15919582606E+04  0.95000000000E+03 0.  0.
<mgrwt>
<rscale>  0 0.26162084E+04</rscale>
<asrwt>0</asrwt>
<pdfrwt beam="2">  1        1 0.36196482E+00 0.26162084E+04</pdfrwt>
<pdfrwt beam="1">  1       -1 0.11189008E+00 0.26162084E+04</pdfrwt>
<totfact> 0.11033145E+00</totfact>
</mgrwt>
</event>
<event>
 4    1  0.1321115E-008  0.2904855E+04  0.7816531E-02  0.8271434E-01
         -2   -1    0    0    0  501 -0.00000000000E+00  0.00000000000E+00  0.19908425028E+04  0.19908425028E+04  0.00000000000E+00 0.  1.
          2   -1    0    0  501    0  0.00000000000E+00 -0.00000000000E+00 -0.10596244683E+04  0.10596244683E+04  0.00000000000E+00 0. -1.
    2000013    1    1    2    0    0 -0.48949231321E+03  0.27467666439E+03 -0.52618893176E+03  0.12224666812E+04  0.95000000000E+03 0.  0.
   -2000013    1    1    2    0    0  0.48949231321E+03 -0.27467666439E+03  0.14574069662E+04  0.18280002899E+04  0.95000000000E+03 0.  0.
<mgrwt>
<rscale>  0 0.29048549E+04</rscale>
<asrwt>0</asrwt>
<pdfrwt beam="2">  1        2 0.16301915E+00 0.29048549E+04</pdfrwt>
<pdfrwt beam="1">  1       -2 0.30628346E+00 0.29048549E+04</pdfrwt>
<totfact> 0.57921416E-01</totfact>
</mgrwt>
</event>
<event>
 4    1  0.1321115E-008  0.2149668E+04  0.7816531E-02  0.8539674E-01
          2   -1    0    0  501    0  0.00000000000E+00  0.00000000000E+00  0.12503417588E+04  0.12503417588E+04  0.00000000000E+00 0.  1.
         -2   -1    0    0    0  501 -0.00000000000E+00 -0.00000000000E+00 -0.92396214170E+03  0.92396214170E+03  0.00000000000E+00 0. -1.
    2000013    1    1    2    0    0  0.48318774043E+03  0.18654510322E+02  0.23952969053E+02  0.10662514375E+04  0.95000000000E+03 0.  0.
   -2000013    1    1    2    0    0 -0.48318774043E+03 -0.18654510322E+02  0.30242664803E+03  0.11080524630E+04  0.95000000000E+03 0.  0.
<mgrwt>
<rscale>  0 0.21496683E+04</rscale>
<asrwt>0</asrwt>
<pdfrwt beam="1">  1        2 0.19236027E+00 0.21496683E+04</pdfrwt>
<pdfrwt beam="2">  1       -2 0.14214802E+00 0.21496683E+04</pdfrwt>
<totfact> 0.56018767E+00</totfact>
</mgrwt>
</event>
<event>
 4    1  0.1321115E-008  0.2596416E+04  0.7816531E-02  0.8369420E-01
         -2   -1    0    0    0  501 -0.00000000000E+00  0.00000000000E+00  0.80987423366E+03  0.80987423366E+03  0.00000000000E+00 0. -1.
          2   -1    0    0  501    0  0.00000000000E+00 -0.00000000000E+00 -0.20809951378E+04  0.20809951378E+04  0.00000000000E+00 0.  1.
    2000013    1    1    2    0    0  0.71250644272E+03  0.13032409217E+03 -0.69806394190E+02  0.11966715224E+04  0.95000000000E+03 0.  0.
   -2000013    1    1    2    0    0 -0.71250644272E+03 -0.13032409217E+03 -0.12013145100E+04  0.16941978491E+04  0.95000000000E+03 0.  0.
<mgrwt>
<rscale>  0 0.25964163E+04</rscale>
<asrwt>0</asrwt>
<pdfrwt beam="2">  1        2 0.32015309E+00 0.25964163E+04</pdfrwt>
<pdfrwt beam="1">  1       -2 0.12459604E+00 0.25964163E+04</pdfrwt>
<totfact> 0.25753854E+00</totfact>
</mgrwt>
</event>
<event>
 4    1  0.1321115E-008  0.3000271E+04  0.7816531E-02  0.8243653E-01
          1   -1    0    0  501    0  0.00000000000E+00  0.00000000000E+00  0.21655929773E+04  0.21655929773E+04  0.00000000000E+00 0. -1.
         -1   -1    0    0    0  501 -0.00000000000E+00 -0.00000000000E+00 -0.10391642312E+04  0.10391642312E+04  0.00000000000E+00 0.  1.
    2000013    1    1    2    0    0 -0.28150632594E+03 -0.11138935211E+04  0.38479022038E+03  0.15396649316E+04  0.95000000000E+03 0.  0.
   -2000013    1    1    2    0    0  0.28150632594E+03  0.11138935211E+04  0.74163852570E+03  0.16650922769E+04  0.95000000000E+03 0.  0.
<mgrwt>
<rscale>  0 0.30002712E+04</rscale>
<asrwt>0</asrwt>
<pdfrwt beam="1">  1        1 0.33316815E+00 0.30002712E+04</pdfrwt>
<pdfrwt beam="2">  1       -1 0.15987142E+00 0.30002712E+04</pdfrwt>
<totfact> 0.57310795E-01</totfact>
</mgrwt>
</event>
<event>
 4    1  0.1321115E-008  0.3403197E+04  0.7816531E-02  0.8137122E-01
         -2   -1    0    0    0  501 -0.00000000000E+00  0.00000000000E+00  0.11074613634E+04  0.11074613634E+04  0.00000000000E+00 0.  1.
          2   -1    0    0  501    0  0.00000000000E+00 -0.00000000000E+00 -0.26144812898E+04  0.26144812898E+04  0.00000000000E+00 0. -1.
    2000013    1    1    2    0    0  0.88525997806E+03 -0.75498868741E+03 -0.16279215538E+04  0.22150218356E+04  0.95000000000E+03 0.  0.
   -2000013    1    1    2    0    0 -0.88525997806E+03  0.75498868741E+03  0.12090162738E+03  0.15069208175E+04  0.95000000000E+03 0.  0.
<mgrwt>
<rscale>  0 0.34031967E+04</rscale>
<asrwt>0</asrwt>
<pdfrwt beam="2">  1        2 0.40222788E+00 0.34031967E+04</pdfrwt>
<pdfrwt beam="1">  1       -2 0.17037867E+00 0.34031967E+04</pdfrwt>
<totfact> 0.52337564E-01</totfact>
</mgrwt>
</event>
<event>
 4    1  0.1321115E-008  0.3258127E+04  0.7816531E-02  0.8173633E-01
          2   -1    0    0  501    0  0.00000000000E+00  0.00000000000E+00  0.31891100594E+04  0.31891100594E+04  0.00000000000E+00 0.  1.
         -2   -1    0    0    0  501 -0.00000000000E+00 -0.00000000000E+00 -0.83215915877E+03  0.83215915877E+03  0.00000000000E+00 0. -1.
    2000013    1    1    2    0    0 -0.10654463943E+04  0.78375508045E+03  0.12322614190E+04  0.20421597024E+04  0.95000000000E+03 0.  0.
   -2000013    1    1    2    0    0  0.10654463943E+04 -0.78375508045E+03  0.11246894816E+04  0.19791095158E+04  0.95000000000E+03 0.  0.
<mgrwt>
<rscale>  0 0.32581265E+04</rscale>
<asrwt>0</asrwt>
<pdfrwt beam="1">  1        2 0.49063231E+00 0.32581265E+04</pdfrwt>
<pdfrwt beam="2">  1       -2 0.12802449E+00 0.32581265E+04</pdfrwt>
<totfact> 0.49823428E-01</totfact>
</mgrwt>
</event>
<event>
 4    1  0.1321115E-008  0.2326816E+04  0.7816531E-02  0.8467422E-01
         -2   -1    0    0    0  501 -0.00000000000E+00  0.00000000000E+00  0.14018564728E+04  0.14018564728E+04  0.00000000000E+00 0. -1.
          2   -1    0    0  501    0  0.00000000000E+00 -0.00000000000E+00 -0.96551825057E+03  0.96551825057E+03  0.00000000000E+00 0.  1.
    2000013    1    1    2    0    0 -0.15604863021E+03  0.64711746496E+03  0.30863367066E+03  0.12003611669E+04  0.95000000000E+03 0.  0.
   -2000013    1    1    2    0    0  0.15604863021E+03 -0.64711746496E+03  0.12770455159E+03  0.11670135565E+04  0.95000000000E+03 0.  0.
<mgrwt>
<rscale>  0 0.23268159E+04</rscale>
<asrwt>0</asrwt>
<pdfrwt beam="2">  1        2 0.14854127E+00 0.23268159E+04</pdfrwt>
<pdfrwt beam="1">  1       -2 0.21567023E+00 0.23268159E+04</pdfrwt>
<totfact> 0.25257994E+00</totfact>
</mgrwt>
</event>
<event>
 4    1  0.1321115E-008  0.2185807E+04  0.7816531E-02  0.8524359E-01
          2   -1    0    0  501    0  0.00000000000E+00  0.00000000000E+00  0.13187738543E+04  0.13187738543E+04  0.00000000000E+00 0.  1.
         -2   -1    0    0    0  501 -0.00000000000E+00 -0.00000000000E+00 -0.90571891243E+03  0.90571891243E+03  0.00000000000E+00 0. -1.
    2000013    1    1    2    0    0 -0.16069228678E+03 -0.51219641266E+03  0.26902480436E+03  0.11238512008E+04  0.95000000000E+03 0.  0.
   -2000013    1    1    2    0    0  0.16069228678E+03  0.51219641266E+03  0.14403013752E+03  0.11006415659E+04  0.95000000000E+03 0.  0.
<mgrwt>
<rscale>  0 0.21858073E+04</rscale>
<asrwt>0</asrwt>
<pdfrwt beam="1">  1        2 0.20288829E+00 0.21858073E+04</pdfrwt>
<pdfrwt beam="2">  1       -2 0.13934137E+00 0.21858073E+04</pdfrwt>
<totfact> 0.53644233E+00</totfact>
</mgrwt>
</event>
<event>
 4    1  0.1321115E-008  0.2695649E+04  0.7816531E-02  0.8336418E-01
          2   -1    0    0  501    0  0.00000000000E+00  0.00000000000E+00  0.13297524758E+04  0.13297524758E+04  0.00000000000E+00 0.  1.
         -2   -1    0    0    0  501 -0.00000000000E+00 -0.00000000000E+00 -0.13661419786E+04  0.13661419786E+04  0.00000000000E+00 0. -1.
    2000013    1    1    2    0    0 -0.68237598839E+03 -0.40673268889E+03 -0.55027913543E+03  0.13551293653E+04  0.95000000000E+03 0.  0.
   -2000013    1    1    2    0    0  0.68237598839E+03  0.40673268889E+03  0.51388963268E+03  0.13407650892E+04  0.95000000000E+03 0.  0.
<mgrwt>
<rscale>  0 0.26956488E+04</rscale>
<asrwt>0</asrwt>
<pdfrwt beam="1">  1        2 0.20457730E+00 0.26956488E+04</pdfrwt>
<pdfrwt beam="2">  1       -2 0.21017569E+00 0.26956488E+04</pdfrwt>
<totfact> 0.15922927E+00</totfact>
</mgrwt>
</event>
<event>
 4    1  0.1321115E-008  0.2105212E+04  0.7816531E-02  0.8558951E-01
         -2   -1    0    0    0  501 -0.00000000000E+00  0.00000000000E+00  0.67096055508E+03  0.67096055508E+03  0.00000000000E+00 0. -1.
          2   -1    0    0  501    0  0.00000000000E+00 -0.00000000000E+00 -0.16513328472E+04  0.16513328472E+04  0.00000000000E+00 0.  1.
    2000013    1    1    2    0    0 -0.13561165717E+03 -0.41987611255E+03 -0.37558551966E+03  0.11127672506E+04  0.95000000000E+03 0.  0.
   -2000013    1    1    2    0    0  0.13561165717E+03  0.41987611255E+03 -0.60478677249E+03  0.12095261517E+04  0.95000000000E+03 0.  0.
<mgrwt>
<rscale>  0 0.21052118E+04</rscale>
<asrwt>0</asrwt>
<pdfrwt beam="2">  1        2 0.25405121E+00 0.21052118E+04</pdfrwt>
<pdfrwt beam="1">  1       -2 0.10322470E+00 0.21052118E+04</pdfrwt>
<totfact> 0.73641385E+00</totfact>
</mgrwt>
</event>
<event>
 4    1  0.1321115E-008  0.2178151E+04  0.7816531E-02  0.8527578E-01
         -1   -1    0    0    0  501 -0.00000000000E+00  0.00000000000E+00  0.89810937408E+03  0.89810937408E+03  0.00000000000E+00 0.  1.
          1   -1    0    0  501    0  0.00000000000E+00 -0.00000000000E+00 -0.13206467915E+04  0.13206467915E+04  0.00000000000E+00 0. -1.
    2000013    1    1    2    0    0  0.52465921258E+03 -0.28406777915E+02 -0.12298687518E+03  0.10925657902E+04  0.95000000000E+03 0.  0.
   -2000013    1    1    2    0    0 -0.52465921258E+03  0.28406777915E+02 -0.29955054229E+03  0.11261903755E+04  0.95000000000E+03 0.  0.
<mgrwt>
<rscale>  0 0.21781508E+04</rscale>
<asrwt>0</asrwt>
<pdfrwt beam="2">  1        1 0.20317643E+00 0.21781508E+04</pdfrwt>
<pdfrwt beam="1">  1       -1 0.13817067E+00 0.21781508E+04</pdfrwt>
<totfact> 0.34650525E+00</totfact>
</mgrwt>
</event>
<event>
 4    1  0.1321115E-008  0.2448156E+04  0.7816531E-02  0.8421692E-01
         -2   -1    0    0    0  501 -0.00000000000E+00  0.00000000000E+00  0.16248358272E+04  0.16248358272E+04  0.00000000000E+00 0.  1.
          2   -1    0    0  501    0  0.00000000000E+00 -0.00000000000E+00 -0.92216499370E+03  0.92216499370E+03  0.00000000000E+00 0. -1.
    2000013    1    1    2    0    0 -0.67295747879E+03  0.14009784871E+03  0.71675388353E+03  0.13743126664E+04  0.95000000000E+03 0.  0.
   -2000013    1    1    2    0    0  0.67295747879E+03 -0.14009784871E+03 -0.14083050005E+02  0.11726881545E+04  0.95000000000E+03 0.  0.
<mgrwt>
<rscale>  0 0.24481558E+04</rscale>
<asrwt>0</asrwt>
<pdfrwt beam="2">  1        2 0.14187154E+00 0.24481558E+04</pdfrwt>
<pdfrwt beam="1">  1       -2 0.24997474E+00 0.24481558E+04</pdfrwt>
<totfact> 0.16310338E+00</totfact>
</mgrwt>
</event>
<event>
 4    1  0.1321115E-008  0.2106412E+04  0.7816531E-02  0.8558424E-01
         -2   -1    0    0    0  501 -0.00000000000E+00  0.00000000000E+00  0.69411974283E+03  0.69411974283E+03  0.00000000000E+00 0.  1.
          2   -1    0    0  501    0  0.00000000000E+00 -0.00000000000E+00 -0.15980574787E+04  0.15980574787E+04  0.00000000000E+00 0. -1.
    2000013    1    1    2    0    0  0.41478018592E+03 -0.18614968441E+03 -0.44435631887E+03  0.11430865434E+04  0.95000000000E+03 0.  0.
   -2000013    1    1    2    0    0 -0.41478018592E+03  0.18614968441E+03 -0.45958141697E+03  0.11490906781E+04  0.95000000000E+03 0.  0.
<mgrwt>
<rscale>  0 0.21064123E+04</rscale>
<asrwt>0</asrwt>
<pdfrwt beam="2">  1        2 0.24585500E+00 0.21064123E+04</pdfrwt>
<pdfrwt beam="1">  1       -2 0.10678765E+00 0.21064123E+04</pdfrwt>
<totfact> 0.72688432E+00</totfact>
</mgrwt>
</event>
<event>
 4    1  0.1321115E-008  0.2263400E+04  0.7816531E-02  0.8492493E-01
         -2   -1    0    0    0  501 -0.00000000000E+00  0.00000000000E+00  0.12758786420E+04  0.12758786420E+04  0.00000000000E+00 0. -1.
          2   -1    0    0  501    0  0.00000000000E+00 -0.00000000000E+00 -0.10038138579E+04  0.10038138579E+04  0.00000000000E+00 0.  1.
    2000013    1    1    2    0    0 -0.38770406090E+02 -0.42733938512E+03 -0.30773257183E+03  0.10868861165E+04  0.95000000000E+03 0.  0.
   -2000013    1    1    2    0    0  0.38770406090E+02  0.42733938512E+03  0.57979735594E+03  0.11928063835E+04  0.95000000000E+03 0.  0.
<mgrwt>
<rscale>  0 0.22633998E+04</rscale>
<asrwt>0</asrwt>
<pdfrwt beam="2">  1        2 0.15443290E+00 0.22633998E+04</pdfrwt>
<pdfrwt beam="1">  1       -2 0.19628902E+00 0.22633998E+04</pdfrwt>
<totfact> 0.32041837E+00</totfact>
</mgrwt>
</event>
<event>
 4    1  0.1321115E-008  0.2216373E+04  0.7816531E-02  0.8511644E-01
         -1   -1    0    0    0  501 -0.00000000000E+00  0.00000000000E+00  0.63423453595E+03  0.63423453595E+03  0.00000000000E+00 0.  1.
          1   -1    0    0  501    0  0.00000000000E+00 -0.00000000000E+00 -0.19363134550E+04  0.19363134550E+04  0.00000000000E+00 0. -1.
    2000013    1    1    2    0    0 -0.46514440796E+03  0.29505912004E+03 -0.82368084102E+03  0.13727233270E+04  0.95000000000E+03 0.  0.
   -2000013    1    1    2    0    0  0.46514440796E+03 -0.29505912004E+03 -0.47839807805E+03  0.11978246640E+04  0.95000000000E+03 0.  0.
<mgrwt>
<rscale>  0 0.22163726E+04</rscale>
<asrwt>0</asrwt>
<pdfrwt beam="2">  1        1 0.29789437E+00 0.22163726E+04</pdfrwt>
<pdfrwt beam="1">  1       -1 0.97574545E-01 0.22163726E+04</pdfrwt>
<totfact> 0.30204190E+00</totfact>
</mgrwt>
</event>
<event>
 4    1  0.1321115E-008  0.3032044E+04  0.7816531E-02  0.8234639E-01
         -2   -1    0    0    0  501 -0.00000000000E+00  0.00000000000E+00  0.82029368999E+03  0.82029368999E+03  0.00000000000E+00 0. -1.
          2   -1    0    0  501    0  0.00000000000E+00 -0.00000000000E+00 -0.28018287151E+04  0.28018287151E+04  0.00000000000E+00 0.  1.
    2000013    1    1    2    0    0 -0.55049367743E+03 -0.32330607504E+03  0.19680891705E+03  0.11613801517E+04  0.95000000000E+03 0.  0.
   -2000013    1    1    2    0    0  0.55049367743E+03  0.32330607504E+03 -0.21783439422E+04  0.24607422534E+04  0.95000000000E+03 0.  0.
<mgrwt>
<rscale>  0 0.30320438E+04</rscale>
<asrwt>0</asrwt>
<pdfrwt beam="2">  1        2 0.43105058E+00 0.30320438E+04</pdfrwt>
<pdfrwt beam="1">  1       -2 0.12619903E+00 0.30320438E+04</pdfrwt>
<totfact> 0.92138917E-01</totfact>
</mgrwt>
</event>
<event>
 4    1  0.1321115E-008  0.2203406E+04  0.7816531E-02  0.8517012E-01
          2   -1    0    0  501    0  0.00000000000E+00  0.00000000000E+00  0.14054985852E+04  0.14054985852E+04  0.00000000000E+00 0.  1.
         -2   -1    0    0    0  501 -0.00000000000E+00 -0.00000000000E+00 -0.86357206712E+03  0.86357206712E+03  0.00000000000E+00 0. -1.
    2000013    1    1    2    0    0 -0.15571803979E+03 -0.52269629885E+03  0.39189278399E+03  0.11634171577E+04  0.95000000000E+03 0.  0.
   -2000013    1    1    2    0    0  0.15571803979E+03  0.52269629885E+03  0.15003373409E+03  0.11056534946E+04  0.95000000000E+03 0.  0.
<mgrwt>
<rscale>  0 0.22034058E+04</rscale>
<asrwt>0</asrwt>
<pdfrwt beam="1">  1        2 0.21623055E+00 0.22034058E+04</pdfrwt>
<pdfrwt beam="2">  1       -2 0.13285724E+00 0.22034058E+04</pdfrwt>
<totfact> 0.53958563E+00</totfact>
</mgrwt>
</event>
<event>
 4    1  0.1321115E-008  0.3056887E+04  0.7816531E-02  0.8227671E-01
         -2   -1    0    0    0  501 -0.00000000000E+00  0.00000000000E+00  0.10839167556E+04  0.10839167556E+04  0.00000000000E+00 0. -1.
          2   -1    0    0  501    0  0.00000000000E+00 -0.00000000000E+00 -0.21552751078E+04  0.21552751078E+04  0.00000000000E+00 0.  1.
    2000013    1    1    2    0    0 -0.28690886581E+03 -0.99380044744E+03  0.10334710870E+03  0.14082388475E+04  0.95000000000E+03 0.  0.
   -2000013    1    1    2    0    0  0.28690886581E+03  0.99380044744E+03 -0.11747054610E+04  0.18309530160E+04  0.95000000000E+03 0.  0.
<mgrwt>
<rscale>  0 0.30568865E+04</rscale>
<asrwt>0</asrwt>
<pdfrwt beam="2">  1        2 0.33158078E+00 0.30568865E+04</pdfrwt>
<pdfrwt beam="1">  1       -2 0.16675643E+00 0.30568865E+04</pdfrwt>
<totfact> 0.10482244E+00</totfact>
</mgrwt>
</event>
<event>
 4    1  0.1321115E-008  0.2246783E+04  0.7816531E-02  0.8499205E-01
          2   -1    0    0  501    0  0.00000000000E+00  0.00000000000E+00  0.31088319157E+04  0.31088319157E+04  0.00000000000E+00 0.  1.
         -2   -1    0    0    0  501 -0.00000000000E+00 -0.00000000000E+00 -0.40594286947E+03  0.40594286947E+03  0.00000000000E+00 0. -1.
    2000013    1    1    2    0    0  0.40470629347E+03 -0.41388406606E+03  0.15959100664E+04  0.19453832898E+04  0.95000000000E+03 0.  0.
   -2000013    1    1    2    0    0 -0.40470629347E+03  0.41388406606E+03  0.11069789799E+04  0.15693914955E+04  0.95000000000E+03 0.  0.
<mgrwt>
<rscale>  0 0.22467827E+04</rscale>
<asrwt>0</asrwt>
<pdfrwt beam="1">  1        2 0.47828182E+00 0.22467827E+04</pdfrwt>
<pdfrwt beam="2">  1       -2 0.62452751E-01 0.22467827E+04</pdfrwt>
<totfact> 0.32213581E+00</totfact>
</mgrwt>
</event>
<event>
 4    1  0.1321115E-008  0.2422843E+04  0.7816531E-02  0.8431001E-01
          2   -1    0    0  501    0  0.00000000000E+00  0.00000000000E+00  0.10454535478E+04  0.10454535478E+04  0.00000000000E+00 0.  1.
         -2   -1    0    0    0  501 -0.00000000000E+00 -0.00000000000E+00 -0.14037372485E+04  0.14037372485E+04  0.00000000000E+00 0. -1.
    2000013    1    1    2    0    0 -0.41000076108E+03  0.62927376152E+03 -0.21039726766E+03  0.12291676457E+04  0.95000000000E+03 0.  0.
   -2000013    1    1    2    0    0  0.41000076108E+03 -0.62927376152E+03 -0.14788643302E+03  0.12200231506E+04  0.95000000000E+03 0.  0.
<mgrwt>
<rscale>  0 0.24228430E+04</rscale>
<asrwt>0</asrwt>
<pdfrwt beam="1">  1        2 0.16083901E+00 0.24228430E+04</pdfrwt>
<pdfrwt beam="2">  1       -2 0.21595958E+00 0.24228430E+04</pdfrwt>
<totfact> 0.22173589E+00</totfact>
</mgrwt>
</event>
<event>
 4    1  0.1321115E-008  0.2750333E+04  0.7816531E-02  0.8318856E-01
         -1   -1    0    0    0  501 -0.00000000000E+00  0.00000000000E+00  0.87719419617E+03  0.87719419617E+03  0.00000000000E+00 0. -1.
          1   -1    0    0  501    0  0.00000000000E+00 -0.00000000000E+00 -0.21558311808E+04  0.21558311808E+04  0.00000000000E+00 0.  1.
    2000013    1    1    2    0    0  0.76115272381E+03  0.63016281640E+03 -0.76074484994E+03  0.15677025773E+04  0.95000000000E+03 0.  0.
   -2000013    1    1    2    0    0 -0.76115272381E+03 -0.63016281640E+03 -0.51789213472E+03  0.14653227997E+04  0.95000000000E+03 0.  0.
<mgrwt>
<rscale>  0 0.27503328E+04</rscale>
<asrwt>0</asrwt>
<pdfrwt beam="2">  1        1 0.33166633E+00 0.27503328E+04</pdfrwt>
<pdfrwt beam="1">  1       -1 0.13495296E+00 0.27503328E+04</pdfrwt>
<totfact> 0.93574823E-01</totfact>
</mgrwt>
</event>
<event>
 4    1  0.1321115E-008  0.3069760E+04  0.7816531E-02  0.8224086E-01
          2   -1    0    0  501    0  0.00000000000E+00  0.00000000000E+00  0.36193565007E+04  0.36193565007E+04  0.00000000000E+00 0.  1.
         -2   -1    0    0    0  501 -0.00000000000E+00 -0.00000000000E+00 -0.65090484216E+03  0.65090484216E+03  0.00000000000E+00 0. -1.
    2000013    1    1    2    0    0 -0.92108550296E+03 -0.76682284184E+03  0.16652840431E+04  0.22609924190E+04  0.95000000000E+03 0.  0.
   -2000013    1    1    2    0    0  0.92108550296E+03  0.76682284184E+03  0.13031676155E+04  0.20092689239E+04  0.95000000000E+03 0.  0.
<mgrwt>
<rscale>  0 0.30697600E+04</rscale>
<asrwt>0</asrwt>
<pdfrwt beam="1">  1        2 0.55682407E+00 0.30697600E+04</pdfrwt>
<pdfrwt beam="2">  1       -2 0.10013921E+00 0.30697600E+04</pdfrwt>
<totfact> 0.46800500E-01</totfact>
</mgrwt>
</event>
<event>
 4    1  0.1321115E-008  0.3021191E+04  0.7816531E-02  0.8237705E-01
         -2   -1    0    0    0  501 -0.00000000000E+00  0.00000000000E+00  0.10124344543E+04  0.10124344543E+04  0.00000000000E+00 0. -1.
          2   -1    0    0  501    0  0.00000000000E+00 -0.00000000000E+00 -0.22538737037E+04  0.22538737037E+04  0.00000000000E+00 0.  1.
    2000013    1    1    2    0    0  0.98355495895E+03  0.57424623964E+03 -0.31063942323E+03  0.15153006145E+04  0.95000000000E+03 0.  0.
   -2000013    1    1    2    0    0 -0.98355495895E+03 -0.57424623964E+03 -0.93079982615E+03  0.17510075435E+04  0.95000000000E+03 0.  0.
<mgrwt>
<rscale>  0 0.30211914E+04</rscale>
<asrwt>0</asrwt>
<pdfrwt beam="2">  1        2 0.34674980E+00 0.30211914E+04</pdfrwt>
<pdfrwt beam="1">  1       -2 0.15575915E+00 0.30211914E+04</pdfrwt>
<totfact> 0.11146698E+00</totfact>
</mgrwt>
</event>
<event>
 4    1  0.1321115E-008  0.2231173E+04  0.7816531E-02  0.8505564E-01
         -2   -1    0    0    0  501 -0.00000000000E+00  0.00000000000E+00  0.57980112848E+03  0.57980112848E+03  0.00000000000E+00 0. -1.
          2   -1    0    0  501    0  0.00000000000E+00 -0.00000000000E+00 -0.21464823200E+04  0.21464823200E+04  0.00000000000E+00 0.  1.
    2000013    1    1    2    0    0  0.20391865457E+03 -0.53427323974E+03 -0.63367750576E+03  0.12771365995E+04  0.95000000000E+03 0.  0.
   -2000013    1    1    2    0    0 -0.20391865457E+03  0.53427323974E+03 -0.93300368578E+03  0.14491468490E+04  0.95000000000E+03 0.  0.
<mgrwt>
<rscale>  0 0.22311727E+04</rscale>
<asrwt>0</asrwt>
<pdfrwt beam="2">  1        2 0.33022805E+00 0.22311727E+04</pdfrwt>
<pdfrwt beam="1">  1       -2 0.89200173E-01 0.22311727E+04</pdfrwt>
<totfact> 0.54423345E+00</totfact>
</mgrwt>
</event>
<event>
 4    1  0.1321115E-008  0.2726134E+04  0.7816531E-02  0.8326575E-01
         -2   -1    0    0    0  501 -0.00000000000E+00  0.00000000000E+00  0.11674842386E+04  0.11674842386E+04  0.00000000000E+00 0. -1.
          2   -1    0    0  501    0  0.00000000000E+00 -0.00000000000E+00 -0.15914144461E+04  0.15914144461E+04  0.00000000000E+00 0.  1.
    2000013    1    1    2    0    0  0.66742323070E+03  0.60305961893E+03 -0.59907601326E+03  0.14389325010E+04  0.95000000000E+03 0.  0.
   -2000013    1    1    2    0    0 -0.66742323070E+03 -0.60305961893E+03  0.17514580579E+03  0.13199661837E+04  0.95000000000E+03 0.  0.
<mgrwt>
<rscale>  0 0.27261337E+04</rscale>
<asrwt>0</asrwt>
<pdfrwt beam="2">  1        2 0.24483299E+00 0.27261337E+04</pdfrwt>
<pdfrwt beam="1">  1       -2 0.17961296E+00 0.27261337E+04</pdfrwt>
<totfact> 0.18013020E+00</totfact>
</mgrwt>
</event>
<event>
 4    1  0.1321115E-008  0.2366188E+04  0.7816531E-02  0.8452272E-01
          2   -1    0    0  501    0  0.00000000000E+00  0.00000000000E+00  0.24437687028E+04  0.24437687028E+04  0.00000000000E+00 0.  1.
         -2   -1    0    0    0  501 -0.00000000000E+00 -0.00000000000E+00 -0.57276766033E+03  0.57276766033E+03  0.00000000000E+00 0. -1.
    2000013    1    1    2    0    0  0.32734706626E+03 -0.62181873191E+03  0.10098041350E+04  0.15543548591E+04  0.95000000000E+03 0.  0.
   -2000013    1    1    2    0    0 -0.32734706626E+03  0.62181873191E+03  0.86119690752E+03  0.14621815040E+04  0.95000000000E+03 0.  0.
<mgrwt>
<rscale>  0 0.23661882E+04</rscale>
<asrwt>0</asrwt>
<pdfrwt beam="1">  1        2 0.37596441E+00 0.23661882E+04</pdfrwt>
<pdfrwt beam="2">  1       -2 0.88118103E-01 0.23661882E+04</pdfrwt>
<totfact> 0.37531528E+00</totfact>
</mgrwt>
</event>
<event>
 4    1  0.1321115E-008  0.3234607E+04  0.7816531E-02  0.8179737E-01
         -1   -1    0    0    0  501 -0.00000000000E+00  0.00000000000E+00  0.10517408976E+04  0.10517408976E+04  0.00000000000E+00 0. -1.
          1   -1    0    0  501    0  0.00000000000E+00 -0.00000000000E+00 -0.24869918313E+04  0.24869918313E+04  0.00000000000E+00 0.  1.
    2000013    1    1    2    0    0 -0.40263235038E+03  0.47412043006E+02 -0.20791495324E+04  0.23215778017E+04  0.95000000000E+03 0.  0.
   -2000013    1    1    2    0    0  0.40263235038E+03 -0.47412043006E+02  0.64389859863E+03  0.12171549272E+04  0.95000000000E+03 0.  0.
<mgrwt>
<rscale>  0 0.32346073E+04</rscale>
<asrwt>0</asrwt>
<pdfrwt beam="2">  1        1 0.38261412E+00 0.32346073E+04</pdfrwt>
<pdfrwt beam="1">  1       -1 0.16180629E+00 0.32346073E+04</pdfrwt>
<totfact> 0.32666040E-01</totfact>
</mgrwt>
</event>
<event>
 4    1  0.1321115E-008  0.1980508E+04  0.7816531E-02  0.8615788E-01
         -2   -1    0    0    0  501 -0.00000000000E+00  0.00000000000E+00  0.60002988819E+03  0.60002988819E+03  0.00000000000E+00 0. -1.
          2   -1    0    0  501    0  0.00000000000E+00 -0.00000000000E+00 -0.16342572384E+04  0.16342572384E+04  0.00000000000E+00 0.  1.
    2000013    1    1    2    0    0  0.58980485544E+01 -0.26787679244E+03 -0.42749641813E+03  0.10756607041E+04  0.95000000000E+03 0.  0.
   -2000013    1    1    2    0    0 -0.58980485544E+01  0.26787679244E+03 -0.60673093212E+03  0.11586264225E+04  0.95000000000E+03 0.  0.
<mgrwt>
<rscale>  0 0.19805082E+04</rscale>
<asrwt>0</asrwt>
<pdfrwt beam="2">  1        2 0.25142419E+00 0.19805082E+04</pdfrwt>
<pdfrwt beam="1">  1       -2 0.92312291E-01 0.19805082E+04</pdfrwt>
<totfact> 0.98947608E+00</totfact>
</mgrwt>
</event>
<event>
 4    1  0.1321115E-008  0.2547854E+04  0.7816531E-02  0.8386133E-01
          2   -1    0    0  501    0  0.00000000000E+00  0.00000000000E+00  0.32531932129E+04  0.32531932129E+04  0.00000000000E+00 0.  1.
         -2   -1    0    0    0  501 -0.00000000000E+00 -0.00000000000E+00 -0.49886048151E+03  0.49886048151E+03  0.00000000000E+00 0. -1.
    2000013    1    1    2    0    0  0.64137713931E+03  0.27394536926E+03  0.66483370993E+03  0.13531129155E+04  0.95000000000E+03 0.  0.
   -2000013    1    1    2    0    0 -0.64137713931E+03 -0.27394536926E+03  0.20894990215E+04  0.23989407789E+04  0.95000000000E+03 0.  0.
<mgrwt>
<rscale>  0 0.25478536E+04</rscale>
<asrwt>0</asrwt>
<pdfrwt beam="1">  1        2 0.50049125E+00 0.25478536E+04</pdfrwt>
<pdfrwt beam="2">  1       -2 0.76747768E-01 0.25478536E+04</pdfrwt>
<totfact> 0.16132094E+00</totfact>
</mgrwt>
</event>
<event>
 4    1  0.1321115E-008  0.3345867E+04  0.7816531E-02  0.8151322E-01
          2   -1    0    0  501    0  0.00000000000E+00  0.00000000000E+00  0.15115383428E+04  0.15115383428E+04  0.00000000000E+00 0.  1.
         -2   -1    0    0    0  501 -0.00000000000E+00 -0.00000000000E+00 -0.18515611897E+04  0.18515611897E+04  0.00000000000E+00 0. -1.
    2000013    1    1    2    0    0  0.11077569737E+04  0.64358932067E+03 -0.67746115465E+03  0.17328549687E+04  0.95000000000E+03 0.  0.
   -2000013    1    1    2    0    0 -0.11077569737E+04 -0.64358932067E+03  0.33743830772E+03  0.16302445639E+04  0.95000000000E+03 0.  0.
<mgrwt>
<rscale>  0 0.33458665E+04</rscale>
<asrwt>0</asrwt>
<pdfrwt beam="1">  1        2 0.23254436E+00 0.33458665E+04</pdfrwt>
<pdfrwt beam="2">  1       -2 0.28485557E+00 0.33458665E+04</pdfrwt>
<totfact> 0.40926962E-01</totfact>
</mgrwt>
</event>
<event>
 4    1  0.1321115E-008  0.2089443E+04  0.7816531E-02  0.8565908E-01
          2   -1    0    0  501    0  0.00000000000E+00  0.00000000000E+00  0.86557877341E+03  0.86557877341E+03  0.00000000000E+00 0.  1.
         -2   -1    0    0    0  501 -0.00000000000E+00 -0.00000000000E+00 -0.12609402760E+04  0.12609402760E+04  0.00000000000E+00 0. -1.
    2000013    1    1    2    0    0 -0.29459122340E+03  0.42685550696E+02  0.12470027998E+03  0.10033225827E+04  0.95000000000E+03 0.  0.
   -2000013    1    1    2    0    0  0.29459122340E+03 -0.42685550696E+02 -0.52006178260E+03  0.11231964667E+04  0.95000000000E+03 0.  0.
<mgrwt>
<rscale>  0 0.20894431E+04</rscale>
<asrwt>0</asrwt>
<pdfrwt beam="1">  1        2 0.13316596E+00 0.20894431E+04</pdfrwt>
<pdfrwt beam="2">  1       -2 0.19399081E+00 0.20894431E+04</pdfrwt>
<totfact> 0.41600176E+00</totfact>
</mgrwt>
</event>
<event>
 4    1  0.1321115E-008  0.2508185E+04  0.7816531E-02  0.8400075E-01
          2   -1    0    0  501    0  0.00000000000E+00  0.00000000000E+00  0.37410539853E+04  0.37410539853E+04  0.00000000000E+00 0.  1.
         -2   -1    0    0    0  501 -0.00000000000E+00 -0.00000000000E+00 -0.42040249214E+03  0.42040249214E+03  0.00000000000E+00 0. -1.
    2000013    1    1    2    0    0 -0.41293286638E+03 -0.54306346123E+03  0.90944896880E+03  0.14815629929E+04  0.95000000000E+03 0.  0.
   -2000013    1    1    2    0    0  0.41293286638E+03  0.54306346123E+03  0.24112025244E+04  0.26798934846E+04  0.95000000000E+03 0.  0.
<mgrwt>
<rscale>  0 0.25081853E+04</rscale>
<asrwt>0</asrwt>
<pdfrwt beam="1">  1        2 0.57554675E+00 0.25081853E+04</pdfrwt>
<pdfrwt beam="2">  1       -2 0.64677309E-01 0.25081853E+04</pdfrwt>
<totfact> 0.10723603E+00</totfact>
</mgrwt>
</event>
<event>
 4    1  0.1321115E-008  0.2812211E+04  0.7816531E-02  0.8299487E-01
         -2   -1    0    0    0  501 -0.00000000000E+00  0.00000000000E+00  0.29904280073E+04  0.29904280073E+04  0.00000000000E+00 0. -1.
          2   -1    0    0  501    0  0.00000000000E+00 -0.00000000000E+00 -0.66115367299E+03  0.66115367299E+03  0.00000000000E+00 0.  1.
    2000013    1    1    2    0    0  0.64311193628E+03 -0.48793473698E+03  0.32017076805E+03  0.12871218244E+04  0.95000000000E+03 0.  0.
   -2000013    1    1    2    0    0 -0.64311193628E+03  0.48793473698E+03  0.20091035663E+04  0.23644598559E+04  0.95000000000E+03 0.  0.
<mgrwt>
<rscale>  0 0.28122108E+04</rscale>
<asrwt>0</asrwt>
<pdfrwt beam="2">  1        2 0.10171595E+00 0.28122108E+04</pdfrwt>
<pdfrwt beam="1">  1       -2 0.46006584E+00 0.28122108E+04</pdfrwt>
<totfact> 0.11378955E-01</totfact>
</mgrwt>
</event>
<event>
 4    1  0.1321115E-008  0.2575293E+04  0.7816531E-02  0.8376642E-01
          2   -1    0    0  501    0  0.00000000000E+00  0.00000000000E+00  0.25329836170E+04  0.25329836170E+04  0.00000000000E+00 0.  1.
         -2   -1    0    0    0  501 -0.00000000000E+00 -0.00000000000E+00 -0.65457749407E+03  0.65457749407E+03  0.00000000000E+00 0. -1.
    2000013    1    1    2    0    0 -0.13586212899E+03 -0.73796947060E+03  0.14822292572E+04  0.19137818654E+04  0.95000000000E+03 0.  0.
   -2000013    1    1    2    0    0  0.13586212899E+03  0.73796947060E+03  0.39617686572E+03  0.12737792456E+04  0.95000000000E+03 0.  0.
<mgrwt>
<rscale>  0 0.25752934E+04</rscale>
<asrwt>0</asrwt>
<pdfrwt beam="1">  1        2 0.38968978E+00 0.25752934E+04</pdfrwt>
<pdfrwt beam="2">  1       -2 0.10070423E+00 0.25752934E+04</pdfrwt>
<totfact> 0.23977527E+00</totfact>
</mgrwt>
</event>
<event>
 4    1  0.1321115E-008  0.2412907E+04  0.7816531E-02  0.8434687E-01
         -2   -1    0    0    0  501 -0.00000000000E+00  0.00000000000E+00  0.80418583037E+03  0.80418583037E+03  0.00000000000E+00 0. -1.
          2   -1    0    0  501    0  0.00000000000E+00 -0.00000000000E+00 -0.18099417257E+04  0.18099417257E+04  0.00000000000E+00 0.  1.
    2000013    1    1    2    0    0 -0.51156124531E+03  0.49041065417E+03 -0.25861659662E+03  0.12130869967E+04  0.95000000000E+03 0.  0.
   -2000013    1    1    2    0    0  0.51156124531E+03 -0.49041065417E+03 -0.74713929872E+03  0.14010405594E+04  0.95000000000E+03 0.  0.
<mgrwt>
<rscale>  0 0.24129065E+04</rscale>
<asrwt>0</asrwt>
<pdfrwt beam="2">  1        2 0.27845257E+00 0.24129065E+04</pdfrwt>
<pdfrwt beam="1">  1       -2 0.12372090E+00 0.24129065E+04</pdfrwt>
<totfact> 0.37658249E+00</totfact>
</mgrwt>
</event>
<event>
 4    1  0.1321115E-008  0.2871606E+04  0.7816531E-02  0.8281376E-01
          1   -1    0    0  501    0  0.00000000000E+00  0.00000000000E+00  0.15455749095E+04  0.15455749095E+04  0.00000000000E+00 0.  1.
         -1   -1    0    0    0  501 -0.00000000000E+00 -0.00000000000E+00 -0.13338275751E+04  0.13338275751E+04  0.00000000000E+00 0. -1.
    2000013    1    1    2    0    0  0.10462650546E+04 -0.17106931178E+03  0.29371930612E+03  0.14535151546E+04  0.95000000000E+03 0.  0.
   -2000013    1    1    2    0    0 -0.10462650546E+04  0.17106931178E+03 -0.81971971775E+02  0.14258873300E+04  0.95000000000E+03 0.  0.
<mgrwt>
<rscale>  0 0.28716061E+04</rscale>
<asrwt>0</asrwt>
<pdfrwt beam="1">  1        1 0.23778076E+00 0.28716061E+04</pdfrwt>
<pdfrwt beam="2">  1       -1 0.20520424E+00 0.28716061E+04</pdfrwt>
<totfact> 0.72554841E-01</totfact>
</mgrwt>
</event>
<event>
 4    1  0.1321115E-008  0.2957310E+04  0.7816531E-02  0.8256027E-01
          2   -1    0    0  501    0  0.00000000000E+00  0.00000000000E+00  0.12310105112E+04  0.12310105112E+04  0.00000000000E+00 0.  1.
         -2   -1    0    0    0  501 -0.00000000000E+00 -0.00000000000E+00 -0.17761190760E+04  0.17761190760E+04  0.00000000000E+00 0. -1.
    2000013    1    1    2    0    0 -0.41983320183E+03 -0.89745546975E+03  0.28646606544E+03  0.14022300254E+04  0.95000000000E+03 0.  0.
   -2000013    1    1    2    0    0  0.41983320183E+03  0.89745546975E+03 -0.83157463030E+03  0.16048995617E+04  0.95000000000E+03 0.  0.
<mgrwt>
<rscale>  0 0.29573104E+04</rscale>
<asrwt>0</asrwt>
<pdfrwt beam="1">  1        2 0.18938623E+00 0.29573104E+04</pdfrwt>
<pdfrwt beam="2">  1       -2 0.27324909E+00 0.29573104E+04</pdfrwt>
<totfact> 0.72195841E-01</totfact>
</mgrwt>
</event>
<event>
 4    1  0.1321115E-008  0.2866302E+04  0.7816531E-02  0.8282975E-01
         -2   -1    0    0    0  501 -0.00000000000E+00  0.00000000000E+00  0.54626004550E+03  0.54626004550E+03  0.00000000000E+00 0. -1.
          2   -1    0    0  501    0  0.00000000000E+00 -0.00000000000E+00 -0.37599713389E+04  0.37599713389E+04  0.00000000000E+00 0.  1.
    2000013    1    1    2    0    0  0.16742211667E+03  0.10499792639E+04 -0.13894769419E+04  0.19908874382E+04  0.95000000000E+03 0.  0.
   -2000013    1    1    2    0    0 -0.16742211667E+03 -0.10499792639E+04 -0.18242343515E+04  0.23153439461E+04  0.95000000000E+03 0.  0.
<mgrwt>
<rscale>  0 0.28663022E+04</rscale>
<asrwt>0</asrwt>
<pdfrwt beam="2">  1        2 0.57845714E+00 0.28663022E+04</pdfrwt>
<pdfrwt beam="1">  1       -2 0.84040006E-01 0.28663022E+04</pdfrwt>
<totfact> 0.56343682E-01</totfact>
</mgrwt>
</event>
<event>
 4    1  0.1321115E-008  0.2388062E+04  0.7816531E-02  0.8443987E-01
          2   -1    0    0  501    0  0.00000000000E+00  0.00000000000E+00  0.17603722014E+04  0.17603722014E+04  0.00000000000E+00 0.  1.
         -2   -1    0    0    0  501 -0.00000000000E+00 -0.00000000000E+00 -0.80989117642E+03  0.80989117642E+03  0.00000000000E+00 0. -1.
    2000013    1    1    2    0    0 -0.50733610621E+03 -0.18505785202E+03  0.99317705416E+03  0.14766641440E+04  0.95000000000E+03 0.  0.
   -2000013    1    1    2    0    0  0.50733610621E+03  0.18505785202E+03 -0.42696029211E+02  0.10935992338E+04  0.95000000000E+03 0.  0.
<mgrwt>
<rscale>  0 0.23880619E+04</rscale>
<asrwt>0</asrwt>
<pdfrwt beam="1">  1        2 0.27082649E+00 0.23880619E+04</pdfrwt>
<pdfrwt beam="2">  1       -2 0.12459864E+00 0.23880619E+04</pdfrwt>
<totfact> 0.39498443E+00</totfact>
</mgrwt>
</event>
<event>
 4    1  0.1321115E-008  0.2356547E+04  0.7816531E-02  0.8455953E-01
          2   -1    0    0  501    0  0.00000000000E+00  0.00000000000E+00  0.15791917172E+04  0.15791917172E+04  0.00000000000E+00 0.  1.
         -2   -1    0    0    0  501 -0.00000000000E+00 -0.00000000000E+00 -0.87913857165E+03  0.87913857165E+03  0.00000000000E+00 0. -1.
    2000013    1    1    2    0    0 -0.64479315117E+03  0.43619011827E+02  0.62239257862E+03  0.13067261947E+04  0.95000000000E+03 0.  0.
   -2000013    1    1    2    0    0  0.64479315117E+03 -0.43619011827E+02  0.77660566919E+02  0.11516040941E+04  0.95000000000E+03 0.  0.
<mgrwt>
<rscale>  0 0.23565469E+04</rscale>
<asrwt>0</asrwt>
<pdfrwt beam="1">  1        2 0.24295257E+00 0.23565469E+04</pdfrwt>
<pdfrwt beam="2">  1       -2 0.13525209E+00 0.23565469E+04</pdfrwt>
<totfact> 0.40596589E+00</totfact>
</mgrwt>
</event>
<event>
 4    1  0.1321115E-008  0.1939957E+04  0.7816531E-02  0.8635219E-01
          2   -1    0    0  501    0  0.00000000000E+00  0.00000000000E+00  0.15352630366E+04  0.15352630366E+04  0.00000000000E+00 0.  1.
         -2   -1    0    0    0  501 -0.00000000000E+00 -0.00000000000E+00 -0.61283185756E+03  0.61283185756E+03  0.00000000000E+00 0. -1.
    2000013    1    1    2    0    0  0.19191298831E+03  0.12161646655E+02  0.42008758354E+03  0.10563863302E+04  0.95000000000E+03 0.  0.
   -2000013    1    1    2    0    0 -0.19191298831E+03 -0.12161646655E+02  0.50234359548E+03  0.10917085640E+04  0.95000000000E+03 0.  0.
<mgrwt>
<rscale>  0 0.19399568E+04</rscale>
<asrwt>0</asrwt>
<pdfrwt beam="1">  1        2 0.23619431E+00 0.19399568E+04</pdfrwt>
<pdfrwt beam="2">  1       -2 0.94281825E-01 0.19399568E+04</pdfrwt>
<totfact> 0.10739757E+01</totfact>
</mgrwt>
</event>
<event>
 4    1  0.1321115E-008  0.2325717E+04  0.7816531E-02  0.8467850E-01
          1   -1    0    0  501    0  0.00000000000E+00  0.00000000000E+00  0.37168441268E+03  0.37168441268E+03  0.00000000000E+00 0.  1.
         -1   -1    0    0    0  501 -0.00000000000E+00 -0.00000000000E+00 -0.36381393090E+04  0.36381393090E+04  0.00000000000E+00 0. -1.
    2000013    1    1    2    0    0 -0.10739564799E+03 -0.47152107968E+03 -0.83216138254E+03  0.13523529570E+04  0.95000000000E+03 0.  0.
   -2000013    1    1    2    0    0  0.10739564799E+03  0.47152107968E+03 -0.24342935138E+04  0.26574707647E+04  0.95000000000E+03 0.  0.
<mgrwt>
<rscale>  0 0.23257168E+04</rscale>
<asrwt>0</asrwt>
<pdfrwt beam="1">  1        1 0.57182219E-01 0.23257168E+04</pdfrwt>
<pdfrwt beam="2">  1       -1 0.55971373E+00 0.23257168E+04</pdfrwt>
<totfact> 0.39350186E-02</totfact>
</mgrwt>
</event>
<event>
 4    1  0.1321115E-008  0.4006279E+04  0.7816531E-02  0.8003281E-01
          2   -1    0    0  501    0  0.00000000000E+00  0.00000000000E+00  0.21290121650E+04  0.21290121650E+04  0.00000000000E+00 0.  1.
         -2   -1    0    0    0  501 -0.00000000000E+00 -0.00000000000E+00 -0.18847084006E+04  0.18847084006E+04  0.00000000000E+00 0. -1.
    2000013    1    1    2    0    0  0.16278346004E+04  0.29615814656E+03  0.73362321987E+03  0.20440788054E+04  0.95000000000E+03 0.  0.
   -2000013    1    1    2    0    0 -0.16278346004E+04 -0.29615814656E+03 -0.48931945552E+03  0.19696417602E+04  0.95000000000E+03 0.  0.
<mgrwt>
<rscale>  0 0.40062786E+04</rscale>
<asrwt>0</asrwt>
<pdfrwt beam="1">  1        2 0.32754033E+00 0.40062786E+04</pdfrwt>
<pdfrwt beam="2">  1       -2 0.28995514E+00 0.40062786E+04</pdfrwt>
<totfact> 0.16341145E-01</totfact>
</mgrwt>
</event>
<event>
 4    1  0.1321115E-008  0.2833788E+04  0.7816531E-02  0.8292855E-01
          2   -1    0    0  501    0  0.00000000000E+00  0.00000000000E+00  0.18863646233E+04  0.18863646233E+04  0.00000000000E+00 0.  1.
         -2   -1    0    0    0  501 -0.00000000000E+00 -0.00000000000E+00 -0.10642629306E+04  0.10642629306E+04  0.00000000000E+00 0. -1.
    2000013    1    1    2    0    0 -0.95053468760E+03  0.36454121750E+03  0.13817390507E+03  0.13992850030E+04  0.95000000000E+03 0.  0.
   -2000013    1    1    2    0    0  0.95053468760E+03 -0.36454121750E+03  0.68392778760E+03  0.15513425509E+04  0.95000000000E+03 0.  0.
<mgrwt>
<rscale>  0 0.28337875E+04</rscale>
<asrwt>0</asrwt>
<pdfrwt beam="1">  1        2 0.29020994E+00 0.28337875E+04</pdfrwt>
<pdfrwt beam="2">  1       -2 0.16373276E+00 0.28337875E+04</pdfrwt>
<totfact> 0.15858395E+00</totfact>
</mgrwt>
</event>
<event>
 4    1  0.1321115E-008  0.2910286E+04  0.7816531E-02  0.8269824E-01
          2   -1    0    0  501    0  0.00000000000E+00  0.00000000000E+00  0.68760880909E+03  0.68760880909E+03  0.00000000000E+00 0.  1.
         -2   -1    0    0    0  501 -0.00000000000E+00 -0.00000000000E+00 -0.30794272946E+04  0.30794272946E+04  0.00000000000E+00 0. -1.
    2000013    1    1    2    0    0  0.12468697626E+03 -0.10565107993E+04 -0.15692213257E+04  0.21205465051E+04  0.95000000000E+03 0.  0.
   -2000013    1    1    2    0    0 -0.12468697626E+03  0.10565107993E+04 -0.82259715974E+03  0.16464895986E+04  0.95000000000E+03 0.  0.
<mgrwt>
<rscale>  0 0.29102861E+04</rscale>
<asrwt>0</asrwt>
<pdfrwt beam="1">  1        2 0.10578597E+00 0.29102861E+04</pdfrwt>
<pdfrwt beam="2">  1       -2 0.47375805E+00 0.29102861E+04</pdfrwt>
<totfact> 0.87393142E-02</totfact>
</mgrwt>
</event>
<event>
 4    1  0.1321115E-008  0.2388696E+04  0.7816531E-02  0.8443748E-01
         -1   -1    0    0    0  501 -0.00000000000E+00  0.00000000000E+00  0.66534196646E+03  0.66534196646E+03  0.00000000000E+00 0. -1.
          1   -1    0    0  501    0  0.00000000000E+00 -0.00000000000E+00 -0.21439616141E+04  0.21439616141E+04  0.00000000000E+00 0.  1.
    2000013    1    1    2    0    0  0.52701127294E+03  0.48424590790E+03 -0.61191966766E+03  0.13376025795E+04  0.95000000000E+03 0.  0.
   -2000013    1    1    2    0    0 -0.52701127294E+03 -0.48424590790E+03 -0.86669998003E+03  0.14717010011E+04  0.95000000000E+03 0.  0.
<mgrwt>
<rscale>  0 0.23886964E+04</rscale>
<asrwt>0</asrwt>
<pdfrwt beam="2">  1        1 0.32984025E+00 0.23886964E+04</pdfrwt>
<pdfrwt beam="1">  1       -1 0.10236030E+00 0.23886964E+04</pdfrwt>
<totfact> 0.19268753E+00</totfact>
</mgrwt>
</event>
<event>
 4    1  0.1321115E-008  0.2256389E+04  0.7816531E-02  0.8495317E-01
         -2   -1    0    0    0  501 -0.00000000000E+00  0.00000000000E+00  0.70025329210E+03  0.70025329210E+03  0.00000000000E+00 0. -1.
          2   -1    0    0  501    0  0.00000000000E+00 -0.00000000000E+00 -0.18176614170E+04  0.18176614170E+04  0.00000000000E+00 0.  1.
    2000013    1    1    2    0    0  0.30985579130E+03 -0.44440812774E+03 -0.86798110880E+03  0.13962092969E+04  0.95000000000E+03 0.  0.
   -2000013    1    1    2    0    0 -0.30985579130E+03  0.44440812774E+03 -0.24942701605E+03  0.11217054122E+04  0.95000000000E+03 0.  0.
<mgrwt>
<rscale>  0 0.22563895E+04</rscale>
<asrwt>0</asrwt>
<pdfrwt beam="2">  1        2 0.27964022E+00 0.22563895E+04</pdfrwt>
<pdfrwt beam="1">  1       -2 0.10773127E+00 0.22563895E+04</pdfrwt>
<totfact> 0.53039084E+00</totfact>
</mgrwt>
</event>
<event>
 4    1  0.1321115E-008  0.3305754E+04  0.7816531E-02  0.8161433E-01
         -2   -1    0    0    0  501 -0.00000000000E+00  0.00000000000E+00  0.11828446730E+04  0.11828446730E+04  0.00000000000E+00 0. -1.
          2   -1    0    0  501    0  0.00000000000E+00 -0.00000000000E+00 -0.23096886174E+04  0.23096886174E+04  0.00000000000E+00 0.  1.
    2000013    1    1    2    0    0 -0.91028189032E+03  0.10002108357E+04 -0.58627861035E+03  0.17536411961E+04  0.95000000000E+03 0.  0.
   -2000013    1    1    2    0    0  0.91028189032E+03 -0.10002108357E+04 -0.54056533406E+03  0.17388920944E+04  0.95000000000E+03 0.  0.
<mgrwt>
<rscale>  0 0.33057543E+04</rscale>
<asrwt>0</asrwt>
<pdfrwt beam="2">  1        2 0.35533671E+00 0.33057543E+04</pdfrwt>
<pdfrwt beam="1">  1       -2 0.18197611E+00 0.33057543E+04</pdfrwt>
<totfact> 0.65668103E-01</totfact>
</mgrwt>
</event>
<event>
 4    1  0.1321115E-008  0.4278555E+04  0.7816531E-02  0.7950595E-01
         -2   -1    0    0    0  501 -0.00000000000E+00  0.00000000000E+00  0.21238488296E+04  0.21238488296E+04  0.00000000000E+00 0. -1.
          2   -1    0    0  501    0  0.00000000000E+00 -0.00000000000E+00 -0.21548183438E+04  0.21548183438E+04  0.00000000000E+00 0.  1.
    2000013    1    1    2    0    0  0.16628024913E+04 -0.94467014741E+03  0.11372623147E+03  0.21383983418E+04  0.95000000000E+03 0.  0.
   -2000013    1    1    2    0    0 -0.16628024913E+04  0.94467014741E+03 -0.14469574573E+03  0.21402688316E+04  0.95000000000E+03 0.  0.
<mgrwt>
<rscale>  0 0.42785551E+04</rscale>
<asrwt>0</asrwt>
<pdfrwt beam="2">  1        2 0.33151052E+00 0.42785551E+04</pdfrwt>
<pdfrwt beam="1">  1       -2 0.32674597E+00 0.42785551E+04</pdfrwt>
<totfact> 0.91838978E-02</totfact>
</mgrwt>
</event>
<event>
 4    1  0.1321115E-008  0.2359999E+04  0.7816531E-02  0.8454633E-01
          1   -1    0    0  501    0  0.00000000000E+00  0.00000000000E+00  0.24725560260E+04  0.24725560260E+04  0.00000000000E+00 0.  1.
         -1   -1    0    0    0  501 -0.00000000000E+00 -0.00000000000E+00 -0.56314122911E+03  0.56314122911E+03  0.00000000000E+00 0. -1.
    2000013    1    1    2    0    0  0.34933995013E+03  0.17454110503E+03  0.17018718588E+04  0.19878055292E+04  0.95000000000E+03 0.  0.
   -2000013    1    1    2    0    0 -0.34933995013E+03 -0.17454110503E+03  0.20754293809E+03  0.10478917259E+04  0.95000000000E+03 0.  0.
<mgrwt>
<rscale>  0 0.23599985E+04</rscale>
<asrwt>0</asrwt>
<pdfrwt beam="1">  1        1 0.38039323E+00 0.23599985E+04</pdfrwt>
<pdfrwt beam="2">  1       -1 0.86637113E-01 0.23599985E+04</pdfrwt>
<totfact> 0.16713248E+00</totfact>
</mgrwt>
</event>
<event>
 4    1  0.1321115E-008  0.2387024E+04  0.7816531E-02  0.8444378E-01
         -2   -1    0    0    0  501 -0.00000000000E+00  0.00000000000E+00  0.12921463690E+04  0.12921463690E+04  0.00000000000E+00 0. -1.
          2   -1    0    0  501    0  0.00000000000E+00 -0.00000000000E+00 -0.11024065556E+04  0.11024065556E+04  0.00000000000E+00 0.  1.
    2000013    1    1    2    0    0  0.32722924525E+03  0.63208330671E+03 -0.29465957352E+02  0.11874243253E+04  0.95000000000E+03 0.  0.
   -2000013    1    1    2    0    0 -0.32722924525E+03 -0.63208330671E+03  0.21920577074E+03  0.12071285994E+04  0.95000000000E+03 0.  0.
<mgrwt>
<rscale>  0 0.23870238E+04</rscale>
<asrwt>0</asrwt>
<pdfrwt beam="2">  1        2 0.16960101E+00 0.23870238E+04</pdfrwt>
<pdfrwt beam="1">  1       -2 0.19879175E+00 0.23870238E+04</pdfrwt>
<totfact> 0.26471606E+00</totfact>
</mgrwt>
</event>
<event>
 4    1  0.1321115E-008  0.2131942E+04  0.7816531E-02  0.8547302E-01
         -3   -1    0    0    0  501 -0.00000000000E+00  0.00000000000E+00  0.10119168932E+04  0.10119168932E+04  0.00000000000E+00 0. -1.
          3   -1    0    0  501    0  0.00000000000E+00 -0.00000000000E+00 -0.11229126801E+04  0.11229126801E+04  0.00000000000E+00 0.  1.
    2000013    1    1    2    0    0 -0.19440232997E+03  0.27751841921E+03 -0.40090792751E+03  0.10853736247E+04  0.95000000000E+03 0.  0.
   -2000013    1    1    2    0    0  0.19440232997E+03 -0.27751841921E+03  0.28991214061E+03  0.10494559487E+04  0.95000000000E+03 0.  0.
<mgrwt>
<rscale>  0 0.21319421E+04</rscale>
<asrwt>0</asrwt>
<pdfrwt beam="2">  1        3 0.17275580E+00 0.21319421E+04</pdfrwt>
<pdfrwt beam="1">  1       -3 0.15567952E+00 0.21319421E+04</pdfrwt>
<totfact> 0.15617033E-01</totfact>
</mgrwt>
</event>
<event>
 4    1  0.1321115E-008  0.2636782E+04  0.7816531E-02  0.8355813E-01
          2   -1    0    0  501    0  0.00000000000E+00  0.00000000000E+00  0.21813101305E+04  0.21813101305E+04  0.00000000000E+00 0.  1.
         -2   -1    0    0    0  501 -0.00000000000E+00 -0.00000000000E+00 -0.79684000749E+03  0.79684000749E+03  0.00000000000E+00 0. -1.
    2000013    1    1    2    0    0  0.49942770336E+03  0.74361349567E+03  0.89823798645E+03  0.15848408570E+04  0.95000000000E+03 0.  0.
   -2000013    1    1    2    0    0 -0.49942770336E+03 -0.74361349567E+03  0.48623213658E+03  0.13933092810E+04  0.95000000000E+03 0.  0.
<mgrwt>
<rscale>  0 0.26367823E+04</rscale>
<asrwt>0</asrwt>
<pdfrwt beam="1">  1        2 0.33558617E+00 0.26367823E+04</pdfrwt>
<pdfrwt beam="2">  1       -2 0.12259077E+00 0.26367823E+04</pdfrwt>
<totfact> 0.23486462E+00</totfact>
</mgrwt>
</event>
<event>
 4    1  0.1321115E-008  0.2392399E+04  0.7816531E-02  0.8442355E-01
          1   -1    0    0  501    0  0.00000000000E+00  0.00000000000E+00  0.17215963458E+04  0.17215963458E+04  0.00000000000E+00 0.  1.
         -1   -1    0    0    0  501 -0.00000000000E+00 -0.00000000000E+00 -0.83114360201E+03  0.83114360201E+03  0.00000000000E+00 0. -1.
    2000013    1    1    2    0    0  0.35627702967E+03  0.52094545508E+03  0.60393673718E+02  0.11421317283E+04  0.95000000000E+03 0.  0.
   -2000013    1    1    2    0    0 -0.35627702967E+03 -0.52094545508E+03  0.83005907005E+03  0.14106082195E+04  0.95000000000E+03 0.  0.
<mgrwt>
<rscale>  0 0.23923995E+04</rscale>
<asrwt>0</asrwt>
<pdfrwt beam="1">  1        1 0.26486098E+00 0.23923995E+04</pdfrwt>
<pdfrwt beam="2">  1       -1 0.12786825E+00 0.23923995E+04</pdfrwt>
<totfact> 0.21841305E+00</totfact>
</mgrwt>
</event>
<event>
 4    1  0.1321115E-008  0.2776573E+04  0.7816531E-02  0.8310579E-01
         -2   -1    0    0    0  501 -0.00000000000E+00  0.00000000000E+00  0.11737914075E+04  0.11737914075E+04  0.00000000000E+00 0. -1.
          2   -1    0    0  501    0  0.00000000000E+00 -0.00000000000E+00 -0.16419773816E+04  0.16419773816E+04  0.00000000000E+00 0.  1.
    2000013    1    1    2    0    0  0.17338584894E+03 -0.91076515566E+03  0.17819644103E+03  0.13393318457E+04  0.95000000000E+03 0.  0.
   -2000013    1    1    2    0    0 -0.17338584894E+03  0.91076515566E+03 -0.64638241508E+03  0.14764369434E+04  0.95000000000E+03 0.  0.
<mgrwt>
<rscale>  0 0.27765727E+04</rscale>
<asrwt>0</asrwt>
<pdfrwt beam="2">  1        2 0.25261191E+00 0.27765727E+04</pdfrwt>
<pdfrwt beam="1">  1       -2 0.18058329E+00 0.27765727E+04</pdfrwt>
<totfact> 0.16550358E+00</totfact>
</mgrwt>
</event>
<event>
 4    1  0.1321115E-008  0.3144166E+04  0.7816531E-02  0.8203721E-01
         -2   -1    0    0    0  501 -0.00000000000E+00  0.00000000000E+00  0.92950282063E+03  0.92950282063E+03  0.00000000000E+00 0.  1.
          2   -1    0    0  501    0  0.00000000000E+00 -0.00000000000E+00 -0.26588884163E+04  0.26588884163E+04  0.00000000000E+00 0. -1.
    2000013    1    1    2    0    0 -0.11548418170E+04  0.42307091920E+03 -0.11354823031E+04  0.19246996351E+04  0.95000000000E+03 0.  0.
   -2000013    1    1    2    0    0  0.11548418170E+04 -0.42307091920E+03 -0.59390329264E+03  0.16636916018E+04  0.95000000000E+03 0.  0.
<mgrwt>
<rscale>  0 0.31441656E+04</rscale>
<asrwt>0</asrwt>
<pdfrwt beam="2">  1        2 0.40905976E+00 0.31441656E+04</pdfrwt>
<pdfrwt beam="1">  1       -2 0.14300043E+00 0.31441656E+04</pdfrwt>
<totfact> 0.80730257E-01</totfact>
</mgrwt>
</event>
<event>
 4    1  0.1321115E-008  0.2104460E+04  0.7816531E-02  0.8559281E-01
          1   -1    0    0  501    0  0.00000000000E+00  0.00000000000E+00  0.27789800255E+04  0.27789800255E+04  0.00000000000E+00 0.  1.
         -1   -1    0    0    0  501 -0.00000000000E+00 -0.00000000000E+00 -0.39841520245E+03  0.39841520245E+03  0.00000000000E+00 0. -1.
    2000013    1    1    2    0    0 -0.15988747664E+03 -0.37919451307E+03  0.90646723166E+03  0.13760578934E+04  0.95000000000E+03 0.  0.
   -2000013    1    1    2    0    0  0.15988747664E+03  0.37919451307E+03  0.14740975914E+04  0.18013373346E+04  0.95000000000E+03 0.  0.
<mgrwt>
<rscale>  0 0.21044599E+04</rscale>
<asrwt>0</asrwt>
<pdfrwt beam="1">  1        1 0.42753538E+00 0.21044599E+04</pdfrwt>
<pdfrwt beam="2">  1       -1 0.61294648E-01 0.21044599E+04</pdfrwt>
<totfact> 0.21424756E+00</totfact>
</mgrwt>
</event>
<event>
 4    1  0.1321115E-008  0.1996456E+04  0.7816531E-02  0.8608279E-01
         -2   -1    0    0    0  501 -0.00000000000E+00  0.00000000000E+00  0.54554636364E+03  0.54554636364E+03  0.00000000000E+00 0.  1.
          2   -1    0    0  501    0  0.00000000000E+00 -0.00000000000E+00 -0.18265345261E+04  0.18265345261E+04  0.00000000000E+00 0. -1.
    2000013    1    1    2    0    0 -0.33835004041E+02 -0.11281177995E+03 -0.30425100607E+03  0.10044600439E+04  0.95000000000E+03 0.  0.
   -2000013    1    1    2    0    0  0.33835004041E+02  0.11281177995E+03 -0.97673715641E+03  0.13676208458E+04  0.95000000000E+03 0.  0.
<mgrwt>
<rscale>  0 0.19964561E+04</rscale>
<asrwt>0</asrwt>
<pdfrwt beam="2">  1        2 0.28100531E+00 0.19964561E+04</pdfrwt>
<pdfrwt beam="1">  1       -2 0.83930210E-01 0.19964561E+04</pdfrwt>
<totfact> 0.96124632E+00</totfact>
</mgrwt>
</event>
<event>
 4    1  0.1321115E-008  0.2690251E+04  0.7816531E-02  0.8338175E-01
          2   -1    0    0  501    0  0.00000000000E+00  0.00000000000E+00  0.32213115250E+04  0.32213115250E+04  0.00000000000E+00 0.  1.
         -2   -1    0    0    0  501 -0.00000000000E+00 -0.00000000000E+00 -0.56168499072E+03  0.56168499072E+03  0.00000000000E+00 0. -1.
    2000013    1    1    2    0    0 -0.90682434490E+03 -0.23479462282E+03  0.15709382144E+04  0.20610205678E+04  0.95000000000E+03 0.  0.
   -2000013    1    1    2    0    0  0.90682434490E+03  0.23479462282E+03  0.10886883199E+04  0.17219759479E+04  0.95000000000E+03 0.  0.
<mgrwt>
<rscale>  0 0.26902508E+04</rscale>
<asrwt>0</asrwt>
<pdfrwt beam="1">  1        2 0.49558638E+00 0.26902508E+04</pdfrwt>
<pdfrwt beam="2">  1       -2 0.86413077E-01 0.26902508E+04</pdfrwt>
<totfact> 0.12792330E+00</totfact>
</mgrwt>
</event>
<event>
 4    1  0.1321115E-008  0.1912858E+04  0.7816531E-02  0.8648483E-01
         -2   -1    0    0    0  501 -0.00000000000E+00  0.00000000000E+00  0.58595472105E+03  0.58595472105E+03  0.00000000000E+00 0. -1.
          2   -1    0    0  501    0  0.00000000000E+00 -0.00000000000E+00 -0.15611379633E+04  0.15611379633E+04  0.00000000000E+00 0.  1.
    2000013    1    1    2    0    0 -0.34717222821E+02  0.97251750477E+02 -0.53239101060E+03  0.10938936771E+04  0.95000000000E+03 0.  0.
   -2000013    1    1    2    0    0  0.34717222821E+02 -0.97251750477E+02 -0.44279223164E+03  0.10531990073E+04  0.95000000000E+03 0.  0.
<mgrwt>
<rscale>  0 0.19128577E+04</rscale>
<asrwt>0</asrwt>
<pdfrwt beam="2">  1        2 0.24017507E+00 0.19128577E+04</pdfrwt>
<pdfrwt beam="1">  1       -2 0.90146882E-01 0.19128577E+04</pdfrwt>
<totfact> 0.11550756E+01</totfact>
</mgrwt>
</event>
<event>
 4    1  0.1321115E-008  0.2500754E+04  0.7816531E-02  0.8402717E-01
         -2   -1    0    0    0  501 -0.00000000000E+00  0.00000000000E+00  0.33421249521E+04  0.33421249521E+04  0.00000000000E+00 0. -1.
          2   -1    0    0  501    0  0.00000000000E+00 -0.00000000000E+00 -0.46779906088E+03  0.46779906088E+03  0.00000000000E+00 0.  1.
    2000013    1    1    2    0    0  0.67583321095E+03 -0.41351440227E+03  0.11595736405E+04  0.16955399487E+04  0.95000000000E+03 0.  0.
   -2000013    1    1    2    0    0 -0.67583321095E+03  0.41351440227E+03  0.17147522507E+04  0.21143840643E+04  0.95000000000E+03 0.  0.
<mgrwt>
<rscale>  0 0.25007542E+04</rscale>
<asrwt>0</asrwt>
<pdfrwt beam="2">  1        2 0.71969088E-01 0.25007542E+04</pdfrwt>
<pdfrwt beam="1">  1       -2 0.51417306E+00 0.25007542E+04</pdfrwt>
<totfact> 0.79760963E-02</totfact>
</mgrwt>
</event>
<event>
 4    1  0.1321115E-008  0.2780344E+04  0.7816531E-02  0.8309397E-01
          1   -1    0    0  501    0  0.00000000000E+00  0.00000000000E+00  0.38403870619E+04  0.38403870619E+04  0.00000000000E+00 0.  1.
         -1   -1    0    0    0  501 -0.00000000000E+00 -0.00000000000E+00 -0.50322496630E+03  0.50322496630E+03  0.00000000000E+00 0. -1.
    2000013    1    1    2    0    0  0.39033433632E+03  0.35372771695E+03  0.30238732847E+04  0.32130661111E+04  0.95000000000E+03 0.  0.
   -2000013    1    1    2    0    0 -0.39033433632E+03 -0.35372771695E+03  0.31328881090E+03  0.11305459172E+04  0.95000000000E+03 0.  0.
<mgrwt>
<rscale>  0 0.27803443E+04</rscale>
<asrwt>0</asrwt>
<pdfrwt beam="1">  1        1 0.59082876E+00 0.27803443E+04</pdfrwt>
<pdfrwt beam="2">  1       -1 0.77419228E-01 0.27803443E+04</pdfrwt>
<totfact> 0.19115090E-01</totfact>
</mgrwt>
</event>
<event>
 4    1  0.1321115E-008  0.2036786E+04  0.7816531E-02  0.8589612E-01
         -2   -1    0    0    0  501 -0.00000000000E+00  0.00000000000E+00  0.89134190907E+03  0.89134190907E+03  0.00000000000E+00 0. -1.
          2   -1    0    0  501    0  0.00000000000E+00 -0.00000000000E+00 -0.11635543850E+04  0.11635543850E+04  0.00000000000E+00 0.  1.
    2000013    1    1    2    0    0  0.78980038856E+02  0.30740148459E+03  0.49626436453E+02  0.10028441068E+04  0.95000000000E+03 0.  0.
   -2000013    1    1    2    0    0 -0.78980038856E+02 -0.30740148459E+03 -0.32183891236E+03  0.10520521873E+04  0.95000000000E+03 0.  0.
<mgrwt>
<rscale>  0 0.20367865E+04</rscale>
<asrwt>0</asrwt>
<pdfrwt beam="2">  1        2 0.17900837E+00 0.20367865E+04</pdfrwt>
<pdfrwt beam="1">  1       -2 0.13712953E+00 0.20367865E+04</pdfrwt>
<totfact> 0.69942653E+00</totfact>
</mgrwt>
</event>
<event>
 4    1  0.1321115E-008  0.3572704E+04  0.7816531E-02  0.8096773E-01
         -2   -1    0    0    0  501 -0.00000000000E+00  0.00000000000E+00  0.10219869755E+04  0.10219869755E+04  0.00000000000E+00 0. -1.
          2   -1    0    0  501    0  0.00000000000E+00 -0.00000000000E+00 -0.31224015287E+04  0.31224015287E+04  0.00000000000E+00 0.  1.
    2000013    1    1    2    0    0 -0.97710304276E+03  0.70456396142E+03  0.11325109174E+02  0.15341997882E+04  0.95000000000E+03 0.  0.
   -2000013    1    1    2    0    0  0.97710304276E+03 -0.70456396142E+03 -0.21117396624E+04  0.26101887161E+04  0.95000000000E+03 0.  0.
<mgrwt>
<rscale>  0 0.35727041E+04</rscale>
<asrwt>0</asrwt>
<pdfrwt beam="2">  1        2 0.48036947E+00 0.35727041E+04</pdfrwt>
<pdfrwt beam="1">  1       -2 0.15722877E+00 0.35727041E+04</pdfrwt>
<totfact> 0.31384363E-01</totfact>
</mgrwt>
</event>
<event>
 4    1  0.1321115E-008  0.3549900E+04  0.7816531E-02  0.8102065E-01
         -2   -1    0    0    0  501 -0.00000000000E+00  0.00000000000E+00  0.13768304977E+04  0.13768304977E+04  0.00000000000E+00 0. -1.
          2   -1    0    0  501    0  0.00000000000E+00 -0.00000000000E+00 -0.22881878799E+04  0.22881878799E+04  0.00000000000E+00 0.  1.
    2000013    1    1    2    0    0 -0.68658176852E+03  0.74185799398E+03 -0.15989270048E+04  0.21167936543E+04  0.95000000000E+03 0.  0.
   -2000013    1    1    2    0    0  0.68658176852E+03 -0.74185799398E+03  0.68756962265E+03  0.15482247234E+04  0.95000000000E+03 0.  0.
<mgrwt>
<rscale>  0 0.35498996E+04</rscale>
<asrwt>0</asrwt>
<pdfrwt beam="2">  1        2 0.35202890E+00 0.35498996E+04</pdfrwt>
<pdfrwt beam="1">  1       -2 0.21182008E+00 0.35498996E+04</pdfrwt>
<totfact> 0.41997943E-01</totfact>
</mgrwt>
</event>
<event>
 4    1  0.1321115E-008  0.3186208E+04  0.7816531E-02  0.8192469E-01
          1   -1    0    0  501    0  0.00000000000E+00  0.00000000000E+00  0.28872165081E+04  0.28872165081E+04  0.00000000000E+00 0.  1.
         -1   -1    0    0    0  501 -0.00000000000E+00 -0.00000000000E+00 -0.87904059837E+03  0.87904059837E+03  0.00000000000E+00 0. -1.
    2000013    1    1    2    0    0 -0.48269452981E+03 -0.59359625395E+03  0.22154036920E+04  0.25290045552E+04  0.95000000000E+03 0.  0.
   -2000013    1    1    2    0    0  0.48269452981E+03  0.59359625395E+03 -0.20722778227E+03  0.12372525512E+04  0.95000000000E+03 0.  0.
<mgrwt>
<rscale>  0 0.31862081E+04</rscale>
<asrwt>0</asrwt>
<pdfrwt beam="1">  1        1 0.44418715E+00 0.31862081E+04</pdfrwt>
<pdfrwt beam="2">  1       -1 0.13523702E+00 0.31862081E+04</pdfrwt>
<totfact> 0.27699439E-01</totfact>
</mgrwt>
</event>
<event>
 4    1  0.1321115E-008  0.2268102E+04  0.7816531E-02  0.8490605E-01
         -1   -1    0    0    0  501 -0.00000000000E+00  0.00000000000E+00  0.11210193952E+04  0.11210193952E+04  0.00000000000E+00 0. -1.
          1   -1    0    0  501    0  0.00000000000E+00 -0.00000000000E+00 -0.11472340042E+04  0.11472340042E+04  0.00000000000E+00 0.  1.
    2000013    1    1    2    0    0  0.10993172724E+03  0.58674164028E+03 -0.17810569485E+03  0.11360336155E+04  0.95000000000E+03 0.  0.
   -2000013    1    1    2    0    0 -0.10993172724E+03 -0.58674164028E+03  0.15189108587E+03  0.11322197839E+04  0.95000000000E+03 0.  0.
<mgrwt>
<rscale>  0 0.22681019E+04</rscale>
<asrwt>0</asrwt>
<pdfrwt beam="2">  1        1 0.17649754E+00 0.22681019E+04</pdfrwt>
<pdfrwt beam="1">  1       -1 0.17246452E+00 0.22681019E+04</pdfrwt>
<totfact> 0.25004795E+00</totfact>
</mgrwt>
</event>
<event>
 4    1  0.1321115E-008  0.2560241E+04  0.7816531E-02  0.8381833E-01
         -2   -1    0    0    0  501 -0.00000000000E+00  0.00000000000E+00  0.51317112368E+03  0.51317112368E+03  0.00000000000E+00 0. -1.
          2   -1    0    0  501    0  0.00000000000E+00 -0.00000000000E+00 -0.31932975196E+04  0.31932975196E+04  0.00000000000E+00 0.  1.
    2000013    1    1    2    0    0 -0.73864006932E+03 -0.33527913873E+03 -0.17449203922E+04  0.21459842562E+04  0.95000000000E+03 0.  0.
   -2000013    1    1    2    0    0  0.73864006932E+03  0.33527913873E+03 -0.93520600376E+03  0.15604843871E+04  0.95000000000E+03 0.  0.
<mgrwt>
<rscale>  0 0.25602407E+04</rscale>
<asrwt>0</asrwt>
<pdfrwt beam="2">  1        2 0.49127654E+00 0.25602407E+04</pdfrwt>
<pdfrwt beam="1">  1       -2 0.78949405E-01 0.25602407E+04</pdfrwt>
<totfact> 0.16558195E+00</totfact>
</mgrwt>
</event>
<event>
 4    1  0.1321115E-008  0.2113562E+04  0.7816531E-02  0.8555293E-01
         -1   -1    0    0    0  501 -0.00000000000E+00  0.00000000000E+00  0.75513248220E+03  0.75513248220E+03  0.00000000000E+00 0.  1.
          1   -1    0    0  501    0  0.00000000000E+00 -0.00000000000E+00 -0.14789274079E+04  0.14789274079E+04  0.00000000000E+00 0. -1.
    2000013    1    1    2    0    0  0.42389231519E+03  0.15368341275E+03 -0.25112364990E+03  0.10811412367E+04  0.95000000000E+03 0.  0.
   -2000013    1    1    2    0    0 -0.42389231519E+03 -0.15368341275E+03 -0.47267127576E+03  0.11529186533E+04  0.95000000000E+03 0.  0.
<mgrwt>
<rscale>  0 0.21135620E+04</rscale>
<asrwt>0</asrwt>
<pdfrwt beam="2">  1        1 0.22752729E+00 0.21135620E+04</pdfrwt>
<pdfrwt beam="1">  1       -1 0.11617423E+00 0.21135620E+04</pdfrwt>
<totfact> 0.41630659E+00</totfact>
</mgrwt>
</event>
<event>
 4    1  0.1321115E-008  0.2176148E+04  0.7816531E-02  0.8528422E-01
          2   -1    0    0  501    0  0.00000000000E+00  0.00000000000E+00  0.11193239226E+04  0.11193239226E+04  0.00000000000E+00 0.  1.
         -2   -1    0    0    0  501 -0.00000000000E+00 -0.00000000000E+00 -0.10576965632E+04  0.10576965632E+04  0.00000000000E+00 0. -1.
    2000013    1    1    2    0    0 -0.45120636899E+03 -0.22085530838E+03 -0.13966828980E+03  0.10836842187E+04  0.95000000000E+03 0.  0.
   -2000013    1    1    2    0    0  0.45120636899E+03  0.22085530838E+03  0.20129564919E+03  0.10933362671E+04  0.95000000000E+03 0.  0.
<mgrwt>
<rscale>  0 0.21761480E+04</rscale>
<asrwt>0</asrwt>
<pdfrwt beam="1">  1        2 0.17220368E+00 0.21761480E+04</pdfrwt>
<pdfrwt beam="2">  1       -2 0.16272255E+00 0.21761480E+04</pdfrwt>
<totfact> 0.46694419E+00</totfact>
</mgrwt>
</event>
<event>
 4    1  0.1321115E-008  0.2625279E+04  0.7816531E-02  0.8359665E-01
         -2   -1    0    0    0  501 -0.00000000000E+00  0.00000000000E+00  0.16140316004E+04  0.16140316004E+04  0.00000000000E+00 0. -1.
          2   -1    0    0  501    0  0.00000000000E+00 -0.00000000000E+00 -0.10675267448E+04  0.10675267448E+04  0.00000000000E+00 0.  1.
    2000013    1    1    2    0    0  0.79651650002E+03  0.39198819848E+03  0.45719238264E+03  0.13782663593E+04  0.95000000000E+03 0.  0.
   -2000013    1    1    2    0    0 -0.79651650002E+03 -0.39198819848E+03  0.89312472907E+02  0.13032919858E+04  0.95000000000E+03 0.  0.
<mgrwt>
<rscale>  0 0.26252786E+04</rscale>
<asrwt>0</asrwt>
<pdfrwt beam="2">  1        2 0.16423488E+00 0.26252786E+04</pdfrwt>
<pdfrwt beam="1">  1       -2 0.24831255E+00 0.26252786E+04</pdfrwt>
<totfact> 0.13258782E+00</totfact>
</mgrwt>
</event>
<event>
 4    1  0.1321115E-008  0.2865440E+04  0.7816531E-02  0.8283235E-01
          2   -1    0    0  501    0  0.00000000000E+00  0.00000000000E+00  0.24326097668E+04  0.24326097668E+04  0.00000000000E+00 0.  1.
         -2   -1    0    0    0  501 -0.00000000000E+00 -0.00000000000E+00 -0.84382048844E+03  0.84382048844E+03  0.00000000000E+00 0. -1.
    2000013    1    1    2    0    0 -0.99872879816E+02  0.79784494518E+03 -0.17082277027E+02  0.12447180214E+04  0.95000000000E+03 0.  0.
   -2000013    1    1    2    0    0  0.99872879816E+02 -0.79784494518E+03  0.16058715554E+04  0.20317122339E+04  0.95000000000E+03 0.  0.
<mgrwt>
<rscale>  0 0.28654396E+04</rscale>
<asrwt>0</asrwt>
<pdfrwt beam="1">  1        2 0.37424765E+00 0.28654396E+04</pdfrwt>
<pdfrwt beam="2">  1       -2 0.12981854E+00 0.28654396E+04</pdfrwt>
<totfact> 0.14360746E+00</totfact>
</mgrwt>
</event>
<event>
 4    1  0.1321115E-008  0.1987191E+04  0.7816531E-02  0.8612633E-01
          2   -1    0    0  501    0  0.00000000000E+00  0.00000000000E+00  0.22290868829E+04  0.22290868829E+04  0.00000000000E+00 0.  1.
         -2   -1    0    0    0  501 -0.00000000000E+00 -0.00000000000E+00 -0.44288650687E+03  0.44288650687E+03  0.00000000000E+00 0. -1.
    2000013    1    1    2    0    0  0.21703782589E+03 -0.18989785032E+03  0.83989263792E+03  0.13004177231E+04  0.95000000000E+03 0.  0.
   -2000013    1    1    2    0    0 -0.21703782589E+03  0.18989785032E+03  0.94630773809E+03  0.13715556666E+04  0.95000000000E+03 0.  0.
<mgrwt>
<rscale>  0 0.19871915E+04</rscale>
<asrwt>0</asrwt>
<pdfrwt beam="1">  1        2 0.34293644E+00 0.19871915E+04</pdfrwt>
<pdfrwt beam="2">  1       -2 0.68136387E-01 0.19871915E+04</pdfrwt>
<totfact> 0.91183109E+00</totfact>
</mgrwt>
</event>
<event>
 4    1  0.1321115E-008  0.2332169E+04  0.7816531E-02  0.8465344E-01
         -2   -1    0    0    0  501 -0.00000000000E+00  0.00000000000E+00  0.85400710144E+03  0.85400710144E+03  0.00000000000E+00 0. -1.
          2   -1    0    0  501    0  0.00000000000E+00 -0.00000000000E+00 -0.15922041223E+04  0.15922041223E+04  0.00000000000E+00 0.  1.
    2000013    1    1    2    0    0 -0.66677110222E+03 -0.12917254452E+01 -0.48715565182E+03  0.12587319017E+04  0.95000000000E+03 0.  0.
   -2000013    1    1    2    0    0  0.66677110222E+03  0.12917254452E+01 -0.25104136908E+03  0.11874793221E+04  0.95000000000E+03 0.  0.
<mgrwt>
<rscale>  0 0.23321695E+04</rscale>
<asrwt>0</asrwt>
<pdfrwt beam="2">  1        2 0.24495448E+00 0.23321695E+04</pdfrwt>
<pdfrwt beam="1">  1       -2 0.13138571E+00 0.23321695E+04</pdfrwt>
<totfact> 0.43069891E+00</totfact>
</mgrwt>
</event>
<event>
 4    1  0.1321115E-008  0.1971437E+04  0.7816531E-02  0.8620092E-01
          2   -1    0    0  501    0  0.00000000000E+00  0.00000000000E+00  0.59649758641E+03  0.59649758641E+03  0.00000000000E+00 0.  1.
         -2   -1    0    0    0  501 -0.00000000000E+00 -0.00000000000E+00 -0.16289104270E+04  0.16289104270E+04  0.00000000000E+00 0. -1.
    2000013    1    1    2    0    0  0.22964207899E+03  0.69772608065E+02 -0.63745631611E+03  0.11689543431E+04  0.95000000000E+03 0.  0.
   -2000013    1    1    2    0    0 -0.22964207899E+03 -0.69772608065E+02 -0.39495652446E+03  0.10564536703E+04  0.95000000000E+03 0.  0.
<mgrwt>
<rscale>  0 0.19714372E+04</rscale>
<asrwt>0</asrwt>
<pdfrwt beam="1">  1        2 0.91768861E-01 0.19714372E+04</pdfrwt>
<pdfrwt beam="2">  1       -2 0.25060160E+00 0.19714372E+04</pdfrwt>
<totfact> 0.29631384E+00</totfact>
</mgrwt>
</event>
<event>
 4    1  0.1321115E-008  0.3153718E+04  0.7816531E-02  0.8201148E-01
          2   -1    0    0  501    0  0.00000000000E+00  0.00000000000E+00  0.26012152968E+04  0.26012152968E+04  0.00000000000E+00 0.  1.
         -2   -1    0    0    0  501 -0.00000000000E+00 -0.00000000000E+00 -0.95589318663E+03  0.95589318663E+03  0.00000000000E+00 0. -1.
    2000013    1    1    2    0    0  0.12502834074E+04  0.11420693675E+03  0.72348094568E+03  0.17326789957E+04  0.95000000000E+03 0.  0.
   -2000013    1    1    2    0    0 -0.12502834074E+04 -0.11420693675E+03  0.92184116447E+03  0.18244294877E+04  0.95000000000E+03 0.  0.
<mgrwt>
<rscale>  0 0.31537178E+04</rscale>
<asrwt>0</asrwt>
<pdfrwt beam="1">  1        2 0.40018697E+00 0.31537178E+04</pdfrwt>
<pdfrwt beam="2">  1       -2 0.14706049E+00 0.31537178E+04</pdfrwt>
<totfact> 0.81059886E-01</totfact>
</mgrwt>
</event>
<event>
 4    1  0.1321115E-008  0.2180036E+04  0.7816531E-02  0.8526784E-01
          2   -1    0    0  501    0  0.00000000000E+00  0.00000000000E+00  0.24201995552E+04  0.24201995552E+04  0.00000000000E+00 0.  1.
         -2   -1    0    0    0  501 -0.00000000000E+00 -0.00000000000E+00 -0.49092601427E+03  0.49092601427E+03  0.00000000000E+00 0. -1.
    2000013    1    1    2    0    0  0.41475885742E+03  0.31431922713E+03  0.80208794059E+03  0.13478377316E+04  0.95000000000E+03 0.  0.
   -2000013    1    1    2    0    0 -0.41475885742E+03 -0.31431922713E+03  0.11271856004E+04  0.15632878379E+04  0.95000000000E+03 0.  0.
<mgrwt>
<rscale>  0 0.21800357E+04</rscale>
<asrwt>0</asrwt>
<pdfrwt beam="1">  1        2 0.37233839E+00 0.21800357E+04</pdfrwt>
<pdfrwt beam="2">  1       -2 0.75527080E-01 0.21800357E+04</pdfrwt>
<totfact> 0.55716730E+00</totfact>
</mgrwt>
</event>
<event>
 4    1  0.1321115E-008  0.2127012E+04  0.7816531E-02  0.8549437E-01
         -2   -1    0    0    0  501 -0.00000000000E+00  0.00000000000E+00  0.50531289277E+03  0.50531289277E+03  0.00000000000E+00 0. -1.
          2   -1    0    0  501    0  0.00000000000E+00 -0.00000000000E+00 -0.22383058864E+04  0.22383058864E+04  0.00000000000E+00 0.  1.
    2000013    1    1    2    0    0 -0.47169679789E+03  0.11715684086E+02 -0.76733651639E+03  0.13091754870E+04  0.95000000000E+03 0.  0.
   -2000013    1    1    2    0    0  0.47169679789E+03 -0.11715684086E+02 -0.96565647722E+03  0.14344432921E+04  0.95000000000E+03 0.  0.
<mgrwt>
<rscale>  0 0.21270118E+04</rscale>
<asrwt>0</asrwt>
<pdfrwt beam="2">  1        2 0.34435475E+00 0.21270118E+04</pdfrwt>
<pdfrwt beam="1">  1       -2 0.77740446E-01 0.21270118E+04</pdfrwt>
<totfact> 0.66594069E+00</totfact>
</mgrwt>
</event>
<event>
 4    1  0.1321115E-008  0.3052691E+04  0.7816531E-02  0.8228843E-01
         -2   -1    0    0    0  501 -0.00000000000E+00  0.00000000000E+00  0.52367080101E+03  0.52367080101E+03  0.00000000000E+00 0. -1.
          2   -1    0    0  501    0  0.00000000000E+00 -0.00000000000E+00 -0.44488450406E+04  0.44488450406E+04  0.00000000000E+00 0.  1.
    2000013    1    1    2    0    0  0.42725296548E+03  0.11156533802E+04 -0.19652560344E+04  0.24883646923E+04  0.95000000000E+03 0.  0.
   -2000013    1    1    2    0    0 -0.42725296548E+03 -0.11156533802E+04 -0.19599182052E+04  0.24841511493E+04  0.95000000000E+03 0.  0.
<mgrwt>
<rscale>  0 0.30526908E+04</rscale>
<asrwt>0</asrwt>
<pdfrwt beam="2">  1        2 0.68443768E+00 0.30526908E+04</pdfrwt>
<pdfrwt beam="1">  1       -2 0.80564740E-01 0.30526908E+04</pdfrwt>
<totfact> 0.15977186E-01</totfact>
</mgrwt>
</event>
<event>
 4    1  0.1321115E-008  0.2390158E+04  0.7816531E-02  0.8443197E-01
          2   -1    0    0  501    0  0.00000000000E+00  0.00000000000E+00  0.13112500428E+04  0.13112500428E+04  0.00000000000E+00 0.  1.
         -2   -1    0    0    0  501 -0.00000000000E+00 -0.00000000000E+00 -0.10892001335E+04  0.10892001335E+04  0.00000000000E+00 0. -1.
    2000013    1    1    2    0    0  0.51102296065E+03  0.41249677267E+03 -0.19756951208E+03  0.11716790371E+04  0.95000000000E+03 0.  0.
   -2000013    1    1    2    0    0 -0.51102296065E+03 -0.41249677267E+03  0.41961942138E+03  0.12287711392E+04  0.95000000000E+03 0.  0.
<mgrwt>
<rscale>  0 0.23901579E+04</rscale>
<asrwt>0</asrwt>
<pdfrwt beam="1">  1        2 0.20173077E+00 0.23901579E+04</pdfrwt>
<pdfrwt beam="2">  1       -2 0.16756925E+00 0.23901579E+04</pdfrwt>
<totfact> 0.32512398E+00</totfact>
</mgrwt>
</event>
<event>
 4    1  0.1321115E-008  0.1924340E+04  0.7816531E-02  0.8642835E-01
          2   -1    0    0  501    0  0.00000000000E+00  0.00000000000E+00  0.78264632168E+03  0.78264632168E+03  0.00000000000E+00 0.  1.
         -2   -1    0    0    0  501 -0.00000000000E+00 -0.00000000000E+00 -0.11828727636E+04  0.11828727636E+04  0.00000000000E+00 0. -1.
    2000013    1    1    2    0    0  0.11757925004E+03 -0.97146592252E+02 -0.20312193846E+03  0.98337218911E+03  0.95000000000E+03 0.  0.
   -2000013    1    1    2    0    0 -0.11757925004E+03  0.97146592252E+02 -0.19710450350E+03  0.98214689621E+03  0.95000000000E+03 0.  0.
<mgrwt>
<rscale>  0 0.19243399E+04</rscale>
<asrwt>0</asrwt>
<pdfrwt beam="1">  1        2 0.12040713E+00 0.19243399E+04</pdfrwt>
<pdfrwt beam="2">  1       -2 0.18198043E+00 0.19243399E+04</pdfrwt>
<totfact> 0.58215974E+00</totfact>
</mgrwt>
</event>
<event>
 4    1  0.1321115E-008  0.2980298E+04  0.7816531E-02  0.8249379E-01
         -2   -1    0    0    0  501 -0.00000000000E+00  0.00000000000E+00  0.11223407120E+04  0.11223407120E+04  0.00000000000E+00 0. -1.
          2   -1    0    0  501    0  0.00000000000E+00 -0.00000000000E+00 -0.19784941398E+04  0.19784941398E+04  0.00000000000E+00 0.  1.
    2000013    1    1    2    0    0  0.10645397161E+04 -0.42361841535E+03 -0.50415840974E+03  0.15714238992E+04  0.95000000000E+03 0.  0.
   -2000013    1    1    2    0    0 -0.10645397161E+04  0.42361841535E+03 -0.35199501806E+03  0.15294109525E+04  0.95000000000E+03 0.  0.
<mgrwt>
<rscale>  0 0.29802983E+04</rscale>
<asrwt>0</asrwt>
<pdfrwt beam="2">  1        2 0.30438372E+00 0.29802983E+04</pdfrwt>
<pdfrwt beam="1">  1       -2 0.17266780E+00 0.29802983E+04</pdfrwt>
<totfact> 0.12016817E+00</totfact>
</mgrwt>
</event>
<event>
 4    1  0.1321115E-008  0.2062164E+04  0.7816531E-02  0.8578096E-01
         -1   -1    0    0    0  501 -0.00000000000E+00  0.00000000000E+00  0.69285792518E+03  0.69285792518E+03  0.00000000000E+00 0.  1.
          1   -1    0    0  501    0  0.00000000000E+00 -0.00000000000E+00 -0.15344132952E+04  0.15344132952E+04  0.00000000000E+00 0. -1.
    2000013    1    1    2    0    0  0.21117663313E+03 -0.26954086973E+03 -0.64573878816E+03  0.11986352378E+04  0.95000000000E+03 0.  0.
   -2000013    1    1    2    0    0 -0.21117663313E+03  0.26954086973E+03 -0.19581658184E+03  0.10286359825E+04  0.95000000000E+03 0.  0.
<mgrwt>
<rscale>  0 0.20621643E+04</rscale>
<asrwt>0</asrwt>
<pdfrwt beam="2">  1        1 0.23606358E+00 0.20621643E+04</pdfrwt>
<pdfrwt beam="1">  1       -1 0.10659353E+00 0.20621643E+04</pdfrwt>
<totfact> 0.46957715E+00</totfact>
</mgrwt>
</event>
<event>
 4    1  0.1321115E-008  0.4026269E+04  0.7816531E-02  0.7999268E-01
         -2   -1    0    0    0  501 -0.00000000000E+00  0.00000000000E+00  0.13453096379E+04  0.13453096379E+04  0.00000000000E+00 0. -1.
          2   -1    0    0  501    0  0.00000000000E+00 -0.00000000000E+00 -0.30124747462E+04  0.30124747462E+04  0.00000000000E+00 0.  1.
    2000013    1    1    2    0    0 -0.28544787336E+02  0.91709797113E+03  0.81083328362E+03  0.15497851810E+04  0.95000000000E+03 0.  0.
   -2000013    1    1    2    0    0  0.28544787336E+02 -0.91709797113E+03 -0.24779983919E+04  0.28079992030E+04  0.95000000000E+03 0.  0.
<mgrwt>
<rscale>  0 0.40262694E+04</rscale>
<asrwt>0</asrwt>
<pdfrwt beam="2">  1        2 0.46345765E+00 0.40262694E+04</pdfrwt>
<pdfrwt beam="1">  1       -2 0.20697071E+00 0.40262694E+04</pdfrwt>
<totfact> 0.16114530E-01</totfact>
</mgrwt>
</event>
<event>
 4    1  0.1321115E-008  0.2552663E+04  0.7816531E-02  0.8384461E-01
         -2   -1    0    0    0  501 -0.00000000000E+00  0.00000000000E+00  0.57844006924E+03  0.57844006924E+03  0.00000000000E+00 0. -1.
          2   -1    0    0  501    0  0.00000000000E+00 -0.00000000000E+00 -0.28162337378E+04  0.28162337378E+04  0.00000000000E+00 0.  1.
    2000013    1    1    2    0    0 -0.33975670040E+03  0.51772823328E+03 -0.18977942392E+04  0.22107917391E+04  0.95000000000E+03 0.  0.
   -2000013    1    1    2    0    0  0.33975670040E+03 -0.51772823328E+03 -0.33999942934E+03  0.11838820680E+04  0.95000000000E+03 0.  0.
<mgrwt>
<rscale>  0 0.25526633E+04</rscale>
<asrwt>0</asrwt>
<pdfrwt beam="2">  1        2 0.43326672E+00 0.25526633E+04</pdfrwt>
<pdfrwt beam="1">  1       -2 0.88990782E-01 0.25526633E+04</pdfrwt>
<totfact> 0.21771279E+00</totfact>
</mgrwt>
</event>
<event>
 4    1  0.1321115E-008  0.2111792E+04  0.7816531E-02  0.8556067E-01
          2   -1    0    0  501    0  0.00000000000E+00  0.00000000000E+00  0.14675782051E+04  0.14675782051E+04  0.00000000000E+00 0.  1.
         -2   -1    0    0    0  501 -0.00000000000E+00 -0.00000000000E+00 -0.75969820725E+03  0.75969820725E+03  0.00000000000E+00 0. -1.
    2000013    1    1    2    0    0  0.23068001786E+03 -0.39873743532E+03  0.33859374714E+03  0.11087608122E+04  0.95000000000E+03 0.  0.
   -2000013    1    1    2    0    0 -0.23068001786E+03  0.39873743532E+03  0.36928625073E+03  0.11185156002E+04  0.95000000000E+03 0.  0.
<mgrwt>
<rscale>  0 0.21117922E+04</rscale>
<asrwt>0</asrwt>
<pdfrwt beam="1">  1        2 0.22578126E+00 0.21117922E+04</pdfrwt>
<pdfrwt beam="2">  1       -2 0.11687665E+00 0.21117922E+04</pdfrwt>
<totfact> 0.69105735E+00</totfact>
</mgrwt>
</event>
<event>
 4    1  0.1321115E-008  0.3344201E+04  0.7816531E-02  0.8151739E-01
         -2   -1    0    0    0  501 -0.00000000000E+00  0.00000000000E+00  0.15579019970E+04  0.15579019970E+04  0.00000000000E+00 0. -1.
          2   -1    0    0  501    0  0.00000000000E+00 -0.00000000000E+00 -0.17946702829E+04  0.17946702829E+04  0.00000000000E+00 0.  1.
    2000013    1    1    2    0    0  0.11427258045E+04  0.73771937554E+03 -0.32715594166E+03  0.16910302042E+04  0.95000000000E+03 0.  0.
   -2000013    1    1    2    0    0 -0.11427258045E+04 -0.73771937554E+03  0.90387655783E+02  0.16615420758E+04  0.95000000000E+03 0.  0.
<mgrwt>
<rscale>  0 0.33442012E+04</rscale>
<asrwt>0</asrwt>
<pdfrwt beam="2">  1        2 0.27610312E+00 0.33442012E+04</pdfrwt>
<pdfrwt beam="1">  1       -2 0.23967723E+00 0.33442012E+04</pdfrwt>
<totfact> 0.53807584E-01</totfact>
</mgrwt>
</event>
<event>
 4    1  0.1321115E-008  0.2643547E+04  0.7816531E-02  0.8353558E-01
         -2   -1    0    0    0  501 -0.00000000000E+00  0.00000000000E+00  0.37255311544E+03  0.37255311544E+03  0.00000000000E+00 0. -1.
          2   -1    0    0  501    0  0.00000000000E+00 -0.00000000000E+00 -0.46894940190E+04  0.46894940190E+04  0.00000000000E+00 0.  1.
    2000013    1    1    2    0    0  0.72759621741E+03  0.45487643773E+03 -0.15283744019E+04  0.19936742818E+04  0.95000000000E+03 0.  0.
   -2000013    1    1    2    0    0 -0.72759621741E+03 -0.45487643773E+03 -0.27885665016E+04  0.30683728527E+04  0.95000000000E+03 0.  0.
<mgrwt>
<rscale>  0 0.26435473E+04</rscale>
<asrwt>0</asrwt>
<pdfrwt beam="2">  1        2 0.72146063E+00 0.26435473E+04</pdfrwt>
<pdfrwt beam="1">  1       -2 0.57315863E-01 0.26435473E+04</pdfrwt>
<totfact> 0.19886325E-01</totfact>
</mgrwt>
</event>
<event>
 4    1  0.1321115E-008  0.4058105E+04  0.7816531E-02  0.7992926E-01
          2   -1    0    0  501    0  0.00000000000E+00  0.00000000000E+00  0.22243685742E+04  0.22243685742E+04  0.00000000000E+00 0.  1.
         -2   -1    0    0    0  501 -0.00000000000E+00 -0.00000000000E+00 -0.18508870316E+04  0.18508870316E+04  0.00000000000E+00 0. -1.
    2000013    1    1    2    0    0  0.76199952761E+03  0.39166029478E+02  0.18160579138E+04  0.21869484686E+04  0.95000000000E+03 0.  0.
   -2000013    1    1    2    0    0 -0.76199952761E+03 -0.39166029478E+02 -0.14425763711E+04  0.18883071372E+04  0.95000000000E+03 0.  0.
<mgrwt>
<rscale>  0 0.40581054E+04</rscale>
<asrwt>0</asrwt>
<pdfrwt beam="1">  1        2 0.34221055E+00 0.40581054E+04</pdfrwt>
<pdfrwt beam="2">  1       -2 0.28475185E+00 0.40581054E+04</pdfrwt>
<totfact> 0.15476058E-01</totfact>
</mgrwt>
</event>
<event>
 4    1  0.1321115E-008  0.2553669E+04  0.7816531E-02  0.8384111E-01
          2   -1    0    0  501    0  0.00000000000E+00  0.00000000000E+00  0.71968912036E+03  0.71968912036E+03  0.00000000000E+00 0.  1.
         -2   -1    0    0    0  501 -0.00000000000E+00 -0.00000000000E+00 -0.22652918561E+04  0.22652918561E+04  0.00000000000E+00 0. -1.
    2000013    1    1    2    0    0  0.27617154591E+03 -0.58996945749E+03 -0.14167270942E+04  0.18259108256E+04  0.95000000000E+03 0.  0.
   -2000013    1    1    2    0    0 -0.27617154591E+03  0.58996945749E+03 -0.12887564147E+03  0.11590701508E+04  0.95000000000E+03 0.  0.
<mgrwt>
<rscale>  0 0.25536687E+04</rscale>
<asrwt>0</asrwt>
<pdfrwt beam="1">  1        2 0.11072140E+00 0.25536687E+04</pdfrwt>
<pdfrwt beam="2">  1       -2 0.34850643E+00 0.25536687E+04</pdfrwt>
<totfact> 0.55855490E-01</totfact>
</mgrwt>
</event>
<event>
 4    1  0.1321115E-008  0.2177553E+04  0.7816531E-02  0.8527829E-01
         -2   -1    0    0    0  501 -0.00000000000E+00  0.00000000000E+00  0.40445082698E+03  0.40445082698E+03  0.00000000000E+00 0. -1.
          2   -1    0    0  501    0  0.00000000000E+00 -0.00000000000E+00 -0.29309733575E+04  0.29309733575E+04  0.00000000000E+00 0.  1.
    2000013    1    1    2    0    0 -0.88856944933E+02  0.49481607489E+03 -0.99709215042E+03  0.14660938787E+04  0.95000000000E+03 0.  0.
   -2000013    1    1    2    0    0  0.88856944933E+02 -0.49481607489E+03 -0.15294303801E+04  0.18693303058E+04  0.95000000000E+03 0.  0.
<mgrwt>
<rscale>  0 0.21775533E+04</rscale>
<asrwt>0</asrwt>
<pdfrwt beam="2">  1        2 0.45091898E+00 0.21775533E+04</pdfrwt>
<pdfrwt beam="1">  1       -2 0.62223204E-01 0.21775533E+04</pdfrwt>
<totfact> 0.42249905E+00</totfact>
</mgrwt>
</event>
<event>
 4    1  0.1321115E-008  0.3342049E+04  0.7816531E-02  0.8152278E-01
          2   -1    0    0  501    0  0.00000000000E+00  0.00000000000E+00  0.16147938509E+04  0.16147938509E+04  0.00000000000E+00 0.  1.
         -2   -1    0    0    0  501 -0.00000000000E+00 -0.00000000000E+00 -0.17292136425E+04  0.17292136425E+04  0.00000000000E+00 0. -1.
    2000013    1    1    2    0    0  0.84710762644E+03  0.10767110566E+04 -0.17096699183E+03  0.16758961013E+04  0.95000000000E+03 0.  0.
   -2000013    1    1    2    0    0 -0.84710762644E+03 -0.10767110566E+04  0.56547200248E+02  0.16681113920E+04  0.95000000000E+03 0.  0.
<mgrwt>
<rscale>  0 0.33420494E+04</rscale>
<asrwt>0</asrwt>
<pdfrwt beam="1">  1        2 0.24842982E+00 0.33420494E+04</pdfrwt>
<pdfrwt beam="2">  1       -2 0.26603287E+00 0.33420494E+04</pdfrwt>
<totfact> 0.46673653E-01</totfact>
</mgrwt>
</event>
<event>
 4    1  0.1321115E-008  0.2863633E+04  0.7816531E-02  0.8283781E-01
          2   -1    0    0  501    0  0.00000000000E+00  0.00000000000E+00  0.25106123006E+04  0.25106123006E+04  0.00000000000E+00 0.  1.
         -2   -1    0    0    0  501 -0.00000000000E+00 -0.00000000000E+00 -0.81657326835E+03  0.81657326835E+03  0.00000000000E+00 0. -1.
    2000013    1    1    2    0    0  0.86645151380E+03  0.83374111457E+01  0.15789007527E+04  0.20362306660E+04  0.95000000000E+03 0.  0.
   -2000013    1    1    2    0    0 -0.86645151380E+03 -0.83374111457E+01  0.11513827959E+03  0.12909549030E+04  0.95000000000E+03 0.  0.
<mgrwt>
<rscale>  0 0.28636333E+04</rscale>
<asrwt>0</asrwt>
<pdfrwt beam="1">  1        2 0.38624804E+00 0.28636333E+04</pdfrwt>
<pdfrwt beam="2">  1       -2 0.12562666E+00 0.28636333E+04</pdfrwt>
<totfact> 0.14063908E+00</totfact>
</mgrwt>
</event>
<event>
 4    1  0.1321115E-008  0.2698793E+04  0.7816531E-02  0.8335397E-01
         -2   -1    0    0    0  501 -0.00000000000E+00  0.00000000000E+00  0.84815859424E+03  0.84815859424E+03  0.00000000000E+00 0. -1.
          2   -1    0    0  501    0  0.00000000000E+00 -0.00000000000E+00 -0.21468524422E+04  0.21468524422E+04  0.00000000000E+00 0.  1.
    2000013    1    1    2    0    0 -0.12421082362E+03  0.86841878930E+03 -0.10774204190E+04  0.16831263416E+04  0.95000000000E+03 0.  0.
   -2000013    1    1    2    0    0  0.12421082362E+03 -0.86841878930E+03 -0.22127342891E+03  0.13118846949E+04  0.95000000000E+03 0.  0.
<mgrwt>
<rscale>  0 0.26987933E+04</rscale>
<asrwt>0</asrwt>
<pdfrwt beam="2">  1        2 0.33028498E+00 0.26987933E+04</pdfrwt>
<pdfrwt beam="1">  1       -2 0.13048594E+00 0.26987933E+04</pdfrwt>
<totfact> 0.20877983E+00</totfact>
</mgrwt>
</event>
<event>
 4    1  0.1321115E-008  0.2473866E+04  0.7816531E-02  0.8412356E-01
         -2   -1    0    0    0  501 -0.00000000000E+00  0.00000000000E+00  0.13583112214E+04  0.13583112214E+04  0.00000000000E+00 0. -1.
          2   -1    0    0  501    0  0.00000000000E+00 -0.00000000000E+00 -0.11264008987E+04  0.11264008987E+04  0.00000000000E+00 0.  1.
    2000013    1    1    2    0    0  0.27906968438E+03 -0.67237733433E+03 -0.19771491587E+03  0.12130796991E+04  0.95000000000E+03 0.  0.
   -2000013    1    1    2    0    0 -0.27906968438E+03  0.67237733433E+03  0.42962523863E+03  0.12716324210E+04  0.95000000000E+03 0.  0.
<mgrwt>
<rscale>  0 0.24738658E+04</rscale>
<asrwt>0</asrwt>
<pdfrwt beam="2">  1        2 0.17329245E+00 0.24738658E+04</pdfrwt>
<pdfrwt beam="1">  1       -2 0.20897096E+00 0.24738658E+04</pdfrwt>
<totfact> 0.21807636E+00</totfact>
</mgrwt>
</event>
<event>
 4    1  0.1321115E-008  0.3028649E+04  0.7816531E-02  0.8235597E-01
          2   -1    0    0  501    0  0.00000000000E+00  0.00000000000E+00  0.23729663183E+04  0.23729663183E+04  0.00000000000E+00 0.  1.
         -2   -1    0    0    0  501 -0.00000000000E+00 -0.00000000000E+00 -0.96637621125E+03  0.96637621125E+03  0.00000000000E+00 0. -1.
    2000013    1    1    2    0    0 -0.84560375203E+03  0.70984768865E+03  0.11602347277E+04  0.18621423334E+04  0.95000000000E+03 0.  0.
   -2000013    1    1    2    0    0  0.84560375203E+03 -0.70984768865E+03  0.24635537933E+03  0.14772001961E+04  0.95000000000E+03 0.  0.
<mgrwt>
<rscale>  0 0.30286487E+04</rscale>
<asrwt>0</asrwt>
<pdfrwt beam="1">  1        2 0.36507174E+00 0.30286487E+04</pdfrwt>
<pdfrwt beam="2">  1       -2 0.14867326E+00 0.30286487E+04</pdfrwt>
<totfact> 0.10791309E+00</totfact>
</mgrwt>
</event>
<event>
 4    1  0.1321115E-008  0.2102956E+04  0.7816531E-02  0.8559942E-01
         -2   -1    0    0    0  501 -0.00000000000E+00  0.00000000000E+00  0.67370784782E+03  0.67370784782E+03  0.00000000000E+00 0. -1.
          2   -1    0    0  501    0  0.00000000000E+00 -0.00000000000E+00 -0.16410769995E+04  0.16410769995E+04  0.00000000000E+00 0.  1.
    2000013    1    1    2    0    0 -0.37345217675E+03 -0.18002140402E+03 -0.28915673126E+03  0.10760975093E+04  0.95000000000E+03 0.  0.
   -2000013    1    1    2    0    0  0.37345217675E+03  0.18002140402E+03 -0.67821242042E+03  0.12386873380E+04  0.95000000000E+03 0.  0.
<mgrwt>
<rscale>  0 0.21029564E+04</rscale>
<asrwt>0</asrwt>
<pdfrwt beam="2">  1        2 0.25247338E+00 0.21029564E+04</pdfrwt>
<pdfrwt beam="1">  1       -2 0.10364736E+00 0.21029564E+04</pdfrwt>
<totfact> 0.73905723E+00</totfact>
</mgrwt>
</event>
<event>
 4    1  0.1321115E-008  0.2099598E+04  0.7816531E-02  0.8561421E-01
         -2   -1    0    0    0  501 -0.00000000000E+00  0.00000000000E+00  0.64391238339E+03  0.64391238339E+03  0.00000000000E+00 0. -1.
          2   -1    0    0  501    0  0.00000000000E+00 -0.00000000000E+00 -0.17115337916E+04  0.17115337916E+04  0.00000000000E+00 0.  1.
    2000013    1    1    2    0    0  0.20310603264E+03 -0.37737467971E+03 -0.67533402670E+03  0.12418694605E+04  0.95000000000E+03 0.  0.
   -2000013    1    1    2    0    0 -0.20310603264E+03  0.37737467971E+03 -0.39228738156E+03  0.11135767145E+04  0.95000000000E+03 0.  0.
<mgrwt>
<rscale>  0 0.20995979E+04</rscale>
<asrwt>0</asrwt>
<pdfrwt beam="2">  1        2 0.26331289E+00 0.20995979E+04</pdfrwt>
<pdfrwt beam="1">  1       -2 0.99063445E-01 0.20995979E+04</pdfrwt>
<totfact> 0.75217206E+00</totfact>
</mgrwt>
</event>
<event>
 4    1  0.1321115E-008  0.2539238E+04  0.7816531E-02  0.8389139E-01
          1   -1    0    0  501    0  0.00000000000E+00  0.00000000000E+00  0.24950733863E+04  0.24950733863E+04  0.00000000000E+00 0.  1.
         -1   -1    0    0    0  501 -0.00000000000E+00 -0.00000000000E+00 -0.64604610703E+03  0.64604610703E+03  0.00000000000E+00 0. -1.
    2000013    1    1    2    0    0  0.67852288929E+03 -0.45813810818E+03  0.11692729493E+04  0.17146378823E+04  0.95000000000E+03 0.  0.
   -2000013    1    1    2    0    0 -0.67852288929E+03  0.45813810818E+03  0.67975432992E+03  0.14264816110E+04  0.95000000000E+03 0.  0.
<mgrwt>
<rscale>  0 0.25392380E+04</rscale>
<asrwt>0</asrwt>
<pdfrwt beam="1">  1        1 0.38385744E+00 0.25392380E+04</pdfrwt>
<pdfrwt beam="2">  1       -1 0.99391710E-01 0.25392380E+04</pdfrwt>
<totfact> 0.11680759E+00</totfact>
</mgrwt>
</event>
<event>
 4    1  0.1321115E-008  0.3386506E+04  0.7816531E-02  0.8141226E-01
         -1   -1    0    0    0  501 -0.00000000000E+00  0.00000000000E+00  0.14217392755E+04  0.14217392755E+04  0.00000000000E+00 0.  1.
          1   -1    0    0  501    0  0.00000000000E+00 -0.00000000000E+00 -0.20166184457E+04  0.20166184457E+04  0.00000000000E+00 0. -1.
    2000013    1    1    2    0    0 -0.12637587289E+04  0.52772653584E+03 -0.60037728154E+03  0.17715908957E+04  0.95000000000E+03 0.  0.
   -2000013    1    1    2    0    0  0.12637587289E+04 -0.52772653584E+03  0.54981113624E+01  0.16667668256E+04  0.95000000000E+03 0.  0.
<mgrwt>
<rscale>  0 0.33865060E+04</rscale>
<asrwt>0</asrwt>
<pdfrwt beam="2">  1        1 0.31024899E+00 0.33865060E+04</pdfrwt>
<pdfrwt beam="1">  1       -1 0.21872912E+00 0.33865060E+04</pdfrwt>
<totfact> 0.26841940E-01</totfact>
</mgrwt>
</event>
<event>
 4    1  0.1321115E-008  0.2431556E+04  0.7816531E-02  0.8427783E-01
         -1   -1    0    0    0  501 -0.00000000000E+00  0.00000000000E+00  0.80496525547E+03  0.80496525547E+03  0.00000000000E+00 0. -1.
          1   -1    0    0  501    0  0.00000000000E+00 -0.00000000000E+00 -0.18362483250E+04  0.18362483250E+04  0.00000000000E+00 0.  1.
    2000013    1    1    2    0    0 -0.41181127526E+03  0.52654252159E+03 -0.12583924376E+03  0.11684053529E+04  0.95000000000E+03 0.  0.
   -2000013    1    1    2    0    0  0.41181127526E+03 -0.52654252159E+03 -0.90544382574E+03  0.14728082275E+04  0.95000000000E+03 0.  0.
<mgrwt>
<rscale>  0 0.24315560E+04</rscale>
<asrwt>0</asrwt>
<pdfrwt beam="2">  1        1 0.28249974E+00 0.24315560E+04</pdfrwt>
<pdfrwt beam="1">  1       -1 0.12384081E+00 0.24315560E+04</pdfrwt>
<totfact> 0.19700921E+00</totfact>
</mgrwt>
</event>
<event>
 4    1  0.1321115E-008  0.3068160E+04  0.7816531E-02  0.8224531E-01
         -2   -1    0    0    0  501 -0.00000000000E+00  0.00000000000E+00  0.83363329166E+03  0.83363329166E+03  0.00000000000E+00 0. -1.
          2   -1    0    0  501    0  0.00000000000E+00 -0.00000000000E+00 -0.28230656270E+04  0.28230656270E+04  0.00000000000E+00 0.  1.
    2000013    1    1    2    0    0  0.11471333130E+04 -0.26789182661E+03 -0.12943843130E+04  0.19913843472E+04  0.95000000000E+03 0.  0.
   -2000013    1    1    2    0    0 -0.11471333130E+04  0.26789182661E+03 -0.69504802233E+03  0.16653145714E+04  0.95000000000E+03 0.  0.
<mgrwt>
<rscale>  0 0.30681600E+04</rscale>
<asrwt>0</asrwt>
<pdfrwt beam="2">  1        2 0.43431779E+00 0.30681600E+04</pdfrwt>
<pdfrwt beam="1">  1       -2 0.12825128E+00 0.30681600E+04</pdfrwt>
<totfact> 0.85622181E-01</totfact>
</mgrwt>
</event>
<event>
 4    1  0.1321115E-008  0.2124156E+04  0.7816531E-02  0.8550676E-01
         -3   -1    0    0    0  501 -0.00000000000E+00  0.00000000000E+00  0.59641152340E+03  0.59641152340E+03  0.00000000000E+00 0. -1.
          3   -1    0    0  501    0  0.00000000000E+00 -0.00000000000E+00 -0.18913282248E+04  0.18913282248E+04  0.00000000000E+00 0.  1.
    2000013    1    1    2    0    0  0.12199487606E+03  0.23083112233E+03 -0.18289618076E+03  0.10020562708E+04  0.95000000000E+03 0.  0.
   -2000013    1    1    2    0    0 -0.12199487606E+03 -0.23083112233E+03 -0.11120205206E+04  0.14856834774E+04  0.95000000000E+03 0.  0.
<mgrwt>
<rscale>  0 0.21241563E+04</rscale>
<asrwt>0</asrwt>
<pdfrwt beam="2">  1        3 0.29097357E+00 0.21241563E+04</pdfrwt>
<pdfrwt beam="1">  1       -3 0.91755620E-01 0.21241563E+04</pdfrwt>
<totfact> 0.11122944E-01</totfact>
</mgrwt>
</event>
<event>
 4    1  0.1321115E-008  0.1986668E+04  0.7816531E-02  0.8612879E-01
         -2   -1    0    0    0  501 -0.00000000000E+00  0.00000000000E+00  0.51507455336E+03  0.51507455336E+03  0.00000000000E+00 0. -1.
          2   -1    0    0  501    0  0.00000000000E+00 -0.00000000000E+00 -0.19156685728E+04  0.19156685728E+04  0.00000000000E+00 0.  1.
    2000013    1    1    2    0    0  0.45526224073E+02 -0.22904838185E+03 -0.48952206822E+03  0.10939230565E+04  0.95000000000E+03 0.  0.
   -2000013    1    1    2    0    0 -0.45526224073E+02  0.22904838185E+03 -0.91107195120E+03  0.13368200696E+04  0.95000000000E+03 0.  0.
<mgrwt>
<rscale>  0 0.19866677E+04</rscale>
<asrwt>0</asrwt>
<pdfrwt beam="2">  1        2 0.29471824E+00 0.19866677E+04</pdfrwt>
<pdfrwt beam="1">  1       -2 0.79242240E-01 0.19866677E+04</pdfrwt>
<totfact> 0.97748194E+00</totfact>
</mgrwt>
</event>
<event>
 4    1  0.1321115E-008  0.2640491E+04  0.7816531E-02  0.8354576E-01
         -2   -1    0    0    0  501 -0.00000000000E+00  0.00000000000E+00  0.13481830195E+04  0.13481830195E+04  0.00000000000E+00 0.  1.
          2   -1    0    0  501    0  0.00000000000E+00 -0.00000000000E+00 -0.12928865290E+04  0.12928865290E+04  0.00000000000E+00 0. -1.
    2000013    1    1    2    0    0 -0.89426725589E+03 -0.20048776271E+03  0.52920296390E+02  0.13210638992E+04  0.95000000000E+03 0.  0.
   -2000013    1    1    2    0    0  0.89426725589E+03  0.20048776271E+03  0.23761941386E+01  0.13200056493E+04  0.95000000000E+03 0.  0.
<mgrwt>
<rscale>  0 0.26404906E+04</rscale>
<asrwt>0</asrwt>
<pdfrwt beam="2">  1        2 0.19890562E+00 0.26404906E+04</pdfrwt>
<pdfrwt beam="1">  1       -2 0.20741277E+00 0.26404906E+04</pdfrwt>
<totfact> 0.17510021E+00</totfact>
</mgrwt>
</event>
<event>
 4    1  0.1321115E-008  0.2590350E+04  0.7816531E-02  0.8371487E-01
         -2   -1    0    0    0  501 -0.00000000000E+00  0.00000000000E+00  0.12122587440E+04  0.12122587440E+04  0.00000000000E+00 0. -1.
          2   -1    0    0  501    0  0.00000000000E+00 -0.00000000000E+00 -0.13837622232E+04  0.13837622232E+04  0.00000000000E+00 0.  1.
    2000013    1    1    2    0    0 -0.45506246040E+03 -0.75356263186E+03 -0.79463312633E+02  0.12975950451E+04  0.95000000000E+03 0.  0.
   -2000013    1    1    2    0    0  0.45506246040E+03  0.75356263186E+03 -0.92040166633E+02  0.12984259221E+04  0.95000000000E+03 0.  0.
<mgrwt>
<rscale>  0 0.25903497E+04</rscale>
<asrwt>0</asrwt>
<pdfrwt beam="2">  1        2 0.21288650E+00 0.25903497E+04</pdfrwt>
<pdfrwt beam="1">  1       -2 0.18650134E+00 0.25903497E+04</pdfrwt>
<totfact> 0.21422304E+00</totfact>
</mgrwt>
</event>
<event>
 4    1  0.1321115E-008  0.2147611E+04  0.7816531E-02  0.8540555E-01
          2   -1    0    0  501    0  0.00000000000E+00  0.00000000000E+00  0.17912671220E+04  0.17912671220E+04  0.00000000000E+00 0.  1.
         -2   -1    0    0    0  501 -0.00000000000E+00 -0.00000000000E+00 -0.64371115286E+03  0.64371115286E+03  0.00000000000E+00 0. -1.
    2000013    1    1    2    0    0  0.48411705050E+03  0.11846908043E+03  0.52115192991E+03  0.11926875432E+04  0.95000000000E+03 0.  0.
   -2000013    1    1    2    0    0 -0.48411705050E+03 -0.11846908043E+03  0.62640403919E+03  0.12422907316E+04  0.95000000000E+03 0.  0.
<mgrwt>
<rscale>  0 0.21476113E+04</rscale>
<asrwt>0</asrwt>
<pdfrwt beam="1">  1        2 0.27557955E+00 0.21476113E+04</pdfrwt>
<pdfrwt beam="2">  1       -2 0.99032486E-01 0.21476113E+04</pdfrwt>
<totfact> 0.67703228E+00</totfact>
</mgrwt>
</event>
<event>
 4    1  0.1321115E-008  0.2469963E+04  0.7816531E-02  0.8413765E-01
          1   -1    0    0  501    0  0.00000000000E+00  0.00000000000E+00  0.57099659820E+03  0.57099659820E+03  0.00000000000E+00 0.  1.
         -1   -1    0    0    0  501 -0.00000000000E+00 -0.00000000000E+00 -0.26710837596E+04  0.26710837596E+04  0.00000000000E+00 0. -1.
    2000013    1    1    2    0    0 -0.99446070568E+02 -0.49897814255E+03 -0.25832434280E+03  0.11081968118E+04  0.95000000000E+03 0.  0.
   -2000013    1    1    2    0    0  0.99446070568E+02  0.49897814255E+03 -0.18417628186E+04  0.21338835459E+04  0.95000000000E+03 0.  0.
<mgrwt>
<rscale>  0 0.24699634E+04</rscale>
<asrwt>0</asrwt>
<pdfrwt beam="1">  1        1 0.87845631E-01 0.24699634E+04</pdfrwt>
<pdfrwt beam="2">  1       -1 0.41093596E+00 0.24699634E+04</pdfrwt>
<totfact> 0.19719841E-01</totfact>
</mgrwt>
</event>
<event>
 4    1  0.1321115E-008  0.2223244E+04  0.7816531E-02  0.8508815E-01
         -2   -1    0    0    0  501 -0.00000000000E+00  0.00000000000E+00  0.10406268449E+04  0.10406268449E+04  0.00000000000E+00 0. -1.
          2   -1    0    0  501    0  0.00000000000E+00 -0.00000000000E+00 -0.11874604769E+04  0.11874604769E+04  0.00000000000E+00 0.  1.
    2000013    1    1    2    0    0  0.87505263385E+02  0.32622653821E+03  0.39570802506E+03  0.10831277701E+04  0.95000000000E+03 0.  0.
   -2000013    1    1    2    0    0 -0.87505263385E+02 -0.32622653821E+03 -0.54254165700E+03  0.11449595517E+04  0.95000000000E+03 0.  0.
<mgrwt>
<rscale>  0 0.22232438E+04</rscale>
<asrwt>0</asrwt>
<pdfrwt beam="2">  1        2 0.18268623E+00 0.22232438E+04</pdfrwt>
<pdfrwt beam="1">  1       -2 0.16009644E+00 0.22232438E+04</pdfrwt>
<totfact> 0.44215631E+00</totfact>
</mgrwt>
</event>
<event>
 4    1  0.1321115E-008  0.2298393E+04  0.7816531E-02  0.8478555E-01
          2   -1    0    0  501    0  0.00000000000E+00  0.00000000000E+00  0.14823097498E+04  0.14823097498E+04  0.00000000000E+00 0.  1.
         -2   -1    0    0    0  501 -0.00000000000E+00 -0.00000000000E+00 -0.89094245407E+03  0.89094245407E+03  0.00000000000E+00 0. -1.
    2000013    1    1    2    0    0  0.62704361911E+03  0.90735667879E+02  0.16210232538E+03  0.11533402905E+04  0.95000000000E+03 0.  0.
   -2000013    1    1    2    0    0 -0.62704361911E+03 -0.90735667879E+02  0.42926497032E+03  0.12199119134E+04  0.95000000000E+03 0.  0.
<mgrwt>
<rscale>  0 0.22983931E+04</rscale>
<asrwt>0</asrwt>
<pdfrwt beam="1">  1        2 0.22804765E+00 0.22983931E+04</pdfrwt>
<pdfrwt beam="2">  1       -2 0.13706807E+00 0.22983931E+04</pdfrwt>
<totfact> 0.44697372E+00</totfact>
</mgrwt>
</event>
<event>
 4    1  0.1321115E-008  0.2766950E+04  0.7816531E-02  0.8313603E-01
         -2   -1    0    0    0  501 -0.00000000000E+00  0.00000000000E+00  0.12963066601E+04  0.12963066601E+04  0.00000000000E+00 0. -1.
          2   -1    0    0  501    0  0.00000000000E+00 -0.00000000000E+00 -0.14765044311E+04  0.14765044311E+04  0.00000000000E+00 0.  1.
    2000013    1    1    2    0    0  0.19112181356E+03  0.60888893509E+03  0.68886962895E+03  0.13357824106E+04  0.95000000000E+03 0.  0.
   -2000013    1    1    2    0    0 -0.19112181356E+03 -0.60888893509E+03 -0.86906740003E+03  0.14370286805E+04  0.95000000000E+03 0.  0.
<mgrwt>
<rscale>  0 0.27669496E+04</rscale>
<asrwt>0</asrwt>
<pdfrwt beam="2">  1        2 0.22715453E+00 0.27669496E+04</pdfrwt>
<pdfrwt beam="1">  1       -2 0.19943179E+00 0.27669496E+04</pdfrwt>
<totfact> 0.15321313E+00</totfact>
</mgrwt>
</event>
<event>
 4    1  0.1321115E-008  0.2938335E+04  0.7816531E-02  0.8261562E-01
         -1   -1    0    0    0  501 -0.00000000000E+00  0.00000000000E+00  0.10468008319E+04  0.10468008319E+04  0.00000000000E+00 0. -1.
          1   -1    0    0  501    0  0.00000000000E+00 -0.00000000000E+00 -0.20619519510E+04  0.20619519510E+04  0.00000000000E+00 0.  1.
    2000013    1    1    2    0    0 -0.20419271992E+03 -0.10179853700E+04 -0.61250637029E+02  0.14086307255E+04  0.95000000000E+03 0.  0.
   -2000013    1    1    2    0    0  0.20419271992E+03  0.10179853700E+04 -0.95390048208E+03  0.17001220574E+04  0.95000000000E+03 0.  0.
<mgrwt>
<rscale>  0 0.29383349E+04</rscale>
<asrwt>0</asrwt>
<pdfrwt beam="2">  1        1 0.31722337E+00 0.29383349E+04</pdfrwt>
<pdfrwt beam="1">  1       -1 0.16104628E+00 0.29383349E+04</pdfrwt>
<totfact> 0.66400399E-01</totfact>
</mgrwt>
</event>
<event>
 4    1  0.1321115E-008  0.2823053E+04  0.7816531E-02  0.8296147E-01
          2   -1    0    0  501    0  0.00000000000E+00  0.00000000000E+00  0.34864076139E+04  0.34864076139E+04  0.00000000000E+00 0.  1.
         -2   -1    0    0    0  501 -0.00000000000E+00 -0.00000000000E+00 -0.57147833254E+03  0.57147833254E+03  0.00000000000E+00 0. -1.
    2000013    1    1    2    0    0 -0.39376500783E+02 -0.41557751636E+03  0.28329181535E+04  0.30169820094E+04  0.95000000000E+03 0.  0.
   -2000013    1    1    2    0    0  0.39376500783E+02  0.41557751636E+03  0.82011127842E+02  0.10409039370E+04  0.95000000000E+03 0.  0.
<mgrwt>
<rscale>  0 0.28230525E+04</rscale>
<asrwt>0</asrwt>
<pdfrwt beam="1">  1        2 0.53637039E+00 0.28230525E+04</pdfrwt>
<pdfrwt beam="2">  1       -2 0.87919745E-01 0.28230525E+04</pdfrwt>
<totfact> 0.80471349E-01</totfact>
</mgrwt>
</event>
<event>
 4    1  0.1321115E-008  0.2317416E+04  0.7816531E-02  0.8471086E-01
         -1   -1    0    0    0  501 -0.00000000000E+00  0.00000000000E+00  0.11928152107E+04  0.11928152107E+04  0.00000000000E+00 0. -1.
          1   -1    0    0  501    0  0.00000000000E+00 -0.00000000000E+00 -0.11255760446E+04  0.11255760446E+04  0.00000000000E+00 0.  1.
    2000013    1    1    2    0    0  0.11154269936E+03 -0.48456962932E+03  0.47295667781E+03  0.11719375062E+04  0.95000000000E+03 0.  0.
   -2000013    1    1    2    0    0 -0.11154269936E+03  0.48456962932E+03 -0.40571751171E+03  0.11464537491E+04  0.95000000000E+03 0.  0.
<mgrwt>
<rscale>  0 0.23174160E+04</rscale>
<asrwt>0</asrwt>
<pdfrwt beam="2">  1        1 0.17316555E+00 0.23174160E+04</pdfrwt>
<pdfrwt beam="1">  1       -1 0.18351003E+00 0.23174160E+04</pdfrwt>
<totfact> 0.21503431E+00</totfact>
</mgrwt>
</event>
<event>
 4    1  0.1321115E-008  0.2212647E+04  0.7816531E-02  0.8513183E-01
         -2   -1    0    0    0  501 -0.00000000000E+00  0.00000000000E+00  0.87939276829E+03  0.87939276829E+03  0.00000000000E+00 0. -1.
          2   -1    0    0  501    0  0.00000000000E+00 -0.00000000000E+00 -0.13918143635E+04  0.13918143635E+04  0.00000000000E+00 0.  1.
    2000013    1    1    2    0    0 -0.46168732244E+03 -0.21919893490E+03 -0.50816199638E+03  0.11924478904E+04  0.95000000000E+03 0.  0.
   -2000013    1    1    2    0    0  0.46168732244E+03  0.21919893490E+03 -0.42595988597E+01  0.10787592414E+04  0.95000000000E+03 0.  0.
<mgrwt>
<rscale>  0 0.22126468E+04</rscale>
<asrwt>0</asrwt>
<pdfrwt beam="2">  1        2 0.21412529E+00 0.22126468E+04</pdfrwt>
<pdfrwt beam="1">  1       -2 0.13529120E+00 0.22126468E+04</pdfrwt>
<totfact> 0.52413435E+00</totfact>
</mgrwt>
</event>
<event>
 4    1  0.1321115E-008  0.1966397E+04  0.7816531E-02  0.8622494E-01
          2   -1    0    0  501    0  0.00000000000E+00  0.00000000000E+00  0.19571456237E+04  0.19571456237E+04  0.00000000000E+00 0.  1.
         -2   -1    0    0    0  501 -0.00000000000E+00 -0.00000000000E+00 -0.49392311475E+03  0.49392311475E+03  0.00000000000E+00 0. -1.
    2000013    1    1    2    0    0 -0.22660201937E+03  0.11220764071E+03  0.71228351906E+03  0.12139962279E+04  0.95000000000E+03 0.  0.
   -2000013    1    1    2    0    0  0.22660201937E+03 -0.11220764071E+03  0.75093898988E+03  0.12370725105E+04  0.95000000000E+03 0.  0.
<mgrwt>
<rscale>  0 0.19663972E+04</rscale>
<asrwt>0</asrwt>
<pdfrwt beam="1">  1        2 0.30109932E+00 0.19663972E+04</pdfrwt>
<pdfrwt beam="2">  1       -2 0.75988172E-01 0.19663972E+04</pdfrwt>
<totfact> 0.10197513E+01</totfact>
</mgrwt>
</event>
<event>
 4    1  0.1321115E-008  0.3563706E+04  0.7816531E-02  0.8098856E-01
         -2   -1    0    0    0  501 -0.00000000000E+00  0.00000000000E+00  0.87387756389E+03  0.87387756389E+03  0.00000000000E+00 0. -1.
          2   -1    0    0  501    0  0.00000000000E+00 -0.00000000000E+00 -0.36332323069E+04  0.36332323069E+04  0.00000000000E+00 0.  1.
    2000013    1    1    2    0    0  0.13415289355E+04  0.28826123238E+03 -0.59015454343E+03  0.17701911784E+04  0.95000000000E+03 0.  0.
   -2000013    1    1    2    0    0 -0.13415289355E+04 -0.28826123238E+03 -0.21692001996E+04  0.27369186924E+04  0.95000000000E+03 0.  0.
<mgrwt>
<rscale>  0 0.35637060E+04</rscale>
<asrwt>0</asrwt>
<pdfrwt beam="2">  1        2 0.55895883E+00 0.35637060E+04</pdfrwt>
<pdfrwt beam="1">  1       -2 0.13444270E+00 0.35637060E+04</pdfrwt>
<totfact> 0.21250218E-01</totfact>
</mgrwt>
</event>
<event>
 4    1  0.1321115E-008  0.2058131E+04  0.7816531E-02  0.8579914E-01
          2   -1    0    0  501    0  0.00000000000E+00  0.00000000000E+00  0.26721015498E+04  0.26721015498E+04  0.00000000000E+00 0.  1.
         -2   -1    0    0    0  501 -0.00000000000E+00 -0.00000000000E+00 -0.39630840892E+03  0.39630840892E+03  0.00000000000E+00 0. -1.
    2000013    1    1    2    0    0  0.38022358064E+03  0.13816996020E+02  0.12992653215E+04  0.16538897353E+04  0.95000000000E+03 0.  0.
   -2000013    1    1    2    0    0 -0.38022358064E+03 -0.13816996020E+02  0.97652781938E+03  0.14145202235E+04  0.95000000000E+03 0.  0.
<mgrwt>
<rscale>  0 0.20581315E+04</rscale>
<asrwt>0</asrwt>
<pdfrwt beam="1">  1        2 0.41109253E+00 0.20581315E+04</pdfrwt>
<pdfrwt beam="2">  1       -2 0.60970526E-01 0.20581315E+04</pdfrwt>
<totfact> 0.63917159E+00</totfact>
</mgrwt>
</event>
<event>
 4    1  0.1321115E-008  0.2748723E+04  0.7816531E-02  0.8319367E-01
         -2   -1    0    0    0  501 -0.00000000000E+00  0.00000000000E+00  0.51775762923E+03  0.51775762923E+03  0.00000000000E+00 0.  1.
          2   -1    0    0  501    0  0.00000000000E+00 -0.00000000000E+00 -0.36481744527E+04  0.36481744527E+04  0.00000000000E+00 0. -1.
    2000013    1    1    2    0    0  0.60899984397E+03 -0.21537428395E+03 -0.42186504822E+03  0.12238206613E+04  0.95000000000E+03 0.  0.
   -2000013    1    1    2    0    0 -0.60899984397E+03  0.21537428395E+03 -0.27085517752E+04  0.29421114206E+04  0.95000000000E+03 0.  0.
<mgrwt>
<rscale>  0 0.27487235E+04</rscale>
<asrwt>0</asrwt>
<pdfrwt beam="2">  1        2 0.56125759E+00 0.27487235E+04</pdfrwt>
<pdfrwt beam="1">  1       -2 0.79655022E-01 0.27487235E+04</pdfrwt>
<totfact> 0.77728710E-01</totfact>
</mgrwt>
</event>
<event>
 4    1  0.1321115E-008  0.2482725E+04  0.7816531E-02  0.8409166E-01
         -2   -1    0    0    0  501 -0.00000000000E+00  0.00000000000E+00  0.92031023385E+03  0.92031023385E+03  0.00000000000E+00 0. -1.
          2   -1    0    0  501    0  0.00000000000E+00 -0.00000000000E+00 -0.16744144170E+04  0.16744144170E+04  0.00000000000E+00 0.  1.
    2000013    1    1    2    0    0 -0.75276063093E+03 -0.17035079731E+02 -0.97512643765E+02  0.12161198449E+04  0.95000000000E+03 0.  0.
   -2000013    1    1    2    0    0  0.75276063093E+03  0.17035079731E+02 -0.65659153938E+03  0.13786048060E+04  0.95000000000E+03 0.  0.
<mgrwt>
<rscale>  0 0.24827249E+04</rscale>
<asrwt>0</asrwt>
<pdfrwt beam="2">  1        2 0.25760222E+00 0.24827249E+04</pdfrwt>
<pdfrwt beam="1">  1       -2 0.14158619E+00 0.24827249E+04</pdfrwt>
<totfact> 0.31573032E+00</totfact>
</mgrwt>
</event>
<event>
 4    1  0.1321115E-008  0.2820236E+04  0.7816531E-02  0.8297013E-01
          2   -1    0    0  501    0  0.00000000000E+00  0.00000000000E+00  0.31697174633E+04  0.31697174633E+04  0.00000000000E+00 0.  1.
         -2   -1    0    0    0  501 -0.00000000000E+00 -0.00000000000E+00 -0.62732179280E+03  0.62732179280E+03  0.00000000000E+00 0. -1.
    2000013    1    1    2    0    0 -0.87060287059E+03  0.55632814770E+03  0.14542351760E+04  0.20210765234E+04  0.95000000000E+03 0.  0.
   -2000013    1    1    2    0    0  0.87060287059E+03 -0.55632814770E+03  0.10881604945E+04  0.17759627327E+04  0.95000000000E+03 0.  0.
<mgrwt>
<rscale>  0 0.28202360E+04</rscale>
<asrwt>0</asrwt>
<pdfrwt beam="1">  1        2 0.48764883E+00 0.28202360E+04</pdfrwt>
<pdfrwt beam="2">  1       -2 0.96511046E-01 0.28202360E+04</pdfrwt>
<totfact> 0.10583475E+00</totfact>
</mgrwt>
</event>
<event>
 4    1  0.1321115E-008  0.3181003E+04  0.7816531E-02  0.8193852E-01
         -2   -1    0    0    0  501 -0.00000000000E+00  0.00000000000E+00  0.14439379600E+04  0.14439379600E+04  0.00000000000E+00 0. -1.
          2   -1    0    0  501    0  0.00000000000E+00 -0.00000000000E+00 -0.17519421367E+04  0.17519421367E+04  0.00000000000E+00 0.  1.
    2000013    1    1    2    0    0  0.45445684713E+03  0.11910104870E+04 -0.10732245995E+03  0.15934412812E+04  0.95000000000E+03 0.  0.
   -2000013    1    1    2    0    0 -0.45445684713E+03 -0.11910104870E+04 -0.20068171684E+03  0.16024388155E+04  0.95000000000E+03 0.  0.
<mgrwt>
<rscale>  0 0.31810035E+04</rscale>
<asrwt>0</asrwt>
<pdfrwt beam="2">  1        2 0.26952956E+00 0.31810035E+04</pdfrwt>
<pdfrwt beam="1">  1       -2 0.22214430E+00 0.31810035E+04</pdfrwt>
<totfact> 0.74138219E-01</totfact>
</mgrwt>
</event>
<event>
 4    1  0.1321115E-008  0.2564837E+04  0.7816531E-02  0.8380244E-01
         -2   -1    0    0    0  501 -0.00000000000E+00  0.00000000000E+00  0.80877118515E+03  0.80877118515E+03  0.00000000000E+00 0. -1.
          2   -1    0    0  501    0  0.00000000000E+00 -0.00000000000E+00 -0.20334516261E+04  0.20334516261E+04  0.00000000000E+00 0.  1.
    2000013    1    1    2    0    0  0.22931443347E+03 -0.60367690809E+03 -0.12441663896E+04  0.16933578841E+04  0.95000000000E+03 0.  0.
   -2000013    1    1    2    0    0 -0.22931443347E+03  0.60367690809E+03  0.19485948563E+02  0.11488649272E+04  0.95000000000E+03 0.  0.
<mgrwt>
<rscale>  0 0.25648369E+04</rscale>
<asrwt>0</asrwt>
<pdfrwt beam="2">  1        2 0.31283871E+00 0.25648369E+04</pdfrwt>
<pdfrwt beam="1">  1       -2 0.12442634E+00 0.25648369E+04</pdfrwt>
<totfact> 0.27542161E+00</totfact>
</mgrwt>
</event>
<event>
 4    1  0.1321115E-008  0.2158681E+04  0.7816531E-02  0.8535826E-01
          2   -1    0    0  501    0  0.00000000000E+00  0.00000000000E+00  0.69423745038E+03  0.69423745038E+03  0.00000000000E+00 0.  1.
         -2   -1    0    0    0  501 -0.00000000000E+00 -0.00000000000E+00 -0.16780653009E+04  0.16780653009E+04  0.00000000000E+00 0. -1.
    2000013    1    1    2    0    0  0.24018943403E+03  0.42938294825E+03 -0.64893479481E+03  0.12512701740E+04  0.95000000000E+03 0.  0.
   -2000013    1    1    2    0    0 -0.24018943403E+03 -0.42938294825E+03 -0.33489305569E+03  0.11210325772E+04  0.95000000000E+03 0.  0.
<mgrwt>
<rscale>  0 0.21586809E+04</rscale>
<asrwt>0</asrwt>
<pdfrwt beam="1">  1        2 0.10680576E+00 0.21586809E+04</pdfrwt>
<pdfrwt beam="2">  1       -2 0.25816389E+00 0.21586809E+04</pdfrwt>
<totfact> 0.21740064E+00</totfact>
</mgrwt>
</event>
<event>
 4    1  0.1321115E-008  0.2701496E+04  0.7816531E-02  0.8334520E-01
          2   -1    0    0  501    0  0.00000000000E+00  0.00000000000E+00  0.12064928049E+04  0.12064928049E+04  0.00000000000E+00 0.  1.
         -2   -1    0    0    0  501 -0.00000000000E+00 -0.00000000000E+00 -0.15122513091E+04  0.15122513091E+04  0.00000000000E+00 0. -1.
    2000013    1    1    2    0    0  0.11721987231E+03 -0.94804840228E+03 -0.25088712179E+03  0.13703943299E+04  0.95000000000E+03 0.  0.
   -2000013    1    1    2    0    0 -0.11721987231E+03  0.94804840228E+03 -0.54871382417E+02  0.13483497840E+04  0.95000000000E+03 0.  0.
<mgrwt>
<rscale>  0 0.27014961E+04</rscale>
<asrwt>0</asrwt>
<pdfrwt beam="1">  1        2 0.18561428E+00 0.27014961E+04</pdfrwt>
<pdfrwt beam="2">  1       -2 0.23265405E+00 0.27014961E+04</pdfrwt>
<totfact> 0.13550722E+00</totfact>
</mgrwt>
</event>
<event>
 4    1  0.1321115E-008  0.4831730E+04  0.7816531E-02  0.7855002E-01
          2   -1    0    0  501    0  0.00000000000E+00  0.00000000000E+00  0.21002998205E+04  0.21002998205E+04  0.00000000000E+00 0.  1.
         -2   -1    0    0    0  501 -0.00000000000E+00 -0.00000000000E+00 -0.27788433982E+04  0.27788433982E+04  0.00000000000E+00 0. -1.
    2000013    1    1    2    0    0 -0.10400090767E+04  0.19532658796E+04 -0.14493117814E+03  0.24125446156E+04  0.95000000000E+03 0.  0.
   -2000013    1    1    2    0    0  0.10400090767E+04 -0.19532658796E+04 -0.53361239955E+03  0.24665986031E+04  0.95000000000E+03 0.  0.
<mgrwt>
<rscale>  0 0.48317302E+04</rscale>
<asrwt>0</asrwt>
<pdfrwt beam="1">  1        2 0.32312305E+00 0.48317302E+04</pdfrwt>
<pdfrwt beam="2">  1       -2 0.42751437E+00 0.48317302E+04</pdfrwt>
<totfact> 0.21219242E-02</totfact>
</mgrwt>
</event>
<event>
 4    1  0.1321115E-008  0.2527242E+04  0.7816531E-02  0.8393344E-01
          2   -1    0    0  501    0  0.00000000000E+00  0.00000000000E+00  0.29707878041E+04  0.29707878041E+04  0.00000000000E+00 0.  1.
         -2   -1    0    0    0  501 -0.00000000000E+00 -0.00000000000E+00 -0.53747982792E+03  0.53747982792E+03  0.00000000000E+00 0. -1.
    2000013    1    1    2    0    0 -0.34796472481E+03  0.69377798398E+03  0.79598461399E+03  0.14623607101E+04  0.95000000000E+03 0.  0.
   -2000013    1    1    2    0    0  0.34796472481E+03 -0.69377798398E+03  0.16373233622E+04  0.20459069219E+04  0.95000000000E+03 0.  0.
<mgrwt>
<rscale>  0 0.25272424E+04</rscale>
<asrwt>0</asrwt>
<pdfrwt beam="1">  1        2 0.45704427E+00 0.25272424E+04</pdfrwt>
<pdfrwt beam="2">  1       -2 0.82689206E-01 0.25272424E+04</pdfrwt>
<totfact> 0.20731526E+00</totfact>
</mgrwt>
</event>
<event>
 4    1  0.1321115E-008  0.3289412E+04  0.7816531E-02  0.8165595E-01
          2   -1    0    0  501    0  0.00000000000E+00  0.00000000000E+00  0.31850296196E+04  0.31850296196E+04  0.00000000000E+00 0. -1.
         -2   -1    0    0    0  501 -0.00000000000E+00 -0.00000000000E+00 -0.84930366714E+03  0.84930366714E+03  0.00000000000E+00 0.  1.
    2000013    1    1    2    0    0 -0.50872254743E+03 -0.12195596179E+04  0.14592165027E+04  0.21858492843E+04  0.95000000000E+03 0.  0.
   -2000013    1    1    2    0    0  0.50872254743E+03  0.12195596179E+04  0.87650944974E+03  0.18484840024E+04  0.95000000000E+03 0.  0.
<mgrwt>
<rscale>  0 0.32894117E+04</rscale>
<asrwt>0</asrwt>
<pdfrwt beam="1">  1        2 0.49000455E+00 0.32894117E+04</pdfrwt>
<pdfrwt beam="2">  1       -2 0.13066210E+00 0.32894117E+04</pdfrwt>
<totfact> 0.47485704E-01</totfact>
</mgrwt>
</event>
<event>
 4    1  0.1321115E-008  0.2846661E+04  0.7816531E-02  0.8288927E-01
         -1   -1    0    0    0  501 -0.00000000000E+00  0.00000000000E+00  0.77704973004E+03  0.77704973004E+03  0.00000000000E+00 0. -1.
          1   -1    0    0  501    0  0.00000000000E+00 -0.00000000000E+00 -0.26071303400E+04  0.26071303400E+04  0.00000000000E+00 0.  1.
    2000013    1    1    2    0    0 -0.33075524488E+03  0.92593845294E+03 -0.44457686944E+03  0.14376750827E+04  0.95000000000E+03 0.  0.
   -2000013    1    1    2    0    0  0.33075524488E+03 -0.92593845294E+03 -0.13855037405E+04  0.19465049873E+04  0.95000000000E+03 0.  0.
<mgrwt>
<rscale>  0 0.28466612E+04</rscale>
<asrwt>0</asrwt>
<pdfrwt beam="2">  1        1 0.40109698E+00 0.28466612E+04</pdfrwt>
<pdfrwt beam="1">  1       -1 0.11954611E+00 0.28466612E+04</pdfrwt>
<totfact> 0.61429280E-01</totfact>
</mgrwt>
</event>
<event>
 4    1  0.1321115E-008  0.1987883E+04  0.7816531E-02  0.8612307E-01
         -2   -1    0    0    0  501 -0.00000000000E+00  0.00000000000E+00  0.29157719097E+03  0.29157719097E+03  0.00000000000E+00 0. -1.
          2   -1    0    0  501    0  0.00000000000E+00 -0.00000000000E+00 -0.33881917022E+04  0.33881917022E+04  0.00000000000E+00 0.  1.
    2000013    1    1    2    0    0  0.20025221363E+03  0.15297134507E+03 -0.18223590194E+04  0.20705056332E+04  0.95000000000E+03 0.  0.
   -2000013    1    1    2    0    0 -0.20025221363E+03 -0.15297134507E+03 -0.12742554918E+04  0.16092632600E+04  0.95000000000E+03 0.  0.
<mgrwt>
<rscale>  0 0.19878827E+04</rscale>
<asrwt>0</asrwt>
<pdfrwt beam="2">  1        2 0.52126029E+00 0.19878827E+04</pdfrwt>
<pdfrwt beam="1">  1       -2 0.44858027E-01 0.19878827E+04</pdfrwt>
<totfact> 0.42778465E+00</totfact>
</mgrwt>
</event>
<event>
 4    1  0.1321115E-008  0.3166864E+04  0.7816531E-02  0.8197624E-01
         -2   -1    0    0    0  501 -0.00000000000E+00  0.00000000000E+00  0.95033823749E+03  0.95033823749E+03  0.00000000000E+00 0. -1.
          2   -1    0    0  501    0  0.00000000000E+00 -0.00000000000E+00 -0.26382776571E+04  0.26382776571E+04  0.00000000000E+00 0.  1.
    2000013    1    1    2    0    0  0.48549739052E+03  0.75841198641E+03  0.16567715680E+03  0.13194109965E+04  0.95000000000E+03 0.  0.
   -2000013    1    1    2    0    0 -0.48549739052E+03 -0.75841198641E+03 -0.18536165764E+04  0.22692048981E+04  0.95000000000E+03 0.  0.
<mgrwt>
<rscale>  0 0.31668635E+04</rscale>
<asrwt>0</asrwt>
<pdfrwt beam="2">  1        2 0.40588887E+00 0.31668635E+04</pdfrwt>
<pdfrwt beam="1">  1       -2 0.14620588E+00 0.31668635E+04</pdfrwt>
<totfact> 0.78190305E-01</totfact>
</mgrwt>
</event>
<event>
 4    1  0.1321115E-008  0.2455397E+04  0.7816531E-02  0.8419050E-01
         -2   -1    0    0    0  501 -0.00000000000E+00  0.00000000000E+00  0.58105149228E+03  0.58105149228E+03  0.00000000000E+00 0. -1.
          2   -1    0    0  501    0  0.00000000000E+00 -0.00000000000E+00 -0.25939941503E+04  0.25939941503E+04  0.00000000000E+00 0.  1.
    2000013    1    1    2    0    0  0.61513212446E+03 -0.47291592205E+03 -0.93919131003E+03  0.15448680580E+04  0.95000000000E+03 0.  0.
   -2000013    1    1    2    0    0 -0.61513212446E+03  0.47291592205E+03 -0.10737513480E+04  0.16301775845E+04  0.95000000000E+03 0.  0.
<mgrwt>
<rscale>  0 0.24553975E+04</rscale>
<asrwt>0</asrwt>
<pdfrwt beam="2">  1        2 0.39907602E+00 0.24553975E+04</pdfrwt>
<pdfrwt beam="1">  1       -2 0.89392539E-01 0.24553975E+04</pdfrwt>
<totfact> 0.29477796E+00</totfact>
</mgrwt>
</event>
<event>
 4    1  0.1321115E-008  0.2280650E+04  0.7816531E-02  0.8485590E-01
         -2   -1    0    0    0  501 -0.00000000000E+00  0.00000000000E+00  0.94550824432E+03  0.94550824432E+03  0.00000000000E+00 0. -1.
          2   -1    0    0  501    0  0.00000000000E+00 -0.00000000000E+00 -0.13752830774E+04  0.13752830774E+04  0.00000000000E+00 0.  1.
    2000013    1    1    2    0    0  0.17446334820E+03  0.59622338402E+03 -0.10377910127E+03  0.11398201110E+04  0.95000000000E+03 0.  0.
   -2000013    1    1    2    0    0 -0.17446334820E+03 -0.59622338402E+03 -0.32599573184E+03  0.11809712108E+04  0.95000000000E+03 0.  0.
<mgrwt>
<rscale>  0 0.22806503E+04</rscale>
<asrwt>0</asrwt>
<pdfrwt beam="2">  1        2 0.21158201E+00 0.22806503E+04</pdfrwt>
<pdfrwt beam="1">  1       -2 0.14546281E+00 0.22806503E+04</pdfrwt>
<totfact> 0.44123203E+00</totfact>
</mgrwt>
</event>
<event>
 4    1  0.1321115E-008  0.2820980E+04  0.7816531E-02  0.8296784E-01
          2   -1    0    0  501    0  0.00000000000E+00  0.00000000000E+00  0.20338676746E+04  0.20338676746E+04  0.00000000000E+00 0.  1.
         -2   -1    0    0    0  501 -0.00000000000E+00 -0.00000000000E+00 -0.97817653710E+03  0.97817653710E+03  0.00000000000E+00 0. -1.
    2000013    1    1    2    0    0  0.48031639649E+03  0.92016832392E+03  0.42340404871E+03  0.14694164058E+04  0.95000000000E+03 0.  0.
   -2000013    1    1    2    0    0 -0.48031639649E+03 -0.92016832392E+03  0.63228708884E+03  0.15426278060E+04  0.95000000000E+03 0.  0.
<mgrwt>
<rscale>  0 0.28209797E+04</rscale>
<asrwt>0</asrwt>
<pdfrwt beam="1">  1        2 0.31290272E+00 0.28209797E+04</pdfrwt>
<pdfrwt beam="2">  1       -2 0.15048870E+00 0.28209797E+04</pdfrwt>
<totfact> 0.16507645E+00</totfact>
</mgrwt>
</event>
<event>
 4    1  0.1321115E-008  0.2317800E+04  0.7816531E-02  0.8470936E-01
         -2   -1    0    0    0  501 -0.00000000000E+00  0.00000000000E+00  0.35521275827E+03  0.35521275827E+03  0.00000000000E+00 0. -1.
          2   -1    0    0  501    0  0.00000000000E+00 -0.00000000000E+00 -0.37809714380E+04  0.37809714380E+04  0.00000000000E+00 0.  1.
    2000013    1    1    2    0    0  0.10490392005E+03  0.64626623439E+03 -0.15183375941E+04  0.19069645848E+04  0.95000000000E+03 0.  0.
   -2000013    1    1    2    0    0 -0.10490392005E+03 -0.64626623439E+03 -0.19074210856E+04  0.22292196115E+04  0.95000000000E+03 0.  0.
<mgrwt>
<rscale>  0 0.23178001E+04</rscale>
<asrwt>0</asrwt>
<pdfrwt beam="2">  1        2 0.58168796E+00 0.23178001E+04</pdfrwt>
<pdfrwt beam="1">  1       -2 0.54648112E-01 0.23178001E+04</pdfrwt>
<totfact> 0.14541901E+00</totfact>
</mgrwt>
</event>
<event>
 4    1  0.1321115E-008  0.2790263E+04  0.7816531E-02  0.8306298E-01
         -2   -1    0    0    0  501 -0.00000000000E+00  0.00000000000E+00  0.12873895487E+04  0.12873895487E+04  0.00000000000E+00 0. -1.
          2   -1    0    0  501    0  0.00000000000E+00 -0.00000000000E+00 -0.15118905094E+04  0.15118905094E+04  0.00000000000E+00 0.  1.
    2000013    1    1    2    0    0 -0.25913176131E+02 -0.82192982290E+03 -0.72055299292E+03  0.14484256081E+04  0.95000000000E+03 0.  0.
   -2000013    1    1    2    0    0  0.25913176131E+02  0.82192982290E+03  0.49605203220E+03  0.13508544500E+04  0.95000000000E+03 0.  0.
<mgrwt>
<rscale>  0 0.27902631E+04</rscale>
<asrwt>0</asrwt>
<pdfrwt beam="2">  1        2 0.23259854E+00 0.27902631E+04</pdfrwt>
<pdfrwt beam="1">  1       -2 0.19805993E+00 0.27902631E+04</pdfrwt>
<totfact> 0.14910691E+00</totfact>
</mgrwt>
</event>
<event>
 4    1  0.1321115E-008  0.3633998E+04  0.7816531E-02  0.8082748E-01
         -2   -1    0    0    0  501 -0.00000000000E+00  0.00000000000E+00  0.24509584335E+04  0.24509584335E+04  0.00000000000E+00 0. -1.
          2   -1    0    0  501    0  0.00000000000E+00 -0.00000000000E+00 -0.13470182130E+04  0.13470182130E+04  0.00000000000E+00 0.  1.
    2000013    1    1    2    0    0 -0.22909680473E+03 -0.15309823707E+04  0.49874793609E+03  0.18835184813E+04  0.95000000000E+03 0.  0.
   -2000013    1    1    2    0    0  0.22909680473E+03  0.15309823707E+04  0.60519228442E+03  0.19144581653E+04  0.95000000000E+03 0.  0.
<mgrwt>
<rscale>  0 0.36339982E+04</rscale>
<asrwt>0</asrwt>
<pdfrwt beam="2">  1        2 0.20723357E+00 0.36339982E+04</pdfrwt>
<pdfrwt beam="1">  1       -2 0.37707053E+00 0.36339982E+04</pdfrwt>
<totfact> 0.13185745E-01</totfact>
</mgrwt>
</event>
<event>
 4    1  0.1321115E-008  0.2904738E+04  0.7816531E-02  0.8271469E-01
         -2   -1    0    0    0  501 -0.00000000000E+00  0.00000000000E+00  0.66314050711E+03  0.66314050711E+03  0.00000000000E+00 0. -1.
          2   -1    0    0  501    0  0.00000000000E+00 -0.00000000000E+00 -0.31808878865E+04  0.31808878865E+04  0.00000000000E+00 0.  1.
    2000013    1    1    2    0    0  0.39495976252E+03 -0.81678173293E+03 -0.20786659650E+04  0.24589586835E+04  0.95000000000E+03 0.  0.
   -2000013    1    1    2    0    0 -0.39495976252E+03  0.81678173293E+03 -0.43908141435E+03  0.13850697100E+04  0.95000000000E+03 0.  0.
<mgrwt>
<rscale>  0 0.29047379E+04</rscale>
<asrwt>0</asrwt>
<pdfrwt beam="2">  1        2 0.48936737E+00 0.29047379E+04</pdfrwt>
<pdfrwt beam="1">  1       -2 0.10202162E+00 0.29047379E+04</pdfrwt>
<totfact> 0.90619348E-01</totfact>
</mgrwt>
</event>
<event>
 4    1  0.1321115E-008  0.2541155E+04  0.7816531E-02  0.8388469E-01
         -2   -1    0    0    0  501 -0.00000000000E+00  0.00000000000E+00  0.88372730422E+03  0.88372730422E+03  0.00000000000E+00 0. -1.
          2   -1    0    0  501    0  0.00000000000E+00 -0.00000000000E+00 -0.18267707813E+04  0.18267707813E+04  0.00000000000E+00 0.  1.
    2000013    1    1    2    0    0  0.80178606608E+03 -0.19573953755E+03 -0.65838892861E+03  0.14202643570E+04  0.95000000000E+03 0.  0.
   -2000013    1    1    2    0    0 -0.80178606608E+03  0.19573953755E+03 -0.28465454845E+03  0.12902337285E+04  0.95000000000E+03 0.  0.
<mgrwt>
<rscale>  0 0.25411550E+04</rscale>
<asrwt>0</asrwt>
<pdfrwt beam="2">  1        2 0.28104166E+00 0.25411550E+04</pdfrwt>
<pdfrwt beam="1">  1       -2 0.13595805E+00 0.25411550E+04</pdfrwt>
<totfact> 0.28719176E+00</totfact>
</mgrwt>
</event>
<event>
 4    1  0.1321115E-008  0.2642280E+04  0.7816531E-02  0.8353980E-01
          2   -1    0    0  501    0  0.00000000000E+00  0.00000000000E+00  0.11615949628E+04  0.11615949628E+04  0.00000000000E+00 0. -1.
         -2   -1    0    0    0  501 -0.00000000000E+00 -0.00000000000E+00 -0.15025985351E+04  0.15025985351E+04  0.00000000000E+00 0.  1.
    2000013    1    1    2    0    0 -0.80881116461E+03 -0.38473559777E+02 -0.60682050143E+03  0.13879433835E+04  0.95000000000E+03 0.  0.
   -2000013    1    1    2    0    0  0.80881116461E+03  0.38473559777E+02  0.26581692904E+03  0.12762501144E+04  0.95000000000E+03 0.  0.
<mgrwt>
<rscale>  0 0.26422800E+04</rscale>
<asrwt>0</asrwt>
<pdfrwt beam="1">  1        2 0.17870692E+00 0.26422800E+04</pdfrwt>
<pdfrwt beam="2">  1       -2 0.23116901E+00 0.26422800E+04</pdfrwt>
<totfact> 0.14802967E+00</totfact>
</mgrwt>
</event>
<event>
 4    1  0.1321115E-008  0.2226243E+04  0.7816531E-02  0.8507584E-01
         -2   -1    0    0    0  501 -0.00000000000E+00  0.00000000000E+00  0.93637955731E+03  0.93637955731E+03  0.00000000000E+00 0. -1.
          2   -1    0    0  501    0  0.00000000000E+00 -0.00000000000E+00 -0.13232229599E+04  0.13232229599E+04  0.00000000000E+00 0.  1.
    2000013    1    1    2    0    0 -0.32933785042E+03 -0.29861687670E+03 -0.57170409362E+03  0.11945631124E+04  0.95000000000E+03 0.  0.
   -2000013    1    1    2    0    0  0.32933785042E+03  0.29861687670E+03  0.18486069104E+03  0.10650394048E+04  0.95000000000E+03 0.  0.
<mgrwt>
<rscale>  0 0.22262425E+04</rscale>
<asrwt>0</asrwt>
<pdfrwt beam="2">  1        2 0.20357276E+00 0.22262425E+04</pdfrwt>
<pdfrwt beam="1">  1       -2 0.14405839E+00 0.22262425E+04</pdfrwt>
<totfact> 0.48725339E+00</totfact>
</mgrwt>
</event>
<event>
 4    1  0.1321115E-008  0.2700919E+04  0.7816531E-02  0.8334707E-01
          2   -1    0    0  501    0  0.00000000000E+00  0.00000000000E+00  0.78565986180E+03  0.78565986180E+03  0.00000000000E+00 0.  1.
         -2   -1    0    0    0  501 -0.00000000000E+00 -0.00000000000E+00 -0.23212847536E+04  0.23212847536E+04  0.00000000000E+00 0. -1.
    2000013    1    1    2    0    0 -0.18277931193E+02  0.65696387494E+03  0.36846217840E+02  0.11557652268E+04  0.95000000000E+03 0.  0.
   -2000013    1    1    2    0    0  0.18277931193E+02 -0.65696387494E+03 -0.15724711096E+04  0.19511793885E+04  0.95000000000E+03 0.  0.
<mgrwt>
<rscale>  0 0.27009186E+04</rscale>
<asrwt>0</asrwt>
<pdfrwt beam="1">  1        2 0.12087075E+00 0.27009186E+04</pdfrwt>
<pdfrwt beam="2">  1       -2 0.35712073E+00 0.27009186E+04</pdfrwt>
<totfact> 0.43415919E-01</totfact>
</mgrwt>
</event>
<event>
 4    1  0.1321115E-008  0.3598509E+04  0.7816531E-02  0.8090833E-01
         -2   -1    0    0    0  501 -0.00000000000E+00  0.00000000000E+00  0.11233542584E+04  0.11233542584E+04  0.00000000000E+00 0. -1.
          2   -1    0    0  501    0  0.00000000000E+00 -0.00000000000E+00 -0.28818306988E+04  0.28818306988E+04  0.00000000000E+00 0.  1.
    2000013    1    1    2    0    0  0.32424174799E+03 -0.14897585057E+04 -0.99221676459E+03  0.20521957081E+04  0.95000000000E+03 0.  0.
   -2000013    1    1    2    0    0 -0.32424174799E+03  0.14897585057E+04 -0.76625967587E+03  0.19529892491E+04  0.95000000000E+03 0.  0.
<mgrwt>
<rscale>  0 0.35985090E+04</rscale>
<asrwt>0</asrwt>
<pdfrwt beam="2">  1        2 0.44335857E+00 0.35985090E+04</pdfrwt>
<pdfrwt beam="1">  1       -2 0.17282373E+00 0.35985090E+04</pdfrwt>
<totfact> 0.34183723E-01</totfact>
</mgrwt>
</event>
<event>
 4    1  0.1321115E-008  0.3400448E+04  0.7816531E-02  0.8137796E-01
          2   -1    0    0  501    0  0.00000000000E+00  0.00000000000E+00  0.24517370216E+04  0.24517370216E+04  0.00000000000E+00 0.  1.
         -2   -1    0    0    0  501 -0.00000000000E+00 -0.00000000000E+00 -0.11790669335E+04  0.11790669335E+04  0.00000000000E+00 0. -1.
    2000013    1    1    2    0    0 -0.13398264634E+04  0.40845413821E+03  0.80946852392E+03  0.18760887576E+04  0.95000000000E+03 0.  0.
   -2000013    1    1    2    0    0  0.13398264634E+04 -0.40845413821E+03  0.46320156420E+03  0.17547151975E+04  0.95000000000E+03 0.  0.
<mgrwt>
<rscale>  0 0.34004482E+04</rscale>
<asrwt>0</asrwt>
<pdfrwt beam="1">  1        2 0.37719031E+00 0.34004482E+04</pdfrwt>
<pdfrwt beam="2">  1       -2 0.18139491E+00 0.34004482E+04</pdfrwt>
<totfact> 0.54534513E-01</totfact>
</mgrwt>
</event>
<event>
 4    1  0.1321115E-008  0.2535302E+04  0.7816531E-02  0.8390516E-01
          2   -1    0    0  501    0  0.00000000000E+00  0.00000000000E+00  0.20158424792E+04  0.20158424792E+04  0.00000000000E+00 0.  1.
         -2   -1    0    0    0  501 -0.00000000000E+00 -0.00000000000E+00 -0.79715525243E+03  0.79715525243E+03  0.00000000000E+00 0. -1.
    2000013    1    1    2    0    0  0.20020859865E+02 -0.70098683972E+03  0.97687118808E+02  0.11848317001E+04  0.95000000000E+03 0.  0.
   -2000013    1    1    2    0    0 -0.20020859865E+02  0.70098683972E+03  0.11210001079E+04  0.16281660315E+04  0.95000000000E+03 0.  0.
<mgrwt>
<rscale>  0 0.25353023E+04</rscale>
<asrwt>0</asrwt>
<pdfrwt beam="1">  1        2 0.31012961E+00 0.25353023E+04</pdfrwt>
<pdfrwt beam="2">  1       -2 0.12263927E+00 0.25353023E+04</pdfrwt>
<totfact> 0.29282442E+00</totfact>
</mgrwt>
</event>
<event>
 4    1  0.1321115E-008  0.2633661E+04  0.7816531E-02  0.8356857E-01
         -2   -1    0    0    0  501 -0.00000000000E+00  0.00000000000E+00  0.97299997519E+03  0.97299997519E+03  0.00000000000E+00 0. -1.
          2   -1    0    0  501    0  0.00000000000E+00 -0.00000000000E+00 -0.17821604930E+04  0.17821604930E+04  0.00000000000E+00 0.  1.
    2000013    1    1    2    0    0  0.18867283388E+03  0.79106156439E+03  0.26962499102E+02  0.12508408425E+04  0.95000000000E+03 0.  0.
   -2000013    1    1    2    0    0 -0.18867283388E+03 -0.79106156439E+03 -0.83612301695E+03  0.15043196257E+04  0.95000000000E+03 0.  0.
<mgrwt>
<rscale>  0 0.26336607E+04</rscale>
<asrwt>0</asrwt>
<pdfrwt beam="2">  1        2 0.27417854E+00 0.26336607E+04</pdfrwt>
<pdfrwt beam="1">  1       -2 0.14969230E+00 0.26336607E+04</pdfrwt>
<totfact> 0.23462443E+00</totfact>
</mgrwt>
</event>
