<event>
 4    1  0.2552184E-008  0.2387213E+04  0.7816531E-02  0.8444306E-01
         -1   -1    0    0    0  501 -0.00000000000E+00  0.00000000000E+00  0.12617311989E+04  0.12617311989E+04  0.00000000000E+00 0. -1.
          1   -1    0    0  501    0  0.00000000000E+00 -0.00000000000E+00 -0.11291602642E+04  0.11291602642E+04  0.00000000000E+00 0.  1.
    2000013    1    1    2    0    0  0.41562725990E+03  0.54134416308E+03  0.30413235250E+03  0.12086339437E+04  0.95000000000E+03 0.  0.
   -2000013    1    1    2    0    0 -0.41562725990E+03 -0.54134416308E+03 -0.17156141787E+03  0.11822575194E+04  0.95000000000E+03 0.  0.
<mgrwt>
<rscale>  0 0.23872132E+04</rscale>
<asrwt>0</asrwt>
<pdfrwt beam="2">  1        1 0.17371696E+00 0.23872132E+04</pdfrwt>
<pdfrwt beam="1">  1       -1 0.19411249E+00 0.23872132E+04</pdfrwt>
<totfact> 0.17884200E+00</totfact>
</mgrwt>
</event>
<event>
 4    1  0.2552184E-008  0.2231264E+04  0.7816531E-02  0.8505527E-01
          2   -1    0    0  501    0  0.00000000000E+00  0.00000000000E+00  0.67656556896E+03  0.67656556896E+03  0.00000000000E+00 0.  1.
         -2   -1    0    0    0  501 -0.00000000000E+00 -0.00000000000E+00 -0.18396369195E+04  0.18396369195E+04  0.00000000000E+00 0. -1.
    2000013    1    1    2    0    0  0.53362451689E+03  0.15964085504E+02 -0.85106608888E+03  0.13826870451E+04  0.95000000000E+03 0.  0.
   -2000013    1    1    2    0    0 -0.53362451689E+03 -0.15964085504E+02 -0.31200526167E+03  0.11335154434E+04  0.95000000000E+03 0.  0.
<mgrwt>
<rscale>  0 0.22312642E+04</rscale>
<asrwt>0</asrwt>
<pdfrwt beam="1">  1        2 0.10408701E+00 0.22312642E+04</pdfrwt>
<pdfrwt beam="2">  1       -2 0.28302107E+00 0.22312642E+04</pdfrwt>
<totfact> 0.15742906E+00</totfact>
</mgrwt>
</event>
<event>
 4    1  0.2552184E-008  0.2147681E+04  0.7816531E-02  0.8540526E-01
         -2   -1    0    0    0  501 -0.00000000000E+00  0.00000000000E+00  0.51801850704E+03  0.51801850704E+03  0.00000000000E+00 0. -1.
          2   -1    0    0  501    0  0.00000000000E+00 -0.00000000000E+00 -0.22260463656E+04  0.22260463656E+04  0.00000000000E+00 0.  1.
    2000013    1    1    2    0    0 -0.44727402761E+03 -0.12784354270E+03 -0.10904212900E+04  0.15191828780E+04  0.95000000000E+03 0.  0.
   -2000013    1    1    2    0    0  0.44727402761E+03  0.12784354270E+03 -0.61760656855E+03  0.12248819946E+04  0.95000000000E+03 0.  0.
<mgrwt>
<rscale>  0 0.21476808E+04</rscale>
<asrwt>0</asrwt>
<pdfrwt beam="2">  1        2 0.34246867E+00 0.21476808E+04</pdfrwt>
<pdfrwt beam="1">  1       -2 0.79695156E-01 0.21476808E+04</pdfrwt>
<totfact> 0.63888061E+00</totfact>
</mgrwt>
</event>
<event>
 4    1  0.2552184E-008  0.2811758E+04  0.7816531E-02  0.8299627E-01
          2   -1    0    0  501    0  0.00000000000E+00  0.00000000000E+00  0.43731429563E+04  0.43731429563E+04  0.00000000000E+00 0.  1.
         -2   -1    0    0    0  501 -0.00000000000E+00 -0.00000000000E+00 -0.45196246021E+03  0.45196246021E+03  0.00000000000E+00 0. -1.
    2000013    1    1    2    0    0 -0.81546392409E+03 -0.62551458104E+03  0.17319852505E+04  0.22267740816E+04  0.95000000000E+03 0.  0.
   -2000013    1    1    2    0    0  0.81546392409E+03  0.62551458104E+03  0.21891952457E+04  0.25983313350E+04  0.95000000000E+03 0.  0.
<mgrwt>
<rscale>  0 0.28117585E+04</rscale>
<asrwt>0</asrwt>
<pdfrwt beam="1">  1        2 0.67279119E+00 0.28117585E+04</pdfrwt>
<pdfrwt beam="2">  1       -2 0.69532689E-01 0.28117585E+04</pdfrwt>
<totfact> 0.26694162E-01</totfact>
</mgrwt>
</event>
<event>
 4    1  0.2552184E-008  0.2368168E+04  0.7816531E-02  0.8451518E-01
          2   -1    0    0  501    0  0.00000000000E+00  0.00000000000E+00  0.21750442003E+04  0.21750442003E+04  0.00000000000E+00 0.  1.
         -2   -1    0    0    0  501 -0.00000000000E+00 -0.00000000000E+00 -0.64461004045E+03  0.64461004045E+03  0.00000000000E+00 0. -1.
    2000013    1    1    2    0    0  0.75879960898E+02  0.65498239334E+03  0.46213788221E+03  0.12453237034E+04  0.95000000000E+03 0.  0.
   -2000013    1    1    2    0    0 -0.75879960898E+02 -0.65498239334E+03  0.10682962777E+04  0.15743305374E+04  0.95000000000E+03 0.  0.
<mgrwt>
<rscale>  0 0.23681683E+04</rscale>
<asrwt>0</asrwt>
<pdfrwt beam="1">  1        2 0.33462218E+00 0.23681683E+04</pdfrwt>
<pdfrwt beam="2">  1       -2 0.99170777E-01 0.23681683E+04</pdfrwt>
<totfact> 0.40504541E+00</totfact>
</mgrwt>
</event>
<event>
 4    1  0.2552184E-008  0.2487582E+04  0.7816531E-02  0.8407423E-01
          2   -1    0    0  501    0  0.00000000000E+00  0.00000000000E+00  0.21479486499E+04  0.21479486499E+04  0.00000000000E+00 0.  1.
         -2   -1    0    0    0  501 -0.00000000000E+00 -0.00000000000E+00 -0.72022924611E+03  0.72022924611E+03  0.00000000000E+00 0. -1.
    2000013    1    1    2    0    0  0.52010406528E+03 -0.50258662532E+03  0.31210317775E+03  0.12341028921E+04  0.95000000000E+03 0.  0.
   -2000013    1    1    2    0    0 -0.52010406528E+03  0.50258662532E+03  0.11156162260E+04  0.16340750039E+04  0.95000000000E+03 0.  0.
<mgrwt>
<rscale>  0 0.24875815E+04</rscale>
<asrwt>0</asrwt>
<pdfrwt beam="1">  1        2 0.33045364E+00 0.24875815E+04</pdfrwt>
<pdfrwt beam="2">  1       -2 0.11080450E+00 0.24875815E+04</pdfrwt>
<totfact> 0.31829446E+00</totfact>
</mgrwt>
</event>
<event>
 4    1  0.2552184E-008  0.2441722E+04  0.7816531E-02  0.8424046E-01
         -2   -1    0    0    0  501 -0.00000000000E+00  0.00000000000E+00  0.16648120895E+04  0.16648120895E+04  0.00000000000E+00 0. -1.
          2   -1    0    0  501    0  0.00000000000E+00 -0.00000000000E+00 -0.89529754635E+03  0.89529754635E+03  0.00000000000E+00 0.  1.
    2000013    1    1    2    0    0  0.52141814431E+03  0.34260356434E+03 -0.82669678628E+02  0.11395562115E+04  0.95000000000E+03 0.  0.
   -2000013    1    1    2    0    0 -0.52141814431E+03 -0.34260356434E+03  0.85218422182E+03  0.14205534244E+04  0.95000000000E+03 0.  0.
<mgrwt>
<rscale>  0 0.24417225E+04</rscale>
<asrwt>0</asrwt>
<pdfrwt beam="2">  1        2 0.13773808E+00 0.24417225E+04</pdfrwt>
<pdfrwt beam="1">  1       -2 0.25612494E+00 0.24417225E+04</pdfrwt>
<totfact> 0.15596779E+00</totfact>
</mgrwt>
</event>
<event>
 4    1  0.2552184E-008  0.3799062E+04  0.7816531E-02  0.8046356E-01
          2   -1    0    0  501    0  0.00000000000E+00  0.00000000000E+00  0.41661864079E+04  0.41661864079E+04  0.00000000000E+00 0.  1.
         -2   -1    0    0    0  501 -0.00000000000E+00 -0.00000000000E+00 -0.86607236636E+03  0.86607236636E+03  0.00000000000E+00 0. -1.
    2000013    1    1    2    0    0  0.29572836864E+03  0.11056310155E+04  0.85090946101E+02  0.14898374675E+04  0.95000000000E+03 0.  0.
   -2000013    1    1    2    0    0 -0.29572836864E+03 -0.11056310155E+04  0.32150230955E+04  0.35424213068E+04  0.95000000000E+03 0.  0.
<mgrwt>
<rscale>  0 0.37990625E+04</rscale>
<asrwt>0</asrwt>
<pdfrwt beam="1">  1        2 0.64095174E+00 0.37990625E+04</pdfrwt>
<pdfrwt beam="2">  1       -2 0.13324191E+00 0.37990625E+04</pdfrwt>
<totfact> 0.81015121E-02</totfact>
</mgrwt>
</event>
<event>
 4    1  0.2552184E-008  0.2138930E+04  0.7816531E-02  0.8544286E-01
         -2   -1    0    0    0  501 -0.00000000000E+00  0.00000000000E+00  0.85311021980E+03  0.85311021980E+03  0.00000000000E+00 0. -1.
          2   -1    0    0  501    0  0.00000000000E+00 -0.00000000000E+00 -0.13406886369E+04  0.13406886369E+04  0.00000000000E+00 0.  1.
    2000013    1    1    2    0    0 -0.19917088061E+03  0.42384376851E+03 -0.91858943367E+02  0.10631324684E+04  0.95000000000E+03 0.  0.
   -2000013    1    1    2    0    0  0.19917088061E+03 -0.42384376851E+03 -0.39571947369E+03  0.11306663883E+04  0.95000000000E+03 0.  0.
<mgrwt>
<rscale>  0 0.21389298E+04</rscale>
<asrwt>0</asrwt>
<pdfrwt beam="2">  1        2 0.20625979E+00 0.21389298E+04</pdfrwt>
<pdfrwt beam="1">  1       -2 0.13124773E+00 0.21389298E+04</pdfrwt>
<totfact> 0.60972032E+00</totfact>
</mgrwt>
</event>
<event>
 4    1  0.2552184E-008  0.3389236E+04  0.7816531E-02  0.8140553E-01
         -2   -1    0    0    0  501 -0.00000000000E+00  0.00000000000E+00  0.10791505158E+04  0.10791505158E+04  0.00000000000E+00 0. -1.
          2   -1    0    0  501    0  0.00000000000E+00 -0.00000000000E+00 -0.26611024039E+04  0.26611024039E+04  0.00000000000E+00 0.  1.
    2000013    1    1    2    0    0  0.49315797861E+03 -0.60648963018E+03 -0.20770924871E+04  0.24140935490E+04  0.95000000000E+03 0.  0.
   -2000013    1    1    2    0    0 -0.49315797861E+03  0.60648963018E+03  0.49514059905E+03  0.13261593706E+04  0.95000000000E+03 0.  0.
<mgrwt>
<rscale>  0 0.33892359E+04</rscale>
<asrwt>0</asrwt>
<pdfrwt beam="2">  1        2 0.40940037E+00 0.33892359E+04</pdfrwt>
<pdfrwt beam="1">  1       -2 0.16602316E+00 0.33892359E+04</pdfrwt>
<totfact> 0.52839632E-01</totfact>
</mgrwt>
</event>
<event>
 4    1  0.2552184E-008  0.2970787E+04  0.7816531E-02  0.8252122E-01
          2   -1    0    0  501    0  0.00000000000E+00  0.00000000000E+00  0.19937310896E+04  0.19937310896E+04  0.00000000000E+00 0.  1.
         -2   -1    0    0    0  501 -0.00000000000E+00 -0.00000000000E+00 -0.11066655530E+04  0.11066655530E+04  0.00000000000E+00 0. -1.
    2000013    1    1    2    0    0  0.76598058711E+03 -0.68434776772E+03  0.96412999560E+03  0.16991482500E+04  0.95000000000E+03 0.  0.
   -2000013    1    1    2    0    0 -0.76598058711E+03  0.68434776772E+03 -0.77064458931E+02  0.14012483926E+04  0.95000000000E+03 0.  0.
<mgrwt>
<rscale>  0 0.29707868E+04</rscale>
<asrwt>0</asrwt>
<pdfrwt beam="1">  1        2 0.30672786E+00 0.29707868E+04</pdfrwt>
<pdfrwt beam="2">  1       -2 0.17025624E+00 0.29707868E+04</pdfrwt>
<totfact> 0.12266828E+00</totfact>
</mgrwt>
</event>
<event>
 4    1  0.2552184E-008  0.2236515E+04  0.7816531E-02  0.8503382E-01
         -2   -1    0    0    0  501 -0.00000000000E+00  0.00000000000E+00  0.10358741296E+04  0.10358741296E+04  0.00000000000E+00 0. -1.
          2   -1    0    0  501    0  0.00000000000E+00 -0.00000000000E+00 -0.12071926242E+04  0.12071926242E+04  0.00000000000E+00 0.  1.
    2000013    1    1    2    0    0  0.13031527062E+03 -0.45211322738E+03  0.27120778671E+03  0.10942769776E+04  0.95000000000E+03 0.  0.
   -2000013    1    1    2    0    0 -0.13031527062E+03  0.45211322738E+03 -0.44252628132E+03  0.11487897762E+04  0.95000000000E+03 0.  0.
<mgrwt>
<rscale>  0 0.22365148E+04</rscale>
<asrwt>0</asrwt>
<pdfrwt beam="2">  1        2 0.18572194E+00 0.22365148E+04</pdfrwt>
<pdfrwt beam="1">  1       -2 0.15936525E+00 0.22365148E+04</pdfrwt>
<totfact> 0.43522074E+00</totfact>
</mgrwt>
</event>
<event>
 4    1  0.2552184E-008  0.2991875E+04  0.7816531E-02  0.8246055E-01
          2   -1    0    0  501    0  0.00000000000E+00  0.00000000000E+00  0.22718143476E+04  0.22718143476E+04  0.00000000000E+00 0.  1.
         -2   -1    0    0    0  501 -0.00000000000E+00 -0.00000000000E+00 -0.98504061118E+03  0.98504061118E+03  0.00000000000E+00 0. -1.
    2000013    1    1    2    0    0  0.80478469996E+03  0.82795843931E+03  0.69369469100E+03  0.16483039510E+04  0.95000000000E+03 0.  0.
   -2000013    1    1    2    0    0 -0.80478469996E+03 -0.82795843931E+03  0.59307904539E+03  0.16085510078E+04  0.95000000000E+03 0.  0.
<mgrwt>
<rscale>  0 0.29918753E+04</rscale>
<asrwt>0</asrwt>
<pdfrwt beam="1">  1        2 0.34950990E+00 0.29918753E+04</pdfrwt>
<pdfrwt beam="2">  1       -2 0.15154471E+00 0.29918753E+04</pdfrwt>
<totfact> 0.11746582E+00</totfact>
</mgrwt>
</event>
<event>
 4    1  0.2552184E-008  0.3255536E+04  0.7816531E-02  0.8174302E-01
         -2   -1    0    0    0  501 -0.00000000000E+00  0.00000000000E+00  0.10956256552E+04  0.10956256552E+04  0.00000000000E+00 0. -1.
          2   -1    0    0  501    0  0.00000000000E+00 -0.00000000000E+00 -0.24183703875E+04  0.24183703875E+04  0.00000000000E+00 0.  1.
    2000013    1    1    2    0    0  0.12474045822E+04  0.40280190248E+03 -0.84474521253E+03  0.18260235591E+04  0.95000000000E+03 0.  0.
   -2000013    1    1    2    0    0 -0.12474045822E+04 -0.40280190248E+03 -0.47799951974E+03  0.16879724836E+04  0.95000000000E+03 0.  0.
<mgrwt>
<rscale>  0 0.32555360E+04</rscale>
<asrwt>0</asrwt>
<pdfrwt beam="2">  1        2 0.37205698E+00 0.32555360E+04</pdfrwt>
<pdfrwt beam="1">  1       -2 0.16855779E+00 0.32555360E+04</pdfrwt>
<totfact> 0.70975250E-01</totfact>
</mgrwt>
</event>
<event>
 4    1  0.2552184E-008  0.3324213E+04  0.7816531E-02  0.8156762E-01
          1   -1    0    0  501    0  0.00000000000E+00  0.00000000000E+00  0.35842066073E+04  0.35842066073E+04  0.00000000000E+00 0.  1.
         -1   -1    0    0    0  501 -0.00000000000E+00 -0.00000000000E+00 -0.77076956019E+03  0.77076956019E+03  0.00000000000E+00 0. -1.
    2000013    1    1    2    0    0  0.48123870664E+03  0.11893441506E+04  0.80072142964E+03  0.17859969231E+04  0.95000000000E+03 0.  0.
   -2000013    1    1    2    0    0 -0.48123870664E+03 -0.11893441506E+04  0.20127156175E+04  0.25689792444E+04  0.95000000000E+03 0.  0.
<mgrwt>
<rscale>  0 0.33242126E+04</rscale>
<asrwt>0</asrwt>
<pdfrwt beam="1">  1        1 0.55141639E+00 0.33242126E+04</pdfrwt>
<pdfrwt beam="2">  1       -1 0.11857993E+00 0.33242126E+04</pdfrwt>
<totfact> 0.11285925E-01</totfact>
</mgrwt>
</event>
<event>
 4    1  0.2552184E-008  0.2591579E+04  0.7816531E-02  0.8371067E-01
          2   -1    0    0  501    0  0.00000000000E+00  0.00000000000E+00  0.16922970727E+04  0.16922970727E+04  0.00000000000E+00 0.  1.
         -2   -1    0    0    0  501 -0.00000000000E+00 -0.00000000000E+00 -0.99218434151E+03  0.99218434151E+03  0.00000000000E+00 0. -1.
    2000013    1    1    2    0    0  0.68966137323E+01 -0.87658082665E+03  0.44345024795E+03  0.13665978309E+04  0.95000000000E+03 0.  0.
   -2000013    1    1    2    0    0 -0.68966137323E+01  0.87658082665E+03  0.25666248323E+03  0.13178835833E+04  0.95000000000E+03 0.  0.
<mgrwt>
<rscale>  0 0.25915792E+04</rscale>
<asrwt>0</asrwt>
<pdfrwt beam="1">  1        2 0.26035340E+00 0.25915792E+04</pdfrwt>
<pdfrwt beam="2">  1       -2 0.15264374E+00 0.25915792E+04</pdfrwt>
<totfact> 0.25078285E+00</totfact>
</mgrwt>
</event>
<event>
 4    1  0.2552184E-008  0.2871455E+04  0.7816531E-02  0.8281422E-01
         -2   -1    0    0    0  501 -0.00000000000E+00  0.00000000000E+00  0.80812404363E+03  0.80812404363E+03  0.00000000000E+00 0. -1.
          2   -1    0    0  501    0  0.00000000000E+00 -0.00000000000E+00 -0.25507384312E+04  0.25507384312E+04  0.00000000000E+00 0.  1.
    2000013    1    1    2    0    0  0.10599800329E+04 -0.18712482467E+03 -0.85319751274E+03  0.16700357379E+04  0.95000000000E+03 0.  0.
   -2000013    1    1    2    0    0 -0.10599800329E+04  0.18712482467E+03 -0.88941687483E+03  0.16888267369E+04  0.95000000000E+03 0.  0.
<mgrwt>
<rscale>  0 0.28714547E+04</rscale>
<asrwt>0</asrwt>
<pdfrwt beam="2">  1        2 0.39242130E+00 0.28714547E+04</pdfrwt>
<pdfrwt beam="1">  1       -2 0.12432678E+00 0.28714547E+04</pdfrwt>
<totfact> 0.13670858E+00</totfact>
</mgrwt>
</event>
<event>
 4    1  0.2552184E-008  0.2872984E+04  0.7816531E-02  0.8280961E-01
         -2   -1    0    0    0  501 -0.00000000000E+00  0.00000000000E+00  0.81795922340E+03  0.81795922340E+03  0.00000000000E+00 0. -1.
          2   -1    0    0  501    0  0.00000000000E+00 -0.00000000000E+00 -0.25227532852E+04  0.25227532852E+04  0.00000000000E+00 0.  1.
    2000013    1    1    2    0    0  0.29436229948E+03  0.62005297610E+03  0.11342524891E+03  0.11774889144E+04  0.95000000000E+03 0.  0.
   -2000013    1    1    2    0    0 -0.29436229948E+03 -0.62005297610E+03 -0.18182193107E+04  0.21632235941E+04  0.95000000000E+03 0.  0.
<mgrwt>
<rscale>  0 0.28729840E+04</rscale>
<asrwt>0</asrwt>
<pdfrwt beam="2">  1        2 0.38811590E+00 0.28729840E+04</pdfrwt>
<pdfrwt beam="1">  1       -2 0.12583988E+00 0.28729840E+04</pdfrwt>
<totfact> 0.13767649E+00</totfact>
</mgrwt>
</event>
<event>
 4    1  0.2552184E-008  0.2760948E+04  0.7816531E-02  0.8315496E-01
         -2   -1    0    0    0  501 -0.00000000000E+00  0.00000000000E+00  0.11778755146E+04  0.11778755146E+04  0.00000000000E+00 0. -1.
          2   -1    0    0  501    0  0.00000000000E+00 -0.00000000000E+00 -0.16179200067E+04  0.16179200067E+04  0.00000000000E+00 0.  1.
    2000013    1    1    2    0    0  0.75222324975E+03 -0.56549604132E+03  0.12720918778E+03  0.13432452374E+04  0.95000000000E+03 0.  0.
   -2000013    1    1    2    0    0 -0.75222324975E+03  0.56549604132E+03 -0.56725367991E+03  0.14525502840E+04  0.95000000000E+03 0.  0.
<mgrwt>
<rscale>  0 0.27609479E+04</rscale>
<asrwt>0</asrwt>
<pdfrwt beam="2">  1        2 0.24891077E+00 0.27609479E+04</pdfrwt>
<pdfrwt beam="1">  1       -2 0.18121162E+00 0.27609479E+04</pdfrwt>
<totfact> 0.16922766E+00</totfact>
</mgrwt>
</event>
<event>
 4    1  0.2552184E-008  0.2465166E+04  0.7816531E-02  0.8415501E-01
         -1   -1    0    0    0  501 -0.00000000000E+00  0.00000000000E+00  0.15652680667E+04  0.15652680667E+04  0.00000000000E+00 0. -1.
          1   -1    0    0  501    0  0.00000000000E+00 -0.00000000000E+00 -0.97060773168E+03  0.97060773168E+03  0.00000000000E+00 0.  1.
    2000013    1    1    2    0    0 -0.76389230946E+03  0.77796999956E+02  0.46691465866E+03  0.13077052925E+04  0.95000000000E+03 0.  0.
   -2000013    1    1    2    0    0  0.76389230946E+03 -0.77796999956E+02  0.12774567638E+03  0.12281705059E+04  0.95000000000E+03 0.  0.
<mgrwt>
<rscale>  0 0.24651664E+04</rscale>
<asrwt>0</asrwt>
<pdfrwt beam="2">  1        1 0.14932427E+00 0.24651664E+04</pdfrwt>
<pdfrwt beam="1">  1       -1 0.24081047E+00 0.24651664E+04</pdfrwt>
<totfact> 0.11388763E+00</totfact>
</mgrwt>
</event>
<event>
 4    1  0.2552184E-008  0.2497026E+04  0.7816531E-02  0.8404046E-01
         -2   -1    0    0    0  501 -0.00000000000E+00  0.00000000000E+00  0.11787686414E+04  0.11787686414E+04  0.00000000000E+00 0. -1.
          2   -1    0    0  501    0  0.00000000000E+00 -0.00000000000E+00 -0.13223834257E+04  0.13223834257E+04  0.00000000000E+00 0.  1.
    2000013    1    1    2    0    0  0.69300543740E+03  0.98834704287E+02  0.33661548693E+03  0.12271246151E+04  0.95000000000E+03 0.  0.
   -2000013    1    1    2    0    0 -0.69300543740E+03 -0.98834704287E+02 -0.48023027118E+03  0.12740274520E+04  0.95000000000E+03 0.  0.
<mgrwt>
<rscale>  0 0.24970255E+04</rscale>
<asrwt>0</asrwt>
<pdfrwt beam="2">  1        2 0.20344360E+00 0.24970255E+04</pdfrwt>
<pdfrwt beam="1">  1       -2 0.18134902E+00 0.24970255E+04</pdfrwt>
<totfact> 0.25402131E+00</totfact>
</mgrwt>
</event>
<event>
 4    1  0.2552184E-008  0.3053288E+04  0.7816531E-02  0.8228676E-01
         -2   -1    0    0    0  501 -0.00000000000E+00  0.00000000000E+00  0.14350391731E+04  0.14350391731E+04  0.00000000000E+00 0. -1.
          2   -1    0    0  501    0  0.00000000000E+00 -0.00000000000E+00 -0.16240960098E+04  0.16240960098E+04  0.00000000000E+00 0.  1.
    2000013    1    1    2    0    0 -0.27274213383E+03  0.11633936118E+04 -0.11094354962E+03  0.15305820588E+04  0.95000000000E+03 0.  0.
   -2000013    1    1    2    0    0  0.27274213383E+03 -0.11633936118E+04 -0.78113287117E+02  0.15285531241E+04  0.95000000000E+03 0.  0.
<mgrwt>
<rscale>  0 0.30532877E+04</rscale>
<asrwt>0</asrwt>
<pdfrwt beam="2">  1        2 0.24986092E+00 0.30532877E+04</pdfrwt>
<pdfrwt beam="1">  1       -2 0.22077526E+00 0.30532877E+04</pdfrwt>
<totfact> 0.90050549E-01</totfact>
</mgrwt>
</event>
<event>
 4    1  0.2552184E-008  0.3074033E+04  0.7816531E-02  0.8222901E-01
         -2   -1    0    0    0  501 -0.00000000000E+00  0.00000000000E+00  0.97567985393E+03  0.97567985393E+03  0.00000000000E+00 0.  1.
          2   -1    0    0  501    0  0.00000000000E+00 -0.00000000000E+00 -0.24213059500E+04  0.24213059500E+04  0.00000000000E+00 0. -1.
    2000013    1    1    2    0    0 -0.97669798839E+03  0.69865706631E+03 -0.57513664295E+03  0.16356475216E+04  0.95000000000E+03 0.  0.
   -2000013    1    1    2    0    0  0.97669798839E+03 -0.69865706631E+03 -0.87048945311E+03  0.17613382823E+04  0.95000000000E+03 0.  0.
<mgrwt>
<rscale>  0 0.30740328E+04</rscale>
<asrwt>0</asrwt>
<pdfrwt beam="2">  1        2 0.37250860E+00 0.30740328E+04</pdfrwt>
<pdfrwt beam="1">  1       -2 0.15010459E+00 0.30740328E+04</pdfrwt>
<totfact> 0.98333368E-01</totfact>
</mgrwt>
</event>
<event>
 4    1  0.2552184E-008  0.2898509E+04  0.7816531E-02  0.8273321E-01
         -2   -1    0    0    0  501 -0.00000000000E+00  0.00000000000E+00  0.96384982066E+03  0.96384982066E+03  0.00000000000E+00 0. -1.
          2   -1    0    0  501    0  0.00000000000E+00 -0.00000000000E+00 -0.21791133777E+04  0.21791133777E+04  0.00000000000E+00 0.  1.
    2000013    1    1    2    0    0  0.42254248854E+03  0.50808293294E+03 -0.15536492283E+04  0.19372703337E+04  0.95000000000E+03 0.  0.
   -2000013    1    1    2    0    0 -0.42254248854E+03 -0.50808293294E+03  0.33838567123E+03  0.12056928646E+04  0.95000000000E+03 0.  0.
<mgrwt>
<rscale>  0 0.28985086E+04</rscale>
<asrwt>0</asrwt>
<pdfrwt beam="2">  1        2 0.33524821E+00 0.28985086E+04</pdfrwt>
<pdfrwt beam="1">  1       -2 0.14828459E+00 0.28985086E+04</pdfrwt>
<totfact> 0.14145212E+00</totfact>
</mgrwt>
</event>
<event>
 4    1  0.2552184E-008  0.2557657E+04  0.7816531E-02  0.8382728E-01
          2   -1    0    0  501    0  0.00000000000E+00  0.00000000000E+00  0.31805954168E+04  0.31805954168E+04  0.00000000000E+00 0.  1.
         -2   -1    0    0    0  501 -0.00000000000E+00 -0.00000000000E+00 -0.51418121940E+03  0.51418121940E+03  0.00000000000E+00 0. -1.
    2000013    1    1    2    0    0  0.29572376192E+03  0.80215399582E+03  0.13977927961E+04  0.18939979613E+04  0.95000000000E+03 0.  0.
   -2000013    1    1    2    0    0 -0.29572376192E+03 -0.80215399582E+03  0.12686214013E+04  0.18007786750E+04  0.95000000000E+03 0.  0.
<mgrwt>
<rscale>  0 0.25576571E+04</rscale>
<asrwt>0</asrwt>
<pdfrwt beam="1">  1        2 0.48932236E+00 0.25576571E+04</pdfrwt>
<pdfrwt beam="2">  1       -2 0.79104805E-01 0.25576571E+04</pdfrwt>
<totfact> 0.16805682E+00</totfact>
</mgrwt>
</event>
<event>
 4    1  0.2552184E-008  0.2819944E+04  0.7816531E-02  0.8297103E-01
         -2   -1    0    0    0  501 -0.00000000000E+00  0.00000000000E+00  0.13562627787E+04  0.13562627787E+04  0.00000000000E+00 0. -1.
          2   -1    0    0  501    0  0.00000000000E+00 -0.00000000000E+00 -0.14658078176E+04  0.14658078176E+04  0.00000000000E+00 0.  1.
    2000013    1    1    2    0    0  0.18873001245E+03  0.73538896168E+03 -0.76882637396E+03  0.14387529099E+04  0.95000000000E+03 0.  0.
   -2000013    1    1    2    0    0 -0.18873001245E+03 -0.73538896168E+03  0.65928133505E+03  0.13833176863E+04  0.95000000000E+03 0.  0.
<mgrwt>
<rscale>  0 0.28199437E+04</rscale>
<asrwt>0</asrwt>
<pdfrwt beam="2">  1        2 0.22550890E+00 0.28199437E+04</pdfrwt>
<pdfrwt beam="1">  1       -2 0.20865581E+00 0.28199437E+04</pdfrwt>
<totfact> 0.13470624E+00</totfact>
</mgrwt>
</event>
<event>
 4    1  0.2552184E-008  0.3050808E+04  0.7816531E-02  0.8229369E-01
          2   -1    0    0  501    0  0.00000000000E+00  0.00000000000E+00  0.27582499449E+04  0.27582499449E+04  0.00000000000E+00 0.  1.
         -2   -1    0    0    0  501 -0.00000000000E+00 -0.00000000000E+00 -0.84359936256E+03  0.84359936256E+03  0.00000000000E+00 0. -1.
    2000013    1    1    2    0    0 -0.98426813558E+03 -0.42192322975E+03  0.15793176916E+04  0.21315598386E+04  0.95000000000E+03 0.  0.
   -2000013    1    1    2    0    0  0.98426813558E+03  0.42192322975E+03  0.33533289068E+03  0.14702894688E+04  0.95000000000E+03 0.  0.
<mgrwt>
<rscale>  0 0.30508083E+04</rscale>
<asrwt>0</asrwt>
<pdfrwt beam="1">  1        2 0.42434614E+00 0.30508083E+04</pdfrwt>
<pdfrwt beam="2">  1       -2 0.12978452E+00 0.30508083E+04</pdfrwt>
<totfact> 0.91068473E-01</totfact>
</mgrwt>
</event>
<event>
 4    1  0.2552184E-008  0.1973676E+04  0.7816531E-02  0.8619028E-01
         -2   -1    0    0    0  501 -0.00000000000E+00  0.00000000000E+00  0.73750060137E+03  0.73750060137E+03  0.00000000000E+00 0. -1.
          2   -1    0    0  501    0  0.00000000000E+00 -0.00000000000E+00 -0.13204721720E+04  0.13204721720E+04  0.00000000000E+00 0.  1.
    2000013    1    1    2    0    0 -0.25587784324E+03 -0.50672226888E+02 -0.35145638677E+03  0.10459745394E+04  0.95000000000E+03 0.  0.
   -2000013    1    1    2    0    0  0.25587784324E+03  0.50672226888E+02 -0.23151518386E+03  0.10119982340E+04  0.95000000000E+03 0.  0.
<mgrwt>
<rscale>  0 0.19736758E+04</rscale>
<asrwt>0</asrwt>
<pdfrwt beam="2">  1        2 0.20314956E+00 0.19736758E+04</pdfrwt>
<pdfrwt beam="1">  1       -2 0.11346163E+00 0.19736758E+04</pdfrwt>
<totfact> 0.91263065E+00</totfact>
</mgrwt>
</event>
<event>
 4    1  0.2552184E-008  0.2113654E+04  0.7816531E-02  0.8555252E-01
          2   -1    0    0  501    0  0.00000000000E+00  0.00000000000E+00  0.11167364892E+04  0.11167364892E+04  0.00000000000E+00 0.  1.
         -2   -1    0    0    0  501 -0.00000000000E+00 -0.00000000000E+00 -0.10001318307E+04  0.10001318307E+04  0.00000000000E+00 0. -1.
    2000013    1    1    2    0    0 -0.34181498156E+03 -0.19953411844E+03  0.29894328153E+03  0.10716895220E+04  0.95000000000E+03 0.  0.
   -2000013    1    1    2    0    0  0.34181498156E+03  0.19953411844E+03 -0.18233862312E+03  0.10451787979E+04  0.95000000000E+03 0.  0.
<mgrwt>
<rscale>  0 0.21136544E+04</rscale>
<asrwt>0</asrwt>
<pdfrwt beam="1">  1        2 0.17180561E+00 0.21136544E+04</pdfrwt>
<pdfrwt beam="2">  1       -2 0.15386644E+00 0.21136544E+04</pdfrwt>
<totfact> 0.54830667E+00</totfact>
</mgrwt>
</event>
<event>
 4    1  0.2552184E-008  0.4641403E+04  0.7816531E-02  0.7886338E-01
          2   -1    0    0  501    0  0.00000000000E+00  0.00000000000E+00  0.10304120261E+04  0.10304120261E+04  0.00000000000E+00 0. -1.
         -2   -1    0    0    0  501 -0.00000000000E+00 -0.00000000000E+00 -0.52267001013E+04  0.52267001013E+04  0.00000000000E+00 0.  1.
    2000013    1    1    2    0    0 -0.13355728622E+04  0.13089582587E+04 -0.34368010770E+04  0.40263169567E+04  0.95000000000E+03 0.  0.
   -2000013    1    1    2    0    0  0.13355728622E+04 -0.13089582587E+04 -0.75948699829E+03  0.22307951707E+04  0.95000000000E+03 0.  0.
<mgrwt>
<rscale>  0 0.46414027E+04</rscale>
<asrwt>0</asrwt>
<pdfrwt beam="1">  1        2 0.15852493E+00 0.46414027E+04</pdfrwt>
<pdfrwt beam="2">  1       -2 0.80410769E+00 0.46414027E+04</pdfrwt>
<totfact> 0.13296231E-03</totfact>
</mgrwt>
</event>
<event>
 4    1  0.2552184E-008  0.2493462E+04  0.7816531E-02  0.8405318E-01
          1   -1    0    0  501    0  0.00000000000E+00  0.00000000000E+00  0.10320497715E+04  0.10320497715E+04  0.00000000000E+00 0.  1.
         -1   -1    0    0    0  501 -0.00000000000E+00 -0.00000000000E+00 -0.15060691673E+04  0.15060691673E+04  0.00000000000E+00 0. -1.
    2000013    1    1    2    0    0 -0.55881577303E+03  0.58138802523E+03 -0.27710081130E+03  0.12765468905E+04  0.95000000000E+03 0.  0.
   -2000013    1    1    2    0    0  0.55881577303E+03 -0.58138802523E+03 -0.19691858455E+03  0.12615720483E+04  0.95000000000E+03 0.  0.
<mgrwt>
<rscale>  0 0.24934621E+04</rscale>
<asrwt>0</asrwt>
<pdfrwt beam="1">  1        1 0.15877689E+00 0.24934621E+04</pdfrwt>
<pdfrwt beam="2">  1       -1 0.23170295E+00 0.24934621E+04</pdfrwt>
<totfact> 0.11679350E+00</totfact>
</mgrwt>
</event>
<event>
 4    1  0.2552184E-008  0.2053789E+04  0.7816531E-02  0.8581878E-01
          2   -1    0    0  501    0  0.00000000000E+00  0.00000000000E+00  0.16160028769E+04  0.16160028769E+04  0.00000000000E+00 0.  1.
         -2   -1    0    0    0  501 -0.00000000000E+00 -0.00000000000E+00 -0.65254328842E+03  0.65254328842E+03  0.00000000000E+00 0. -1.
    2000013    1    1    2    0    0  0.29773642567E+02 -0.34457249954E+03  0.68053690937E+03  0.12187071684E+04  0.95000000000E+03 0.  0.
   -2000013    1    1    2    0    0 -0.29773642567E+02  0.34457249954E+03  0.28292267916E+03  0.10498389970E+04  0.95000000000E+03 0.  0.
<mgrwt>
<rscale>  0 0.20537885E+04</rscale>
<asrwt>0</asrwt>
<pdfrwt beam="1">  1        2 0.24861583E+00 0.20537885E+04</pdfrwt>
<pdfrwt beam="2">  1       -2 0.10039128E+00 0.20537885E+04</pdfrwt>
<totfact> 0.82705117E+00</totfact>
</mgrwt>
</event>
<event>
 4    1  0.2552184E-008  0.3242220E+04  0.7816531E-02  0.8177755E-01
          2   -1    0    0  501    0  0.00000000000E+00  0.00000000000E+00  0.26937721942E+04  0.26937721942E+04  0.00000000000E+00 0.  1.
         -2   -1    0    0    0  501 -0.00000000000E+00 -0.00000000000E+00 -0.97558284174E+03  0.97558284174E+03  0.00000000000E+00 0. -1.
    2000013    1    1    2    0    0 -0.56959033646E+03  0.77786439562E+03  0.18688159730E+04  0.23074833283E+04  0.95000000000E+03 0.  0.
   -2000013    1    1    2    0    0  0.56959033646E+03 -0.77786439562E+03 -0.15062662053E+03  0.13618717077E+04  0.95000000000E+03 0.  0.
<mgrwt>
<rscale>  0 0.32422202E+04</rscale>
<asrwt>0</asrwt>
<pdfrwt beam="1">  1        2 0.41442649E+00 0.32422202E+04</pdfrwt>
<pdfrwt beam="2">  1       -2 0.15008967E+00 0.32422202E+04</pdfrwt>
<totfact> 0.67206750E-01</totfact>
</mgrwt>
</event>
<event>
 4    1  0.2552184E-008  0.3046470E+04  0.7816531E-02  0.8230584E-01
          1   -1    0    0  501    0  0.00000000000E+00  0.00000000000E+00  0.12410801811E+04  0.12410801811E+04  0.00000000000E+00 0.  1.
         -1   -1    0    0    0  501 -0.00000000000E+00 -0.00000000000E+00 -0.18695365085E+04  0.18695365085E+04  0.00000000000E+00 0. -1.
    2000013    1    1    2    0    0  0.10455376472E+04  0.31827248929E+03 -0.79672266994E+03  0.16527895698E+04  0.95000000000E+03 0.  0.
   -2000013    1    1    2    0    0 -0.10455376472E+04 -0.31827248929E+03  0.16826634255E+03  0.14578271198E+04  0.95000000000E+03 0.  0.
<mgrwt>
<rscale>  0 0.30464699E+04</rscale>
<asrwt>0</asrwt>
<pdfrwt beam="1">  1        1 0.19093541E+00 0.30464699E+04</pdfrwt>
<pdfrwt beam="2">  1       -1 0.28762100E+00 0.30464699E+04</pdfrwt>
<totfact> 0.33584389E-01</totfact>
</mgrwt>
</event>
<event>
 4    1  0.2552184E-008  0.2861983E+04  0.7816531E-02  0.8284279E-01
         -2   -1    0    0    0  501 -0.00000000000E+00  0.00000000000E+00  0.12476570949E+04  0.12476570949E+04  0.00000000000E+00 0. -1.
          2   -1    0    0  501    0  0.00000000000E+00 -0.00000000000E+00 -0.16412657562E+04  0.16412657562E+04  0.00000000000E+00 0.  1.
    2000013    1    1    2    0    0 -0.70114458149E+03  0.53622867368E+03 -0.80755501761E+03  0.15276747105E+04  0.95000000000E+03 0.  0.
   -2000013    1    1    2    0    0  0.70114458149E+03 -0.53622867368E+03  0.41394635631E+03  0.13612481407E+04  0.95000000000E+03 0.  0.
<mgrwt>
<rscale>  0 0.28619831E+04</rscale>
<asrwt>0</asrwt>
<pdfrwt beam="2">  1        2 0.25250242E+00 0.28619831E+04</pdfrwt>
<pdfrwt beam="1">  1       -2 0.19194725E+00 0.28619831E+04</pdfrwt>
<totfact> 0.13772560E+00</totfact>
</mgrwt>
</event>
<event>
 4    1  0.2552184E-008  0.3100549E+04  0.7816531E-02  0.8215587E-01
          2   -1    0    0  501    0  0.00000000000E+00  0.00000000000E+00  0.31140506135E+04  0.31140506135E+04  0.00000000000E+00 0.  1.
         -2   -1    0    0    0  501 -0.00000000000E+00 -0.00000000000E+00 -0.77177644243E+03  0.77177644243E+03  0.00000000000E+00 0. -1.
    2000013    1    1    2    0    0 -0.74583110339E+03  0.35179059412E+03  0.35677828305E+02  0.12584886032E+04  0.95000000000E+03 0.  0.
   -2000013    1    1    2    0    0  0.74583110339E+03 -0.35179059412E+03  0.23065963428E+04  0.26273384528E+04  0.95000000000E+03 0.  0.
<mgrwt>
<rscale>  0 0.31005489E+04</rscale>
<asrwt>0</asrwt>
<pdfrwt beam="1">  1        2 0.47908470E+00 0.31005489E+04</pdfrwt>
<pdfrwt beam="2">  1       -2 0.11873484E+00 0.31005489E+04</pdfrwt>
<totfact> 0.68169831E-01</totfact>
</mgrwt>
</event>
<event>
 4    1  0.2552184E-008  0.3112493E+04  0.7816531E-02  0.8212318E-01
          2   -1    0    0  501    0  0.00000000000E+00  0.00000000000E+00  0.14461770059E+04  0.14461770059E+04  0.00000000000E+00 0.  1.
         -2   -1    0    0    0  501 -0.00000000000E+00 -0.00000000000E+00 -0.16746936048E+04  0.16746936048E+04  0.00000000000E+00 0. -1.
    2000013    1    1    2    0    0  0.94934624604E+03  0.65201548765E+03  0.32626564592E+03  0.15281792312E+04  0.95000000000E+03 0.  0.
   -2000013    1    1    2    0    0 -0.94934624604E+03 -0.65201548765E+03 -0.55478224483E+03  0.15926913795E+04  0.95000000000E+03 0.  0.
<mgrwt>
<rscale>  0 0.31124931E+04</rscale>
<asrwt>0</asrwt>
<pdfrwt beam="1">  1        2 0.22248877E+00 0.31124931E+04</pdfrwt>
<pdfrwt beam="2">  1       -2 0.25764517E+00 0.31124931E+04</pdfrwt>
<totfact> 0.66618124E-01</totfact>
</mgrwt>
</event>
<event>
 4    1  0.2552184E-008  0.3172929E+04  0.7816531E-02  0.8196003E-01
          2   -1    0    0  501    0  0.00000000000E+00  0.00000000000E+00  0.31981818239E+04  0.31981818239E+04  0.00000000000E+00 0.  1.
         -2   -1    0    0    0  501 -0.00000000000E+00 -0.00000000000E+00 -0.78696904433E+03  0.78696904433E+03  0.00000000000E+00 0. -1.
    2000013    1    1    2    0    0  0.71370500545E+03 -0.86965174905E+03  0.46393585337E+03  0.15438281885E+04  0.95000000000E+03 0.  0.
   -2000013    1    1    2    0    0 -0.71370500545E+03  0.86965174905E+03  0.19472769262E+04  0.24413226797E+04  0.95000000000E+03 0.  0.
<mgrwt>
<rscale>  0 0.31729293E+04</rscale>
<asrwt>0</asrwt>
<pdfrwt beam="1">  1        2 0.49202796E+00 0.31729293E+04</pdfrwt>
<pdfrwt beam="2">  1       -2 0.12107216E+00 0.31729293E+04</pdfrwt>
<totfact> 0.56942632E-01</totfact>
</mgrwt>
</event>
<event>
 4    1  0.2552184E-008  0.2492748E+04  0.7816531E-02  0.8405574E-01
          2   -1    0    0  501    0  0.00000000000E+00  0.00000000000E+00  0.14213794143E+04  0.14213794143E+04  0.00000000000E+00 0.  1.
         -2   -1    0    0    0  501 -0.00000000000E+00 -0.00000000000E+00 -0.10929157821E+04  0.10929157821E+04  0.00000000000E+00 0. -1.
    2000013    1    1    2    0    0 -0.70115929519E+03 -0.38038563327E+03  0.42230050795E+02  0.12412094764E+04  0.95000000000E+03 0.  0.
   -2000013    1    1    2    0    0  0.70115929519E+03  0.38038563327E+03  0.28623358140E+03  0.12730857200E+04  0.95000000000E+03 0.  0.
<mgrwt>
<rscale>  0 0.24927479E+04</rscale>
<asrwt>0</asrwt>
<pdfrwt beam="1">  1        2 0.21867376E+00 0.24927479E+04</pdfrwt>
<pdfrwt beam="2">  1       -2 0.16814089E+00 0.24927479E+04</pdfrwt>
<totfact> 0.27593983E+00</totfact>
</mgrwt>
</event>
<event>
 4    1  0.2552184E-008  0.2774575E+04  0.7816531E-02  0.8311205E-01
          1   -1    0    0  501    0  0.00000000000E+00  0.00000000000E+00  0.26058867628E+04  0.26058867628E+04  0.00000000000E+00 0.  1.
         -1   -1    0    0    0  501 -0.00000000000E+00 -0.00000000000E+00 -0.73854589128E+03  0.73854589128E+03  0.00000000000E+00 0. -1.
    2000013    1    1    2    0    0  0.38421842467E+03 -0.76072466033E+03  0.27815665114E+03  0.13062147332E+04  0.95000000000E+03 0.  0.
   -2000013    1    1    2    0    0 -0.38421842467E+03  0.76072466033E+03  0.15891842204E+04  0.20382179209E+04  0.95000000000E+03 0.  0.
<mgrwt>
<rscale>  0 0.27745753E+04</rscale>
<asrwt>0</asrwt>
<pdfrwt beam="1">  1        1 0.40090565E+00 0.27745753E+04</pdfrwt>
<pdfrwt beam="2">  1       -1 0.11362245E+00 0.27745753E+04</pdfrwt>
<totfact> 0.70027040E-01</totfact>
</mgrwt>
</event>
<event>
 4    1  0.2552184E-008  0.4078069E+04  0.7816531E-02  0.7988980E-01
          1   -1    0    0  501    0  0.00000000000E+00  0.00000000000E+00  0.26845033450E+04  0.26845033450E+04  0.00000000000E+00 0. -1.
         -1   -1    0    0    0  501 -0.00000000000E+00 -0.00000000000E+00 -0.15487640653E+04  0.15487640653E+04  0.00000000000E+00 0.  1.
    2000013    1    1    2    0    0  0.80579487973E+03  0.98153951444E+03 -0.76247901631E+03  0.17597157318E+04  0.95000000000E+03 0.  0.
   -2000013    1    1    2    0    0 -0.80579487973E+03 -0.98153951444E+03  0.18982182960E+04  0.24735516784E+04  0.95000000000E+03 0.  0.
<mgrwt>
<rscale>  0 0.40780693E+04</rscale>
<asrwt>0</asrwt>
<pdfrwt beam="1">  1        1 0.41300051E+00 0.40780693E+04</pdfrwt>
<pdfrwt beam="2">  1       -1 0.23827139E+00 0.40780693E+04</pdfrwt>
<totfact> 0.65131714E-02</totfact>
</mgrwt>
</event>
<event>
 4    1  0.2552184E-008  0.3333061E+04  0.7816531E-02  0.8154534E-01
         -2   -1    0    0    0  501 -0.00000000000E+00  0.00000000000E+00  0.31411454181E+04  0.31411454181E+04  0.00000000000E+00 0. -1.
          2   -1    0    0  501    0  0.00000000000E+00 -0.00000000000E+00 -0.88417539026E+03  0.88417539026E+03  0.00000000000E+00 0.  1.
    2000013    1    1    2    0    0  0.76209488097E+03 -0.19338030556E+03  0.24823099971E+04  0.27717408739E+04  0.95000000000E+03 0.  0.
   -2000013    1    1    2    0    0 -0.76209488097E+03  0.19338030556E+03 -0.22533996935E+03  0.12535799344E+04  0.95000000000E+03 0.  0.
<mgrwt>
<rscale>  0 0.33330607E+04</rscale>
<asrwt>0</asrwt>
<pdfrwt beam="2">  1        2 0.13602698E+00 0.33330607E+04</pdfrwt>
<pdfrwt beam="1">  1       -2 0.48325314E+00 0.33330607E+04</pdfrwt>
<totfact> 0.52600009E-02</totfact>
</mgrwt>
</event>
<event>
 4    1  0.2552184E-008  0.2494639E+04  0.7816531E-02  0.8404898E-01
          2   -1    0    0  501    0  0.00000000000E+00  0.00000000000E+00  0.18600273762E+04  0.18600273762E+04  0.00000000000E+00 0.  1.
         -2   -1    0    0    0  501 -0.00000000000E+00 -0.00000000000E+00 -0.83644218438E+03  0.83644218438E+03  0.00000000000E+00 0. -1.
    2000013    1    1    2    0    0  0.80437712697E+03 -0.54354589847E+02  0.57415232225E+03  0.13719066561E+04  0.95000000000E+03 0.  0.
   -2000013    1    1    2    0    0 -0.80437712697E+03  0.54354589847E+02  0.44943286962E+03  0.13245629046E+04  0.95000000000E+03 0.  0.
<mgrwt>
<rscale>  0 0.24946385E+04</rscale>
<asrwt>0</asrwt>
<pdfrwt beam="1">  1        2 0.28615806E+00 0.24946385E+04</pdfrwt>
<pdfrwt beam="2">  1       -2 0.12868341E+00 0.24946385E+04</pdfrwt>
<totfact> 0.31779361E+00</totfact>
</mgrwt>
</event>
<event>
 4    1  0.2552184E-008  0.2880799E+04  0.7816531E-02  0.8278613E-01
          1   -1    0    0  501    0  0.00000000000E+00  0.00000000000E+00  0.19281883619E+04  0.19281883619E+04  0.00000000000E+00 0.  1.
         -1   -1    0    0    0  501 -0.00000000000E+00 -0.00000000000E+00 -0.10760104627E+04  0.10760104627E+04  0.00000000000E+00 0. -1.
    2000013    1    1    2    0    0 -0.10216011131E+04 -0.34482351388E+03  0.32349409215E+03  0.14729971207E+04  0.95000000000E+03 0.  0.
   -2000013    1    1    2    0    0  0.10216011131E+04  0.34482351388E+03  0.52868380708E+03  0.15312017039E+04  0.95000000000E+03 0.  0.
<mgrwt>
<rscale>  0 0.28807991E+04</rscale>
<asrwt>0</asrwt>
<pdfrwt beam="1">  1        1 0.29664436E+00 0.28807991E+04</pdfrwt>
<pdfrwt beam="2">  1       -1 0.16554007E+00 0.28807991E+04</pdfrwt>
<totfact> 0.76104500E-01</totfact>
</mgrwt>
</event>
<event>
 4    1  0.2552184E-008  0.3249291E+04  0.7816531E-02  0.8175919E-01
          2   -1    0    0  501    0  0.00000000000E+00  0.00000000000E+00  0.38229161136E+04  0.38229161136E+04  0.00000000000E+00 0.  1.
         -2   -1    0    0    0  501 -0.00000000000E+00 -0.00000000000E+00 -0.69043450461E+03  0.69043450461E+03  0.00000000000E+00 0. -1.
    2000013    1    1    2    0    0 -0.68912561529E+03 -0.10345962242E+04  0.21743896336E+04  0.26787597390E+04  0.95000000000E+03 0.  0.
   -2000013    1    1    2    0    0  0.68912561529E+03  0.10345962242E+04  0.95809197542E+03  0.18345908792E+04  0.95000000000E+03 0.  0.
<mgrwt>
<rscale>  0 0.32492911E+04</rscale>
<asrwt>0</asrwt>
<pdfrwt beam="1">  1        2 0.58814093E+00 0.32492911E+04</pdfrwt>
<pdfrwt beam="2">  1       -2 0.10622070E+00 0.32492911E+04</pdfrwt>
<totfact> 0.28235065E-01</totfact>
</mgrwt>
</event>
<event>
 4    1  0.2552184E-008  0.3632973E+04  0.7816531E-02  0.8082980E-01
         -2   -1    0    0    0  501 -0.00000000000E+00  0.00000000000E+00  0.13963950357E+04  0.13963950357E+04  0.00000000000E+00 0. -1.
          2   -1    0    0  501    0  0.00000000000E+00 -0.00000000000E+00 -0.23629578539E+04  0.23629578539E+04  0.00000000000E+00 0.  1.
    2000013    1    1    2    0    0  0.93349617990E+03  0.12251060629E+04 -0.32024864547E+03  0.18377592819E+04  0.95000000000E+03 0.  0.
   -2000013    1    1    2    0    0 -0.93349617990E+03 -0.12251060629E+04 -0.64631417271E+03  0.19215936077E+04  0.95000000000E+03 0.  0.
<mgrwt>
<rscale>  0 0.36329727E+04</rscale>
<asrwt>0</asrwt>
<pdfrwt beam="2">  1        2 0.36353197E+00 0.36329727E+04</pdfrwt>
<pdfrwt beam="1">  1       -2 0.21483001E+00 0.36329727E+04</pdfrwt>
<totfact> 0.36176264E-01</totfact>
</mgrwt>
</event>
<event>
 4    1  0.2552184E-008  0.2188444E+04  0.7816531E-02  0.8523254E-01
          2   -1    0    0  501    0  0.00000000000E+00  0.00000000000E+00  0.15694403630E+04  0.15694403630E+04  0.00000000000E+00 0.  1.
         -2   -1    0    0    0  501 -0.00000000000E+00 -0.00000000000E+00 -0.76289699585E+03  0.76289699585E+03  0.00000000000E+00 0. -1.
    2000013    1    1    2    0    0 -0.14801458236E+03 -0.49425848557E+03  0.22296876955E+03  0.11038183000E+04  0.95000000000E+03 0.  0.
   -2000013    1    1    2    0    0  0.14801458236E+03  0.49425848557E+03  0.58357459765E+03  0.12285190589E+04  0.95000000000E+03 0.  0.
<mgrwt>
<rscale>  0 0.21884436E+04</rscale>
<asrwt>0</asrwt>
<pdfrwt beam="1">  1        2 0.24145236E+00 0.21884436E+04</pdfrwt>
<pdfrwt beam="2">  1       -2 0.11736877E+00 0.21884436E+04</pdfrwt>
<totfact> 0.59543349E+00</totfact>
</mgrwt>
</event>
<event>
 4    1  0.2552184E-008  0.2803095E+04  0.7816531E-02  0.8302308E-01
         -2   -1    0    0    0  501 -0.00000000000E+00  0.00000000000E+00  0.92887786509E+03  0.92887786509E+03  0.00000000000E+00 0. -1.
          2   -1    0    0  501    0  0.00000000000E+00 -0.00000000000E+00 -0.21147403036E+04  0.21147403036E+04  0.00000000000E+00 0.  1.
    2000013    1    1    2    0    0  0.94647080537E+03  0.39769639763E+03 -0.49663025181E+03  0.14842880506E+04  0.95000000000E+03 0.  0.
   -2000013    1    1    2    0    0 -0.94647080537E+03 -0.39769639763E+03 -0.68923218674E+03  0.15593301181E+04  0.95000000000E+03 0.  0.
<mgrwt>
<rscale>  0 0.28030950E+04</rscale>
<asrwt>0</asrwt>
<pdfrwt beam="2">  1        2 0.32534466E+00 0.28030950E+04</pdfrwt>
<pdfrwt beam="1">  1       -2 0.14290429E+00 0.28030950E+04</pdfrwt>
<totfact> 0.17074192E+00</totfact>
</mgrwt>
</event>
<event>
 4    1  0.2552184E-008  0.2785726E+04  0.7816531E-02  0.8307714E-01
          2   -1    0    0  501    0  0.00000000000E+00  0.00000000000E+00  0.24240476858E+04  0.24240476858E+04  0.00000000000E+00 0.  1.
         -2   -1    0    0    0  501 -0.00000000000E+00 -0.00000000000E+00 -0.80034178235E+03  0.80034178235E+03  0.00000000000E+00 0. -1.
    2000013    1    1    2    0    0 -0.24721461635E+03 -0.33365260765E+03 -0.26473430882E+03  0.10700576542E+04  0.95000000000E+03 0.  0.
   -2000013    1    1    2    0    0  0.24721461635E+03  0.33365260765E+03  0.18884402122E+04  0.21543318139E+04  0.95000000000E+03 0.  0.
<mgrwt>
<rscale>  0 0.27857255E+04</rscale>
<asrwt>0</asrwt>
<pdfrwt beam="1">  1        2 0.37293041E+00 0.27857255E+04</pdfrwt>
<pdfrwt beam="2">  1       -2 0.12312951E+00 0.27857255E+04</pdfrwt>
<totfact> 0.16703080E+00</totfact>
</mgrwt>
</event>
<event>
 4    1  0.2552184E-008  0.2053186E+04  0.7816531E-02  0.8582150E-01
          2   -1    0    0  501    0  0.00000000000E+00  0.00000000000E+00  0.23542654811E+04  0.23542654811E+04  0.00000000000E+00 0. -1.
         -2   -1    0    0    0  501 -0.00000000000E+00 -0.00000000000E+00 -0.44765275748E+03  0.44765275748E+03  0.00000000000E+00 0.  1.
    2000013    1    1    2    0    0 -0.20724989331E+03 -0.22004528867E+03  0.12876389264E+04  0.16284613757E+04  0.95000000000E+03 0.  0.
   -2000013    1    1    2    0    0  0.20724989331E+03  0.22004528867E+03  0.61897379716E+03  0.11734568628E+04  0.95000000000E+03 0.  0.
<mgrwt>
<rscale>  0 0.20531862E+04</rscale>
<asrwt>0</asrwt>
<pdfrwt beam="1">  1        2 0.36219468E+00 0.20531862E+04</pdfrwt>
<pdfrwt beam="2">  1       -2 0.68869656E-01 0.20531862E+04</pdfrwt>
<totfact> 0.75246687E+00</totfact>
</mgrwt>
</event>
<event>
 4    1  0.2552184E-008  0.2947533E+04  0.7816531E-02  0.8258874E-01
         -2   -1    0    0    0  501 -0.00000000000E+00  0.00000000000E+00  0.79103968430E+03  0.79103968430E+03  0.00000000000E+00 0. -1.
          2   -1    0    0  501    0  0.00000000000E+00 -0.00000000000E+00 -0.27457382707E+04  0.27457382707E+04  0.00000000000E+00 0.  1.
    2000013    1    1    2    0    0  0.10145304478E+04  0.39477724346E+03 -0.13258751224E+04  0.19610114589E+04  0.95000000000E+03 0.  0.
   -2000013    1    1    2    0    0 -0.10145304478E+04 -0.39477724346E+03 -0.62882346402E+03  0.15757664962E+04  0.95000000000E+03 0.  0.
<mgrwt>
<rscale>  0 0.29475332E+04</rscale>
<asrwt>0</asrwt>
<pdfrwt beam="2">  1        2 0.42242127E+00 0.29475332E+04</pdfrwt>
<pdfrwt beam="1">  1       -2 0.12169841E+00 0.29475332E+04</pdfrwt>
<totfact> 0.10986233E+00</totfact>
</mgrwt>
</event>
<event>
 4    1  0.2552184E-008  0.1974554E+04  0.7816531E-02  0.8618611E-01
         -2   -1    0    0    0  501 -0.00000000000E+00  0.00000000000E+00  0.75514257234E+03  0.75514257234E+03  0.00000000000E+00 0. -1.
          2   -1    0    0  501    0  0.00000000000E+00 -0.00000000000E+00 -0.12907704191E+04  0.12907704191E+04  0.00000000000E+00 0.  1.
    2000013    1    1    2    0    0 -0.26779363976E+03 -0.18807453043E+02 -0.25518573334E+03  0.10196503873E+04  0.95000000000E+03 0.  0.
   -2000013    1    1    2    0    0  0.26779363976E+03  0.18807453043E+02 -0.28044211346E+03  0.10262626042E+04  0.95000000000E+03 0.  0.
<mgrwt>
<rscale>  0 0.19745538E+04</rscale>
<asrwt>0</asrwt>
<pdfrwt beam="2">  1        2 0.19858006E+00 0.19745538E+04</pdfrwt>
<pdfrwt beam="1">  1       -2 0.11617578E+00 0.19745538E+04</pdfrwt>
<totfact> 0.89640630E+00</totfact>
</mgrwt>
</event>
<event>
 4    1  0.2552184E-008  0.2397620E+04  0.7816531E-02  0.8440395E-01
         -2   -1    0    0    0  501 -0.00000000000E+00  0.00000000000E+00  0.85181919245E+03  0.85181919245E+03  0.00000000000E+00 0. -1.
          2   -1    0    0  501    0  0.00000000000E+00 -0.00000000000E+00 -0.16871486714E+04  0.16871486714E+04  0.00000000000E+00 0.  1.
    2000013    1    1    2    0    0 -0.51928941139E+03  0.41737501843E+03 -0.73672830947E+03  0.13744569840E+04  0.95000000000E+03 0.  0.
   -2000013    1    1    2    0    0  0.51928941139E+03 -0.41737501843E+03 -0.98601169507E+02  0.11645108799E+04  0.95000000000E+03 0.  0.
<mgrwt>
<rscale>  0 0.23976202E+04</rscale>
<asrwt>0</asrwt>
<pdfrwt beam="2">  1        2 0.25956133E+00 0.23976202E+04</pdfrwt>
<pdfrwt beam="1">  1       -2 0.13104911E+00 0.23976202E+04</pdfrwt>
<totfact> 0.38162907E+00</totfact>
</mgrwt>
</event>
<event>
 4    1  0.2552184E-008  0.2685959E+04  0.7816531E-02  0.8339575E-01
          2   -1    0    0  501    0  0.00000000000E+00  0.00000000000E+00  0.13355340570E+04  0.13355340570E+04  0.00000000000E+00 0.  1.
         -2   -1    0    0    0  501 -0.00000000000E+00 -0.00000000000E+00 -0.13504669434E+04  0.13504669434E+04  0.00000000000E+00 0. -1.
    2000013    1    1    2    0    0 -0.80762209852E+03  0.46123683352E+03 -0.19747391943E+03  0.13440568513E+04  0.95000000000E+03 0.  0.
   -2000013    1    1    2    0    0  0.80762209852E+03 -0.46123683352E+03  0.18254103302E+03  0.13419441491E+04  0.95000000000E+03 0.  0.
<mgrwt>
<rscale>  0 0.26859595E+04</rscale>
<asrwt>0</asrwt>
<pdfrwt beam="1">  1        2 0.20546678E+00 0.26859595E+04</pdfrwt>
<pdfrwt beam="2">  1       -2 0.20776415E+00 0.26859595E+04</pdfrwt>
<totfact> 0.16389430E+00</totfact>
</mgrwt>
</event>
<event>
 4    1  0.2552184E-008  0.2278207E+04  0.7816531E-02  0.8486564E-01
          2   -1    0    0  501    0  0.00000000000E+00  0.00000000000E+00  0.24792381110E+04  0.24792381110E+04  0.00000000000E+00 0.  1.
         -2   -1    0    0    0  501 -0.00000000000E+00 -0.00000000000E+00 -0.52336907993E+03  0.52336907993E+03  0.00000000000E+00 0. -1.
    2000013    1    1    2    0    0  0.94246027627E+02  0.60596998298E+03  0.11594827754E+04  0.16195623608E+04  0.95000000000E+03 0.  0.
   -2000013    1    1    2    0    0 -0.94246027627E+02 -0.60596998298E+03  0.79638625566E+03  0.13830448302E+04  0.95000000000E+03 0.  0.
<mgrwt>
<rscale>  0 0.22782068E+04</rscale>
<asrwt>0</asrwt>
<pdfrwt beam="1">  1        2 0.38142124E+00 0.22782068E+04</pdfrwt>
<pdfrwt beam="2">  1       -2 0.80518322E-01 0.22782068E+04</pdfrwt>
<totfact> 0.44280870E+00</totfact>
</mgrwt>
</event>
<event>
 4    1  0.2552184E-008  0.2225430E+04  0.7816531E-02  0.8507918E-01
         -2   -1    0    0    0  501 -0.00000000000E+00  0.00000000000E+00  0.15357630748E+04  0.15357630748E+04  0.00000000000E+00 0. -1.
          2   -1    0    0  501    0  0.00000000000E+00 -0.00000000000E+00 -0.80620141196E+03  0.80620141196E+03  0.00000000000E+00 0.  1.
    2000013    1    1    2    0    0  0.14709457507E+03 -0.56020052141E+03  0.37861937787E+03  0.11752931853E+04  0.95000000000E+03 0.  0.
   -2000013    1    1    2    0    0 -0.14709457507E+03  0.56020052141E+03  0.35094228500E+03  0.11666713014E+04  0.95000000000E+03 0.  0.
<mgrwt>
<rscale>  0 0.22254297E+04</rscale>
<asrwt>0</asrwt>
<pdfrwt beam="2">  1        2 0.12403099E+00 0.22254297E+04</pdfrwt>
<pdfrwt beam="1">  1       -2 0.23627124E+00 0.22254297E+04</pdfrwt>
<totfact> 0.24289291E+00</totfact>
</mgrwt>
</event>
<event>
 4    1  0.2552184E-008  0.2307647E+04  0.7816531E-02  0.8474912E-01
         -1   -1    0    0    0  501 -0.00000000000E+00  0.00000000000E+00  0.97322434394E+03  0.97322434394E+03  0.00000000000E+00 0. -1.
          1   -1    0    0  501    0  0.00000000000E+00 -0.00000000000E+00 -0.13679365751E+04  0.13679365751E+04  0.00000000000E+00 0.  1.
    2000013    1    1    2    0    0  0.61495383052E+03 -0.17500808135E+03 -0.53833825727E+02  0.11463830612E+04  0.95000000000E+03 0.  0.
   -2000013    1    1    2    0    0 -0.61495383052E+03  0.17500808135E+03 -0.34087840539E+03  0.11947778578E+04  0.95000000000E+03 0.  0.
<mgrwt>
<rscale>  0 0.23076474E+04</rscale>
<asrwt>0</asrwt>
<pdfrwt beam="2">  1        1 0.21045178E+00 0.23076474E+04</pdfrwt>
<pdfrwt beam="1">  1       -1 0.14972682E+00 0.23076474E+04</pdfrwt>
<totfact> 0.25634255E+00</totfact>
</mgrwt>
</event>
<event>
 4    1  0.2552184E-008  0.2288869E+04  0.7816531E-02  0.8482323E-01
         -2   -1    0    0    0  501 -0.00000000000E+00  0.00000000000E+00  0.98508361459E+03  0.98508361459E+03  0.00000000000E+00 0. -1.
          2   -1    0    0  501    0  0.00000000000E+00 -0.00000000000E+00 -0.13295625902E+04  0.13295625902E+04  0.00000000000E+00 0.  1.
    2000013    1    1    2    0    0  0.57155665166E+03  0.27519518826E+03 -0.10202465862E+03  0.11468733272E+04  0.95000000000E+03 0.  0.
   -2000013    1    1    2    0    0 -0.57155665166E+03 -0.27519518826E+03 -0.24245431695E+03  0.11677728775E+04  0.95000000000E+03 0.  0.
<mgrwt>
<rscale>  0 0.22888690E+04</rscale>
<asrwt>0</asrwt>
<pdfrwt beam="2">  1        2 0.20454809E+00 0.22888690E+04</pdfrwt>
<pdfrwt beam="1">  1       -2 0.15155133E+00 0.22888690E+04</pdfrwt>
<totfact> 0.42040576E+00</totfact>
</mgrwt>
</event>
<event>
 4    1  0.2552184E-008  0.2354810E+04  0.7816531E-02  0.8456619E-01
         -2   -1    0    0    0  501 -0.00000000000E+00  0.00000000000E+00  0.70246304123E+03  0.70246304123E+03  0.00000000000E+00 0. -1.
          2   -1    0    0  501    0  0.00000000000E+00 -0.00000000000E+00 -0.19734593250E+04  0.19734593250E+04  0.00000000000E+00 0.  1.
    2000013    1    1    2    0    0  0.78828992859E+02  0.69102876181E+03 -0.62766798771E+03  0.13342420555E+04  0.95000000000E+03 0.  0.
   -2000013    1    1    2    0    0 -0.78828992859E+02 -0.69102876181E+03 -0.64332829603E+03  0.13416803107E+04  0.95000000000E+03 0.  0.
<mgrwt>
<rscale>  0 0.23548097E+04</rscale>
<asrwt>0</asrwt>
<pdfrwt beam="2">  1        2 0.30360912E+00 0.23548097E+04</pdfrwt>
<pdfrwt beam="1">  1       -2 0.10807124E+00 0.23548097E+04</pdfrwt>
<totfact> 0.42781402E+00</totfact>
</mgrwt>
</event>
<event>
 4    1  0.2552184E-008  0.2442723E+04  0.7816531E-02  0.8423680E-01
          2   -1    0    0  501    0  0.00000000000E+00  0.00000000000E+00  0.22326530739E+04  0.22326530739E+04  0.00000000000E+00 0.  1.
         -2   -1    0    0    0  501 -0.00000000000E+00 -0.00000000000E+00 -0.66813986517E+03  0.66813986517E+03  0.00000000000E+00 0. -1.
    2000013    1    1    2    0    0 -0.60008460336E+03 -0.16045294479E+03  0.13177994722E+04  0.17392360759E+04  0.95000000000E+03 0.  0.
   -2000013    1    1    2    0    0  0.60008460336E+03  0.16045294479E+03  0.24671373652E+03  0.11615568632E+04  0.95000000000E+03 0.  0.
<mgrwt>
<rscale>  0 0.24427235E+04</rscale>
<asrwt>0</asrwt>
<pdfrwt beam="1">  1        2 0.34348509E+00 0.24427235E+04</pdfrwt>
<pdfrwt beam="2">  1       -2 0.10279075E+00 0.24427235E+04</pdfrwt>
<totfact> 0.34303170E+00</totfact>
</mgrwt>
</event>
<event>
 4    1  0.2552184E-008  0.2895232E+04  0.7816531E-02  0.8274297E-01
          2   -1    0    0  501    0  0.00000000000E+00  0.00000000000E+00  0.21155186726E+04  0.21155186726E+04  0.00000000000E+00 0.  1.
         -2   -1    0    0    0  501 -0.00000000000E+00 -0.00000000000E+00 -0.99058081041E+03  0.99058081041E+03  0.00000000000E+00 0. -1.
    2000013    1    1    2    0    0 -0.75095636495E+03  0.79300034246E+03  0.58127247561E+03  0.15598598322E+04  0.95000000000E+03 0.  0.
   -2000013    1    1    2    0    0  0.75095636495E+03 -0.79300034246E+03  0.54366538660E+03  0.15462396508E+04  0.95000000000E+03 0.  0.
<mgrwt>
<rscale>  0 0.28952321E+04</rscale>
<asrwt>0</asrwt>
<pdfrwt beam="1">  1        2 0.32546441E+00 0.28952321E+04</pdfrwt>
<pdfrwt beam="2">  1       -2 0.15239705E+00 0.28952321E+04</pdfrwt>
<totfact> 0.14284370E+00</totfact>
</mgrwt>
</event>
<event>
 4    1  0.2552184E-008  0.2690145E+04  0.7816531E-02  0.8338210E-01
         -2   -1    0    0    0  501 -0.00000000000E+00  0.00000000000E+00  0.45892625731E+03  0.45892625731E+03  0.00000000000E+00 0. -1.
          2   -1    0    0  501    0  0.00000000000E+00 -0.00000000000E+00 -0.39422896405E+04  0.39422896405E+04  0.00000000000E+00 0.  1.
    2000013    1    1    2    0    0  0.22409591554E+03  0.66049506299E+03 -0.28022766066E+04  0.30400208696E+04  0.95000000000E+03 0.  0.
   -2000013    1    1    2    0    0 -0.22409591554E+03 -0.66049506299E+03 -0.68108677657E+03  0.13611950282E+04  0.95000000000E+03 0.  0.
<mgrwt>
<rscale>  0 0.26901451E+04</rscale>
<asrwt>0</asrwt>
<pdfrwt beam="2">  1        2 0.60650609E+00 0.26901451E+04</pdfrwt>
<pdfrwt beam="1">  1       -2 0.70604041E-01 0.26901451E+04</pdfrwt>
<totfact> 0.61050265E-01</totfact>
</mgrwt>
</event>
<event>
 4    1  0.2552184E-008  0.1982857E+04  0.7816531E-02  0.8614678E-01
         -2   -1    0    0    0  501 -0.00000000000E+00  0.00000000000E+00  0.70290892465E+03  0.70290892465E+03  0.00000000000E+00 0. -1.
          2   -1    0    0  501    0  0.00000000000E+00 -0.00000000000E+00 -0.13983749413E+04  0.13983749413E+04  0.00000000000E+00 0.  1.
    2000013    1    1    2    0    0  0.12307196839E+03 -0.25169851855E+03 -0.30116084413E+03  0.10352278530E+04  0.95000000000E+03 0.  0.
   -2000013    1    1    2    0    0 -0.12307196839E+03  0.25169851855E+03 -0.39430517254E+03  0.10660560129E+04  0.95000000000E+03 0.  0.
<mgrwt>
<rscale>  0 0.19828568E+04</rscale>
<asrwt>0</asrwt>
<pdfrwt beam="2">  1        2 0.21513460E+00 0.19828568E+04</pdfrwt>
<pdfrwt beam="1">  1       -2 0.10813984E+00 0.19828568E+04</pdfrwt>
<totfact> 0.92392662E+00</totfact>
</mgrwt>
</event>
<event>
 4    1  0.2552184E-008  0.4006918E+04  0.7816531E-02  0.8003152E-01
         -2   -1    0    0    0  501 -0.00000000000E+00  0.00000000000E+00  0.19532333817E+04  0.19532333817E+04  0.00000000000E+00 0. -1.
          2   -1    0    0  501    0  0.00000000000E+00 -0.00000000000E+00 -0.20549765412E+04  0.20549765412E+04  0.00000000000E+00 0.  1.
    2000013    1    1    2    0    0 -0.13761189212E+04 -0.10341578944E+04  0.33417188639E+03  0.19943311374E+04  0.95000000000E+03 0.  0.
   -2000013    1    1    2    0    0  0.13761189212E+04  0.10341578944E+04 -0.43591504586E+03  0.20138787856E+04  0.95000000000E+03 0.  0.
<mgrwt>
<rscale>  0 0.40069184E+04</rscale>
<asrwt>0</asrwt>
<pdfrwt beam="2">  1        2 0.31615024E+00 0.40069184E+04</pdfrwt>
<pdfrwt beam="1">  1       -2 0.30049744E+00 0.40069184E+04</pdfrwt>
<totfact> 0.15493838E-01</totfact>
</mgrwt>
</event>
<event>
 4    1  0.2552184E-008  0.2445489E+04  0.7816531E-02  0.8422667E-01
          2   -1    0    0  501    0  0.00000000000E+00  0.00000000000E+00  0.28969119525E+04  0.28969119525E+04  0.00000000000E+00 0.  1.
         -2   -1    0    0    0  501 -0.00000000000E+00 -0.00000000000E+00 -0.51610256402E+03  0.51610256402E+03  0.00000000000E+00 0. -1.
    2000013    1    1    2    0    0  0.69529097093E+02  0.73885388083E+03  0.90484653343E+03  0.15073110501E+04  0.95000000000E+03 0.  0.
   -2000013    1    1    2    0    0 -0.69529097093E+02 -0.73885388083E+03  0.14759628550E+04  0.19057034664E+04  0.95000000000E+03 0.  0.
<mgrwt>
<rscale>  0 0.24454887E+04</rscale>
<asrwt>0</asrwt>
<pdfrwt beam="1">  1        2 0.44567875E+00 0.24454887E+04</pdfrwt>
<pdfrwt beam="2">  1       -2 0.79400396E-01 0.24454887E+04</pdfrwt>
<totfact> 0.25419632E+00</totfact>
</mgrwt>
</event>
<event>
 4    1  0.2552184E-008  0.3256992E+04  0.7816531E-02  0.8173926E-01
          2   -1    0    0  501    0  0.00000000000E+00  0.00000000000E+00  0.11795155576E+04  0.11795155576E+04  0.00000000000E+00 0.  1.
         -2   -1    0    0    0  501 -0.00000000000E+00 -0.00000000000E+00 -0.22483802074E+04  0.22483802074E+04  0.00000000000E+00 0. -1.
    2000013    1    1    2    0    0 -0.51390151512E+03 -0.11781884536E+04 -0.86269020982E+03  0.18163031678E+04  0.95000000000E+03 0.  0.
   -2000013    1    1    2    0    0  0.51390151512E+03  0.11781884536E+04 -0.20617443994E+03  0.16115925971E+04  0.95000000000E+03 0.  0.
<mgrwt>
<rscale>  0 0.32569921E+04</rscale>
<asrwt>0</asrwt>
<pdfrwt beam="1">  1        2 0.18146393E+00 0.32569921E+04</pdfrwt>
<pdfrwt beam="2">  1       -2 0.34590465E+00 0.32569921E+04</pdfrwt>
<totfact> 0.26952227E-01</totfact>
</mgrwt>
</event>
<event>
 4    1  0.2552184E-008  0.2225776E+04  0.7816531E-02  0.8507776E-01
          2   -1    0    0  501    0  0.00000000000E+00  0.00000000000E+00  0.26886574134E+04  0.26886574134E+04  0.00000000000E+00 0.  1.
         -2   -1    0    0    0  501 -0.00000000000E+00 -0.00000000000E+00 -0.46064617891E+03  0.46064617891E+03  0.00000000000E+00 0. -1.
    2000013    1    1    2    0    0 -0.52474818469E+03  0.20858174186E+02  0.76677499668E+03  0.13289994794E+04  0.95000000000E+03 0.  0.
   -2000013    1    1    2    0    0  0.52474818469E+03 -0.20858174186E+02  0.14612362378E+04  0.18203041129E+04  0.95000000000E+03 0.  0.
<mgrwt>
<rscale>  0 0.22257761E+04</rscale>
<asrwt>0</asrwt>
<pdfrwt beam="1">  1        2 0.41363959E+00 0.22257761E+04</pdfrwt>
<pdfrwt beam="2">  1       -2 0.70868645E-01 0.22257761E+04</pdfrwt>
<totfact> 0.44527645E+00</totfact>
</mgrwt>
</event>
<event>
 4    1  0.2552184E-008  0.2209476E+04  0.7816531E-02  0.8514494E-01
         -4   -1    0    0    0  501 -0.00000000000E+00  0.00000000000E+00  0.84088647797E+03  0.84088647797E+03  0.00000000000E+00 0. -1.
          4   -1    0    0  501    0  0.00000000000E+00 -0.00000000000E+00 -0.14513800221E+04  0.14513800221E+04  0.00000000000E+00 0.  1.
    2000013    1    1    2    0    0  0.48982171663E+03 -0.19865642455E+03 -0.50896161073E+03  0.12003881082E+04  0.95000000000E+03 0.  0.
   -2000013    1    1    2    0    0 -0.48982171663E+03  0.19865642455E+03 -0.10153193338E+03  0.10918783919E+04  0.95000000000E+03 0.  0.
<mgrwt>
<rscale>  0 0.22094758E+04</rscale>
<asrwt>0</asrwt>
<pdfrwt beam="2">  1        4 0.22328923E+00 0.22094758E+04</pdfrwt>
<pdfrwt beam="1">  1       -4 0.12936715E+00 0.22094758E+04</pdfrwt>
<totfact> 0.74310477E-02</totfact>
</mgrwt>
</event>
<event>
 4    1  0.2552184E-008  0.2617049E+04  0.7816531E-02  0.8362433E-01
          2   -1    0    0  501    0  0.00000000000E+00  0.00000000000E+00  0.14991278728E+04  0.14991278728E+04  0.00000000000E+00 0.  1.
         -2   -1    0    0    0  501 -0.00000000000E+00 -0.00000000000E+00 -0.11421548424E+04  0.11421548424E+04  0.00000000000E+00 0. -1.
    2000013    1    1    2    0    0 -0.86992869000E+03 -0.16729386381E+03  0.33797832731E+03  0.13421968977E+04  0.95000000000E+03 0.  0.
   -2000013    1    1    2    0    0  0.86992869000E+03  0.16729386381E+03  0.18994703079E+02  0.12990858175E+04  0.95000000000E+03 0.  0.
<mgrwt>
<rscale>  0 0.26170488E+04</rscale>
<asrwt>0</asrwt>
<pdfrwt beam="1">  1        2 0.23063506E+00 0.26170488E+04</pdfrwt>
<pdfrwt beam="2">  1       -2 0.17571613E+00 0.26170488E+04</pdfrwt>
<totfact> 0.21804954E+00</totfact>
</mgrwt>
</event>
<event>
 4    1  0.2552184E-008  0.2345222E+04  0.7816531E-02  0.8460301E-01
          2   -1    0    0  501    0  0.00000000000E+00  0.00000000000E+00  0.11304858825E+04  0.11304858825E+04  0.00000000000E+00 0.  1.
         -2   -1    0    0    0  501 -0.00000000000E+00 -0.00000000000E+00 -0.12163063244E+04  0.12163063244E+04  0.00000000000E+00 0. -1.
    2000013    1    1    2    0    0 -0.49482205869E+03 -0.38445325086E+03 -0.32570149120E+03  0.11837375694E+04  0.95000000000E+03 0.  0.
   -2000013    1    1    2    0    0  0.49482205869E+03  0.38445325086E+03  0.23988104933E+03  0.11630546374E+04  0.95000000000E+03 0.  0.
<mgrwt>
<rscale>  0 0.23452225E+04</rscale>
<asrwt>0</asrwt>
<pdfrwt beam="1">  1        2 0.17392091E+00 0.23452225E+04</pdfrwt>
<pdfrwt beam="2">  1       -2 0.18712405E+00 0.23452225E+04</pdfrwt>
<totfact> 0.30545944E+00</totfact>
</mgrwt>
</event>
<event>
 4    1  0.2552184E-008  0.3807690E+04  0.7816531E-02  0.8044507E-01
          2   -1    0    0  501    0  0.00000000000E+00  0.00000000000E+00  0.40098408255E+04  0.40098408255E+04  0.00000000000E+00 0.  1.
         -2   -1    0    0    0  501 -0.00000000000E+00 -0.00000000000E+00 -0.90393260198E+03  0.90393260198E+03  0.00000000000E+00 0. -1.
    2000013    1    1    2    0    0 -0.77417009226E+02 -0.10367212188E+04  0.32062592853E+04  0.35019113186E+04  0.95000000000E+03 0.  0.
   -2000013    1    1    2    0    0  0.77417009226E+02  0.10367212188E+04 -0.10035106176E+03  0.14118621089E+04  0.95000000000E+03 0.  0.
<mgrwt>
<rscale>  0 0.38076900E+04</rscale>
<asrwt>0</asrwt>
<pdfrwt beam="1">  1        2 0.61689858E+00 0.38076900E+04</pdfrwt>
<pdfrwt beam="2">  1       -2 0.13906656E+00 0.38076900E+04</pdfrwt>
<totfact> 0.98027591E-02</totfact>
</mgrwt>
</event>
<event>
 4    1  0.2552184E-008  0.2795741E+04  0.7816531E-02  0.8304592E-01
          2   -1    0    0  501    0  0.00000000000E+00  0.00000000000E+00  0.11541395608E+04  0.11541395608E+04  0.00000000000E+00 0.  1.
         -2   -1    0    0    0  501 -0.00000000000E+00 -0.00000000000E+00 -0.16930722965E+04  0.16930722965E+04  0.00000000000E+00 0. -1.
    2000013    1    1    2    0    0 -0.68399935816E+03  0.63739838946E+03  0.15948868006E+03  0.13424114376E+04  0.95000000000E+03 0.  0.
   -2000013    1    1    2    0    0  0.68399935816E+03 -0.63739838946E+03 -0.69842141584E+03  0.15048004196E+04  0.95000000000E+03 0.  0.
<mgrwt>
<rscale>  0 0.27957408E+04</rscale>
<asrwt>0</asrwt>
<pdfrwt beam="1">  1        2 0.17755993E+00 0.27957408E+04</pdfrwt>
<pdfrwt beam="2">  1       -2 0.26047266E+00 0.27957408E+04</pdfrwt>
<totfact> 0.97376897E-01</totfact>
</mgrwt>
</event>
<event>
 4    1  0.2552184E-008  0.2353024E+04  0.7816531E-02  0.8457303E-01
         -1   -1    0    0    0  501 -0.00000000000E+00  0.00000000000E+00  0.12150239993E+04  0.12150239993E+04  0.00000000000E+00 0. -1.
          1   -1    0    0  501    0  0.00000000000E+00 -0.00000000000E+00 -0.11392207846E+04  0.11392207846E+04  0.00000000000E+00 0.  1.
    2000013    1    1    2    0    0 -0.41038913503E+03  0.47149118139E+03  0.33964954036E+03  0.11868382310E+04  0.95000000000E+03 0.  0.
   -2000013    1    1    2    0    0  0.41038913503E+03 -0.47149118139E+03 -0.26384632571E+03  0.11674065530E+04  0.95000000000E+03 0.  0.
<mgrwt>
<rscale>  0 0.23530241E+04</rscale>
<asrwt>0</asrwt>
<pdfrwt beam="2">  1        1 0.17526473E+00 0.23530241E+04</pdfrwt>
<pdfrwt beam="1">  1       -1 0.18692677E+00 0.23530241E+04</pdfrwt>
<totfact> 0.19802673E+00</totfact>
</mgrwt>
</event>
<event>
 4    1  0.2552184E-008  0.2927562E+04  0.7816531E-02  0.8264724E-01
         -2   -1    0    0    0  501 -0.00000000000E+00  0.00000000000E+00  0.61352569851E+03  0.61352569851E+03  0.00000000000E+00 0. -1.
          2   -1    0    0  501    0  0.00000000000E+00 -0.00000000000E+00 -0.34923642000E+04  0.34923642000E+04  0.00000000000E+00 0.  1.
    2000013    1    1    2    0    0  0.18889924617E+03  0.97447904043E+03 -0.21474537781E+04  0.25493822888E+04  0.95000000000E+03 0.  0.
   -2000013    1    1    2    0    0 -0.18889924617E+03 -0.97447904043E+03 -0.73138472338E+03  0.15565076097E+04  0.95000000000E+03 0.  0.
<mgrwt>
<rscale>  0 0.29275623E+04</rscale>
<asrwt>0</asrwt>
<pdfrwt beam="2">  1        2 0.53728679E+00 0.29275623E+04</pdfrwt>
<pdfrwt beam="1">  1       -2 0.94388570E-01 0.29275623E+04</pdfrwt>
<totfact> 0.67019910E-01</totfact>
</mgrwt>
</event>
<event>
 4    1  0.2552184E-008  0.2895628E+04  0.7816531E-02  0.8274180E-01
          2   -1    0    0  501    0  0.00000000000E+00  0.00000000000E+00  0.10840728078E+04  0.10840728078E+04  0.00000000000E+00 0.  1.
         -2   -1    0    0    0  501 -0.00000000000E+00 -0.00000000000E+00 -0.19336017901E+04  0.19336017901E+04  0.00000000000E+00 0. -1.
    2000013    1    1    2    0    0 -0.72578312614E+03 -0.55187688828E+03 -0.10520790034E+04  0.16854374730E+04  0.95000000000E+03 0.  0.
   -2000013    1    1    2    0    0  0.72578312614E+03  0.55187688828E+03  0.20255002109E+03  0.13322371249E+04  0.95000000000E+03 0.  0.
<mgrwt>
<rscale>  0 0.28956278E+04</rscale>
<asrwt>0</asrwt>
<pdfrwt beam="1">  1        2 0.16678043E+00 0.28956278E+04</pdfrwt>
<pdfrwt beam="2">  1       -2 0.29747720E+00 0.28956278E+04</pdfrwt>
<totfact> 0.63368960E-01</totfact>
</mgrwt>
</event>
<event>
 4    1  0.2552184E-008  0.3024235E+04  0.7816531E-02  0.8236844E-01
          2   -1    0    0  501    0  0.00000000000E+00  0.00000000000E+00  0.22087633429E+04  0.22087633429E+04  0.00000000000E+00 0.  1.
         -2   -1    0    0    0  501 -0.00000000000E+00 -0.00000000000E+00 -0.10351946024E+04  0.10351946024E+04  0.00000000000E+00 0. -1.
    2000013    1    1    2    0    0 -0.11651898901E+04 -0.13049775683E+03  0.69024263976E+03  0.16594071370E+04  0.95000000000E+03 0.  0.
   -2000013    1    1    2    0    0  0.11651898901E+04  0.13049775683E+03  0.48332610068E+03  0.15845508083E+04  0.95000000000E+03 0.  0.
<mgrwt>
<rscale>  0 0.30242354E+04</rscale>
<asrwt>0</asrwt>
<pdfrwt beam="1">  1        2 0.33980975E+00 0.30242354E+04</pdfrwt>
<pdfrwt beam="2">  1       -2 0.15926071E+00 0.30242354E+04</pdfrwt>
<totfact> 0.11125965E+00</totfact>
</mgrwt>
</event>
<event>
 4    1  0.2552184E-008  0.2486033E+04  0.7816531E-02  0.8407978E-01
          2   -1    0    0  501    0  0.00000000000E+00  0.00000000000E+00  0.20127652454E+04  0.20127652454E+04  0.00000000000E+00 0.  1.
         -2   -1    0    0    0  501 -0.00000000000E+00 -0.00000000000E+00 -0.76764532492E+03  0.76764532492E+03  0.00000000000E+00 0. -1.
    2000013    1    1    2    0    0 -0.76020937420E+03  0.71936509368E+02  0.34975741209E+03  0.12680391955E+04  0.95000000000E+03 0.  0.
   -2000013    1    1    2    0    0  0.76020937420E+03 -0.71936509368E+02  0.89536250844E+03  0.15123713749E+04  0.95000000000E+03 0.  0.
<mgrwt>
<rscale>  0 0.24860328E+04</rscale>
<asrwt>0</asrwt>
<pdfrwt beam="1">  1        2 0.30965619E+00 0.24860328E+04</pdfrwt>
<pdfrwt beam="2">  1       -2 0.11809928E+00 0.24860328E+04</pdfrwt>
<totfact> 0.32422233E+00</totfact>
</mgrwt>
</event>
<event>
 4    1  0.2552184E-008  0.2100542E+04  0.7816531E-02  0.8561005E-01
          2   -1    0    0  501    0  0.00000000000E+00  0.00000000000E+00  0.53520206505E+03  0.53520206505E+03  0.00000000000E+00 0.  1.
         -2   -1    0    0    0  501 -0.00000000000E+00 -0.00000000000E+00 -0.20610321923E+04  0.20610321923E+04  0.00000000000E+00 0. -1.
    2000013    1    1    2    0    0  0.59319339795E+02  0.44122403354E+03 -0.82310191212E+03  0.13334894786E+04  0.95000000000E+03 0.  0.
   -2000013    1    1    2    0    0 -0.59319339795E+02 -0.44122403354E+03 -0.70272821512E+03  0.12627447787E+04  0.95000000000E+03 0.  0.
<mgrwt>
<rscale>  0 0.21005415E+04</rscale>
<asrwt>0</asrwt>
<pdfrwt beam="1">  1        2 0.82338777E-01 0.21005415E+04</pdfrwt>
<pdfrwt beam="2">  1       -2 0.31708189E+00 0.21005415E+04</pdfrwt>
<totfact> 0.13092404E+00</totfact>
</mgrwt>
</event>
<event>
 4    1  0.2552184E-008  0.1946307E+04  0.7816531E-02  0.8632144E-01
          1   -1    0    0  501    0  0.00000000000E+00  0.00000000000E+00  0.24998372135E+03  0.24998372135E+03  0.00000000000E+00 0. -1.
         -1   -1    0    0    0  501 -0.00000000000E+00 -0.00000000000E+00 -0.37883572541E+04  0.37883572541E+04  0.00000000000E+00 0.  1.
    2000013    1    1    2    0    0 -0.14177557641E+02  0.20934488759E+03 -0.17227281682E+04  0.19784637036E+04  0.95000000000E+03 0.  0.
   -2000013    1    1    2    0    0  0.14177557641E+02 -0.20934488759E+03 -0.18156453646E+04  0.20598772718E+04  0.95000000000E+03 0.  0.
<mgrwt>
<rscale>  0 0.19463069E+04</rscale>
<asrwt>0</asrwt>
<pdfrwt beam="1">  1        1 0.38459035E-01 0.19463069E+04</pdfrwt>
<pdfrwt beam="2">  1       -1 0.58282417E+00 0.19463069E+04</pdfrwt>
<totfact> 0.52804256E-02</totfact>
</mgrwt>
</event>
<event>
 4    1  0.2552184E-008  0.5152762E+04  0.7816531E-02  0.7805365E-01
          2   -1    0    0  501    0  0.00000000000E+00  0.00000000000E+00  0.37279325898E+04  0.37279325898E+04  0.00000000000E+00 0.  1.
         -2   -1    0    0    0  501 -0.00000000000E+00 -0.00000000000E+00 -0.17805412995E+04  0.17805412995E+04  0.00000000000E+00 0. -1.
    2000013    1    1    2    0    0  0.94180426305E+03  0.19783812316E+04  0.20069872187E+04  0.31195328598E+04  0.95000000000E+03 0.  0.
   -2000013    1    1    2    0    0 -0.94180426305E+03 -0.19783812316E+04 -0.59595928395E+02  0.23889410295E+04  0.95000000000E+03 0.  0.
<mgrwt>
<rscale>  0 0.51527616E+04</rscale>
<asrwt>0</asrwt>
<pdfrwt beam="1">  1        2 0.57352809E+00 0.51527616E+04</pdfrwt>
<pdfrwt beam="2">  1       -2 0.27392943E+00 0.51527616E+04</pdfrwt>
<totfact> 0.18300285E-02</totfact>
</mgrwt>
</event>
<event>
 4    1  0.2552184E-008  0.2937671E+04  0.7816531E-02  0.8261757E-01
         -2   -1    0    0    0  501 -0.00000000000E+00  0.00000000000E+00  0.91151518847E+03  0.91151518847E+03  0.00000000000E+00 0. -1.
          2   -1    0    0  501    0  0.00000000000E+00 -0.00000000000E+00 -0.23669137530E+04  0.23669137530E+04  0.00000000000E+00 0.  1.
    2000013    1    1    2    0    0  0.11004952192E+04  0.13877381643E+03 -0.55255569141E+03  0.15614626770E+04  0.95000000000E+03 0.  0.
   -2000013    1    1    2    0    0 -0.11004952192E+04 -0.13877381643E+03 -0.90284287317E+03  0.17169662645E+04  0.95000000000E+03 0.  0.
<mgrwt>
<rscale>  0 0.29376711E+04</rscale>
<asrwt>0</asrwt>
<pdfrwt beam="2">  1        2 0.36414057E+00 0.29376711E+04</pdfrwt>
<pdfrwt beam="1">  1       -2 0.14023311E+00 0.29376711E+04</pdfrwt>
<totfact> 0.12775770E+00</totfact>
</mgrwt>
</event>
<event>
 4    1  0.2552184E-008  0.2881887E+04  0.7816531E-02  0.8278287E-01
         -2   -1    0    0    0  501 -0.00000000000E+00  0.00000000000E+00  0.17883821550E+04  0.17883821550E+04  0.00000000000E+00 0. -1.
          2   -1    0    0  501    0  0.00000000000E+00 -0.00000000000E+00 -0.11610032504E+04  0.11610032504E+04  0.00000000000E+00 0.  1.
    2000013    1    1    2    0    0 -0.91962020849E+03 -0.51128798123E+03  0.57800338976E+03  0.15309162767E+04  0.95000000000E+03 0.  0.
   -2000013    1    1    2    0    0  0.91962020849E+03  0.51128798123E+03  0.49375514845E+02  0.14184691287E+04  0.95000000000E+03 0.  0.
<mgrwt>
<rscale>  0 0.28818865E+04</rscale>
<asrwt>0</asrwt>
<pdfrwt beam="2">  1        2 0.17861588E+00 0.28818865E+04</pdfrwt>
<pdfrwt beam="1">  1       -2 0.27513572E+00 0.28818865E+04</pdfrwt>
<totfact> 0.77917933E-01</totfact>
</mgrwt>
</event>
<event>
 4    1  0.2552184E-008  0.3660859E+04  0.7816531E-02  0.8076692E-01
         -2   -1    0    0    0  501 -0.00000000000E+00  0.00000000000E+00  0.36286359631E+04  0.36286359631E+04  0.00000000000E+00 0. -1.
          2   -1    0    0  501    0  0.00000000000E+00 -0.00000000000E+00 -0.92334212788E+03  0.92334212788E+03  0.00000000000E+00 0.  1.
    2000013    1    1    2    0    0  0.14927555135E+04 -0.17801969538E+03  0.81356762274E+03  0.19556079136E+04  0.95000000000E+03 0.  0.
   -2000013    1    1    2    0    0 -0.14927555135E+04  0.17801969538E+03  0.18917262125E+04  0.25963701774E+04  0.95000000000E+03 0.  0.
<mgrwt>
<rscale>  0 0.36608592E+04</rscale>
<asrwt>0</asrwt>
<pdfrwt beam="2">  1        2 0.14205264E+00 0.36608592E+04</pdfrwt>
<pdfrwt beam="1">  1       -2 0.55825168E+00 0.36608592E+04</pdfrwt>
<totfact> 0.17742839E-02</totfact>
</mgrwt>
</event>
<event>
 4    1  0.2552184E-008  0.2947074E+04  0.7816531E-02  0.8259008E-01
         -2   -1    0    0    0  501 -0.00000000000E+00  0.00000000000E+00  0.23117847926E+04  0.23117847926E+04  0.00000000000E+00 0. -1.
          2   -1    0    0  501    0  0.00000000000E+00 -0.00000000000E+00 -0.93923571146E+03  0.93923571146E+03  0.00000000000E+00 0.  1.
    2000013    1    1    2    0    0  0.10452322360E+04 -0.15707625436E+03  0.11158284139E+04  0.18068636989E+04  0.95000000000E+03 0.  0.
   -2000013    1    1    2    0    0 -0.10452322360E+04  0.15707625436E+03  0.25672066716E+03  0.14441568052E+04  0.95000000000E+03 0.  0.
<mgrwt>
<rscale>  0 0.29470737E+04</rscale>
<asrwt>0</asrwt>
<pdfrwt beam="2">  1        2 0.14449780E+00 0.29470737E+04</pdfrwt>
<pdfrwt beam="1">  1       -2 0.35565920E+00 0.29470737E+04</pdfrwt>
<totfact> 0.33989064E-01</totfact>
</mgrwt>
</event>
<event>
 4    1  0.2552184E-008  0.2122444E+04  0.7816531E-02  0.8551420E-01
          2   -1    0    0  501    0  0.00000000000E+00  0.00000000000E+00  0.78450035274E+03  0.78450035274E+03  0.00000000000E+00 0.  1.
         -2   -1    0    0    0  501 -0.00000000000E+00 -0.00000000000E+00 -0.14355537117E+04  0.14355537117E+04  0.00000000000E+00 0. -1.
    2000013    1    1    2    0    0 -0.65755431841E+02  0.46786521186E+03 -0.34822151273E+03  0.11166825221E+04  0.95000000000E+03 0.  0.
   -2000013    1    1    2    0    0  0.65755431841E+02 -0.46786521186E+03 -0.30283184622E+03  0.11033715423E+04  0.95000000000E+03 0.  0.
<mgrwt>
<rscale>  0 0.21224442E+04</rscale>
<asrwt>0</asrwt>
<pdfrwt beam="1">  1        2 0.12069236E+00 0.21224442E+04</pdfrwt>
<pdfrwt beam="2">  1       -2 0.22085442E+00 0.21224442E+04</pdfrwt>
<totfact> 0.31729353E+00</totfact>
</mgrwt>
</event>
<event>
 4    1  0.2552184E-008  0.2396267E+04  0.7816531E-02  0.8440902E-01
          2   -1    0    0  501    0  0.00000000000E+00  0.00000000000E+00  0.15431966278E+04  0.15431966278E+04  0.00000000000E+00 0.  1.
         -2   -1    0    0    0  501 -0.00000000000E+00 -0.00000000000E+00 -0.93022742218E+03  0.93022742218E+03  0.00000000000E+00 0. -1.
    2000013    1    1    2    0    0  0.67108978511E+03 -0.23138010465E+03  0.48264187923E+03  0.12803676957E+04  0.95000000000E+03 0.  0.
   -2000013    1    1    2    0    0 -0.67108978511E+03  0.23138010465E+03  0.13032732635E+03  0.11930563543E+04  0.95000000000E+03 0.  0.
<mgrwt>
<rscale>  0 0.23962669E+04</rscale>
<asrwt>0</asrwt>
<pdfrwt beam="1">  1        2 0.23741487E+00 0.23962669E+04</pdfrwt>
<pdfrwt beam="2">  1       -2 0.14311191E+00 0.23962669E+04</pdfrwt>
<totfact> 0.36617251E+00</totfact>
</mgrwt>
</event>
<event>
 4    1  0.2552184E-008  0.2272452E+04  0.7816531E-02  0.8488863E-01
         -4   -1    0    0    0  501 -0.00000000000E+00  0.00000000000E+00  0.14580678402E+04  0.14580678402E+04  0.00000000000E+00 0. -1.
          4   -1    0    0  501    0  0.00000000000E+00 -0.00000000000E+00 -0.88542492749E+03  0.88542492749E+03  0.00000000000E+00 0.  1.
    2000013    1    1    2    0    0  0.54356038733E+03  0.12191852710E+03 -0.20403895160E+01  0.11012838803E+04  0.95000000000E+03 0.  0.
   -2000013    1    1    2    0    0 -0.54356038733E+03 -0.12191852710E+03  0.57468330222E+03  0.12422088873E+04  0.95000000000E+03 0.  0.
<mgrwt>
<rscale>  0 0.22724521E+04</rscale>
<asrwt>0</asrwt>
<pdfrwt beam="2">  1        4 0.13621922E+00 0.22724521E+04</pdfrwt>
<pdfrwt beam="1">  1       -4 0.22431813E+00 0.22724521E+04</pdfrwt>
<totfact> 0.63790195E-02</totfact>
</mgrwt>
</event>
<event>
 4    1  0.2552184E-008  0.2322561E+04  0.7816531E-02  0.8469078E-01
          2   -1    0    0  501    0  0.00000000000E+00  0.00000000000E+00  0.13232393470E+04  0.13232393470E+04  0.00000000000E+00 0.  1.
         -2   -1    0    0    0  501 -0.00000000000E+00 -0.00000000000E+00 -0.10191449885E+04  0.10191449885E+04  0.00000000000E+00 0. -1.
    2000013    1    1    2    0    0 -0.61019186861E+03  0.13128305963E+03  0.39178040298E+03  0.12023149514E+04  0.95000000000E+03 0.  0.
   -2000013    1    1    2    0    0  0.61019186861E+03 -0.13128305963E+03 -0.87686044511E+02  0.11400693841E+04  0.95000000000E+03 0.  0.
<mgrwt>
<rscale>  0 0.23225613E+04</rscale>
<asrwt>0</asrwt>
<pdfrwt beam="1">  1        2 0.20357529E+00 0.23225613E+04</pdfrwt>
<pdfrwt beam="2">  1       -2 0.15679154E+00 0.23225613E+04</pdfrwt>
<totfact> 0.38597308E+00</totfact>
</mgrwt>
</event>
<event>
 4    1  0.2552184E-008  0.2202933E+04  0.7816531E-02  0.8517208E-01
          2   -1    0    0  501    0  0.00000000000E+00  0.00000000000E+00  0.38210514475E+04  0.38210514475E+04  0.00000000000E+00 0.  1.
         -2   -1    0    0    0  501 -0.00000000000E+00 -0.00000000000E+00 -0.31751165287E+03  0.31751165287E+03  0.00000000000E+00 0. -1.
    2000013    1    1    2    0    0  0.39451450286E+03 -0.34845549841E+03  0.20964692072E+04  0.23610900161E+04  0.95000000000E+03 0.  0.
   -2000013    1    1    2    0    0 -0.39451450286E+03  0.34845549841E+03  0.14070705875E+04  0.17774730843E+04  0.95000000000E+03 0.  0.
<mgrwt>
<rscale>  0 0.22029329E+04</rscale>
<asrwt>0</asrwt>
<pdfrwt beam="1">  1        2 0.58785404E+00 0.22029329E+04</pdfrwt>
<pdfrwt beam="2">  1       -2 0.48847949E-01 0.22029329E+04</pdfrwt>
<totfact> 0.17260676E+00</totfact>
</mgrwt>
</event>
<event>
 4    1  0.2552184E-008  0.2459597E+04  0.7816531E-02  0.8417522E-01
          2   -1    0    0  501    0  0.00000000000E+00  0.00000000000E+00  0.11895317079E+04  0.11895317079E+04  0.00000000000E+00 0.  1.
         -2   -1    0    0    0  501 -0.00000000000E+00 -0.00000000000E+00 -0.12714279419E+04  0.12714279419E+04  0.00000000000E+00 0. -1.
    2000013    1    1    2    0    0  0.66682699702E+03 -0.39470072381E+03  0.56352604499E+02  0.12272418349E+04  0.95000000000E+03 0.  0.
   -2000013    1    1    2    0    0 -0.66682699702E+03  0.39470072381E+03 -0.13824883846E+03  0.12337178148E+04  0.95000000000E+03 0.  0.
<mgrwt>
<rscale>  0 0.24595966E+04</rscale>
<asrwt>0</asrwt>
<pdfrwt beam="1">  1        2 0.18300488E+00 0.24595966E+04</pdfrwt>
<pdfrwt beam="2">  1       -2 0.19560430E+00 0.24595966E+04</pdfrwt>
<totfact> 0.24451116E+00</totfact>
</mgrwt>
</event>
<event>
 4    1  0.2552184E-008  0.2636816E+04  0.7816531E-02  0.8355802E-01
         -2   -1    0    0    0  501 -0.00000000000E+00  0.00000000000E+00  0.63185587341E+03  0.63185587341E+03  0.00000000000E+00 0. -1.
          2   -1    0    0  501    0  0.00000000000E+00 -0.00000000000E+00 -0.27509423830E+04  0.27509423830E+04  0.00000000000E+00 0.  1.
    2000013    1    1    2    0    0  0.45621982483E+02  0.87444941145E+03 -0.13964287075E+04  0.19024343021E+04  0.95000000000E+03 0.  0.
   -2000013    1    1    2    0    0 -0.45621982483E+02 -0.87444941145E+03 -0.72265780207E+03  0.14803639544E+04  0.95000000000E+03 0.  0.
<mgrwt>
<rscale>  0 0.26368156E+04</rscale>
<asrwt>0</asrwt>
<pdfrwt beam="2">  1        2 0.42322191E+00 0.26368156E+04</pdfrwt>
<pdfrwt beam="1">  1       -2 0.97208595E-01 0.26368156E+04</pdfrwt>
<totfact> 0.19273651E+00</totfact>
</mgrwt>
</event>
<event>
 4    1  0.2552184E-008  0.2269152E+04  0.7816531E-02  0.8490184E-01
         -2   -1    0    0    0  501 -0.00000000000E+00  0.00000000000E+00  0.79649976951E+03  0.79649976951E+03  0.00000000000E+00 0. -1.
          2   -1    0    0  501    0  0.00000000000E+00 -0.00000000000E+00 -0.16161488377E+04  0.16161488377E+04  0.00000000000E+00 0.  1.
    2000013    1    1    2    0    0 -0.42434611094E+02  0.60650535767E+03 -0.54053250073E+03  0.12507297188E+04  0.95000000000E+03 0.  0.
   -2000013    1    1    2    0    0  0.42434611094E+02 -0.60650535767E+03 -0.27911656750E+03  0.11619188885E+04  0.95000000000E+03 0.  0.
<mgrwt>
<rscale>  0 0.22691515E+04</rscale>
<asrwt>0</asrwt>
<pdfrwt beam="2">  1        2 0.24863828E+00 0.22691515E+04</pdfrwt>
<pdfrwt beam="1">  1       -2 0.12253843E+00 0.22691515E+04</pdfrwt>
<totfact> 0.50039093E+00</totfact>
</mgrwt>
</event>
<event>
 4    1  0.2552184E-008  0.2004994E+04  0.7816531E-02  0.8604289E-01
         -2   -1    0    0    0  501 -0.00000000000E+00  0.00000000000E+00  0.12537835113E+04  0.12537835113E+04  0.00000000000E+00 0. -1.
          2   -1    0    0  501    0  0.00000000000E+00 -0.00000000000E+00 -0.80157376493E+03  0.80157376493E+03  0.00000000000E+00 0.  1.
    2000013    1    1    2    0    0 -0.13379998708E+03 -0.28987089354E+03  0.20157906207E+03  0.10222825880E+04  0.95000000000E+03 0.  0.
   -2000013    1    1    2    0    0  0.13379998708E+03  0.28987089354E+03  0.25063068426E+03  0.10330746882E+04  0.95000000000E+03 0.  0.
<mgrwt>
<rscale>  0 0.20049937E+04</rscale>
<asrwt>0</asrwt>
<pdfrwt beam="2">  1        2 0.12331904E+00 0.20049937E+04</pdfrwt>
<pdfrwt beam="1">  1       -2 0.19288977E+00 0.20049937E+04</pdfrwt>
<totfact> 0.47274119E+00</totfact>
</mgrwt>
</event>
<event>
 4    1  0.2552184E-008  0.2170282E+04  0.7816531E-02  0.8530900E-01
         -2   -1    0    0    0  501 -0.00000000000E+00  0.00000000000E+00  0.40903226255E+03  0.40903226255E+03  0.00000000000E+00 0. -1.
          2   -1    0    0  501    0  0.00000000000E+00 -0.00000000000E+00 -0.28788208668E+04  0.28788208668E+04  0.00000000000E+00 0.  1.
    2000013    1    1    2    0    0 -0.44744456323E+03  0.18085902752E+03 -0.92400234070E+03  0.14103889359E+04  0.95000000000E+03 0.  0.
   -2000013    1    1    2    0    0  0.44744456323E+03 -0.18085902752E+03 -0.15457862636E+04  0.18774641934E+04  0.95000000000E+03 0.  0.
<mgrwt>
<rscale>  0 0.21702817E+04</rscale>
<asrwt>0</asrwt>
<pdfrwt beam="2">  1        2 0.44289549E+00 0.21702817E+04</pdfrwt>
<pdfrwt beam="1">  1       -2 0.62928044E-01 0.21702817E+04</pdfrwt>
<totfact> 0.44436098E+00</totfact>
</mgrwt>
</event>
<event>
 4    1  0.2552184E-008  0.2108435E+04  0.7816531E-02  0.8557537E-01
          2   -1    0    0  501    0  0.00000000000E+00  0.00000000000E+00  0.23252569721E+04  0.23252569721E+04  0.00000000000E+00 0.  1.
         -2   -1    0    0    0  501 -0.00000000000E+00 -0.00000000000E+00 -0.47795761544E+03  0.47795761544E+03  0.00000000000E+00 0. -1.
    2000013    1    1    2    0    0  0.30436401975E+03 -0.34008229606E+03  0.89160696217E+03  0.13804913617E+04  0.95000000000E+03 0.  0.
   -2000013    1    1    2    0    0 -0.30436401975E+03  0.34008229606E+03  0.95569239454E+03  0.14227232259E+04  0.95000000000E+03 0.  0.
<mgrwt>
<rscale>  0 0.21084348E+04</rscale>
<asrwt>0</asrwt>
<pdfrwt beam="1">  1        2 0.35773184E+00 0.21084348E+04</pdfrwt>
<pdfrwt beam="2">  1       -2 0.73531942E-01 0.21084348E+04</pdfrwt>
<totfact> 0.67389035E+00</totfact>
</mgrwt>
</event>
<event>
 4    1  0.2552184E-008  0.2572716E+04  0.7816531E-02  0.8377529E-01
          2   -1    0    0  501    0  0.00000000000E+00  0.00000000000E+00  0.36464423058E+04  0.36464423058E+04  0.00000000000E+00 0.  1.
         -2   -1    0    0    0  501 -0.00000000000E+00 -0.00000000000E+00 -0.45378923856E+03  0.45378923856E+03  0.00000000000E+00 0. -1.
    2000013    1    1    2    0    0 -0.47135061368E+03  0.66772670640E+03  0.20587462611E+04  0.24101797699E+04  0.95000000000E+03 0.  0.
   -2000013    1    1    2    0    0  0.47135061368E+03 -0.66772670640E+03  0.11339068061E+04  0.16900517745E+04  0.95000000000E+03 0.  0.
<mgrwt>
<rscale>  0 0.25727155E+04</rscale>
<asrwt>0</asrwt>
<pdfrwt beam="1">  1        2 0.56099110E+00 0.25727155E+04</pdfrwt>
<pdfrwt beam="2">  1       -2 0.69813731E-01 0.25727155E+04</pdfrwt>
<totfact> 0.10605904E+00</totfact>
</mgrwt>
</event>
<event>
 4    1  0.2552184E-008  0.2605917E+04  0.7816531E-02  0.8366194E-01
         -1   -1    0    0    0  501 -0.00000000000E+00  0.00000000000E+00  0.91702758036E+03  0.91702758036E+03  0.00000000000E+00 0. -1.
          1   -1    0    0  501    0  0.00000000000E+00 -0.00000000000E+00 -0.18513083575E+04  0.18513083575E+04  0.00000000000E+00 0.  1.
    2000013    1    1    2    0    0 -0.74052299286E+03  0.22233226940E+03  0.48423980924E+01  0.12248793368E+04  0.95000000000E+03 0.  0.
   -2000013    1    1    2    0    0  0.74052299286E+03 -0.22233226940E+03 -0.93912317519E+03  0.15434566010E+04  0.95000000000E+03 0.  0.
<mgrwt>
<rscale>  0 0.26059170E+04</rscale>
<asrwt>0</asrwt>
<pdfrwt beam="2">  1        1 0.28481666E+00 0.26059170E+04</pdfrwt>
<pdfrwt beam="1">  1       -1 0.14108117E+00 0.26059170E+04</pdfrwt>
<totfact> 0.13594443E+00</totfact>
</mgrwt>
</event>
<event>
 4    1  0.2552184E-008  0.2790423E+04  0.7816531E-02  0.8306248E-01
         -2   -1    0    0    0  501 -0.00000000000E+00  0.00000000000E+00  0.20250624804E+04  0.20250624804E+04  0.00000000000E+00 0. -1.
          2   -1    0    0  501    0  0.00000000000E+00 -0.00000000000E+00 -0.96126180492E+03  0.96126180492E+03  0.00000000000E+00 0.  1.
    2000013    1    1    2    0    0  0.49551557467E+02  0.10014698413E+04  0.32131726609E+03  0.14181473779E+04  0.95000000000E+03 0.  0.
   -2000013    1    1    2    0    0 -0.49551557467E+02 -0.10014698413E+04  0.74248340939E+03  0.15681769075E+04  0.95000000000E+03 0.  0.
<mgrwt>
<rscale>  0 0.27904231E+04</rscale>
<asrwt>0</asrwt>
<pdfrwt beam="2">  1        2 0.14788643E+00 0.27904231E+04</pdfrwt>
<pdfrwt beam="1">  1       -2 0.31154807E+00 0.27904231E+04</pdfrwt>
<totfact> 0.62749603E-01</totfact>
</mgrwt>
</event>
<event>
 4    1  0.2552184E-008  0.2510364E+04  0.7816531E-02  0.8399303E-01
         -2   -1    0    0    0  501 -0.00000000000E+00  0.00000000000E+00  0.12361222227E+04  0.12361222227E+04  0.00000000000E+00 0. -1.
          2   -1    0    0  501    0  0.00000000000E+00 -0.00000000000E+00 -0.12745357215E+04  0.12745357215E+04  0.00000000000E+00 0.  1.
    2000013    1    1    2    0    0 -0.66413813208E+03  0.16084093739E+03 -0.47316809785E+03  0.12622746589E+04  0.95000000000E+03 0.  0.
   -2000013    1    1    2    0    0  0.66413813208E+03 -0.16084093739E+03  0.43475459905E+03  0.12483832853E+04  0.95000000000E+03 0.  0.
<mgrwt>
<rscale>  0 0.25103641E+04</rscale>
<asrwt>0</asrwt>
<pdfrwt beam="2">  1        2 0.19608242E+00 0.25103641E+04</pdfrwt>
<pdfrwt beam="1">  1       -2 0.19017265E+00 0.25103641E+04</pdfrwt>
<totfact> 0.23569274E+00</totfact>
</mgrwt>
</event>
<event>
 4    1  0.2552184E-008  0.1970378E+04  0.7816531E-02  0.8620597E-01
          1   -1    0    0  501    0  0.00000000000E+00  0.00000000000E+00  0.54237756084E+03  0.54237756084E+03  0.00000000000E+00 0.  1.
         -1   -1    0    0    0  501 -0.00000000000E+00 -0.00000000000E+00 -0.17895226131E+04  0.17895226131E+04  0.00000000000E+00 0. -1.
    2000013    1    1    2    0    0  0.23180257778E+03  0.11763461313E+03 -0.59641503271E+03  0.11514257373E+04  0.95000000000E+03 0.  0.
   -2000013    1    1    2    0    0 -0.23180257778E+03 -0.11763461313E+03 -0.65073001958E+03  0.11804744367E+04  0.95000000000E+03 0.  0.
<mgrwt>
<rscale>  0 0.19703775E+04</rscale>
<asrwt>0</asrwt>
<pdfrwt beam="1">  1        1 0.83442701E-01 0.19703775E+04</pdfrwt>
<pdfrwt beam="2">  1       -1 0.27531117E+00 0.19703775E+04</pdfrwt>
<totfact> 0.17567693E+00</totfact>
</mgrwt>
</event>
<event>
 4    1  0.2552184E-008  0.2668794E+04  0.7816531E-02  0.8345202E-01
         -2   -1    0    0    0  501 -0.00000000000E+00  0.00000000000E+00  0.13265423026E+04  0.13265423026E+04  0.00000000000E+00 0. -1.
          2   -1    0    0  501    0  0.00000000000E+00 -0.00000000000E+00 -0.13422985872E+04  0.13422985872E+04  0.00000000000E+00 0.  1.
    2000013    1    1    2    0    0  0.24346054604E+03 -0.86171575627E+03  0.26833090097E+03  0.13327897638E+04  0.95000000000E+03 0.  0.
   -2000013    1    1    2    0    0 -0.24346054604E+03  0.86171575627E+03 -0.28408718559E+03  0.13360511259E+04  0.95000000000E+03 0.  0.
<mgrwt>
<rscale>  0 0.26687944E+04</rscale>
<asrwt>0</asrwt>
<pdfrwt beam="2">  1        2 0.20650747E+00 0.26687944E+04</pdfrwt>
<pdfrwt beam="1">  1       -2 0.20408343E+00 0.26687944E+04</pdfrwt>
<totfact> 0.17184645E+00</totfact>
</mgrwt>
</event>
<event>
 4    1  0.2552184E-008  0.2488826E+04  0.7816531E-02  0.8406977E-01
         -2   -1    0    0    0  501 -0.00000000000E+00  0.00000000000E+00  0.86352468789E+03  0.86352468789E+03  0.00000000000E+00 0. -1.
          2   -1    0    0  501    0  0.00000000000E+00 -0.00000000000E+00 -0.17933050000E+04  0.17933050000E+04  0.00000000000E+00 0.  1.
    2000013    1    1    2    0    0  0.17974528512E+03 -0.72693680661E+03 -0.77669920075E+03  0.14375350906E+04  0.95000000000E+03 0.  0.
   -2000013    1    1    2    0    0 -0.17974528512E+03  0.72693680661E+03 -0.15308111137E+03  0.12192945973E+04  0.95000000000E+03 0.  0.
<mgrwt>
<rscale>  0 0.24888255E+04</rscale>
<asrwt>0</asrwt>
<pdfrwt beam="2">  1        2 0.27589308E+00 0.24888255E+04</pdfrwt>
<pdfrwt beam="1">  1       -2 0.13284995E+00 0.24888255E+04</pdfrwt>
<totfact> 0.31936148E+00</totfact>
</mgrwt>
</event>
<event>
 4    1  0.2552184E-008  0.2039035E+04  0.7816531E-02  0.8588585E-01
          2   -1    0    0  501    0  0.00000000000E+00  0.00000000000E+00  0.17739844898E+04  0.17739844898E+04  0.00000000000E+00 0.  1.
         -2   -1    0    0    0  501 -0.00000000000E+00 -0.00000000000E+00 -0.58592191505E+03  0.58592191505E+03  0.00000000000E+00 0. -1.
    2000013    1    1    2    0    0 -0.11000323718E+03  0.34488199289E+03  0.68271957954E+03  0.12246021091E+04  0.95000000000E+03 0.  0.
   -2000013    1    1    2    0    0  0.11000323718E+03 -0.34488199289E+03  0.50534299517E+03  0.11353042958E+04  0.95000000000E+03 0.  0.
<mgrwt>
<rscale>  0 0.20390354E+04</rscale>
<asrwt>0</asrwt>
<pdfrwt beam="1">  1        2 0.27292069E+00 0.20390354E+04</pdfrwt>
<pdfrwt beam="2">  1       -2 0.90141834E-01 0.20390354E+04</pdfrwt>
<totfact> 0.86990895E+00</totfact>
</mgrwt>
</event>
<event>
 4    1  0.2552184E-008  0.2481937E+04  0.7816531E-02  0.8409449E-01
         -2   -1    0    0    0  501 -0.00000000000E+00  0.00000000000E+00  0.13052284698E+04  0.13052284698E+04  0.00000000000E+00 0. -1.
          2   -1    0    0  501    0  0.00000000000E+00 -0.00000000000E+00 -0.11798725685E+04  0.11798725685E+04  0.00000000000E+00 0.  1.
    2000013    1    1    2    0    0 -0.75512018592E+03 -0.88569920241E+02  0.30681685129E+03  0.12548656128E+04  0.95000000000E+03 0.  0.
   -2000013    1    1    2    0    0  0.75512018592E+03  0.88569920241E+02 -0.18146095000E+03  0.12302354256E+04  0.95000000000E+03 0.  0.
<mgrwt>
<rscale>  0 0.24819374E+04</rscale>
<asrwt>0</asrwt>
<pdfrwt beam="2">  1        2 0.18151886E+00 0.24819374E+04</pdfrwt>
<pdfrwt beam="1">  1       -2 0.20080438E+00 0.24819374E+04</pdfrwt>
<totfact> 0.22855036E+00</totfact>
</mgrwt>
</event>
<event>
 4    1  0.2552184E-008  0.2694077E+04  0.7816531E-02  0.8336929E-01
         -2   -1    0    0    0  501 -0.00000000000E+00  0.00000000000E+00  0.59821485929E+03  0.59821485929E+03  0.00000000000E+00 0. -1.
          2   -1    0    0  501    0  0.00000000000E+00 -0.00000000000E+00 -0.30332115717E+04  0.30332115717E+04  0.00000000000E+00 0.  1.
    2000013    1    1    2    0    0 -0.94124145857E+03  0.62618480378E+02 -0.10168619184E+04  0.16811795616E+04  0.95000000000E+03 0.  0.
   -2000013    1    1    2    0    0  0.94124145857E+03 -0.62618480378E+02 -0.14181347941E+04  0.19502468694E+04  0.95000000000E+03 0.  0.
<mgrwt>
<rscale>  0 0.26940766E+04</rscale>
<asrwt>0</asrwt>
<pdfrwt beam="2">  1        2 0.46664793E+00 0.26940766E+04</pdfrwt>
<pdfrwt beam="1">  1       -2 0.92033055E-01 0.26940766E+04</pdfrwt>
<totfact> 0.14612016E+00</totfact>
</mgrwt>
</event>
<event>
 4    1  0.2552184E-008  0.2261886E+04  0.7816531E-02  0.8493102E-01
          1   -1    0    0  501    0  0.00000000000E+00  0.00000000000E+00  0.15946641063E+04  0.15946641063E+04  0.00000000000E+00 0.  1.
         -1   -1    0    0    0  501 -0.00000000000E+00 -0.00000000000E+00 -0.80206998507E+03  0.80206998507E+03  0.00000000000E+00 0. -1.
    2000013    1    1    2    0    0 -0.98254251484E+02  0.64585788039E+02  0.10344533898E+04  0.14094037880E+04  0.95000000000E+03 0.  0.
   -2000013    1    1    2    0    0  0.98254251484E+02 -0.64585788039E+02 -0.24185926866E+03  0.98733030329E+03  0.95000000000E+03 0.  0.
<mgrwt>
<rscale>  0 0.22618861E+04</rscale>
<asrwt>0</asrwt>
<pdfrwt beam="1">  1        1 0.24533294E+00 0.22618861E+04</pdfrwt>
<pdfrwt beam="2">  1       -1 0.12339538E+00 0.22618861E+04</pdfrwt>
<totfact> 0.29490984E+00</totfact>
</mgrwt>
</event>
<event>
 4    1  0.2552184E-008  0.2487731E+04  0.7816531E-02  0.8407370E-01
          2   -1    0    0  501    0  0.00000000000E+00  0.00000000000E+00  0.25639064605E+04  0.25639064605E+04  0.00000000000E+00 0.  1.
         -2   -1    0    0    0  501 -0.00000000000E+00 -0.00000000000E+00 -0.60345466130E+03  0.60345466130E+03  0.00000000000E+00 0. -1.
    2000013    1    1    2    0    0  0.76173580880E+03 -0.25322502452E+03  0.95685494478E+03  0.15692150078E+04  0.95000000000E+03 0.  0.
   -2000013    1    1    2    0    0 -0.76173580880E+03  0.25322502452E+03  0.10035968544E+04  0.15981461140E+04  0.95000000000E+03 0.  0.
<mgrwt>
<rscale>  0 0.24877309E+04</rscale>
<asrwt>0</asrwt>
<pdfrwt beam="1">  1        2 0.39444714E+00 0.24877309E+04</pdfrwt>
<pdfrwt beam="2">  1       -2 0.92839180E-01 0.24877309E+04</pdfrwt>
<totfact> 0.28047997E+00</totfact>
</mgrwt>
</event>
<event>
 4    1  0.2552184E-008  0.2140863E+04  0.7816531E-02  0.8543453E-01
         -2   -1    0    0    0  501 -0.00000000000E+00  0.00000000000E+00  0.11438740907E+04  0.11438740907E+04  0.00000000000E+00 0. -1.
          2   -1    0    0  501    0  0.00000000000E+00 -0.00000000000E+00 -0.10017047146E+04  0.10017047146E+04  0.00000000000E+00 0.  1.
    2000013    1    1    2    0    0 -0.20221958602E+03 -0.32199503623E+03 -0.24385338602E+03  0.10519211179E+04  0.95000000000E+03 0.  0.
   -2000013    1    1    2    0    0  0.20221958602E+03  0.32199503623E+03  0.38602276210E+03  0.10936576874E+04  0.95000000000E+03 0.  0.
<mgrwt>
<rscale>  0 0.21408634E+04</rscale>
<asrwt>0</asrwt>
<pdfrwt beam="2">  1        2 0.15410842E+00 0.21408634E+04</pdfrwt>
<pdfrwt beam="1">  1       -2 0.17598063E+00 0.21408634E+04</pdfrwt>
<totfact> 0.44619511E+00</totfact>
</mgrwt>
</event>
<event>
 4    1  0.2552184E-008  0.2623376E+04  0.7816531E-02  0.8360304E-01
          1   -1    0    0  501    0  0.00000000000E+00  0.00000000000E+00  0.14786201483E+04  0.14786201483E+04  0.00000000000E+00 0. -1.
         -1   -1    0    0    0  501 -0.00000000000E+00 -0.00000000000E+00 -0.11636018654E+04  0.11636018654E+04  0.00000000000E+00 0.  1.
    2000013    1    1    2    0    0 -0.34566323002E+03 -0.65465015372E+03 -0.36581502338E+03  0.12587178094E+04  0.95000000000E+03 0.  0.
   -2000013    1    1    2    0    0  0.34566323002E+03  0.65465015372E+03  0.68083330629E+03  0.13835042043E+04  0.95000000000E+03 0.  0.
<mgrwt>
<rscale>  0 0.26233758E+04</rscale>
<asrwt>0</asrwt>
<pdfrwt beam="1">  1        1 0.22748002E+00 0.26233758E+04</pdfrwt>
<pdfrwt beam="2">  1       -1 0.17901567E+00 0.26233758E+04</pdfrwt>
<totfact> 0.12586829E+00</totfact>
</mgrwt>
</event>
<event>
 4    1  0.2552184E-008  0.2929601E+04  0.7816531E-02  0.8264124E-01
         -2   -1    0    0    0  501 -0.00000000000E+00  0.00000000000E+00  0.83346774302E+03  0.83346774302E+03  0.00000000000E+00 0. -1.
          2   -1    0    0  501    0  0.00000000000E+00 -0.00000000000E+00 -0.25743531448E+04  0.25743531448E+04  0.00000000000E+00 0.  1.
    2000013    1    1    2    0    0 -0.78879671877E+03  0.54673315654E+03 -0.21033973797E+03  0.13666968257E+04  0.95000000000E+03 0.  0.
   -2000013    1    1    2    0    0  0.78879671877E+03 -0.54673315654E+03 -0.15305456638E+04  0.20411240621E+04  0.95000000000E+03 0.  0.
<mgrwt>
<rscale>  0 0.29296009E+04</rscale>
<asrwt>0</asrwt>
<pdfrwt beam="2">  1        2 0.39605432E+00 0.29296009E+04</pdfrwt>
<pdfrwt beam="1">  1       -2 0.12822581E+00 0.29296009E+04</pdfrwt>
<totfact> 0.12193984E+00</totfact>
</mgrwt>
</event>
<event>
 4    1  0.2552184E-008  0.2736181E+04  0.7816531E-02  0.8323360E-01
         -2   -1    0    0    0  501 -0.00000000000E+00  0.00000000000E+00  0.44034751913E+03  0.44034751913E+03  0.00000000000E+00 0. -1.
          2   -1    0    0  501    0  0.00000000000E+00 -0.00000000000E+00 -0.42504421754E+04  0.42504421754E+04  0.00000000000E+00 0.  1.
    2000013    1    1    2    0    0 -0.60649056782E+03  0.50152910680E+03 -0.29189981222E+04  0.31689765369E+04  0.95000000000E+03 0.  0.
   -2000013    1    1    2    0    0  0.60649056782E+03 -0.50152910680E+03 -0.89109653409E+03  0.15218131577E+04  0.95000000000E+03 0.  0.
<mgrwt>
<rscale>  0 0.27361810E+04</rscale>
<asrwt>0</asrwt>
<pdfrwt beam="2">  1        2 0.65391416E+00 0.27361810E+04</pdfrwt>
<pdfrwt beam="1">  1       -2 0.67745775E-01 0.27361810E+04</pdfrwt>
<totfact> 0.36739328E-01</totfact>
</mgrwt>
</event>
<event>
 4    1  0.2552184E-008  0.2546551E+04  0.7816531E-02  0.8386587E-01
          2   -1    0    0  501    0  0.00000000000E+00  0.00000000000E+00  0.25194550342E+04  0.25194550342E+04  0.00000000000E+00 0.  1.
         -2   -1    0    0    0  501 -0.00000000000E+00 -0.00000000000E+00 -0.64348451333E+03  0.64348451333E+03  0.00000000000E+00 0. -1.
    2000013    1    1    2    0    0 -0.11789983737E+03 -0.55782146972E+03  0.17172804863E+04  0.20436774287E+04  0.95000000000E+03 0.  0.
   -2000013    1    1    2    0    0  0.11789983737E+03  0.55782146972E+03  0.15869003460E+03  0.11192621189E+04  0.95000000000E+03 0.  0.
<mgrwt>
<rscale>  0 0.25465508E+04</rscale>
<asrwt>0</asrwt>
<pdfrwt beam="1">  1        2 0.38760846E+00 0.25465508E+04</pdfrwt>
<pdfrwt beam="2">  1       -2 0.98997619E-01 0.25465508E+04</pdfrwt>
<totfact> 0.25486793E+00</totfact>
</mgrwt>
</event>
<event>
 4    1  0.2552184E-008  0.2358690E+04  0.7816531E-02  0.8455133E-01
          2   -1    0    0  501    0  0.00000000000E+00  0.00000000000E+00  0.16946843068E+04  0.16946843068E+04  0.00000000000E+00 0.  1.
         -2   -1    0    0    0  501 -0.00000000000E+00 -0.00000000000E+00 -0.82071617083E+03  0.82071617083E+03  0.00000000000E+00 0. -1.
    2000013    1    1    2    0    0  0.65446144119E+03  0.23866476014E+03  0.37785512255E+03  0.12371560691E+04  0.95000000000E+03 0.  0.
   -2000013    1    1    2    0    0 -0.65446144119E+03 -0.23866476014E+03  0.49611301339E+03  0.12782444085E+04  0.95000000000E+03 0.  0.
<mgrwt>
<rscale>  0 0.23586902E+04</rscale>
<asrwt>0</asrwt>
<pdfrwt beam="1">  1        2 0.26072066E+00 0.23586902E+04</pdfrwt>
<pdfrwt beam="2">  1       -2 0.12626403E+00 0.23586902E+04</pdfrwt>
<totfact> 0.41655315E+00</totfact>
</mgrwt>
</event>
<event>
 4    1  0.2552184E-008  0.2029872E+04  0.7816531E-02  0.8592780E-01
         -2   -1    0    0    0  501 -0.00000000000E+00  0.00000000000E+00  0.36912473544E+03  0.36912473544E+03  0.00000000000E+00 0. -1.
          2   -1    0    0  501    0  0.00000000000E+00 -0.00000000000E+00 -0.27906433969E+04  0.27906433969E+04  0.00000000000E+00 0.  1.
    2000013    1    1    2    0    0 -0.24014704210E+03 -0.24907976147E+03 -0.13489773400E+04  0.16858087653E+04  0.95000000000E+03 0.  0.
   -2000013    1    1    2    0    0  0.24014704210E+03  0.24907976147E+03 -0.10725413215E+04  0.14739593670E+04  0.95000000000E+03 0.  0.
<mgrwt>
<rscale>  0 0.20298724E+04</rscale>
<asrwt>0</asrwt>
<pdfrwt beam="2">  1        2 0.42932975E+00 0.20298724E+04</pdfrwt>
<pdfrwt beam="1">  1       -2 0.56788421E-01 0.20298724E+04</pdfrwt>
<totfact> 0.63226038E+00</totfact>
</mgrwt>
</event>
<event>
 4    1  0.2552184E-008  0.1974335E+04  0.7816531E-02  0.8618715E-01
          2   -1    0    0  501    0  0.00000000000E+00  0.00000000000E+00  0.13090850261E+04  0.13090850261E+04  0.00000000000E+00 0.  1.
         -2   -1    0    0    0  501 -0.00000000000E+00 -0.00000000000E+00 -0.74441249916E+03  0.74441249916E+03  0.00000000000E+00 0. -1.
    2000013    1    1    2    0    0 -0.26482757488E+03 -0.35404228839E+02  0.30807001369E+03  0.10338250515E+04  0.95000000000E+03 0.  0.
   -2000013    1    1    2    0    0  0.26482757488E+03  0.35404228839E+02  0.25660251322E+03  0.10196724737E+04  0.95000000000E+03 0.  0.
<mgrwt>
<rscale>  0 0.19743346E+04</rscale>
<asrwt>0</asrwt>
<pdfrwt beam="1">  1        2 0.20139770E+00 0.19743346E+04</pdfrwt>
<pdfrwt beam="2">  1       -2 0.11452500E+00 0.19743346E+04</pdfrwt>
<totfact> 0.90576727E+00</totfact>
</mgrwt>
</event>
<event>
 4    1  0.2552184E-008  0.2286537E+04  0.7816531E-02  0.8483248E-01
         -2   -1    0    0    0  501 -0.00000000000E+00  0.00000000000E+00  0.17375470696E+04  0.17375470696E+04  0.00000000000E+00 0. -1.
          2   -1    0    0  501    0  0.00000000000E+00 -0.00000000000E+00 -0.75224634033E+03  0.75224634033E+03  0.00000000000E+00 0.  1.
    2000013    1    1    2    0    0  0.54699453115E+03  0.27585232073E+03  0.30637047987E+03  0.11711790601E+04  0.95000000000E+03 0.  0.
   -2000013    1    1    2    0    0 -0.54699453115E+03 -0.27585232073E+03  0.67893024941E+03  0.13186143498E+04  0.95000000000E+03 0.  0.
<mgrwt>
<rscale>  0 0.22865375E+04</rscale>
<asrwt>0</asrwt>
<pdfrwt beam="2">  1        2 0.11573021E+00 0.22865375E+04</pdfrwt>
<pdfrwt beam="1">  1       -2 0.26731493E+00 0.22865375E+04</pdfrwt>
<totfact> 0.17064104E+00</totfact>
</mgrwt>
</event>
<event>
 4    1  0.2552184E-008  0.2276744E+04  0.7816531E-02  0.8487148E-01
         -2   -1    0    0    0  501 -0.00000000000E+00  0.00000000000E+00  0.74174619745E+03  0.74174619745E+03  0.00000000000E+00 0. -1.
          2   -1    0    0  501    0  0.00000000000E+00 -0.00000000000E+00 -0.17470809322E+04  0.17470809322E+04  0.00000000000E+00 0.  1.
    2000013    1    1    2    0    0 -0.60228587055E+03 -0.16817323013E+03 -0.55577400265E+03  0.12658654143E+04  0.95000000000E+03 0.  0.
   -2000013    1    1    2    0    0  0.60228587055E+03  0.16817323013E+03 -0.44956073205E+03  0.12229617153E+04  0.95000000000E+03 0.  0.
<mgrwt>
<rscale>  0 0.22767438E+04</rscale>
<asrwt>0</asrwt>
<pdfrwt beam="2">  1        2 0.26878168E+00 0.22767438E+04</pdfrwt>
<pdfrwt beam="1">  1       -2 0.11411480E+00 0.22767438E+04</pdfrwt>
<totfact> 0.50397974E+00</totfact>
</mgrwt>
</event>
<event>
 4    1  0.2552184E-008  0.2368275E+04  0.7816531E-02  0.8451477E-01
          2   -1    0    0  501    0  0.00000000000E+00  0.00000000000E+00  0.72838236353E+03  0.72838236353E+03  0.00000000000E+00 0.  1.
         -2   -1    0    0    0  501 -0.00000000000E+00 -0.00000000000E+00 -0.19250630727E+04  0.19250630727E+04  0.00000000000E+00 0. -1.
    2000013    1    1    2    0    0 -0.24910735826E+03  0.43218479824E+03 -0.37189443909E+02  0.10736485601E+04  0.95000000000E+03 0.  0.
   -2000013    1    1    2    0    0  0.24910735826E+03 -0.43218479824E+03 -0.11594912653E+04  0.15797968762E+04  0.95000000000E+03 0.  0.
<mgrwt>
<rscale>  0 0.23682753E+04</rscale>
<asrwt>0</asrwt>
<pdfrwt beam="1">  1        2 0.11205882E+00 0.23682753E+04</pdfrwt>
<pdfrwt beam="2">  1       -2 0.29616356E+00 0.23682753E+04</pdfrwt>
<totfact> 0.11782792E+00</totfact>
</mgrwt>
</event>
<event>
 4    1  0.2552184E-008  0.2736200E+04  0.7816531E-02  0.8323354E-01
          2   -1    0    0  501    0  0.00000000000E+00  0.00000000000E+00  0.11152785959E+04  0.11152785959E+04  0.00000000000E+00 0.  1.
         -2   -1    0    0    0  501 -0.00000000000E+00 -0.00000000000E+00 -0.16782329303E+04  0.16782329303E+04  0.00000000000E+00 0. -1.
    2000013    1    1    2    0    0  0.45424069521E+03  0.63114463820E+03 -0.89787742999E+03  0.15209740441E+04  0.95000000000E+03 0.  0.
   -2000013    1    1    2    0    0 -0.45424069521E+03 -0.63114463820E+03  0.33492309558E+03  0.12725374821E+04  0.95000000000E+03 0.  0.
<mgrwt>
<rscale>  0 0.27361997E+04</rscale>
<asrwt>0</asrwt>
<pdfrwt beam="1">  1        2 0.17158132E+00 0.27361997E+04</pdfrwt>
<pdfrwt beam="2">  1       -2 0.25818968E+00 0.27361997E+04</pdfrwt>
<totfact> 0.10672683E+00</totfact>
</mgrwt>
</event>
<event>
 4    1  0.2552184E-008  0.2751241E+04  0.7816531E-02  0.8318568E-01
          1   -1    0    0  501    0  0.00000000000E+00  0.00000000000E+00  0.12989326496E+04  0.12989326496E+04  0.00000000000E+00 0. -1.
         -1   -1    0    0    0  501 -0.00000000000E+00 -0.00000000000E+00 -0.14568358936E+04  0.14568358936E+04  0.00000000000E+00 0.  1.
    2000013    1    1    2    0    0 -0.43408641798E+03 -0.50901221652E+03 -0.81657864003E+03  0.14201496858E+04  0.95000000000E+03 0.  0.
   -2000013    1    1    2    0    0  0.43408641798E+03  0.50901221652E+03  0.65867539599E+03  0.13356188574E+04  0.95000000000E+03 0.  0.
<mgrwt>
<rscale>  0 0.27512410E+04</rscale>
<asrwt>0</asrwt>
<pdfrwt beam="1">  1        1 0.19983579E+00 0.27512410E+04</pdfrwt>
<pdfrwt beam="2">  1       -1 0.22412860E+00 0.27512410E+04</pdfrwt>
<totfact> 0.81354089E-01</totfact>
</mgrwt>
</event>
<event>
 4    1  0.2552184E-008  0.3092064E+04  0.7816531E-02  0.8217919E-01
          2   -1    0    0  501    0  0.00000000000E+00  0.00000000000E+00  0.23462205469E+04  0.23462205469E+04  0.00000000000E+00 0.  1.
         -2   -1    0    0    0  501 -0.00000000000E+00 -0.00000000000E+00 -0.10187510509E+04  0.10187510509E+04  0.00000000000E+00 0. -1.
    2000013    1    1    2    0    0 -0.87976272035E+03 -0.71720920565E+03  0.17784960063E+03  0.14908058120E+04  0.95000000000E+03 0.  0.
   -2000013    1    1    2    0    0  0.87976272035E+03  0.71720920565E+03  0.11496198954E+04  0.18741657858E+04  0.95000000000E+03 0.  0.
<mgrwt>
<rscale>  0 0.30920638E+04</rscale>
<asrwt>0</asrwt>
<pdfrwt beam="1">  1        2 0.36095701E+00 0.30920638E+04</pdfrwt>
<pdfrwt beam="2">  1       -2 0.15673093E+00 0.30920638E+04</pdfrwt>
<totfact> 0.96574981E-01</totfact>
</mgrwt>
</event>
<event>
 4    1  0.2552184E-008  0.2645780E+04  0.7816531E-02  0.8352815E-01
          2   -1    0    0  501    0  0.00000000000E+00  0.00000000000E+00  0.22757615804E+04  0.22757615804E+04  0.00000000000E+00 0.  1.
         -2   -1    0    0    0  501 -0.00000000000E+00 -0.00000000000E+00 -0.76898973785E+03  0.76898973785E+03  0.00000000000E+00 0. -1.
    2000013    1    1    2    0    0 -0.90925951540E+03  0.14102799594E+03  0.78782412253E+03  0.15394182700E+04  0.95000000000E+03 0.  0.
   -2000013    1    1    2    0    0  0.90925951540E+03 -0.14102799594E+03  0.71894772002E+03  0.15053330482E+04  0.95000000000E+03 0.  0.
<mgrwt>
<rscale>  0 0.26457795E+04</rscale>
<asrwt>0</asrwt>
<pdfrwt beam="1">  1        2 0.35011716E+00 0.26457795E+04</pdfrwt>
<pdfrwt beam="2">  1       -2 0.11830611E+00 0.26457795E+04</pdfrwt>
<totfact> 0.22680140E+00</totfact>
</mgrwt>
</event>
<event>
 4    1  0.2552184E-008  0.2506736E+04  0.7816531E-02  0.8400590E-01
         -2   -1    0    0    0  501 -0.00000000000E+00  0.00000000000E+00  0.98306086998E+03  0.98306086998E+03  0.00000000000E+00 0. -1.
          2   -1    0    0  501    0  0.00000000000E+00 -0.00000000000E+00 -0.15980006791E+04  0.15980006791E+04  0.00000000000E+00 0.  1.
    2000013    1    1    2    0    0  0.29939564727E+03  0.70133207289E+03 -0.61104650625E+03  0.13628581228E+04  0.95000000000E+03 0.  0.
   -2000013    1    1    2    0    0 -0.29939564727E+03 -0.70133207289E+03 -0.38933028926E+01  0.12182034263E+04  0.95000000000E+03 0.  0.
<mgrwt>
<rscale>  0 0.25067365E+04</rscale>
<asrwt>0</asrwt>
<pdfrwt beam="2">  1        2 0.24584625E+00 0.25067365E+04</pdfrwt>
<pdfrwt beam="1">  1       -2 0.15124014E+00 0.25067365E+04</pdfrwt>
<totfact> 0.29219558E+00</totfact>
</mgrwt>
</event>
<event>
 4    1  0.2552184E-008  0.4202144E+04  0.7816531E-02  0.7964964E-01
         -2   -1    0    0    0  501 -0.00000000000E+00  0.00000000000E+00  0.17052185110E+04  0.17052185110E+04  0.00000000000E+00 0. -1.
          2   -1    0    0  501    0  0.00000000000E+00 -0.00000000000E+00 -0.25888203554E+04  0.25888203554E+04  0.00000000000E+00 0.  1.
    2000013    1    1    2    0    0  0.61186384958E+03 -0.16517644753E+04  0.21195626376E+03  0.20124931577E+04  0.95000000000E+03 0.  0.
   -2000013    1    1    2    0    0 -0.61186384958E+03  0.16517644753E+04 -0.10955581082E+04  0.22815457086E+04  0.95000000000E+03 0.  0.
<mgrwt>
<rscale>  0 0.42021444E+04</rscale>
<asrwt>0</asrwt>
<pdfrwt beam="2">  1        2 0.39828006E+00 0.42021444E+04</pdfrwt>
<pdfrwt beam="1">  1       -2 0.26234131E+00 0.42021444E+04</pdfrwt>
<totfact> 0.12944147E-01</totfact>
</mgrwt>
</event>
<event>
 4    1  0.2552184E-008  0.3003959E+04  0.7816531E-02  0.8242601E-01
         -2   -1    0    0    0  501 -0.00000000000E+00  0.00000000000E+00  0.50762744775E+03  0.50762744775E+03  0.00000000000E+00 0. -1.
          2   -1    0    0  501    0  0.00000000000E+00 -0.00000000000E+00 -0.44440906526E+04  0.44440906526E+04  0.00000000000E+00 0.  1.
    2000013    1    1    2    0    0 -0.94020881462E+03  0.37014819552E+03 -0.29186582667E+04  0.32314189421E+04  0.95000000000E+03 0.  0.
   -2000013    1    1    2    0    0  0.94020881462E+03 -0.37014819552E+03 -0.10178049382E+04  0.17202991583E+04  0.95000000000E+03 0.  0.
<mgrwt>
<rscale>  0 0.30039590E+04</rscale>
<asrwt>0</asrwt>
<pdfrwt beam="2">  1        2 0.68370625E+00 0.30039590E+04</pdfrwt>
<pdfrwt beam="1">  1       -2 0.78096531E-01 0.30039590E+04</pdfrwt>
<totfact> 0.17392355E-01</totfact>
</mgrwt>
</event>
<event>
 4    1  0.2552184E-008  0.2724995E+04  0.7816531E-02  0.8326940E-01
         -2   -1    0    0    0  501 -0.00000000000E+00  0.00000000000E+00  0.93777722713E+03  0.93777722713E+03  0.00000000000E+00 0. -1.
          2   -1    0    0  501    0  0.00000000000E+00 -0.00000000000E+00 -0.19795743250E+04  0.19795743250E+04  0.00000000000E+00 0.  1.
    2000013    1    1    2    0    0 -0.39631576428E+03 -0.72711521815E+03 -0.10752706846E+04  0.16566441291E+04  0.95000000000E+03 0.  0.
   -2000013    1    1    2    0    0  0.39631576428E+03  0.72711521815E+03  0.33473586685E+02  0.12607074230E+04  0.95000000000E+03 0.  0.
<mgrwt>
<rscale>  0 0.27249952E+04</rscale>
<asrwt>0</asrwt>
<pdfrwt beam="2">  1        2 0.30454990E+00 0.27249952E+04</pdfrwt>
<pdfrwt beam="1">  1       -2 0.14427342E+00 0.27249952E+04</pdfrwt>
<totfact> 0.19938221E+00</totfact>
</mgrwt>
</event>
<event>
 4    1  0.2552184E-008  0.2606159E+04  0.7816531E-02  0.8366112E-01
         -2   -1    0    0    0  501 -0.00000000000E+00  0.00000000000E+00  0.14188010956E+04  0.14188010956E+04  0.00000000000E+00 0. -1.
          2   -1    0    0  501    0  0.00000000000E+00 -0.00000000000E+00 -0.11967960979E+04  0.11967960979E+04  0.00000000000E+00 0.  1.
    2000013    1    1    2    0    0 -0.86052666361E+03 -0.37149442623E+02  0.34342141752E+03  0.13275257022E+04  0.95000000000E+03 0.  0.
   -2000013    1    1    2    0    0  0.86052666361E+03  0.37149442623E+02 -0.12141641978E+03  0.12880714914E+04  0.95000000000E+03 0.  0.
<mgrwt>
<rscale>  0 0.26061586E+04</rscale>
<asrwt>0</asrwt>
<pdfrwt beam="2">  1        2 0.18412248E+00 0.26061586E+04</pdfrwt>
<pdfrwt beam="1">  1       -2 0.21827709E+00 0.26061586E+04</pdfrwt>
<totfact> 0.17047465E+00</totfact>
</mgrwt>
</event>
<event>
 4    1  0.2552184E-008  0.2952875E+04  0.7816531E-02  0.8257317E-01
          2   -1    0    0  501    0  0.00000000000E+00  0.00000000000E+00  0.20868263103E+04  0.20868263103E+04  0.00000000000E+00 0.  1.
         -2   -1    0    0    0  501 -0.00000000000E+00 -0.00000000000E+00 -0.10445848652E+04  0.10445848652E+04  0.00000000000E+00 0. -1.
    2000013    1    1    2    0    0  0.73507229383E+03  0.85182120297E+03  0.63452839391E+03  0.16034515651E+04  0.95000000000E+03 0.  0.
   -2000013    1    1    2    0    0 -0.73507229383E+03 -0.85182120297E+03  0.40771305121E+03  0.15279596104E+04  0.95000000000E+03 0.  0.
<mgrwt>
<rscale>  0 0.29528747E+04</rscale>
<asrwt>0</asrwt>
<pdfrwt beam="1">  1        2 0.32105020E+00 0.29528747E+04</pdfrwt>
<pdfrwt beam="2">  1       -2 0.16070536E+00 0.29528747E+04</pdfrwt>
<totfact> 0.12782554E+00</totfact>
</mgrwt>
</event>
<event>
 4    1  0.2552184E-008  0.2123895E+04  0.7816531E-02  0.8550790E-01
         -2   -1    0    0    0  501 -0.00000000000E+00  0.00000000000E+00  0.10728367596E+04  0.10728367596E+04  0.00000000000E+00 0.  1.
          2   -1    0    0  501    0  0.00000000000E+00 -0.00000000000E+00 -0.10511689420E+04  0.10511689420E+04  0.00000000000E+00 0. -1.
    2000013    1    1    2    0    0  0.16252554081E+03  0.36754445815E+03  0.26329347825E+03  0.10645782901E+04  0.95000000000E+03 0.  0.
   -2000013    1    1    2    0    0 -0.16252554081E+03 -0.36754445815E+03 -0.24162566065E+03  0.10594274114E+04  0.95000000000E+03 0.  0.
<mgrwt>
<rscale>  0 0.21238952E+04</rscale>
<asrwt>0</asrwt>
<pdfrwt beam="2">  1        2 0.16171830E+00 0.21238952E+04</pdfrwt>
<pdfrwt beam="1">  1       -2 0.16505181E+00 0.21238952E+04</pdfrwt>
<totfact> 0.49713045E+00</totfact>
</mgrwt>
</event>
<event>
 4    1  0.2552184E-008  0.3194151E+04  0.7816531E-02  0.8190364E-01
          1   -1    0    0  501    0  0.00000000000E+00  0.00000000000E+00  0.32637595878E+04  0.32637595878E+04  0.00000000000E+00 0.  1.
         -1   -1    0    0    0  501 -0.00000000000E+00 -0.00000000000E+00 -0.78150658530E+03  0.78150658530E+03  0.00000000000E+00 0. -1.
    2000013    1    1    2    0    0  0.99212086876E+03  0.81332909621E+03  0.13024102926E+04  0.20602379977E+04  0.95000000000E+03 0.  0.
   -2000013    1    1    2    0    0 -0.99212086876E+03 -0.81332909621E+03  0.11798427099E+04  0.19850281754E+04  0.95000000000E+03 0.  0.
<mgrwt>
<rscale>  0 0.31941507E+04</rscale>
<asrwt>0</asrwt>
<pdfrwt beam="1">  1        1 0.50211685E+00 0.31941507E+04</pdfrwt>
<pdfrwt beam="2">  1       -1 0.12023178E+00 0.31941507E+04</pdfrwt>
<totfact> 0.19604702E-01</totfact>
</mgrwt>
</event>
<event>
 4    1  0.2552184E-008  0.2381325E+04  0.7816531E-02  0.8446528E-01
          2   -1    0    0  501    0  0.00000000000E+00  0.00000000000E+00  0.23360236334E+04  0.23360236334E+04  0.00000000000E+00 0.  1.
         -2   -1    0    0    0  501 -0.00000000000E+00 -0.00000000000E+00 -0.60687626074E+03  0.60687626074E+03  0.00000000000E+00 0. -1.
    2000013    1    1    2    0    0 -0.36492444673E+03  0.46626127445E+03  0.36317627547E+03  0.11768459691E+04  0.95000000000E+03 0.  0.
   -2000013    1    1    2    0    0  0.36492444673E+03 -0.46626127445E+03  0.13659710972E+04  0.17660539251E+04  0.95000000000E+03 0.  0.
<mgrwt>
<rscale>  0 0.23813251E+04</rscale>
<asrwt>0</asrwt>
<pdfrwt beam="1">  1        2 0.35938825E+00 0.23813251E+04</pdfrwt>
<pdfrwt beam="2">  1       -2 0.93365580E-01 0.23813251E+04</pdfrwt>
<totfact> 0.37795791E+00</totfact>
</mgrwt>
</event>
<event>
 4    1  0.2552184E-008  0.2134941E+04  0.7816531E-02  0.8546006E-01
         -1   -1    0    0    0  501 -0.00000000000E+00  0.00000000000E+00  0.34948009191E+03  0.34948009191E+03  0.00000000000E+00 0. -1.
          1   -1    0    0  501    0  0.00000000000E+00 -0.00000000000E+00 -0.32605374463E+04  0.32605374463E+04  0.00000000000E+00 0.  1.
    2000013    1    1    2    0    0 -0.40695401045E+03  0.24871663217E+03 -0.16205248341E+04  0.19380588917E+04  0.95000000000E+03 0.  0.
   -2000013    1    1    2    0    0  0.40695401045E+03 -0.24871663217E+03 -0.12905325203E+04  0.16719586465E+04  0.95000000000E+03 0.  0.
<mgrwt>
<rscale>  0 0.21349407E+04</rscale>
<asrwt>0</asrwt>
<pdfrwt beam="2">  1        1 0.50162114E+00 0.21349407E+04</pdfrwt>
<pdfrwt beam="1">  1       -1 0.53766169E-01 0.21349407E+04</pdfrwt>
<totfact> 0.12275956E+00</totfact>
</mgrwt>
</event>
<event>
 4    1  0.2552184E-008  0.2370415E+04  0.7816531E-02  0.8450663E-01
          2   -1    0    0  501    0  0.00000000000E+00  0.00000000000E+00  0.18620966581E+04  0.18620966581E+04  0.00000000000E+00 0.  1.
         -2   -1    0    0    0  501 -0.00000000000E+00 -0.00000000000E+00 -0.75437379964E+03  0.75437379964E+03  0.00000000000E+00 0. -1.
    2000013    1    1    2    0    0  0.17395252914E+03 -0.43213402589E+03 -0.35632879682E+02  0.10586637808E+04  0.95000000000E+03 0.  0.
   -2000013    1    1    2    0    0 -0.17395252914E+03  0.43213402589E+03  0.11433557382E+04  0.15578066769E+04  0.95000000000E+03 0.  0.
<mgrwt>
<rscale>  0 0.23704151E+04</rscale>
<asrwt>0</asrwt>
<pdfrwt beam="1">  1        2 0.28647641E+00 0.23704151E+04</pdfrwt>
<pdfrwt beam="2">  1       -2 0.11605751E+00 0.23704151E+04</pdfrwt>
<totfact> 0.41427848E+00</totfact>
</mgrwt>
</event>
<event>
 4    1  0.2552184E-008  0.2719493E+04  0.7816531E-02  0.8328708E-01
          2   -1    0    0  501    0  0.00000000000E+00  0.00000000000E+00  0.16347524797E+04  0.16347524797E+04  0.00000000000E+00 0.  1.
         -2   -1    0    0    0  501 -0.00000000000E+00 -0.00000000000E+00 -0.11310035551E+04  0.11310035551E+04  0.00000000000E+00 0. -1.
    2000013    1    1    2    0    0 -0.69700381427E+03 -0.65126851414E+03  0.44603012254E+03  0.14182411166E+04  0.95000000000E+03 0.  0.
   -2000013    1    1    2    0    0  0.69700381427E+03  0.65126851414E+03  0.57718802006E+02  0.13475149182E+04  0.95000000000E+03 0.  0.
<mgrwt>
<rscale>  0 0.27194932E+04</rscale>
<asrwt>0</asrwt>
<pdfrwt beam="1">  1        2 0.25150038E+00 0.27194932E+04</pdfrwt>
<pdfrwt beam="2">  1       -2 0.17400055E+00 0.27194932E+04</pdfrwt>
<totfact> 0.18654692E+00</totfact>
</mgrwt>
</event>
<event>
 4    1  0.2552184E-008  0.2443285E+04  0.7816531E-02  0.8423474E-01
         -1   -1    0    0    0  501 -0.00000000000E+00  0.00000000000E+00  0.57010228937E+03  0.57010228937E+03  0.00000000000E+00 0. -1.
          1   -1    0    0  501    0  0.00000000000E+00 -0.00000000000E+00 -0.26177939334E+04  0.26177939334E+04  0.00000000000E+00 0.  1.
    2000013    1    1    2    0    0  0.26888791646E+03  0.71919445167E+03 -0.10489074946E+04  0.16100460562E+04  0.95000000000E+03 0.  0.
   -2000013    1    1    2    0    0 -0.26888791646E+03 -0.71919445167E+03 -0.99878414946E+03  0.15778501666E+04  0.95000000000E+03 0.  0.
<mgrwt>
<rscale>  0 0.24432849E+04</rscale>
<asrwt>0</asrwt>
<pdfrwt beam="2">  1        1 0.40273753E+00 0.24432849E+04</pdfrwt>
<pdfrwt beam="1">  1       -1 0.87708043E-01 0.24432849E+04</pdfrwt>
<totfact> 0.12794892E+00</totfact>
</mgrwt>
</event>
<event>
 4    1  0.2552184E-008  0.2350327E+04  0.7816531E-02  0.8458338E-01
          2   -1    0    0  501    0  0.00000000000E+00  0.00000000000E+00  0.20544376214E+04  0.20544376214E+04  0.00000000000E+00 0.  1.
         -2   -1    0    0    0  501 -0.00000000000E+00 -0.00000000000E+00 -0.67220798946E+03  0.67220798946E+03  0.00000000000E+00 0. -1.
    2000013    1    1    2    0    0  0.51867280509E+03 -0.24909307871E+03  0.24565468056E+03  0.11375038737E+04  0.95000000000E+03 0.  0.
   -2000013    1    1    2    0    0 -0.51867280509E+03  0.24909307871E+03  0.11365749513E+04  0.15891417371E+04  0.95000000000E+03 0.  0.
<mgrwt>
<rscale>  0 0.23503271E+04</rscale>
<asrwt>0</asrwt>
<pdfrwt beam="1">  1        2 0.31606732E+00 0.23503271E+04</pdfrwt>
<pdfrwt beam="2">  1       -2 0.10341661E+00 0.23503271E+04</pdfrwt>
<totfact> 0.42883766E+00</totfact>
</mgrwt>
</event>
<event>
 4    1  0.2552184E-008  0.2836637E+04  0.7816531E-02  0.8291984E-01
          2   -1    0    0  501    0  0.00000000000E+00  0.00000000000E+00  0.25302434372E+04  0.25302434372E+04  0.00000000000E+00 0.  1.
         -2   -1    0    0    0  501 -0.00000000000E+00 -0.00000000000E+00 -0.79503294471E+03  0.79503294471E+03  0.00000000000E+00 0. -1.
    2000013    1    1    2    0    0  0.94480757504E+03 -0.34366466278E+03  0.12352544223E+04  0.18544865171E+04  0.95000000000E+03 0.  0.
   -2000013    1    1    2    0    0 -0.94480757504E+03  0.34366466278E+03  0.49995607019E+03  0.14707898648E+04  0.95000000000E+03 0.  0.
<mgrwt>
<rscale>  0 0.28366367E+04</rscale>
<asrwt>0</asrwt>
<pdfrwt beam="1">  1        2 0.38926822E+00 0.28366367E+04</pdfrwt>
<pdfrwt beam="2">  1       -2 0.12231276E+00 0.28366367E+04</pdfrwt>
<totfact> 0.14680878E+00</totfact>
</mgrwt>
</event>
<event>
 4    1  0.2552184E-008  0.2341501E+04  0.7816531E-02  0.8461735E-01
         -2   -1    0    0    0  501 -0.00000000000E+00  0.00000000000E+00  0.85122031197E+03  0.85122031197E+03  0.00000000000E+00 0. -1.
          2   -1    0    0  501    0  0.00000000000E+00 -0.00000000000E+00 -0.16102259834E+04  0.16102259834E+04  0.00000000000E+00 0.  1.
    2000013    1    1    2    0    0 -0.34190482383E+03 -0.43595323295E+03 -0.80157084474E+03  0.13608710259E+04  0.95000000000E+03 0.  0.
   -2000013    1    1    2    0    0  0.34190482383E+03  0.43595323295E+03  0.42565173313E+02  0.11005752695E+04  0.95000000000E+03 0.  0.
<mgrwt>
<rscale>  0 0.23415013E+04</rscale>
<asrwt>0</asrwt>
<pdfrwt beam="2">  1        2 0.24772707E+00 0.23415013E+04</pdfrwt>
<pdfrwt beam="1">  1       -2 0.13095697E+00 0.23415013E+04</pdfrwt>
<totfact> 0.42398977E+00</totfact>
</mgrwt>
</event>
<event>
 4    1  0.2552184E-008  0.2384287E+04  0.7816531E-02  0.8445410E-01
          2   -1    0    0  501    0  0.00000000000E+00  0.00000000000E+00  0.42954839436E+04  0.42954839436E+04  0.00000000000E+00 0.  1.
         -2   -1    0    0    0  501 -0.00000000000E+00 -0.00000000000E+00 -0.33086064875E+03  0.33086064875E+03  0.00000000000E+00 0. -1.
    2000013    1    1    2    0    0  0.29749429928E+03  0.63293179315E+03  0.16484755953E+04  0.20270859136E+04  0.95000000000E+03 0.  0.
   -2000013    1    1    2    0    0 -0.29749429928E+03 -0.63293179315E+03  0.23161476996E+04  0.25992586788E+04  0.95000000000E+03 0.  0.
<mgrwt>
<rscale>  0 0.23842874E+04</rscale>
<asrwt>0</asrwt>
<pdfrwt beam="1">  1        2 0.66084364E+00 0.23842874E+04</pdfrwt>
<pdfrwt beam="2">  1       -2 0.50901641E-01 0.23842874E+04</pdfrwt>
<totfact> 0.63310159E-01</totfact>
</mgrwt>
</event>
<event>
 4    1  0.2552184E-008  0.2670011E+04  0.7816531E-02  0.8344801E-01
         -2   -1    0    0    0  501 -0.00000000000E+00  0.00000000000E+00  0.80524353328E+03  0.80524353328E+03  0.00000000000E+00 0. -1.
          2   -1    0    0  501    0  0.00000000000E+00 -0.00000000000E+00 -0.22132927630E+04  0.22132927630E+04  0.00000000000E+00 0.  1.
    2000013    1    1    2    0    0 -0.82580767358E+03 -0.30664145771E+03 -0.33987286509E+03  0.13394031737E+04  0.95000000000E+03 0.  0.
   -2000013    1    1    2    0    0  0.82580767358E+03  0.30664145771E+03 -0.10681763646E+04  0.16791331225E+04  0.95000000000E+03 0.  0.
<mgrwt>
<rscale>  0 0.26700110E+04</rscale>
<asrwt>0</asrwt>
<pdfrwt beam="2">  1        2 0.34050658E+00 0.26700110E+04</pdfrwt>
<pdfrwt beam="1">  1       -2 0.12388362E+00 0.26700110E+04</pdfrwt>
<totfact> 0.21888151E+00</totfact>
</mgrwt>
</event>
<event>
 4    1  0.2552184E-008  0.2017065E+04  0.7816531E-02  0.8598684E-01
         -2   -1    0    0    0  501 -0.00000000000E+00  0.00000000000E+00  0.46093049197E+03  0.46093049197E+03  0.00000000000E+00 0. -1.
          2   -1    0    0  501    0  0.00000000000E+00 -0.00000000000E+00 -0.22067043635E+04  0.22067043635E+04  0.00000000000E+00 0.  1.
    2000013    1    1    2    0    0 -0.30413241571E+03 -0.10209624271E+03 -0.10160456372E+04  0.14275044329E+04  0.95000000000E+03 0.  0.
   -2000013    1    1    2    0    0  0.30413241571E+03  0.10209624271E+03 -0.72972823438E+03  0.12401304226E+04  0.95000000000E+03 0.  0.
<mgrwt>
<rscale>  0 0.20170645E+04</rscale>
<asrwt>0</asrwt>
<pdfrwt beam="2">  1        2 0.33949298E+00 0.20170645E+04</pdfrwt>
<pdfrwt beam="1">  1       -2 0.70912384E-01 0.20170645E+04</pdfrwt>
<totfact> 0.85820993E+00</totfact>
</mgrwt>
</event>
<event>
 4    1  0.2552184E-008  0.2246730E+04  0.7816531E-02  0.8499226E-01
          2   -1    0    0  501    0  0.00000000000E+00  0.00000000000E+00  0.22451455616E+04  0.22451455616E+04  0.00000000000E+00 0.  1.
         -2   -1    0    0    0  501 -0.00000000000E+00 -0.00000000000E+00 -0.56207867609E+03  0.56207867609E+03  0.00000000000E+00 0. -1.
    2000013    1    1    2    0    0  0.88740739124E+02 -0.46513933790E+03  0.13009906181E+04  0.16790789471E+04  0.95000000000E+03 0.  0.
   -2000013    1    1    2    0    0 -0.88740739124E+02  0.46513933790E+03  0.38207626745E+03  0.11281452905E+04  0.95000000000E+03 0.  0.
<mgrwt>
<rscale>  0 0.22467296E+04</rscale>
<asrwt>0</asrwt>
<pdfrwt beam="1">  1        2 0.34540700E+00 0.22467296E+04</pdfrwt>
<pdfrwt beam="2">  1       -2 0.86473644E-01 0.22467296E+04</pdfrwt>
<totfact> 0.51365127E+00</totfact>
</mgrwt>
</event>
<event>
 4    1  0.2552184E-008  0.2289963E+04  0.7816531E-02  0.8481889E-01
         -2   -1    0    0    0  501 -0.00000000000E+00  0.00000000000E+00  0.10030468695E+04  0.10030468695E+04  0.00000000000E+00 0. -1.
          2   -1    0    0  501    0  0.00000000000E+00 -0.00000000000E+00 -0.13070000239E+04  0.13070000239E+04  0.00000000000E+00 0.  1.
    2000013    1    1    2    0    0  0.51564680773E+02  0.61370240775E+03 -0.32433387486E+03  0.11777020098E+04  0.95000000000E+03 0.  0.
   -2000013    1    1    2    0    0 -0.51564680773E+02 -0.61370240775E+03  0.20380720517E+02  0.11323448836E+04  0.95000000000E+03 0.  0.
<mgrwt>
<rscale>  0 0.22899627E+04</rscale>
<asrwt>0</asrwt>
<pdfrwt beam="2">  1        2 0.20107693E+00 0.22899627E+04</pdfrwt>
<pdfrwt beam="1">  1       -2 0.15431490E+00 0.22899627E+04</pdfrwt>
<totfact> 0.41285185E+00</totfact>
</mgrwt>
</event>
<event>
 4    1  0.2552184E-008  0.2322947E+04  0.7816531E-02  0.8468928E-01
          2   -1    0    0  501    0  0.00000000000E+00  0.00000000000E+00  0.14185453448E+04  0.14185453448E+04  0.00000000000E+00 0.  1.
         -2   -1    0    0    0  501 -0.00000000000E+00 -0.00000000000E+00 -0.95098885796E+03  0.95098885796E+03  0.00000000000E+00 0. -1.
    2000013    1    1    2    0    0 -0.26938403093E+03 -0.37451048891E+03 -0.25933688763E+03  0.10874656242E+04  0.95000000000E+03 0.  0.
   -2000013    1    1    2    0    0  0.26938403093E+03  0.37451048891E+03  0.72689337447E+03  0.12820685786E+04  0.95000000000E+03 0.  0.
<mgrwt>
<rscale>  0 0.23229471E+04</rscale>
<asrwt>0</asrwt>
<pdfrwt beam="1">  1        2 0.21823775E+00 0.23229471E+04</pdfrwt>
<pdfrwt beam="2">  1       -2 0.14630598E+00 0.23229471E+04</pdfrwt>
<totfact> 0.40903227E+00</totfact>
</mgrwt>
</event>
<event>
 4    1  0.2552184E-008  0.2868695E+04  0.7816531E-02  0.8282253E-01
          2   -1    0    0  501    0  0.00000000000E+00  0.00000000000E+00  0.61767183317E+03  0.61767183317E+03  0.00000000000E+00 0.  1.
         -2   -1    0    0    0  501 -0.00000000000E+00 -0.00000000000E+00 -0.33308177149E+04  0.33308177149E+04  0.00000000000E+00 0. -1.
    2000013    1    1    2    0    0 -0.50257014182E+03 -0.93298496852E+03 -0.16020776329E+04  0.21429396727E+04  0.95000000000E+03 0.  0.
   -2000013    1    1    2    0    0  0.50257014182E+03  0.93298496852E+03 -0.11110682488E+04  0.18055498754E+04  0.95000000000E+03 0.  0.
<mgrwt>
<rscale>  0 0.28686947E+04</rscale>
<asrwt>0</asrwt>
<pdfrwt beam="1">  1        2 0.95026434E-01 0.28686947E+04</pdfrwt>
<pdfrwt beam="2">  1       -2 0.51243351E+00 0.28686947E+04</pdfrwt>
<totfact> 0.57117380E-02</totfact>
</mgrwt>
</event>
<event>
 4    1  0.2552184E-008  0.2342571E+04  0.7816531E-02  0.8461323E-01
          2   -1    0    0  501    0  0.00000000000E+00  0.00000000000E+00  0.17946601975E+04  0.17946601975E+04  0.00000000000E+00 0.  1.
         -2   -1    0    0    0  501 -0.00000000000E+00 -0.00000000000E+00 -0.76443991235E+03  0.76443991235E+03  0.00000000000E+00 0. -1.
    2000013    1    1    2    0    0 -0.56791898080E+03  0.38003701616E+03  0.56918036781E+03  0.13013171764E+04  0.95000000000E+03 0.  0.
   -2000013    1    1    2    0    0  0.56791898080E+03 -0.38003701616E+03  0.46103991736E+03  0.12577829335E+04  0.95000000000E+03 0.  0.
<mgrwt>
<rscale>  0 0.23425711E+04</rscale>
<asrwt>0</asrwt>
<pdfrwt beam="1">  1        2 0.27610157E+00 0.23425711E+04</pdfrwt>
<pdfrwt beam="2">  1       -2 0.11760614E+00 0.23425711E+04</pdfrwt>
<totfact> 0.43814360E+00</totfact>
</mgrwt>
</event>
<event>
 4    1  0.2552184E-008  0.2087058E+04  0.7816531E-02  0.8566966E-01
         -2   -1    0    0    0  501 -0.00000000000E+00  0.00000000000E+00  0.58637657349E+03  0.58637657349E+03  0.00000000000E+00 0. -1.
          2   -1    0    0  501    0  0.00000000000E+00 -0.00000000000E+00 -0.18570871297E+04  0.18570871297E+04  0.00000000000E+00 0.  1.
    2000013    1    1    2    0    0  0.32237741530E+03 -0.16129762984E+02 -0.29955654274E+03  0.10471014705E+04  0.95000000000E+03 0.  0.
   -2000013    1    1    2    0    0 -0.32237741530E+03  0.16129762984E+02 -0.97115401350E+03  0.13963622328E+04  0.95000000000E+03 0.  0.
<mgrwt>
<rscale>  0 0.20870576E+04</rscale>
<asrwt>0</asrwt>
<pdfrwt beam="2">  1        2 0.28570570E+00 0.20870576E+04</pdfrwt>
<pdfrwt beam="1">  1       -2 0.90211784E-01 0.20870576E+04</pdfrwt>
<totfact> 0.77777579E+00</totfact>
</mgrwt>
</event>
<event>
 4    1  0.2552184E-008  0.3770049E+04  0.7816531E-02  0.8052613E-01
         -2   -1    0    0    0  501 -0.00000000000E+00  0.00000000000E+00  0.23037504469E+04  0.23037504469E+04  0.00000000000E+00 0. -1.
          2   -1    0    0  501    0  0.00000000000E+00 -0.00000000000E+00 -0.15424054056E+04  0.15424054056E+04  0.00000000000E+00 0.  1.
    2000013    1    1    2    0    0  0.11656253378E+04 -0.11283308391E+04  0.52131128931E+03  0.19509173153E+04  0.95000000000E+03 0.  0.
   -2000013    1    1    2    0    0 -0.11656253378E+04  0.11283308391E+04  0.24003375199E+03  0.18952385372E+04  0.95000000000E+03 0.  0.
<mgrwt>
<rscale>  0 0.37700489E+04</rscale>
<asrwt>0</asrwt>
<pdfrwt beam="2">  1        2 0.23729314E+00 0.37700489E+04</pdfrwt>
<pdfrwt beam="1">  1       -2 0.35442315E+00 0.37700489E+04</pdfrwt>
<totfact> 0.14081823E-01</totfact>
</mgrwt>
</event>
<event>
 4    1  0.2552184E-008  0.2150169E+04  0.7816531E-02  0.8539460E-01
          1   -1    0    0  501    0  0.00000000000E+00  0.00000000000E+00  0.12971020565E+04  0.12971020565E+04  0.00000000000E+00 0.  1.
         -1   -1    0    0    0  501 -0.00000000000E+00 -0.00000000000E+00 -0.89106813813E+03  0.89106813813E+03  0.00000000000E+00 0. -1.
    2000013    1    1    2    0    0  0.40406416912E+02  0.49542096296E+03  0.28335329655E+03  0.11089922000E+04  0.95000000000E+03 0.  0.
   -2000013    1    1    2    0    0 -0.40406416912E+02 -0.49542096296E+03  0.12268062184E+03  0.10791779946E+04  0.95000000000E+03 0.  0.
<mgrwt>
<rscale>  0 0.21501687E+04</rscale>
<asrwt>0</asrwt>
<pdfrwt beam="1">  1        1 0.19955416E+00 0.21501687E+04</pdfrwt>
<pdfrwt beam="2">  1       -1 0.13708741E+00 0.21501687E+04</pdfrwt>
<totfact> 0.36853393E+00</totfact>
</mgrwt>
</event>
<event>
 4    1  0.2552184E-008  0.2123432E+04  0.7816531E-02  0.8550991E-01
         -2   -1    0    0    0  501 -0.00000000000E+00  0.00000000000E+00  0.56222426870E+03  0.56222426870E+03  0.00000000000E+00 0. -1.
          2   -1    0    0  501    0  0.00000000000E+00 -0.00000000000E+00 -0.20049660765E+04  0.20049660765E+04  0.00000000000E+00 0.  1.
    2000013    1    1    2    0    0 -0.22494606459E+03 -0.14236099060E+03 -0.24712753955E+03  0.10170739425E+04  0.95000000000E+03 0.  0.
   -2000013    1    1    2    0    0  0.22494606459E+03  0.14236099060E+03 -0.11956142683E+04  0.15501164028E+04  0.95000000000E+03 0.  0.
<mgrwt>
<rscale>  0 0.21234317E+04</rscale>
<asrwt>0</asrwt>
<pdfrwt beam="2">  1        2 0.30845632E+00 0.21234317E+04</pdfrwt>
<pdfrwt beam="1">  1       -2 0.86496040E-01 0.21234317E+04</pdfrwt>
<totfact> 0.70694702E+00</totfact>
</mgrwt>
</event>
<event>
 4    1  0.2552184E-008  0.2606582E+04  0.7816531E-02  0.8365969E-01
         -2   -1    0    0    0  501 -0.00000000000E+00  0.00000000000E+00  0.74184808069E+03  0.74184808069E+03  0.00000000000E+00 0. -1.
          2   -1    0    0  501    0  0.00000000000E+00 -0.00000000000E+00 -0.22896434198E+04  0.22896434198E+04  0.00000000000E+00 0.  1.
    2000013    1    1    2    0    0 -0.67402211410E+03  0.51026323043E+03 -0.44209566088E+03  0.13463368627E+04  0.95000000000E+03 0.  0.
   -2000013    1    1    2    0    0  0.67402211410E+03 -0.51026323043E+03 -0.11056996782E+04  0.16851546377E+04  0.95000000000E+03 0.  0.
<mgrwt>
<rscale>  0 0.26065821E+04</rscale>
<asrwt>0</asrwt>
<pdfrwt beam="2">  1        2 0.35225284E+00 0.26065821E+04</pdfrwt>
<pdfrwt beam="1">  1       -2 0.11413047E+00 0.26065821E+04</pdfrwt>
<totfact> 0.24400156E+00</totfact>
</mgrwt>
</event>
<event>
 4    1  0.2552184E-008  0.2204236E+04  0.7816531E-02  0.8516667E-01
          2   -1    0    0  501    0  0.00000000000E+00  0.00000000000E+00  0.18008114049E+04  0.18008114049E+04  0.00000000000E+00 0.  1.
         -2   -1    0    0    0  501 -0.00000000000E+00 -0.00000000000E+00 -0.67450946412E+03  0.67450946412E+03  0.00000000000E+00 0. -1.
    2000013    1    1    2    0    0 -0.49276946974E+03  0.19075882401E+03  0.35929418457E+03  0.11449030484E+04  0.95000000000E+03 0.  0.
   -2000013    1    1    2    0    0  0.49276946974E+03 -0.19075882401E+03  0.76700775620E+03  0.13304178206E+04  0.95000000000E+03 0.  0.
<mgrwt>
<rscale>  0 0.22042362E+04</rscale>
<asrwt>0</asrwt>
<pdfrwt beam="1">  1        2 0.27704791E+00 0.22042362E+04</pdfrwt>
<pdfrwt beam="2">  1       -2 0.10377069E+00 0.22042362E+04</pdfrwt>
<totfact> 0.59557061E+00</totfact>
</mgrwt>
</event>
<event>
 4    1  0.2552184E-008  0.2314413E+04  0.7816531E-02  0.8472260E-01
          2   -1    0    0  501    0  0.00000000000E+00  0.00000000000E+00  0.92461431606E+03  0.92461431606E+03  0.00000000000E+00 0.  1.
         -2   -1    0    0    0  501 -0.00000000000E+00 -0.00000000000E+00 -0.14483092072E+04  0.14483092072E+04  0.00000000000E+00 0. -1.
    2000013    1    1    2    0    0 -0.22889931530E+03 -0.45274120062E+03 -0.69593965221E+03  0.12822642048E+04  0.95000000000E+03 0.  0.
   -2000013    1    1    2    0    0  0.22889931530E+03  0.45274120062E+03  0.17224476108E+03  0.10906593185E+04  0.95000000000E+03 0.  0.
<mgrwt>
<rscale>  0 0.23144135E+04</rscale>
<asrwt>0</asrwt>
<pdfrwt beam="1">  1        2 0.14224836E+00 0.23144135E+04</pdfrwt>
<pdfrwt beam="2">  1       -2 0.22281680E+00 0.23144135E+04</pdfrwt>
<totfact> 0.24238747E+00</totfact>
</mgrwt>
</event>
<event>
 4    1  0.2552184E-008  0.2670994E+04  0.7816531E-02  0.8344478E-01
         -2   -1    0    0    0  501 -0.00000000000E+00  0.00000000000E+00  0.74116419420E+03  0.74116419420E+03  0.00000000000E+00 0. -1.
          2   -1    0    0  501    0  0.00000000000E+00 -0.00000000000E+00 -0.24064196430E+04  0.24064196430E+04  0.00000000000E+00 0.  1.
    2000013    1    1    2    0    0  0.95363100321E+02  0.88498455885E+03 -0.48154152499E+03  0.13880468402E+04  0.95000000000E+03 0.  0.
   -2000013    1    1    2    0    0 -0.95363100321E+02 -0.88498455885E+03 -0.11837139238E+04  0.17595369970E+04  0.95000000000E+03 0.  0.
<mgrwt>
<rscale>  0 0.26709939E+04</rscale>
<asrwt>0</asrwt>
<pdfrwt beam="2">  1        2 0.37021841E+00 0.26709939E+04</pdfrwt>
<pdfrwt beam="1">  1       -2 0.11402526E+00 0.26709939E+04</pdfrwt>
<totfact> 0.20865246E+00</totfact>
</mgrwt>
</event>
<event>
 4    1  0.2552184E-008  0.2348974E+04  0.7816531E-02  0.8458858E-01
         -2   -1    0    0    0  501 -0.00000000000E+00  0.00000000000E+00  0.11485443622E+04  0.11485443622E+04  0.00000000000E+00 0. -1.
          2   -1    0    0  501    0  0.00000000000E+00 -0.00000000000E+00 -0.12010151521E+04  0.12010151521E+04  0.00000000000E+00 0.  1.
    2000013    1    1    2    0    0  0.54914870587E+03 -0.35264820291E+03  0.19963972669E+03  0.11697354729E+04  0.95000000000E+03 0.  0.
   -2000013    1    1    2    0    0 -0.54914870587E+03  0.35264820291E+03 -0.25211051658E+03  0.11798240414E+04  0.95000000000E+03 0.  0.
<mgrwt>
<rscale>  0 0.23489735E+04</rscale>
<asrwt>0</asrwt>
<pdfrwt beam="2">  1        2 0.18477156E+00 0.23489735E+04</pdfrwt>
<pdfrwt beam="1">  1       -2 0.17669913E+00 0.23489735E+04</pdfrwt>
<totfact> 0.32650552E+00</totfact>
</mgrwt>
</event>
<event>
 4    1  0.2552184E-008  0.3395403E+04  0.7816531E-02  0.8139035E-01
          2   -1    0    0  501    0  0.00000000000E+00  0.00000000000E+00  0.13675467064E+04  0.13675467064E+04  0.00000000000E+00 0. -1.
         -2   -1    0    0    0  501 -0.00000000000E+00 -0.00000000000E+00 -0.21075627886E+04  0.21075627886E+04  0.00000000000E+00 0.  1.
    2000013    1    1    2    0    0 -0.74418462934E+03  0.45162303127E+03 -0.15013604445E+04  0.19784734795E+04  0.95000000000E+03 0.  0.
   -2000013    1    1    2    0    0  0.74418462934E+03 -0.45162303127E+03  0.76134436220E+03  0.14966360155E+04  0.95000000000E+03 0.  0.
<mgrwt>
<rscale>  0 0.33954031E+04</rscale>
<asrwt>0</asrwt>
<pdfrwt beam="1">  1        2 0.21039180E+00 0.33954031E+04</pdfrwt>
<pdfrwt beam="2">  1       -2 0.32424043E+00 0.33954031E+04</pdfrwt>
<totfact> 0.28210171E-01</totfact>
</mgrwt>
</event>
<event>
 4    1  0.2552184E-008  0.2625194E+04  0.7816531E-02  0.8359693E-01
          2   -1    0    0  501    0  0.00000000000E+00  0.00000000000E+00  0.13735536314E+04  0.13735536314E+04  0.00000000000E+00 0.  1.
         -2   -1    0    0    0  501 -0.00000000000E+00 -0.00000000000E+00 -0.12543456995E+04  0.12543456995E+04  0.00000000000E+00 0. -1.
    2000013    1    1    2    0    0 -0.55209146190E+03 -0.71614769394E+03  0.72185129159E+01  0.13115733334E+04  0.95000000000E+03 0.  0.
   -2000013    1    1    2    0    0  0.55209146190E+03  0.71614769394E+03  0.11198941892E+03  0.13163259975E+04  0.95000000000E+03 0.  0.
<mgrwt>
<rscale>  0 0.26251942E+04</rscale>
<asrwt>0</asrwt>
<pdfrwt beam="1">  1        2 0.21131594E+00 0.26251942E+04</pdfrwt>
<pdfrwt beam="2">  1       -2 0.19297626E+00 0.26251942E+04</pdfrwt>
<totfact> 0.19585608E+00</totfact>
</mgrwt>
</event>
<event>
 4    1  0.2552184E-008  0.2215907E+04  0.7816531E-02  0.8511836E-01
         -1   -1    0    0    0  501 -0.00000000000E+00  0.00000000000E+00  0.13266673518E+04  0.13266673518E+04  0.00000000000E+00 0.  1.
          1   -1    0    0  501    0  0.00000000000E+00 -0.00000000000E+00 -0.92529662613E+03  0.92529662613E+03  0.00000000000E+00 0. -1.
    2000013    1    1    2    0    0  0.29672485927E+02  0.32469562059E+03 -0.27463570446E+03  0.10412648427E+04  0.95000000000E+03 0.  0.
   -2000013    1    1    2    0    0 -0.29672485927E+02 -0.32469562059E+03  0.67600643010E+03  0.12106991352E+04  0.95000000000E+03 0.  0.
<mgrwt>
<rscale>  0 0.22159069E+04</rscale>
<asrwt>0</asrwt>
<pdfrwt beam="2">  1        1 0.14235333E+00 0.22159069E+04</pdfrwt>
<pdfrwt beam="1">  1       -1 0.20410267E+00 0.22159069E+04</pdfrwt>
<totfact> 0.22279802E+00</totfact>
</mgrwt>
</event>
<event>
 4    1  0.2552184E-008  0.2299644E+04  0.7816531E-02  0.8478061E-01
          2   -1    0    0  501    0  0.00000000000E+00  0.00000000000E+00  0.31027011874E+03  0.31027011874E+03  0.00000000000E+00 0.  1.
         -2   -1    0    0    0  501 -0.00000000000E+00 -0.00000000000E+00 -0.42610966591E+04  0.42610966591E+04  0.00000000000E+00 0. -1.
    2000013    1    1    2    0    0  0.33180960285E+03  0.54260956604E+03 -0.17313984105E+04  0.20747923293E+04  0.95000000000E+03 0.  0.
   -2000013    1    1    2    0    0 -0.33180960285E+03 -0.54260956604E+03 -0.22194281299E+04  0.24965744486E+04  0.95000000000E+03 0.  0.
<mgrwt>
<rscale>  0 0.22996443E+04</rscale>
<asrwt>0</asrwt>
<pdfrwt beam="1">  1        2 0.47733867E-01 0.22996443E+04</pdfrwt>
<pdfrwt beam="2">  1       -2 0.65555330E+00 0.22996443E+04</pdfrwt>
<totfact> 0.30345545E-02</totfact>
</mgrwt>
</event>
<event>
 4    1  0.2552184E-008  0.2513090E+04  0.7816531E-02  0.8398337E-01
          2   -1    0    0  501    0  0.00000000000E+00  0.00000000000E+00  0.12178563393E+04  0.12178563393E+04  0.00000000000E+00 0.  1.
         -2   -1    0    0    0  501 -0.00000000000E+00 -0.00000000000E+00 -0.12964624906E+04  0.12964624906E+04  0.00000000000E+00 0. -1.
    2000013    1    1    2    0    0 -0.51465981256E+03 -0.62275166365E+02  0.59948560059E+03  0.12371887101E+04  0.95000000000E+03 0.  0.
   -2000013    1    1    2    0    0  0.51465981256E+03  0.62275166365E+02 -0.67809175188E+03  0.12771301198E+04  0.95000000000E+03 0.  0.
<mgrwt>
<rscale>  0 0.25130898E+04</rscale>
<asrwt>0</asrwt>
<pdfrwt beam="1">  1        2 0.18736251E+00 0.25130898E+04</pdfrwt>
<pdfrwt beam="2">  1       -2 0.19945577E+00 0.25130898E+04</pdfrwt>
<totfact> 0.22080014E+00</totfact>
</mgrwt>
</event>
<event>
 4    1  0.2552184E-008  0.3648694E+04  0.7816531E-02  0.8079428E-01
         -2   -1    0    0    0  501 -0.00000000000E+00  0.00000000000E+00  0.83584631661E+03  0.83584631661E+03  0.00000000000E+00 0. -1.
          2   -1    0    0  501    0  0.00000000000E+00 -0.00000000000E+00 -0.39818828058E+04  0.39818828058E+04  0.00000000000E+00 0.  1.
    2000013    1    1    2    0    0 -0.38921866888E+03 -0.14631835016E+04 -0.10908559926E+04  0.20940066686E+04  0.95000000000E+03 0.  0.
   -2000013    1    1    2    0    0  0.38921866888E+03  0.14631835016E+04 -0.20551804966E+04  0.27237224538E+04  0.95000000000E+03 0.  0.
<mgrwt>
<rscale>  0 0.36486941E+04</rscale>
<asrwt>0</asrwt>
<pdfrwt beam="2">  1        2 0.61259736E+00 0.36486941E+04</pdfrwt>
<pdfrwt beam="1">  1       -2 0.12859174E+00 0.36486941E+04</pdfrwt>
<totfact> 0.12785938E-01</totfact>
</mgrwt>
</event>
<event>
 4    1  0.2552184E-008  0.2818736E+04  0.7816531E-02  0.8297475E-01
          2   -1    0    0  501    0  0.00000000000E+00  0.00000000000E+00  0.17671645417E+04  0.17671645417E+04  0.00000000000E+00 0.  1.
         -2   -1    0    0    0  501 -0.00000000000E+00 -0.00000000000E+00 -0.11240141972E+04  0.11240141972E+04  0.00000000000E+00 0. -1.
    2000013    1    1    2    0    0  0.31692781029E+03 -0.77125675258E+03  0.96092301146E+03  0.15878139845E+04  0.95000000000E+03 0.  0.
   -2000013    1    1    2    0    0 -0.31692781029E+03  0.77125675258E+03 -0.31777266700E+03  0.13033647545E+04  0.95000000000E+03 0.  0.
<mgrwt>
<rscale>  0 0.28187359E+04</rscale>
<asrwt>0</asrwt>
<pdfrwt beam="1">  1        2 0.27187147E+00 0.28187359E+04</pdfrwt>
<pdfrwt beam="2">  1       -2 0.17292526E+00 0.28187359E+04</pdfrwt>
<totfact> 0.15889462E+00</totfact>
</mgrwt>
</event>
<event>
 4    1  0.2552184E-008  0.3300008E+04  0.7816531E-02  0.8162893E-01
          1   -1    0    0  501    0  0.00000000000E+00  0.00000000000E+00  0.22802496005E+04  0.22802496005E+04  0.00000000000E+00 0.  1.
         -1   -1    0    0    0  501 -0.00000000000E+00 -0.00000000000E+00 -0.11939539487E+04  0.11939539487E+04  0.00000000000E+00 0. -1.
    2000013    1    1    2    0    0  0.28192691312E+03 -0.79783848525E+03  0.16493172955E+04  0.20829730133E+04  0.95000000000E+03 0.  0.
   -2000013    1    1    2    0    0 -0.28192691312E+03  0.79783848525E+03 -0.56302164367E+03  0.13912305359E+04  0.95000000000E+03 0.  0.
<mgrwt>
<rscale>  0 0.33000079E+04</rscale>
<asrwt>0</asrwt>
<pdfrwt beam="1">  1        1 0.35080763E+00 0.33000079E+04</pdfrwt>
<pdfrwt beam="2">  1       -1 0.18368522E+00 0.33000079E+04</pdfrwt>
<totfact> 0.31194036E-01</totfact>
</mgrwt>
</event>
<event>
 4    1  0.2552184E-008  0.2765481E+04  0.7816531E-02  0.8314066E-01
          2   -1    0    0  501    0  0.00000000000E+00  0.00000000000E+00  0.13465404037E+04  0.13465404037E+04  0.00000000000E+00 0.  1.
         -2   -1    0    0    0  501 -0.00000000000E+00 -0.00000000000E+00 -0.14199132786E+04  0.14199132786E+04  0.00000000000E+00 0. -1.
    2000013    1    1    2    0    0  0.49500602574E+03 -0.68227922499E+03  0.51025517026E+03  0.13687206600E+04  0.95000000000E+03 0.  0.
   -2000013    1    1    2    0    0 -0.49500602574E+03  0.68227922499E+03 -0.58362804513E+03  0.13977330222E+04  0.95000000000E+03 0.  0.
<mgrwt>
<rscale>  0 0.27654805E+04</rscale>
<asrwt>0</asrwt>
<pdfrwt beam="1">  1        2 0.20716006E+00 0.27654805E+04</pdfrwt>
<pdfrwt beam="2">  1       -2 0.21844820E+00 0.27654805E+04</pdfrwt>
<totfact> 0.13704614E+00</totfact>
</mgrwt>
</event>
<event>
 4    1  0.2552184E-008  0.2163432E+04  0.7816531E-02  0.8533805E-01
          1   -1    0    0  501    0  0.00000000000E+00  0.00000000000E+00  0.10325534937E+04  0.10325534937E+04  0.00000000000E+00 0.  1.
         -1   -1    0    0    0  501 -0.00000000000E+00 -0.00000000000E+00 -0.11332187580E+04  0.11332187580E+04  0.00000000000E+00 0. -1.
    2000013    1    1    2    0    0  0.28880462886E+03 -0.41352435035E+03  0.64676330071E+02  0.10775405002E+04  0.95000000000E+03 0.  0.
   -2000013    1    1    2    0    0 -0.28880462886E+03  0.41352435035E+03 -0.16534159435E+03  0.10882317514E+04  0.95000000000E+03 0.  0.
<mgrwt>
<rscale>  0 0.21634315E+04</rscale>
<asrwt>0</asrwt>
<pdfrwt beam="1">  1        1 0.15885438E+00 0.21634315E+04</pdfrwt>
<pdfrwt beam="2">  1       -1 0.17434135E+00 0.21634315E+04</pdfrwt>
<totfact> 0.29859035E+00</totfact>
</mgrwt>
</event>
<event>
 4    1  0.2552184E-008  0.2975605E+04  0.7816531E-02  0.8250732E-01
         -2   -1    0    0    0  501 -0.00000000000E+00  0.00000000000E+00  0.17316201290E+04  0.17316201290E+04  0.00000000000E+00 0. -1.
          2   -1    0    0  501    0  0.00000000000E+00 -0.00000000000E+00 -0.12783151043E+04  0.12783151043E+04  0.00000000000E+00 0.  1.
    2000013    1    1    2    0    0 -0.88073553381E+03  0.65203165461E+03 -0.10916537418E+03  0.14543924636E+04  0.95000000000E+03 0.  0.
   -2000013    1    1    2    0    0  0.88073553381E+03 -0.65203165461E+03  0.56247039886E+03  0.15555427698E+04  0.95000000000E+03 0.  0.
<mgrwt>
<rscale>  0 0.29756049E+04</rscale>
<asrwt>0</asrwt>
<pdfrwt beam="2">  1        2 0.19666386E+00 0.29756049E+04</pdfrwt>
<pdfrwt beam="1">  1       -2 0.26640310E+00 0.29756049E+04</pdfrwt>
<totfact> 0.74434530E-01</totfact>
</mgrwt>
</event>
<event>
 4    1  0.2552184E-008  0.2249195E+04  0.7816531E-02  0.8498227E-01
         -2   -1    0    0    0  501 -0.00000000000E+00  0.00000000000E+00  0.64259346272E+03  0.64259346272E+03  0.00000000000E+00 0. -1.
          2   -1    0    0  501    0  0.00000000000E+00 -0.00000000000E+00 -0.19681484955E+04  0.19681484955E+04  0.00000000000E+00 0.  1.
    2000013    1    1    2    0    0  0.11568379061E+03 -0.43948964236E+03 -0.20478232957E+03  0.10728325534E+04  0.95000000000E+03 0.  0.
   -2000013    1    1    2    0    0 -0.11568379061E+03  0.43948964236E+03 -0.11207727032E+04  0.15379094048E+04  0.95000000000E+03 0.  0.
<mgrwt>
<rscale>  0 0.22491948E+04</rscale>
<asrwt>0</asrwt>
<pdfrwt beam="2">  1        2 0.30279207E+00 0.22491948E+04</pdfrwt>
<pdfrwt beam="1">  1       -2 0.98860534E-01 0.22491948E+04</pdfrwt>
<totfact> 0.53768689E+00</totfact>
</mgrwt>
</event>
<event>
 4    1  0.2552184E-008  0.2462831E+04  0.7816531E-02  0.8416348E-01
         -4   -1    0    0    0  501 -0.00000000000E+00  0.00000000000E+00  0.60759311807E+03  0.60759311807E+03  0.00000000000E+00 0. -1.
          4   -1    0    0  501    0  0.00000000000E+00 -0.00000000000E+00 -0.24957223128E+04  0.24957223128E+04  0.00000000000E+00 0.  1.
    2000013    1    1    2    0    0 -0.78003226294E+03 -0.71349225661E+02 -0.92073956681E+03  0.15374662250E+04  0.95000000000E+03 0.  0.
   -2000013    1    1    2    0    0  0.78003226294E+03  0.71349225661E+02 -0.96738962794E+03  0.15658492059E+04  0.95000000000E+03 0.  0.
<mgrwt>
<rscale>  0 0.24628306E+04</rscale>
<asrwt>0</asrwt>
<pdfrwt beam="2">  1        4 0.38395728E+00 0.24628306E+04</pdfrwt>
<pdfrwt beam="1">  1       -4 0.93475865E-01 0.24628306E+04</pdfrwt>
<totfact> 0.15222898E-02</totfact>
</mgrwt>
</event>
<event>
 4    1  0.2552184E-008  0.2020408E+04  0.7816531E-02  0.8597138E-01
         -1   -1    0    0    0  501 -0.00000000000E+00  0.00000000000E+00  0.40756838791E+03  0.40756838791E+03  0.00000000000E+00 0. -1.
          1   -1    0    0  501    0  0.00000000000E+00 -0.00000000000E+00 -0.25039035849E+04  0.25039035849E+04  0.00000000000E+00 0.  1.
    2000013    1    1    2    0    0  0.12287736024E+03  0.22865183017E+03 -0.13724203885E+04  0.16892063899E+04  0.95000000000E+03 0.  0.
   -2000013    1    1    2    0    0 -0.12287736024E+03 -0.22865183017E+03 -0.72391480854E+03  0.12222655829E+04  0.95000000000E+03 0.  0.
<mgrwt>
<rscale>  0 0.20204078E+04</rscale>
<asrwt>0</asrwt>
<pdfrwt beam="2">  1        1 0.38521594E+00 0.20204078E+04</pdfrwt>
<pdfrwt beam="1">  1       -1 0.62702828E-01 0.20204078E+04</pdfrwt>
<totfact> 0.32176631E+00</totfact>
</mgrwt>
</event>
<event>
 4    1  0.2552184E-008  0.3440067E+04  0.7816531E-02  0.8128142E-01
          2   -1    0    0  501    0  0.00000000000E+00  0.00000000000E+00  0.25157104202E+04  0.25157104202E+04  0.00000000000E+00 0.  1.
         -2   -1    0    0    0  501 -0.00000000000E+00 -0.00000000000E+00 -0.11760155872E+04  0.11760155872E+04  0.00000000000E+00 0. -1.
    2000013    1    1    2    0    0  0.11230542081E+04 -0.82042395080E+03  0.10441747980E+04  0.19817031115E+04  0.95000000000E+03 0.  0.
   -2000013    1    1    2    0    0 -0.11230542081E+04  0.82042395080E+03  0.29552003505E+03  0.17100228959E+04  0.95000000000E+03 0.  0.
<mgrwt>
<rscale>  0 0.34400667E+04</rscale>
<asrwt>0</asrwt>
<pdfrwt beam="1">  1        2 0.38703237E+00 0.34400667E+04</pdfrwt>
<pdfrwt beam="2">  1       -2 0.18092548E+00 0.34400667E+04</pdfrwt>
<totfact> 0.50286102E-01</totfact>
</mgrwt>
</event>
<event>
 4    1  0.2552184E-008  0.2206165E+04  0.7816531E-02  0.8515867E-01
          1   -1    0    0  501    0  0.00000000000E+00  0.00000000000E+00  0.11893758800E+04  0.11893758800E+04  0.00000000000E+00 0.  1.
         -1   -1    0    0    0  501 -0.00000000000E+00 -0.00000000000E+00 -0.10230498797E+04  0.10230498797E+04  0.00000000000E+00 0. -1.
    2000013    1    1    2    0    0  0.26570269503E+02  0.55982820861E+03  0.96514255513E+02  0.11072166021E+04  0.95000000000E+03 0.  0.
   -2000013    1    1    2    0    0 -0.26570269503E+02 -0.55982820861E+03  0.69811744824E+02  0.11052091576E+04  0.95000000000E+03 0.  0.
<mgrwt>
<rscale>  0 0.22061649E+04</rscale>
<asrwt>0</asrwt>
<pdfrwt beam="1">  1        1 0.18298090E+00 0.22061649E+04</pdfrwt>
<pdfrwt beam="2">  1       -1 0.15739229E+00 0.22061649E+04</pdfrwt>
<totfact> 0.30328808E+00</totfact>
</mgrwt>
</event>
<event>
 4    1  0.2552184E-008  0.2298907E+04  0.7816531E-02  0.8478352E-01
         -2   -1    0    0    0  501 -0.00000000000E+00  0.00000000000E+00  0.69439321894E+03  0.69439321894E+03  0.00000000000E+00 0. -1.
          2   -1    0    0  501    0  0.00000000000E+00 -0.00000000000E+00 -0.19027303700E+04  0.19027303700E+04  0.00000000000E+00 0.  1.
    2000013    1    1    2    0    0  0.78756637984E+02 -0.56486585169E+03 -0.25878595741E+03  0.11378691534E+04  0.95000000000E+03 0.  0.
   -2000013    1    1    2    0    0 -0.78756637984E+02  0.56486585169E+03 -0.94955119369E+03  0.14592544356E+04  0.95000000000E+03 0.  0.
<mgrwt>
<rscale>  0 0.22989068E+04</rscale>
<asrwt>0</asrwt>
<pdfrwt beam="2">  1        2 0.29272775E+00 0.22989068E+04</pdfrwt>
<pdfrwt beam="1">  1       -2 0.10682973E+00 0.22989068E+04</pdfrwt>
<totfact> 0.48379286E+00</totfact>
</mgrwt>
</event>
<event>
 4    1  0.2552184E-008  0.3158991E+04  0.7816531E-02  0.8199732E-01
         -2   -1    0    0    0  501 -0.00000000000E+00  0.00000000000E+00  0.12244180994E+04  0.12244180994E+04  0.00000000000E+00 0. -1.
          2   -1    0    0  501    0  0.00000000000E+00 -0.00000000000E+00 -0.20375442703E+04  0.20375442703E+04  0.00000000000E+00 0.  1.
    2000013    1    1    2    0    0  0.36280921268E+03  0.43038485413E+03  0.75960546633E+03  0.13402843400E+04  0.95000000000E+03 0.  0.
   -2000013    1    1    2    0    0 -0.36280921268E+03 -0.43038485413E+03 -0.15727316372E+04  0.19216780298E+04  0.95000000000E+03 0.  0.
<mgrwt>
<rscale>  0 0.31589910E+04</rscale>
<asrwt>0</asrwt>
<pdfrwt beam="2">  1        2 0.31346835E+00 0.31589910E+04</pdfrwt>
<pdfrwt beam="1">  1       -2 0.18837202E+00 0.31589910E+04</pdfrwt>
<totfact> 0.85521215E-01</totfact>
</mgrwt>
</event>
<event>
 4    1  0.2552184E-008  0.2198472E+04  0.7816531E-02  0.8519064E-01
         -1   -1    0    0    0  501 -0.00000000000E+00  0.00000000000E+00  0.61535858579E+03  0.61535858579E+03  0.00000000000E+00 0. -1.
          1   -1    0    0  501    0  0.00000000000E+00 -0.00000000000E+00 -0.19636027801E+04  0.19636027801E+04  0.00000000000E+00 0.  1.
    2000013    1    1    2    0    0  0.31355147322E+02  0.36701438368E+03 -0.19025795795E+03  0.10365234168E+04  0.95000000000E+03 0.  0.
   -2000013    1    1    2    0    0 -0.31355147322E+02 -0.36701438368E+03 -0.11579862364E+04  0.15424379491E+04  0.95000000000E+03 0.  0.
<mgrwt>
<rscale>  0 0.21984720E+04</rscale>
<asrwt>0</asrwt>
<pdfrwt beam="2">  1        1 0.30209273E+00 0.21984720E+04</pdfrwt>
<pdfrwt beam="1">  1       -1 0.94670552E-01 0.21984720E+04</pdfrwt>
<totfact> 0.31035047E+00</totfact>
</mgrwt>
</event>
<event>
 4    1  0.2552184E-008  0.2881509E+04  0.7816531E-02  0.8278400E-01
          2   -1    0    0  501    0  0.00000000000E+00  0.00000000000E+00  0.12186570752E+04  0.12186570752E+04  0.00000000000E+00 0.  1.
         -2   -1    0    0    0  501 -0.00000000000E+00 -0.00000000000E+00 -0.17033287930E+04  0.17033287930E+04  0.00000000000E+00 0. -1.
    2000013    1    1    2    0    0  0.94578856303E+03 -0.30349494077E+03 -0.68043294693E+03  0.15336603862E+04  0.95000000000E+03 0.  0.
   -2000013    1    1    2    0    0 -0.94578856303E+03  0.30349494077E+03  0.19576122912E+03  0.13883254820E+04  0.95000000000E+03 0.  0.
<mgrwt>
<rscale>  0 0.28815091E+04</rscale>
<asrwt>0</asrwt>
<pdfrwt beam="1">  1        2 0.18748570E+00 0.28815091E+04</pdfrwt>
<pdfrwt beam="2">  1       -2 0.26205058E+00 0.28815091E+04</pdfrwt>
<totfact> 0.86493976E-01</totfact>
</mgrwt>
</event>
<event>
 4    1  0.2552184E-008  0.2251558E+04  0.7816531E-02  0.8497270E-01
         -2   -1    0    0    0  501 -0.00000000000E+00  0.00000000000E+00  0.80911461479E+03  0.80911461479E+03  0.00000000000E+00 0. -1.
          2   -1    0    0  501    0  0.00000000000E+00 -0.00000000000E+00 -0.15663771394E+04  0.15663771394E+04  0.00000000000E+00 0.  1.
    2000013    1    1    2    0    0 -0.37816796906E+03  0.44745678386E+02 -0.87333914716E+03  0.13454495362E+04  0.95000000000E+03 0.  0.
   -2000013    1    1    2    0    0  0.37816796906E+03 -0.44745678386E+02  0.11607662252E+03  0.10300422180E+04  0.95000000000E+03 0.  0.
<mgrwt>
<rscale>  0 0.22515582E+04</rscale>
<asrwt>0</asrwt>
<pdfrwt beam="2">  1        2 0.24098110E+00 0.22515582E+04</pdfrwt>
<pdfrwt beam="1">  1       -2 0.12447917E+00 0.22515582E+04</pdfrwt>
<totfact> 0.51372740E+00</totfact>
</mgrwt>
</event>
<event>
 4    1  0.2552184E-008  0.2093119E+04  0.7816531E-02  0.8564281E-01
         -2   -1    0    0    0  501 -0.00000000000E+00  0.00000000000E+00  0.39188168396E+03  0.39188168396E+03  0.00000000000E+00 0. -1.
          2   -1    0    0  501    0  0.00000000000E+00 -0.00000000000E+00 -0.27949427395E+04  0.27949427395E+04  0.00000000000E+00 0.  1.
    2000013    1    1    2    0    0 -0.27054153145E+03 -0.30655403712E+03 -0.95783737118E+03  0.14096526266E+04  0.95000000000E+03 0.  0.
   -2000013    1    1    2    0    0  0.27054153145E+03  0.30655403712E+03 -0.14452236844E+04  0.17771717969E+04  0.95000000000E+03 0.  0.
<mgrwt>
<rscale>  0 0.20931191E+04</rscale>
<asrwt>0</asrwt>
<pdfrwt beam="2">  1        2 0.42999118E+00 0.20931191E+04</pdfrwt>
<pdfrwt beam="1">  1       -2 0.60289491E-01 0.20931191E+04</pdfrwt>
<totfact> 0.55108064E+00</totfact>
</mgrwt>
</event>
<event>
 4    1  0.2552184E-008  0.2411930E+04  0.7816531E-02  0.8435050E-01
         -2   -1    0    0    0  501 -0.00000000000E+00  0.00000000000E+00  0.11185012215E+04  0.11185012215E+04  0.00000000000E+00 0. -1.
          2   -1    0    0  501    0  0.00000000000E+00 -0.00000000000E+00 -0.13002687281E+04  0.13002687281E+04  0.00000000000E+00 0.  1.
    2000013    1    1    2    0    0 -0.68542877037E+03  0.12060086072E+03 -0.35141844444E+03  0.12289638278E+04  0.95000000000E+03 0.  0.
   -2000013    1    1    2    0    0  0.68542877037E+03 -0.12060086072E+03  0.16965093780E+03  0.11898061218E+04  0.95000000000E+03 0.  0.
<mgrwt>
<rscale>  0 0.24119305E+04</rscale>
<asrwt>0</asrwt>
<pdfrwt beam="2">  1        2 0.20004134E+00 0.24119305E+04</pdfrwt>
<pdfrwt beam="1">  1       -2 0.17207711E+00 0.24119305E+04</pdfrwt>
<totfact> 0.30587954E+00</totfact>
</mgrwt>
</event>
<event>
 4    1  0.2552184E-008  0.2358580E+04  0.7816531E-02  0.8455175E-01
          2   -1    0    0  501    0  0.00000000000E+00  0.00000000000E+00  0.24791141798E+04  0.24791141798E+04  0.00000000000E+00 0.  1.
         -2   -1    0    0    0  501 -0.00000000000E+00 -0.00000000000E+00 -0.56097673247E+03  0.56097673247E+03  0.00000000000E+00 0. -1.
    2000013    1    1    2    0    0 -0.25447338937E+03  0.57442572515E+03  0.56492881969E+03  0.12713639097E+04  0.95000000000E+03 0.  0.
   -2000013    1    1    2    0    0  0.25447338937E+03 -0.57442572515E+03  0.13532086276E+04  0.17687270025E+04  0.95000000000E+03 0.  0.
<mgrwt>
<rscale>  0 0.23585804E+04</rscale>
<asrwt>0</asrwt>
<pdfrwt beam="1">  1        2 0.38140218E+00 0.23585804E+04</pdfrwt>
<pdfrwt beam="2">  1       -2 0.86304114E-01 0.23585804E+04</pdfrwt>
<totfact> 0.37581936E+00</totfact>
</mgrwt>
</event>
<event>
 4    1  0.2552184E-008  0.2546650E+04  0.7816531E-02  0.8386552E-01
          2   -1    0    0  501    0  0.00000000000E+00  0.00000000000E+00  0.23949608945E+04  0.23949608945E+04  0.00000000000E+00 0.  1.
         -2   -1    0    0    0  501 -0.00000000000E+00 -0.00000000000E+00 -0.67698688062E+03  0.67698688062E+03  0.00000000000E+00 0. -1.
    2000013    1    1    2    0    0  0.20986593454E+03  0.76867851162E+03  0.12084863888E+04  0.17314299629E+04  0.95000000000E+03 0.  0.
   -2000013    1    1    2    0    0 -0.20986593454E+03 -0.76867851162E+03  0.50948762513E+03  0.13405178122E+04  0.95000000000E+03 0.  0.
<mgrwt>
<rscale>  0 0.25466504E+04</rscale>
<asrwt>0</asrwt>
<pdfrwt beam="1">  1        2 0.36845552E+00 0.25466504E+04</pdfrwt>
<pdfrwt beam="2">  1       -2 0.10415183E+00 0.25466504E+04</pdfrwt>
<totfact> 0.26645976E+00</totfact>
</mgrwt>
</event>
<event>
 4    1  0.2552184E-008  0.3040542E+04  0.7816531E-02  0.8232248E-01
          2   -1    0    0  501    0  0.00000000000E+00  0.00000000000E+00  0.38715200708E+04  0.38715200708E+04  0.00000000000E+00 0.  1.
         -2   -1    0    0    0  501 -0.00000000000E+00 -0.00000000000E+00 -0.59698094734E+03  0.59698094734E+03  0.00000000000E+00 0. -1.
    2000013    1    1    2    0    0  0.10291171135E+04 -0.57916225228E+03  0.14620630417E+04  0.21058583252E+04  0.95000000000E+03 0.  0.
   -2000013    1    1    2    0    0 -0.10291171135E+04  0.57916225228E+03  0.18124760818E+04  0.23626426930E+04  0.95000000000E+03 0.  0.
<mgrwt>
<rscale>  0 0.30405419E+04</rscale>
<asrwt>0</asrwt>
<pdfrwt beam="1">  1        2 0.59561846E+00 0.30405419E+04</pdfrwt>
<pdfrwt beam="2">  1       -2 0.91843225E-01 0.30405419E+04</pdfrwt>
<totfact> 0.37190943E-01</totfact>
</mgrwt>
</event>
<event>
 4    1  0.2552184E-008  0.2286473E+04  0.7816531E-02  0.8483274E-01
         -2   -1    0    0    0  501 -0.00000000000E+00  0.00000000000E+00  0.51867639511E+03  0.51867639511E+03  0.00000000000E+00 0. -1.
          2   -1    0    0  501    0  0.00000000000E+00 -0.00000000000E+00 -0.25198559296E+04  0.25198559296E+04  0.00000000000E+00 0.  1.
    2000013    1    1    2    0    0  0.61458072856E+03  0.45770173081E+02 -0.79179580666E+03  0.13817543125E+04  0.95000000000E+03 0.  0.
   -2000013    1    1    2    0    0 -0.61458072856E+03 -0.45770173081E+02 -0.12093837279E+04  0.16567780122E+04  0.95000000000E+03 0.  0.
<mgrwt>
<rscale>  0 0.22864731E+04</rscale>
<asrwt>0</asrwt>
<pdfrwt beam="2">  1        2 0.38767015E+00 0.22864731E+04</pdfrwt>
<pdfrwt beam="1">  1       -2 0.79796366E-01 0.22864731E+04</pdfrwt>
<totfact> 0.42774223E+00</totfact>
</mgrwt>
</event>
<event>
 4    1  0.2552184E-008  0.2762635E+04  0.7816531E-02  0.8314963E-01
         -2   -1    0    0    0  501 -0.00000000000E+00  0.00000000000E+00  0.49963545327E+03  0.49963545327E+03  0.00000000000E+00 0. -1.
          2   -1    0    0  501    0  0.00000000000E+00 -0.00000000000E+00 -0.38188607675E+04  0.38188607675E+04  0.00000000000E+00 0.  1.
    2000013    1    1    2    0    0  0.97161530099E+03  0.23579713827E+03 -0.15395257589E+04  0.20669485107E+04  0.95000000000E+03 0.  0.
   -2000013    1    1    2    0    0 -0.97161530099E+03 -0.23579713827E+03 -0.17796995554E+04  0.22515477102E+04  0.95000000000E+03 0.  0.
<mgrwt>
<rscale>  0 0.27626351E+04</rscale>
<asrwt>0</asrwt>
<pdfrwt beam="2">  1        2 0.58751705E+00 0.27626351E+04</pdfrwt>
<pdfrwt beam="1">  1       -2 0.76866991E-01 0.27626351E+04</pdfrwt>
<totfact> 0.62725106E-01</totfact>
</mgrwt>
</event>
<event>
 4    1  0.2552184E-008  0.2696194E+04  0.7816531E-02  0.8336241E-01
         -2   -1    0    0    0  501 -0.00000000000E+00  0.00000000000E+00  0.17068978633E+04  0.17068978633E+04  0.00000000000E+00 0. -1.
          2   -1    0    0  501    0  0.00000000000E+00 -0.00000000000E+00 -0.10647183254E+04  0.10647183254E+04  0.00000000000E+00 0.  1.
    2000013    1    1    2    0    0 -0.57347420041E+03 -0.74760294790E+03  0.49026127158E+03  0.14250048914E+04  0.95000000000E+03 0.  0.
   -2000013    1    1    2    0    0  0.57347420041E+03  0.74760294790E+03  0.15191826632E+03  0.13466112973E+04  0.95000000000E+03 0.  0.
<mgrwt>
<rscale>  0 0.26961939E+04</rscale>
<asrwt>0</asrwt>
<pdfrwt beam="2">  1        2 0.16380282E+00 0.26961939E+04</pdfrwt>
<pdfrwt beam="1">  1       -2 0.26259967E+00 0.26961939E+04</pdfrwt>
<totfact> 0.10815908E+00</totfact>
</mgrwt>
</event>
<event>
 4    1  0.2552184E-008  0.2520307E+04  0.7816531E-02  0.8395787E-01
         -2   -1    0    0    0  501 -0.00000000000E+00  0.00000000000E+00  0.10789997966E+04  0.10789997966E+04  0.00000000000E+00 0. -1.
          2   -1    0    0  501    0  0.00000000000E+00 -0.00000000000E+00 -0.14717205913E+04  0.14717205913E+04  0.00000000000E+00 0.  1.
    2000013    1    1    2    0    0 -0.72799797682E+03  0.39133093621E+03 -0.24558125652E+03  0.12829384667E+04  0.95000000000E+03 0.  0.
   -2000013    1    1    2    0    0  0.72799797682E+03 -0.39133093621E+03 -0.14713953824E+03  0.12677819212E+04  0.95000000000E+03 0.  0.
<mgrwt>
<rscale>  0 0.25203065E+04</rscale>
<asrwt>0</asrwt>
<pdfrwt beam="2">  1        2 0.22641855E+00 0.25203065E+04</pdfrwt>
<pdfrwt beam="1">  1       -2 0.16599997E+00 0.25203065E+04</pdfrwt>
<totfact> 0.26705125E+00</totfact>
</mgrwt>
</event>
<event>
 4    1  0.2552184E-008  0.2106550E+04  0.7816531E-02  0.8558363E-01
          2   -1    0    0  501    0  0.00000000000E+00  0.00000000000E+00  0.91530872057E+03  0.91530872057E+03  0.00000000000E+00 0.  1.
         -2   -1    0    0    0  501 -0.00000000000E+00 -0.00000000000E+00 -0.12120375795E+04  0.12120375795E+04  0.00000000000E+00 0. -1.
    2000013    1    1    2    0    0  0.27015754943E+03  0.34156361893E+03 -0.28095320342E+03  0.10821670434E+04  0.95000000000E+03 0.  0.
   -2000013    1    1    2    0    0 -0.27015754943E+03 -0.34156361893E+03 -0.15775655515E+02  0.10451792567E+04  0.95000000000E+03 0.  0.
<mgrwt>
<rscale>  0 0.21065503E+04</rscale>
<asrwt>0</asrwt>
<pdfrwt beam="1">  1        2 0.14081673E+00 0.21065503E+04</pdfrwt>
<pdfrwt beam="2">  1       -2 0.18646732E+00 0.21065503E+04</pdfrwt>
<totfact> 0.43169130E+00</totfact>
</mgrwt>
</event>
<event>
 4    1  0.2552184E-008  0.2145673E+04  0.7816531E-02  0.8541387E-01
         -2   -1    0    0    0  501 -0.00000000000E+00  0.00000000000E+00  0.18291194051E+04  0.18291194051E+04  0.00000000000E+00 0. -1.
          2   -1    0    0  501    0  0.00000000000E+00 -0.00000000000E+00 -0.62925232879E+03  0.62925232879E+03  0.00000000000E+00 0.  1.
    2000013    1    1    2    0    0 -0.30288401373E+03  0.39565859966E+03  0.58400856578E+03  0.12214133036E+04  0.95000000000E+03 0.  0.
   -2000013    1    1    2    0    0  0.30288401373E+03 -0.39565859966E+03  0.61585851050E+03  0.12369584303E+04  0.95000000000E+03 0.  0.
<mgrwt>
<rscale>  0 0.21456725E+04</rscale>
<asrwt>0</asrwt>
<pdfrwt beam="2">  1        2 0.96808051E-01 0.21456725E+04</pdfrwt>
<pdfrwt beam="1">  1       -2 0.28140298E+00 0.21456725E+04</pdfrwt>
<totfact> 0.17746301E+00</totfact>
</mgrwt>
</event>
<event>
 4    1  0.2552184E-008  0.3039412E+04  0.7816531E-02  0.8232565E-01
          2   -1    0    0  501    0  0.00000000000E+00  0.00000000000E+00  0.17926141867E+04  0.17926141867E+04  0.00000000000E+00 0.  1.
         -2   -1    0    0    0  501 -0.00000000000E+00 -0.00000000000E+00 -0.12883456991E+04  0.12883456991E+04  0.00000000000E+00 0. -1.
    2000013    1    1    2    0    0  0.23520547679E+03  0.10401324659E+04  0.77866668982E+03  0.16266588385E+04  0.95000000000E+03 0.  0.
   -2000013    1    1    2    0    0 -0.23520547679E+03 -0.10401324659E+04 -0.27439820219E+03  0.14543010474E+04  0.95000000000E+03 0.  0.
<mgrwt>
<rscale>  0 0.30394123E+04</rscale>
<asrwt>0</asrwt>
<pdfrwt beam="1">  1        2 0.27578680E+00 0.30394123E+04</pdfrwt>
<pdfrwt beam="2">  1       -2 0.19820703E+00 0.30394123E+04</pdfrwt>
<totfact> 0.10158678E+00</totfact>
</mgrwt>
</event>
<event>
 4    1  0.2552184E-008  0.2149597E+04  0.7816531E-02  0.8539705E-01
          2   -1    0    0  501    0  0.00000000000E+00  0.00000000000E+00  0.84748873530E+03  0.84748873530E+03  0.00000000000E+00 0.  1.
         -2   -1    0    0    0  501 -0.00000000000E+00 -0.00000000000E+00 -0.13630761671E+04  0.13630761671E+04  0.00000000000E+00 0. -1.
    2000013    1    1    2    0    0 -0.61897332767E+02  0.47534785993E+03 -0.41342961328E+03  0.11415826352E+04  0.95000000000E+03 0.  0.
   -2000013    1    1    2    0    0  0.61897332767E+02 -0.47534785993E+03 -0.10215781848E+03  0.10689822672E+04  0.95000000000E+03 0.  0.
<mgrwt>
<rscale>  0 0.21495969E+04</rscale>
<asrwt>0</asrwt>
<pdfrwt beam="1">  1        2 0.13038288E+00 0.21495969E+04</pdfrwt>
<pdfrwt beam="2">  1       -2 0.20970403E+00 0.21495969E+04</pdfrwt>
<totfact> 0.33626118E+00</totfact>
</mgrwt>
</event>
<event>
 4    1  0.2552184E-008  0.2120597E+04  0.7816531E-02  0.8552224E-01
         -2   -1    0    0    0  501 -0.00000000000E+00  0.00000000000E+00  0.28938658200E+03  0.28938658200E+03  0.00000000000E+00 0. -1.
          2   -1    0    0  501    0  0.00000000000E+00 -0.00000000000E+00 -0.38848832565E+04  0.38848832565E+04  0.00000000000E+00 0.  1.
    2000013    1    1    2    0    0  0.24116894131E+03  0.30516821162E+03 -0.12753025424E+04  0.16371275669E+04  0.95000000000E+03 0.  0.
   -2000013    1    1    2    0    0 -0.24116894131E+03 -0.30516821162E+03 -0.23201941321E+04  0.25371422716E+04  0.95000000000E+03 0.  0.
<mgrwt>
<rscale>  0 0.21205972E+04</rscale>
<asrwt>0</asrwt>
<pdfrwt beam="2">  1        2 0.59767431E+00 0.21205972E+04</pdfrwt>
<pdfrwt beam="1">  1       -2 0.44521015E-01 0.21205972E+04</pdfrwt>
<totfact> 0.18731946E+00</totfact>
</mgrwt>
</event>
<event>
 4    1  0.2552184E-008  0.2671959E+04  0.7816531E-02  0.8344161E-01
         -2   -1    0    0    0  501 -0.00000000000E+00  0.00000000000E+00  0.88319882367E+03  0.88319882367E+03  0.00000000000E+00 0. -1.
          2   -1    0    0  501    0  0.00000000000E+00 -0.00000000000E+00 -0.20208832318E+04  0.20208832318E+04  0.00000000000E+00 0.  1.
    2000013    1    1    2    0    0  0.77530485927E+03 -0.48598280232E+03 -0.79956881342E+03  0.15424289923E+04  0.95000000000E+03 0.  0.
   -2000013    1    1    2    0    0 -0.77530485927E+03  0.48598280232E+03 -0.33811559469E+03  0.13616530631E+04  0.95000000000E+03 0.  0.
<mgrwt>
<rscale>  0 0.26719594E+04</rscale>
<asrwt>0</asrwt>
<pdfrwt beam="2">  1        2 0.31090511E+00 0.26719594E+04</pdfrwt>
<pdfrwt beam="1">  1       -2 0.13587674E+00 0.26719594E+04</pdfrwt>
<totfact> 0.22195003E+00</totfact>
</mgrwt>
</event>
<event>
 4    1  0.2552184E-008  0.3202094E+04  0.7816531E-02  0.8188264E-01
         -2   -1    0    0    0  501 -0.00000000000E+00  0.00000000000E+00  0.10818544578E+04  0.10818544578E+04  0.00000000000E+00 0. -1.
          2   -1    0    0  501    0  0.00000000000E+00 -0.00000000000E+00 -0.23694048417E+04  0.23694048417E+04  0.00000000000E+00 0.  1.
    2000013    1    1    2    0    0 -0.11147066216E+03 -0.12272192089E+04 -0.10504387285E+04  0.18773423283E+04  0.95000000000E+03 0.  0.
   -2000013    1    1    2    0    0  0.11147066216E+03  0.12272192089E+04 -0.23711165548E+03  0.15739169713E+04  0.95000000000E+03 0.  0.
<mgrwt>
<rscale>  0 0.32020938E+04</rscale>
<asrwt>0</asrwt>
<pdfrwt beam="2">  1        2 0.36452382E+00 0.32020938E+04</pdfrwt>
<pdfrwt beam="1">  1       -2 0.16643915E+00 0.32020938E+04</pdfrwt>
<totfact> 0.78760492E-01</totfact>
</mgrwt>
</event>
<event>
 4    1  0.2552184E-008  0.2693349E+04  0.7816531E-02  0.8337166E-01
         -2   -1    0    0    0  501 -0.00000000000E+00  0.00000000000E+00  0.10269052985E+04  0.10269052985E+04  0.00000000000E+00 0.  1.
          2   -1    0    0  501    0  0.00000000000E+00 -0.00000000000E+00 -0.17660167060E+04  0.17660167060E+04  0.00000000000E+00 0. -1.
    2000013    1    1    2    0    0 -0.16058625350E+03 -0.74692985007E+03 -0.96284374609E+03  0.15534671625E+04  0.95000000000E+03 0.  0.
   -2000013    1    1    2    0    0  0.16058625350E+03  0.74692985007E+03  0.22373233862E+03  0.12394548419E+04  0.95000000000E+03 0.  0.
<mgrwt>
<rscale>  0 0.26933488E+04</rscale>
<asrwt>0</asrwt>
<pdfrwt beam="2">  1        2 0.27169487E+00 0.26933488E+04</pdfrwt>
<pdfrwt beam="1">  1       -2 0.15798543E+00 0.26933488E+04</pdfrwt>
<totfact> 0.20627776E+00</totfact>
</mgrwt>
</event>
<event>
 4    1  0.2552184E-008  0.3000076E+04  0.7816531E-02  0.8243709E-01
          2   -1    0    0  501    0  0.00000000000E+00  0.00000000000E+00  0.31120618236E+04  0.31120618236E+04  0.00000000000E+00 0.  1.
         -2   -1    0    0    0  501 -0.00000000000E+00 -0.00000000000E+00 -0.72303000615E+03  0.72303000615E+03  0.00000000000E+00 0. -1.
    2000013    1    1    2    0    0  0.95092171102E+03  0.65280516804E+03  0.10268282798E+04  0.18130865959E+04  0.95000000000E+03 0.  0.
   -2000013    1    1    2    0    0 -0.95092171102E+03 -0.65280516804E+03  0.13622035376E+04  0.20220052339E+04  0.95000000000E+03 0.  0.
<mgrwt>
<rscale>  0 0.30000761E+04</rscale>
<asrwt>0</asrwt>
<pdfrwt beam="1">  1        2 0.47877874E+00 0.30000761E+04</pdfrwt>
<pdfrwt beam="2">  1       -2 0.11123539E+00 0.30000761E+04</pdfrwt>
<totfact> 0.80865564E-01</totfact>
</mgrwt>
</event>
<event>
 4    1  0.2552184E-008  0.3100117E+04  0.7816531E-02  0.8215706E-01
         -2   -1    0    0    0  501 -0.00000000000E+00  0.00000000000E+00  0.25956242373E+04  0.25956242373E+04  0.00000000000E+00 0. -1.
          2   -1    0    0  501    0  0.00000000000E+00 -0.00000000000E+00 -0.92566630651E+03  0.92566630651E+03  0.00000000000E+00 0.  1.
    2000013    1    1    2    0    0  0.47999038081E+03 -0.92148920363E+03  0.98291051968E+02  0.14112739808E+04  0.95000000000E+03 0.  0.
   -2000013    1    1    2    0    0 -0.47999038081E+03  0.92148920363E+03  0.15716668789E+04  0.21100165630E+04  0.95000000000E+03 0.  0.
<mgrwt>
<rscale>  0 0.31001174E+04</rscale>
<asrwt>0</asrwt>
<pdfrwt beam="2">  1        2 0.14241020E+00 0.31001174E+04</pdfrwt>
<pdfrwt beam="1">  1       -2 0.39932680E+00 0.31001174E+04</pdfrwt>
<totfact> 0.17923700E-01</totfact>
</mgrwt>
</event>
<event>
 4    1  0.2552184E-008  0.3077639E+04  0.7816531E-02  0.8221901E-01
          2   -1    0    0  501    0  0.00000000000E+00  0.00000000000E+00  0.35966772470E+04  0.35966772470E+04  0.00000000000E+00 0.  1.
         -2   -1    0    0    0  501 -0.00000000000E+00 -0.00000000000E+00 -0.65837601212E+03  0.65837601212E+03  0.00000000000E+00 0. -1.
    2000013    1    1    2    0    0 -0.26234269955E+03  0.82035789666E+03  0.26452746673E+04  0.29396919628E+04  0.95000000000E+03 0.  0.
   -2000013    1    1    2    0    0  0.26234269955E+03 -0.82035789666E+03  0.29302656758E+03  0.13153612963E+04  0.95000000000E+03 0.  0.
<mgrwt>
<rscale>  0 0.30776394E+04</rscale>
<asrwt>0</asrwt>
<pdfrwt beam="1">  1        2 0.55333495E+00 0.30776394E+04</pdfrwt>
<pdfrwt beam="2">  1       -2 0.10128862E+00 0.30776394E+04</pdfrwt>
<totfact> 0.47260882E-01</totfact>
</mgrwt>
</event>
<event>
 4    1  0.2552184E-008  0.2325550E+04  0.7816531E-02  0.8467915E-01
          2   -1    0    0  501    0  0.00000000000E+00  0.00000000000E+00  0.19976136397E+04  0.19976136397E+04  0.00000000000E+00 0.  1.
         -2   -1    0    0    0  501 -0.00000000000E+00 -0.00000000000E+00 -0.67683043825E+03  0.67683043825E+03  0.00000000000E+00 0. -1.
    2000013    1    1    2    0    0 -0.19445272977E+03  0.64131556278E+03  0.68473850641E+03  0.13492458402E+04  0.95000000000E+03 0.  0.
   -2000013    1    1    2    0    0  0.19445272977E+03 -0.64131556278E+03  0.63604469502E+03  0.13251982377E+04  0.95000000000E+03 0.  0.
<mgrwt>
<rscale>  0 0.23255500E+04</rscale>
<asrwt>0</asrwt>
<pdfrwt beam="1">  1        2 0.30732517E+00 0.23255500E+04</pdfrwt>
<pdfrwt beam="2">  1       -2 0.10412776E+00 0.23255500E+04</pdfrwt>
<totfact> 0.45468550E+00</totfact>
</mgrwt>
</event>
<event>
 4    1  0.2552184E-008  0.3123195E+04  0.7816531E-02  0.8209401E-01
         -2   -1    0    0    0  501 -0.00000000000E+00  0.00000000000E+00  0.10934316675E+04  0.10934316675E+04  0.00000000000E+00 0. -1.
          2   -1    0    0  501    0  0.00000000000E+00 -0.00000000000E+00 -0.22302134230E+04  0.22302134230E+04  0.00000000000E+00 0.  1.
    2000013    1    1    2    0    0 -0.72689448008E+03 -0.92385200769E+03 -0.98628751075E+03  0.18047551555E+04  0.95000000000E+03 0.  0.
   -2000013    1    1    2    0    0  0.72689448008E+03  0.92385200769E+03 -0.15049424475E+03  0.15188899351E+04  0.95000000000E+03 0.  0.
<mgrwt>
<rscale>  0 0.31231945E+04</rscale>
<asrwt>0</asrwt>
<pdfrwt beam="2">  1        2 0.34310975E+00 0.31231945E+04</pdfrwt>
<pdfrwt beam="1">  1       -2 0.16822026E+00 0.31231945E+04</pdfrwt>
<totfact> 0.92339208E-01</totfact>
</mgrwt>
</event>
<event>
 4    1  0.2552184E-008  0.2455361E+04  0.7816531E-02  0.8419063E-01
          2   -1    0    0  501    0  0.00000000000E+00  0.00000000000E+00  0.20722661085E+04  0.20722661085E+04  0.00000000000E+00 0.  1.
         -2   -1    0    0    0  501 -0.00000000000E+00 -0.00000000000E+00 -0.72731934926E+03  0.72731934926E+03  0.00000000000E+00 0. -1.
    2000013    1    1    2    0    0  0.27136521973E+03  0.62548351530E+03  0.24611048910E+03  0.11949640510E+04  0.95000000000E+03 0.  0.
   -2000013    1    1    2    0    0 -0.27136521973E+03 -0.62548351530E+03  0.10988362701E+04  0.16046214067E+04  0.95000000000E+03 0.  0.
<mgrwt>
<rscale>  0 0.24553609E+04</rscale>
<asrwt>0</asrwt>
<pdfrwt beam="1">  1        2 0.31881017E+00 0.24553609E+04</pdfrwt>
<pdfrwt beam="2">  1       -2 0.11189529E+00 0.24553609E+04</pdfrwt>
<totfact> 0.34356581E+00</totfact>
</mgrwt>
</event>
<event>
 4    1  0.2552184E-008  0.3039907E+04  0.7816531E-02  0.8232426E-01
          2   -1    0    0  501    0  0.00000000000E+00  0.00000000000E+00  0.16800697586E+04  0.16800697586E+04  0.00000000000E+00 0.  1.
         -2   -1    0    0    0  501 -0.00000000000E+00 -0.00000000000E+00 -0.13750970598E+04  0.13750970598E+04  0.00000000000E+00 0. -1.
    2000013    1    1    2    0    0  0.10941904744E+04 -0.35257087551E+03 -0.14258575411E+03  0.14981287374E+04  0.95000000000E+03 0.  0.
   -2000013    1    1    2    0    0 -0.10941904744E+04  0.35257087551E+03  0.44755845289E+03  0.15570380809E+04  0.95000000000E+03 0.  0.
<mgrwt>
<rscale>  0 0.30399072E+04</rscale>
<asrwt>0</asrwt>
<pdfrwt beam="1">  1        2 0.25847227E+00 0.30399072E+04</pdfrwt>
<pdfrwt beam="2">  1       -2 0.21155339E+00 0.30399072E+04</pdfrwt>
<totfact> 0.96067218E-01</totfact>
</mgrwt>
</event>
<event>
 4    1  0.2552184E-008  0.2277207E+04  0.7816531E-02  0.8486963E-01
          2   -1    0    0  501    0  0.00000000000E+00  0.00000000000E+00  0.24183107742E+04  0.24183107742E+04  0.00000000000E+00 0.  1.
         -2   -1    0    0    0  501 -0.00000000000E+00 -0.00000000000E+00 -0.53608395520E+03  0.53608395520E+03  0.00000000000E+00 0. -1.
    2000013    1    1    2    0    0 -0.52418365220E+03 -0.73456156078E+02  0.50354288446E+03  0.11984238585E+04  0.95000000000E+03 0.  0.
   -2000013    1    1    2    0    0  0.52418365220E+03  0.73456156078E+02  0.13786839345E+04  0.17559708709E+04  0.95000000000E+03 0.  0.
<mgrwt>
<rscale>  0 0.22772067E+04</rscale>
<asrwt>0</asrwt>
<pdfrwt beam="1">  1        2 0.37204781E+00 0.22772067E+04</pdfrwt>
<pdfrwt beam="2">  1       -2 0.82474456E-01 0.22772067E+04</pdfrwt>
<totfact> 0.45477944E+00</totfact>
</mgrwt>
</event>
<event>
 4    1  0.2552184E-008  0.2255087E+04  0.7816531E-02  0.8495843E-01
          2   -1    0    0  501    0  0.00000000000E+00  0.00000000000E+00  0.13759188771E+04  0.13759188771E+04  0.00000000000E+00 0.  1.
         -2   -1    0    0    0  501 -0.00000000000E+00 -0.00000000000E+00 -0.92400391107E+03  0.92400391107E+03  0.00000000000E+00 0. -1.
    2000013    1    1    2    0    0  0.35804936325E+03 -0.43153180445E+03 -0.11995178550E+02  0.11032057510E+04  0.95000000000E+03 0.  0.
   -2000013    1    1    2    0    0 -0.35804936325E+03  0.43153180445E+03  0.46391014457E+03  0.11967170372E+04  0.95000000000E+03 0.  0.
<mgrwt>
<rscale>  0 0.22550871E+04</rscale>
<asrwt>0</asrwt>
<pdfrwt beam="1">  1        2 0.21167983E+00 0.22550871E+04</pdfrwt>
<pdfrwt beam="2">  1       -2 0.14215445E+00 0.22550871E+04</pdfrwt>
<totfact> 0.46924426E+00</totfact>
</mgrwt>
</event>
<event>
 4    1  0.2552184E-008  0.2526716E+04  0.7816531E-02  0.8393529E-01
         -2   -1    0    0    0  501 -0.00000000000E+00  0.00000000000E+00  0.42732276714E+03  0.42732276714E+03  0.00000000000E+00 0. -1.
          2   -1    0    0  501    0  0.00000000000E+00 -0.00000000000E+00 -0.37350545545E+04  0.37350545545E+04  0.00000000000E+00 0.  1.
    2000013    1    1    2    0    0 -0.13366677509E+03  0.80308644666E+03 -0.19427824827E+04  0.23107830757E+04  0.95000000000E+03 0.  0.
   -2000013    1    1    2    0    0  0.13366677509E+03 -0.80308644666E+03 -0.13649493047E+04  0.18515942460E+04  0.95000000000E+03 0.  0.
<mgrwt>
<rscale>  0 0.25267163E+04</rscale>
<asrwt>0</asrwt>
<pdfrwt beam="2">  1        2 0.57462379E+00 0.25267163E+04</pdfrwt>
<pdfrwt beam="1">  1       -2 0.65741962E-01 0.25267163E+04</pdfrwt>
<totfact> 0.10442686E+00</totfact>
</mgrwt>
</event>
<event>
 4    1  0.2552184E-008  0.2141873E+04  0.7816531E-02  0.8543019E-01
         -2   -1    0    0    0  501 -0.00000000000E+00  0.00000000000E+00  0.83172981714E+03  0.83172981714E+03  0.00000000000E+00 0. -1.
          2   -1    0    0  501    0  0.00000000000E+00 -0.00000000000E+00 -0.13789399097E+04  0.13789399097E+04  0.00000000000E+00 0.  1.
    2000013    1    1    2    0    0  0.22648132272E+03 -0.42517810393E+03 -0.15897362527E+03  0.10769599914E+04  0.95000000000E+03 0.  0.
   -2000013    1    1    2    0    0 -0.22648132272E+03  0.42517810393E+03 -0.38823646728E+03  0.11337097354E+04  0.95000000000E+03 0.  0.
<mgrwt>
<rscale>  0 0.21418734E+04</rscale>
<asrwt>0</asrwt>
<pdfrwt beam="2">  1        2 0.21214460E+00 0.21418734E+04</pdfrwt>
<pdfrwt beam="1">  1       -2 0.12795843E+00 0.21418734E+04</pdfrwt>
<totfact> 0.61783647E+00</totfact>
</mgrwt>
</event>
<event>
 4    1  0.2552184E-008  0.2670106E+04  0.7816531E-02  0.8344770E-01
         -2   -1    0    0    0  501 -0.00000000000E+00  0.00000000000E+00  0.48770963353E+03  0.48770963353E+03  0.00000000000E+00 0. -1.
          2   -1    0    0  501    0  0.00000000000E+00 -0.00000000000E+00 -0.36545635947E+04  0.36545635947E+04  0.00000000000E+00 0.  1.
    2000013    1    1    2    0    0 -0.25548636467E+03 -0.26414437700E+03 -0.29222897981E+04  0.30947250603E+04  0.95000000000E+03 0.  0.
   -2000013    1    1    2    0    0  0.25548636467E+03  0.26414437700E+03 -0.24456416308E+03  0.10475481680E+04  0.95000000000E+03 0.  0.
<mgrwt>
<rscale>  0 0.26701055E+04</rscale>
<asrwt>0</asrwt>
<pdfrwt beam="2">  1        2 0.56224055E+00 0.26701055E+04</pdfrwt>
<pdfrwt beam="1">  1       -2 0.75032251E-01 0.26701055E+04</pdfrwt>
<totfact> 0.88493514E-01</totfact>
</mgrwt>
</event>
<event>
 4    1  0.2552184E-008  0.2110960E+04  0.7816531E-02  0.8556431E-01
         -2   -1    0    0    0  501 -0.00000000000E+00  0.00000000000E+00  0.25033369567E+04  0.25033369567E+04  0.00000000000E+00 0. -1.
          2   -1    0    0  501    0  0.00000000000E+00 -0.00000000000E+00 -0.44502122049E+03  0.44502122049E+03  0.00000000000E+00 0.  1.
    2000013    1    1    2    0    0 -0.37673778477E+03  0.11511916806E+03  0.13607190723E+04  0.17056494877E+04  0.95000000000E+03 0.  0.
   -2000013    1    1    2    0    0  0.37673778477E+03 -0.11511916806E+03  0.69759666392E+03  0.12427086895E+04  0.95000000000E+03 0.  0.
<mgrwt>
<rscale>  0 0.21109600E+04</rscale>
<asrwt>0</asrwt>
<pdfrwt beam="2">  1        2 0.68464805E-01 0.21109600E+04</pdfrwt>
<pdfrwt beam="1">  1       -2 0.38512875E+00 0.21109600E+04</pdfrwt>
<totfact> 0.60291743E-01</totfact>
</mgrwt>
</event>
<event>
 4    1  0.2552184E-008  0.2349884E+04  0.7816531E-02  0.8458508E-01
          2   -1    0    0  501    0  0.00000000000E+00  0.00000000000E+00  0.13957071124E+04  0.13957071124E+04  0.00000000000E+00 0.  1.
         -2   -1    0    0    0  501 -0.00000000000E+00 -0.00000000000E+00 -0.98909634919E+03  0.98909634919E+03  0.00000000000E+00 0. -1.
    2000013    1    1    2    0    0 -0.17917844112E+03 -0.53282591575E+03  0.61175400683E+03  0.12620425251E+04  0.95000000000E+03 0.  0.
   -2000013    1    1    2    0    0  0.17917844112E+03  0.53282591575E+03 -0.20514324357E+03  0.11227609365E+04  0.95000000000E+03 0.  0.
<mgrwt>
<rscale>  0 0.23498841E+04</rscale>
<asrwt>0</asrwt>
<pdfrwt beam="1">  1        2 0.21472417E+00 0.23498841E+04</pdfrwt>
<pdfrwt beam="2">  1       -2 0.15216867E+00 0.23498841E+04</pdfrwt>
<totfact> 0.37901441E+00</totfact>
</mgrwt>
</event>
<event>
 4    1  0.2552184E-008  0.3017432E+04  0.7816531E-02  0.8238771E-01
         -2   -1    0    0    0  501 -0.00000000000E+00  0.00000000000E+00  0.12337001415E+04  0.12337001415E+04  0.00000000000E+00 0. -1.
          2   -1    0    0  501    0  0.00000000000E+00 -0.00000000000E+00 -0.18450381471E+04  0.18450381471E+04  0.00000000000E+00 0.  1.
    2000013    1    1    2    0    0  0.11480322958E+04 -0.20456052838E+03 -0.42596551120E+03  0.15632561462E+04  0.95000000000E+03 0.  0.
   -2000013    1    1    2    0    0 -0.11480322958E+04  0.20456052838E+03 -0.18537249441E+03  0.15154821423E+04  0.95000000000E+03 0.  0.
<mgrwt>
<rscale>  0 0.30174319E+04</rscale>
<asrwt>0</asrwt>
<pdfrwt beam="2">  1        2 0.28385202E+00 0.30174319E+04</pdfrwt>
<pdfrwt beam="1">  1       -2 0.18980002E+00 0.30174319E+04</pdfrwt>
<totfact> 0.10827721E+00</totfact>
</mgrwt>
</event>
<event>
 4    1  0.2552184E-008  0.2223038E+04  0.7816531E-02  0.8508900E-01
          2   -1    0    0  501    0  0.00000000000E+00  0.00000000000E+00  0.12205344733E+04  0.12205344733E+04  0.00000000000E+00 0.  1.
         -2   -1    0    0    0  501 -0.00000000000E+00 -0.00000000000E+00 -0.10122410021E+04  0.10122410021E+04  0.00000000000E+00 0. -1.
    2000013    1    1    2    0    0 -0.46077449814E+03  0.24898657874E+03 -0.13912809055E+03  0.10936928637E+04  0.95000000000E+03 0.  0.
   -2000013    1    1    2    0    0  0.46077449814E+03 -0.24898657874E+03  0.34742156175E+03  0.11390826116E+04  0.95000000000E+03 0.  0.
<mgrwt>
<rscale>  0 0.22230385E+04</rscale>
<asrwt>0</asrwt>
<pdfrwt beam="1">  1        2 0.18777453E+00 0.22230385E+04</pdfrwt>
<pdfrwt beam="2">  1       -2 0.15572939E+00 0.22230385E+04</pdfrwt>
<totfact> 0.45541493E+00</totfact>
</mgrwt>
</event>
<event>
 4    1  0.2552184E-008  0.2307849E+04  0.7816531E-02  0.8474833E-01
          2   -1    0    0  501    0  0.00000000000E+00  0.00000000000E+00  0.21109077148E+04  0.21109077148E+04  0.00000000000E+00 0.  1.
         -2   -1    0    0    0  501 -0.00000000000E+00 -0.00000000000E+00 -0.63079121552E+03  0.63079121552E+03  0.00000000000E+00 0. -1.
    2000013    1    1    2    0    0 -0.57026658157E+03  0.29205611699E+03  0.57829407641E+03  0.12835204667E+04  0.95000000000E+03 0.  0.
   -2000013    1    1    2    0    0  0.57026658157E+03 -0.29205611699E+03  0.90182242289E+03  0.14581784637E+04  0.95000000000E+03 0.  0.
<mgrwt>
<rscale>  0 0.23078493E+04</rscale>
<asrwt>0</asrwt>
<pdfrwt beam="1">  1        2 0.32475503E+00 0.23078493E+04</pdfrwt>
<pdfrwt beam="2">  1       -2 0.97044803E-01 0.23078493E+04</pdfrwt>
<totfact> 0.46536963E+00</totfact>
</mgrwt>
</event>
<event>
 4    1  0.2552184E-008  0.2175077E+04  0.7816531E-02  0.8528874E-01
         -2   -1    0    0    0  501 -0.00000000000E+00  0.00000000000E+00  0.91281640490E+03  0.91281640490E+03  0.00000000000E+00 0. -1.
          2   -1    0    0  501    0  0.00000000000E+00 -0.00000000000E+00 -0.12957044571E+04  0.12957044571E+04  0.00000000000E+00 0.  1.
    2000013    1    1    2    0    0 -0.47616915387E+03  0.19973689618E+03 -0.72995340606E+02  0.10837251545E+04  0.95000000000E+03 0.  0.
   -2000013    1    1    2    0    0  0.47616915387E+03 -0.19973689618E+03 -0.30989271156E+03  0.11247957074E+04  0.95000000000E+03 0.  0.
<mgrwt>
<rscale>  0 0.21750773E+04</rscale>
<asrwt>0</asrwt>
<pdfrwt beam="2">  1        2 0.19933915E+00 0.21750773E+04</pdfrwt>
<pdfrwt beam="1">  1       -2 0.14043329E+00 0.21750773E+04</pdfrwt>
<totfact> 0.54266998E+00</totfact>
</mgrwt>
</event>
<event>
 4    1  0.2552184E-008  0.2421343E+04  0.7816531E-02  0.8431556E-01
          2   -1    0    0  501    0  0.00000000000E+00  0.00000000000E+00  0.11958789365E+04  0.11958789365E+04  0.00000000000E+00 0.  1.
         -2   -1    0    0    0  501 -0.00000000000E+00 -0.00000000000E+00 -0.12256472659E+04  0.12256472659E+04  0.00000000000E+00 0. -1.
    2000013    1    1    2    0    0 -0.14905954071E+03 -0.35724751045E+03  0.62811171351E+03  0.12028586181E+04  0.95000000000E+03 0.  0.
   -2000013    1    1    2    0    0  0.14905954071E+03  0.35724751045E+03 -0.65788004290E+03  0.12186675844E+04  0.95000000000E+03 0.  0.
<mgrwt>
<rscale>  0 0.24213432E+04</rscale>
<asrwt>0</asrwt>
<pdfrwt beam="1">  1        2 0.18398138E+00 0.24213432E+04</pdfrwt>
<pdfrwt beam="2">  1       -2 0.18856112E+00 0.24213432E+04</pdfrwt>
<totfact> 0.27101129E+00</totfact>
</mgrwt>
</event>
<event>
 4    1  0.2552184E-008  0.2211131E+04  0.7816531E-02  0.8513810E-01
         -1   -1    0    0    0  501 -0.00000000000E+00  0.00000000000E+00  0.11064889704E+04  0.11064889704E+04  0.00000000000E+00 0. -1.
          1   -1    0    0  501    0  0.00000000000E+00 -0.00000000000E+00 -0.11046423151E+04  0.11046423151E+04  0.00000000000E+00 0.  1.
    2000013    1    1    2    0    0 -0.11493105795E+03  0.53691502132E+03 -0.13430855619E+03  0.11054527020E+04  0.95000000000E+03 0.  0.
   -2000013    1    1    2    0    0  0.11493105795E+03 -0.53691502132E+03  0.13615521148E+03  0.11056785834E+04  0.95000000000E+03 0.  0.
<mgrwt>
<rscale>  0 0.22111305E+04</rscale>
<asrwt>0</asrwt>
<pdfrwt beam="2">  1        1 0.16994497E+00 0.22111305E+04</pdfrwt>
<pdfrwt beam="1">  1       -1 0.17022907E+00 0.22111305E+04</pdfrwt>
<totfact> 0.28080455E+00</totfact>
</mgrwt>
</event>
<event>
 4    1  0.2552184E-008  0.3039045E+04  0.7816531E-02  0.8232668E-01
         -2   -1    0    0    0  501 -0.00000000000E+00  0.00000000000E+00  0.16438377323E+04  0.16438377323E+04  0.00000000000E+00 0. -1.
          2   -1    0    0  501    0  0.00000000000E+00 -0.00000000000E+00 -0.14046084944E+04  0.14046084944E+04  0.00000000000E+00 0.  1.
    2000013    1    1    2    0    0 -0.11202004589E+04  0.11572476711E+03 -0.25329766075E+03  0.14949585261E+04  0.95000000000E+03 0.  0.
   -2000013    1    1    2    0    0  0.11202004589E+04 -0.11572476711E+03  0.49252689870E+03  0.15534877006E+04  0.95000000000E+03 0.  0.
<mgrwt>
<rscale>  0 0.30390449E+04</rscale>
<asrwt>0</asrwt>
<pdfrwt beam="2">  1        2 0.21609361E+00 0.30390449E+04</pdfrwt>
<pdfrwt beam="1">  1       -2 0.25289811E+00 0.30390449E+04</pdfrwt>
<totfact> 0.75695930E-01</totfact>
</mgrwt>
</event>
<event>
 4    1  0.2552184E-008  0.2876608E+04  0.7816531E-02  0.8279871E-01
          2   -1    0    0  501    0  0.00000000000E+00  0.00000000000E+00  0.15807307296E+04  0.15807307296E+04  0.00000000000E+00 0.  1.
         -2   -1    0    0    0  501 -0.00000000000E+00 -0.00000000000E+00 -0.13087105317E+04  0.13087105317E+04  0.00000000000E+00 0. -1.
    2000013    1    1    2    0    0 -0.16753157210E+03 -0.10341736899E+04 -0.12714511191E+03  0.14199464525E+04  0.95000000000E+03 0.  0.
   -2000013    1    1    2    0    0  0.16753157210E+03  0.10341736899E+04  0.39916530982E+03  0.14694948088E+04  0.95000000000E+03 0.  0.
<mgrwt>
<rscale>  0 0.28766084E+04</rscale>
<asrwt>0</asrwt>
<pdfrwt beam="1">  1        2 0.24318934E+00 0.28766084E+04</pdfrwt>
<pdfrwt beam="2">  1       -2 0.20134008E+00 0.28766084E+04</pdfrwt>
<totfact> 0.12886293E+00</totfact>
</mgrwt>
</event>
<event>
 4    1  0.2552184E-008  0.3234855E+04  0.7816531E-02  0.8179672E-01
          2   -1    0    0  501    0  0.00000000000E+00  0.00000000000E+00  0.11472799544E+04  0.11472799544E+04  0.00000000000E+00 0.  1.
         -2   -1    0    0    0  501 -0.00000000000E+00 -0.00000000000E+00 -0.22802381208E+04  0.22802381208E+04  0.00000000000E+00 0. -1.
    2000013    1    1    2    0    0  0.12010668797E+04 -0.44792577208E+03 -0.28540166725E+03  0.16208495484E+04  0.95000000000E+03 0.  0.
   -2000013    1    1    2    0    0 -0.12010668797E+04  0.44792577208E+03 -0.84755649914E+03  0.18066685269E+04  0.95000000000E+03 0.  0.
<mgrwt>
<rscale>  0 0.32348549E+04</rscale>
<asrwt>0</asrwt>
<pdfrwt beam="1">  1        2 0.17650461E+00 0.32348549E+04</pdfrwt>
<pdfrwt beam="2">  1       -2 0.35080587E+00 0.32348549E+04</pdfrwt>
<totfact> 0.26301997E-01</totfact>
</mgrwt>
</event>
<event>
 4    1  0.2552184E-008  0.3551094E+04  0.7816531E-02  0.8101787E-01
         -2   -1    0    0    0  501 -0.00000000000E+00  0.00000000000E+00  0.12673294951E+04  0.12673294951E+04  0.00000000000E+00 0. -1.
          2   -1    0    0  501    0  0.00000000000E+00 -0.00000000000E+00 -0.24875676205E+04  0.24875676205E+04  0.00000000000E+00 0.  1.
    2000013    1    1    2    0    0  0.48841462880E+01  0.97515444335E+03  0.59508361944E+03  0.14857908862E+04  0.95000000000E+03 0.  0.
   -2000013    1    1    2    0    0 -0.48841462880E+01 -0.97515444335E+03 -0.18153217448E+04  0.22691062294E+04  0.95000000000E+03 0.  0.
<mgrwt>
<rscale>  0 0.35510944E+04</rscale>
<asrwt>0</asrwt>
<pdfrwt beam="2">  1        2 0.38270271E+00 0.35510944E+04</pdfrwt>
<pdfrwt beam="1">  1       -2 0.19497377E+00 0.35510944E+04</pdfrwt>
<totfact> 0.41579170E-01</totfact>
</mgrwt>
</event>
<event>
 4    1  0.2552184E-008  0.2972617E+04  0.7816531E-02  0.8251594E-01
          2   -1    0    0  501    0  0.00000000000E+00  0.00000000000E+00  0.11250876504E+04  0.11250876504E+04  0.00000000000E+00 0.  1.
         -2   -1    0    0    0  501 -0.00000000000E+00 -0.00000000000E+00 -0.19635026812E+04  0.19635026812E+04  0.00000000000E+00 0. -1.
    2000013    1    1    2    0    0 -0.95553123385E+03 -0.26660253891E+03 -0.10092501481E+04  0.17044655215E+04  0.95000000000E+03 0.  0.
   -2000013    1    1    2    0    0  0.95553123385E+03  0.26660253891E+03  0.17083511736E+03  0.13841248101E+04  0.95000000000E+03 0.  0.
<mgrwt>
<rscale>  0 0.29726168E+04</rscale>
<asrwt>0</asrwt>
<pdfrwt beam="1">  1        2 0.17309041E+00 0.29726168E+04</pdfrwt>
<pdfrwt beam="2">  1       -2 0.30207733E+00 0.29726168E+04</pdfrwt>
<totfact> 0.55674257E-01</totfact>
</mgrwt>
</event>
<event>
 4    1  0.2552184E-008  0.2152905E+04  0.7816531E-02  0.8538290E-01
         -2   -1    0    0    0  501 -0.00000000000E+00  0.00000000000E+00  0.43330671378E+03  0.43330671378E+03  0.00000000000E+00 0. -1.
          2   -1    0    0  501    0  0.00000000000E+00 -0.00000000000E+00 -0.26742027056E+04  0.26742027056E+04  0.00000000000E+00 0.  1.
    2000013    1    1    2    0    0 -0.29407321156E+03 -0.31408174848E+03 -0.73550677854E+03  0.12761648090E+04  0.95000000000E+03 0.  0.
   -2000013    1    1    2    0    0  0.29407321156E+03  0.31408174848E+03 -0.15053892133E+04  0.18313446104E+04  0.95000000000E+03 0.  0.
<mgrwt>
<rscale>  0 0.21529050E+04</rscale>
<asrwt>0</asrwt>
<pdfrwt beam="2">  1        2 0.41141580E+00 0.21529050E+04</pdfrwt>
<pdfrwt beam="1">  1       -2 0.66662572E-01 0.21529050E+04</pdfrwt>
<totfact> 0.52212785E+00</totfact>
</mgrwt>
</event>
<event>
 4    1  0.2552184E-008  0.2385494E+04  0.7816531E-02  0.8444954E-01
          1   -1    0    0  501    0  0.00000000000E+00  0.00000000000E+00  0.14276436027E+04  0.14276436027E+04  0.00000000000E+00 0.  1.
         -1   -1    0    0    0  501 -0.00000000000E+00 -0.00000000000E+00 -0.99649918044E+03  0.99649918044E+03  0.00000000000E+00 0. -1.
    2000013    1    1    2    0    0 -0.62708681795E+03  0.83485721761E+02 -0.13635926686E+03  0.11494788352E+04  0.95000000000E+03 0.  0.
   -2000013    1    1    2    0    0  0.62708681795E+03 -0.83485721761E+02  0.56750368916E+03  0.12746639479E+04  0.95000000000E+03 0.  0.
<mgrwt>
<rscale>  0 0.23854942E+04</rscale>
<asrwt>0</asrwt>
<pdfrwt beam="1">  1        1 0.21963748E+00 0.23854942E+04</pdfrwt>
<pdfrwt beam="2">  1       -1 0.15330757E+00 0.23854942E+04</pdfrwt>
<totfact> 0.21679924E+00</totfact>
</mgrwt>
</event>
<event>
 4    1  0.2552184E-008  0.2538465E+04  0.7816531E-02  0.8389409E-01
         -2   -1    0    0    0  501 -0.00000000000E+00  0.00000000000E+00  0.73543912560E+03  0.73543912560E+03  0.00000000000E+00 0. -1.
          2   -1    0    0  501    0  0.00000000000E+00 -0.00000000000E+00 -0.21904616569E+04  0.21904616569E+04  0.00000000000E+00 0.  1.
    2000013    1    1    2    0    0 -0.81651901145E+03  0.20370196752E+03 -0.74586004175E+03  0.14720750625E+04  0.95000000000E+03 0.  0.
   -2000013    1    1    2    0    0  0.81651901145E+03 -0.20370196752E+03 -0.70916248953E+03  0.14538257200E+04  0.95000000000E+03 0.  0.
<mgrwt>
<rscale>  0 0.25384651E+04</rscale>
<asrwt>0</asrwt>
<pdfrwt beam="2">  1        2 0.33699409E+00 0.25384651E+04</pdfrwt>
<pdfrwt beam="1">  1       -2 0.11314448E+00 0.25384651E+04</pdfrwt>
<totfact> 0.28513789E+00</totfact>
</mgrwt>
</event>
<event>
 4    1  0.2552184E-008  0.2633267E+04  0.7816531E-02  0.8356988E-01
          2   -1    0    0  501    0  0.00000000000E+00  0.00000000000E+00  0.35706474699E+04  0.35706474699E+04  0.00000000000E+00 0.  1.
         -2   -1    0    0    0  501 -0.00000000000E+00 -0.00000000000E+00 -0.48549266570E+03  0.48549266570E+03  0.00000000000E+00 0. -1.
    2000013    1    1    2    0    0  0.15840303956E+03 -0.89752711261E+03  0.15724742977E+04  0.20508100492E+04  0.95000000000E+03 0.  0.
   -2000013    1    1    2    0    0 -0.15840303956E+03  0.89752711261E+03  0.15126805065E+04  0.20053300864E+04  0.95000000000E+03 0.  0.
<mgrwt>
<rscale>  0 0.26332665E+04</rscale>
<asrwt>0</asrwt>
<pdfrwt beam="1">  1        2 0.54933036E+00 0.26332665E+04</pdfrwt>
<pdfrwt beam="2">  1       -2 0.74691182E-01 0.26332665E+04</pdfrwt>
<totfact> 0.10308434E+00</totfact>
</mgrwt>
</event>
<event>
 4    1  0.2552184E-008  0.2869248E+04  0.7816531E-02  0.8282086E-01
          2   -1    0    0  501    0  0.00000000000E+00  0.00000000000E+00  0.20124773848E+04  0.20124773848E+04  0.00000000000E+00 0.  1.
         -2   -1    0    0    0  501 -0.00000000000E+00 -0.00000000000E+00 -0.10226930038E+04  0.10226930038E+04  0.00000000000E+00 0. -1.
    2000013    1    1    2    0    0 -0.40799922018E+03 -0.62046019254E+03  0.13171532528E+04  0.17857286764E+04  0.95000000000E+03 0.  0.
   -2000013    1    1    2    0    0  0.40799922018E+03  0.62046019254E+03 -0.32736887181E+03  0.12494417123E+04  0.95000000000E+03 0.  0.
<mgrwt>
<rscale>  0 0.28692484E+04</rscale>
<asrwt>0</asrwt>
<pdfrwt beam="1">  1        2 0.30961190E+00 0.28692484E+04</pdfrwt>
<pdfrwt beam="2">  1       -2 0.15733739E+00 0.28692484E+04</pdfrwt>
<totfact> 0.15000198E+00</totfact>
</mgrwt>
</event>
<event>
 4    1  0.2552184E-008  0.2220132E+04  0.7816531E-02  0.8510095E-01
          2   -1    0    0  501    0  0.00000000000E+00  0.00000000000E+00  0.29155447873E+04  0.29155447873E+04  0.00000000000E+00 0.  1.
         -2   -1    0    0    0  501 -0.00000000000E+00 -0.00000000000E+00 -0.42264707663E+03  0.42264707663E+03  0.00000000000E+00 0. -1.
    2000013    1    1    2    0    0  0.38371742864E+03 -0.34965940860E+03  0.16155076708E+04  0.19447019827E+04  0.95000000000E+03 0.  0.
   -2000013    1    1    2    0    0 -0.38371742864E+03  0.34965940860E+03  0.87739003987E+03  0.13934898812E+04  0.95000000000E+03 0.  0.
<mgrwt>
<rscale>  0 0.22201320E+04</rscale>
<asrwt>0</asrwt>
<pdfrwt beam="1">  1        2 0.44854534E+00 0.22201320E+04</pdfrwt>
<pdfrwt beam="2">  1       -2 0.65022629E-01 0.22201320E+04</pdfrwt>
<totfact> 0.39155348E+00</totfact>
</mgrwt>
</event>
<event>
 4    1  0.2552184E-008  0.3424553E+04  0.7816531E-02  0.8131906E-01
          2   -1    0    0  501    0  0.00000000000E+00  0.00000000000E+00  0.24704072877E+04  0.24704072877E+04  0.00000000000E+00 0.  1.
         -2   -1    0    0    0  501 -0.00000000000E+00 -0.00000000000E+00 -0.11868046559E+04  0.11868046559E+04  0.00000000000E+00 0. -1.
    2000013    1    1    2    0    0  0.43935057728E+03  0.12990082184E+04  0.22965510642E+03  0.16839515281E+04  0.95000000000E+03 0.  0.
   -2000013    1    1    2    0    0 -0.43935057728E+03 -0.12990082184E+04  0.10539475254E+04  0.19732604155E+04  0.95000000000E+03 0.  0.
<mgrwt>
<rscale>  0 0.34245530E+04</rscale>
<asrwt>0</asrwt>
<pdfrwt beam="1">  1        2 0.38006266E+00 0.34245530E+04</pdfrwt>
<pdfrwt beam="2">  1       -2 0.18258533E+00 0.34245530E+04</pdfrwt>
<totfact> 0.52101820E-01</totfact>
</mgrwt>
</event>
<event>
 4    1  0.2552184E-008  0.2241360E+04  0.7816531E-02  0.8501408E-01
         -1   -1    0    0    0  501 -0.00000000000E+00  0.00000000000E+00  0.90570556888E+03  0.90570556888E+03  0.00000000000E+00 0. -1.
          1   -1    0    0  501    0  0.00000000000E+00 -0.00000000000E+00 -0.13866804127E+04  0.13866804127E+04  0.00000000000E+00 0.  1.
    2000013    1    1    2    0    0 -0.31037442194E+03  0.36438234422E+03  0.12012608854E+03  0.10705312007E+04  0.95000000000E+03 0.  0.
   -2000013    1    1    2    0    0  0.31037442194E+03 -0.36438234422E+03 -0.60110093231E+03  0.12218547808E+04  0.95000000000E+03 0.  0.
<mgrwt>
<rscale>  0 0.22413605E+04</rscale>
<asrwt>0</asrwt>
<pdfrwt beam="2">  1        1 0.21333545E+00 0.22413605E+04</pdfrwt>
<pdfrwt beam="1">  1       -1 0.13933932E+00 0.22413605E+04</pdfrwt>
<totfact> 0.30268071E+00</totfact>
</mgrwt>
</event>
<event>
 4    1  0.2552184E-008  0.2623694E+04  0.7816531E-02  0.8360197E-01
         -2   -1    0    0    0  501 -0.00000000000E+00  0.00000000000E+00  0.96553503060E+03  0.96553503060E+03  0.00000000000E+00 0. -1.
          2   -1    0    0  501    0  0.00000000000E+00 -0.00000000000E+00 -0.17823721884E+04  0.17823721884E+04  0.00000000000E+00 0.  1.
    2000013    1    1    2    0    0 -0.74058712908E+03 -0.16389810297E+03  0.10798717221E+03  0.12204479150E+04  0.95000000000E+03 0.  0.
   -2000013    1    1    2    0    0  0.74058712908E+03  0.16389810297E+03 -0.92482432997E+03  0.15274593039E+04  0.95000000000E+03 0.  0.
<mgrwt>
<rscale>  0 0.26236942E+04</rscale>
<asrwt>0</asrwt>
<pdfrwt beam="2">  1        2 0.27421110E+00 0.26236942E+04</pdfrwt>
<pdfrwt beam="1">  1       -2 0.14854385E+00 0.26236942E+04</pdfrwt>
<totfact> 0.23959265E+00</totfact>
</mgrwt>
</event>
<event>
 4    1  0.2552184E-008  0.2548283E+04  0.7816531E-02  0.8385984E-01
         -2   -1    0    0    0  501 -0.00000000000E+00  0.00000000000E+00  0.87223548821E+03  0.87223548821E+03  0.00000000000E+00 0. -1.
          2   -1    0    0  501    0  0.00000000000E+00 -0.00000000000E+00 -0.18612361356E+04  0.18612361356E+04  0.00000000000E+00 0.  1.
    2000013    1    1    2    0    0 -0.46014308133E+03  0.59769235325E+03 -0.76339239981E+02  0.12154404486E+04  0.95000000000E+03 0.  0.
   -2000013    1    1    2    0    0  0.46014308133E+03 -0.59769235325E+03 -0.91266140739E+03  0.15180311752E+04  0.95000000000E+03 0.  0.
<mgrwt>
<rscale>  0 0.25482827E+04</rscale>
<asrwt>0</asrwt>
<pdfrwt beam="2">  1        2 0.28634402E+00 0.25482827E+04</pdfrwt>
<pdfrwt beam="1">  1       -2 0.13419008E+00 0.25482827E+04</pdfrwt>
<totfact> 0.28400203E+00</totfact>
</mgrwt>
</event>
<event>
 4    1  0.2552184E-008  0.2528435E+04  0.7816531E-02  0.8392925E-01
         -1   -1    0    0    0  501 -0.00000000000E+00  0.00000000000E+00  0.12654458823E+04  0.12654458823E+04  0.00000000000E+00 0. -1.
          1   -1    0    0  501    0  0.00000000000E+00 -0.00000000000E+00 -0.12629902588E+04  0.12629902588E+04  0.00000000000E+00 0.  1.
    2000013    1    1    2    0    0  0.65703638016E+03 -0.88963858907E+02 -0.50486969951E+03  0.12637265474E+04  0.95000000000E+03 0.  0.
   -2000013    1    1    2    0    0 -0.65703638016E+03  0.88963858907E+02  0.50732532298E+03  0.12647095937E+04  0.95000000000E+03 0.  0.
<mgrwt>
<rscale>  0 0.25284349E+04</rscale>
<asrwt>0</asrwt>
<pdfrwt beam="2">  1        1 0.19430619E+00 0.25284349E+04</pdfrwt>
<pdfrwt beam="1">  1       -1 0.19468398E+00 0.25284349E+04</pdfrwt>
<totfact> 0.13964539E+00</totfact>
</mgrwt>
</event>
<event>
 4    1  0.2552184E-008  0.2421829E+04  0.7816531E-02  0.8431376E-01
          2   -1    0    0  501    0  0.00000000000E+00  0.00000000000E+00  0.14326617142E+04  0.14326617142E+04  0.00000000000E+00 0.  1.
         -2   -1    0    0    0  501 -0.00000000000E+00 -0.00000000000E+00 -0.10234888927E+04  0.10234888927E+04  0.00000000000E+00 0. -1.
    2000013    1    1    2    0    0  0.10752996252E+03  0.64596921887E+03 -0.16800886950E+03  0.11660042473E+04  0.95000000000E+03 0.  0.
   -2000013    1    1    2    0    0 -0.10752996252E+03 -0.64596921887E+03  0.57718169097E+03  0.12901463595E+04  0.95000000000E+03 0.  0.
<mgrwt>
<rscale>  0 0.24218285E+04</rscale>
<asrwt>0</asrwt>
<pdfrwt beam="1">  1        2 0.22040950E+00 0.24218285E+04</pdfrwt>
<pdfrwt beam="2">  1       -2 0.15745983E+00 0.24218285E+04</pdfrwt>
<totfact> 0.32740318E+00</totfact>
</mgrwt>
</event>
<event>
 4    1  0.2552184E-008  0.2306256E+04  0.7816531E-02  0.8475458E-01
          2   -1    0    0  501    0  0.00000000000E+00  0.00000000000E+00  0.27423533076E+04  0.27423533076E+04  0.00000000000E+00 0.  1.
         -2   -1    0    0    0  501 -0.00000000000E+00 -0.00000000000E+00 -0.48487724900E+03  0.48487724900E+03  0.00000000000E+00 0. -1.
    2000013    1    1    2    0    0 -0.61403836589E+03  0.11625459256E+03  0.86085910975E+03  0.14262316263E+04  0.95000000000E+03 0.  0.
   -2000013    1    1    2    0    0  0.61403836589E+03 -0.11625459256E+03  0.13966169489E+04  0.18009989303E+04  0.95000000000E+03 0.  0.
<mgrwt>
<rscale>  0 0.23062565E+04</rscale>
<asrwt>0</asrwt>
<pdfrwt beam="1">  1        2 0.42190050E+00 0.23062565E+04</pdfrwt>
<pdfrwt beam="2">  1       -2 0.74596502E-01 0.23062565E+04</pdfrwt>
<totfact> 0.36692340E+00</totfact>
</mgrwt>
</event>
<event>
 4    1  0.2552184E-008  0.2205744E+04  0.7816531E-02  0.8516041E-01
         -2   -1    0    0    0  501 -0.00000000000E+00  0.00000000000E+00  0.35873156914E+03  0.35873156914E+03  0.00000000000E+00 0. -1.
          2   -1    0    0  501    0  0.00000000000E+00 -0.00000000000E+00 -0.33906312824E+04  0.33906312824E+04  0.00000000000E+00 0.  1.
    2000013    1    1    2    0    0  0.28452142902E+03  0.40052152139E+03 -0.10583970600E+04  0.15046841095E+04  0.95000000000E+03 0.  0.
   -2000013    1    1    2    0    0 -0.28452142902E+03 -0.40052152139E+03 -0.19735026533E+04  0.22446787421E+04  0.95000000000E+03 0.  0.
<mgrwt>
<rscale>  0 0.22057438E+04</rscale>
<asrwt>0</asrwt>
<pdfrwt beam="2">  1        2 0.52163559E+00 0.22057438E+04</pdfrwt>
<pdfrwt beam="1">  1       -2 0.55189471E-01 0.22057438E+04</pdfrwt>
<totfact> 0.27364234E+00</totfact>
</mgrwt>
</event>
<event>
 4    1  0.2552184E-008  0.2147185E+04  0.7816531E-02  0.8540738E-01
          2   -1    0    0  501    0  0.00000000000E+00  0.00000000000E+00  0.13958778855E+04  0.13958778855E+04  0.00000000000E+00 0.  1.
         -2   -1    0    0    0  501 -0.00000000000E+00 -0.00000000000E+00 -0.82571774231E+03  0.82571774231E+03  0.00000000000E+00 0. -1.
    2000013    1    1    2    0    0  0.32850800629E+03 -0.36498979723E+03  0.18710927247E+03  0.10856541540E+04  0.95000000000E+03 0.  0.
   -2000013    1    1    2    0    0 -0.32850800629E+03  0.36498979723E+03  0.38305087067E+03  0.11359414738E+04  0.95000000000E+03 0.  0.
<mgrwt>
<rscale>  0 0.21471853E+04</rscale>
<asrwt>0</asrwt>
<pdfrwt beam="1">  1        2 0.21475044E+00 0.21471853E+04</pdfrwt>
<pdfrwt beam="2">  1       -2 0.12703350E+00 0.21471853E+04</pdfrwt>
<totfact> 0.61504765E+00</totfact>
</mgrwt>
</event>
<event>
 4    1  0.2552184E-008  0.3458169E+04  0.7816531E-02  0.8123776E-01
         -2   -1    0    0    0  501 -0.00000000000E+00  0.00000000000E+00  0.27756730280E+04  0.27756730280E+04  0.00000000000E+00 0. -1.
          2   -1    0    0  501    0  0.00000000000E+00 -0.00000000000E+00 -0.10771200327E+04  0.10771200327E+04  0.00000000000E+00 0.  1.
    2000013    1    1    2    0    0 -0.99517689335E+03 -0.49204064376E+03 -0.18075271169E+03  0.14722950068E+04  0.95000000000E+03 0.  0.
   -2000013    1    1    2    0    0  0.99517689335E+03  0.49204064376E+03  0.18793057070E+04  0.23804980539E+04  0.95000000000E+03 0.  0.
<mgrwt>
<rscale>  0 0.34581689E+04</rscale>
<asrwt>0</asrwt>
<pdfrwt beam="2">  1        2 0.16571078E+00 0.34581689E+04</pdfrwt>
<pdfrwt beam="1">  1       -2 0.42702661E+00 0.34581689E+04</pdfrwt>
<totfact> 0.91344076E-02</totfact>
</mgrwt>
</event>
<event>
 4    1  0.2552184E-008  0.2271475E+04  0.7816531E-02  0.8489254E-01
         -2   -1    0    0    0  501 -0.00000000000E+00  0.00000000000E+00  0.72262100065E+03  0.72262100065E+03  0.00000000000E+00 0. -1.
          2   -1    0    0  501    0  0.00000000000E+00 -0.00000000000E+00 -0.17850288844E+04  0.17850288844E+04  0.00000000000E+00 0.  1.
    2000013    1    1    2    0    0 -0.58767906860E+03  0.11959055535E+03 -0.34736396515E+03  0.11759380566E+04  0.95000000000E+03 0.  0.
   -2000013    1    1    2    0    0  0.58767906860E+03 -0.11959055535E+03 -0.71504391862E+03  0.13317118285E+04  0.95000000000E+03 0.  0.
<mgrwt>
<rscale>  0 0.22714747E+04</rscale>
<asrwt>0</asrwt>
<pdfrwt beam="2">  1        2 0.27461982E+00 0.22714747E+04</pdfrwt>
<pdfrwt beam="1">  1       -2 0.11117246E+00 0.22714747E+04</pdfrwt>
<totfact> 0.51182819E+00</totfact>
</mgrwt>
</event>
<event>
 4    1  0.2552184E-008  0.2308610E+04  0.7816531E-02  0.8474534E-01
         -2   -1    0    0    0  501 -0.00000000000E+00  0.00000000000E+00  0.42234401052E+03  0.42234401052E+03  0.00000000000E+00 0. -1.
          2   -1    0    0  501    0  0.00000000000E+00 -0.00000000000E+00 -0.31548204643E+04  0.31548204643E+04  0.00000000000E+00 0.  1.
    2000013    1    1    2    0    0 -0.37663334284E+03 -0.31816513089E+03 -0.20360006742E+04  0.23001913987E+04  0.95000000000E+03 0.  0.
   -2000013    1    1    2    0    0  0.37663334284E+03  0.31816513089E+03 -0.69647577952E+03  0.12769730760E+04  0.95000000000E+03 0.  0.
<mgrwt>
<rscale>  0 0.23086096E+04</rscale>
<asrwt>0</asrwt>
<pdfrwt beam="2">  1        2 0.48535700E+00 0.23086096E+04</pdfrwt>
<pdfrwt beam="1">  1       -2 0.64976001E-01 0.23086096E+04</pdfrwt>
<totfact> 0.27498455E+00</totfact>
</mgrwt>
</event>
<event>
 4    1  0.2552184E-008  0.4300648E+04  0.7816531E-02  0.7946498E-01
         -2   -1    0    0    0  501 -0.00000000000E+00  0.00000000000E+00  0.27530669346E+04  0.27530669346E+04  0.00000000000E+00 0. -1.
          2   -1    0    0  501    0  0.00000000000E+00 -0.00000000000E+00 -0.16795429769E+04  0.16795429769E+04  0.00000000000E+00 0.  1.
    2000013    1    1    2    0    0 -0.65687915003E+03  0.15200818509E+04  0.15566993651E+04  0.24633213279E+04  0.95000000000E+03 0.  0.
   -2000013    1    1    2    0    0  0.65687915003E+03 -0.15200818509E+04 -0.48317540741E+03  0.19692885836E+04  0.95000000000E+03 0.  0.
<mgrwt>
<rscale>  0 0.43006484E+04</rscale>
<asrwt>0</asrwt>
<pdfrwt beam="2">  1        2 0.25839123E+00 0.43006484E+04</pdfrwt>
<pdfrwt beam="1">  1       -2 0.42354876E+00 0.43006484E+04</pdfrwt>
<totfact> 0.40274788E-02</totfact>
</mgrwt>
</event>
<event>
 4    1  0.2552184E-008  0.2878988E+04  0.7816531E-02  0.8279157E-01
         -2   -1    0    0    0  501 -0.00000000000E+00  0.00000000000E+00  0.16772984426E+04  0.16772984426E+04  0.00000000000E+00 0. -1.
          2   -1    0    0  501    0  0.00000000000E+00 -0.00000000000E+00 -0.12354047702E+04  0.12354047702E+04  0.00000000000E+00 0.  1.
    2000013    1    1    2    0    0 -0.27547598639E+02  0.10586024442E+04 -0.12717088778E+01  0.14226382612E+04  0.95000000000E+03 0.  0.
   -2000013    1    1    2    0    0  0.27547598639E+02 -0.10586024442E+04  0.44316538130E+03  0.14900649516E+04  0.95000000000E+03 0.  0.
<mgrwt>
<rscale>  0 0.28789877E+04</rscale>
<asrwt>0</asrwt>
<pdfrwt beam="2">  1        2 0.19006227E+00 0.28789877E+04</pdfrwt>
<pdfrwt beam="1">  1       -2 0.25804591E+00 0.28789877E+04</pdfrwt>
<totfact> 0.89461962E-01</totfact>
</mgrwt>
</event>
<event>
 4    1  0.2552184E-008  0.2178842E+04  0.7816531E-02  0.8527286E-01
         -2   -1    0    0    0  501 -0.00000000000E+00  0.00000000000E+00  0.81363309482E+03  0.81363309482E+03  0.00000000000E+00 0. -1.
          2   -1    0    0  501    0  0.00000000000E+00 -0.00000000000E+00 -0.14586901837E+04  0.14586901837E+04  0.00000000000E+00 0.  1.
    2000013    1    1    2    0    0  0.49897861526E+03  0.18385886991E+03 -0.36365211093E+03  0.11478356155E+04  0.95000000000E+03 0.  0.
   -2000013    1    1    2    0    0 -0.49897861526E+03 -0.18385886991E+03 -0.28140497793E+03  0.11244876630E+04  0.95000000000E+03 0.  0.
<mgrwt>
<rscale>  0 0.21788425E+04</rscale>
<asrwt>0</asrwt>
<pdfrwt beam="2">  1        2 0.22441387E+00 0.21788425E+04</pdfrwt>
<pdfrwt beam="1">  1       -2 0.12517432E+00 0.21788425E+04</pdfrwt>
<totfact> 0.58620567E+00</totfact>
</mgrwt>
</event>
<event>
 4    1  0.2552184E-008  0.4066889E+04  0.7816531E-02  0.7991187E-01
         -2   -1    0    0    0  501 -0.00000000000E+00  0.00000000000E+00  0.26386641336E+04  0.26386641336E+04  0.00000000000E+00 0. -1.
          2   -1    0    0  501    0  0.00000000000E+00 -0.00000000000E+00 -0.15670418313E+04  0.15670418313E+04  0.00000000000E+00 0.  1.
    2000013    1    1    2    0    0  0.68154149459E+02  0.16351677862E+04 -0.23389148557E+03  0.19067312092E+04  0.95000000000E+03 0.  0.
   -2000013    1    1    2    0    0 -0.68154149459E+02 -0.16351677862E+04  0.13055137879E+04  0.22989747557E+04  0.95000000000E+03 0.  0.
<mgrwt>
<rscale>  0 0.40668893E+04</rscale>
<asrwt>0</asrwt>
<pdfrwt beam="2">  1        2 0.24108336E+00 0.40668893E+04</pdfrwt>
<pdfrwt beam="1">  1       -2 0.40594833E+00 0.40668893E+04</pdfrwt>
<totfact> 0.61928725E-02</totfact>
</mgrwt>
</event>
<event>
 4    1  0.2552184E-008  0.3258576E+04  0.7816531E-02  0.8173516E-01
          2   -1    0    0  501    0  0.00000000000E+00  0.00000000000E+00  0.30292648670E+04  0.30292648670E+04  0.00000000000E+00 0.  1.
         -2   -1    0    0    0  501 -0.00000000000E+00 -0.00000000000E+00 -0.87631160381E+03  0.87631160381E+03  0.00000000000E+00 0. -1.
    2000013    1    1    2    0    0 -0.13176066185E+04 -0.26874258265E+02  0.12245865896E+04  0.20344340103E+04  0.95000000000E+03 0.  0.
   -2000013    1    1    2    0    0  0.13176066185E+04  0.26874258265E+02  0.92836667358E+03  0.18711424605E+04  0.95000000000E+03 0.  0.
<mgrwt>
<rscale>  0 0.32585763E+04</rscale>
<asrwt>0</asrwt>
<pdfrwt beam="1">  1        2 0.46604074E+00 0.32585763E+04</pdfrwt>
<pdfrwt beam="2">  1       -2 0.13481717E+00 0.32585763E+04</pdfrwt>
<totfact> 0.55324863E-01</totfact>
</mgrwt>
</event>
<event>
 4    1  0.2552184E-008  0.3319698E+04  0.7816531E-02  0.8157901E-01
          2   -1    0    0  501    0  0.00000000000E+00  0.00000000000E+00  0.10530346705E+04  0.10530346705E+04  0.00000000000E+00 0.  1.
         -2   -1    0    0    0  501 -0.00000000000E+00 -0.00000000000E+00 -0.26163416548E+04  0.26163416548E+04  0.00000000000E+00 0. -1.
    2000013    1    1    2    0    0  0.11340660655E+04  0.68130809531E+03 -0.42809864654E+03  0.16840590883E+04  0.95000000000E+03 0.  0.
   -2000013    1    1    2    0    0 -0.11340660655E+04 -0.68130809531E+03 -0.11352083377E+04  0.19853172370E+04  0.95000000000E+03 0.  0.
<mgrwt>
<rscale>  0 0.33196979E+04</rscale>
<asrwt>0</asrwt>
<pdfrwt beam="1">  1        2 0.16200534E+00 0.33196979E+04</pdfrwt>
<pdfrwt beam="2">  1       -2 0.40251410E+00 0.33196979E+04</pdfrwt>
<totfact> 0.13875127E-01</totfact>
</mgrwt>
</event>
<event>
 4    1  0.2552184E-008  0.2409456E+04  0.7816531E-02  0.8435972E-01
         -2   -1    0    0    0  501 -0.00000000000E+00  0.00000000000E+00  0.11057790595E+04  0.11057790595E+04  0.00000000000E+00 0.  1.
          2   -1    0    0  501    0  0.00000000000E+00 -0.00000000000E+00 -0.13125307742E+04  0.13125307742E+04  0.00000000000E+00 0. -1.
    2000013    1    1    2    0    0 -0.16222572269E+03  0.72279816608E+03 -0.92628049421E+02  0.12082360405E+04  0.95000000000E+03 0.  0.
   -2000013    1    1    2    0    0  0.16222572269E+03 -0.72279816608E+03 -0.11412366534E+03  0.12100737932E+04  0.95000000000E+03 0.  0.
<mgrwt>
<rscale>  0 0.24094556E+04</rscale>
<asrwt>0</asrwt>
<pdfrwt beam="2">  1        2 0.20192781E+00 0.24094556E+04</pdfrwt>
<pdfrwt beam="1">  1       -2 0.17011986E+00 0.24094556E+04</pdfrwt>
<totfact> 0.31072454E+00</totfact>
</mgrwt>
</event>
<event>
 4    1  0.2552184E-008  0.3956179E+04  0.7816531E-02  0.8013446E-01
         -2   -1    0    0    0  501 -0.00000000000E+00  0.00000000000E+00  0.19555150171E+04  0.19555150171E+04  0.00000000000E+00 0. -1.
          2   -1    0    0  501    0  0.00000000000E+00 -0.00000000000E+00 -0.20009242153E+04  0.20009242153E+04  0.00000000000E+00 0.  1.
    2000013    1    1    2    0    0 -0.11448300880E+04  0.12725656101E+04  0.26064812257E+03  0.19749674950E+04  0.95000000000E+03 0.  0.
   -2000013    1    1    2    0    0  0.11448300880E+04 -0.12725656101E+04 -0.30605732075E+03  0.19814717374E+04  0.95000000000E+03 0.  0.
<mgrwt>
<rscale>  0 0.39561786E+04</rscale>
<asrwt>0</asrwt>
<pdfrwt beam="2">  1        2 0.30783449E+00 0.39561786E+04</pdfrwt>
<pdfrwt beam="1">  1       -2 0.30084847E+00 0.39561786E+04</pdfrwt>
<totfact> 0.16592173E-01</totfact>
</mgrwt>
</event>
<event>
 4    1  0.2552184E-008  0.2545345E+04  0.7816531E-02  0.8387007E-01
          2   -1    0    0  501    0  0.00000000000E+00  0.00000000000E+00  0.18292762129E+04  0.18292762129E+04  0.00000000000E+00 0.  1.
         -2   -1    0    0    0  501 -0.00000000000E+00 -0.00000000000E+00 -0.88542925377E+03  0.88542925377E+03  0.00000000000E+00 0. -1.
    2000013    1    1    2    0    0  0.62102833633E+03  0.50383569695E+03  0.76915673370E+03  0.14606945899E+04  0.95000000000E+03 0.  0.
   -2000013    1    1    2    0    0 -0.62102833633E+03 -0.50383569695E+03  0.17469022540E+03  0.12540108767E+04  0.95000000000E+03 0.  0.
<mgrwt>
<rscale>  0 0.25453445E+04</rscale>
<asrwt>0</asrwt>
<pdfrwt beam="1">  1        2 0.28142711E+00 0.25453445E+04</pdfrwt>
<pdfrwt beam="2">  1       -2 0.13621989E+00 0.25453445E+04</pdfrwt>
<totfact> 0.28476692E+00</totfact>
</mgrwt>
</event>
<event>
 4    1  0.2552184E-008  0.2824816E+04  0.7816531E-02  0.8295605E-01
         -2   -1    0    0    0  501 -0.00000000000E+00  0.00000000000E+00  0.14089288775E+04  0.14089288775E+04  0.00000000000E+00 0. -1.
          2   -1    0    0  501    0  0.00000000000E+00 -0.00000000000E+00 -0.14158956491E+04  0.14158956491E+04  0.00000000000E+00 0.  1.
    2000013    1    1    2    0    0 -0.38016230736E+03 -0.81160913179E+03  0.53425750313E+03  0.14110860507E+04  0.95000000000E+03 0.  0.
   -2000013    1    1    2    0    0  0.38016230736E+03  0.81160913179E+03 -0.54122427481E+03  0.14137384760E+04  0.95000000000E+03 0.  0.
<mgrwt>
<rscale>  0 0.28248159E+04</rscale>
<asrwt>0</asrwt>
<pdfrwt beam="2">  1        2 0.21783010E+00 0.28248159E+04</pdfrwt>
<pdfrwt beam="1">  1       -2 0.21675829E+00 0.28248159E+04</pdfrwt>
<totfact> 0.12754099E+00</totfact>
</mgrwt>
</event>
<event>
 4    1  0.2552184E-008  0.2276359E+04  0.7816531E-02  0.8487301E-01
          2   -1    0    0  501    0  0.00000000000E+00  0.00000000000E+00  0.21596985870E+04  0.21596985870E+04  0.00000000000E+00 0. -1.
         -2   -1    0    0    0  501 -0.00000000000E+00 -0.00000000000E+00 -0.59983014870E+03  0.59983014870E+03  0.00000000000E+00 0.  1.
    2000013    1    1    2    0    0 -0.31056925210E+03  0.11489031780E+03  0.13470066708E+03  0.10150356226E+04  0.95000000000E+03 0.  0.
   -2000013    1    1    2    0    0  0.31056925210E+03 -0.11489031780E+03  0.14251677712E+04  0.17444931131E+04  0.95000000000E+03 0.  0.
<mgrwt>
<rscale>  0 0.22763588E+04</rscale>
<asrwt>0</asrwt>
<pdfrwt beam="1">  1        2 0.33226132E+00 0.22763588E+04</pdfrwt>
<pdfrwt beam="2">  1       -2 0.92281562E-01 0.22763588E+04</pdfrwt>
<totfact> 0.49276894E+00</totfact>
</mgrwt>
</event>
<event>
 4    1  0.2552184E-008  0.4717496E+04  0.7816531E-02  0.7873628E-01
         -1   -1    0    0    0  501 -0.00000000000E+00  0.00000000000E+00  0.21496994681E+04  0.21496994681E+04  0.00000000000E+00 0. -1.
          1   -1    0    0  501    0  0.00000000000E+00 -0.00000000000E+00 -0.25881256057E+04  0.25881256057E+04  0.00000000000E+00 0.  1.
    2000013    1    1    2    0    0 -0.20587738198E+04 -0.10233072184E+03 -0.86398511981E+03  0.24285780829E+04  0.95000000000E+03 0.  0.
   -2000013    1    1    2    0    0  0.20587738198E+04  0.10233072184E+03  0.42555898221E+03  0.23092469909E+04  0.95000000000E+03 0.  0.
<mgrwt>
<rscale>  0 0.47174960E+04</rscale>
<asrwt>0</asrwt>
<pdfrwt beam="2">  1        1 0.39817317E+00 0.47174960E+04</pdfrwt>
<pdfrwt beam="1">  1       -1 0.33072300E+00 0.47174960E+04</pdfrwt>
<totfact> 0.18082500E-02</totfact>
</mgrwt>
</event>
<event>
 4    1  0.2552184E-008  0.2329480E+04  0.7816531E-02  0.8466388E-01
         -2   -1    0    0    0  501 -0.00000000000E+00  0.00000000000E+00  0.78752412341E+03  0.78752412341E+03  0.00000000000E+00 0. -1.
          2   -1    0    0  501    0  0.00000000000E+00 -0.00000000000E+00 -0.17226377307E+04  0.17226377307E+04  0.00000000000E+00 0.  1.
    2000013    1    1    2    0    0  0.27220845828E+03  0.58959749416E+03 -0.66150659273E+03  0.13273332747E+04  0.95000000000E+03 0.  0.
   -2000013    1    1    2    0    0 -0.27220845828E+03 -0.58959749416E+03 -0.27360701457E+03  0.11828285794E+04  0.95000000000E+03 0.  0.
<mgrwt>
<rscale>  0 0.23294796E+04</rscale>
<asrwt>0</asrwt>
<pdfrwt beam="2">  1        2 0.26502119E+00 0.23294796E+04</pdfrwt>
<pdfrwt beam="1">  1       -2 0.12115756E+00 0.23294796E+04</pdfrwt>
<totfact> 0.44675622E+00</totfact>
</mgrwt>
</event>
<event>
 4    1  0.2552184E-008  0.2818209E+04  0.7816531E-02  0.8297637E-01
         -2   -1    0    0    0  501 -0.00000000000E+00  0.00000000000E+00  0.82142306447E+03  0.82142306447E+03  0.00000000000E+00 0. -1.
          2   -1    0    0  501    0  0.00000000000E+00 -0.00000000000E+00 -0.24172380431E+04  0.24172380431E+04  0.00000000000E+00 0.  1.
    2000013    1    1    2    0    0  0.33353201117E+03  0.82849915421E+03 -0.18395461977E+03  0.13168119658E+04  0.95000000000E+03 0.  0.
   -2000013    1    1    2    0    0 -0.33353201117E+03 -0.82849915421E+03 -0.14118603589E+04  0.19218491418E+04  0.95000000000E+03 0.  0.
<mgrwt>
<rscale>  0 0.28182087E+04</rscale>
<asrwt>0</asrwt>
<pdfrwt beam="2">  1        2 0.37188278E+00 0.28182087E+04</pdfrwt>
<pdfrwt beam="1">  1       -2 0.12637278E+00 0.28182087E+04</pdfrwt>
<totfact> 0.15747396E+00</totfact>
</mgrwt>
</event>
<event>
 4    1  0.2552184E-008  0.2441297E+04  0.7816531E-02  0.8424202E-01
         -2   -1    0    0    0  501 -0.00000000000E+00  0.00000000000E+00  0.47737935313E+03  0.47737935313E+03  0.00000000000E+00 0. -1.
          2   -1    0    0  501    0  0.00000000000E+00 -0.00000000000E+00 -0.31211718287E+04  0.31211718287E+04  0.00000000000E+00 0.  1.
    2000013    1    1    2    0    0 -0.56965064773E+03  0.34496217587E+03 -0.76257478872E+03  0.13883519264E+04  0.95000000000E+03 0.  0.
   -2000013    1    1    2    0    0  0.56965064773E+03 -0.34496217587E+03 -0.18812176869E+04  0.22101992554E+04  0.95000000000E+03 0.  0.
<mgrwt>
<rscale>  0 0.24412972E+04</rscale>
<asrwt>0</asrwt>
<pdfrwt beam="2">  1        2 0.48018027E+00 0.24412972E+04</pdfrwt>
<pdfrwt beam="1">  1       -2 0.73442979E-01 0.24412972E+04</pdfrwt>
<totfact> 0.21877556E+00</totfact>
</mgrwt>
</event>
<event>
 4    1  0.2552184E-008  0.2600427E+04  0.7816531E-02  0.8368056E-01
          2   -1    0    0  501    0  0.00000000000E+00  0.00000000000E+00  0.32672091828E+04  0.32672091828E+04  0.00000000000E+00 0.  1.
         -2   -1    0    0    0  501 -0.00000000000E+00 -0.00000000000E+00 -0.51743084227E+03  0.51743084227E+03  0.00000000000E+00 0. -1.
    2000013    1    1    2    0    0 -0.59944677857E+03 -0.53487651678E+03  0.82524895461E+03  0.14929719239E+04  0.95000000000E+03 0.  0.
   -2000013    1    1    2    0    0  0.59944677857E+03  0.53487651678E+03  0.19245293860E+04  0.22916681012E+04  0.95000000000E+03 0.  0.
<mgrwt>
<rscale>  0 0.26004267E+04</rscale>
<asrwt>0</asrwt>
<pdfrwt beam="1">  1        2 0.50264756E+00 0.26004267E+04</pdfrwt>
<pdfrwt beam="2">  1       -2 0.79604746E-01 0.26004267E+04</pdfrwt>
<totfact> 0.14484460E+00</totfact>
</mgrwt>
</event>
<event>
 4    1  0.2552184E-008  0.2322588E+04  0.7816531E-02  0.8469068E-01
         -1   -1    0    0    0  501 -0.00000000000E+00  0.00000000000E+00  0.10392874061E+04  0.10392874061E+04  0.00000000000E+00 0. -1.
          1   -1    0    0  501    0  0.00000000000E+00 -0.00000000000E+00 -0.12976234459E+04  0.12976234459E+04  0.00000000000E+00 0.  1.
    2000013    1    1    2    0    0  0.23851729876E+03  0.55888418248E+03  0.14978103533E+03  0.11376187366E+04  0.95000000000E+03 0.  0.
   -2000013    1    1    2    0    0 -0.23851729876E+03 -0.55888418248E+03 -0.40811707517E+03  0.11992921155E+04  0.95000000000E+03 0.  0.
<mgrwt>
<rscale>  0 0.23225880E+04</rscale>
<asrwt>0</asrwt>
<pdfrwt beam="2">  1        1 0.19963438E+00 0.23225880E+04</pdfrwt>
<pdfrwt beam="1">  1       -1 0.15989037E+00 0.23225880E+04</pdfrwt>
<totfact> 0.23988932E+00</totfact>
</mgrwt>
</event>
<event>
 4    1  0.2552184E-008  0.2162828E+04  0.7816531E-02  0.8534061E-01
         -1   -1    0    0    0  501 -0.00000000000E+00  0.00000000000E+00  0.57279807458E+03  0.57279807458E+03  0.00000000000E+00 0.  1.
          1   -1    0    0  501    0  0.00000000000E+00 -0.00000000000E+00 -0.20416556018E+04  0.20416556018E+04  0.00000000000E+00 0. -1.
    2000013    1    1    2    0    0 -0.29196078585E+03 -0.39564681430E+03 -0.54261609984E+03  0.11994622687E+04  0.95000000000E+03 0.  0.
   -2000013    1    1    2    0    0  0.29196078585E+03  0.39564681430E+03 -0.92624142742E+03  0.14149914078E+04  0.95000000000E+03 0.  0.
<mgrwt>
<rscale>  0 0.21628281E+04</rscale>
<asrwt>0</asrwt>
<pdfrwt beam="2">  1        1 0.31410086E+00 0.21628281E+04</pdfrwt>
<pdfrwt beam="1">  1       -1 0.88122782E-01 0.21628281E+04</pdfrwt>
<totfact> 0.32310541E+00</totfact>
</mgrwt>
</event>
<event>
 4    1  0.2552184E-008  0.2259099E+04  0.7816531E-02  0.8494225E-01
          2   -1    0    0  501    0  0.00000000000E+00  0.00000000000E+00  0.14513000756E+04  0.14513000756E+04  0.00000000000E+00 0.  1.
         -2   -1    0    0    0  501 -0.00000000000E+00 -0.00000000000E+00 -0.87913065210E+03  0.87913065210E+03  0.00000000000E+00 0. -1.
    2000013    1    1    2    0    0 -0.56525391742E+03 -0.20707662272E+03  0.17794304213E+03  0.11386643250E+04  0.95000000000E+03 0.  0.
   -2000013    1    1    2    0    0  0.56525391742E+03  0.20707662272E+03  0.39422638140E+03  0.11917664027E+04  0.95000000000E+03 0.  0.
<mgrwt>
<rscale>  0 0.22590993E+04</rscale>
<asrwt>0</asrwt>
<pdfrwt beam="1">  1        2 0.22327693E+00 0.22590993E+04</pdfrwt>
<pdfrwt beam="2">  1       -2 0.13525087E+00 0.22590993E+04</pdfrwt>
<totfact> 0.48322683E+00</totfact>
</mgrwt>
</event>
<event>
 4    1  0.2552184E-008  0.2828875E+04  0.7816531E-02  0.8294360E-01
         -2   -1    0    0    0  501 -0.00000000000E+00  0.00000000000E+00  0.95372948921E+03  0.95372948921E+03  0.00000000000E+00 0. -1.
          2   -1    0    0  501    0  0.00000000000E+00 -0.00000000000E+00 -0.20976948336E+04  0.20976948336E+04  0.00000000000E+00 0.  1.
    2000013    1    1    2    0    0 -0.93486103420E+03 -0.26173605909E+03 -0.99756232372E+03  0.16852600712E+04  0.95000000000E+03 0.  0.
   -2000013    1    1    2    0    0  0.93486103420E+03  0.26173605909E+03 -0.14640302067E+03  0.13661642516E+04  0.95000000000E+03 0.  0.
<mgrwt>
<rscale>  0 0.28288750E+04</rscale>
<asrwt>0</asrwt>
<pdfrwt beam="2">  1        2 0.32272228E+00 0.28288750E+04</pdfrwt>
<pdfrwt beam="1">  1       -2 0.14672762E+00 0.28288750E+04</pdfrwt>
<totfact> 0.16249802E+00</totfact>
</mgrwt>
</event>
<event>
 4    1  0.2552184E-008  0.2815766E+04  0.7816531E-02  0.8298390E-01
          1   -1    0    0  501    0  0.00000000000E+00  0.00000000000E+00  0.30780597441E+04  0.30780597441E+04  0.00000000000E+00 0.  1.
         -1   -1    0    0    0  501 -0.00000000000E+00 -0.00000000000E+00 -0.64395570125E+03  0.64395570125E+03  0.00000000000E+00 0. -1.
    2000013    1    1    2    0    0 -0.79946054739E+03  0.63524162771E+03  0.96290959040E+03  0.16948049952E+04  0.95000000000E+03 0.  0.
   -2000013    1    1    2    0    0  0.79946054739E+03 -0.63524162771E+03  0.14711944525E+04  0.20272104502E+04  0.95000000000E+03 0.  0.
<mgrwt>
<rscale>  0 0.28157657E+04</rscale>
<asrwt>0</asrwt>
<pdfrwt beam="1">  1        1 0.47354764E+00 0.28157657E+04</pdfrwt>
<pdfrwt beam="2">  1       -1 0.99070110E-01 0.28157657E+04</pdfrwt>
<totfact> 0.44072981E-01</totfact>
</mgrwt>
</event>
<event>
 4    1  0.2552184E-008  0.2564653E+04  0.7816531E-02  0.8380308E-01
          2   -1    0    0  501    0  0.00000000000E+00  0.00000000000E+00  0.18373836064E+04  0.18373836064E+04  0.00000000000E+00 0.  1.
         -2   -1    0    0    0  501 -0.00000000000E+00 -0.00000000000E+00 -0.89494745157E+03  0.89494745157E+03  0.00000000000E+00 0. -1.
    2000013    1    1    2    0    0  0.54624931826E+03  0.21236631722E+03  0.11436528028E+04  0.15981018440E+04  0.95000000000E+03 0.  0.
   -2000013    1    1    2    0    0 -0.54624931826E+03 -0.21236631722E+03 -0.20121664801E+03  0.11342292140E+04  0.95000000000E+03 0.  0.
<mgrwt>
<rscale>  0 0.25646534E+04</rscale>
<asrwt>0</asrwt>
<pdfrwt beam="1">  1        2 0.28267440E+00 0.25646534E+04</pdfrwt>
<pdfrwt beam="2">  1       -2 0.13768422E+00 0.25646534E+04</pdfrwt>
<totfact> 0.27373159E+00</totfact>
</mgrwt>
</event>
<event>
 4    1  0.2552184E-008  0.2378676E+04  0.7816531E-02  0.8447530E-01
          2   -1    0    0  501    0  0.00000000000E+00  0.00000000000E+00  0.29495543047E+04  0.29495543047E+04  0.00000000000E+00 0.  1.
         -2   -1    0    0    0  501 -0.00000000000E+00 -0.00000000000E+00 -0.47957235582E+03  0.47957235582E+03  0.00000000000E+00 0. -1.
    2000013    1    1    2    0    0 -0.36290810703E+03 -0.61580992737E+03  0.12828156798E+04  0.17490112147E+04  0.95000000000E+03 0.  0.
   -2000013    1    1    2    0    0  0.36290810703E+03  0.61580992737E+03  0.11871662690E+04  0.16801154458E+04  0.95000000000E+03 0.  0.
<mgrwt>
<rscale>  0 0.23786759E+04</rscale>
<asrwt>0</asrwt>
<pdfrwt beam="1">  1        2 0.45377757E+00 0.23786759E+04</pdfrwt>
<pdfrwt beam="2">  1       -2 0.73780364E-01 0.23786759E+04</pdfrwt>
<totfact> 0.27936986E+00</totfact>
</mgrwt>
</event>
<event>
 4    1  0.2552184E-008  0.4158964E+04  0.7816531E-02  0.7973224E-01
          2   -1    0    0  501    0  0.00000000000E+00  0.00000000000E+00  0.17041888800E+04  0.17041888800E+04  0.00000000000E+00 0.  1.
         -2   -1    0    0    0  501 -0.00000000000E+00 -0.00000000000E+00 -0.25374220165E+04  0.25374220165E+04  0.00000000000E+00 0. -1.
    2000013    1    1    2    0    0 -0.15971055352E+04  0.88110908116E+03 -0.10285537571E+03  0.20591693791E+04  0.95000000000E+03 0.  0.
   -2000013    1    1    2    0    0  0.15971055352E+04 -0.88110908116E+03 -0.73037776077E+03  0.21824415174E+04  0.95000000000E+03 0.  0.
<mgrwt>
<rscale>  0 0.41589645E+04</rscale>
<asrwt>0</asrwt>
<pdfrwt beam="1">  1        2 0.26218290E+00 0.41589645E+04</pdfrwt>
<pdfrwt beam="2">  1       -2 0.39037262E+00 0.41589645E+04</pdfrwt>
<totfact> 0.65140094E-02</totfact>
</mgrwt>
</event>
<event>
 4    1  0.2552184E-008  0.2256474E+04  0.7816531E-02  0.8495283E-01
          2   -1    0    0  501    0  0.00000000000E+00  0.00000000000E+00  0.44488783154E+04  0.44488783154E+04  0.00000000000E+00 0.  1.
         -2   -1    0    0    0  501 -0.00000000000E+00 -0.00000000000E+00 -0.28612135810E+03  0.28612135810E+03  0.00000000000E+00 0. -1.
    2000013    1    1    2    0    0  0.47655728729E+03 -0.25958847467E+03  0.26595877463E+04  0.28758303156E+04  0.95000000000E+03 0.  0.
   -2000013    1    1    2    0    0 -0.47655728729E+03  0.25958847467E+03  0.15031692111E+04  0.18591693579E+04  0.95000000000E+03 0.  0.
<mgrwt>
<rscale>  0 0.22564743E+04</rscale>
<asrwt>0</asrwt>
<pdfrwt beam="1">  1        2 0.68444277E+00 0.22564743E+04</pdfrwt>
<pdfrwt beam="2">  1       -2 0.44018674E-01 0.22564743E+04</pdfrwt>
<totfact> 0.62037813E-01</totfact>
</mgrwt>
</event>
<event>
 4    1  0.2552184E-008  0.2792696E+04  0.7816531E-02  0.8305540E-01
         -2   -1    0    0    0  501 -0.00000000000E+00  0.00000000000E+00  0.10626306326E+04  0.10626306326E+04  0.00000000000E+00 0. -1.
          2   -1    0    0  501    0  0.00000000000E+00 -0.00000000000E+00 -0.18348684407E+04  0.18348684407E+04  0.00000000000E+00 0.  1.
    2000013    1    1    2    0    0  0.71857138198E+03  0.50371277118E+03 -0.93239078366E+03  0.15943412308E+04  0.95000000000E+03 0.  0.
   -2000013    1    1    2    0    0 -0.71857138198E+03 -0.50371277118E+03  0.16015297551E+03  0.13031578425E+04  0.95000000000E+03 0.  0.
<mgrwt>
<rscale>  0 0.27926958E+04</rscale>
<asrwt>0</asrwt>
<pdfrwt beam="2">  1        2 0.28228745E+00 0.27926958E+04</pdfrwt>
<pdfrwt beam="1">  1       -2 0.16348163E+00 0.27926958E+04</pdfrwt>
<totfact> 0.17066369E+00</totfact>
</mgrwt>
</event>
<event>
 4    1  0.2552184E-008  0.3360304E+04  0.7816531E-02  0.8147718E-01
         -1   -1    0    0    0  501 -0.00000000000E+00  0.00000000000E+00  0.12610271922E+04  0.12610271922E+04  0.00000000000E+00 0. -1.
          1   -1    0    0  501    0  0.00000000000E+00 -0.00000000000E+00 -0.22385810003E+04  0.22385810003E+04  0.00000000000E+00 0.  1.
    2000013    1    1    2    0    0  0.67362602196E+03  0.11038201039E+04  0.30094541987E+02  0.16048665118E+04  0.95000000000E+03 0.  0.
   -2000013    1    1    2    0    0 -0.67362602196E+03 -0.11038201039E+04 -0.10076483501E+04  0.18947416807E+04  0.95000000000E+03 0.  0.
<mgrwt>
<rscale>  0 0.33603045E+04</rscale>
<asrwt>0</asrwt>
<pdfrwt beam="2">  1        1 0.34439707E+00 0.33603045E+04</pdfrwt>
<pdfrwt beam="1">  1       -1 0.19400419E+00 0.33603045E+04</pdfrwt>
<totfact> 0.28033391E-01</totfact>
</mgrwt>
</event>
<event>
 4    1  0.2552184E-008  0.2352593E+04  0.7816531E-02  0.8457468E-01
          2   -1    0    0  501    0  0.00000000000E+00  0.00000000000E+00  0.19727335208E+04  0.19727335208E+04  0.00000000000E+00 0.  1.
         -2   -1    0    0    0  501 -0.00000000000E+00 -0.00000000000E+00 -0.70139899116E+03  0.70139899116E+03  0.00000000000E+00 0. -1.
    2000013    1    1    2    0    0 -0.46374957055E+03  0.48699280371E+03  0.82906116713E+03  0.14290094730E+04  0.95000000000E+03 0.  0.
   -2000013    1    1    2    0    0  0.46374957055E+03 -0.48699280371E+03  0.44227336254E+03  0.12451230390E+04  0.95000000000E+03 0.  0.
<mgrwt>
<rscale>  0 0.23525929E+04</rscale>
<asrwt>0</asrwt>
<pdfrwt beam="1">  1        2 0.30349746E+00 0.23525929E+04</pdfrwt>
<pdfrwt beam="2">  1       -2 0.10790754E+00 0.23525929E+04</pdfrwt>
<totfact> 0.42986054E+00</totfact>
</mgrwt>
</event>
<event>
 4    1  0.2552184E-008  0.2411107E+04  0.7816531E-02  0.8435357E-01
         -2   -1    0    0    0  501 -0.00000000000E+00  0.00000000000E+00  0.46110769719E+03  0.46110769719E+03  0.00000000000E+00 0. -1.
          2   -1    0    0  501    0  0.00000000000E+00 -0.00000000000E+00 -0.31518870644E+04  0.31518870644E+04  0.00000000000E+00 0.  1.
    2000013    1    1    2    0    0 -0.62346363437E+03  0.93480807527E+02 -0.19323153074E+04  0.22436104858E+04  0.95000000000E+03 0.  0.
   -2000013    1    1    2    0    0  0.62346363437E+03 -0.93480807527E+02 -0.75846405978E+03  0.13693842758E+04  0.95000000000E+03 0.  0.
<mgrwt>
<rscale>  0 0.24111071E+04</rscale>
<asrwt>0</asrwt>
<pdfrwt beam="2">  1        2 0.48490571E+00 0.24111071E+04</pdfrwt>
<pdfrwt beam="1">  1       -2 0.70939644E-01 0.24111071E+04</pdfrwt>
<totfact> 0.22621067E+00</totfact>
</mgrwt>
</event>
<event>
 4    1  0.2552184E-008  0.3486550E+04  0.7816531E-02  0.8116985E-01
         -2   -1    0    0    0  501 -0.00000000000E+00  0.00000000000E+00  0.11326797268E+04  0.11326797268E+04  0.00000000000E+00 0. -1.
          2   -1    0    0  501    0  0.00000000000E+00 -0.00000000000E+00 -0.26830249954E+04  0.26830249954E+04  0.00000000000E+00 0.  1.
    2000013    1    1    2    0    0 -0.10998549823E+04  0.79511895790E+03 -0.18114765847E+03  0.16664962087E+04  0.95000000000E+03 0.  0.
   -2000013    1    1    2    0    0  0.10998549823E+04 -0.79511895790E+03 -0.13691976101E+04  0.21492085136E+04  0.95000000000E+03 0.  0.
<mgrwt>
<rscale>  0 0.34865502E+04</rscale>
<asrwt>0</asrwt>
<pdfrwt beam="2">  1        2 0.41277307E+00 0.34865502E+04</pdfrwt>
<pdfrwt beam="1">  1       -2 0.17425842E+00 0.34865502E+04</pdfrwt>
<totfact> 0.44448614E-01</totfact>
</mgrwt>
</event>
<event>
 4    1  0.2552184E-008  0.2712915E+04  0.7816531E-02  0.8330827E-01
          1   -1    0    0  501    0  0.00000000000E+00  0.00000000000E+00  0.12994499233E+04  0.12994499233E+04  0.00000000000E+00 0.  1.
         -1   -1    0    0    0  501 -0.00000000000E+00 -0.00000000000E+00 -0.14159658719E+04  0.14159658719E+04  0.00000000000E+00 0. -1.
    2000013    1    1    2    0    0 -0.36819189661E+03  0.89060654934E+03 -0.15178631796E+03  0.13617211112E+04  0.95000000000E+03 0.  0.
   -2000013    1    1    2    0    0  0.36819189661E+03 -0.89060654934E+03  0.35270369393E+02  0.13536946840E+04  0.95000000000E+03 0.  0.
<mgrwt>
<rscale>  0 0.27129148E+04</rscale>
<asrwt>0</asrwt>
<pdfrwt beam="1">  1        1 0.19991537E+00 0.27129148E+04</pdfrwt>
<pdfrwt beam="2">  1       -1 0.21784090E+00 0.27129148E+04</pdfrwt>
<totfact> 0.89854871E-01</totfact>
</mgrwt>
</event>
<event>
 4    1  0.2552184E-008  0.2128460E+04  0.7816531E-02  0.8548809E-01
         -2   -1    0    0    0  501 -0.00000000000E+00  0.00000000000E+00  0.39510855119E+04  0.39510855119E+04  0.00000000000E+00 0. -1.
          2   -1    0    0  501    0  0.00000000000E+00 -0.00000000000E+00 -0.28665169750E+03  0.28665169750E+03  0.00000000000E+00 0.  1.
    2000013    1    1    2    0    0  0.24851155293E+02  0.45870911928E+03  0.21070433961E+04  0.23565151196E+04  0.95000000000E+03 0.  0.
   -2000013    1    1    2    0    0 -0.24851155293E+02 -0.45870911928E+03  0.15573904184E+04  0.18812220898E+04  0.95000000000E+03 0.  0.
<mgrwt>
<rscale>  0 0.21284599E+04</rscale>
<asrwt>0</asrwt>
<pdfrwt beam="2">  1        2 0.44100264E-01 0.21284599E+04</pdfrwt>
<pdfrwt beam="1">  1       -2 0.60785927E+00 0.21284599E+04</pdfrwt>
<totfact> 0.49231172E-02</totfact>
</mgrwt>
</event>
<event>
 4    1  0.2552184E-008  0.2291083E+04  0.7816531E-02  0.8481445E-01
         -2   -1    0    0    0  501 -0.00000000000E+00  0.00000000000E+00  0.55428627821E+03  0.55428627821E+03  0.00000000000E+00 0. -1.
          2   -1    0    0  501    0  0.00000000000E+00 -0.00000000000E+00 -0.23674874577E+04  0.23674874577E+04  0.00000000000E+00 0.  1.
    2000013    1    1    2    0    0  0.62757324228E+03  0.10904569828E+03 -0.82567630814E+03  0.14106666880E+04  0.95000000000E+03 0.  0.
   -2000013    1    1    2    0    0 -0.62757324228E+03 -0.10904569828E+03 -0.98752487130E+03  0.15111070479E+04  0.95000000000E+03 0.  0.
<mgrwt>
<rscale>  0 0.22910834E+04</rscale>
<asrwt>0</asrwt>
<pdfrwt beam="2">  1        2 0.36422884E+00 0.22910834E+04</pdfrwt>
<pdfrwt beam="1">  1       -2 0.85274813E-01 0.22910834E+04</pdfrwt>
<totfact> 0.45025176E+00</totfact>
</mgrwt>
</event>
<event>
 4    1  0.2552184E-008  0.3121720E+04  0.7816531E-02  0.8209802E-01
          2   -1    0    0  501    0  0.00000000000E+00  0.00000000000E+00  0.19940190250E+04  0.19940190250E+04  0.00000000000E+00 0.  1.
         -2   -1    0    0    0  501 -0.00000000000E+00 -0.00000000000E+00 -0.12217961127E+04  0.12217961127E+04  0.00000000000E+00 0. -1.
    2000013    1    1    2    0    0  0.75309399566E+03 -0.96972933711E+03  0.21918033517E+03  0.15678219200E+04  0.95000000000E+03 0.  0.
   -2000013    1    1    2    0    0 -0.75309399566E+03  0.96972933711E+03  0.55304257704E+03  0.16479932177E+04  0.95000000000E+03 0.  0.
<mgrwt>
<rscale>  0 0.31217205E+04</rscale>
<asrwt>0</asrwt>
<pdfrwt beam="1">  1        2 0.30677216E+00 0.31217205E+04</pdfrwt>
<pdfrwt beam="2">  1       -2 0.18796863E+00 0.31217205E+04</pdfrwt>
<totfact> 0.91280073E-01</totfact>
</mgrwt>
</event>
<event>
 4    1  0.2552184E-008  0.2816030E+04  0.7816531E-02  0.8298309E-01
          2   -1    0    0  501    0  0.00000000000E+00  0.00000000000E+00  0.37686279574E+04  0.37686279574E+04  0.00000000000E+00 0.  1.
         -2   -1    0    0    0  501 -0.00000000000E+00 -0.00000000000E+00 -0.52605521767E+03  0.52605521767E+03  0.00000000000E+00 0. -1.
    2000013    1    1    2    0    0 -0.43317847197E+03 -0.93626087977E+03  0.18128552671E+04  0.22919799831E+04  0.95000000000E+03 0.  0.
   -2000013    1    1    2    0    0  0.43317847197E+03  0.93626087977E+03  0.14297174727E+04  0.20027031920E+04  0.95000000000E+03 0.  0.
<mgrwt>
<rscale>  0 0.28160301E+04</rscale>
<asrwt>0</asrwt>
<pdfrwt beam="1">  1        2 0.57978890E+00 0.28160301E+04</pdfrwt>
<pdfrwt beam="2">  1       -2 0.80931574E-01 0.28160301E+04</pdfrwt>
<totfact> 0.60717441E-01</totfact>
</mgrwt>
</event>
<event>
 4    1  0.2552184E-008  0.2625689E+04  0.7816531E-02  0.8359527E-01
          1   -1    0    0  501    0  0.00000000000E+00  0.00000000000E+00  0.27364200712E+04  0.27364200712E+04  0.00000000000E+00 0.  1.
         -1   -1    0    0    0  501 -0.00000000000E+00 -0.00000000000E+00 -0.62985963920E+03  0.62985963920E+03  0.00000000000E+00 0. -1.
    2000013    1    1    2    0    0  0.58211904652E+03  0.19773152941E+03  0.19986985467E+03  0.11490902057E+04  0.95000000000E+03 0.  0.
   -2000013    1    1    2    0    0 -0.58211904652E+03 -0.19773152941E+03  0.19066905773E+04  0.22171895047E+04  0.95000000000E+03 0.  0.
<mgrwt>
<rscale>  0 0.26256889E+04</rscale>
<asrwt>0</asrwt>
<pdfrwt beam="1">  1        1 0.42098770E+00 0.26256889E+04</pdfrwt>
<pdfrwt beam="2">  1       -1 0.96901484E-01 0.26256889E+04</pdfrwt>
<totfact> 0.83182981E-01</totfact>
</mgrwt>
</event>
<event>
 4    1  0.2552184E-008  0.2759936E+04  0.7816531E-02  0.8315816E-01
         -2   -1    0    0    0  501 -0.00000000000E+00  0.00000000000E+00  0.18180991238E+04  0.18180991238E+04  0.00000000000E+00 0. -1.
          2   -1    0    0  501    0  0.00000000000E+00 -0.00000000000E+00 -0.10474188327E+04  0.10474188327E+04  0.00000000000E+00 0.  1.
    2000013    1    1    2    0    0  0.12218223466E+03 -0.97921232843E+03  0.21152621921E+03  0.13860117691E+04  0.95000000000E+03 0.  0.
   -2000013    1    1    2    0    0 -0.12218223466E+03  0.97921232843E+03  0.55915407185E+03  0.14795061874E+04  0.95000000000E+03 0.  0.
<mgrwt>
<rscale>  0 0.27599357E+04</rscale>
<asrwt>0</asrwt>
<pdfrwt beam="2">  1        2 0.16114136E+00 0.27599357E+04</pdfrwt>
<pdfrwt beam="1">  1       -2 0.27970756E+00 0.27599357E+04</pdfrwt>
<totfact> 0.86736362E-01</totfact>
</mgrwt>
</event>
<event>
 4    1  0.2552184E-008  0.2492678E+04  0.7816531E-02  0.8405599E-01
         -2   -1    0    0    0  501 -0.00000000000E+00  0.00000000000E+00  0.59383316826E+03  0.59383316826E+03  0.00000000000E+00 0. -1.
          2   -1    0    0  501    0  0.00000000000E+00 -0.00000000000E+00 -0.26158209665E+04  0.26158209665E+04  0.00000000000E+00 0.  1.
    2000013    1    1    2    0    0  0.80673384118E+03  0.41854008580E+01 -0.10173339746E+04  0.16088211287E+04  0.95000000000E+03 0.  0.
   -2000013    1    1    2    0    0 -0.80673384118E+03 -0.41854008580E+01 -0.10046538236E+04  0.16008330061E+04  0.95000000000E+03 0.  0.
<mgrwt>
<rscale>  0 0.24926783E+04</rscale>
<asrwt>0</asrwt>
<pdfrwt beam="2">  1        2 0.40243400E+00 0.24926783E+04</pdfrwt>
<pdfrwt beam="1">  1       -2 0.91358948E-01 0.24926783E+04</pdfrwt>
<totfact> 0.27131304E+00</totfact>
</mgrwt>
</event>
<event>
 4    1  0.2552184E-008  0.2550655E+04  0.7816531E-02  0.8385159E-01
          2   -1    0    0  501    0  0.00000000000E+00  0.00000000000E+00  0.17783620241E+04  0.17783620241E+04  0.00000000000E+00 0.  1.
         -2   -1    0    0    0  501 -0.00000000000E+00 -0.00000000000E+00 -0.91458314406E+03  0.91458314406E+03  0.00000000000E+00 0. -1.
    2000013    1    1    2    0    0 -0.80300209463E+03 -0.25215537595E+03  0.56361002578E+03  0.13887227797E+04  0.95000000000E+03 0.  0.
   -2000013    1    1    2    0    0  0.80300209463E+03  0.25215537595E+03  0.30016885427E+03  0.13042223885E+04  0.95000000000E+03 0.  0.
<mgrwt>
<rscale>  0 0.25506548E+04</rscale>
<asrwt>0</asrwt>
<pdfrwt beam="1">  1        2 0.27359416E+00 0.25506548E+04</pdfrwt>
<pdfrwt beam="2">  1       -2 0.14070510E+00 0.25506548E+04</pdfrwt>
<totfact> 0.27933692E+00</totfact>
</mgrwt>
</event>
<event>
 4    1  0.2552184E-008  0.2019638E+04  0.7816531E-02  0.8597494E-01
          2   -1    0    0  501    0  0.00000000000E+00  0.00000000000E+00  0.23275364492E+04  0.23275364492E+04  0.00000000000E+00 0.  1.
         -2   -1    0    0    0  501 -0.00000000000E+00 -0.00000000000E+00 -0.43811753527E+03  0.43811753527E+03  0.00000000000E+00 0. -1.
    2000013    1    1    2    0    0 -0.25802710288E+03  0.64224562588E+02  0.64931728111E+03  0.11810231631E+04  0.95000000000E+03 0.  0.
   -2000013    1    1    2    0    0  0.25802710288E+03 -0.64224562588E+02  0.12401016328E+04  0.15846308213E+04  0.95000000000E+03 0.  0.
<mgrwt>
<rscale>  0 0.20196381E+04</rscale>
<asrwt>0</asrwt>
<pdfrwt beam="1">  1        2 0.35808252E+00 0.20196381E+04</pdfrwt>
<pdfrwt beam="2">  1       -2 0.67402699E-01 0.20196381E+04</pdfrwt>
<totfact> 0.81891181E+00</totfact>
</mgrwt>
</event>
<event>
 4    1  0.2552184E-008  0.3335276E+04  0.7816531E-02  0.8153977E-01
         -2   -1    0    0    0  501 -0.00000000000E+00  0.00000000000E+00  0.19365044793E+04  0.19365044793E+04  0.00000000000E+00 0. -1.
          2   -1    0    0  501    0  0.00000000000E+00 -0.00000000000E+00 -0.14361009837E+04  0.14361009837E+04  0.00000000000E+00 0.  1.
    2000013    1    1    2    0    0  0.85726596825E+03  0.97721744946E+03 -0.18900639390E+03  0.16211361142E+04  0.95000000000E+03 0.  0.
   -2000013    1    1    2    0    0 -0.85726596825E+03 -0.97721744946E+03  0.68940988951E+03  0.17514693487E+04  0.95000000000E+03 0.  0.
<mgrwt>
<rscale>  0 0.33352757E+04</rscale>
<asrwt>0</asrwt>
<pdfrwt beam="2">  1        2 0.22093861E+00 0.33352757E+04</pdfrwt>
<pdfrwt beam="1">  1       -2 0.29792377E+00 0.33352757E+04</pdfrwt>
<totfact> 0.37607284E-01</totfact>
</mgrwt>
</event>
<event>
 4    1  0.2552184E-008  0.2365711E+04  0.7816531E-02  0.8452453E-01
         -2   -1    0    0    0  501 -0.00000000000E+00  0.00000000000E+00  0.14148587196E+04  0.14148587196E+04  0.00000000000E+00 0. -1.
          2   -1    0    0  501    0  0.00000000000E+00 -0.00000000000E+00 -0.98889563105E+03  0.98889563105E+03  0.00000000000E+00 0.  1.
    2000013    1    1    2    0    0  0.35229329673E+02 -0.50108260839E+03  0.71522032992E+03  0.12908776109E+04  0.95000000000E+03 0.  0.
   -2000013    1    1    2    0    0 -0.35229329673E+02  0.50108260839E+03 -0.28925724137E+03  0.11128767397E+04  0.95000000000E+03 0.  0.
<mgrwt>
<rscale>  0 0.23657114E+04</rscale>
<asrwt>0</asrwt>
<pdfrwt beam="2">  1        2 0.15213779E+00 0.23657114E+04</pdfrwt>
<pdfrwt beam="1">  1       -2 0.21767057E+00 0.23657114E+04</pdfrwt>
<totfact> 0.23608619E+00</totfact>
</mgrwt>
</event>
<event>
 4    1  0.2552184E-008  0.3270974E+04  0.7816531E-02  0.8170321E-01
         -2   -1    0    0    0  501 -0.00000000000E+00  0.00000000000E+00  0.98297290566E+03  0.98297290566E+03  0.00000000000E+00 0. -1.
          2   -1    0    0  501    0  0.00000000000E+00 -0.00000000000E+00 -0.27211503721E+04  0.27211503721E+04  0.00000000000E+00 0.  1.
    2000013    1    1    2    0    0  0.12717647717E+04 -0.39308029374E+03 -0.89227813340E+03  0.18629433752E+04  0.95000000000E+03 0.  0.
   -2000013    1    1    2    0    0 -0.12717647717E+04  0.39308029374E+03 -0.84589933300E+03  0.18411799025E+04  0.95000000000E+03 0.  0.
<mgrwt>
<rscale>  0 0.32709736E+04</rscale>
<asrwt>0</asrwt>
<pdfrwt beam="2">  1        2 0.41863851E+00 0.32709736E+04</pdfrwt>
<pdfrwt beam="1">  1       -2 0.15122660E+00 0.32709736E+04</pdfrwt>
<totfact> 0.63290395E-01</totfact>
</mgrwt>
</event>
<event>
 4    1  0.2552184E-008  0.3089823E+04  0.7816531E-02  0.8218537E-01
         -2   -1    0    0    0  501 -0.00000000000E+00  0.00000000000E+00  0.14263523651E+04  0.14263523651E+04  0.00000000000E+00 0. -1.
          2   -1    0    0  501    0  0.00000000000E+00 -0.00000000000E+00 -0.16733248476E+04  0.16733248476E+04  0.00000000000E+00 0.  1.
    2000013    1    1    2    0    0 -0.38135024009E+03 -0.41813533660E+03  0.95883642071E+03  0.14636025577E+04  0.95000000000E+03 0.  0.
   -2000013    1    1    2    0    0  0.38135024009E+03  0.41813533660E+03 -0.12058089032E+04  0.16360746549E+04  0.95000000000E+03 0.  0.
<mgrwt>
<rscale>  0 0.30898226E+04</rscale>
<asrwt>0</asrwt>
<pdfrwt beam="2">  1        2 0.25743459E+00 0.30898226E+04</pdfrwt>
<pdfrwt beam="1">  1       -2 0.21943883E+00 0.30898226E+04</pdfrwt>
<totfact> 0.85936804E-01</totfact>
</mgrwt>
</event>
<event>
 4    1  0.2552184E-008  0.2391490E+04  0.7816531E-02  0.8442697E-01
         -2   -1    0    0    0  501 -0.00000000000E+00  0.00000000000E+00  0.14752810454E+04  0.14752810454E+04  0.00000000000E+00 0. -1.
          2   -1    0    0  501    0  0.00000000000E+00 -0.00000000000E+00 -0.96917514710E+03  0.96917514710E+03  0.00000000000E+00 0.  1.
    2000013    1    1    2    0    0  0.62445772818E+03  0.81792455422E+01 -0.12568198542E+03  0.11438139341E+04  0.95000000000E+03 0.  0.
   -2000013    1    1    2    0    0 -0.62445772818E+03 -0.81792455422E+01  0.63178788370E+03  0.13006422584E+04  0.95000000000E+03 0.  0.
<mgrwt>
<rscale>  0 0.23914897E+04</rscale>
<asrwt>0</asrwt>
<pdfrwt beam="2">  1        2 0.14910387E+00 0.23914897E+04</pdfrwt>
<pdfrwt beam="1">  1       -2 0.22696631E+00 0.23914897E+04</pdfrwt>
<totfact> 0.21195622E+00</totfact>
</mgrwt>
</event>
<event>
 4    1  0.2552184E-008  0.3982542E+04  0.7816531E-02  0.8008078E-01
         -2   -1    0    0    0  501 -0.00000000000E+00  0.00000000000E+00  0.20284561218E+04  0.20284561218E+04  0.00000000000E+00 0. -1.
          2   -1    0    0  501    0  0.00000000000E+00 -0.00000000000E+00 -0.19547672060E+04  0.19547672060E+04  0.00000000000E+00 0.  1.
    2000013    1    1    2    0    0  0.16622138342E+04 -0.41879298694E+03  0.38949112270E+03  0.19981355638E+04  0.95000000000E+03 0.  0.
   -2000013    1    1    2    0    0 -0.16622138342E+04  0.41879298694E+03 -0.31580220692E+03  0.19850877639E+04  0.95000000000E+03 0.  0.
<mgrwt>
<rscale>  0 0.39825417E+04</rscale>
<asrwt>0</asrwt>
<pdfrwt beam="2">  1        2 0.30073342E+00 0.39825417E+04</pdfrwt>
<pdfrwt beam="1">  1       -2 0.31207017E+00 0.39825417E+04</pdfrwt>
<totfact> 0.14987285E-01</totfact>
</mgrwt>
</event>
<event>
 4    1  0.2552184E-008  0.2508272E+04  0.7816531E-02  0.8400045E-01
          2   -1    0    0  501    0  0.00000000000E+00  0.00000000000E+00  0.26189400771E+04  0.26189400771E+04  0.00000000000E+00 0.  1.
         -2   -1    0    0    0  501 -0.00000000000E+00 -0.00000000000E+00 -0.60056997045E+03  0.60056997045E+03  0.00000000000E+00 0. -1.
    2000013    1    1    2    0    0  0.34218830890E+03 -0.74104048472E+03  0.92676783178E+03  0.15580861506E+04  0.95000000000E+03 0.  0.
   -2000013    1    1    2    0    0 -0.34218830890E+03  0.74104048472E+03  0.10916022748E+04  0.16614238969E+04  0.95000000000E+03 0.  0.
<mgrwt>
<rscale>  0 0.25082717E+04</rscale>
<asrwt>0</asrwt>
<pdfrwt beam="1">  1        2 0.40291385E+00 0.25082717E+04</pdfrwt>
<pdfrwt beam="2">  1       -2 0.92395381E-01 0.25082717E+04</pdfrwt>
<totfact> 0.26284558E+00</totfact>
</mgrwt>
</event>
<event>
 4    1  0.2552184E-008  0.2122746E+04  0.7816531E-02  0.8551289E-01
          1   -1    0    0  501    0  0.00000000000E+00  0.00000000000E+00  0.85840785221E+03  0.85840785221E+03  0.00000000000E+00 0.  1.
         -1   -1    0    0    0  501 -0.00000000000E+00 -0.00000000000E+00 -0.13123284543E+04  0.13123284543E+04  0.00000000000E+00 0. -1.
    2000013    1    1    2    0    0  0.30884262395E+03  0.13226496021E+03  0.11394590164E+03  0.10140815818E+04  0.95000000000E+03 0.  0.
   -2000013    1    1    2    0    0 -0.30884262395E+03 -0.13226496021E+03 -0.56786650368E+03  0.11566547247E+04  0.95000000000E+03 0.  0.
<mgrwt>
<rscale>  0 0.21227464E+04</rscale>
<asrwt>0</asrwt>
<pdfrwt beam="1">  1        1 0.13206275E+00 0.21227464E+04</pdfrwt>
<pdfrwt beam="2">  1       -1 0.20189668E+00 0.21227464E+04</pdfrwt>
<totfact> 0.26409819E+00</totfact>
</mgrwt>
</event>
<event>
 4    1  0.2552184E-008  0.2335362E+04  0.7816531E-02  0.8464108E-01
          2   -1    0    0  501    0  0.00000000000E+00  0.00000000000E+00  0.59613377020E+03  0.59613377020E+03  0.00000000000E+00 0.  1.
         -2   -1    0    0    0  501 -0.00000000000E+00 -0.00000000000E+00 -0.22872024225E+04  0.22872024225E+04  0.00000000000E+00 0. -1.
    2000013    1    1    2    0    0 -0.77711565958E+02 -0.66161106867E+03 -0.10075046561E+04  0.15366632441E+04  0.95000000000E+03 0.  0.
   -2000013    1    1    2    0    0  0.77711565958E+02  0.66161106867E+03 -0.68356399622E+03  0.13466729486E+04  0.95000000000E+03 0.  0.
<mgrwt>
<rscale>  0 0.23353617E+04</rscale>
<asrwt>0</asrwt>
<pdfrwt beam="1">  1        2 0.91712887E-01 0.23353617E+04</pdfrwt>
<pdfrwt beam="2">  1       -2 0.35187730E+00 0.23353617E+04</pdfrwt>
<totfact> 0.68477047E-01</totfact>
</mgrwt>
</event>
<event>
 4    1  0.2552184E-008  0.2964075E+04  0.7816531E-02  0.8254065E-01
         -2   -1    0    0    0  501 -0.00000000000E+00  0.00000000000E+00  0.61873756020E+03  0.61873756020E+03  0.00000000000E+00 0. -1.
          2   -1    0    0  501    0  0.00000000000E+00 -0.00000000000E+00 -0.35498653273E+04  0.35498653273E+04  0.00000000000E+00 0.  1.
    2000013    1    1    2    0    0 -0.94079677111E+03 -0.13094363023E+03 -0.58538142238E+03  0.14654064994E+04  0.95000000000E+03 0.  0.
   -2000013    1    1    2    0    0  0.94079677111E+03  0.13094363023E+03 -0.23457463447E+04  0.27031963881E+04  0.95000000000E+03 0.  0.
<mgrwt>
<rscale>  0 0.29640749E+04</rscale>
<asrwt>0</asrwt>
<pdfrwt beam="2">  1        2 0.54613313E+00 0.29640749E+04</pdfrwt>
<pdfrwt beam="1">  1       -2 0.95190394E-01 0.29640749E+04</pdfrwt>
<totfact> 0.59671406E-01</totfact>
</mgrwt>
</event>
<event>
 4    1  0.2552184E-008  0.2599182E+04  0.7816531E-02  0.8368479E-01
          2   -1    0    0  501    0  0.00000000000E+00  0.00000000000E+00  0.17990138923E+04  0.17990138923E+04  0.00000000000E+00 0.  1.
         -2   -1    0    0    0  501 -0.00000000000E+00 -0.00000000000E+00 -0.93881250796E+03  0.93881250796E+03  0.00000000000E+00 0. -1.
    2000013    1    1    2    0    0 -0.61273600777E+03 -0.50168709606E+03  0.96849232873E+01  0.12368222004E+04  0.95000000000E+03 0.  0.
   -2000013    1    1    2    0    0  0.61273600777E+03  0.50168709606E+03  0.85051646106E+03  0.15010041999E+04  0.95000000000E+03 0.  0.
<mgrwt>
<rscale>  0 0.25991820E+04</rscale>
<asrwt>0</asrwt>
<pdfrwt beam="1">  1        2 0.27677137E+00 0.25991820E+04</pdfrwt>
<pdfrwt beam="2">  1       -2 0.14443269E+00 0.25991820E+04</pdfrwt>
<totfact> 0.25306360E+00</totfact>
</mgrwt>
</event>
<event>
 4    1  0.2552184E-008  0.4949084E+04  0.7816531E-02  0.7836410E-01
         -2   -1    0    0    0  501 -0.00000000000E+00  0.00000000000E+00  0.15530775471E+04  0.15530775471E+04  0.00000000000E+00 0. -1.
          2   -1    0    0  501    0  0.00000000000E+00 -0.00000000000E+00 -0.39427258326E+04  0.39427258326E+04  0.00000000000E+00 0.  1.
    2000013    1    1    2    0    0  0.60338860821E+03 -0.21636696502E+04 -0.16597841704E+04  0.29500724838E+04  0.95000000000E+03 0.  0.
   -2000013    1    1    2    0    0 -0.60338860821E+03  0.21636696502E+04 -0.72986411507E+03  0.25457308959E+04  0.95000000000E+03 0.  0.
<mgrwt>
<rscale>  0 0.49490843E+04</rscale>
<asrwt>0</asrwt>
<pdfrwt beam="2">  1        2 0.60657319E+00 0.49490843E+04</pdfrwt>
<pdfrwt beam="1">  1       -2 0.23893501E+00 0.49490843E+04</pdfrwt>
<totfact> 0.20820830E-02</totfact>
</mgrwt>
</event>
<event>
 4    1  0.2552184E-008  0.3446407E+04  0.7816531E-02  0.8126610E-01
         -2   -1    0    0    0  501 -0.00000000000E+00  0.00000000000E+00  0.21434382792E+04  0.21434382792E+04  0.00000000000E+00 0. -1.
          2   -1    0    0  501    0  0.00000000000E+00 -0.00000000000E+00 -0.13853582002E+04  0.13853582002E+04  0.00000000000E+00 0.  1.
    2000013    1    1    2    0    0 -0.12815383510E+04  0.56848696400E+03  0.70510518715E+03  0.18344457742E+04  0.95000000000E+03 0.  0.
   -2000013    1    1    2    0    0  0.12815383510E+04 -0.56848696400E+03  0.52974891858E+02  0.16943507053E+04  0.95000000000E+03 0.  0.
<mgrwt>
<rscale>  0 0.34464067E+04</rscale>
<asrwt>0</asrwt>
<pdfrwt beam="2">  1        2 0.21313203E+00 0.34464067E+04</pdfrwt>
<pdfrwt beam="1">  1       -2 0.32975974E+00 0.34464067E+04</pdfrwt>
<totfact> 0.25355794E-01</totfact>
</mgrwt>
</event>
<event>
 4    1  0.2552184E-008  0.2893672E+04  0.7816531E-02  0.8274763E-01
         -2   -1    0    0    0  501 -0.00000000000E+00  0.00000000000E+00  0.13344323817E+04  0.13344323817E+04  0.00000000000E+00 0. -1.
          2   -1    0    0  501    0  0.00000000000E+00 -0.00000000000E+00 -0.15687078999E+04  0.15687078999E+04  0.00000000000E+00 0.  1.
    2000013    1    1    2    0    0 -0.92318494430E+03 -0.58025907118E+03 -0.16044830423E+03  0.14550651839E+04  0.95000000000E+03 0.  0.
   -2000013    1    1    2    0    0  0.92318494430E+03  0.58025907118E+03 -0.73827214019E+02  0.14480750977E+04  0.95000000000E+03 0.  0.
<mgrwt>
<rscale>  0 0.28936721E+04</rscale>
<asrwt>0</asrwt>
<pdfrwt beam="2">  1        2 0.24133968E+00 0.28936721E+04</pdfrwt>
<pdfrwt beam="1">  1       -2 0.20529729E+00 0.28936721E+04</pdfrwt>
<totfact> 0.12315408E+00</totfact>
</mgrwt>
</event>
<event>
 4    1  0.2552184E-008  0.2483056E+04  0.7816531E-02  0.8409047E-01
         -2   -1    0    0    0  501 -0.00000000000E+00  0.00000000000E+00  0.11296474825E+04  0.11296474825E+04  0.00000000000E+00 0. -1.
          2   -1    0    0  501    0  0.00000000000E+00 -0.00000000000E+00 -0.13644888110E+04  0.13644888110E+04  0.00000000000E+00 0.  1.
    2000013    1    1    2    0    0 -0.30083625457E+03 -0.70524925598E+03  0.10944644752E+03  0.12257069348E+04  0.95000000000E+03 0.  0.
   -2000013    1    1    2    0    0  0.30083625457E+03  0.70524925598E+03 -0.34428777604E+03  0.12684293586E+04  0.95000000000E+03 0.  0.
<mgrwt>
<rscale>  0 0.24830557E+04</rscale>
<asrwt>0</asrwt>
<pdfrwt beam="2">  1        2 0.20992136E+00 0.24830557E+04</pdfrwt>
<pdfrwt beam="1">  1       -2 0.17379192E+00 0.24830557E+04</pdfrwt>
<totfact> 0.27144157E+00</totfact>
</mgrwt>
</event>
<event>
 4    1  0.2552184E-008  0.2185369E+04  0.7816531E-02  0.8524543E-01
         -2   -1    0    0    0  501 -0.00000000000E+00  0.00000000000E+00  0.72700917676E+03  0.72700917676E+03  0.00000000000E+00 0. -1.
          2   -1    0    0  501    0  0.00000000000E+00 -0.00000000000E+00 -0.16422886964E+04  0.16422886964E+04  0.00000000000E+00 0.  1.
    2000013    1    1    2    0    0  0.22376227312E+03 -0.41277516506E+03 -0.16874299234E+03  0.10730457070E+04  0.95000000000E+03 0.  0.
   -2000013    1    1    2    0    0 -0.22376227312E+03  0.41277516506E+03 -0.74653652726E+03  0.12962521662E+04  0.95000000000E+03 0.  0.
<mgrwt>
<rscale>  0 0.21853686E+04</rscale>
<asrwt>0</asrwt>
<pdfrwt beam="2">  1        2 0.25265980E+00 0.21853686E+04</pdfrwt>
<pdfrwt beam="1">  1       -2 0.11184757E+00 0.21853686E+04</pdfrwt>
<totfact> 0.60989570E+00</totfact>
</mgrwt>
</event>
<event>
 4    1  0.2552184E-008  0.2667642E+04  0.7816531E-02  0.8345581E-01
         -2   -1    0    0    0  501 -0.00000000000E+00  0.00000000000E+00  0.84728993954E+03  0.84728993954E+03  0.00000000000E+00 0. -1.
          2   -1    0    0  501    0  0.00000000000E+00 -0.00000000000E+00 -0.20997275715E+04  0.20997275715E+04  0.00000000000E+00 0.  1.
    2000013    1    1    2    0    0  0.66471057737E+03 -0.26155235463E+03 -0.12948558583E+04  0.17576693317E+04  0.95000000000E+03 0.  0.
   -2000013    1    1    2    0    0 -0.66471057737E+03  0.26155235463E+03  0.42418226266E+02  0.11893481794E+04  0.95000000000E+03 0.  0.
<mgrwt>
<rscale>  0 0.26676417E+04</rscale>
<asrwt>0</asrwt>
<pdfrwt beam="2">  1        2 0.32303501E+00 0.26676417E+04</pdfrwt>
<pdfrwt beam="1">  1       -2 0.13035230E+00 0.26676417E+04</pdfrwt>
<totfact> 0.22301252E+00</totfact>
</mgrwt>
</event>
<event>
 4    1  0.2552184E-008  0.2603275E+04  0.7816531E-02  0.8367090E-01
         -2   -1    0    0    0  501 -0.00000000000E+00  0.00000000000E+00  0.10374614504E+04  0.10374614504E+04  0.00000000000E+00 0. -1.
          2   -1    0    0  501    0  0.00000000000E+00 -0.00000000000E+00 -0.16330828250E+04  0.16330828250E+04  0.00000000000E+00 0.  1.
    2000013    1    1    2    0    0 -0.12687610203E+03 -0.85225329195E+03 -0.52564712492E+03  0.13860873417E+04  0.95000000000E+03 0.  0.
   -2000013    1    1    2    0    0  0.12687610203E+03  0.85225329195E+03 -0.69974249684E+02  0.12844569337E+04  0.95000000000E+03 0.  0.
<mgrwt>
<rscale>  0 0.26032752E+04</rscale>
<asrwt>0</asrwt>
<pdfrwt beam="2">  1        2 0.25124351E+00 0.26032752E+04</pdfrwt>
<pdfrwt beam="1">  1       -2 0.15960945E+00 0.26032752E+04</pdfrwt>
<totfact> 0.23968210E+00</totfact>
</mgrwt>
</event>
<event>
 4    1  0.2552184E-008  0.2852432E+04  0.7816531E-02  0.8287173E-01
          2   -1    0    0  501    0  0.00000000000E+00  0.00000000000E+00  0.10558606458E+04  0.10558606458E+04  0.00000000000E+00 0.  1.
         -2   -1    0    0    0  501 -0.00000000000E+00 -0.00000000000E+00 -0.19264771581E+04  0.19264771581E+04  0.00000000000E+00 0. -1.
    2000013    1    1    2    0    0  0.93664062559E+02  0.10533269625E+04 -0.31463632471E+03  0.14559418475E+04  0.95000000000E+03 0.  0.
   -2000013    1    1    2    0    0 -0.93664062559E+02 -0.10533269625E+04 -0.55598018754E+03  0.15263959563E+04  0.95000000000E+03 0.  0.
<mgrwt>
<rscale>  0 0.28524315E+04</rscale>
<asrwt>0</asrwt>
<pdfrwt beam="1">  1        2 0.16244010E+00 0.28524315E+04</pdfrwt>
<pdfrwt beam="2">  1       -2 0.29638110E+00 0.28524315E+04</pdfrwt>
<totfact> 0.67259727E-01</totfact>
</mgrwt>
</event>
<event>
 4    1  0.2552184E-008  0.1955140E+04  0.7816531E-02  0.8627886E-01
          2   -1    0    0  501    0  0.00000000000E+00  0.00000000000E+00  0.24006105701E+04  0.24006105701E+04  0.00000000000E+00 0.  1.
         -2   -1    0    0    0  501 -0.00000000000E+00 -0.00000000000E+00 -0.39808340485E+03  0.39808340485E+03  0.00000000000E+00 0. -1.
    2000013    1    1    2    0    0 -0.95298519344E+01 -0.22998394128E+03  0.10193587817E+04  0.14122945009E+04  0.95000000000E+03 0.  0.
   -2000013    1    1    2    0    0  0.95298519344E+01  0.22998394128E+03  0.98316838353E+03  0.13863994741E+04  0.95000000000E+03 0.  0.
<mgrwt>
<rscale>  0 0.19551401E+04</rscale>
<asrwt>0</asrwt>
<pdfrwt beam="1">  1        2 0.36932469E+00 0.19551401E+04</pdfrwt>
<pdfrwt beam="2">  1       -2 0.61243602E-01 0.19551401E+04</pdfrwt>
<totfact> 0.91881552E+00</totfact>
</mgrwt>
</event>
<event>
 4    1  0.2552184E-008  0.2086777E+04  0.7816531E-02  0.8567091E-01
          1   -1    0    0  501    0  0.00000000000E+00  0.00000000000E+00  0.72898127680E+03  0.72898127680E+03  0.00000000000E+00 0.  1.
         -1   -1    0    0    0  501 -0.00000000000E+00 -0.00000000000E+00 -0.14933982782E+04  0.14933982782E+04  0.00000000000E+00 0. -1.
    2000013    1    1    2    0    0 -0.33313403112E+03 -0.25120526970E+03 -0.49924518263E+03  0.11514461006E+04  0.95000000000E+03 0.  0.
   -2000013    1    1    2    0    0  0.33313403112E+03  0.25120526970E+03 -0.26517181875E+03  0.10709334544E+04  0.95000000000E+03 0.  0.
<mgrwt>
<rscale>  0 0.20867768E+04</rscale>
<asrwt>0</asrwt>
<pdfrwt beam="1">  1        1 0.11215097E+00 0.20867768E+04</pdfrwt>
<pdfrwt beam="2">  1       -1 0.22975358E+00 0.20867768E+04</pdfrwt>
<totfact> 0.22330008E+00</totfact>
</mgrwt>
</event>
<event>
 4    1  0.2552184E-008  0.2296320E+04  0.7816531E-02  0.8479374E-01
         -2   -1    0    0    0  501 -0.00000000000E+00  0.00000000000E+00  0.59219171466E+03  0.59219171466E+03  0.00000000000E+00 0. -1.
          2   -1    0    0  501    0  0.00000000000E+00 -0.00000000000E+00 -0.22260887230E+04  0.22260887230E+04  0.00000000000E+00 0.  1.
    2000013    1    1    2    0    0 -0.39004025020E+03 -0.68326530832E+02 -0.19238341811E+03  0.10470488485E+04  0.95000000000E+03 0.  0.
   -2000013    1    1    2    0    0  0.39004025020E+03  0.68326530832E+02 -0.14415135903E+04  0.17712315892E+04  0.95000000000E+03 0.  0.
<mgrwt>
<rscale>  0 0.22963199E+04</rscale>
<asrwt>0</asrwt>
<pdfrwt beam="2">  1        2 0.34247519E+00 0.22963199E+04</pdfrwt>
<pdfrwt beam="1">  1       -2 0.91106417E-01 0.22963199E+04</pdfrwt>
<totfact> 0.46503709E+00</totfact>
</mgrwt>
</event>
<event>
 4    1  0.2552184E-008  0.2298741E+04  0.7816531E-02  0.8478418E-01
         -2   -1    0    0    0  501 -0.00000000000E+00  0.00000000000E+00  0.44826602847E+03  0.44826602847E+03  0.00000000000E+00 0. -1.
          2   -1    0    0  501    0  0.00000000000E+00 -0.00000000000E+00 -0.29470289990E+04  0.29470289990E+04  0.00000000000E+00 0.  1.
    2000013    1    1    2    0    0  0.40872488510E+02  0.51919000465E+03 -0.68245806845E+03  0.12804209606E+04  0.95000000000E+03 0.  0.
   -2000013    1    1    2    0    0 -0.40872488510E+02 -0.51919000465E+03 -0.18163049021E+04  0.21148740668E+04  0.95000000000E+03 0.  0.
<mgrwt>
<rscale>  0 0.22987414E+04</rscale>
<asrwt>0</asrwt>
<pdfrwt beam="2">  1        2 0.45338907E+00 0.22987414E+04</pdfrwt>
<pdfrwt beam="1">  1       -2 0.68964005E-01 0.22987414E+04</pdfrwt>
<totfact> 0.32738851E+00</totfact>
</mgrwt>
</event>
<event>
 4    1  0.2552184E-008  0.2520805E+04  0.7816531E-02  0.8395611E-01
          1   -1    0    0  501    0  0.00000000000E+00  0.00000000000E+00  0.25837562572E+04  0.25837562572E+04  0.00000000000E+00 0.  1.
         -1   -1    0    0    0  501 -0.00000000000E+00 -0.00000000000E+00 -0.61484684366E+03  0.61484684366E+03  0.00000000000E+00 0. -1.
    2000013    1    1    2    0    0 -0.78835469866E+03 -0.24234035725E+03  0.88713553935E+03  0.15393964547E+04  0.95000000000E+03 0.  0.
   -2000013    1    1    2    0    0  0.78835469866E+03  0.24234035725E+03  0.10817738742E+04  0.16592066461E+04  0.95000000000E+03 0.  0.
<mgrwt>
<rscale>  0 0.25208049E+04</rscale>
<asrwt>0</asrwt>
<pdfrwt beam="1">  1        1 0.39750096E+00 0.25208049E+04</pdfrwt>
<pdfrwt beam="2">  1       -1 0.94591823E-01 0.25208049E+04</pdfrwt>
<totfact> 0.11352519E+00</totfact>
</mgrwt>
</event>
<event>
 4    1  0.2552184E-008  0.3148069E+04  0.7816531E-02  0.8202668E-01
          2   -1    0    0  501    0  0.00000000000E+00  0.00000000000E+00  0.14442773018E+04  0.14442773018E+04  0.00000000000E+00 0.  1.
         -2   -1    0    0    0  501 -0.00000000000E+00 -0.00000000000E+00 -0.17154493007E+04  0.17154493007E+04  0.00000000000E+00 0. -1.
    2000013    1    1    2    0    0  0.12186191132E+04  0.29247667452E+03 -0.68185715796E+02  0.15740789180E+04  0.95000000000E+03 0.  0.
   -2000013    1    1    2    0    0 -0.12186191132E+04 -0.29247667452E+03 -0.20298628310E+03  0.15856476845E+04  0.95000000000E+03 0.  0.
<mgrwt>
<rscale>  0 0.31480689E+04</rscale>
<asrwt>0</asrwt>
<pdfrwt beam="1">  1        2 0.22219651E+00 0.31480689E+04</pdfrwt>
<pdfrwt beam="2">  1       -2 0.26391528E+00 0.31480689E+04</pdfrwt>
<totfact> 0.60957948E-01</totfact>
</mgrwt>
</event>
<event>
 4    1  0.2552184E-008  0.3278052E+04  0.7816531E-02  0.8168503E-01
          2   -1    0    0  501    0  0.00000000000E+00  0.00000000000E+00  0.13617431329E+04  0.13617431329E+04  0.00000000000E+00 0.  1.
         -2   -1    0    0    0  501 -0.00000000000E+00 -0.00000000000E+00 -0.19727698545E+04  0.19727698545E+04  0.00000000000E+00 0. -1.
    2000013    1    1    2    0    0  0.10621260653E+04  0.28748511601E+03 -0.10756173406E+04  0.18083727862E+04  0.95000000000E+03 0.  0.
   -2000013    1    1    2    0    0 -0.10621260653E+04 -0.28748511601E+03  0.46459061897E+03  0.15261402012E+04  0.95000000000E+03 0.  0.
<mgrwt>
<rscale>  0 0.32780517E+04</rscale>
<asrwt>0</asrwt>
<pdfrwt beam="1">  1        2 0.20949894E+00 0.32780517E+04</pdfrwt>
<pdfrwt beam="2">  1       -2 0.30350305E+00 0.32780517E+04</pdfrwt>
<totfact> 0.38524128E-01</totfact>
</mgrwt>
</event>
<event>
 4    1  0.2552184E-008  0.2307657E+04  0.7816531E-02  0.8474908E-01
          2   -1    0    0  501    0  0.00000000000E+00  0.00000000000E+00  0.36955262341E+04  0.36955262341E+04  0.00000000000E+00 0.  1.
         -2   -1    0    0    0  501 -0.00000000000E+00 -0.00000000000E+00 -0.36025199254E+03  0.36025199254E+03  0.00000000000E+00 0. -1.
    2000013    1    1    2    0    0  0.26137157884E+02 -0.62528422860E+03  0.13288521092E+04  0.17492888400E+04  0.95000000000E+03 0.  0.
   -2000013    1    1    2    0    0 -0.26137157884E+02  0.62528422860E+03  0.20064221323E+04  0.23064893866E+04  0.95000000000E+03 0.  0.
<mgrwt>
<rscale>  0 0.23076574E+04</rscale>
<asrwt>0</asrwt>
<pdfrwt beam="1">  1        2 0.56854247E+00 0.23076574E+04</pdfrwt>
<pdfrwt beam="2">  1       -2 0.55423386E-01 0.23076574E+04</pdfrwt>
<totfact> 0.16365375E+00</totfact>
</mgrwt>
</event>
<event>
 4    1  0.2552184E-008  0.2400367E+04  0.7816531E-02  0.8439366E-01
         -1   -1    0    0    0  501 -0.00000000000E+00  0.00000000000E+00  0.14234354260E+04  0.14234354260E+04  0.00000000000E+00 0. -1.
          1   -1    0    0  501    0  0.00000000000E+00 -0.00000000000E+00 -0.10119467255E+04  0.10119467255E+04  0.00000000000E+00 0.  1.
    2000013    1    1    2    0    0 -0.14169027300E+03 -0.55150205744E+03  0.67477584262E+03  0.12969398948E+04  0.95000000000E+03 0.  0.
   -2000013    1    1    2    0    0  0.14169027300E+03  0.55150205744E+03 -0.26328714205E+03  0.11384422568E+04  0.95000000000E+03 0.  0.
<mgrwt>
<rscale>  0 0.24003673E+04</rscale>
<asrwt>0</asrwt>
<pdfrwt beam="2">  1        1 0.15568411E+00 0.24003673E+04</pdfrwt>
<pdfrwt beam="1">  1       -1 0.21899007E+00 0.24003673E+04</pdfrwt>
<totfact> 0.14833416E+00</totfact>
</mgrwt>
</event>
<event>
 4    1  0.2552184E-008  0.2587701E+04  0.7816531E-02  0.8372391E-01
          2   -1    0    0  501    0  0.00000000000E+00  0.00000000000E+00  0.33634737298E+04  0.33634737298E+04  0.00000000000E+00 0.  1.
         -2   -1    0    0    0  501 -0.00000000000E+00 -0.00000000000E+00 -0.49771428933E+03  0.49771428933E+03  0.00000000000E+00 0. -1.
    2000013    1    1    2    0    0 -0.76002358224E+03  0.30339446742E+03  0.19091123376E+04  0.22840520935E+04  0.95000000000E+03 0.  0.
   -2000013    1    1    2    0    0  0.76002358224E+03 -0.30339446742E+03  0.95664710290E+03  0.15771359256E+04  0.95000000000E+03 0.  0.
<mgrwt>
<rscale>  0 0.25877009E+04</rscale>
<asrwt>0</asrwt>
<pdfrwt beam="1">  1        2 0.51745748E+00 0.25877009E+04</pdfrwt>
<pdfrwt beam="2">  1       -2 0.76571431E-01 0.25877009E+04</pdfrwt>
<totfact> 0.13637310E+00</totfact>
</mgrwt>
</event>
<event>
 4    1  0.2552184E-008  0.3300026E+04  0.7816531E-02  0.8162889E-01
         -2   -1    0    0    0  501 -0.00000000000E+00  0.00000000000E+00  0.13305349083E+04  0.13305349083E+04  0.00000000000E+00 0. -1.
          2   -1    0    0  501    0  0.00000000000E+00 -0.00000000000E+00 -0.20462017885E+04  0.20462017885E+04  0.00000000000E+00 0.  1.
    2000013    1    1    2    0    0 -0.72023645331E+03  0.17948425144E+03  0.79489143128E+03  0.14440593938E+04  0.95000000000E+03 0.  0.
   -2000013    1    1    2    0    0  0.72023645331E+03 -0.17948425144E+03 -0.15105583115E+04  0.19326773030E+04  0.95000000000E+03 0.  0.
<mgrwt>
<rscale>  0 0.33000260E+04</rscale>
<asrwt>0</asrwt>
<pdfrwt beam="2">  1        2 0.31480028E+00 0.33000260E+04</pdfrwt>
<pdfrwt beam="1">  1       -2 0.20469768E+00 0.33000260E+04</pdfrwt>
<totfact> 0.65174268E-01</totfact>
</mgrwt>
</event>
<event>
 4    1  0.2552184E-008  0.2057728E+04  0.7816531E-02  0.8580097E-01
          2   -1    0    0  501    0  0.00000000000E+00  0.00000000000E+00  0.20032803358E+04  0.20032803358E+04  0.00000000000E+00 0.  1.
         -2   -1    0    0    0  501 -0.00000000000E+00 -0.00000000000E+00 -0.52841379206E+03  0.52841379206E+03  0.00000000000E+00 0. -1.
    2000013    1    1    2    0    0  0.39447368100E+03  0.10690182639E+02  0.71484083492E+03  0.12526855888E+04  0.95000000000E+03 0.  0.
   -2000013    1    1    2    0    0 -0.39447368100E+03 -0.10690182639E+02  0.76002570880E+03  0.12790085391E+04  0.95000000000E+03 0.  0.
<mgrwt>
<rscale>  0 0.20577278E+04</rscale>
<asrwt>0</asrwt>
<pdfrwt beam="1">  1        2 0.30819697E+00 0.20577278E+04</pdfrwt>
<pdfrwt beam="2">  1       -2 0.81294430E-01 0.20577278E+04</pdfrwt>
<totfact> 0.82013438E+00</totfact>
</mgrwt>
</event>
<event>
 4    1  0.2552184E-008  0.2911654E+04  0.7816531E-02  0.8269418E-01
         -2   -1    0    0    0  501 -0.00000000000E+00  0.00000000000E+00  0.12447456593E+04  0.12447456593E+04  0.00000000000E+00 0. -1.
          2   -1    0    0  501    0  0.00000000000E+00 -0.00000000000E+00 -0.17027032350E+04  0.17027032350E+04  0.00000000000E+00 0.  1.
    2000013    1    1    2    0    0  0.91230551165E+03 -0.59268966133E+03 -0.44113685901E+02  0.14450011760E+04  0.95000000000E+03 0.  0.
   -2000013    1    1    2    0    0 -0.91230551165E+03  0.59268966133E+03 -0.41384388986E+03  0.15024477184E+04  0.95000000000E+03 0.  0.
<mgrwt>
<rscale>  0 0.29116541E+04</rscale>
<asrwt>0</asrwt>
<pdfrwt beam="2">  1        2 0.26195435E+00 0.29116541E+04</pdfrwt>
<pdfrwt beam="1">  1       -2 0.19149933E+00 0.29116541E+04</pdfrwt>
<totfact> 0.12764255E+00</totfact>
</mgrwt>
</event>
<event>
 4    1  0.2552184E-008  0.2640042E+04  0.7816531E-02  0.8354726E-01
          2   -1    0    0  501    0  0.00000000000E+00  0.00000000000E+00  0.15938425633E+04  0.15938425633E+04  0.00000000000E+00 0.  1.
         -2   -1    0    0    0  501 -0.00000000000E+00 -0.00000000000E+00 -0.10932416427E+04  0.10932416427E+04  0.00000000000E+00 0. -1.
    2000013    1    1    2    0    0 -0.35950963233E+02 -0.56789826263E+03 -0.48093997862E+03  0.12073127894E+04  0.95000000000E+03 0.  0.
   -2000013    1    1    2    0    0  0.35950963233E+02  0.56789826263E+03  0.98154089919E+03  0.14797714165E+04  0.95000000000E+03 0.  0.
<mgrwt>
<rscale>  0 0.26400417E+04</rscale>
<asrwt>0</asrwt>
<pdfrwt beam="1">  1        2 0.24520655E+00 0.26400417E+04</pdfrwt>
<pdfrwt beam="2">  1       -2 0.16819102E+00 0.26400417E+04</pdfrwt>
<totfact> 0.21763872E+00</totfact>
</mgrwt>
</event>
<event>
 4    1  0.2552184E-008  0.2519832E+04  0.7816531E-02  0.8395954E-01
          2   -1    0    0  501    0  0.00000000000E+00  0.00000000000E+00  0.11951491324E+04  0.11951491324E+04  0.00000000000E+00 0.  1.
         -2   -1    0    0    0  501 -0.00000000000E+00 -0.00000000000E+00 -0.13281922496E+04  0.13281922496E+04  0.00000000000E+00 0. -1.
    2000013    1    1    2    0    0 -0.16614649589E+03 -0.80646386677E+03  0.16655487381E+02  0.12572851832E+04  0.95000000000E+03 0.  0.
   -2000013    1    1    2    0    0  0.16614649589E+03  0.80646386677E+03 -0.14969860460E+03  0.12660561989E+04  0.95000000000E+03 0.  0.
<mgrwt>
<rscale>  0 0.25198316E+04</rscale>
<asrwt>0</asrwt>
<pdfrwt beam="1">  1        2 0.18386910E+00 0.25198316E+04</pdfrwt>
<pdfrwt beam="2">  1       -2 0.20433727E+00 0.25198316E+04</pdfrwt>
<totfact> 0.21152967E+00</totfact>
</mgrwt>
</event>
<event>
 4    1  0.2552184E-008  0.3282481E+04  0.7816531E-02  0.8167368E-01
          2   -1    0    0  501    0  0.00000000000E+00  0.00000000000E+00  0.28796420587E+04  0.28796420587E+04  0.00000000000E+00 0.  1.
         -2   -1    0    0    0  501 -0.00000000000E+00 -0.00000000000E+00 -0.93541819025E+03  0.93541819025E+03  0.00000000000E+00 0. -1.
    2000013    1    1    2    0    0  0.12405191898E+04  0.30266272414E+02  0.15548215909E+04  0.22044895298E+04  0.95000000000E+03 0.  0.
   -2000013    1    1    2    0    0 -0.12405191898E+04 -0.30266272414E+02  0.38940227760E+03  0.16105707192E+04  0.95000000000E+03 0.  0.
<mgrwt>
<rscale>  0 0.32824805E+04</rscale>
<asrwt>0</asrwt>
<pdfrwt beam="1">  1        2 0.44302185E+00 0.32824805E+04</pdfrwt>
<pdfrwt beam="2">  1       -2 0.14391049E+00 0.32824805E+04</pdfrwt>
<totfact> 0.57772198E-01</totfact>
</mgrwt>
</event>
<event>
 4    1  0.2552184E-008  0.2769902E+04  0.7816531E-02  0.8312674E-01
          2   -1    0    0  501    0  0.00000000000E+00  0.00000000000E+00  0.10128076001E+04  0.10128076001E+04  0.00000000000E+00 0.  1.
         -2   -1    0    0    0  501 -0.00000000000E+00 -0.00000000000E+00 -0.18938342538E+04  0.18938342538E+04  0.00000000000E+00 0. -1.
    2000013    1    1    2    0    0  0.81063004701E+03  0.22469492540E+03 -0.10228698163E+04  0.16298378888E+04  0.95000000000E+03 0.  0.
   -2000013    1    1    2    0    0 -0.81063004701E+03 -0.22469492540E+03  0.14184316261E+03  0.12768039651E+04  0.95000000000E+03 0.  0.
<mgrwt>
<rscale>  0 0.27699023E+04</rscale>
<asrwt>0</asrwt>
<pdfrwt beam="1">  1        2 0.15581656E+00 0.27699023E+04</pdfrwt>
<pdfrwt beam="2">  1       -2 0.29135911E+00 0.27699023E+04</pdfrwt>
<totfact> 0.77392177E-01</totfact>
</mgrwt>
</event>
<event>
 4    1  0.2552184E-008  0.2710492E+04  0.7816531E-02  0.8331609E-01
         -2   -1    0    0    0  501 -0.00000000000E+00  0.00000000000E+00  0.26474352650E+04  0.26474352650E+04  0.00000000000E+00 0. -1.
          2   -1    0    0  501    0  0.00000000000E+00 -0.00000000000E+00 -0.69376289530E+03  0.69376289530E+03  0.00000000000E+00 0.  1.
    2000013    1    1    2    0    0 -0.93287706253E+03 -0.99811628974E+02  0.12632089841E+04  0.18380475817E+04  0.95000000000E+03 0.  0.
   -2000013    1    1    2    0    0  0.93287706253E+03  0.99811628974E+02  0.69046338557E+03  0.15031505786E+04  0.95000000000E+03 0.  0.
<mgrwt>
<rscale>  0 0.27104925E+04</rscale>
<asrwt>0</asrwt>
<pdfrwt beam="2">  1        2 0.10673275E+00 0.27104925E+04</pdfrwt>
<pdfrwt beam="1">  1       -2 0.40729773E+00 0.27104925E+04</pdfrwt>
<totfact> 0.24139984E-01</totfact>
</mgrwt>
</event>
<event>
 4    1  0.2552184E-008  0.3284769E+04  0.7816531E-02  0.8166782E-01
          2   -1    0    0  501    0  0.00000000000E+00  0.00000000000E+00  0.28572569166E+04  0.28572569166E+04  0.00000000000E+00 0.  1.
         -2   -1    0    0    0  501 -0.00000000000E+00 -0.00000000000E+00 -0.94406142186E+03  0.94406142186E+03  0.00000000000E+00 0. -1.
    2000013    1    1    2    0    0 -0.13228971995E+04  0.11628572238E+03  0.75170570427E+03  0.17975374365E+04  0.95000000000E+03 0.  0.
   -2000013    1    1    2    0    0  0.13228971995E+04 -0.11628572238E+03  0.11614897905E+04  0.20037809020E+04  0.95000000000E+03 0.  0.
<mgrwt>
<rscale>  0 0.32847685E+04</rscale>
<asrwt>0</asrwt>
<pdfrwt beam="1">  1        2 0.43957798E+00 0.32847685E+04</pdfrwt>
<pdfrwt beam="2">  1       -2 0.14524022E+00 0.32847685E+04</pdfrwt>
<totfact> 0.58193774E-01</totfact>
</mgrwt>
</event>
<event>
 4    1  0.2552184E-008  0.2165352E+04  0.7816531E-02  0.8532989E-01
          2   -1    0    0  501    0  0.00000000000E+00  0.00000000000E+00  0.16980335516E+04  0.16980335516E+04  0.00000000000E+00 0.  1.
         -2   -1    0    0    0  501 -0.00000000000E+00 -0.00000000000E+00 -0.69032072217E+03  0.69032072217E+03  0.00000000000E+00 0. -1.
    2000013    1    1    2    0    0  0.14247014115E+03 -0.44408951729E+03  0.75579770021E+03  0.13004781444E+04  0.95000000000E+03 0.  0.
   -2000013    1    1    2    0    0 -0.14247014115E+03  0.44408951729E+03  0.25191512925E+03  0.10878761294E+04  0.95000000000E+03 0.  0.
<mgrwt>
<rscale>  0 0.21653524E+04</rscale>
<asrwt>0</asrwt>
<pdfrwt beam="1">  1        2 0.26123593E+00 0.21653524E+04</pdfrwt>
<pdfrwt beam="2">  1       -2 0.10620319E+00 0.21653524E+04</pdfrwt>
<totfact> 0.64459928E+00</totfact>
</mgrwt>
</event>
<event>
 4    1  0.2552184E-008  0.2671033E+04  0.7816531E-02  0.8344465E-01
          2   -1    0    0  501    0  0.00000000000E+00  0.00000000000E+00  0.31739331052E+04  0.31739331052E+04  0.00000000000E+00 0.  1.
         -2   -1    0    0    0  501 -0.00000000000E+00 -0.00000000000E+00 -0.56195412526E+03  0.56195412526E+03  0.00000000000E+00 0. -1.
    2000013    1    1    2    0    0  0.51741187445E+03 -0.62001014671E+03  0.63670534047E+03  0.14000076144E+04  0.95000000000E+03 0.  0.
   -2000013    1    1    2    0    0 -0.51741187445E+03  0.62001014671E+03  0.19752736395E+04  0.23358796161E+04  0.95000000000E+03 0.  0.
<mgrwt>
<rscale>  0 0.26710334E+04</rscale>
<asrwt>0</asrwt>
<pdfrwt beam="1">  1        2 0.48829739E+00 0.26710334E+04</pdfrwt>
<pdfrwt beam="2">  1       -2 0.86454483E-01 0.26710334E+04</pdfrwt>
<totfact> 0.13743371E+00</totfact>
</mgrwt>
</event>
<event>
 4    1  0.2552184E-008  0.2218952E+04  0.7816531E-02  0.8510581E-01
         -2   -1    0    0    0  501 -0.00000000000E+00  0.00000000000E+00  0.40056923473E+03  0.40056923473E+03  0.00000000000E+00 0. -1.
          2   -1    0    0  501    0  0.00000000000E+00 -0.00000000000E+00 -0.30729705291E+04  0.30729705291E+04  0.00000000000E+00 0.  1.
    2000013    1    1    2    0    0 -0.48114354715E+03  0.30710448192E+03 -0.14164060478E+04  0.17984766799E+04  0.95000000000E+03 0.  0.
   -2000013    1    1    2    0    0  0.48114354715E+03 -0.30710448192E+03 -0.12559952465E+04  0.16750630839E+04  0.95000000000E+03 0.  0.
<mgrwt>
<rscale>  0 0.22189524E+04</rscale>
<asrwt>0</asrwt>
<pdfrwt beam="2">  1        2 0.47276468E+00 0.22189524E+04</pdfrwt>
<pdfrwt beam="1">  1       -2 0.61626038E-01 0.22189524E+04</pdfrwt>
<totfact> 0.35015742E+00</totfact>
</mgrwt>
</event>
<event>
 4    1  0.2552184E-008  0.1995031E+04  0.7816531E-02  0.8608948E-01
         -2   -1    0    0    0  501 -0.00000000000E+00  0.00000000000E+00  0.68546231992E+03  0.68546231992E+03  0.00000000000E+00 0. -1.
          2   -1    0    0  501    0  0.00000000000E+00 -0.00000000000E+00 -0.14516286726E+04  0.14516286726E+04  0.00000000000E+00 0.  1.
    2000013    1    1    2    0    0 -0.19435376372E+02 -0.30350658708E+03 -0.37607717448E+03  0.10660337816E+04  0.95000000000E+03 0.  0.
   -2000013    1    1    2    0    0  0.19435376372E+02  0.30350658708E+03 -0.39008917823E+03  0.10710572110E+04  0.95000000000E+03 0.  0.
<mgrwt>
<rscale>  0 0.19950306E+04</rscale>
<asrwt>0</asrwt>
<pdfrwt beam="2">  1        2 0.22332749E+00 0.19950306E+04</pdfrwt>
<pdfrwt beam="1">  1       -2 0.10545574E+00 0.19950306E+04</pdfrwt>
<totfact> 0.91434881E+00</totfact>
</mgrwt>
</event>
<event>
 4    1  0.2552184E-008  0.2436470E+04  0.7816531E-02  0.8425975E-01
         -2   -1    0    0    0  501 -0.00000000000E+00  0.00000000000E+00  0.76830517329E+03  0.76830517329E+03  0.00000000000E+00 0. -1.
          2   -1    0    0  501    0  0.00000000000E+00 -0.00000000000E+00 -0.19316494344E+04  0.19316494344E+04  0.00000000000E+00 0.  1.
    2000013    1    1    2    0    0 -0.44899695466E+03  0.46410722639E+03 -0.10312589882E+04  0.15436932608E+04  0.95000000000E+03 0.  0.
   -2000013    1    1    2    0    0  0.44899695466E+03 -0.46410722639E+03 -0.13208527296E+03  0.11562613468E+04  0.95000000000E+03 0.  0.
<mgrwt>
<rscale>  0 0.24364698E+04</rscale>
<asrwt>0</asrwt>
<pdfrwt beam="2">  1        2 0.29717684E+00 0.24364698E+04</pdfrwt>
<pdfrwt beam="1">  1       -2 0.11820080E+00 0.24364698E+04</pdfrwt>
<totfact> 0.36043037E+00</totfact>
</mgrwt>
</event>
<event>
 4    1  0.2552184E-008  0.4635444E+04  0.7816531E-02  0.7887344E-01
          2   -1    0    0  501    0  0.00000000000E+00  0.00000000000E+00  0.12966199215E+04  0.12966199215E+04  0.00000000000E+00 0.  1.
         -2   -1    0    0    0  501 -0.00000000000E+00 -0.00000000000E+00 -0.41429525524E+04  0.41429525524E+04  0.00000000000E+00 0. -1.
    2000013    1    1    2    0    0  0.48317656778E+03  0.19115546562E+04 -0.23182692900E+04  0.31881614294E+04  0.95000000000E+03 0.  0.
   -2000013    1    1    2    0    0 -0.48317656778E+03 -0.19115546562E+04 -0.52806334100E+03  0.22514110445E+04  0.95000000000E+03 0.  0.
<mgrwt>
<rscale>  0 0.46354438E+04</rscale>
<asrwt>0</asrwt>
<pdfrwt beam="1">  1        2 0.19947999E+00 0.46354438E+04</pdfrwt>
<pdfrwt beam="2">  1       -2 0.63737732E+00 0.46354438E+04</pdfrwt>
<totfact> 0.46424164E-03</totfact>
</mgrwt>
</event>
<event>
 4    1  0.2552184E-008  0.2294685E+04  0.7816531E-02  0.8480020E-01
          2   -1    0    0  501    0  0.00000000000E+00  0.00000000000E+00  0.17844827731E+04  0.17844827731E+04  0.00000000000E+00 0.  1.
         -2   -1    0    0    0  501 -0.00000000000E+00 -0.00000000000E+00 -0.73769012337E+03  0.73769012337E+03  0.00000000000E+00 0. -1.
    2000013    1    1    2    0    0  0.23572346118E+03  0.51860338381E+03  0.85200013256E+03  0.13974688711E+04  0.95000000000E+03 0.  0.
   -2000013    1    1    2    0    0 -0.23572346118E+03 -0.51860338381E+03  0.19479251713E+03  0.11247040253E+04  0.95000000000E+03 0.  0.
<mgrwt>
<rscale>  0 0.22946854E+04</rscale>
<asrwt>0</asrwt>
<pdfrwt beam="1">  1        2 0.27453581E+00 0.22946854E+04</pdfrwt>
<pdfrwt beam="2">  1       -2 0.11349079E+00 0.22946854E+04</pdfrwt>
<totfact> 0.48618421E+00</totfact>
</mgrwt>
</event>
<event>
 4    1  0.2552184E-008  0.2448550E+04  0.7816531E-02  0.8421548E-01
          2   -1    0    0  501    0  0.00000000000E+00  0.00000000000E+00  0.13775641671E+04  0.13775641671E+04  0.00000000000E+00 0.  1.
         -2   -1    0    0    0  501 -0.00000000000E+00 -0.00000000000E+00 -0.10880430304E+04  0.10880430304E+04  0.00000000000E+00 0. -1.
    2000013    1    1    2    0    0  0.30640521401E+03  0.69532072667E+03  0.28353946105E+03  0.12490995533E+04  0.95000000000E+03 0.  0.
   -2000013    1    1    2    0    0 -0.30640521401E+03 -0.69532072667E+03  0.59816756800E+01  0.12165076443E+04  0.95000000000E+03 0.  0.
<mgrwt>
<rscale>  0 0.24485498E+04</rscale>
<asrwt>0</asrwt>
<pdfrwt beam="1">  1        2 0.21193295E+00 0.24485498E+04</pdfrwt>
<pdfrwt beam="2">  1       -2 0.16739123E+00 0.24485498E+04</pdfrwt>
<totfact> 0.29708467E+00</totfact>
</mgrwt>
</event>
<event>
 4    1  0.2552184E-008  0.2460213E+04  0.7816531E-02  0.8417298E-01
         -2   -1    0    0    0  501 -0.00000000000E+00  0.00000000000E+00  0.75936754100E+03  0.75936754100E+03  0.00000000000E+00 0. -1.
          2   -1    0    0  501    0  0.00000000000E+00 -0.00000000000E+00 -0.19926613574E+04  0.19926613574E+04  0.00000000000E+00 0.  1.
    2000013    1    1    2    0    0 -0.68978465893E+03 -0.29841611657E+03 -0.85605982665E+03  0.14833049185E+04  0.95000000000E+03 0.  0.
   -2000013    1    1    2    0    0  0.68978465893E+03  0.29841611657E+03 -0.37723398980E+03  0.12687239800E+04  0.95000000000E+03 0.  0.
<mgrwt>
<rscale>  0 0.24602133E+04</rscale>
<asrwt>0</asrwt>
<pdfrwt beam="2">  1        2 0.30656328E+00 0.24602133E+04</pdfrwt>
<pdfrwt beam="1">  1       -2 0.11682578E+00 0.24602133E+04</pdfrwt>
<totfact> 0.34238396E+00</totfact>
</mgrwt>
</event>
<event>
 4    1  0.2552184E-008  0.3075038E+04  0.7816531E-02  0.8222622E-01
          1   -1    0    0  501    0  0.00000000000E+00  0.00000000000E+00  0.82407079080E+03  0.82407079080E+03  0.00000000000E+00 0. -1.
         -1   -1    0    0    0  501 -0.00000000000E+00 -0.00000000000E+00 -0.28686435004E+04  0.28686435004E+04  0.00000000000E+00 0.  1.
    2000013    1    1    2    0    0  0.11127242960E+04 -0.33472383840E+03 -0.62171117937E+03  0.16245676956E+04  0.95000000000E+03 0.  0.
   -2000013    1    1    2    0    0 -0.11127242960E+04  0.33472383840E+03 -0.14228615302E+04  0.20681465956E+04  0.95000000000E+03 0.  0.
<mgrwt>
<rscale>  0 0.30750384E+04</rscale>
<asrwt>0</asrwt>
<pdfrwt beam="1">  1        1 0.12678012E+00 0.30750384E+04</pdfrwt>
<pdfrwt beam="2">  1       -1 0.44132977E+00 0.30750384E+04</pdfrwt>
<totfact> 0.66109734E-02</totfact>
</mgrwt>
</event>
<event>
 4    1  0.2552184E-008  0.2499734E+04  0.7816531E-02  0.8403080E-01
         -1   -1    0    0    0  501 -0.00000000000E+00  0.00000000000E+00  0.59797330736E+03  0.59797330736E+03  0.00000000000E+00 0. -1.
          1   -1    0    0  501    0  0.00000000000E+00 -0.00000000000E+00 -0.26124360204E+04  0.26124360204E+04  0.00000000000E+00 0.  1.
    2000013    1    1    2    0    0 -0.72752848004E+03  0.35934557703E+03 -0.10524576030E+04  0.16335831596E+04  0.95000000000E+03 0.  0.
   -2000013    1    1    2    0    0  0.72752848004E+03 -0.35934557703E+03 -0.96200510997E+03  0.15768261682E+04  0.95000000000E+03 0.  0.
<mgrwt>
<rscale>  0 0.24997336E+04</rscale>
<asrwt>0</asrwt>
<pdfrwt beam="2">  1        1 0.40191323E+00 0.24997336E+04</pdfrwt>
<pdfrwt beam="1">  1       -1 0.91995894E-01 0.24997336E+04</pdfrwt>
<totfact> 0.11557056E+00</totfact>
</mgrwt>
</event>
<event>
 4    1  0.2552184E-008  0.1975616E+04  0.7816531E-02  0.8618106E-01
          1   -1    0    0  501    0  0.00000000000E+00  0.00000000000E+00  0.74764776671E+03  0.74764776671E+03  0.00000000000E+00 0.  1.
         -1   -1    0    0    0  501 -0.00000000000E+00 -0.00000000000E+00 -0.13051130422E+04  0.13051130422E+04  0.00000000000E+00 0. -1.
    2000013    1    1    2    0    0  0.15775445797E+03  0.21404025691E+03 -0.22610762550E+03  0.10120891062E+04  0.95000000000E+03 0.  0.
   -2000013    1    1    2    0    0 -0.15775445797E+03 -0.21404025691E+03 -0.33135765000E+03  0.10406717027E+04  0.95000000000E+03 0.  0.
<mgrwt>
<rscale>  0 0.19756162E+04</rscale>
<asrwt>0</asrwt>
<pdfrwt beam="1">  1        1 0.11502273E+00 0.19756162E+04</pdfrwt>
<pdfrwt beam="2">  1       -1 0.20078662E+00 0.19756162E+04</pdfrwt>
<totfact> 0.34003496E+00</totfact>
</mgrwt>
</event>
<event>
 4    1  0.2552184E-008  0.3139712E+04  0.7816531E-02  0.8204923E-01
          1   -1    0    0  501    0  0.00000000000E+00  0.00000000000E+00  0.26360708967E+04  0.26360708967E+04  0.00000000000E+00 0.  1.
         -1   -1    0    0    0  501 -0.00000000000E+00 -0.00000000000E+00 -0.93489461093E+03  0.93489461093E+03  0.00000000000E+00 0. -1.
    2000013    1    1    2    0    0 -0.66287045484E+03 -0.10375893087E+04  0.60675979202E+03  0.16693250907E+04  0.95000000000E+03 0.  0.
   -2000013    1    1    2    0    0  0.66287045484E+03  0.10375893087E+04  0.10944164938E+04  0.19016404169E+04  0.95000000000E+03 0.  0.
<mgrwt>
<rscale>  0 0.31397124E+04</rscale>
<asrwt>0</asrwt>
<pdfrwt beam="1">  1        1 0.40554936E+00 0.31397124E+04</pdfrwt>
<pdfrwt beam="2">  1       -1 0.14382994E+00 0.31397124E+04</pdfrwt>
<totfact> 0.35721362E-01</totfact>
</mgrwt>
</event>
<event>
 4    1  0.2552184E-008  0.2899843E+04  0.7816531E-02  0.8272924E-01
         -2   -1    0    0    0  501 -0.00000000000E+00  0.00000000000E+00  0.17049569308E+04  0.17049569308E+04  0.00000000000E+00 0.  1.
          2   -1    0    0  501    0  0.00000000000E+00 -0.00000000000E+00 -0.12330354816E+04  0.12330354816E+04  0.00000000000E+00 0. -1.
    2000013    1    1    2    0    0  0.28725164394E+03 -0.85890487949E+03  0.86013475648E+03  0.15692555236E+04  0.95000000000E+03 0.  0.
   -2000013    1    1    2    0    0 -0.28725164394E+03  0.85890487949E+03 -0.38821330728E+03  0.13687368889E+04  0.95000000000E+03 0.  0.
<mgrwt>
<rscale>  0 0.28998430E+04</rscale>
<asrwt>0</asrwt>
<pdfrwt beam="2">  1        2 0.18969777E+00 0.28998430E+04</pdfrwt>
<pdfrwt beam="1">  1       -2 0.26230107E+00 0.28998430E+04</pdfrwt>
<totfact> 0.84383276E-01</totfact>
</mgrwt>
</event>
<event>
 4    1  0.2552184E-008  0.2302601E+04  0.7816531E-02  0.8476896E-01
         -2   -1    0    0    0  501 -0.00000000000E+00  0.00000000000E+00  0.69010973498E+03  0.69010973498E+03  0.00000000000E+00 0. -1.
          2   -1    0    0  501    0  0.00000000000E+00 -0.00000000000E+00 -0.19206981638E+04  0.19206981638E+04  0.00000000000E+00 0.  1.
    2000013    1    1    2    0    0 -0.17474893704E+03 -0.62463750710E+03 -0.66947399596E+03  0.13309412600E+04  0.95000000000E+03 0.  0.
   -2000013    1    1    2    0    0  0.17474893704E+03  0.62463750710E+03 -0.56111443280E+03  0.12798666387E+04  0.95000000000E+03 0.  0.
<mgrwt>
<rscale>  0 0.23026007E+04</rscale>
<asrwt>0</asrwt>
<pdfrwt beam="2">  1        2 0.29549203E+00 0.23026007E+04</pdfrwt>
<pdfrwt beam="1">  1       -2 0.10617073E+00 0.23026007E+04</pdfrwt>
<totfact> 0.47975650E+00</totfact>
</mgrwt>
</event>
<event>
 4    1  0.2552184E-008  0.3137775E+04  0.7816531E-02  0.8205447E-01
         -2   -1    0    0    0  501 -0.00000000000E+00  0.00000000000E+00  0.80824190010E+03  0.80824190010E+03  0.00000000000E+00 0. -1.
          2   -1    0    0  501    0  0.00000000000E+00 -0.00000000000E+00 -0.30453859148E+04  0.30453859148E+04  0.00000000000E+00 0.  1.
    2000013    1    1    2    0    0 -0.10698653350E+04  0.24184698482E+03 -0.38599213047E+03  0.15015297945E+04  0.95000000000E+03 0.  0.
   -2000013    1    1    2    0    0  0.10698653350E+04 -0.24184698482E+03 -0.18511518843E+04  0.23520980204E+04  0.95000000000E+03 0.  0.
<mgrwt>
<rscale>  0 0.31377753E+04</rscale>
<asrwt>0</asrwt>
<pdfrwt beam="2">  1        2 0.46852091E+00 0.31377753E+04</pdfrwt>
<pdfrwt beam="1">  1       -2 0.12434491E+00 0.31377753E+04</pdfrwt>
<totfact> 0.66987130E-01</totfact>
</mgrwt>
</event>
<event>
 4    1  0.2552184E-008  0.2879718E+04  0.7816531E-02  0.8278938E-01
         -2   -1    0    0    0  501 -0.00000000000E+00  0.00000000000E+00  0.17162437070E+04  0.17162437070E+04  0.00000000000E+00 0. -1.
          2   -1    0    0  501    0  0.00000000000E+00 -0.00000000000E+00 -0.12079837889E+04  0.12079837889E+04  0.00000000000E+00 0.  1.
    2000013    1    1    2    0    0  0.10001969490E+04 -0.41259150451E+03  0.24570171272E+03  0.14606488346E+04  0.95000000000E+03 0.  0.
   -2000013    1    1    2    0    0 -0.10001969490E+04  0.41259150451E+03  0.26255820539E+03  0.14635786612E+04  0.95000000000E+03 0.  0.
<mgrwt>
<rscale>  0 0.28797184E+04</rscale>
<asrwt>0</asrwt>
<pdfrwt beam="2">  1        2 0.18584366E+00 0.28797184E+04</pdfrwt>
<pdfrwt beam="1">  1       -2 0.26403749E+00 0.28797184E+04</pdfrwt>
<totfact> 0.85362539E-01</totfact>
</mgrwt>
</event>
<event>
 4    1  0.2552184E-008  0.2250059E+04  0.7816531E-02  0.8497877E-01
          2   -1    0    0  501    0  0.00000000000E+00  0.00000000000E+00  0.52869069227E+03  0.52869069227E+03  0.00000000000E+00 0. -1.
         -2   -1    0    0    0  501 -0.00000000000E+00 -0.00000000000E+00 -0.23940108084E+04  0.23940108084E+04  0.00000000000E+00 0.  1.
    2000013    1    1    2    0    0  0.72989376105E+02 -0.52670575343E+03 -0.13010770527E+04  0.16964810334E+04  0.95000000000E+03 0.  0.
   -2000013    1    1    2    0    0 -0.72989376105E+02  0.52670575343E+03 -0.56424306348E+03  0.12262204673E+04  0.95000000000E+03 0.  0.
<mgrwt>
<rscale>  0 0.22500589E+04</rscale>
<asrwt>0</asrwt>
<pdfrwt beam="1">  1        2 0.81337030E-01 0.22500589E+04</pdfrwt>
<pdfrwt beam="2">  1       -2 0.36830935E+00 0.22500589E+04</pdfrwt>
<totfact> 0.62588920E-01</totfact>
</mgrwt>
</event>
<event>
 4    1  0.2552184E-008  0.2151635E+04  0.7816531E-02  0.8538833E-01
         -2   -1    0    0    0  501 -0.00000000000E+00  0.00000000000E+00  0.46621920895E+03  0.46621920895E+03  0.00000000000E+00 0. -1.
          2   -1    0    0  501    0  0.00000000000E+00 -0.00000000000E+00 -0.24824878459E+04  0.24824878459E+04  0.00000000000E+00 0.  1.
    2000013    1    1    2    0    0  0.32836267132E+03 -0.38195403269E+03 -0.10550628091E+04  0.15064423183E+04  0.95000000000E+03 0.  0.
   -2000013    1    1    2    0    0 -0.32836267132E+03  0.38195403269E+03 -0.96120582782E+03  0.14422647366E+04  0.95000000000E+03 0.  0.
<mgrwt>
<rscale>  0 0.21516352E+04</rscale>
<asrwt>0</asrwt>
<pdfrwt beam="2">  1        2 0.38192121E+00 0.21516352E+04</pdfrwt>
<pdfrwt beam="1">  1       -2 0.71726031E-01 0.21516352E+04</pdfrwt>
<totfact> 0.57636269E+00</totfact>
</mgrwt>
</event>
<event>
 4    1  0.2552184E-008  0.2873507E+04  0.7816531E-02  0.8280804E-01
         -2   -1    0    0    0  501 -0.00000000000E+00  0.00000000000E+00  0.95122284968E+03  0.95122284968E+03  0.00000000000E+00 0.  1.
          2   -1    0    0  501    0  0.00000000000E+00 -0.00000000000E+00 -0.21701126956E+04  0.21701126956E+04  0.00000000000E+00 0. -1.
    2000013    1    1    2    0    0  0.81404047014E+03 -0.42425499148E+03 -0.12230600723E+04  0.18002861231E+04  0.95000000000E+03 0.  0.
   -2000013    1    1    2    0    0 -0.81404047014E+03  0.42425499148E+03  0.41702263686E+01  0.13210494221E+04  0.95000000000E+03 0.  0.
<mgrwt>
<rscale>  0 0.28735071E+04</rscale>
<asrwt>0</asrwt>
<pdfrwt beam="2">  1        2 0.33386349E+00 0.28735071E+04</pdfrwt>
<pdfrwt beam="1">  1       -2 0.14634198E+00 0.28735071E+04</pdfrwt>
<totfact> 0.14848233E+00</totfact>
</mgrwt>
</event>
<event>
 4    1  0.2552184E-008  0.2773495E+04  0.7816531E-02  0.8311545E-01
         -2   -1    0    0    0  501 -0.00000000000E+00  0.00000000000E+00  0.17116279307E+04  0.17116279307E+04  0.00000000000E+00 0. -1.
          2   -1    0    0  501    0  0.00000000000E+00 -0.00000000000E+00 -0.11235321870E+04  0.11235321870E+04  0.00000000000E+00 0.  1.
    2000013    1    1    2    0    0 -0.94883209960E+03 -0.30509917998E+03  0.46264270491E+03  0.14525515947E+04  0.95000000000E+03 0.  0.
   -2000013    1    1    2    0    0  0.94883209960E+03  0.30509917998E+03  0.12545303874E+03  0.13826085230E+04  0.95000000000E+03 0.  0.
<mgrwt>
<rscale>  0 0.27734953E+04</rscale>
<asrwt>0</asrwt>
<pdfrwt beam="2">  1        2 0.17285111E+00 0.27734953E+04</pdfrwt>
<pdfrwt beam="1">  1       -2 0.26332737E+00 0.27734953E+04</pdfrwt>
<totfact> 0.97824695E-01</totfact>
</mgrwt>
</event>
<event>
 4    1  0.2552184E-008  0.2070819E+04  0.7816531E-02  0.8574208E-01
         -2   -1    0    0    0  501 -0.00000000000E+00  0.00000000000E+00  0.20408691472E+04  0.20408691472E+04  0.00000000000E+00 0.  1.
          2   -1    0    0  501    0  0.00000000000E+00 -0.00000000000E+00 -0.52530194099E+03  0.52530194099E+03  0.00000000000E+00 0. -1.
    2000013    1    1    2    0    0 -0.84693314614E+02  0.39495697317E+03  0.85698633342E+03  0.13416741571E+04  0.95000000000E+03 0.  0.
   -2000013    1    1    2    0    0  0.84693314614E+02 -0.39495697317E+03  0.65858087276E+03  0.12244969311E+04  0.95000000000E+03 0.  0.
<mgrwt>
<rscale>  0 0.20708187E+04</rscale>
<asrwt>0</asrwt>
<pdfrwt beam="2">  1        2 0.80815684E-01 0.20708187E+04</pdfrwt>
<pdfrwt beam="1">  1       -2 0.31397986E+00 0.20708187E+04</pdfrwt>
<totfact> 0.14020244E+00</totfact>
</mgrwt>
</event>
<event>
 4    1  0.2552184E-008  0.2612535E+04  0.7816531E-02  0.8363956E-01
         -2   -1    0    0    0  501 -0.00000000000E+00  0.00000000000E+00  0.13769553714E+04  0.13769553714E+04  0.00000000000E+00 0. -1.
          2   -1    0    0  501    0  0.00000000000E+00 -0.00000000000E+00 -0.12392082852E+04  0.12392082852E+04  0.00000000000E+00 0.  1.
    2000013    1    1    2    0    0 -0.72580692251E+03 -0.43498149084E+03  0.36564632360E+03  0.13237076037E+04  0.95000000000E+03 0.  0.
   -2000013    1    1    2    0    0  0.72580692251E+03  0.43498149084E+03 -0.22789923736E+03  0.12924560528E+04  0.95000000000E+03 0.  0.
<mgrwt>
<rscale>  0 0.26125348E+04</rscale>
<asrwt>0</asrwt>
<pdfrwt beam="2">  1        2 0.19064743E+00 0.26125348E+04</pdfrwt>
<pdfrwt beam="1">  1       -2 0.21183929E+00 0.26125348E+04</pdfrwt>
<totfact> 0.17673907E+00</totfact>
</mgrwt>
</event>
<event>
 4    1  0.2552184E-008  0.2787451E+04  0.7816531E-02  0.8307175E-01
         -2   -1    0    0    0  501 -0.00000000000E+00  0.00000000000E+00  0.18348799358E+04  0.18348799358E+04  0.00000000000E+00 0. -1.
          2   -1    0    0  501    0  0.00000000000E+00 -0.00000000000E+00 -0.10586365138E+04  0.10586365138E+04  0.00000000000E+00 0.  1.
    2000013    1    1    2    0    0  0.25368485093E+03 -0.98769837532E+03  0.39660673180E+03  0.14490345006E+04  0.95000000000E+03 0.  0.
   -2000013    1    1    2    0    0 -0.25368485093E+03  0.98769837532E+03  0.37963669021E+03  0.14444819489E+04  0.95000000000E+03 0.  0.
<mgrwt>
<rscale>  0 0.27874511E+04</rscale>
<asrwt>0</asrwt>
<pdfrwt beam="2">  1        2 0.16286716E+00 0.27874511E+04</pdfrwt>
<pdfrwt beam="1">  1       -2 0.28228922E+00 0.27874511E+04</pdfrwt>
<totfact> 0.82114340E-01</totfact>
</mgrwt>
</event>
<event>
 4    1  0.2552184E-008  0.2544858E+04  0.7816531E-02  0.8387177E-01
         -2   -1    0    0    0  501 -0.00000000000E+00  0.00000000000E+00  0.14854039235E+04  0.14854039235E+04  0.00000000000E+00 0. -1.
          2   -1    0    0  501    0  0.00000000000E+00 -0.00000000000E+00 -0.10899896762E+04  0.10899896762E+04  0.00000000000E+00 0.  1.
    2000013    1    1    2    0    0  0.25434367926E+02 -0.84365287897E+03  0.13229521922E+03  0.12776537529E+04  0.95000000000E+03 0.  0.
   -2000013    1    1    2    0    0 -0.25434367926E+02  0.84365287897E+03  0.26311902807E+03  0.12977398469E+04  0.95000000000E+03 0.  0.
<mgrwt>
<rscale>  0 0.25448575E+04</rscale>
<asrwt>0</asrwt>
<pdfrwt beam="2">  1        2 0.16769072E+00 0.25448575E+04</pdfrwt>
<pdfrwt beam="1">  1       -2 0.22852368E+00 0.25448575E+04</pdfrwt>
<totfact> 0.17149454E+00</totfact>
</mgrwt>
</event>
<event>
 4    1  0.2552184E-008  0.2593723E+04  0.7816531E-02  0.8370336E-01
         -1   -1    0    0    0  501 -0.00000000000E+00  0.00000000000E+00  0.18176439906E+04  0.18176439906E+04  0.00000000000E+00 0. -1.
          1   -1    0    0  501    0  0.00000000000E+00 -0.00000000000E+00 -0.92529115513E+03  0.92529115513E+03  0.00000000000E+00 0.  1.
    2000013    1    1    2    0    0 -0.61246604986E+03  0.13162405556E+03 -0.21162847789E+03  0.11574654063E+04  0.95000000000E+03 0.  0.
   -2000013    1    1    2    0    0  0.61246604986E+03 -0.13162405556E+03  0.11039813133E+04  0.15854697394E+04  0.95000000000E+03 0.  0.
<mgrwt>
<rscale>  0 0.25937231E+04</rscale>
<asrwt>0</asrwt>
<pdfrwt beam="2">  1        1 0.14235249E+00 0.25937231E+04</pdfrwt>
<pdfrwt beam="1">  1       -1 0.27963754E+00 0.25937231E+04</pdfrwt>
<totfact> 0.68423085E-01</totfact>
</mgrwt>
</event>
<event>
 4    1  0.2552184E-008  0.2564974E+04  0.7816531E-02  0.8380197E-01
         -2   -1    0    0    0  501 -0.00000000000E+00  0.00000000000E+00  0.57683491169E+03  0.57683491169E+03  0.00000000000E+00 0. -1.
          2   -1    0    0  501    0  0.00000000000E+00 -0.00000000000E+00 -0.28513758710E+04  0.28513758710E+04  0.00000000000E+00 0.  1.
    2000013    1    1    2    0    0 -0.29690416185E+03  0.74347131844E+03 -0.15628124311E+04  0.19964429312E+04  0.95000000000E+03 0.  0.
   -2000013    1    1    2    0    0  0.29690416185E+03 -0.74347131844E+03 -0.71172852819E+03  0.14317678515E+04  0.95000000000E+03 0.  0.
<mgrwt>
<rscale>  0 0.25649742E+04</rscale>
<asrwt>0</asrwt>
<pdfrwt beam="2">  1        2 0.43867321E+00 0.25649742E+04</pdfrwt>
<pdfrwt beam="1">  1       -2 0.88743833E-01 0.25649742E+04</pdfrwt>
<totfact> 0.20836327E+00</totfact>
</mgrwt>
</event>
<event>
 4    1  0.2552184E-008  0.2474162E+04  0.7816531E-02  0.8412249E-01
         -2   -1    0    0    0  501 -0.00000000000E+00  0.00000000000E+00  0.66038383566E+03  0.66038383566E+03  0.00000000000E+00 0. -1.
          2   -1    0    0  501    0  0.00000000000E+00 -0.00000000000E+00 -0.23173931970E+04  0.23173931970E+04  0.00000000000E+00 0.  1.
    2000013    1    1    2    0    0 -0.64999615813E+03 -0.32763898794E+03 -0.45168265314E+03  0.12792026935E+04  0.95000000000E+03 0.  0.
   -2000013    1    1    2    0    0  0.64999615813E+03  0.32763898794E+03 -0.12053267082E+04  0.16985743391E+04  0.95000000000E+03 0.  0.
<mgrwt>
<rscale>  0 0.24741617E+04</rscale>
<asrwt>0</asrwt>
<pdfrwt beam="2">  1        2 0.35652203E+00 0.24741617E+04</pdfrwt>
<pdfrwt beam="1">  1       -2 0.10159751E+00 0.24741617E+04</pdfrwt>
<totfact> 0.31500337E+00</totfact>
</mgrwt>
</event>
<event>
 4    1  0.2552184E-008  0.3533278E+04  0.7816531E-02  0.8105948E-01
          2   -1    0    0  501    0  0.00000000000E+00  0.00000000000E+00  0.19742487928E+04  0.19742487928E+04  0.00000000000E+00 0.  1.
         -2   -1    0    0    0  501 -0.00000000000E+00 -0.00000000000E+00 -0.15808612867E+04  0.15808612867E+04  0.00000000000E+00 0. -1.
    2000013    1    1    2    0    0  0.97266184110E+03 -0.10036569975E+04 -0.32138100714E+03  0.17202279435E+04  0.95000000000E+03 0.  0.
   -2000013    1    1    2    0    0 -0.97266184110E+03  0.10036569975E+04  0.71476851322E+03  0.18348821361E+04  0.95000000000E+03 0.  0.
<mgrwt>
<rscale>  0 0.35332781E+04</rscale>
<asrwt>0</asrwt>
<pdfrwt beam="1">  1        2 0.30373058E+00 0.35332781E+04</pdfrwt>
<pdfrwt beam="2">  1       -2 0.24320943E+00 0.35332781E+04</pdfrwt>
<totfact> 0.40047087E-01</totfact>
</mgrwt>
</event>
<event>
 4    1  0.2552184E-008  0.1999326E+04  0.7816531E-02  0.8606936E-01
          2   -1    0    0  501    0  0.00000000000E+00  0.00000000000E+00  0.73417950961E+03  0.73417950961E+03  0.00000000000E+00 0.  1.
         -2   -1    0    0    0  501 -0.00000000000E+00 -0.00000000000E+00 -0.13611472259E+04  0.13611472259E+04  0.00000000000E+00 0. -1.
    2000013    1    1    2    0    0  0.22637443894E+03  0.16218275825E+03 -0.16797264379E+03  0.10041232209E+04  0.95000000000E+03 0.  0.
   -2000013    1    1    2    0    0 -0.22637443894E+03 -0.16218275825E+03 -0.45899507247E+03  0.10912035146E+04  0.95000000000E+03 0.  0.
<mgrwt>
<rscale>  0 0.19993263E+04</rscale>
<asrwt>0</asrwt>
<pdfrwt beam="1">  1        2 0.11295069E+00 0.19993263E+04</pdfrwt>
<pdfrwt beam="2">  1       -2 0.20940727E+00 0.19993263E+04</pdfrwt>
<totfact> 0.41351904E+00</totfact>
</mgrwt>
</event>
<event>
 4    1  0.2552184E-008  0.2719224E+04  0.7816531E-02  0.8328794E-01
         -2   -1    0    0    0  501 -0.00000000000E+00  0.00000000000E+00  0.14539306106E+04  0.14539306106E+04  0.00000000000E+00 0. -1.
          2   -1    0    0  501    0  0.00000000000E+00 -0.00000000000E+00 -0.12714121674E+04  0.12714121674E+04  0.00000000000E+00 0.  1.
    2000013    1    1    2    0    0 -0.85120463703E+03 -0.44026643821E+02 -0.37836462880E+03  0.13312202942E+04  0.95000000000E+03 0.  0.
   -2000013    1    1    2    0    0  0.85120463703E+03  0.44026643821E+02  0.56088307201E+03  0.13941224838E+04  0.95000000000E+03 0.  0.
<mgrwt>
<rscale>  0 0.27192242E+04</rscale>
<asrwt>0</asrwt>
<pdfrwt beam="2">  1        2 0.19560187E+00 0.27192242E+04</pdfrwt>
<pdfrwt beam="1">  1       -2 0.22368163E+00 0.27192242E+04</pdfrwt>
<totfact> 0.14098147E+00</totfact>
</mgrwt>
</event>
<event>
 4    1  0.2552184E-008  0.2437829E+04  0.7816531E-02  0.8425475E-01
         -2   -1    0    0    0  501 -0.00000000000E+00  0.00000000000E+00  0.88899620294E+03  0.88899620294E+03  0.00000000000E+00 0. -1.
          2   -1    0    0  501    0  0.00000000000E+00 -0.00000000000E+00 -0.16712700415E+04  0.16712700415E+04  0.00000000000E+00 0.  1.
    2000013    1    1    2    0    0  0.31836522090E+03 -0.68460145526E+03 -0.51187683051E+03  0.13170244706E+04  0.95000000000E+03 0.  0.
   -2000013    1    1    2    0    0 -0.31836522090E+03  0.68460145526E+03 -0.27039700807E+03  0.12432417739E+04  0.95000000000E+03 0.  0.
<mgrwt>
<rscale>  0 0.24378291E+04</rscale>
<asrwt>0</asrwt>
<pdfrwt beam="2">  1        2 0.25711847E+00 0.24378291E+04</pdfrwt>
<pdfrwt beam="1">  1       -2 0.13676865E+00 0.24378291E+04</pdfrwt>
<totfact> 0.34810110E+00</totfact>
</mgrwt>
</event>
<event>
 4    1  0.2552184E-008  0.2258467E+04  0.7816531E-02  0.8494479E-01
         -2   -1    0    0    0  501 -0.00000000000E+00  0.00000000000E+00  0.64499033206E+03  0.64499033206E+03  0.00000000000E+00 0. -1.
          2   -1    0    0  501    0  0.00000000000E+00 -0.00000000000E+00 -0.19770352047E+04  0.19770352047E+04  0.00000000000E+00 0.  1.
    2000013    1    1    2    0    0 -0.34129553113E+01 -0.60167277391E+03 -0.54622899713E+03  0.12501551473E+04  0.95000000000E+03 0.  0.
   -2000013    1    1    2    0    0  0.34129553113E+01  0.60167277391E+03 -0.78581587551E+03  0.13718703894E+04  0.95000000000E+03 0.  0.
<mgrwt>
<rscale>  0 0.22584673E+04</rscale>
<asrwt>0</asrwt>
<pdfrwt beam="2">  1        2 0.30415926E+00 0.22584673E+04</pdfrwt>
<pdfrwt beam="1">  1       -2 0.99229283E-01 0.22584673E+04</pdfrwt>
<totfact> 0.52654916E+00</totfact>
</mgrwt>
</event>
<event>
 4    1  0.2552184E-008  0.2551153E+04  0.7816531E-02  0.8384985E-01
          2   -1    0    0  501    0  0.00000000000E+00  0.00000000000E+00  0.12304700218E+04  0.12304700218E+04  0.00000000000E+00 0.  1.
         -2   -1    0    0    0  501 -0.00000000000E+00 -0.00000000000E+00 -0.13223369098E+04  0.13223369098E+04  0.00000000000E+00 0. -1.
    2000013    1    1    2    0    0  0.70205105145E+03  0.31821940657E+03  0.31548850032E+03  0.12633971123E+04  0.95000000000E+03 0.  0.
   -2000013    1    1    2    0    0 -0.70205105145E+03 -0.31821940657E+03 -0.40735538831E+03  0.12894098192E+04  0.95000000000E+03 0.  0.
<mgrwt>
<rscale>  0 0.25511534E+04</rscale>
<asrwt>0</asrwt>
<pdfrwt beam="1">  1        2 0.18930308E+00 0.25511534E+04</pdfrwt>
<pdfrwt beam="2">  1       -2 0.20343645E+00 0.25511534E+04</pdfrwt>
<totfact> 0.20373408E+00</totfact>
</mgrwt>
</event>
<event>
 4    1  0.2552184E-008  0.2712029E+04  0.7816531E-02  0.8331113E-01
         -2   -1    0    0    0  501 -0.00000000000E+00  0.00000000000E+00  0.84696997870E+03  0.84696997870E+03  0.00000000000E+00 0. -1.
          2   -1    0    0  501    0  0.00000000000E+00 -0.00000000000E+00 -0.21710038655E+04  0.21710038655E+04  0.00000000000E+00 0.  1.
    2000013    1    1    2    0    0 -0.76724106875E+03  0.57832931420E+03 -0.53440012952E+03  0.14529993640E+04  0.95000000000E+03 0.  0.
   -2000013    1    1    2    0    0  0.76724106875E+03 -0.57832931420E+03 -0.78963375733E+03  0.15649744803E+04  0.95000000000E+03 0.  0.
<mgrwt>
<rscale>  0 0.27120288E+04</rscale>
<asrwt>0</asrwt>
<pdfrwt beam="2">  1        2 0.33400060E+00 0.27120288E+04</pdfrwt>
<pdfrwt beam="1">  1       -2 0.13030307E+00 0.27120288E+04</pdfrwt>
<totfact> 0.20286257E+00</totfact>
</mgrwt>
</event>
<event>
 4    1  0.2552184E-008  0.2898944E+04  0.7816531E-02  0.8273192E-01
         -2   -1    0    0    0  501 -0.00000000000E+00  0.00000000000E+00  0.10553538132E+04  0.10553538132E+04  0.00000000000E+00 0. -1.
          2   -1    0    0  501    0  0.00000000000E+00 -0.00000000000E+00 -0.19907727421E+04  0.19907727421E+04  0.00000000000E+00 0.  1.
    2000013    1    1    2    0    0 -0.10468430099E+04 -0.27835092839E+03 -0.30120261945E+03  0.14719315693E+04  0.95000000000E+03 0.  0.
   -2000013    1    1    2    0    0  0.10468430099E+04  0.27835092839E+03 -0.63421630940E+03  0.15741949860E+04  0.95000000000E+03 0.  0.
<mgrwt>
<rscale>  0 0.28989444E+04</rscale>
<asrwt>0</asrwt>
<pdfrwt beam="2">  1        2 0.30627273E+00 0.28989444E+04</pdfrwt>
<pdfrwt beam="1">  1       -2 0.16236213E+00 0.28989444E+04</pdfrwt>
<totfact> 0.14123002E+00</totfact>
</mgrwt>
</event>
<event>
 4    1  0.2552184E-008  0.4572965E+04  0.7816531E-02  0.7897986E-01
          2   -1    0    0  501    0  0.00000000000E+00  0.00000000000E+00  0.24573412317E+04  0.24573412317E+04  0.00000000000E+00 0.  1.
         -2   -1    0    0    0  501 -0.00000000000E+00 -0.00000000000E+00 -0.21275032276E+04  0.21275032276E+04  0.00000000000E+00 0. -1.
    2000013    1    1    2    0    0  0.24618041441E+02  0.19129133519E+04 -0.65307910059E+03  0.22335746801E+04  0.95000000000E+03 0.  0.
   -2000013    1    1    2    0    0 -0.24618041441E+02 -0.19129133519E+04  0.98291710468E+03  0.23512697792E+04  0.95000000000E+03 0.  0.
<mgrwt>
<rscale>  0 0.45729646E+04</rscale>
<asrwt>0</asrwt>
<pdfrwt beam="1">  1        2 0.37805250E+00 0.45729646E+04</pdfrwt>
<pdfrwt beam="2">  1       -2 0.32730819E+00 0.45729646E+04</pdfrwt>
<totfact> 0.59879044E-02</totfact>
</mgrwt>
</event>
<event>
 4    1  0.2552184E-008  0.2024643E+04  0.7816531E-02  0.8595185E-01
          2   -1    0    0  501    0  0.00000000000E+00  0.00000000000E+00  0.19457780069E+04  0.19457780069E+04  0.00000000000E+00 0.  1.
         -2   -1    0    0    0  501 -0.00000000000E+00 -0.00000000000E+00 -0.52667602128E+03  0.52667602128E+03  0.00000000000E+00 0. -1.
    2000013    1    1    2    0    0 -0.17412526124E+02  0.34925758143E+03  0.70558174669E+03  0.12339488059E+04  0.95000000000E+03 0.  0.
   -2000013    1    1    2    0    0  0.17412526124E+02 -0.34925758143E+03  0.71352023888E+03  0.12385052223E+04  0.95000000000E+03 0.  0.
<mgrwt>
<rscale>  0 0.20246428E+04</rscale>
<asrwt>0</asrwt>
<pdfrwt beam="1">  1        2 0.29935046E+00 0.20246428E+04</pdfrwt>
<pdfrwt beam="2">  1       -2 0.81027081E-01 0.20246428E+04</pdfrwt>
<totfact> 0.89179252E+00</totfact>
</mgrwt>
</event>
<event>
 4    1  0.2552184E-008  0.3312020E+04  0.7816531E-02  0.8159844E-01
          2   -1    0    0  501    0  0.00000000000E+00  0.00000000000E+00  0.13364817689E+04  0.13364817689E+04  0.00000000000E+00 0. -1.
         -2   -1    0    0    0  501 -0.00000000000E+00 -0.00000000000E+00 -0.20519314330E+04  0.20519314330E+04  0.00000000000E+00 0.  1.
    2000013    1    1    2    0    0 -0.51064127334E+02 -0.10052170181E+04  0.57253378581E+03  0.14977862779E+04  0.95000000000E+03 0.  0.
   -2000013    1    1    2    0    0  0.51064127334E+02  0.10052170181E+04 -0.12879834499E+04  0.18906269240E+04  0.95000000000E+03 0.  0.
<mgrwt>
<rscale>  0 0.33120199E+04</rscale>
<asrwt>0</asrwt>
<pdfrwt beam="1">  1        2 0.20561258E+00 0.33120199E+04</pdfrwt>
<pdfrwt beam="2">  1       -2 0.31568176E+00 0.33120199E+04</pdfrwt>
<totfact> 0.33436845E-01</totfact>
</mgrwt>
</event>
<event>
 4    1  0.2552184E-008  0.2103617E+04  0.7816531E-02  0.8559652E-01
          2   -1    0    0  501    0  0.00000000000E+00  0.00000000000E+00  0.22061277518E+04  0.22061277518E+04  0.00000000000E+00 0.  1.
         -2   -1    0    0    0  501 -0.00000000000E+00 -0.00000000000E+00 -0.50146738182E+03  0.50146738182E+03  0.00000000000E+00 0. -1.
    2000013    1    1    2    0    0  0.89749206513E+02  0.42335656894E+03  0.68692022935E+03  0.12496579956E+04  0.95000000000E+03 0.  0.
   -2000013    1    1    2    0    0 -0.89749206513E+02 -0.42335656894E+03  0.10177401407E+04  0.14579371380E+04  0.95000000000E+03 0.  0.
<mgrwt>
<rscale>  0 0.21036170E+04</rscale>
<asrwt>0</asrwt>
<pdfrwt beam="1">  1        2 0.33940427E+00 0.21036170E+04</pdfrwt>
<pdfrwt beam="2">  1       -2 0.77148829E-01 0.21036170E+04</pdfrwt>
<totfact> 0.70766212E+00</totfact>
</mgrwt>
</event>
<event>
 4    1  0.2552184E-008  0.2530266E+04  0.7816531E-02  0.8392282E-01
         -2   -1    0    0    0  501 -0.00000000000E+00  0.00000000000E+00  0.17021894454E+04  0.17021894454E+04  0.00000000000E+00 0. -1.
          2   -1    0    0  501    0  0.00000000000E+00 -0.00000000000E+00 -0.94029575665E+03  0.94029575665E+03  0.00000000000E+00 0.  1.
    2000013    1    1    2    0    0 -0.68080683704E+03 -0.46962880640E+03  0.25732311788E+03  0.12855988302E+04  0.95000000000E+03 0.  0.
   -2000013    1    1    2    0    0  0.68080683704E+03  0.46962880640E+03  0.50457057086E+03  0.13568863719E+04  0.95000000000E+03 0.  0.
<mgrwt>
<rscale>  0 0.25302660E+04</rscale>
<asrwt>0</asrwt>
<pdfrwt beam="2">  1        2 0.14466089E+00 0.25302660E+04</pdfrwt>
<pdfrwt beam="1">  1       -2 0.26187530E+00 0.25302660E+04</pdfrwt>
<totfact> 0.13319252E+00</totfact>
</mgrwt>
</event>
<event>
 4    1  0.2552184E-008  0.2597091E+04  0.7816531E-02  0.8369190E-01
         -1   -1    0    0    0  501 -0.00000000000E+00  0.00000000000E+00  0.58163599622E+03  0.58163599622E+03  0.00000000000E+00 0. -1.
          1   -1    0    0  501    0  0.00000000000E+00 -0.00000000000E+00 -0.28990982862E+04  0.28990982862E+04  0.00000000000E+00 0.  1.
    2000013    1    1    2    0    0  0.14620000474E+03  0.61055869478E+03 -0.19952445975E+04  0.22973152516E+04  0.95000000000E+03 0.  0.
   -2000013    1    1    2    0    0 -0.14620000474E+03 -0.61055869478E+03 -0.32221769240E+03  0.11834190308E+04  0.95000000000E+03 0.  0.
<mgrwt>
<rscale>  0 0.25970906E+04</rscale>
<asrwt>0</asrwt>
<pdfrwt beam="2">  1        1 0.44601512E+00 0.25970906E+04</pdfrwt>
<pdfrwt beam="1">  1       -1 0.89482462E-01 0.25970906E+04</pdfrwt>
<totfact> 0.76234033E-01</totfact>
</mgrwt>
</event>
<event>
 4    1  0.2552184E-008  0.2277851E+04  0.7816531E-02  0.8486706E-01
         -2   -1    0    0    0  501 -0.00000000000E+00  0.00000000000E+00  0.62946045434E+03  0.62946045434E+03  0.00000000000E+00 0. -1.
          2   -1    0    0  501    0  0.00000000000E+00 -0.00000000000E+00 -0.20607358318E+04  0.20607358318E+04  0.00000000000E+00 0.  1.
    2000013    1    1    2    0    0  0.59928724885E+03  0.50877563264E+02 -0.92991449954E+03  0.14591006509E+04  0.95000000000E+03 0.  0.
   -2000013    1    1    2    0    0 -0.59928724885E+03 -0.50877563264E+02 -0.50136087788E+03  0.12310956352E+04  0.95000000000E+03 0.  0.
<mgrwt>
<rscale>  0 0.22778514E+04</rscale>
<asrwt>0</asrwt>
<pdfrwt beam="2">  1        2 0.31703629E+00 0.22778514E+04</pdfrwt>
<pdfrwt beam="1">  1       -2 0.96840068E-01 0.22778514E+04</pdfrwt>
<totfact> 0.50010167E+00</totfact>
</mgrwt>
</event>
<event>
 4    1  0.2552184E-008  0.2236761E+04  0.7816531E-02  0.8503281E-01
          2   -1    0    0  501    0  0.00000000000E+00  0.00000000000E+00  0.13490026267E+04  0.13490026267E+04  0.00000000000E+00 0.  1.
         -2   -1    0    0    0  501 -0.00000000000E+00 -0.00000000000E+00 -0.92718458903E+03  0.92718458903E+03  0.00000000000E+00 0. -1.
    2000013    1    1    2    0    0 -0.53972823070E+02 -0.58749170447E+03  0.22582610529E+03  0.11408580097E+04  0.95000000000E+03 0.  0.
   -2000013    1    1    2    0    0  0.53972823070E+02  0.58749170447E+03  0.19599193235E+03  0.11353292060E+04  0.95000000000E+03 0.  0.
<mgrwt>
<rscale>  0 0.22367606E+04</rscale>
<asrwt>0</asrwt>
<pdfrwt beam="1">  1        2 0.20753887E+00 0.22367606E+04</pdfrwt>
<pdfrwt beam="2">  1       -2 0.14264378E+00 0.22367606E+04</pdfrwt>
<totfact> 0.48268979E+00</totfact>
</mgrwt>
</event>
<event>
 4    1  0.2552184E-008  0.2897575E+04  0.7816531E-02  0.8273599E-01
         -2   -1    0    0    0  501 -0.00000000000E+00  0.00000000000E+00  0.25989819813E+04  0.25989819813E+04  0.00000000000E+00 0. -1.
          2   -1    0    0  501    0  0.00000000000E+00 -0.00000000000E+00 -0.80761821725E+03  0.80761821725E+03  0.00000000000E+00 0.  1.
    2000013    1    1    2    0    0 -0.38730021505E+03 -0.10219936540E+04  0.84293740660E+03  0.16755643696E+04  0.95000000000E+03 0.  0.
   -2000013    1    1    2    0    0  0.38730021505E+03  0.10219936540E+04  0.94842635742E+03  0.17310358289E+04  0.95000000000E+03 0.  0.
<mgrwt>
<rscale>  0 0.28975750E+04</rscale>
<asrwt>0</asrwt>
<pdfrwt beam="2">  1        2 0.12424896E+00 0.28975750E+04</pdfrwt>
<pdfrwt beam="1">  1       -2 0.39984338E+00 0.28975750E+04</pdfrwt>
<totfact> 0.21831742E-01</totfact>
</mgrwt>
</event>
<event>
 4    1  0.2552184E-008  0.2476946E+04  0.7816531E-02  0.8411245E-01
          2   -1    0    0  501    0  0.00000000000E+00  0.00000000000E+00  0.39204800760E+04  0.39204800760E+04  0.00000000000E+00 0.  1.
         -2   -1    0    0    0  501 -0.00000000000E+00 -0.00000000000E+00 -0.39123166755E+03  0.39123166755E+03  0.00000000000E+00 0. -1.
    2000013    1    1    2    0    0  0.60813069631E+03 -0.26449701178E+03  0.25264513213E+04  0.27794312174E+04  0.95000000000E+03 0.  0.
   -2000013    1    1    2    0    0 -0.60813069631E+03  0.26449701178E+03  0.10027970872E+04  0.15322805262E+04  0.95000000000E+03 0.  0.
<mgrwt>
<rscale>  0 0.24769465E+04</rscale>
<asrwt>0</asrwt>
<pdfrwt beam="1">  1        2 0.60315075E+00 0.24769465E+04</pdfrwt>
<pdfrwt beam="2">  1       -2 0.60189490E-01 0.24769465E+04</pdfrwt>
<totfact> 0.91356542E-01</totfact>
</mgrwt>
</event>
<event>
 4    1  0.2552184E-008  0.2141295E+04  0.7816531E-02  0.8543267E-01
         -1   -1    0    0    0  501 -0.00000000000E+00  0.00000000000E+00  0.10391968509E+04  0.10391968509E+04  0.00000000000E+00 0. -1.
          1   -1    0    0  501    0  0.00000000000E+00 -0.00000000000E+00 -0.11030503587E+04  0.11030503587E+04  0.00000000000E+00 0.  1.
    2000013    1    1    2    0    0  0.42925544346E+03  0.24356824220E+03 -0.46101145240E+02  0.10715460979E+04  0.95000000000E+03 0.  0.
   -2000013    1    1    2    0    0 -0.42925544346E+03 -0.24356824220E+03 -0.17752362559E+02  0.10707011118E+04  0.95000000000E+03 0.  0.
<mgrwt>
<rscale>  0 0.21412954E+04</rscale>
<asrwt>0</asrwt>
<pdfrwt beam="2">  1        1 0.16970006E+00 0.21412954E+04</pdfrwt>
<pdfrwt beam="1">  1       -1 0.15987644E+00 0.21412954E+04</pdfrwt>
<totfact> 0.33850428E+00</totfact>
</mgrwt>
</event>
<event>
 4    1  0.2552184E-008  0.2697944E+04  0.7816531E-02  0.8335672E-01
         -2   -1    0    0    0  501 -0.00000000000E+00  0.00000000000E+00  0.69330032080E+03  0.69330032080E+03  0.00000000000E+00 0. -1.
          2   -1    0    0  501    0  0.00000000000E+00 -0.00000000000E+00 -0.26247288642E+04  0.26247288642E+04  0.00000000000E+00 0.  1.
    2000013    1    1    2    0    0  0.18148630528E+03 -0.82134499027E+03 -0.40256141064E+03  0.13312026748E+04  0.95000000000E+03 0.  0.
   -2000013    1    1    2    0    0 -0.18148630528E+03  0.82134499027E+03 -0.15288671328E+04  0.19868265102E+04  0.95000000000E+03 0.  0.
<mgrwt>
<rscale>  0 0.26979439E+04</rscale>
<asrwt>0</asrwt>
<pdfrwt beam="2">  1        2 0.40380444E+00 0.26979439E+04</pdfrwt>
<pdfrwt beam="1">  1       -2 0.10666159E+00 0.26979439E+04</pdfrwt>
<totfact> 0.18272581E+00</totfact>
</mgrwt>
</event>
<event>
 4    1  0.2552184E-008  0.3170012E+04  0.7816531E-02  0.8196782E-01
          2   -1    0    0  501    0  0.00000000000E+00  0.00000000000E+00  0.16690654455E+04  0.16690654455E+04  0.00000000000E+00 0.  1.
         -2   -1    0    0    0  501 -0.00000000000E+00 -0.00000000000E+00 -0.15051796414E+04  0.15051796414E+04  0.00000000000E+00 0. -1.
    2000013    1    1    2    0    0 -0.11226306687E+04  0.59014405589E+03  0.47637790662E+02  0.15853513756E+04  0.95000000000E+03 0.  0.
   -2000013    1    1    2    0    0  0.11226306687E+04 -0.59014405589E+03  0.11624801346E+03  0.15888937113E+04  0.95000000000E+03 0.  0.
<mgrwt>
<rscale>  0 0.31700116E+04</rscale>
<asrwt>0</asrwt>
<pdfrwt beam="1">  1        2 0.25677930E+00 0.31700116E+04</pdfrwt>
<pdfrwt beam="2">  1       -2 0.23156610E+00 0.31700116E+04</pdfrwt>
<totfact> 0.72006358E-01</totfact>
</mgrwt>
</event>
<event>
 4    1  0.2552184E-008  0.3029250E+04  0.7816531E-02  0.8235427E-01
         -2   -1    0    0    0  501 -0.00000000000E+00  0.00000000000E+00  0.14754303724E+04  0.14754303724E+04  0.00000000000E+00 0. -1.
          2   -1    0    0  501    0  0.00000000000E+00 -0.00000000000E+00 -0.15548611859E+04  0.15548611859E+04  0.00000000000E+00 0.  1.
    2000013    1    1    2    0    0 -0.25659202879E+03 -0.11480893257E+04  0.47726591803E+02  0.15128537261E+04  0.95000000000E+03 0.  0.
   -2000013    1    1    2    0    0  0.25659202879E+03  0.11480893257E+04 -0.12715740531E+03  0.15174378322E+04  0.95000000000E+03 0.  0.
<mgrwt>
<rscale>  0 0.30292503E+04</rscale>
<asrwt>0</asrwt>
<pdfrwt beam="2">  1        2 0.23920941E+00 0.30292503E+04</pdfrwt>
<pdfrwt beam="1">  1       -2 0.22698929E+00 0.30292503E+04</pdfrwt>
<totfact> 0.90151847E-01</totfact>
</mgrwt>
</event>
<event>
 4    1  0.2552184E-008  0.2649577E+04  0.7816531E-02  0.8351553E-01
          2   -1    0    0  501    0  0.00000000000E+00  0.00000000000E+00  0.22404532495E+04  0.22404532495E+04  0.00000000000E+00 0.  1.
         -2   -1    0    0    0  501 -0.00000000000E+00 -0.00000000000E+00 -0.78335242634E+03  0.78335242634E+03  0.00000000000E+00 0. -1.
    2000013    1    1    2    0    0  0.36713759009E+03  0.60241168990E+03  0.14084031044E+04  0.18395078577E+04  0.95000000000E+03 0.  0.
   -2000013    1    1    2    0    0 -0.36713759009E+03 -0.60241168990E+03  0.48697718768E+02  0.11842978181E+04  0.95000000000E+03 0.  0.
<mgrwt>
<rscale>  0 0.26495769E+04</rscale>
<asrwt>0</asrwt>
<pdfrwt beam="1">  1        2 0.34468511E+00 0.26495769E+04</pdfrwt>
<pdfrwt beam="2">  1       -2 0.12051576E+00 0.26495769E+04</pdfrwt>
<totfact> 0.22673749E+00</totfact>
</mgrwt>
</event>
<event>
 4    1  0.2552184E-008  0.2333550E+04  0.7816531E-02  0.8464809E-01
         -2   -1    0    0    0  501 -0.00000000000E+00  0.00000000000E+00  0.14337292999E+04  0.14337292999E+04  0.00000000000E+00 0. -1.
          2   -1    0    0  501    0  0.00000000000E+00 -0.00000000000E+00 -0.94952641049E+03  0.94952641049E+03  0.00000000000E+00 0.  1.
    2000013    1    1    2    0    0  0.57153950008E+03  0.34192478311E+03  0.36840406385E+03  0.12172885902E+04  0.95000000000E+03 0.  0.
   -2000013    1    1    2    0    0 -0.57153950008E+03 -0.34192478311E+03  0.11579882557E+03  0.11659671202E+04  0.95000000000E+03 0.  0.
<mgrwt>
<rscale>  0 0.23335499E+04</rscale>
<asrwt>0</asrwt>
<pdfrwt beam="2">  1        2 0.14608099E+00 0.23335499E+04</pdfrwt>
<pdfrwt beam="1">  1       -2 0.22057374E+00 0.23335499E+04</pdfrwt>
<totfact> 0.24070299E+00</totfact>
</mgrwt>
</event>
<event>
 4    1  0.2552184E-008  0.2047090E+04  0.7816531E-02  0.8584916E-01
         -2   -1    0    0    0  501 -0.00000000000E+00  0.00000000000E+00  0.12706402436E+04  0.12706402436E+04  0.00000000000E+00 0. -1.
          2   -1    0    0  501    0  0.00000000000E+00 -0.00000000000E+00 -0.82450113594E+03  0.82450113594E+03  0.00000000000E+00 0.  1.
    2000013    1    1    2    0    0 -0.64169810997E+02 -0.37351938742E+03  0.18330098423E+03  0.10391023762E+04  0.95000000000E+03 0.  0.
   -2000013    1    1    2    0    0  0.64169810997E+02  0.37351938742E+03  0.26283812343E+03  0.10560390033E+04  0.95000000000E+03 0.  0.
<mgrwt>
<rscale>  0 0.20470900E+04</rscale>
<asrwt>0</asrwt>
<pdfrwt beam="2">  1        2 0.12684633E+00 0.20470900E+04</pdfrwt>
<pdfrwt beam="1">  1       -2 0.19548311E+00 0.20470900E+04</pdfrwt>
<totfact> 0.43595412E+00</totfact>
</mgrwt>
</event>
<event>
 4    1  0.2552184E-008  0.2974766E+04  0.7816531E-02  0.8250974E-01
         -2   -1    0    0    0  501 -0.00000000000E+00  0.00000000000E+00  0.18011308907E+04  0.18011308907E+04  0.00000000000E+00 0. -1.
          2   -1    0    0  501    0  0.00000000000E+00 -0.00000000000E+00 -0.12282880885E+04  0.12282880885E+04  0.00000000000E+00 0.  1.
    2000013    1    1    2    0    0  0.91737958083E+03  0.66888138272E+03  0.43336380949E+03  0.15424953131E+04  0.95000000000E+03 0.  0.
   -2000013    1    1    2    0    0 -0.91737958083E+03 -0.66888138272E+03  0.13947899267E+03  0.14869236661E+04  0.95000000000E+03 0.  0.
<mgrwt>
<rscale>  0 0.29747656E+04</rscale>
<asrwt>0</asrwt>
<pdfrwt beam="2">  1        2 0.18896740E+00 0.29747656E+04</pdfrwt>
<pdfrwt beam="1">  1       -2 0.27709706E+00 0.29747656E+04</pdfrwt>
<totfact> 0.68552124E-01</totfact>
</mgrwt>
</event>
<event>
 4    1  0.2552184E-008  0.1935493E+04  0.7816531E-02  0.8637388E-01
         -2   -1    0    0    0  501 -0.00000000000E+00  0.00000000000E+00  0.23631231425E+04  0.23631231425E+04  0.00000000000E+00 0. -1.
          2   -1    0    0  501    0  0.00000000000E+00 -0.00000000000E+00 -0.39631156449E+03  0.39631156449E+03  0.00000000000E+00 0.  1.
    2000013    1    1    2    0    0 -0.87020597932E+02 -0.34693890760E+02  0.75682788191E+03  0.12182219393E+04  0.95000000000E+03 0.  0.
   -2000013    1    1    2    0    0  0.87020597932E+02  0.34693890760E+02  0.12099836961E+04  0.15412127677E+04  0.95000000000E+03 0.  0.
<mgrwt>
<rscale>  0 0.19354927E+04</rscale>
<asrwt>0</asrwt>
<pdfrwt beam="2">  1        2 0.60971012E-01 0.19354927E+04</pdfrwt>
<pdfrwt beam="1">  1       -2 0.36355740E+00 0.19354927E+04</pdfrwt>
<totfact> 0.96084002E-01</totfact>
</mgrwt>
</event>
<event>
 4    1  0.2552184E-008  0.2129799E+04  0.7816531E-02  0.8548229E-01
          1   -1    0    0  501    0  0.00000000000E+00  0.00000000000E+00  0.22241807432E+04  0.22241807432E+04  0.00000000000E+00 0.  1.
         -1   -1    0    0    0  501 -0.00000000000E+00 -0.00000000000E+00 -0.50985580015E+03  0.50985580015E+03  0.00000000000E+00 0. -1.
    2000013    1    1    2    0    0  0.13104537628E+03 -0.44578748159E+03  0.69676555080E+03  0.12664444726E+04  0.95000000000E+03 0.  0.
   -2000013    1    1    2    0    0 -0.13104537628E+03  0.44578748159E+03  0.10175593923E+04  0.14675920708E+04  0.95000000000E+03 0.  0.
<mgrwt>
<rscale>  0 0.21297995E+04</rscale>
<asrwt>0</asrwt>
<pdfrwt beam="1">  1        1 0.34218165E+00 0.21297995E+04</pdfrwt>
<pdfrwt beam="2">  1       -1 0.78439355E-01 0.21297995E+04</pdfrwt>
<totfact> 0.31292160E+00</totfact>
</mgrwt>
</event>
<event>
 4    1  0.2552184E-008  0.2564761E+04  0.7816531E-02  0.8380271E-01
         -2   -1    0    0    0  501 -0.00000000000E+00  0.00000000000E+00  0.11538991908E+04  0.11538991908E+04  0.00000000000E+00 0. -1.
          2   -1    0    0  501    0  0.00000000000E+00 -0.00000000000E+00 -0.14251675396E+04  0.14251675396E+04  0.00000000000E+00 0.  1.
    2000013    1    1    2    0    0  0.80946574142E+03  0.29172723923E+03 -0.17660578803E+03  0.12938427930E+04  0.95000000000E+03 0.  0.
   -2000013    1    1    2    0    0 -0.80946574142E+03 -0.29172723923E+03 -0.94662560768E+02  0.12852239373E+04  0.95000000000E+03 0.  0.
<mgrwt>
<rscale>  0 0.25647609E+04</rscale>
<asrwt>0</asrwt>
<pdfrwt beam="2">  1        2 0.21925654E+00 0.25647609E+04</pdfrwt>
<pdfrwt beam="1">  1       -2 0.17752295E+00 0.25647609E+04</pdfrwt>
<totfact> 0.23431379E+00</totfact>
</mgrwt>
</event>
<event>
 4    1  0.2552184E-008  0.3147903E+04  0.7816531E-02  0.8202713E-01
          2   -1    0    0  501    0  0.00000000000E+00  0.00000000000E+00  0.79310480725E+03  0.79310480725E+03  0.00000000000E+00 0.  1.
         -2   -1    0    0    0  501 -0.00000000000E+00 -0.00000000000E+00 -0.31235766493E+04  0.31235766493E+04  0.00000000000E+00 0. -1.
    2000013    1    1    2    0    0  0.55584657375E+03 -0.11227830338E+04 -0.12551000910E+04  0.20118109735E+04  0.95000000000E+03 0.  0.
   -2000013    1    1    2    0    0 -0.55584657375E+03  0.11227830338E+04 -0.10753717510E+04  0.19048704831E+04  0.95000000000E+03 0.  0.
<mgrwt>
<rscale>  0 0.31479032E+04</rscale>
<asrwt>0</asrwt>
<pdfrwt beam="1">  1        2 0.12201612E+00 0.31479032E+04</pdfrwt>
<pdfrwt beam="2">  1       -2 0.48055026E+00 0.31479032E+04</pdfrwt>
<totfact> 0.64407712E-02</totfact>
</mgrwt>
</event>
<event>
 4    1  0.2552184E-008  0.2493980E+04  0.7816531E-02  0.8405133E-01
         -1   -1    0    0    0  501 -0.00000000000E+00  0.00000000000E+00  0.11855554051E+04  0.11855554051E+04  0.00000000000E+00 0. -1.
          1   -1    0    0  501    0  0.00000000000E+00 -0.00000000000E+00 -0.13116076130E+04  0.13116076130E+04  0.00000000000E+00 0.  1.
    2000013    1    1    2    0    0  0.68926743795E+03  0.41681525065E+03 -0.24597133971E+01  0.12455242287E+04  0.95000000000E+03 0.  0.
   -2000013    1    1    2    0    0 -0.68926743795E+03 -0.41681525065E+03 -0.12359249453E+03  0.12516387893E+04  0.95000000000E+03 0.  0.
<mgrwt>
<rscale>  0 0.24939795E+04</rscale>
<asrwt>0</asrwt>
<pdfrwt beam="2">  1        1 0.20178579E+00 0.24939795E+04</pdfrwt>
<pdfrwt beam="1">  1       -1 0.18239314E+00 0.24939795E+04</pdfrwt>
<totfact> 0.15781144E+00</totfact>
</mgrwt>
</event>
<event>
 4    1  0.2552184E-008  0.2642070E+04  0.7816531E-02  0.8354050E-01
         -2   -1    0    0    0  501 -0.00000000000E+00  0.00000000000E+00  0.12337627218E+04  0.12337627218E+04  0.00000000000E+00 0. -1.
          2   -1    0    0  501    0  0.00000000000E+00 -0.00000000000E+00 -0.14144805194E+04  0.14144805194E+04  0.00000000000E+00 0.  1.
    2000013    1    1    2    0    0 -0.37786042089E+03 -0.43806435999E+03  0.62401562168E+03  0.12753722505E+04  0.95000000000E+03 0.  0.
   -2000013    1    1    2    0    0  0.37786042089E+03  0.43806435999E+03 -0.80473341923E+03  0.13728709907E+04  0.95000000000E+03 0.  0.
<mgrwt>
<rscale>  0 0.26420699E+04</rscale>
<asrwt>0</asrwt>
<pdfrwt beam="2">  1        2 0.21761239E+00 0.26420699E+04</pdfrwt>
<pdfrwt beam="1">  1       -2 0.18980965E+00 0.26420699E+04</pdfrwt>
<totfact> 0.19456994E+00</totfact>
</mgrwt>
</event>
<event>
 4    1  0.2552184E-008  0.1989187E+04  0.7816531E-02  0.8611693E-01
          2   -1    0    0  501    0  0.00000000000E+00  0.00000000000E+00  0.12584299985E+04  0.12584299985E+04  0.00000000000E+00 0.  1.
         -2   -1    0    0    0  501 -0.00000000000E+00 -0.00000000000E+00 -0.78607176613E+03  0.78607176613E+03  0.00000000000E+00 0. -1.
    2000013    1    1    2    0    0  0.52457100881E+02  0.27834850931E+03  0.15339974117E+03  0.10031256754E+04  0.95000000000E+03 0.  0.
   -2000013    1    1    2    0    0 -0.52457100881E+02 -0.27834850931E+03  0.31895849117E+03  0.10413760892E+04  0.95000000000E+03 0.  0.
<mgrwt>
<rscale>  0 0.19891871E+04</rscale>
<asrwt>0</asrwt>
<pdfrwt beam="1">  1        2 0.19360462E+00 0.19891871E+04</pdfrwt>
<pdfrwt beam="2">  1       -2 0.12093412E+00 0.19891871E+04</pdfrwt>
<totfact> 0.84704154E+00</totfact>
</mgrwt>
</event>
<event>
 4    1  0.2552184E-008  0.2355688E+04  0.7816531E-02  0.8456282E-01
          2   -1    0    0  501    0  0.00000000000E+00  0.00000000000E+00  0.77094167623E+03  0.77094167623E+03  0.00000000000E+00 0.  1.
         -2   -1    0    0    0  501 -0.00000000000E+00 -0.00000000000E+00 -0.17995087877E+04  0.17995087877E+04  0.00000000000E+00 0. -1.
    2000013    1    1    2    0    0  0.50380056404E+03  0.40848113108E+03 -0.79064097879E+03  0.13958098008E+04  0.95000000000E+03 0.  0.
   -2000013    1    1    2    0    0 -0.50380056404E+03 -0.40848113108E+03 -0.23792613267E+03  0.11746406631E+04  0.95000000000E+03 0.  0.
<mgrwt>
<rscale>  0 0.23556879E+04</rscale>
<asrwt>0</asrwt>
<pdfrwt beam="1">  1        2 0.11860641E+00 0.23556879E+04</pdfrwt>
<pdfrwt beam="2">  1       -2 0.27684750E+00 0.23556879E+04</pdfrwt>
<totfact> 0.14372113E+00</totfact>
</mgrwt>
</event>
<event>
 4    1  0.2552184E-008  0.2749366E+04  0.7816531E-02  0.8319163E-01
          2   -1    0    0  501    0  0.00000000000E+00  0.00000000000E+00  0.43524434289E+04  0.43524434289E+04  0.00000000000E+00 0.  1.
         -2   -1    0    0    0  501 -0.00000000000E+00 -0.00000000000E+00 -0.43418216150E+03  0.43418216150E+03  0.00000000000E+00 0. -1.
    2000013    1    1    2    0    0 -0.74115580640E+03  0.28541005645E+03  0.91965097850E+03  0.15424100466E+04  0.95000000000E+03 0.  0.
   -2000013    1    1    2    0    0  0.74115580640E+03 -0.28541005645E+03  0.29986102889E+04  0.32442155438E+04  0.95000000000E+03 0.  0.
<mgrwt>
<rscale>  0 0.27493660E+04</rscale>
<asrwt>0</asrwt>
<pdfrwt beam="1">  1        2 0.66960665E+00 0.27493660E+04</pdfrwt>
<pdfrwt beam="2">  1       -2 0.66797259E-01 0.27493660E+04</pdfrwt>
<totfact> 0.30615556E-01</totfact>
</mgrwt>
</event>
<event>
 4    1  0.2552184E-008  0.2920865E+04  0.7816531E-02  0.8266697E-01
         -2   -1    0    0    0  501 -0.00000000000E+00  0.00000000000E+00  0.45994178689E+03  0.45994178689E+03  0.00000000000E+00 0. -1.
          2   -1    0    0  501    0  0.00000000000E+00 -0.00000000000E+00 -0.46372442493E+04  0.46372442493E+04  0.00000000000E+00 0.  1.
    2000013    1    1    2    0    0 -0.78853697548E+03  0.71343958310E+03 -0.15379754404E+04  0.20972970833E+04  0.95000000000E+03 0.  0.
   -2000013    1    1    2    0    0  0.78853697548E+03 -0.71343958310E+03 -0.26393270220E+04  0.29998889529E+04  0.95000000000E+03 0.  0.
<mgrwt>
<rscale>  0 0.29208645E+04</rscale>
<asrwt>0</asrwt>
<pdfrwt beam="2">  1        2 0.71342220E+00 0.29208645E+04</pdfrwt>
<pdfrwt beam="1">  1       -2 0.70760274E-01 0.29208645E+04</pdfrwt>
<totfact> 0.13991522E-01</totfact>
</mgrwt>
</event>
<event>
 4    1  0.2552184E-008  0.2833851E+04  0.7816531E-02  0.8292835E-01
          2   -1    0    0  501    0  0.00000000000E+00  0.00000000000E+00  0.30207938951E+04  0.30207938951E+04  0.00000000000E+00 0.  1.
         -2   -1    0    0    0  501 -0.00000000000E+00 -0.00000000000E+00 -0.66461942607E+03  0.66461942607E+03  0.00000000000E+00 0. -1.
    2000013    1    1    2    0    0  0.24418793182E+03  0.95263233716E+03  0.69490043457E+03  0.15337935747E+04  0.95000000000E+03 0.  0.
   -2000013    1    1    2    0    0 -0.24418793182E+03 -0.95263233716E+03  0.16612740345E+04  0.21516197465E+04  0.95000000000E+03 0.  0.
<mgrwt>
<rscale>  0 0.28338513E+04</rscale>
<asrwt>0</asrwt>
<pdfrwt beam="1">  1        2 0.46473752E+00 0.28338513E+04</pdfrwt>
<pdfrwt beam="2">  1       -2 0.10224914E+00 0.28338513E+04</pdfrwt>
<totfact> 0.11479622E+00</totfact>
</mgrwt>
</event>
<event>
 4    1  0.2552184E-008  0.2154092E+04  0.7816531E-02  0.8537783E-01
          2   -1    0    0  501    0  0.00000000000E+00  0.00000000000E+00  0.10554415596E+04  0.10554415596E+04  0.00000000000E+00 0.  1.
         -2   -1    0    0    0  501 -0.00000000000E+00 -0.00000000000E+00 -0.10990924740E+04  0.10990924740E+04  0.00000000000E+00 0. -1.
    2000013    1    1    2    0    0  0.32441654862E+03 -0.29174640082E+03  0.23739143328E+03  0.10720152760E+04  0.95000000000E+03 0.  0.
   -2000013    1    1    2    0    0 -0.32441654862E+03  0.29174640082E+03 -0.28104234761E+03  0.10825187576E+04  0.95000000000E+03 0.  0.
<mgrwt>
<rscale>  0 0.21540918E+04</rscale>
<asrwt>0</asrwt>
<pdfrwt beam="1">  1        2 0.16237563E+00 0.21540918E+04</pdfrwt>
<pdfrwt beam="2">  1       -2 0.16909115E+00 0.21540918E+04</pdfrwt>
<totfact> 0.46092721E+00</totfact>
</mgrwt>
</event>
<event>
 4    1  0.2552184E-008  0.2823254E+04  0.7816531E-02  0.8296085E-01
         -2   -1    0    0    0  501 -0.00000000000E+00  0.00000000000E+00  0.10961394405E+04  0.10961394405E+04  0.00000000000E+00 0. -1.
          2   -1    0    0  501    0  0.00000000000E+00 -0.00000000000E+00 -0.18179174209E+04  0.18179174209E+04  0.00000000000E+00 0.  1.
    2000013    1    1    2    0    0  0.36728388638E+03 -0.93755660561E+03 -0.64596235597E+03  0.15276377867E+04  0.95000000000E+03 0.  0.
   -2000013    1    1    2    0    0 -0.36728388638E+03  0.93755660561E+03 -0.75815624484E+02  0.13864190748E+04  0.95000000000E+03 0.  0.
<mgrwt>
<rscale>  0 0.28232541E+04</rscale>
<asrwt>0</asrwt>
<pdfrwt beam="2">  1        2 0.27967960E+00 0.28232541E+04</pdfrwt>
<pdfrwt beam="1">  1       -2 0.16863684E+00 0.28232541E+04</pdfrwt>
<totfact> 0.15966738E+00</totfact>
</mgrwt>
</event>
<event>
 4    1  0.2552184E-008  0.2904347E+04  0.7816531E-02  0.8271585E-01
          2   -1    0    0  501    0  0.00000000000E+00  0.00000000000E+00  0.13159567533E+04  0.13159567533E+04  0.00000000000E+00 0.  1.
         -2   -1    0    0    0  501 -0.00000000000E+00 -0.00000000000E+00 -0.16024900204E+04  0.16024900204E+04  0.00000000000E+00 0. -1.
    2000013    1    1    2    0    0  0.18985376159E+03  0.85076173341E+03 -0.81469281722E+03  0.15251440470E+04  0.95000000000E+03 0.  0.
   -2000013    1    1    2    0    0 -0.18985376159E+03 -0.85076173341E+03  0.52815955011E+03  0.13933027267E+04  0.95000000000E+03 0.  0.
<mgrwt>
<rscale>  0 0.29043468E+04</rscale>
<asrwt>0</asrwt>
<pdfrwt beam="1">  1        2 0.20245488E+00 0.29043468E+04</pdfrwt>
<pdfrwt beam="2">  1       -2 0.24653693E+00 0.29043468E+04</pdfrwt>
<totfact> 0.94230451E-01</totfact>
</mgrwt>
</event>
<event>
 4    1  0.2552184E-008  0.3981287E+04  0.7816531E-02  0.8008332E-01
          2   -1    0    0  501    0  0.00000000000E+00  0.00000000000E+00  0.18898186915E+04  0.18898186915E+04  0.00000000000E+00 0.  1.
         -2   -1    0    0    0  501 -0.00000000000E+00 -0.00000000000E+00 -0.20968477011E+04  0.20968477011E+04  0.00000000000E+00 0. -1.
    2000013    1    1    2    0    0  0.13594861076E+04  0.79780530043E+03  0.65610533196E+03  0.19538858669E+04  0.95000000000E+03 0.  0.
   -2000013    1    1    2    0    0 -0.13594861076E+04 -0.79780530043E+03 -0.86313434150E+03  0.20327805257E+04  0.95000000000E+03 0.  0.
<mgrwt>
<rscale>  0 0.39812872E+04</rscale>
<asrwt>0</asrwt>
<pdfrwt beam="1">  1        2 0.29074134E+00 0.39812872E+04</pdfrwt>
<pdfrwt beam="2">  1       -2 0.32259195E+00 0.39812872E+04</pdfrwt>
<totfact> 0.14024515E-01</totfact>
</mgrwt>
</event>
<event>
 4    1  0.2552184E-008  0.2672964E+04  0.7816531E-02  0.8343831E-01
          2   -1    0    0  501    0  0.00000000000E+00  0.00000000000E+00  0.10549901195E+04  0.10549901195E+04  0.00000000000E+00 0.  1.
         -2   -1    0    0    0  501 -0.00000000000E+00 -0.00000000000E+00 -0.16930808267E+04  0.16930808267E+04  0.00000000000E+00 0. -1.
    2000013    1    1    2    0    0 -0.55920731266E+02 -0.84883624053E+03  0.92237202510E+02  0.12785373647E+04  0.95000000000E+03 0.  0.
   -2000013    1    1    2    0    0  0.55920731266E+02  0.84883624053E+03 -0.73032790972E+03  0.14695335815E+04  0.95000000000E+03 0.  0.
<mgrwt>
<rscale>  0 0.26729636E+04</rscale>
<asrwt>0</asrwt>
<pdfrwt beam="1">  1        2 0.16230618E+00 0.26729636E+04</pdfrwt>
<pdfrwt beam="2">  1       -2 0.26047397E+00 0.26729636E+04</pdfrwt>
<totfact> 0.11323871E+00</totfact>
</mgrwt>
</event>
<event>
 4    1  0.2552184E-008  0.2221401E+04  0.7816531E-02  0.8509573E-01
          2   -1    0    0  501    0  0.00000000000E+00  0.00000000000E+00  0.87524071071E+03  0.87524071071E+03  0.00000000000E+00 0.  1.
         -2   -1    0    0    0  501 -0.00000000000E+00 -0.00000000000E+00 -0.14095037384E+04  0.14095037384E+04  0.00000000000E+00 0. -1.
    2000013    1    1    2    0    0 -0.30191982316E+03 -0.32682399946E+03 -0.64248401520E+03  0.12301443883E+04  0.95000000000E+03 0.  0.
   -2000013    1    1    2    0    0  0.30191982316E+03  0.32682399946E+03  0.10822098747E+03  0.10546000609E+04  0.95000000000E+03 0.  0.
<mgrwt>
<rscale>  0 0.22214005E+04</rscale>
<asrwt>0</asrwt>
<pdfrwt beam="1">  1        2 0.13465242E+00 0.22214005E+04</pdfrwt>
<pdfrwt beam="2">  1       -2 0.21684673E+00 0.22214005E+04</pdfrwt>
<totfact> 0.28780513E+00</totfact>
</mgrwt>
</event>
<event>
 4    1  0.2552184E-008  0.2271428E+04  0.7816531E-02  0.8489273E-01
         -2   -1    0    0    0  501 -0.00000000000E+00  0.00000000000E+00  0.92541501385E+03  0.92541501385E+03  0.00000000000E+00 0. -1.
          2   -1    0    0  501    0  0.00000000000E+00 -0.00000000000E+00 -0.13938032617E+04  0.13938032617E+04  0.00000000000E+00 0.  1.
    2000013    1    1    2    0    0 -0.72603694106E+02 -0.41613693542E+03 -0.70087205664E+03  0.12538591967E+04  0.95000000000E+03 0.  0.
   -2000013    1    1    2    0    0  0.72603694106E+02  0.41613693542E+03  0.23248380881E+03  0.10653590788E+04  0.95000000000E+03 0.  0.
<mgrwt>
<rscale>  0 0.22714282E+04</rscale>
<asrwt>0</asrwt>
<pdfrwt beam="2">  1        2 0.21443127E+00 0.22714282E+04</pdfrwt>
<pdfrwt beam="1">  1       -2 0.14237154E+00 0.22714282E+04</pdfrwt>
<totfact> 0.45584309E+00</totfact>
</mgrwt>
</event>
<event>
 4    1  0.2552184E-008  0.2273789E+04  0.7816531E-02  0.8488328E-01
         -2   -1    0    0    0  501 -0.00000000000E+00  0.00000000000E+00  0.53422662153E+03  0.53422662153E+03  0.00000000000E+00 0. -1.
          2   -1    0    0  501    0  0.00000000000E+00 -0.00000000000E+00 -0.24194393643E+04  0.24194393643E+04  0.00000000000E+00 0.  1.
    2000013    1    1    2    0    0 -0.18420595387E+03  0.49404396768E+03 -0.50784148081E+03  0.11993390868E+04  0.95000000000E+03 0.  0.
   -2000013    1    1    2    0    0  0.18420595387E+03 -0.49404396768E+03 -0.13773712619E+04  0.17543268990E+04  0.95000000000E+03 0.  0.
<mgrwt>
<rscale>  0 0.22737888E+04</rscale>
<asrwt>0</asrwt>
<pdfrwt beam="2">  1        2 0.37222144E+00 0.22737888E+04</pdfrwt>
<pdfrwt beam="1">  1       -2 0.82188711E-01 0.22737888E+04</pdfrwt>
<totfact> 0.45781417E+00</totfact>
</mgrwt>
</event>
<event>
 4    1  0.2552184E-008  0.2657556E+04  0.7816531E-02  0.8348909E-01
         -1   -1    0    0    0  501 -0.00000000000E+00  0.00000000000E+00  0.88686274988E+03  0.88686274988E+03  0.00000000000E+00 0. -1.
          1   -1    0    0  501    0  0.00000000000E+00 -0.00000000000E+00 -0.19908956811E+04  0.19908956811E+04  0.00000000000E+00 0.  1.
    2000013    1    1    2    0    0  0.81121140817E+02 -0.83893334797E+03 -0.12878424935E+03  0.12765089834E+04  0.95000000000E+03 0.  0.
   -2000013    1    1    2    0    0 -0.81121140817E+02  0.83893334797E+03 -0.97524868184E+03  0.16012494475E+04  0.95000000000E+03 0.  0.
<mgrwt>
<rscale>  0 0.26575562E+04</rscale>
<asrwt>0</asrwt>
<pdfrwt beam="2">  1        1 0.30629164E+00 0.26575562E+04</pdfrwt>
<pdfrwt beam="1">  1       -1 0.13644042E+00 0.26575562E+04</pdfrwt>
<totfact> 0.11871921E+00</totfact>
</mgrwt>
</event>
<event>
 4    1  0.2552184E-008  0.3312470E+04  0.7816531E-02  0.8159730E-01
         -2   -1    0    0    0  501 -0.00000000000E+00  0.00000000000E+00  0.17676173572E+04  0.17676173572E+04  0.00000000000E+00 0. -1.
          2   -1    0    0  501    0  0.00000000000E+00 -0.00000000000E+00 -0.15518708202E+04  0.15518708202E+04  0.00000000000E+00 0.  1.
    2000013    1    1    2    0    0  0.12964269461E+04  0.28863161321E+03  0.38519553046E+03  0.16777683486E+04  0.95000000000E+03 0.  0.
   -2000013    1    1    2    0    0 -0.12964269461E+04 -0.28863161321E+03 -0.16944899341E+03  0.16417198288E+04  0.95000000000E+03 0.  0.
<mgrwt>
<rscale>  0 0.33124697E+04</rscale>
<asrwt>0</asrwt>
<pdfrwt beam="2">  1        2 0.23874936E+00 0.33124697E+04</pdfrwt>
<pdfrwt beam="1">  1       -2 0.27194113E+00 0.33124697E+04</pdfrwt>
<totfact> 0.46697220E-01</totfact>
</mgrwt>
</event>
<event>
 4    1  0.2552184E-008  0.3108370E+04  0.7816531E-02  0.8213445E-01
         -2   -1    0    0    0  501 -0.00000000000E+00  0.00000000000E+00  0.14967555921E+04  0.14967555921E+04  0.00000000000E+00 0. -1.
          2   -1    0    0  501    0  0.00000000000E+00 -0.00000000000E+00 -0.16138182013E+04  0.16138182013E+04  0.00000000000E+00 0.  1.
    2000013    1    1    2    0    0  0.11966028706E+04  0.28329929502E+03 -0.28938445466E+02  0.15541732059E+04  0.95000000000E+03 0.  0.
   -2000013    1    1    2    0    0 -0.11966028706E+04 -0.28329929502E+03 -0.88124163726E+02  0.15564005875E+04  0.95000000000E+03 0.  0.
<mgrwt>
<rscale>  0 0.31083703E+04</rscale>
<asrwt>0</asrwt>
<pdfrwt beam="2">  1        2 0.24827972E+00 0.31083703E+04</pdfrwt>
<pdfrwt beam="1">  1       -2 0.23027009E+00 0.31083703E+04</pdfrwt>
<totfact> 0.79164499E-01</totfact>
</mgrwt>
</event>
<event>
 4    1  0.2552184E-008  0.3061338E+04  0.7816531E-02  0.8226429E-01
         -2   -1    0    0    0  501 -0.00000000000E+00  0.00000000000E+00  0.71583276867E+03  0.71583276867E+03  0.00000000000E+00 0. -1.
          2   -1    0    0  501    0  0.00000000000E+00 -0.00000000000E+00 -0.32730383162E+04  0.32730383162E+04  0.00000000000E+00 0.  1.
    2000013    1    1    2    0    0 -0.13639227807E+03  0.11309358267E+04 -0.17710361168E+04  0.23101271880E+04  0.95000000000E+03 0.  0.
   -2000013    1    1    2    0    0  0.13639227807E+03 -0.11309358267E+04 -0.78616943078E+03  0.16787438969E+04  0.95000000000E+03 0.  0.
<mgrwt>
<rscale>  0 0.30613383E+04</rscale>
<asrwt>0</asrwt>
<pdfrwt beam="2">  1        2 0.50354436E+00 0.30613383E+04</pdfrwt>
<pdfrwt beam="1">  1       -2 0.11012812E+00 0.30613383E+04</pdfrwt>
<totfact> 0.64722237E-01</totfact>
</mgrwt>
</event>
<event>
 4    1  0.2552184E-008  0.2342450E+04  0.7816531E-02  0.8461369E-01
          2   -1    0    0  501    0  0.00000000000E+00  0.00000000000E+00  0.18460481895E+04  0.18460481895E+04  0.00000000000E+00 0.  1.
         -2   -1    0    0    0  501 -0.00000000000E+00 -0.00000000000E+00 -0.74308361952E+03  0.74308361952E+03  0.00000000000E+00 0. -1.
    2000013    1    1    2    0    0  0.24645715120E+03  0.52794549985E+03  0.94970143495E+03  0.14642064041E+04  0.95000000000E+03 0.  0.
   -2000013    1    1    2    0    0 -0.24645715120E+03 -0.52794549985E+03  0.15326313505E+03  0.11249254050E+04  0.95000000000E+03 0.  0.
<mgrwt>
<rscale>  0 0.23424501E+04</rscale>
<asrwt>0</asrwt>
<pdfrwt beam="1">  1        2 0.28400741E+00 0.23424501E+04</pdfrwt>
<pdfrwt beam="2">  1       -2 0.11432056E+00 0.23424501E+04</pdfrwt>
<totfact> 0.43974644E+00</totfact>
</mgrwt>
</event>
<event>
 4    1  0.2552184E-008  0.2354448E+04  0.7816531E-02  0.8456757E-01
          2   -1    0    0  501    0  0.00000000000E+00  0.00000000000E+00  0.14172440102E+04  0.14172440102E+04  0.00000000000E+00 0.  1.
         -2   -1    0    0    0  501 -0.00000000000E+00 -0.00000000000E+00 -0.97785336911E+03  0.97785336911E+03  0.00000000000E+00 0. -1.
    2000013    1    1    2    0    0 -0.67097250305E+03 -0.14493551943E+03  0.33180890658E+03  0.12181163964E+04  0.95000000000E+03 0.  0.
   -2000013    1    1    2    0    0  0.67097250305E+03  0.14493551943E+03  0.10758173453E+03  0.11769809830E+04  0.95000000000E+03 0.  0.
<mgrwt>
<rscale>  0 0.23544484E+04</rscale>
<asrwt>0</asrwt>
<pdfrwt beam="1">  1        2 0.21803754E+00 0.23544484E+04</pdfrwt>
<pdfrwt beam="2">  1       -2 0.15043898E+00 0.23544484E+04</pdfrwt>
<totfact> 0.37964524E+00</totfact>
</mgrwt>
</event>
<event>
 4    1  0.2552184E-008  0.2481201E+04  0.7816531E-02  0.8409713E-01
          2   -1    0    0  501    0  0.00000000000E+00  0.00000000000E+00  0.83322973048E+03  0.83322973048E+03  0.00000000000E+00 0.  1.
         -2   -1    0    0    0  501 -0.00000000000E+00 -0.00000000000E+00 -0.18471376068E+04  0.18471376068E+04  0.00000000000E+00 0. -1.
    2000013    1    1    2    0    0 -0.77767900395E+03  0.15790567407E+03 -0.59650001539E+03  0.13740564411E+04  0.95000000000E+03 0.  0.
   -2000013    1    1    2    0    0  0.77767900395E+03 -0.15790567407E+03 -0.41740786098E+03  0.13063108962E+04  0.95000000000E+03 0.  0.
<mgrwt>
<rscale>  0 0.24812013E+04</rscale>
<asrwt>0</asrwt>
<pdfrwt beam="1">  1        2 0.12818919E+00 0.24812013E+04</pdfrwt>
<pdfrwt beam="2">  1       -2 0.28417502E+00 0.24812013E+04</pdfrwt>
<totfact> 0.11569699E+00</totfact>
</mgrwt>
</event>
<event>
 4    1  0.2552184E-008  0.2262075E+04  0.7816531E-02  0.8493026E-01
          2   -1    0    0  501    0  0.00000000000E+00  0.00000000000E+00  0.20479708174E+04  0.20479708174E+04  0.00000000000E+00 0. -1.
         -2   -1    0    0    0  501 -0.00000000000E+00 -0.00000000000E+00 -0.62464050098E+03  0.62464050098E+03  0.00000000000E+00 0.  1.
    2000013    1    1    2    0    0 -0.55972286449E+03 -0.11264583578E+03  0.97787158010E+03  0.14780769928E+04  0.95000000000E+03 0.  0.
   -2000013    1    1    2    0    0  0.55972286449E+03  0.11264583578E+03  0.44545873634E+03  0.11945343256E+04  0.95000000000E+03 0.  0.
<mgrwt>
<rscale>  0 0.22620747E+04</rscale>
<asrwt>0</asrwt>
<pdfrwt beam="1">  1        2 0.31507243E+00 0.22620747E+04</pdfrwt>
<pdfrwt beam="2">  1       -2 0.96098540E-01 0.22620747E+04</pdfrwt>
<totfact> 0.51829416E+00</totfact>
</mgrwt>
</event>
<event>
 4    1  0.2552184E-008  0.2335505E+04  0.7816531E-02  0.8464052E-01
         -2   -1    0    0    0  501 -0.00000000000E+00  0.00000000000E+00  0.30109322746E+03  0.30109322746E+03  0.00000000000E+00 0. -1.
          2   -1    0    0  501    0  0.00000000000E+00 -0.00000000000E+00 -0.45289818661E+04  0.45289818661E+04  0.00000000000E+00 0.  1.
    2000013    1    1    2    0    0 -0.49644146017E+03  0.29701205327E+03 -0.13784551567E+04  0.17712450147E+04  0.95000000000E+03 0.  0.
   -2000013    1    1    2    0    0  0.49644146017E+03 -0.29701205327E+03 -0.28494334819E+04  0.30588300788E+04  0.95000000000E+03 0.  0.
<mgrwt>
<rscale>  0 0.23355049E+04</rscale>
<asrwt>0</asrwt>
<pdfrwt beam="2">  1        2 0.69676639E+00 0.23355049E+04</pdfrwt>
<pdfrwt beam="1">  1       -2 0.46322038E-01 0.23355049E+04</pdfrwt>
<totfact> 0.46453430E-01</totfact>
</mgrwt>
</event>
<event>
 4    1  0.2552184E-008  0.2751509E+04  0.7816531E-02  0.8318483E-01
         -2   -1    0    0    0  501 -0.00000000000E+00  0.00000000000E+00  0.50857458034E+03  0.50857458034E+03  0.00000000000E+00 0. -1.
          2   -1    0    0  501    0  0.00000000000E+00 -0.00000000000E+00 -0.37215787443E+04  0.37215787443E+04  0.00000000000E+00 0.  1.
    2000013    1    1    2    0    0 -0.10499132301E+03  0.97394420356E+03 -0.18754795144E+04  0.23193779119E+04  0.95000000000E+03 0.  0.
   -2000013    1    1    2    0    0  0.10499132301E+03 -0.97394420356E+03 -0.13375246496E+04  0.19107754127E+04  0.95000000000E+03 0.  0.
<mgrwt>
<rscale>  0 0.27515089E+04</rscale>
<asrwt>0</asrwt>
<pdfrwt beam="2">  1        2 0.57255057E+00 0.27515089E+04</pdfrwt>
<pdfrwt beam="1">  1       -2 0.78242244E-01 0.27515089E+04</pdfrwt>
<totfact> 0.71440900E-01</totfact>
</mgrwt>
</event>
<event>
 4    1  0.2552184E-008  0.2793392E+04  0.7816531E-02  0.8305323E-01
          2   -1    0    0  501    0  0.00000000000E+00  0.00000000000E+00  0.22143426357E+04  0.22143426357E+04  0.00000000000E+00 0.  1.
         -2   -1    0    0    0  501 -0.00000000000E+00 -0.00000000000E+00 -0.88096574762E+03  0.88096574762E+03  0.00000000000E+00 0. -1.
    2000013    1    1    2    0    0  0.10115894681E+04  0.10803399779E+03  0.53901630895E+03  0.14926564166E+04  0.95000000000E+03 0.  0.
   -2000013    1    1    2    0    0 -0.10115894681E+04 -0.10803399779E+03  0.79436057912E+03  0.16026519667E+04  0.95000000000E+03 0.  0.
<mgrwt>
<rscale>  0 0.27933922E+04</rscale>
<asrwt>0</asrwt>
<pdfrwt beam="1">  1        2 0.34066810E+00 0.27933922E+04</pdfrwt>
<pdfrwt beam="2">  1       -2 0.13553319E+00 0.27933922E+04</pdfrwt>
<totfact> 0.17233774E+00</totfact>
</mgrwt>
</event>
<event>
 4    1  0.2552184E-008  0.2350007E+04  0.7816531E-02  0.8458461E-01
         -2   -1    0    0    0  501 -0.00000000000E+00  0.00000000000E+00  0.20928556708E+04  0.20928556708E+04  0.00000000000E+00 0. -1.
          2   -1    0    0  501    0  0.00000000000E+00 -0.00000000000E+00 -0.65968862594E+03  0.65968862594E+03  0.00000000000E+00 0.  1.
    2000013    1    1    2    0    0  0.12267059969E+03  0.60608200083E+03  0.10790215008E+04  0.15649827050E+04  0.95000000000E+03 0.  0.
   -2000013    1    1    2    0    0 -0.12267059969E+03 -0.60608200083E+03  0.35414554403E+03  0.11875615917E+04  0.95000000000E+03 0.  0.
<mgrwt>
<rscale>  0 0.23500069E+04</rscale>
<asrwt>0</asrwt>
<pdfrwt beam="2">  1        2 0.10149056E+00 0.23500069E+04</pdfrwt>
<pdfrwt beam="1">  1       -2 0.32197779E+00 0.23500069E+04</pdfrwt>
<totfact> 0.92842938E-01</totfact>
</mgrwt>
</event>
<event>
 4    1  0.2552184E-008  0.2578588E+04  0.7816531E-02  0.8375511E-01
          2   -1    0    0  501    0  0.00000000000E+00  0.00000000000E+00  0.16085172730E+04  0.16085172730E+04  0.00000000000E+00 0. -1.
         -2   -1    0    0    0  501 -0.00000000000E+00 -0.00000000000E+00 -0.10334229322E+04  0.10334229322E+04  0.00000000000E+00 0.  1.
    2000013    1    1    2    0    0  0.35467479124E+03 -0.78473530827E+03  0.42567379314E+03  0.13510373384E+04  0.95000000000E+03 0.  0.
   -2000013    1    1    2    0    0 -0.35467479124E+03  0.78473530827E+03  0.14942054768E+03  0.12909028669E+04  0.95000000000E+03 0.  0.
<mgrwt>
<rscale>  0 0.25785877E+04</rscale>
<asrwt>0</asrwt>
<pdfrwt beam="1">  1        2 0.24746420E+00 0.25785877E+04</pdfrwt>
<pdfrwt beam="2">  1       -2 0.15898814E+00 0.25785877E+04</pdfrwt>
<totfact> 0.25053300E+00</totfact>
</mgrwt>
</event>
<event>
 4    1  0.2552184E-008  0.3827403E+04  0.7816531E-02  0.8040300E-01
          2   -1    0    0  501    0  0.00000000000E+00  0.00000000000E+00  0.12335543435E+04  0.12335543435E+04  0.00000000000E+00 0.  1.
         -2   -1    0    0    0  501 -0.00000000000E+00 -0.00000000000E+00 -0.29688622176E+04  0.29688622176E+04  0.00000000000E+00 0. -1.
    2000013    1    1    2    0    0  0.21778676204E+03  0.16333731901E+04 -0.10990489853E+04  0.21967584582E+04  0.95000000000E+03 0.  0.
   -2000013    1    1    2    0    0 -0.21778676204E+03 -0.16333731901E+04 -0.63625888884E+03  0.20056581028E+04  0.95000000000E+03 0.  0.
<mgrwt>
<rscale>  0 0.38274027E+04</rscale>
<asrwt>0</asrwt>
<pdfrwt beam="1">  1        2 0.18977760E+00 0.38274027E+04</pdfrwt>
<pdfrwt beam="2">  1       -2 0.45674802E+00 0.38274027E+04</pdfrwt>
<totfact> 0.45313252E-02</totfact>
</mgrwt>
</event>
<event>
 4    1  0.2552184E-008  0.2744153E+04  0.7816531E-02  0.8320819E-01
          2   -1    0    0  501    0  0.00000000000E+00  0.00000000000E+00  0.16311048323E+04  0.16311048323E+04  0.00000000000E+00 0.  1.
         -2   -1    0    0    0  501 -0.00000000000E+00 -0.00000000000E+00 -0.11541832702E+04  0.11541832702E+04  0.00000000000E+00 0. -1.
    2000013    1    1    2    0    0 -0.31958137927E+03 -0.89235610654E+03 -0.51588920463E+02  0.13429791866E+04  0.95000000000E+03 0.  0.
   -2000013    1    1    2    0    0  0.31958137927E+03  0.89235610654E+03  0.52851048254E+03  0.14423089159E+04  0.95000000000E+03 0.  0.
<mgrwt>
<rscale>  0 0.27441530E+04</rscale>
<asrwt>0</asrwt>
<pdfrwt beam="1">  1        2 0.25093920E+00 0.27441530E+04</pdfrwt>
<pdfrwt beam="2">  1       -2 0.17756666E+00 0.27441530E+04</pdfrwt>
<totfact> 0.17658565E+00</totfact>
</mgrwt>
</event>
<event>
 4    1  0.2552184E-008  0.2264204E+04  0.7816531E-02  0.8492170E-01
          2   -1    0    0  501    0  0.00000000000E+00  0.00000000000E+00  0.70567289683E+03  0.70567289683E+03  0.00000000000E+00 0.  1.
         -2   -1    0    0    0  501 -0.00000000000E+00 -0.00000000000E+00 -0.18162164652E+04  0.18162164652E+04  0.00000000000E+00 0. -1.
    2000013    1    1    2    0    0 -0.19168806598E+03  0.50971065755E+03 -0.23515024107E+03  0.11199754037E+04  0.95000000000E+03 0.  0.
   -2000013    1    1    2    0    0  0.19168806598E+03 -0.50971065755E+03 -0.87539332733E+03  0.14019139583E+04  0.95000000000E+03 0.  0.
<mgrwt>
<rscale>  0 0.22642038E+04</rscale>
<asrwt>0</asrwt>
<pdfrwt beam="1">  1        2 0.10856506E+00 0.22642038E+04</pdfrwt>
<pdfrwt beam="2">  1       -2 0.27941792E+00 0.22642038E+04</pdfrwt>
<totfact> 0.15658697E+00</totfact>
</mgrwt>
</event>
<event>
 4    1  0.2552184E-008  0.2760700E+04  0.7816531E-02  0.8315574E-01
         -2   -1    0    0    0  501 -0.00000000000E+00  0.00000000000E+00  0.11311977573E+04  0.11311977573E+04  0.00000000000E+00 0. -1.
          2   -1    0    0  501    0  0.00000000000E+00 -0.00000000000E+00 -0.16843791204E+04  0.16843791204E+04  0.00000000000E+00 0.  1.
    2000013    1    1    2    0    0 -0.70297703002E+03 -0.34134464230E+03  0.36209481609E+03  0.12823047709E+04  0.95000000000E+03 0.  0.
   -2000013    1    1    2    0    0  0.70297703002E+03  0.34134464230E+03 -0.91527617917E+03  0.15332721069E+04  0.95000000000E+03 0.  0.
<mgrwt>
<rscale>  0 0.27606998E+04</rscale>
<asrwt>0</asrwt>
<pdfrwt beam="2">  1        2 0.25913525E+00 0.27606998E+04</pdfrwt>
<pdfrwt beam="1">  1       -2 0.17403043E+00 0.27606998E+04</pdfrwt>
<totfact> 0.17435377E+00</totfact>
</mgrwt>
</event>
<event>
 4    1  0.2552184E-008  0.2165921E+04  0.7816531E-02  0.8532748E-01
         -1   -1    0    0    0  501 -0.00000000000E+00  0.00000000000E+00  0.59108889496E+03  0.59108889496E+03  0.00000000000E+00 0. -1.
          1   -1    0    0  501    0  0.00000000000E+00 -0.00000000000E+00 -0.19841401634E+04  0.19841401634E+04  0.00000000000E+00 0.  1.
    2000013    1    1    2    0    0 -0.44466543043E+03  0.42685556345E+02 -0.10127885167E+04  0.14586946155E+04  0.95000000000E+03 0.  0.
   -2000013    1    1    2    0    0  0.44466543043E+03 -0.42685556345E+02 -0.38026275173E+03  0.11165344429E+04  0.95000000000E+03 0.  0.
<mgrwt>
<rscale>  0 0.21659208E+04</rscale>
<asrwt>0</asrwt>
<pdfrwt beam="2">  1        1 0.30525233E+00 0.21659208E+04</pdfrwt>
<pdfrwt beam="1">  1       -1 0.90936753E-01 0.21659208E+04</pdfrwt>
<totfact> 0.32972668E+00</totfact>
</mgrwt>
</event>
<event>
 4    1  0.2552184E-008  0.2204104E+04  0.7816531E-02  0.8516722E-01
         -2   -1    0    0    0  501 -0.00000000000E+00  0.00000000000E+00  0.68898069691E+03  0.68898069691E+03  0.00000000000E+00 0. -1.
          2   -1    0    0  501    0  0.00000000000E+00 -0.00000000000E+00 -0.17627763009E+04  0.17627763009E+04  0.00000000000E+00 0.  1.
    2000013    1    1    2    0    0  0.50989779615E+03 -0.10057858408E+03 -0.30918432137E+03  0.11261468637E+04  0.95000000000E+03 0.  0.
   -2000013    1    1    2    0    0 -0.50989779615E+03  0.10057858408E+03 -0.76461128266E+03  0.13256101341E+04  0.95000000000E+03 0.  0.
<mgrwt>
<rscale>  0 0.22041042E+04</rscale>
<asrwt>0</asrwt>
<pdfrwt beam="2">  1        2 0.27119636E+00 0.22041042E+04</pdfrwt>
<pdfrwt beam="1">  1       -2 0.10599703E+00 0.22041042E+04</pdfrwt>
<totfact> 0.59419146E+00</totfact>
</mgrwt>
</event>
<event>
 4    1  0.2552184E-008  0.3001963E+04  0.7816531E-02  0.8243171E-01
         -2   -1    0    0    0  501 -0.00000000000E+00  0.00000000000E+00  0.10161503777E+04  0.10161503777E+04  0.00000000000E+00 0. -1.
          2   -1    0    0  501    0  0.00000000000E+00 -0.00000000000E+00 -0.22171373251E+04  0.22171373251E+04  0.00000000000E+00 0.  1.
    2000013    1    1    2    0    0  0.47459728522E+03  0.34825656248E+03  0.47867328147E+03  0.12157932912E+04  0.95000000000E+03 0.  0.
   -2000013    1    1    2    0    0 -0.47459728522E+03 -0.34825656248E+03 -0.16796602289E+04  0.20174944116E+04  0.95000000000E+03 0.  0.
<mgrwt>
<rscale>  0 0.30019626E+04</rscale>
<asrwt>0</asrwt>
<pdfrwt beam="2">  1        2 0.34109805E+00 0.30019626E+04</pdfrwt>
<pdfrwt beam="1">  1       -2 0.15633083E+00 0.30019626E+04</pdfrwt>
<totfact> 0.11595276E+00</totfact>
</mgrwt>
</event>
<event>
 4    1  0.2552184E-008  0.3369008E+04  0.7816531E-02  0.8145555E-01
         -2   -1    0    0    0  501 -0.00000000000E+00  0.00000000000E+00  0.56680585349E+03  0.56680585349E+03  0.00000000000E+00 0. -1.
          2   -1    0    0  501    0  0.00000000000E+00 -0.00000000000E+00 -0.50062185388E+04  0.50062185388E+04  0.00000000000E+00 0.  1.
    2000013    1    1    2    0    0  0.58886672882E+03 -0.11215892117E+04 -0.12689673508E+04  0.20291635029E+04  0.95000000000E+03 0.  0.
   -2000013    1    1    2    0    0 -0.58886672882E+03  0.11215892117E+04 -0.31704453346E+04  0.35438608894E+04  0.95000000000E+03 0.  0.
<mgrwt>
<rscale>  0 0.33690081E+04</rscale>
<asrwt>0</asrwt>
<pdfrwt beam="2">  1        2 0.77018743E+00 0.33690081E+04</pdfrwt>
<pdfrwt beam="1">  1       -2 0.87200904E-01 0.33690081E+04</pdfrwt>
<totfact> 0.31634155E-02</totfact>
</mgrwt>
</event>
<event>
 4    1  0.2552184E-008  0.2383800E+04  0.7816531E-02  0.8445594E-01
         -2   -1    0    0    0  501 -0.00000000000E+00  0.00000000000E+00  0.71496553754E+03  0.71496553754E+03  0.00000000000E+00 0. -1.
          2   -1    0    0  501    0  0.00000000000E+00 -0.00000000000E+00 -0.19869840676E+04  0.19869840676E+04  0.00000000000E+00 0.  1.
    2000013    1    1    2    0    0  0.21398193808E+03  0.62590106648E+03 -0.31424793748E+03  0.11994966365E+04  0.95000000000E+03 0.  0.
   -2000013    1    1    2    0    0 -0.21398193808E+03 -0.62590106648E+03 -0.95777059257E+03  0.15024529686E+04  0.95000000000E+03 0.  0.
<mgrwt>
<rscale>  0 0.23837996E+04</rscale>
<asrwt>0</asrwt>
<pdfrwt beam="2">  1        2 0.30568985E+00 0.23837996E+04</pdfrwt>
<pdfrwt beam="1">  1       -2 0.10999470E+00 0.23837996E+04</pdfrwt>
<totfact> 0.40194050E+00</totfact>
</mgrwt>
</event>
<event>
 4    1  0.2552184E-008  0.3072003E+04  0.7816531E-02  0.8223464E-01
         -2   -1    0    0    0  501 -0.00000000000E+00  0.00000000000E+00  0.86050908926E+03  0.86050908926E+03  0.00000000000E+00 0. -1.
          2   -1    0    0  501    0  0.00000000000E+00 -0.00000000000E+00 -0.27417494842E+04  0.27417494842E+04  0.00000000000E+00 0.  1.
    2000013    1    1    2    0    0 -0.85194057740E+03 -0.70915722408E+03 -0.38059204985E+03  0.15086606724E+04  0.95000000000E+03 0.  0.
   -2000013    1    1    2    0    0  0.85194057740E+03  0.70915722408E+03 -0.15006483451E+04  0.20935979011E+04  0.95000000000E+03 0.  0.
<mgrwt>
<rscale>  0 0.30720028E+04</rscale>
<asrwt>0</asrwt>
<pdfrwt beam="2">  1        2 0.42180762E+00 0.30720028E+04</pdfrwt>
<pdfrwt beam="1">  1       -2 0.13238601E+00 0.30720028E+04</pdfrwt>
<totfact> 0.88438830E-01</totfact>
</mgrwt>
</event>
<event>
 4    1  0.2552184E-008  0.3052335E+04  0.7816531E-02  0.8228942E-01
          2   -1    0    0  501    0  0.00000000000E+00  0.00000000000E+00  0.24974553088E+04  0.24974553088E+04  0.00000000000E+00 0.  1.
         -2   -1    0    0    0  501 -0.00000000000E+00 -0.00000000000E+00 -0.93262434383E+03  0.93262434383E+03  0.00000000000E+00 0. -1.
    2000013    1    1    2    0    0 -0.77857339659E+03  0.90405076001E+03  0.71881340089E+03  0.16860240259E+04  0.95000000000E+03 0.  0.
   -2000013    1    1    2    0    0  0.77857339659E+03 -0.90405076001E+03  0.84601756411E+03  0.17440556268E+04  0.95000000000E+03 0.  0.
<mgrwt>
<rscale>  0 0.30523352E+04</rscale>
<asrwt>0</asrwt>
<pdfrwt beam="1">  1        2 0.38422389E+00 0.30523352E+04</pdfrwt>
<pdfrwt beam="2">  1       -2 0.14348067E+00 0.30523352E+04</pdfrwt>
<totfact> 0.10026974E+00</totfact>
</mgrwt>
</event>
<event>
 4    1  0.2552184E-008  0.1986038E+04  0.7816531E-02  0.8613176E-01
         -2   -1    0    0    0  501 -0.00000000000E+00  0.00000000000E+00  0.77042616251E+03  0.77042616251E+03  0.00000000000E+00 0. -1.
          2   -1    0    0  501    0  0.00000000000E+00 -0.00000000000E+00 -0.12799238162E+04  0.12799238162E+04  0.00000000000E+00 0.  1.
    2000013    1    1    2    0    0 -0.14596990628E+03  0.18352300453E+03 -0.42933707185E+03  0.10685589492E+04  0.95000000000E+03 0.  0.
   -2000013    1    1    2    0    0  0.14596990628E+03 -0.18352300453E+03 -0.80160581878E+02  0.98179102950E+03  0.95000000000E+03 0.  0.
<mgrwt>
<rscale>  0 0.19860381E+04</rscale>
<asrwt>0</asrwt>
<pdfrwt beam="2">  1        2 0.19691136E+00 0.19860381E+04</pdfrwt>
<pdfrwt beam="1">  1       -2 0.11852710E+00 0.19860381E+04</pdfrwt>
<totfact> 0.86514599E+00</totfact>
</mgrwt>
</event>
<event>
 4    1  0.2552184E-008  0.2814794E+04  0.7816531E-02  0.8298690E-01
          2   -1    0    0  501    0  0.00000000000E+00  0.00000000000E+00  0.99412755155E+03  0.99412755155E+03  0.00000000000E+00 0.  1.
         -2   -1    0    0    0  501 -0.00000000000E+00 -0.00000000000E+00 -0.19924673909E+04  0.19924673909E+04  0.00000000000E+00 0. -1.
    2000013    1    1    2    0    0 -0.71923759379E+03  0.60299451234E+03 -0.97053892874E+03  0.16508636862E+04  0.95000000000E+03 0.  0.
   -2000013    1    1    2    0    0  0.71923759379E+03 -0.60299451234E+03 -0.27800910583E+02  0.13357312562E+04  0.95000000000E+03 0.  0.
<mgrwt>
<rscale>  0 0.28147943E+04</rscale>
<asrwt>0</asrwt>
<pdfrwt beam="1">  1        2 0.15294270E+00 0.28147943E+04</pdfrwt>
<pdfrwt beam="2">  1       -2 0.30653345E+00 0.28147943E+04</pdfrwt>
<totfact> 0.64001194E-01</totfact>
</mgrwt>
</event>
<event>
 4    1  0.2552184E-008  0.3838146E+04  0.7816531E-02  0.8038018E-01
          1   -1    0    0  501    0  0.00000000000E+00  0.00000000000E+00  0.22591161432E+04  0.22591161432E+04  0.00000000000E+00 0. -1.
         -1   -1    0    0    0  501 -0.00000000000E+00 -0.00000000000E+00 -0.16302135260E+04  0.16302135260E+04  0.00000000000E+00 0.  1.
    2000013    1    1    2    0    0 -0.41802071073E+03  0.89903626863E+03  0.16729763573E+04  0.21643376398E+04  0.95000000000E+03 0.  0.
   -2000013    1    1    2    0    0  0.41802071073E+03 -0.89903626863E+03 -0.10440737400E+04  0.17249920294E+04  0.95000000000E+03 0.  0.
<mgrwt>
<rscale>  0 0.38381463E+04</rscale>
<asrwt>0</asrwt>
<pdfrwt beam="1">  1        1 0.34755633E+00 0.38381463E+04</pdfrwt>
<pdfrwt beam="2">  1       -1 0.25080208E+00 0.38381463E+04</pdfrwt>
<totfact> 0.10846055E-01</totfact>
</mgrwt>
</event>
<event>
 4    1  0.2552184E-008  0.1996730E+04  0.7816531E-02  0.8608151E-01
          2   -1    0    0  501    0  0.00000000000E+00  0.00000000000E+00  0.14438640103E+04  0.14438640103E+04  0.00000000000E+00 0.  1.
         -2   -1    0    0    0  501 -0.00000000000E+00 -0.00000000000E+00 -0.69032311066E+03  0.69032311066E+03  0.00000000000E+00 0. -1.
    2000013    1    1    2    0    0 -0.27551104314E+03  0.78096873444E+02  0.25858137370E+03  0.10253632446E+04  0.95000000000E+03 0.  0.
   -2000013    1    1    2    0    0  0.27551104314E+03 -0.78096873444E+02  0.49495952598E+03  0.11088238764E+04  0.95000000000E+03 0.  0.
<mgrwt>
<rscale>  0 0.19967300E+04</rscale>
<asrwt>0</asrwt>
<pdfrwt beam="1">  1        2 0.22213293E+00 0.19967300E+04</pdfrwt>
<pdfrwt beam="2">  1       -2 0.10620356E+00 0.19967300E+04</pdfrwt>
<totfact> 0.90800362E+00</totfact>
</mgrwt>
</event>
<event>
 4    1  0.2552184E-008  0.2281617E+04  0.7816531E-02  0.8485205E-01
          2   -1    0    0  501    0  0.00000000000E+00  0.00000000000E+00  0.22166439285E+04  0.22166439285E+04  0.00000000000E+00 0.  1.
         -2   -1    0    0    0  501 -0.00000000000E+00 -0.00000000000E+00 -0.58712353301E+03  0.58712353301E+03  0.00000000000E+00 0. -1.
    2000013    1    1    2    0    0  0.26320143374E+03  0.47521633533E+03  0.41877589197E+03  0.11717417837E+04  0.95000000000E+03 0.  0.
   -2000013    1    1    2    0    0 -0.26320143374E+03 -0.47521633533E+03  0.12107445036E+04  0.16320256778E+04  0.95000000000E+03 0.  0.
<mgrwt>
<rscale>  0 0.22816168E+04</rscale>
<asrwt>0</asrwt>
<pdfrwt beam="1">  1        2 0.34102214E+00 0.22816168E+04</pdfrwt>
<pdfrwt beam="2">  1       -2 0.90326699E-01 0.22816168E+04</pdfrwt>
<totfact> 0.48080830E+00</totfact>
</mgrwt>
</event>
<event>
 4    1  0.2552184E-008  0.2570272E+04  0.7816531E-02  0.8378370E-01
         -2   -1    0    0    0  501 -0.00000000000E+00  0.00000000000E+00  0.59308711274E+03  0.59308711274E+03  0.00000000000E+00 0. -1.
          2   -1    0    0  501    0  0.00000000000E+00 -0.00000000000E+00 -0.27847078820E+04  0.27847078820E+04  0.00000000000E+00 0.  1.
    2000013    1    1    2    0    0  0.20088393885E+03  0.58076933741E+03 -0.29488704692E+03  0.11692329753E+04  0.95000000000E+03 0.  0.
   -2000013    1    1    2    0    0 -0.20088393885E+03 -0.58076933741E+03 -0.18967337224E+04  0.22085620194E+04  0.95000000000E+03 0.  0.
<mgrwt>
<rscale>  0 0.25702719E+04</rscale>
<asrwt>0</asrwt>
<pdfrwt beam="2">  1        2 0.42841661E+00 0.25702719E+04</pdfrwt>
<pdfrwt beam="1">  1       -2 0.91244169E-01 0.25702719E+04</pdfrwt>
<totfact> 0.21440718E+00</totfact>
</mgrwt>
</event>
<event>
 4    1  0.2552184E-008  0.3008919E+04  0.7816531E-02  0.8241189E-01
          2   -1    0    0  501    0  0.00000000000E+00  0.00000000000E+00  0.18458079597E+04  0.18458079597E+04  0.00000000000E+00 0.  1.
         -2   -1    0    0    0  501 -0.00000000000E+00 -0.00000000000E+00 -0.12262373457E+04  0.12262373457E+04  0.00000000000E+00 0. -1.
    2000013    1    1    2    0    0 -0.67198804131E+03 -0.95358822766E+03  0.30930911456E+03  0.15359266141E+04  0.95000000000E+03 0.  0.
   -2000013    1    1    2    0    0  0.67198804131E+03  0.95358822766E+03  0.31026149938E+03  0.15361186912E+04  0.95000000000E+03 0.  0.
<mgrwt>
<rscale>  0 0.30089192E+04</rscale>
<asrwt>0</asrwt>
<pdfrwt beam="1">  1        2 0.28397045E+00 0.30089192E+04</pdfrwt>
<pdfrwt beam="2">  1       -2 0.18865190E+00 0.30089192E+04</pdfrwt>
<totfact> 0.11018970E+00</totfact>
</mgrwt>
</event>
<event>
 4    1  0.2552184E-008  0.3776731E+04  0.7816531E-02  0.8051167E-01
         -2   -1    0    0    0  501 -0.00000000000E+00  0.00000000000E+00  0.18783204932E+04  0.18783204932E+04  0.00000000000E+00 0. -1.
          2   -1    0    0  501    0  0.00000000000E+00 -0.00000000000E+00 -0.18984639890E+04  0.18984639890E+04  0.00000000000E+00 0.  1.
    2000013    1    1    2    0    0 -0.14599957144E+04 -0.39256983527E+03 -0.62467405817E+03  0.18916702251E+04  0.95000000000E+03 0.  0.
   -2000013    1    1    2    0    0  0.14599957144E+04  0.39256983527E+03  0.60453056234E+03  0.18851142571E+04  0.95000000000E+03 0.  0.
<mgrwt>
<rscale>  0 0.37767308E+04</rscale>
<asrwt>0</asrwt>
<pdfrwt beam="2">  1        2 0.29207138E+00 0.37767308E+04</pdfrwt>
<pdfrwt beam="1">  1       -2 0.28897238E+00 0.37767308E+04</pdfrwt>
<totfact> 0.22690215E-01</totfact>
</mgrwt>
</event>
<event>
 4    1  0.2552184E-008  0.2693219E+04  0.7816531E-02  0.8337209E-01
         -2   -1    0    0    0  501 -0.00000000000E+00  0.00000000000E+00  0.11771821798E+04  0.11771821798E+04  0.00000000000E+00 0. -1.
          2   -1    0    0  501    0  0.00000000000E+00 -0.00000000000E+00 -0.15404217554E+04  0.15404217554E+04  0.00000000000E+00 0.  1.
    2000013    1    1    2    0    0  0.71868640169E+03  0.56221046625E+03  0.10067435859E+03  0.13210700507E+04  0.95000000000E+03 0.  0.
   -2000013    1    1    2    0    0 -0.71868640169E+03 -0.56221046625E+03 -0.46391393419E+03  0.13965338845E+04  0.95000000000E+03 0.  0.
<mgrwt>
<rscale>  0 0.26932189E+04</rscale>
<asrwt>0</asrwt>
<pdfrwt beam="2">  1        2 0.23698796E+00 0.26932189E+04</pdfrwt>
<pdfrwt beam="1">  1       -2 0.18110495E+00 0.26932189E+04</pdfrwt>
<totfact> 0.18839993E+00</totfact>
</mgrwt>
</event>
<event>
 4    1  0.2552184E-008  0.2769687E+04  0.7816531E-02  0.8312742E-01
          2   -1    0    0  501    0  0.00000000000E+00  0.00000000000E+00  0.20350592435E+04  0.20350592435E+04  0.00000000000E+00 0.  1.
         -2   -1    0    0    0  501 -0.00000000000E+00 -0.00000000000E+00 -0.94237638572E+03  0.94237638572E+03  0.00000000000E+00 0. -1.
    2000013    1    1    2    0    0 -0.55109958899E+03 -0.50649396352E+03 -0.17882681396E+03  0.12225898419E+04  0.95000000000E+03 0.  0.
   -2000013    1    1    2    0    0  0.55109958899E+03  0.50649396352E+03  0.12715096718E+04  0.17548457874E+04  0.95000000000E+03 0.  0.
<mgrwt>
<rscale>  0 0.27696872E+04</rscale>
<asrwt>0</asrwt>
<pdfrwt beam="1">  1        2 0.31308604E+00 0.27696872E+04</pdfrwt>
<pdfrwt beam="2">  1       -2 0.14498098E+00 0.27696872E+04</pdfrwt>
<totfact> 0.18264920E+00</totfact>
</mgrwt>
</event>
<event>
 4    1  0.2552184E-008  0.2359006E+04  0.7816531E-02  0.8455012E-01
          2   -1    0    0  501    0  0.00000000000E+00  0.00000000000E+00  0.15447677662E+04  0.15447677662E+04  0.00000000000E+00 0.  1.
         -2   -1    0    0    0  501 -0.00000000000E+00 -0.00000000000E+00 -0.90060648560E+03  0.90060648560E+03  0.00000000000E+00 0. -1.
    2000013    1    1    2    0    0 -0.44878243773E+03 -0.39906088629E+03  0.69305536462E+03  0.13204094084E+04  0.95000000000E+03 0.  0.
   -2000013    1    1    2    0    0  0.44878243773E+03  0.39906088629E+03 -0.48894084028E+02  0.11249648434E+04  0.95000000000E+03 0.  0.
<mgrwt>
<rscale>  0 0.23590065E+04</rscale>
<asrwt>0</asrwt>
<pdfrwt beam="1">  1        2 0.23765658E+00 0.23590065E+04</pdfrwt>
<pdfrwt beam="2">  1       -2 0.13855484E+00 0.23590065E+04</pdfrwt>
<totfact> 0.39879012E+00</totfact>
</mgrwt>
</event>
<event>
 4    1  0.2552184E-008  0.2446781E+04  0.7816531E-02  0.8422194E-01
          2   -1    0    0  501    0  0.00000000000E+00  0.00000000000E+00  0.96056335863E+03  0.96056335863E+03  0.00000000000E+00 0. -1.
         -2   -1    0    0    0  501 -0.00000000000E+00 -0.00000000000E+00 -0.15581312439E+04  0.15581312439E+04  0.00000000000E+00 0.  1.
    2000013    1    1    2    0    0 -0.23834653110E+03 -0.72576974099E+03 -0.40493108214E+03  0.12845310300E+04  0.95000000000E+03 0.  0.
   -2000013    1    1    2    0    0  0.23834653110E+03  0.72576974099E+03 -0.19263680316E+03  0.12341635725E+04  0.95000000000E+03 0.  0.
<mgrwt>
<rscale>  0 0.24467806E+04</rscale>
<asrwt>0</asrwt>
<pdfrwt beam="1">  1        2 0.14777898E+00 0.24467806E+04</pdfrwt>
<pdfrwt beam="2">  1       -2 0.23971250E+00 0.24467806E+04</pdfrwt>
<totfact> 0.17799594E+00</totfact>
</mgrwt>
</event>
<event>
 4    1  0.2552184E-008  0.2904285E+04  0.7816531E-02  0.8271604E-01
          2   -1    0    0  501    0  0.00000000000E+00  0.00000000000E+00  0.15657907007E+04  0.15657907007E+04  0.00000000000E+00 0.  1.
         -2   -1    0    0    0  501 -0.00000000000E+00 -0.00000000000E+00 -0.13467428062E+04  0.13467428062E+04  0.00000000000E+00 0. -1.
    2000013    1    1    2    0    0  0.75405345841E+03 -0.14971153504E+03  0.89610313778E+03  0.15154243615E+04  0.95000000000E+03 0.  0.
   -2000013    1    1    2    0    0 -0.75405345841E+03  0.14971153504E+03 -0.67705524324E+03  0.13971091454E+04  0.95000000000E+03 0.  0.
<mgrwt>
<rscale>  0 0.29042847E+04</rscale>
<asrwt>0</asrwt>
<pdfrwt beam="1">  1        2 0.24089088E+00 0.29042847E+04</pdfrwt>
<pdfrwt beam="2">  1       -2 0.20719120E+00 0.29042847E+04</pdfrwt>
<totfact> 0.12006871E+00</totfact>
</mgrwt>
</event>
<event>
 4    1  0.2552184E-008  0.3901001E+04  0.7816531E-02  0.8024821E-01
          2   -1    0    0  501    0  0.00000000000E+00  0.00000000000E+00  0.13643232698E+04  0.13643232698E+04  0.00000000000E+00 0.  1.
         -2   -1    0    0    0  501 -0.00000000000E+00 -0.00000000000E+00 -0.27885272493E+04  0.27885272493E+04  0.00000000000E+00 0. -1.
    2000013    1    1    2    0    0 -0.14893542100E+04  0.73436265603E+03 -0.30744568086E+03  0.19376499478E+04  0.95000000000E+03 0.  0.
   -2000013    1    1    2    0    0  0.14893542100E+04 -0.73436265603E+03 -0.11167582987E+04  0.22152005713E+04  0.95000000000E+03 0.  0.
<mgrwt>
<rscale>  0 0.39010012E+04</rscale>
<asrwt>0</asrwt>
<pdfrwt beam="1">  1        2 0.20989589E+00 0.39010012E+04</pdfrwt>
<pdfrwt beam="2">  1       -2 0.42900419E+00 0.39010012E+04</pdfrwt>
<totfact> 0.57640878E-02</totfact>
</mgrwt>
</event>
<event>
 4    1  0.2552184E-008  0.2900257E+04  0.7816531E-02  0.8272801E-01
          2   -1    0    0  501    0  0.00000000000E+00  0.00000000000E+00  0.38808162456E+04  0.38808162456E+04  0.00000000000E+00 0.  1.
         -2   -1    0    0    0  501 -0.00000000000E+00 -0.00000000000E+00 -0.54186361392E+03  0.54186361392E+03  0.00000000000E+00 0. -1.
    2000013    1    1    2    0    0  0.88011261300E+03  0.29124898195E+02  0.67543152104E+03  0.14608744679E+04  0.95000000000E+03 0.  0.
   -2000013    1    1    2    0    0 -0.88011261300E+03 -0.29124898195E+02  0.26635211106E+04  0.29618053917E+04  0.95000000000E+03 0.  0.
<mgrwt>
<rscale>  0 0.29002573E+04</rscale>
<asrwt>0</asrwt>
<pdfrwt beam="1">  1        2 0.59704863E+00 0.29002573E+04</pdfrwt>
<pdfrwt beam="2">  1       -2 0.83363636E-01 0.29002573E+04</pdfrwt>
<totfact> 0.46244155E-01</totfact>
</mgrwt>
</event>
<event>
 4    1  0.2552184E-008  0.3536352E+04  0.7816531E-02  0.8105229E-01
          1   -1    0    0  501    0  0.00000000000E+00  0.00000000000E+00  0.23756025482E+04  0.23756025482E+04  0.00000000000E+00 0.  1.
         -1   -1    0    0    0  501 -0.00000000000E+00 -0.00000000000E+00 -0.13160643232E+04  0.13160643232E+04  0.00000000000E+00 0. -1.
    2000013    1    1    2    0    0 -0.11218943042E+04  0.89473335416E+03  0.95349138527E+03  0.19674451521E+04  0.95000000000E+03 0.  0.
   -2000013    1    1    2    0    0  0.11218943042E+04 -0.89473335416E+03  0.10604683980E+03  0.17242217192E+04  0.95000000000E+03 0.  0.
<mgrwt>
<rscale>  0 0.35363517E+04</rscale>
<asrwt>0</asrwt>
<pdfrwt beam="1">  1        1 0.36547731E+00 0.35363517E+04</pdfrwt>
<pdfrwt beam="2">  1       -1 0.20247144E+00 0.35363517E+04</pdfrwt>
<totfact> 0.19437373E-01</totfact>
</mgrwt>
</event>
<event>
 4    1  0.2552184E-008  0.2316023E+04  0.7816531E-02  0.8471630E-01
         -2   -1    0    0    0  501 -0.00000000000E+00  0.00000000000E+00  0.59476967861E+03  0.59476967861E+03  0.00000000000E+00 0. -1.
          2   -1    0    0  501    0  0.00000000000E+00 -0.00000000000E+00 -0.22546393505E+04  0.22546393505E+04  0.00000000000E+00 0.  1.
    2000013    1    1    2    0    0  0.60720515365E+03 -0.68615191993E+02 -0.11438065887E+04  0.16075446045E+04  0.95000000000E+03 0.  0.
   -2000013    1    1    2    0    0 -0.60720515365E+03  0.68615191993E+02 -0.51606308316E+03  0.12418644246E+04  0.95000000000E+03 0.  0.
<mgrwt>
<rscale>  0 0.23160234E+04</rscale>
<asrwt>0</asrwt>
<pdfrwt beam="2">  1        2 0.34686759E+00 0.23160234E+04</pdfrwt>
<pdfrwt beam="1">  1       -2 0.91503029E-01 0.23160234E+04</pdfrwt>
<totfact> 0.44288621E+00</totfact>
</mgrwt>
</event>
<event>
 4    1  0.2552184E-008  0.2680191E+04  0.7816531E-02  0.8341461E-01
         -2   -1    0    0    0  501 -0.00000000000E+00  0.00000000000E+00  0.12531820710E+04  0.12531820710E+04  0.00000000000E+00 0. -1.
          2   -1    0    0  501    0  0.00000000000E+00 -0.00000000000E+00 -0.14330370592E+04  0.14330370592E+04  0.00000000000E+00 0.  1.
    2000013    1    1    2    0    0  0.77657870817E+02  0.86774266294E+03  0.27743235936E+03  0.13185130974E+04  0.95000000000E+03 0.  0.
   -2000013    1    1    2    0    0 -0.77657870817E+02 -0.86774266294E+03 -0.45728734751E+03  0.13677060328E+04  0.95000000000E+03 0.  0.
<mgrwt>
<rscale>  0 0.26801913E+04</rscale>
<asrwt>0</asrwt>
<pdfrwt beam="2">  1        2 0.22046724E+00 0.26801913E+04</pdfrwt>
<pdfrwt beam="1">  1       -2 0.19279724E+00 0.26801913E+04</pdfrwt>
<totfact> 0.18075792E+00</totfact>
</mgrwt>
</event>
<event>
 4    1  0.2552184E-008  0.3515874E+04  0.7816531E-02  0.8110038E-01
          2   -1    0    0  501    0  0.00000000000E+00  0.00000000000E+00  0.26432130779E+04  0.26432130779E+04  0.00000000000E+00 0.  1.
         -2   -1    0    0    0  501 -0.00000000000E+00 -0.00000000000E+00 -0.11691613797E+04  0.11691613797E+04  0.00000000000E+00 0. -1.
    2000013    1    1    2    0    0 -0.98934978207E+03 -0.10942231306E+04  0.85434133182E+03  0.19515471714E+04  0.95000000000E+03 0.  0.
   -2000013    1    1    2    0    0  0.98934978207E+03  0.10942231306E+04  0.61971036637E+03  0.18608272862E+04  0.95000000000E+03 0.  0.
<mgrwt>
<rscale>  0 0.35158741E+04</rscale>
<asrwt>0</asrwt>
<pdfrwt beam="1">  1        2 0.40664816E+00 0.35158741E+04</pdfrwt>
<pdfrwt beam="2">  1       -2 0.17987098E+00 0.35158741E+04</pdfrwt>
<totfact> 0.42783118E-01</totfact>
</mgrwt>
</event>
<event>
 4    1  0.2552184E-008  0.2570934E+04  0.7816531E-02  0.8378142E-01
         -2   -1    0    0    0  501 -0.00000000000E+00  0.00000000000E+00  0.42081730475E+03  0.42081730475E+03  0.00000000000E+00 0. -1.
          2   -1    0    0  501    0  0.00000000000E+00 -0.00000000000E+00 -0.39267048034E+04  0.39267048034E+04  0.00000000000E+00 0.  1.
    2000013    1    1    2    0    0  0.63856621496E+03 -0.17602414033E+03 -0.26962496450E+04  0.29344528378E+04  0.95000000000E+03 0.  0.
   -2000013    1    1    2    0    0 -0.63856621496E+03  0.17602414033E+03 -0.80963785365E+03  0.14130692704E+04  0.95000000000E+03 0.  0.
<mgrwt>
<rscale>  0 0.25709339E+04</rscale>
<asrwt>0</asrwt>
<pdfrwt beam="2">  1        2 0.60410844E+00 0.25709339E+04</pdfrwt>
<pdfrwt beam="1">  1       -2 0.64741123E-01 0.25709339E+04</pdfrwt>
<totfact> 0.76645741E-01</totfact>
</mgrwt>
</event>
<event>
 4    1  0.2552184E-008  0.2214760E+04  0.7816531E-02  0.8512310E-01
          2   -1    0    0  501    0  0.00000000000E+00  0.00000000000E+00  0.18613381727E+04  0.18613381727E+04  0.00000000000E+00 0.  1.
         -2   -1    0    0    0  501 -0.00000000000E+00 -0.00000000000E+00 -0.65882203617E+03  0.65882203617E+03  0.00000000000E+00 0. -1.
    2000013    1    1    2    0    0 -0.23266963643E+02  0.36726239547E+03  0.10739728563E+03  0.10244301810E+04  0.95000000000E+03 0.  0.
   -2000013    1    1    2    0    0  0.23266963643E+02 -0.36726239547E+03  0.10951188509E+04  0.14957300279E+04  0.95000000000E+03 0.  0.
<mgrwt>
<rscale>  0 0.22147601E+04</rscale>
<asrwt>0</asrwt>
<pdfrwt beam="1">  1        2 0.28635972E+00 0.22147601E+04</pdfrwt>
<pdfrwt beam="2">  1       -2 0.10135724E+00 0.22147601E+04</pdfrwt>
<totfact> 0.58261574E+00</totfact>
</mgrwt>
</event>
<event>
 4    1  0.2552184E-008  0.2114874E+04  0.7816531E-02  0.8554720E-01
         -2   -1    0    0    0  501 -0.00000000000E+00  0.00000000000E+00  0.42900990340E+03  0.42900990340E+03  0.00000000000E+00 0. -1.
          2   -1    0    0  501    0  0.00000000000E+00 -0.00000000000E+00 -0.26064030165E+04  0.26064030165E+04  0.00000000000E+00 0.  1.
    2000013    1    1    2    0    0  0.46399524868E+03 -0.72811277033E+01 -0.11146943758E+04  0.15363554788E+04  0.95000000000E+03 0.  0.
   -2000013    1    1    2    0    0 -0.46399524868E+03  0.72811277033E+01 -0.10626987373E+04  0.14990574411E+04  0.95000000000E+03 0.  0.
<mgrwt>
<rscale>  0 0.21148737E+04</rscale>
<asrwt>0</asrwt>
<pdfrwt beam="2">  1        2 0.40098508E+00 0.21148737E+04</pdfrwt>
<pdfrwt beam="1">  1       -2 0.66001524E-01 0.21148737E+04</pdfrwt>
<totfact> 0.58686566E+00</totfact>
</mgrwt>
</event>
<event>
 4    1  0.2552184E-008  0.2312212E+04  0.7816531E-02  0.8473122E-01
         -2   -1    0    0    0  501 -0.00000000000E+00  0.00000000000E+00  0.55309004573E+03  0.55309004573E+03  0.00000000000E+00 0. -1.
          2   -1    0    0  501    0  0.00000000000E+00 -0.00000000000E+00 -0.24165696320E+04  0.24165696320E+04  0.00000000000E+00 0.  1.
    2000013    1    1    2    0    0  0.60157615648E+01  0.60043857687E+03 -0.12799774695E+04  0.17033511078E+04  0.95000000000E+03 0.  0.
   -2000013    1    1    2    0    0 -0.60157615648E+01 -0.60043857687E+03 -0.58350211673E+03  0.12663085699E+04  0.95000000000E+03 0.  0.
<mgrwt>
<rscale>  0 0.23122116E+04</rscale>
<asrwt>0</asrwt>
<pdfrwt beam="2">  1        2 0.37177994E+00 0.23122116E+04</pdfrwt>
<pdfrwt beam="1">  1       -2 0.85090776E-01 0.23122116E+04</pdfrwt>
<totfact> 0.42337754E+00</totfact>
</mgrwt>
</event>
<event>
 4    1  0.2552184E-008  0.2755982E+04  0.7816531E-02  0.8317066E-01
         -2   -1    0    0    0  501 -0.00000000000E+00  0.00000000000E+00  0.38304172621E+03  0.38304172621E+03  0.00000000000E+00 0. -1.
          2   -1    0    0  501    0  0.00000000000E+00 -0.00000000000E+00 -0.49573152899E+04  0.49573152899E+04  0.00000000000E+00 0.  1.
    2000013    1    1    2    0    0  0.48209904039E+03 -0.18350896882E+03 -0.63123793690E+03  0.12518212170E+04  0.95000000000E+03 0.  0.
   -2000013    1    1    2    0    0 -0.48209904039E+03  0.18350896882E+03 -0.39430356268E+04  0.40885357991E+04  0.95000000000E+03 0.  0.
<mgrwt>
<rscale>  0 0.27559816E+04</rscale>
<asrwt>0</asrwt>
<pdfrwt beam="2">  1        2 0.76266386E+00 0.27559816E+04</pdfrwt>
<pdfrwt beam="1">  1       -2 0.58929499E-01 0.27559816E+04</pdfrwt>
<totfact> 0.91533290E-02</totfact>
</mgrwt>
</event>
<event>
 4    1  0.2552184E-008  0.4909912E+04  0.7816531E-02  0.7842556E-01
         -2   -1    0    0    0  501 -0.00000000000E+00  0.00000000000E+00  0.16171648720E+04  0.16171648720E+04  0.00000000000E+00 0. -1.
          2   -1    0    0  501    0  0.00000000000E+00 -0.00000000000E+00 -0.37267751244E+04  0.37267751244E+04  0.00000000000E+00 0.  1.
    2000013    1    1    2    0    0 -0.14225249396E+04 -0.17545733204E+04 -0.12169913533E+04  0.27359957409E+04  0.95000000000E+03 0.  0.
   -2000013    1    1    2    0    0  0.14225249396E+04  0.17545733204E+04 -0.89261889914E+03  0.26079442554E+04  0.95000000000E+03 0.  0.
<mgrwt>
<rscale>  0 0.49099123E+04</rscale>
<asrwt>0</asrwt>
<pdfrwt beam="2">  1        2 0.57335001E+00 0.49099123E+04</pdfrwt>
<pdfrwt beam="1">  1       -2 0.24879460E+00 0.49099123E+04</pdfrwt>
<totfact> 0.26646833E-02</totfact>
</mgrwt>
</event>
<event>
 4    1  0.2552184E-008  0.2265316E+04  0.7816531E-02  0.8491723E-01
         -2   -1    0    0    0  501 -0.00000000000E+00  0.00000000000E+00  0.95574753469E+03  0.95574753469E+03  0.00000000000E+00 0. -1.
          2   -1    0    0  501    0  0.00000000000E+00 -0.00000000000E+00 -0.13423150524E+04  0.13423150524E+04  0.00000000000E+00 0.  1.
    2000013    1    1    2    0    0  0.51149826390E+02 -0.60254251929E+03 -0.31644931871E+03  0.11697495303E+04  0.95000000000E+03 0.  0.
   -2000013    1    1    2    0    0 -0.51149826390E+02  0.60254251929E+03 -0.70118198999E+02  0.11283130568E+04  0.95000000000E+03 0.  0.
<mgrwt>
<rscale>  0 0.22653161E+04</rscale>
<asrwt>0</asrwt>
<pdfrwt beam="2">  1        2 0.20651001E+00 0.22653161E+04</pdfrwt>
<pdfrwt beam="1">  1       -2 0.14703808E+00 0.22653161E+04</pdfrwt>
<totfact> 0.44865409E+00</totfact>
</mgrwt>
</event>
<event>
 4    1  0.2552184E-008  0.2385439E+04  0.7816531E-02  0.8444975E-01
         -1   -1    0    0    0  501 -0.00000000000E+00  0.00000000000E+00  0.22316646168E+04  0.22316646168E+04  0.00000000000E+00 0.  1.
          1   -1    0    0  501    0  0.00000000000E+00 -0.00000000000E+00 -0.63745209279E+03  0.63745209279E+03  0.00000000000E+00 0. -1.
    2000013    1    1    2    0    0 -0.39088407407E+03 -0.34460144784E+03  0.13967275542E+04  0.17677353812E+04  0.95000000000E+03 0.  0.
   -2000013    1    1    2    0    0  0.39088407407E+03  0.34460144784E+03  0.19748496979E+03  0.11013813284E+04  0.95000000000E+03 0.  0.
<mgrwt>
<rscale>  0 0.23854386E+04</rscale>
<asrwt>0</asrwt>
<pdfrwt beam="2">  1        1 0.98069554E-01 0.23854386E+04</pdfrwt>
<pdfrwt beam="1">  1       -1 0.34333301E+00 0.23854386E+04</pdfrwt>
<totfact> 0.48400289E-01</totfact>
</mgrwt>
</event>
<event>
 4    1  0.2552184E-008  0.2676570E+04  0.7816531E-02  0.8342647E-01
          2   -1    0    0  501    0  0.00000000000E+00  0.00000000000E+00  0.14513458177E+04  0.14513458177E+04  0.00000000000E+00 0.  1.
         -2   -1    0    0    0  501 -0.00000000000E+00 -0.00000000000E+00 -0.12340318835E+04  0.12340318835E+04  0.00000000000E+00 0. -1.
    2000013    1    1    2    0    0  0.46670234264E+03  0.80408281869E+03  0.26456056761E+03  0.13553053346E+04  0.95000000000E+03 0.  0.
   -2000013    1    1    2    0    0 -0.46670234264E+03 -0.80408281869E+03 -0.47246633408E+02  0.13300723666E+04  0.95000000000E+03 0.  0.
<mgrwt>
<rscale>  0 0.26765702E+04</rscale>
<asrwt>0</asrwt>
<pdfrwt beam="1">  1        2 0.22328397E+00 0.26765702E+04</pdfrwt>
<pdfrwt beam="2">  1       -2 0.18985106E+00 0.26765702E+04</pdfrwt>
<totfact> 0.18473232E+00</totfact>
</mgrwt>
</event>
<event>
 4    1  0.2552184E-008  0.2308762E+04  0.7816531E-02  0.8474474E-01
         -2   -1    0    0    0  501 -0.00000000000E+00  0.00000000000E+00  0.76391725654E+03  0.76391725654E+03  0.00000000000E+00 0. -1.
          2   -1    0    0  501    0  0.00000000000E+00 -0.00000000000E+00 -0.17444238472E+04  0.17444238472E+04  0.00000000000E+00 0.  1.
    2000013    1    1    2    0    0  0.48509678194E+03  0.11679722318E+01 -0.96973748521E+03  0.14416001673E+04  0.95000000000E+03 0.  0.
   -2000013    1    1    2    0    0 -0.48509678194E+03 -0.11679722318E+01 -0.10769105474E+02  0.10667409365E+04  0.95000000000E+03 0.  0.
<mgrwt>
<rscale>  0 0.23087620E+04</rscale>
<asrwt>0</asrwt>
<pdfrwt beam="2">  1        2 0.26837289E+00 0.23087620E+04</pdfrwt>
<pdfrwt beam="1">  1       -2 0.11752573E+00 0.23087620E+04</pdfrwt>
<totfact> 0.46930893E+00</totfact>
</mgrwt>
</event>
<event>
 4    1  0.2552184E-008  0.2736630E+04  0.7816531E-02  0.8323217E-01
          2   -1    0    0  501    0  0.00000000000E+00  0.00000000000E+00  0.17580836580E+04  0.17580836580E+04  0.00000000000E+00 0.  1.
         -2   -1    0    0    0  501 -0.00000000000E+00 -0.00000000000E+00 -0.10649584696E+04  0.10649584696E+04  0.00000000000E+00 0. -1.
    2000013    1    1    2    0    0  0.17960793314E+03 -0.94751077363E+03  0.14089207505E+03  0.13610239721E+04  0.95000000000E+03 0.  0.
   -2000013    1    1    2    0    0 -0.17960793314E+03  0.94751077363E+03  0.55223311335E+03  0.14620181556E+04  0.95000000000E+03 0.  0.
<mgrwt>
<rscale>  0 0.27366301E+04</rscale>
<asrwt>0</asrwt>
<pdfrwt beam="1">  1        2 0.27047441E+00 0.27366301E+04</pdfrwt>
<pdfrwt beam="2">  1       -2 0.16383977E+00 0.27366301E+04</pdfrwt>
<totfact> 0.18800306E+00</totfact>
</mgrwt>
</event>
<event>
 4    1  0.2552184E-008  0.2079742E+04  0.7816531E-02  0.8570220E-01
         -2   -1    0    0    0  501 -0.00000000000E+00  0.00000000000E+00  0.29288995819E+03  0.29288995819E+03  0.00000000000E+00 0. -1.
          2   -1    0    0  501    0  0.00000000000E+00 -0.00000000000E+00 -0.36919380145E+04  0.36919380145E+04  0.00000000000E+00 0.  1.
    2000013    1    1    2    0    0  0.26373152636E+03  0.20340312739E+03 -0.21988097697E+04  0.24183034453E+04  0.95000000000E+03 0.  0.
   -2000013    1    1    2    0    0 -0.26373152636E+03 -0.20340312739E+03 -0.12002382866E+04  0.15665245273E+04  0.95000000000E+03 0.  0.
<mgrwt>
<rscale>  0 0.20797419E+04</rscale>
<asrwt>0</asrwt>
<pdfrwt beam="2">  1        2 0.56799050E+00 0.20797419E+04</pdfrwt>
<pdfrwt beam="1">  1       -2 0.45059991E-01 0.20797419E+04</pdfrwt>
<totfact> 0.25672827E+00</totfact>
</mgrwt>
</event>
<event>
 4    1  0.2552184E-008  0.2223627E+04  0.7816531E-02  0.8508658E-01
         -1   -1    0    0    0  501 -0.00000000000E+00  0.00000000000E+00  0.75951146314E+03  0.75951146314E+03  0.00000000000E+00 0. -1.
          1   -1    0    0  501    0  0.00000000000E+00 -0.00000000000E+00 -0.16275323971E+04  0.16275323971E+04  0.00000000000E+00 0.  1.
    2000013    1    1    2    0    0  0.50201446314E+03 -0.23543658077E+03 -0.60770585016E+03  0.12566842504E+04  0.95000000000E+03 0.  0.
   -2000013    1    1    2    0    0 -0.50201446314E+03  0.23543658077E+03 -0.26031508378E+03  0.11303596099E+04  0.95000000000E+03 0.  0.
<mgrwt>
<rscale>  0 0.22236272E+04</rscale>
<asrwt>0</asrwt>
<pdfrwt beam="2">  1        1 0.25038960E+00 0.22236272E+04</pdfrwt>
<pdfrwt beam="1">  1       -1 0.11684792E+00 0.22236272E+04</pdfrwt>
<totfact> 0.32105840E+00</totfact>
</mgrwt>
</event>
<event>
 4    1  0.2552184E-008  0.3470338E+04  0.7816531E-02  0.8120856E-01
          2   -1    0    0  501    0  0.00000000000E+00  0.00000000000E+00  0.12011351698E+04  0.12011351698E+04  0.00000000000E+00 0.  1.
         -2   -1    0    0    0  501 -0.00000000000E+00 -0.00000000000E+00 -0.25066388515E+04  0.25066388515E+04  0.00000000000E+00 0. -1.
    2000013    1    1    2    0    0 -0.11013749238E+04  0.83719250936E+03 -0.11238191146E+04  0.20197493466E+04  0.95000000000E+03 0.  0.
   -2000013    1    1    2    0    0  0.11013749238E+04 -0.83719250936E+03 -0.18168456705E+03  0.16880246747E+04  0.95000000000E+03 0.  0.
<mgrwt>
<rscale>  0 0.34703384E+04</rscale>
<asrwt>0</asrwt>
<pdfrwt beam="1">  1        2 0.18479003E+00 0.34703384E+04</pdfrwt>
<pdfrwt beam="2">  1       -2 0.38563674E+00 0.34703384E+04</pdfrwt>
<totfact> 0.14329748E-01</totfact>
</mgrwt>
</event>
<event>
 4    1  0.2552184E-008  0.2219069E+04  0.7816531E-02  0.8510533E-01
          2   -1    0    0  501    0  0.00000000000E+00  0.00000000000E+00  0.10689441983E+04  0.10689441983E+04  0.00000000000E+00 0.  1.
         -2   -1    0    0    0  501 -0.00000000000E+00 -0.00000000000E+00 -0.11516663857E+04  0.11516663857E+04  0.00000000000E+00 0. -1.
    2000013    1    1    2    0    0  0.44077529347E+03  0.82748765974E+02  0.31586988929E+03  0.10969977231E+04  0.95000000000E+03 0.  0.
   -2000013    1    1    2    0    0 -0.44077529347E+03 -0.82748765974E+02 -0.39859207666E+03  0.11236128609E+04  0.95000000000E+03 0.  0.
<mgrwt>
<rscale>  0 0.22190693E+04</rscale>
<asrwt>0</asrwt>
<pdfrwt beam="1">  1        2 0.16445295E+00 0.22190693E+04</pdfrwt>
<pdfrwt beam="2">  1       -2 0.17717944E+00 0.22190693E+04</pdfrwt>
<totfact> 0.39425304E+00</totfact>
</mgrwt>
</event>
<event>
 4    1  0.2552184E-008  0.2066536E+04  0.7816531E-02  0.8576130E-01
         -3   -1    0    0    0  501 -0.00000000000E+00  0.00000000000E+00  0.64850152221E+03  0.64850152221E+03  0.00000000000E+00 0. -1.
          3   -1    0    0  501    0  0.00000000000E+00 -0.00000000000E+00 -0.16463222090E+04  0.16463222090E+04  0.00000000000E+00 0.  1.
    2000013    1    1    2    0    0  0.10135710157E+03  0.37510976412E+03 -0.36676051954E+03  0.10899513181E+04  0.95000000000E+03 0.  0.
   -2000013    1    1    2    0    0 -0.10135710157E+03 -0.37510976412E+03 -0.63106016729E+03  0.12048724131E+04  0.95000000000E+03 0.  0.
<mgrwt>
<rscale>  0 0.20665357E+04</rscale>
<asrwt>0</asrwt>
<pdfrwt beam="2">  1        3 0.25328034E+00 0.20665357E+04</pdfrwt>
<pdfrwt beam="1">  1       -3 0.99769464E-01 0.20665357E+04</pdfrwt>
<totfact> 0.15006885E-01</totfact>
</mgrwt>
</event>
<event>
 4    1  0.2552184E-008  0.2453774E+04  0.7816531E-02  0.8419641E-01
          2   -1    0    0  501    0  0.00000000000E+00  0.00000000000E+00  0.39947998644E+04  0.39947998644E+04  0.00000000000E+00 0. -1.
         -2   -1    0    0    0  501 -0.00000000000E+00 -0.00000000000E+00 -0.37680269339E+03  0.37680269339E+03  0.00000000000E+00 0.  1.
    2000013    1    1    2    0    0  0.37893389008E+03  0.26042505960E+02  0.30153321829E+04  0.31841792158E+04  0.95000000000E+03 0.  0.
   -2000013    1    1    2    0    0 -0.37893389008E+03 -0.26042505960E+02  0.60266498809E+03  0.11874233420E+04  0.95000000000E+03 0.  0.
<mgrwt>
<rscale>  0 0.24537737E+04</rscale>
<asrwt>0</asrwt>
<pdfrwt beam="1">  1        2 0.61458457E+00 0.24537737E+04</pdfrwt>
<pdfrwt beam="2">  1       -2 0.57969648E-01 0.24537737E+04</pdfrwt>
<totfact> 0.86474990E-01</totfact>
</mgrwt>
</event>
<event>
 4    1  0.2552184E-008  0.2168878E+04  0.7816531E-02  0.8531494E-01
          2   -1    0    0  501    0  0.00000000000E+00  0.00000000000E+00  0.15148716356E+04  0.15148716356E+04  0.00000000000E+00 0.  1.
         -2   -1    0    0    0  501 -0.00000000000E+00 -0.00000000000E+00 -0.77630882576E+03  0.77630882576E+03  0.00000000000E+00 0. -1.
    2000013    1    1    2    0    0  0.52203277683E+03  0.28922318419E+02  0.38236955579E+03  0.11498092006E+04  0.95000000000E+03 0.  0.
   -2000013    1    1    2    0    0 -0.52203277683E+03 -0.28922318419E+02  0.35619325400E+03  0.11413712607E+04  0.95000000000E+03 0.  0.
<mgrwt>
<rscale>  0 0.21688783E+04</rscale>
<asrwt>0</asrwt>
<pdfrwt beam="1">  1        2 0.23305717E+00 0.21688783E+04</pdfrwt>
<pdfrwt beam="2">  1       -2 0.11943213E+00 0.21688783E+04</pdfrwt>
<totfact> 0.61313524E+00</totfact>
</mgrwt>
</event>
<event>
 4    1  0.2552184E-008  0.2518784E+04  0.7816531E-02  0.8396324E-01
          2   -1    0    0  501    0  0.00000000000E+00  0.00000000000E+00  0.24018233008E+04  0.24018233008E+04  0.00000000000E+00 0.  1.
         -2   -1    0    0    0  501 -0.00000000000E+00 -0.00000000000E+00 -0.66036015429E+03  0.66036015429E+03  0.00000000000E+00 0. -1.
    2000013    1    1    2    0    0 -0.77616085090E+03  0.25912187413E+03  0.72689065321E+03  0.14492894238E+04  0.95000000000E+03 0.  0.
   -2000013    1    1    2    0    0  0.77616085090E+03 -0.25912187413E+03  0.10145724933E+04  0.16128940313E+04  0.95000000000E+03 0.  0.
<mgrwt>
<rscale>  0 0.25187842E+04</rscale>
<asrwt>0</asrwt>
<pdfrwt beam="1">  1        2 0.36951127E+00 0.25187842E+04</pdfrwt>
<pdfrwt beam="2">  1       -2 0.10159387E+00 0.25187842E+04</pdfrwt>
<totfact> 0.28088896E+00</totfact>
</mgrwt>
</event>
<event>
 4    1  0.2552184E-008  0.3047714E+04  0.7816531E-02  0.8230236E-01
         -1   -1    0    0    0  501 -0.00000000000E+00  0.00000000000E+00  0.10092113758E+04  0.10092113758E+04  0.00000000000E+00 0. -1.
          1   -1    0    0  501    0  0.00000000000E+00 -0.00000000000E+00 -0.23009447106E+04  0.23009447106E+04  0.00000000000E+00 0.  1.
    2000013    1    1    2    0    0 -0.53655243265E+03  0.10637932221E+04 -0.65645525743E+03  0.16592100643E+04  0.95000000000E+03 0.  0.
   -2000013    1    1    2    0    0  0.53655243265E+03 -0.10637932221E+04 -0.63527807740E+03  0.16509460221E+04  0.95000000000E+03 0.  0.
<mgrwt>
<rscale>  0 0.30477136E+04</rscale>
<asrwt>0</asrwt>
<pdfrwt beam="2">  1        1 0.35399149E+00 0.30477136E+04</pdfrwt>
<pdfrwt beam="1">  1       -1 0.15526329E+00 0.30477136E+04</pdfrwt>
<totfact> 0.50023292E-01</totfact>
</mgrwt>
</event>
<event>
 4    1  0.2552184E-008  0.2833266E+04  0.7816531E-02  0.8293014E-01
         -2   -1    0    0    0  501 -0.00000000000E+00  0.00000000000E+00  0.16324636966E+04  0.16324636966E+04  0.00000000000E+00 0. -1.
          2   -1    0    0  501    0  0.00000000000E+00 -0.00000000000E+00 -0.12293379545E+04  0.12293379545E+04  0.00000000000E+00 0.  1.
    2000013    1    1    2    0    0  0.31292901694E+03  0.98423835032E+03  0.39768297588E+03  0.14585271507E+04  0.95000000000E+03 0.  0.
   -2000013    1    1    2    0    0 -0.31292901694E+03 -0.98423835032E+03  0.54427661944E+01  0.14032745004E+04  0.95000000000E+03 0.  0.
<mgrwt>
<rscale>  0 0.28332664E+04</rscale>
<asrwt>0</asrwt>
<pdfrwt beam="2">  1        2 0.18912892E+00 0.28332664E+04</pdfrwt>
<pdfrwt beam="1">  1       -2 0.25114826E+00 0.28332664E+04</pdfrwt>
<totfact> 0.99817201E-01</totfact>
</mgrwt>
</event>
<event>
 4    1  0.2552184E-008  0.2447879E+04  0.7816531E-02  0.8421793E-01
         -2   -1    0    0    0  501 -0.00000000000E+00  0.00000000000E+00  0.49326733560E+03  0.49326733560E+03  0.00000000000E+00 0. -1.
          2   -1    0    0  501    0  0.00000000000E+00 -0.00000000000E+00 -0.30369503908E+04  0.30369503908E+04  0.00000000000E+00 0.  1.
    2000013    1    1    2    0    0 -0.35375954269E+03 -0.45454331154E+03 -0.53116832774E+03  0.12314200049E+04  0.95000000000E+03 0.  0.
   -2000013    1    1    2    0    0  0.35375954269E+03  0.45454331154E+03 -0.20125147275E+04  0.22987977215E+04  0.95000000000E+03 0.  0.
<mgrwt>
<rscale>  0 0.24478794E+04</rscale>
<asrwt>0</asrwt>
<pdfrwt beam="2">  1        2 0.46722314E+00 0.24478794E+04</pdfrwt>
<pdfrwt beam="1">  1       -2 0.75887281E-01 0.24478794E+04</pdfrwt>
<totfact> 0.23004205E+00</totfact>
</mgrwt>
</event>
<event>
 4    1  0.2552184E-008  0.2088758E+04  0.7816531E-02  0.8566212E-01
         -1   -1    0    0    0  501 -0.00000000000E+00  0.00000000000E+00  0.81278254689E+03  0.81278254689E+03  0.00000000000E+00 0. -1.
          1   -1    0    0  501    0  0.00000000000E+00 -0.00000000000E+00 -0.13419671890E+04  0.13419671890E+04  0.00000000000E+00 0.  1.
    2000013    1    1    2    0    0 -0.29524282849E+03  0.30061461046E+03 -0.15793311902E+03  0.10511804516E+04  0.95000000000E+03 0.  0.
   -2000013    1    1    2    0    0  0.29524282849E+03 -0.30061461046E+03 -0.37125152312E+03  0.11035692843E+04  0.95000000000E+03 0.  0.
<mgrwt>
<rscale>  0 0.20887580E+04</rscale>
<asrwt>0</asrwt>
<pdfrwt beam="2">  1        1 0.20645649E+00 0.20887580E+04</pdfrwt>
<pdfrwt beam="1">  1       -1 0.12504347E+00 0.20887580E+04</pdfrwt>
<totfact> 0.43463954E+00</totfact>
</mgrwt>
</event>
<event>
 4    1  0.2552184E-008  0.2722283E+04  0.7816531E-02  0.8327811E-01
         -2   -1    0    0    0  501 -0.00000000000E+00  0.00000000000E+00  0.47042079786E+03  0.47042079786E+03  0.00000000000E+00 0. -1.
          2   -1    0    0  501    0  0.00000000000E+00 -0.00000000000E+00 -0.39384012340E+04  0.39384012340E+04  0.00000000000E+00 0.  1.
    2000013    1    1    2    0    0 -0.17790072003E+03  0.94550563952E+03 -0.19878812278E+04  0.24041217433E+04  0.95000000000E+03 0.  0.
   -2000013    1    1    2    0    0  0.17790072003E+03 -0.94550563952E+03 -0.14800992083E+04  0.20047002886E+04  0.95000000000E+03 0.  0.
<mgrwt>
<rscale>  0 0.27222828E+04</rscale>
<asrwt>0</asrwt>
<pdfrwt beam="2">  1        2 0.60590791E+00 0.27222828E+04</pdfrwt>
<pdfrwt beam="1">  1       -2 0.72372428E-01 0.27222828E+04</pdfrwt>
<totfact> 0.58067543E-01</totfact>
</mgrwt>
</event>
<event>
 4    1  0.2552184E-008  0.2336094E+04  0.7816531E-02  0.8463824E-01
         -2   -1    0    0    0  501 -0.00000000000E+00  0.00000000000E+00  0.10486823706E+04  0.10486823706E+04  0.00000000000E+00 0. -1.
          2   -1    0    0  501    0  0.00000000000E+00 -0.00000000000E+00 -0.13009979405E+04  0.13009979405E+04  0.00000000000E+00 0.  1.
    2000013    1    1    2    0    0  0.19527502532E+03  0.65033325907E+03 -0.15403034111E+03  0.11778331925E+04  0.95000000000E+03 0.  0.
   -2000013    1    1    2    0    0 -0.19527502532E+03 -0.65033325907E+03 -0.98285228773E+02  0.11718471187E+04  0.95000000000E+03 0.  0.
<mgrwt>
<rscale>  0 0.23360938E+04</rscale>
<asrwt>0</asrwt>
<pdfrwt beam="2">  1        2 0.20015353E+00 0.23360938E+04</pdfrwt>
<pdfrwt beam="1">  1       -2 0.16133575E+00 0.23360938E+04</pdfrwt>
<totfact> 0.36751376E+00</totfact>
</mgrwt>
</event>
<event>
 4    1  0.2552184E-008  0.2134377E+04  0.7816531E-02  0.8546249E-01
         -2   -1    0    0    0  501 -0.00000000000E+00  0.00000000000E+00  0.46192648919E+03  0.46192648919E+03  0.00000000000E+00 0. -1.
          2   -1    0    0  501    0  0.00000000000E+00 -0.00000000000E+00 -0.24655258890E+04  0.24655258890E+04  0.00000000000E+00 0.  1.
    2000013    1    1    2    0    0 -0.26001319530E+03  0.11667813784E+03 -0.46151334300E+03  0.10939447954E+04  0.95000000000E+03 0.  0.
   -2000013    1    1    2    0    0  0.26001319530E+03 -0.11667813784E+03 -0.15420860568E+04  0.18335075828E+04  0.95000000000E+03 0.  0.
<mgrwt>
<rscale>  0 0.21343774E+04</rscale>
<asrwt>0</asrwt>
<pdfrwt beam="2">  1        2 0.37931168E+00 0.21343774E+04</pdfrwt>
<pdfrwt beam="1">  1       -2 0.71065614E-01 0.21343774E+04</pdfrwt>
<totfact> 0.60248041E+00</totfact>
</mgrwt>
</event>
<event>
 4    1  0.2552184E-008  0.3174674E+04  0.7816531E-02  0.8195538E-01
         -4   -1    0    0    0  501 -0.00000000000E+00  0.00000000000E+00  0.10434323767E+04  0.10434323767E+04  0.00000000000E+00 0. -1.
          4   -1    0    0  501    0  0.00000000000E+00 -0.00000000000E+00 -0.24147593773E+04  0.24147593773E+04  0.00000000000E+00 0.  1.
    2000013    1    1    2    0    0 -0.91522061020E+03 -0.63957883228E+03 -0.13486638765E+04  0.19920050451E+04  0.95000000000E+03 0.  0.
   -2000013    1    1    2    0    0  0.91522061020E+03  0.63957883228E+03 -0.22663124057E+02  0.14661867089E+04  0.95000000000E+03 0.  0.
<mgrwt>
<rscale>  0 0.31746736E+04</rscale>
<asrwt>0</asrwt>
<pdfrwt beam="2">  1        4 0.37150144E+00 0.31746736E+04</pdfrwt>
<pdfrwt beam="1">  1       -4 0.16052806E+00 0.31746736E+04</pdfrwt>
<totfact> 0.44241939E-03</totfact>
</mgrwt>
</event>
<event>
 4    1  0.2552184E-008  0.2248029E+04  0.7816531E-02  0.8498699E-01
          2   -1    0    0  501    0  0.00000000000E+00  0.00000000000E+00  0.30839537983E+04  0.30839537983E+04  0.00000000000E+00 0.  1.
         -2   -1    0    0    0  501 -0.00000000000E+00 -0.00000000000E+00 -0.40967179365E+03  0.40967179365E+03  0.00000000000E+00 0. -1.
    2000013    1    1    2    0    0  0.39610335745E+03  0.47442290399E+01  0.63523775669E+03  0.12095236190E+04  0.95000000000E+03 0.  0.
   -2000013    1    1    2    0    0 -0.39610335745E+03 -0.47442290399E+01  0.20390442480E+04  0.22841019729E+04  0.95000000000E+03 0.  0.
<mgrwt>
<rscale>  0 0.22480293E+04</rscale>
<asrwt>0</asrwt>
<pdfrwt beam="1">  1        2 0.47445442E+00 0.22480293E+04</pdfrwt>
<pdfrwt beam="2">  1       -2 0.63026432E-01 0.22480293E+04</pdfrwt>
<totfact> 0.32762213E+00</totfact>
</mgrwt>
</event>
<event>
 4    1  0.2552184E-008  0.3517818E+04  0.7816531E-02  0.8109580E-01
          2   -1    0    0  501    0  0.00000000000E+00  0.00000000000E+00  0.14686913910E+04  0.14686913910E+04  0.00000000000E+00 0.  1.
         -2   -1    0    0    0  501 -0.00000000000E+00 -0.00000000000E+00 -0.21064748626E+04  0.21064748626E+04  0.00000000000E+00 0. -1.
    2000013    1    1    2    0    0  0.46276205298E+03 -0.11404545510E+04  0.51699818984E+03  0.16384664869E+04  0.95000000000E+03 0.  0.
   -2000013    1    1    2    0    0 -0.46276205298E+03  0.11404545510E+04 -0.11547816614E+04  0.19366997666E+04  0.95000000000E+03 0.  0.
<mgrwt>
<rscale>  0 0.35178184E+04</rscale>
<asrwt>0</asrwt>
<pdfrwt beam="1">  1        2 0.22595252E+00 0.35178184E+04</pdfrwt>
<pdfrwt beam="2">  1       -2 0.32407305E+00 0.35178184E+04</pdfrwt>
<totfact> 0.24507646E-01</totfact>
</mgrwt>
</event>
<event>
 4    1  0.2552184E-008  0.2717519E+04  0.7816531E-02  0.8329343E-01
         -2   -1    0    0    0  501 -0.00000000000E+00  0.00000000000E+00  0.99464475090E+03  0.99464475090E+03  0.00000000000E+00 0. -1.
          2   -1    0    0  501    0  0.00000000000E+00 -0.00000000000E+00 -0.18561674708E+04  0.18561674708E+04  0.00000000000E+00 0.  1.
    2000013    1    1    2    0    0  0.89132996151E+03  0.32303897143E+03 -0.65306078195E+03  0.14925855628E+04  0.95000000000E+03 0.  0.
   -2000013    1    1    2    0    0 -0.89132996151E+03 -0.32303897143E+03 -0.20846193794E+03  0.13582266589E+04  0.95000000000E+03 0.  0.
<mgrwt>
<rscale>  0 0.27175189E+04</rscale>
<asrwt>0</asrwt>
<pdfrwt beam="2">  1        2 0.28556423E+00 0.27175189E+04</pdfrwt>
<pdfrwt beam="1">  1       -2 0.15302227E+00 0.27175189E+04</pdfrwt>
<totfact> 0.19992061E+00</totfact>
</mgrwt>
</event>
<event>
 4    1  0.2552184E-008  0.2076858E+04  0.7816531E-02  0.8571507E-01
         -2   -1    0    0    0  501 -0.00000000000E+00  0.00000000000E+00  0.93347191583E+03  0.93347191583E+03  0.00000000000E+00 0. -1.
          2   -1    0    0  501    0  0.00000000000E+00 -0.00000000000E+00 -0.11551870600E+04  0.11551870600E+04  0.00000000000E+00 0.  1.
    2000013    1    1    2    0    0  0.12384479191E+03 -0.40038375046E+03 -0.12471986784E+03  0.10458009971E+04  0.95000000000E+03 0.  0.
   -2000013    1    1    2    0    0 -0.12384479191E+03  0.40038375046E+03 -0.96995276313E+02  0.10428579787E+04  0.95000000000E+03 0.  0.
<mgrwt>
<rscale>  0 0.20768579E+04</rscale>
<asrwt>0</asrwt>
<pdfrwt beam="2">  1        2 0.17772109E+00 0.20768579E+04</pdfrwt>
<pdfrwt beam="1">  1       -2 0.14361106E+00 0.20768579E+04</pdfrwt>
<totfact> 0.62543254E+00</totfact>
</mgrwt>
</event>
<event>
 4    1  0.2552184E-008  0.2360888E+04  0.7816531E-02  0.8454293E-01
         -2   -1    0    0    0  501 -0.00000000000E+00  0.00000000000E+00  0.15551769947E+04  0.15551769947E+04  0.00000000000E+00 0. -1.
          2   -1    0    0  501    0  0.00000000000E+00 -0.00000000000E+00 -0.89600637046E+03  0.89600637046E+03  0.00000000000E+00 0.  1.
    2000013    1    1    2    0    0 -0.60926685319E+03  0.89708862500E+02  0.67657507244E+03  0.13189039416E+04  0.95000000000E+03 0.  0.
   -2000013    1    1    2    0    0  0.60926685319E+03 -0.89708862500E+02 -0.17404448150E+02  0.11322794236E+04  0.95000000000E+03 0.  0.
<mgrwt>
<rscale>  0 0.23608884E+04</rscale>
<asrwt>0</asrwt>
<pdfrwt beam="2">  1        2 0.13784713E+00 0.23608884E+04</pdfrwt>
<pdfrwt beam="1">  1       -2 0.23925800E+00 0.23608884E+04</pdfrwt>
<totfact> 0.19922349E+00</totfact>
</mgrwt>
</event>
<event>
 4    1  0.2552184E-008  0.2959442E+04  0.7816531E-02  0.8255408E-01
         -2   -1    0    0    0  501 -0.00000000000E+00  0.00000000000E+00  0.71299383785E+03  0.71299383785E+03  0.00000000000E+00 0. -1.
          2   -1    0    0  501    0  0.00000000000E+00 -0.00000000000E+00 -0.30709579352E+04  0.30709579352E+04  0.00000000000E+00 0.  1.
    2000013    1    1    2    0    0  0.97939624650E+03  0.23751916544E+03 -0.51282891350E+03  0.14768635198E+04  0.95000000000E+03 0.  0.
   -2000013    1    1    2    0    0 -0.97939624650E+03 -0.23751916544E+03 -0.18451351839E+04  0.23070882533E+04  0.95000000000E+03 0.  0.
<mgrwt>
<rscale>  0 0.29594419E+04</rscale>
<asrwt>0</asrwt>
<pdfrwt beam="2">  1        2 0.47245506E+00 0.29594419E+04</pdfrwt>
<pdfrwt beam="1">  1       -2 0.10969136E+00 0.29594419E+04</pdfrwt>
<totfact> 0.89168944E-01</totfact>
</mgrwt>
</event>
<event>
 4    1  0.2552184E-008  0.2219569E+04  0.7816531E-02  0.8510327E-01
          2   -1    0    0  501    0  0.00000000000E+00  0.00000000000E+00  0.70557737656E+03  0.70557737656E+03  0.00000000000E+00 0.  1.
         -2   -1    0    0    0  501 -0.00000000000E+00 -0.00000000000E+00 -0.17455508408E+04  0.17455508408E+04  0.00000000000E+00 0. -1.
    2000013    1    1    2    0    0  0.41391653384E+03  0.34369851049E+03 -0.30004654940E+03  0.11322470998E+04  0.95000000000E+03 0.  0.
   -2000013    1    1    2    0    0 -0.41391653384E+03 -0.34369851049E+03 -0.73992691488E+03  0.13188811176E+04  0.95000000000E+03 0.  0.
<mgrwt>
<rscale>  0 0.22195686E+04</rscale>
<asrwt>0</asrwt>
<pdfrwt beam="1">  1        2 0.10855037E+00 0.22195686E+04</pdfrwt>
<pdfrwt beam="2">  1       -2 0.26854628E+00 0.22195686E+04</pdfrwt>
<totfact> 0.18311314E+00</totfact>
</mgrwt>
</event>
<event>
 4    1  0.2552184E-008  0.2742937E+04  0.7816531E-02  0.8321206E-01
          2   -1    0    0  501    0  0.00000000000E+00  0.00000000000E+00  0.23169993715E+04  0.23169993715E+04  0.00000000000E+00 0.  1.
         -2   -1    0    0    0  501 -0.00000000000E+00 -0.00000000000E+00 -0.81179395229E+03  0.81179395229E+03  0.00000000000E+00 0. -1.
    2000013    1    1    2    0    0 -0.57369258293E+03  0.79793385150E+03  0.88066558383E+03  0.16260053756E+04  0.95000000000E+03 0.  0.
   -2000013    1    1    2    0    0  0.57369258293E+03 -0.79793385150E+03  0.62453983536E+03  0.15027879481E+04  0.95000000000E+03 0.  0.
<mgrwt>
<rscale>  0 0.27429372E+04</rscale>
<asrwt>0</asrwt>
<pdfrwt beam="1">  1        2 0.35646144E+00 0.27429372E+04</pdfrwt>
<pdfrwt beam="2">  1       -2 0.12489138E+00 0.27429372E+04</pdfrwt>
<totfact> 0.18623825E+00</totfact>
</mgrwt>
</event>
<event>
 4    1  0.2552184E-008  0.3048316E+04  0.7816531E-02  0.8230067E-01
          2   -1    0    0  501    0  0.00000000000E+00  0.00000000000E+00  0.19438104576E+04  0.19438104576E+04  0.00000000000E+00 0.  1.
         -2   -1    0    0    0  501 -0.00000000000E+00 -0.00000000000E+00 -0.11951052368E+04  0.11951052368E+04  0.00000000000E+00 0. -1.
    2000013    1    1    2    0    0 -0.95313952122E+03  0.71021376499E+03  0.28411520176E+03  0.15479341029E+04  0.95000000000E+03 0.  0.
   -2000013    1    1    2    0    0  0.95313952122E+03 -0.71021376499E+03  0.46459001899E+03  0.15909815915E+04  0.95000000000E+03 0.  0.
<mgrwt>
<rscale>  0 0.30483163E+04</rscale>
<asrwt>0</asrwt>
<pdfrwt beam="1">  1        2 0.29904776E+00 0.30483163E+04</pdfrwt>
<pdfrwt beam="2">  1       -2 0.18386234E+00 0.30483163E+04</pdfrwt>
<totfact> 0.10442840E+00</totfact>
</mgrwt>
</event>
<event>
 4    1  0.2552184E-008  0.2993550E+04  0.7816531E-02  0.8245575E-01
          2   -1    0    0  501    0  0.00000000000E+00  0.00000000000E+00  0.15340297248E+04  0.15340297248E+04  0.00000000000E+00 0.  1.
         -2   -1    0    0    0  501 -0.00000000000E+00 -0.00000000000E+00 -0.14604254032E+04  0.14604254032E+04  0.00000000000E+00 0. -1.
    2000013    1    1    2    0    0  0.10836498677E+04  0.39517841613E+03  0.12269407159E+03  0.14993388048E+04  0.95000000000E+03 0.  0.
   -2000013    1    1    2    0    0 -0.10836498677E+04 -0.39517841613E+03 -0.49089749990E+02  0.14951163232E+04  0.95000000000E+03 0.  0.
<mgrwt>
<rscale>  0 0.29935504E+04</rscale>
<asrwt>0</asrwt>
<pdfrwt beam="1">  1        2 0.23600457E+00 0.29935504E+04</pdfrwt>
<pdfrwt beam="2">  1       -2 0.22468083E+00 0.29935504E+04</pdfrwt>
<totfact> 0.96045455E-01</totfact>
</mgrwt>
</event>
<event>
 4    1  0.2552184E-008  0.2366400E+04  0.7816531E-02  0.8452191E-01
         -2   -1    0    0    0  501 -0.00000000000E+00  0.00000000000E+00  0.11853152410E+04  0.11853152410E+04  0.00000000000E+00 0. -1.
          2   -1    0    0  501    0  0.00000000000E+00 -0.00000000000E+00 -0.11810884885E+04  0.11810884885E+04  0.00000000000E+00 0.  1.
    2000013    1    1    2    0    0 -0.61877231470E+03  0.28949696565E+03  0.17754032431E+03  0.11835152037E+04  0.95000000000E+03 0.  0.
   -2000013    1    1    2    0    0  0.61877231470E+03 -0.28949696565E+03 -0.17331357179E+03  0.11828885259E+04  0.95000000000E+03 0.  0.
<mgrwt>
<rscale>  0 0.23664000E+04</rscale>
<asrwt>0</asrwt>
<pdfrwt beam="2">  1        2 0.18170592E+00 0.23664000E+04</pdfrwt>
<pdfrwt beam="1">  1       -2 0.18235619E+00 0.23664000E+04</pdfrwt>
<totfact> 0.30622190E+00</totfact>
</mgrwt>
</event>
<event>
 4    1  0.2552184E-008  0.2668427E+04  0.7816531E-02  0.8345323E-01
         -2   -1    0    0    0  501 -0.00000000000E+00  0.00000000000E+00  0.14709424126E+04  0.14709424126E+04  0.00000000000E+00 0. -1.
          2   -1    0    0  501    0  0.00000000000E+00 -0.00000000000E+00 -0.12101937938E+04  0.12101937938E+04  0.00000000000E+00 0.  1.
    2000013    1    1    2    0    0  0.33996225840E+03 -0.59733773959E+03  0.76998987579E+03  0.14027726548E+04  0.95000000000E+03 0.  0.
   -2000013    1    1    2    0    0 -0.33996225840E+03  0.59733773959E+03 -0.50924125700E+03  0.12783635516E+04  0.95000000000E+03 0.  0.
<mgrwt>
<rscale>  0 0.26684268E+04</rscale>
<asrwt>0</asrwt>
<pdfrwt beam="2">  1        2 0.18618366E+00 0.26684268E+04</pdfrwt>
<pdfrwt beam="1">  1       -2 0.22629883E+00 0.26684268E+04</pdfrwt>
<totfact> 0.14816250E+00</totfact>
</mgrwt>
</event>
<event>
 4    1  0.2552184E-008  0.3536159E+04  0.7816531E-02  0.8105274E-01
          2   -1    0    0  501    0  0.00000000000E+00  0.00000000000E+00  0.42509990345E+04  0.42509990345E+04  0.00000000000E+00 0.  1.
         -2   -1    0    0    0  501 -0.00000000000E+00 -0.00000000000E+00 -0.73538122058E+03  0.73538122058E+03  0.00000000000E+00 0. -1.
    2000013    1    1    2    0    0  0.10917924390E+04  0.62048194670E+02  0.31873483234E+04  0.35010784115E+04  0.95000000000E+03 0.  0.
   -2000013    1    1    2    0    0 -0.10917924390E+04 -0.62048194670E+02  0.32826949053E+03  0.14853018437E+04  0.95000000000E+03 0.  0.
<mgrwt>
<rscale>  0 0.35361589E+04</rscale>
<asrwt>0</asrwt>
<pdfrwt beam="1">  1        2 0.65399984E+00 0.35361589E+04</pdfrwt>
<pdfrwt beam="2">  1       -2 0.11313558E+00 0.35361589E+04</pdfrwt>
<totfact> 0.10507788E-01</totfact>
</mgrwt>
</event>
<event>
 4    1  0.2552184E-008  0.2285588E+04  0.7816531E-02  0.8483625E-01
          2   -1    0    0  501    0  0.00000000000E+00  0.00000000000E+00  0.17837156447E+04  0.17837156447E+04  0.00000000000E+00 0.  1.
         -2   -1    0    0    0  501 -0.00000000000E+00 -0.00000000000E+00 -0.73216752238E+03  0.73216752238E+03  0.00000000000E+00 0. -1.
    2000013    1    1    2    0    0  0.58017399901E+03  0.21044216040E+03  0.69122114803E+03  0.13270924789E+04  0.95000000000E+03 0.  0.
   -2000013    1    1    2    0    0 -0.58017399901E+03 -0.21044216040E+03  0.36032697431E+03  0.11887906882E+04  0.95000000000E+03 0.  0.
<mgrwt>
<rscale>  0 0.22855885E+04</rscale>
<asrwt>0</asrwt>
<pdfrwt beam="1">  1        2 0.27441779E+00 0.22855885E+04</pdfrwt>
<pdfrwt beam="2">  1       -2 0.11264116E+00 0.22855885E+04</pdfrwt>
<totfact> 0.49601837E+00</totfact>
</mgrwt>
</event>
<event>
 4    1  0.2552184E-008  0.3267169E+04  0.7816531E-02  0.8171300E-01
         -2   -1    0    0    0  501 -0.00000000000E+00  0.00000000000E+00  0.12373437248E+04  0.12373437248E+04  0.00000000000E+00 0. -1.
          2   -1    0    0  501    0  0.00000000000E+00 -0.00000000000E+00 -0.21567157088E+04  0.21567157088E+04  0.00000000000E+00 0.  1.
    2000013    1    1    2    0    0  0.97796119686E+03 -0.13128894758E+03  0.46508624076E+03  0.14465303667E+04  0.95000000000E+03 0.  0.
   -2000013    1    1    2    0    0 -0.97796119686E+03  0.13128894758E+03 -0.13844582248E+04  0.19475290670E+04  0.95000000000E+03 0.  0.
<mgrwt>
<rscale>  0 0.32671692E+04</rscale>
<asrwt>0</asrwt>
<pdfrwt beam="2">  1        2 0.33180242E+00 0.32671692E+04</pdfrwt>
<pdfrwt beam="1">  1       -2 0.19036057E+00 0.32671692E+04</pdfrwt>
<totfact> 0.70498580E-01</totfact>
</mgrwt>
</event>
<event>
 4    1  0.2552184E-008  0.2285216E+04  0.7816531E-02  0.8483773E-01
          2   -1    0    0  501    0  0.00000000000E+00  0.00000000000E+00  0.21612259401E+04  0.21612259401E+04  0.00000000000E+00 0.  1.
         -2   -1    0    0    0  501 -0.00000000000E+00 -0.00000000000E+00 -0.60408009956E+03  0.60408009956E+03  0.00000000000E+00 0. -1.
    2000013    1    1    2    0    0 -0.62949902660E+03 -0.81663874232E+02  0.76556418579E+03  0.13753277920E+04  0.95000000000E+03 0.  0.
   -2000013    1    1    2    0    0  0.62949902660E+03  0.81663874232E+02  0.79158165472E+03  0.13899782476E+04  0.95000000000E+03 0.  0.
<mgrwt>
<rscale>  0 0.22852165E+04</rscale>
<asrwt>0</asrwt>
<pdfrwt beam="1">  1        2 0.33249629E+00 0.22852165E+04</pdfrwt>
<pdfrwt beam="2">  1       -2 0.92935401E-01 0.22852165E+04</pdfrwt>
<totfact> 0.48344070E+00</totfact>
</mgrwt>
</event>
<event>
 4    1  0.2552184E-008  0.2990770E+04  0.7816531E-02  0.8246372E-01
         -2   -1    0    0    0  501 -0.00000000000E+00  0.00000000000E+00  0.12195108594E+04  0.12195108594E+04  0.00000000000E+00 0. -1.
          2   -1    0    0  501    0  0.00000000000E+00 -0.00000000000E+00 -0.18336663607E+04  0.18336663607E+04  0.00000000000E+00 0.  1.
    2000013    1    1    2    0    0 -0.23632286489E+03  0.13593705164E+03  0.83854601733E+03  0.12961430483E+04  0.95000000000E+03 0.  0.
   -2000013    1    1    2    0    0  0.23632286489E+03 -0.13593705164E+03 -0.14527015186E+04  0.17570341718E+04  0.95000000000E+03 0.  0.
<mgrwt>
<rscale>  0 0.29907698E+04</rscale>
<asrwt>0</asrwt>
<pdfrwt beam="2">  1        2 0.28210252E+00 0.29907698E+04</pdfrwt>
<pdfrwt beam="1">  1       -2 0.18761706E+00 0.29907698E+04</pdfrwt>
<totfact> 0.11389757E+00</totfact>
</mgrwt>
</event>
<event>
 4    1  0.2552184E-008  0.2536648E+04  0.7816531E-02  0.8390045E-01
         -2   -1    0    0    0  501 -0.00000000000E+00  0.00000000000E+00  0.49362987163E+03  0.49362987163E+03  0.00000000000E+00 0. -1.
          2   -1    0    0  501    0  0.00000000000E+00 -0.00000000000E+00 -0.32588101096E+04  0.32588101096E+04  0.00000000000E+00 0.  1.
    2000013    1    1    2    0    0 -0.62399093612E+03  0.56131058293E+03 -0.13213868533E+04  0.18311191864E+04  0.95000000000E+03 0.  0.
   -2000013    1    1    2    0    0  0.62399093612E+03 -0.56131058293E+03 -0.14437933847E+04  0.19213207948E+04  0.95000000000E+03 0.  0.
<mgrwt>
<rscale>  0 0.25366482E+04</rscale>
<asrwt>0</asrwt>
<pdfrwt beam="2">  1        2 0.50135540E+00 0.25366482E+04</pdfrwt>
<pdfrwt beam="1">  1       -2 0.75943058E-01 0.25366482E+04</pdfrwt>
<totfact> 0.16390883E+00</totfact>
</mgrwt>
</event>
<event>
 4    1  0.2552184E-008  0.3798669E+04  0.7816531E-02  0.8046441E-01
          2   -1    0    0  501    0  0.00000000000E+00  0.00000000000E+00  0.32128029617E+04  0.32128029617E+04  0.00000000000E+00 0.  1.
         -2   -1    0    0    0  501 -0.00000000000E+00 -0.00000000000E+00 -0.11228425645E+04  0.11228425645E+04  0.00000000000E+00 0. -1.
    2000013    1    1    2    0    0  0.59485263675E+03  0.14947546751E+04  0.65485786210E+03  0.19797676676E+04  0.95000000000E+03 0.  0.
   -2000013    1    1    2    0    0 -0.59485263675E+03 -0.14947546751E+04  0.14351025351E+04  0.23558778586E+04  0.95000000000E+03 0.  0.
<mgrwt>
<rscale>  0 0.37986692E+04</rscale>
<asrwt>0</asrwt>
<pdfrwt beam="1">  1        2 0.49427737E+00 0.37986692E+04</pdfrwt>
<pdfrwt beam="2">  1       -2 0.17274501E+00 0.37986692E+04</pdfrwt>
<totfact> 0.20765596E-01</totfact>
</mgrwt>
</event>
<event>
 4    1  0.2552184E-008  0.1986022E+04  0.7816531E-02  0.8613184E-01
         -2   -1    0    0    0  501 -0.00000000000E+00  0.00000000000E+00  0.37420255017E+03  0.37420255017E+03  0.00000000000E+00 0. -1.
          2   -1    0    0  501    0  0.00000000000E+00 -0.00000000000E+00 -0.26351264263E+04  0.26351264263E+04  0.00000000000E+00 0.  1.
    2000013    1    1    2    0    0 -0.15825745768E+03 -0.21913142617E+03 -0.97514263556E+03  0.13879723212E+04  0.95000000000E+03 0.  0.
   -2000013    1    1    2    0    0  0.15825745768E+03  0.21913142617E+03 -0.12857812406E+04  0.16213566553E+04  0.95000000000E+03 0.  0.
<mgrwt>
<rscale>  0 0.19860222E+04</rscale>
<asrwt>0</asrwt>
<pdfrwt beam="2">  1        2 0.40540407E+00 0.19860222E+04</pdfrwt>
<pdfrwt beam="1">  1       -2 0.57569623E-01 0.19860222E+04</pdfrwt>
<totfact> 0.76339779E+00</totfact>
</mgrwt>
</event>
<event>
 4    1  0.2552184E-008  0.2616421E+04  0.7816531E-02  0.8362645E-01
         -2   -1    0    0    0  501 -0.00000000000E+00  0.00000000000E+00  0.48644451101E+03  0.48644451101E+03  0.00000000000E+00 0. -1.
          2   -1    0    0  501    0  0.00000000000E+00 -0.00000000000E+00 -0.35182126642E+04  0.35182126642E+04  0.00000000000E+00 0.  1.
    2000013    1    1    2    0    0  0.74346511767E+03 -0.26540701143E+03 -0.21755185260E+04  0.25017118379E+04  0.95000000000E+03 0.  0.
   -2000013    1    1    2    0    0 -0.74346511767E+03  0.26540701143E+03 -0.85624962721E+03  0.15029453373E+04  0.95000000000E+03 0.  0.
<mgrwt>
<rscale>  0 0.26164214E+04</rscale>
<asrwt>0</asrwt>
<pdfrwt beam="2">  1        2 0.54126348E+00 0.26164214E+04</pdfrwt>
<pdfrwt beam="1">  1       -2 0.74837618E-01 0.26164214E+04</pdfrwt>
<totfact> 0.11195903E+00</totfact>
</mgrwt>
</event>
<event>
 4    1  0.2552184E-008  0.2735465E+04  0.7816531E-02  0.8323589E-01
         -2   -1    0    0    0  501 -0.00000000000E+00  0.00000000000E+00  0.12266630428E+04  0.12266630428E+04  0.00000000000E+00 0. -1.
          2   -1    0    0  501    0  0.00000000000E+00 -0.00000000000E+00 -0.15250250561E+04  0.15250250561E+04  0.00000000000E+00 0.  1.
    2000013    1    1    2    0    0  0.15176844113E+03 -0.97211962799E+03 -0.16115305794E+03  0.13771421637E+04  0.95000000000E+03 0.  0.
   -2000013    1    1    2    0    0 -0.15176844113E+03  0.97211962799E+03 -0.13720895533E+03  0.13745459353E+04  0.95000000000E+03 0.  0.
<mgrwt>
<rscale>  0 0.27354648E+04</rscale>
<asrwt>0</asrwt>
<pdfrwt beam="2">  1        2 0.23461924E+00 0.27354648E+04</pdfrwt>
<pdfrwt beam="1">  1       -2 0.18871739E+00 0.27354648E+04</pdfrwt>
<totfact> 0.16997112E+00</totfact>
</mgrwt>
</event>
<event>
 4    1  0.2552184E-008  0.2740896E+04  0.7816531E-02  0.8321856E-01
         -2   -1    0    0    0  501 -0.00000000000E+00  0.00000000000E+00  0.66576011155E+03  0.66576011155E+03  0.00000000000E+00 0. -1.
          2   -1    0    0  501    0  0.00000000000E+00 -0.00000000000E+00 -0.28210275245E+04  0.28210275245E+04  0.00000000000E+00 0.  1.
    2000013    1    1    2    0    0  0.61236442429E+03 -0.51897273739E+03 -0.18098624259E+04  0.21960020243E+04  0.95000000000E+03 0.  0.
   -2000013    1    1    2    0    0 -0.61236442429E+03  0.51897273739E+03 -0.34540498708E+03  0.12907856117E+04  0.95000000000E+03 0.  0.
<mgrwt>
<rscale>  0 0.27408959E+04</rscale>
<asrwt>0</asrwt>
<pdfrwt beam="2">  1        2 0.43400423E+00 0.27408959E+04</pdfrwt>
<pdfrwt beam="1">  1       -2 0.10242463E+00 0.27408959E+04</pdfrwt>
<totfact> 0.15312243E+00</totfact>
</mgrwt>
</event>
<event>
 4    1  0.2552184E-008  0.2232405E+04  0.7816531E-02  0.8505060E-01
         -2   -1    0    0    0  501 -0.00000000000E+00  0.00000000000E+00  0.72930566821E+03  0.72930566821E+03  0.00000000000E+00 0. -1.
          2   -1    0    0  501    0  0.00000000000E+00 -0.00000000000E+00 -0.17083481076E+04  0.17083481076E+04  0.00000000000E+00 0.  1.
    2000013    1    1    2    0    0 -0.58124568943E+03 -0.72858706647E+02 -0.47215230701E+03  0.12118509577E+04  0.95000000000E+03 0.  0.
   -2000013    1    1    2    0    0  0.58124568943E+03  0.72858706647E+02 -0.50689013238E+03  0.12258028181E+04  0.95000000000E+03 0.  0.
<mgrwt>
<rscale>  0 0.22324049E+04</rscale>
<asrwt>0</asrwt>
<pdfrwt beam="2">  1        2 0.26282278E+00 0.22324049E+04</pdfrwt>
<pdfrwt beam="1">  1       -2 0.11220087E+00 0.22324049E+04</pdfrwt>
<totfact> 0.55388710E+00</totfact>
</mgrwt>
</event>
<event>
 4    1  0.2552184E-008  0.2810059E+04  0.7816531E-02  0.8300152E-01
          2   -1    0    0  501    0  0.00000000000E+00  0.00000000000E+00  0.64114981966E+03  0.64114981966E+03  0.00000000000E+00 0.  1.
         -2   -1    0    0    0  501 -0.00000000000E+00 -0.00000000000E+00 -0.30790117006E+04  0.30790117006E+04  0.00000000000E+00 0. -1.
    2000013    1    1    2    0    0  0.57973876196E+03  0.79057225213E+03 -0.16590192638E+04  0.21484753747E+04  0.95000000000E+03 0.  0.
   -2000013    1    1    2    0    0 -0.57973876196E+03 -0.79057225213E+03 -0.77884261716E+03  0.15716861456E+04  0.95000000000E+03 0.  0.
<mgrwt>
<rscale>  0 0.28100589E+04</rscale>
<asrwt>0</asrwt>
<pdfrwt beam="1">  1        2 0.98638435E-01 0.28100589E+04</pdfrwt>
<pdfrwt beam="2">  1       -2 0.47369410E+00 0.28100589E+04</pdfrwt>
<totfact> 0.96236077E-02</totfact>
</mgrwt>
</event>
<event>
 4    1  0.2552184E-008  0.3125238E+04  0.7816531E-02  0.8208845E-01
         -2   -1    0    0    0  501 -0.00000000000E+00  0.00000000000E+00  0.10226659706E+04  0.10226659706E+04  0.00000000000E+00 0. -1.
          2   -1    0    0  501    0  0.00000000000E+00 -0.00000000000E+00 -0.23876599798E+04  0.23876599798E+04  0.00000000000E+00 0.  1.
    2000013    1    1    2    0    0 -0.11006661495E+04  0.30780006461E+03 -0.15568267711E+03  0.14943038340E+04  0.95000000000E+03 0.  0.
   -2000013    1    1    2    0    0  0.11006661495E+04 -0.30780006461E+03 -0.12093113321E+04  0.19160221163E+04  0.95000000000E+03 0.  0.
<mgrwt>
<rscale>  0 0.31252383E+04</rscale>
<asrwt>0</asrwt>
<pdfrwt beam="2">  1        2 0.36733230E+00 0.31252383E+04</pdfrwt>
<pdfrwt beam="1">  1       -2 0.15733323E+00 0.31252383E+04</pdfrwt>
<totfact> 0.90256552E-01</totfact>
</mgrwt>
</event>
<event>
 4    1  0.2552184E-008  0.2535314E+04  0.7816531E-02  0.8390512E-01
         -2   -1    0    0    0  501 -0.00000000000E+00  0.00000000000E+00  0.87290090588E+03  0.87290090588E+03  0.00000000000E+00 0. -1.
          2   -1    0    0  501    0  0.00000000000E+00 -0.00000000000E+00 -0.18409355842E+04  0.18409355842E+04  0.00000000000E+00 0.  1.
    2000013    1    1    2    0    0  0.23454361223E+03 -0.51645055752E+03  0.17818984104E+03  0.11207066984E+04  0.95000000000E+03 0.  0.
   -2000013    1    1    2    0    0 -0.23454361223E+03  0.51645055752E+03 -0.11462245194E+04  0.15931297917E+04  0.95000000000E+03 0.  0.
<mgrwt>
<rscale>  0 0.25353141E+04</rscale>
<asrwt>0</asrwt>
<pdfrwt beam="2">  1        2 0.28322086E+00 0.25353141E+04</pdfrwt>
<pdfrwt beam="1">  1       -2 0.13429245E+00 0.25353141E+04</pdfrwt>
<totfact> 0.29121258E+00</totfact>
</mgrwt>
</event>
<event>
 4    1  0.2552184E-008  0.2734066E+04  0.7816531E-02  0.8324036E-01
          2   -1    0    0  501    0  0.00000000000E+00  0.00000000000E+00  0.34836156416E+04  0.34836156416E+04  0.00000000000E+00 0.  1.
         -2   -1    0    0    0  501 -0.00000000000E+00 -0.00000000000E+00 -0.53644833043E+03  0.53644833043E+03  0.00000000000E+00 0. -1.
    2000013    1    1    2    0    0 -0.78135065810E+03  0.59399759529E+03  0.13938879232E+04  0.19516058866E+04  0.95000000000E+03 0.  0.
   -2000013    1    1    2    0    0  0.78135065810E+03 -0.59399759529E+03  0.15532793879E+04  0.20684580854E+04  0.95000000000E+03 0.  0.
<mgrwt>
<rscale>  0 0.27340664E+04</rscale>
<asrwt>0</asrwt>
<pdfrwt beam="1">  1        2 0.53594085E+00 0.27340664E+04</pdfrwt>
<pdfrwt beam="2">  1       -2 0.82530515E-01 0.27340664E+04</pdfrwt>
<totfact> 0.94090887E-01</totfact>
</mgrwt>
</event>
<event>
 4    1  0.2552184E-008  0.2554268E+04  0.7816531E-02  0.8383903E-01
         -1   -1    0    0    0  501 -0.00000000000E+00  0.00000000000E+00  0.17833144474E+04  0.17833144474E+04  0.00000000000E+00 0. -1.
          1   -1    0    0  501    0  0.00000000000E+00 -0.00000000000E+00 -0.91462942114E+03  0.91462942114E+03  0.00000000000E+00 0.  1.
    2000013    1    1    2    0    0  0.84835770540E+03  0.93600313995E+02  0.42377761106E+03  0.13455702430E+04  0.95000000000E+03 0.  0.
   -2000013    1    1    2    0    0 -0.84835770540E+03 -0.93600313995E+02  0.44490741521E+03  0.13523736256E+04  0.95000000000E+03 0.  0.
<mgrwt>
<rscale>  0 0.25542685E+04</rscale>
<asrwt>0</asrwt>
<pdfrwt beam="2">  1        1 0.14071222E+00 0.25542685E+04</pdfrwt>
<pdfrwt beam="1">  1       -1 0.27435607E+00 0.25542685E+04</pdfrwt>
<totfact> 0.75781702E-01</totfact>
</mgrwt>
</event>
<event>
 4    1  0.2552184E-008  0.2454112E+04  0.7816531E-02  0.8419518E-01
          2   -1    0    0  501    0  0.00000000000E+00  0.00000000000E+00  0.16065843384E+04  0.16065843384E+04  0.00000000000E+00 0.  1.
         -2   -1    0    0    0  501 -0.00000000000E+00 -0.00000000000E+00 -0.93718475658E+03  0.93718475658E+03  0.00000000000E+00 0. -1.
    2000013    1    1    2    0    0 -0.49193191551E+03  0.54113298614E+03  0.60567832784E+03  0.13431932679E+04  0.95000000000E+03 0.  0.
   -2000013    1    1    2    0    0  0.49193191551E+03 -0.54113298614E+03  0.63721253922E+02  0.12005758270E+04  0.95000000000E+03 0.  0.
<mgrwt>
<rscale>  0 0.24541119E+04</rscale>
<asrwt>0</asrwt>
<pdfrwt beam="1">  1        2 0.24716682E+00 0.24541119E+04</pdfrwt>
<pdfrwt beam="2">  1       -2 0.14418227E+00 0.24541119E+04</pdfrwt>
<totfact> 0.32928655E+00</totfact>
</mgrwt>
</event>
<event>
 4    1  0.2552184E-008  0.3390385E+04  0.7816531E-02  0.8140270E-01
         -1   -1    0    0    0  501 -0.00000000000E+00  0.00000000000E+00  0.12892690757E+04  0.12892690757E+04  0.00000000000E+00 0. -1.
          1   -1    0    0  501    0  0.00000000000E+00 -0.00000000000E+00 -0.22289197065E+04  0.22289197065E+04  0.00000000000E+00 0.  1.
    2000013    1    1    2    0    0  0.11411141732E+04  0.50583285105E+03 -0.11368377329E+04  0.19372424888E+04  0.95000000000E+03 0.  0.
   -2000013    1    1    2    0    0 -0.11411141732E+04 -0.50583285105E+03  0.19718710212E+03  0.15809462934E+04  0.95000000000E+03 0.  0.
<mgrwt>
<rscale>  0 0.33903848E+04</rscale>
<asrwt>0</asrwt>
<pdfrwt beam="2">  1        1 0.34291072E+00 0.33903848E+04</pdfrwt>
<pdfrwt beam="1">  1       -1 0.19834909E+00 0.33903848E+04</pdfrwt>
<totfact> 0.26483240E-01</totfact>
</mgrwt>
</event>
<event>
 4    1  0.2552184E-008  0.3988528E+04  0.7816531E-02  0.8006865E-01
          2   -1    0    0  501    0  0.00000000000E+00  0.00000000000E+00  0.20183196566E+04  0.20183196566E+04  0.00000000000E+00 0.  1.
         -2   -1    0    0    0  501 -0.00000000000E+00 -0.00000000000E+00 -0.19704950791E+04  0.19704950791E+04  0.00000000000E+00 0. -1.
    2000013    1    1    2    0    0 -0.14230033081E+04  0.10072580037E+04  0.21122724892E+03  0.19966532127E+04  0.95000000000E+03 0.  0.
   -2000013    1    1    2    0    0  0.14230033081E+04 -0.10072580037E+04 -0.16340267140E+03  0.19921615231E+04  0.95000000000E+03 0.  0.
<mgrwt>
<rscale>  0 0.39885280E+04</rscale>
<asrwt>0</asrwt>
<pdfrwt beam="1">  1        2 0.31051072E+00 0.39885280E+04</pdfrwt>
<pdfrwt beam="2">  1       -2 0.30315309E+00 0.39885280E+04</pdfrwt>
<totfact> 0.15666011E-01</totfact>
</mgrwt>
</event>
<event>
 4    1  0.2552184E-008  0.1948819E+04  0.7816531E-02  0.8630931E-01
          3   -1    0    0  501    0  0.00000000000E+00  0.00000000000E+00  0.91984566009E+03  0.91984566009E+03  0.00000000000E+00 0.  1.
         -3   -1    0    0    0  501 -0.00000000000E+00 -0.00000000000E+00 -0.10322098776E+04  0.10322098776E+04  0.00000000000E+00 0. -1.
    2000013    1    1    2    0    0 -0.18449567524E+03 -0.41209581826E+02 -0.16236237180E+03  0.98213971694E+03  0.95000000000E+03 0.  0.
   -2000013    1    1    2    0    0  0.18449567524E+03  0.41209581826E+02  0.49998154346E+02  0.96991582071E+03  0.95000000000E+03 0.  0.
<mgrwt>
<rscale>  0 0.19488189E+04</rscale>
<asrwt>0</asrwt>
<pdfrwt beam="1">  1        3 0.14151472E+00 0.19488189E+04</pdfrwt>
<pdfrwt beam="2">  1       -3 0.15880152E+00 0.19488189E+04</pdfrwt>
<totfact> 0.25444741E-01</totfact>
</mgrwt>
</event>
<event>
 4    1  0.2552184E-008  0.2461248E+04  0.7816531E-02  0.8416923E-01
         -2   -1    0    0    0  501 -0.00000000000E+00  0.00000000000E+00  0.80229275546E+03  0.80229275546E+03  0.00000000000E+00 0. -1.
          2   -1    0    0  501    0  0.00000000000E+00 -0.00000000000E+00 -0.18876337626E+04  0.18876337626E+04  0.00000000000E+00 0.  1.
    2000013    1    1    2    0    0  0.22805823457E+03  0.43520915313E+03  0.12258638218E+03  0.10765430723E+04  0.95000000000E+03 0.  0.
   -2000013    1    1    2    0    0 -0.22805823457E+03 -0.43520915313E+03 -0.12079273893E+04  0.16133834458E+04  0.95000000000E+03 0.  0.
<mgrwt>
<rscale>  0 0.24612476E+04</rscale>
<asrwt>0</asrwt>
<pdfrwt beam="2">  1        2 0.29040519E+00 0.24612476E+04</pdfrwt>
<pdfrwt beam="1">  1       -2 0.12342966E+00 0.24612476E+04</pdfrwt>
<totfact> 0.34163587E+00</totfact>
</mgrwt>
</event>
<event>
 4    1  0.2552184E-008  0.2774749E+04  0.7816531E-02  0.8311151E-01
         -2   -1    0    0    0  501 -0.00000000000E+00  0.00000000000E+00  0.16374622343E+04  0.16374622343E+04  0.00000000000E+00 0.  1.
          2   -1    0    0  501    0  0.00000000000E+00 -0.00000000000E+00 -0.11754821178E+04  0.11754821178E+04  0.00000000000E+00 0. -1.
    2000013    1    1    2    0    0 -0.99514778513E+03  0.49131666867E+02  0.40532983467E+03  0.14351046338E+04  0.95000000000E+03 0.  0.
   -2000013    1    1    2    0    0  0.99514778513E+03 -0.49131666867E+02  0.56650281777E+02  0.13778397183E+04  0.95000000000E+03 0.  0.
<mgrwt>
<rscale>  0 0.27747487E+04</rscale>
<asrwt>0</asrwt>
<pdfrwt beam="2">  1        2 0.18084340E+00 0.27747487E+04</pdfrwt>
<pdfrwt beam="1">  1       -2 0.25191727E+00 0.27747487E+04</pdfrwt>
<totfact> 0.10684794E+00</totfact>
</mgrwt>
</event>
<event>
 4    1  0.2552184E-008  0.2449998E+04  0.7816531E-02  0.8421019E-01
          2   -1    0    0  501    0  0.00000000000E+00  0.00000000000E+00  0.12067469301E+04  0.12067469301E+04  0.00000000000E+00 0.  1.
         -2   -1    0    0    0  501 -0.00000000000E+00 -0.00000000000E+00 -0.12435276137E+04  0.12435276137E+04  0.00000000000E+00 0. -1.
    2000013    1    1    2    0    0  0.73829899003E+03 -0.42846051984E+02  0.20791362880E+03  0.12217402588E+04  0.95000000000E+03 0.  0.
   -2000013    1    1    2    0    0 -0.73829899003E+03  0.42846051984E+02 -0.24469431245E+03  0.12285342850E+04  0.95000000000E+03 0.  0.
<mgrwt>
<rscale>  0 0.24499985E+04</rscale>
<asrwt>0</asrwt>
<pdfrwt beam="1">  1        2 0.18565337E+00 0.24499985E+04</pdfrwt>
<pdfrwt beam="2">  1       -2 0.19131194E+00 0.24499985E+04</pdfrwt>
<totfact> 0.25526195E+00</totfact>
</mgrwt>
</event>
<event>
 4    1  0.2552184E-008  0.2274533E+04  0.7816531E-02  0.8488031E-01
          2   -1    0    0  501    0  0.00000000000E+00  0.00000000000E+00  0.10630639291E+04  0.10630639291E+04  0.00000000000E+00 0.  1.
         -2   -1    0    0    0  501 -0.00000000000E+00 -0.00000000000E+00 -0.12166481478E+04  0.12166481478E+04  0.00000000000E+00 0. -1.
    2000013    1    1    2    0    0  0.38036479828E+03  0.48052208327E+03 -0.20075036185E+03  0.11482071068E+04  0.95000000000E+03 0.  0.
   -2000013    1    1    2    0    0 -0.38036479828E+03 -0.48052208327E+03  0.47166143119E+02  0.11315049701E+04  0.95000000000E+03 0.  0.
<mgrwt>
<rscale>  0 0.22745327E+04</rscale>
<asrwt>0</asrwt>
<pdfrwt beam="1">  1        2 0.16354830E+00 0.22745327E+04</pdfrwt>
<pdfrwt beam="2">  1       -2 0.18717664E+00 0.22745327E+04</pdfrwt>
<totfact> 0.33790561E+00</totfact>
</mgrwt>
</event>
<event>
 4    1  0.2552184E-008  0.3749324E+04  0.7816531E-02  0.8057118E-01
         -2   -1    0    0    0  501 -0.00000000000E+00  0.00000000000E+00  0.11019542231E+04  0.11019542231E+04  0.00000000000E+00 0. -1.
          2   -1    0    0  501    0  0.00000000000E+00 -0.00000000000E+00 -0.31892046444E+04  0.31892046444E+04  0.00000000000E+00 0.  1.
    2000013    1    1    2    0    0  0.14912520567E+04  0.48696341672E+03 -0.14882093424E+04  0.23618283411E+04  0.95000000000E+03 0.  0.
   -2000013    1    1    2    0    0 -0.14912520567E+04 -0.48696341672E+03 -0.59904107893E+03  0.19293305264E+04  0.95000000000E+03 0.  0.
<mgrwt>
<rscale>  0 0.37493240E+04</rscale>
<asrwt>0</asrwt>
<pdfrwt beam="2">  1        2 0.49064686E+00 0.37493240E+04</pdfrwt>
<pdfrwt beam="1">  1       -2 0.16953142E+00 0.37493240E+04</pdfrwt>
<totfact> 0.22768011E-01</totfact>
</mgrwt>
</event>
<event>
 4    1  0.2552184E-008  0.2214287E+04  0.7816531E-02  0.8512505E-01
         -2   -1    0    0    0  501 -0.00000000000E+00  0.00000000000E+00  0.76285272420E+03  0.76285272420E+03  0.00000000000E+00 0. -1.
          2   -1    0    0  501    0  0.00000000000E+00 -0.00000000000E+00 -0.16068199850E+04  0.16068199850E+04  0.00000000000E+00 0.  1.
    2000013    1    1    2    0    0  0.21812359405E+03 -0.49964607651E+03 -0.59468630766E+03  0.12463450199E+04  0.95000000000E+03 0.  0.
   -2000013    1    1    2    0    0 -0.21812359405E+03  0.49964607651E+03 -0.24928095317E+03  0.11233276894E+04  0.95000000000E+03 0.  0.
<mgrwt>
<rscale>  0 0.22142872E+04</rscale>
<asrwt>0</asrwt>
<pdfrwt beam="2">  1        2 0.24720307E+00 0.22142872E+04</pdfrwt>
<pdfrwt beam="1">  1       -2 0.11736196E+00 0.22142872E+04</pdfrwt>
<totfact> 0.56626257E+00</totfact>
</mgrwt>
</event>
<event>
 4    1  0.2552184E-008  0.2844293E+04  0.7816531E-02  0.8289648E-01
          2   -1    0    0  501    0  0.00000000000E+00  0.00000000000E+00  0.81465258178E+03  0.81465258178E+03  0.00000000000E+00 0.  1.
         -2   -1    0    0    0  501 -0.00000000000E+00 -0.00000000000E+00 -0.24826544630E+04  0.24826544630E+04  0.00000000000E+00 0. -1.
    2000013    1    1    2    0    0 -0.10005382304E+04 -0.38582747389E+02 -0.12312699770E+04  0.18496191865E+04  0.95000000000E+03 0.  0.
   -2000013    1    1    2    0    0  0.10005382304E+04  0.38582747389E+02 -0.43673190421E+03  0.14476878583E+04  0.95000000000E+03 0.  0.
<mgrwt>
<rscale>  0 0.28442931E+04</rscale>
<asrwt>0</asrwt>
<pdfrwt beam="1">  1        2 0.12533117E+00 0.28442931E+04</pdfrwt>
<pdfrwt beam="2">  1       -2 0.38194684E+00 0.28442931E+04</pdfrwt>
<totfact> 0.28342564E-01</totfact>
</mgrwt>
</event>
<event>
 4    1  0.2552184E-008  0.2667402E+04  0.7816531E-02  0.8345660E-01
         -2   -1    0    0    0  501 -0.00000000000E+00  0.00000000000E+00  0.13402239589E+04  0.13402239589E+04  0.00000000000E+00 0. -1.
          2   -1    0    0  501    0  0.00000000000E+00 -0.00000000000E+00 -0.13272094430E+04  0.13272094430E+04  0.00000000000E+00 0.  1.
    2000013    1    1    2    0    0  0.83514111888E+03 -0.39700014475E+03  0.15207028578E+03  0.13344269089E+04  0.95000000000E+03 0.  0.
   -2000013    1    1    2    0    0 -0.83514111888E+03  0.39700014475E+03 -0.13905576990E+03  0.13330064931E+04  0.95000000000E+03 0.  0.
<mgrwt>
<rscale>  0 0.26674017E+04</rscale>
<asrwt>0</asrwt>
<pdfrwt beam="2">  1        2 0.20418607E+00 0.26674017E+04</pdfrwt>
<pdfrwt beam="1">  1       -2 0.20618830E+00 0.26674017E+04</pdfrwt>
<totfact> 0.16992526E+00</totfact>
</mgrwt>
</event>
<event>
 4    1  0.2552184E-008  0.2607574E+04  0.7816531E-02  0.8365633E-01
          2   -1    0    0  501    0  0.00000000000E+00  0.00000000000E+00  0.18530061878E+04  0.18530061878E+04  0.00000000000E+00 0.  1.
         -2   -1    0    0    0  501 -0.00000000000E+00 -0.00000000000E+00 -0.91735273953E+03  0.91735273953E+03  0.00000000000E+00 0. -1.
    2000013    1    1    2    0    0  0.36192721478E+03  0.81255046790E+03  0.55101374287E+03  0.14132748199E+04  0.95000000000E+03 0.  0.
   -2000013    1    1    2    0    0 -0.36192721478E+03 -0.81255046790E+03  0.38463970539E+03  0.13570841074E+04  0.95000000000E+03 0.  0.
<mgrwt>
<rscale>  0 0.26075738E+04</rscale>
<asrwt>0</asrwt>
<pdfrwt beam="1">  1        2 0.28507788E+00 0.26075738E+04</pdfrwt>
<pdfrwt beam="2">  1       -2 0.14113119E+00 0.26075738E+04</pdfrwt>
<totfact> 0.25073718E+00</totfact>
</mgrwt>
</event>
<event>
 4    1  0.2552184E-008  0.2375736E+04  0.7816531E-02  0.8448644E-01
          2   -1    0    0  501    0  0.00000000000E+00  0.00000000000E+00  0.16617515355E+04  0.16617515355E+04  0.00000000000E+00 0.  1.
         -2   -1    0    0    0  501 -0.00000000000E+00 -0.00000000000E+00 -0.84912243617E+03  0.84912243617E+03  0.00000000000E+00 0. -1.
    2000013    1    1    2    0    0 -0.11612010069E+02  0.71204597565E+03  0.44566411784E+03  0.12681722344E+04  0.95000000000E+03 0.  0.
   -2000013    1    1    2    0    0  0.11612010069E+02 -0.71204597565E+03  0.36696498153E+03  0.12427017373E+04  0.95000000000E+03 0.  0.
<mgrwt>
<rscale>  0 0.23757361E+04</rscale>
<asrwt>0</asrwt>
<pdfrwt beam="1">  1        2 0.25565408E+00 0.23757361E+04</pdfrwt>
<pdfrwt beam="2">  1       -2 0.13063422E+00 0.23757361E+04</pdfrwt>
<totfact> 0.39817437E+00</totfact>
</mgrwt>
</event>
<event>
 4    1  0.2552184E-008  0.2490577E+04  0.7816531E-02  0.8406350E-01
          2   -1    0    0  501    0  0.00000000000E+00  0.00000000000E+00  0.11972289401E+04  0.11972289401E+04  0.00000000000E+00 0.  1.
         -2   -1    0    0    0  501 -0.00000000000E+00 -0.00000000000E+00 -0.12952769681E+04  0.12952769681E+04  0.00000000000E+00 0. -1.
    2000013    1    1    2    0    0 -0.30472488674E+03 -0.74496764786E+03 -0.69263891236E+02  0.12470491328E+04  0.95000000000E+03 0.  0.
   -2000013    1    1    2    0    0  0.30472488674E+03  0.74496764786E+03 -0.28784136700E+02  0.12454567754E+04  0.95000000000E+03 0.  0.
<mgrwt>
<rscale>  0 0.24905767E+04</rscale>
<asrwt>0</asrwt>
<pdfrwt beam="1">  1        2 0.18418907E+00 0.24905767E+04</pdfrwt>
<pdfrwt beam="2">  1       -2 0.19927338E+00 0.24905767E+04</pdfrwt>
<totfact> 0.22820146E+00</totfact>
</mgrwt>
</event>
<event>
 4    1  0.2552184E-008  0.3091594E+04  0.7816531E-02  0.8218049E-01
          2   -1    0    0  501    0  0.00000000000E+00  0.00000000000E+00  0.26099248596E+04  0.26099248596E+04  0.00000000000E+00 0. -1.
         -2   -1    0    0    0  501 -0.00000000000E+00 -0.00000000000E+00 -0.91553908619E+03  0.91553908619E+03  0.00000000000E+00 0.  1.
    2000013    1    1    2    0    0  0.90008060704E+03 -0.70065252398E+03  0.35548452762E+03  0.15264102685E+04  0.95000000000E+03 0.  0.
   -2000013    1    1    2    0    0 -0.90008060704E+03  0.70065252398E+03  0.13389012458E+04  0.19990536772E+04  0.95000000000E+03 0.  0.
<mgrwt>
<rscale>  0 0.30915939E+04</rscale>
<asrwt>0</asrwt>
<pdfrwt beam="1">  1        2 0.40152690E+00 0.30915939E+04</pdfrwt>
<pdfrwt beam="2">  1       -2 0.14085217E+00 0.30915939E+04</pdfrwt>
<totfact> 0.90160044E-01</totfact>
</mgrwt>
</event>
<event>
 4    1  0.2552184E-008  0.3520590E+04  0.7816531E-02  0.8108928E-01
         -2   -1    0    0    0  501 -0.00000000000E+00  0.00000000000E+00  0.14863405633E+04  0.14863405633E+04  0.00000000000E+00 0. -1.
          2   -1    0    0  501    0  0.00000000000E+00 -0.00000000000E+00 -0.20847436505E+04  0.20847436505E+04  0.00000000000E+00 0.  1.
    2000013    1    1    2    0    0  0.92993654537E+03  0.11538356139E+04 -0.29461458672E+03  0.17847734750E+04  0.95000000000E+03 0.  0.
   -2000013    1    1    2    0    0 -0.92993654537E+03 -0.11538356139E+04 -0.30378850046E+03  0.17863107388E+04  0.95000000000E+03 0.  0.
<mgrwt>
<rscale>  0 0.35205903E+04</rscale>
<asrwt>0</asrwt>
<pdfrwt beam="2">  1        2 0.32072979E+00 0.35205903E+04</pdfrwt>
<pdfrwt beam="1">  1       -2 0.22866778E+00 0.35205903E+04</pdfrwt>
<totfact> 0.42847716E-01</totfact>
</mgrwt>
</event>
<event>
 4    1  0.2552184E-008  0.3474727E+04  0.7816531E-02  0.8119805E-01
         -2   -1    0    0    0  501 -0.00000000000E+00  0.00000000000E+00  0.13328226880E+04  0.13328226880E+04  0.00000000000E+00 0. -1.
          2   -1    0    0  501    0  0.00000000000E+00 -0.00000000000E+00 -0.22646918991E+04  0.22646918991E+04  0.00000000000E+00 0.  1.
    2000013    1    1    2    0    0  0.18520520295E+03  0.14119737017E+04 -0.15887020472E+03  0.17192179744E+04  0.95000000000E+03 0.  0.
   -2000013    1    1    2    0    0 -0.18520520295E+03 -0.14119737017E+04 -0.77299900637E+03  0.18782966127E+04  0.95000000000E+03 0.  0.
<mgrwt>
<rscale>  0 0.34747275E+04</rscale>
<asrwt>0</asrwt>
<pdfrwt beam="2">  1        2 0.34841414E+00 0.34747275E+04</pdfrwt>
<pdfrwt beam="1">  1       -2 0.20504964E+00 0.34747275E+04</pdfrwt>
<totfact> 0.48186667E-01</totfact>
</mgrwt>
</event>
<event>
 4    1  0.2552184E-008  0.2412906E+04  0.7816531E-02  0.8434687E-01
          2   -1    0    0  501    0  0.00000000000E+00  0.00000000000E+00  0.23680826117E+04  0.23680826117E+04  0.00000000000E+00 0.  1.
         -2   -1    0    0    0  501 -0.00000000000E+00 -0.00000000000E+00 -0.61464470405E+03  0.61464470405E+03  0.00000000000E+00 0. -1.
    2000013    1    1    2    0    0  0.41920726133E+02  0.64540798645E+03  0.13304412230E+04  0.17580906302E+04  0.95000000000E+03 0.  0.
   -2000013    1    1    2    0    0 -0.41920726133E+02 -0.64540798645E+03  0.42299668464E+03  0.12246366855E+04  0.95000000000E+03 0.  0.
<mgrwt>
<rscale>  0 0.24129065E+04</rscale>
<asrwt>0</asrwt>
<pdfrwt beam="1">  1        2 0.36432040E+00 0.24129065E+04</pdfrwt>
<pdfrwt beam="2">  1       -2 0.94560725E-01 0.24129065E+04</pdfrwt>
<totfact> 0.35086212E+00</totfact>
</mgrwt>
</event>
<event>
 4    1  0.2552184E-008  0.2188452E+04  0.7816531E-02  0.8523250E-01
         -2   -1    0    0    0  501 -0.00000000000E+00  0.00000000000E+00  0.20704714147E+04  0.20704714147E+04  0.00000000000E+00 0. -1.
          2   -1    0    0  501    0  0.00000000000E+00 -0.00000000000E+00 -0.57828878793E+03  0.57828878793E+03  0.00000000000E+00 0.  1.
    2000013    1    1    2    0    0  0.34093750924E+03 -0.40956333975E+03  0.87216321857E+03  0.13954028789E+04  0.95000000000E+03 0.  0.
   -2000013    1    1    2    0    0 -0.34093750924E+03  0.40956333975E+03  0.62001940817E+03  0.12533573237E+04  0.95000000000E+03 0.  0.
<mgrwt>
<rscale>  0 0.21884519E+04</rscale>
<asrwt>0</asrwt>
<pdfrwt beam="2">  1        2 0.88967507E-01 0.21884519E+04</pdfrwt>
<pdfrwt beam="1">  1       -2 0.31853406E+00 0.21884519E+04</pdfrwt>
<totfact> 0.11609108E+00</totfact>
</mgrwt>
</event>
<event>
 4    1  0.2552184E-008  0.3052986E+04  0.7816531E-02  0.8228760E-01
          2   -1    0    0  501    0  0.00000000000E+00  0.00000000000E+00  0.32381832687E+04  0.32381832687E+04  0.00000000000E+00 0.  1.
         -2   -1    0    0    0  501 -0.00000000000E+00 -0.00000000000E+00 -0.71959511425E+03  0.71959511425E+03  0.00000000000E+00 0. -1.
    2000013    1    1    2    0    0 -0.84565876547E+03 -0.25793015106E+03  0.23012459897E+04  0.26419500024E+04  0.95000000000E+03 0.  0.
   -2000013    1    1    2    0    0  0.84565876547E+03  0.25793015106E+03  0.21734216482E+03  0.13158283805E+04  0.95000000000E+03 0.  0.
<mgrwt>
<rscale>  0 0.30529860E+04</rscale>
<asrwt>0</asrwt>
<pdfrwt beam="1">  1        2 0.49818203E+00 0.30529860E+04</pdfrwt>
<pdfrwt beam="2">  1       -2 0.11070694E+00 0.30529860E+04</pdfrwt>
<totfact> 0.67435340E-01</totfact>
</mgrwt>
</event>
<event>
 4    1  0.2552184E-008  0.2598331E+04  0.7816531E-02  0.8368768E-01
          2   -1    0    0  501    0  0.00000000000E+00  0.00000000000E+00  0.18229117642E+04  0.18229117642E+04  0.00000000000E+00 0.  1.
         -2   -1    0    0    0  501 -0.00000000000E+00 -0.00000000000E+00 -0.92589829028E+03  0.92589829028E+03  0.00000000000E+00 0. -1.
    2000013    1    1    2    0    0  0.32387474473E+03  0.79691913429E+03  0.22320356645E+03  0.13008823117E+04  0.95000000000E+03 0.  0.
   -2000013    1    1    2    0    0 -0.32387474473E+03 -0.79691913429E+03  0.67380990747E+03  0.14479277428E+04  0.95000000000E+03 0.  0.
<mgrwt>
<rscale>  0 0.25983309E+04</rscale>
<asrwt>0</asrwt>
<pdfrwt beam="1">  1        2 0.28044796E+00 0.25983309E+04</pdfrwt>
<pdfrwt beam="2">  1       -2 0.14244589E+00 0.25983309E+04</pdfrwt>
<totfact> 0.25453426E+00</totfact>
</mgrwt>
</event>
<event>
 4    1  0.2552184E-008  0.2062537E+04  0.7816531E-02  0.8577928E-01
          2   -1    0    0  501    0  0.00000000000E+00  0.00000000000E+00  0.72536234094E+03  0.72536234094E+03  0.00000000000E+00 0.  1.
         -2   -1    0    0    0  501 -0.00000000000E+00 -0.00000000000E+00 -0.14661837966E+04  0.14661837966E+04  0.00000000000E+00 0. -1.
    2000013    1    1    2    0    0 -0.36606962004E+03  0.15940321660E+03 -0.41288822025E+03  0.11101319897E+04  0.95000000000E+03 0.  0.
   -2000013    1    1    2    0    0  0.36606962004E+03 -0.15940321660E+03 -0.32793323538E+03  0.10814141478E+04  0.95000000000E+03 0.  0.
<mgrwt>
<rscale>  0 0.20625368E+04</rscale>
<asrwt>0</asrwt>
<pdfrwt beam="1">  1        2 0.11159421E+00 0.20625368E+04</pdfrwt>
<pdfrwt beam="2">  1       -2 0.22556674E+00 0.20625368E+04</pdfrwt>
<totfact> 0.32974974E+00</totfact>
</mgrwt>
</event>
<event>
 4    1  0.2552184E-008  0.2352375E+04  0.7816531E-02  0.8457552E-01
         -2   -1    0    0    0  501 -0.00000000000E+00  0.00000000000E+00  0.18094140041E+04  0.18094140041E+04  0.00000000000E+00 0. -1.
          2   -1    0    0  501    0  0.00000000000E+00 -0.00000000000E+00 -0.76456619378E+03  0.76456619378E+03  0.00000000000E+00 0.  1.
    2000013    1    1    2    0    0  0.42552372043E+03 -0.39898640489E+03  0.11205153603E+03  0.11204089140E+04  0.95000000000E+03 0.  0.
   -2000013    1    1    2    0    0 -0.42552372043E+03  0.39898640489E+03  0.93279627432E+03  0.14535712839E+04  0.95000000000E+03 0.  0.
<mgrwt>
<rscale>  0 0.23523748E+04</rscale>
<asrwt>0</asrwt>
<pdfrwt beam="2">  1        2 0.11762557E+00 0.23523748E+04</pdfrwt>
<pdfrwt beam="1">  1       -2 0.27837139E+00 0.23523748E+04</pdfrwt>
<totfact> 0.14225832E+00</totfact>
</mgrwt>
</event>
<event>
 4    1  0.2552184E-008  0.2295156E+04  0.7816531E-02  0.8479833E-01
          2   -1    0    0  501    0  0.00000000000E+00  0.00000000000E+00  0.50605599839E+03  0.50605599839E+03  0.00000000000E+00 0.  1.
         -2   -1    0    0    0  501 -0.00000000000E+00 -0.00000000000E+00 -0.26023518520E+04  0.26023518520E+04  0.00000000000E+00 0. -1.
    2000013    1    1    2    0    0 -0.31490696203E+03 -0.29722538580E+03 -0.16933091481E+04  0.19892976639E+04  0.95000000000E+03 0.  0.
   -2000013    1    1    2    0    0  0.31490696203E+03  0.29722538580E+03 -0.40298670558E+03  0.11191101865E+04  0.95000000000E+03 0.  0.
<mgrwt>
<rscale>  0 0.22951564E+04</rscale>
<asrwt>0</asrwt>
<pdfrwt beam="1">  1        2 0.77854769E-01 0.22951564E+04</pdfrwt>
<pdfrwt beam="2">  1       -2 0.40036183E+00 0.22951564E+04</pdfrwt>
<totfact> 0.40700109E-01</totfact>
</mgrwt>
</event>
<event>
 4    1  0.2552184E-008  0.2450986E+04  0.7816531E-02  0.8420658E-01
         -2   -1    0    0    0  501 -0.00000000000E+00  0.00000000000E+00  0.65330440482E+03  0.65330440482E+03  0.00000000000E+00 0. -1.
          2   -1    0    0  501    0  0.00000000000E+00 -0.00000000000E+00 -0.22988264436E+04  0.22988264436E+04  0.00000000000E+00 0.  1.
    2000013    1    1    2    0    0  0.25627274141E+03  0.64767094862E+03 -0.12297567623E+04  0.17029254447E+04  0.95000000000E+03 0.  0.
   -2000013    1    1    2    0    0 -0.25627274141E+03 -0.64767094862E+03 -0.41576527650E+03  0.12492054038E+04  0.95000000000E+03 0.  0.
<mgrwt>
<rscale>  0 0.24509863E+04</rscale>
<asrwt>0</asrwt>
<pdfrwt beam="2">  1        2 0.35366561E+00 0.24509863E+04</pdfrwt>
<pdfrwt beam="1">  1       -2 0.10050837E+00 0.24509863E+04</pdfrwt>
<totfact> 0.33178025E+00</totfact>
</mgrwt>
</event>
<event>
 4    1  0.2552184E-008  0.2394361E+04  0.7816531E-02  0.8441618E-01
         -1   -1    0    0    0  501 -0.00000000000E+00  0.00000000000E+00  0.10133725528E+04  0.10133725528E+04  0.00000000000E+00 0. -1.
          1   -1    0    0  501    0  0.00000000000E+00 -0.00000000000E+00 -0.14143275038E+04  0.14143275038E+04  0.00000000000E+00 0.  1.
    2000013    1    1    2    0    0  0.58953410685E+02  0.56800426372E+03 -0.65914377804E+03  0.12896026009E+04  0.95000000000E+03 0.  0.
   -2000013    1    1    2    0    0 -0.58953410685E+02 -0.56800426372E+03  0.25818882696E+03  0.11380974557E+04  0.95000000000E+03 0.  0.
<mgrwt>
<rscale>  0 0.23943606E+04</rscale>
<asrwt>0</asrwt>
<pdfrwt beam="2">  1        1 0.21758885E+00 0.23943606E+04</pdfrwt>
<pdfrwt beam="1">  1       -1 0.15590347E+00 0.23943606E+04</pdfrwt>
<totfact> 0.21138523E+00</totfact>
</mgrwt>
</event>
<event>
 4    1  0.2552184E-008  0.1957391E+04  0.7816531E-02  0.8626805E-01
         -2   -1    0    0    0  501 -0.00000000000E+00  0.00000000000E+00  0.66318115312E+03  0.66318115312E+03  0.00000000000E+00 0. -1.
          2   -1    0    0  501    0  0.00000000000E+00 -0.00000000000E+00 -0.14443185057E+04  0.14443185057E+04  0.00000000000E+00 0.  1.
    2000013    1    1    2    0    0 -0.15103240482E+03  0.16221909334E+03 -0.30566042639E+03  0.10222788846E+04  0.95000000000E+03 0.  0.
   -2000013    1    1    2    0    0  0.15103240482E+03 -0.16221909334E+03 -0.47547692618E+03  0.10852207743E+04  0.95000000000E+03 0.  0.
<mgrwt>
<rscale>  0 0.19573909E+04</rscale>
<asrwt>0</asrwt>
<pdfrwt beam="2">  1        2 0.22220285E+00 0.19573909E+04</pdfrwt>
<pdfrwt beam="1">  1       -2 0.10202787E+00 0.19573909E+04</pdfrwt>
<totfact> 0.10022628E+01</totfact>
</mgrwt>
</event>
<event>
 4    1  0.2552184E-008  0.2518084E+04  0.7816531E-02  0.8396571E-01
         -2   -1    0    0    0  501 -0.00000000000E+00  0.00000000000E+00  0.10624498281E+04  0.10624498281E+04  0.00000000000E+00 0. -1.
          2   -1    0    0  501    0  0.00000000000E+00 -0.00000000000E+00 -0.14920114490E+04  0.14920114490E+04  0.00000000000E+00 0.  1.
    2000013    1    1    2    0    0  0.67803557987E+03 -0.46029641145E+03 -0.32157397810E+03  0.12951891203E+04  0.95000000000E+03 0.  0.
   -2000013    1    1    2    0    0 -0.67803557987E+03  0.46029641145E+03 -0.10798764275E+03  0.12592721568E+04  0.95000000000E+03 0.  0.
<mgrwt>
<rscale>  0 0.25180844E+04</rscale>
<asrwt>0</asrwt>
<pdfrwt beam="2">  1        2 0.22954022E+00 0.25180844E+04</pdfrwt>
<pdfrwt beam="1">  1       -2 0.16345382E+00 0.25180844E+04</pdfrwt>
<totfact> 0.27143932E+00</totfact>
</mgrwt>
</event>
<event>
 4    1  0.2552184E-008  0.3879440E+04  0.7816531E-02  0.8029319E-01
          1   -1    0    0  501    0  0.00000000000E+00  0.00000000000E+00  0.32547649900E+04  0.32547649900E+04  0.00000000000E+00 0.  1.
         -1   -1    0    0    0  501 -0.00000000000E+00 -0.00000000000E+00 -0.11560018772E+04  0.11560018772E+04  0.00000000000E+00 0. -1.
    2000013    1    1    2    0    0 -0.46294663272E+03 -0.16258715303E+04  0.11031516980E+04  0.22309687328E+04  0.95000000000E+03 0.  0.
   -2000013    1    1    2    0    0  0.46294663272E+03  0.16258715303E+04  0.99561141473E+03  0.21797981345E+04  0.95000000000E+03 0.  0.
<mgrwt>
<rscale>  0 0.38794404E+04</rscale>
<asrwt>0</asrwt>
<pdfrwt beam="1">  1        1 0.50073307E+00 0.38794404E+04</pdfrwt>
<pdfrwt beam="2">  1       -1 0.17784644E+00 0.38794404E+04</pdfrwt>
<totfact> 0.65827745E-02</totfact>
</mgrwt>
</event>
<event>
 4    1  0.2552184E-008  0.2876894E+04  0.7816531E-02  0.8279786E-01
          2   -1    0    0  501    0  0.00000000000E+00  0.00000000000E+00  0.10009206634E+04  0.10009206634E+04  0.00000000000E+00 0.  1.
         -2   -1    0    0    0  501 -0.00000000000E+00 -0.00000000000E+00 -0.20672260112E+04  0.20672260112E+04  0.00000000000E+00 0. -1.
    2000013    1    1    2    0    0 -0.70333972029E+03 -0.78112024148E+03 -0.79826150304E+03  0.16262094026E+04  0.95000000000E+03 0.  0.
   -2000013    1    1    2    0    0  0.70333972029E+03  0.78112024148E+03 -0.26804384481E+03  0.14419372720E+04  0.95000000000E+03 0.  0.
<mgrwt>
<rscale>  0 0.28768936E+04</rscale>
<asrwt>0</asrwt>
<pdfrwt beam="1">  1        2 0.15398780E+00 0.28768936E+04</pdfrwt>
<pdfrwt beam="2">  1       -2 0.31803477E+00 0.28768936E+04</pdfrwt>
<totfact> 0.53553236E-01</totfact>
</mgrwt>
</event>
<event>
 4    1  0.2552184E-008  0.2725227E+04  0.7816531E-02  0.8326866E-01
         -2   -1    0    0    0  501 -0.00000000000E+00  0.00000000000E+00  0.15328963789E+04  0.15328963789E+04  0.00000000000E+00 0. -1.
          2   -1    0    0  501    0  0.00000000000E+00 -0.00000000000E+00 -0.12112463633E+04  0.12112463633E+04  0.00000000000E+00 0.  1.
    2000013    1    1    2    0    0 -0.31738669587E+02  0.96706893155E+03  0.29586591672E+03  0.13878999612E+04  0.95000000000E+03 0.  0.
   -2000013    1    1    2    0    0  0.31738669587E+02 -0.96706893155E+03  0.25784098857E+02  0.13562427811E+04  0.95000000000E+03 0.  0.
<mgrwt>
<rscale>  0 0.27252267E+04</rscale>
<asrwt>0</asrwt>
<pdfrwt beam="2">  1        2 0.18634559E+00 0.27252267E+04</pdfrwt>
<pdfrwt beam="1">  1       -2 0.23583021E+00 0.27252267E+04</pdfrwt>
<totfact> 0.12837654E+00</totfact>
</mgrwt>
</event>
<event>
 4    1  0.2552184E-008  0.3256348E+04  0.7816531E-02  0.8174092E-01
         -2   -1    0    0    0  501 -0.00000000000E+00  0.00000000000E+00  0.10039776840E+04  0.10039776840E+04  0.00000000000E+00 0. -1.
          2   -1    0    0  501    0  0.00000000000E+00 -0.00000000000E+00 -0.26404473723E+04  0.26404473723E+04  0.00000000000E+00 0.  1.
    2000013    1    1    2    0    0 -0.65909873461E+03  0.98189397111E+03 -0.15619414782E+03  0.15249339410E+04  0.95000000000E+03 0.  0.
   -2000013    1    1    2    0    0  0.65909873461E+03 -0.98189397111E+03 -0.14802755405E+04  0.21194911154E+04  0.95000000000E+03 0.  0.
<mgrwt>
<rscale>  0 0.32563478E+04</rscale>
<asrwt>0</asrwt>
<pdfrwt beam="2">  1        2 0.40622267E+00 0.32563478E+04</pdfrwt>
<pdfrwt beam="1">  1       -2 0.15445811E+00 0.32563478E+04</pdfrwt>
<totfact> 0.66889429E-01</totfact>
</mgrwt>
</event>
<event>
 4    1  0.2552184E-008  0.3757336E+04  0.7816531E-02  0.8055373E-01
          2   -1    0    0  501    0  0.00000000000E+00  0.00000000000E+00  0.25204298913E+04  0.25204298913E+04  0.00000000000E+00 0.  1.
         -2   -1    0    0    0  501 -0.00000000000E+00 -0.00000000000E+00 -0.14003138998E+04  0.14003138998E+04  0.00000000000E+00 0. -1.
    2000013    1    1    2    0    0 -0.33597559290E+03  0.13899137943E+04  0.13562302663E+04  0.21878300871E+04  0.95000000000E+03 0.  0.
   -2000013    1    1    2    0    0  0.33597559290E+03 -0.13899137943E+04 -0.23611427486E+03  0.17329137040E+04  0.95000000000E+03 0.  0.
<mgrwt>
<rscale>  0 0.37573358E+04</rscale>
<asrwt>0</asrwt>
<pdfrwt beam="1">  1        2 0.38775844E+00 0.37573358E+04</pdfrwt>
<pdfrwt beam="2">  1       -2 0.21543291E+00 0.37573358E+04</pdfrwt>
<totfact> 0.28799804E-01</totfact>
</mgrwt>
</event>
<event>
 4    1  0.2552184E-008  0.2154599E+04  0.7816531E-02  0.8537566E-01
         -2   -1    0    0    0  501 -0.00000000000E+00  0.00000000000E+00  0.57819016029E+03  0.57819016029E+03  0.00000000000E+00 0. -1.
          2   -1    0    0  501    0  0.00000000000E+00 -0.00000000000E+00 -0.20072536528E+04  0.20072536528E+04  0.00000000000E+00 0.  1.
    2000013    1    1    2    0    0 -0.47437124642E+03 -0.54711117012E+02 -0.50650843301E+03  0.11777402848E+04  0.95000000000E+03 0.  0.
   -2000013    1    1    2    0    0  0.47437124642E+03  0.54711117012E+02 -0.92255505952E+03  0.14077035283E+04  0.95000000000E+03 0.  0.
<mgrwt>
<rscale>  0 0.21545991E+04</rscale>
<asrwt>0</asrwt>
<pdfrwt beam="2">  1        2 0.30880825E+00 0.21545991E+04</pdfrwt>
<pdfrwt beam="1">  1       -2 0.88952332E-01 0.21545991E+04</pdfrwt>
<totfact> 0.65930339E+00</totfact>
</mgrwt>
</event>
<event>
 4    1  0.2552184E-008  0.2459747E+04  0.7816531E-02  0.8417468E-01
          1   -1    0    0  501    0  0.00000000000E+00  0.00000000000E+00  0.22413875248E+04  0.22413875248E+04  0.00000000000E+00 0.  1.
         -1   -1    0    0    0  501 -0.00000000000E+00 -0.00000000000E+00 -0.67484459936E+03  0.67484459936E+03  0.00000000000E+00 0. -1.
    2000013    1    1    2    0    0 -0.71249279310E+02  0.67410252819E+03  0.12433592849E+04  0.17052662519E+04  0.95000000000E+03 0.  0.
   -2000013    1    1    2    0    0  0.71249279310E+02 -0.67410252819E+03  0.32318364049E+03  0.12109658723E+04  0.95000000000E+03 0.  0.
<mgrwt>
<rscale>  0 0.24597465E+04</rscale>
<asrwt>0</asrwt>
<pdfrwt beam="1">  1        1 0.34482885E+00 0.24597465E+04</pdfrwt>
<pdfrwt beam="2">  1       -1 0.10382225E+00 0.24597465E+04</pdfrwt>
<totfact> 0.15901089E+00</totfact>
</mgrwt>
</event>
<event>
 4    1  0.2552184E-008  0.2627056E+04  0.7816531E-02  0.8359069E-01
          2   -1    0    0  501    0  0.00000000000E+00  0.00000000000E+00  0.21367803355E+04  0.21367803355E+04  0.00000000000E+00 0.  1.
         -2   -1    0    0    0  501 -0.00000000000E+00 -0.00000000000E+00 -0.80745577448E+03  0.80745577448E+03  0.00000000000E+00 0. -1.
    2000013    1    1    2    0    0 -0.78865922257E+03  0.25568055644E+03  0.25211616555E+03  0.12858532098E+04  0.95000000000E+03 0.  0.
   -2000013    1    1    2    0    0  0.78865922257E+03 -0.25568055644E+03  0.10772083955E+04  0.16583829002E+04  0.95000000000E+03 0.  0.
<mgrwt>
<rscale>  0 0.26270559E+04</rscale>
<asrwt>0</asrwt>
<pdfrwt beam="1">  1        2 0.32873543E+00 0.26270559E+04</pdfrwt>
<pdfrwt beam="2">  1       -2 0.12422397E+00 0.26270559E+04</pdfrwt>
<totfact> 0.24086713E+00</totfact>
</mgrwt>
</event>
<event>
 4    1  0.2552184E-008  0.2666888E+04  0.7816531E-02  0.8345829E-01
          2   -1    0    0  501    0  0.00000000000E+00  0.00000000000E+00  0.14855847321E+04  0.14855847321E+04  0.00000000000E+00 0.  1.
         -2   -1    0    0    0  501 -0.00000000000E+00 -0.00000000000E+00 -0.11968843008E+04  0.11968843008E+04  0.00000000000E+00 0. -1.
    2000013    1    1    2    0    0 -0.68327572864E+03 -0.25470299985E+03 -0.44544893842E+03  0.12777574481E+04  0.95000000000E+03 0.  0.
   -2000013    1    1    2    0    0  0.68327572864E+03  0.25470299985E+03  0.73414936967E+03  0.14047115848E+04  0.95000000000E+03 0.  0.
<mgrwt>
<rscale>  0 0.26668881E+04</rscale>
<asrwt>0</asrwt>
<pdfrwt beam="1">  1        2 0.22855150E+00 0.26668881E+04</pdfrwt>
<pdfrwt beam="2">  1       -2 0.18413605E+00 0.26668881E+04</pdfrwt>
<totfact> 0.19327496E+00</totfact>
</mgrwt>
</event>
<event>
 4    1  0.2552184E-008  0.2318402E+04  0.7816531E-02  0.8470701E-01
         -2   -1    0    0    0  501 -0.00000000000E+00  0.00000000000E+00  0.17827279252E+04  0.17827279252E+04  0.00000000000E+00 0. -1.
          2   -1    0    0  501    0  0.00000000000E+00 -0.00000000000E+00 -0.75375885835E+03  0.75375885835E+03  0.00000000000E+00 0.  1.
    2000013    1    1    2    0    0 -0.46434869256E+03  0.47376483421E+03  0.47699555052E+03  0.12530353473E+04  0.95000000000E+03 0.  0.
   -2000013    1    1    2    0    0  0.46434869256E+03 -0.47376483421E+03  0.55197351634E+03  0.12834514362E+04  0.95000000000E+03 0.  0.
<mgrwt>
<rscale>  0 0.23184020E+04</rscale>
<asrwt>0</asrwt>
<pdfrwt beam="2">  1        2 0.11596290E+00 0.23184020E+04</pdfrwt>
<pdfrwt beam="1">  1       -2 0.27426583E+00 0.23184020E+04</pdfrwt>
<totfact> 0.15395510E+00</totfact>
</mgrwt>
</event>
<event>
 4    1  0.2552184E-008  0.2590757E+04  0.7816531E-02  0.8371348E-01
         -2   -1    0    0    0  501 -0.00000000000E+00  0.00000000000E+00  0.16343782075E+04  0.16343782075E+04  0.00000000000E+00 0. -1.
          2   -1    0    0  501    0  0.00000000000E+00 -0.00000000000E+00 -0.10266932780E+04  0.10266932780E+04  0.00000000000E+00 0.  1.
    2000013    1    1    2    0    0  0.64276751424E+03 -0.59473151762E+03  0.20831582522E+03  0.13087211844E+04  0.95000000000E+03 0.  0.
   -2000013    1    1    2    0    0 -0.64276751424E+03  0.59473151762E+03  0.39936910426E+03  0.13523503011E+04  0.95000000000E+03 0.  0.
<mgrwt>
<rscale>  0 0.25907567E+04</rscale>
<asrwt>0</asrwt>
<pdfrwt beam="2">  1        2 0.15795281E+00 0.25907567E+04</pdfrwt>
<pdfrwt beam="1">  1       -2 0.25144280E+00 0.25907567E+04</pdfrwt>
<totfact> 0.13496436E+00</totfact>
</mgrwt>
</event>
<event>
 4    1  0.2552184E-008  0.2493467E+04  0.7816531E-02  0.8405317E-01
          2   -1    0    0  501    0  0.00000000000E+00  0.00000000000E+00  0.62524306263E+03  0.62524306263E+03  0.00000000000E+00 0.  1.
         -2   -1    0    0    0  501 -0.00000000000E+00 -0.00000000000E+00 -0.24859845890E+04  0.24859845890E+04  0.00000000000E+00 0. -1.
    2000013    1    1    2    0    0 -0.60737854679E+03  0.29820563999E+03 -0.38077999515E+03  0.12269183785E+04  0.95000000000E+03 0.  0.
   -2000013    1    1    2    0    0  0.60737854679E+03 -0.29820563999E+03 -0.14799615312E+04  0.18843092731E+04  0.95000000000E+03 0.  0.
<mgrwt>
<rscale>  0 0.24934672E+04</rscale>
<asrwt>0</asrwt>
<pdfrwt beam="1">  1        2 0.96191240E-01 0.24934672E+04</pdfrwt>
<pdfrwt beam="2">  1       -2 0.38245917E+00 0.24934672E+04</pdfrwt>
<totfact> 0.40647360E-01</totfact>
</mgrwt>
</event>
<event>
 4    1  0.2552184E-008  0.4242358E+04  0.7816531E-02  0.7957363E-01
          2   -1    0    0  501    0  0.00000000000E+00  0.00000000000E+00  0.31345742510E+04  0.31345742510E+04  0.00000000000E+00 0.  1.
         -2   -1    0    0    0  501 -0.00000000000E+00 -0.00000000000E+00 -0.14354101799E+04  0.14354101799E+04  0.00000000000E+00 0. -1.
    2000013    1    1    2    0    0 -0.13332727824E+04 -0.32524386854E+03 -0.56051654407E+03  0.17607040303E+04  0.95000000000E+03 0.  0.
   -2000013    1    1    2    0    0  0.13332727824E+04  0.32524386854E+03  0.22596806151E+04  0.28092804005E+04  0.95000000000E+03 0.  0.
<mgrwt>
<rscale>  0 0.42423577E+04</rscale>
<asrwt>0</asrwt>
<pdfrwt beam="1">  1        2 0.48224219E+00 0.42423577E+04</pdfrwt>
<pdfrwt beam="2">  1       -2 0.22083234E+00 0.42423577E+04</pdfrwt>
<totfact> 0.10791951E-01</totfact>
</mgrwt>
</event>
<event>
 4    1  0.2552184E-008  0.3977432E+04  0.7816531E-02  0.8009115E-01
          2   -1    0    0  501    0  0.00000000000E+00  0.00000000000E+00  0.26529311847E+04  0.26529311847E+04  0.00000000000E+00 0.  1.
         -2   -1    0    0    0  501 -0.00000000000E+00 -0.00000000000E+00 -0.14908002555E+04  0.14908002555E+04  0.00000000000E+00 0. -1.
    2000013    1    1    2    0    0  0.11486307984E+04  0.68531562705E+03 -0.58997827099E+03  0.17434404435E+04  0.95000000000E+03 0.  0.
   -2000013    1    1    2    0    0 -0.11486307984E+04 -0.68531562705E+03  0.17521092002E+04  0.24002909968E+04  0.95000000000E+03 0.  0.
<mgrwt>
<rscale>  0 0.39774316E+04</rscale>
<asrwt>0</asrwt>
<pdfrwt beam="1">  1        2 0.40814326E+00 0.39774316E+04</pdfrwt>
<pdfrwt beam="2">  1       -2 0.22935388E+00 0.39774316E+04</pdfrwt>
<totfact> 0.19314019E-01</totfact>
</mgrwt>
</event>
<event>
 4    1  0.2552184E-008  0.2509831E+04  0.7816531E-02  0.8399491E-01
          2   -1    0    0  501    0  0.00000000000E+00  0.00000000000E+00  0.20355945521E+04  0.20355945521E+04  0.00000000000E+00 0.  1.
         -2   -1    0    0    0  501 -0.00000000000E+00 -0.00000000000E+00 -0.77363804993E+03  0.77363804993E+03  0.00000000000E+00 0. -1.
    2000013    1    1    2    0    0  0.48452401773E+03 -0.64018611131E+03  0.81730452635E+03  0.14883173283E+04  0.95000000000E+03 0.  0.
   -2000013    1    1    2    0    0 -0.48452401773E+03  0.64018611131E+03  0.44465197584E+03  0.13209152738E+04  0.95000000000E+03 0.  0.
<mgrwt>
<rscale>  0 0.25098314E+04</rscale>
<asrwt>0</asrwt>
<pdfrwt beam="1">  1        2 0.31316839E+00 0.25098314E+04</pdfrwt>
<pdfrwt beam="2">  1       -2 0.11902124E+00 0.25098314E+04</pdfrwt>
<totfact> 0.30825762E+00</totfact>
</mgrwt>
</event>
<event>
 4    1  0.2552184E-008  0.3457210E+04  0.7816531E-02  0.8124006E-01
          4   -1    0    0  501    0  0.00000000000E+00  0.00000000000E+00  0.11376122824E+04  0.11376122824E+04  0.00000000000E+00 0.  1.
         -4   -1    0    0    0  501 -0.00000000000E+00 -0.00000000000E+00 -0.26266200414E+04  0.26266200414E+04  0.00000000000E+00 0. -1.
    2000013    1    1    2    0    0  0.11359896906E+03  0.13030293068E+04 -0.77939915518E+02  0.16184451584E+04  0.95000000000E+03 0.  0.
   -2000013    1    1    2    0    0 -0.11359896906E+03 -0.13030293068E+04 -0.14110678436E+04  0.21457871654E+04  0.95000000000E+03 0.  0.
<mgrwt>
<rscale>  0 0.34572100E+04</rscale>
<asrwt>0</asrwt>
<pdfrwt beam="1">  1        4 0.17501727E+00 0.34572100E+04</pdfrwt>
<pdfrwt beam="2">  1       -4 0.40409539E+00 0.34572100E+04</pdfrwt>
<totfact> 0.20206361E-03</totfact>
</mgrwt>
</event>
<event>
 4    1  0.2552184E-008  0.2480457E+04  0.7816531E-02  0.8409981E-01
          2   -1    0    0  501    0  0.00000000000E+00  0.00000000000E+00  0.35515489989E+04  0.35515489989E+04  0.00000000000E+00 0.  1.
         -2   -1    0    0    0  501 -0.00000000000E+00 -0.00000000000E+00 -0.43309738578E+03  0.43309738578E+03  0.00000000000E+00 0. -1.
    2000013    1    1    2    0    0  0.35824655324E+03  0.70849527524E+03  0.14416120069E+04  0.19002766447E+04  0.95000000000E+03 0.  0.
   -2000013    1    1    2    0    0 -0.35824655324E+03 -0.70849527524E+03  0.16768396063E+04  0.20843697400E+04  0.95000000000E+03 0.  0.
<mgrwt>
<rscale>  0 0.24804569E+04</rscale>
<asrwt>0</asrwt>
<pdfrwt beam="1">  1        2 0.54639214E+00 0.24804569E+04</pdfrwt>
<pdfrwt beam="2">  1       -2 0.66630369E-01 0.24804569E+04</pdfrwt>
<totfact> 0.13844836E+00</totfact>
</mgrwt>
</event>
<event>
 4    1  0.2552184E-008  0.2539283E+04  0.7816531E-02  0.8389123E-01
         -2   -1    0    0    0  501 -0.00000000000E+00  0.00000000000E+00  0.40790555944E+03  0.40790555944E+03  0.00000000000E+00 0. -1.
          2   -1    0    0  501    0  0.00000000000E+00 -0.00000000000E+00 -0.39518690573E+04  0.39518690573E+04  0.00000000000E+00 0.  1.
    2000013    1    1    2    0    0  0.83178461204E+03 -0.13271762263E+03 -0.17666205023E+04  0.21755292706E+04  0.95000000000E+03 0.  0.
   -2000013    1    1    2    0    0 -0.83178461204E+03  0.13271762263E+03 -0.17773429956E+04  0.21842453461E+04  0.95000000000E+03 0.  0.
<mgrwt>
<rscale>  0 0.25392829E+04</rscale>
<asrwt>0</asrwt>
<pdfrwt beam="2">  1        2 0.60797988E+00 0.25392829E+04</pdfrwt>
<pdfrwt beam="1">  1       -2 0.62754699E-01 0.25392829E+04</pdfrwt>
<totfact> 0.78491674E-01</totfact>
</mgrwt>
</event>
<event>
 4    1  0.2552184E-008  0.3257096E+04  0.7816531E-02  0.8173899E-01
          2   -1    0    0  501    0  0.00000000000E+00  0.00000000000E+00  0.17335306617E+04  0.17335306617E+04  0.00000000000E+00 0.  1.
         -2   -1    0    0    0  501 -0.00000000000E+00 -0.00000000000E+00 -0.15299233500E+04  0.15299233500E+04  0.00000000000E+00 0. -1.
    2000013    1    1    2    0    0 -0.69944112089E+03  0.90372023572E+03  0.76924272777E+03  0.16733686146E+04  0.95000000000E+03 0.  0.
   -2000013    1    1    2    0    0  0.69944112089E+03 -0.90372023572E+03 -0.56563541609E+03  0.15900853971E+04  0.95000000000E+03 0.  0.
<mgrwt>
<rscale>  0 0.32570963E+04</rscale>
<asrwt>0</asrwt>
<pdfrwt beam="1">  1        2 0.26669703E+00 0.32570963E+04</pdfrwt>
<pdfrwt beam="2">  1       -2 0.23537282E+00 0.32570963E+04</pdfrwt>
<totfact> 0.62319894E-01</totfact>
</mgrwt>
</event>
<event>
 4    1  0.2552184E-008  0.2644988E+04  0.7816531E-02  0.8353078E-01
          2   -1    0    0  501    0  0.00000000000E+00  0.00000000000E+00  0.14373743003E+04  0.14373743003E+04  0.00000000000E+00 0.  1.
         -2   -1    0    0    0  501 -0.00000000000E+00 -0.00000000000E+00 -0.12167952426E+04  0.12167952426E+04  0.00000000000E+00 0. -1.
    2000013    1    1    2    0    0  0.24408948599E+03  0.88699014691E+03  0.12294332413E+03  0.13281363856E+04  0.95000000000E+03 0.  0.
   -2000013    1    1    2    0    0 -0.24408948599E+03 -0.88699014691E+03  0.97635733592E+02  0.13260331573E+04  0.95000000000E+03 0.  0.
<mgrwt>
<rscale>  0 0.26449879E+04</rscale>
<asrwt>0</asrwt>
<pdfrwt beam="1">  1        2 0.22113451E+00 0.26449879E+04</pdfrwt>
<pdfrwt beam="2">  1       -2 0.18719927E+00 0.26449879E+04</pdfrwt>
<totfact> 0.19656787E+00</totfact>
</mgrwt>
</event>
<event>
 4    1  0.2552184E-008  0.2210037E+04  0.7816531E-02  0.8514262E-01
         -1   -1    0    0    0  501 -0.00000000000E+00  0.00000000000E+00  0.83663988205E+03  0.83663988205E+03  0.00000000000E+00 0. -1.
          1   -1    0    0  501    0  0.00000000000E+00 -0.00000000000E+00 -0.14594879240E+04  0.14594879240E+04  0.00000000000E+00 0.  1.
    2000013    1    1    2    0    0 -0.26871116803E+03  0.49320351544E+03 -0.25348048371E+03  0.11323461287E+04  0.95000000000E+03 0.  0.
   -2000013    1    1    2    0    0  0.26871116803E+03 -0.49320351544E+03 -0.36936755820E+03  0.11637816773E+04  0.95000000000E+03 0.  0.
<mgrwt>
<rscale>  0 0.22100369E+04</rscale>
<asrwt>0</asrwt>
<pdfrwt beam="2">  1        1 0.22453660E+00 0.22100369E+04</pdfrwt>
<pdfrwt beam="1">  1       -1 0.12871383E+00 0.22100369E+04</pdfrwt>
<totfact> 0.33067055E+00</totfact>
</mgrwt>
</event>
<event>
 4    1  0.2552184E-008  0.3494725E+04  0.7816531E-02  0.8115041E-01
          1   -1    0    0  501    0  0.00000000000E+00  0.00000000000E+00  0.27403478948E+04  0.27403478948E+04  0.00000000000E+00 0.  1.
         -1   -1    0    0    0  501 -0.00000000000E+00 -0.00000000000E+00 -0.11141927189E+04  0.11141927189E+04  0.00000000000E+00 0. -1.
    2000013    1    1    2    0    0 -0.30383262224E+03  0.14326167822E+04  0.89901339674E+03  0.19635249412E+04  0.95000000000E+03 0.  0.
   -2000013    1    1    2    0    0  0.30383262224E+03 -0.14326167822E+04  0.72714177915E+03  0.18910156726E+04  0.95000000000E+03 0.  0.
<mgrwt>
<rscale>  0 0.34947250E+04</rscale>
<asrwt>0</asrwt>
<pdfrwt beam="1">  1        1 0.42159198E+00 0.34947250E+04</pdfrwt>
<pdfrwt beam="2">  1       -1 0.17141427E+00 0.34947250E+04</pdfrwt>
<totfact> 0.18011720E-01</totfact>
</mgrwt>
</event>
<event>
 4    1  0.2552184E-008  0.2005484E+04  0.7816531E-02  0.8604061E-01
          2   -1    0    0  501    0  0.00000000000E+00  0.00000000000E+00  0.38452558022E+04  0.38452558022E+04  0.00000000000E+00 0.  1.
         -2   -1    0    0    0  501 -0.00000000000E+00 -0.00000000000E+00 -0.26148880098E+03  0.26148880098E+03  0.00000000000E+00 0. -1.
    2000013    1    1    2    0    0 -0.12793560173E+03 -0.27499192751E+03  0.20066858568E+04  0.22408204315E+04  0.95000000000E+03 0.  0.
   -2000013    1    1    2    0    0  0.12793560173E+03  0.27499192751E+03  0.15770811444E+04  0.18659241717E+04  0.95000000000E+03 0.  0.
<mgrwt>
<rscale>  0 0.20054838E+04</rscale>
<asrwt>0</asrwt>
<pdfrwt beam="1">  1        2 0.59157777E+00 0.20054838E+04</pdfrwt>
<pdfrwt beam="2">  1       -2 0.40229049E-01 0.20054838E+04</pdfrwt>
<totfact> 0.24843141E+00</totfact>
</mgrwt>
</event>
<event>
 4    1  0.2552184E-008  0.2193615E+04  0.7816531E-02  0.8521090E-01
          2   -1    0    0  501    0  0.00000000000E+00  0.00000000000E+00  0.43225492239E+03  0.43225492239E+03  0.00000000000E+00 0.  1.
         -2   -1    0    0    0  501 -0.00000000000E+00 -0.00000000000E+00 -0.27830487596E+04  0.27830487596E+04  0.00000000000E+00 0. -1.
    2000013    1    1    2    0    0 -0.26005912973E+02 -0.34915375158E+03 -0.55716434377E+03  0.11556456013E+04  0.95000000000E+03 0.  0.
   -2000013    1    1    2    0    0  0.26005912973E+02  0.34915375158E+03 -0.17936294935E+04  0.20596580808E+04  0.95000000000E+03 0.  0.
<mgrwt>
<rscale>  0 0.21936148E+04</rscale>
<asrwt>0</asrwt>
<pdfrwt beam="1">  1        2 0.66500754E-01 0.21936148E+04</pdfrwt>
<pdfrwt beam="2">  1       -2 0.42816137E+00 0.21936148E+04</pdfrwt>
<totfact> 0.32283982E-01</totfact>
</mgrwt>
</event>
<event>
 4    1  0.2552184E-008  0.3116315E+04  0.7816531E-02  0.8211275E-01
          2   -1    0    0  501    0  0.00000000000E+00  0.00000000000E+00  0.16781118806E+04  0.16781118806E+04  0.00000000000E+00 0.  1.
         -2   -1    0    0    0  501 -0.00000000000E+00 -0.00000000000E+00 -0.14467780978E+04  0.14467780978E+04  0.00000000000E+00 0. -1.
    2000013    1    1    2    0    0 -0.12092277227E+04 -0.69795797325E+02 -0.12635248510E+03  0.15445284359E+04  0.95000000000E+03 0.  0.
   -2000013    1    1    2    0    0  0.12092277227E+04  0.69795797325E+02  0.35768626793E+03  0.15803615425E+04  0.95000000000E+03 0.  0.
<mgrwt>
<rscale>  0 0.31163155E+04</rscale>
<asrwt>0</asrwt>
<pdfrwt beam="1">  1        2 0.25817106E+00 0.31163155E+04</pdfrwt>
<pdfrwt beam="2">  1       -2 0.22258125E+00 0.31163155E+04</pdfrwt>
<totfact> 0.81409044E-01</totfact>
</mgrwt>
</event>
<event>
 4    1  0.2552184E-008  0.2232511E+04  0.7816531E-02  0.8505017E-01
         -2   -1    0    0    0  501 -0.00000000000E+00  0.00000000000E+00  0.47115823584E+03  0.47115823584E+03  0.00000000000E+00 0. -1.
          2   -1    0    0  501    0  0.00000000000E+00 -0.00000000000E+00 -0.26446021564E+04  0.26446021564E+04  0.00000000000E+00 0.  1.
    2000013    1    1    2    0    0  0.21040328782E+03 -0.36471295655E+03 -0.16557577254E+04  0.19548193598E+04  0.95000000000E+03 0.  0.
   -2000013    1    1    2    0    0 -0.21040328782E+03  0.36471295655E+03 -0.51768619520E+03  0.11609410325E+04  0.95000000000E+03 0.  0.
<mgrwt>
<rscale>  0 0.22325108E+04</rscale>
<asrwt>0</asrwt>
<pdfrwt beam="2">  1        2 0.40686186E+00 0.22325108E+04</pdfrwt>
<pdfrwt beam="1">  1       -2 0.72485884E-01 0.22325108E+04</pdfrwt>
<totfact> 0.44973152E+00</totfact>
</mgrwt>
</event>
<event>
 4    1  0.2552184E-008  0.3301923E+04  0.7816531E-02  0.8162406E-01
          2   -1    0    0  501    0  0.00000000000E+00  0.00000000000E+00  0.17105238795E+04  0.17105238795E+04  0.00000000000E+00 0.  1.
         -2   -1    0    0    0  501 -0.00000000000E+00 -0.00000000000E+00 -0.15934727100E+04  0.15934727100E+04  0.00000000000E+00 0. -1.
    2000013    1    1    2    0    0  0.17699267173E+03 -0.12828985557E+04  0.44088864112E+03  0.16655443266E+04  0.95000000000E+03 0.  0.
   -2000013    1    1    2    0    0 -0.17699267173E+03  0.12828985557E+04 -0.32383747165E+03  0.16384522630E+04  0.95000000000E+03 0.  0.
<mgrwt>
<rscale>  0 0.33019225E+04</rscale>
<asrwt>0</asrwt>
<pdfrwt beam="1">  1        2 0.26315752E+00 0.33019225E+04</pdfrwt>
<pdfrwt beam="2">  1       -2 0.24514965E+00 0.33019225E+04</pdfrwt>
<totfact> 0.55624503E-01</totfact>
</mgrwt>
</event>
<event>
 4    1  0.2552184E-008  0.3332392E+04  0.7816531E-02  0.8154702E-01
         -2   -1    0    0    0  501 -0.00000000000E+00  0.00000000000E+00  0.10872831213E+04  0.10872831213E+04  0.00000000000E+00 0. -1.
          2   -1    0    0  501    0  0.00000000000E+00 -0.00000000000E+00 -0.25533450974E+04  0.25533450974E+04  0.00000000000E+00 0.  1.
    2000013    1    1    2    0    0 -0.10044836400E+04  0.89284131577E+03 -0.44907416362E+03  0.17059661786E+04  0.95000000000E+03 0.  0.
   -2000013    1    1    2    0    0  0.10044836400E+04 -0.89284131577E+03 -0.10169878125E+04  0.19346620400E+04  0.95000000000E+03 0.  0.
<mgrwt>
<rscale>  0 0.33323920E+04</rscale>
<asrwt>0</asrwt>
<pdfrwt beam="2">  1        2 0.39282232E+00 0.33323920E+04</pdfrwt>
<pdfrwt beam="1">  1       -2 0.16727433E+00 0.33323920E+04</pdfrwt>
<totfact> 0.60170667E-01</totfact>
</mgrwt>
</event>
<event>
 4    1  0.2552184E-008  0.3145618E+04  0.7816531E-02  0.8203329E-01
         -2   -1    0    0    0  501 -0.00000000000E+00  0.00000000000E+00  0.16498115375E+04  0.16498115375E+04  0.00000000000E+00 0. -1.
          2   -1    0    0  501    0  0.00000000000E+00 -0.00000000000E+00 -0.14994007359E+04  0.14994007359E+04  0.00000000000E+00 0.  1.
    2000013    1    1    2    0    0 -0.69741763298E+03  0.10372941963E+04  0.16943003483E+03  0.15791064376E+04  0.95000000000E+03 0.  0.
   -2000013    1    1    2    0    0  0.69741763298E+03 -0.10372941963E+04 -0.19019233251E+02  0.15701058358E+04  0.95000000000E+03 0.  0.
<mgrwt>
<rscale>  0 0.31456183E+04</rscale>
<asrwt>0</asrwt>
<pdfrwt beam="2">  1        2 0.23067704E+00 0.31456183E+04</pdfrwt>
<pdfrwt beam="1">  1       -2 0.25381716E+00 0.31456183E+04</pdfrwt>
<totfact> 0.65419872E-01</totfact>
</mgrwt>
</event>
<event>
 4    1  0.2552184E-008  0.3160777E+04  0.7816531E-02  0.8199253E-01
          2   -1    0    0  501    0  0.00000000000E+00  0.00000000000E+00  0.28036647067E+04  0.28036647067E+04  0.00000000000E+00 0.  1.
         -2   -1    0    0    0  501 -0.00000000000E+00 -0.00000000000E+00 -0.89084381907E+03  0.89084381907E+03  0.00000000000E+00 0. -1.
    2000013    1    1    2    0    0 -0.27708341126E+03  0.11529926523E+04  0.14645089426E+04  0.21103207614E+04  0.95000000000E+03 0.  0.
   -2000013    1    1    2    0    0  0.27708341126E+03 -0.11529926523E+04  0.44831194510E+03  0.15841877645E+04  0.95000000000E+03 0.  0.
<mgrwt>
<rscale>  0 0.31607767E+04</rscale>
<asrwt>0</asrwt>
<pdfrwt beam="1">  1        2 0.43133303E+00 0.31607767E+04</pdfrwt>
<pdfrwt beam="2">  1       -2 0.13705290E+00 0.31607767E+04</pdfrwt>
<totfact> 0.73727590E-01</totfact>
</mgrwt>
</event>
<event>
 4    1  0.2552184E-008  0.2938931E+04  0.7816531E-02  0.8261388E-01
         -2   -1    0    0    0  501 -0.00000000000E+00  0.00000000000E+00  0.13783086625E+04  0.13783086625E+04  0.00000000000E+00 0. -1.
          2   -1    0    0  501    0  0.00000000000E+00 -0.00000000000E+00 -0.15666514108E+04  0.15666514108E+04  0.00000000000E+00 0.  1.
    2000013    1    1    2    0    0  0.10151345103E+04 -0.30108276587E+03 -0.46327506743E+03  0.14960857910E+04  0.95000000000E+03 0.  0.
   -2000013    1    1    2    0    0 -0.10151345103E+04  0.30108276587E+03  0.27493231915E+03  0.14488742823E+04  0.95000000000E+03 0.  0.
<mgrwt>
<rscale>  0 0.29389312E+04</rscale>
<asrwt>0</asrwt>
<pdfrwt beam="2">  1        2 0.24102329E+00 0.29389312E+04</pdfrwt>
<pdfrwt beam="1">  1       -2 0.21204749E+00 0.29389312E+04</pdfrwt>
<totfact> 0.11127796E+00</totfact>
</mgrwt>
</event>
<event>
 4    1  0.2552184E-008  0.2461686E+04  0.7816531E-02  0.8416764E-01
         -2   -1    0    0    0  501 -0.00000000000E+00  0.00000000000E+00  0.89332798248E+03  0.89332798248E+03  0.00000000000E+00 0. -1.
          2   -1    0    0  501    0  0.00000000000E+00 -0.00000000000E+00 -0.16958769859E+04  0.16958769859E+04  0.00000000000E+00 0.  1.
    2000013    1    1    2    0    0  0.19230329142E+03  0.68124317029E+03 -0.50216062896E+02  0.11857885418E+04  0.95000000000E+03 0.  0.
   -2000013    1    1    2    0    0 -0.19230329142E+03 -0.68124317029E+03 -0.75233294057E+03  0.14034164266E+04  0.95000000000E+03 0.  0.
<mgrwt>
<rscale>  0 0.24616859E+04</rscale>
<asrwt>0</asrwt>
<pdfrwt beam="2">  1        2 0.26090415E+00 0.24616859E+04</pdfrwt>
<pdfrwt beam="1">  1       -2 0.13743507E+00 0.24616859E+04</pdfrwt>
<totfact> 0.33241951E+00</totfact>
</mgrwt>
</event>
<event>
 4    1  0.2552184E-008  0.2620584E+04  0.7816531E-02  0.8361243E-01
          2   -1    0    0  501    0  0.00000000000E+00  0.00000000000E+00  0.13205277697E+04  0.13205277697E+04  0.00000000000E+00 0.  1.
         -2   -1    0    0    0  501 -0.00000000000E+00 -0.00000000000E+00 -0.13001351548E+04  0.13001351548E+04  0.00000000000E+00 0. -1.
    2000013    1    1    2    0    0  0.32474028355E+02  0.75455764612E+03  0.50412701618E+03  0.13141749702E+04  0.95000000000E+03 0.  0.
   -2000013    1    1    2    0    0 -0.32474028355E+02 -0.75455764612E+03 -0.48373440133E+03  0.13064879544E+04  0.95000000000E+03 0.  0.
<mgrwt>
<rscale>  0 0.26205836E+04</rscale>
<asrwt>0</asrwt>
<pdfrwt beam="1">  1        2 0.20315812E+00 0.26205836E+04</pdfrwt>
<pdfrwt beam="2">  1       -2 0.20002079E+00 0.26205836E+04</pdfrwt>
<totfact> 0.18883194E+00</totfact>
</mgrwt>
</event>
<event>
 4    1  0.2552184E-008  0.2762501E+04  0.7816531E-02  0.8315006E-01
         -2   -1    0    0    0  501 -0.00000000000E+00  0.00000000000E+00  0.10923288376E+04  0.10923288376E+04  0.00000000000E+00 0. -1.
          2   -1    0    0  501    0  0.00000000000E+00 -0.00000000000E+00 -0.17465917550E+04  0.17465917550E+04  0.00000000000E+00 0.  1.
    2000013    1    1    2    0    0  0.72130004639E+03  0.68199625303E+03 -0.18194370761E+03  0.13860000573E+04  0.95000000000E+03 0.  0.
   -2000013    1    1    2    0    0 -0.72130004639E+03 -0.68199625303E+03 -0.47231920983E+03  0.14529205354E+04  0.95000000000E+03 0.  0.
<mgrwt>
<rscale>  0 0.27625007E+04</rscale>
<asrwt>0</asrwt>
<pdfrwt beam="2">  1        2 0.26870642E+00 0.27625007E+04</pdfrwt>
<pdfrwt beam="1">  1       -2 0.16805059E+00 0.27625007E+04</pdfrwt>
<totfact> 0.17749817E+00</totfact>
</mgrwt>
</event>
<event>
 4    1  0.2552184E-008  0.2233130E+04  0.7816531E-02  0.8504764E-01
         -2   -1    0    0    0  501 -0.00000000000E+00  0.00000000000E+00  0.19267263044E+04  0.19267263044E+04  0.00000000000E+00 0. -1.
          2   -1    0    0  501    0  0.00000000000E+00 -0.00000000000E+00 -0.64706530685E+03  0.64706530685E+03  0.00000000000E+00 0.  1.
    2000013    1    1    2    0    0 -0.56943333939E+03 -0.13929732140E+03  0.61256411681E+03  0.12733392592E+04  0.95000000000E+03 0.  0.
   -2000013    1    1    2    0    0  0.56943333939E+03  0.13929732140E+03  0.66709688080E+03  0.13004523521E+04  0.95000000000E+03 0.  0.
<mgrwt>
<rscale>  0 0.22331303E+04</rscale>
<asrwt>0</asrwt>
<pdfrwt beam="2">  1        2 0.99548510E-01 0.22331303E+04</pdfrwt>
<pdfrwt beam="1">  1       -2 0.29641943E+00 0.22331303E+04</pdfrwt>
<totfact> 0.13784030E+00</totfact>
</mgrwt>
</event>
<event>
 4    1  0.2552184E-008  0.2055526E+04  0.7816531E-02  0.8581092E-01
          2   -1    0    0  501    0  0.00000000000E+00  0.00000000000E+00  0.24785371770E+04  0.24785371770E+04  0.00000000000E+00 0.  1.
         -2   -1    0    0    0  501 -0.00000000000E+00 -0.00000000000E+00 -0.42617748835E+03  0.42617748835E+03  0.00000000000E+00 0. -1.
    2000013    1    1    2    0    0  0.11628805342E+02  0.34739467735E+03  0.76955678260E+03  0.12710373451E+04  0.95000000000E+03 0.  0.
   -2000013    1    1    2    0    0 -0.11628805342E+02 -0.34739467735E+03  0.12828029061E+04  0.16336773203E+04  0.95000000000E+03 0.  0.
<mgrwt>
<rscale>  0 0.20555260E+04</rscale>
<asrwt>0</asrwt>
<pdfrwt beam="1">  1        2 0.38131340E+00 0.20555260E+04</pdfrwt>
<pdfrwt beam="2">  1       -2 0.65565769E-01 0.20555260E+04</pdfrwt>
<totfact> 0.71019457E+00</totfact>
</mgrwt>
</event>
<event>
 4    1  0.2552184E-008  0.2684939E+04  0.7816531E-02  0.8339908E-01
         -1   -1    0    0    0  501 -0.00000000000E+00  0.00000000000E+00  0.40644906039E+03  0.40644906039E+03  0.00000000000E+00 0. -1.
          1   -1    0    0  501    0  0.00000000000E+00 -0.00000000000E+00 -0.44340731008E+04  0.44340731008E+04  0.00000000000E+00 0.  1.
    2000013    1    1    2    0    0 -0.84768597939E+03  0.39458912791E+03 -0.23014359743E+04  0.26595826069E+04  0.95000000000E+03 0.  0.
   -2000013    1    1    2    0    0  0.84768597939E+03 -0.39458912791E+03 -0.17261880661E+04  0.21809395542E+04  0.95000000000E+03 0.  0.
<mgrwt>
<rscale>  0 0.26849394E+04</rscale>
<asrwt>0</asrwt>
<pdfrwt beam="2">  1        1 0.68216509E+00 0.26849394E+04</pdfrwt>
<pdfrwt beam="1">  1       -1 0.62530625E-01 0.26849394E+04</pdfrwt>
<totfact> 0.85438520E-02</totfact>
</mgrwt>
</event>
<event>
 4    1  0.2552184E-008  0.2356047E+04  0.7816531E-02  0.8456145E-01
         -2   -1    0    0    0  501 -0.00000000000E+00  0.00000000000E+00  0.12518077149E+04  0.12518077149E+04  0.00000000000E+00 0. -1.
          2   -1    0    0  501    0  0.00000000000E+00 -0.00000000000E+00 -0.11085882384E+04  0.11085882384E+04  0.00000000000E+00 0.  1.
    2000013    1    1    2    0    0 -0.15344640146E+03 -0.65318321612E+03 -0.11593944471E+03  0.11688182351E+04  0.95000000000E+03 0.  0.
   -2000013    1    1    2    0    0  0.15344640146E+03  0.65318321612E+03  0.25915892125E+03  0.11915777182E+04  0.95000000000E+03 0.  0.
<mgrwt>
<rscale>  0 0.23560470E+04</rscale>
<asrwt>0</asrwt>
<pdfrwt beam="2">  1        2 0.17055204E+00 0.23560470E+04</pdfrwt>
<pdfrwt beam="1">  1       -2 0.19258580E+00 0.23560470E+04</pdfrwt>
<totfact> 0.28925527E+00</totfact>
</mgrwt>
</event>
<event>
 4    1  0.2552184E-008  0.2783750E+04  0.7816531E-02  0.8308331E-01
         -2   -1    0    0    0  501 -0.00000000000E+00  0.00000000000E+00  0.14435573189E+04  0.14435573189E+04  0.00000000000E+00 0. -1.
          2   -1    0    0  501    0  0.00000000000E+00 -0.00000000000E+00 -0.13420434055E+04  0.13420434055E+04  0.00000000000E+00 0.  1.
    2000013    1    1    2    0    0  0.17428631295E+03  0.55264396467E+03 -0.78587622636E+03  0.13623114599E+04  0.95000000000E+03 0.  0.
   -2000013    1    1    2    0    0 -0.17428631295E+03 -0.55264396467E+03  0.88739013972E+03  0.14232892646E+04  0.95000000000E+03 0.  0.
<mgrwt>
<rscale>  0 0.27837504E+04</rscale>
<asrwt>0</asrwt>
<pdfrwt beam="2">  1        2 0.20646822E+00 0.27837504E+04</pdfrwt>
<pdfrwt beam="1">  1       -2 0.22208574E+00 0.27837504E+04</pdfrwt>
<totfact> 0.13054681E+00</totfact>
</mgrwt>
</event>
<event>
 4    1  0.2552184E-008  0.2321280E+04  0.7816531E-02  0.8469578E-01
          2   -1    0    0  501    0  0.00000000000E+00  0.00000000000E+00  0.16270297125E+04  0.16270297125E+04  0.00000000000E+00 0. -1.
         -2   -1    0    0    0  501 -0.00000000000E+00 -0.00000000000E+00 -0.82794140591E+03  0.82794140591E+03  0.00000000000E+00 0.  1.
    2000013    1    1    2    0    0 -0.81742291174E+01 -0.65134956381E+03  0.24900062270E+03  0.11784839339E+04  0.95000000000E+03 0.  0.
   -2000013    1    1    2    0    0  0.81742291174E+01  0.65134956381E+03  0.55008768387E+03  0.12764871845E+04  0.95000000000E+03 0.  0.
<mgrwt>
<rscale>  0 0.23212800E+04</rscale>
<asrwt>0</asrwt>
<pdfrwt beam="1">  1        2 0.25031226E+00 0.23212800E+04</pdfrwt>
<pdfrwt beam="2">  1       -2 0.12737560E+00 0.23212800E+04</pdfrwt>
<totfact> 0.44580993E+00</totfact>
</mgrwt>
</event>
<event>
 4    1  0.2552184E-008  0.2311471E+04  0.7816531E-02  0.8473412E-01
         -2   -1    0    0    0  501 -0.00000000000E+00  0.00000000000E+00  0.11300482161E+04  0.11300482161E+04  0.00000000000E+00 0. -1.
          2   -1    0    0  501    0  0.00000000000E+00 -0.00000000000E+00 -0.11820067361E+04  0.11820067361E+04  0.00000000000E+00 0.  1.
    2000013    1    1    2    0    0  0.65138998371E+03  0.92813607232E+02 -0.43342418939E+02  0.11564176762E+04  0.95000000000E+03 0.  0.
   -2000013    1    1    2    0    0 -0.65138998371E+03 -0.92813607232E+02 -0.86161011052E+01  0.11556372760E+04  0.95000000000E+03 0.  0.
<mgrwt>
<rscale>  0 0.23114710E+04</rscale>
<asrwt>0</asrwt>
<pdfrwt beam="2">  1        2 0.18184719E+00 0.23114710E+04</pdfrwt>
<pdfrwt beam="1">  1       -2 0.17385357E+00 0.23114710E+04</pdfrwt>
<totfact> 0.35204529E+00</totfact>
</mgrwt>
</event>
<event>
 4    1  0.2552184E-008  0.2270771E+04  0.7816531E-02  0.8489536E-01
          2   -1    0    0  501    0  0.00000000000E+00  0.00000000000E+00  0.20616992010E+04  0.20616992010E+04  0.00000000000E+00 0.  1.
         -2   -1    0    0    0  501 -0.00000000000E+00 -0.00000000000E+00 -0.62526081614E+03  0.62526081614E+03  0.00000000000E+00 0. -1.
    2000013    1    1    2    0    0 -0.26553188560E+03 -0.15567005003E+03  0.13574751395E+04  0.16852237540E+04  0.95000000000E+03 0.  0.
   -2000013    1    1    2    0    0  0.26553188560E+03  0.15567005003E+03  0.78963245373E+02  0.10017362631E+04  0.95000000000E+03 0.  0.
<mgrwt>
<rscale>  0 0.22707706E+04</rscale>
<asrwt>0</asrwt>
<pdfrwt beam="1">  1        2 0.31718449E+00 0.22707706E+04</pdfrwt>
<pdfrwt beam="2">  1       -2 0.96193973E-01 0.22707706E+04</pdfrwt>
<totfact> 0.50768757E+00</totfact>
</mgrwt>
</event>
<event>
 4    1  0.2552184E-008  0.2475623E+04  0.7816531E-02  0.8411722E-01
          2   -1    0    0  501    0  0.00000000000E+00  0.00000000000E+00  0.91623861751E+03  0.91623861751E+03  0.00000000000E+00 0.  1.
         -2   -1    0    0    0  501 -0.00000000000E+00 -0.00000000000E+00 -0.16722472059E+04  0.16722472059E+04  0.00000000000E+00 0. -1.
    2000013    1    1    2    0    0  0.45961165709E+03 -0.10941259296E+03  0.28860601151E+03  0.10995487350E+04  0.95000000000E+03 0.  0.
   -2000013    1    1    2    0    0 -0.45961165709E+03  0.10941259296E+03 -0.10446145999E+04  0.14889370884E+04  0.95000000000E+03 0.  0.
<mgrwt>
<rscale>  0 0.24756231E+04</rscale>
<asrwt>0</asrwt>
<pdfrwt beam="1">  1        2 0.14095979E+00 0.24756231E+04</pdfrwt>
<pdfrwt beam="2">  1       -2 0.25726880E+00 0.24756231E+04</pdfrwt>
<totfact> 0.14813972E+00</totfact>
</mgrwt>
</event>
<event>
 4    1  0.2552184E-008  0.3353828E+04  0.7816531E-02  0.8149332E-01
         -2   -1    0    0    0  501 -0.00000000000E+00  0.00000000000E+00  0.21587140301E+04  0.21587140301E+04  0.00000000000E+00 0. -1.
          2   -1    0    0  501    0  0.00000000000E+00 -0.00000000000E+00 -0.13026461413E+04  0.13026461413E+04  0.00000000000E+00 0.  1.
    2000013    1    1    2    0    0 -0.16593956735E+03  0.13717469882E+04  0.40972357931E+03  0.17261515435E+04  0.95000000000E+03 0.  0.
   -2000013    1    1    2    0    0  0.16593956735E+03 -0.13717469882E+04  0.44634430948E+03  0.17352086279E+04  0.95000000000E+03 0.  0.
<mgrwt>
<rscale>  0 0.33538280E+04</rscale>
<asrwt>0</asrwt>
<pdfrwt beam="2">  1        2 0.20040710E+00 0.33538280E+04</pdfrwt>
<pdfrwt beam="1">  1       -2 0.33210985E+00 0.33538280E+04</pdfrwt>
<totfact> 0.27580320E-01</totfact>
</mgrwt>
</event>
<event>
 4    1  0.2552184E-008  0.2990584E+04  0.7816531E-02  0.8246425E-01
          2   -1    0    0  501    0  0.00000000000E+00  0.00000000000E+00  0.11698306196E+04  0.11698306196E+04  0.00000000000E+00 0.  1.
         -2   -1    0    0    0  501 -0.00000000000E+00 -0.00000000000E+00 -0.19113013766E+04  0.19113013766E+04  0.00000000000E+00 0. -1.
    2000013    1    1    2    0    0 -0.93804345023E+03 -0.54560161367E+03 -0.77739133509E+03  0.16384272713E+04  0.95000000000E+03 0.  0.
   -2000013    1    1    2    0    0  0.93804345023E+03  0.54560161367E+03  0.35920578114E+02  0.14427047249E+04  0.95000000000E+03 0.  0.
<mgrwt>
<rscale>  0 0.29905845E+04</rscale>
<asrwt>0</asrwt>
<pdfrwt beam="1">  1        2 0.17997394E+00 0.29905845E+04</pdfrwt>
<pdfrwt beam="2">  1       -2 0.29404636E+00 0.29905845E+04</pdfrwt>
<totfact> 0.58473237E-01</totfact>
</mgrwt>
</event>
<event>
 4    1  0.2552184E-008  0.2625143E+04  0.7816531E-02  0.8359711E-01
         -2   -1    0    0    0  501 -0.00000000000E+00  0.00000000000E+00  0.92303365247E+03  0.92303365247E+03  0.00000000000E+00 0. -1.
          2   -1    0    0  501    0  0.00000000000E+00 -0.00000000000E+00 -0.18665017130E+04  0.18665017130E+04  0.00000000000E+00 0.  1.
    2000013    1    1    2    0    0  0.10718921824E+03  0.49004765014E+03  0.32961820592E+03  0.11237367973E+04  0.95000000000E+03 0.  0.
   -2000013    1    1    2    0    0 -0.10718921824E+03 -0.49004765014E+03 -0.12730862664E+04  0.16657985681E+04  0.95000000000E+03 0.  0.
<mgrwt>
<rscale>  0 0.26251430E+04</rscale>
<asrwt>0</asrwt>
<pdfrwt beam="2">  1        2 0.28715411E+00 0.26251430E+04</pdfrwt>
<pdfrwt beam="1">  1       -2 0.14200518E+00 0.26251430E+04</pdfrwt>
<totfact> 0.24215881E+00</totfact>
</mgrwt>
</event>
<event>
 4    1  0.2552184E-008  0.2835639E+04  0.7816531E-02  0.8292288E-01
          2   -1    0    0  501    0  0.00000000000E+00  0.00000000000E+00  0.12284453648E+04  0.12284453648E+04  0.00000000000E+00 0.  1.
         -2   -1    0    0    0  501 -0.00000000000E+00 -0.00000000000E+00 -0.16363872865E+04  0.16363872865E+04  0.00000000000E+00 0. -1.
    2000013    1    1    2    0    0  0.65029694609E+02  0.10276232497E+04 -0.42409936158E+03  0.14637618225E+04  0.95000000000E+03 0.  0.
   -2000013    1    1    2    0    0 -0.65029694609E+02 -0.10276232497E+04  0.16157439902E+02  0.14010708288E+04  0.95000000000E+03 0.  0.
<mgrwt>
<rscale>  0 0.28356392E+04</rscale>
<asrwt>0</asrwt>
<pdfrwt beam="1">  1        2 0.18899159E+00 0.28356392E+04</pdfrwt>
<pdfrwt beam="2">  1       -2 0.25175189E+00 0.28356392E+04</pdfrwt>
<totfact> 0.99069216E-01</totfact>
</mgrwt>
</event>
<event>
 4    1  0.2552184E-008  0.2085619E+04  0.7816531E-02  0.8567605E-01
         -2   -1    0    0    0  501 -0.00000000000E+00  0.00000000000E+00  0.10156775051E+04  0.10156775051E+04  0.00000000000E+00 0. -1.
          2   -1    0    0  501    0  0.00000000000E+00 -0.00000000000E+00 -0.10706665468E+04  0.10706665468E+04  0.00000000000E+00 0.  1.
    2000013    1    1    2    0    0 -0.41410494159E+03  0.11162767659E+03  0.42700364580E+01  0.10423348186E+04  0.95000000000E+03 0.  0.
   -2000013    1    1    2    0    0  0.41410494159E+03 -0.11162767659E+03 -0.59259078229E+02  0.10440092333E+04  0.95000000000E+03 0.  0.
<mgrwt>
<rscale>  0 0.20856193E+04</rscale>
<asrwt>0</asrwt>
<pdfrwt beam="2">  1        2 0.16471793E+00 0.20856193E+04</pdfrwt>
<pdfrwt beam="1">  1       -2 0.15625808E+00 0.20856193E+04</pdfrwt>
<totfact> 0.56301555E+00</totfact>
</mgrwt>
</event>
<event>
 4    1  0.2552184E-008  0.2175253E+04  0.7816531E-02  0.8528799E-01
          2   -1    0    0  501    0  0.00000000000E+00  0.00000000000E+00  0.21798179663E+04  0.21798179663E+04  0.00000000000E+00 0.  1.
         -2   -1    0    0    0  501 -0.00000000000E+00 -0.00000000000E+00 -0.54267451906E+03  0.54267451906E+03  0.00000000000E+00 0. -1.
    2000013    1    1    2    0    0 -0.50246631855E+03  0.15562469227E+03  0.74202872687E+03  0.13152178822E+04  0.95000000000E+03 0.  0.
   -2000013    1    1    2    0    0  0.50246631855E+03 -0.15562469227E+03  0.89511472037E+03  0.14072746032E+04  0.95000000000E+03 0.  0.
<mgrwt>
<rscale>  0 0.21752532E+04</rscale>
<asrwt>0</asrwt>
<pdfrwt beam="1">  1        2 0.33535661E+00 0.21752532E+04</pdfrwt>
<pdfrwt beam="2">  1       -2 0.83488389E-01 0.21752532E+04</pdfrwt>
<totfact> 0.60926676E+00</totfact>
</mgrwt>
</event>
<event>
 4    1  0.2552184E-008  0.2077832E+04  0.7816531E-02  0.8571072E-01
          1   -1    0    0  501    0  0.00000000000E+00  0.00000000000E+00  0.15401415089E+04  0.15401415089E+04  0.00000000000E+00 0.  1.
         -1   -1    0    0    0  501 -0.00000000000E+00 -0.00000000000E+00 -0.70080967269E+03  0.70080967269E+03  0.00000000000E+00 0. -1.
    2000013    1    1    2    0    0  0.92365079411E+02  0.39322071049E+03  0.29346597383E+03  0.10732083269E+04  0.95000000000E+03 0.  0.
   -2000013    1    1    2    0    0 -0.92365079411E+02 -0.39322071049E+03  0.54586586237E+03  0.11677428547E+04  0.95000000000E+03 0.  0.
<mgrwt>
<rscale>  0 0.20778316E+04</rscale>
<asrwt>0</asrwt>
<pdfrwt beam="1">  1        1 0.23694485E+00 0.20778316E+04</pdfrwt>
<pdfrwt beam="2">  1       -1 0.10781687E+00 0.20778316E+04</pdfrwt>
<totfact> 0.45239752E+00</totfact>
</mgrwt>
</event>
<event>
 4    1  0.2552184E-008  0.3091067E+04  0.7816531E-02  0.8218194E-01
          2   -1    0    0  501    0  0.00000000000E+00  0.00000000000E+00  0.22182434053E+04  0.22182434053E+04  0.00000000000E+00 0. -1.
         -2   -1    0    0    0  501 -0.00000000000E+00 -0.00000000000E+00 -0.10768315597E+04  0.10768315597E+04  0.00000000000E+00 0.  1.
    2000013    1    1    2    0    0  0.90089749791E+03 -0.64662774703E+03  0.30894740127E+02  0.14605472365E+04  0.95000000000E+03 0.  0.
   -2000013    1    1    2    0    0 -0.90089749791E+03  0.64662774703E+03  0.11105171055E+04  0.18345277285E+04  0.95000000000E+03 0.  0.
<mgrwt>
<rscale>  0 0.30910675E+04</rscale>
<asrwt>0</asrwt>
<pdfrwt beam="1">  1        2 0.34126821E+00 0.30910675E+04</pdfrwt>
<pdfrwt beam="2">  1       -2 0.16566639E+00 0.30910675E+04</pdfrwt>
<totfact> 0.98101734E-01</totfact>
</mgrwt>
</event>
<event>
 4    1  0.2552184E-008  0.2350693E+04  0.7816531E-02  0.8458197E-01
         -2   -1    0    0    0  501 -0.00000000000E+00  0.00000000000E+00  0.20257234788E+04  0.20257234788E+04  0.00000000000E+00 0. -1.
          2   -1    0    0  501    0  0.00000000000E+00 -0.00000000000E+00 -0.68194892232E+03  0.68194892232E+03  0.00000000000E+00 0.  1.
    2000013    1    1    2    0    0 -0.22949054451E+02  0.48238022831E+03  0.12428696084E+04  0.16372056093E+04  0.95000000000E+03 0.  0.
   -2000013    1    1    2    0    0  0.22949054451E+02 -0.48238022831E+03  0.10090494808E+03  0.10704667918E+04  0.95000000000E+03 0.  0.
<mgrwt>
<rscale>  0 0.23506935E+04</rscale>
<asrwt>0</asrwt>
<pdfrwt beam="2">  1        2 0.10491522E+00 0.23506935E+04</pdfrwt>
<pdfrwt beam="1">  1       -2 0.31164976E+00 0.23506935E+04</pdfrwt>
<totfact> 0.10312143E+00</totfact>
</mgrwt>
</event>
<event>
 4    1  0.2552184E-008  0.2611746E+04  0.7816531E-02  0.8364222E-01
          2   -1    0    0  501    0  0.00000000000E+00  0.00000000000E+00  0.20332260177E+04  0.20332260177E+04  0.00000000000E+00 0.  1.
         -2   -1    0    0    0  501 -0.00000000000E+00 -0.00000000000E+00 -0.83871835292E+03  0.83871835292E+03  0.00000000000E+00 0. -1.
    2000013    1    1    2    0    0  0.69643079854E+03 -0.43906414630E+03  0.20846043247E+03  0.12742640753E+04  0.95000000000E+03 0.  0.
   -2000013    1    1    2    0    0 -0.69643079854E+03  0.43906414630E+03  0.98604723233E+03  0.15976802953E+04  0.95000000000E+03 0.  0.
<mgrwt>
<rscale>  0 0.26117458E+04</rscale>
<asrwt>0</asrwt>
<pdfrwt beam="1">  1        2 0.31280400E+00 0.26117458E+04</pdfrwt>
<pdfrwt beam="2">  1       -2 0.12903359E+00 0.26117458E+04</pdfrwt>
<totfact> 0.25041423E+00</totfact>
</mgrwt>
</event>
<event>
 4    1  0.2552184E-008  0.2512710E+04  0.7816531E-02  0.8398471E-01
         -2   -1    0    0    0  501 -0.00000000000E+00  0.00000000000E+00  0.14304672253E+04  0.14304672253E+04  0.00000000000E+00 0. -1.
          2   -1    0    0  501    0  0.00000000000E+00 -0.00000000000E+00 -0.11034356113E+04  0.11034356113E+04  0.00000000000E+00 0.  1.
    2000013    1    1    2    0    0  0.67829757939E+03  0.29473959414E+03  0.52566783337E+03  0.13136916326E+04  0.95000000000E+03 0.  0.
   -2000013    1    1    2    0    0 -0.67829757939E+03 -0.29473959414E+03 -0.19863621936E+03  0.12202112039E+04  0.95000000000E+03 0.  0.
<mgrwt>
<rscale>  0 0.25127105E+04</rscale>
<asrwt>0</asrwt>
<pdfrwt beam="2">  1        2 0.16975932E+00 0.25127105E+04</pdfrwt>
<pdfrwt beam="1">  1       -2 0.22007188E+00 0.25127105E+04</pdfrwt>
<totfact> 0.19068687E+00</totfact>
</mgrwt>
</event>
<event>
 4    1  0.2552184E-008  0.2783531E+04  0.7816531E-02  0.8308400E-01
          2   -1    0    0  501    0  0.00000000000E+00  0.00000000000E+00  0.22452422315E+04  0.22452422315E+04  0.00000000000E+00 0.  1.
         -2   -1    0    0    0  501 -0.00000000000E+00 -0.00000000000E+00 -0.86271831886E+03  0.86271831886E+03  0.00000000000E+00 0. -1.
    2000013    1    1    2    0    0  0.10671432923E+03 -0.10040581634E+04  0.55455435537E+03  0.14931682011E+04  0.95000000000E+03 0.  0.
   -2000013    1    1    2    0    0 -0.10671432923E+03  0.10040581634E+04  0.82796955726E+03  0.16147923493E+04  0.95000000000E+03 0.  0.
<mgrwt>
<rscale>  0 0.27835313E+04</rscale>
<asrwt>0</asrwt>
<pdfrwt beam="1">  1        2 0.34542188E+00 0.27835313E+04</pdfrwt>
<pdfrwt beam="2">  1       -2 0.13272590E+00 0.27835313E+04</pdfrwt>
<totfact> 0.17478182E+00</totfact>
</mgrwt>
</event>
<event>
 4    1  0.2552184E-008  0.2471696E+04  0.7816531E-02  0.8413139E-01
         -2   -1    0    0    0  501 -0.00000000000E+00  0.00000000000E+00  0.17249602683E+04  0.17249602683E+04  0.00000000000E+00 0. -1.
          2   -1    0    0  501    0  0.00000000000E+00 -0.00000000000E+00 -0.88542363727E+03  0.88542363727E+03  0.00000000000E+00 0.  1.
    2000013    1    1    2    0    0  0.50139616351E+03  0.60726513491E+03  0.34773928469E+03  0.12820263909E+04  0.95000000000E+03 0.  0.
   -2000013    1    1    2    0    0 -0.50139616351E+03 -0.60726513491E+03  0.49179734630E+03  0.13283575146E+04  0.95000000000E+03 0.  0.
<mgrwt>
<rscale>  0 0.24716963E+04</rscale>
<asrwt>0</asrwt>
<pdfrwt beam="2">  1        2 0.13621902E+00 0.24716963E+04</pdfrwt>
<pdfrwt beam="1">  1       -2 0.26537850E+00 0.24716963E+04</pdfrwt>
<totfact> 0.13870437E+00</totfact>
</mgrwt>
</event>
<event>
 4    1  0.2552184E-008  0.2231636E+04  0.7816531E-02  0.8505375E-01
          2   -1    0    0  501    0  0.00000000000E+00  0.00000000000E+00  0.16104370024E+04  0.16104370024E+04  0.00000000000E+00 0.  1.
         -2   -1    0    0    0  501 -0.00000000000E+00 -0.00000000000E+00 -0.77311312109E+03  0.77311312109E+03  0.00000000000E+00 0. -1.
    2000013    1    1    2    0    0 -0.26074127031E+03 -0.50603096719E+03  0.56392232049E+03  0.12428039803E+04  0.95000000000E+03 0.  0.
   -2000013    1    1    2    0    0  0.26074127031E+03  0.50603096719E+03  0.27340156080E+03  0.11407461432E+04  0.95000000000E+03 0.  0.
<mgrwt>
<rscale>  0 0.22316362E+04</rscale>
<asrwt>0</asrwt>
<pdfrwt beam="1">  1        2 0.24775954E+00 0.22316362E+04</pdfrwt>
<pdfrwt beam="2">  1       -2 0.11894048E+00 0.22316362E+04</pdfrwt>
<totfact> 0.54459786E+00</totfact>
</mgrwt>
</event>
<event>
 4    1  0.2552184E-008  0.2448437E+04  0.7816531E-02  0.8421589E-01
          2   -1    0    0  501    0  0.00000000000E+00  0.00000000000E+00  0.54488795104E+03  0.54488795104E+03  0.00000000000E+00 0.  1.
         -2   -1    0    0    0  501 -0.00000000000E+00 -0.00000000000E+00 -0.27504928486E+04  0.27504928486E+04  0.00000000000E+00 0. -1.
    2000013    1    1    2    0    0  0.11332489644E+03 -0.72518003010E+03 -0.14254898023E+04  0.18636656848E+04  0.95000000000E+03 0.  0.
   -2000013    1    1    2    0    0 -0.11332489644E+03  0.72518003010E+03 -0.78011509525E+03  0.14317151148E+04  0.95000000000E+03 0.  0.
<mgrwt>
<rscale>  0 0.24484366E+04</rscale>
<asrwt>0</asrwt>
<pdfrwt beam="1">  1        2 0.83828917E-01 0.24484366E+04</pdfrwt>
<pdfrwt beam="2">  1       -2 0.42315274E+00 0.24484366E+04</pdfrwt>
<totfact> 0.26059575E-01</totfact>
</mgrwt>
</event>
<event>
 4    1  0.2552184E-008  0.2982675E+04  0.7816531E-02  0.8248695E-01
          2   -1    0    0  501    0  0.00000000000E+00  0.00000000000E+00  0.21899020811E+04  0.21899020811E+04  0.00000000000E+00 0.  1.
         -2   -1    0    0    0  501 -0.00000000000E+00 -0.00000000000E+00 -0.10156107972E+04  0.10156107972E+04  0.00000000000E+00 0. -1.
    2000013    1    1    2    0    0 -0.85781122746E+03  0.26252565306E+03 -0.18547214743E+03  0.13197195679E+04  0.95000000000E+03 0.  0.
   -2000013    1    1    2    0    0  0.85781122746E+03 -0.26252565306E+03  0.13597634313E+04  0.18857933104E+04  0.95000000000E+03 0.  0.
<mgrwt>
<rscale>  0 0.29826754E+04</rscale>
<asrwt>0</asrwt>
<pdfrwt beam="1">  1        2 0.33690801E+00 0.29826754E+04</pdfrwt>
<pdfrwt beam="2">  1       -2 0.15624782E+00 0.29826754E+04</pdfrwt>
<totfact> 0.12048540E+00</totfact>
</mgrwt>
</event>
<event>
 4    1  0.2552184E-008  0.3637753E+04  0.7816531E-02  0.8081898E-01
         -2   -1    0    0    0  501 -0.00000000000E+00  0.00000000000E+00  0.11055288419E+04  0.11055288419E+04  0.00000000000E+00 0. -1.
          2   -1    0    0  501    0  0.00000000000E+00 -0.00000000000E+00 -0.29925157425E+04  0.29925157425E+04  0.00000000000E+00 0.  1.
    2000013    1    1    2    0    0  0.11126950627E+04 -0.10502095322E+04 -0.65676490491E+03  0.19169951759E+04  0.95000000000E+03 0.  0.
   -2000013    1    1    2    0    0 -0.11126950627E+04  0.10502095322E+04 -0.12302219957E+04  0.21810494086E+04  0.95000000000E+03 0.  0.
<mgrwt>
<rscale>  0 0.36377534E+04</rscale>
<asrwt>0</asrwt>
<pdfrwt beam="2">  1        2 0.46038703E+00 0.36377534E+04</pdfrwt>
<pdfrwt beam="1">  1       -2 0.17008136E+00 0.36377534E+04</pdfrwt>
<totfact> 0.30418948E-01</totfact>
</mgrwt>
</event>
<event>
 4    1  0.2552184E-008  0.3145753E+04  0.7816531E-02  0.8203292E-01
         -2   -1    0    0    0  501 -0.00000000000E+00  0.00000000000E+00  0.15598936462E+04  0.15598936462E+04  0.00000000000E+00 0. -1.
          2   -1    0    0  501    0  0.00000000000E+00 -0.00000000000E+00 -0.15859674747E+04  0.15859674747E+04  0.00000000000E+00 0.  1.
    2000013    1    1    2    0    0  0.11155140917E+04 -0.18723346299E+03 -0.55343731195E+03  0.15774095590E+04  0.95000000000E+03 0.  0.
   -2000013    1    1    2    0    0 -0.11155140917E+04  0.18723346299E+03  0.52736348347E+03  0.15684515619E+04  0.95000000000E+03 0.  0.
<mgrwt>
<rscale>  0 0.31457531E+04</rscale>
<asrwt>0</asrwt>
<pdfrwt beam="2">  1        2 0.24399499E+00 0.31457531E+04</pdfrwt>
<pdfrwt beam="1">  1       -2 0.23998364E+00 0.31457531E+04</pdfrwt>
<totfact> 0.71168987E-01</totfact>
</mgrwt>
</event>
<event>
 4    1  0.2552184E-008  0.2271068E+04  0.7816531E-02  0.8489417E-01
          2   -1    0    0  501    0  0.00000000000E+00  0.00000000000E+00  0.44080335144E+04  0.44080335144E+04  0.00000000000E+00 0.  1.
         -2   -1    0    0    0  501 -0.00000000000E+00 -0.00000000000E+00 -0.29251991639E+03  0.29251991639E+03  0.00000000000E+00 0. -1.
    2000013    1    1    2    0    0 -0.41391392713E+03 -0.44071696055E+03  0.17551093119E+04  0.20852973109E+04  0.95000000000E+03 0.  0.
   -2000013    1    1    2    0    0  0.41391392713E+03  0.44071696055E+03  0.23604042862E+04  0.26152561199E+04  0.95000000000E+03 0.  0.
<mgrwt>
<rscale>  0 0.22710681E+04</rscale>
<asrwt>0</asrwt>
<pdfrwt beam="1">  1        2 0.67815895E+00 0.22710681E+04</pdfrwt>
<pdfrwt beam="2">  1       -2 0.45003067E-01 0.22710681E+04</pdfrwt>
<totfact> 0.64783736E-01</totfact>
</mgrwt>
</event>
<event>
 4    1  0.2552184E-008  0.2144674E+04  0.7816531E-02  0.8541816E-01
          2   -1    0    0  501    0  0.00000000000E+00  0.00000000000E+00  0.22460740163E+04  0.22460740163E+04  0.00000000000E+00 0.  1.
         -2   -1    0    0    0  501 -0.00000000000E+00 -0.00000000000E+00 -0.51196287784E+03  0.51196287784E+03  0.00000000000E+00 0. -1.
    2000013    1    1    2    0    0 -0.18274461717E+03 -0.46160775182E+03  0.90625634983E+03  0.14036658731E+04  0.95000000000E+03 0.  0.
   -2000013    1    1    2    0    0  0.18274461717E+03  0.46160775182E+03  0.82785478865E+03  0.13543710211E+04  0.95000000000E+03 0.  0.
<mgrwt>
<rscale>  0 0.21446739E+04</rscale>
<asrwt>0</asrwt>
<pdfrwt beam="1">  1        2 0.34554984E+00 0.21446739E+04</pdfrwt>
<pdfrwt beam="2">  1       -2 0.78763521E-01 0.21446739E+04</pdfrwt>
<totfact> 0.63928803E+00</totfact>
</mgrwt>
</event>
<event>
 4    1  0.2552184E-008  0.2288096E+04  0.7816531E-02  0.8482630E-01
         -2   -1    0    0    0  501 -0.00000000000E+00  0.00000000000E+00  0.11272544513E+04  0.11272544513E+04  0.00000000000E+00 0. -1.
          2   -1    0    0  501    0  0.00000000000E+00 -0.00000000000E+00 -0.11610912787E+04  0.11610912787E+04  0.00000000000E+00 0.  1.
    2000013    1    1    2    0    0 -0.30171504146E+03  0.54028786544E+03 -0.16991346704E+03  0.11464351399E+04  0.95000000000E+03 0.  0.
   -2000013    1    1    2    0    0  0.30171504146E+03 -0.54028786544E+03  0.13607663968E+03  0.11419105900E+04  0.95000000000E+03 0.  0.
<mgrwt>
<rscale>  0 0.22880956E+04</rscale>
<asrwt>0</asrwt>
<pdfrwt beam="2">  1        2 0.17862943E+00 0.22880956E+04</pdfrwt>
<pdfrwt beam="1">  1       -2 0.17342376E+00 0.22880956E+04</pdfrwt>
<totfact> 0.36565816E+00</totfact>
</mgrwt>
</event>
<event>
 4    1  0.2552184E-008  0.3200161E+04  0.7816531E-02  0.8188775E-01
         -4   -1    0    0    0  501 -0.00000000000E+00  0.00000000000E+00  0.14730519115E+04  0.14730519115E+04  0.00000000000E+00 0. -1.
          4   -1    0    0  501    0  0.00000000000E+00 -0.00000000000E+00 -0.17380638716E+04  0.17380638716E+04  0.00000000000E+00 0.  1.
    2000013    1    1    2    0    0  0.47050355647E+03  0.97163269736E+03 -0.83655912201E+03  0.16636630848E+04  0.95000000000E+03 0.  0.
   -2000013    1    1    2    0    0 -0.47050355647E+03 -0.97163269736E+03  0.57154716189E+03  0.15474526983E+04  0.95000000000E+03 0.  0.
<mgrwt>
<rscale>  0 0.32001614E+04</rscale>
<asrwt>0</asrwt>
<pdfrwt beam="2">  1        4 0.26739444E+00 0.32001614E+04</pdfrwt>
<pdfrwt beam="1">  1       -4 0.22662337E+00 0.32001614E+04</pdfrwt>
<totfact> 0.72674700E-03</totfact>
</mgrwt>
</event>
<event>
 4    1  0.2552184E-008  0.2772991E+04  0.7816531E-02  0.8311703E-01
         -2   -1    0    0    0  501 -0.00000000000E+00  0.00000000000E+00  0.15577297929E+04  0.15577297929E+04  0.00000000000E+00 0. -1.
          2   -1    0    0  501    0  0.00000000000E+00 -0.00000000000E+00 -0.12340840840E+04  0.12340840840E+04  0.00000000000E+00 0.  1.
    2000013    1    1    2    0    0 -0.40855969323E+03  0.70394741668E+03 -0.44007013461E+03  0.13261314836E+04  0.95000000000E+03 0.  0.
   -2000013    1    1    2    0    0  0.40855969323E+03 -0.70394741668E+03  0.76371584357E+03  0.14656823933E+04  0.95000000000E+03 0.  0.
<mgrwt>
<rscale>  0 0.27729908E+04</rscale>
<asrwt>0</asrwt>
<pdfrwt beam="2">  1        2 0.18985909E+00 0.27729908E+04</pdfrwt>
<pdfrwt beam="1">  1       -2 0.23965074E+00 0.27729908E+04</pdfrwt>
<totfact> 0.11734996E+00</totfact>
</mgrwt>
</event>
<event>
 4    1  0.2552184E-008  0.2256940E+04  0.7816531E-02  0.8495095E-01
          2   -1    0    0  501    0  0.00000000000E+00  0.00000000000E+00  0.42967751140E+04  0.42967751140E+04  0.00000000000E+00 0.  1.
         -2   -1    0    0    0  501 -0.00000000000E+00 -0.00000000000E+00 -0.29637212224E+03  0.29637212224E+03  0.00000000000E+00 0. -1.
    2000013    1    1    2    0    0  0.35758866290E+02  0.53568801082E+03  0.25854680263E+04  0.28063116820E+04  0.95000000000E+03 0.  0.
   -2000013    1    1    2    0    0 -0.35758866290E+02 -0.53568801082E+03  0.14149349654E+04  0.17868355542E+04  0.95000000000E+03 0.  0.
<mgrwt>
<rscale>  0 0.22569398E+04</rscale>
<asrwt>0</asrwt>
<pdfrwt beam="1">  1        2 0.66104228E+00 0.22569398E+04</pdfrwt>
<pdfrwt beam="2">  1       -2 0.45595714E-01 0.22569398E+04</pdfrwt>
<totfact> 0.79931605E-01</totfact>
</mgrwt>
</event>
<event>
 4    1  0.2552184E-008  0.2324021E+04  0.7816531E-02  0.8468510E-01
          2   -1    0    0  501    0  0.00000000000E+00  0.00000000000E+00  0.17758513666E+04  0.17758513666E+04  0.00000000000E+00 0.  1.
         -2   -1    0    0    0  501 -0.00000000000E+00 -0.00000000000E+00 -0.76034958834E+03  0.76034958834E+03  0.00000000000E+00 0. -1.
    2000013    1    1    2    0    0  0.40293508058E+02 -0.42155365994E+03 -0.57660729463E+02  0.10417081236E+04  0.95000000000E+03 0.  0.
   -2000013    1    1    2    0    0 -0.40293508058E+02  0.42155365994E+03  0.10731625077E+04  0.14944928313E+04  0.95000000000E+03 0.  0.
<mgrwt>
<rscale>  0 0.23240205E+04</rscale>
<asrwt>0</asrwt>
<pdfrwt beam="1">  1        2 0.27320790E+00 0.23240205E+04</pdfrwt>
<pdfrwt beam="2">  1       -2 0.11697686E+00 0.23240205E+04</pdfrwt>
<totfact> 0.45544779E+00</totfact>
</mgrwt>
</event>
<event>
 4    1  0.2552184E-008  0.2918080E+04  0.7816531E-02  0.8267518E-01
         -2   -1    0    0    0  501 -0.00000000000E+00  0.00000000000E+00  0.21707179654E+04  0.21707179654E+04  0.00000000000E+00 0.  1.
          2   -1    0    0  501    0  0.00000000000E+00 -0.00000000000E+00 -0.98068830113E+03  0.98068830113E+03  0.00000000000E+00 0. -1.
    2000013    1    1    2    0    0 -0.11033812864E+04  0.92537858418E+02  0.61322087942E+03  0.15825780756E+04  0.95000000000E+03 0.  0.
   -2000013    1    1    2    0    0  0.11033812864E+04 -0.92537858418E+02  0.57680878486E+03  0.15688281909E+04  0.95000000000E+03 0.  0.
<mgrwt>
<rscale>  0 0.29180800E+04</rscale>
<asrwt>0</asrwt>
<pdfrwt beam="2">  1        2 0.15087512E+00 0.29180800E+04</pdfrwt>
<pdfrwt beam="1">  1       -2 0.33395661E+00 0.29180800E+04</pdfrwt>
<totfact> 0.43812588E-01</totfact>
</mgrwt>
</event>
<event>
 4    1  0.2552184E-008  0.2722072E+04  0.7816531E-02  0.8327879E-01
          2   -1    0    0  501    0  0.00000000000E+00  0.00000000000E+00  0.36303508718E+04  0.36303508718E+04  0.00000000000E+00 0.  1.
         -2   -1    0    0    0  501 -0.00000000000E+00 -0.00000000000E+00 -0.51025893265E+03  0.51025893265E+03  0.00000000000E+00 0. -1.
    2000013    1    1    2    0    0 -0.37898174204E+03 -0.89086838780E+03  0.13889934240E+04  0.19414109243E+04  0.95000000000E+03 0.  0.
   -2000013    1    1    2    0    0  0.37898174204E+03  0.89086838780E+03  0.17310985152E+04  0.21991988802E+04  0.95000000000E+03 0.  0.
<mgrwt>
<rscale>  0 0.27220720E+04</rscale>
<asrwt>0</asrwt>
<pdfrwt beam="1">  1        2 0.55851550E+00 0.27220720E+04</pdfrwt>
<pdfrwt beam="2">  1       -2 0.78501377E-01 0.27220720E+04</pdfrwt>
<totfact> 0.82937155E-01</totfact>
</mgrwt>
</event>
<event>
 4    1  0.2552184E-008  0.2783191E+04  0.7816531E-02  0.8308506E-01
          2   -1    0    0  501    0  0.00000000000E+00  0.00000000000E+00  0.12942907241E+04  0.12942907241E+04  0.00000000000E+00 0.  1.
         -2   -1    0    0    0  501 -0.00000000000E+00 -0.00000000000E+00 -0.14962158490E+04  0.14962158490E+04  0.00000000000E+00 0. -1.
    2000013    1    1    2    0    0 -0.58867291539E+03  0.30649468324E+03 -0.87341830097E+03  0.14511493102E+04  0.95000000000E+03 0.  0.
   -2000013    1    1    2    0    0  0.58867291539E+03 -0.30649468324E+03  0.67149317604E+03  0.13393572629E+04  0.95000000000E+03 0.  0.
<mgrwt>
<rscale>  0 0.27831912E+04</rscale>
<asrwt>0</asrwt>
<pdfrwt beam="1">  1        2 0.19912165E+00 0.27831912E+04</pdfrwt>
<pdfrwt beam="2">  1       -2 0.23018705E+00 0.27831912E+04</pdfrwt>
<totfact> 0.12377555E+00</totfact>
</mgrwt>
</event>
<event>
 4    1  0.2552184E-008  0.3784821E+04  0.7816531E-02  0.8049420E-01
         -2   -1    0    0    0  501 -0.00000000000E+00  0.00000000000E+00  0.15388154560E+04  0.15388154560E+04  0.00000000000E+00 0. -1.
          2   -1    0    0  501    0  0.00000000000E+00 -0.00000000000E+00 -0.23272556550E+04  0.23272556550E+04  0.00000000000E+00 0.  1.
    2000013    1    1    2    0    0 -0.11741851954E+04 -0.26533811563E+03  0.73845868882E+03  0.17020389019E+04  0.95000000000E+03 0.  0.
   -2000013    1    1    2    0    0  0.11741851954E+04  0.26533811563E+03 -0.15268988878E+04  0.21640322091E+04  0.95000000000E+03 0.  0.
<mgrwt>
<rscale>  0 0.37848207E+04</rscale>
<asrwt>0</asrwt>
<pdfrwt beam="2">  1        2 0.35803933E+00 0.37848207E+04</pdfrwt>
<pdfrwt beam="1">  1       -2 0.23674084E+00 0.37848207E+04</pdfrwt>
<totfact> 0.27257153E-01</totfact>
</mgrwt>
</event>
<event>
 4    1  0.2552184E-008  0.2144005E+04  0.7816531E-02  0.8542103E-01
         -2   -1    0    0    0  501 -0.00000000000E+00  0.00000000000E+00  0.12752111022E+04  0.12752111022E+04  0.00000000000E+00 0. -1.
          2   -1    0    0  501    0  0.00000000000E+00 -0.00000000000E+00 -0.90117540328E+03  0.90117540328E+03  0.00000000000E+00 0.  1.
    2000013    1    1    2    0    0 -0.86948237571E+02  0.48633732643E+03  0.13520889062E+03  0.10792893195E+04  0.95000000000E+03 0.  0.
   -2000013    1    1    2    0    0  0.86948237571E+02 -0.48633732643E+03  0.23882680828E+03  0.10970971860E+04  0.95000000000E+03 0.  0.
<mgrwt>
<rscale>  0 0.21440046E+04</rscale>
<asrwt>0</asrwt>
<pdfrwt beam="2">  1        2 0.13864237E+00 0.21440046E+04</pdfrwt>
<pdfrwt beam="1">  1       -2 0.19618632E+00 0.21440046E+04</pdfrwt>
<totfact> 0.37863561E+00</totfact>
</mgrwt>
</event>
<event>
 4    1  0.2552184E-008  0.2627140E+04  0.7816531E-02  0.8359040E-01
          2   -1    0    0  501    0  0.00000000000E+00  0.00000000000E+00  0.12350626097E+04  0.12350626097E+04  0.00000000000E+00 0. -1.
         -2   -1    0    0    0  501 -0.00000000000E+00 -0.00000000000E+00 -0.13970679052E+04  0.13970679052E+04  0.00000000000E+00 0.  1.
    2000013    1    1    2    0    0  0.45417143405E+03 -0.68885691734E+03  0.29676900480E+03  0.12928137477E+04  0.95000000000E+03 0.  0.
   -2000013    1    1    2    0    0 -0.45417143405E+03  0.68885691734E+03 -0.45877430028E+03  0.13393167671E+04  0.95000000000E+03 0.  0.
<mgrwt>
<rscale>  0 0.26271401E+04</rscale>
<asrwt>0</asrwt>
<pdfrwt beam="1">  1        2 0.19000963E+00 0.26271401E+04</pdfrwt>
<pdfrwt beam="2">  1       -2 0.21493352E+00 0.26271401E+04</pdfrwt>
<totfact> 0.16960101E+00</totfact>
</mgrwt>
</event>
<event>
 4    1  0.2552184E-008  0.2585864E+04  0.7816531E-02  0.8373019E-01
          2   -1    0    0  501    0  0.00000000000E+00  0.00000000000E+00  0.10739613859E+04  0.10739613859E+04  0.00000000000E+00 0.  1.
         -2   -1    0    0    0  501 -0.00000000000E+00 -0.00000000000E+00 -0.15565489626E+04  0.15565489626E+04  0.00000000000E+00 0. -1.
    2000013    1    1    2    0    0 -0.13928804228E+03 -0.80579980800E+03  0.81131205569E+02  0.12561038022E+04  0.95000000000E+03 0.  0.
   -2000013    1    1    2    0    0  0.13928804228E+03  0.80579980800E+03 -0.56371878222E+03  0.13744065464E+04  0.95000000000E+03 0.  0.
<mgrwt>
<rscale>  0 0.25858643E+04</rscale>
<asrwt>0</asrwt>
<pdfrwt beam="1">  1        2 0.16522483E+00 0.25858643E+04</pdfrwt>
<pdfrwt beam="2">  1       -2 0.23946907E+00 0.25858643E+04</pdfrwt>
<totfact> 0.14945427E+00</totfact>
</mgrwt>
</event>
<event>
 4    1  0.2552184E-008  0.2669821E+04  0.7816531E-02  0.8344864E-01
         -2   -1    0    0    0  501 -0.00000000000E+00  0.00000000000E+00  0.16113734745E+04  0.16113734745E+04  0.00000000000E+00 0. -1.
          2   -1    0    0  501    0  0.00000000000E+00 -0.00000000000E+00 -0.11058804911E+04  0.11058804911E+04  0.00000000000E+00 0.  1.
    2000013    1    1    2    0    0 -0.73686537416E+03  0.50139662073E+03  0.54967852327E+03  0.14138654921E+04  0.95000000000E+03 0.  0.
   -2000013    1    1    2    0    0  0.73686537416E+03 -0.50139662073E+03 -0.44185539833E+02  0.13033884735E+04  0.95000000000E+03 0.  0.
<mgrwt>
<rscale>  0 0.26698213E+04</rscale>
<asrwt>0</asrwt>
<pdfrwt beam="2">  1        2 0.17013546E+00 0.26698213E+04</pdfrwt>
<pdfrwt beam="1">  1       -2 0.24790361E+00 0.26698213E+04</pdfrwt>
<totfact> 0.12578081E+00</totfact>
</mgrwt>
</event>
<event>
 4    1  0.2552184E-008  0.2810638E+04  0.7816531E-02  0.8299973E-01
         -1   -1    0    0    0  501 -0.00000000000E+00  0.00000000000E+00  0.11274824941E+04  0.11274824941E+04  0.00000000000E+00 0. -1.
          1   -1    0    0  501    0  0.00000000000E+00 -0.00000000000E+00 -0.17516202749E+04  0.17516202749E+04  0.00000000000E+00 0.  1.
    2000013    1    1    2    0    0  0.22400519893E+03  0.92079045608E+03  0.11570112497E+03  0.13468185266E+04  0.95000000000E+03 0.  0.
   -2000013    1    1    2    0    0 -0.22400519893E+03 -0.92079045608E+03 -0.73983890583E+03  0.15322842425E+04  0.95000000000E+03 0.  0.
<mgrwt>
<rscale>  0 0.28106378E+04</rscale>
<asrwt>0</asrwt>
<pdfrwt beam="2">  1        1 0.26948004E+00 0.28106378E+04</pdfrwt>
<pdfrwt beam="1">  1       -1 0.17345885E+00 0.28106378E+04</pdfrwt>
<totfact> 0.88238873E-01</totfact>
</mgrwt>
</event>
<event>
 4    1  0.2552184E-008  0.2588926E+04  0.7816531E-02  0.8371973E-01
          2   -1    0    0  501    0  0.00000000000E+00  0.00000000000E+00  0.16812695129E+04  0.16812695129E+04  0.00000000000E+00 0.  1.
         -2   -1    0    0    0  501 -0.00000000000E+00 -0.00000000000E+00 -0.99664830538E+03  0.99664830538E+03  0.00000000000E+00 0. -1.
    2000013    1    1    2    0    0 -0.79042154967E+03  0.35788800709E+03  0.48962943324E+03  0.13766216015E+04  0.95000000000E+03 0.  0.
   -2000013    1    1    2    0    0  0.79042154967E+03 -0.35788800709E+03  0.19499177429E+03  0.13012962168E+04  0.95000000000E+03 0.  0.
<mgrwt>
<rscale>  0 0.25889260E+04</rscale>
<asrwt>0</asrwt>
<pdfrwt beam="1">  1        2 0.25865685E+00 0.25889260E+04</pdfrwt>
<pdfrwt beam="2">  1       -2 0.15333051E+00 0.25889260E+04</pdfrwt>
<totfact> 0.25137994E+00</totfact>
</mgrwt>
</event>
<event>
 4    1  0.2552184E-008  0.2455479E+04  0.7816531E-02  0.8419020E-01
          1   -1    0    0  501    0  0.00000000000E+00  0.00000000000E+00  0.15462338027E+04  0.15462338027E+04  0.00000000000E+00 0.  1.
         -1   -1    0    0    0  501 -0.00000000000E+00 -0.00000000000E+00 -0.97484849848E+03  0.97484849848E+03  0.00000000000E+00 0. -1.
    2000013    1    1    2    0    0  0.68674533640E+02  0.76123266922E+03  0.13814393499E+03  0.12271002873E+04  0.95000000000E+03 0.  0.
   -2000013    1    1    2    0    0 -0.68674533640E+02 -0.76123266922E+03  0.43324136921E+03  0.12939820139E+04  0.95000000000E+03 0.  0.
<mgrwt>
<rscale>  0 0.24554785E+04</rscale>
<asrwt>0</asrwt>
<pdfrwt beam="1">  1        1 0.23788212E+00 0.24554785E+04</pdfrwt>
<pdfrwt beam="2">  1       -1 0.14997669E+00 0.24554785E+04</pdfrwt>
<totfact> 0.18917511E+00</totfact>
</mgrwt>
</event>
<event>
 4    1  0.2552184E-008  0.3569000E+04  0.7816531E-02  0.8097630E-01
         -2   -1    0    0    0  501 -0.00000000000E+00  0.00000000000E+00  0.98066301333E+03  0.98066301333E+03  0.00000000000E+00 0. -1.
          2   -1    0    0  501    0  0.00000000000E+00 -0.00000000000E+00 -0.32472315500E+04  0.32472315500E+04  0.00000000000E+00 0.  1.
    2000013    1    1    2    0    0 -0.13243329145E+04 -0.70457498788E+03 -0.13440537204E+04  0.22269404988E+04  0.95000000000E+03 0.  0.
   -2000013    1    1    2    0    0  0.13243329145E+04  0.70457498788E+03 -0.92251481628E+03  0.20009540645E+04  0.95000000000E+03 0.  0.
<mgrwt>
<rscale>  0 0.35689998E+04</rscale>
<asrwt>0</asrwt>
<pdfrwt beam="2">  1        2 0.49957409E+00 0.35689998E+04</pdfrwt>
<pdfrwt beam="1">  1       -2 0.15087123E+00 0.35689998E+04</pdfrwt>
<totfact> 0.29075111E-01</totfact>
</mgrwt>
</event>
<event>
 4    1  0.2552184E-008  0.2565359E+04  0.7816531E-02  0.8380064E-01
          1   -1    0    0  501    0  0.00000000000E+00  0.00000000000E+00  0.17030392414E+04  0.17030392414E+04  0.00000000000E+00 0. -1.
         -1   -1    0    0    0  501 -0.00000000000E+00 -0.00000000000E+00 -0.96607688173E+03  0.96607688173E+03  0.00000000000E+00 0.  1.
    2000013    1    1    2    0    0  0.48848612908E+03 -0.70878502174E+03  0.32468430496E+03  0.13224654261E+04  0.95000000000E+03 0.  0.
   -2000013    1    1    2    0    0 -0.48848612908E+03  0.70878502174E+03  0.41227805469E+03  0.13466506970E+04  0.95000000000E+03 0.  0.
<mgrwt>
<rscale>  0 0.25653591E+04</rscale>
<asrwt>0</asrwt>
<pdfrwt beam="1">  1        1 0.26200604E+00 0.25653591E+04</pdfrwt>
<pdfrwt beam="2">  1       -1 0.14862721E+00 0.25653591E+04</pdfrwt>
<totfact> 0.14986012E+00</totfact>
</mgrwt>
</event>
<event>
 4    1  0.2552184E-008  0.2663811E+04  0.7816531E-02  0.8346843E-01
         -2   -1    0    0    0  501 -0.00000000000E+00  0.00000000000E+00  0.10958655147E+04  0.10958655147E+04  0.00000000000E+00 0. -1.
          2   -1    0    0  501    0  0.00000000000E+00 -0.00000000000E+00 -0.16187870635E+04  0.16187870635E+04  0.00000000000E+00 0.  1.
    2000013    1    1    2    0    0  0.43004832585E+03  0.47524339508E+03 -0.95314540214E+03  0.14905649951E+04  0.95000000000E+03 0.  0.
   -2000013    1    1    2    0    0 -0.43004832585E+03 -0.47524339508E+03  0.43022385333E+03  0.12240875831E+04  0.95000000000E+03 0.  0.
<mgrwt>
<rscale>  0 0.26638115E+04</rscale>
<asrwt>0</asrwt>
<pdfrwt beam="2">  1        2 0.24904416E+00 0.26638115E+04</pdfrwt>
<pdfrwt beam="1">  1       -2 0.16859469E+00 0.26638115E+04</pdfrwt>
<totfact> 0.20894442E+00</totfact>
</mgrwt>
</event>
<event>
 4    1  0.2552184E-008  0.3259224E+04  0.7816531E-02  0.8173349E-01
          2   -1    0    0  501    0  0.00000000000E+00  0.00000000000E+00  0.35888738069E+04  0.35888738069E+04  0.00000000000E+00 0.  1.
         -2   -1    0    0    0  501 -0.00000000000E+00 -0.00000000000E+00 -0.73996355707E+03  0.73996355707E+03  0.00000000000E+00 0. -1.
    2000013    1    1    2    0    0 -0.53361205406E+03  0.99605520970E+03  0.23410611888E+04  0.27676588111E+04  0.95000000000E+03 0.  0.
   -2000013    1    1    2    0    0  0.53361205406E+03 -0.99605520970E+03  0.50784906098E+03  0.15611785528E+04  0.95000000000E+03 0.  0.
<mgrwt>
<rscale>  0 0.32592243E+04</rscale>
<asrwt>0</asrwt>
<pdfrwt beam="1">  1        2 0.55213442E+00 0.32592243E+04</pdfrwt>
<pdfrwt beam="2">  1       -2 0.11384055E+00 0.32592243E+04</pdfrwt>
<totfact> 0.35564466E-01</totfact>
</mgrwt>
</event>
<event>
 4    1  0.2552184E-008  0.2429450E+04  0.7816531E-02  0.8428559E-01
          2   -1    0    0  501    0  0.00000000000E+00  0.00000000000E+00  0.14864062255E+04  0.14864062255E+04  0.00000000000E+00 0.  1.
         -2   -1    0    0    0  501 -0.00000000000E+00 -0.00000000000E+00 -0.99270109678E+03  0.99270109678E+03  0.00000000000E+00 0. -1.
    2000013    1    1    2    0    0 -0.71576361026E+03  0.12836544232E+03  0.32167346096E+02  0.11967998875E+04  0.95000000000E+03 0.  0.
   -2000013    1    1    2    0    0  0.71576361026E+03 -0.12836544232E+03  0.46153778264E+03  0.12823074348E+04  0.95000000000E+03 0.  0.
<mgrwt>
<rscale>  0 0.24294502E+04</rscale>
<asrwt>0</asrwt>
<pdfrwt beam="1">  1        2 0.22867788E+00 0.24294502E+04</pdfrwt>
<pdfrwt beam="2">  1       -2 0.15272325E+00 0.24294502E+04</pdfrwt>
<totfact> 0.33109333E+00</totfact>
</mgrwt>
</event>
<event>
 4    1  0.2552184E-008  0.2413679E+04  0.7816531E-02  0.8434400E-01
          2   -1    0    0  501    0  0.00000000000E+00  0.00000000000E+00  0.20914445292E+04  0.20914445292E+04  0.00000000000E+00 0.  1.
         -2   -1    0    0    0  501 -0.00000000000E+00 -0.00000000000E+00 -0.69639024649E+03  0.69639024649E+03  0.00000000000E+00 0. -1.
    2000013    1    1    2    0    0 -0.73803193652E+03 -0.90152778969E+02  0.65847964213E+03  0.13743777145E+04  0.95000000000E+03 0.  0.
   -2000013    1    1    2    0    0  0.73803193652E+03  0.90152778969E+02  0.73657464061E+03  0.14134570613E+04  0.95000000000E+03 0.  0.
<mgrwt>
<rscale>  0 0.24136790E+04</rscale>
<asrwt>0</asrwt>
<pdfrwt beam="1">  1        2 0.32176069E+00 0.24136790E+04</pdfrwt>
<pdfrwt beam="2">  1       -2 0.10713696E+00 0.24136790E+04</pdfrwt>
<totfact> 0.37365955E+00</totfact>
</mgrwt>
</event>
<event>
 4    1  0.2552184E-008  0.2144668E+04  0.7816531E-02  0.8541818E-01
          2   -1    0    0  501    0  0.00000000000E+00  0.00000000000E+00  0.14453380807E+04  0.14453380807E+04  0.00000000000E+00 0.  1.
         -2   -1    0    0    0  501 -0.00000000000E+00 -0.00000000000E+00 -0.79559269585E+03  0.79559269585E+03  0.00000000000E+00 0. -1.
    2000013    1    1    2    0    0  0.42045975636E+03  0.13847848237E+03  0.56185132981E+03  0.11891760230E+04  0.95000000000E+03 0.  0.
   -2000013    1    1    2    0    0 -0.42045975636E+03 -0.13847848237E+03  0.87894055050E+02  0.10517547536E+04  0.95000000000E+03 0.  0.
<mgrwt>
<rscale>  0 0.21446682E+04</rscale>
<asrwt>0</asrwt>
<pdfrwt beam="1">  1        2 0.22235970E+00 0.21446682E+04</pdfrwt>
<pdfrwt beam="2">  1       -2 0.12239888E+00 0.21446682E+04</pdfrwt>
<totfact> 0.63279750E+00</totfact>
</mgrwt>
</event>
<event>
 4    1  0.2552184E-008  0.2704025E+04  0.7816531E-02  0.8333700E-01
         -2   -1    0    0    0  501 -0.00000000000E+00  0.00000000000E+00  0.40859075794E+03  0.40859075794E+03  0.00000000000E+00 0.  1.
          2   -1    0    0  501    0  0.00000000000E+00 -0.00000000000E+00 -0.44737635777E+04  0.44737635777E+04  0.00000000000E+00 0. -1.
    2000013    1    1    2    0    0  0.29764079394E+03  0.90971795904E+03 -0.18588213104E+04  0.22964959114E+04  0.95000000000E+03 0.  0.
   -2000013    1    1    2    0    0 -0.29764079394E+03 -0.90971795904E+03 -0.22063515094E+04  0.25858584242E+04  0.95000000000E+03 0.  0.
<mgrwt>
<rscale>  0 0.27040255E+04</rscale>
<asrwt>0</asrwt>
<pdfrwt beam="2">  1        2 0.68827134E+00 0.27040255E+04</pdfrwt>
<pdfrwt beam="1">  1       -2 0.62860115E-01 0.27040255E+04</pdfrwt>
<totfact> 0.26923703E-01</totfact>
</mgrwt>
</event>
<event>
 4    1  0.2552184E-008  0.2326079E+04  0.7816531E-02  0.8467709E-01
         -2   -1    0    0    0  501 -0.00000000000E+00  0.00000000000E+00  0.50788077998E+03  0.50788077998E+03  0.00000000000E+00 0. -1.
          2   -1    0    0  501    0  0.00000000000E+00 -0.00000000000E+00 -0.26633442157E+04  0.26633442157E+04  0.00000000000E+00 0.  1.
    2000013    1    1    2    0    0 -0.65332628362E+03 -0.15048620331E+03 -0.10421801029E+04  0.15614482691E+04  0.95000000000E+03 0.  0.
   -2000013    1    1    2    0    0  0.65332628362E+03  0.15048620331E+03 -0.11132833329E+04  0.16097767266E+04  0.95000000000E+03 0.  0.
<mgrwt>
<rscale>  0 0.23260794E+04</rscale>
<asrwt>0</asrwt>
<pdfrwt beam="2">  1        2 0.40974526E+00 0.23260794E+04</pdfrwt>
<pdfrwt beam="1">  1       -2 0.78135505E-01 0.23260794E+04</pdfrwt>
<totfact> 0.36819877E+00</totfact>
</mgrwt>
</event>
<event>
 4    1  0.2552184E-008  0.2198441E+04  0.7816531E-02  0.8519077E-01
         -2   -1    0    0    0  501 -0.00000000000E+00  0.00000000000E+00  0.13258503161E+04  0.13258503161E+04  0.00000000000E+00 0. -1.
          2   -1    0    0  501    0  0.00000000000E+00 -0.00000000000E+00 -0.91132851743E+03  0.91132851743E+03  0.00000000000E+00 0.  1.
    2000013    1    1    2    0    0  0.42752333051E+03 -0.31800749437E+03  0.35778706570E+03  0.11464800692E+04  0.95000000000E+03 0.  0.
   -2000013    1    1    2    0    0 -0.42752333051E+03  0.31800749437E+03  0.56734732940E+02  0.10906987643E+04  0.95000000000E+03 0.  0.
<mgrwt>
<rscale>  0 0.21984405E+04</rscale>
<asrwt>0</asrwt>
<pdfrwt beam="2">  1        2 0.14020439E+00 0.21984405E+04</pdfrwt>
<pdfrwt beam="1">  1       -2 0.20397697E+00 0.21984405E+04</pdfrwt>
<totfact> 0.32979304E+00</totfact>
</mgrwt>
</event>
<event>
 4    1  0.2552184E-008  0.2071964E+04  0.7816531E-02  0.8573695E-01
         -2   -1    0    0    0  501 -0.00000000000E+00  0.00000000000E+00  0.92755857884E+03  0.92755857884E+03  0.00000000000E+00 0.  1.
          2   -1    0    0  501    0  0.00000000000E+00 -0.00000000000E+00 -0.11570786315E+04  0.11570786315E+04  0.00000000000E+00 0. -1.
    2000013    1    1    2    0    0 -0.26473749979E+03 -0.26946674847E+03 -0.28329566022E+03  0.10608744994E+04  0.95000000000E+03 0.  0.
   -2000013    1    1    2    0    0  0.26473749979E+03  0.26946674847E+03  0.53775607602E+02  0.10237627109E+04  0.95000000000E+03 0.  0.
<mgrwt>
<rscale>  0 0.20719635E+04</rscale>
<asrwt>0</asrwt>
<pdfrwt beam="2">  1        2 0.17801210E+00 0.20719635E+04</pdfrwt>
<pdfrwt beam="1">  1       -2 0.14270132E+00 0.20719635E+04</pdfrwt>
<totfact> 0.63450266E+00</totfact>
</mgrwt>
</event>
<event>
 4    1  0.2552184E-008  0.2767621E+04  0.7816531E-02  0.8313392E-01
         -1   -1    0    0    0  501 -0.00000000000E+00  0.00000000000E+00  0.58229298779E+03  0.58229298779E+03  0.00000000000E+00 0. -1.
          1   -1    0    0  501    0  0.00000000000E+00 -0.00000000000E+00 -0.32886045134E+04  0.32886045134E+04  0.00000000000E+00 0.  1.
    2000013    1    1    2    0    0 -0.50683060519E+03 -0.97202701986E+02 -0.25612623615E+04  0.27800882202E+04  0.95000000000E+03 0.  0.
   -2000013    1    1    2    0    0  0.50683060519E+03  0.97202701986E+02 -0.14504916419E+03  0.10908092811E+04  0.95000000000E+03 0.  0.
<mgrwt>
<rscale>  0 0.27676209E+04</rscale>
<asrwt>0</asrwt>
<pdfrwt beam="2">  1        1 0.50593913E+00 0.27676209E+04</pdfrwt>
<pdfrwt beam="1">  1       -1 0.89583541E-01 0.27676209E+04</pdfrwt>
<totfact> 0.38583032E-01</totfact>
</mgrwt>
</event>
<event>
 4    1  0.2552184E-008  0.2595908E+04  0.7816531E-02  0.8369593E-01
          2   -1    0    0  501    0  0.00000000000E+00  0.00000000000E+00  0.18031583831E+04  0.18031583831E+04  0.00000000000E+00 0.  1.
         -2   -1    0    0    0  501 -0.00000000000E+00 -0.00000000000E+00 -0.93429637393E+03  0.93429637393E+03  0.00000000000E+00 0. -1.
    2000013    1    1    2    0    0  0.52463201269E+03  0.69195854511E+03  0.25753756695E+03  0.13125817976E+04  0.95000000000E+03 0.  0.
   -2000013    1    1    2    0    0 -0.52463201269E+03 -0.69195854511E+03  0.61132444218E+03  0.14248729594E+04  0.95000000000E+03 0.  0.
<mgrwt>
<rscale>  0 0.25959078E+04</rscale>
<asrwt>0</asrwt>
<pdfrwt beam="1">  1        2 0.27740898E+00 0.25959078E+04</pdfrwt>
<pdfrwt beam="2">  1       -2 0.14373790E+00 0.25959078E+04</pdfrwt>
<totfact> 0.25499858E+00</totfact>
</mgrwt>
</event>
<event>
 4    1  0.2552184E-008  0.2631920E+04  0.7816531E-02  0.8357439E-01
          1   -1    0    0  501    0  0.00000000000E+00  0.00000000000E+00  0.10625074123E+04  0.10625074123E+04  0.00000000000E+00 0.  1.
         -1   -1    0    0    0  501 -0.00000000000E+00 -0.00000000000E+00 -0.16298721043E+04  0.16298721043E+04  0.00000000000E+00 0. -1.
    2000013    1    1    2    0    0  0.37812999226E+03 -0.28289174404E+03 -0.10801831980E+04  0.15140362516E+04  0.95000000000E+03 0.  0.
   -2000013    1    1    2    0    0 -0.37812999226E+03  0.28289174404E+03  0.51281850601E+03  0.11783432649E+04  0.95000000000E+03 0.  0.
<mgrwt>
<rscale>  0 0.26319204E+04</rscale>
<asrwt>0</asrwt>
<pdfrwt beam="1">  1        1 0.16346268E+00 0.26319204E+04</pdfrwt>
<pdfrwt beam="2">  1       -1 0.25074956E+00 0.26319204E+04</pdfrwt>
<totfact> 0.81961728E-01</totfact>
</mgrwt>
</event>
<event>
 4    1  0.2552184E-008  0.3095521E+04  0.7816531E-02  0.8216968E-01
          2   -1    0    0  501    0  0.00000000000E+00  0.00000000000E+00  0.25166273517E+04  0.25166273517E+04  0.00000000000E+00 0.  1.
         -2   -1    0    0    0  501 -0.00000000000E+00 -0.00000000000E+00 -0.95189414672E+03  0.95189414672E+03  0.00000000000E+00 0. -1.
    2000013    1    1    2    0    0  0.10883283809E+04  0.52205615268E+03  0.56958560940E+03  0.16382701418E+04  0.95000000000E+03 0.  0.
   -2000013    1    1    2    0    0 -0.10883283809E+04 -0.52205615268E+03  0.99514759557E+03  0.18302513566E+04  0.95000000000E+03 0.  0.
<mgrwt>
<rscale>  0 0.30955212E+04</rscale>
<asrwt>0</asrwt>
<pdfrwt beam="1">  1        2 0.38717344E+00 0.30955212E+04</pdfrwt>
<pdfrwt beam="2">  1       -2 0.14644525E+00 0.30955212E+04</pdfrwt>
<totfact> 0.92290342E-01</totfact>
</mgrwt>
</event>
<event>
 4    1  0.2552184E-008  0.6231570E+04  0.7816531E-02  0.7662335E-01
         -2   -1    0    0    0  501 -0.00000000000E+00  0.00000000000E+00  0.25886217005E+04  0.25886217005E+04  0.00000000000E+00 0. -1.
          2   -1    0    0  501    0  0.00000000000E+00 -0.00000000000E+00 -0.37503034069E+04  0.37503034069E+04  0.00000000000E+00 0.  1.
    2000013    1    1    2    0    0 -0.16107709545E+04 -0.24212814892E+04 -0.11812892514E+04  0.32795017019E+04  0.95000000000E+03 0.  0.
   -2000013    1    1    2    0    0  0.16107709545E+04  0.24212814892E+04  0.19607545043E+02  0.30594234054E+04  0.95000000000E+03 0.  0.
<mgrwt>
<rscale>  0 0.62315702E+04</rscale>
<asrwt>0</asrwt>
<pdfrwt beam="2">  1        2 0.57696975E+00 0.62315702E+04</pdfrwt>
<pdfrwt beam="1">  1       -2 0.39824950E+00 0.62315702E+04</pdfrwt>
<totfact> 0.26920116E-03</totfact>
</mgrwt>
</event>
<event>
 4    1  0.2552184E-008  0.3772380E+04  0.7816531E-02  0.8052108E-01
         -2   -1    0    0    0  501 -0.00000000000E+00  0.00000000000E+00  0.26481756176E+04  0.26481756176E+04  0.00000000000E+00 0. -1.
          2   -1    0    0  501    0  0.00000000000E+00 -0.00000000000E+00 -0.13434583259E+04  0.13434583259E+04  0.00000000000E+00 0.  1.
    2000013    1    1    2    0    0 -0.67513332441E+03 -0.57312334887E+03  0.20996799073E+04  0.24688926854E+04  0.95000000000E+03 0.  0.
   -2000013    1    1    2    0    0  0.67513332441E+03  0.57312334887E+03 -0.79496261564E+03  0.15227412581E+04  0.95000000000E+03 0.  0.
<mgrwt>
<rscale>  0 0.37723805E+04</rscale>
<asrwt>0</asrwt>
<pdfrwt beam="2">  1        2 0.20668590E+00 0.37723805E+04</pdfrwt>
<pdfrwt beam="1">  1       -2 0.40741163E+00 0.37723805E+04</pdfrwt>
<totfact> 0.83127764E-02</totfact>
</mgrwt>
</event>
<event>
 4    1  0.2552184E-008  0.2371531E+04  0.7816531E-02  0.8450239E-01
          2   -1    0    0  501    0  0.00000000000E+00  0.00000000000E+00  0.44946374401E+04  0.44946374401E+04  0.00000000000E+00 0.  1.
         -2   -1    0    0    0  501 -0.00000000000E+00 -0.00000000000E+00 -0.31282612603E+03  0.31282612603E+03  0.00000000000E+00 0. -1.
    2000013    1    1    2    0    0 -0.24722836986E+03 -0.66503945045E+03  0.21149495354E+04  0.24246465464E+04  0.95000000000E+03 0.  0.
   -2000013    1    1    2    0    0  0.24722836986E+03  0.66503945045E+03  0.20668617787E+04  0.23828170198E+04  0.95000000000E+03 0.  0.
<mgrwt>
<rscale>  0 0.23715312E+04</rscale>
<asrwt>0</asrwt>
<pdfrwt beam="1">  1        2 0.69148264E+00 0.23715312E+04</pdfrwt>
<pdfrwt beam="2">  1       -2 0.48127100E-01 0.23715312E+04</pdfrwt>
<totfact> 0.46300395E-01</totfact>
</mgrwt>
</event>
<event>
 4    1  0.2552184E-008  0.2926066E+04  0.7816531E-02  0.8265164E-01
          2   -1    0    0  501    0  0.00000000000E+00  0.00000000000E+00  0.26206205277E+04  0.26206205277E+04  0.00000000000E+00 0.  1.
         -2   -1    0    0    0  501 -0.00000000000E+00 -0.00000000000E+00 -0.81677816253E+03  0.81677816253E+03  0.00000000000E+00 0. -1.
    2000013    1    1    2    0    0  0.26998135642E+03 -0.91251352224E+03  0.15792083802E+04  0.20741190827E+04  0.95000000000E+03 0.  0.
   -2000013    1    1    2    0    0 -0.26998135642E+03  0.91251352224E+03  0.22463398493E+03  0.13632796075E+04  0.95000000000E+03 0.  0.
<mgrwt>
<rscale>  0 0.29260660E+04</rscale>
<asrwt>0</asrwt>
<pdfrwt beam="1">  1        2 0.40317238E+00 0.29260660E+04</pdfrwt>
<pdfrwt beam="2">  1       -2 0.12565818E+00 0.29260660E+04</pdfrwt>
<totfact> 0.12056481E+00</totfact>
</mgrwt>
</event>
<event>
 4    1  0.2552184E-008  0.3152595E+04  0.7816531E-02  0.8201450E-01
          2   -1    0    0  501    0  0.00000000000E+00  0.00000000000E+00  0.18567649821E+04  0.18567649821E+04  0.00000000000E+00 0.  1.
         -2   -1    0    0    0  501 -0.00000000000E+00 -0.00000000000E+00 -0.13381954255E+04  0.13381954255E+04  0.00000000000E+00 0. -1.
    2000013    1    1    2    0    0 -0.10069479628E+04 -0.64694341480E+03  0.65144006455E+03  0.16611303800E+04  0.95000000000E+03 0.  0.
   -2000013    1    1    2    0    0  0.10069479628E+04  0.64694341480E+03 -0.13287050802E+03  0.15338300276E+04  0.95000000000E+03 0.  0.
<mgrwt>
<rscale>  0 0.31525954E+04</rscale>
<asrwt>0</asrwt>
<pdfrwt beam="1">  1        2 0.28565615E+00 0.31525954E+04</pdfrwt>
<pdfrwt beam="2">  1       -2 0.20587622E+00 0.31525954E+04</pdfrwt>
<totfact> 0.82604528E-01</totfact>
</mgrwt>
</event>
<event>
 4    1  0.2552184E-008  0.2502931E+04  0.7816531E-02  0.8401942E-01
         -2   -1    0    0    0  501 -0.00000000000E+00  0.00000000000E+00  0.64659853342E+03  0.64659853342E+03  0.00000000000E+00 0. -1.
          2   -1    0    0  501    0  0.00000000000E+00 -0.00000000000E+00 -0.24221611167E+04  0.24221611167E+04  0.00000000000E+00 0.  1.
    2000013    1    1    2    0    0 -0.67987716145E+03  0.83733174355E+02 -0.14283940540E+04  0.18471745377E+04  0.95000000000E+03 0.  0.
   -2000013    1    1    2    0    0  0.67987716145E+03 -0.83733174355E+02 -0.34716852924E+03  0.12215851124E+04  0.95000000000E+03 0.  0.
<mgrwt>
<rscale>  0 0.25029309E+04</rscale>
<asrwt>0</asrwt>
<pdfrwt beam="2">  1        2 0.37264017E+00 0.25029309E+04</pdfrwt>
<pdfrwt beam="1">  1       -2 0.99476699E-01 0.25029309E+04</pdfrwt>
<totfact> 0.28785610E+00</totfact>
</mgrwt>
</event>
<event>
 4    1  0.2552184E-008  0.2302692E+04  0.7816531E-02  0.8476860E-01
          2   -1    0    0  501    0  0.00000000000E+00  0.00000000000E+00  0.11828164385E+04  0.11828164385E+04  0.00000000000E+00 0.  1.
         -2   -1    0    0    0  501 -0.00000000000E+00 -0.00000000000E+00 -0.11207128969E+04  0.11207128969E+04  0.00000000000E+00 0. -1.
    2000013    1    1    2    0    0 -0.62385652618E+03 -0.18308607746E+03  0.11546979606E+02  0.11512388153E+04  0.95000000000E+03 0.  0.
   -2000013    1    1    2    0    0  0.62385652618E+03  0.18308607746E+03  0.50556561971E+02  0.11522905202E+04  0.95000000000E+03 0.  0.
<mgrwt>
<rscale>  0 0.23026920E+04</rscale>
<asrwt>0</asrwt>
<pdfrwt beam="1">  1        2 0.18197176E+00 0.23026920E+04</pdfrwt>
<pdfrwt beam="2">  1       -2 0.17241737E+00 0.23026920E+04</pdfrwt>
<totfact> 0.36020540E+00</totfact>
</mgrwt>
</event>
<event>
 4    1  0.2552184E-008  0.2077921E+04  0.7816531E-02  0.8571032E-01
          2   -1    0    0  501    0  0.00000000000E+00  0.00000000000E+00  0.24893433364E+04  0.24893433364E+04  0.00000000000E+00 0.  1.
         -2   -1    0    0    0  501 -0.00000000000E+00 -0.00000000000E+00 -0.43362392750E+03  0.43362392750E+03  0.00000000000E+00 0. -1.
    2000013    1    1    2    0    0 -0.67062212906E+01 -0.19039075519E+03  0.50031723613E+03  0.10904636399E+04  0.95000000000E+03 0.  0.
   -2000013    1    1    2    0    0  0.67062212906E+01  0.19039075519E+03  0.15554021728E+04  0.18325036240E+04  0.95000000000E+03 0.  0.
<mgrwt>
<rscale>  0 0.20779209E+04</rscale>
<asrwt>0</asrwt>
<pdfrwt beam="1">  1        2 0.38297589E+00 0.20779209E+04</pdfrwt>
<pdfrwt beam="2">  1       -2 0.66711375E-01 0.20779209E+04</pdfrwt>
<totfact> 0.67307771E+00</totfact>
</mgrwt>
</event>
<event>
 4    1  0.2552184E-008  0.5114534E+04  0.7816531E-02  0.7811078E-01
         -2   -1    0    0    0  501 -0.00000000000E+00  0.00000000000E+00  0.22611819270E+04  0.22611819270E+04  0.00000000000E+00 0. -1.
          2   -1    0    0  501    0  0.00000000000E+00 -0.00000000000E+00 -0.28921221804E+04  0.28921221804E+04  0.00000000000E+00 0.  1.
    2000013    1    1    2    0    0  0.66034935744E+03  0.18881291037E+04  0.97329633118E+03  0.24188630665E+04  0.95000000000E+03 0.  0.
   -2000013    1    1    2    0    0 -0.66034935744E+03 -0.18881291037E+04 -0.16042365846E+04  0.27344410408E+04  0.95000000000E+03 0.  0.
<mgrwt>
<rscale>  0 0.51145340E+04</rscale>
<asrwt>0</asrwt>
<pdfrwt beam="2">  1        2 0.44494187E+00 0.51145340E+04</pdfrwt>
<pdfrwt beam="1">  1       -2 0.34787415E+00 0.51145340E+04</pdfrwt>
<totfact> 0.23513369E-02</totfact>
</mgrwt>
</event>
<event>
 4    1  0.2552184E-008  0.3298629E+04  0.7816531E-02  0.8163244E-01
          2   -1    0    0  501    0  0.00000000000E+00  0.00000000000E+00  0.21750925889E+04  0.21750925889E+04  0.00000000000E+00 0.  1.
         -2   -1    0    0    0  501 -0.00000000000E+00 -0.00000000000E+00 -0.12506307769E+04  0.12506307769E+04  0.00000000000E+00 0. -1.
    2000013    1    1    2    0    0 -0.51059292008E+03 -0.34482274799E+03 -0.78319506603E+03  0.13767724463E+04  0.95000000000E+03 0.  0.
   -2000013    1    1    2    0    0  0.51059292008E+03  0.34482274799E+03  0.17076568780E+04  0.20489509195E+04  0.95000000000E+03 0.  0.
<mgrwt>
<rscale>  0 0.32986286E+04</rscale>
<asrwt>0</asrwt>
<pdfrwt beam="1">  1        2 0.33462963E+00 0.32986286E+04</pdfrwt>
<pdfrwt beam="2">  1       -2 0.19240474E+00 0.32986286E+04</pdfrwt>
<totfact> 0.66535955E-01</totfact>
</mgrwt>
</event>
<event>
 4    1  0.2552184E-008  0.2237772E+04  0.7816531E-02  0.8502869E-01
         -2   -1    0    0    0  501 -0.00000000000E+00  0.00000000000E+00  0.70062207374E+03  0.70062207374E+03  0.00000000000E+00 0. -1.
          2   -1    0    0  501    0  0.00000000000E+00 -0.00000000000E+00 -0.17868497692E+04  0.17868497692E+04  0.00000000000E+00 0.  1.
    2000013    1    1    2    0    0  0.18577824055E+03  0.30083804626E+03 -0.10696683460E+04  0.14736714203E+04  0.95000000000E+03 0.  0.
   -2000013    1    1    2    0    0 -0.18577824055E+03 -0.30083804626E+03 -0.16559349454E+02  0.10138004226E+04  0.95000000000E+03 0.  0.
<mgrwt>
<rscale>  0 0.22377725E+04</rscale>
<asrwt>0</asrwt>
<pdfrwt beam="2">  1        2 0.27489996E+00 0.22377725E+04</pdfrwt>
<pdfrwt beam="1">  1       -2 0.10778801E+00 0.22377725E+04</pdfrwt>
<totfact> 0.55184085E+00</totfact>
</mgrwt>
</event>
<event>
 4    1  0.2552184E-008  0.2318737E+04  0.7816531E-02  0.8470570E-01
          2   -1    0    0  501    0  0.00000000000E+00  0.00000000000E+00  0.28652191589E+04  0.28652191589E+04  0.00000000000E+00 0.  1.
         -2   -1    0    0    0  501 -0.00000000000E+00 -0.00000000000E+00 -0.46912130408E+03  0.46912130408E+03  0.00000000000E+00 0. -1.
    2000013    1    1    2    0    0  0.43424865008E+03 -0.36634943489E+03  0.70230104203E+03  0.13109197352E+04  0.95000000000E+03 0.  0.
   -2000013    1    1    2    0    0 -0.43424865008E+03  0.36634943489E+03  0.16937968128E+04  0.20234207278E+04  0.95000000000E+03 0.  0.
<mgrwt>
<rscale>  0 0.23187370E+04</rscale>
<asrwt>0</asrwt>
<pdfrwt beam="1">  1        2 0.44080294E+00 0.23187370E+04</pdfrwt>
<pdfrwt beam="2">  1       -2 0.72172510E-01 0.23187370E+04</pdfrwt>
<totfact> 0.33223324E+00</totfact>
</mgrwt>
</event>
<event>
 4    1  0.2552184E-008  0.3208448E+04  0.7816531E-02  0.8186590E-01
         -2   -1    0    0    0  501 -0.00000000000E+00  0.00000000000E+00  0.11389374858E+04  0.11389374858E+04  0.00000000000E+00 0. -1.
          2   -1    0    0  501    0  0.00000000000E+00 -0.00000000000E+00 -0.22595931942E+04  0.22595931942E+04  0.00000000000E+00 0.  1.
    2000013    1    1    2    0    0  0.40189358948E+03 -0.11889814451E+04 -0.88824917827E+03  0.18073964526E+04  0.95000000000E+03 0.  0.
   -2000013    1    1    2    0    0 -0.40189358948E+03  0.11889814451E+04 -0.23240653015E+03  0.15911342273E+04  0.95000000000E+03 0.  0.
<mgrwt>
<rscale>  0 0.32084485E+04</rscale>
<asrwt>0</asrwt>
<pdfrwt beam="2">  1        2 0.34762972E+00 0.32084485E+04</pdfrwt>
<pdfrwt beam="1">  1       -2 0.17522115E+00 0.32084485E+04</pdfrwt>
<totfact> 0.78729065E-01</totfact>
</mgrwt>
</event>
<event>
 4    1  0.2552184E-008  0.3393224E+04  0.7816531E-02  0.8139571E-01
         -2   -1    0    0    0  501 -0.00000000000E+00  0.00000000000E+00  0.17193727548E+04  0.17193727548E+04  0.00000000000E+00 0. -1.
          2   -1    0    0  501    0  0.00000000000E+00 -0.00000000000E+00 -0.16741527292E+04  0.16741527292E+04  0.00000000000E+00 0.  1.
    2000013    1    1    2    0    0 -0.64066285531E+03  0.11002651746E+04 -0.57322828860E+03  0.16888229686E+04  0.95000000000E+03 0.  0.
   -2000013    1    1    2    0    0  0.64066285531E+03 -0.11002651746E+04  0.61844831415E+03  0.17047025153E+04  0.95000000000E+03 0.  0.
<mgrwt>
<rscale>  0 0.33932242E+04</rscale>
<asrwt>0</asrwt>
<pdfrwt beam="2">  1        2 0.25756196E+00 0.33932242E+04</pdfrwt>
<pdfrwt beam="1">  1       -2 0.26451889E+00 0.33932242E+04</pdfrwt>
<totfact> 0.43992705E-01</totfact>
</mgrwt>
</event>
<event>
 4    1  0.2552184E-008  0.2359104E+04  0.7816531E-02  0.8454975E-01
          2   -1    0    0  501    0  0.00000000000E+00  0.00000000000E+00  0.27791486317E+04  0.27791486317E+04  0.00000000000E+00 0.  1.
         -2   -1    0    0    0  501 -0.00000000000E+00 -0.00000000000E+00 -0.50063637634E+03  0.50063637634E+03  0.00000000000E+00 0. -1.
    2000013    1    1    2    0    0 -0.61211016110E+03 -0.76928334091E+02  0.15966647914E+04  0.19576606636E+04  0.95000000000E+03 0.  0.
   -2000013    1    1    2    0    0  0.61211016110E+03  0.76928334091E+02  0.68184746396E+03  0.13221243444E+04  0.95000000000E+03 0.  0.
<mgrwt>
<rscale>  0 0.23591040E+04</rscale>
<asrwt>0</asrwt>
<pdfrwt beam="1">  1        2 0.42756132E+00 0.23591040E+04</pdfrwt>
<pdfrwt beam="2">  1       -2 0.77020983E-01 0.23591040E+04</pdfrwt>
<totfact> 0.32331811E+00</totfact>
</mgrwt>
</event>
<event>
 4    1  0.2552184E-008  0.2620263E+04  0.7816531E-02  0.8361351E-01
         -2   -1    0    0    0  501 -0.00000000000E+00  0.00000000000E+00  0.10393852910E+04  0.10393852910E+04  0.00000000000E+00 0. -1.
          2   -1    0    0  501    0  0.00000000000E+00 -0.00000000000E+00 -0.16514032108E+04  0.16514032108E+04  0.00000000000E+00 0.  1.
    2000013    1    1    2    0    0 -0.27200114371E+03 -0.58519092367E+03 -0.95346366150E+03  0.14926573596E+04  0.95000000000E+03 0.  0.
   -2000013    1    1    2    0    0  0.27200114371E+03  0.58519092367E+03  0.34144574176E+03  0.11981311422E+04  0.95000000000E+03 0.  0.
<mgrwt>
<rscale>  0 0.26202627E+04</rscale>
<asrwt>0</asrwt>
<pdfrwt beam="2">  1        2 0.25406203E+00 0.26202627E+04</pdfrwt>
<pdfrwt beam="1">  1       -2 0.15990543E+00 0.26202627E+04</pdfrwt>
<totfact> 0.23259764E+00</totfact>
</mgrwt>
</event>
<event>
 4    1  0.2552184E-008  0.2346677E+04  0.7816531E-02  0.8459741E-01
          2   -1    0    0  501    0  0.00000000000E+00  0.00000000000E+00  0.19339091268E+04  0.19339091268E+04  0.00000000000E+00 0.  1.
         -2   -1    0    0    0  501 -0.00000000000E+00 -0.00000000000E+00 -0.71188628844E+03  0.71188628844E+03  0.00000000000E+00 0. -1.
    2000013    1    1    2    0    0  0.16820755277E+03  0.18652421026E+03  0.13339425078E+04  0.16568004333E+04  0.95000000000E+03 0.  0.
   -2000013    1    1    2    0    0 -0.16820755277E+03 -0.18652421026E+03 -0.11191966943E+03  0.98899498190E+03  0.95000000000E+03 0.  0.
<mgrwt>
<rscale>  0 0.23466771E+04</rscale>
<asrwt>0</asrwt>
<pdfrwt beam="1">  1        2 0.29752448E+00 0.23466771E+04</pdfrwt>
<pdfrwt beam="2">  1       -2 0.10952097E+00 0.23466771E+04</pdfrwt>
<totfact> 0.43605155E+00</totfact>
</mgrwt>
</event>
<event>
 4    1  0.2552184E-008  0.2604935E+04  0.7816531E-02  0.8366527E-01
          2   -1    0    0  501    0  0.00000000000E+00  0.00000000000E+00  0.10935613162E+04  0.10935613162E+04  0.00000000000E+00 0.  1.
         -2   -1    0    0    0  501 -0.00000000000E+00 -0.00000000000E+00 -0.15512820908E+04  0.15512820908E+04  0.00000000000E+00 0. -1.
    2000013    1    1    2    0    0 -0.72882499293E+03 -0.40202220559E+03 -0.55171680987E+03  0.13782957456E+04  0.95000000000E+03 0.  0.
   -2000013    1    1    2    0    0  0.72882499293E+03  0.40202220559E+03  0.93996035282E+02  0.12665476615E+04  0.95000000000E+03 0.  0.
<mgrwt>
<rscale>  0 0.26049354E+04</rscale>
<asrwt>0</asrwt>
<pdfrwt beam="1">  1        2 0.16824020E+00 0.26049354E+04</pdfrwt>
<pdfrwt beam="2">  1       -2 0.23865878E+00 0.26049354E+04</pdfrwt>
<totfact> 0.14678093E+00</totfact>
</mgrwt>
</event>
<event>
 4    1  0.2552184E-008  0.2365364E+04  0.7816531E-02  0.8452586E-01
         -2   -1    0    0    0  501 -0.00000000000E+00  0.00000000000E+00  0.18163018992E+04  0.18163018992E+04  0.00000000000E+00 0. -1.
          2   -1    0    0  501    0  0.00000000000E+00 -0.00000000000E+00 -0.77010165459E+03  0.77010165459E+03  0.00000000000E+00 0.  1.
    2000013    1    1    2    0    0  0.52897030011E+03 -0.28904372430E+03  0.92169350996E+03  0.14544328033E+04  0.95000000000E+03 0.  0.
   -2000013    1    1    2    0    0 -0.52897030011E+03  0.28904372430E+03  0.12450673462E+03  0.11319707505E+04  0.95000000000E+03 0.  0.
<mgrwt>
<rscale>  0 0.23653643E+04</rscale>
<asrwt>0</asrwt>
<pdfrwt beam="2">  1        2 0.11847718E+00 0.23653643E+04</pdfrwt>
<pdfrwt beam="1">  1       -2 0.27943106E+00 0.23653643E+04</pdfrwt>
<totfact> 0.13869049E+00</totfact>
</mgrwt>
</event>
<event>
 4    1  0.2552184E-008  0.2430065E+04  0.7816531E-02  0.8428333E-01
         -2   -1    0    0    0  501 -0.00000000000E+00  0.00000000000E+00  0.12569623572E+04  0.12569623572E+04  0.00000000000E+00 0. -1.
          2   -1    0    0  501    0  0.00000000000E+00 -0.00000000000E+00 -0.11745009681E+04  0.11745009681E+04  0.00000000000E+00 0.  1.
    2000013    1    1    2    0    0 -0.69917070256E+03  0.29100984279E+03  0.24574627065E+02  0.12151667837E+04  0.95000000000E+03 0.  0.
   -2000013    1    1    2    0    0  0.69917070256E+03 -0.29100984279E+03  0.57886762039E+02  0.12162965416E+04  0.95000000000E+03 0.  0.
<mgrwt>
<rscale>  0 0.24300646E+04</rscale>
<asrwt>0</asrwt>
<pdfrwt beam="2">  1        2 0.18069246E+00 0.24300646E+04</pdfrwt>
<pdfrwt beam="1">  1       -2 0.19337883E+00 0.24300646E+04</pdfrwt>
<totfact> 0.25894668E+00</totfact>
</mgrwt>
</event>
<event>
 4    1  0.2552184E-008  0.2806487E+04  0.7816531E-02  0.8301257E-01
          2   -1    0    0  501    0  0.00000000000E+00  0.00000000000E+00  0.21176978838E+04  0.21176978838E+04  0.00000000000E+00 0.  1.
         -2   -1    0    0    0  501 -0.00000000000E+00 -0.00000000000E+00 -0.92982676602E+03  0.92982676602E+03  0.00000000000E+00 0. -1.
    2000013    1    1    2    0    0  0.78779650488E+03 -0.50283773730E+03  0.10711364719E+04  0.17097667866E+04  0.95000000000E+03 0.  0.
   -2000013    1    1    2    0    0 -0.78779650488E+03  0.50283773730E+03  0.11673464591E+03  0.13377578633E+04  0.95000000000E+03 0.  0.
<mgrwt>
<rscale>  0 0.28064869E+04</rscale>
<asrwt>0</asrwt>
<pdfrwt beam="1">  1        2 0.32579967E+00 0.28064869E+04</pdfrwt>
<pdfrwt beam="2">  1       -2 0.14305027E+00 0.28064869E+04</pdfrwt>
<totfact> 0.16959114E+00</totfact>
</mgrwt>
</event>
<event>
 4    1  0.2552184E-008  0.2528442E+04  0.7816531E-02  0.8392923E-01
          2   -1    0    0  501    0  0.00000000000E+00  0.00000000000E+00  0.22442326647E+04  0.22442326647E+04  0.00000000000E+00 0.  1.
         -2   -1    0    0    0  501 -0.00000000000E+00 -0.00000000000E+00 -0.71216072719E+03  0.71216072719E+03  0.00000000000E+00 0. -1.
    2000013    1    1    2    0    0 -0.77190320555E+03  0.79310003113E+02  0.11238160560E+04  0.16636066732E+04  0.95000000000E+03 0.  0.
   -2000013    1    1    2    0    0  0.77190320555E+03 -0.79310003113E+02  0.40825588155E+03  0.12927867187E+04  0.95000000000E+03 0.  0.
<mgrwt>
<rscale>  0 0.25284417E+04</rscale>
<asrwt>0</asrwt>
<pdfrwt beam="1">  1        2 0.34526656E+00 0.25284417E+04</pdfrwt>
<pdfrwt beam="2">  1       -2 0.10956319E+00 0.25284417E+04</pdfrwt>
<totfact> 0.28775392E+00</totfact>
</mgrwt>
</event>
<event>
 4    1  0.2552184E-008  0.2369666E+04  0.7816531E-02  0.8450948E-01
         -2   -1    0    0    0  501 -0.00000000000E+00  0.00000000000E+00  0.12798172395E+04  0.12798172395E+04  0.00000000000E+00 0. -1.
          2   -1    0    0  501    0  0.00000000000E+00 -0.00000000000E+00 -0.10968978783E+04  0.10968978783E+04  0.00000000000E+00 0.  1.
    2000013    1    1    2    0    0  0.32901107411E+03 -0.55304860201E+03 -0.20474543166E+03  0.11655606955E+04  0.95000000000E+03 0.  0.
   -2000013    1    1    2    0    0 -0.32901107411E+03  0.55304860201E+03  0.38766479285E+03  0.12111544223E+04  0.95000000000E+03 0.  0.
<mgrwt>
<rscale>  0 0.23696656E+04</rscale>
<asrwt>0</asrwt>
<pdfrwt beam="2">  1        2 0.16875352E+00 0.23696656E+04</pdfrwt>
<pdfrwt beam="1">  1       -2 0.19689496E+00 0.23696656E+04</pdfrwt>
<totfact> 0.27499806E+00</totfact>
</mgrwt>
</event>
<event>
 4    1  0.2552184E-008  0.2610404E+04  0.7816531E-02  0.8364676E-01
          2   -1    0    0  501    0  0.00000000000E+00  0.00000000000E+00  0.12526836496E+04  0.12526836496E+04  0.00000000000E+00 0.  1.
         -2   -1    0    0    0  501 -0.00000000000E+00 -0.00000000000E+00 -0.13599220832E+04  0.13599220832E+04  0.00000000000E+00 0. -1.
    2000013    1    1    2    0    0  0.78457200507E+03 -0.15262818262E+03 -0.45670395955E+03  0.13228481016E+04  0.95000000000E+03 0.  0.
   -2000013    1    1    2    0    0 -0.78457200507E+03  0.15262818262E+03  0.34946552599E+03  0.12897576312E+04  0.95000000000E+03 0.  0.
<mgrwt>
<rscale>  0 0.26104039E+04</rscale>
<asrwt>0</asrwt>
<pdfrwt beam="1">  1        2 0.19272056E+00 0.26104039E+04</pdfrwt>
<pdfrwt beam="2">  1       -2 0.20921878E+00 0.26104039E+04</pdfrwt>
<totfact> 0.18043273E+00</totfact>
</mgrwt>
</event>
<event>
 4    1  0.2552184E-008  0.2407127E+04  0.7816531E-02  0.8436840E-01
          2   -1    0    0  501    0  0.00000000000E+00  0.00000000000E+00  0.10957391563E+04  0.10957391563E+04  0.00000000000E+00 0.  1.
         -2   -1    0    0    0  501 -0.00000000000E+00 -0.00000000000E+00 -0.13219984546E+04  0.13219984546E+04  0.00000000000E+00 0. -1.
    2000013    1    1    2    0    0 -0.30108990026E+03 -0.66785168696E+03 -0.21043011570E+03  0.12179744814E+04  0.95000000000E+03 0.  0.
   -2000013    1    1    2    0    0  0.30108990026E+03  0.66785168696E+03 -0.15829182522E+02  0.11997631295E+04  0.95000000000E+03 0.  0.
<mgrwt>
<rscale>  0 0.24071273E+04</rscale>
<asrwt>0</asrwt>
<pdfrwt beam="1">  1        2 0.16857526E+00 0.24071273E+04</pdfrwt>
<pdfrwt beam="2">  1       -2 0.20338438E+00 0.24071273E+04</pdfrwt>
<totfact> 0.24892773E+00</totfact>
</mgrwt>
</event>
<event>
 4    1  0.2552184E-008  0.3637321E+04  0.7816531E-02  0.8081996E-01
          2   -1    0    0  501    0  0.00000000000E+00  0.00000000000E+00  0.23656248764E+04  0.23656248764E+04  0.00000000000E+00 0.  1.
         -2   -1    0    0    0  501 -0.00000000000E+00 -0.00000000000E+00 -0.13981620130E+04  0.13981620130E+04  0.00000000000E+00 0. -1.
    2000013    1    1    2    0    0  0.32412375264E+03 -0.14581316987E+04  0.52315242086E+02  0.17710000402E+04  0.95000000000E+03 0.  0.
   -2000013    1    1    2    0    0 -0.32412375264E+03  0.14581316987E+04  0.91514762127E+03  0.19927868492E+04  0.95000000000E+03 0.  0.
<mgrwt>
<rscale>  0 0.36373215E+04</rscale>
<asrwt>0</asrwt>
<pdfrwt beam="1">  1        2 0.36394229E+00 0.36373215E+04</pdfrwt>
<pdfrwt beam="2">  1       -2 0.21510185E+00 0.36373215E+04</pdfrwt>
<totfact> 0.35892831E-01</totfact>
</mgrwt>
</event>
<event>
 4    1  0.2552184E-008  0.2596353E+04  0.7816531E-02  0.8369441E-01
          2   -1    0    0  501    0  0.00000000000E+00  0.00000000000E+00  0.70864737872E+03  0.70864737872E+03  0.00000000000E+00 0.  1.
         -2   -1    0    0    0  501 -0.00000000000E+00 -0.00000000000E+00 -0.23781390735E+04  0.23781390735E+04  0.00000000000E+00 0. -1.
    2000013    1    1    2    0    0  0.58445524078E+03 -0.63243316325E+03 -0.10760718157E+04  0.16739146295E+04  0.95000000000E+03 0.  0.
   -2000013    1    1    2    0    0 -0.58445524078E+03  0.63243316325E+03 -0.59341987909E+03  0.14128718227E+04  0.95000000000E+03 0.  0.
<mgrwt>
<rscale>  0 0.25963528E+04</rscale>
<asrwt>0</asrwt>
<pdfrwt beam="1">  1        2 0.10902267E+00 0.25963528E+04</pdfrwt>
<pdfrwt beam="2">  1       -2 0.36586755E+00 0.25963528E+04</pdfrwt>
<totfact> 0.44050502E-01</totfact>
</mgrwt>
</event>
<event>
 4    1  0.2552184E-008  0.3203359E+04  0.7816531E-02  0.8187931E-01
          2   -1    0    0  501    0  0.00000000000E+00  0.00000000000E+00  0.23819291464E+04  0.23819291464E+04  0.00000000000E+00 0.  1.
         -2   -1    0    0    0  501 -0.00000000000E+00 -0.00000000000E+00 -0.10770164133E+04  0.10770164133E+04  0.00000000000E+00 0. -1.
    2000013    1    1    2    0    0  0.11316430413E+04 -0.52101125018E+03  0.10118942812E+04  0.18650733852E+04  0.95000000000E+03 0.  0.
   -2000013    1    1    2    0    0 -0.11316430413E+04  0.52101125018E+03  0.29301845189E+03  0.15938721746E+04  0.95000000000E+03 0.  0.
<mgrwt>
<rscale>  0 0.32033587E+04</rscale>
<asrwt>0</asrwt>
<pdfrwt beam="1">  1        2 0.36645064E+00 0.32033587E+04</pdfrwt>
<pdfrwt beam="2">  1       -2 0.16569483E+00 0.32033587E+04</pdfrwt>
<totfact> 0.78428437E-01</totfact>
</mgrwt>
</event>
<event>
 4    1  0.2552184E-008  0.2254162E+04  0.7816531E-02  0.8496217E-01
         -2   -1    0    0    0  501 -0.00000000000E+00  0.00000000000E+00  0.11553640021E+04  0.11553640021E+04  0.00000000000E+00 0. -1.
          2   -1    0    0  501    0  0.00000000000E+00 -0.00000000000E+00 -0.10994908450E+04  0.10994908450E+04  0.00000000000E+00 0.  1.
    2000013    1    1    2    0    0 -0.30128474991E+03 -0.47919823919E+03 -0.18986566378E+03  0.11220304912E+04  0.95000000000E+03 0.  0.
   -2000013    1    1    2    0    0  0.30128474991E+03  0.47919823919E+03  0.24573882088E+03  0.11328243558E+04  0.95000000000E+03 0.  0.
<mgrwt>
<rscale>  0 0.22541625E+04</rscale>
<asrwt>0</asrwt>
<pdfrwt beam="2">  1        2 0.16915244E+00 0.22541625E+04</pdfrwt>
<pdfrwt beam="1">  1       -2 0.17774831E+00 0.22541625E+04</pdfrwt>
<totfact> 0.37290152E+00</totfact>
</mgrwt>
</event>
<event>
 4    1  0.2552184E-008  0.4361806E+04  0.7816531E-02  0.7935287E-01
          2   -1    0    0  501    0  0.00000000000E+00  0.00000000000E+00  0.31439655660E+04  0.31439655660E+04  0.00000000000E+00 0. -1.
         -2   -1    0    0    0  501 -0.00000000000E+00 -0.00000000000E+00 -0.15128463548E+04  0.15128463548E+04  0.00000000000E+00 0.  1.
    2000013    1    1    2    0    0 -0.25616709095E+03  0.12257753716E+04 -0.79854272672E+03  0.17630420660E+04  0.95000000000E+03 0.  0.
   -2000013    1    1    2    0    0  0.25616709095E+03 -0.12257753716E+04  0.24296619379E+04  0.28937698548E+04  0.95000000000E+03 0.  0.
<mgrwt>
<rscale>  0 0.43618055E+04</rscale>
<asrwt>0</asrwt>
<pdfrwt beam="1">  1        2 0.48368701E+00 0.43618055E+04</pdfrwt>
<pdfrwt beam="2">  1       -2 0.23274559E+00 0.43618055E+04</pdfrwt>
<totfact> 0.88717088E-02</totfact>
</mgrwt>
</event>
<event>
 4    1  0.2552184E-008  0.3940273E+04  0.7816531E-02  0.8016705E-01
          2   -1    0    0  501    0  0.00000000000E+00  0.00000000000E+00  0.30158923397E+04  0.30158923397E+04  0.00000000000E+00 0.  1.
         -2   -1    0    0    0  501 -0.00000000000E+00 -0.00000000000E+00 -0.12869950586E+04  0.12869950586E+04  0.00000000000E+00 0. -1.
    2000013    1    1    2    0    0 -0.70357793187E+03 -0.12367084300E+04  0.19313260464E+04  0.25801143278E+04  0.95000000000E+03 0.  0.
   -2000013    1    1    2    0    0  0.70357793187E+03  0.12367084300E+04 -0.20242876532E+03  0.17227730704E+04  0.95000000000E+03 0.  0.
<mgrwt>
<rscale>  0 0.39402734E+04</rscale>
<asrwt>0</asrwt>
<pdfrwt beam="1">  1        2 0.46398344E+00 0.39402734E+04</pdfrwt>
<pdfrwt beam="2">  1       -2 0.19799924E+00 0.39402734E+04</pdfrwt>
<totfact> 0.18480238E-01</totfact>
</mgrwt>
</event>
<event>
 4    1  0.2552184E-008  0.2338755E+04  0.7816531E-02  0.8462795E-01
         -2   -1    0    0    0  501 -0.00000000000E+00  0.00000000000E+00  0.60911015784E+03  0.60911015784E+03  0.00000000000E+00 0. -1.
          2   -1    0    0  501    0  0.00000000000E+00 -0.00000000000E+00 -0.22449861343E+04  0.22449861343E+04  0.00000000000E+00 0.  1.
    2000013    1    1    2    0    0 -0.52795892282E+03  0.29163350671E+03 -0.12060647069E+04  0.16495098677E+04  0.95000000000E+03 0.  0.
   -2000013    1    1    2    0    0  0.52795892282E+03 -0.29163350671E+03 -0.42981126950E+03  0.12045864244E+04  0.95000000000E+03 0.  0.
<mgrwt>
<rscale>  0 0.23387551E+04</rscale>
<asrwt>0</asrwt>
<pdfrwt beam="2">  1        2 0.34538249E+00 0.23387551E+04</pdfrwt>
<pdfrwt beam="1">  1       -2 0.93709254E-01 0.23387551E+04</pdfrwt>
<totfact> 0.42352962E+00</totfact>
</mgrwt>
</event>
<event>
 4    1  0.2552184E-008  0.2516545E+04  0.7816531E-02  0.8397115E-01
          2   -1    0    0  501    0  0.00000000000E+00  0.00000000000E+00  0.30476232301E+04  0.30476232301E+04  0.00000000000E+00 0.  1.
         -2   -1    0    0    0  501 -0.00000000000E+00 -0.00000000000E+00 -0.51950324272E+03  0.51950324272E+03  0.00000000000E+00 0. -1.
    2000013    1    1    2    0    0 -0.77392801185E+03  0.26078381977E+03  0.14304384535E+04  0.19014801964E+04  0.95000000000E+03 0.  0.
   -2000013    1    1    2    0    0  0.77392801185E+03 -0.26078381977E+03  0.10976815339E+04  0.16656462764E+04  0.95000000000E+03 0.  0.
<mgrwt>
<rscale>  0 0.25165454E+04</rscale>
<asrwt>0</asrwt>
<pdfrwt beam="1">  1        2 0.46886510E+00 0.25165454E+04</pdfrwt>
<pdfrwt beam="2">  1       -2 0.79923578E-01 0.25165454E+04</pdfrwt>
<totfact> 0.20051981E+00</totfact>
</mgrwt>
</event>
<event>
 4    1  0.2552184E-008  0.3487925E+04  0.7816531E-02  0.8116657E-01
         -2   -1    0    0    0  501 -0.00000000000E+00  0.00000000000E+00  0.11370209421E+04  0.11370209421E+04  0.00000000000E+00 0. -1.
          2   -1    0    0  501    0  0.00000000000E+00 -0.00000000000E+00 -0.26748898279E+04  0.26748898279E+04  0.00000000000E+00 0.  1.
    2000013    1    1    2    0    0  0.62931680832E+03  0.13200970001E+04 -0.78477253282E+03  0.19123450691E+04  0.95000000000E+03 0.  0.
   -2000013    1    1    2    0    0 -0.62931680832E+03 -0.13200970001E+04 -0.75309635302E+03  0.18995657009E+04  0.95000000000E+03 0.  0.
<mgrwt>
<rscale>  0 0.34879253E+04</rscale>
<asrwt>0</asrwt>
<pdfrwt beam="2">  1        2 0.41152151E+00 0.34879253E+04</pdfrwt>
<pdfrwt beam="1">  1       -2 0.17492630E+00 0.34879253E+04</pdfrwt>
<totfact> 0.44457972E-01</totfact>
</mgrwt>
</event>
<event>
 4    1  0.2552184E-008  0.2271405E+04  0.7816531E-02  0.8489282E-01
         -2   -1    0    0    0  501 -0.00000000000E+00  0.00000000000E+00  0.64692160600E+03  0.64692160600E+03  0.00000000000E+00 0. -1.
          2   -1    0    0  501    0  0.00000000000E+00 -0.00000000000E+00 -0.19937817246E+04  0.19937817246E+04  0.00000000000E+00 0.  1.
    2000013    1    1    2    0    0  0.38750204473E+03 -0.41288408892E+03 -0.37320060932E+03  0.11672231151E+04  0.95000000000E+03 0.  0.
   -2000013    1    1    2    0    0 -0.38750204473E+03  0.41288408892E+03 -0.97365950932E+03  0.14734802156E+04  0.95000000000E+03 0.  0.
<mgrwt>
<rscale>  0 0.22714053E+04</rscale>
<asrwt>0</asrwt>
<pdfrwt beam="2">  1        2 0.30673565E+00 0.22714053E+04</pdfrwt>
<pdfrwt beam="1">  1       -2 0.99526402E-01 0.22714053E+04</pdfrwt>
<totfact> 0.51120198E+00</totfact>
</mgrwt>
</event>
<event>
 4    1  0.2552184E-008  0.3011990E+04  0.7816531E-02  0.8240315E-01
         -2   -1    0    0    0  501 -0.00000000000E+00  0.00000000000E+00  0.12716141081E+04  0.12716141081E+04  0.00000000000E+00 0. -1.
          2   -1    0    0  501    0  0.00000000000E+00 -0.00000000000E+00 -0.17835762577E+04  0.17835762577E+04  0.00000000000E+00 0.  1.
    2000013    1    1    2    0    0  0.49799966386E+03 -0.10007843273E+04  0.89413905073E+02  0.14697169052E+04  0.95000000000E+03 0.  0.
   -2000013    1    1    2    0    0 -0.49799966386E+03  0.10007843273E+04 -0.60137605471E+03  0.15854734606E+04  0.95000000000E+03 0.  0.
<mgrwt>
<rscale>  0 0.30119899E+04</rscale>
<asrwt>0</asrwt>
<pdfrwt beam="2">  1        2 0.27439635E+00 0.30119899E+04</pdfrwt>
<pdfrwt beam="1">  1       -2 0.19563294E+00 0.30119899E+04</pdfrwt>
<totfact> 0.10712143E+00</totfact>
</mgrwt>
</event>
<event>
 4    1  0.2552184E-008  0.2932200E+04  0.7816531E-02  0.8263361E-01
          2   -1    0    0  501    0  0.00000000000E+00  0.00000000000E+00  0.22117581049E+04  0.22117581049E+04  0.00000000000E+00 0. -1.
         -2   -1    0    0    0  501 -0.00000000000E+00 -0.00000000000E+00 -0.97182817549E+03  0.97182817549E+03  0.00000000000E+00 0.  1.
    2000013    1    1    2    0    0 -0.86949212848E+03  0.68600024750E+03  0.77479500482E+03  0.16520956996E+04  0.95000000000E+03 0.  0.
   -2000013    1    1    2    0    0  0.86949212848E+03 -0.68600024750E+03  0.46513492460E+03  0.15314905808E+04  0.95000000000E+03 0.  0.
<mgrwt>
<rscale>  0 0.29321998E+04</rscale>
<asrwt>0</asrwt>
<pdfrwt beam="1">  1        2 0.34027048E+00 0.29321998E+04</pdfrwt>
<pdfrwt beam="2">  1       -2 0.14951203E+00 0.29321998E+04</pdfrwt>
<totfact> 0.13229758E+00</totfact>
</mgrwt>
</event>
<event>
 4    1  0.2552184E-008  0.2928887E+04  0.7816531E-02  0.8264334E-01
          2   -1    0    0  501    0  0.00000000000E+00  0.00000000000E+00  0.21339550973E+04  0.21339550973E+04  0.00000000000E+00 0.  1.
         -2   -1    0    0    0  501 -0.00000000000E+00 -0.00000000000E+00 -0.10049862012E+04  0.10049862012E+04  0.00000000000E+00 0. -1.
    2000013    1    1    2    0    0  0.72974184746E+02  0.10620166072E+04  0.21083226252E+03  0.14422741586E+04  0.95000000000E+03 0.  0.
   -2000013    1    1    2    0    0 -0.72974184746E+02 -0.10620166072E+04  0.91813663357E+03  0.16966671399E+04  0.95000000000E+03 0.  0.
<mgrwt>
<rscale>  0 0.29288875E+04</rscale>
<asrwt>0</asrwt>
<pdfrwt beam="1">  1        2 0.32830078E+00 0.29288875E+04</pdfrwt>
<pdfrwt beam="2">  1       -2 0.15461326E+00 0.29288875E+04</pdfrwt>
<totfact> 0.13383647E+00</totfact>
</mgrwt>
</event>
<event>
 4    1  0.2552184E-008  0.2634477E+04  0.7816531E-02  0.8356583E-01
          2   -1    0    0  501    0  0.00000000000E+00  0.00000000000E+00  0.24126416230E+04  0.24126416230E+04  0.00000000000E+00 0.  1.
         -2   -1    0    0    0  501 -0.00000000000E+00 -0.00000000000E+00 -0.71917760453E+03  0.71917760453E+03  0.00000000000E+00 0. -1.
    2000013    1    1    2    0    0 -0.48647371892E+03  0.75523922730E+03  0.10368436811E+04  0.16687084193E+04  0.95000000000E+03 0.  0.
   -2000013    1    1    2    0    0  0.48647371892E+03 -0.75523922730E+03  0.65662033734E+03  0.14631108082E+04  0.95000000000E+03 0.  0.
<mgrwt>
<rscale>  0 0.26344774E+04</rscale>
<asrwt>0</asrwt>
<pdfrwt beam="1">  1        2 0.37117563E+00 0.26344774E+04</pdfrwt>
<pdfrwt beam="2">  1       -2 0.11064271E+00 0.26344774E+04</pdfrwt>
<totfact> 0.22334800E+00</totfact>
</mgrwt>
</event>
<event>
 4    1  0.2552184E-008  0.2124120E+04  0.7816531E-02  0.8550692E-01
         -2   -1    0    0    0  501 -0.00000000000E+00  0.00000000000E+00  0.14527994724E+04  0.14527994724E+04  0.00000000000E+00 0. -1.
          2   -1    0    0  501    0  0.00000000000E+00 -0.00000000000E+00 -0.77641228517E+03  0.77641228517E+03  0.00000000000E+00 0.  1.
    2000013    1    1    2    0    0  0.35968700752E+03 -0.15131813170E+03  0.62213332443E+03  0.12007588408E+04  0.95000000000E+03 0.  0.
   -2000013    1    1    2    0    0 -0.35968700752E+03  0.15131813170E+03  0.54253862768E+02  0.10284529168E+04  0.95000000000E+03 0.  0.
<mgrwt>
<rscale>  0 0.21241199E+04</rscale>
<asrwt>0</asrwt>
<pdfrwt beam="2">  1        2 0.11944804E+00 0.21241199E+04</pdfrwt>
<pdfrwt beam="1">  1       -2 0.22350761E+00 0.21241199E+04</pdfrwt>
<totfact> 0.30944478E+00</totfact>
</mgrwt>
</event>
<event>
 4    1  0.2552184E-008  0.2661449E+04  0.7816531E-02  0.8347623E-01
          1   -1    0    0  501    0  0.00000000000E+00  0.00000000000E+00  0.13448246008E+04  0.13448246008E+04  0.00000000000E+00 0.  1.
         -1   -1    0    0    0  501 -0.00000000000E+00 -0.00000000000E+00 -0.13167718192E+04  0.13167718192E+04  0.00000000000E+00 0. -1.
    2000013    1    1    2    0    0  0.64328752771E+03  0.36499313713E+03 -0.55282808607E+03  0.13248236585E+04  0.95000000000E+03 0.  0.
   -2000013    1    1    2    0    0 -0.64328752771E+03 -0.36499313713E+03  0.58088086767E+03  0.13367727615E+04  0.95000000000E+03 0.  0.
<mgrwt>
<rscale>  0 0.26614486E+04</rscale>
<asrwt>0</asrwt>
<pdfrwt beam="1">  1        1 0.20689609E+00 0.26614486E+04</pdfrwt>
<pdfrwt beam="2">  1       -1 0.20258028E+00 0.26614486E+04</pdfrwt>
<totfact> 0.10637049E+00</totfact>
</mgrwt>
</event>
<event>
 4    1  0.2552184E-008  0.2404840E+04  0.7816531E-02  0.8437694E-01
         -2   -1    0    0    0  501 -0.00000000000E+00  0.00000000000E+00  0.52654996591E+03  0.52654996591E+03  0.00000000000E+00 0. -1.
          2   -1    0    0  501    0  0.00000000000E+00 -0.00000000000E+00 -0.27458241962E+04  0.27458241962E+04  0.00000000000E+00 0.  1.
    2000013    1    1    2    0    0 -0.62264983128E+03 -0.30715675690E+03 -0.14464745987E+04  0.18646251233E+04  0.95000000000E+03 0.  0.
   -2000013    1    1    2    0    0  0.62264983128E+03  0.30715675690E+03 -0.77279963157E+03  0.14077490388E+04  0.95000000000E+03 0.  0.
<mgrwt>
<rscale>  0 0.24048398E+04</rscale>
<asrwt>0</asrwt>
<pdfrwt beam="2">  1        2 0.42243449E+00 0.24048398E+04</pdfrwt>
<pdfrwt beam="1">  1       -2 0.81007687E-01 0.24048398E+04</pdfrwt>
<totfact> 0.30116687E+00</totfact>
</mgrwt>
</event>
<event>
 4    1  0.2552184E-008  0.2395325E+04  0.7816531E-02  0.8441256E-01
         -2   -1    0    0    0  501 -0.00000000000E+00  0.00000000000E+00  0.37824423084E+03  0.37824423084E+03  0.00000000000E+00 0. -1.
          2   -1    0    0  501    0  0.00000000000E+00 -0.00000000000E+00 -0.37922462698E+04  0.37922462698E+04  0.00000000000E+00 0.  1.
    2000013    1    1    2    0    0 -0.19714439854E+03  0.70125699710E+03 -0.16450027545E+04  0.20344928981E+04  0.95000000000E+03 0.  0.
   -2000013    1    1    2    0    0  0.19714439854E+03 -0.70125699710E+03 -0.17689992844E+04  0.21359976026E+04  0.95000000000E+03 0.  0.
<mgrwt>
<rscale>  0 0.23953248E+04</rscale>
<asrwt>0</asrwt>
<pdfrwt beam="2">  1        2 0.58342250E+00 0.23953248E+04</pdfrwt>
<pdfrwt beam="1">  1       -2 0.58191420E-01 0.23953248E+04</pdfrwt>
<totfact> 0.12414960E+00</totfact>
</mgrwt>
</event>
<event>
 4    1  0.2552184E-008  0.2049530E+04  0.7816531E-02  0.8583808E-01
          2   -1    0    0  501    0  0.00000000000E+00  0.00000000000E+00  0.75904673357E+03  0.75904673357E+03  0.00000000000E+00 0.  1.
         -2   -1    0    0    0  501 -0.00000000000E+00 -0.00000000000E+00 -0.13835023850E+04  0.13835023850E+04  0.00000000000E+00 0. -1.
    2000013    1    1    2    0    0  0.22808329057E+03  0.29481005258E+03 -0.21467584791E+03  0.10428425932E+04  0.95000000000E+03 0.  0.
   -2000013    1    1    2    0    0 -0.22808329057E+03 -0.29481005258E+03 -0.40977980352E+03  0.10997065254E+04  0.95000000000E+03 0.  0.
<mgrwt>
<rscale>  0 0.20495297E+04</rscale>
<asrwt>0</asrwt>
<pdfrwt beam="1">  1        2 0.11677642E+00 0.20495297E+04</pdfrwt>
<pdfrwt beam="2">  1       -2 0.21284652E+00 0.20495297E+04</pdfrwt>
<totfact> 0.37485245E+00</totfact>
</mgrwt>
</event>
<event>
 4    1  0.2552184E-008  0.2376216E+04  0.7816531E-02  0.8448462E-01
         -2   -1    0    0    0  501 -0.00000000000E+00  0.00000000000E+00  0.46940381736E+03  0.46940381736E+03  0.00000000000E+00 0. -1.
          2   -1    0    0  501    0  0.00000000000E+00 -0.00000000000E+00 -0.30072197970E+04  0.30072197970E+04  0.00000000000E+00 0.  1.
    2000013    1    1    2    0    0  0.53395667324E+03  0.47314237999E+03 -0.12853969634E+04  0.17503481923E+04  0.95000000000E+03 0.  0.
   -2000013    1    1    2    0    0 -0.53395667324E+03 -0.47314237999E+03 -0.12524190162E+04  0.17262754221E+04  0.95000000000E+03 0.  0.
<mgrwt>
<rscale>  0 0.23762159E+04</rscale>
<asrwt>0</asrwt>
<pdfrwt beam="2">  1        2 0.46264919E+00 0.23762159E+04</pdfrwt>
<pdfrwt beam="1">  1       -2 0.72215974E-01 0.23762159E+04</pdfrwt>
<totfact> 0.26966747E+00</totfact>
</mgrwt>
</event>
<event>
 4    1  0.2552184E-008  0.2665006E+04  0.7816531E-02  0.8346449E-01
         -2   -1    0    0    0  501 -0.00000000000E+00  0.00000000000E+00  0.92257226075E+03  0.92257226075E+03  0.00000000000E+00 0. -1.
          2   -1    0    0  501    0  0.00000000000E+00 -0.00000000000E+00 -0.19245801662E+04  0.19245801662E+04  0.00000000000E+00 0.  1.
    2000013    1    1    2    0    0  0.88586680031E+03 -0.42201601012E+02 -0.81525670585E+03  0.15341722392E+04  0.95000000000E+03 0.  0.
   -2000013    1    1    2    0    0 -0.88586680031E+03  0.42201601012E+02 -0.18675119964E+03  0.13129801878E+04  0.95000000000E+03 0.  0.
<mgrwt>
<rscale>  0 0.26650060E+04</rscale>
<asrwt>0</asrwt>
<pdfrwt beam="2">  1        2 0.29608926E+00 0.26650060E+04</pdfrwt>
<pdfrwt beam="1">  1       -2 0.14193419E+00 0.26650060E+04</pdfrwt>
<totfact> 0.22437840E+00</totfact>
</mgrwt>
</event>
<event>
 4    1  0.2552184E-008  0.2729558E+04  0.7816531E-02  0.8325478E-01
         -2   -1    0    0    0  501 -0.00000000000E+00  0.00000000000E+00  0.13861059387E+04  0.13861059387E+04  0.00000000000E+00 0. -1.
          2   -1    0    0  501    0  0.00000000000E+00 -0.00000000000E+00 -0.13437804794E+04  0.13437804794E+04  0.00000000000E+00 0.  1.
    2000013    1    1    2    0    0 -0.36701549832E+03 -0.85682743051E+03  0.32330578565E+03  0.13696277789E+04  0.95000000000E+03 0.  0.
   -2000013    1    1    2    0    0  0.36701549832E+03  0.85682743051E+03 -0.28098032644E+03  0.13602586392E+04  0.95000000000E+03 0.  0.
<mgrwt>
<rscale>  0 0.27295583E+04</rscale>
<asrwt>0</asrwt>
<pdfrwt beam="2">  1        2 0.20673546E+00 0.27295583E+04</pdfrwt>
<pdfrwt beam="1">  1       -2 0.21324707E+00 0.27295583E+04</pdfrwt>
<totfact> 0.14891646E+00</totfact>
</mgrwt>
</event>
<event>
 4    1  0.2552184E-008  0.2613664E+04  0.7816531E-02  0.8363575E-01
          2   -1    0    0  501    0  0.00000000000E+00  0.00000000000E+00  0.22560270689E+04  0.22560270689E+04  0.00000000000E+00 0.  1.
         -2   -1    0    0    0  501 -0.00000000000E+00 -0.00000000000E+00 -0.75699865278E+03  0.75699865278E+03  0.00000000000E+00 0. -1.
    2000013    1    1    2    0    0  0.79003216741E+03  0.32125334910E+03  0.42764837341E+03  0.13463794677E+04  0.95000000000E+03 0.  0.
   -2000013    1    1    2    0    0 -0.79003216741E+03 -0.32125334910E+03  0.10713800427E+04  0.16666462539E+04  0.95000000000E+03 0.  0.
<mgrwt>
<rscale>  0 0.26136637E+04</rscale>
<asrwt>0</asrwt>
<pdfrwt beam="1">  1        2 0.34708108E+00 0.26136637E+04</pdfrwt>
<pdfrwt beam="2">  1       -2 0.11646133E+00 0.26136637E+04</pdfrwt>
<totfact> 0.24250377E+00</totfact>
</mgrwt>
</event>
<event>
 4    1  0.2552184E-008  0.2996402E+04  0.7816531E-02  0.8244759E-01
         -2   -1    0    0    0  501 -0.00000000000E+00  0.00000000000E+00  0.65493297546E+03  0.65493297546E+03  0.00000000000E+00 0. -1.
          2   -1    0    0  501    0  0.00000000000E+00 -0.00000000000E+00 -0.34272300217E+04  0.34272300217E+04  0.00000000000E+00 0.  1.
    2000013    1    1    2    0    0  0.32918016104E+03 -0.10931908188E+04 -0.11182102785E+04  0.18591180629E+04  0.95000000000E+03 0.  0.
   -2000013    1    1    2    0    0 -0.32918016104E+03  0.10931908188E+04 -0.16540867677E+04  0.22230449343E+04  0.95000000000E+03 0.  0.
<mgrwt>
<rscale>  0 0.29964018E+04</rscale>
<asrwt>0</asrwt>
<pdfrwt beam="2">  1        2 0.52726616E+00 0.29964018E+04</pdfrwt>
<pdfrwt beam="1">  1       -2 0.10075892E+00 0.29964018E+04</pdfrwt>
<totfact> 0.63394318E-01</totfact>
</mgrwt>
</event>
<event>
 4    1  0.2552184E-008  0.2628754E+04  0.7816531E-02  0.8358499E-01
         -2   -1    0    0    0  501 -0.00000000000E+00  0.00000000000E+00  0.54298303252E+03  0.54298303252E+03  0.00000000000E+00 0. -1.
          2   -1    0    0  501    0  0.00000000000E+00 -0.00000000000E+00 -0.31816592792E+04  0.31816592792E+04  0.00000000000E+00 0.  1.
    2000013    1    1    2    0    0  0.13521300922E+02  0.88610034052E+03 -0.10369178369E+04  0.16622440373E+04  0.95000000000E+03 0.  0.
   -2000013    1    1    2    0    0 -0.13521300922E+02 -0.88610034052E+03 -0.16017584098E+04  0.20623982744E+04  0.95000000000E+03 0.  0.
<mgrwt>
<rscale>  0 0.26287541E+04</rscale>
<asrwt>0</asrwt>
<pdfrwt beam="2">  1        2 0.48948604E+00 0.26287541E+04</pdfrwt>
<pdfrwt beam="1">  1       -2 0.83535851E-01 0.26287541E+04</pdfrwt>
<totfact> 0.14745051E+00</totfact>
</mgrwt>
</event>
<event>
 4    1  0.2552184E-008  0.2322510E+04  0.7816531E-02  0.8469098E-01
         -2   -1    0    0    0  501 -0.00000000000E+00  0.00000000000E+00  0.13164646982E+04  0.13164646982E+04  0.00000000000E+00 0. -1.
          2   -1    0    0  501    0  0.00000000000E+00 -0.00000000000E+00 -0.10243439946E+04  0.10243439946E+04  0.00000000000E+00 0.  1.
    2000013    1    1    2    0    0 -0.63569029145E+03  0.66896639404E+02 -0.48946399663E+02  0.11460685220E+04  0.95000000000E+03 0.  0.
   -2000013    1    1    2    0    0  0.63569029145E+03 -0.66896639404E+02  0.34106710326E+03  0.11947401709E+04  0.95000000000E+03 0.  0.
<mgrwt>
<rscale>  0 0.23225096E+04</rscale>
<asrwt>0</asrwt>
<pdfrwt beam="2">  1        2 0.15759138E+00 0.23225096E+04</pdfrwt>
<pdfrwt beam="1">  1       -2 0.20253303E+00 0.23225096E+04</pdfrwt>
<totfact> 0.28145408E+00</totfact>
</mgrwt>
</event>
<event>
 4    1  0.2552184E-008  0.2653048E+04  0.7816531E-02  0.8350402E-01
          2   -1    0    0  501    0  0.00000000000E+00  0.00000000000E+00  0.55206776711E+03  0.55206776711E+03  0.00000000000E+00 0.  1.
         -2   -1    0    0    0  501 -0.00000000000E+00 -0.00000000000E+00 -0.31874083925E+04  0.31874083925E+04  0.00000000000E+00 0. -1.
    2000013    1    1    2    0    0 -0.67343639273E+03 -0.46002040394E+03 -0.70000905565E+03  0.14344504261E+04  0.95000000000E+03 0.  0.
   -2000013    1    1    2    0    0  0.67343639273E+03  0.46002040394E+03 -0.19353315698E+04  0.23050257335E+04  0.95000000000E+03 0.  0.
<mgrwt>
<rscale>  0 0.26530476E+04</rscale>
<asrwt>0</asrwt>
<pdfrwt beam="1">  1        2 0.84933501E-01 0.26530476E+04</pdfrwt>
<pdfrwt beam="2">  1       -2 0.49037053E+00 0.26530476E+04</pdfrwt>
<totfact> 0.91200425E-02</totfact>
</mgrwt>
</event>
<event>
 4    1  0.2552184E-008  0.2559651E+04  0.7816531E-02  0.8382038E-01
          2   -1    0    0  501    0  0.00000000000E+00  0.00000000000E+00  0.10907545649E+04  0.10907545649E+04  0.00000000000E+00 0.  1.
         -2   -1    0    0    0  501 -0.00000000000E+00 -0.00000000000E+00 -0.15016695756E+04  0.15016695756E+04  0.00000000000E+00 0. -1.
    2000013    1    1    2    0    0 -0.58721197873E+03  0.32135478722E+03 -0.74838663817E+03  0.13822696435E+04  0.95000000000E+03 0.  0.
   -2000013    1    1    2    0    0  0.58721197873E+03 -0.32135478722E+03  0.33747162751E+03  0.12101544970E+04  0.95000000000E+03 0.  0.
<mgrwt>
<rscale>  0 0.25596507E+04</rscale>
<asrwt>0</asrwt>
<pdfrwt beam="1">  1        2 0.16780840E+00 0.25596507E+04</pdfrwt>
<pdfrwt beam="2">  1       -2 0.23102609E+00 0.25596507E+04</pdfrwt>
<totfact> 0.16503306E+00</totfact>
</mgrwt>
</event>
<event>
 4    1  0.2552184E-008  0.3277163E+04  0.7816531E-02  0.8168731E-01
         -1   -1    0    0    0  501 -0.00000000000E+00  0.00000000000E+00  0.18596991915E+04  0.18596991915E+04  0.00000000000E+00 0.  1.
          1   -1    0    0  501    0  0.00000000000E+00 -0.00000000000E+00 -0.14437546414E+04  0.14437546414E+04  0.00000000000E+00 0. -1.
    2000013    1    1    2    0    0  0.47533472689E+03  0.11292324796E+04  0.74264265806E+03  0.17190483452E+04  0.95000000000E+03 0.  0.
   -2000013    1    1    2    0    0 -0.47533472689E+03 -0.11292324796E+04 -0.32669810802E+03  0.15844054877E+04  0.95000000000E+03 0.  0.
<mgrwt>
<rscale>  0 0.32771630E+04</rscale>
<asrwt>0</asrwt>
<pdfrwt beam="2">  1        1 0.22211610E+00 0.32771630E+04</pdfrwt>
<pdfrwt beam="1">  1       -1 0.28610757E+00 0.32771630E+04</pdfrwt>
<totfact> 0.24176830E-01</totfact>
</mgrwt>
</event>
<event>
 4    1  0.2552184E-008  0.2290078E+04  0.7816531E-02  0.8481843E-01
         -2   -1    0    0    0  501 -0.00000000000E+00  0.00000000000E+00  0.35651595882E+03  0.35651595882E+03  0.00000000000E+00 0. -1.
          2   -1    0    0  501    0  0.00000000000E+00 -0.00000000000E+00 -0.36775768523E+04  0.36775768523E+04  0.00000000000E+00 0.  1.
    2000013    1    1    2    0    0  0.31934690754E+03  0.54923760359E+03 -0.15363385776E+04  0.19148056344E+04  0.95000000000E+03 0.  0.
   -2000013    1    1    2    0    0 -0.31934690754E+03 -0.54923760359E+03 -0.17847223160E+04  0.21192871768E+04  0.95000000000E+03 0.  0.
<mgrwt>
<rscale>  0 0.22900785E+04</rscale>
<asrwt>0</asrwt>
<pdfrwt beam="2">  1        2 0.56578104E+00 0.22900785E+04</pdfrwt>
<pdfrwt beam="1">  1       -2 0.54848610E-01 0.22900785E+04</pdfrwt>
<totfact> 0.17267195E+00</totfact>
</mgrwt>
</event>
<event>
 4    1  0.2552184E-008  0.2309196E+04  0.7816531E-02  0.8474304E-01
          2   -1    0    0  501    0  0.00000000000E+00  0.00000000000E+00  0.11687026727E+04  0.11687026727E+04  0.00000000000E+00 0.  1.
         -2   -1    0    0    0  501 -0.00000000000E+00 -0.00000000000E+00 -0.11406630875E+04  0.11406630875E+04  0.00000000000E+00 0. -1.
    2000013    1    1    2    0    0  0.54293115238E+03 -0.36228279820E+03 -0.53608685876E+02  0.11538617566E+04  0.95000000000E+03 0.  0.
   -2000013    1    1    2    0    0 -0.54293115238E+03  0.36228279820E+03  0.81648271131E+02  0.11555040036E+04  0.95000000000E+03 0.  0.
<mgrwt>
<rscale>  0 0.23091955E+04</rscale>
<asrwt>0</asrwt>
<pdfrwt beam="1">  1        2 0.17980041E+00 0.23091955E+04</pdfrwt>
<pdfrwt beam="2">  1       -2 0.17548663E+00 0.23091955E+04</pdfrwt>
<totfact> 0.34930661E+00</totfact>
</mgrwt>
</event>
<event>
 4    1  0.2552184E-008  0.2302496E+04  0.7816531E-02  0.8476937E-01
         -2   -1    0    0    0  501 -0.00000000000E+00  0.00000000000E+00  0.99310388682E+03  0.99310388682E+03  0.00000000000E+00 0. -1.
          2   -1    0    0  501    0  0.00000000000E+00 -0.00000000000E+00 -0.13345759017E+04  0.13345759017E+04  0.00000000000E+00 0.  1.
    2000013    1    1    2    0    0  0.59026755234E+03 -0.14037307784E+03  0.65814984144E+02  0.11291377225E+04  0.95000000000E+03 0.  0.
   -2000013    1    1    2    0    0 -0.59026755234E+03  0.14037307784E+03 -0.40728699900E+03  0.11985420660E+04  0.95000000000E+03 0.  0.
<mgrwt>
<rscale>  0 0.23024965E+04</rscale>
<asrwt>0</asrwt>
<pdfrwt beam="2">  1        2 0.20531937E+00 0.23024965E+04</pdfrwt>
<pdfrwt beam="1">  1       -2 0.15278521E+00 0.23024965E+04</pdfrwt>
<totfact> 0.40821576E+00</totfact>
</mgrwt>
</event>
<event>
 4    1  0.2552184E-008  0.2324094E+04  0.7816531E-02  0.8468481E-01
          2   -1    0    0  501    0  0.00000000000E+00  0.00000000000E+00  0.12320653263E+04  0.12320653263E+04  0.00000000000E+00 0.  1.
         -2   -1    0    0    0  501 -0.00000000000E+00 -0.00000000000E+00 -0.10960080172E+04  0.10960080172E+04  0.00000000000E+00 0. -1.
    2000013    1    1    2    0    0  0.19403410563E+03  0.43626341040E+03  0.53774350412E+03  0.11914877564E+04  0.95000000000E+03 0.  0.
   -2000013    1    1    2    0    0 -0.19403410563E+03 -0.43626341040E+03 -0.40168619500E+03  0.11365855870E+04  0.95000000000E+03 0.  0.
<mgrwt>
<rscale>  0 0.23240942E+04</rscale>
<asrwt>0</asrwt>
<pdfrwt beam="1">  1        2 0.18954851E+00 0.23240942E+04</pdfrwt>
<pdfrwt beam="2">  1       -2 0.16861662E+00 0.23240942E+04</pdfrwt>
<totfact> 0.35760748E+00</totfact>
</mgrwt>
</event>
<event>
 4    1  0.2552184E-008  0.2512991E+04  0.7816531E-02  0.8398372E-01
         -2   -1    0    0    0  501 -0.00000000000E+00  0.00000000000E+00  0.54805127986E+03  0.54805127986E+03  0.00000000000E+00 0. -1.
          2   -1    0    0  501    0  0.00000000000E+00 -0.00000000000E+00 -0.28807180456E+04  0.28807180456E+04  0.00000000000E+00 0.  1.
    2000013    1    1    2    0    0  0.26417695208E+03  0.60513971074E+03 -0.49749361544E+03  0.12593583402E+04  0.95000000000E+03 0.  0.
   -2000013    1    1    2    0    0 -0.26417695208E+03 -0.60513971074E+03 -0.18351731503E+04  0.21694109853E+04  0.95000000000E+03 0.  0.
<mgrwt>
<rscale>  0 0.25129912E+04</rscale>
<asrwt>0</asrwt>
<pdfrwt beam="2">  1        2 0.44318740E+00 0.25129912E+04</pdfrwt>
<pdfrwt beam="1">  1       -2 0.84315579E-01 0.25129912E+04</pdfrwt>
<totfact> 0.22575794E+00</totfact>
</mgrwt>
</event>
<event>
 4    1  0.2552184E-008  0.2617646E+04  0.7816531E-02  0.8362232E-01
          2   -1    0    0  501    0  0.00000000000E+00  0.00000000000E+00  0.24632506461E+04  0.24632506461E+04  0.00000000000E+00 0.  1.
         -2   -1    0    0    0  501 -0.00000000000E+00 -0.00000000000E+00 -0.69542986449E+03  0.69542986449E+03  0.00000000000E+00 0. -1.
    2000013    1    1    2    0    0 -0.30297733088E+03  0.83823040316E+03  0.10369866090E+04  0.16650125222E+04  0.95000000000E+03 0.  0.
   -2000013    1    1    2    0    0  0.30297733088E+03 -0.83823040316E+03  0.73083417265E+03  0.14936679885E+04  0.95000000000E+03 0.  0.
<mgrwt>
<rscale>  0 0.26176463E+04</rscale>
<asrwt>0</asrwt>
<pdfrwt beam="1">  1        2 0.37896163E+00 0.26176463E+04</pdfrwt>
<pdfrwt beam="2">  1       -2 0.10698921E+00 0.26176463E+04</pdfrwt>
<totfact> 0.22683450E+00</totfact>
</mgrwt>
</event>
<event>
 4    1  0.2552184E-008  0.2399632E+04  0.7816531E-02  0.8439641E-01
         -2   -1    0    0    0  501 -0.00000000000E+00  0.00000000000E+00  0.60362954599E+03  0.60362954599E+03  0.00000000000E+00 0. -1.
          2   -1    0    0  501    0  0.00000000000E+00 -0.00000000000E+00 -0.23848385804E+04  0.23848385804E+04  0.00000000000E+00 0.  1.
    2000013    1    1    2    0    0  0.50346203160E+02 -0.55796215282E+03 -0.14789784798E+04  0.18449210953E+04  0.95000000000E+03 0.  0.
   -2000013    1    1    2    0    0 -0.50346203160E+02  0.55796215282E+03 -0.30223055458E+03  0.11435470311E+04  0.95000000000E+03 0.  0.
<mgrwt>
<rscale>  0 0.23996325E+04</rscale>
<asrwt>0</asrwt>
<pdfrwt beam="2">  1        2 0.36689824E+00 0.23996325E+04</pdfrwt>
<pdfrwt beam="1">  1       -2 0.92866085E-01 0.23996325E+04</pdfrwt>
<totfact> 0.35837517E+00</totfact>
</mgrwt>
</event>
<event>
 4    1  0.2552184E-008  0.2412223E+04  0.7816531E-02  0.8434941E-01
         -2   -1    0    0    0  501 -0.00000000000E+00  0.00000000000E+00  0.16246268877E+04  0.16246268877E+04  0.00000000000E+00 0. -1.
          2   -1    0    0  501    0  0.00000000000E+00 -0.00000000000E+00 -0.89540891764E+03  0.89540891764E+03  0.00000000000E+00 0.  1.
    2000013    1    1    2    0    0  0.68972582020E+03 -0.14209877947E+03  0.11674632106E+03  0.11882943548E+04  0.95000000000E+03 0.  0.
   -2000013    1    1    2    0    0 -0.68972582020E+03  0.14209877947E+03  0.61247164896E+03  0.13317414505E+04  0.95000000000E+03 0.  0.
<mgrwt>
<rscale>  0 0.24122234E+04</rscale>
<asrwt>0</asrwt>
<pdfrwt beam="2">  1        2 0.13775522E+00 0.24122234E+04</pdfrwt>
<pdfrwt beam="1">  1       -2 0.24994260E+00 0.24122234E+04</pdfrwt>
<totfact> 0.17060020E+00</totfact>
</mgrwt>
</event>
<event>
 4    1  0.2552184E-008  0.2558429E+04  0.7816531E-02  0.8382461E-01
         -2   -1    0    0    0  501 -0.00000000000E+00  0.00000000000E+00  0.10058816283E+04  0.10058816283E+04  0.00000000000E+00 0. -1.
          2   -1    0    0  501    0  0.00000000000E+00 -0.00000000000E+00 -0.16268209776E+04  0.16268209776E+04  0.00000000000E+00 0.  1.
    2000013    1    1    2    0    0 -0.38990735395E+03  0.74869736725E+03 -0.46070060410E+03  0.13517842058E+04  0.95000000000E+03 0.  0.
   -2000013    1    1    2    0    0  0.38990735395E+03 -0.74869736725E+03 -0.16023874514E+03  0.12809184002E+04  0.95000000000E+03 0.  0.
<mgrwt>
<rscale>  0 0.25584287E+04</rscale>
<asrwt>0</asrwt>
<pdfrwt beam="2">  1        2 0.25028015E+00 0.25584287E+04</pdfrwt>
<pdfrwt beam="1">  1       -2 0.15475102E+00 0.25584287E+04</pdfrwt>
<totfact> 0.26368645E+00</totfact>
</mgrwt>
</event>
<event>
 4    1  0.2552184E-008  0.3230339E+04  0.7816531E-02  0.8180850E-01
          2   -1    0    0  501    0  0.00000000000E+00  0.00000000000E+00  0.65478514436E+03  0.65478514436E+03  0.00000000000E+00 0.  1.
         -2   -1    0    0    0  501 -0.00000000000E+00 -0.00000000000E+00 -0.39841650411E+04  0.39841650411E+04  0.00000000000E+00 0. -1.
    2000013    1    1    2    0    0 -0.75756110197E+03  0.68960566333E+03 -0.50084820029E+03  0.14841845282E+04  0.95000000000E+03 0.  0.
   -2000013    1    1    2    0    0  0.75756110197E+03 -0.68960566333E+03 -0.28285316964E+04  0.31547656572E+04  0.95000000000E+03 0.  0.
<mgrwt>
<rscale>  0 0.32303387E+04</rscale>
<asrwt>0</asrwt>
<pdfrwt beam="1">  1        2 0.10073618E+00 0.32303387E+04</pdfrwt>
<pdfrwt beam="2">  1       -2 0.61294846E+00 0.32303387E+04</pdfrwt>
<totfact> 0.16774075E-02</totfact>
</mgrwt>
</event>
<event>
 4    1  0.2552184E-008  0.2052090E+04  0.7816531E-02  0.8582647E-01
         -2   -1    0    0    0  501 -0.00000000000E+00  0.00000000000E+00  0.30893559132E+03  0.30893559132E+03  0.00000000000E+00 0.  1.
          2   -1    0    0  501    0  0.00000000000E+00 -0.00000000000E+00 -0.34077262325E+04  0.34077262325E+04  0.00000000000E+00 0. -1.
    2000013    1    1    2    0    0  0.28896901005E+03 -0.22445072466E+03 -0.13175477712E+04  0.16650265301E+04  0.95000000000E+03 0.  0.
   -2000013    1    1    2    0    0 -0.28896901005E+03  0.22445072466E+03 -0.17812428700E+04  0.20516352938E+04  0.95000000000E+03 0.  0.
<mgrwt>
<rscale>  0 0.20520896E+04</rscale>
<asrwt>0</asrwt>
<pdfrwt beam="2">  1        2 0.52426559E+00 0.20520896E+04</pdfrwt>
<pdfrwt beam="1">  1       -2 0.47528551E-01 0.20520896E+04</pdfrwt>
<totfact> 0.36715902E+00</totfact>
</mgrwt>
</event>
<event>
 4    1  0.2552184E-008  0.2293845E+04  0.7816531E-02  0.8480352E-01
          2   -1    0    0  501    0  0.00000000000E+00  0.00000000000E+00  0.13911688132E+04  0.13911688132E+04  0.00000000000E+00 0.  1.
         -2   -1    0    0    0  501 -0.00000000000E+00 -0.00000000000E+00 -0.94555816735E+03  0.94555816735E+03  0.00000000000E+00 0. -1.
    2000013    1    1    2    0    0  0.21875092194E+03  0.43764566657E+03 -0.20157028297E+03  0.10874356414E+04  0.95000000000E+03 0.  0.
   -2000013    1    1    2    0    0 -0.21875092194E+03 -0.43764566657E+03  0.64718092884E+03  0.12492913391E+04  0.95000000000E+03 0.  0.
<mgrwt>
<rscale>  0 0.22938448E+04</rscale>
<asrwt>0</asrwt>
<pdfrwt beam="1">  1        2 0.21402597E+00 0.22938448E+04</pdfrwt>
<pdfrwt beam="2">  1       -2 0.14547049E+00 0.22938448E+04</pdfrwt>
<totfact> 0.43153074E+00</totfact>
</mgrwt>
</event>
<event>
 4    1  0.2552184E-008  0.2389708E+04  0.7816531E-02  0.8443367E-01
          2   -1    0    0  501    0  0.00000000000E+00  0.00000000000E+00  0.33976385700E+04  0.33976385700E+04  0.00000000000E+00 0.  1.
         -2   -1    0    0    0  501 -0.00000000000E+00 -0.00000000000E+00 -0.42019650129E+03  0.42019650129E+03  0.00000000000E+00 0. -1.
    2000013    1    1    2    0    0  0.47554762746E+03  0.12998765808E+03  0.64012755045E+03  0.12471189270E+04  0.95000000000E+03 0.  0.
   -2000013    1    1    2    0    0 -0.47554762746E+03 -0.12998765808E+03  0.23373145183E+04  0.25707161443E+04  0.95000000000E+03 0.  0.
<mgrwt>
<rscale>  0 0.23897078E+04</rscale>
<asrwt>0</asrwt>
<pdfrwt beam="1">  1        2 0.52271361E+00 0.23897078E+04</pdfrwt>
<pdfrwt beam="2">  1       -2 0.64645618E-01 0.23897078E+04</pdfrwt>
<totfact> 0.19055809E+00</totfact>
</mgrwt>
</event>
<event>
 4    1  0.2552184E-008  0.2198397E+04  0.7816531E-02  0.8519095E-01
         -2   -1    0    0    0  501 -0.00000000000E+00  0.00000000000E+00  0.25509926585E+03  0.25509926585E+03  0.00000000000E+00 0. -1.
          2   -1    0    0  501    0  0.00000000000E+00 -0.00000000000E+00 -0.47363438117E+04  0.47363438117E+04  0.00000000000E+00 0.  1.
    2000013    1    1    2    0    0  0.52581345191E+03 -0.10887571879E+03 -0.25401561566E+04  0.27646386759E+04  0.95000000000E+03 0.  0.
   -2000013    1    1    2    0    0 -0.52581345191E+03  0.10887571879E+03 -0.19410883892E+04  0.22268044016E+04  0.95000000000E+03 0.  0.
<mgrwt>
<rscale>  0 0.21983974E+04</rscale>
<asrwt>0</asrwt>
<pdfrwt beam="2">  1        2 0.72866819E+00 0.21983974E+04</pdfrwt>
<pdfrwt beam="1">  1       -2 0.39246046E-01 0.21983974E+04</pdfrwt>
<totfact> 0.39895728E-01</totfact>
</mgrwt>
</event>
<event>
 4    1  0.2552184E-008  0.2244251E+04  0.7816531E-02  0.8500232E-01
         -2   -1    0    0    0  501 -0.00000000000E+00  0.00000000000E+00  0.30745948055E+03  0.30745948055E+03  0.00000000000E+00 0. -1.
          2   -1    0    0  501    0  0.00000000000E+00 -0.00000000000E+00 -0.40953870058E+04  0.40953870058E+04  0.00000000000E+00 0.  1.
    2000013    1    1    2    0    0  0.55071114634E+03  0.47246276878E+02 -0.23376617182E+04  0.25831525866E+04  0.95000000000E+03 0.  0.
   -2000013    1    1    2    0    0 -0.55071114634E+03 -0.47246276878E+02 -0.14502658071E+04  0.18196938997E+04  0.95000000000E+03 0.  0.
<mgrwt>
<rscale>  0 0.22442509E+04</rscale>
<asrwt>0</asrwt>
<pdfrwt beam="2">  1        2 0.63005952E+00 0.22442509E+04</pdfrwt>
<pdfrwt beam="1">  1       -2 0.47301460E-01 0.22442509E+04</pdfrwt>
<totfact> 0.11095650E+00</totfact>
</mgrwt>
</event>
<event>
 4    1  0.2552184E-008  0.2280505E+04  0.7816531E-02  0.8485648E-01
          2   -1    0    0  501    0  0.00000000000E+00  0.00000000000E+00  0.10604278918E+04  0.10604278918E+04  0.00000000000E+00 0.  1.
         -2   -1    0    0    0  501 -0.00000000000E+00 -0.00000000000E+00 -0.12260858378E+04  0.12260858378E+04  0.00000000000E+00 0. -1.
    2000013    1    1    2    0    0  0.50367500079E+03 -0.34505399995E+03  0.75463073071E+02  0.11317886042E+04  0.95000000000E+03 0.  0.
   -2000013    1    1    2    0    0 -0.50367500079E+03  0.34505399995E+03 -0.24112101901E+03  0.11547251253E+04  0.95000000000E+03 0.  0.
<mgrwt>
<rscale>  0 0.22805049E+04</rscale>
<asrwt>0</asrwt>
<pdfrwt beam="1">  1        2 0.16314275E+00 0.22805049E+04</pdfrwt>
<pdfrwt beam="2">  1       -2 0.18862859E+00 0.22805049E+04</pdfrwt>
<totfact> 0.33145621E+00</totfact>
</mgrwt>
</event>
<event>
 4    1  0.2552184E-008  0.2629756E+04  0.7816531E-02  0.8358163E-01
          1   -1    0    0  501    0  0.00000000000E+00  0.00000000000E+00  0.24914579681E+04  0.24914579681E+04  0.00000000000E+00 0.  1.
         -1   -1    0    0    0  501 -0.00000000000E+00 -0.00000000000E+00 -0.69393281984E+03  0.69393281984E+03  0.00000000000E+00 0. -1.
    2000013    1    1    2    0    0  0.34193650538E+03 -0.80993405635E+03  0.11789098375E+04  0.17507832973E+04  0.95000000000E+03 0.  0.
   -2000013    1    1    2    0    0 -0.34193650538E+03  0.80993405635E+03  0.61861531077E+03  0.14346074906E+04  0.95000000000E+03 0.  0.
<mgrwt>
<rscale>  0 0.26297562E+04</rscale>
<asrwt>0</asrwt>
<pdfrwt beam="1">  1        1 0.38330122E+00 0.26297562E+04</pdfrwt>
<pdfrwt beam="2">  1       -1 0.10675890E+00 0.26297562E+04</pdfrwt>
<totfact> 0.98757906E-01</totfact>
</mgrwt>
</event>
<event>
 4    1  0.2552184E-008  0.3184032E+04  0.7816531E-02  0.8193047E-01
          2   -1    0    0  501    0  0.00000000000E+00  0.00000000000E+00  0.31618167538E+04  0.31618167538E+04  0.00000000000E+00 0.  1.
         -2   -1    0    0    0  501 -0.00000000000E+00 -0.00000000000E+00 -0.80160080589E+03  0.80160080589E+03  0.00000000000E+00 0. -1.
    2000013    1    1    2    0    0  0.11548224903E+04  0.54614708659E+03  0.11662895933E+04  0.19734799314E+04  0.95000000000E+03 0.  0.
   -2000013    1    1    2    0    0 -0.11548224903E+04 -0.54614708659E+03  0.11939263546E+04  0.19899376283E+04  0.95000000000E+03 0.  0.
<mgrwt>
<rscale>  0 0.31840319E+04</rscale>
<asrwt>0</asrwt>
<pdfrwt beam="1">  1        2 0.48643334E+00 0.31840319E+04</pdfrwt>
<pdfrwt beam="2">  1       -2 0.12332320E+00 0.31840319E+04</pdfrwt>
<totfact> 0.57373388E-01</totfact>
</mgrwt>
</event>
<event>
 4    1  0.2552184E-008  0.1971366E+04  0.7816531E-02  0.8620126E-01
         -2   -1    0    0    0  501 -0.00000000000E+00  0.00000000000E+00  0.87412869353E+03  0.87412869353E+03  0.00000000000E+00 0.  1.
          2   -1    0    0  501    0  0.00000000000E+00 -0.00000000000E+00 -0.11114740114E+04  0.11114740114E+04  0.00000000000E+00 0. -1.
    2000013    1    1    2    0    0  0.17295726088E+03 -0.17015889809E+03 -0.16933005910E+02  0.98064009268E+03  0.95000000000E+03 0.  0.
   -2000013    1    1    2    0    0 -0.17295726088E+03  0.17015889809E+03 -0.22041231193E+03  0.10049626122E+04  0.95000000000E+03 0.  0.
<mgrwt>
<rscale>  0 0.19713664E+04</rscale>
<asrwt>0</asrwt>
<pdfrwt beam="2">  1        2 0.17099600E+00 0.19713664E+04</pdfrwt>
<pdfrwt beam="1">  1       -2 0.13448134E+00 0.19713664E+04</pdfrwt>
<totfact> 0.79527916E+00</totfact>
</mgrwt>
</event>
<event>
 4    1  0.2552184E-008  0.2906571E+04  0.7816531E-02  0.8270925E-01
          2   -1    0    0  501    0  0.00000000000E+00  0.00000000000E+00  0.21074475517E+04  0.21074475517E+04  0.00000000000E+00 0.  1.
         -2   -1    0    0    0  501 -0.00000000000E+00 -0.00000000000E+00 -0.10021788431E+04  0.10021788431E+04  0.00000000000E+00 0. -1.
    2000013    1    1    2    0    0 -0.83664535933E+03 -0.48859727879E+03 -0.41421310733E+01  0.13569155889E+04  0.95000000000E+03 0.  0.
   -2000013    1    1    2    0    0  0.83664535933E+03  0.48859727879E+03  0.11094108397E+04  0.17527108059E+04  0.95000000000E+03 0.  0.
<mgrwt>
<rscale>  0 0.29065714E+04</rscale>
<asrwt>0</asrwt>
<pdfrwt beam="1">  1        2 0.32422270E+00 0.29065714E+04</pdfrwt>
<pdfrwt beam="2">  1       -2 0.15418136E+00 0.29065714E+04</pdfrwt>
<totfact> 0.13978790E+00</totfact>
</mgrwt>
</event>
<event>
 4    1  0.2552184E-008  0.4012402E+04  0.7816531E-02  0.8002049E-01
          2   -1    0    0  501    0  0.00000000000E+00  0.00000000000E+00  0.24093926155E+04  0.24093926155E+04  0.00000000000E+00 0.  1.
         -2   -1    0    0    0  501 -0.00000000000E+00 -0.00000000000E+00 -0.16704797071E+04  0.16704797071E+04  0.00000000000E+00 0. -1.
    2000013    1    1    2    0    0  0.55180636301E+02  0.16494345499E+04 -0.27255789519E+03  0.19236598044E+04  0.95000000000E+03 0.  0.
   -2000013    1    1    2    0    0 -0.55180636301E+02 -0.16494345499E+04  0.10114708036E+04  0.21562125182E+04  0.95000000000E+03 0.  0.
<mgrwt>
<rscale>  0 0.40124015E+04</rscale>
<asrwt>0</asrwt>
<pdfrwt beam="1">  1        2 0.37067579E+00 0.40124015E+04</pdfrwt>
<pdfrwt beam="2">  1       -2 0.25699688E+00 0.40124015E+04</pdfrwt>
<totfact> 0.18012435E-01</totfact>
</mgrwt>
</event>
<event>
 4    1  0.2552184E-008  0.2444312E+04  0.7816531E-02  0.8423098E-01
         -1   -1    0    0    0  501 -0.00000000000E+00  0.00000000000E+00  0.10256266600E+04  0.10256266600E+04  0.00000000000E+00 0. -1.
          1   -1    0    0  501    0  0.00000000000E+00 -0.00000000000E+00 -0.14563435257E+04  0.14563435257E+04  0.00000000000E+00 0.  1.
    2000013    1    1    2    0    0 -0.26842862664E+02  0.76300274593E+03 -0.12301214505E+03  0.12249594758E+04  0.95000000000E+03 0.  0.
   -2000013    1    1    2    0    0  0.26842862664E+02 -0.76300274593E+03 -0.30770472061E+03  0.12570107098E+04  0.95000000000E+03 0.  0.
<mgrwt>
<rscale>  0 0.24443116E+04</rscale>
<asrwt>0</asrwt>
<pdfrwt beam="2">  1        1 0.22405285E+00 0.24443116E+04</pdfrwt>
<pdfrwt beam="1">  1       -1 0.15778872E+00 0.24443116E+04</pdfrwt>
<totfact> 0.19026493E+00</totfact>
</mgrwt>
</event>
<event>
 4    1  0.2552184E-008  0.2671784E+04  0.7816531E-02  0.8344219E-01
         -2   -1    0    0    0  501 -0.00000000000E+00  0.00000000000E+00  0.75768059757E+03  0.75768059757E+03  0.00000000000E+00 0. -1.
          2   -1    0    0  501    0  0.00000000000E+00 -0.00000000000E+00 -0.23553552083E+04  0.23553552083E+04  0.00000000000E+00 0.  1.
    2000013    1    1    2    0    0  0.15038242758E+03 -0.83267948855E+03 -0.32392225781E+03  0.13127816400E+04  0.95000000000E+03 0.  0.
   -2000013    1    1    2    0    0 -0.15038242758E+03  0.83267948855E+03 -0.12737523529E+04  0.18002541658E+04  0.95000000000E+03 0.  0.
<mgrwt>
<rscale>  0 0.26717836E+04</rscale>
<asrwt>0</asrwt>
<pdfrwt beam="2">  1        2 0.36236234E+00 0.26717836E+04</pdfrwt>
<pdfrwt beam="1">  1       -2 0.11656625E+00 0.26717836E+04</pdfrwt>
<totfact> 0.21146015E+00</totfact>
</mgrwt>
</event>
<event>
 4    1  0.2552184E-008  0.2608898E+04  0.7816531E-02  0.8365185E-01
          1   -1    0    0  501    0  0.00000000000E+00  0.00000000000E+00  0.23813719430E+04  0.23813719430E+04  0.00000000000E+00 0. -1.
         -1   -1    0    0    0  501 -0.00000000000E+00 -0.00000000000E+00 -0.71454059879E+03  0.71454059879E+03  0.00000000000E+00 0.  1.
    2000013    1    1    2    0    0 -0.49462513213E+03 -0.24312760642E+03 -0.17552650405E+01  0.10983023879E+04  0.95000000000E+03 0.  0.
   -2000013    1    1    2    0    0  0.49462513213E+03  0.24312760642E+03  0.16685866093E+04  0.19976101539E+04  0.95000000000E+03 0.  0.
<mgrwt>
<rscale>  0 0.26088978E+04</rscale>
<asrwt>0</asrwt>
<pdfrwt beam="1">  1        1 0.36636491E+00 0.26088978E+04</pdfrwt>
<pdfrwt beam="2">  1       -1 0.10992932E+00 0.26088978E+04</pdfrwt>
<totfact> 0.11003233E+00</totfact>
</mgrwt>
</event>
<event>
 4    1  0.2552184E-008  0.2590332E+04  0.7816531E-02  0.8371493E-01
         -2   -1    0    0    0  501 -0.00000000000E+00  0.00000000000E+00  0.88384850455E+03  0.88384850455E+03  0.00000000000E+00 0. -1.
          2   -1    0    0  501    0  0.00000000000E+00 -0.00000000000E+00 -0.18978991143E+04  0.18978991143E+04  0.00000000000E+00 0.  1.
    2000013    1    1    2    0    0 -0.33664024475E+03 -0.78965842916E+03 -0.71655397226E+03  0.14672548123E+04  0.95000000000E+03 0.  0.
   -2000013    1    1    2    0    0  0.33664024475E+03  0.78965842916E+03 -0.29749663752E+03  0.13144928065E+04  0.95000000000E+03 0.  0.
<mgrwt>
<rscale>  0 0.25903323E+04</rscale>
<asrwt>0</asrwt>
<pdfrwt beam="2">  1        2 0.29198447E+00 0.25903323E+04</pdfrwt>
<pdfrwt beam="1">  1       -2 0.13597670E+00 0.25903323E+04</pdfrwt>
<totfact> 0.26107529E+00</totfact>
</mgrwt>
</event>
<event>
 4    1  0.2552184E-008  0.2920813E+04  0.7816531E-02  0.8266712E-01
          2   -1    0    0  501    0  0.00000000000E+00  0.00000000000E+00  0.27912190913E+04  0.27912190913E+04  0.00000000000E+00 0.  1.
         -2   -1    0    0    0  501 -0.00000000000E+00 -0.00000000000E+00 -0.76410596414E+03  0.76410596414E+03  0.00000000000E+00 0. -1.
    2000013    1    1    2    0    0 -0.11015965158E+03 -0.10593981994E+04  0.63674818540E+03  0.15628205096E+04  0.95000000000E+03 0.  0.
   -2000013    1    1    2    0    0  0.11015965158E+03  0.10593981994E+04  0.13903649418E+04  0.19925045458E+04  0.95000000000E+03 0.  0.
<mgrwt>
<rscale>  0 0.29208130E+04</rscale>
<asrwt>0</asrwt>
<pdfrwt beam="1">  1        2 0.42941832E+00 0.29208130E+04</pdfrwt>
<pdfrwt beam="2">  1       -2 0.11755477E+00 0.29208130E+04</pdfrwt>
<totfact> 0.11264793E+00</totfact>
</mgrwt>
</event>
<event>
 4    1  0.2552184E-008  0.2368005E+04  0.7816531E-02  0.8451580E-01
          2   -1    0    0  501    0  0.00000000000E+00  0.00000000000E+00  0.11818285493E+04  0.11818285493E+04  0.00000000000E+00 0.  1.
         -2   -1    0    0    0  501 -0.00000000000E+00 -0.00000000000E+00 -0.11861808100E+04  0.11861808100E+04  0.00000000000E+00 0. -1.
    2000013    1    1    2    0    0  0.68262414350E+03 -0.17383781920E+03  0.54100400553E+02  0.11839012467E+04  0.95000000000E+03 0.  0.
   -2000013    1    1    2    0    0 -0.68262414350E+03  0.17383781920E+03 -0.58452661264E+02  0.11841081126E+04  0.95000000000E+03 0.  0.
<mgrwt>
<rscale>  0 0.23680054E+04</rscale>
<asrwt>0</asrwt>
<pdfrwt beam="1">  1        2 0.18181978E+00 0.23680054E+04</pdfrwt>
<pdfrwt beam="2">  1       -2 0.18248935E+00 0.23680054E+04</pdfrwt>
<totfact> 0.30522489E+00</totfact>
</mgrwt>
</event>
<event>
 4    1  0.2552184E-008  0.2996520E+04  0.7816531E-02  0.8244725E-01
          2   -1    0    0  501    0  0.00000000000E+00  0.00000000000E+00  0.17314778708E+04  0.17314778708E+04  0.00000000000E+00 0.  1.
         -2   -1    0    0    0  501 -0.00000000000E+00 -0.00000000000E+00 -0.12964552831E+04  0.12964552831E+04  0.00000000000E+00 0. -1.
    2000013    1    1    2    0    0  0.98073865189E+03  0.50472223938E+02  0.83868137271E+03  0.16032099655E+04  0.95000000000E+03 0.  0.
   -2000013    1    1    2    0    0 -0.98073865189E+03 -0.50472223938E+02 -0.40365878500E+03  0.14247231883E+04  0.95000000000E+03 0.  0.
<mgrwt>
<rscale>  0 0.29965204E+04</rscale>
<asrwt>0</asrwt>
<pdfrwt beam="1">  1        2 0.26638121E+00 0.29965204E+04</pdfrwt>
<pdfrwt beam="2">  1       -2 0.19945466E+00 0.29965204E+04</pdfrwt>
<totfact> 0.10817143E+00</totfact>
</mgrwt>
</event>
<event>
 4    1  0.2552184E-008  0.2946809E+04  0.7816531E-02  0.8259085E-01
         -2   -1    0    0    0  501 -0.00000000000E+00  0.00000000000E+00  0.72531802613E+03  0.72531802613E+03  0.00000000000E+00 0.  1.
          2   -1    0    0  501    0  0.00000000000E+00 -0.00000000000E+00 -0.29930602802E+04  0.29930602802E+04  0.00000000000E+00 0. -1.
    2000013    1    1    2    0    0  0.96849124033E+03  0.19263244737E+03 -0.45045409700E+03  0.14423908749E+04  0.95000000000E+03 0.  0.
   -2000013    1    1    2    0    0 -0.96849124033E+03 -0.19263244737E+03 -0.18172881571E+04  0.22759874315E+04  0.95000000000E+03 0.  0.
<mgrwt>
<rscale>  0 0.29468088E+04</rscale>
<asrwt>0</asrwt>
<pdfrwt beam="2">  1        2 0.46047081E+00 0.29468088E+04</pdfrwt>
<pdfrwt beam="1">  1       -2 0.11158739E+00 0.29468088E+04</pdfrwt>
<totfact> 0.95895143E-01</totfact>
</mgrwt>
</event>
<event>
 4    1  0.2552184E-008  0.2100918E+04  0.7816531E-02  0.8560839E-01
         -2   -1    0    0    0  501 -0.00000000000E+00  0.00000000000E+00  0.11058617786E+04  0.11058617786E+04  0.00000000000E+00 0. -1.
          2   -1    0    0  501    0  0.00000000000E+00 -0.00000000000E+00 -0.99783209826E+03  0.99783209826E+03  0.00000000000E+00 0.  1.
    2000013    1    1    2    0    0  0.24111937494E+03 -0.17314477985E+03  0.39038529416E+03  0.10691203607E+04  0.95000000000E+03 0.  0.
   -2000013    1    1    2    0    0 -0.24111937494E+03  0.17314477985E+03 -0.28235561379E+03  0.10345735162E+04  0.95000000000E+03 0.  0.
<mgrwt>
<rscale>  0 0.21009183E+04</rscale>
<asrwt>0</asrwt>
<pdfrwt beam="2">  1        2 0.15351263E+00 0.21009183E+04</pdfrwt>
<pdfrwt beam="1">  1       -2 0.17013258E+00 0.21009183E+04</pdfrwt>
<totfact> 0.49511841E+00</totfact>
</mgrwt>
</event>
<event>
 4    1  0.2552184E-008  0.2231172E+04  0.7816531E-02  0.8505564E-01
         -4   -1    0    0    0  501 -0.00000000000E+00  0.00000000000E+00  0.12792732383E+04  0.12792732383E+04  0.00000000000E+00 0. -1.
          4   -1    0    0  501    0  0.00000000000E+00 -0.00000000000E+00 -0.97284343007E+03  0.97284343007E+03  0.00000000000E+00 0.  1.
    2000013    1    1    2    0    0 -0.81512507806E+01 -0.57761477327E+03  0.24532553467E+03  0.11385911853E+04  0.95000000000E+03 0.  0.
   -2000013    1    1    2    0    0  0.81512507806E+01  0.57761477327E+03  0.61104273514E+02  0.11135254831E+04  0.95000000000E+03 0.  0.
<mgrwt>
<rscale>  0 0.22311724E+04</rscale>
<asrwt>0</asrwt>
<pdfrwt beam="2">  1        4 0.14966822E+00 0.22311724E+04</pdfrwt>
<pdfrwt beam="1">  1       -4 0.19681127E+00 0.22311724E+04</pdfrwt>
<totfact> 0.75421781E-02</totfact>
</mgrwt>
</event>
<event>
 4    1  0.2552184E-008  0.1975122E+04  0.7816531E-02  0.8618341E-01
         -2   -1    0    0    0  501 -0.00000000000E+00  0.00000000000E+00  0.26977333002E+03  0.26977333002E+03  0.00000000000E+00 0. -1.
          2   -1    0    0  501    0  0.00000000000E+00 -0.00000000000E+00 -0.36151710885E+04  0.36151710885E+04  0.00000000000E+00 0.  1.
    2000013    1    1    2    0    0  0.72446855989E+02 -0.25966870136E+03 -0.16529939491E+04  0.19255039281E+04  0.95000000000E+03 0.  0.
   -2000013    1    1    2    0    0 -0.72446855989E+02  0.25966870136E+03 -0.16924038093E+04  0.19594404904E+04  0.95000000000E+03 0.  0.
<mgrwt>
<rscale>  0 0.19751220E+04</rscale>
<asrwt>0</asrwt>
<pdfrwt beam="2">  1        2 0.55618015E+00 0.19751220E+04</pdfrwt>
<pdfrwt beam="1">  1       -2 0.41503590E-01 0.19751220E+04</pdfrwt>
<totfact> 0.34711570E+00</totfact>
</mgrwt>
</event>
<event>
 4    1  0.2552184E-008  0.2134379E+04  0.7816531E-02  0.8546249E-01
          2   -1    0    0  501    0  0.00000000000E+00  0.00000000000E+00  0.85042566105E+03  0.85042566105E+03  0.00000000000E+00 0. -1.
         -2   -1    0    0    0  501 -0.00000000000E+00 -0.00000000000E+00 -0.13392040096E+04  0.13392040096E+04  0.00000000000E+00 0.  1.
    2000013    1    1    2    0    0 -0.34906983301E+03  0.20966119957E+03  0.28168281877E+02  0.10339734131E+04  0.95000000000E+03 0.  0.
   -2000013    1    1    2    0    0  0.34906983301E+03 -0.20966119957E+03 -0.51694663048E+03  0.11556562576E+04  0.95000000000E+03 0.  0.
<mgrwt>
<rscale>  0 0.21343790E+04</rscale>
<asrwt>0</asrwt>
<pdfrwt beam="1">  1        2 0.13083472E+00 0.21343790E+04</pdfrwt>
<pdfrwt beam="2">  1       -2 0.20603139E+00 0.21343790E+04</pdfrwt>
<totfact> 0.35390824E+00</totfact>
</mgrwt>
</event>
<event>
 4    1  0.2552184E-008  0.2375587E+04  0.7816531E-02  0.8448700E-01
         -2   -1    0    0    0  501 -0.00000000000E+00  0.00000000000E+00  0.10657054950E+04  0.10657054950E+04  0.00000000000E+00 0. -1.
          2   -1    0    0  501    0  0.00000000000E+00 -0.00000000000E+00 -0.13238679219E+04  0.13238679219E+04  0.00000000000E+00 0.  1.
    2000013    1    1    2    0    0  0.71167453104E+03  0.27805188009E+02 -0.16243594280E+03  0.11983902545E+04  0.95000000000E+03 0.  0.
   -2000013    1    1    2    0    0 -0.71167453104E+03 -0.27805188009E+02 -0.95726484052E+02  0.11911831624E+04  0.95000000000E+03 0.  0.
<mgrwt>
<rscale>  0 0.23755869E+04</rscale>
<asrwt>0</asrwt>
<pdfrwt beam="2">  1        2 0.20367199E+00 0.23755869E+04</pdfrwt>
<pdfrwt beam="1">  1       -2 0.16395469E+00 0.23755869E+04</pdfrwt>
<totfact> 0.33992146E+00</totfact>
</mgrwt>
</event>
<event>
 4    1  0.2552184E-008  0.2228553E+04  0.7816531E-02  0.8506637E-01
         -2   -1    0    0    0  501 -0.00000000000E+00  0.00000000000E+00  0.43880365486E+03  0.43880365486E+03  0.00000000000E+00 0. -1.
          2   -1    0    0  501    0  0.00000000000E+00 -0.00000000000E+00 -0.28295384377E+04  0.28295384377E+04  0.00000000000E+00 0.  1.
    2000013    1    1    2    0    0  0.32204048736E+02  0.56801017772E+03 -0.10131389245E+04  0.15008741263E+04  0.95000000000E+03 0.  0.
   -2000013    1    1    2    0    0 -0.32204048736E+02 -0.56801017772E+03 -0.13775958583E+04  0.17674679662E+04  0.95000000000E+03 0.  0.
<mgrwt>
<rscale>  0 0.22285527E+04</rscale>
<asrwt>0</asrwt>
<pdfrwt beam="2">  1        2 0.43531359E+00 0.22285527E+04</pdfrwt>
<pdfrwt beam="1">  1       -2 0.67508257E-01 0.22285527E+04</pdfrwt>
<totfact> 0.40728658E+00</totfact>
</mgrwt>
</event>
<event>
 4    1  0.2552184E-008  0.2710130E+04  0.7816531E-02  0.8331726E-01
         -2   -1    0    0    0  501 -0.00000000000E+00  0.00000000000E+00  0.12265730430E+04  0.12265730430E+04  0.00000000000E+00 0. -1.
          2   -1    0    0  501    0  0.00000000000E+00 -0.00000000000E+00 -0.14970170916E+04  0.14970170916E+04  0.00000000000E+00 0.  1.
    2000013    1    1    2    0    0  0.28192475451E+03  0.57478118060E+03  0.59214468125E+03  0.12895698106E+04  0.95000000000E+03 0.  0.
   -2000013    1    1    2    0    0 -0.28192475451E+03 -0.57478118060E+03 -0.86258872993E+03  0.14340203240E+04  0.95000000000E+03 0.  0.
<mgrwt>
<rscale>  0 0.27101297E+04</rscale>
<asrwt>0</asrwt>
<pdfrwt beam="2">  1        2 0.23031032E+00 0.27101297E+04</pdfrwt>
<pdfrwt beam="1">  1       -2 0.18870355E+00 0.27101297E+04</pdfrwt>
<totfact> 0.17667629E+00</totfact>
</mgrwt>
</event>
<event>
 4    1  0.2552184E-008  0.2517529E+04  0.7816531E-02  0.8396767E-01
         -2   -1    0    0    0  501 -0.00000000000E+00  0.00000000000E+00  0.42720211648E+03  0.42720211648E+03  0.00000000000E+00 0. -1.
          2   -1    0    0  501    0  0.00000000000E+00 -0.00000000000E+00 -0.37089891794E+04  0.37089891794E+04  0.00000000000E+00 0.  1.
    2000013    1    1    2    0    0  0.48628088660E+03  0.59948119992E+03 -0.11586886049E+04  0.16854987668E+04  0.95000000000E+03 0.  0.
   -2000013    1    1    2    0    0 -0.48628088660E+03 -0.59948119992E+03 -0.21230984580E+04  0.24506925291E+04  0.95000000000E+03 0.  0.
<mgrwt>
<rscale>  0 0.25175290E+04</rscale>
<asrwt>0</asrwt>
<pdfrwt beam="2">  1        2 0.57061372E+00 0.25175290E+04</pdfrwt>
<pdfrwt beam="1">  1       -2 0.65723402E-01 0.25175290E+04</pdfrwt>
<totfact> 0.10934071E+00</totfact>
</mgrwt>
</event>
<event>
 4    1  0.2552184E-008  0.2571119E+04  0.7816531E-02  0.8378078E-01
          2   -1    0    0  501    0  0.00000000000E+00  0.00000000000E+00  0.11446251139E+04  0.11446251139E+04  0.00000000000E+00 0.  1.
         -2   -1    0    0    0  501 -0.00000000000E+00 -0.00000000000E+00 -0.14438464408E+04  0.14438464408E+04  0.00000000000E+00 0. -1.
    2000013    1    1    2    0    0  0.25958952484E+03 -0.22388255102E+03 -0.95037361656E+03  0.13868021233E+04  0.95000000000E+03 0.  0.
   -2000013    1    1    2    0    0 -0.25958952484E+03  0.22388255102E+03  0.65115228971E+03  0.12016694314E+04  0.95000000000E+03 0.  0.
<mgrwt>
<rscale>  0 0.25711187E+04</rscale>
<asrwt>0</asrwt>
<pdfrwt beam="1">  1        2 0.17609617E+00 0.25711187E+04</pdfrwt>
<pdfrwt beam="2">  1       -2 0.22213022E+00 0.25711187E+04</pdfrwt>
<totfact> 0.17377087E+00</totfact>
</mgrwt>
</event>
<event>
 4    1  0.2552184E-008  0.2567951E+04  0.7816531E-02  0.8379170E-01
          2   -1    0    0  501    0  0.00000000000E+00  0.00000000000E+00  0.36136912007E+04  0.36136912007E+04  0.00000000000E+00 0.  1.
         -2   -1    0    0    0  501 -0.00000000000E+00 -0.00000000000E+00 -0.45620740912E+03  0.45620740912E+03  0.00000000000E+00 0. -1.
    2000013    1    1    2    0    0  0.75074091832E+03  0.13251298578E+03  0.22223699952E+04  0.25342849116E+04  0.95000000000E+03 0.  0.
   -2000013    1    1    2    0    0 -0.75074091832E+03 -0.13251298578E+03  0.93511379641E+03  0.15356136982E+04  0.95000000000E+03 0.  0.
<mgrwt>
<rscale>  0 0.25679507E+04</rscale>
<asrwt>0</asrwt>
<pdfrwt beam="1">  1        2 0.55595247E+00 0.25679507E+04</pdfrwt>
<pdfrwt beam="2">  1       -2 0.70185758E-01 0.25679507E+04</pdfrwt>
<totfact> 0.11076094E+00</totfact>
</mgrwt>
</event>
<event>
 4    1  0.2552184E-008  0.2910192E+04  0.7816531E-02  0.8269852E-01
         -2   -1    0    0    0  501 -0.00000000000E+00  0.00000000000E+00  0.12682984758E+04  0.12682984758E+04  0.00000000000E+00 0. -1.
          2   -1    0    0  501    0  0.00000000000E+00 -0.00000000000E+00 -0.16694054587E+04  0.16694054587E+04  0.00000000000E+00 0.  1.
    2000013    1    1    2    0    0 -0.90629128465E+03 -0.73291923095E+02 -0.82939433746E+03  0.15547123739E+04  0.95000000000E+03 0.  0.
   -2000013    1    1    2    0    0  0.90629128465E+03  0.73291923095E+02  0.42828735458E+03  0.13829915606E+04  0.95000000000E+03 0.  0.
<mgrwt>
<rscale>  0 0.29101920E+04</rscale>
<asrwt>0</asrwt>
<pdfrwt beam="2">  1        2 0.25683161E+00 0.29101920E+04</pdfrwt>
<pdfrwt beam="1">  1       -2 0.19512284E+00 0.29101920E+04</pdfrwt>
<totfact> 0.12600876E+00</totfact>
</mgrwt>
</event>
<event>
 4    1  0.2552184E-008  0.3448607E+04  0.7816531E-02  0.8126079E-01
         -1   -1    0    0    0  501 -0.00000000000E+00  0.00000000000E+00  0.88006402943E+03  0.88006402943E+03  0.00000000000E+00 0. -1.
          1   -1    0    0  501    0  0.00000000000E+00 -0.00000000000E+00 -0.33784155091E+04  0.33784155091E+04  0.00000000000E+00 0.  1.
    2000013    1    1    2    0    0 -0.13498045073E+04  0.25724678610E+03 -0.72154487974E+03  0.18196909436E+04  0.95000000000E+03 0.  0.
   -2000013    1    1    2    0    0  0.13498045073E+04 -0.25724678610E+03 -0.17768065999E+04  0.24387885948E+04  0.95000000000E+03 0.  0.
<mgrwt>
<rscale>  0 0.34486067E+04</rscale>
<asrwt>0</asrwt>
<pdfrwt beam="2">  1        1 0.51975623E+00 0.34486067E+04</pdfrwt>
<pdfrwt beam="1">  1       -1 0.13539447E+00 0.34486067E+04</pdfrwt>
<totfact> 0.11632337E-01</totfact>
</mgrwt>
</event>
<event>
 4    1  0.2552184E-008  0.2450673E+04  0.7816531E-02  0.8420772E-01
          1   -1    0    0  501    0  0.00000000000E+00  0.00000000000E+00  0.13479167727E+04  0.13479167727E+04  0.00000000000E+00 0.  1.
         -1   -1    0    0    0  501 -0.00000000000E+00 -0.00000000000E+00 -0.11139040944E+04  0.11139040944E+04  0.00000000000E+00 0. -1.
    2000013    1    1    2    0    0  0.72685538931E+03 -0.54377744013E+02  0.37833253798E+03  0.12557512514E+04  0.95000000000E+03 0.  0.
   -2000013    1    1    2    0    0 -0.72685538931E+03  0.54377744013E+02 -0.14431985970E+03  0.12060696157E+04  0.95000000000E+03 0.  0.
<mgrwt>
<rscale>  0 0.24506734E+04</rscale>
<asrwt>0</asrwt>
<pdfrwt beam="1">  1        1 0.20737181E+00 0.24506734E+04</pdfrwt>
<pdfrwt beam="2">  1       -1 0.17136986E+00 0.24506734E+04</pdfrwt>
<totfact> 0.17938188E+00</totfact>
</mgrwt>
</event>
<event>
 4    1  0.2552184E-008  0.2639724E+04  0.7816531E-02  0.8354832E-01
          2   -1    0    0  501    0  0.00000000000E+00  0.00000000000E+00  0.14142914008E+04  0.14142914008E+04  0.00000000000E+00 0.  1.
         -2   -1    0    0    0  501 -0.00000000000E+00 -0.00000000000E+00 -0.12317374618E+04  0.12317374618E+04  0.00000000000E+00 0. -1.
    2000013    1    1    2    0    0  0.81719980504E+03 -0.41408681953E+03  0.10719838259E+03  0.13241128761E+04  0.95000000000E+03 0.  0.
   -2000013    1    1    2    0    0 -0.81719980504E+03  0.41408681953E+03  0.75355556394E+02  0.13219159865E+04  0.95000000000E+03 0.  0.
<mgrwt>
<rscale>  0 0.26397240E+04</rscale>
<asrwt>0</asrwt>
<pdfrwt beam="1">  1        2 0.21758329E+00 0.26397240E+04</pdfrwt>
<pdfrwt beam="2">  1       -2 0.18949807E+00 0.26397240E+04</pdfrwt>
<totfact> 0.19559729E+00</totfact>
</mgrwt>
</event>
<event>
 4    1  0.2552184E-008  0.2233962E+04  0.7816531E-02  0.8504424E-01
          2   -1    0    0  501    0  0.00000000000E+00  0.00000000000E+00  0.13131439636E+04  0.13131439636E+04  0.00000000000E+00 0.  1.
         -2   -1    0    0    0  501 -0.00000000000E+00 -0.00000000000E+00 -0.95012152983E+03  0.95012152983E+03  0.00000000000E+00 0. -1.
    2000013    1    1    2    0    0 -0.47480544306E+03 -0.31990724834E+03  0.48004430029E+02  0.11102185738E+04  0.95000000000E+03 0.  0.
   -2000013    1    1    2    0    0  0.47480544306E+03  0.31990724834E+03  0.31501800379E+03  0.11530469197E+04  0.95000000000E+03 0.  0.
<mgrwt>
<rscale>  0 0.22339618E+04</rscale>
<asrwt>0</asrwt>
<pdfrwt beam="1">  1        2 0.20202215E+00 0.22339618E+04</pdfrwt>
<pdfrwt beam="2">  1       -2 0.14617254E+00 0.22339618E+04</pdfrwt>
<totfact> 0.47502117E+00</totfact>
</mgrwt>
</event>
<event>
 4    1  0.2552184E-008  0.2596432E+04  0.7816531E-02  0.8369414E-01
          2   -1    0    0  501    0  0.00000000000E+00  0.00000000000E+00  0.98838204800E+03  0.98838204800E+03  0.00000000000E+00 0.  1.
         -2   -1    0    0    0  501 -0.00000000000E+00 -0.00000000000E+00 -0.17051757429E+04  0.17051757429E+04  0.00000000000E+00 0. -1.
    2000013    1    1    2    0    0  0.11895660491E+03  0.87637999429E+03 -0.38530001680E+03  0.13539382080E+04  0.95000000000E+03 0.  0.
   -2000013    1    1    2    0    0 -0.11895660491E+03 -0.87637999429E+03 -0.33149367812E+03  0.13396195829E+04  0.95000000000E+03 0.  0.
<mgrwt>
<rscale>  0 0.25964322E+04</rscale>
<asrwt>0</asrwt>
<pdfrwt beam="1">  1        2 0.15205878E+00 0.25964322E+04</pdfrwt>
<pdfrwt beam="2">  1       -2 0.26233473E+00 0.25964322E+04</pdfrwt>
<totfact> 0.12241111E+00</totfact>
</mgrwt>
</event>
<event>
 4    1  0.2552184E-008  0.2330183E+04  0.7816531E-02  0.8466115E-01
         -2   -1    0    0    0  501 -0.00000000000E+00  0.00000000000E+00  0.55714895119E+03  0.55714895119E+03  0.00000000000E+00 0. -1.
          2   -1    0    0  501    0  0.00000000000E+00 -0.00000000000E+00 -0.24364009249E+04  0.24364009249E+04  0.00000000000E+00 0.  1.
    2000013    1    1    2    0    0  0.14288738546E+03  0.65647929637E+03 -0.86301366532E+03  0.14486802470E+04  0.95000000000E+03 0.  0.
   -2000013    1    1    2    0    0 -0.14288738546E+03 -0.65647929637E+03 -0.10162383084E+04  0.15448696291E+04  0.95000000000E+03 0.  0.
<mgrwt>
<rscale>  0 0.23301830E+04</rscale>
<asrwt>0</asrwt>
<pdfrwt beam="2">  1        2 0.37483091E+00 0.23301830E+04</pdfrwt>
<pdfrwt beam="1">  1       -2 0.85715223E-01 0.23301830E+04</pdfrwt>
<totfact> 0.40498323E+00</totfact>
</mgrwt>
</event>
<event>
 4    1  0.2552184E-008  0.2343169E+04  0.7816531E-02  0.8461092E-01
          2   -1    0    0  501    0  0.00000000000E+00  0.00000000000E+00  0.10247882079E+04  0.10247882079E+04  0.00000000000E+00 0.  1.
         -2   -1    0    0    0  501 -0.00000000000E+00 -0.00000000000E+00 -0.13394091725E+04  0.13394091725E+04  0.00000000000E+00 0. -1.
    2000013    1    1    2    0    0 -0.37010944842E+02  0.67680191912E+03 -0.53038591611E+02  0.11682224702E+04  0.95000000000E+03 0.  0.
   -2000013    1    1    2    0    0  0.37010944842E+02 -0.67680191912E+03 -0.26158237303E+03  0.11959749101E+04  0.95000000000E+03 0.  0.
<mgrwt>
<rscale>  0 0.23431694E+04</rscale>
<asrwt>0</asrwt>
<pdfrwt beam="1">  1        2 0.15765972E+00 0.23431694E+04</pdfrwt>
<pdfrwt beam="2">  1       -2 0.20606295E+00 0.23431694E+04</pdfrwt>
<totfact> 0.26632633E+00</totfact>
</mgrwt>
</event>
<event>
 4    1  0.2552184E-008  0.2323933E+04  0.7816531E-02  0.8468544E-01
         -2   -1    0    0    0  501 -0.00000000000E+00  0.00000000000E+00  0.41386423604E+03  0.41386423604E+03  0.00000000000E+00 0. -1.
          2   -1    0    0  501    0  0.00000000000E+00 -0.00000000000E+00 -0.32623411854E+04  0.32623411854E+04  0.00000000000E+00 0.  1.
    2000013    1    1    2    0    0  0.64430231743E+03  0.24680332542E+02 -0.11415634239E+04  0.16190743176E+04  0.95000000000E+03 0.  0.
   -2000013    1    1    2    0    0 -0.64430231743E+03 -0.24680332542E+02 -0.17069135255E+04  0.20571311039E+04  0.95000000000E+03 0.  0.
<mgrwt>
<rscale>  0 0.23239332E+04</rscale>
<asrwt>0</asrwt>
<pdfrwt beam="2">  1        2 0.50189867E+00 0.23239332E+04</pdfrwt>
<pdfrwt beam="1">  1       -2 0.63671418E-01 0.23239332E+04</pdfrwt>
<totfact> 0.24403305E+00</totfact>
</mgrwt>
</event>
<event>
 4    1  0.2552184E-008  0.2472873E+04  0.7816531E-02  0.8412714E-01
         -2   -1    0    0    0  501 -0.00000000000E+00  0.00000000000E+00  0.12250592791E+04  0.12250592791E+04  0.00000000000E+00 0. -1.
          2   -1    0    0  501    0  0.00000000000E+00 -0.00000000000E+00 -0.12479192682E+04  0.12479192682E+04  0.00000000000E+00 0.  1.
    2000013    1    1    2    0    0 -0.62384704780E+03  0.32587762984E+03  0.35037782216E+03  0.12331447551E+04  0.95000000000E+03 0.  0.
   -2000013    1    1    2    0    0  0.62384704780E+03 -0.32587762984E+03 -0.37323781127E+03  0.12398337923E+04  0.95000000000E+03 0.  0.
<mgrwt>
<rscale>  0 0.24728729E+04</rscale>
<asrwt>0</asrwt>
<pdfrwt beam="2">  1        2 0.19198758E+00 0.24728729E+04</pdfrwt>
<pdfrwt beam="1">  1       -2 0.18847066E+00 0.24728729E+04</pdfrwt>
<totfact> 0.25165785E+00</totfact>
</mgrwt>
</event>
<event>
 4    1  0.2552184E-008  0.2543802E+04  0.7816531E-02  0.8387545E-01
          1   -1    0    0  501    0  0.00000000000E+00  0.00000000000E+00  0.15954249940E+04  0.15954249940E+04  0.00000000000E+00 0. -1.
         -1   -1    0    0    0  501 -0.00000000000E+00 -0.00000000000E+00 -0.10139816219E+04  0.10139816219E+04  0.00000000000E+00 0.  1.
    2000013    1    1    2    0    0  0.77977957944E+03 -0.21986953245E+03  0.41911385618E+02  0.12492619293E+04  0.95000000000E+03 0.  0.
   -2000013    1    1    2    0    0 -0.77977957944E+03  0.21986953245E+03  0.53953198653E+03  0.13601446865E+04  0.95000000000E+03 0.  0.
<mgrwt>
<rscale>  0 0.25438016E+04</rscale>
<asrwt>0</asrwt>
<pdfrwt beam="1">  1        1 0.24545000E+00 0.25438016E+04</pdfrwt>
<pdfrwt beam="2">  1       -1 0.15599717E+00 0.25438016E+04</pdfrwt>
<totfact> 0.15597563E+00</totfact>
</mgrwt>
</event>
<event>
 4    1  0.2552184E-008  0.2732471E+04  0.7816531E-02  0.8324545E-01
         -2   -1    0    0    0  501 -0.00000000000E+00  0.00000000000E+00  0.22077873722E+04  0.22077873722E+04  0.00000000000E+00 0. -1.
          2   -1    0    0  501    0  0.00000000000E+00 -0.00000000000E+00 -0.84546183073E+03  0.84546183073E+03  0.00000000000E+00 0.  1.
    2000013    1    1    2    0    0  0.32519804965E+02  0.48790310264E+03  0.16325855200E+04  0.19511387587E+04  0.95000000000E+03 0.  0.
   -2000013    1    1    2    0    0 -0.32519804965E+02 -0.48790310264E+03 -0.27025997861E+03  0.11021104442E+04  0.95000000000E+03 0.  0.
<mgrwt>
<rscale>  0 0.27324714E+04</rscale>
<asrwt>0</asrwt>
<pdfrwt beam="2">  1        2 0.13007105E+00 0.27324714E+04</pdfrwt>
<pdfrwt beam="1">  1       -2 0.33965959E+00 0.27324714E+04</pdfrwt>
<totfact> 0.50550810E-01</totfact>
</mgrwt>
</event>
<event>
 4    1  0.2552184E-008  0.2410486E+04  0.7816531E-02  0.8435588E-01
         -2   -1    0    0    0  501 -0.00000000000E+00  0.00000000000E+00  0.41779363707E+03  0.41779363707E+03  0.00000000000E+00 0. -1.
          2   -1    0    0  501    0  0.00000000000E+00 -0.00000000000E+00 -0.34768613236E+04  0.34768613236E+04  0.00000000000E+00 0.  1.
    2000013    1    1    2    0    0  0.63213832280E+03  0.32039272734E+03 -0.18830030271E+04  0.22249608443E+04  0.95000000000E+03 0.  0.
   -2000013    1    1    2    0    0 -0.63213832280E+03 -0.32039272734E+03 -0.11760646594E+04  0.16696941163E+04  0.95000000000E+03 0.  0.
<mgrwt>
<rscale>  0 0.24104859E+04</rscale>
<asrwt>0</asrwt>
<pdfrwt beam="2">  1        2 0.53490177E+00 0.24104859E+04</pdfrwt>
<pdfrwt beam="1">  1       -2 0.64275941E-01 0.24104859E+04</pdfrwt>
<totfact> 0.16985006E+00</totfact>
</mgrwt>
</event>
<event>
 4    1  0.2552184E-008  0.2480940E+04  0.7816531E-02  0.8409807E-01
         -2   -1    0    0    0  501 -0.00000000000E+00  0.00000000000E+00  0.49835838614E+03  0.49835838614E+03  0.00000000000E+00 0. -1.
          2   -1    0    0  501    0  0.00000000000E+00 -0.00000000000E+00 -0.30876698383E+04  0.30876698383E+04  0.00000000000E+00 0.  1.
    2000013    1    1    2    0    0  0.11448630816E+03 -0.65556464334E+03 -0.19303070253E+04  0.22519896377E+04  0.95000000000E+03 0.  0.
   -2000013    1    1    2    0    0 -0.11448630816E+03  0.65556464334E+03 -0.65900442690E+03  0.13340385868E+04  0.95000000000E+03 0.  0.
<mgrwt>
<rscale>  0 0.24809403E+04</rscale>
<asrwt>0</asrwt>
<pdfrwt beam="2">  1        2 0.47502613E+00 0.24809403E+04</pdfrwt>
<pdfrwt beam="1">  1       -2 0.76670520E-01 0.24809403E+04</pdfrwt>
<totfact> 0.20820159E+00</totfact>
</mgrwt>
</event>
<event>
 4    1  0.2552184E-008  0.2960093E+04  0.7816531E-02  0.8255219E-01
         -2   -1    0    0    0  501 -0.00000000000E+00  0.00000000000E+00  0.10123006070E+04  0.10123006070E+04  0.00000000000E+00 0. -1.
          2   -1    0    0  501    0  0.00000000000E+00 -0.00000000000E+00 -0.21639200816E+04  0.21639200816E+04  0.00000000000E+00 0.  1.
    2000013    1    1    2    0    0  0.21447675992E+03  0.80826373476E+03  0.24751221545E+03  0.12895940610E+04  0.95000000000E+03 0.  0.
   -2000013    1    1    2    0    0 -0.21447675992E+03 -0.80826373476E+03 -0.13991316901E+04  0.18866266275E+04  0.95000000000E+03 0.  0.
<mgrwt>
<rscale>  0 0.29600930E+04</rscale>
<asrwt>0</asrwt>
<pdfrwt beam="2">  1        2 0.33291078E+00 0.29600930E+04</pdfrwt>
<pdfrwt beam="1">  1       -2 0.15573855E+00 0.29600930E+04</pdfrwt>
<totfact> 0.12594371E+00</totfact>
</mgrwt>
</event>
<event>
 4    1  0.2552184E-008  0.1928908E+04  0.7816531E-02  0.8640599E-01
         -2   -1    0    0    0  501 -0.00000000000E+00  0.00000000000E+00  0.47767210922E+03  0.47767210922E+03  0.00000000000E+00 0. -1.
          2   -1    0    0  501    0  0.00000000000E+00 -0.00000000000E+00 -0.19473010234E+04  0.19473010234E+04  0.00000000000E+00 0.  1.
    2000013    1    1    2    0    0 -0.11096883083E+03  0.11460055792E+03 -0.67552676025E+03  0.11765558946E+04  0.95000000000E+03 0.  0.
   -2000013    1    1    2    0    0  0.11096883083E+03 -0.11460055792E+03 -0.79410215393E+03  0.12484172380E+04  0.95000000000E+03 0.  0.
<mgrwt>
<rscale>  0 0.19289079E+04</rscale>
<asrwt>0</asrwt>
<pdfrwt beam="2">  1        2 0.29958477E+00 0.19289079E+04</pdfrwt>
<pdfrwt beam="1">  1       -2 0.73488018E-01 0.19289079E+04</pdfrwt>
<totfact> 0.11155742E+01</totfact>
</mgrwt>
</event>
<event>
 4    1  0.2552184E-008  0.2485380E+04  0.7816531E-02  0.8408213E-01
         -1   -1    0    0    0  501 -0.00000000000E+00  0.00000000000E+00  0.18120041751E+04  0.18120041751E+04  0.00000000000E+00 0.  1.
          1   -1    0    0  501    0  0.00000000000E+00 -0.00000000000E+00 -0.85224876136E+03  0.85224876136E+03  0.00000000000E+00 0. -1.
    2000013    1    1    2    0    0  0.42630747516E+03 -0.16060206845E+03 -0.22652311770E+03  0.10776566293E+04  0.95000000000E+03 0.  0.
   -2000013    1    1    2    0    0 -0.42630747516E+03  0.16060206845E+03  0.11862785314E+04  0.15865963071E+04  0.95000000000E+03 0.  0.
<mgrwt>
<rscale>  0 0.24853799E+04</rscale>
<asrwt>0</asrwt>
<pdfrwt beam="2">  1        1 0.13111519E+00 0.24853799E+04</pdfrwt>
<pdfrwt beam="1">  1       -1 0.27876987E+00 0.24853799E+04</pdfrwt>
<totfact> 0.80406800E-01</totfact>
</mgrwt>
</event>
<event>
 4    1  0.2552184E-008  0.2437502E+04  0.7816531E-02  0.8425595E-01
         -2   -1    0    0    0  501 -0.00000000000E+00  0.00000000000E+00  0.13066700286E+04  0.13066700286E+04  0.00000000000E+00 0. -1.
          2   -1    0    0  501    0  0.00000000000E+00 -0.00000000000E+00 -0.11367477685E+04  0.11367477685E+04  0.00000000000E+00 0.  1.
    2000013    1    1    2    0    0  0.70453290137E+03 -0.28950436236E+03  0.13680563965E+03  0.12253143140E+04  0.95000000000E+03 0.  0.
   -2000013    1    1    2    0    0 -0.70453290137E+03  0.28950436236E+03  0.33116620475E+02  0.12181034831E+04  0.95000000000E+03 0.  0.
<mgrwt>
<rscale>  0 0.24375022E+04</rscale>
<asrwt>0</asrwt>
<pdfrwt beam="2">  1        2 0.17488427E+00 0.24375022E+04</pdfrwt>
<pdfrwt beam="1">  1       -2 0.20102616E+00 0.24375022E+04</pdfrwt>
<totfact> 0.24279002E+00</totfact>
</mgrwt>
</event>
<event>
 4    1  0.2552184E-008  0.1986225E+04  0.7816531E-02  0.8613088E-01
          2   -1    0    0  501    0  0.00000000000E+00  0.00000000000E+00  0.25276835091E+04  0.25276835091E+04  0.00000000000E+00 0.  1.
         -2   -1    0    0    0  501 -0.00000000000E+00 -0.00000000000E+00 -0.39018844603E+03  0.39018844603E+03  0.00000000000E+00 0. -1.
    2000013    1    1    2    0    0  0.13371055057E+03 -0.25625096955E+03  0.10910185855E+04  0.14752506989E+04  0.95000000000E+03 0.  0.
   -2000013    1    1    2    0    0 -0.13371055057E+03  0.25625096955E+03  0.10464764775E+04  0.14426212562E+04  0.95000000000E+03 0.  0.
<mgrwt>
<rscale>  0 0.19862255E+04</rscale>
<asrwt>0</asrwt>
<pdfrwt beam="1">  1        2 0.38887438E+00 0.19862255E+04</pdfrwt>
<pdfrwt beam="2">  1       -2 0.60028993E-01 0.19862255E+04</pdfrwt>
<totfact> 0.80777655E+00</totfact>
</mgrwt>
</event>
<event>
 4    1  0.2552184E-008  0.2162341E+04  0.7816531E-02  0.8534268E-01
          2   -1    0    0  501    0  0.00000000000E+00  0.00000000000E+00  0.25899620948E+04  0.25899620948E+04  0.00000000000E+00 0.  1.
         -2   -1    0    0    0  501 -0.00000000000E+00 -0.00000000000E+00 -0.45133094396E+03  0.45133094396E+03  0.00000000000E+00 0. -1.
    2000013    1    1    2    0    0  0.19538054723E+03  0.35046031569E+03  0.15260086745E+04  0.18417921886E+04  0.95000000000E+03 0.  0.
   -2000013    1    1    2    0    0 -0.19538054723E+03 -0.35046031569E+03  0.61262247629E+03  0.11995008502E+04  0.95000000000E+03 0.  0.
<mgrwt>
<rscale>  0 0.21623414E+04</rscale>
<asrwt>0</asrwt>
<pdfrwt beam="1">  1        2 0.39845570E+00 0.21623414E+04</pdfrwt>
<pdfrwt beam="2">  1       -2 0.69435531E-01 0.21623414E+04</pdfrwt>
<totfact> 0.53532729E+00</totfact>
</mgrwt>
</event>
<event>
 4    1  0.2552184E-008  0.2537778E+04  0.7816531E-02  0.8389649E-01
          2   -1    0    0  501    0  0.00000000000E+00  0.00000000000E+00  0.27206189094E+04  0.27206189094E+04  0.00000000000E+00 0.  1.
         -2   -1    0    0    0  501 -0.00000000000E+00 -0.00000000000E+00 -0.59180602609E+03  0.59180602609E+03  0.00000000000E+00 0. -1.
    2000013    1    1    2    0    0  0.35094141117E+03  0.74329185856E+03  0.12976624236E+04  0.18061202692E+04  0.95000000000E+03 0.  0.
   -2000013    1    1    2    0    0 -0.35094141117E+03 -0.74329185856E+03  0.83115045969E+03  0.15063046663E+04  0.95000000000E+03 0.  0.
<mgrwt>
<rscale>  0 0.25377775E+04</rscale>
<asrwt>0</asrwt>
<pdfrwt beam="1">  1        2 0.41855675E+00 0.25377775E+04</pdfrwt>
<pdfrwt beam="2">  1       -2 0.91047083E-01 0.25377775E+04</pdfrwt>
<totfact> 0.23610500E+00</totfact>
</mgrwt>
</event>
<event>
 4    1  0.2552184E-008  0.2187695E+04  0.7816531E-02  0.8523567E-01
          2   -1    0    0  501    0  0.00000000000E+00  0.00000000000E+00  0.10591558197E+04  0.10591558197E+04  0.00000000000E+00 0.  1.
         -2   -1    0    0    0  501 -0.00000000000E+00 -0.00000000000E+00 -0.11296750521E+04  0.11296750521E+04  0.00000000000E+00 0. -1.
    2000013    1    1    2    0    0  0.26446339838E+03  0.46576315999E+03  0.49198062842E+02  0.10916943985E+04  0.95000000000E+03 0.  0.
   -2000013    1    1    2    0    0 -0.26446339838E+03 -0.46576315999E+03 -0.11971729523E+03  0.10971364733E+04  0.95000000000E+03 0.  0.
<mgrwt>
<rscale>  0 0.21876946E+04</rscale>
<asrwt>0</asrwt>
<pdfrwt beam="1">  1        2 0.16294705E+00 0.21876946E+04</pdfrwt>
<pdfrwt beam="2">  1       -2 0.17379616E+00 0.21876946E+04</pdfrwt>
<totfact> 0.42340622E+00</totfact>
</mgrwt>
</event>
<event>
 4    1  0.2552184E-008  0.4592028E+04  0.7816531E-02  0.7894721E-01
         -2   -1    0    0    0  501 -0.00000000000E+00  0.00000000000E+00  0.16115331946E+04  0.16115331946E+04  0.00000000000E+00 0. -1.
          2   -1    0    0  501    0  0.00000000000E+00 -0.00000000000E+00 -0.32712203703E+04  0.32712203703E+04  0.00000000000E+00 0.  1.
    2000013    1    1    2    0    0  0.19487554807E+04 -0.61924924571E+03 -0.12909610520E+04  0.25981143141E+04  0.95000000000E+03 0.  0.
   -2000013    1    1    2    0    0 -0.19487554807E+04  0.61924924571E+03 -0.36872612382E+03  0.22846392508E+04  0.95000000000E+03 0.  0.
<mgrwt>
<rscale>  0 0.45920280E+04</rscale>
<asrwt>0</asrwt>
<pdfrwt beam="2">  1        2 0.50326467E+00 0.45920280E+04</pdfrwt>
<pdfrwt beam="1">  1       -2 0.24792819E+00 0.45920280E+04</pdfrwt>
<totfact> 0.57871506E-02</totfact>
</mgrwt>
</event>
<event>
 4    1  0.2552184E-008  0.2629839E+04  0.7816531E-02  0.8358136E-01
         -2   -1    0    0    0  501 -0.00000000000E+00  0.00000000000E+00  0.63857077076E+03  0.63857077076E+03  0.00000000000E+00 0. -1.
          2   -1    0    0  501    0  0.00000000000E+00 -0.00000000000E+00 -0.27076303314E+04  0.27076303314E+04  0.00000000000E+00 0.  1.
    2000013    1    1    2    0    0  0.67119454071E+03  0.51138826696E+03 -0.60398999840E+03  0.14068844975E+04  0.95000000000E+03 0.  0.
   -2000013    1    1    2    0    0 -0.67119454071E+03 -0.51138826696E+03 -0.14650695623E+04  0.19393166047E+04  0.95000000000E+03 0.  0.
<mgrwt>
<rscale>  0 0.26298392E+04</rscale>
<asrwt>0</asrwt>
<pdfrwt beam="2">  1        2 0.41655851E+00 0.26298392E+04</pdfrwt>
<pdfrwt beam="1">  1       -2 0.98241657E-01 0.26298392E+04</pdfrwt>
<totfact> 0.19968335E+00</totfact>
</mgrwt>
</event>
<event>
 4    1  0.2552184E-008  0.2450039E+04  0.7816531E-02  0.8421004E-01
         -2   -1    0    0    0  501 -0.00000000000E+00  0.00000000000E+00  0.50221979744E+03  0.50221979744E+03  0.00000000000E+00 0. -1.
          2   -1    0    0  501    0  0.00000000000E+00 -0.00000000000E+00 -0.29880795414E+04  0.29880795414E+04  0.00000000000E+00 0.  1.
    2000013    1    1    2    0    0 -0.40661656260E+03  0.62763125509E+03 -0.96190392274E+03  0.15449974686E+04  0.95000000000E+03 0.  0.
   -2000013    1    1    2    0    0  0.40661656260E+03 -0.62763125509E+03 -0.15239558212E+04  0.19453018702E+04  0.95000000000E+03 0.  0.
<mgrwt>
<rscale>  0 0.24500389E+04</rscale>
<asrwt>0</asrwt>
<pdfrwt beam="2">  1        2 0.45970454E+00 0.24500389E+04</pdfrwt>
<pdfrwt beam="1">  1       -2 0.77264586E-01 0.24500389E+04</pdfrwt>
<totfact> 0.23714090E+00</totfact>
</mgrwt>
</event>
<event>
 4    1  0.2552184E-008  0.2437038E+04  0.7816531E-02  0.8425766E-01
         -2   -1    0    0    0  501 -0.00000000000E+00  0.00000000000E+00  0.58975863060E+03  0.58975863060E+03  0.00000000000E+00 0. -1.
          2   -1    0    0  501    0  0.00000000000E+00 -0.00000000000E+00 -0.25176212407E+04  0.25176212407E+04  0.00000000000E+00 0.  1.
    2000013    1    1    2    0    0  0.70295757059E+03 -0.29662136528E+03 -0.94804281461E+03  0.15438324905E+04  0.95000000000E+03 0.  0.
   -2000013    1    1    2    0    0 -0.70295757059E+03  0.29662136528E+03 -0.97981979552E+03  0.15635473808E+04  0.95000000000E+03 0.  0.
<mgrwt>
<rscale>  0 0.24370382E+04</rscale>
<asrwt>0</asrwt>
<pdfrwt beam="2">  1        2 0.38732634E+00 0.24370382E+04</pdfrwt>
<pdfrwt beam="1">  1       -2 0.90732099E-01 0.24370382E+04</pdfrwt>
<totfact> 0.31611378E+00</totfact>
</mgrwt>
</event>
<event>
 4    1  0.2552184E-008  0.2204755E+04  0.7816531E-02  0.8516452E-01
         -2   -1    0    0    0  501 -0.00000000000E+00  0.00000000000E+00  0.66059914933E+03  0.66059914933E+03  0.00000000000E+00 0. -1.
          2   -1    0    0  501    0  0.00000000000E+00 -0.00000000000E+00 -0.18395964398E+04  0.18395964398E+04  0.00000000000E+00 0.  1.
    2000013    1    1    2    0    0  0.48922288223E+03  0.30488313036E+01 -0.28229610128E+03  0.11052327414E+04  0.95000000000E+03 0.  0.
   -2000013    1    1    2    0    0 -0.48922288223E+03 -0.30488313036E+01 -0.89670118922E+03  0.13949628478E+04  0.95000000000E+03 0.  0.
<mgrwt>
<rscale>  0 0.22047547E+04</rscale>
<asrwt>0</asrwt>
<pdfrwt beam="2">  1        2 0.28301483E+00 0.22047547E+04</pdfrwt>
<pdfrwt beam="1">  1       -2 0.10163064E+00 0.22047547E+04</pdfrwt>
<totfact> 0.59568938E+00</totfact>
</mgrwt>
</event>
<event>
 4    1  0.2552184E-008  0.2416518E+04  0.7816531E-02  0.8433345E-01
         -2   -1    0    0    0  501 -0.00000000000E+00  0.00000000000E+00  0.84710504965E+03  0.84710504965E+03  0.00000000000E+00 0. -1.
          2   -1    0    0  501    0  0.00000000000E+00 -0.00000000000E+00 -0.17233867742E+04  0.17233867742E+04  0.00000000000E+00 0.  1.
    2000013    1    1    2    0    0 -0.10790314602E+03 -0.72582967038E+03 -0.29183491273E+03  0.12353701533E+04  0.95000000000E+03 0.  0.
   -2000013    1    1    2    0    0  0.10790314602E+03  0.72582967038E+03 -0.58444681179E+03  0.13351216705E+04  0.95000000000E+03 0.  0.
<mgrwt>
<rscale>  0 0.24165179E+04</rscale>
<asrwt>0</asrwt>
<pdfrwt beam="2">  1        2 0.26513643E+00 0.24165179E+04</pdfrwt>
<pdfrwt beam="1">  1       -2 0.13032385E+00 0.24165179E+04</pdfrwt>
<totfact> 0.36890074E+00</totfact>
</mgrwt>
</event>
<event>
 4    1  0.2552184E-008  0.4733852E+04  0.7816531E-02  0.7870928E-01
          2   -1    0    0  501    0  0.00000000000E+00  0.00000000000E+00  0.32117600895E+04  0.32117600895E+04  0.00000000000E+00 0.  1.
         -2   -1    0    0    0  501 -0.00000000000E+00 -0.00000000000E+00 -0.17443206512E+04  0.17443206512E+04  0.00000000000E+00 0. -1.
    2000013    1    1    2    0    0  0.83829845614E+03 -0.19056278609E+04  0.10061893800E+03  0.22905863914E+04  0.95000000000E+03 0.  0.
   -2000013    1    1    2    0    0 -0.83829845614E+03  0.19056278609E+04  0.13668205003E+04  0.26654943493E+04  0.95000000000E+03 0.  0.
<mgrwt>
<rscale>  0 0.47338523E+04</rscale>
<asrwt>0</asrwt>
<pdfrwt beam="1">  1        2 0.49411693E+00 0.47338523E+04</pdfrwt>
<pdfrwt beam="2">  1       -2 0.26835702E+00 0.47338523E+04</pdfrwt>
<totfact> 0.46938965E-02</totfact>
</mgrwt>
</event>
<event>
 4    1  0.2552184E-008  0.2302409E+04  0.7816531E-02  0.8476972E-01
          2   -1    0    0  501    0  0.00000000000E+00  0.00000000000E+00  0.16238452530E+04  0.16238452530E+04  0.00000000000E+00 0.  1.
         -2   -1    0    0    0  501 -0.00000000000E+00 -0.00000000000E+00 -0.81613204278E+03  0.81613204278E+03  0.00000000000E+00 0. -1.
    2000013    1    1    2    0    0  0.55674567037E+03  0.29222787972E+03  0.22840716924E+03  0.11619090800E+04  0.95000000000E+03 0.  0.
   -2000013    1    1    2    0    0 -0.55674567037E+03 -0.29222787972E+03  0.57930604098E+03  0.12780682158E+04  0.95000000000E+03 0.  0.
<mgrwt>
<rscale>  0 0.23024093E+04</rscale>
<asrwt>0</asrwt>
<pdfrwt beam="1">  1        2 0.24982235E+00 0.23024093E+04</pdfrwt>
<pdfrwt beam="2">  1       -2 0.12555878E+00 0.23024093E+04</pdfrwt>
<totfact> 0.46484968E+00</totfact>
</mgrwt>
</event>
<event>
 4    1  0.2552184E-008  0.4110745E+04  0.7816531E-02  0.7982571E-01
          2   -1    0    0  501    0  0.00000000000E+00  0.00000000000E+00  0.28887401120E+04  0.28887401120E+04  0.00000000000E+00 0.  1.
         -2   -1    0    0    0  501 -0.00000000000E+00 -0.00000000000E+00 -0.14624215952E+04  0.14624215952E+04  0.00000000000E+00 0. -1.
    2000013    1    1    2    0    0 -0.14030942090E+04  0.11265553240E+04  0.40591466287E+03  0.20748655308E+04  0.95000000000E+03 0.  0.
   -2000013    1    1    2    0    0  0.14030942090E+04 -0.11265553240E+04  0.10204038539E+04  0.22762961763E+04  0.95000000000E+03 0.  0.
<mgrwt>
<rscale>  0 0.41107449E+04</rscale>
<asrwt>0</asrwt>
<pdfrwt beam="1">  1        2 0.44442156E+00 0.41107449E+04</pdfrwt>
<pdfrwt beam="2">  1       -2 0.22498794E+00 0.41107449E+04</pdfrwt>
<totfact> 0.14665553E-01</totfact>
</mgrwt>
</event>
<event>
 4    1  0.2552184E-008  0.2361843E+04  0.7816531E-02  0.8453929E-01
          2   -1    0    0  501    0  0.00000000000E+00  0.00000000000E+00  0.21600493271E+04  0.21600493271E+04  0.00000000000E+00 0.  1.
         -2   -1    0    0    0  501 -0.00000000000E+00 -0.00000000000E+00 -0.64562211796E+03  0.64562211796E+03  0.00000000000E+00 0. -1.
    2000013    1    1    2    0    0  0.20549564298E+03  0.60802254803E+03  0.42089328679E+03  0.12212989139E+04  0.95000000000E+03 0.  0.
   -2000013    1    1    2    0    0 -0.20549564298E+03 -0.60802254803E+03  0.10935339223E+04  0.15843725311E+04  0.95000000000E+03 0.  0.
<mgrwt>
<rscale>  0 0.23618430E+04</rscale>
<asrwt>0</asrwt>
<pdfrwt beam="1">  1        2 0.33231528E+00 0.23618430E+04</pdfrwt>
<pdfrwt beam="2">  1       -2 0.99326480E-01 0.23618430E+04</pdfrwt>
<totfact> 0.41166281E+00</totfact>
</mgrwt>
</event>
<event>
 4    1  0.2552184E-008  0.3006440E+04  0.7816531E-02  0.8241894E-01
         -2   -1    0    0    0  501 -0.00000000000E+00  0.00000000000E+00  0.43541249772E+03  0.43541249772E+03  0.00000000000E+00 0. -1.
          2   -1    0    0  501    0  0.00000000000E+00 -0.00000000000E+00 -0.51897245374E+04  0.51897245374E+04  0.00000000000E+00 0.  1.
    2000013    1    1    2    0    0  0.42687655038E+03  0.10474508909E+04 -0.28990153669E+04  0.32536390481E+04  0.95000000000E+03 0.  0.
   -2000013    1    1    2    0    0 -0.42687655038E+03 -0.10474508909E+04 -0.18552966728E+04  0.23714979870E+04  0.95000000000E+03 0.  0.
<mgrwt>
<rscale>  0 0.30064404E+04</rscale>
<asrwt>0</asrwt>
<pdfrwt beam="2">  1        2 0.79841918E+00 0.30064404E+04</pdfrwt>
<pdfrwt beam="1">  1       -2 0.66986537E-01 0.30064404E+04</pdfrwt>
<totfact> 0.33373223E-02</totfact>
</mgrwt>
</event>
<event>
 4    1  0.2552184E-008  0.2648851E+04  0.7816531E-02  0.8351794E-01
         -2   -1    0    0    0  501 -0.00000000000E+00  0.00000000000E+00  0.85735560390E+03  0.85735560390E+03  0.00000000000E+00 0. -1.
          2   -1    0    0  501    0  0.00000000000E+00 -0.00000000000E+00 -0.20459457345E+04  0.20459457345E+04  0.00000000000E+00 0.  1.
    2000013    1    1    2    0    0 -0.40293828645E+02  0.91783415988E+03 -0.68959501720E+03  0.14906657658E+04  0.95000000000E+03 0.  0.
   -2000013    1    1    2    0    0  0.40293828645E+02 -0.91783415988E+03 -0.49899511340E+03  0.14126355726E+04  0.95000000000E+03 0.  0.
<mgrwt>
<rscale>  0 0.26488511E+04</rscale>
<asrwt>0</asrwt>
<pdfrwt beam="2">  1        2 0.31476088E+00 0.26488511E+04</pdfrwt>
<pdfrwt beam="1">  1       -2 0.13190086E+00 0.26488511E+04</pdfrwt>
<totfact> 0.23228714E+00</totfact>
</mgrwt>
</event>
<event>
 4    1  0.2552184E-008  0.2112558E+04  0.7816531E-02  0.8555732E-01
          2   -1    0    0  501    0  0.00000000000E+00  0.00000000000E+00  0.27885872084E+04  0.27885872084E+04  0.00000000000E+00 0.  1.
         -2   -1    0    0    0  501 -0.00000000000E+00 -0.00000000000E+00 -0.40010405188E+03  0.40010405188E+03  0.00000000000E+00 0. -1.
    2000013    1    1    2    0    0 -0.42876765522E+03  0.99882680600E+02  0.14045132310E+04  0.17518492139E+04  0.95000000000E+03 0.  0.
   -2000013    1    1    2    0    0  0.42876765522E+03 -0.99882680600E+02  0.98396992548E+03  0.14368420464E+04  0.95000000000E+03 0.  0.
<mgrwt>
<rscale>  0 0.21125577E+04</rscale>
<asrwt>0</asrwt>
<pdfrwt beam="1">  1        2 0.42901340E+00 0.21125577E+04</pdfrwt>
<pdfrwt beam="2">  1       -2 0.61554471E-01 0.21125577E+04</pdfrwt>
<totfact> 0.53109822E+00</totfact>
</mgrwt>
</event>
<event>
 4    1  0.2552184E-008  0.2685108E+04  0.7816531E-02  0.8339853E-01
          1   -1    0    0  501    0  0.00000000000E+00  0.00000000000E+00  0.22497170276E+04  0.22497170276E+04  0.00000000000E+00 0.  1.
         -1   -1    0    0    0  501 -0.00000000000E+00 -0.00000000000E+00 -0.80119030189E+03  0.80119030189E+03  0.00000000000E+00 0. -1.
    2000013    1    1    2    0    0 -0.23441875706E+03  0.91518669742E+03  0.82222097436E+03  0.15719625236E+04  0.95000000000E+03 0.  0.
   -2000013    1    1    2    0    0  0.23441875706E+03 -0.91518669742E+03  0.62630575132E+03  0.14789448059E+04  0.95000000000E+03 0.  0.
<mgrwt>
<rscale>  0 0.26851082E+04</rscale>
<asrwt>0</asrwt>
<pdfrwt beam="1">  1        1 0.34611031E+00 0.26851082E+04</pdfrwt>
<pdfrwt beam="2">  1       -1 0.12326005E+00 0.26851082E+04</pdfrwt>
<totfact> 0.10203619E+00</totfact>
</mgrwt>
</event>
<event>
 4    1  0.2552184E-008  0.3071591E+04  0.7816531E-02  0.8223578E-01
          2   -1    0    0  501    0  0.00000000000E+00  0.00000000000E+00  0.25135473733E+04  0.25135473733E+04  0.00000000000E+00 0.  1.
         -2   -1    0    0    0  501 -0.00000000000E+00 -0.00000000000E+00 -0.93838190521E+03  0.93838190521E+03  0.00000000000E+00 0. -1.
    2000013    1    1    2    0    0 -0.11721756425E+02  0.10383819239E+04  0.96825453977E+02  0.14107620593E+04  0.95000000000E+03 0.  0.
   -2000013    1    1    2    0    0  0.11721756425E+02 -0.10383819239E+04  0.14783400141E+04  0.20411672192E+04  0.95000000000E+03 0.  0.
<mgrwt>
<rscale>  0 0.30715907E+04</rscale>
<asrwt>0</asrwt>
<pdfrwt beam="1">  1        2 0.38669959E+00 0.30715907E+04</pdfrwt>
<pdfrwt beam="2">  1       -2 0.14436645E+00 0.30715907E+04</pdfrwt>
<totfact> 0.96411395E-01</totfact>
</mgrwt>
</event>
<event>
 4    1  0.2552184E-008  0.2529495E+04  0.7816531E-02  0.8392552E-01
         -2   -1    0    0    0  501 -0.00000000000E+00  0.00000000000E+00  0.93544903400E+03  0.93544903400E+03  0.00000000000E+00 0. -1.
          2   -1    0    0  501    0  0.00000000000E+00 -0.00000000000E+00 -0.17099663410E+04  0.17099663410E+04  0.00000000000E+00 0.  1.
    2000013    1    1    2    0    0 -0.10941390258E+03 -0.64936854508E+03  0.14952235472E+03  0.11655504468E+04  0.95000000000E+03 0.  0.
   -2000013    1    1    2    0    0  0.10941390258E+03  0.64936854508E+03 -0.92403966174E+03  0.14798649283E+04  0.95000000000E+03 0.  0.
<mgrwt>
<rscale>  0 0.25294951E+04</rscale>
<asrwt>0</asrwt>
<pdfrwt beam="2">  1        2 0.26307174E+00 0.25294951E+04</pdfrwt>
<pdfrwt beam="1">  1       -2 0.14391524E+00 0.25294951E+04</pdfrwt>
<totfact> 0.28794452E+00</totfact>
</mgrwt>
</event>
<event>
 4    1  0.2552184E-008  0.3194734E+04  0.7816531E-02  0.8190209E-01
          2   -1    0    0  501    0  0.00000000000E+00  0.00000000000E+00  0.27722112064E+04  0.27722112064E+04  0.00000000000E+00 0.  1.
         -2   -1    0    0    0  501 -0.00000000000E+00 -0.00000000000E+00 -0.92041401765E+03  0.92041401765E+03  0.00000000000E+00 0. -1.
    2000013    1    1    2    0    0 -0.76015804143E+02 -0.11909549468E+04  0.37771740846E+03  0.15714078174E+04  0.95000000000E+03 0.  0.
   -2000013    1    1    2    0    0  0.76015804143E+02  0.11909549468E+04  0.14740797802E+04  0.21212174067E+04  0.95000000000E+03 0.  0.
<mgrwt>
<rscale>  0 0.31947345E+04</rscale>
<asrwt>0</asrwt>
<pdfrwt beam="1">  1        2 0.42649403E+00 0.31947345E+04</pdfrwt>
<pdfrwt beam="2">  1       -2 0.14160216E+00 0.31947345E+04</pdfrwt>
<totfact> 0.70567571E-01</totfact>
</mgrwt>
</event>
<event>
 4    1  0.2552184E-008  0.3378056E+04  0.7816531E-02  0.8143313E-01
         -2   -1    0    0    0  501 -0.00000000000E+00  0.00000000000E+00  0.21951513585E+04  0.21951513585E+04  0.00000000000E+00 0. -1.
          2   -1    0    0  501    0  0.00000000000E+00 -0.00000000000E+00 -0.12995986927E+04  0.12995986927E+04  0.00000000000E+00 0.  1.
    2000013    1    1    2    0    0 -0.26359574312E+03  0.13661755341E+04  0.32364161781E+03  0.17155646891E+04  0.95000000000E+03 0.  0.
   -2000013    1    1    2    0    0  0.26359574312E+03 -0.13661755341E+04  0.57191104795E+03  0.17791853621E+04  0.95000000000E+03 0.  0.
<mgrwt>
<rscale>  0 0.33780561E+04</rscale>
<asrwt>0</asrwt>
<pdfrwt beam="2">  1        2 0.19993826E+00 0.33780561E+04</pdfrwt>
<pdfrwt beam="1">  1       -2 0.33771559E+00 0.33780561E+04</pdfrwt>
<totfact> 0.25499811E-01</totfact>
</mgrwt>
</event>
<event>
 4    1  0.2552184E-008  0.2237377E+04  0.7816531E-02  0.8503030E-01
          2   -1    0    0  501    0  0.00000000000E+00  0.00000000000E+00  0.27882932069E+04  0.27882932069E+04  0.00000000000E+00 0.  1.
         -2   -1    0    0    0  501 -0.00000000000E+00 -0.00000000000E+00 -0.44882804143E+03  0.44882804143E+03  0.00000000000E+00 0. -1.
    2000013    1    1    2    0    0  0.49938207143E+03 -0.25228468089E+02  0.71462168540E+03  0.12896523106E+04  0.95000000000E+03 0.  0.
   -2000013    1    1    2    0    0 -0.49938207143E+03  0.25228468089E+02  0.16248434800E+04  0.19474689378E+04  0.95000000000E+03 0.  0.
<mgrwt>
<rscale>  0 0.22373772E+04</rscale>
<asrwt>0</asrwt>
<pdfrwt beam="1">  1        2 0.42896817E+00 0.22373772E+04</pdfrwt>
<pdfrwt beam="2">  1       -2 0.69050470E-01 0.22373772E+04</pdfrwt>
<totfact> 0.41040821E+00</totfact>
</mgrwt>
</event>
<event>
 4    1  0.2552184E-008  0.3163064E+04  0.7816531E-02  0.8198640E-01
          2   -1    0    0  501    0  0.00000000000E+00  0.00000000000E+00  0.24066086275E+04  0.24066086275E+04  0.00000000000E+00 0.  1.
         -2   -1    0    0    0  501 -0.00000000000E+00 -0.00000000000E+00 -0.10393231223E+04  0.10393231223E+04  0.00000000000E+00 0. -1.
    2000013    1    1    2    0    0  0.10740459209E+04 -0.52738607146E+03  0.23839661899E+03  0.15462999892E+04  0.95000000000E+03 0.  0.
   -2000013    1    1    2    0    0 -0.10740459209E+04  0.52738607146E+03  0.11288888862E+04  0.18996317606E+04  0.95000000000E+03 0.  0.
<mgrwt>
<rscale>  0 0.31630643E+04</rscale>
<asrwt>0</asrwt>
<pdfrwt beam="1">  1        2 0.37024748E+00 0.31630643E+04</pdfrwt>
<pdfrwt beam="2">  1       -2 0.15989587E+00 0.31630643E+04</pdfrwt>
<totfact> 0.83983497E-01</totfact>
</mgrwt>
</event>
<event>
 4    1  0.2552184E-008  0.2416059E+04  0.7816531E-02  0.8433516E-01
         -2   -1    0    0    0  501 -0.00000000000E+00  0.00000000000E+00  0.93032101156E+03  0.93032101156E+03  0.00000000000E+00 0. -1.
          2   -1    0    0  501    0  0.00000000000E+00 -0.00000000000E+00 -0.15686364429E+04  0.15686364429E+04  0.00000000000E+00 0.  1.
    2000013    1    1    2    0    0  0.50855058438E+03  0.35300771927E+03  0.11178820994E+03  0.11394010491E+04  0.95000000000E+03 0.  0.
   -2000013    1    1    2    0    0 -0.50855058438E+03 -0.35300771927E+03 -0.75010364125E+03  0.13595564054E+04  0.95000000000E+03 0.  0.
<mgrwt>
<rscale>  0 0.24160591E+04</rscale>
<asrwt>0</asrwt>
<pdfrwt beam="2">  1        2 0.24132868E+00 0.24160591E+04</pdfrwt>
<pdfrwt beam="1">  1       -2 0.14312631E+00 0.24160591E+04</pdfrwt>
<totfact> 0.35364543E+00</totfact>
</mgrwt>
</event>
<event>
 4    1  0.2552184E-008  0.2562812E+04  0.7816531E-02  0.8380944E-01
          2   -1    0    0  501    0  0.00000000000E+00  0.00000000000E+00  0.12915750002E+04  0.12915750002E+04  0.00000000000E+00 0.  1.
         -2   -1    0    0    0  501 -0.00000000000E+00 -0.00000000000E+00 -0.12713168775E+04  0.12713168775E+04  0.00000000000E+00 0. -1.
    2000013    1    1    2    0    0  0.77633602153E+03  0.36237465798E+03  0.84212987525E+02  0.12820315278E+04  0.95000000000E+03 0.  0.
   -2000013    1    1    2    0    0 -0.77633602153E+03 -0.36237465798E+03 -0.63954864879E+02  0.12808603498E+04  0.95000000000E+03 0.  0.
<mgrwt>
<rscale>  0 0.25628118E+04</rscale>
<asrwt>0</asrwt>
<pdfrwt beam="1">  1        2 0.19870385E+00 0.25628118E+04</pdfrwt>
<pdfrwt beam="2">  1       -2 0.19558721E+00 0.25628118E+04</pdfrwt>
<totfact> 0.21101571E+00</totfact>
</mgrwt>
</event>
<event>
 4    1  0.2552184E-008  0.2110301E+04  0.7816531E-02  0.8556719E-01
          2   -1    0    0  501    0  0.00000000000E+00  0.00000000000E+00  0.14185414650E+04  0.14185414650E+04  0.00000000000E+00 0.  1.
         -2   -1    0    0    0  501 -0.00000000000E+00 -0.00000000000E+00 -0.78484997938E+03  0.78484997938E+03  0.00000000000E+00 0. -1.
    2000013    1    1    2    0    0 -0.13257676869E+03  0.40361668653E+03  0.49877081461E+03  0.11540170513E+04  0.95000000000E+03 0.  0.
   -2000013    1    1    2    0    0  0.13257676869E+03 -0.40361668653E+03  0.13492067097E+03  0.10493743930E+04  0.95000000000E+03 0.  0.
<mgrwt>
<rscale>  0 0.21103007E+04</rscale>
<asrwt>0</asrwt>
<pdfrwt beam="1">  1        2 0.21823715E+00 0.21103007E+04</pdfrwt>
<pdfrwt beam="2">  1       -2 0.12074615E+00 0.21103007E+04</pdfrwt>
<totfact> 0.67998897E+00</totfact>
</mgrwt>
</event>
<event>
 4    1  0.2552184E-008  0.3313088E+04  0.7816531E-02  0.8159573E-01
         -2   -1    0    0    0  501 -0.00000000000E+00  0.00000000000E+00  0.12707255209E+04  0.12707255209E+04  0.00000000000E+00 0. -1.
          2   -1    0    0  501    0  0.00000000000E+00 -0.00000000000E+00 -0.21595046519E+04  0.21595046519E+04  0.00000000000E+00 0.  1.
    2000013    1    1    2    0    0  0.66778071182E+03 -0.24509634803E+03 -0.16409485523E+04  0.20251457849E+04  0.95000000000E+03 0.  0.
   -2000013    1    1    2    0    0 -0.66778071182E+03  0.24509634803E+03  0.75216942121E+03  0.14050843879E+04  0.95000000000E+03 0.  0.
<mgrwt>
<rscale>  0 0.33130878E+04</rscale>
<asrwt>0</asrwt>
<pdfrwt beam="2">  1        2 0.33223149E+00 0.33130878E+04</pdfrwt>
<pdfrwt beam="1">  1       -2 0.19549623E+00 0.33130878E+04</pdfrwt>
<totfact> 0.64667905E-01</totfact>
</mgrwt>
</event>
<event>
 4    1  0.2552184E-008  0.1963323E+04  0.7816531E-02  0.8623963E-01
         -2   -1    0    0    0  501 -0.00000000000E+00  0.00000000000E+00  0.76438992496E+03  0.76438992496E+03  0.00000000000E+00 0. -1.
          2   -1    0    0  501    0  0.00000000000E+00 -0.00000000000E+00 -0.12606902636E+04  0.12606902636E+04  0.00000000000E+00 0.  1.
    2000013    1    1    2    0    0 -0.14791190524E+03  0.19495008358E+03 -0.28498727775E+03  0.10215680179E+04  0.95000000000E+03 0.  0.
   -2000013    1    1    2    0    0  0.14791190524E+03 -0.19495008358E+03 -0.21131306085E+03  0.10035121706E+04  0.95000000000E+03 0.  0.
<mgrwt>
<rscale>  0 0.19633226E+04</rscale>
<asrwt>0</asrwt>
<pdfrwt beam="2">  1        2 0.19395235E+00 0.19633226E+04</pdfrwt>
<pdfrwt beam="1">  1       -2 0.11759845E+00 0.19633226E+04</pdfrwt>
<totfact> 0.90697657E+00</totfact>
</mgrwt>
</event>
<event>
 4    1  0.2552184E-008  0.2451798E+04  0.7816531E-02  0.8420362E-01
         -2   -1    0    0    0  501 -0.00000000000E+00  0.00000000000E+00  0.11566459995E+04  0.11566459995E+04  0.00000000000E+00 0. -1.
          2   -1    0    0  501    0  0.00000000000E+00 -0.00000000000E+00 -0.12992987928E+04  0.12992987928E+04  0.00000000000E+00 0.  1.
    2000013    1    1    2    0    0  0.75324988093E+02  0.70025132984E+03 -0.39483229151E+03  0.12467631360E+04  0.95000000000E+03 0.  0.
   -2000013    1    1    2    0    0 -0.75324988093E+02 -0.70025132984E+03  0.25217949827E+03  0.12091816564E+04  0.95000000000E+03 0.  0.
<mgrwt>
<rscale>  0 0.24517983E+04</rscale>
<asrwt>0</asrwt>
<pdfrwt beam="2">  1        2 0.19989212E+00 0.24517983E+04</pdfrwt>
<pdfrwt beam="1">  1       -2 0.17794554E+00 0.24517983E+04</pdfrwt>
<totfact> 0.27764737E+00</totfact>
</mgrwt>
</event>
<event>
 4    1  0.2552184E-008  0.2855442E+04  0.7816531E-02  0.8286260E-01
          2   -1    0    0  501    0  0.00000000000E+00  0.00000000000E+00  0.25676460730E+04  0.25676460730E+04  0.00000000000E+00 0.  1.
         -2   -1    0    0    0  501 -0.00000000000E+00 -0.00000000000E+00 -0.79387400832E+03  0.79387400832E+03  0.00000000000E+00 0. -1.
    2000013    1    1    2    0    0  0.58263762450E+03  0.84000078285E+03  0.53211181774E+03  0.14935564614E+04  0.95000000000E+03 0.  0.
   -2000013    1    1    2    0    0 -0.58263762450E+03 -0.84000078285E+03  0.12416602469E+04  0.18679636200E+04  0.95000000000E+03 0.  0.
<mgrwt>
<rscale>  0 0.28554422E+04</rscale>
<asrwt>0</asrwt>
<pdfrwt beam="1">  1        2 0.39502247E+00 0.28554422E+04</pdfrwt>
<pdfrwt beam="2">  1       -2 0.12213446E+00 0.28554422E+04</pdfrwt>
<totfact> 0.13990200E+00</totfact>
</mgrwt>
</event>
<event>
 4    1  0.2552184E-008  0.2239998E+04  0.7816531E-02  0.8501962E-01
          2   -1    0    0  501    0  0.00000000000E+00  0.00000000000E+00  0.91255711230E+03  0.91255711230E+03  0.00000000000E+00 0.  1.
         -2   -1    0    0    0  501 -0.00000000000E+00 -0.00000000000E+00 -0.13745963421E+04  0.13745963421E+04  0.00000000000E+00 0. -1.
    2000013    1    1    2    0    0  0.42372515003E+03  0.20904802618E+03 -0.59725359907E+03  0.12175614734E+04  0.95000000000E+03 0.  0.
   -2000013    1    1    2    0    0 -0.42372515003E+03 -0.20904802618E+03  0.13521436928E+03  0.10695919809E+04  0.95000000000E+03 0.  0.
<mgrwt>
<rscale>  0 0.22399979E+04</rscale>
<asrwt>0</asrwt>
<pdfrwt beam="1">  1        2 0.14039340E+00 0.22399979E+04</pdfrwt>
<pdfrwt beam="2">  1       -2 0.21147636E+00 0.22399979E+04</pdfrwt>
<totfact> 0.29339354E+00</totfact>
</mgrwt>
</event>
<event>
 4    1  0.2552184E-008  0.2704263E+04  0.7816531E-02  0.8333623E-01
         -2   -1    0    0    0  501 -0.00000000000E+00  0.00000000000E+00  0.98943842731E+03  0.98943842731E+03  0.00000000000E+00 0. -1.
          2   -1    0    0  501    0  0.00000000000E+00 -0.00000000000E+00 -0.18477747712E+04  0.18477747712E+04  0.00000000000E+00 0.  1.
    2000013    1    1    2    0    0  0.91343285125E+03 -0.22756419746E+03 -0.22034955836E+03  0.13554331284E+04  0.95000000000E+03 0.  0.
   -2000013    1    1    2    0    0 -0.91343285125E+03  0.22756419746E+03 -0.63798678557E+03  0.14817800701E+04  0.95000000000E+03 0.  0.
<mgrwt>
<rscale>  0 0.27042628E+04</rscale>
<asrwt>0</asrwt>
<pdfrwt beam="2">  1        2 0.28427304E+00 0.27042628E+04</pdfrwt>
<pdfrwt beam="1">  1       -2 0.15222130E+00 0.27042628E+04</pdfrwt>
<totfact> 0.20514845E+00</totfact>
</mgrwt>
</event>
<event>
 4    1  0.2552184E-008  0.2166742E+04  0.7816531E-02  0.8532400E-01
         -1   -1    0    0    0  501 -0.00000000000E+00  0.00000000000E+00  0.20316579869E+04  0.20316579869E+04  0.00000000000E+00 0. -1.
          1   -1    0    0  501    0  0.00000000000E+00 -0.00000000000E+00 -0.57770198267E+03  0.57770198267E+03  0.00000000000E+00 0.  1.
    2000013    1    1    2    0    0  0.22618096315E+03 -0.46634069149E+03  0.66602941362E+03  0.12707189494E+04  0.95000000000E+03 0.  0.
   -2000013    1    1    2    0    0 -0.22618096315E+03  0.46634069149E+03  0.78792659063E+03  0.13386410202E+04  0.95000000000E+03 0.  0.
<mgrwt>
<rscale>  0 0.21667421E+04</rscale>
<asrwt>0</asrwt>
<pdfrwt beam="2">  1        1 0.88877229E-01 0.21667421E+04</pdfrwt>
<pdfrwt beam="1">  1       -1 0.31256276E+00 0.21667421E+04</pdfrwt>
<totfact> 0.90553834E-01</totfact>
</mgrwt>
</event>
<event>
 4    1  0.2552184E-008  0.2666756E+04  0.7816531E-02  0.8345873E-01
         -2   -1    0    0    0  501 -0.00000000000E+00  0.00000000000E+00  0.11827061834E+04  0.11827061834E+04  0.00000000000E+00 0. -1.
          2   -1    0    0  501    0  0.00000000000E+00 -0.00000000000E+00 -0.15032444980E+04  0.15032444980E+04  0.00000000000E+00 0.  1.
    2000013    1    1    2    0    0 -0.47703467004E+03  0.22931357024E+03 -0.93734679713E+03  0.14357109068E+04  0.95000000000E+03 0.  0.
   -2000013    1    1    2    0    0  0.47703467004E+03 -0.22931357024E+03  0.61680848245E+03  0.12502397746E+04  0.95000000000E+03 0.  0.
<mgrwt>
<rscale>  0 0.26667558E+04</rscale>
<asrwt>0</asrwt>
<pdfrwt beam="2">  1        2 0.23126838E+00 0.26667558E+04</pdfrwt>
<pdfrwt beam="1">  1       -2 0.18195480E+00 0.26667558E+04</pdfrwt>
<totfact> 0.19549648E+00</totfact>
</mgrwt>
</event>
<event>
 4    1  0.2552184E-008  0.3848705E+04  0.7816531E-02  0.8035783E-01
         -2   -1    0    0    0  501 -0.00000000000E+00  0.00000000000E+00  0.17615996445E+04  0.17615996445E+04  0.00000000000E+00 0. -1.
          2   -1    0    0  501    0  0.00000000000E+00 -0.00000000000E+00 -0.21021420350E+04  0.21021420350E+04  0.00000000000E+00 0.  1.
    2000013    1    1    2    0    0  0.10202610702E+04 -0.12581686015E+04  0.25174216762E+03  0.18946754340E+04  0.95000000000E+03 0.  0.
   -2000013    1    1    2    0    0 -0.10202610702E+04  0.12581686015E+04 -0.59228455809E+03  0.19690662455E+04  0.95000000000E+03 0.  0.
<mgrwt>
<rscale>  0 0.38487051E+04</rscale>
<asrwt>0</asrwt>
<pdfrwt beam="2">  1        2 0.32340647E+00 0.38487051E+04</pdfrwt>
<pdfrwt beam="1">  1       -2 0.27101533E+00 0.38487051E+04</pdfrwt>
<totfact> 0.22360951E-01</totfact>
</mgrwt>
</event>
<event>
 4    1  0.2552184E-008  0.3000372E+04  0.7816531E-02  0.8243625E-01
         -1   -1    0    0    0  501 -0.00000000000E+00  0.00000000000E+00  0.15267985569E+04  0.15267985569E+04  0.00000000000E+00 0. -1.
          1   -1    0    0  501    0  0.00000000000E+00 -0.00000000000E+00 -0.14740376771E+04  0.14740376771E+04  0.00000000000E+00 0.  1.
    2000013    1    1    2    0    0  0.67991092426E+03 -0.48651801342E+01  0.96767208472E+03  0.15169679622E+04  0.95000000000E+03 0.  0.
   -2000013    1    1    2    0    0 -0.67991092426E+03  0.48651801342E+01 -0.91491120500E+03  0.14838682718E+04  0.95000000000E+03 0.  0.
<mgrwt>
<rscale>  0 0.30003724E+04</rscale>
<asrwt>0</asrwt>
<pdfrwt beam="2">  1        1 0.22677503E+00 0.30003724E+04</pdfrwt>
<pdfrwt beam="1">  1       -1 0.23489209E+00 0.30003724E+04</pdfrwt>
<totfact> 0.50842837E-01</totfact>
</mgrwt>
</event>
<event>
 4    1  0.2552184E-008  0.2548693E+04  0.7816531E-02  0.8385841E-01
          2   -1    0    0  501    0  0.00000000000E+00  0.00000000000E+00  0.15531772073E+04  0.15531772073E+04  0.00000000000E+00 0.  1.
         -2   -1    0    0    0  501 -0.00000000000E+00 -0.00000000000E+00 -0.10455719373E+04  0.10455719373E+04  0.00000000000E+00 0. -1.
    2000013    1    1    2    0    0  0.32017159441E+03 -0.59137039692E+03 -0.27526158063E+03  0.11960341692E+04  0.95000000000E+03 0.  0.
   -2000013    1    1    2    0    0 -0.32017159441E+03  0.59137039692E+03  0.78286685067E+03  0.14027149754E+04  0.95000000000E+03 0.  0.
<mgrwt>
<rscale>  0 0.25486926E+04</rscale>
<asrwt>0</asrwt>
<pdfrwt beam="1">  1        2 0.23895034E+00 0.25486926E+04</pdfrwt>
<pdfrwt beam="2">  1       -2 0.16085722E+00 0.25486926E+04</pdfrwt>
<totfact> 0.26129922E+00</totfact>
</mgrwt>
</event>
<event>
 4    1  0.2552184E-008  0.2837164E+04  0.7816531E-02  0.8291822E-01
          2   -1    0    0  501    0  0.00000000000E+00  0.00000000000E+00  0.31807614349E+04  0.31807614349E+04  0.00000000000E+00 0.  1.
         -2   -1    0    0    0  501 -0.00000000000E+00 -0.00000000000E+00 -0.63267071802E+03  0.63267071802E+03  0.00000000000E+00 0. -1.
    2000013    1    1    2    0    0  0.78829968803E+03  0.44640938175E+02  0.33657489184E+03  0.12803092866E+04  0.95000000000E+03 0.  0.
   -2000013    1    1    2    0    0 -0.78829968803E+03 -0.44640938175E+02  0.22115158250E+04  0.25331228663E+04  0.95000000000E+03 0.  0.
<mgrwt>
<rscale>  0 0.28371638E+04</rscale>
<asrwt>0</asrwt>
<pdfrwt beam="1">  1        2 0.48934790E+00 0.28371638E+04</pdfrwt>
<pdfrwt beam="2">  1       -2 0.97333959E-01 0.28371638E+04</pdfrwt>
<totfact> 0.10189968E+00</totfact>
</mgrwt>
</event>
<event>
 4    1  0.2552184E-008  0.2148931E+04  0.7816531E-02  0.8539990E-01
          2   -1    0    0  501    0  0.00000000000E+00  0.00000000000E+00  0.20949193316E+04  0.20949193316E+04  0.00000000000E+00 0.  1.
         -2   -1    0    0    0  501 -0.00000000000E+00 -0.00000000000E+00 -0.55108383479E+03  0.55108383479E+03  0.00000000000E+00 0. -1.
    2000013    1    1    2    0    0 -0.18363515444E+03  0.42145682335E+03  0.52372846263E+03  0.11781932042E+04  0.95000000000E+03 0.  0.
   -2000013    1    1    2    0    0  0.18363515444E+03 -0.42145682335E+03  0.10201070342E+04  0.14678099622E+04  0.95000000000E+03 0.  0.
<mgrwt>
<rscale>  0 0.21489311E+04</rscale>
<asrwt>0</asrwt>
<pdfrwt beam="1">  1        2 0.32229528E+00 0.21489311E+04</pdfrwt>
<pdfrwt beam="2">  1       -2 0.84782130E-01 0.21489311E+04</pdfrwt>
<totfact> 0.65787716E+00</totfact>
</mgrwt>
</event>
<event>
 4    1  0.2552184E-008  0.2586709E+04  0.7816531E-02  0.8372730E-01
          2   -1    0    0  501    0  0.00000000000E+00  0.00000000000E+00  0.25548932447E+04  0.25548932447E+04  0.00000000000E+00 0.  1.
         -2   -1    0    0    0  501 -0.00000000000E+00 -0.00000000000E+00 -0.65473030219E+03  0.65473030219E+03  0.00000000000E+00 0. -1.
    2000013    1    1    2    0    0 -0.59704040388E+03  0.61054828300E+03  0.12014482833E+04  0.17536260796E+04  0.95000000000E+03 0.  0.
   -2000013    1    1    2    0    0  0.59704040388E+03 -0.61054828300E+03  0.69871465928E+03  0.14559974673E+04  0.95000000000E+03 0.  0.
<mgrwt>
<rscale>  0 0.25867091E+04</rscale>
<asrwt>0</asrwt>
<pdfrwt beam="1">  1        2 0.39306049E+00 0.25867091E+04</pdfrwt>
<pdfrwt beam="2">  1       -2 0.10072774E+00 0.25867091E+04</pdfrwt>
<totfact> 0.23247145E+00</totfact>
</mgrwt>
</event>
<event>
 4    1  0.2552184E-008  0.2209231E+04  0.7816531E-02  0.8514596E-01
         -2   -1    0    0    0  501 -0.00000000000E+00  0.00000000000E+00  0.59470874084E+03  0.59470874084E+03  0.00000000000E+00 0. -1.
          2   -1    0    0  501    0  0.00000000000E+00 -0.00000000000E+00 -0.20517190209E+04  0.20517190209E+04  0.00000000000E+00 0.  1.
    2000013    1    1    2    0    0 -0.20525902890E+03 -0.51784039152E+03 -0.83144957685E+03  0.13798906982E+04  0.95000000000E+03 0.  0.
   -2000013    1    1    2    0    0  0.20525902890E+03  0.51784039152E+03 -0.62556070324E+03  0.12665370636E+04  0.95000000000E+03 0.  0.
<mgrwt>
<rscale>  0 0.22092308E+04</rscale>
<asrwt>0</asrwt>
<pdfrwt beam="2">  1        2 0.31564908E+00 0.22092308E+04</pdfrwt>
<pdfrwt beam="1">  1       -2 0.91493653E-01 0.22092308E+04</pdfrwt>
<totfact> 0.58087643E+00</totfact>
</mgrwt>
</event>
<event>
 4    1  0.2552184E-008  0.2490784E+04  0.7816531E-02  0.8406276E-01
         -1   -1    0    0    0  501 -0.00000000000E+00  0.00000000000E+00  0.15080723926E+04  0.15080723926E+04  0.00000000000E+00 0. -1.
          1   -1    0    0  501    0  0.00000000000E+00 -0.00000000000E+00 -0.10284662198E+04  0.10284662198E+04  0.00000000000E+00 0.  1.
    2000013    1    1    2    0    0 -0.32653034485E+03  0.49922240903E+03 -0.31111167463E+03  0.11641028966E+04  0.95000000000E+03 0.  0.
   -2000013    1    1    2    0    0  0.32653034485E+03 -0.49922240903E+03  0.79071784736E+03  0.13724357158E+04  0.95000000000E+03 0.  0.
<mgrwt>
<rscale>  0 0.24907842E+04</rscale>
<asrwt>0</asrwt>
<pdfrwt beam="2">  1        1 0.15822557E+00 0.24907842E+04</pdfrwt>
<pdfrwt beam="1">  1       -1 0.23201114E+00 0.24907842E+04</pdfrwt>
<totfact> 0.11701698E+00</totfact>
</mgrwt>
</event>
<event>
 4    1  0.2552184E-008  0.2085755E+04  0.7816531E-02  0.8567544E-01
          2   -1    0    0  501    0  0.00000000000E+00  0.00000000000E+00  0.13155536918E+04  0.13155536918E+04  0.00000000000E+00 0.  1.
         -2   -1    0    0    0  501 -0.00000000000E+00 -0.00000000000E+00 -0.82671955784E+03  0.82671955784E+03  0.00000000000E+00 0. -1.
    2000013    1    1    2    0    0 -0.26411909188E+03  0.29834513458E+03  0.77769972446E+02  0.10331102955E+04  0.95000000000E+03 0.  0.
   -2000013    1    1    2    0    0  0.26411909188E+03 -0.29834513458E+03  0.41106416152E+03  0.11091629542E+04  0.95000000000E+03 0.  0.
<mgrwt>
<rscale>  0 0.20857555E+04</rscale>
<asrwt>0</asrwt>
<pdfrwt beam="1">  1        2 0.20239288E+00 0.20857555E+04</pdfrwt>
<pdfrwt beam="2">  1       -2 0.12718762E+00 0.20857555E+04</pdfrwt>
<totfact> 0.68572142E+00</totfact>
</mgrwt>
</event>
<event>
 4    1  0.2552184E-008  0.2466813E+04  0.7816531E-02  0.8414905E-01
         -2   -1    0    0    0  501 -0.00000000000E+00  0.00000000000E+00  0.66903500060E+03  0.66903500060E+03  0.00000000000E+00 0. -1.
          2   -1    0    0  501    0  0.00000000000E+00 -0.00000000000E+00 -0.22738586201E+04  0.22738586201E+04  0.00000000000E+00 0.  1.
    2000013    1    1    2    0    0  0.73031844530E+03 -0.84367235889E+02 -0.11362545044E+04  0.16534984611E+04  0.95000000000E+03 0.  0.
   -2000013    1    1    2    0    0 -0.73031844530E+03  0.84367235889E+02 -0.46856911509E+03  0.12893951596E+04  0.95000000000E+03 0.  0.
<mgrwt>
<rscale>  0 0.24668125E+04</rscale>
<asrwt>0</asrwt>
<pdfrwt beam="2">  1        2 0.34982441E+00 0.24668125E+04</pdfrwt>
<pdfrwt beam="1">  1       -2 0.10292846E+00 0.24668125E+04</pdfrwt>
<totfact> 0.32343110E+00</totfact>
</mgrwt>
</event>
<event>
 4    1  0.2552184E-008  0.2868025E+04  0.7816531E-02  0.8282455E-01
          2   -1    0    0  501    0  0.00000000000E+00  0.00000000000E+00  0.12870677520E+04  0.12870677520E+04  0.00000000000E+00 0.  1.
         -2   -1    0    0    0  501 -0.00000000000E+00 -0.00000000000E+00 -0.15977335220E+04  0.15977335220E+04  0.00000000000E+00 0. -1.
    2000013    1    1    2    0    0 -0.51425739602E+03 -0.90927191880E+03  0.96441527203E+02  0.14152869179E+04  0.95000000000E+03 0.  0.
   -2000013    1    1    2    0    0  0.51425739602E+03  0.90927191880E+03 -0.40710729720E+03  0.14695143562E+04  0.95000000000E+03 0.  0.
<mgrwt>
<rscale>  0 0.28680246E+04</rscale>
<asrwt>0</asrwt>
<pdfrwt beam="1">  1        2 0.19801042E+00 0.28680246E+04</pdfrwt>
<pdfrwt beam="2">  1       -2 0.24580516E+00 0.28680246E+04</pdfrwt>
<totfact> 0.99278308E-01</totfact>
</mgrwt>
</event>
<event>
 4    1  0.2552184E-008  0.2431561E+04  0.7816531E-02  0.8427781E-01
          2   -1    0    0  501    0  0.00000000000E+00  0.00000000000E+00  0.26096582987E+04  0.26096582987E+04  0.00000000000E+00 0.  1.
         -2   -1    0    0    0  501 -0.00000000000E+00 -0.00000000000E+00 -0.56640466042E+03  0.56640466042E+03  0.00000000000E+00 0. -1.
    2000013    1    1    2    0    0  0.35520108054E+03  0.52116251640E+03  0.47078864613E+03  0.12336612685E+04  0.95000000000E+03 0.  0.
   -2000013    1    1    2    0    0 -0.35520108054E+03 -0.52116251640E+03  0.15724649921E+04  0.19424016906E+04  0.95000000000E+03 0.  0.
<mgrwt>
<rscale>  0 0.24315613E+04</rscale>
<asrwt>0</asrwt>
<pdfrwt beam="1">  1        2 0.40148589E+00 0.24315613E+04</pdfrwt>
<pdfrwt beam="2">  1       -2 0.87139180E-01 0.24315613E+04</pdfrwt>
<totfact> 0.30665064E+00</totfact>
</mgrwt>
</event>
<event>
 4    1  0.2552184E-008  0.2377399E+04  0.7816531E-02  0.8448014E-01
         -2   -1    0    0    0  501 -0.00000000000E+00  0.00000000000E+00  0.67389570426E+03  0.67389570426E+03  0.00000000000E+00 0. -1.
          2   -1    0    0  501    0  0.00000000000E+00 -0.00000000000E+00 -0.20967733228E+04  0.20967733228E+04  0.00000000000E+00 0.  1.
    2000013    1    1    2    0    0 -0.15226880277E+03 -0.46864312666E+03 -0.13144178061E+04  0.16949944948E+04  0.95000000000E+03 0.  0.
   -2000013    1    1    2    0    0  0.15226880277E+03  0.46864312666E+03 -0.10845981249E+03  0.10756745323E+04  0.95000000000E+03 0.  0.
<mgrwt>
<rscale>  0 0.23773990E+04</rscale>
<asrwt>0</asrwt>
<pdfrwt beam="2">  1        2 0.32258051E+00 0.23773990E+04</pdfrwt>
<pdfrwt beam="1">  1       -2 0.10367626E+00 0.23773990E+04</pdfrwt>
<totfact> 0.40278256E+00</totfact>
</mgrwt>
</event>
<event>
 4    1  0.2552184E-008  0.2155951E+04  0.7816531E-02  0.8536989E-01
          2   -1    0    0  501    0  0.00000000000E+00  0.00000000000E+00  0.13398420175E+04  0.13398420175E+04  0.00000000000E+00 0.  1.
         -2   -1    0    0    0  501 -0.00000000000E+00 -0.00000000000E+00 -0.86728973899E+03  0.86728973899E+03  0.00000000000E+00 0. -1.
    2000013    1    1    2    0    0 -0.13016752325E+03 -0.44953834606E+03  0.44230713288E+03  0.11476776152E+04  0.95000000000E+03 0.  0.
   -2000013    1    1    2    0    0  0.13016752325E+03  0.44953834606E+03  0.30245145665E+02  0.10594541413E+04  0.95000000000E+03 0.  0.
<mgrwt>
<rscale>  0 0.21559511E+04</rscale>
<asrwt>0</asrwt>
<pdfrwt beam="1">  1        2 0.20612954E+00 0.21559511E+04</pdfrwt>
<pdfrwt beam="2">  1       -2 0.13342919E+00 0.21559511E+04</pdfrwt>
<totfact> 0.58451321E+00</totfact>
</mgrwt>
</event>
<event>
 4    1  0.2552184E-008  0.2604761E+04  0.7816531E-02  0.8366586E-01
         -2   -1    0    0    0  501 -0.00000000000E+00  0.00000000000E+00  0.50126965126E+03  0.50126965126E+03  0.00000000000E+00 0. -1.
          2   -1    0    0  501    0  0.00000000000E+00 -0.00000000000E+00 -0.33837971818E+04  0.33837971818E+04  0.00000000000E+00 0.  1.
    2000013    1    1    2    0    0 -0.28575093481E+03 -0.42182692132E+03 -0.25313058234E+04  0.27512907371E+04  0.95000000000E+03 0.  0.
   -2000013    1    1    2    0    0  0.28575093481E+03  0.42182692132E+03 -0.35122170714E+03  0.11337760960E+04  0.95000000000E+03 0.  0.
<mgrwt>
<rscale>  0 0.26047609E+04</rscale>
<asrwt>0</asrwt>
<pdfrwt beam="2">  1        2 0.52058417E+00 0.26047609E+04</pdfrwt>
<pdfrwt beam="1">  1       -2 0.77118409E-01 0.26047609E+04</pdfrwt>
<totfact> 0.12983701E+00</totfact>
</mgrwt>
</event>
<event>
 4    1  0.2552184E-008  0.3485004E+04  0.7816531E-02  0.8117353E-01
         -2   -1    0    0    0  501 -0.00000000000E+00  0.00000000000E+00  0.11229703904E+04  0.11229703904E+04  0.00000000000E+00 0. -1.
          2   -1    0    0  501    0  0.00000000000E+00 -0.00000000000E+00 -0.27038233790E+04  0.27038233790E+04  0.00000000000E+00 0.  1.
    2000013    1    1    2    0    0 -0.13439466488E+04 -0.51177261639E+03 -0.10719060062E+04  0.20296764007E+04  0.95000000000E+03 0.  0.
   -2000013    1    1    2    0    0  0.13439466488E+04  0.51177261639E+03 -0.50894698238E+03  0.17971173686E+04  0.95000000000E+03 0.  0.
<mgrwt>
<rscale>  0 0.34850042E+04</rscale>
<asrwt>0</asrwt>
<pdfrwt beam="2">  1        2 0.41597282E+00 0.34850042E+04</pdfrwt>
<pdfrwt beam="1">  1       -2 0.17276468E+00 0.34850042E+04</pdfrwt>
<totfact> 0.44263267E-01</totfact>
</mgrwt>
</event>
<event>
 4    1  0.2552184E-008  0.3458232E+04  0.7816531E-02  0.8123760E-01
         -2   -1    0    0    0  501 -0.00000000000E+00  0.00000000000E+00  0.10561017196E+04  0.10561017196E+04  0.00000000000E+00 0. -1.
          2   -1    0    0  501    0  0.00000000000E+00 -0.00000000000E+00 -0.28310177428E+04  0.28310177428E+04  0.00000000000E+00 0.  1.
    2000013    1    1    2    0    0 -0.11229365613E+04 -0.84827463473E+03 -0.12547669969E+04  0.21112784262E+04  0.95000000000E+03 0.  0.
   -2000013    1    1    2    0    0  0.11229365613E+04  0.84827463473E+03 -0.52014902631E+03  0.17758410363E+04  0.95000000000E+03 0.  0.
<mgrwt>
<rscale>  0 0.34582323E+04</rscale>
<asrwt>0</asrwt>
<pdfrwt beam="2">  1        2 0.43554119E+00 0.34582323E+04</pdfrwt>
<pdfrwt beam="1">  1       -2 0.16247719E+00 0.34582323E+04</pdfrwt>
<totfact> 0.44075788E-01</totfact>
</mgrwt>
</event>
<event>
 4    1  0.2552184E-008  0.2165697E+04  0.7816531E-02  0.8532843E-01
          2   -1    0    0  501    0  0.00000000000E+00  0.00000000000E+00  0.28891718836E+04  0.28891718836E+04  0.00000000000E+00 0.  1.
         -2   -1    0    0    0  501 -0.00000000000E+00 -0.00000000000E+00 -0.40584666467E+03  0.40584666467E+03  0.00000000000E+00 0. -1.
    2000013    1    1    2    0    0 -0.49639060934E+03  0.10557811808E+03  0.14118375961E+04  0.17757634341E+04  0.95000000000E+03 0.  0.
   -2000013    1    1    2    0    0  0.49639060934E+03 -0.10557811808E+03  0.10714876228E+04  0.15192551142E+04  0.95000000000E+03 0.  0.
<mgrwt>
<rscale>  0 0.21656969E+04</rscale>
<asrwt>0</asrwt>
<pdfrwt beam="1">  1        2 0.44448797E+00 0.21656969E+04</pdfrwt>
<pdfrwt beam="2">  1       -2 0.62437950E-01 0.21656969E+04</pdfrwt>
<totfact> 0.44546891E+00</totfact>
</mgrwt>
</event>
<event>
 4    1  0.2552184E-008  0.2163086E+04  0.7816531E-02  0.8533951E-01
          4   -1    0    0  501    0  0.00000000000E+00  0.00000000000E+00  0.94144095458E+03  0.94144095458E+03  0.00000000000E+00 0.  1.
         -4   -1    0    0    0  501 -0.00000000000E+00 -0.00000000000E+00 -0.12424946497E+04  0.12424946497E+04  0.00000000000E+00 0. -1.
    2000013    1    1    2    0    0 -0.38119245931E+03  0.31846825662E+03 -0.29510496252E+03  0.11118977743E+04  0.95000000000E+03 0.  0.
   -2000013    1    1    2    0    0  0.38119245931E+03 -0.31846825662E+03 -0.59487325680E+01  0.10720378300E+04  0.95000000000E+03 0.  0.
<mgrwt>
<rscale>  0 0.21630861E+04</rscale>
<asrwt>0</asrwt>
<pdfrwt beam="1">  1        4 0.14483707E+00 0.21630861E+04</pdfrwt>
<pdfrwt beam="2">  1       -4 0.19115302E+00 0.21630861E+04</pdfrwt>
<totfact> 0.90331075E-02</totfact>
</mgrwt>
</event>
<event>
 4    1  0.2552184E-008  0.2519364E+04  0.7816531E-02  0.8396119E-01
         -2   -1    0    0    0  501 -0.00000000000E+00  0.00000000000E+00  0.40850615781E+03  0.40850615781E+03  0.00000000000E+00 0. -1.
          2   -1    0    0  501    0  0.00000000000E+00 -0.00000000000E+00 -0.38843931696E+04  0.38843931696E+04  0.00000000000E+00 0.  1.
    2000013    1    1    2    0    0 -0.36785265163E+03 -0.55693804977E+03 -0.90526055880E+03  0.14722405523E+04  0.95000000000E+03 0.  0.
   -2000013    1    1    2    0    0  0.36785265163E+03  0.55693804977E+03 -0.25706264529E+04  0.28206587750E+04  0.95000000000E+03 0.  0.
<mgrwt>
<rscale>  0 0.25193638E+04</rscale>
<asrwt>0</asrwt>
<pdfrwt beam="2">  1        2 0.59759895E+00 0.25193638E+04</pdfrwt>
<pdfrwt beam="1">  1       -2 0.62847101E-01 0.25193638E+04</pdfrwt>
<totfact> 0.88587799E-01</totfact>
</mgrwt>
</event>
<event>
 4    1  0.2552184E-008  0.2355889E+04  0.7816531E-02  0.8456205E-01
         -2   -1    0    0    0  501 -0.00000000000E+00  0.00000000000E+00  0.10578317733E+04  0.10578317733E+04  0.00000000000E+00 0. -1.
          2   -1    0    0  501    0  0.00000000000E+00 -0.00000000000E+00 -0.13116950855E+04  0.13116950855E+04  0.00000000000E+00 0.  1.
    2000013    1    1    2    0    0  0.58585130751E+03 -0.17589799391E+02  0.25143968066E+03  0.11442259692E+04  0.95000000000E+03 0.  0.
   -2000013    1    1    2    0    0 -0.58585130751E+03  0.17589799391E+02 -0.50530299287E+03  0.12253008896E+04  0.95000000000E+03 0.  0.
<mgrwt>
<rscale>  0 0.23558886E+04</rscale>
<asrwt>0</asrwt>
<pdfrwt beam="2">  1        2 0.20179924E+00 0.23558886E+04</pdfrwt>
<pdfrwt beam="1">  1       -2 0.16274335E+00 0.23558886E+04</pdfrwt>
<totfact> 0.35318587E+00</totfact>
</mgrwt>
</event>
<event>
 4    1  0.2552184E-008  0.2302605E+04  0.7816531E-02  0.8476895E-01
         -2   -1    0    0    0  501 -0.00000000000E+00  0.00000000000E+00  0.50219396219E+03  0.50219396219E+03  0.00000000000E+00 0. -1.
          2   -1    0    0  501    0  0.00000000000E+00 -0.00000000000E+00 -0.26394136665E+04  0.26394136665E+04  0.00000000000E+00 0.  1.
    2000013    1    1    2    0    0 -0.59849337192E+03  0.13292811480E+03 -0.13648179248E+04  0.17723126608E+04  0.95000000000E+03 0.  0.
   -2000013    1    1    2    0    0  0.59849337192E+03 -0.13292811480E+03 -0.77240177948E+03  0.13692949678E+04  0.95000000000E+03 0.  0.
<mgrwt>
<rscale>  0 0.23026051E+04</rscale>
<asrwt>0</asrwt>
<pdfrwt beam="2">  1        2 0.40606364E+00 0.23026051E+04</pdfrwt>
<pdfrwt beam="1">  1       -2 0.77260610E-01 0.23026051E+04</pdfrwt>
<totfact> 0.39086123E+00</totfact>
</mgrwt>
</event>
<event>
 4    1  0.2552184E-008  0.2714427E+04  0.7816531E-02  0.8330339E-01
         -1   -1    0    0    0  501 -0.00000000000E+00  0.00000000000E+00  0.59004010031E+03  0.59004010031E+03  0.00000000000E+00 0. -1.
          1   -1    0    0  501    0  0.00000000000E+00 -0.00000000000E+00 -0.31218691729E+04  0.31218691729E+04  0.00000000000E+00 0.  1.
    2000013    1    1    2    0    0 -0.43357026094E+03 -0.73257429527E+03 -0.63202005805E+03  0.14235861839E+04  0.95000000000E+03 0.  0.
   -2000013    1    1    2    0    0  0.43357026094E+03  0.73257429527E+03 -0.18998090146E+04  0.22883230893E+04  0.95000000000E+03 0.  0.
<mgrwt>
<rscale>  0 0.27144266E+04</rscale>
<asrwt>0</asrwt>
<pdfrwt beam="2">  1        1 0.48028757E+00 0.27144266E+04</pdfrwt>
<pdfrwt beam="1">  1       -1 0.90775400E-01 0.27144266E+04</pdfrwt>
<totfact> 0.50229755E-01</totfact>
</mgrwt>
</event>
<event>
 4    1  0.2552184E-008  0.2640445E+04  0.7816531E-02  0.8354591E-01
         -2   -1    0    0    0  501 -0.00000000000E+00  0.00000000000E+00  0.95064537266E+03  0.95064537266E+03  0.00000000000E+00 0. -1.
          2   -1    0    0  501    0  0.00000000000E+00 -0.00000000000E+00 -0.18334783701E+04  0.18334783701E+04  0.00000000000E+00 0.  1.
    2000013    1    1    2    0    0  0.90266729559E+03  0.75094674115E+02 -0.59068328326E+03  0.14393936910E+04  0.95000000000E+03 0.  0.
   -2000013    1    1    2    0    0 -0.90266729559E+03 -0.75094674115E+02 -0.29214971421E+03  0.13447300518E+04  0.95000000000E+03 0.  0.
<mgrwt>
<rscale>  0 0.26404452E+04</rscale>
<asrwt>0</asrwt>
<pdfrwt beam="2">  1        2 0.28207359E+00 0.26404452E+04</pdfrwt>
<pdfrwt beam="1">  1       -2 0.14625314E+00 0.26404452E+04</pdfrwt>
<totfact> 0.23351317E+00</totfact>
</mgrwt>
</event>
<event>
 4    1  0.2552184E-008  0.2592345E+04  0.7816531E-02  0.8370806E-01
          1   -1    0    0  501    0  0.00000000000E+00  0.00000000000E+00  0.32391332893E+04  0.32391332893E+04  0.00000000000E+00 0.  1.
         -1   -1    0    0    0  501 -0.00000000000E+00 -0.00000000000E+00 -0.51867667845E+03  0.51867667845E+03  0.00000000000E+00 0. -1.
    2000013    1    1    2    0    0 -0.82791050912E+03 -0.29371293990E+03  0.12492640253E+04  0.17985726861E+04  0.95000000000E+03 0.  0.
   -2000013    1    1    2    0    0  0.82791050912E+03  0.29371293990E+03  0.14711925856E+04  0.19592372817E+04  0.95000000000E+03 0.  0.
<mgrwt>
<rscale>  0 0.25923448E+04</rscale>
<asrwt>0</asrwt>
<pdfrwt beam="1">  1        1 0.49832818E+00 0.25923448E+04</pdfrwt>
<pdfrwt beam="2">  1       -1 0.79796414E-01 0.25923448E+04</pdfrwt>
<totfact> 0.54903793E-01</totfact>
</mgrwt>
</event>
<event>
 4    1  0.2552184E-008  0.2274155E+04  0.7816531E-02  0.8488182E-01
         -2   -1    0    0    0  501 -0.00000000000E+00  0.00000000000E+00  0.51756775130E+03  0.51756775130E+03  0.00000000000E+00 0. -1.
          2   -1    0    0  501    0  0.00000000000E+00 -0.00000000000E+00 -0.24981172793E+04  0.24981172793E+04  0.00000000000E+00 0.  1.
    2000013    1    1    2    0    0 -0.40173330168E+03  0.17387823844E+03 -0.15815610567E+04  0.18961694712E+04  0.95000000000E+03 0.  0.
   -2000013    1    1    2    0    0  0.40173330168E+03 -0.17387823844E+03 -0.39898847129E+03  0.11195155594E+04  0.95000000000E+03 0.  0.
<mgrwt>
<rscale>  0 0.22741547E+04</rscale>
<asrwt>0</asrwt>
<pdfrwt beam="2">  1        2 0.38432574E+00 0.22741547E+04</pdfrwt>
<pdfrwt beam="1">  1       -2 0.79625808E-01 0.22741547E+04</pdfrwt>
<totfact> 0.44292560E+00</totfact>
</mgrwt>
</event>
<event>
 4    1  0.2552184E-008  0.3023775E+04  0.7816531E-02  0.8236974E-01
         -2   -1    0    0    0  501 -0.00000000000E+00  0.00000000000E+00  0.74866762363E+03  0.74866762363E+03  0.00000000000E+00 0. -1.
          2   -1    0    0  501    0  0.00000000000E+00 -0.00000000000E+00 -0.30531630765E+04  0.30531630765E+04  0.00000000000E+00 0.  1.
    2000013    1    1    2    0    0 -0.11044318338E+04  0.38893861102E+03 -0.12914716110E+04  0.19853064853E+04  0.95000000000E+03 0.  0.
   -2000013    1    1    2    0    0  0.11044318338E+04 -0.38893861102E+03 -0.10130238419E+04  0.18165242148E+04  0.95000000000E+03 0.  0.
<mgrwt>
<rscale>  0 0.30237754E+04</rscale>
<asrwt>0</asrwt>
<pdfrwt beam="2">  1        2 0.46971739E+00 0.30237754E+04</pdfrwt>
<pdfrwt beam="1">  1       -2 0.11517964E+00 0.30237754E+04</pdfrwt>
<totfact> 0.80835585E-01</totfact>
</mgrwt>
</event>
<event>
 4    1  0.2552184E-008  0.2287329E+04  0.7816531E-02  0.8482934E-01
         -2   -1    0    0    0  501 -0.00000000000E+00  0.00000000000E+00  0.99322854512E+03  0.99322854512E+03  0.00000000000E+00 0. -1.
          2   -1    0    0  501    0  0.00000000000E+00 -0.00000000000E+00 -0.13168856733E+04  0.13168856733E+04  0.00000000000E+00 0.  1.
    2000013    1    1    2    0    0  0.49960717815E+03 -0.28505564725E+03 -0.43768746887E+03  0.11937061510E+04  0.95000000000E+03 0.  0.
   -2000013    1    1    2    0    0 -0.49960717815E+03  0.28505564725E+03  0.11403034067E+03  0.11164080675E+04  0.95000000000E+03 0.  0.
<mgrwt>
<rscale>  0 0.22873290E+04</rscale>
<asrwt>0</asrwt>
<pdfrwt beam="2">  1        2 0.20259780E+00 0.22873290E+04</pdfrwt>
<pdfrwt beam="1">  1       -2 0.15280439E+00 0.22873290E+04</pdfrwt>
<totfact> 0.41836369E+00</totfact>
</mgrwt>
</event>
<event>
 4    1  0.2552184E-008  0.3248689E+04  0.7816531E-02  0.8176075E-01
         -2   -1    0    0    0  501 -0.00000000000E+00  0.00000000000E+00  0.14746383258E+04  0.14746383258E+04  0.00000000000E+00 0. -1.
          2   -1    0    0  501    0  0.00000000000E+00 -0.00000000000E+00 -0.17892493313E+04  0.17892493313E+04  0.00000000000E+00 0.  1.
    2000013    1    1    2    0    0 -0.82753375655E+03  0.32927431460E+02 -0.11868430770E+04  0.17311824928E+04  0.95000000000E+03 0.  0.
   -2000013    1    1    2    0    0  0.82753375655E+03 -0.32927431460E+02  0.87223207150E+03  0.15327051642E+04  0.95000000000E+03 0.  0.
<mgrwt>
<rscale>  0 0.32486894E+04</rscale>
<asrwt>0</asrwt>
<pdfrwt beam="2">  1        2 0.27526913E+00 0.32486894E+04</pdfrwt>
<pdfrwt beam="1">  1       -2 0.22686744E+00 0.32486894E+04</pdfrwt>
<totfact> 0.65638564E-01</totfact>
</mgrwt>
</event>
<event>
 4    1  0.2552184E-008  0.2183362E+04  0.7816531E-02  0.8525385E-01
          2   -1    0    0  501    0  0.00000000000E+00  0.00000000000E+00  0.11873076871E+04  0.11873076871E+04  0.00000000000E+00 0.  1.
         -2   -1    0    0    0  501 -0.00000000000E+00 -0.00000000000E+00 -0.10037560926E+04  0.10037560926E+04  0.00000000000E+00 0. -1.
    2000013    1    1    2    0    0  0.39574110716E+03  0.35375616071E+03  0.17875842044E+03  0.11028186696E+04  0.95000000000E+03 0.  0.
   -2000013    1    1    2    0    0 -0.39574110716E+03 -0.35375616071E+03  0.47931740001E+01  0.10882451101E+04  0.95000000000E+03 0.  0.
<mgrwt>
<rscale>  0 0.21833619E+04</rscale>
<asrwt>0</asrwt>
<pdfrwt beam="1">  1        2 0.18266272E+00 0.21833619E+04</pdfrwt>
<pdfrwt beam="2">  1       -2 0.15442401E+00 0.21833619E+04</pdfrwt>
<totfact> 0.48922562E+00</totfact>
</mgrwt>
</event>
<event>
 4    1  0.2552184E-008  0.2896801E+04  0.7816531E-02  0.8273830E-01
          2   -1    0    0  501    0  0.00000000000E+00  0.00000000000E+00  0.16070743126E+04  0.16070743126E+04  0.00000000000E+00 0.  1.
         -2   -1    0    0    0  501 -0.00000000000E+00 -0.00000000000E+00 -0.13053934780E+04  0.13053934780E+04  0.00000000000E+00 0. -1.
    2000013    1    1    2    0    0 -0.51437266301E+03  0.76756722038E+03  0.73848897322E+03  0.15171040300E+04  0.95000000000E+03 0.  0.
   -2000013    1    1    2    0    0  0.51437266301E+03 -0.76756722038E+03 -0.43680813865E+03  0.13953637605E+04  0.95000000000E+03 0.  0.
<mgrwt>
<rscale>  0 0.28968012E+04</rscale>
<asrwt>0</asrwt>
<pdfrwt beam="1">  1        2 0.24724220E+00 0.28968012E+04</pdfrwt>
<pdfrwt beam="2">  1       -2 0.20082977E+00 0.28968012E+04</pdfrwt>
<totfact> 0.12531343E+00</totfact>
</mgrwt>
</event>
<event>
 4    1  0.2552184E-008  0.2070121E+04  0.7816531E-02  0.8574521E-01
          2   -1    0    0  501    0  0.00000000000E+00  0.00000000000E+00  0.22790629001E+04  0.22790629001E+04  0.00000000000E+00 0.  1.
         -2   -1    0    0    0  501 -0.00000000000E+00 -0.00000000000E+00 -0.47008346826E+03  0.47008346826E+03  0.00000000000E+00 0. -1.
    2000013    1    1    2    0    0 -0.29560824845E+03  0.27823637305E+03  0.98900472504E+03  0.14301853244E+04  0.95000000000E+03 0.  0.
   -2000013    1    1    2    0    0  0.29560824845E+03 -0.27823637305E+03  0.81997470683E+03  0.13189610440E+04  0.95000000000E+03 0.  0.
<mgrwt>
<rscale>  0 0.20701206E+04</rscale>
<asrwt>0</asrwt>
<pdfrwt beam="1">  1        2 0.35062506E+00 0.20701206E+04</pdfrwt>
<pdfrwt beam="2">  1       -2 0.72320535E-01 0.20701206E+04</pdfrwt>
<totfact> 0.74488779E+00</totfact>
</mgrwt>
</event>
<event>
 4    1  0.2552184E-008  0.2253355E+04  0.7816531E-02  0.8496543E-01
          2   -1    0    0  501    0  0.00000000000E+00  0.00000000000E+00  0.19781308059E+04  0.19781308059E+04  0.00000000000E+00 0.  1.
         -2   -1    0    0    0  501 -0.00000000000E+00 -0.00000000000E+00 -0.64171811026E+03  0.64171811026E+03  0.00000000000E+00 0. -1.
    2000013    1    1    2    0    0  0.38403655033E+03  0.40756750984E+03  0.39977156826E+03  0.11729930323E+04  0.95000000000E+03 0.  0.
   -2000013    1    1    2    0    0 -0.38403655033E+03 -0.40756750984E+03  0.93664112734E+03  0.14468558838E+04  0.95000000000E+03 0.  0.
<mgrwt>
<rscale>  0 0.22533552E+04</rscale>
<asrwt>0</asrwt>
<pdfrwt beam="1">  1        2 0.30432782E+00 0.22533552E+04</pdfrwt>
<pdfrwt beam="2">  1       -2 0.98725863E-01 0.22533552E+04</pdfrwt>
<totfact> 0.53238692E+00</totfact>
</mgrwt>
</event>
<event>
 4    1  0.2552184E-008  0.2741685E+04  0.7816531E-02  0.8321605E-01
         -1   -1    0    0    0  501 -0.00000000000E+00  0.00000000000E+00  0.12549895410E+04  0.12549895410E+04  0.00000000000E+00 0.  1.
          1   -1    0    0  501    0  0.00000000000E+00 -0.00000000000E+00 -0.14973906088E+04  0.14973906088E+04  0.00000000000E+00 0. -1.
    2000013    1    1    2    0    0  0.89764031094E+03 -0.40230843074E+03 -0.25437910025E+02  0.13677562972E+04  0.95000000000E+03 0.  0.
   -2000013    1    1    2    0    0 -0.89764031094E+03  0.40230843074E+03 -0.21696315776E+03  0.13846238526E+04  0.95000000000E+03 0.  0.
<mgrwt>
<rscale>  0 0.27416853E+04</rscale>
<asrwt>0</asrwt>
<pdfrwt beam="2">  1        1 0.23036778E+00 0.27416853E+04</pdfrwt>
<pdfrwt beam="1">  1       -1 0.19307531E+00 0.27416853E+04</pdfrwt>
<totfact> 0.96104560E-01</totfact>
</mgrwt>
</event>
<event>
 4    1  0.2552184E-008  0.2420698E+04  0.7816531E-02  0.8431795E-01
         -2   -1    0    0    0  501 -0.00000000000E+00  0.00000000000E+00  0.55948998003E+03  0.55948998003E+03  0.00000000000E+00 0. -1.
          2   -1    0    0  501    0  0.00000000000E+00 -0.00000000000E+00 -0.26183563499E+04  0.26183563499E+04  0.00000000000E+00 0.  1.
    2000013    1    1    2    0    0  0.20117510700E+03 -0.61874044650E+03 -0.15191075902E+04  0.19061739256E+04  0.95000000000E+03 0.  0.
   -2000013    1    1    2    0    0 -0.20117510700E+03  0.61874044650E+03 -0.53975877965E+03  0.12716724044E+04  0.95000000000E+03 0.  0.
<mgrwt>
<rscale>  0 0.24206975E+04</rscale>
<asrwt>0</asrwt>
<pdfrwt beam="2">  1        2 0.40282405E+00 0.24206975E+04</pdfrwt>
<pdfrwt beam="1">  1       -2 0.86075382E-01 0.24206975E+04</pdfrwt>
<totfact> 0.31198152E+00</totfact>
</mgrwt>
</event>
<event>
 4    1  0.2552184E-008  0.2566981E+04  0.7816531E-02  0.8379504E-01
         -2   -1    0    0    0  501 -0.00000000000E+00  0.00000000000E+00  0.62725543525E+03  0.62725543525E+03  0.00000000000E+00 0. -1.
          2   -1    0    0  501    0  0.00000000000E+00 -0.00000000000E+00 -0.26262796282E+04  0.26262796282E+04  0.00000000000E+00 0.  1.
    2000013    1    1    2    0    0 -0.71484171340E+03 -0.47531351348E+03 -0.88666895415E+03  0.15574348929E+04  0.95000000000E+03 0.  0.
   -2000013    1    1    2    0    0  0.71484171340E+03  0.47531351348E+03 -0.11123552388E+04  0.16961001706E+04  0.95000000000E+03 0.  0.
<mgrwt>
<rscale>  0 0.25669812E+04</rscale>
<asrwt>0</asrwt>
<pdfrwt beam="2">  1        2 0.40404302E+00 0.25669812E+04</pdfrwt>
<pdfrwt beam="1">  1       -2 0.96500835E-01 0.25669812E+04</pdfrwt>
<totfact> 0.23396515E+00</totfact>
</mgrwt>
</event>
<event>
 4    1  0.2552184E-008  0.2264430E+04  0.7816531E-02  0.8492079E-01
          2   -1    0    0  501    0  0.00000000000E+00  0.00000000000E+00  0.13976144244E+04  0.13976144244E+04  0.00000000000E+00 0.  1.
         -2   -1    0    0    0  501 -0.00000000000E+00 -0.00000000000E+00 -0.91721375155E+03  0.91721375155E+03  0.00000000000E+00 0. -1.
    2000013    1    1    2    0    0 -0.46486319269E+03 -0.19918562543E+02 -0.17241228699E+03  0.10717838092E+04  0.95000000000E+03 0.  0.
   -2000013    1    1    2    0    0  0.46486319269E+03  0.19918562543E+02  0.65281295981E+03  0.12430443667E+04  0.95000000000E+03 0.  0.
<mgrwt>
<rscale>  0 0.22644303E+04</rscale>
<asrwt>0</asrwt>
<pdfrwt beam="1">  1        2 0.21501760E+00 0.22644303E+04</pdfrwt>
<pdfrwt beam="2">  1       -2 0.14110981E+00 0.22644303E+04</pdfrwt>
<totfact> 0.46448347E+00</totfact>
</mgrwt>
</event>
<event>
 4    1  0.2552184E-008  0.3020284E+04  0.7816531E-02  0.8237962E-01
          2   -1    0    0  501    0  0.00000000000E+00  0.00000000000E+00  0.31173839295E+04  0.31173839295E+04  0.00000000000E+00 0.  1.
         -2   -1    0    0    0  501 -0.00000000000E+00 -0.00000000000E+00 -0.73155229859E+03  0.73155229859E+03  0.00000000000E+00 0. -1.
    2000013    1    1    2    0    0 -0.89343066852E+01  0.82695517339E+03  0.13121476337E+03  0.12663538189E+04  0.95000000000E+03 0.  0.
   -2000013    1    1    2    0    0  0.89343066852E+01 -0.82695517339E+03  0.22546168675E+04  0.25825824091E+04  0.95000000000E+03 0.  0.
<mgrwt>
<rscale>  0 0.30202843E+04</rscale>
<asrwt>0</asrwt>
<pdfrwt beam="1">  1        2 0.47959752E+00 0.30202843E+04</pdfrwt>
<pdfrwt beam="2">  1       -2 0.11254651E+00 0.30202843E+04</pdfrwt>
<totfact> 0.77847568E-01</totfact>
</mgrwt>
</event>
<event>
 4    1  0.2552184E-008  0.3372255E+04  0.7816531E-02  0.8144750E-01
          2   -1    0    0  501    0  0.00000000000E+00  0.00000000000E+00  0.31733433734E+04  0.31733433734E+04  0.00000000000E+00 0.  1.
         -2   -1    0    0    0  501 -0.00000000000E+00 -0.00000000000E+00 -0.89590856593E+03  0.89590856593E+03  0.00000000000E+00 0. -1.
    2000013    1    1    2    0    0  0.89641212812E+03  0.99542403474E+03  0.67748268981E+03  0.17764871256E+04  0.95000000000E+03 0.  0.
   -2000013    1    1    2    0    0 -0.89641212812E+03 -0.99542403474E+03  0.15999521177E+04  0.22927648138E+04  0.95000000000E+03 0.  0.
<mgrwt>
<rscale>  0 0.33722547E+04</rscale>
<asrwt>0</asrwt>
<pdfrwt beam="1">  1        2 0.48820667E+00 0.33722547E+04</pdfrwt>
<pdfrwt beam="2">  1       -2 0.13783209E+00 0.33722547E+04</pdfrwt>
<totfact> 0.41871341E-01</totfact>
</mgrwt>
</event>
<event>
 4    1  0.2552184E-008  0.3402691E+04  0.7816531E-02  0.8137246E-01
         -1   -1    0    0    0  501 -0.00000000000E+00  0.00000000000E+00  0.14189202209E+04  0.14189202209E+04  0.00000000000E+00 0. -1.
          1   -1    0    0  501    0  0.00000000000E+00 -0.00000000000E+00 -0.20399850729E+04  0.20399850729E+04  0.00000000000E+00 0.  1.
    2000013    1    1    2    0    0 -0.44670577713E+03  0.10275723866E+04 -0.11829801649E+04  0.18861052811E+04  0.95000000000E+03 0.  0.
   -2000013    1    1    2    0    0  0.44670577713E+03 -0.10275723866E+04  0.56191531293E+03  0.15728000127E+04  0.95000000000E+03 0.  0.
<mgrwt>
<rscale>  0 0.34026907E+04</rscale>
<asrwt>0</asrwt>
<pdfrwt beam="2">  1        1 0.31384386E+00 0.34026907E+04</pdfrwt>
<pdfrwt beam="1">  1       -1 0.21829542E+00 0.34026907E+04</pdfrwt>
<totfact> 0.26017750E-01</totfact>
</mgrwt>
</event>
<event>
 4    1  0.2552184E-008  0.2551408E+04  0.7816531E-02  0.8384897E-01
         -1   -1    0    0    0  501 -0.00000000000E+00  0.00000000000E+00  0.95203163166E+03  0.95203163166E+03  0.00000000000E+00 0. -1.
          1   -1    0    0  501    0  0.00000000000E+00 -0.00000000000E+00 -0.17094193196E+04  0.17094193196E+04  0.00000000000E+00 0.  1.
    2000013    1    1    2    0    0 -0.19091504502E+03 -0.77627760807E+03 -0.73026847205E+02  0.12437396832E+04  0.95000000000E+03 0.  0.
   -2000013    1    1    2    0    0  0.19091504502E+03  0.77627760807E+03 -0.68436084073E+03  0.14177112680E+04  0.95000000000E+03 0.  0.
<mgrwt>
<rscale>  0 0.25514084E+04</rscale>
<asrwt>0</asrwt>
<pdfrwt beam="2">  1        1 0.26298758E+00 0.25514084E+04</pdfrwt>
<pdfrwt beam="1">  1       -1 0.14646641E+00 0.25514084E+04</pdfrwt>
<totfact> 0.15448972E+00</totfact>
</mgrwt>
</event>
<event>
 4    1  0.2552184E-008  0.2848837E+04  0.7816531E-02  0.8288265E-01
          2   -1    0    0  501    0  0.00000000000E+00  0.00000000000E+00  0.14606225755E+04  0.14606225755E+04  0.00000000000E+00 0.  1.
         -2   -1    0    0    0  501 -0.00000000000E+00 -0.00000000000E+00 -0.13891114599E+04  0.13891114599E+04  0.00000000000E+00 0. -1.
    2000013    1    1    2    0    0 -0.60090543430E+03  0.68741729659E+03  0.57707080399E+03  0.14384507616E+04  0.95000000000E+03 0.  0.
   -2000013    1    1    2    0    0  0.60090543430E+03 -0.68741729659E+03 -0.50555968833E+03  0.14112832739E+04  0.95000000000E+03 0.  0.
<mgrwt>
<rscale>  0 0.28488366E+04</rscale>
<asrwt>0</asrwt>
<pdfrwt beam="1">  1        2 0.22471116E+00 0.28488366E+04</pdfrwt>
<pdfrwt beam="2">  1       -2 0.21370946E+00 0.28488366E+04</pdfrwt>
<totfact> 0.12554489E+00</totfact>
</mgrwt>
</event>
<event>
 4    1  0.2552184E-008  0.2526062E+04  0.7816531E-02  0.8393759E-01
          1   -1    0    0  501    0  0.00000000000E+00  0.00000000000E+00  0.31138699323E+04  0.31138699323E+04  0.00000000000E+00 0. -1.
         -1   -1    0    0    0  501 -0.00000000000E+00 -0.00000000000E+00 -0.51230359018E+03  0.51230359018E+03  0.00000000000E+00 0.  1.
    2000013    1    1    2    0    0 -0.71046847293E+03 -0.35847039500E+03  0.16508823730E+04  0.20642623585E+04  0.95000000000E+03 0.  0.
   -2000013    1    1    2    0    0  0.71046847293E+03  0.35847039500E+03  0.95068396913E+03  0.15619111640E+04  0.95000000000E+03 0.  0.
<mgrwt>
<rscale>  0 0.25260616E+04</rscale>
<asrwt>0</asrwt>
<pdfrwt beam="1">  1        1 0.47905690E+00 0.25260616E+04</pdfrwt>
<pdfrwt beam="2">  1       -1 0.78815939E-01 0.25260616E+04</pdfrwt>
<totfact> 0.70349118E-01</totfact>
</mgrwt>
</event>
<event>
 4    1  0.2552184E-008  0.2610697E+04  0.7816531E-02  0.8364577E-01
         -1   -1    0    0    0  501 -0.00000000000E+00  0.00000000000E+00  0.13934899192E+04  0.13934899192E+04  0.00000000000E+00 0. -1.
          1   -1    0    0  501    0  0.00000000000E+00 -0.00000000000E+00 -0.12227819962E+04  0.12227819962E+04  0.00000000000E+00 0.  1.
    2000013    1    1    2    0    0 -0.77394447805E+03 -0.35181211704E+03 -0.19573131864E+03  0.12897955535E+04  0.95000000000E+03 0.  0.
   -2000013    1    1    2    0    0  0.77394447805E+03  0.35181211704E+03  0.36643924167E+03  0.13264763619E+04  0.95000000000E+03 0.  0.
<mgrwt>
<rscale>  0 0.26106968E+04</rscale>
<asrwt>0</asrwt>
<pdfrwt beam="2">  1        1 0.18812031E+00 0.26106968E+04</pdfrwt>
<pdfrwt beam="1">  1       -1 0.21438306E+00 0.26106968E+04</pdfrwt>
<totfact> 0.10864612E+00</totfact>
</mgrwt>
</event>
<event>
 4    1  0.2552184E-008  0.2703582E+04  0.7816531E-02  0.8333844E-01
         -2   -1    0    0    0  501 -0.00000000000E+00  0.00000000000E+00  0.10108587893E+04  0.10108587893E+04  0.00000000000E+00 0. -1.
          2   -1    0    0  501    0  0.00000000000E+00 -0.00000000000E+00 -0.18077095135E+04  0.18077095135E+04  0.00000000000E+00 0.  1.
    2000013    1    1    2    0    0  0.89455896501E+03 -0.16052971736E+03 -0.72617417554E+03  0.15019435626E+04  0.95000000000E+03 0.  0.
   -2000013    1    1    2    0    0 -0.89455896501E+03  0.16052971736E+03 -0.70676548727E+02  0.13166247402E+04  0.95000000000E+03 0.  0.
<mgrwt>
<rscale>  0 0.27035821E+04</rscale>
<asrwt>0</asrwt>
<pdfrwt beam="2">  1        2 0.27810915E+00 0.27035821E+04</pdfrwt>
<pdfrwt beam="1">  1       -2 0.15551674E+00 0.27035821E+04</pdfrwt>
<totfact> 0.20391016E+00</totfact>
</mgrwt>
</event>
<event>
 4    1  0.2552184E-008  0.2059776E+04  0.7816531E-02  0.8579172E-01
         -4   -1    0    0    0  501 -0.00000000000E+00  0.00000000000E+00  0.59845227743E+03  0.59845227743E+03  0.00000000000E+00 0. -1.
          4   -1    0    0  501    0  0.00000000000E+00 -0.00000000000E+00 -0.17723544810E+04  0.17723544810E+04  0.00000000000E+00 0.  1.
    2000013    1    1    2    0    0  0.18160918743E+03  0.25339558329E+03 -0.30272499629E+03  0.10446691543E+04  0.95000000000E+03 0.  0.
   -2000013    1    1    2    0    0 -0.18160918743E+03 -0.25339558329E+03 -0.87117720730E+03  0.13261376041E+04  0.95000000000E+03 0.  0.
<mgrwt>
<rscale>  0 0.20597763E+04</rscale>
<asrwt>0</asrwt>
<pdfrwt beam="2">  1        4 0.27266992E+00 0.20597763E+04</pdfrwt>
<pdfrwt beam="1">  1       -4 0.92069582E-01 0.20597763E+04</pdfrwt>
<totfact> 0.84821076E-02</totfact>
</mgrwt>
</event>
<event>
 4    1  0.2552184E-008  0.2686878E+04  0.7816531E-02  0.8339275E-01
          2   -1    0    0  501    0  0.00000000000E+00  0.00000000000E+00  0.22073007622E+04  0.22073007622E+04  0.00000000000E+00 0.  1.
         -2   -1    0    0    0  501 -0.00000000000E+00 -0.00000000000E+00 -0.81766312966E+03  0.81766312966E+03  0.00000000000E+00 0. -1.
    2000013    1    1    2    0    0  0.42927791147E+03  0.83541794365E+03  0.85453489296E+03  0.15858538864E+04  0.95000000000E+03 0.  0.
   -2000013    1    1    2    0    0 -0.42927791147E+03 -0.83541794365E+03  0.53510273961E+03  0.14391100055E+04  0.95000000000E+03 0.  0.
<mgrwt>
<rscale>  0 0.26868781E+04</rscale>
<asrwt>0</asrwt>
<pdfrwt beam="1">  1        2 0.33958473E+00 0.26868781E+04</pdfrwt>
<pdfrwt beam="2">  1       -2 0.12579433E+00 0.26868781E+04</pdfrwt>
<totfact> 0.21197803E+00</totfact>
</mgrwt>
</event>
<event>
 4    1  0.2552184E-008  0.2754672E+04  0.7816531E-02  0.8317481E-01
          2   -1    0    0  501    0  0.00000000000E+00  0.00000000000E+00  0.26116242986E+04  0.26116242986E+04  0.00000000000E+00 0.  1.
         -2   -1    0    0    0  501 -0.00000000000E+00 -0.00000000000E+00 -0.72638852030E+03  0.72638852030E+03  0.00000000000E+00 0. -1.
    2000013    1    1    2    0    0  0.21058900245E+03 -0.89229267705E+03  0.46705640710E+03  0.14004198074E+04  0.95000000000E+03 0.  0.
   -2000013    1    1    2    0    0 -0.21058900245E+03  0.89229267705E+03  0.14181793712E+04  0.19375930116E+04  0.95000000000E+03 0.  0.
<mgrwt>
<rscale>  0 0.27546716E+04</rscale>
<asrwt>0</asrwt>
<pdfrwt beam="1">  1        2 0.40178835E+00 0.27546716E+04</pdfrwt>
<pdfrwt beam="2">  1       -2 0.11175208E+00 0.27546716E+04</pdfrwt>
<totfact> 0.16538537E+00</totfact>
</mgrwt>
</event>
<event>
 4    1  0.2552184E-008  0.2193281E+04  0.7816531E-02  0.8521230E-01
         -2   -1    0    0    0  501 -0.00000000000E+00  0.00000000000E+00  0.91929012431E+03  0.91929012431E+03  0.00000000000E+00 0. -1.
          2   -1    0    0  501    0  0.00000000000E+00 -0.00000000000E+00 -0.13082056654E+04  0.13082056654E+04  0.00000000000E+00 0.  1.
    2000013    1    1    2    0    0  0.34275158052E+03 -0.55299996518E+02  0.23592629183E+03  0.10386038469E+04  0.95000000000E+03 0.  0.
   -2000013    1    1    2    0    0 -0.34275158052E+03  0.55299996518E+02 -0.62484183289E+03  0.11888919428E+04  0.95000000000E+03 0.  0.
<mgrwt>
<rscale>  0 0.21932811E+04</rscale>
<asrwt>0</asrwt>
<pdfrwt beam="2">  1        2 0.20126241E+00 0.21932811E+04</pdfrwt>
<pdfrwt beam="1">  1       -2 0.14142925E+00 0.21932811E+04</pdfrwt>
<totfact> 0.52311034E+00</totfact>
</mgrwt>
</event>
<event>
 4    1  0.2552184E-008  0.2811728E+04  0.7816531E-02  0.8299637E-01
          2   -1    0    0  501    0  0.00000000000E+00  0.00000000000E+00  0.24877694948E+04  0.24877694948E+04  0.00000000000E+00 0.  1.
         -2   -1    0    0    0  501 -0.00000000000E+00 -0.00000000000E+00 -0.79446804387E+03  0.79446804387E+03  0.00000000000E+00 0. -1.
    2000013    1    1    2    0    0 -0.46520324402E+03  0.91207474592E+03  0.10336398219E+04  0.17375861653E+04  0.95000000000E+03 0.  0.
   -2000013    1    1    2    0    0  0.46520324402E+03 -0.91207474592E+03  0.65966162902E+03  0.15446513734E+04  0.95000000000E+03 0.  0.
<mgrwt>
<rscale>  0 0.28117278E+04</rscale>
<asrwt>0</asrwt>
<pdfrwt beam="1">  1        2 0.38273377E+00 0.28117278E+04</pdfrwt>
<pdfrwt beam="2">  1       -2 0.12222585E+00 0.28117278E+04</pdfrwt>
<totfact> 0.15598647E+00</totfact>
</mgrwt>
</event>
<event>
 4    1  0.2552184E-008  0.3706241E+04  0.7816531E-02  0.8066580E-01
          1   -1    0    0  501    0  0.00000000000E+00  0.00000000000E+00  0.19478856264E+04  0.19478856264E+04  0.00000000000E+00 0.  1.
         -1   -1    0    0    0  501 -0.00000000000E+00 -0.00000000000E+00 -0.17629658507E+04  0.17629658507E+04  0.00000000000E+00 0. -1.
    2000013    1    1    2    0    0 -0.40571345783E+03 -0.15384828041E+04  0.97271281137E+02  0.18556655007E+04  0.95000000000E+03 0.  0.
   -2000013    1    1    2    0    0  0.40571345783E+03  0.15384828041E+04  0.87648494543E+02  0.18551859764E+04  0.95000000000E+03 0.  0.
<mgrwt>
<rscale>  0 0.37062411E+04</rscale>
<asrwt>0</asrwt>
<pdfrwt beam="1">  1        1 0.29967471E+00 0.37062411E+04</pdfrwt>
<pdfrwt beam="2">  1       -1 0.27122551E+00 0.37062411E+04</pdfrwt>
<totfact> 0.13152619E-01</totfact>
</mgrwt>
</event>
<event>
 4    1  0.2552184E-008  0.3421779E+04  0.7816531E-02  0.8132582E-01
          2   -1    0    0  501    0  0.00000000000E+00  0.00000000000E+00  0.26582844809E+04  0.26582844809E+04  0.00000000000E+00 0.  1.
         -2   -1    0    0    0  501 -0.00000000000E+00 -0.00000000000E+00 -0.11011396607E+04  0.11011396607E+04  0.00000000000E+00 0. -1.
    2000013    1    1    2    0    0 -0.10206251929E+04  0.33193169430E+03  0.18049893058E+04  0.23048515848E+04  0.95000000000E+03 0.  0.
   -2000013    1    1    2    0    0  0.10206251929E+04 -0.33193169430E+03 -0.24784448557E+03  0.14545725569E+04  0.95000000000E+03 0.  0.
<mgrwt>
<rscale>  0 0.34217788E+04</rscale>
<asrwt>0</asrwt>
<pdfrwt beam="1">  1        2 0.40896684E+00 0.34217788E+04</pdfrwt>
<pdfrwt beam="2">  1       -2 0.16940610E+00 0.34217788E+04</pdfrwt>
<totfact> 0.50025624E-01</totfact>
</mgrwt>
</event>
<event>
 4    1  0.2552184E-008  0.2119280E+04  0.7816531E-02  0.8552798E-01
          2   -1    0    0  501    0  0.00000000000E+00  0.00000000000E+00  0.73876578889E+03  0.73876578889E+03  0.00000000000E+00 0.  1.
         -2   -1    0    0    0  501 -0.00000000000E+00 -0.00000000000E+00 -0.15198816874E+04  0.15198816874E+04  0.00000000000E+00 0. -1.
    2000013    1    1    2    0    0 -0.40481801138E+03  0.98791419129E+02 -0.16024676749E+03  0.10496744225E+04  0.95000000000E+03 0.  0.
   -2000013    1    1    2    0    0  0.40481801138E+03 -0.98791419129E+02 -0.62086913099E+03  0.12089730537E+04  0.95000000000E+03 0.  0.
<mgrwt>
<rscale>  0 0.21192797E+04</rscale>
<asrwt>0</asrwt>
<pdfrwt beam="1">  1        2 0.11365628E+00 0.21192797E+04</pdfrwt>
<pdfrwt beam="2">  1       -2 0.23382795E+00 0.21192797E+04</pdfrwt>
<totfact> 0.28460316E+00</totfact>
</mgrwt>
</event>
<event>
 4    1  0.2552184E-008  0.2448436E+04  0.7816531E-02  0.8421589E-01
          2   -1    0    0  501    0  0.00000000000E+00  0.00000000000E+00  0.22883916368E+04  0.22883916368E+04  0.00000000000E+00 0.  1.
         -2   -1    0    0    0  501 -0.00000000000E+00 -0.00000000000E+00 -0.65491823005E+03  0.65491823005E+03  0.00000000000E+00 0. -1.
    2000013    1    1    2    0    0  0.52660091289E+03  0.56336598997E+03  0.76987504211E+03  0.14456477235E+04  0.95000000000E+03 0.  0.
   -2000013    1    1    2    0    0 -0.52660091289E+03 -0.56336598997E+03  0.86359836465E+03  0.14976621433E+04  0.95000000000E+03 0.  0.
<mgrwt>
<rscale>  0 0.24484357E+04</rscale>
<asrwt>0</asrwt>
<pdfrwt beam="1">  1        2 0.35206025E+00 0.24484357E+04</pdfrwt>
<pdfrwt beam="2">  1       -2 0.10075665E+00 0.24484357E+04</pdfrwt>
<totfact> 0.33443507E+00</totfact>
</mgrwt>
</event>
<event>
 4    1  0.2552184E-008  0.2376294E+04  0.7816531E-02  0.8448432E-01
         -2   -1    0    0    0  501 -0.00000000000E+00  0.00000000000E+00  0.88067642240E+03  0.88067642240E+03  0.00000000000E+00 0. -1.
          2   -1    0    0  501    0  0.00000000000E+00 -0.00000000000E+00 -0.16029652342E+04  0.16029652342E+04  0.00000000000E+00 0.  1.
    2000013    1    1    2    0    0 -0.53241479292E+03 -0.47147734072E+03 -0.42242133495E+03  0.12596412897E+04  0.95000000000E+03 0.  0.
   -2000013    1    1    2    0    0  0.53241479292E+03  0.47147734072E+03 -0.29986747689E+03  0.12240003669E+04  0.95000000000E+03 0.  0.
<mgrwt>
<rscale>  0 0.23762943E+04</rscale>
<asrwt>0</asrwt>
<pdfrwt beam="2">  1        2 0.24661003E+00 0.23762943E+04</pdfrwt>
<pdfrwt beam="1">  1       -2 0.13548868E+00 0.23762943E+04</pdfrwt>
<totfact> 0.39131056E+00</totfact>
</mgrwt>
</event>
<event>
 4    1  0.2552184E-008  0.2490094E+04  0.7816531E-02  0.8406523E-01
         -2   -1    0    0    0  501 -0.00000000000E+00  0.00000000000E+00  0.88769727392E+03  0.88769727392E+03  0.00000000000E+00 0. -1.
          2   -1    0    0  501    0  0.00000000000E+00 -0.00000000000E+00 -0.17462513497E+04  0.17462513497E+04  0.00000000000E+00 0.  1.
    2000013    1    1    2    0    0 -0.42759197909E+03  0.61248856410E+03 -0.74601781609E+03  0.14202181958E+04  0.95000000000E+03 0.  0.
   -2000013    1    1    2    0    0  0.42759197909E+03 -0.61248856410E+03 -0.11253625972E+03  0.12137304278E+04  0.95000000000E+03 0.  0.
<mgrwt>
<rscale>  0 0.24900944E+04</rscale>
<asrwt>0</asrwt>
<pdfrwt beam="2">  1        2 0.26865405E+00 0.24900944E+04</pdfrwt>
<pdfrwt beam="1">  1       -2 0.13656881E+00 0.24900944E+04</pdfrwt>
<totfact> 0.31603387E+00</totfact>
</mgrwt>
</event>
<event>
 4    1  0.2552184E-008  0.2022293E+04  0.7816531E-02  0.8596268E-01
         -2   -1    0    0    0  501 -0.00000000000E+00  0.00000000000E+00  0.39724448974E+03  0.39724448974E+03  0.00000000000E+00 0. -1.
          2   -1    0    0  501    0  0.00000000000E+00 -0.00000000000E+00 -0.25737737842E+04  0.25737737842E+04  0.00000000000E+00 0.  1.
    2000013    1    1    2    0    0  0.27506818816E+03 -0.21027569795E+03 -0.10974483582E+04  0.14922370041E+04  0.95000000000E+03 0.  0.
   -2000013    1    1    2    0    0 -0.27506818816E+03  0.21027569795E+03 -0.10790809363E+04  0.14787812699E+04  0.95000000000E+03 0.  0.
<mgrwt>
<rscale>  0 0.20222932E+04</rscale>
<asrwt>0</asrwt>
<pdfrwt beam="2">  1        2 0.39596519E+00 0.20222932E+04</pdfrwt>
<pdfrwt beam="1">  1       -2 0.61114538E-01 0.20222932E+04</pdfrwt>
<totfact> 0.72880358E+00</totfact>
</mgrwt>
</event>
<event>
 4    1  0.2552184E-008  0.2054589E+04  0.7816531E-02  0.8581515E-01
         -2   -1    0    0    0  501 -0.00000000000E+00  0.00000000000E+00  0.46517424404E+03  0.46517424404E+03  0.00000000000E+00 0. -1.
          2   -1    0    0  501    0  0.00000000000E+00 -0.00000000000E+00 -0.22686853122E+04  0.22686853122E+04  0.00000000000E+00 0.  1.
    2000013    1    1    2    0    0  0.25749443358E+03  0.15451147192E+03 -0.56868567073E+03  0.11472055484E+04  0.95000000000E+03 0.  0.
   -2000013    1    1    2    0    0 -0.25749443358E+03 -0.15451147192E+03 -0.12348253974E+04  0.15866540078E+04  0.95000000000E+03 0.  0.
<mgrwt>
<rscale>  0 0.20545890E+04</rscale>
<asrwt>0</asrwt>
<pdfrwt beam="2">  1        2 0.34902850E+00 0.20545890E+04</pdfrwt>
<pdfrwt beam="1">  1       -2 0.71565269E-01 0.20545890E+04</pdfrwt>
<totfact> 0.77365672E+00</totfact>
</mgrwt>
</event>
<event>
 4    1  0.2552184E-008  0.3725774E+04  0.7816531E-02  0.8062274E-01
          1   -1    0    0  501    0  0.00000000000E+00  0.00000000000E+00  0.17834781234E+04  0.17834781234E+04  0.00000000000E+00 0.  1.
         -1   -1    0    0    0  501 -0.00000000000E+00 -0.00000000000E+00 -0.19458319723E+04  0.19458319723E+04  0.00000000000E+00 0. -1.
    2000013    1    1    2    0    0  0.12930053951E+04  0.17186511106E+02 -0.10284842737E+04  0.19058956501E+04  0.95000000000E+03 0.  0.
   -2000013    1    1    2    0    0 -0.12930053951E+04 -0.17186511106E+02  0.86613042475E+03  0.18234144456E+04  0.95000000000E+03 0.  0.
<mgrwt>
<rscale>  0 0.37257744E+04</rscale>
<asrwt>0</asrwt>
<pdfrwt beam="1">  1        1 0.27438125E+00 0.37257744E+04</pdfrwt>
<pdfrwt beam="2">  1       -1 0.29935877E+00 0.37257744E+04</pdfrwt>
<totfact> 0.11159601E-01</totfact>
</mgrwt>
</event>
<event>
 4    1  0.2552184E-008  0.2222507E+04  0.7816531E-02  0.8509118E-01
         -2   -1    0    0    0  501 -0.00000000000E+00  0.00000000000E+00  0.49017729336E+03  0.49017729336E+03  0.00000000000E+00 0. -1.
          2   -1    0    0  501    0  0.00000000000E+00 -0.00000000000E+00 -0.25192603630E+04  0.25192603630E+04  0.00000000000E+00 0.  1.
    2000013    1    1    2    0    0  0.40850697193E+03  0.14393682035E+03 -0.49930194533E+03  0.11573237175E+04  0.95000000000E+03 0.  0.
   -2000013    1    1    2    0    0 -0.40850697193E+03 -0.14393682035E+03 -0.15297811243E+04  0.18521139389E+04  0.95000000000E+03 0.  0.
<mgrwt>
<rscale>  0 0.22225069E+04</rscale>
<asrwt>0</asrwt>
<pdfrwt beam="2">  1        2 0.38757851E+00 0.22225069E+04</pdfrwt>
<pdfrwt beam="1">  1       -2 0.75411893E-01 0.22225069E+04</pdfrwt>
<totfact> 0.48831598E+00</totfact>
</mgrwt>
</event>
<event>
 4    1  0.2552184E-008  0.2062439E+04  0.7816531E-02  0.8577972E-01
          2   -1    0    0  501    0  0.00000000000E+00  0.00000000000E+00  0.75495236617E+03  0.75495236617E+03  0.00000000000E+00 0.  1.
         -2   -1    0    0    0  501 -0.00000000000E+00 -0.00000000000E+00 -0.14085837310E+04  0.14085837310E+04  0.00000000000E+00 0. -1.
    2000013    1    1    2    0    0  0.26851683258E+03 -0.28438909639E+03 -0.42026179626E+03  0.11099992905E+04  0.95000000000E+03 0.  0.
   -2000013    1    1    2    0    0 -0.26851683258E+03  0.28438909639E+03 -0.23336956860E+03  0.10535368067E+04  0.95000000000E+03 0.  0.
<mgrwt>
<rscale>  0 0.20624390E+04</rscale>
<asrwt>0</asrwt>
<pdfrwt beam="1">  1        2 0.11614652E+00 0.20624390E+04</pdfrwt>
<pdfrwt beam="2">  1       -2 0.21670519E+00 0.20624390E+04</pdfrwt>
<totfact> 0.35628734E+00</totfact>
</mgrwt>
</event>
<event>
 4    1  0.2552184E-008  0.2922698E+04  0.7816531E-02  0.8266156E-01
          2   -1    0    0  501    0  0.00000000000E+00  0.00000000000E+00  0.25331129261E+04  0.25331129261E+04  0.00000000000E+00 0.  1.
         -2   -1    0    0    0  501 -0.00000000000E+00 -0.00000000000E+00 -0.84304982890E+03  0.84304982890E+03  0.00000000000E+00 0. -1.
    2000013    1    1    2    0    0 -0.10058213312E+04  0.42288263289E+03  0.60679502298E+03  0.15688232761E+04  0.95000000000E+03 0.  0.
   -2000013    1    1    2    0    0  0.10058213312E+04 -0.42288263289E+03  0.10832680742E+04  0.18073394790E+04  0.95000000000E+03 0.  0.
<mgrwt>
<rscale>  0 0.29226977E+04</rscale>
<asrwt>0</asrwt>
<pdfrwt beam="1">  1        2 0.38970968E+00 0.29226977E+04</pdfrwt>
<pdfrwt beam="2">  1       -2 0.12969997E+00 0.29226977E+04</pdfrwt>
<totfact> 0.12529456E+00</totfact>
</mgrwt>
</event>
<event>
 4    1  0.2552184E-008  0.3250200E+04  0.7816531E-02  0.8175684E-01
         -2   -1    0    0    0  501 -0.00000000000E+00  0.00000000000E+00  0.15095827581E+04  0.15095827581E+04  0.00000000000E+00 0. -1.
          2   -1    0    0  501    0  0.00000000000E+00 -0.00000000000E+00 -0.17494569936E+04  0.17494569936E+04  0.00000000000E+00 0.  1.
    2000013    1    1    2    0    0 -0.10502483816E+03  0.10054354340E+04 -0.96871404589E+03  0.16919921782E+04  0.95000000000E+03 0.  0.
   -2000013    1    1    2    0    0  0.10502483816E+03 -0.10054354340E+04  0.72883981036E+03  0.15670475735E+04  0.95000000000E+03 0.  0.
<mgrwt>
<rscale>  0 0.32502001E+04</rscale>
<asrwt>0</asrwt>
<pdfrwt beam="2">  1        2 0.26914723E+00 0.32502001E+04</pdfrwt>
<pdfrwt beam="1">  1       -2 0.23224350E+00 0.32502001E+04</pdfrwt>
<totfact> 0.63904976E-01</totfact>
</mgrwt>
</event>
<event>
 4    1  0.2552184E-008  0.2303126E+04  0.7816531E-02  0.8476690E-01
         -1   -1    0    0    0  501 -0.00000000000E+00  0.00000000000E+00  0.18820619947E+04  0.18820619947E+04  0.00000000000E+00 0.  1.
          1   -1    0    0  501    0  0.00000000000E+00 -0.00000000000E+00 -0.70459803804E+03  0.70459803804E+03  0.00000000000E+00 0. -1.
    2000013    1    1    2    0    0  0.16148103822E+02 -0.65044549153E+03  0.60673993729E+03  0.13015273528E+04  0.95000000000E+03 0.  0.
   -2000013    1    1    2    0    0 -0.16148103822E+02  0.65044549153E+03  0.57072401942E+03  0.12851326799E+04  0.95000000000E+03 0.  0.
<mgrwt>
<rscale>  0 0.23031259E+04</rscale>
<asrwt>0</asrwt>
<pdfrwt beam="2">  1        1 0.10839970E+00 0.23031259E+04</pdfrwt>
<pdfrwt beam="1">  1       -1 0.28954800E+00 0.23031259E+04</pdfrwt>
<totfact> 0.94100427E-01</totfact>
</mgrwt>
</event>
<event>
 4    1  0.2552184E-008  0.2451486E+04  0.7816531E-02  0.8420476E-01
         -2   -1    0    0    0  501 -0.00000000000E+00  0.00000000000E+00  0.47410456206E+03  0.47410456206E+03  0.00000000000E+00 0. -1.
          2   -1    0    0  501    0  0.00000000000E+00 -0.00000000000E+00 -0.31690167497E+04  0.31690167497E+04  0.00000000000E+00 0.  1.
    2000013    1    1    2    0    0  0.14343006183E+03  0.58227164045E+03 -0.61892033480E+03  0.12826436866E+04  0.95000000000E+03 0.  0.
   -2000013    1    1    2    0    0 -0.14343006183E+03 -0.58227164045E+03 -0.20759918528E+04  0.23604776251E+04  0.95000000000E+03 0.  0.
<mgrwt>
<rscale>  0 0.24514855E+04</rscale>
<asrwt>0</asrwt>
<pdfrwt beam="2">  1        2 0.48754106E+00 0.24514855E+04</pdfrwt>
<pdfrwt beam="1">  1       -2 0.72939160E-01 0.24514855E+04</pdfrwt>
<totfact> 0.20671608E+00</totfact>
</mgrwt>
</event>
<event>
 4    1  0.2552184E-008  0.2639653E+04  0.7816531E-02  0.8354855E-01
         -2   -1    0    0    0  501 -0.00000000000E+00  0.00000000000E+00  0.13051289080E+04  0.13051289080E+04  0.00000000000E+00 0. -1.
          2   -1    0    0  501    0  0.00000000000E+00 -0.00000000000E+00 -0.13346898860E+04  0.13346898860E+04  0.00000000000E+00 0.  1.
    2000013    1    1    2    0    0 -0.22861077298E+03  0.88624215659E+03  0.27106593593E+02  0.13194403409E+04  0.95000000000E+03 0.  0.
   -2000013    1    1    2    0    0  0.22861077298E+03 -0.88624215659E+03 -0.56667571585E+02  0.13203784531E+04  0.95000000000E+03 0.  0.
<mgrwt>
<rscale>  0 0.26396533E+04</rscale>
<asrwt>0</asrwt>
<pdfrwt beam="2">  1        2 0.20533690E+00 0.26396533E+04</pdfrwt>
<pdfrwt beam="1">  1       -2 0.20078906E+00 0.26396533E+04</pdfrwt>
<totfact> 0.18286353E+00</totfact>
</mgrwt>
</event>
<event>
 4    1  0.2552184E-008  0.2260474E+04  0.7816531E-02  0.8493671E-01
         -2   -1    0    0    0  501 -0.00000000000E+00  0.00000000000E+00  0.52113683130E+03  0.52113683130E+03  0.00000000000E+00 0. -1.
          2   -1    0    0  501    0  0.00000000000E+00 -0.00000000000E+00 -0.24512481904E+04  0.24512481904E+04  0.00000000000E+00 0.  1.
    2000013    1    1    2    0    0  0.31269341771E+03  0.47092214741E+03 -0.65558134083E+03  0.12852360627E+04  0.95000000000E+03 0.  0.
   -2000013    1    1    2    0    0 -0.31269341771E+03 -0.47092214741E+03 -0.12745300183E+04  0.16871489590E+04  0.95000000000E+03 0.  0.
<mgrwt>
<rscale>  0 0.22604740E+04</rscale>
<asrwt>0</asrwt>
<pdfrwt beam="2">  1        2 0.37711511E+00 0.22604740E+04</pdfrwt>
<pdfrwt beam="1">  1       -2 0.80174897E-01 0.22604740E+04</pdfrwt>
<totfact> 0.46472173E+00</totfact>
</mgrwt>
</event>
<event>
 4    1  0.2552184E-008  0.2772168E+04  0.7816531E-02  0.8311961E-01
          2   -1    0    0  501    0  0.00000000000E+00  0.00000000000E+00  0.28681983643E+04  0.28681983643E+04  0.00000000000E+00 0.  1.
         -2   -1    0    0    0  501 -0.00000000000E+00 -0.00000000000E+00 -0.66983832156E+03  0.66983832156E+03  0.00000000000E+00 0. -1.
    2000013    1    1    2    0    0 -0.48661328658E+03  0.49260123431E+03  0.16194136488E+03  0.11866648526E+04  0.95000000000E+03 0.  0.
   -2000013    1    1    2    0    0  0.48661328658E+03 -0.49260123431E+03  0.20364186778E+04  0.23513718332E+04  0.95000000000E+03 0.  0.
<mgrwt>
<rscale>  0 0.27721682E+04</rscale>
<asrwt>0</asrwt>
<pdfrwt beam="1">  1        2 0.44126128E+00 0.27721682E+04</pdfrwt>
<pdfrwt beam="2">  1       -2 0.10305205E+00 0.27721682E+04</pdfrwt>
<totfact> 0.14086126E+00</totfact>
</mgrwt>
</event>
<event>
 4    1  0.2552184E-008  0.2427460E+04  0.7816531E-02  0.8429294E-01
         -2   -1    0    0    0  501 -0.00000000000E+00  0.00000000000E+00  0.90147587992E+03  0.90147587992E+03  0.00000000000E+00 0. -1.
          2   -1    0    0  501    0  0.00000000000E+00 -0.00000000000E+00 -0.16341432551E+04  0.16341432551E+04  0.00000000000E+00 0.  1.
    2000013    1    1    2    0    0 -0.51761493525E+03  0.48813108790E+03 -0.63150200326E+03  0.13444299760E+04  0.95000000000E+03 0.  0.
   -2000013    1    1    2    0    0  0.51761493525E+03 -0.48813108790E+03 -0.10116537192E+03  0.11911891591E+04  0.95000000000E+03 0.  0.
<mgrwt>
<rscale>  0 0.24274602E+04</rscale>
<asrwt>0</asrwt>
<pdfrwt beam="2">  1        2 0.25140665E+00 0.24274602E+04</pdfrwt>
<pdfrwt beam="1">  1       -2 0.13868860E+00 0.24274602E+04</pdfrwt>
<totfact> 0.35247123E+00</totfact>
</mgrwt>
</event>
<event>
 4    1  0.2552184E-008  0.2099617E+04  0.7816531E-02  0.8561412E-01
         -1   -1    0    0    0  501 -0.00000000000E+00  0.00000000000E+00  0.19005642405E+04  0.19005642405E+04  0.00000000000E+00 0. -1.
          1   -1    0    0  501    0  0.00000000000E+00 -0.00000000000E+00 -0.57987951094E+03  0.57987951094E+03  0.00000000000E+00 0.  1.
    2000013    1    1    2    0    0 -0.39598791619E+03  0.18224272810E+03  0.54471547375E+03  0.11786576216E+04  0.95000000000E+03 0.  0.
   -2000013    1    1    2    0    0  0.39598791619E+03 -0.18224272810E+03  0.77596925579E+03  0.13017861298E+04  0.95000000000E+03 0.  0.
<mgrwt>
<rscale>  0 0.20996174E+04</rscale>
<asrwt>0</asrwt>
<pdfrwt beam="2">  1        1 0.89212233E-01 0.20996174E+04</pdfrwt>
<pdfrwt beam="1">  1       -1 0.29239450E+00 0.20996174E+04</pdfrwt>
<totfact> 0.12245141E+00</totfact>
</mgrwt>
</event>
<event>
 4    1  0.2552184E-008  0.1992921E+04  0.7816531E-02  0.8609937E-01
         -3   -1    0    0    0  501 -0.00000000000E+00  0.00000000000E+00  0.35917838680E+03  0.35917838680E+03  0.00000000000E+00 0.  1.
          3   -1    0    0  501    0  0.00000000000E+00 -0.00000000000E+00 -0.27644584719E+04  0.27644584719E+04  0.00000000000E+00 0. -1.
    2000013    1    1    2    0    0  0.27928155727E+03  0.74497525190E+02 -0.10725801624E+04  0.14616690029E+04  0.95000000000E+03 0.  0.
   -2000013    1    1    2    0    0 -0.27928155727E+03 -0.74497525190E+02 -0.13326999228E+04  0.16619678558E+04  0.95000000000E+03 0.  0.
<mgrwt>
<rscale>  0 0.19929212E+04</rscale>
<asrwt>0</asrwt>
<pdfrwt beam="2">  1        3 0.42530129E+00 0.19929212E+04</pdfrwt>
<pdfrwt beam="1">  1       -3 0.55258215E-01 0.19929212E+04</pdfrwt>
<totfact> 0.64437533E-02</totfact>
</mgrwt>
</event>
<event>
 4    1  0.2552184E-008  0.2430413E+04  0.7816531E-02  0.8428204E-01
          2   -1    0    0  501    0  0.00000000000E+00  0.00000000000E+00  0.35565770933E+04  0.35565770933E+04  0.00000000000E+00 0.  1.
         -2   -1    0    0    0  501 -0.00000000000E+00 -0.00000000000E+00 -0.41521009745E+03  0.41521009745E+03  0.00000000000E+00 0. -1.
    2000013    1    1    2    0    0  0.32342616422E+03 -0.50005399107E+03  0.80492703214E+03  0.13802412850E+04  0.95000000000E+03 0.  0.
   -2000013    1    1    2    0    0 -0.32342616422E+03  0.50005399107E+03  0.23364399637E+04  0.25915459057E+04  0.95000000000E+03 0.  0.
<mgrwt>
<rscale>  0 0.24304129E+04</rscale>
<asrwt>0</asrwt>
<pdfrwt beam="1">  1        2 0.54716569E+00 0.24304129E+04</pdfrwt>
<pdfrwt beam="2">  1       -2 0.63878479E-01 0.24304129E+04</pdfrwt>
<totfact> 0.15104977E+00</totfact>
</mgrwt>
</event>
<event>
 4    1  0.2552184E-008  0.2566893E+04  0.7816531E-02  0.8379535E-01
          2   -1    0    0  501    0  0.00000000000E+00  0.00000000000E+00  0.14337696908E+04  0.14337696908E+04  0.00000000000E+00 0.  1.
         -2   -1    0    0    0  501 -0.00000000000E+00 -0.00000000000E+00 -0.11488841922E+04  0.11488841922E+04  0.00000000000E+00 0. -1.
    2000013    1    1    2    0    0 -0.84685640947E+03 -0.13406881757E+03  0.24099880114E+03  0.13021983905E+04  0.95000000000E+03 0.  0.
   -2000013    1    1    2    0    0  0.84685640947E+03  0.13406881757E+03  0.43886697400E+02  0.12804554925E+04  0.95000000000E+03 0.  0.
<mgrwt>
<rscale>  0 0.25668933E+04</rscale>
<asrwt>0</asrwt>
<pdfrwt beam="1">  1        2 0.22057995E+00 0.25668933E+04</pdfrwt>
<pdfrwt beam="2">  1       -2 0.17675141E+00 0.25668933E+04</pdfrwt>
<totfact> 0.23453062E+00</totfact>
</mgrwt>
</event>
<event>
 4    1  0.2552184E-008  0.2311286E+04  0.7816531E-02  0.8473485E-01
          2   -1    0    0  501    0  0.00000000000E+00  0.00000000000E+00  0.25956683714E+04  0.25956683714E+04  0.00000000000E+00 0.  1.
         -2   -1    0    0    0  501 -0.00000000000E+00 -0.00000000000E+00 -0.51451501009E+03  0.51451501009E+03  0.00000000000E+00 0. -1.
    2000013    1    1    2    0    0 -0.15851466967E+03 -0.48889810506E+03  0.48761066417E+03  0.11850790765E+04  0.95000000000E+03 0.  0.
   -2000013    1    1    2    0    0  0.15851466967E+03  0.48889810506E+03  0.15935426972E+04  0.19251043050E+04  0.95000000000E+03 0.  0.
<mgrwt>
<rscale>  0 0.23112856E+04</rscale>
<asrwt>0</asrwt>
<pdfrwt beam="1">  1        2 0.39933359E+00 0.23112856E+04</pdfrwt>
<pdfrwt beam="2">  1       -2 0.79156157E-01 0.23112856E+04</pdfrwt>
<totfact> 0.39253706E+00</totfact>
</mgrwt>
</event>
<event>
 4    1  0.2552184E-008  0.2083652E+04  0.7816531E-02  0.8568479E-01
          2   -1    0    0  501    0  0.00000000000E+00  0.00000000000E+00  0.98243649788E+03  0.98243649788E+03  0.00000000000E+00 0. -1.
         -2   -1    0    0    0  501 -0.00000000000E+00 -0.00000000000E+00 -0.11048058119E+04  0.11048058119E+04  0.00000000000E+00 0.  1.
    2000013    1    1    2    0    0  0.37475772309E+03  0.19512426284E+03 -0.12751599713E+03  0.10475099801E+04  0.95000000000E+03 0.  0.
   -2000013    1    1    2    0    0 -0.37475772309E+03 -0.19512426284E+03  0.51466830975E+01  0.10397323296E+04  0.95000000000E+03 0.  0.
<mgrwt>
<rscale>  0 0.20836521E+04</rscale>
<asrwt>0</asrwt>
<pdfrwt beam="1">  1        2 0.15114408E+00 0.20836521E+04</pdfrwt>
<pdfrwt beam="2">  1       -2 0.16997012E+00 0.20836521E+04</pdfrwt>
<totfact> 0.50865356E+00</totfact>
</mgrwt>
</event>
<event>
 4    1  0.2552184E-008  0.2003078E+04  0.7816531E-02  0.8605183E-01
          2   -1    0    0  501    0  0.00000000000E+00  0.00000000000E+00  0.13814855214E+04  0.13814855214E+04  0.00000000000E+00 0.  1.
         -2   -1    0    0    0  501 -0.00000000000E+00 -0.00000000000E+00 -0.72608852536E+03  0.72608852536E+03  0.00000000000E+00 0. -1.
    2000013    1    1    2    0    0 -0.18346186660E+03 -0.15302223711E+03  0.10823460465E+03  0.98553984759E+03  0.95000000000E+03 0.  0.
   -2000013    1    1    2    0    0  0.18346186660E+03  0.15302223711E+03  0.54716239138E+03  0.11220341992E+04  0.95000000000E+03 0.  0.
<mgrwt>
<rscale>  0 0.20030784E+04</rscale>
<asrwt>0</asrwt>
<pdfrwt beam="1">  1        2 0.21253623E+00 0.20030784E+04</pdfrwt>
<pdfrwt beam="2">  1       -2 0.11170593E+00 0.20030784E+04</pdfrwt>
<totfact> 0.87192439E+00</totfact>
</mgrwt>
</event>
<event>
 4    1  0.2552184E-008  0.2610005E+04  0.7816531E-02  0.8364811E-01
         -2   -1    0    0    0  501 -0.00000000000E+00  0.00000000000E+00  0.11326307803E+04  0.11326307803E+04  0.00000000000E+00 0. -1.
          2   -1    0    0  501    0  0.00000000000E+00 -0.00000000000E+00 -0.15036073522E+04  0.15036073522E+04  0.00000000000E+00 0.  1.
    2000013    1    1    2    0    0  0.80882176006E+03 -0.37771444640E+03 -0.12428948775E+03  0.13095070520E+04  0.95000000000E+03 0.  0.
   -2000013    1    1    2    0    0 -0.80882176006E+03  0.37771444640E+03 -0.24668708413E+03  0.13267310805E+04  0.95000000000E+03 0.  0.
<mgrwt>
<rscale>  0 0.26100053E+04</rscale>
<asrwt>0</asrwt>
<pdfrwt beam="2">  1        2 0.23132421E+00 0.26100053E+04</pdfrwt>
<pdfrwt beam="1">  1       -2 0.17425089E+00 0.26100053E+04</pdfrwt>
<totfact> 0.22211231E+00</totfact>
</mgrwt>
</event>
<event>
 4    1  0.2552184E-008  0.2565354E+04  0.7816531E-02  0.8380066E-01
          2   -1    0    0  501    0  0.00000000000E+00  0.00000000000E+00  0.15146783016E+04  0.15146783016E+04  0.00000000000E+00 0.  1.
         -2   -1    0    0    0  501 -0.00000000000E+00 -0.00000000000E+00 -0.10862107132E+04  0.10862107132E+04  0.00000000000E+00 0. -1.
    2000013    1    1    2    0    0 -0.81900105019E+03  0.21660472318E+03  0.37479246929E+03  0.13268947665E+04  0.95000000000E+03 0.  0.
   -2000013    1    1    2    0    0  0.81900105019E+03 -0.21660472318E+03  0.53675119055E+02  0.12739942483E+04  0.95000000000E+03 0.  0.
<mgrwt>
<rscale>  0 0.25653536E+04</rscale>
<asrwt>0</asrwt>
<pdfrwt beam="1">  1        2 0.23302743E+00 0.25653536E+04</pdfrwt>
<pdfrwt beam="2">  1       -2 0.16710934E+00 0.25653536E+04</pdfrwt>
<totfact> 0.24699187E+00</totfact>
</mgrwt>
</event>
<event>
 4    1  0.2552184E-008  0.2423558E+04  0.7816531E-02  0.8430736E-01
          2   -1    0    0  501    0  0.00000000000E+00  0.00000000000E+00  0.12328027300E+04  0.12328027300E+04  0.00000000000E+00 0.  1.
         -2   -1    0    0    0  501 -0.00000000000E+00 -0.00000000000E+00 -0.11911141481E+04  0.11911141481E+04  0.00000000000E+00 0. -1.
    2000013    1    1    2    0    0  0.44577021187E+03  0.32578372978E+03  0.53186278215E+03  0.12207473692E+04  0.95000000000E+03 0.  0.
   -2000013    1    1    2    0    0 -0.44577021187E+03 -0.32578372978E+03 -0.49017420029E+03  0.12031695088E+04  0.95000000000E+03 0.  0.
<mgrwt>
<rscale>  0 0.24235584E+04</rscale>
<asrwt>0</asrwt>
<pdfrwt beam="1">  1        2 0.18966196E+00 0.24235584E+04</pdfrwt>
<pdfrwt beam="2">  1       -2 0.18324833E+00 0.24235584E+04</pdfrwt>
<totfact> 0.27990134E+00</totfact>
</mgrwt>
</event>
<event>
 4    1  0.2552184E-008  0.3120671E+04  0.7816531E-02  0.8210088E-01
         -2   -1    0    0    0  501 -0.00000000000E+00  0.00000000000E+00  0.96459838863E+03  0.96459838863E+03  0.00000000000E+00 0. -1.
          2   -1    0    0  501    0  0.00000000000E+00 -0.00000000000E+00 -0.25240008486E+04  0.25240008486E+04  0.00000000000E+00 0.  1.
    2000013    1    1    2    0    0  0.10258976914E+04 -0.59495000685E+03 -0.38333412774E+03  0.15671236829E+04  0.95000000000E+03 0.  0.
   -2000013    1    1    2    0    0 -0.10258976914E+04  0.59495000685E+03 -0.11760683323E+04  0.19214755544E+04  0.95000000000E+03 0.  0.
<mgrwt>
<rscale>  0 0.31206712E+04</rscale>
<asrwt>0</asrwt>
<pdfrwt beam="2">  1        2 0.38830781E+00 0.31206712E+04</pdfrwt>
<pdfrwt beam="1">  1       -2 0.14839976E+00 0.31206712E+04</pdfrwt>
<totfact> 0.88057514E-01</totfact>
</mgrwt>
</event>
<event>
 4    1  0.2552184E-008  0.2570959E+04  0.7816531E-02  0.8378133E-01
          2   -1    0    0  501    0  0.00000000000E+00  0.00000000000E+00  0.15540945271E+04  0.15540945271E+04  0.00000000000E+00 0.  1.
         -2   -1    0    0    0  501 -0.00000000000E+00 -0.00000000000E+00 -0.10632931255E+04  0.10632931255E+04  0.00000000000E+00 0. -1.
    2000013    1    1    2    0    0 -0.50390618101E+03  0.55914437112E+03  0.68137971596E+03  0.13904467571E+04  0.95000000000E+03 0.  0.
   -2000013    1    1    2    0    0  0.50390618101E+03 -0.55914437112E+03 -0.19057831440E+03  0.12269408955E+04  0.95000000000E+03 0.  0.
<mgrwt>
<rscale>  0 0.25709594E+04</rscale>
<asrwt>0</asrwt>
<pdfrwt beam="1">  1        2 0.23909147E+00 0.25709594E+04</pdfrwt>
<pdfrwt beam="2">  1       -2 0.16358356E+00 0.25709594E+04</pdfrwt>
<totfact> 0.24878870E+00</totfact>
</mgrwt>
</event>
<event>
 4    1  0.2552184E-008  0.2200820E+04  0.7816531E-02  0.8518087E-01
          2   -1    0    0  501    0  0.00000000000E+00  0.00000000000E+00  0.29480373970E+04  0.29480373970E+04  0.00000000000E+00 0.  1.
         -2   -1    0    0    0  501 -0.00000000000E+00 -0.00000000000E+00 -0.41074851759E+03  0.41074851759E+03  0.00000000000E+00 0. -1.
    2000013    1    1    2    0    0 -0.15978942019E+03  0.52877968232E+03  0.13558006808E+04  0.17452323907E+04  0.95000000000E+03 0.  0.
   -2000013    1    1    2    0    0  0.15978942019E+03 -0.52877968232E+03  0.11814881986E+04  0.16135535239E+04  0.95000000000E+03 0.  0.
<mgrwt>
<rscale>  0 0.22008198E+04</rscale>
<asrwt>0</asrwt>
<pdfrwt beam="1">  1        2 0.45354420E+00 0.22008198E+04</pdfrwt>
<pdfrwt beam="2">  1       -2 0.63192082E-01 0.22008198E+04</pdfrwt>
<totfact> 0.39815287E+00</totfact>
</mgrwt>
</event>
<event>
 4    1  0.2552184E-008  0.3555785E+04  0.7816531E-02  0.8100695E-01
         -2   -1    0    0    0  501 -0.00000000000E+00  0.00000000000E+00  0.13578002854E+04  0.13578002854E+04  0.00000000000E+00 0. -1.
          2   -1    0    0  501    0  0.00000000000E+00 -0.00000000000E+00 -0.23279583707E+04  0.23279583707E+04  0.00000000000E+00 0.  1.
    2000013    1    1    2    0    0  0.11893368713E+04  0.71063460227E+03 -0.10884904992E+04  0.20017080952E+04  0.95000000000E+03 0.  0.
   -2000013    1    1    2    0    0 -0.11893368713E+04 -0.71063460227E+03  0.11833241387E+03  0.16840505609E+04  0.95000000000E+03 0.  0.
<mgrwt>
<rscale>  0 0.35557854E+04</rscale>
<asrwt>0</asrwt>
<pdfrwt beam="2">  1        2 0.35814744E+00 0.35557854E+04</pdfrwt>
<pdfrwt beam="1">  1       -2 0.20889235E+00 0.35557854E+04</pdfrwt>
<totfact> 0.41616662E-01</totfact>
</mgrwt>
</event>
<event>
 4    1  0.2552184E-008  0.2685806E+04  0.7816531E-02  0.8339625E-01
         -1   -1    0    0    0  501 -0.00000000000E+00  0.00000000000E+00  0.19098902994E+04  0.19098902994E+04  0.00000000000E+00 0. -1.
          1   -1    0    0  501    0  0.00000000000E+00 -0.00000000000E+00 -0.94423663889E+03  0.94423663889E+03  0.00000000000E+00 0.  1.
    2000013    1    1    2    0    0  0.84183566045E+03 -0.37734974870E+03  0.71999120185E+03  0.15073046947E+04  0.95000000000E+03 0.  0.
   -2000013    1    1    2    0    0 -0.84183566045E+03  0.37734974870E+03  0.24566245862E+03  0.13468222435E+04  0.95000000000E+03 0.  0.
<mgrwt>
<rscale>  0 0.26858059E+04</rscale>
<asrwt>0</asrwt>
<pdfrwt beam="2">  1        1 0.14526718E+00 0.26858059E+04</pdfrwt>
<pdfrwt beam="1">  1       -1 0.29382928E+00 0.26858059E+04</pdfrwt>
<totfact> 0.53029181E-01</totfact>
</mgrwt>
</event>
<event>
 4    1  0.2552184E-008  0.2712706E+04  0.7816531E-02  0.8330894E-01
          2   -1    0    0  501    0  0.00000000000E+00  0.00000000000E+00  0.21699736139E+04  0.21699736139E+04  0.00000000000E+00 0.  1.
         -2   -1    0    0    0  501 -0.00000000000E+00 -0.00000000000E+00 -0.84779539142E+03  0.84779539142E+03  0.00000000000E+00 0. -1.
    2000013    1    1    2    0    0  0.15431413433E+03  0.79005946466E+03  0.62853181011E+02  0.12467787824E+04  0.95000000000E+03 0.  0.
   -2000013    1    1    2    0    0 -0.15431413433E+03 -0.79005946466E+03  0.12593250414E+04  0.17709902229E+04  0.95000000000E+03 0.  0.
<mgrwt>
<rscale>  0 0.27127061E+04</rscale>
<asrwt>0</asrwt>
<pdfrwt beam="1">  1        2 0.33384209E+00 0.27127061E+04</pdfrwt>
<pdfrwt beam="2">  1       -2 0.13043006E+00 0.27127061E+04</pdfrwt>
<totfact> 0.20262086E+00</totfact>
</mgrwt>
</event>
<event>
 4    1  0.2552184E-008  0.4194026E+04  0.7816531E-02  0.7966510E-01
          2   -1    0    0  501    0  0.00000000000E+00  0.00000000000E+00  0.25142128743E+04  0.25142128743E+04  0.00000000000E+00 0. -1.
         -2   -1    0    0    0  501 -0.00000000000E+00 -0.00000000000E+00 -0.17490417982E+04  0.17490417982E+04  0.00000000000E+00 0.  1.
    2000013    1    1    2    0    0 -0.15937305881E+04 -0.37506844380E+03  0.12998720688E+04  0.22962623805E+04  0.95000000000E+03 0.  0.
   -2000013    1    1    2    0    0  0.15937305881E+04  0.37506844380E+03 -0.53470099270E+03  0.19669922920E+04  0.95000000000E+03 0.  0.
<mgrwt>
<rscale>  0 0.41940259E+04</rscale>
<asrwt>0</asrwt>
<pdfrwt beam="1">  1        2 0.38680198E+00 0.41940259E+04</pdfrwt>
<pdfrwt beam="2">  1       -2 0.26908335E+00 0.41940259E+04</pdfrwt>
<totfact> 0.13023678E-01</totfact>
</mgrwt>
</event>
<event>
 4    1  0.2552184E-008  0.2735079E+04  0.7816531E-02  0.8323712E-01
         -2   -1    0    0    0  501 -0.00000000000E+00  0.00000000000E+00  0.68961583463E+03  0.68961583463E+03  0.00000000000E+00 0. -1.
          2   -1    0    0  501    0  0.00000000000E+00 -0.00000000000E+00 -0.27118935306E+04  0.27118935306E+04  0.00000000000E+00 0.  1.
    2000013    1    1    2    0    0  0.19093628812E+03  0.87829635097E+03 -0.15082974862E+04  0.19963272410E+04  0.95000000000E+03 0.  0.
   -2000013    1    1    2    0    0 -0.19093628812E+03 -0.87829635097E+03 -0.51398020978E+03  0.14051821242E+04  0.95000000000E+03 0.  0.
<mgrwt>
<rscale>  0 0.27350793E+04</rscale>
<asrwt>0</asrwt>
<pdfrwt beam="2">  1        2 0.41721439E+00 0.27350793E+04</pdfrwt>
<pdfrwt beam="1">  1       -2 0.10609474E+00 0.27350793E+04</pdfrwt>
<totfact> 0.16380045E+00</totfact>
</mgrwt>
</event>
<event>
 4    1  0.2552184E-008  0.4047663E+04  0.7816531E-02  0.7995000E-01
         -2   -1    0    0    0  501 -0.00000000000E+00  0.00000000000E+00  0.15974624088E+04  0.15974624088E+04  0.00000000000E+00 0. -1.
          2   -1    0    0  501    0  0.00000000000E+00 -0.00000000000E+00 -0.25640006297E+04  0.25640006297E+04  0.00000000000E+00 0.  1.
    2000013    1    1    2    0    0  0.73291872278E+03 -0.58794587751E+03  0.10795143960E+04  0.17177606179E+04  0.95000000000E+03 0.  0.
   -2000013    1    1    2    0    0 -0.73291872278E+03  0.58794587751E+03 -0.20460526169E+04  0.24437024206E+04  0.95000000000E+03 0.  0.
<mgrwt>
<rscale>  0 0.40476633E+04</rscale>
<asrwt>0</asrwt>
<pdfrwt beam="2">  1        2 0.39446163E+00 0.40476633E+04</pdfrwt>
<pdfrwt beam="1">  1       -2 0.24576345E+00 0.40476633E+04</pdfrwt>
<totfact> 0.17132753E-01</totfact>
</mgrwt>
</event>
<event>
 4    1  0.2552184E-008  0.2675683E+04  0.7816531E-02  0.8342938E-01
          2   -1    0    0  501    0  0.00000000000E+00  0.00000000000E+00  0.20457316870E+04  0.20457316870E+04  0.00000000000E+00 0.  1.
         -2   -1    0    0    0  501 -0.00000000000E+00 -0.00000000000E+00 -0.87490473233E+03  0.87490473233E+03  0.00000000000E+00 0. -1.
    2000013    1    1    2    0    0  0.23731534328E+03 -0.63007085387E+03  0.13045210982E+04  0.17485946210E+04  0.95000000000E+03 0.  0.
   -2000013    1    1    2    0    0 -0.23731534328E+03  0.63007085387E+03 -0.13369414348E+03  0.11720417983E+04  0.95000000000E+03 0.  0.
<mgrwt>
<rscale>  0 0.26756833E+04</rscale>
<asrwt>0</asrwt>
<pdfrwt beam="1">  1        2 0.31472795E+00 0.26756833E+04</pdfrwt>
<pdfrwt beam="2">  1       -2 0.13460073E+00 0.26756833E+04</pdfrwt>
<totfact> 0.22016611E+00</totfact>
</mgrwt>
</event>
<event>
 4    1  0.2552184E-008  0.3373639E+04  0.7816531E-02  0.8144407E-01
          2   -1    0    0  501    0  0.00000000000E+00  0.00000000000E+00  0.34885185669E+04  0.34885185669E+04  0.00000000000E+00 0.  1.
         -2   -1    0    0    0  501 -0.00000000000E+00 -0.00000000000E+00 -0.81563562908E+03  0.81563562908E+03  0.00000000000E+00 0. -1.
    2000013    1    1    2    0    0 -0.41059499864E+03 -0.11912542071E+04  0.57608605790E+03  0.16798958256E+04  0.95000000000E+03 0.  0.
   -2000013    1    1    2    0    0  0.41059499864E+03  0.11912542071E+04  0.20967968800E+04  0.26242583704E+04  0.95000000000E+03 0.  0.
<mgrwt>
<rscale>  0 0.33736390E+04</rscale>
<asrwt>0</asrwt>
<pdfrwt beam="1">  1        2 0.53669516E+00 0.33736390E+04</pdfrwt>
<pdfrwt beam="2">  1       -2 0.12548241E+00 0.33736390E+04</pdfrwt>
<totfact> 0.32600696E-01</totfact>
</mgrwt>
</event>
<event>
 4    1  0.2552184E-008  0.2928439E+04  0.7816531E-02  0.8264466E-01
          2   -1    0    0  501    0  0.00000000000E+00  0.00000000000E+00  0.19498354095E+04  0.19498354095E+04  0.00000000000E+00 0.  1.
         -2   -1    0    0    0  501 -0.00000000000E+00 -0.00000000000E+00 -0.10995483521E+04  0.10995483521E+04  0.00000000000E+00 0. -1.
    2000013    1    1    2    0    0  0.91990955942E+03 -0.62760911354E+03  0.46285404534E+03  0.15352070428E+04  0.95000000000E+03 0.  0.
   -2000013    1    1    2    0    0 -0.91990955942E+03  0.62760911354E+03  0.38743301209E+03  0.15141767188E+04  0.95000000000E+03 0.  0.
<mgrwt>
<rscale>  0 0.29284387E+04</rscale>
<asrwt>0</asrwt>
<pdfrwt beam="1">  1        2 0.29997468E+00 0.29284387E+04</pdfrwt>
<pdfrwt beam="2">  1       -2 0.16916129E+00 0.29284387E+04</pdfrwt>
<totfact> 0.13257533E+00</totfact>
</mgrwt>
</event>
<event>
 4    1  0.2552184E-008  0.2444648E+04  0.7816531E-02  0.8422975E-01
         -2   -1    0    0    0  501 -0.00000000000E+00  0.00000000000E+00  0.10954434091E+04  0.10954434091E+04  0.00000000000E+00 0. -1.
          2   -1    0    0  501    0  0.00000000000E+00 -0.00000000000E+00 -0.13639009906E+04  0.13639009906E+04  0.00000000000E+00 0.  1.
    2000013    1    1    2    0    0  0.15705910341E+03 -0.57481648684E+03  0.35500196636E+03  0.11762686562E+04  0.95000000000E+03 0.  0.
   -2000013    1    1    2    0    0 -0.15705910341E+03  0.57481648684E+03 -0.62345954790E+03  0.12830757434E+04  0.95000000000E+03 0.  0.
<mgrwt>
<rscale>  0 0.24446483E+04</rscale>
<asrwt>0</asrwt>
<pdfrwt beam="2">  1        2 0.20983092E+00 0.24446483E+04</pdfrwt>
<pdfrwt beam="1">  1       -2 0.16852976E+00 0.24446483E+04</pdfrwt>
<totfact> 0.29697324E+00</totfact>
</mgrwt>
</event>
<event>
 4    1  0.2552184E-008  0.2199530E+04  0.7816531E-02  0.8518624E-01
          2   -1    0    0  501    0  0.00000000000E+00  0.00000000000E+00  0.28304911785E+04  0.28304911785E+04  0.00000000000E+00 0.  1.
         -2   -1    0    0    0  501 -0.00000000000E+00 -0.00000000000E+00 -0.42730515037E+03  0.42730515037E+03  0.00000000000E+00 0. -1.
    2000013    1    1    2    0    0  0.13656053021E+03  0.44702106648E+03  0.76095455427E+03  0.13038513895E+04  0.95000000000E+03 0.  0.
   -2000013    1    1    2    0    0 -0.13656053021E+03 -0.44702106648E+03  0.16422314739E+04  0.19539449394E+04  0.95000000000E+03 0.  0.
<mgrwt>
<rscale>  0 0.21995304E+04</rscale>
<asrwt>0</asrwt>
<pdfrwt beam="1">  1        2 0.43546017E+00 0.21995304E+04</pdfrwt>
<pdfrwt beam="2">  1       -2 0.65739256E-01 0.21995304E+04</pdfrwt>
<totfact> 0.43187028E+00</totfact>
</mgrwt>
</event>
<event>
 4    1  0.2552184E-008  0.4210592E+04  0.7816531E-02  0.7963360E-01
         -2   -1    0    0    0  501 -0.00000000000E+00  0.00000000000E+00  0.15727805709E+04  0.15727805709E+04  0.00000000000E+00 0. -1.
          2   -1    0    0  501    0  0.00000000000E+00 -0.00000000000E+00 -0.28181117670E+04  0.28181117670E+04  0.00000000000E+00 0.  1.
    2000013    1    1    2    0    0 -0.18570958371E+04 -0.23578887982E+03 -0.78876597537E+03  0.22425550401E+04  0.95000000000E+03 0.  0.
   -2000013    1    1    2    0    0  0.18570958371E+04  0.23578887982E+03 -0.45656522074E+03  0.21483372977E+04  0.95000000000E+03 0.  0.
<mgrwt>
<rscale>  0 0.42105921E+04</rscale>
<asrwt>0</asrwt>
<pdfrwt beam="2">  1        2 0.43355565E+00 0.42105921E+04</pdfrwt>
<pdfrwt beam="1">  1       -2 0.24196624E+00 0.42105921E+04</pdfrwt>
<totfact> 0.12592269E-01</totfact>
</mgrwt>
</event>
<event>
 4    1  0.2552184E-008  0.3146298E+04  0.7816531E-02  0.8203146E-01
         -2   -1    0    0    0  501 -0.00000000000E+00  0.00000000000E+00  0.13877037521E+04  0.13877037521E+04  0.00000000000E+00 0.  1.
          2   -1    0    0  501    0  0.00000000000E+00 -0.00000000000E+00 -0.17833760255E+04  0.17833760255E+04  0.00000000000E+00 0. -1.
    2000013    1    1    2    0    0 -0.55374496041E+02  0.12525265344E+04 -0.17746436544E+03  0.15829979960E+04  0.95000000000E+03 0.  0.
   -2000013    1    1    2    0    0  0.55374496041E+02 -0.12525265344E+04 -0.21820790796E+03  0.15880817817E+04  0.95000000000E+03 0.  0.
<mgrwt>
<rscale>  0 0.31462979E+04</rscale>
<asrwt>0</asrwt>
<pdfrwt beam="2">  1        2 0.27436554E+00 0.31462979E+04</pdfrwt>
<pdfrwt beam="1">  1       -2 0.21349289E+00 0.31462979E+04</pdfrwt>
<totfact> 0.81072329E-01</totfact>
</mgrwt>
</event>
<event>
 4    1  0.2552184E-008  0.2466717E+04  0.7816531E-02  0.8414939E-01
         -2   -1    0    0    0  501 -0.00000000000E+00  0.00000000000E+00  0.34068042841E+03  0.34068042841E+03  0.00000000000E+00 0. -1.
          2   -1    0    0  501    0  0.00000000000E+00 -0.00000000000E+00 -0.44651042930E+04  0.44651042930E+04  0.00000000000E+00 0.  1.
    2000013    1    1    2    0    0 -0.65073856567E+03  0.65673530556E+02 -0.12109801548E+04  0.16723476399E+04  0.95000000000E+03 0.  0.
   -2000013    1    1    2    0    0  0.65073856567E+03 -0.65673530556E+02 -0.29134437099E+04  0.31334370816E+04  0.95000000000E+03 0.  0.
<mgrwt>
<rscale>  0 0.24667174E+04</rscale>
<asrwt>0</asrwt>
<pdfrwt beam="2">  1        2 0.68693914E+00 0.24667174E+04</pdfrwt>
<pdfrwt beam="1">  1       -2 0.52412373E-01 0.24667174E+04</pdfrwt>
<totfact> 0.41142989E-01</totfact>
</mgrwt>
</event>
<event>
 4    1  0.2552184E-008  0.3074056E+04  0.7816531E-02  0.8222894E-01
         -2   -1    0    0    0  501 -0.00000000000E+00  0.00000000000E+00  0.12495330235E+04  0.12495330235E+04  0.00000000000E+00 0. -1.
          2   -1    0    0  501    0  0.00000000000E+00 -0.00000000000E+00 -0.18906707651E+04  0.18906707651E+04  0.00000000000E+00 0.  1.
    2000013    1    1    2    0    0 -0.81173902827E+03 -0.78994253298E+03  0.10922940329E+03  0.14823496612E+04  0.95000000000E+03 0.  0.
   -2000013    1    1    2    0    0  0.81173902827E+03  0.78994253298E+03 -0.75036714489E+03  0.16578541273E+04  0.95000000000E+03 0.  0.
<mgrwt>
<rscale>  0 0.30740563E+04</rscale>
<asrwt>0</asrwt>
<pdfrwt beam="2">  1        2 0.29087243E+00 0.30740563E+04</pdfrwt>
<pdfrwt beam="1">  1       -2 0.19223585E+00 0.30740563E+04</pdfrwt>
<totfact> 0.97917434E-01</totfact>
</mgrwt>
</event>
<event>
 4    1  0.2552184E-008  0.2076931E+04  0.7816531E-02  0.8571474E-01
          2   -1    0    0  501    0  0.00000000000E+00  0.00000000000E+00  0.26319308038E+04  0.26319308038E+04  0.00000000000E+00 0.  1.
         -2   -1    0    0    0  501 -0.00000000000E+00 -0.00000000000E+00 -0.40974136900E+03  0.40974136900E+03  0.00000000000E+00 0. -1.
    2000013    1    1    2    0    0 -0.13190280319E+03  0.33281810965E+03  0.79109264280E+03  0.12870484890E+04  0.95000000000E+03 0.  0.
   -2000013    1    1    2    0    0  0.13190280319E+03 -0.33281810965E+03  0.14310967920E+04  0.17546236837E+04  0.95000000000E+03 0.  0.
<mgrwt>
<rscale>  0 0.20769313E+04</rscale>
<asrwt>0</asrwt>
<pdfrwt beam="1">  1        2 0.40491242E+00 0.20769313E+04</pdfrwt>
<pdfrwt beam="2">  1       -2 0.63037135E-01 0.20769313E+04</pdfrwt>
<totfact> 0.62777648E+00</totfact>
</mgrwt>
</event>
<event>
 4    1  0.2552184E-008  0.2671081E+04  0.7816531E-02  0.8344449E-01
          2   -1    0    0  501    0  0.00000000000E+00  0.00000000000E+00  0.10948119729E+04  0.10948119729E+04  0.00000000000E+00 0.  1.
         -2   -1    0    0    0  501 -0.00000000000E+00 -0.00000000000E+00 -0.16292011534E+04  0.16292011534E+04  0.00000000000E+00 0. -1.
    2000013    1    1    2    0    0 -0.38690483700E+03 -0.75633718379E+03 -0.67439094942E+03  0.14418891917E+04  0.95000000000E+03 0.  0.
   -2000013    1    1    2    0    0  0.38690483700E+03  0.75633718379E+03  0.14000176896E+03  0.12821239346E+04  0.95000000000E+03 0.  0.
<mgrwt>
<rscale>  0 0.26710814E+04</rscale>
<asrwt>0</asrwt>
<pdfrwt beam="1">  1        2 0.16843261E+00 0.26710814E+04</pdfrwt>
<pdfrwt beam="2">  1       -2 0.25064633E+00 0.26710814E+04</pdfrwt>
<totfact> 0.12289000E+00</totfact>
</mgrwt>
</event>
<event>
 4    1  0.2552184E-008  0.4091868E+04  0.7816531E-02  0.7986266E-01
          2   -1    0    0  501    0  0.00000000000E+00  0.00000000000E+00  0.37406724623E+04  0.37406724623E+04  0.00000000000E+00 0. -1.
         -2   -1    0    0    0  501 -0.00000000000E+00 -0.00000000000E+00 -0.11190091862E+04  0.11190091862E+04  0.00000000000E+00 0.  1.
    2000013    1    1    2    0    0 -0.10940243656E+04  0.14436530285E+04  0.13680788790E+04  0.24607241207E+04  0.95000000000E+03 0.  0.
   -2000013    1    1    2    0    0  0.10940243656E+04 -0.14436530285E+04  0.12535843971E+04  0.23989575277E+04  0.95000000000E+03 0.  0.
<mgrwt>
<rscale>  0 0.40918684E+04</rscale>
<asrwt>0</asrwt>
<pdfrwt beam="1">  1        2 0.57548806E+00 0.40918684E+04</pdfrwt>
<pdfrwt beam="2">  1       -2 0.17215526E+00 0.40918684E+04</pdfrwt>
<totfact> 0.87487535E-02</totfact>
</mgrwt>
</event>
<event>
 4    1  0.2552184E-008  0.2712955E+04  0.7816531E-02  0.8330814E-01
         -2   -1    0    0    0  501 -0.00000000000E+00  0.00000000000E+00  0.12676236077E+04  0.12676236077E+04  0.00000000000E+00 0. -1.
          2   -1    0    0  501    0  0.00000000000E+00 -0.00000000000E+00 -0.14515591985E+04  0.14515591985E+04  0.00000000000E+00 0.  1.
    2000013    1    1    2    0    0  0.42645083700E+02  0.96526161708E+03 -0.28718921721E+02  0.13553130152E+04  0.95000000000E+03 0.  0.
   -2000013    1    1    2    0    0 -0.42645083700E+02 -0.96526161708E+03 -0.15521666907E+03  0.13638697910E+04  0.95000000000E+03 0.  0.
<mgrwt>
<rscale>  0 0.27129546E+04</rscale>
<asrwt>0</asrwt>
<pdfrwt beam="2">  1        2 0.22331680E+00 0.27129546E+04</pdfrwt>
<pdfrwt beam="1">  1       -2 0.19501902E+00 0.27129546E+04</pdfrwt>
<totfact> 0.17004747E+00</totfact>
</mgrwt>
</event>
<event>
 4    1  0.2552184E-008  0.2256621E+04  0.7816531E-02  0.8495224E-01
          2   -1    0    0  501    0  0.00000000000E+00  0.00000000000E+00  0.15043816635E+04  0.15043816635E+04  0.00000000000E+00 0.  1.
         -2   -1    0    0    0  501 -0.00000000000E+00 -0.00000000000E+00 -0.84625076096E+03  0.84625076096E+03  0.00000000000E+00 0. -1.
    2000013    1    1    2    0    0 -0.12210254562E+03  0.58215124876E+03  0.46397966024E+03  0.12130895405E+04  0.95000000000E+03 0.  0.
   -2000013    1    1    2    0    0  0.12210254562E+03 -0.58215124876E+03  0.19415124233E+03  0.11375428840E+04  0.95000000000E+03 0.  0.
<mgrwt>
<rscale>  0 0.22566206E+04</rscale>
<asrwt>0</asrwt>
<pdfrwt beam="1">  1        2 0.23144333E+00 0.22566206E+04</pdfrwt>
<pdfrwt beam="2">  1       -2 0.13019243E+00 0.22566206E+04</pdfrwt>
<totfact> 0.49695021E+00</totfact>
</mgrwt>
</event>
<event>
 4    1  0.2552184E-008  0.2433620E+04  0.7816531E-02  0.8427023E-01
         -2   -1    0    0    0  501 -0.00000000000E+00  0.00000000000E+00  0.17764946416E+04  0.17764946416E+04  0.00000000000E+00 0. -1.
          2   -1    0    0  501    0  0.00000000000E+00 -0.00000000000E+00 -0.83345398143E+03  0.83345398143E+03  0.00000000000E+00 0.  1.
    2000013    1    1    2    0    0  0.30695985179E+03 -0.69552294027E+03  0.45838456926E+03  0.13002280278E+04  0.95000000000E+03 0.  0.
   -2000013    1    1    2    0    0 -0.30695985179E+03  0.69552294027E+03  0.48465609095E+03  0.13097205952E+04  0.95000000000E+03 0.  0.
<mgrwt>
<rscale>  0 0.24336200E+04</rscale>
<asrwt>0</asrwt>
<pdfrwt beam="2">  1        2 0.12822369E+00 0.24336200E+04</pdfrwt>
<pdfrwt beam="1">  1       -2 0.27330687E+00 0.24336200E+04</pdfrwt>
<totfact> 0.13525180E+00</totfact>
</mgrwt>
</event>
<event>
 4    1  0.2552184E-008  0.2132023E+04  0.7816531E-02  0.8547267E-01
         -2   -1    0    0    0  501 -0.00000000000E+00  0.00000000000E+00  0.51160963056E+03  0.51160963056E+03  0.00000000000E+00 0. -1.
          2   -1    0    0  501    0  0.00000000000E+00 -0.00000000000E+00 -0.22211876344E+04  0.22211876344E+04  0.00000000000E+00 0.  1.
    2000013    1    1    2    0    0  0.37609806307E+03  0.25716978201E+03 -0.64693830157E+03  0.12363717952E+04  0.95000000000E+03 0.  0.
   -2000013    1    1    2    0    0 -0.37609806307E+03 -0.25716978201E+03 -0.10626397023E+04  0.14964254698E+04  0.95000000000E+03 0.  0.
<mgrwt>
<rscale>  0 0.21320234E+04</rscale>
<asrwt>0</asrwt>
<pdfrwt beam="2">  1        2 0.34172118E+00 0.21320234E+04</pdfrwt>
<pdfrwt beam="1">  1       -2 0.78709174E-01 0.21320234E+04</pdfrwt>
<totfact> 0.66200864E+00</totfact>
</mgrwt>
</event>
<event>
 4    1  0.2552184E-008  0.3051718E+04  0.7816531E-02  0.8229115E-01
         -2   -1    0    0    0  501 -0.00000000000E+00  0.00000000000E+00  0.16636115214E+04  0.16636115214E+04  0.00000000000E+00 0. -1.
          2   -1    0    0  501    0  0.00000000000E+00 -0.00000000000E+00 -0.13995130615E+04  0.13995130615E+04  0.00000000000E+00 0.  1.
    2000013    1    1    2    0    0 -0.37472507190E+03  0.11337108340E+04  0.13725694440E+03  0.15320112935E+04  0.95000000000E+03 0.  0.
   -2000013    1    1    2    0    0  0.37472507190E+03 -0.11337108340E+04  0.12684151555E+03  0.15311132893E+04  0.95000000000E+03 0.  0.
<mgrwt>
<rscale>  0 0.30517182E+04</rscale>
<asrwt>0</asrwt>
<pdfrwt beam="2">  1        2 0.21530970E+00 0.30517182E+04</pdfrwt>
<pdfrwt beam="1">  1       -2 0.25594023E+00 0.30517182E+04</pdfrwt>
<totfact> 0.72922582E-01</totfact>
</mgrwt>
</event>
<event>
 4    1  0.2552184E-008  0.2760676E+04  0.7816531E-02  0.8315582E-01
          2   -1    0    0  501    0  0.00000000000E+00  0.00000000000E+00  0.18419071899E+04  0.18419071899E+04  0.00000000000E+00 0.  1.
         -2   -1    0    0    0  501 -0.00000000000E+00 -0.00000000000E+00 -0.10344344947E+04  0.10344344947E+04  0.00000000000E+00 0. -1.
    2000013    1    1    2    0    0 -0.24428564404E+01 -0.10013719191E+04  0.41309287365E+03  0.14407974911E+04  0.95000000000E+03 0.  0.
   -2000013    1    1    2    0    0  0.24428564404E+01  0.10013719191E+04  0.39437982148E+03  0.14355441935E+04  0.95000000000E+03 0.  0.
<mgrwt>
<rscale>  0 0.27606755E+04</rscale>
<asrwt>0</asrwt>
<pdfrwt beam="1">  1        2 0.28337034E+00 0.27606755E+04</pdfrwt>
<pdfrwt beam="2">  1       -2 0.15914377E+00 0.27606755E+04</pdfrwt>
<totfact> 0.18251487E+00</totfact>
</mgrwt>
</event>
<event>
 4    1  0.2552184E-008  0.2439865E+04  0.7816531E-02  0.8424728E-01
         -2   -1    0    0    0  501 -0.00000000000E+00  0.00000000000E+00  0.45646001555E+03  0.45646001555E+03  0.00000000000E+00 0. -1.
          2   -1    0    0  501    0  0.00000000000E+00 -0.00000000000E+00 -0.32603853211E+04  0.32603853211E+04  0.00000000000E+00 0.  1.
    2000013    1    1    2    0    0  0.28403124362E+03 -0.58656248742E+03 -0.20132283247E+04  0.23195511606E+04  0.95000000000E+03 0.  0.
   -2000013    1    1    2    0    0 -0.28403124362E+03  0.58656248742E+03 -0.79069698079E+03  0.13972941761E+04  0.95000000000E+03 0.  0.
<mgrwt>
<rscale>  0 0.24398652E+04</rscale>
<asrwt>0</asrwt>
<pdfrwt beam="2">  1        2 0.50159774E+00 0.24398652E+04</pdfrwt>
<pdfrwt beam="1">  1       -2 0.70224618E-01 0.24398652E+04</pdfrwt>
<totfact> 0.19598844E+00</totfact>
</mgrwt>
</event>
<event>
 4    1  0.2552184E-008  0.2782582E+04  0.7816531E-02  0.8308697E-01
         -2   -1    0    0    0  501 -0.00000000000E+00  0.00000000000E+00  0.13176827522E+04  0.13176827522E+04  0.00000000000E+00 0. -1.
          2   -1    0    0  501    0  0.00000000000E+00 -0.00000000000E+00 -0.14690108757E+04  0.14690108757E+04  0.00000000000E+00 0.  1.
    2000013    1    1    2    0    0  0.49714669776E+03  0.86424383004E+03  0.12241105907E+03  0.13825905772E+04  0.95000000000E+03 0.  0.
   -2000013    1    1    2    0    0 -0.49714669776E+03 -0.86424383004E+03 -0.27373918248E+03  0.14041030507E+04  0.95000000000E+03 0.  0.
<mgrwt>
<rscale>  0 0.27825817E+04</rscale>
<asrwt>0</asrwt>
<pdfrwt beam="2">  1        2 0.22600167E+00 0.27825817E+04</pdfrwt>
<pdfrwt beam="1">  1       -2 0.20272043E+00 0.27825817E+04</pdfrwt>
<totfact> 0.14703702E+00</totfact>
</mgrwt>
</event>
<event>
 4    1  0.2552184E-008  0.2459436E+04  0.7816531E-02  0.8417581E-01
         -2   -1    0    0    0  501 -0.00000000000E+00  0.00000000000E+00  0.70088104788E+03  0.70088104788E+03  0.00000000000E+00 0. -1.
          2   -1    0    0  501    0  0.00000000000E+00 -0.00000000000E+00 -0.21575784072E+04  0.21575784072E+04  0.00000000000E+00 0.  1.
    2000013    1    1    2    0    0  0.27500433346E+02  0.68063643862E+03 -0.28473810434E+03  0.12031616780E+04  0.95000000000E+03 0.  0.
   -2000013    1    1    2    0    0 -0.27500433346E+02 -0.68063643862E+03 -0.11719592550E+04  0.16552977771E+04  0.95000000000E+03 0.  0.
<mgrwt>
<rscale>  0 0.24594356E+04</rscale>
<asrwt>0</asrwt>
<pdfrwt beam="2">  1        2 0.33193514E+00 0.24594356E+04</pdfrwt>
<pdfrwt beam="1">  1       -2 0.10782785E+00 0.24594356E+04</pdfrwt>
<totfact> 0.33655667E+00</totfact>
</mgrwt>
</event>
<event>
 4    1  0.2552184E-008  0.2204023E+04  0.7816531E-02  0.8516755E-01
          1   -1    0    0  501    0  0.00000000000E+00  0.00000000000E+00  0.17830229126E+04  0.17830229126E+04  0.00000000000E+00 0.  1.
         -1   -1    0    0    0  501 -0.00000000000E+00 -0.00000000000E+00 -0.68110714444E+03  0.68110714444E+03  0.00000000000E+00 0. -1.
    2000013    1    1    2    0    0  0.11137657700E+03  0.54589756249E+03  0.50735884568E+03  0.12125683028E+04  0.95000000000E+03 0.  0.
   -2000013    1    1    2    0    0 -0.11137657700E+03 -0.54589756249E+03  0.59455692248E+03  0.12515617543E+04  0.95000000000E+03 0.  0.
<mgrwt>
<rscale>  0 0.22040233E+04</rscale>
<asrwt>0</asrwt>
<pdfrwt beam="1">  1        1 0.27431122E+00 0.22040233E+04</pdfrwt>
<pdfrwt beam="2">  1       -1 0.10478572E+00 0.22040233E+04</pdfrwt>
<totfact> 0.32614413E+00</totfact>
</mgrwt>
</event>
<event>
 4    1  0.2552184E-008  0.2154229E+04  0.7816531E-02  0.8537724E-01
         -2   -1    0    0    0  501 -0.00000000000E+00  0.00000000000E+00  0.38600274858E+03  0.38600274858E+03  0.00000000000E+00 0. -1.
          2   -1    0    0  501    0  0.00000000000E+00 -0.00000000000E+00 -0.30056156801E+04  0.30056156801E+04  0.00000000000E+00 0.  1.
    2000013    1    1    2    0    0 -0.34035881107E+03 -0.16098812861E+03 -0.18458303832E+04  0.21098225284E+04  0.95000000000E+03 0.  0.
   -2000013    1    1    2    0    0  0.34035881107E+03  0.16098812861E+03 -0.77378254828E+03  0.12817959002E+04  0.95000000000E+03 0.  0.
<mgrwt>
<rscale>  0 0.21542292E+04</rscale>
<asrwt>0</asrwt>
<pdfrwt beam="2">  1        2 0.46240243E+00 0.21542292E+04</pdfrwt>
<pdfrwt beam="1">  1       -2 0.59385036E-01 0.21542292E+04</pdfrwt>
<totfact> 0.42006019E+00</totfact>
</mgrwt>
</event>
<event>
 4    1  0.2552184E-008  0.2158975E+04  0.7816531E-02  0.8535700E-01
         -2   -1    0    0    0  501 -0.00000000000E+00  0.00000000000E+00  0.38974119809E+03  0.38974119809E+03  0.00000000000E+00 0. -1.
          2   -1    0    0  501    0  0.00000000000E+00 -0.00000000000E+00 -0.29899168635E+04  0.29899168635E+04  0.00000000000E+00 0.  1.
    2000013    1    1    2    0    0  0.28880534298E+03  0.32938786323E+03 -0.88330085550E+03  0.13691695629E+04  0.95000000000E+03 0.  0.
   -2000013    1    1    2    0    0 -0.28880534298E+03 -0.32938786323E+03 -0.17168748099E+04  0.20104884987E+04  0.95000000000E+03 0.  0.
<mgrwt>
<rscale>  0 0.21589755E+04</rscale>
<asrwt>0</asrwt>
<pdfrwt beam="2">  1        2 0.45998722E+00 0.21589755E+04</pdfrwt>
<pdfrwt beam="1">  1       -2 0.59960184E-01 0.21589755E+04</pdfrwt>
<totfact> 0.42082186E+00</totfact>
</mgrwt>
</event>
<event>
 4    1  0.2552184E-008  0.2452580E+04  0.7816531E-02  0.8420076E-01
         -1   -1    0    0    0  501 -0.00000000000E+00  0.00000000000E+00  0.79194390811E+03  0.79194390811E+03  0.00000000000E+00 0. -1.
          1   -1    0    0  501    0  0.00000000000E+00 -0.00000000000E+00 -0.18988561480E+04  0.18988561480E+04  0.00000000000E+00 0.  1.
    2000013    1    1    2    0    0 -0.73551281727E+03 -0.18601471681E+03 -0.37754887996E+03  0.12730372092E+04  0.95000000000E+03 0.  0.
   -2000013    1    1    2    0    0  0.73551281727E+03  0.18601471681E+03 -0.72936335990E+03  0.14177628469E+04  0.95000000000E+03 0.  0.
<mgrwt>
<rscale>  0 0.24525803E+04</rscale>
<asrwt>0</asrwt>
<pdfrwt beam="2">  1        1 0.29213171E+00 0.24525803E+04</pdfrwt>
<pdfrwt beam="1">  1       -1 0.12183753E+00 0.24525803E+04</pdfrwt>
<totfact> 0.18565503E+00</totfact>
</mgrwt>
</event>
<event>
 4    1  0.2552184E-008  0.3641238E+04  0.7816531E-02  0.8081110E-01
         -2   -1    0    0    0  501 -0.00000000000E+00  0.00000000000E+00  0.10518509515E+04  0.10518509515E+04  0.00000000000E+00 0. -1.
          2   -1    0    0  501    0  0.00000000000E+00 -0.00000000000E+00 -0.31512582588E+04  0.31512582588E+04  0.00000000000E+00 0.  1.
    2000013    1    1    2    0    0 -0.88806692689E+03  0.10718650924E+04 -0.18449172146E+04  0.24987551244E+04  0.95000000000E+03 0.  0.
   -2000013    1    1    2    0    0  0.88806692689E+03 -0.10718650924E+04 -0.25449009275E+03  0.17043540859E+04  0.95000000000E+03 0.  0.
<mgrwt>
<rscale>  0 0.36412382E+04</rscale>
<asrwt>0</asrwt>
<pdfrwt beam="2">  1        2 0.48480897E+00 0.36412382E+04</pdfrwt>
<pdfrwt beam="1">  1       -2 0.16182322E+00 0.36412382E+04</pdfrwt>
<totfact> 0.27644098E-01</totfact>
</mgrwt>
</event>
<event>
 4    1  0.2552184E-008  0.3105836E+04  0.7816531E-02  0.8214138E-01
         -2   -1    0    0    0  501 -0.00000000000E+00  0.00000000000E+00  0.19603370976E+04  0.19603370976E+04  0.00000000000E+00 0. -1.
          2   -1    0    0  501    0  0.00000000000E+00 -0.00000000000E+00 -0.12301735378E+04  0.12301735378E+04  0.00000000000E+00 0.  1.
    2000013    1    1    2    0    0 -0.79484233912E+02  0.87277104950E+03  0.12493683179E+04  0.17976285050E+04  0.95000000000E+03 0.  0.
   -2000013    1    1    2    0    0  0.79484233912E+02 -0.87277104950E+03 -0.51920475818E+03  0.13928821304E+04  0.95000000000E+03 0.  0.
<mgrwt>
<rscale>  0 0.31058363E+04</rscale>
<asrwt>0</asrwt>
<pdfrwt beam="2">  1        2 0.18925747E+00 0.31058363E+04</pdfrwt>
<pdfrwt beam="1">  1       -2 0.30159032E+00 0.31058363E+04</pdfrwt>
<totfact> 0.47922826E-01</totfact>
</mgrwt>
</event>
<event>
 4    1  0.2552184E-008  0.2081318E+04  0.7816531E-02  0.8569518E-01
         -1   -1    0    0    0  501 -0.00000000000E+00  0.00000000000E+00  0.50058087455E+03  0.50058087455E+03  0.00000000000E+00 0. -1.
          1   -1    0    0  501    0  0.00000000000E+00 -0.00000000000E+00 -0.21634293800E+04  0.21634293800E+04  0.00000000000E+00 0.  1.
    2000013    1    1    2    0    0 -0.32542171632E+03  0.26209701192E+03 -0.73329829737E+03  0.12707558892E+04  0.95000000000E+03 0.  0.
   -2000013    1    1    2    0    0  0.32542171632E+03 -0.26209701192E+03 -0.92955020810E+03  0.13932543653E+04  0.95000000000E+03 0.  0.
<mgrwt>
<rscale>  0 0.20813182E+04</rscale>
<asrwt>0</asrwt>
<pdfrwt beam="2">  1        1 0.33283530E+00 0.20813182E+04</pdfrwt>
<pdfrwt beam="1">  1       -1 0.77012440E-01 0.20813182E+04</pdfrwt>
<totfact> 0.35940055E+00</totfact>
</mgrwt>
</event>
<event>
 4    1  0.2552184E-008  0.3152793E+04  0.7816531E-02  0.8201397E-01
         -2   -1    0    0    0  501 -0.00000000000E+00  0.00000000000E+00  0.10354057897E+04  0.10354057897E+04  0.00000000000E+00 0.  1.
          2   -1    0    0  501    0  0.00000000000E+00 -0.00000000000E+00 -0.24000496914E+04  0.24000496914E+04  0.00000000000E+00 0. -1.
    2000013    1    1    2    0    0  0.85285439942E+03  0.78751580813E+03 -0.15411067473E+03  0.15079097701E+04  0.95000000000E+03 0.  0.
   -2000013    1    1    2    0    0 -0.85285439942E+03 -0.78751580813E+03 -0.12105332269E+04  0.19275457110E+04  0.95000000000E+03 0.  0.
<mgrwt>
<rscale>  0 0.31527926E+04</rscale>
<asrwt>0</asrwt>
<pdfrwt beam="2">  1        2 0.36923841E+00 0.31527926E+04</pdfrwt>
<pdfrwt beam="1">  1       -2 0.15929320E+00 0.31527926E+04</pdfrwt>
<totfact> 0.85662631E-01</totfact>
</mgrwt>
</event>
<event>
 4    1  0.2552184E-008  0.2268684E+04  0.7816531E-02  0.8490372E-01
         -2   -1    0    0    0  501 -0.00000000000E+00  0.00000000000E+00  0.77722990548E+03  0.77722990548E+03  0.00000000000E+00 0. -1.
          2   -1    0    0  501    0  0.00000000000E+00 -0.00000000000E+00 -0.16555353722E+04  0.16555353722E+04  0.00000000000E+00 0.  1.
    2000013    1    1    2    0    0  0.44891607057E+03  0.28547514042E+03 -0.78029673661E+03  0.13395464499E+04  0.95000000000E+03 0.  0.
   -2000013    1    1    2    0    0 -0.44891607057E+03 -0.28547514042E+03 -0.98008730080E+02  0.10932188278E+04  0.95000000000E+03 0.  0.
<mgrwt>
<rscale>  0 0.22686838E+04</rscale>
<asrwt>0</asrwt>
<pdfrwt beam="2">  1        2 0.25469775E+00 0.22686838E+04</pdfrwt>
<pdfrwt beam="1">  1       -2 0.11957383E+00 0.22686838E+04</pdfrwt>
<totfact> 0.50563434E+00</totfact>
</mgrwt>
</event>
