<event>
 4    1  0.2018023E-008  0.2609763E+04  0.7816531E-02  0.8364892E-01
         -2   -1    0    0    0  501 -0.00000000000E+00  0.00000000000E+00  0.67055428606E+03  0.67055428606E+03  0.00000000000E+00 0. -1.
          2   -1    0    0  501    0  0.00000000000E+00 -0.00000000000E+00 -0.25392665035E+04  0.25392665035E+04  0.00000000000E+00 0.  1.
    2000013    1    1    2    0    0  0.87691974737E+03 -0.14832075227E+03 -0.81620138681E+03  0.15361223886E+04  0.95000000000E+03 0.  0.
   -2000013    1    1    2    0    0 -0.87691974737E+03  0.14832075227E+03 -0.10525108307E+04  0.16736984010E+04  0.95000000000E+03 0.  0.
<mgrwt>
<rscale>  0 0.26097632E+04</rscale>
<asrwt>0</asrwt>
<pdfrwt beam="2">  1        2 0.39065639E+00 0.26097632E+04</pdfrwt>
<pdfrwt beam="1">  1       -2 0.10316220E+00 0.26097632E+04</pdfrwt>
<totfact> 0.22381609E+00</totfact>
</mgrwt>
</event>
<event>
 4    1  0.2018023E-008  0.2836045E+04  0.7816531E-02  0.8292164E-01
          2   -1    0    0  501    0  0.00000000000E+00  0.00000000000E+00  0.27604916507E+04  0.27604916507E+04  0.00000000000E+00 0.  1.
         -2   -1    0    0    0  501 -0.00000000000E+00 -0.00000000000E+00 -0.72841672935E+03  0.72841672935E+03  0.00000000000E+00 0. -1.
    2000013    1    1    2    0    0 -0.64990832137E+03 -0.80787600407E+03  0.12403388463E+04  0.18750959756E+04  0.95000000000E+03 0.  0.
   -2000013    1    1    2    0    0  0.64990832137E+03  0.80787600407E+03  0.79173607506E+03  0.16138124044E+04  0.95000000000E+03 0.  0.
<mgrwt>
<rscale>  0 0.28360453E+04</rscale>
<asrwt>0</asrwt>
<pdfrwt beam="1">  1        2 0.42469102E+00 0.28360453E+04</pdfrwt>
<pdfrwt beam="2">  1       -2 0.11206411E+00 0.28360453E+04</pdfrwt>
<totfact> 0.13305862E+00</totfact>
</mgrwt>
</event>
<event>
 4    1  0.2018023E-008  0.2715433E+04  0.7816531E-02  0.8330015E-01
          2   -1    0    0  501    0  0.00000000000E+00  0.00000000000E+00  0.16678642690E+04  0.16678642690E+04  0.00000000000E+00 0.  1.
         -2   -1    0    0    0  501 -0.00000000000E+00 -0.00000000000E+00 -0.11052420655E+04  0.11052420655E+04  0.00000000000E+00 0. -1.
    2000013    1    1    2    0    0 -0.60100523899E+03  0.74289974395E+03  0.11107808657E+03  0.13520154097E+04  0.95000000000E+03 0.  0.
   -2000013    1    1    2    0    0  0.60100523899E+03 -0.74289974395E+03  0.45154411694E+03  0.14210909247E+04  0.95000000000E+03 0.  0.
<mgrwt>
<rscale>  0 0.27154327E+04</rscale>
<asrwt>0</asrwt>
<pdfrwt beam="1">  1        2 0.25659450E+00 0.27154327E+04</pdfrwt>
<pdfrwt beam="2">  1       -2 0.17003724E+00 0.27154327E+04</pdfrwt>
<totfact> 0.19076194E+00</totfact>
</mgrwt>
</event>
<event>
 4    1  0.2018023E-008  0.2383876E+04  0.7816531E-02  0.8445565E-01
         -2   -1    0    0    0  501 -0.00000000000E+00  0.00000000000E+00  0.76046206463E+03  0.76046206463E+03  0.00000000000E+00 0. -1.
          2   -1    0    0  501    0  0.00000000000E+00 -0.00000000000E+00 -0.18682275020E+04  0.18682275020E+04  0.00000000000E+00 0.  1.
    2000013    1    1    2    0    0  0.16405306663E+03 -0.58659756055E+03 -0.97695878541E+03  0.14926347762E+04  0.95000000000E+03 0.  0.
   -2000013    1    1    2    0    0 -0.16405306663E+03  0.58659756055E+03 -0.13080665198E+03  0.11360547905E+04  0.95000000000E+03 0.  0.
<mgrwt>
<rscale>  0 0.23838760E+04</rscale>
<asrwt>0</asrwt>
<pdfrwt beam="2">  1        2 0.28741961E+00 0.23838760E+04</pdfrwt>
<pdfrwt beam="1">  1       -2 0.11699417E+00 0.23838760E+04</pdfrwt>
<totfact> 0.40258526E+00</totfact>
</mgrwt>
</event>
<event>
 4    1  0.2018023E-008  0.3137083E+04  0.7816531E-02  0.8205634E-01
          2   -1    0    0  501    0  0.00000000000E+00  0.00000000000E+00  0.31488394684E+04  0.31488394684E+04  0.00000000000E+00 0.  1.
         -2   -1    0    0    0  501 -0.00000000000E+00 -0.00000000000E+00 -0.78134278676E+03  0.78134278676E+03  0.00000000000E+00 0. -1.
    2000013    1    1    2    0    0  0.22082777883E+03  0.12275417827E+04  0.11249959145E+04  0.19296993403E+04  0.95000000000E+03 0.  0.
   -2000013    1    1    2    0    0 -0.22082777883E+03 -0.12275417827E+04  0.12425007671E+04  0.20004829148E+04  0.95000000000E+03 0.  0.
<mgrwt>
<rscale>  0 0.31370834E+04</rscale>
<asrwt>0</asrwt>
<pdfrwt beam="1">  1        2 0.48443683E+00 0.31370834E+04</pdfrwt>
<pdfrwt beam="2">  1       -2 0.12020658E+00 0.31370834E+04</pdfrwt>
<totfact> 0.62598596E-01</totfact>
</mgrwt>
</event>
<event>
 4    1  0.2018023E-008  0.2158545E+04  0.7816531E-02  0.8535884E-01
          2   -1    0    0  501    0  0.00000000000E+00  0.00000000000E+00  0.12269866156E+04  0.12269866156E+04  0.00000000000E+00 0.  1.
         -2   -1    0    0    0  501 -0.00000000000E+00 -0.00000000000E+00 -0.94934096026E+03  0.94934096026E+03  0.00000000000E+00 0. -1.
    2000013    1    1    2    0    0 -0.26660111398E+03  0.43296015360E+03  0.20095848785E+03  0.10960907638E+04  0.95000000000E+03 0.  0.
   -2000013    1    1    2    0    0  0.26660111398E+03 -0.43296015360E+03  0.76687167518E+02  0.10802368121E+04  0.95000000000E+03 0.  0.
<mgrwt>
<rscale>  0 0.21585446E+04</rscale>
<asrwt>0</asrwt>
<pdfrwt beam="1">  1        2 0.18876717E+00 0.21585446E+04</pdfrwt>
<pdfrwt beam="2">  1       -2 0.14605246E+00 0.21585446E+04</pdfrwt>
<totfact> 0.53824435E+00</totfact>
</mgrwt>
</event>
<event>
 4    1  0.2018023E-008  0.2161856E+04  0.7816531E-02  0.8534474E-01
          2   -1    0    0  501    0  0.00000000000E+00  0.00000000000E+00  0.10670586219E+04  0.10670586219E+04  0.00000000000E+00 0.  1.
         -2   -1    0    0    0  501 -0.00000000000E+00 -0.00000000000E+00 -0.10949778058E+04  0.10949778058E+04  0.00000000000E+00 0. -1.
    2000013    1    1    2    0    0  0.42165521219E+03 -0.20045662130E+03  0.20498681086E+03  0.10781908772E+04  0.95000000000E+03 0.  0.
   -2000013    1    1    2    0    0 -0.42165521219E+03  0.20045662130E+03 -0.23290599484E+03  0.10838455505E+04  0.95000000000E+03 0.  0.
<mgrwt>
<rscale>  0 0.21618562E+04</rscale>
<asrwt>0</asrwt>
<pdfrwt beam="1">  1        2 0.16416287E+00 0.21618562E+04</pdfrwt>
<pdfrwt beam="2">  1       -2 0.16845812E+00 0.21618562E+04</pdfrwt>
<totfact> 0.45772641E+00</totfact>
</mgrwt>
</event>
<event>
 4    1  0.2018023E-008  0.4221757E+04  0.7816531E-02  0.7961246E-01
          2   -1    0    0  501    0  0.00000000000E+00  0.00000000000E+00  0.19561735620E+04  0.19561735620E+04  0.00000000000E+00 0.  1.
         -2   -1    0    0    0  501 -0.00000000000E+00 -0.00000000000E+00 -0.22778184142E+04  0.22778184142E+04  0.00000000000E+00 0. -1.
    2000013    1    1    2    0    0  0.13904868378E+04 -0.63185664860E+03 -0.12688372104E+04  0.22011688570E+04  0.95000000000E+03 0.  0.
   -2000013    1    1    2    0    0 -0.13904868378E+04  0.63185664860E+03  0.94719235816E+03  0.20328231192E+04  0.95000000000E+03 0.  0.
<mgrwt>
<rscale>  0 0.42217571E+04</rscale>
<asrwt>0</asrwt>
<pdfrwt beam="1">  1        2 0.30094978E+00 0.42217571E+04</pdfrwt>
<pdfrwt beam="2">  1       -2 0.35043360E+00 0.42217571E+04</pdfrwt>
<totfact> 0.84652902E-02</totfact>
</mgrwt>
</event>
<event>
 4    1  0.2018023E-008  0.2769477E+04  0.7816531E-02  0.8312808E-01
          2   -1    0    0  501    0  0.00000000000E+00  0.00000000000E+00  0.13791462716E+04  0.13791462716E+04  0.00000000000E+00 0.  1.
         -2   -1    0    0    0  501 -0.00000000000E+00 -0.00000000000E+00 -0.13903534090E+04  0.13903534090E+04  0.00000000000E+00 0. -1.
    2000013    1    1    2    0    0 -0.54284825224E+03  0.76915642330E+03  0.35316794563E+03  0.13832980251E+04  0.95000000000E+03 0.  0.
   -2000013    1    1    2    0    0  0.54284825224E+03 -0.76915642330E+03 -0.36437508301E+03  0.13862016555E+04  0.95000000000E+03 0.  0.
<mgrwt>
<rscale>  0 0.27694770E+04</rscale>
<asrwt>0</asrwt>
<pdfrwt beam="1">  1        2 0.21217635E+00 0.27694770E+04</pdfrwt>
<pdfrwt beam="2">  1       -2 0.21390052E+00 0.27694770E+04</pdfrwt>
<totfact> 0.14026213E+00</totfact>
</mgrwt>
</event>
<event>
 4    1  0.2018023E-008  0.4416074E+04  0.7816531E-02  0.7925497E-01
          2   -1    0    0  501    0  0.00000000000E+00  0.00000000000E+00  0.22124992171E+04  0.22124992171E+04  0.00000000000E+00 0.  1.
         -2   -1    0    0    0  501 -0.00000000000E+00 -0.00000000000E+00 -0.22035833534E+04  0.22035833534E+04  0.00000000000E+00 0. -1.
    2000013    1    1    2    0    0  0.52926433877E+03 -0.18758235782E+04 -0.41278578264E+03  0.22071988898E+04  0.95000000000E+03 0.  0.
   -2000013    1    1    2    0    0 -0.52926433877E+03  0.18758235782E+04  0.42170164636E+03  0.22088836808E+04  0.95000000000E+03 0.  0.
<mgrwt>
<rscale>  0 0.44160736E+04</rscale>
<asrwt>0</asrwt>
<pdfrwt beam="1">  1        2 0.34038449E+00 0.44160736E+04</pdfrwt>
<pdfrwt beam="2">  1       -2 0.33901282E+00 0.44160736E+04</pdfrwt>
<totfact> 0.70689218E-02</totfact>
</mgrwt>
</event>
<event>
 4    1  0.2018023E-008  0.2719479E+04  0.7816531E-02  0.8328712E-01
         -2   -1    0    0    0  501 -0.00000000000E+00  0.00000000000E+00  0.65327416187E+03  0.65327416187E+03  0.00000000000E+00 0.  1.
          2   -1    0    0  501    0  0.00000000000E+00 -0.00000000000E+00 -0.28301916274E+04  0.28301916274E+04  0.00000000000E+00 0. -1.
    2000013    1    1    2    0    0  0.40532535622E+03 -0.86959281878E+03 -0.88226955269E+03  0.16128793751E+04  0.95000000000E+03 0.  0.
   -2000013    1    1    2    0    0 -0.40532535622E+03  0.86959281878E+03 -0.12946479128E+04  0.18705864142E+04  0.95000000000E+03 0.  0.
<mgrwt>
<rscale>  0 0.27194787E+04</rscale>
<asrwt>0</asrwt>
<pdfrwt beam="2">  1        2 0.43541410E+00 0.27194787E+04</pdfrwt>
<pdfrwt beam="1">  1       -2 0.10050372E+00 0.27194787E+04</pdfrwt>
<totfact> 0.15843360E+00</totfact>
</mgrwt>
</event>
<event>
 4    1  0.2018023E-008  0.3254345E+04  0.7816531E-02  0.8174611E-01
          2   -1    0    0  501    0  0.00000000000E+00  0.00000000000E+00  0.29152109146E+04  0.29152109146E+04  0.00000000000E+00 0.  1.
         -2   -1    0    0    0  501 -0.00000000000E+00 -0.00000000000E+00 -0.90823271337E+03  0.90823271337E+03  0.00000000000E+00 0. -1.
    2000013    1    1    2    0    0  0.12997844477E+04 -0.23446359443E+03  0.10362411392E+04  0.19289138100E+04  0.95000000000E+03 0.  0.
   -2000013    1    1    2    0    0 -0.12997844477E+04  0.23446359443E+03  0.97073706206E+03  0.18945298180E+04  0.95000000000E+03 0.  0.
<mgrwt>
<rscale>  0 0.32543447E+04</rscale>
<asrwt>0</asrwt>
<pdfrwt beam="1">  1        2 0.44849398E+00 0.32543447E+04</pdfrwt>
<pdfrwt beam="2">  1       -2 0.13972811E+00 0.32543447E+04</pdfrwt>
<totfact> 0.59461171E-01</totfact>
</mgrwt>
</event>
<event>
 4    1  0.2018023E-008  0.1951900E+04  0.7816531E-02  0.8629445E-01
          2   -1    0    0  501    0  0.00000000000E+00  0.00000000000E+00  0.90737997448E+03  0.90737997448E+03  0.00000000000E+00 0.  1.
         -2   -1    0    0    0  501 -0.00000000000E+00 -0.00000000000E+00 -0.10497013305E+04  0.10497013305E+04  0.00000000000E+00 0. -1.
    2000013    1    1    2    0    0  0.18802298217E+02  0.19160652053E+03 -0.18509058888E+03  0.98682577551E+03  0.95000000000E+03 0.  0.
   -2000013    1    1    2    0    0 -0.18802298217E+02 -0.19160652053E+03  0.42769232890E+02  0.97025552944E+03  0.95000000000E+03 0.  0.
<mgrwt>
<rscale>  0 0.19518996E+04</rscale>
<asrwt>0</asrwt>
<pdfrwt beam="1">  1        2 0.13959692E+00 0.19518996E+04</pdfrwt>
<pdfrwt beam="2">  1       -2 0.16149251E+00 0.19518996E+04</pdfrwt>
<totfact> 0.66375091E+00</totfact>
</mgrwt>
</event>
<event>
 4    1  0.2018023E-008  0.2562944E+04  0.7816531E-02  0.8380898E-01
         -2   -1    0    0    0  501 -0.00000000000E+00  0.00000000000E+00  0.25429029558E+04  0.25429029558E+04  0.00000000000E+00 0. -1.
          2   -1    0    0  501    0  0.00000000000E+00 -0.00000000000E+00 -0.64578574083E+03  0.64578574083E+03  0.00000000000E+00 0.  1.
    2000013    1    1    2    0    0  0.32452750530E+03  0.41621971157E+03  0.10371380771E+03  0.10917021132E+04  0.95000000000E+03 0.  0.
   -2000013    1    1    2    0    0 -0.32452750530E+03 -0.41621971157E+03  0.17934034072E+04  0.20969865834E+04  0.95000000000E+03 0.  0.
<mgrwt>
<rscale>  0 0.25629440E+04</rscale>
<asrwt>0</asrwt>
<pdfrwt beam="2">  1        2 0.99351654E-01 0.25629440E+04</pdfrwt>
<pdfrwt beam="1">  1       -2 0.39121583E+00 0.25629440E+04</pdfrwt>
<totfact> 0.34068287E-01</totfact>
</mgrwt>
</event>
<event>
 4    1  0.2018023E-008  0.2302569E+04  0.7816531E-02  0.8476909E-01
          2   -1    0    0  501    0  0.00000000000E+00  0.00000000000E+00  0.75584809687E+03  0.75584809687E+03  0.00000000000E+00 0.  1.
         -2   -1    0    0    0  501 -0.00000000000E+00 -0.00000000000E+00 -0.17536014752E+04  0.17536014752E+04  0.00000000000E+00 0. -1.
    2000013    1    1    2    0    0  0.53698828419E+03  0.12403737730E+03 -0.87517353411E+03  0.14043398460E+04  0.95000000000E+03 0.  0.
   -2000013    1    1    2    0    0 -0.53698828419E+03 -0.12403737730E+03 -0.12257984418E+03  0.11051097260E+04  0.95000000000E+03 0.  0.
<mgrwt>
<rscale>  0 0.23025693E+04</rscale>
<asrwt>0</asrwt>
<pdfrwt beam="1">  1        2 0.11628432E+00 0.23025693E+04</pdfrwt>
<pdfrwt beam="2">  1       -2 0.26978484E+00 0.23025693E+04</pdfrwt>
<totfact> 0.16358047E+00</totfact>
</mgrwt>
</event>
<event>
 4    1  0.2018023E-008  0.2161403E+04  0.7816531E-02  0.8534667E-01
         -1   -1    0    0    0  501 -0.00000000000E+00  0.00000000000E+00  0.70063218734E+03  0.70063218734E+03  0.00000000000E+00 0. -1.
          1   -1    0    0  501    0  0.00000000000E+00 -0.00000000000E+00 -0.16669452598E+04  0.16669452598E+04  0.00000000000E+00 0.  1.
    2000013    1    1    2    0    0  0.47491661637E+03  0.17267164746E+03 -0.59299198577E+03  0.12286174285E+04  0.95000000000E+03 0.  0.
   -2000013    1    1    2    0    0 -0.47491661637E+03 -0.17267164746E+03 -0.37332108668E+03  0.11389600187E+04  0.95000000000E+03 0.  0.
<mgrwt>
<rscale>  0 0.21614028E+04</rscale>
<asrwt>0</asrwt>
<pdfrwt beam="2">  1        1 0.25645312E+00 0.21614028E+04</pdfrwt>
<pdfrwt beam="1">  1       -1 0.10778957E+00 0.21614028E+04</pdfrwt>
<totfact> 0.36767501E+00</totfact>
</mgrwt>
</event>
<event>
 4    1  0.2018023E-008  0.4255957E+04  0.7816531E-02  0.7954813E-01
          2   -1    0    0  501    0  0.00000000000E+00  0.00000000000E+00  0.34118261336E+04  0.34118261336E+04  0.00000000000E+00 0.  1.
         -2   -1    0    0    0  501 -0.00000000000E+00 -0.00000000000E+00 -0.13272341845E+04  0.13272341845E+04  0.00000000000E+00 0. -1.
    2000013    1    1    2    0    0 -0.10635403117E+04 -0.15340271137E+04  0.14610640922E+04  0.25537355896E+04  0.95000000000E+03 0.  0.
   -2000013    1    1    2    0    0  0.10635403117E+04  0.15340271137E+04  0.62352785691E+03  0.21853247284E+04  0.95000000000E+03 0.  0.
<mgrwt>
<rscale>  0 0.42559569E+04</rscale>
<asrwt>0</asrwt>
<pdfrwt beam="1">  1        2 0.52489633E+00 0.42559569E+04</pdfrwt>
<pdfrwt beam="2">  1       -2 0.20418988E+00 0.42559569E+04</pdfrwt>
<totfact> 0.90155196E-02</totfact>
</mgrwt>
</event>
<event>
 4    1  0.2018023E-008  0.2085886E+04  0.7816531E-02  0.8567486E-01
         -2   -1    0    0    0  501 -0.00000000000E+00  0.00000000000E+00  0.10125757566E+04  0.10125757566E+04  0.00000000000E+00 0. -1.
          2   -1    0    0  501    0  0.00000000000E+00 -0.00000000000E+00 -0.10742213093E+04  0.10742213093E+04  0.00000000000E+00 0.  1.
    2000013    1    1    2    0    0 -0.38727097951E+03  0.13182676115E+03 -0.16457239081E+03  0.10473495970E+04  0.95000000000E+03 0.  0.
   -2000013    1    1    2    0    0  0.38727097951E+03 -0.13182676115E+03  0.10292683816E+03  0.10394474689E+04  0.95000000000E+03 0.  0.
<mgrwt>
<rscale>  0 0.20858863E+04</rscale>
<asrwt>0</asrwt>
<pdfrwt beam="2">  1        2 0.16526482E+00 0.20858863E+04</pdfrwt>
<pdfrwt beam="1">  1       -2 0.15578088E+00 0.20858863E+04</pdfrwt>
<totfact> 0.56478344E+00</totfact>
</mgrwt>
</event>
<event>
 4    1  0.2018023E-008  0.4253319E+04  0.7816531E-02  0.7955307E-01
          2   -1    0    0  501    0  0.00000000000E+00  0.00000000000E+00  0.33423429617E+04  0.33423429617E+04  0.00000000000E+00 0.  1.
         -2   -1    0    0    0  501 -0.00000000000E+00 -0.00000000000E+00 -0.13531467084E+04  0.13531467084E+04  0.00000000000E+00 0. -1.
    2000013    1    1    2    0    0  0.35739384824E+03 -0.18655220476E+04  0.11169210904E+04  0.23995657096E+04  0.95000000000E+03 0.  0.
   -2000013    1    1    2    0    0 -0.35739384824E+03  0.18655220476E+04  0.87227516293E+03  0.22959239605E+04  0.95000000000E+03 0.  0.
<mgrwt>
<rscale>  0 0.42533189E+04</rscale>
<asrwt>0</asrwt>
<pdfrwt beam="1">  1        2 0.51420661E+00 0.42533189E+04</pdfrwt>
<pdfrwt beam="2">  1       -2 0.20817642E+00 0.42533189E+04</pdfrwt>
<totfact> 0.94746329E-02</totfact>
</mgrwt>
</event>
<event>
 4    1  0.2018023E-008  0.2681660E+04  0.7816531E-02  0.8340980E-01
          2   -1    0    0  501    0  0.00000000000E+00  0.00000000000E+00  0.25043922434E+04  0.25043922434E+04  0.00000000000E+00 0.  1.
         -2   -1    0    0    0  501 -0.00000000000E+00 -0.00000000000E+00 -0.71786901846E+03  0.71786901846E+03  0.00000000000E+00 0. -1.
    2000013    1    1    2    0    0  0.83628684559E+03 -0.37574366214E+03  0.61206186965E+03  0.14552246287E+04  0.95000000000E+03 0.  0.
   -2000013    1    1    2    0    0 -0.83628684559E+03  0.37574366214E+03  0.11744613553E+04  0.17670366331E+04  0.95000000000E+03 0.  0.
<mgrwt>
<rscale>  0 0.26816604E+04</rscale>
<asrwt>0</asrwt>
<pdfrwt beam="1">  1        2 0.38529111E+00 0.26816604E+04</pdfrwt>
<pdfrwt beam="2">  1       -2 0.11044139E+00 0.26816604E+04</pdfrwt>
<totfact> 0.19779808E+00</totfact>
</mgrwt>
</event>
<event>
 4    1  0.2018023E-008  0.1976109E+04  0.7816531E-02  0.8617873E-01
         -2   -1    0    0    0  501 -0.00000000000E+00  0.00000000000E+00  0.23753997623E+03  0.23753997623E+03  0.00000000000E+00 0. -1.
          2   -1    0    0  501    0  0.00000000000E+00 -0.00000000000E+00 -0.41098422938E+04  0.41098422938E+04  0.00000000000E+00 0.  1.
    2000013    1    1    2    0    0  0.23789846867E+03  0.12286580682E+01 -0.22242939968E+04  0.24303458551E+04  0.95000000000E+03 0.  0.
   -2000013    1    1    2    0    0 -0.23789846867E+03 -0.12286580682E+01 -0.16480083207E+04  0.19170364149E+04  0.95000000000E+03 0.  0.
<mgrwt>
<rscale>  0 0.19761091E+04</rscale>
<asrwt>0</asrwt>
<pdfrwt beam="2">  1        2 0.63228341E+00 0.19761091E+04</pdfrwt>
<pdfrwt beam="1">  1       -2 0.36544613E-01 0.19761091E+04</pdfrwt>
<totfact> 0.18448043E+00</totfact>
</mgrwt>
</event>
<event>
 4    1  0.2018023E-008  0.2526032E+04  0.7816531E-02  0.8393770E-01
         -2   -1    0    0    0  501 -0.00000000000E+00  0.00000000000E+00  0.11240876250E+04  0.11240876250E+04  0.00000000000E+00 0. -1.
          2   -1    0    0  501    0  0.00000000000E+00 -0.00000000000E+00 -0.14191143259E+04  0.14191143259E+04  0.00000000000E+00 0.  1.
    2000013    1    1    2    0    0 -0.55823807400E+03  0.32932092253E+02  0.47311381225E+03  0.11996044970E+04  0.95000000000E+03 0.  0.
   -2000013    1    1    2    0    0  0.55823807400E+03 -0.32932092253E+02 -0.76814051316E+03  0.13435974538E+04  0.95000000000E+03 0.  0.
<mgrwt>
<rscale>  0 0.25260316E+04</rscale>
<asrwt>0</asrwt>
<pdfrwt beam="2">  1        2 0.21832528E+00 0.25260316E+04</pdfrwt>
<pdfrwt beam="1">  1       -2 0.17293656E+00 0.25260316E+04</pdfrwt>
<totfact> 0.25517042E+00</totfact>
</mgrwt>
</event>
<event>
 4    1  0.2018023E-008  0.3185878E+04  0.7816531E-02  0.8192557E-01
         -2   -1    0    0    0  501 -0.00000000000E+00  0.00000000000E+00  0.10849273960E+04  0.10849273960E+04  0.00000000000E+00 0. -1.
          2   -1    0    0  501    0  0.00000000000E+00 -0.00000000000E+00 -0.23388241839E+04  0.23388241839E+04  0.00000000000E+00 0.  1.
    2000013    1    1    2    0    0 -0.11626316518E+04  0.42855704127E+03 -0.28782228524E+03  0.15876760259E+04  0.95000000000E+03 0.  0.
   -2000013    1    1    2    0    0  0.11626316518E+04 -0.42855704127E+03 -0.96607450268E+03  0.18360755540E+04  0.95000000000E+03 0.  0.
<mgrwt>
<rscale>  0 0.31858779E+04</rscale>
<asrwt>0</asrwt>
<pdfrwt beam="2">  1        2 0.35981910E+00 0.31858779E+04</pdfrwt>
<pdfrwt beam="1">  1       -2 0.16691191E+00 0.31858779E+04</pdfrwt>
<totfact> 0.81459335E-01</totfact>
</mgrwt>
</event>
<event>
 4    1  0.2018023E-008  0.2767449E+04  0.7816531E-02  0.8313446E-01
         -4   -1    0    0    0  501 -0.00000000000E+00  0.00000000000E+00  0.11660021904E+04  0.11660021904E+04  0.00000000000E+00 0. -1.
          4   -1    0    0  501    0  0.00000000000E+00 -0.00000000000E+00 -0.16421015007E+04  0.16421015007E+04  0.00000000000E+00 0.  1.
    2000013    1    1    2    0    0  0.70823667581E+03 -0.17078211546E+03 -0.94209274054E+03  0.15234186725E+04  0.95000000000E+03 0.  0.
   -2000013    1    1    2    0    0 -0.70823667581E+03  0.17078211546E+03  0.46599343030E+03  0.12846850186E+04  0.95000000000E+03 0.  0.
<mgrwt>
<rscale>  0 0.27674493E+04</rscale>
<asrwt>0</asrwt>
<pdfrwt beam="2">  1        4 0.25263100E+00 0.27674493E+04</pdfrwt>
<pdfrwt beam="1">  1       -4 0.17938495E+00 0.27674493E+04</pdfrwt>
<totfact> 0.19165399E-02</totfact>
</mgrwt>
</event>
<event>
 4    1  0.2018023E-008  0.2903828E+04  0.7816531E-02  0.8271739E-01
          2   -1    0    0  501    0  0.00000000000E+00  0.00000000000E+00  0.18210079497E+04  0.18210079497E+04  0.00000000000E+00 0.  1.
         -2   -1    0    0    0  501 -0.00000000000E+00 -0.00000000000E+00 -0.11576305517E+04  0.11576305517E+04  0.00000000000E+00 0. -1.
    2000013    1    1    2    0    0  0.10930997809E+04  0.59806098192E+02  0.24519228647E+03  0.14700554948E+04  0.95000000000E+03 0.  0.
   -2000013    1    1    2    0    0 -0.10930997809E+04 -0.59806098192E+02  0.41818511148E+03  0.15085830066E+04  0.95000000000E+03 0.  0.
<mgrwt>
<rscale>  0 0.29038281E+04</rscale>
<asrwt>0</asrwt>
<pdfrwt beam="1">  1        2 0.28015507E+00 0.29038281E+04</pdfrwt>
<pdfrwt beam="2">  1       -2 0.17809701E+00 0.29038281E+04</pdfrwt>
<totfact> 0.13549221E+00</totfact>
</mgrwt>
</event>
<event>
 4    1  0.2018023E-008  0.2720982E+04  0.7816531E-02  0.8328229E-01
         -2   -1    0    0    0  501 -0.00000000000E+00  0.00000000000E+00  0.96136281423E+03  0.96136281423E+03  0.00000000000E+00 0. -1.
          2   -1    0    0  501    0  0.00000000000E+00 -0.00000000000E+00 -0.19253246020E+04  0.19253246020E+04  0.00000000000E+00 0.  1.
    2000013    1    1    2    0    0 -0.13346450466E+03  0.94738045059E+03 -0.28898765349E+03  0.13788967895E+04  0.95000000000E+03 0.  0.
   -2000013    1    1    2    0    0  0.13346450466E+03 -0.94738045059E+03 -0.67497413425E+03  0.15077906267E+04  0.95000000000E+03 0.  0.
<mgrwt>
<rscale>  0 0.27209818E+04</rscale>
<asrwt>0</asrwt>
<pdfrwt beam="2">  1        2 0.29620378E+00 0.27209818E+04</pdfrwt>
<pdfrwt beam="1">  1       -2 0.14790197E+00 0.27209818E+04</pdfrwt>
<totfact> 0.20025719E+00</totfact>
</mgrwt>
</event>
<event>
 4    1  0.2018023E-008  0.2526021E+04  0.7816531E-02  0.8393773E-01
         -2   -1    0    0    0  501 -0.00000000000E+00  0.00000000000E+00  0.85911289590E+03  0.85911289590E+03  0.00000000000E+00 0. -1.
          2   -1    0    0  501    0  0.00000000000E+00 -0.00000000000E+00 -0.18567944573E+04  0.18567944573E+04  0.00000000000E+00 0.  1.
    2000013    1    1    2    0    0  0.59866158915E+03 -0.45011614844E+03 -0.10866176167E+03  0.12146224203E+04  0.95000000000E+03 0.  0.
   -2000013    1    1    2    0    0 -0.59866158915E+03  0.45011614844E+03 -0.88901979970E+03  0.15012849329E+04  0.95000000000E+03 0.  0.
<mgrwt>
<rscale>  0 0.25260214E+04</rscale>
<asrwt>0</asrwt>
<pdfrwt beam="2">  1        2 0.28566068E+00 0.25260214E+04</pdfrwt>
<pdfrwt beam="1">  1       -2 0.13217122E+00 0.25260214E+04</pdfrwt>
<totfact> 0.29741520E+00</totfact>
</mgrwt>
</event>
<event>
 4    1  0.2018023E-008  0.2912696E+04  0.7816531E-02  0.8269110E-01
          2   -1    0    0  501    0  0.00000000000E+00  0.00000000000E+00  0.90492158205E+03  0.90492158205E+03  0.00000000000E+00 0.  1.
         -2   -1    0    0    0  501 -0.00000000000E+00 -0.00000000000E+00 -0.23437931447E+04  0.23437931447E+04  0.00000000000E+00 0. -1.
    2000013    1    1    2    0    0 -0.97368158781E+03 -0.41962257052E+03 -0.10619633164E+04  0.17760644756E+04  0.95000000000E+03 0.  0.
   -2000013    1    1    2    0    0  0.97368158781E+03  0.41962257052E+03 -0.37690824630E+03  0.14726502512E+04  0.95000000000E+03 0.  0.
<mgrwt>
<rscale>  0 0.29126957E+04</rscale>
<asrwt>0</asrwt>
<pdfrwt beam="1">  1        2 0.13921871E+00 0.29126957E+04</pdfrwt>
<pdfrwt beam="2">  1       -2 0.36058356E+00 0.29126957E+04</pdfrwt>
<totfact> 0.33440868E-01</totfact>
</mgrwt>
</event>
<event>
 4    1  0.2018023E-008  0.2119748E+04  0.7816531E-02  0.8552594E-01
          2   -1    0    0  501    0  0.00000000000E+00  0.00000000000E+00  0.17441559488E+04  0.17441559488E+04  0.00000000000E+00 0.  1.
         -2   -1    0    0    0  501 -0.00000000000E+00 -0.00000000000E+00 -0.64405535810E+03  0.64405535810E+03  0.00000000000E+00 0. -1.
    2000013    1    1    2    0    0 -0.36188228556E+03 -0.27613076476E+03  0.41853609978E+03  0.11335252334E+04  0.95000000000E+03 0.  0.
   -2000013    1    1    2    0    0  0.36188228556E+03  0.27613076476E+03  0.68156449094E+03  0.12546860736E+04  0.95000000000E+03 0.  0.
<mgrwt>
<rscale>  0 0.21197481E+04</rscale>
<asrwt>0</asrwt>
<pdfrwt beam="1">  1        2 0.26833168E+00 0.21197481E+04</pdfrwt>
<pdfrwt beam="2">  1       -2 0.99085440E-01 0.21197481E+04</pdfrwt>
<totfact> 0.71982762E+00</totfact>
</mgrwt>
</event>
<event>
 4    1  0.2018023E-008  0.2106985E+04  0.7816531E-02  0.8558173E-01
          2   -1    0    0  501    0  0.00000000000E+00  0.00000000000E+00  0.22683888424E+04  0.22683888424E+04  0.00000000000E+00 0.  1.
         -2   -1    0    0    0  501 -0.00000000000E+00 -0.00000000000E+00 -0.48926637845E+03  0.48926637845E+03  0.00000000000E+00 0. -1.
    2000013    1    1    2    0    0  0.53407106511E+02 -0.43423141250E+03  0.72433312204E+03  0.12722294252E+04  0.95000000000E+03 0.  0.
   -2000013    1    1    2    0    0 -0.53407106511E+02  0.43423141250E+03  0.10547893419E+04  0.14854257957E+04  0.95000000000E+03 0.  0.
<mgrwt>
<rscale>  0 0.21069849E+04</rscale>
<asrwt>0</asrwt>
<pdfrwt beam="1">  1        2 0.34898289E+00 0.21069849E+04</pdfrwt>
<pdfrwt beam="2">  1       -2 0.75271751E-01 0.21069849E+04</pdfrwt>
<totfact> 0.68927852E+00</totfact>
</mgrwt>
</event>
<event>
 4    1  0.2018023E-008  0.2902656E+04  0.7816531E-02  0.8272088E-01
          2   -1    0    0  501    0  0.00000000000E+00  0.00000000000E+00  0.64802945366E+03  0.64802945366E+03  0.00000000000E+00 0.  1.
         -2   -1    0    0    0  501 -0.00000000000E+00 -0.00000000000E+00 -0.32503979708E+04  0.32503979708E+04  0.00000000000E+00 0. -1.
    2000013    1    1    2    0    0  0.29108912917E+03 -0.10515935371E+04 -0.11464600451E+04  0.18459286236E+04  0.95000000000E+03 0.  0.
   -2000013    1    1    2    0    0 -0.29108912917E+03  0.10515935371E+04 -0.14559084721E+04  0.20524988008E+04  0.95000000000E+03 0.  0.
<mgrwt>
<rscale>  0 0.29026565E+04</rscale>
<asrwt>0</asrwt>
<pdfrwt beam="1">  1        2 0.99696841E-01 0.29026565E+04</pdfrwt>
<pdfrwt beam="2">  1       -2 0.50006122E+00 0.29026565E+04</pdfrwt>
<totfact> 0.63959149E-02</totfact>
</mgrwt>
</event>
<event>
 4    1  0.2018023E-008  0.2657271E+04  0.7816531E-02  0.8349004E-01
         -2   -1    0    0    0  501 -0.00000000000E+00  0.00000000000E+00  0.88640578670E+03  0.88640578670E+03  0.00000000000E+00 0. -1.
          2   -1    0    0  501    0  0.00000000000E+00 -0.00000000000E+00 -0.19914947355E+04  0.19914947355E+04  0.00000000000E+00 0.  1.
    2000013    1    1    2    0    0 -0.45082149860E+02 -0.92658946171E+03 -0.50206991746E+03  0.14195684671E+04  0.95000000000E+03 0.  0.
   -2000013    1    1    2    0    0  0.45082149860E+02  0.92658946171E+03 -0.60301903138E+03  0.14583320551E+04  0.95000000000E+03 0.  0.
<mgrwt>
<rscale>  0 0.26572711E+04</rscale>
<asrwt>0</asrwt>
<pdfrwt beam="2">  1        2 0.30638380E+00 0.26572711E+04</pdfrwt>
<pdfrwt beam="1">  1       -2 0.13637012E+00 0.26572711E+04</pdfrwt>
<totfact> 0.22862105E+00</totfact>
</mgrwt>
</event>
<event>
 4    1  0.2018023E-008  0.2748650E+04  0.7816531E-02  0.8319390E-01
          1   -1    0    0  501    0  0.00000000000E+00  0.00000000000E+00  0.12460864899E+04  0.12460864899E+04  0.00000000000E+00 0.  1.
         -1   -1    0    0    0  501 -0.00000000000E+00 -0.00000000000E+00 -0.15157610971E+04  0.15157610971E+04  0.00000000000E+00 0. -1.
    2000013    1    1    2    0    0  0.83264778931E+03 -0.41184747093E+03  0.21805940478E+03  0.13464659611E+04  0.95000000000E+03 0.  0.
   -2000013    1    1    2    0    0 -0.83264778931E+03  0.41184747093E+03 -0.48773401200E+03  0.14153816259E+04  0.95000000000E+03 0.  0.
<mgrwt>
<rscale>  0 0.27486502E+04</rscale>
<asrwt>0</asrwt>
<pdfrwt beam="1">  1        1 0.19170561E+00 0.27486502E+04</pdfrwt>
<pdfrwt beam="2">  1       -1 0.23319401E+00 0.27486502E+04</pdfrwt>
<totfact> 0.77321028E-01</totfact>
</mgrwt>
</event>
<event>
 4    1  0.2018023E-008  0.2601650E+04  0.7816531E-02  0.8367641E-01
          2   -1    0    0  501    0  0.00000000000E+00  0.00000000000E+00  0.49070296941E+04  0.49070296941E+04  0.00000000000E+00 0.  1.
         -2   -1    0    0    0  501 -0.00000000000E+00 -0.00000000000E+00 -0.34484123890E+03  0.34484123890E+03  0.00000000000E+00 0. -1.
    2000013    1    1    2    0    0 -0.66971141135E+03  0.16809832647E+03  0.34102427701E+04  0.36068027632E+04  0.95000000000E+03 0.  0.
   -2000013    1    1    2    0    0  0.66971141135E+03 -0.16809832647E+03  0.11519456852E+04  0.16450681698E+04  0.95000000000E+03 0.  0.
<mgrwt>
<rscale>  0 0.26016504E+04</rscale>
<asrwt>0</asrwt>
<pdfrwt beam="1">  1        2 0.75492760E+00 0.26016504E+04</pdfrwt>
<pdfrwt beam="2">  1       -2 0.53052502E-01 0.26016504E+04</pdfrwt>
<totfact> 0.13326963E-01</totfact>
</mgrwt>
</event>
<event>
 4    1  0.2018023E-008  0.4073782E+04  0.7816531E-02  0.7989826E-01
         -2   -1    0    0    0  501 -0.00000000000E+00  0.00000000000E+00  0.34373016720E+04  0.34373016720E+04  0.00000000000E+00 0. -1.
          2   -1    0    0  501    0  0.00000000000E+00 -0.00000000000E+00 -0.12070296595E+04  0.12070296595E+04  0.00000000000E+00 0.  1.
    2000013    1    1    2    0    0 -0.77183756217E+03  0.16200828248E+04  0.12990471874E+04  0.24104823536E+04  0.95000000000E+03 0.  0.
   -2000013    1    1    2    0    0  0.77183756217E+03 -0.16200828248E+04  0.93122482507E+03  0.22338489780E+04  0.95000000000E+03 0.  0.
<mgrwt>
<rscale>  0 0.40737821E+04</rscale>
<asrwt>0</asrwt>
<pdfrwt beam="2">  1        2 0.18569687E+00 0.40737821E+04</pdfrwt>
<pdfrwt beam="1">  1       -2 0.52881564E+00 0.40737821E+04</pdfrwt>
<totfact> 0.16381618E-02</totfact>
</mgrwt>
</event>
<event>
 4    1  0.2018023E-008  0.2335905E+04  0.7816531E-02  0.8463897E-01
         -2   -1    0    0    0  501 -0.00000000000E+00  0.00000000000E+00  0.44088237708E+03  0.44088237708E+03  0.00000000000E+00 0. -1.
          2   -1    0    0  501    0  0.00000000000E+00 -0.00000000000E+00 -0.30940528429E+04  0.30940528429E+04  0.00000000000E+00 0.  1.
    2000013    1    1    2    0    0  0.26213238912E+03 -0.54275208451E+03 -0.85207289018E+03  0.14113190372E+04  0.95000000000E+03 0.  0.
   -2000013    1    1    2    0    0 -0.26213238912E+03  0.54275208451E+03 -0.18010975756E+04  0.21236161827E+04  0.95000000000E+03 0.  0.
<mgrwt>
<rscale>  0 0.23359053E+04</rscale>
<asrwt>0</asrwt>
<pdfrwt beam="2">  1        2 0.47600814E+00 0.23359053E+04</pdfrwt>
<pdfrwt beam="1">  1       -2 0.67828057E-01 0.23359053E+04</pdfrwt>
<totfact> 0.27348800E+00</totfact>
</mgrwt>
</event>
<event>
 4    1  0.2018023E-008  0.2183795E+04  0.7816531E-02  0.8525203E-01
          2   -1    0    0  501    0  0.00000000000E+00  0.00000000000E+00  0.24156960396E+04  0.24156960396E+04  0.00000000000E+00 0.  1.
         -2   -1    0    0    0  501 -0.00000000000E+00 -0.00000000000E+00 -0.49353904070E+03  0.49353904070E+03  0.00000000000E+00 0. -1.
    2000013    1    1    2    0    0 -0.46416365194E+03  0.15354076386E+03  0.66106109059E+03  0.12563934206E+04  0.95000000000E+03 0.  0.
   -2000013    1    1    2    0    0  0.46416365194E+03 -0.15354076386E+03  0.12610959083E+04  0.16528416597E+04  0.95000000000E+03 0.  0.
<mgrwt>
<rscale>  0 0.21837951E+04</rscale>
<asrwt>0</asrwt>
<pdfrwt beam="1">  1        2 0.37164554E+00 0.21837951E+04</pdfrwt>
<pdfrwt beam="2">  1       -2 0.75929085E-01 0.21837951E+04</pdfrwt>
<totfact> 0.55374176E+00</totfact>
</mgrwt>
</event>
<event>
 4    1  0.2018023E-008  0.3396377E+04  0.7816531E-02  0.8138796E-01
         -2   -1    0    0    0  501 -0.00000000000E+00  0.00000000000E+00  0.18474027499E+04  0.18474027499E+04  0.00000000000E+00 0. -1.
          2   -1    0    0  501    0  0.00000000000E+00 -0.00000000000E+00 -0.15610263499E+04  0.15610263499E+04  0.00000000000E+00 0.  1.
    2000013    1    1    2    0    0 -0.19114281747E+03  0.13001905392E+04 -0.36289619252E+03  0.16616933115E+04  0.95000000000E+03 0.  0.
   -2000013    1    1    2    0    0  0.19114281747E+03 -0.13001905392E+04  0.64927259249E+03  0.17467357883E+04  0.95000000000E+03 0.  0.
<mgrwt>
<rscale>  0 0.33963771E+04</rscale>
<asrwt>0</asrwt>
<pdfrwt beam="2">  1        2 0.24015790E+00 0.33963771E+04</pdfrwt>
<pdfrwt beam="1">  1       -2 0.28421581E+00 0.33963771E+04</pdfrwt>
<totfact> 0.38571518E-01</totfact>
</mgrwt>
</event>
<event>
 4    1  0.2018023E-008  0.4943065E+04  0.7816531E-02  0.7837350E-01
         -2   -1    0    0    0  501 -0.00000000000E+00  0.00000000000E+00  0.16905243287E+04  0.16905243287E+04  0.00000000000E+00 0. -1.
          2   -1    0    0  501    0  0.00000000000E+00 -0.00000000000E+00 -0.36133604378E+04  0.36133604378E+04  0.00000000000E+00 0.  1.
    2000013    1    1    2    0    0  0.20677751840E+04 -0.90158364980E+03 -0.13291070864E+04  0.27852419888E+04  0.95000000000E+03 0.  0.
   -2000013    1    1    2    0    0 -0.20677751840E+04  0.90158364980E+03 -0.59372902269E+03  0.25186427777E+04  0.95000000000E+03 0.  0.
<mgrwt>
<rscale>  0 0.49430653E+04</rscale>
<asrwt>0</asrwt>
<pdfrwt beam="2">  1        2 0.55590160E+00 0.49430653E+04</pdfrwt>
<pdfrwt beam="1">  1       -2 0.26008067E+00 0.49430653E+04</pdfrwt>
<totfact> 0.27453313E-02</totfact>
</mgrwt>
</event>
<event>
 4    1  0.2018023E-008  0.3075021E+04  0.7816531E-02  0.8222627E-01
         -2   -1    0    0    0  501 -0.00000000000E+00  0.00000000000E+00  0.20892095722E+04  0.20892095722E+04  0.00000000000E+00 0. -1.
          2   -1    0    0  501    0  0.00000000000E+00 -0.00000000000E+00 -0.11314986529E+04  0.11314986529E+04  0.00000000000E+00 0.  1.
    2000013    1    1    2    0    0  0.55194036187E+03  0.10495780102E+04  0.72490154465E+03  0.16835184621E+04  0.95000000000E+03 0.  0.
   -2000013    1    1    2    0    0 -0.55194036187E+03 -0.10495780102E+04  0.23280937465E+03  0.15371897630E+04  0.95000000000E+03 0.  0.
<mgrwt>
<rscale>  0 0.30750205E+04</rscale>
<asrwt>0</asrwt>
<pdfrwt beam="2">  1        2 0.17407672E+00 0.30750205E+04</pdfrwt>
<pdfrwt beam="1">  1       -2 0.32141686E+00 0.30750205E+04</pdfrwt>
<totfact> 0.41590793E-01</totfact>
</mgrwt>
</event>
<event>
 4    1  0.2018023E-008  0.1987256E+04  0.7816531E-02  0.8612602E-01
         -2   -1    0    0    0  501 -0.00000000000E+00  0.00000000000E+00  0.66571411063E+03  0.66571411063E+03  0.00000000000E+00 0. -1.
          2   -1    0    0  501    0  0.00000000000E+00 -0.00000000000E+00 -0.14830636361E+04  0.14830636361E+04  0.00000000000E+00 0.  1.
    2000013    1    1    2    0    0 -0.88091481883E+02  0.24414933945E+03 -0.55141742194E+03  0.11286851564E+04  0.95000000000E+03 0.  0.
   -2000013    1    1    2    0    0  0.88091481883E+02 -0.24414933945E+03 -0.26593210356E+03  0.10200925903E+04  0.95000000000E+03 0.  0.
<mgrwt>
<rscale>  0 0.19872558E+04</rscale>
<asrwt>0</asrwt>
<pdfrwt beam="2">  1        2 0.22816364E+00 0.19872558E+04</pdfrwt>
<pdfrwt beam="1">  1       -2 0.10241756E+00 0.19872558E+04</pdfrwt>
<totfact> 0.94183638E+00</totfact>
</mgrwt>
</event>
<event>
 4    1  0.2018023E-008  0.2458387E+04  0.7816531E-02  0.8417962E-01
          2   -1    0    0  501    0  0.00000000000E+00  0.00000000000E+00  0.12225003269E+04  0.12225003269E+04  0.00000000000E+00 0.  1.
         -2   -1    0    0    0  501 -0.00000000000E+00 -0.00000000000E+00 -0.12359232650E+04  0.12359232650E+04  0.00000000000E+00 0. -1.
    2000013    1    1    2    0    0  0.54312047519E+03 -0.29197540285E+03  0.47098499509E+03  0.12266035839E+04  0.95000000000E+03 0.  0.
   -2000013    1    1    2    0    0 -0.54312047519E+03  0.29197540285E+03 -0.48440793316E+03  0.12318200080E+04  0.95000000000E+03 0.  0.
<mgrwt>
<rscale>  0 0.24583869E+04</rscale>
<asrwt>0</asrwt>
<pdfrwt beam="1">  1        2 0.18807697E+00 0.24583869E+04</pdfrwt>
<pdfrwt beam="2">  1       -2 0.19014204E+00 0.24583869E+04</pdfrwt>
<totfact> 0.25418134E+00</totfact>
</mgrwt>
</event>
<event>
 4    1  0.2018023E-008  0.2508090E+04  0.7816531E-02  0.8400109E-01
          2   -1    0    0  501    0  0.00000000000E+00  0.00000000000E+00  0.17132354866E+04  0.17132354866E+04  0.00000000000E+00 0.  1.
         -2   -1    0    0    0  501 -0.00000000000E+00 -0.00000000000E+00 -0.91792893976E+03  0.91792893976E+03  0.00000000000E+00 0. -1.
    2000013    1    1    2    0    0 -0.55178390374E+03 -0.58702534572E+03  0.24539621858E+03  0.12695603716E+04  0.95000000000E+03 0.  0.
   -2000013    1    1    2    0    0  0.55178390374E+03  0.58702534572E+03  0.54991032827E+03  0.13616040548E+04  0.95000000000E+03 0.  0.
<mgrwt>
<rscale>  0 0.25080897E+04</rscale>
<asrwt>0</asrwt>
<pdfrwt beam="1">  1        2 0.26357469E+00 0.25080897E+04</pdfrwt>
<pdfrwt beam="2">  1       -2 0.14121984E+00 0.25080897E+04</pdfrwt>
<totfact> 0.30180310E+00</totfact>
</mgrwt>
</event>
<event>
 4    1  0.2018023E-008  0.2143693E+04  0.7816531E-02  0.8542237E-01
         -2   -1    0    0    0  501 -0.00000000000E+00  0.00000000000E+00  0.92528769620E+03  0.92528769620E+03  0.00000000000E+00 0. -1.
          2   -1    0    0  501    0  0.00000000000E+00 -0.00000000000E+00 -0.12416186635E+04  0.12416186635E+04  0.00000000000E+00 0.  1.
    2000013    1    1    2    0    0  0.40026015051E+03 -0.10480878091E+03  0.11895911746E+03  0.10429977662E+04  0.95000000000E+03 0.  0.
   -2000013    1    1    2    0    0 -0.40026015051E+03  0.10480878091E+03 -0.43529008472E+03  0.11239085935E+04  0.95000000000E+03 0.  0.
<mgrwt>
<rscale>  0 0.21436926E+04</rscale>
<asrwt>0</asrwt>
<pdfrwt beam="2">  1        2 0.19101826E+00 0.21436926E+04</pdfrwt>
<pdfrwt beam="1">  1       -2 0.14235195E+00 0.21436926E+04</pdfrwt>
<totfact> 0.56503441E+00</totfact>
</mgrwt>
</event>
<event>
 4    1  0.2018023E-008  0.3036513E+04  0.7816531E-02  0.8233381E-01
          2   -1    0    0  501    0  0.00000000000E+00  0.00000000000E+00  0.20645043517E+04  0.20645043517E+04  0.00000000000E+00 0.  1.
         -2   -1    0    0    0  501 -0.00000000000E+00 -0.00000000000E+00 -0.11165402323E+04  0.11165402323E+04  0.00000000000E+00 0. -1.
    2000013    1    1    2    0    0  0.60015844418E+03 -0.10073241686E+04  0.64836868233E+03  0.16424902091E+04  0.95000000000E+03 0.  0.
   -2000013    1    1    2    0    0 -0.60015844418E+03  0.10073241686E+04  0.29959543701E+03  0.15385543749E+04  0.95000000000E+03 0.  0.
<mgrwt>
<rscale>  0 0.30365126E+04</rscale>
<asrwt>0</asrwt>
<pdfrwt beam="1">  1        2 0.31761605E+00 0.30365126E+04</pdfrwt>
<pdfrwt beam="2">  1       -2 0.17177542E+00 0.30365126E+04</pdfrwt>
<totfact> 0.10868213E+00</totfact>
</mgrwt>
</event>
<event>
 4    1  0.2018023E-008  0.2497354E+04  0.7816531E-02  0.8403929E-01
          1   -1    0    0  501    0  0.00000000000E+00  0.00000000000E+00  0.15193421723E+04  0.15193421723E+04  0.00000000000E+00 0.  1.
         -1   -1    0    0    0  501 -0.00000000000E+00 -0.00000000000E+00 -0.10262294800E+04  0.10262294800E+04  0.00000000000E+00 0. -1.
    2000013    1    1    2    0    0 -0.19560673545E+03 -0.67178991915E+03 -0.17015233261E+03  0.11920635498E+04  0.95000000000E+03 0.  0.
   -2000013    1    1    2    0    0  0.19560673545E+03  0.67178991915E+03  0.66326502484E+03  0.13535081025E+04  0.95000000000E+03 0.  0.
<mgrwt>
<rscale>  0 0.24973536E+04</rscale>
<asrwt>0</asrwt>
<pdfrwt beam="1">  1        1 0.23374495E+00 0.24973536E+04</pdfrwt>
<pdfrwt beam="2">  1       -1 0.15788146E+00 0.24973536E+04</pdfrwt>
<totfact> 0.17095056E+00</totfact>
</mgrwt>
</event>
<event>
 4    1  0.2018023E-008  0.2314032E+04  0.7816531E-02  0.8472409E-01
          2   -1    0    0  501    0  0.00000000000E+00  0.00000000000E+00  0.22814845682E+04  0.22814845682E+04  0.00000000000E+00 0.  1.
         -2   -1    0    0    0  501 -0.00000000000E+00 -0.00000000000E+00 -0.58676097238E+03  0.58676097238E+03  0.00000000000E+00 0. -1.
    2000013    1    1    2    0    0  0.36568480585E+03  0.52197570063E+03  0.63266639730E+03  0.13072684420E+04  0.95000000000E+03 0.  0.
   -2000013    1    1    2    0    0 -0.36568480585E+03 -0.52197570063E+03  0.10620571986E+04  0.15609770986E+04  0.95000000000E+03 0.  0.
<mgrwt>
<rscale>  0 0.23140321E+04</rscale>
<asrwt>0</asrwt>
<pdfrwt beam="1">  1        2 0.35099762E+00 0.23140321E+04</pdfrwt>
<pdfrwt beam="2">  1       -2 0.90270920E-01 0.23140321E+04</pdfrwt>
<totfact> 0.44136224E+00</totfact>
</mgrwt>
</event>
<event>
 4    1  0.2018023E-008  0.2527984E+04  0.7816531E-02  0.8393084E-01
         -1   -1    0    0    0  501 -0.00000000000E+00  0.00000000000E+00  0.75572603135E+03  0.75572603135E+03  0.00000000000E+00 0.  1.
          1   -1    0    0  501    0  0.00000000000E+00 -0.00000000000E+00 -0.21140932252E+04  0.21140932252E+04  0.00000000000E+00 0. -1.
    2000013    1    1    2    0    0 -0.59607364501E+03  0.19929316903E+03 -0.57238339388E+02  0.11405252233E+04  0.95000000000E+03 0.  0.
   -2000013    1    1    2    0    0  0.59607364501E+03 -0.19929316903E+03 -0.13011288545E+04  0.17292940332E+04  0.95000000000E+03 0.  0.
<mgrwt>
<rscale>  0 0.25279836E+04</rscale>
<asrwt>0</asrwt>
<pdfrwt beam="2">  1        1 0.32524511E+00 0.25279836E+04</pdfrwt>
<pdfrwt beam="1">  1       -1 0.11626554E+00 0.25279836E+04</pdfrwt>
<totfact> 0.14766799E+00</totfact>
</mgrwt>
</event>
<event>
 4    1  0.2018023E-008  0.2588911E+04  0.7816531E-02  0.8371978E-01
          2   -1    0    0  501    0  0.00000000000E+00  0.00000000000E+00  0.31492121748E+04  0.31492121748E+04  0.00000000000E+00 0.  1.
         -2   -1    0    0    0  501 -0.00000000000E+00 -0.00000000000E+00 -0.53207434702E+03  0.53207434702E+03  0.00000000000E+00 0. -1.
    2000013    1    1    2    0    0 -0.73491533338E+03  0.47639984760E+03  0.11978977253E+04  0.17619637687E+04  0.95000000000E+03 0.  0.
   -2000013    1    1    2    0    0  0.73491533338E+03 -0.47639984760E+03  0.14192401024E+04  0.19193227530E+04  0.95000000000E+03 0.  0.
<mgrwt>
<rscale>  0 0.25889110E+04</rscale>
<asrwt>0</asrwt>
<pdfrwt beam="1">  1        2 0.48449417E+00 0.25889110E+04</pdfrwt>
<pdfrwt beam="2">  1       -2 0.81857594E-01 0.25889110E+04</pdfrwt>
<totfact> 0.16260378E+00</totfact>
</mgrwt>
</event>
<event>
 4    1  0.2018023E-008  0.2191453E+04  0.7816531E-02  0.8521994E-01
          2   -1    0    0  501    0  0.00000000000E+00  0.00000000000E+00  0.96220595634E+03  0.96220595634E+03  0.00000000000E+00 0.  1.
         -2   -1    0    0    0  501 -0.00000000000E+00 -0.00000000000E+00 -0.12477746909E+04  0.12477746909E+04  0.00000000000E+00 0. -1.
    2000013    1    1    2    0    0  0.51173761024E+03  0.65130081181E+02  0.37610468308E+02  0.10816801082E+04  0.95000000000E+03 0.  0.
   -2000013    1    1    2    0    0 -0.51173761024E+03 -0.65130081181E+02 -0.32317920289E+03  0.11283005390E+04  0.95000000000E+03 0.  0.
<mgrwt>
<rscale>  0 0.21914527E+04</rscale>
<asrwt>0</asrwt>
<pdfrwt beam="1">  1        2 0.14803169E+00 0.21914527E+04</pdfrwt>
<pdfrwt beam="2">  1       -2 0.19196534E+00 0.21914527E+04</pdfrwt>
<totfact> 0.36648943E+00</totfact>
</mgrwt>
</event>
<event>
 4    1  0.2018023E-008  0.2394775E+04  0.7816531E-02  0.8441462E-01
          2   -1    0    0  501    0  0.00000000000E+00  0.00000000000E+00  0.24529966623E+04  0.24529966623E+04  0.00000000000E+00 0.  1.
         -2   -1    0    0    0  501 -0.00000000000E+00 -0.00000000000E+00 -0.58448386796E+03  0.58448386796E+03  0.00000000000E+00 0. -1.
    2000013    1    1    2    0    0 -0.32064344911E+03  0.25290666055E+03  0.16852673078E+03  0.10476999854E+04  0.95000000000E+03 0.  0.
   -2000013    1    1    2    0    0  0.32064344911E+03 -0.25290666055E+03  0.16999860636E+04  0.19897805449E+04  0.95000000000E+03 0.  0.
<mgrwt>
<rscale>  0 0.23947751E+04</rscale>
<asrwt>0</asrwt>
<pdfrwt beam="1">  1        2 0.37738410E+00 0.23947751E+04</pdfrwt>
<pdfrwt beam="2">  1       -2 0.89920596E-01 0.23947751E+04</pdfrwt>
<totfact> 0.35301584E+00</totfact>
</mgrwt>
</event>
<event>
 4    1  0.2018023E-008  0.2922475E+04  0.7816531E-02  0.8266222E-01
         -1   -1    0    0    0  501 -0.00000000000E+00  0.00000000000E+00  0.59583609476E+03  0.59583609476E+03  0.00000000000E+00 0. -1.
          1   -1    0    0  501    0  0.00000000000E+00 -0.00000000000E+00 -0.35835609425E+04  0.35835609425E+04  0.00000000000E+00 0.  1.
    2000013    1    1    2    0    0  0.96507269540E+03 -0.16972889399E+03 -0.22404475877E+04  0.26234097275E+04  0.95000000000E+03 0.  0.
   -2000013    1    1    2    0    0 -0.96507269540E+03  0.16972889399E+03 -0.74727726003E+03  0.15559873098E+04  0.95000000000E+03 0.  0.
<mgrwt>
<rscale>  0 0.29224749E+04</rscale>
<asrwt>0</asrwt>
<pdfrwt beam="2">  1        1 0.55131706E+00 0.29224749E+04</pdfrwt>
<pdfrwt beam="1">  1       -1 0.91667093E-01 0.29224749E+04</pdfrwt>
<totfact> 0.21293106E-01</totfact>
</mgrwt>
</event>
<event>
 4    1  0.2018023E-008  0.2535714E+04  0.7816531E-02  0.8390372E-01
          2   -1    0    0  501    0  0.00000000000E+00  0.00000000000E+00  0.22298856631E+04  0.22298856631E+04  0.00000000000E+00 0.  1.
         -2   -1    0    0    0  501 -0.00000000000E+00 -0.00000000000E+00 -0.72087148743E+03  0.72087148743E+03  0.00000000000E+00 0. -1.
    2000013    1    1    2    0    0 -0.18936903259E+02 -0.38235258250E+03 -0.11507265288E+03  0.10306763891E+04  0.95000000000E+03 0.  0.
   -2000013    1    1    2    0    0  0.18936903259E+02  0.38235258250E+03  0.16240868285E+04  0.19200807614E+04  0.95000000000E+03 0.  0.
<mgrwt>
<rscale>  0 0.25357137E+04</rscale>
<asrwt>0</asrwt>
<pdfrwt beam="1">  1        2 0.34305933E+00 0.25357137E+04</pdfrwt>
<pdfrwt beam="2">  1       -2 0.11090331E+00 0.25357137E+04</pdfrwt>
<totfact> 0.28448712E+00</totfact>
</mgrwt>
</event>
<event>
 4    1  0.2018023E-008  0.2400793E+04  0.7816531E-02  0.8439207E-01
          2   -1    0    0  501    0  0.00000000000E+00  0.00000000000E+00  0.76437652645E+03  0.76437652645E+03  0.00000000000E+00 0.  1.
         -2   -1    0    0    0  501 -0.00000000000E+00 -0.00000000000E+00 -0.18851331362E+04  0.18851331362E+04  0.00000000000E+00 0. -1.
    2000013    1    1    2    0    0  0.38532417420E+03  0.55501732906E+03 -0.24448596136E+03  0.11911306982E+04  0.95000000000E+03 0.  0.
   -2000013    1    1    2    0    0 -0.38532417420E+03 -0.55501732906E+03 -0.87627064835E+03  0.14583789645E+04  0.95000000000E+03 0.  0.
<mgrwt>
<rscale>  0 0.24007928E+04</rscale>
<asrwt>0</asrwt>
<pdfrwt beam="1">  1        2 0.11759639E+00 0.24007928E+04</pdfrwt>
<pdfrwt beam="2">  1       -2 0.29002048E+00 0.24007928E+04</pdfrwt>
<totfact> 0.12034483E+00</totfact>
</mgrwt>
</event>
<event>
 4    1  0.2018023E-008  0.3055171E+04  0.7816531E-02  0.8228150E-01
         -2   -1    0    0    0  501 -0.00000000000E+00  0.00000000000E+00  0.16960783844E+04  0.16960783844E+04  0.00000000000E+00 0.  1.
          2   -1    0    0  501    0  0.00000000000E+00 -0.00000000000E+00 -0.13758312424E+04  0.13758312424E+04  0.00000000000E+00 0. -1.
    2000013    1    1    2    0    0 -0.26689462635E+03 -0.11319214029E+04  0.44190677361E+03  0.15653307639E+04  0.95000000000E+03 0.  0.
   -2000013    1    1    2    0    0  0.26689462635E+03  0.11319214029E+04 -0.12165963157E+03  0.15065788628E+04  0.95000000000E+03 0.  0.
<mgrwt>
<rscale>  0 0.30551711E+04</rscale>
<asrwt>0</asrwt>
<pdfrwt beam="2">  1        2 0.21166635E+00 0.30551711E+04</pdfrwt>
<pdfrwt beam="1">  1       -2 0.26093514E+00 0.30551711E+04</pdfrwt>
<totfact> 0.70102909E-01</totfact>
</mgrwt>
</event>
<event>
 4    1  0.2018023E-008  0.2863065E+04  0.7816531E-02  0.8283952E-01
         -2   -1    0    0    0  501 -0.00000000000E+00  0.00000000000E+00  0.47410475203E+03  0.47410475203E+03  0.00000000000E+00 0. -1.
          2   -1    0    0  501    0  0.00000000000E+00 -0.00000000000E+00 -0.43224318030E+04  0.43224318030E+04  0.00000000000E+00 0.  1.
    2000013    1    1    2    0    0  0.52968754969E+03  0.24036114510E+03 -0.34304974505E+04  0.36068206413E+04  0.95000000000E+03 0.  0.
   -2000013    1    1    2    0    0 -0.52968754969E+03 -0.24036114510E+03 -0.41782960044E+03  0.11897159137E+04  0.95000000000E+03 0.  0.
<mgrwt>
<rscale>  0 0.28630651E+04</rscale>
<asrwt>0</asrwt>
<pdfrwt beam="2">  1        2 0.66498954E+00 0.28630651E+04</pdfrwt>
<pdfrwt beam="1">  1       -2 0.72939189E-01 0.28630651E+04</pdfrwt>
<totfact> 0.26628629E-01</totfact>
</mgrwt>
</event>
<event>
 4    1  0.2018023E-008  0.2413711E+04  0.7816531E-02  0.8434388E-01
          2   -1    0    0  501    0  0.00000000000E+00  0.00000000000E+00  0.25829327404E+04  0.25829327404E+04  0.00000000000E+00 0.  1.
         -2   -1    0    0    0  501 -0.00000000000E+00 -0.00000000000E+00 -0.56389377978E+03  0.56389377978E+03  0.00000000000E+00 0. -1.
    2000013    1    1    2    0    0 -0.69690865790E+03  0.20279976540E+03  0.79454125464E+03  0.14354808350E+04  0.95000000000E+03 0.  0.
   -2000013    1    1    2    0    0  0.69690865790E+03 -0.20279976540E+03  0.12244977060E+04  0.17113456852E+04  0.95000000000E+03 0.  0.
<mgrwt>
<rscale>  0 0.24137106E+04</rscale>
<asrwt>0</asrwt>
<pdfrwt beam="1">  1        2 0.39737426E+00 0.24137106E+04</pdfrwt>
<pdfrwt beam="2">  1       -2 0.86752891E-01 0.24137106E+04</pdfrwt>
<totfact> 0.32166265E+00</totfact>
</mgrwt>
</event>
<event>
 4    1  0.2018023E-008  0.3808609E+04  0.7816531E-02  0.8044310E-01
         -1   -1    0    0    0  501 -0.00000000000E+00  0.00000000000E+00  0.12822352779E+04  0.12822352779E+04  0.00000000000E+00 0. -1.
          1   -1    0    0  501    0  0.00000000000E+00 -0.00000000000E+00 -0.28281677260E+04  0.28281677260E+04  0.00000000000E+00 0.  1.
    2000013    1    1    2    0    0 -0.14287243349E+03  0.11948612054E+04  0.44603533610E+03  0.15967320857E+04  0.95000000000E+03 0.  0.
   -2000013    1    1    2    0    0  0.14287243349E+03 -0.11948612054E+04 -0.19919677842E+04  0.25136709183E+04  0.95000000000E+03 0.  0.
<mgrwt>
<rscale>  0 0.38086094E+04</rscale>
<asrwt>0</asrwt>
<pdfrwt beam="2">  1        1 0.43510272E+00 0.38086094E+04</pdfrwt>
<pdfrwt beam="1">  1       -1 0.19726697E+00 0.38086094E+04</pdfrwt>
<totfact> 0.99414595E-02</totfact>
</mgrwt>
</event>
<event>
 4    1  0.2018023E-008  0.2528472E+04  0.7816531E-02  0.8392912E-01
          2   -1    0    0  501    0  0.00000000000E+00  0.00000000000E+00  0.12007657347E+04  0.12007657347E+04  0.00000000000E+00 0.  1.
         -2   -1    0    0    0  501 -0.00000000000E+00 -0.00000000000E+00 -0.13310615357E+04  0.13310615357E+04  0.00000000000E+00 0. -1.
    2000013    1    1    2    0    0  0.25454599721E+03 -0.79430221068E+03 -0.74293269716E+02  0.12663842847E+04  0.95000000000E+03 0.  0.
   -2000013    1    1    2    0    0 -0.25454599721E+03  0.79430221068E+03 -0.56002531211E+02  0.12654429857E+04  0.95000000000E+03 0.  0.
<mgrwt>
<rscale>  0 0.25284723E+04</rscale>
<asrwt>0</asrwt>
<pdfrwt beam="1">  1        2 0.18473319E+00 0.25284723E+04</pdfrwt>
<pdfrwt beam="2">  1       -2 0.20477870E+00 0.25284723E+04</pdfrwt>
<totfact> 0.20836679E+00</totfact>
</mgrwt>
</event>
<event>
 4    1  0.2018023E-008  0.2295672E+04  0.7816531E-02  0.8479630E-01
          1   -1    0    0  501    0  0.00000000000E+00  0.00000000000E+00  0.90263448215E+03  0.90263448215E+03  0.00000000000E+00 0.  1.
         -1   -1    0    0    0  501 -0.00000000000E+00 -0.00000000000E+00 -0.14596462713E+04  0.14596462713E+04  0.00000000000E+00 0. -1.
    2000013    1    1    2    0    0 -0.49966800609E+03 -0.40231464675E+03 -0.33939946476E+03  0.11954987194E+04  0.95000000000E+03 0.  0.
   -2000013    1    1    2    0    0  0.49966800609E+03  0.40231464675E+03 -0.21761232434E+03  0.11667820341E+04  0.95000000000E+03 0.  0.
<mgrwt>
<rscale>  0 0.22956716E+04</rscale>
<asrwt>0</asrwt>
<pdfrwt beam="1">  1        1 0.13886684E+00 0.22956716E+04</pdfrwt>
<pdfrwt beam="2">  1       -1 0.22456096E+00 0.22956716E+04</pdfrwt>
<totfact> 0.16794723E+00</totfact>
</mgrwt>
</event>
<event>
 4    1  0.2018023E-008  0.2689299E+04  0.7816531E-02  0.8338485E-01
          2   -1    0    0  501    0  0.00000000000E+00  0.00000000000E+00  0.83483582621E+03  0.83483582621E+03  0.00000000000E+00 0.  1.
         -2   -1    0    0    0  501 -0.00000000000E+00 -0.00000000000E+00 -0.21657943430E+04  0.21657943430E+04  0.00000000000E+00 0. -1.
    2000013    1    1    2    0    0 -0.12098578350E+03  0.77508217157E+03 -0.12665375999E+04  0.17669203220E+04  0.95000000000E+03 0.  0.
   -2000013    1    1    2    0    0  0.12098578350E+03 -0.77508217157E+03 -0.64420916909E+02  0.12337098472E+04  0.95000000000E+03 0.  0.
<mgrwt>
<rscale>  0 0.26892993E+04</rscale>
<asrwt>0</asrwt>
<pdfrwt beam="1">  1        2 0.12843628E+00 0.26892993E+04</pdfrwt>
<pdfrwt beam="2">  1       -2 0.33319912E+00 0.26892993E+04</pdfrwt>
<totfact> 0.56636842E-01</totfact>
</mgrwt>
</event>
<event>
 4    1  0.2018023E-008  0.2806417E+04  0.7816531E-02  0.8301279E-01
         -2   -1    0    0    0  501 -0.00000000000E+00  0.00000000000E+00  0.11236060432E+04  0.11236060432E+04  0.00000000000E+00 0. -1.
          2   -1    0    0  501    0  0.00000000000E+00 -0.00000000000E+00 -0.17523884834E+04  0.17523884834E+04  0.00000000000E+00 0.  1.
    2000013    1    1    2    0    0 -0.23538515659E+03  0.72132294949E+03  0.40353504740E+03  0.12810361056E+04  0.95000000000E+03 0.  0.
   -2000013    1    1    2    0    0  0.23538515659E+03 -0.72132294949E+03 -0.10323174876E+04  0.15949584209E+04  0.95000000000E+03 0.  0.
<mgrwt>
<rscale>  0 0.28064171E+04</rscale>
<asrwt>0</asrwt>
<pdfrwt beam="2">  1        2 0.26959823E+00 0.28064171E+04</pdfrwt>
<pdfrwt beam="1">  1       -2 0.17286247E+00 0.28064171E+04</pdfrwt>
<totfact> 0.16225581E+00</totfact>
</mgrwt>
</event>
<event>
 4    1  0.2018023E-008  0.2293031E+04  0.7816531E-02  0.8480674E-01
          2   -1    0    0  501    0  0.00000000000E+00  0.00000000000E+00  0.15966107441E+04  0.15966107441E+04  0.00000000000E+00 0. -1.
         -2   -1    0    0    0  501 -0.00000000000E+00 -0.00000000000E+00 -0.82330502320E+03  0.82330502320E+03  0.00000000000E+00 0.  1.
    2000013    1    1    2    0    0 -0.59654927984E+03 -0.16801704985E+03  0.56291868336E+03  0.12662852034E+04  0.95000000000E+03 0.  0.
   -2000013    1    1    2    0    0  0.59654927984E+03  0.16801704985E+03  0.21038703753E+03  0.11536305639E+04  0.95000000000E+03 0.  0.
<mgrwt>
<rscale>  0 0.22930309E+04</rscale>
<asrwt>0</asrwt>
<pdfrwt beam="1">  1        2 0.24563242E+00 0.22930309E+04</pdfrwt>
<pdfrwt beam="2">  1       -2 0.12666231E+00 0.22930309E+04</pdfrwt>
<totfact> 0.47132559E+00</totfact>
</mgrwt>
</event>
<event>
 4    1  0.2018023E-008  0.3073190E+04  0.7816531E-02  0.8223134E-01
          2   -1    0    0  501    0  0.00000000000E+00  0.00000000000E+00  0.33653630888E+04  0.33653630888E+04  0.00000000000E+00 0.  1.
         -2   -1    0    0    0  501 -0.00000000000E+00 -0.00000000000E+00 -0.70159553831E+03  0.70159553831E+03  0.00000000000E+00 0. -1.
    2000013    1    1    2    0    0  0.72689683701E+03  0.87211272579E+03  0.18769827651E+04  0.23905070422E+04  0.95000000000E+03 0.  0.
   -2000013    1    1    2    0    0 -0.72689683701E+03 -0.87211272579E+03  0.78678478535E+03  0.16764515849E+04  0.95000000000E+03 0.  0.
<mgrwt>
<rscale>  0 0.30731897E+04</rscale>
<asrwt>0</asrwt>
<pdfrwt beam="1">  1        2 0.51774816E+00 0.30731897E+04</pdfrwt>
<pdfrwt beam="2">  1       -2 0.10793778E+00 0.30731897E+04</pdfrwt>
<totfact> 0.58855697E-01</totfact>
</mgrwt>
</event>
<event>
 4    1  0.2018023E-008  0.3141867E+04  0.7816531E-02  0.8204341E-01
          2   -1    0    0  501    0  0.00000000000E+00  0.00000000000E+00  0.10239127817E+04  0.10239127817E+04  0.00000000000E+00 0. -1.
         -2   -1    0    0    0  501 -0.00000000000E+00 -0.00000000000E+00 -0.24101977044E+04  0.24101977044E+04  0.00000000000E+00 0.  1.
    2000013    1    1    2    0    0 -0.96694615896E+03 -0.71992326879E+03 -0.10590299774E+04  0.18647570566E+04  0.95000000000E+03 0.  0.
   -2000013    1    1    2    0    0  0.96694615896E+03  0.71992326879E+03 -0.32725494536E+03  0.15693534295E+04  0.95000000000E+03 0.  0.
<mgrwt>
<rscale>  0 0.31418671E+04</rscale>
<asrwt>0</asrwt>
<pdfrwt beam="1">  1        2 0.15752505E+00 0.31418671E+04</pdfrwt>
<pdfrwt beam="2">  1       -2 0.37079964E+00 0.31418671E+04</pdfrwt>
<totfact> 0.23593108E-01</totfact>
</mgrwt>
</event>
<event>
 4    1  0.2018023E-008  0.2317908E+04  0.7816531E-02  0.8470893E-01
         -2   -1    0    0    0  501 -0.00000000000E+00  0.00000000000E+00  0.86934131497E+03  0.86934131497E+03  0.00000000000E+00 0. -1.
          2   -1    0    0  501    0  0.00000000000E+00 -0.00000000000E+00 -0.15450487127E+04  0.15450487127E+04  0.00000000000E+00 0.  1.
    2000013    1    1    2    0    0 -0.33229912001E+03  0.52910684971E+03 -0.10424652218E+03  0.11418161415E+04  0.95000000000E+03 0.  0.
   -2000013    1    1    2    0    0  0.33229912001E+03 -0.52910684971E+03 -0.57146087558E+03  0.12725738862E+04  0.95000000000E+03 0.  0.
<mgrwt>
<rscale>  0 0.23179083E+04</rscale>
<asrwt>0</asrwt>
<pdfrwt beam="2">  1        2 0.23769980E+00 0.23179083E+04</pdfrwt>
<pdfrwt beam="1">  1       -2 0.13374482E+00 0.23179083E+04</pdfrwt>
<totfact> 0.43800429E+00</totfact>
</mgrwt>
</event>
<event>
 4    1  0.2018023E-008  0.2431421E+04  0.7816531E-02  0.8427833E-01
         -2   -1    0    0    0  501 -0.00000000000E+00  0.00000000000E+00  0.55228887880E+03  0.55228887880E+03  0.00000000000E+00 0. -1.
          2   -1    0    0  501    0  0.00000000000E+00 -0.00000000000E+00 -0.26760498681E+04  0.26760498681E+04  0.00000000000E+00 0.  1.
    2000013    1    1    2    0    0 -0.39490855959E+03 -0.41259137330E+03 -0.17247869756E+04  0.20502620620E+04  0.95000000000E+03 0.  0.
   -2000013    1    1    2    0    0  0.39490855959E+03  0.41259137330E+03 -0.39897401363E+03  0.11780766848E+04  0.95000000000E+03 0.  0.
<mgrwt>
<rscale>  0 0.24314215E+04</rscale>
<asrwt>0</asrwt>
<pdfrwt beam="2">  1        2 0.41169998E+00 0.24314215E+04</pdfrwt>
<pdfrwt beam="1">  1       -2 0.84967520E-01 0.24314215E+04</pdfrwt>
<totfact> 0.29680332E+00</totfact>
</mgrwt>
</event>
<event>
 4    1  0.2018023E-008  0.2756725E+04  0.7816531E-02  0.8316831E-01
          2   -1    0    0  501    0  0.00000000000E+00  0.00000000000E+00  0.18072466548E+04  0.18072466548E+04  0.00000000000E+00 0.  1.
         -2   -1    0    0    0  501 -0.00000000000E+00 -0.00000000000E+00 -0.10512583421E+04  0.10512583421E+04  0.00000000000E+00 0. -1.
    2000013    1    1    2    0    0 -0.57303030557E+01  0.59518562490E+03 -0.45355177682E+03  0.12093336920E+04  0.95000000000E+03 0.  0.
   -2000013    1    1    2    0    0  0.57303030557E+01 -0.59518562490E+03  0.12095400895E+04  0.16491713048E+04  0.95000000000E+03 0.  0.
<mgrwt>
<rscale>  0 0.27567250E+04</rscale>
<asrwt>0</asrwt>
<pdfrwt beam="1">  1        2 0.27803795E+00 0.27567250E+04</pdfrwt>
<pdfrwt beam="2">  1       -2 0.16173205E+00 0.27567250E+04</pdfrwt>
<totfact> 0.18262759E+00</totfact>
</mgrwt>
</event>
<event>
 4    1  0.2018023E-008  0.2377411E+04  0.7816531E-02  0.8448009E-01
         -2   -1    0    0    0  501 -0.00000000000E+00  0.00000000000E+00  0.52704386446E+03  0.52704386446E+03  0.00000000000E+00 0. -1.
          2   -1    0    0  501    0  0.00000000000E+00 -0.00000000000E+00 -0.26810303151E+04  0.26810303151E+04  0.00000000000E+00 0.  1.
    2000013    1    1    2    0    0 -0.28297261865E+03 -0.62879584221E+03 -0.82431730513E+03  0.14343837470E+04  0.95000000000E+03 0.  0.
   -2000013    1    1    2    0    0  0.28297261865E+03  0.62879584221E+03 -0.13296691456E+04  0.17736904326E+04  0.95000000000E+03 0.  0.
<mgrwt>
<rscale>  0 0.23774108E+04</rscale>
<asrwt>0</asrwt>
<pdfrwt beam="2">  1        2 0.41246621E+00 0.23774108E+04</pdfrwt>
<pdfrwt beam="1">  1       -2 0.81083670E-01 0.23774108E+04</pdfrwt>
<totfact> 0.32927760E+00</totfact>
</mgrwt>
</event>
<event>
 4    1  0.2018023E-008  0.3129136E+04  0.7816531E-02  0.8207787E-01
         -2   -1    0    0    0  501 -0.00000000000E+00  0.00000000000E+00  0.50011697279E+03  0.50011697279E+03  0.00000000000E+00 0. -1.
          2   -1    0    0  501    0  0.00000000000E+00 -0.00000000000E+00 -0.48946009986E+04  0.48946009986E+04  0.00000000000E+00 0.  1.
    2000013    1    1    2    0    0  0.92610655788E+03  0.77169596689E+03 -0.16737929036E+04  0.22709625065E+04  0.95000000000E+03 0.  0.
   -2000013    1    1    2    0    0 -0.92610655788E+03 -0.77169596689E+03 -0.27206911222E+04  0.31237554649E+04  0.95000000000E+03 0.  0.
<mgrwt>
<rscale>  0 0.31291360E+04</rscale>
<asrwt>0</asrwt>
<pdfrwt beam="2">  1        2 0.75301552E+00 0.31291360E+04</pdfrwt>
<pdfrwt beam="1">  1       -2 0.76941074E-01 0.31291360E+04</pdfrwt>
<totfact> 0.58921069E-02</totfact>
</mgrwt>
</event>
<event>
 4    1  0.2018023E-008  0.2487758E+04  0.7816531E-02  0.8407360E-01
         -1   -1    0    0    0  501 -0.00000000000E+00  0.00000000000E+00  0.41114985329E+03  0.41114985329E+03  0.00000000000E+00 0. -1.
          1   -1    0    0  501    0  0.00000000000E+00 -0.00000000000E+00 -0.37631896515E+04  0.37631896515E+04  0.00000000000E+00 0.  1.
    2000013    1    1    2    0    0 -0.43483862668E+03  0.52555617372E+03 -0.96523133854E+03  0.15163988459E+04  0.95000000000E+03 0.  0.
   -2000013    1    1    2    0    0  0.43483862668E+03 -0.52555617372E+03 -0.23868084597E+04  0.26579406589E+04  0.95000000000E+03 0.  0.
<mgrwt>
<rscale>  0 0.24877579E+04</rscale>
<asrwt>0</asrwt>
<pdfrwt beam="2">  1        1 0.57895226E+00 0.24877579E+04</pdfrwt>
<pdfrwt beam="1">  1       -1 0.63253823E-01 0.24877579E+04</pdfrwt>
<totfact> 0.34551468E-01</totfact>
</mgrwt>
</event>
<event>
 4    1  0.2018023E-008  0.2823870E+04  0.7816531E-02  0.8295896E-01
         -1   -1    0    0    0  501 -0.00000000000E+00  0.00000000000E+00  0.90502893513E+03  0.90502893513E+03  0.00000000000E+00 0. -1.
          1   -1    0    0  501    0  0.00000000000E+00 -0.00000000000E+00 -0.22027593263E+04  0.22027593263E+04  0.00000000000E+00 0.  1.
    2000013    1    1    2    0    0 -0.71593935469E+03  0.11271751555E+03 -0.14766795854E+04  0.18995675813E+04  0.95000000000E+03 0.  0.
   -2000013    1    1    2    0    0  0.71593935469E+03 -0.11271751555E+03  0.17894919420E+03  0.12082206802E+04  0.95000000000E+03 0.  0.
<mgrwt>
<rscale>  0 0.28238703E+04</rscale>
<asrwt>0</asrwt>
<pdfrwt beam="2">  1        1 0.33888605E+00 0.28238703E+04</pdfrwt>
<pdfrwt beam="1">  1       -1 0.13923522E+00 0.28238703E+04</pdfrwt>
<totfact> 0.79668099E-01</totfact>
</mgrwt>
</event>
<event>
 4    1  0.2018023E-008  0.2139188E+04  0.7816531E-02  0.8544174E-01
          2   -1    0    0  501    0  0.00000000000E+00  0.00000000000E+00  0.14445399892E+04  0.14445399892E+04  0.00000000000E+00 0.  1.
         -2   -1    0    0    0  501 -0.00000000000E+00 -0.00000000000E+00 -0.79196946016E+03  0.79196946016E+03  0.00000000000E+00 0. -1.
    2000013    1    1    2    0    0  0.47150211187E+03 -0.13656080513E+03  0.35121236985E+03  0.11255279755E+04  0.95000000000E+03 0.  0.
   -2000013    1    1    2    0    0 -0.47150211187E+03  0.13656080513E+03  0.30135815915E+03  0.11109814738E+04  0.95000000000E+03 0.  0.
<mgrwt>
<rscale>  0 0.21391882E+04</rscale>
<asrwt>0</asrwt>
<pdfrwt beam="1">  1        2 0.22223692E+00 0.21391882E+04</pdfrwt>
<pdfrwt beam="2">  1       -2 0.12184146E+00 0.21391882E+04</pdfrwt>
<totfact> 0.64101230E+00</totfact>
</mgrwt>
</event>
<event>
 4    1  0.2018023E-008  0.2842225E+04  0.7816531E-02  0.8290278E-01
          2   -1    0    0  501    0  0.00000000000E+00  0.00000000000E+00  0.10568435259E+04  0.10568435259E+04  0.00000000000E+00 0.  1.
         -2   -1    0    0    0  501 -0.00000000000E+00 -0.00000000000E+00 -0.19109357477E+04  0.19109357477E+04  0.00000000000E+00 0. -1.
    2000013    1    1    2    0    0 -0.16311776870E+03  0.10204860747E+04 -0.65832750445E+03  0.15504497213E+04  0.95000000000E+03 0.  0.
   -2000013    1    1    2    0    0  0.16311776870E+03 -0.10204860747E+04 -0.19576471744E+03  0.14173295523E+04  0.95000000000E+03 0.  0.
<mgrwt>
<rscale>  0 0.28422245E+04</rscale>
<asrwt>0</asrwt>
<pdfrwt beam="1">  1        2 0.16259131E+00 0.28422245E+04</pdfrwt>
<pdfrwt beam="2">  1       -2 0.29399011E+00 0.28422245E+04</pdfrwt>
<totfact> 0.69522186E-01</totfact>
</mgrwt>
</event>
<event>
 4    1  0.2018023E-008  0.3477337E+04  0.7816531E-02  0.8119182E-01
         -2   -1    0    0    0  501 -0.00000000000E+00  0.00000000000E+00  0.15845844993E+04  0.15845844993E+04  0.00000000000E+00 0. -1.
          2   -1    0    0  501    0  0.00000000000E+00 -0.00000000000E+00 -0.19077358303E+04  0.19077358303E+04  0.00000000000E+00 0.  1.
    2000013    1    1    2    0    0 -0.12801676136E+04  0.85499053449E+02 -0.85325896033E+03  0.18101629928E+04  0.95000000000E+03 0.  0.
   -2000013    1    1    2    0    0  0.12801676136E+04 -0.85499053449E+02  0.53010762930E+03  0.16821573368E+04  0.95000000000E+03 0.  0.
<mgrwt>
<rscale>  0 0.34773373E+04</rscale>
<asrwt>0</asrwt>
<pdfrwt beam="2">  1        2 0.29349782E+00 0.34773373E+04</pdfrwt>
<pdfrwt beam="1">  1       -2 0.24378223E+00 0.34773373E+04</pdfrwt>
<totfact> 0.43448487E-01</totfact>
</mgrwt>
</event>
<event>
 4    1  0.2018023E-008  0.3417334E+04  0.7816531E-02  0.8133665E-01
         -2   -1    0    0    0  501 -0.00000000000E+00  0.00000000000E+00  0.15359244683E+04  0.15359244683E+04  0.00000000000E+00 0. -1.
          2   -1    0    0  501    0  0.00000000000E+00 -0.00000000000E+00 -0.19008373879E+04  0.19008373879E+04  0.00000000000E+00 0.  1.
    2000013    1    1    2    0    0 -0.42618495224E+03  0.91596289920E+03  0.82142739429E+03  0.16117892574E+04  0.95000000000E+03 0.  0.
   -2000013    1    1    2    0    0  0.42618495224E+03 -0.91596289920E+03 -0.11863403138E+04  0.18249725988E+04  0.95000000000E+03 0.  0.
<mgrwt>
<rscale>  0 0.34173338E+04</rscale>
<asrwt>0</asrwt>
<pdfrwt beam="2">  1        2 0.29243652E+00 0.34173338E+04</pdfrwt>
<pdfrwt beam="1">  1       -2 0.23629607E+00 0.34173338E+04</pdfrwt>
<totfact> 0.49013507E-01</totfact>
</mgrwt>
</event>
<event>
 4    1  0.2018023E-008  0.2499943E+04  0.7816531E-02  0.8403006E-01
         -2   -1    0    0    0  501 -0.00000000000E+00  0.00000000000E+00  0.26156575947E+04  0.26156575947E+04  0.00000000000E+00 0. -1.
          2   -1    0    0  501    0  0.00000000000E+00 -0.00000000000E+00 -0.59733689494E+03  0.59733689494E+03  0.00000000000E+00 0.  1.
    2000013    1    1    2    0    0  0.39909223118E+03  0.48998572347E+03  0.35310489825E+03  0.11943800431E+04  0.95000000000E+03 0.  0.
   -2000013    1    1    2    0    0 -0.39909223118E+03 -0.48998572347E+03  0.16652158015E+04  0.20186144466E+04  0.95000000000E+03 0.  0.
<mgrwt>
<rscale>  0 0.24999430E+04</rscale>
<asrwt>0</asrwt>
<pdfrwt beam="2">  1        2 0.91897985E-01 0.24999430E+04</pdfrwt>
<pdfrwt beam="1">  1       -2 0.40240886E+00 0.24999430E+04</pdfrwt>
<totfact> 0.31841969E-01</totfact>
</mgrwt>
</event>
<event>
 4    1  0.2018023E-008  0.2218062E+04  0.7816531E-02  0.8510948E-01
          2   -1    0    0  501    0  0.00000000000E+00  0.00000000000E+00  0.29076526432E+04  0.29076526432E+04  0.00000000000E+00 0.  1.
         -2   -1    0    0    0  501 -0.00000000000E+00 -0.00000000000E+00 -0.42300420159E+03  0.42300420159E+03  0.00000000000E+00 0. -1.
    2000013    1    1    2    0    0  0.33054359419E+03 -0.24169604339E+02  0.19427978215E+04  0.21878771932E+04  0.95000000000E+03 0.  0.
   -2000013    1    1    2    0    0 -0.33054359419E+03  0.24169604339E+02  0.54185062004E+03  0.11427796515E+04  0.95000000000E+03 0.  0.
<mgrwt>
<rscale>  0 0.22180616E+04</rscale>
<asrwt>0</asrwt>
<pdfrwt beam="1">  1        2 0.44733116E+00 0.22180616E+04</pdfrwt>
<pdfrwt beam="2">  1       -2 0.65077571E-01 0.22180616E+04</pdfrwt>
<totfact> 0.39531314E+00</totfact>
</mgrwt>
</event>
<event>
 4    1  0.2018023E-008  0.2426947E+04  0.7816531E-02  0.8429483E-01
         -2   -1    0    0    0  501 -0.00000000000E+00  0.00000000000E+00  0.30018186897E+04  0.30018186897E+04  0.00000000000E+00 0. -1.
          2   -1    0    0  501    0  0.00000000000E+00 -0.00000000000E+00 -0.49054184720E+03  0.49054184720E+03  0.00000000000E+00 0.  1.
    2000013    1    1    2    0    0  0.12924609078E+03 -0.64501785293E+03  0.17887754976E+04  0.21295469855E+04  0.95000000000E+03 0.  0.
   -2000013    1    1    2    0    0 -0.12924609078E+03  0.64501785293E+03  0.72250134496E+03  0.13628135515E+04  0.95000000000E+03 0.  0.
<mgrwt>
<rscale>  0 0.24269468E+04</rscale>
<asrwt>0</asrwt>
<pdfrwt beam="2">  1        2 0.75467978E-01 0.24269468E+04</pdfrwt>
<pdfrwt beam="1">  1       -2 0.46181825E+00 0.24269468E+04</pdfrwt>
<totfact> 0.16367125E-01</totfact>
</mgrwt>
</event>
<event>
 4    1  0.2018023E-008  0.2180477E+04  0.7816531E-02  0.8526598E-01
         -2   -1    0    0    0  501 -0.00000000000E+00  0.00000000000E+00  0.81820982969E+03  0.81820982969E+03  0.00000000000E+00 0. -1.
          2   -1    0    0  501    0  0.00000000000E+00 -0.00000000000E+00 -0.14527084082E+04  0.14527084082E+04  0.00000000000E+00 0.  1.
    2000013    1    1    2    0    0  0.45276683762E+03  0.27181124364E+03 -0.40587369524E+03  0.11602209350E+04  0.95000000000E+03 0.  0.
   -2000013    1    1    2    0    0 -0.45276683762E+03 -0.27181124364E+03 -0.22862488322E+03  0.11106973029E+04  0.95000000000E+03 0.  0.
<mgrwt>
<rscale>  0 0.21804773E+04</rscale>
<asrwt>0</asrwt>
<pdfrwt beam="2">  1        2 0.22349360E+00 0.21804773E+04</pdfrwt>
<pdfrwt beam="1">  1       -2 0.12587844E+00 0.21804773E+04</pdfrwt>
<totfact> 0.58246104E+00</totfact>
</mgrwt>
</event>
<event>
 4    1  0.2018023E-008  0.2334804E+04  0.7816531E-02  0.8464323E-01
         -2   -1    0    0    0  501 -0.00000000000E+00  0.00000000000E+00  0.18215461187E+04  0.18215461187E+04  0.00000000000E+00 0.  1.
          2   -1    0    0  501    0  0.00000000000E+00 -0.00000000000E+00 -0.74817078510E+03  0.74817078510E+03  0.00000000000E+00 0. -1.
    2000013    1    1    2    0    0  0.55398892531E+03 -0.72552192056E+02  0.96033099386E+03  0.14618150251E+04  0.95000000000E+03 0.  0.
   -2000013    1    1    2    0    0 -0.55398892531E+03  0.72552192056E+02  0.11304433970E+03  0.11079018786E+04  0.95000000000E+03 0.  0.
<mgrwt>
<rscale>  0 0.23348041E+04</rscale>
<asrwt>0</asrwt>
<pdfrwt beam="2">  1        2 0.11510320E+00 0.23348041E+04</pdfrwt>
<pdfrwt beam="1">  1       -2 0.28023786E+00 0.23348041E+04</pdfrwt>
<totfact> 0.14275856E+00</totfact>
</mgrwt>
</event>
<event>
 4    1  0.2018023E-008  0.2680702E+04  0.7816531E-02  0.8341294E-01
         -2   -1    0    0    0  501 -0.00000000000E+00  0.00000000000E+00  0.97237558406E+03  0.97237558406E+03  0.00000000000E+00 0. -1.
          2   -1    0    0  501    0  0.00000000000E+00 -0.00000000000E+00 -0.18475796224E+04  0.18475796224E+04  0.00000000000E+00 0.  1.
    2000013    1    1    2    0    0  0.94004572890E+03 -0.76546299176E+02 -0.36706663196E+03  0.13880861719E+04  0.95000000000E+03 0.  0.
   -2000013    1    1    2    0    0 -0.94004572890E+03  0.76546299176E+02 -0.50813740638E+03  0.14318690345E+04  0.95000000000E+03 0.  0.
<mgrwt>
<rscale>  0 0.26807024E+04</rscale>
<asrwt>0</asrwt>
<pdfrwt beam="2">  1        2 0.28424302E+00 0.26807024E+04</pdfrwt>
<pdfrwt beam="1">  1       -2 0.14959624E+00 0.26807024E+04</pdfrwt>
<totfact> 0.21532686E+00</totfact>
</mgrwt>
</event>
<event>
 4    1  0.2018023E-008  0.2297971E+04  0.7816531E-02  0.8478722E-01
          2   -1    0    0  501    0  0.00000000000E+00  0.00000000000E+00  0.12420155476E+04  0.12420155476E+04  0.00000000000E+00 0.  1.
         -2   -1    0    0    0  501 -0.00000000000E+00 -0.00000000000E+00 -0.10629235510E+04  0.10629235510E+04  0.00000000000E+00 0. -1.
    2000013    1    1    2    0    0 -0.55773321552E+03  0.31478172072E+03  0.26015219327E+01  0.11457140303E+04  0.95000000000E+03 0.  0.
   -2000013    1    1    2    0    0  0.55773321552E+03 -0.31478172072E+03  0.17649047464E+03  0.11592250683E+04  0.95000000000E+03 0.  0.
<mgrwt>
<rscale>  0 0.22979709E+04</rscale>
<asrwt>0</asrwt>
<pdfrwt beam="1">  1        2 0.19107932E+00 0.22979709E+04</pdfrwt>
<pdfrwt beam="2">  1       -2 0.16352670E+00 0.22979709E+04</pdfrwt>
<totfact> 0.38478729E+00</totfact>
</mgrwt>
</event>
<event>
 4    1  0.2018023E-008  0.2518728E+04  0.7816531E-02  0.8396344E-01
          2   -1    0    0  501    0  0.00000000000E+00  0.00000000000E+00  0.15293377572E+04  0.15293377572E+04  0.00000000000E+00 0.  1.
         -2   -1    0    0    0  501 -0.00000000000E+00 -0.00000000000E+00 -0.10370489190E+04  0.10370489190E+04  0.00000000000E+00 0. -1.
    2000013    1    1    2    0    0 -0.15432816392E+03  0.75117109305E+03 -0.68606507307E+02  0.12228172578E+04  0.95000000000E+03 0.  0.
   -2000013    1    1    2    0    0  0.15432816392E+03 -0.75117109305E+03  0.56089534552E+03  0.13435694183E+04  0.95000000000E+03 0.  0.
<mgrwt>
<rscale>  0 0.25187283E+04</rscale>
<asrwt>0</asrwt>
<pdfrwt beam="1">  1        2 0.23528273E+00 0.25187283E+04</pdfrwt>
<pdfrwt beam="2">  1       -2 0.15954599E+00 0.25187283E+04</pdfrwt>
<totfact> 0.27626125E+00</totfact>
</mgrwt>
</event>
<event>
 4    1  0.2018023E-008  0.2345834E+04  0.7816531E-02  0.8460066E-01
         -2   -1    0    0    0  501 -0.00000000000E+00  0.00000000000E+00  0.14185955853E+04  0.14185955853E+04  0.00000000000E+00 0. -1.
          2   -1    0    0  501    0  0.00000000000E+00 -0.00000000000E+00 -0.96978593073E+03  0.96978593073E+03  0.00000000000E+00 0.  1.
    2000013    1    1    2    0    0  0.66753320947E+03  0.15160570207E+03  0.15498333241E+03  0.11811455067E+04  0.95000000000E+03 0.  0.
   -2000013    1    1    2    0    0 -0.66753320947E+03 -0.15160570207E+03  0.29382632217E+03  0.12072360093E+04  0.95000000000E+03 0.  0.
<mgrwt>
<rscale>  0 0.23458338E+04</rscale>
<asrwt>0</asrwt>
<pdfrwt beam="2">  1        2 0.14919784E+00 0.23458338E+04</pdfrwt>
<pdfrwt beam="1">  1       -2 0.21824547E+00 0.23458338E+04</pdfrwt>
<totfact> 0.24128559E+00</totfact>
</mgrwt>
</event>
<event>
 4    1  0.2018023E-008  0.2470622E+04  0.7816531E-02  0.8413527E-01
         -2   -1    0    0    0  501 -0.00000000000E+00  0.00000000000E+00  0.78123344727E+03  0.78123344727E+03  0.00000000000E+00 0. -1.
          2   -1    0    0  501    0  0.00000000000E+00 -0.00000000000E+00 -0.19533134555E+04  0.19533134555E+04  0.00000000000E+00 0.  1.
    2000013    1    1    2    0    0 -0.67030544992E+01 -0.69451148864E+03 -0.10018037389E+04  0.15454778775E+04  0.95000000000E+03 0.  0.
   -2000013    1    1    2    0    0  0.67030544992E+01  0.69451148864E+03 -0.17027626935E+03  0.11890690252E+04  0.95000000000E+03 0.  0.
<mgrwt>
<rscale>  0 0.24706224E+04</rscale>
<asrwt>0</asrwt>
<pdfrwt beam="2">  1        2 0.30050976E+00 0.24706224E+04</pdfrwt>
<pdfrwt beam="1">  1       -2 0.12018976E+00 0.24706224E+04</pdfrwt>
<totfact> 0.33541006E+00</totfact>
</mgrwt>
</event>
<event>
 4    1  0.2018023E-008  0.2736397E+04  0.7816531E-02  0.8323291E-01
         -2   -1    0    0    0  501 -0.00000000000E+00  0.00000000000E+00  0.11255327073E+04  0.11255327073E+04  0.00000000000E+00 0. -1.
          2   -1    0    0  501    0  0.00000000000E+00 -0.00000000000E+00 -0.16631835520E+04  0.16631835520E+04  0.00000000000E+00 0.  1.
    2000013    1    1    2    0    0 -0.79910455207E+03  0.39895177864E+03 -0.69116031711E+03  0.14757822301E+04  0.95000000000E+03 0.  0.
   -2000013    1    1    2    0    0  0.79910455207E+03 -0.39895177864E+03  0.15350947243E+03  0.13129340292E+04  0.95000000000E+03 0.  0.
<mgrwt>
<rscale>  0 0.27363973E+04</rscale>
<asrwt>0</asrwt>
<pdfrwt beam="2">  1        2 0.25587439E+00 0.27363973E+04</pdfrwt>
<pdfrwt beam="1">  1       -2 0.17315888E+00 0.27363973E+04</pdfrwt>
<totfact> 0.18207609E+00</totfact>
</mgrwt>
</event>
<event>
 4    1  0.2018023E-008  0.2597099E+04  0.7816531E-02  0.8369187E-01
          1   -1    0    0  501    0  0.00000000000E+00  0.00000000000E+00  0.61936209440E+03  0.61936209440E+03  0.00000000000E+00 0.  1.
         -1   -1    0    0    0  501 -0.00000000000E+00 -0.00000000000E+00 -0.27225288515E+04  0.27225288515E+04  0.00000000000E+00 0. -1.
    2000013    1    1    2    0    0  0.77459879616E+03  0.31726094288E+03 -0.14224644229E+04  0.19043536529E+04  0.95000000000E+03 0.  0.
   -2000013    1    1    2    0    0 -0.77459879616E+03 -0.31726094288E+03 -0.68070233414E+03  0.14375372929E+04  0.95000000000E+03 0.  0.
<mgrwt>
<rscale>  0 0.25970993E+04</rscale>
<asrwt>0</asrwt>
<pdfrwt beam="1">  1        1 0.95286476E-01 0.25970993E+04</pdfrwt>
<pdfrwt beam="2">  1       -1 0.41885059E+00 0.25970993E+04</pdfrwt>
<totfact> 0.15291086E-01</totfact>
</mgrwt>
</event>
<event>
 4    1  0.2018023E-008  0.2050637E+04  0.7816531E-02  0.8583306E-01
          1   -1    0    0  501    0  0.00000000000E+00  0.00000000000E+00  0.25322580505E+04  0.25322580505E+04  0.00000000000E+00 0. -1.
         -1   -1    0    0    0  501 -0.00000000000E+00 -0.00000000000E+00 -0.41515430572E+03  0.41515430572E+03  0.00000000000E+00 0.  1.
    2000013    1    1    2    0    0 -0.80314165260E+02 -0.37608308932E+03  0.11014064850E+04  0.15044883185E+04  0.95000000000E+03 0.  0.
   -2000013    1    1    2    0    0  0.80314165260E+02  0.37608308932E+03  0.10156972598E+04  0.14429240378E+04  0.95000000000E+03 0.  0.
<mgrwt>
<rscale>  0 0.20506368E+04</rscale>
<asrwt>0</asrwt>
<pdfrwt beam="1">  1        1 0.38957815E+00 0.20506368E+04</pdfrwt>
<pdfrwt beam="2">  1       -1 0.63869895E-01 0.20506368E+04</pdfrwt>
<totfact> 0.29553420E+00</totfact>
</mgrwt>
</event>
<event>
 4    1  0.2018023E-008  0.2616162E+04  0.7816531E-02  0.8362732E-01
         -2   -1    0    0    0  501 -0.00000000000E+00  0.00000000000E+00  0.42431243895E+03  0.42431243895E+03  0.00000000000E+00 0. -1.
          2   -1    0    0  501    0  0.00000000000E+00 -0.00000000000E+00 -0.40325843814E+04  0.40325843814E+04  0.00000000000E+00 0.  1.
    2000013    1    1    2    0    0  0.70003932006E+03 -0.52507813925E+03 -0.14516361458E+04  0.19430670605E+04  0.95000000000E+03 0.  0.
   -2000013    1    1    2    0    0 -0.70003932006E+03  0.52507813925E+03 -0.21566357967E+04  0.25138297598E+04  0.95000000000E+03 0.  0.
<mgrwt>
<rscale>  0 0.26161619E+04</rscale>
<asrwt>0</asrwt>
<pdfrwt beam="2">  1        2 0.62039760E+00 0.26161619E+04</pdfrwt>
<pdfrwt beam="1">  1       -2 0.65278837E-01 0.26161619E+04</pdfrwt>
<totfact> 0.61643654E-01</totfact>
</mgrwt>
</event>
<event>
 4    1  0.2018023E-008  0.2543430E+04  0.7816531E-02  0.8387675E-01
         -2   -1    0    0    0  501 -0.00000000000E+00  0.00000000000E+00  0.18070401134E+04  0.18070401134E+04  0.00000000000E+00 0. -1.
          2   -1    0    0  501    0  0.00000000000E+00 -0.00000000000E+00 -0.89497678403E+03  0.89497678403E+03  0.00000000000E+00 0.  1.
    2000013    1    1    2    0    0  0.15441709639E+03 -0.60208109079E+03 -0.15277336971E+03  0.11455068669E+04  0.95000000000E+03 0.  0.
   -2000013    1    1    2    0    0 -0.15441709639E+03  0.60208109079E+03  0.10648366991E+04  0.15565100306E+04  0.95000000000E+03 0.  0.
<mgrwt>
<rscale>  0 0.25434299E+04</rscale>
<asrwt>0</asrwt>
<pdfrwt beam="2">  1        2 0.13768874E+00 0.25434299E+04</pdfrwt>
<pdfrwt beam="1">  1       -2 0.27800617E+00 0.25434299E+04</pdfrwt>
<totfact> 0.11374288E+00</totfact>
</mgrwt>
</event>
<event>
 4    1  0.2018023E-008  0.4758458E+04  0.7816531E-02  0.7866887E-01
          2   -1    0    0  501    0  0.00000000000E+00  0.00000000000E+00  0.21404707885E+04  0.21404707885E+04  0.00000000000E+00 0.  1.
         -2   -1    0    0    0  501 -0.00000000000E+00 -0.00000000000E+00 -0.26446189891E+04  0.26446189891E+04  0.00000000000E+00 0. -1.
    2000013    1    1    2    0    0 -0.11844377695E+04  0.15369411769E+04 -0.12542201557E+04  0.24981291419E+04  0.95000000000E+03 0.  0.
   -2000013    1    1    2    0    0  0.11844377695E+04 -0.15369411769E+04  0.75007195509E+03  0.22869606356E+04  0.95000000000E+03 0.  0.
<mgrwt>
<rscale>  0 0.47584576E+04</rscale>
<asrwt>0</asrwt>
<pdfrwt beam="1">  1        2 0.32930320E+00 0.47584576E+04</pdfrwt>
<pdfrwt beam="2">  1       -2 0.40686446E+00 0.47584576E+04</pdfrwt>
<totfact> 0.27712511E-02</totfact>
</mgrwt>
</event>
<event>
 4    1  0.2018023E-008  0.2935532E+04  0.7816531E-02  0.8262384E-01
          1   -1    0    0  501    0  0.00000000000E+00  0.00000000000E+00  0.18604192673E+04  0.18604192673E+04  0.00000000000E+00 0.  1.
         -1   -1    0    0    0  501 -0.00000000000E+00 -0.00000000000E+00 -0.11579844772E+04  0.11579844772E+04  0.00000000000E+00 0. -1.
    2000013    1    1    2    0    0  0.98416433090E+03  0.53090457883E+03  0.31277847275E+03  0.15002564698E+04  0.95000000000E+03 0.  0.
   -2000013    1    1    2    0    0 -0.98416433090E+03 -0.53090457883E+03  0.38965631736E+03  0.15181472747E+04  0.95000000000E+03 0.  0.
<mgrwt>
<rscale>  0 0.29355317E+04</rscale>
<asrwt>0</asrwt>
<pdfrwt beam="1">  1        1 0.28621835E+00 0.29355317E+04</pdfrwt>
<pdfrwt beam="2">  1       -1 0.17815146E+00 0.29355317E+04</pdfrwt>
<totfact> 0.68067515E-01</totfact>
</mgrwt>
</event>
<event>
 4    1  0.2018023E-008  0.2230834E+04  0.7816531E-02  0.8505703E-01
         -2   -1    0    0    0  501 -0.00000000000E+00  0.00000000000E+00  0.87916774565E+03  0.87916774565E+03  0.00000000000E+00 0. -1.
          2   -1    0    0  501    0  0.00000000000E+00 -0.00000000000E+00 -0.14151506729E+04  0.14151506729E+04  0.00000000000E+00 0.  1.
    2000013    1    1    2    0    0 -0.47797172076E+03 -0.25741552768E+03 -0.45181099565E+02  0.10951077808E+04  0.95000000000E+03 0.  0.
   -2000013    1    1    2    0    0  0.47797172076E+03  0.25741552768E+03 -0.49080182771E+03  0.11992106378E+04  0.95000000000E+03 0.  0.
<mgrwt>
<rscale>  0 0.22308338E+04</rscale>
<asrwt>0</asrwt>
<pdfrwt beam="2">  1        2 0.21771548E+00 0.22308338E+04</pdfrwt>
<pdfrwt beam="1">  1       -2 0.13525658E+00 0.22308338E+04</pdfrwt>
<totfact> 0.50782672E+00</totfact>
</mgrwt>
</event>
<event>
 4    1  0.2018023E-008  0.2765577E+04  0.7816531E-02  0.8314036E-01
          2   -1    0    0  501    0  0.00000000000E+00  0.00000000000E+00  0.22891251499E+04  0.22891251499E+04  0.00000000000E+00 0.  1.
         -2   -1    0    0    0  501 -0.00000000000E+00 -0.00000000000E+00 -0.83529892373E+03  0.83529892373E+03  0.00000000000E+00 0. -1.
    2000013    1    1    2    0    0 -0.77825165744E+03 -0.26992783339E+03  0.76869852046E+02  0.12597403112E+04  0.95000000000E+03 0.  0.
   -2000013    1    1    2    0    0  0.77825165744E+03  0.26992783339E+03  0.13769563741E+04  0.18646837624E+04  0.95000000000E+03 0.  0.
<mgrwt>
<rscale>  0 0.27655768E+04</rscale>
<asrwt>0</asrwt>
<pdfrwt beam="1">  1        2 0.35217310E+00 0.27655768E+04</pdfrwt>
<pdfrwt beam="2">  1       -2 0.12850753E+00 0.27655768E+04</pdfrwt>
<totfact> 0.17941958E+00</totfact>
</mgrwt>
</event>
<event>
 4    1  0.2018023E-008  0.2028115E+04  0.7816531E-02  0.8593588E-01
          2   -1    0    0  501    0  0.00000000000E+00  0.00000000000E+00  0.18270318452E+04  0.18270318452E+04  0.00000000000E+00 0.  1.
         -2   -1    0    0    0  501 -0.00000000000E+00 -0.00000000000E+00 -0.56283252252E+03  0.56283252252E+03  0.00000000000E+00 0. -1.
    2000013    1    1    2    0    0  0.27841381820E+03 -0.14516559155E+03  0.82653251423E+03  0.12977839960E+04  0.95000000000E+03 0.  0.
   -2000013    1    1    2    0    0 -0.27841381820E+03  0.14516559155E+03  0.43766680846E+03  0.10920803718E+04  0.95000000000E+03 0.  0.
<mgrwt>
<rscale>  0 0.20281153E+04</rscale>
<asrwt>0</asrwt>
<pdfrwt beam="1">  1        2 0.28108182E+00 0.20281153E+04</pdfrwt>
<pdfrwt beam="2">  1       -2 0.86589620E-01 0.20281153E+04</pdfrwt>
<totfact> 0.89237519E+00</totfact>
</mgrwt>
</event>
<event>
 4    1  0.2018023E-008  0.2450941E+04  0.7816531E-02  0.8420674E-01
         -1   -1    0    0    0  501 -0.00000000000E+00  0.00000000000E+00  0.61863933011E+03  0.61863933011E+03  0.00000000000E+00 0. -1.
          1   -1    0    0  501    0  0.00000000000E+00 -0.00000000000E+00 -0.24275502600E+04  0.24275502600E+04  0.00000000000E+00 0.  1.
    2000013    1    1    2    0    0  0.48980432798E+03 -0.45695724194E+03 -0.42219832615E+03  0.12367172786E+04  0.95000000000E+03 0.  0.
   -2000013    1    1    2    0    0 -0.48980432798E+03  0.45695724194E+03 -0.13867126038E+04  0.18094723115E+04  0.95000000000E+03 0.  0.
<mgrwt>
<rscale>  0 0.24509411E+04</rscale>
<asrwt>0</asrwt>
<pdfrwt beam="2">  1        1 0.37346926E+00 0.24509411E+04</pdfrwt>
<pdfrwt beam="1">  1       -1 0.95175284E-01 0.24509411E+04</pdfrwt>
<totfact> 0.14462719E+00</totfact>
</mgrwt>
</event>
<event>
 4    1  0.2018023E-008  0.2159195E+04  0.7816531E-02  0.8535607E-01
         -2   -1    0    0    0  501 -0.00000000000E+00  0.00000000000E+00  0.84791420893E+03  0.84791420893E+03  0.00000000000E+00 0. -1.
          2   -1    0    0  501    0  0.00000000000E+00 -0.00000000000E+00 -0.13745851811E+04  0.13745851811E+04  0.00000000000E+00 0.  1.
    2000013    1    1    2    0    0 -0.13476092848E+03  0.38349758455E+03  0.58562283456E+02  0.10349688141E+04  0.95000000000E+03 0.  0.
   -2000013    1    1    2    0    0  0.13476092848E+03 -0.38349758455E+03 -0.58523325564E+03  0.11875305759E+04  0.95000000000E+03 0.  0.
<mgrwt>
<rscale>  0 0.21591946E+04</rscale>
<asrwt>0</asrwt>
<pdfrwt beam="2">  1        2 0.21147464E+00 0.21591946E+04</pdfrwt>
<pdfrwt beam="1">  1       -2 0.13044834E+00 0.21591946E+04</pdfrwt>
<totfact> 0.59098886E+00</totfact>
</mgrwt>
</event>
<event>
 4    1  0.2018023E-008  0.2501201E+04  0.7816531E-02  0.8402558E-01
         -2   -1    0    0    0  501 -0.00000000000E+00  0.00000000000E+00  0.10727058311E+04  0.10727058311E+04  0.00000000000E+00 0. -1.
          2   -1    0    0  501    0  0.00000000000E+00 -0.00000000000E+00 -0.14579969704E+04  0.14579969704E+04  0.00000000000E+00 0.  1.
    2000013    1    1    2    0    0 -0.22237903282E+01  0.80142674948E+03 -0.52403077809E+02  0.12439999448E+04  0.95000000000E+03 0.  0.
   -2000013    1    1    2    0    0  0.22237903282E+01 -0.80142674948E+03 -0.33288806145E+03  0.12867028567E+04  0.95000000000E+03 0.  0.
<mgrwt>
<rscale>  0 0.25012012E+04</rscale>
<asrwt>0</asrwt>
<pdfrwt beam="2">  1        2 0.22430723E+00 0.25012012E+04</pdfrwt>
<pdfrwt beam="1">  1       -2 0.16503167E+00 0.25012012E+04</pdfrwt>
<totfact> 0.27674430E+00</totfact>
</mgrwt>
</event>
<event>
 4    1  0.2018023E-008  0.3432085E+04  0.7816531E-02  0.8130076E-01
          2   -1    0    0  501    0  0.00000000000E+00  0.00000000000E+00  0.41793706047E+04  0.41793706047E+04  0.00000000000E+00 0.  1.
         -2   -1    0    0    0  501 -0.00000000000E+00 -0.00000000000E+00 -0.70460415118E+03  0.70460415118E+03  0.00000000000E+00 0. -1.
    2000013    1    1    2    0    0 -0.83224924116E+03  0.76214522361E+03  0.29851155391E+04  0.33297025277E+04  0.95000000000E+03 0.  0.
   -2000013    1    1    2    0    0  0.83224924116E+03 -0.76214522361E+03  0.48965091443E+03  0.15542722282E+04  0.95000000000E+03 0.  0.
<mgrwt>
<rscale>  0 0.34320850E+04</rscale>
<asrwt>0</asrwt>
<pdfrwt beam="1">  1        2 0.64298008E+00 0.34320850E+04</pdfrwt>
<pdfrwt beam="2">  1       -2 0.10840064E+00 0.34320850E+04</pdfrwt>
<totfact> 0.13586548E-01</totfact>
</mgrwt>
</event>
<event>
 4    1  0.2018023E-008  0.3119960E+04  0.7816531E-02  0.8210281E-01
          2   -1    0    0  501    0  0.00000000000E+00  0.00000000000E+00  0.33988097075E+04  0.33988097075E+04  0.00000000000E+00 0.  1.
         -2   -1    0    0    0  501 -0.00000000000E+00 -0.00000000000E+00 -0.71599705065E+03  0.71599705065E+03  0.00000000000E+00 0. -1.
    2000013    1    1    2    0    0 -0.52526276795E+03 -0.76094610850E+03  0.24258454065E+04  0.27644467605E+04  0.95000000000E+03 0.  0.
   -2000013    1    1    2    0    0  0.52526276795E+03  0.76094610850E+03  0.25696725032E+03  0.13503599976E+04  0.95000000000E+03 0.  0.
<mgrwt>
<rscale>  0 0.31199601E+04</rscale>
<asrwt>0</asrwt>
<pdfrwt beam="1">  1        2 0.52289379E+00 0.31199601E+04</pdfrwt>
<pdfrwt beam="2">  1       -2 0.11015339E+00 0.31199601E+04</pdfrwt>
<totfact> 0.52960584E-01</totfact>
</mgrwt>
</event>
<event>
 4    1  0.2018023E-008  0.2865037E+04  0.7816531E-02  0.8283357E-01
          2   -1    0    0  501    0  0.00000000000E+00  0.00000000000E+00  0.14408710311E+04  0.14408710311E+04  0.00000000000E+00 0.  1.
         -2   -1    0    0    0  501 -0.00000000000E+00 -0.00000000000E+00 -0.14242140985E+04  0.14242140985E+04  0.00000000000E+00 0. -1.
    2000013    1    1    2    0    0 -0.31680864604E+03 -0.98453617223E+03  0.29105155632E+03  0.14341862505E+04  0.95000000000E+03 0.  0.
   -2000013    1    1    2    0    0  0.31680864604E+03  0.98453617223E+03 -0.27439462374E+03  0.14308988791E+04  0.95000000000E+03 0.  0.
<mgrwt>
<rscale>  0 0.28650367E+04</rscale>
<asrwt>0</asrwt>
<pdfrwt beam="1">  1        2 0.22167247E+00 0.28650367E+04</pdfrwt>
<pdfrwt beam="2">  1       -2 0.21910986E+00 0.28650367E+04</pdfrwt>
<totfact> 0.11885338E+00</totfact>
</mgrwt>
</event>
<event>
 4    1  0.2018023E-008  0.2275412E+04  0.7816531E-02  0.8487679E-01
         -2   -1    0    0    0  501 -0.00000000000E+00  0.00000000000E+00  0.61102128829E+03  0.61102128829E+03  0.00000000000E+00 0. -1.
          2   -1    0    0  501    0  0.00000000000E+00 -0.00000000000E+00 -0.21183797566E+04  0.21183797566E+04  0.00000000000E+00 0.  1.
    2000013    1    1    2    0    0 -0.33764836298E+03 -0.32785764296E+03 -0.12488034119E+04  0.16381413287E+04  0.95000000000E+03 0.  0.
   -2000013    1    1    2    0    0  0.33764836298E+03  0.32785764296E+03 -0.25855505640E+03  0.10912597162E+04  0.95000000000E+03 0.  0.
<mgrwt>
<rscale>  0 0.22754122E+04</rscale>
<asrwt>0</asrwt>
<pdfrwt beam="2">  1        2 0.32590458E+00 0.22754122E+04</pdfrwt>
<pdfrwt beam="1">  1       -2 0.94003276E-01 0.22754122E+04</pdfrwt>
<totfact> 0.49791120E+00</totfact>
</mgrwt>
</event>
<event>
 4    1  0.2018023E-008  0.2344979E+04  0.7816531E-02  0.8460395E-01
         -2   -1    0    0    0  501 -0.00000000000E+00  0.00000000000E+00  0.71871539738E+03  0.71871539738E+03  0.00000000000E+00 0. -1.
          2   -1    0    0  501    0  0.00000000000E+00 -0.00000000000E+00 -0.19127619025E+04  0.19127619025E+04  0.00000000000E+00 0.  1.
    2000013    1    1    2    0    0  0.17130230307E+03 -0.49214039410E+03 -0.10997337154E+04  0.15438461359E+04  0.95000000000E+03 0.  0.
   -2000013    1    1    2    0    0 -0.17130230307E+03  0.49214039410E+03 -0.94312789733E+02  0.10876311640E+04  0.95000000000E+03 0.  0.
<mgrwt>
<rscale>  0 0.23449788E+04</rscale>
<asrwt>0</asrwt>
<pdfrwt beam="2">  1        2 0.29427105E+00 0.23449788E+04</pdfrwt>
<pdfrwt beam="1">  1       -2 0.11057160E+00 0.23449788E+04</pdfrwt>
<totfact> 0.43782365E+00</totfact>
</mgrwt>
</event>
<event>
 4    1  0.2018023E-008  0.2532207E+04  0.7816531E-02  0.8391601E-01
          2   -1    0    0  501    0  0.00000000000E+00  0.00000000000E+00  0.99534711714E+03  0.99534711714E+03  0.00000000000E+00 0.  1.
         -2   -1    0    0    0  501 -0.00000000000E+00 -0.00000000000E+00 -0.16105110565E+04  0.16105110565E+04  0.00000000000E+00 0. -1.
    2000013    1    1    2    0    0  0.57002552476E+03 -0.60862401377E+03 -0.38154202712E+03  0.13203888092E+04  0.95000000000E+03 0.  0.
   -2000013    1    1    2    0    0 -0.57002552476E+03  0.60862401377E+03 -0.23362191225E+03  0.12854693644E+04  0.95000000000E+03 0.  0.
<mgrwt>
<rscale>  0 0.25322066E+04</rscale>
<asrwt>0</asrwt>
<pdfrwt beam="1">  1        2 0.15313033E+00 0.25322066E+04</pdfrwt>
<pdfrwt beam="2">  1       -2 0.24777093E+00 0.25322066E+04</pdfrwt>
<totfact> 0.14961959E+00</totfact>
</mgrwt>
</event>
<event>
 4    1  0.2018023E-008  0.2114226E+04  0.7816531E-02  0.8555003E-01
         -1   -1    0    0    0  501 -0.00000000000E+00  0.00000000000E+00  0.86515545465E+03  0.86515545465E+03  0.00000000000E+00 0. -1.
          1   -1    0    0  501    0  0.00000000000E+00 -0.00000000000E+00 -0.12916612440E+04  0.12916612440E+04  0.00000000000E+00 0.  1.
    2000013    1    1    2    0    0 -0.15477376352E+03 -0.37102365396E+03  0.22429939889E+02  0.10318025838E+04  0.95000000000E+03 0.  0.
   -2000013    1    1    2    0    0  0.15477376352E+03  0.37102365396E+03 -0.44893572922E+03  0.11250141149E+04  0.95000000000E+03 0.  0.
<mgrwt>
<rscale>  0 0.21142259E+04</rscale>
<asrwt>0</asrwt>
<pdfrwt beam="2">  1        1 0.19871711E+00 0.21142259E+04</pdfrwt>
<pdfrwt beam="1">  1       -1 0.13310084E+00 0.21142259E+04</pdfrwt>
<totfact> 0.40240138E+00</totfact>
</mgrwt>
</event>
<event>
 4    1  0.2018023E-008  0.4319571E+04  0.7816531E-02  0.7943009E-01
         -3   -1    0    0    0  501 -0.00000000000E+00  0.00000000000E+00  0.12566879316E+04  0.12566879316E+04  0.00000000000E+00 0. -1.
          3   -1    0    0  501    0  0.00000000000E+00 -0.00000000000E+00 -0.37118797242E+04  0.37118797242E+04  0.00000000000E+00 0.  1.
    2000013    1    1    2    0    0 -0.12790558600E+04  0.14332263036E+04 -0.15363525620E+04  0.26368543239E+04  0.95000000000E+03 0.  0.
   -2000013    1    1    2    0    0  0.12790558600E+04 -0.14332263036E+04 -0.91883923057E+03  0.23317133319E+04  0.95000000000E+03 0.  0.
<mgrwt>
<rscale>  0 0.43195715E+04</rscale>
<asrwt>0</asrwt>
<pdfrwt beam="2">  1        3 0.57105842E+00 0.43195715E+04</pdfrwt>
<pdfrwt beam="1">  1       -3 0.19333660E+00 0.43195715E+04</pdfrwt>
<totfact> 0.49840802E-04</totfact>
</mgrwt>
</event>
<event>
 4    1  0.2018023E-008  0.2564507E+04  0.7816531E-02  0.8380358E-01
         -2   -1    0    0    0  501 -0.00000000000E+00  0.00000000000E+00  0.57815516415E+03  0.57815516415E+03  0.00000000000E+00 0. -1.
          2   -1    0    0  501    0  0.00000000000E+00 -0.00000000000E+00 -0.28438276100E+04  0.28438276100E+04  0.00000000000E+00 0.  1.
    2000013    1    1    2    0    0  0.75803563822E+03  0.20654889100E+03 -0.66221423880E+03  0.13993956450E+04  0.95000000000E+03 0.  0.
   -2000013    1    1    2    0    0 -0.75803563822E+03 -0.20654889100E+03 -0.16034582070E+04  0.20225871291E+04  0.95000000000E+03 0.  0.
<mgrwt>
<rscale>  0 0.25645067E+04</rscale>
<asrwt>0</asrwt>
<pdfrwt beam="2">  1        2 0.43751195E+00 0.25645067E+04</pdfrwt>
<pdfrwt beam="1">  1       -2 0.88946947E-01 0.25645067E+04</pdfrwt>
<totfact> 0.20948723E+00</totfact>
</mgrwt>
</event>
<event>
 4    1  0.2018023E-008  0.2102771E+04  0.7816531E-02  0.8560024E-01
         -2   -1    0    0    0  501 -0.00000000000E+00  0.00000000000E+00  0.33767352885E+03  0.33767352885E+03  0.00000000000E+00 0. -1.
          2   -1    0    0  501    0  0.00000000000E+00 -0.00000000000E+00 -0.32736091200E+04  0.32736091200E+04  0.00000000000E+00 0.  1.
    2000013    1    1    2    0    0 -0.20382325810E+03 -0.32302036009E+03 -0.18780797985E+04  0.21390581580E+04  0.95000000000E+03 0.  0.
   -2000013    1    1    2    0    0  0.20382325810E+03  0.32302036009E+03 -0.10578557927E+04  0.14722244909E+04  0.95000000000E+03 0.  0.
<mgrwt>
<rscale>  0 0.21027707E+04</rscale>
<asrwt>0</asrwt>
<pdfrwt beam="2">  1        2 0.50363221E+00 0.21027707E+04</pdfrwt>
<pdfrwt beam="1">  1       -2 0.51949770E-01 0.21027707E+04</pdfrwt>
<totfact> 0.37503565E+00</totfact>
</mgrwt>
</event>
<event>
 4    1  0.2018023E-008  0.2410215E+04  0.7816531E-02  0.8435689E-01
         -2   -1    0    0    0  501 -0.00000000000E+00  0.00000000000E+00  0.76096553754E+03  0.76096553754E+03  0.00000000000E+00 0. -1.
          2   -1    0    0  501    0  0.00000000000E+00 -0.00000000000E+00 -0.19084762396E+04  0.19084762396E+04  0.00000000000E+00 0.  1.
    2000013    1    1    2    0    0 -0.72459852299E+03 -0.12308055153E+03 -0.68223228748E+03  0.13813517784E+04  0.95000000000E+03 0.  0.
   -2000013    1    1    2    0    0  0.72459852299E+03  0.12308055153E+03 -0.46527841456E+03  0.12880899987E+04  0.95000000000E+03 0.  0.
<mgrwt>
<rscale>  0 0.24102155E+04</rscale>
<asrwt>0</asrwt>
<pdfrwt beam="2">  1        2 0.29361173E+00 0.24102155E+04</pdfrwt>
<pdfrwt beam="1">  1       -2 0.11707162E+00 0.24102155E+04</pdfrwt>
<totfact> 0.38094672E+00</totfact>
</mgrwt>
</event>
<event>
 4    1  0.2018023E-008  0.2284598E+04  0.7816531E-02  0.8484019E-01
         -2   -1    0    0    0  501 -0.00000000000E+00  0.00000000000E+00  0.95676911217E+03  0.95676911217E+03  0.00000000000E+00 0. -1.
          2   -1    0    0  501    0  0.00000000000E+00 -0.00000000000E+00 -0.13638052712E+04  0.13638052712E+04  0.00000000000E+00 0.  1.
    2000013    1    1    2    0    0  0.28827017342E+03 -0.56444679207E+03 -0.17768363584E+03  0.11557557477E+04  0.95000000000E+03 0.  0.
   -2000013    1    1    2    0    0 -0.28827017342E+03  0.56444679207E+03 -0.22935252316E+03  0.11648186356E+04  0.95000000000E+03 0.  0.
<mgrwt>
<rscale>  0 0.22845978E+04</rscale>
<asrwt>0</asrwt>
<pdfrwt beam="2">  1        2 0.20981619E+00 0.22845978E+04</pdfrwt>
<pdfrwt beam="1">  1       -2 0.14719525E+00 0.22845978E+04</pdfrwt>
<totfact> 0.43410044E+00</totfact>
</mgrwt>
</event>
<event>
 4    1  0.2018023E-008  0.2049297E+04  0.7816531E-02  0.8583913E-01
         -2   -1    0    0    0  501 -0.00000000000E+00  0.00000000000E+00  0.40776161701E+03  0.40776161701E+03  0.00000000000E+00 0. -1.
          2   -1    0    0  501    0  0.00000000000E+00 -0.00000000000E+00 -0.25748003902E+04  0.25748003902E+04  0.00000000000E+00 0.  1.
    2000013    1    1    2    0    0  0.29915743957E+03  0.13785832100E+03 -0.13705878313E+04  0.16998561980E+04  0.95000000000E+03 0.  0.
   -2000013    1    1    2    0    0 -0.29915743957E+03 -0.13785832100E+03 -0.79645094183E+03  0.12827058092E+04  0.95000000000E+03 0.  0.
<mgrwt>
<rscale>  0 0.20492972E+04</rscale>
<asrwt>0</asrwt>
<pdfrwt beam="2">  1        2 0.39612314E+00 0.20492972E+04</pdfrwt>
<pdfrwt beam="1">  1       -2 0.62732556E-01 0.20492972E+04</pdfrwt>
<totfact> 0.68681905E+00</totfact>
</mgrwt>
</event>
<event>
 4    1  0.2018023E-008  0.2252686E+04  0.7816531E-02  0.8496814E-01
         -2   -1    0    0    0  501 -0.00000000000E+00  0.00000000000E+00  0.61508279948E+03  0.61508279948E+03  0.00000000000E+00 0. -1.
          2   -1    0    0  501    0  0.00000000000E+00 -0.00000000000E+00 -0.20625652282E+04  0.20625652282E+04  0.00000000000E+00 0.  1.
    2000013    1    1    2    0    0  0.34881051847E+03 -0.49348158553E+03 -0.76048447220E+03  0.13586866767E+04  0.95000000000E+03 0.  0.
   -2000013    1    1    2    0    0 -0.34881051847E+03  0.49348158553E+03 -0.68699795653E+03  0.13189613510E+04  0.95000000000E+03 0.  0.
<mgrwt>
<rscale>  0 0.22526859E+04</rscale>
<asrwt>0</asrwt>
<pdfrwt beam="2">  1        2 0.31731773E+00 0.22526859E+04</pdfrwt>
<pdfrwt beam="1">  1       -2 0.94628123E-01 0.22526859E+04</pdfrwt>
<totfact> 0.52776480E+00</totfact>
</mgrwt>
</event>
<event>
 4    1  0.2018023E-008  0.2473989E+04  0.7816531E-02  0.8412311E-01
         -2   -1    0    0    0  501 -0.00000000000E+00  0.00000000000E+00  0.49872381614E+03  0.49872381614E+03  0.00000000000E+00 0. -1.
          2   -1    0    0  501    0  0.00000000000E+00 -0.00000000000E+00 -0.30681418355E+04  0.30681418355E+04  0.00000000000E+00 0.  1.
    2000013    1    1    2    0    0 -0.85633938575E+02 -0.78759687082E+03 -0.12899871182E+04  0.17872349502E+04  0.95000000000E+03 0.  0.
   -2000013    1    1    2    0    0  0.85633938575E+02  0.78759687082E+03 -0.12794309012E+04  0.17796307014E+04  0.95000000000E+03 0.  0.
<mgrwt>
<rscale>  0 0.24739890E+04</rscale>
<asrwt>0</asrwt>
<pdfrwt beam="2">  1        2 0.47202183E+00 0.24739890E+04</pdfrwt>
<pdfrwt beam="1">  1       -2 0.76726740E-01 0.24739890E+04</pdfrwt>
<totfact> 0.21401970E+00</totfact>
</mgrwt>
</event>
<event>
 4    1  0.2018023E-008  0.3547945E+04  0.7816531E-02  0.8102521E-01
          2   -1    0    0  501    0  0.00000000000E+00  0.00000000000E+00  0.23845167171E+04  0.23845167171E+04  0.00000000000E+00 0.  1.
         -2   -1    0    0    0  501 -0.00000000000E+00 -0.00000000000E+00 -0.13197551126E+04  0.13197551126E+04  0.00000000000E+00 0. -1.
    2000013    1    1    2    0    0 -0.10397944026E+04  0.48715476641E+03 -0.47230020531E+03  0.15633488574E+04  0.95000000000E+03 0.  0.
   -2000013    1    1    2    0    0  0.10397944026E+04 -0.48715476641E+03  0.15370618098E+04  0.21409229723E+04  0.95000000000E+03 0.  0.
<mgrwt>
<rscale>  0 0.35479448E+04</rscale>
<asrwt>0</asrwt>
<pdfrwt beam="1">  1        2 0.36684873E+00 0.35479448E+04</pdfrwt>
<pdfrwt beam="2">  1       -2 0.20303925E+00 0.35479448E+04</pdfrwt>
<totfact> 0.42190536E-01</totfact>
</mgrwt>
</event>
<event>
 4    1  0.2018023E-008  0.3299407E+04  0.7816531E-02  0.8163046E-01
         -2   -1    0    0    0  501 -0.00000000000E+00  0.00000000000E+00  0.14705068588E+04  0.14705068588E+04  0.00000000000E+00 0. -1.
          2   -1    0    0  501    0  0.00000000000E+00 -0.00000000000E+00 -0.18507374220E+04  0.18507374220E+04  0.00000000000E+00 0.  1.
    2000013    1    1    2    0    0 -0.11665034001E+04 -0.35582441294E+03  0.38961383119E+03  0.15942522174E+04  0.95000000000E+03 0.  0.
   -2000013    1    1    2    0    0  0.11665034001E+04  0.35582441294E+03 -0.76984439447E+03  0.17269920634E+04  0.95000000000E+03 0.  0.
<mgrwt>
<rscale>  0 0.32994073E+04</rscale>
<asrwt>0</asrwt>
<pdfrwt beam="2">  1        2 0.28472883E+00 0.32994073E+04</pdfrwt>
<pdfrwt beam="1">  1       -2 0.22623182E+00 0.32994073E+04</pdfrwt>
<totfact> 0.60985109E-01</totfact>
</mgrwt>
</event>
<event>
 4    1  0.2018023E-008  0.2470816E+04  0.7816531E-02  0.8413457E-01
         -2   -1    0    0    0  501 -0.00000000000E+00  0.00000000000E+00  0.66602869736E+03  0.66602869736E+03  0.00000000000E+00 0. -1.
          2   -1    0    0  501    0  0.00000000000E+00 -0.00000000000E+00 -0.22915429430E+04  0.22915429430E+04  0.00000000000E+00 0.  1.
    2000013    1    1    2    0    0 -0.26495116687E+03  0.50538468674E+03 -0.14663251071E+04  0.18379940485E+04  0.95000000000E+03 0.  0.
   -2000013    1    1    2    0    0  0.26495116687E+03 -0.50538468674E+03 -0.15918913850E+03  0.11195775919E+04  0.95000000000E+03 0.  0.
<mgrwt>
<rscale>  0 0.24708164E+04</rscale>
<asrwt>0</asrwt>
<pdfrwt beam="2">  1        2 0.35254506E+00 0.24708164E+04</pdfrwt>
<pdfrwt beam="1">  1       -2 0.10246595E+00 0.24708164E+04</pdfrwt>
<totfact> 0.31936750E+00</totfact>
</mgrwt>
</event>
<event>
 4    1  0.2018023E-008  0.2735374E+04  0.7816531E-02  0.8323618E-01
         -2   -1    0    0    0  501 -0.00000000000E+00  0.00000000000E+00  0.10398905955E+04  0.10398905955E+04  0.00000000000E+00 0. -1.
          2   -1    0    0  501    0  0.00000000000E+00 -0.00000000000E+00 -0.17988116613E+04  0.17988116613E+04  0.00000000000E+00 0.  1.
    2000013    1    1    2    0    0 -0.79836027399E+02 -0.91731463149E+03 -0.19624282908E+02  0.13231496653E+04  0.95000000000E+03 0.  0.
   -2000013    1    1    2    0    0  0.79836027399E+02  0.91731463149E+03 -0.73929678287E+03  0.15155525915E+04  0.95000000000E+03 0.  0.
<mgrwt>
<rscale>  0 0.27353737E+04</rscale>
<asrwt>0</asrwt>
<pdfrwt beam="2">  1        2 0.27674025E+00 0.27353737E+04</pdfrwt>
<pdfrwt beam="1">  1       -2 0.15998317E+00 0.27353737E+04</pdfrwt>
<totfact> 0.19050378E+00</totfact>
</mgrwt>
</event>
<event>
 4    1  0.2018023E-008  0.2124025E+04  0.7816531E-02  0.8550733E-01
         -2   -1    0    0    0  501 -0.00000000000E+00  0.00000000000E+00  0.41181275271E+03  0.41181275271E+03  0.00000000000E+00 0. -1.
          2   -1    0    0  501    0  0.00000000000E+00 -0.00000000000E+00 -0.27387942872E+04  0.27387942872E+04  0.00000000000E+00 0.  1.
    2000013    1    1    2    0    0  0.19942146189E+03  0.42530946698E+03 -0.10616551747E+04  0.15000895880E+04  0.95000000000E+03 0.  0.
   -2000013    1    1    2    0    0 -0.19942146189E+03 -0.42530946698E+03 -0.12653263598E+04  0.16505174518E+04  0.95000000000E+03 0.  0.
<mgrwt>
<rscale>  0 0.21240249E+04</rscale>
<asrwt>0</asrwt>
<pdfrwt beam="2">  1        2 0.42135296E+00 0.21240249E+04</pdfrwt>
<pdfrwt beam="1">  1       -2 0.63355809E-01 0.21240249E+04</pdfrwt>
<totfact> 0.53447442E+00</totfact>
</mgrwt>
</event>
<event>
 4    1  0.2018023E-008  0.2419128E+04  0.7816531E-02  0.8432377E-01
          2   -1    0    0  501    0  0.00000000000E+00  0.00000000000E+00  0.23814519436E+04  0.23814519436E+04  0.00000000000E+00 0. -1.
         -2   -1    0    0    0  501 -0.00000000000E+00 -0.00000000000E+00 -0.61435013322E+03  0.61435013322E+03  0.00000000000E+00 0.  1.
    2000013    1    1    2    0    0 -0.31408435954E+03  0.66465481322E+03  0.10592540351E+04  0.16015411692E+04  0.95000000000E+03 0.  0.
   -2000013    1    1    2    0    0  0.31408435954E+03 -0.66465481322E+03  0.70784777526E+03  0.13942609076E+04  0.95000000000E+03 0.  0.
<mgrwt>
<rscale>  0 0.24191282E+04</rscale>
<asrwt>0</asrwt>
<pdfrwt beam="1">  1        2 0.36637722E+00 0.24191282E+04</pdfrwt>
<pdfrwt beam="2">  1       -2 0.94515406E-01 0.24191282E+04</pdfrwt>
<totfact> 0.34494875E+00</totfact>
</mgrwt>
</event>
<event>
 4    1  0.2018023E-008  0.3383992E+04  0.7816531E-02  0.8141846E-01
         -2   -1    0    0    0  501 -0.00000000000E+00  0.00000000000E+00  0.22097062319E+04  0.22097062319E+04  0.00000000000E+00 0. -1.
          2   -1    0    0  501    0  0.00000000000E+00 -0.00000000000E+00 -0.12955797227E+04  0.12955797227E+04  0.00000000000E+00 0.  1.
    2000013    1    1    2    0    0 -0.73003008782E+03 -0.66355359931E+03  0.14862055164E+04  0.20210279922E+04  0.95000000000E+03 0.  0.
   -2000013    1    1    2    0    0  0.73003008782E+03  0.66355359931E+03 -0.57207900720E+03  0.14842579623E+04  0.95000000000E+03 0.  0.
<mgrwt>
<rscale>  0 0.33839921E+04</rscale>
<asrwt>0</asrwt>
<pdfrwt beam="2">  1        2 0.19931996E+00 0.33839921E+04</pdfrwt>
<pdfrwt beam="1">  1       -2 0.33995480E+00 0.33839921E+04</pdfrwt>
<totfact> 0.24811837E-01</totfact>
</mgrwt>
</event>
<event>
 4    1  0.2018023E-008  0.3096287E+04  0.7816531E-02  0.8216758E-01
         -2   -1    0    0    0  501 -0.00000000000E+00  0.00000000000E+00  0.73423112875E+03  0.73423112875E+03  0.00000000000E+00 0. -1.
          2   -1    0    0  501    0  0.00000000000E+00 -0.00000000000E+00 -0.32642958638E+04  0.32642958638E+04  0.00000000000E+00 0.  1.
    2000013    1    1    2    0    0  0.67863224341E+03 -0.83005150606E+03 -0.20232473863E+04  0.24790234389E+04  0.95000000000E+03 0.  0.
   -2000013    1    1    2    0    0 -0.67863224341E+03  0.83005150606E+03 -0.50681734875E+03  0.15195035536E+04  0.95000000000E+03 0.  0.
<mgrwt>
<rscale>  0 0.30962866E+04</rscale>
<asrwt>0</asrwt>
<pdfrwt beam="2">  1        2 0.50219937E+00 0.30962866E+04</pdfrwt>
<pdfrwt beam="1">  1       -2 0.11295863E+00 0.30962866E+04</pdfrwt>
<totfact> 0.61489871E-01</totfact>
</mgrwt>
</event>
<event>
 4    1  0.2018023E-008  0.3005637E+04  0.7816531E-02  0.8242123E-01
          2   -1    0    0  501    0  0.00000000000E+00  0.00000000000E+00  0.18886140324E+04  0.18886140324E+04  0.00000000000E+00 0.  1.
         -2   -1    0    0    0  501 -0.00000000000E+00 -0.00000000000E+00 -0.11958311330E+04  0.11958311330E+04  0.00000000000E+00 0. -1.
    2000013    1    1    2    0    0  0.10475452577E+04 -0.11417989090E+02  0.86813332426E+03  0.16594086013E+04  0.95000000000E+03 0.  0.
   -2000013    1    1    2    0    0 -0.10475452577E+04  0.11417989090E+02 -0.17535042486E+03  0.14250365641E+04  0.95000000000E+03 0.  0.
<mgrwt>
<rscale>  0 0.30056370E+04</rscale>
<asrwt>0</asrwt>
<pdfrwt beam="1">  1        2 0.29055600E+00 0.30056370E+04</pdfrwt>
<pdfrwt beam="2">  1       -2 0.18397402E+00 0.30056370E+04</pdfrwt>
<totfact> 0.11226371E+00</totfact>
</mgrwt>
</event>
<event>
 4    1  0.2018023E-008  0.3152451E+04  0.7816531E-02  0.8201489E-01
         -2   -1    0    0    0  501 -0.00000000000E+00  0.00000000000E+00  0.17336971232E+04  0.17336971232E+04  0.00000000000E+00 0. -1.
          2   -1    0    0  501    0  0.00000000000E+00 -0.00000000000E+00 -0.14330571862E+04  0.14330571862E+04  0.00000000000E+00 0.  1.
    2000013    1    1    2    0    0  0.67375798363E+02  0.10088860494E+04  0.90177590303E+03  0.16547176007E+04  0.95000000000E+03 0.  0.
   -2000013    1    1    2    0    0 -0.67375798363E+02 -0.10088860494E+04 -0.60113596600E+03  0.15120367087E+04  0.95000000000E+03 0.  0.
<mgrwt>
<rscale>  0 0.31524512E+04</rscale>
<asrwt>0</asrwt>
<pdfrwt beam="2">  1        2 0.22047034E+00 0.31524512E+04</pdfrwt>
<pdfrwt beam="1">  1       -2 0.26672263E+00 0.31524512E+04</pdfrwt>
<totfact> 0.59443469E-01</totfact>
</mgrwt>
</event>
<event>
 4    1  0.2018023E-008  0.2507220E+04  0.7816531E-02  0.8400418E-01
         -2   -1    0    0    0  501 -0.00000000000E+00  0.00000000000E+00  0.92459954182E+03  0.92459954182E+03  0.00000000000E+00 0. -1.
          2   -1    0    0  501    0  0.00000000000E+00 -0.00000000000E+00 -0.16996959556E+04  0.16996959556E+04  0.00000000000E+00 0.  1.
    2000013    1    1    2    0    0  0.78146215537E+03  0.21272274712E+03 -0.50736640741E+03  0.13475365445E+04  0.95000000000E+03 0.  0.
   -2000013    1    1    2    0    0 -0.78146215537E+03 -0.21272274712E+03 -0.26773000631E+03  0.12767589529E+04  0.95000000000E+03 0.  0.
<mgrwt>
<rscale>  0 0.25072201E+04</rscale>
<asrwt>0</asrwt>
<pdfrwt beam="2">  1        2 0.26149168E+00 0.25072201E+04</pdfrwt>
<pdfrwt beam="1">  1       -2 0.14224608E+00 0.25072201E+04</pdfrwt>
<totfact> 0.30135851E+00</totfact>
</mgrwt>
</event>
<event>
 4    1  0.2018023E-008  0.2028602E+04  0.7816531E-02  0.8593364E-01
         -2   -1    0    0    0  501 -0.00000000000E+00  0.00000000000E+00  0.26081233638E+03  0.26081233638E+03  0.00000000000E+00 0. -1.
          2   -1    0    0  501    0  0.00000000000E+00 -0.00000000000E+00 -0.39446244972E+04  0.39446244972E+04  0.00000000000E+00 0.  1.
    2000013    1    1    2    0    0  0.28555279651E+03 -0.15599272619E+03 -0.15455757892E+04  0.18431436868E+04  0.95000000000E+03 0.  0.
   -2000013    1    1    2    0    0 -0.28555279651E+03  0.15599272619E+03 -0.21382363717E+04  0.23622931468E+04  0.95000000000E+03 0.  0.
<mgrwt>
<rscale>  0 0.20286022E+04</rscale>
<asrwt>0</asrwt>
<pdfrwt beam="2">  1        2 0.60686528E+00 0.20286022E+04</pdfrwt>
<pdfrwt beam="1">  1       -2 0.40124977E-01 0.20286022E+04</pdfrwt>
<totfact> 0.20846526E+00</totfact>
</mgrwt>
</event>
<event>
 4    1  0.2018023E-008  0.3581418E+04  0.7816531E-02  0.8094761E-01
         -2   -1    0    0    0  501 -0.00000000000E+00  0.00000000000E+00  0.20314526114E+04  0.20314526114E+04  0.00000000000E+00 0. -1.
          2   -1    0    0  501    0  0.00000000000E+00 -0.00000000000E+00 -0.15784953779E+04  0.15784953779E+04  0.00000000000E+00 0.  1.
    2000013    1    1    2    0    0 -0.60290492356E+03  0.13718252284E+04 -0.17814934583E+02  0.17743213283E+04  0.95000000000E+03 0.  0.
   -2000013    1    1    2    0    0  0.60290492356E+03 -0.13718252284E+04  0.47077216803E+03  0.18356266610E+04  0.95000000000E+03 0.  0.
<mgrwt>
<rscale>  0 0.35814179E+04</rscale>
<asrwt>0</asrwt>
<pdfrwt beam="2">  1        2 0.24284544E+00 0.35814179E+04</pdfrwt>
<pdfrwt beam="1">  1       -2 0.31253117E+00 0.35814179E+04</pdfrwt>
<totfact> 0.24913259E-01</totfact>
</mgrwt>
</event>
<event>
 4    1  0.2018023E-008  0.2547327E+04  0.7816531E-02  0.8386317E-01
         -2   -1    0    0    0  501 -0.00000000000E+00  0.00000000000E+00  0.56612328462E+03  0.56612328462E+03  0.00000000000E+00 0. -1.
          2   -1    0    0  501    0  0.00000000000E+00 -0.00000000000E+00 -0.28654856740E+04  0.28654856740E+04  0.00000000000E+00 0.  1.
    2000013    1    1    2    0    0  0.72577522022E+03  0.41099464430E+03 -0.94075744743E+03  0.15758143428E+04  0.95000000000E+03 0.  0.
   -2000013    1    1    2    0    0 -0.72577522022E+03 -0.41099464430E+03 -0.13586049419E+04  0.18557946158E+04  0.95000000000E+03 0.  0.
<mgrwt>
<rscale>  0 0.25473266E+04</rscale>
<asrwt>0</asrwt>
<pdfrwt beam="2">  1        2 0.44084396E+00 0.25473266E+04</pdfrwt>
<pdfrwt beam="1">  1       -2 0.87095889E-01 0.25473266E+04</pdfrwt>
<totfact> 0.21357070E+00</totfact>
</mgrwt>
</event>
<event>
 4    1  0.2018023E-008  0.2986551E+04  0.7816531E-02  0.8247582E-01
          1   -1    0    0  501    0  0.00000000000E+00  0.00000000000E+00  0.30457167323E+04  0.30457167323E+04  0.00000000000E+00 0.  1.
         -1   -1    0    0    0  501 -0.00000000000E+00 -0.00000000000E+00 -0.73213359644E+03  0.73213359644E+03  0.00000000000E+00 0. -1.
    2000013    1    1    2    0    0  0.10385945265E+04  0.16158073194E+03  0.56000037239E+03  0.15234458771E+04  0.95000000000E+03 0.  0.
   -2000013    1    1    2    0    0 -0.10385945265E+04 -0.16158073194E+03  0.17535827634E+04  0.22544044516E+04  0.95000000000E+03 0.  0.
<mgrwt>
<rscale>  0 0.29865509E+04</rscale>
<asrwt>0</asrwt>
<pdfrwt beam="1">  1        1 0.46857180E+00 0.29865509E+04</pdfrwt>
<pdfrwt beam="2">  1       -1 0.11263594E+00 0.29865509E+04</pdfrwt>
<totfact> 0.33988281E-01</totfact>
</mgrwt>
</event>
<event>
 4    1  0.2018023E-008  0.2112328E+04  0.7816531E-02  0.8555832E-01
          2   -1    0    0  501    0  0.00000000000E+00  0.00000000000E+00  0.29323050942E+04  0.29323050942E+04  0.00000000000E+00 0.  1.
         -2   -1    0    0    0  501 -0.00000000000E+00 -0.00000000000E+00 -0.38041155816E+03  0.38041155816E+03  0.00000000000E+00 0. -1.
    2000013    1    1    2    0    0  0.41515317927E+03  0.19216661253E+03  0.11805189198E+04  0.15828471465E+04  0.95000000000E+03 0.  0.
   -2000013    1    1    2    0    0 -0.41515317927E+03 -0.19216661253E+03  0.13713746163E+04  0.17298695059E+04  0.95000000000E+03 0.  0.
<mgrwt>
<rscale>  0 0.21123283E+04</rscale>
<asrwt>0</asrwt>
<pdfrwt beam="1">  1        2 0.45112385E+00 0.21123283E+04</pdfrwt>
<pdfrwt beam="2">  1       -2 0.58524857E-01 0.21123283E+04</pdfrwt>
<totfact> 0.48291545E+00</totfact>
</mgrwt>
</event>
<event>
 4    1  0.2018023E-008  0.2815350E+04  0.7816531E-02  0.8298519E-01
          2   -1    0    0  501    0  0.00000000000E+00  0.00000000000E+00  0.37348192279E+04  0.37348192279E+04  0.00000000000E+00 0.  1.
         -2   -1    0    0    0  501 -0.00000000000E+00 -0.00000000000E+00 -0.53056073891E+03  0.53056073891E+03  0.00000000000E+00 0. -1.
    2000013    1    1    2    0    0 -0.23035673316E+03 -0.81552251410E+03  0.25123006492E+04  0.28164331605E+04  0.95000000000E+03 0.  0.
   -2000013    1    1    2    0    0  0.23035673316E+03  0.81552251410E+03  0.69195783978E+03  0.14489468063E+04  0.95000000000E+03 0.  0.
<mgrwt>
<rscale>  0 0.28153497E+04</rscale>
<asrwt>0</asrwt>
<pdfrwt beam="1">  1        2 0.57458756E+00 0.28153497E+04</pdfrwt>
<pdfrwt beam="2">  1       -2 0.81624731E-01 0.28153497E+04</pdfrwt>
<totfact> 0.63141468E-01</totfact>
</mgrwt>
</event>
<event>
 4    1  0.2018023E-008  0.2122140E+04  0.7816531E-02  0.8551553E-01
          1   -1    0    0  501    0  0.00000000000E+00  0.00000000000E+00  0.13021836436E+04  0.13021836436E+04  0.00000000000E+00 0.  1.
         -1   -1    0    0    0  501 -0.00000000000E+00 -0.00000000000E+00 -0.86460096506E+03  0.86460096506E+03  0.00000000000E+00 0. -1.
    2000013    1    1    2    0    0  0.32986538999E+03 -0.33846149990E+03  0.22018852859E+03  0.10836744671E+04  0.95000000000E+03 0.  0.
   -2000013    1    1    2    0    0 -0.32986538999E+03  0.33846149990E+03  0.21739414997E+03  0.10831101416E+04  0.95000000000E+03 0.  0.
<mgrwt>
<rscale>  0 0.21221397E+04</rscale>
<asrwt>0</asrwt>
<pdfrwt beam="1">  1        1 0.20033595E+00 0.21221397E+04</pdfrwt>
<pdfrwt beam="2">  1       -1 0.13301553E+00 0.21221397E+04</pdfrwt>
<totfact> 0.39585428E+00</totfact>
</mgrwt>
</event>
<event>
 4    1  0.2018023E-008  0.2551435E+04  0.7816531E-02  0.8384887E-01
         -2   -1    0    0    0  501 -0.00000000000E+00  0.00000000000E+00  0.10042751657E+04  0.10042751657E+04  0.00000000000E+00 0. -1.
          2   -1    0    0  501    0  0.00000000000E+00 -0.00000000000E+00 -0.16205266311E+04  0.16205266311E+04  0.00000000000E+00 0.  1.
    2000013    1    1    2    0    0  0.24196729463E+03 -0.60053158049E+03  0.26073807055E+03  0.11788429464E+04  0.95000000000E+03 0.  0.
   -2000013    1    1    2    0    0 -0.24196729463E+03  0.60053158049E+03 -0.87698953594E+03  0.14459588504E+04  0.95000000000E+03 0.  0.
<mgrwt>
<rscale>  0 0.25514346E+04</rscale>
<asrwt>0</asrwt>
<pdfrwt beam="2">  1        2 0.24931179E+00 0.25514346E+04</pdfrwt>
<pdfrwt beam="1">  1       -2 0.15450387E+00 0.25514346E+04</pdfrwt>
<totfact> 0.26712639E+00</totfact>
</mgrwt>
</event>
<event>
 4    1  0.2018023E-008  0.4272997E+04  0.7816531E-02  0.7951630E-01
          2   -1    0    0  501    0  0.00000000000E+00  0.00000000000E+00  0.17824613333E+04  0.17824613333E+04  0.00000000000E+00 0.  1.
         -2   -1    0    0    0  501 -0.00000000000E+00 -0.00000000000E+00 -0.25608551171E+04  0.25608551171E+04  0.00000000000E+00 0. -1.
    2000013    1    1    2    0    0 -0.65424823765E+03  0.17977096370E+04 -0.43820371998E+03  0.21804410553E+04  0.95000000000E+03 0.  0.
   -2000013    1    1    2    0    0  0.65424823765E+03 -0.17977096370E+04 -0.34019006386E+03  0.21628753951E+04  0.95000000000E+03 0.  0.
<mgrwt>
<rscale>  0 0.42729967E+04</rscale>
<asrwt>0</asrwt>
<pdfrwt beam="1">  1        2 0.27422482E+00 0.42729967E+04</pdfrwt>
<pdfrwt beam="2">  1       -2 0.39397771E+00 0.42729967E+04</pdfrwt>
<totfact> 0.55327065E-02</totfact>
</mgrwt>
</event>
<event>
 4    1  0.2018023E-008  0.2267748E+04  0.7816531E-02  0.8490747E-01
          2   -1    0    0  501    0  0.00000000000E+00  0.00000000000E+00  0.54928107531E+03  0.54928107531E+03  0.00000000000E+00 0.  1.
         -2   -1    0    0    0  501 -0.00000000000E+00 -0.00000000000E+00 -0.23406417341E+04  0.23406417341E+04  0.00000000000E+00 0. -1.
    2000013    1    1    2    0    0 -0.29890612139E+03 -0.51017090487E+03 -0.66225708162E+03  0.13002706117E+04  0.95000000000E+03 0.  0.
   -2000013    1    1    2    0    0  0.29890612139E+03  0.51017090487E+03 -0.11291035772E+04  0.15896521977E+04  0.95000000000E+03 0.  0.
<mgrwt>
<rscale>  0 0.22677480E+04</rscale>
<asrwt>0</asrwt>
<pdfrwt beam="1">  1        2 0.84504780E-01 0.22677480E+04</pdfrwt>
<pdfrwt beam="2">  1       -2 0.36009873E+00 0.22677480E+04</pdfrwt>
<totfact> 0.67385909E-01</totfact>
</mgrwt>
</event>
<event>
 4    1  0.2018023E-008  0.2252519E+04  0.7816531E-02  0.8496881E-01
          2   -1    0    0  501    0  0.00000000000E+00  0.00000000000E+00  0.12573530712E+04  0.12573530712E+04  0.00000000000E+00 0.  1.
         -2   -1    0    0    0  501 -0.00000000000E+00 -0.00000000000E+00 -0.10088336728E+04  0.10088336728E+04  0.00000000000E+00 0. -1.
    2000013    1    1    2    0    0 -0.36907834078E+03 -0.84470650408E+02  0.59893400954E+03  0.11851481174E+04  0.95000000000E+03 0.  0.
   -2000013    1    1    2    0    0  0.36907834078E+03  0.84470650408E+02 -0.35041461122E+03  0.10810386266E+04  0.95000000000E+03 0.  0.
<mgrwt>
<rscale>  0 0.22525187E+04</rscale>
<asrwt>0</asrwt>
<pdfrwt beam="1">  1        2 0.19343893E+00 0.22525187E+04</pdfrwt>
<pdfrwt beam="2">  1       -2 0.15520518E+00 0.22525187E+04</pdfrwt>
<totfact> 0.43602822E+00</totfact>
</mgrwt>
</event>
<event>
 4    1  0.2018023E-008  0.2195037E+04  0.7816531E-02  0.8520497E-01
         -2   -1    0    0    0  501 -0.00000000000E+00  0.00000000000E+00  0.12056282560E+04  0.12056282560E+04  0.00000000000E+00 0. -1.
          2   -1    0    0  501    0  0.00000000000E+00 -0.00000000000E+00 -0.99910284846E+03  0.99910284846E+03  0.00000000000E+00 0.  1.
    2000013    1    1    2    0    0 -0.37347325552E+03 -0.16975508565E+03 -0.26406760585E+03  0.10679563484E+04  0.95000000000E+03 0.  0.
   -2000013    1    1    2    0    0  0.37347325552E+03  0.16975508565E+03  0.47059301337E+03  0.11367747560E+04  0.95000000000E+03 0.  0.
<mgrwt>
<rscale>  0 0.21950368E+04</rscale>
<asrwt>0</asrwt>
<pdfrwt beam="2">  1        2 0.15370813E+00 0.21950368E+04</pdfrwt>
<pdfrwt beam="1">  1       -2 0.18548127E+00 0.21950368E+04</pdfrwt>
<totfact> 0.38344303E+00</totfact>
</mgrwt>
</event>
<event>
 4    1  0.2018023E-008  0.2435883E+04  0.7816531E-02  0.8426190E-01
          2   -1    0    0  501    0  0.00000000000E+00  0.00000000000E+00  0.28663474980E+04  0.28663474980E+04  0.00000000000E+00 0.  1.
         -2   -1    0    0    0  501 -0.00000000000E+00 -0.00000000000E+00 -0.51751629276E+03  0.51751629276E+03  0.00000000000E+00 0. -1.
    2000013    1    1    2    0    0 -0.11911013305E+03  0.60925434686E+03  0.17886493225E+04  0.21182881017E+04  0.95000000000E+03 0.  0.
   -2000013    1    1    2    0    0  0.11911013305E+03 -0.60925434686E+03  0.56018188274E+03  0.12655756891E+04  0.95000000000E+03 0.  0.
<mgrwt>
<rscale>  0 0.24358830E+04</rscale>
<asrwt>0</asrwt>
<pdfrwt beam="1">  1        2 0.44097653E+00 0.24358830E+04</pdfrwt>
<pdfrwt beam="2">  1       -2 0.79617893E-01 0.24358830E+04</pdfrwt>
<totfact> 0.26399760E+00</totfact>
</mgrwt>
</event>
<event>
 4    1  0.2018023E-008  0.3039936E+04  0.7816531E-02  0.8232418E-01
          2   -1    0    0  501    0  0.00000000000E+00  0.00000000000E+00  0.14769870637E+04  0.14769870637E+04  0.00000000000E+00 0.  1.
         -2   -1    0    0    0  501 -0.00000000000E+00 -0.00000000000E+00 -0.15642000284E+04  0.15642000284E+04  0.00000000000E+00 0. -1.
    2000013    1    1    2    0    0 -0.31217381868E+02  0.11578586861E+04  0.21377732702E+03  0.15132124793E+04  0.95000000000E+03 0.  0.
   -2000013    1    1    2    0    0  0.31217381868E+02 -0.11578586861E+04 -0.30099029175E+03  0.15279746129E+04  0.95000000000E+03 0.  0.
<mgrwt>
<rscale>  0 0.30399363E+04</rscale>
<asrwt>0</asrwt>
<pdfrwt beam="1">  1        2 0.22722878E+00 0.30399363E+04</pdfrwt>
<pdfrwt beam="2">  1       -2 0.24064616E+00 0.30399363E+04</pdfrwt>
<totfact> 0.81915461E-01</totfact>
</mgrwt>
</event>
<event>
 4    1  0.2018023E-008  0.2142041E+04  0.7816531E-02  0.8542947E-01
         -2   -1    0    0    0  501 -0.00000000000E+00  0.00000000000E+00  0.81053439762E+03  0.81053439762E+03  0.00000000000E+00 0. -1.
          2   -1    0    0  501    0  0.00000000000E+00 -0.00000000000E+00 -0.14152199831E+04  0.14152199831E+04  0.00000000000E+00 0.  1.
    2000013    1    1    2    0    0  0.19529568384E+03  0.38722174320E+03 -0.54933702247E+03  0.11799797654E+04  0.95000000000E+03 0.  0.
   -2000013    1    1    2    0    0 -0.19529568384E+03 -0.38722174320E+03 -0.55348562973E+02  0.10457746153E+04  0.95000000000E+03 0.  0.
<mgrwt>
<rscale>  0 0.21420406E+04</rscale>
<asrwt>0</asrwt>
<pdfrwt beam="2">  1        2 0.21772615E+00 0.21420406E+04</pdfrwt>
<pdfrwt beam="1">  1       -2 0.12469760E+00 0.21420406E+04</pdfrwt>
<totfact> 0.62848627E+00</totfact>
</mgrwt>
</event>
<event>
 4    1  0.2018023E-008  0.2474940E+04  0.7816531E-02  0.8411968E-01
          2   -1    0    0  501    0  0.00000000000E+00  0.00000000000E+00  0.14140914714E+04  0.14140914714E+04  0.00000000000E+00 0.  1.
         -2   -1    0    0    0  501 -0.00000000000E+00 -0.00000000000E+00 -0.10829083735E+04  0.10829083735E+04  0.00000000000E+00 0. -1.
    2000013    1    1    2    0    0  0.36603600830E+03  0.66751001286E+03  0.38956015160E+03  0.12782054171E+04  0.95000000000E+03 0.  0.
   -2000013    1    1    2    0    0 -0.36603600830E+03 -0.66751001286E+03 -0.58377053711E+02  0.12187944277E+04  0.95000000000E+03 0.  0.
<mgrwt>
<rscale>  0 0.24749396E+04</rscale>
<asrwt>0</asrwt>
<pdfrwt beam="1">  1        2 0.21755254E+00 0.24749396E+04</pdfrwt>
<pdfrwt beam="2">  1       -2 0.16660129E+00 0.24749396E+04</pdfrwt>
<totfact> 0.28620977E+00</totfact>
</mgrwt>
</event>
<event>
 4    1  0.2018023E-008  0.2124591E+04  0.7816531E-02  0.8550488E-01
         -2   -1    0    0    0  501 -0.00000000000E+00  0.00000000000E+00  0.33225029059E+03  0.33225029059E+03  0.00000000000E+00 0. -1.
          2   -1    0    0  501    0  0.00000000000E+00 -0.00000000000E+00 -0.33964496883E+04  0.33964496883E+04  0.00000000000E+00 0.  1.
    2000013    1    1    2    0    0  0.24867877125E+03  0.30486274536E+03 -0.10638381200E+04  0.14795384315E+04  0.95000000000E+03 0.  0.
   -2000013    1    1    2    0    0 -0.24867877125E+03 -0.30486274536E+03 -0.20003612777E+04  0.22491615474E+04  0.95000000000E+03 0.  0.
<mgrwt>
<rscale>  0 0.21245907E+04</rscale>
<asrwt>0</asrwt>
<pdfrwt beam="2">  1        2 0.52253072E+00 0.21245907E+04</pdfrwt>
<pdfrwt beam="1">  1       -2 0.51115429E-01 0.21245907E+04</pdfrwt>
<totfact> 0.32009749E+00</totfact>
</mgrwt>
</event>
<event>
 4    1  0.2018023E-008  0.2161442E+04  0.7816531E-02  0.8534651E-01
         -2   -1    0    0    0  501 -0.00000000000E+00  0.00000000000E+00  0.10189586139E+04  0.10189586139E+04  0.00000000000E+00 0. -1.
          2   -1    0    0  501    0  0.00000000000E+00 -0.00000000000E+00 -0.11462265397E+04  0.11462265397E+04  0.00000000000E+00 0.  1.
    2000013    1    1    2    0    0 -0.15007194899E+03 -0.43847615892E+03  0.16186584098E+03  0.10693378710E+04  0.95000000000E+03 0.  0.
   -2000013    1    1    2    0    0  0.15007194899E+03  0.43847615892E+03 -0.28913376673E+03  0.10958472826E+04  0.95000000000E+03 0.  0.
<mgrwt>
<rscale>  0 0.21614416E+04</rscale>
<asrwt>0</asrwt>
<pdfrwt beam="2">  1        2 0.17634254E+00 0.21614416E+04</pdfrwt>
<pdfrwt beam="1">  1       -2 0.15676286E+00 0.21614416E+04</pdfrwt>
<totfact> 0.49832265E+00</totfact>
</mgrwt>
</event>
<event>
 4    1  0.2018023E-008  0.2267129E+04  0.7816531E-02  0.8490996E-01
          1   -1    0    0  501    0  0.00000000000E+00  0.00000000000E+00  0.76485743514E+03  0.76485743514E+03  0.00000000000E+00 0.  1.
         -1   -1    0    0    0  501 -0.00000000000E+00 -0.00000000000E+00 -0.16800104114E+04  0.16800104114E+04  0.00000000000E+00 0. -1.
    2000013    1    1    2    0    0  0.50967206458E+03  0.21920365693E+03 -0.16292976027E+03  0.11121429600E+04  0.95000000000E+03 0.  0.
   -2000013    1    1    2    0    0 -0.50967206458E+03 -0.21920365693E+03 -0.75222321603E+03  0.13327248866E+04  0.95000000000E+03 0.  0.
<mgrwt>
<rscale>  0 0.22671290E+04</rscale>
<asrwt>0</asrwt>
<pdfrwt beam="1">  1        1 0.11767037E+00 0.22671290E+04</pdfrwt>
<pdfrwt beam="2">  1       -1 0.25846314E+00 0.22671290E+04</pdfrwt>
<totfact> 0.13217661E+00</totfact>
</mgrwt>
</event>
<event>
 4    1  0.2018023E-008  0.2160186E+04  0.7816531E-02  0.8535185E-01
         -2   -1    0    0    0  501 -0.00000000000E+00  0.00000000000E+00  0.50523226842E+03  0.50523226842E+03  0.00000000000E+00 0. -1.
          2   -1    0    0  501    0  0.00000000000E+00 -0.00000000000E+00 -0.23090384770E+04  0.23090384770E+04  0.00000000000E+00 0.  1.
    2000013    1    1    2    0    0  0.49908494443E+03  0.51327513653E+01 -0.74240497638E+03  0.13049050831E+04  0.95000000000E+03 0.  0.
   -2000013    1    1    2    0    0 -0.49908494443E+03 -0.51327513653E+01 -0.10614012322E+04  0.15093656623E+04  0.95000000000E+03 0.  0.
<mgrwt>
<rscale>  0 0.21601859E+04</rscale>
<asrwt>0</asrwt>
<pdfrwt beam="2">  1        2 0.35523669E+00 0.21601859E+04</pdfrwt>
<pdfrwt beam="1">  1       -2 0.77728041E-01 0.21601859E+04</pdfrwt>
<totfact> 0.60583738E+00</totfact>
</mgrwt>
</event>
<event>
 4    1  0.2018023E-008  0.2455592E+04  0.7816531E-02  0.8418979E-01
         -2   -1    0    0    0  501 -0.00000000000E+00  0.00000000000E+00  0.57430187713E+03  0.57430187713E+03  0.00000000000E+00 0. -1.
          2   -1    0    0  501    0  0.00000000000E+00 -0.00000000000E+00 -0.26248972741E+04  0.26248972741E+04  0.00000000000E+00 0.  1.
    2000013    1    1    2    0    0  0.64119197360E+03  0.38194138498E+03 -0.13106634414E+04  0.17825108766E+04  0.95000000000E+03 0.  0.
   -2000013    1    1    2    0    0 -0.64119197360E+03 -0.38194138498E+03 -0.73993195552E+03  0.14166882746E+04  0.95000000000E+03 0.  0.
<mgrwt>
<rscale>  0 0.24555923E+04</rscale>
<asrwt>0</asrwt>
<pdfrwt beam="2">  1        2 0.40383036E+00 0.24555923E+04</pdfrwt>
<pdfrwt beam="1">  1       -2 0.88354134E-01 0.24555923E+04</pdfrwt>
<totfact> 0.29039883E+00</totfact>
</mgrwt>
</event>
<event>
 4    1  0.2018023E-008  0.1969863E+04  0.7816531E-02  0.8620842E-01
         -2   -1    0    0    0  501 -0.00000000000E+00  0.00000000000E+00  0.30610822494E+03  0.30610822494E+03  0.00000000000E+00 0. -1.
          2   -1    0    0  501    0  0.00000000000E+00 -0.00000000000E+00 -0.31691067798E+04  0.31691067798E+04  0.00000000000E+00 0.  1.
    2000013    1    1    2    0    0  0.17689666906E+03  0.16234467813E+03 -0.12555975652E+04  0.15926937784E+04  0.95000000000E+03 0.  0.
   -2000013    1    1    2    0    0 -0.17689666906E+03 -0.16234467813E+03 -0.16074009897E+04  0.18825212264E+04  0.95000000000E+03 0.  0.
<mgrwt>
<rscale>  0 0.19698626E+04</rscale>
<asrwt>0</asrwt>
<pdfrwt beam="2">  1        2 0.48755488E+00 0.19698626E+04</pdfrwt>
<pdfrwt beam="1">  1       -2 0.47093574E-01 0.19698626E+04</pdfrwt>
<totfact> 0.54255000E+00</totfact>
</mgrwt>
</event>
<event>
 4    1  0.2018023E-008  0.3280787E+04  0.7816531E-02  0.8167801E-01
         -2   -1    0    0    0  501 -0.00000000000E+00  0.00000000000E+00  0.93750353263E+03  0.93750353263E+03  0.00000000000E+00 0. -1.
          2   -1    0    0  501    0  0.00000000000E+00 -0.00000000000E+00 -0.28702726265E+04  0.28702726265E+04  0.00000000000E+00 0.  1.
    2000013    1    1    2    0    0  0.12229702037E+02  0.10573757081E+04 -0.19165404568E+04  0.23861727256E+04  0.95000000000E+03 0.  0.
   -2000013    1    1    2    0    0 -0.12229702037E+02 -0.10573757081E+04 -0.16228637108E+02  0.14216034336E+04  0.95000000000E+03 0.  0.
<mgrwt>
<rscale>  0 0.32807869E+04</rscale>
<asrwt>0</asrwt>
<pdfrwt beam="2">  1        2 0.44158040E+00 0.32807869E+04</pdfrwt>
<pdfrwt beam="1">  1       -2 0.14423131E+00 0.32807869E+04</pdfrwt>
<totfact> 0.58209438E-01</totfact>
</mgrwt>
</event>
<event>
 4    1  0.2018023E-008  0.2432608E+04  0.7816531E-02  0.8427395E-01
         -2   -1    0    0    0  501 -0.00000000000E+00  0.00000000000E+00  0.18885286966E+04  0.18885286966E+04  0.00000000000E+00 0.  1.
          2   -1    0    0  501    0  0.00000000000E+00 -0.00000000000E+00 -0.78335902368E+03  0.78335902368E+03  0.00000000000E+00 0. -1.
    2000013    1    1    2    0    0  0.21169410531E+03 -0.69665246489E+03  0.31508186244E+03  0.12377057934E+04  0.95000000000E+03 0.  0.
   -2000013    1    1    2    0    0 -0.21169410531E+03  0.69665246489E+03  0.79008781053E+03  0.14341819269E+04  0.95000000000E+03 0.  0.
<mgrwt>
<rscale>  0 0.24326085E+04</rscale>
<asrwt>0</asrwt>
<pdfrwt beam="2">  1        2 0.12051677E+00 0.24326085E+04</pdfrwt>
<pdfrwt beam="1">  1       -2 0.29054287E+00 0.24326085E+04</pdfrwt>
<totfact> 0.11536629E+00</totfact>
</mgrwt>
</event>
<event>
 4    1  0.2018023E-008  0.2238099E+04  0.7816531E-02  0.8502736E-01
          2   -1    0    0  501    0  0.00000000000E+00  0.00000000000E+00  0.13300803550E+04  0.13300803550E+04  0.00000000000E+00 0.  1.
         -2   -1    0    0    0  501 -0.00000000000E+00 -0.00000000000E+00 -0.94150046940E+03  0.94150046940E+03  0.00000000000E+00 0. -1.
    2000013    1    1    2    0    0  0.56423809385E+03  0.11308384003E+03  0.55798279318E+02  0.11120998289E+04  0.95000000000E+03 0.  0.
   -2000013    1    1    2    0    0 -0.56423809385E+03 -0.11308384003E+03  0.33278160626E+03  0.11594809955E+04  0.95000000000E+03 0.  0.
<mgrwt>
<rscale>  0 0.22380985E+04</rscale>
<asrwt>0</asrwt>
<pdfrwt beam="1">  1        2 0.20462775E+00 0.22380985E+04</pdfrwt>
<pdfrwt beam="2">  1       -2 0.14484623E+00 0.22380985E+04</pdfrwt>
<totfact> 0.47548515E+00</totfact>
</mgrwt>
</event>
<event>
 4    1  0.2018023E-008  0.2516971E+04  0.7816531E-02  0.8396964E-01
          2   -1    0    0  501    0  0.00000000000E+00  0.00000000000E+00  0.99786489194E+03  0.99786489194E+03  0.00000000000E+00 0.  1.
         -2   -1    0    0    0  501 -0.00000000000E+00 -0.00000000000E+00 -0.15871751574E+04  0.15871751574E+04  0.00000000000E+00 0. -1.
    2000013    1    1    2    0    0  0.80509067314E+03  0.14339306356E+03 -0.40972898609E+03  0.13187533525E+04  0.95000000000E+03 0.  0.
   -2000013    1    1    2    0    0 -0.80509067314E+03 -0.14339306356E+03 -0.17958127932E+03  0.12662866968E+04  0.95000000000E+03 0.  0.
<mgrwt>
<rscale>  0 0.25169715E+04</rscale>
<asrwt>0</asrwt>
<pdfrwt beam="1">  1        2 0.15351768E+00 0.25169715E+04</pdfrwt>
<pdfrwt beam="2">  1       -2 0.24418079E+00 0.25169715E+04</pdfrwt>
<totfact> 0.15705136E+00</totfact>
</mgrwt>
</event>
<event>
 4    1  0.2018023E-008  0.2400497E+04  0.7816531E-02  0.8439317E-01
          2   -1    0    0  501    0  0.00000000000E+00  0.00000000000E+00  0.17228080449E+04  0.17228080449E+04  0.00000000000E+00 0.  1.
         -2   -1    0    0    0  501 -0.00000000000E+00 -0.00000000000E+00 -0.83619114155E+03  0.83619114155E+03  0.00000000000E+00 0. -1.
    2000013    1    1    2    0    0  0.47458507479E+03  0.55829608429E+03  0.40682417491E+03  0.12668588794E+04  0.95000000000E+03 0.  0.
   -2000013    1    1    2    0    0 -0.47458507479E+03 -0.55829608429E+03  0.47979272847E+03  0.12921403071E+04  0.95000000000E+03 0.  0.
<mgrwt>
<rscale>  0 0.24004973E+04</rscale>
<asrwt>0</asrwt>
<pdfrwt beam="1">  1        2 0.26504739E+00 0.24004973E+04</pdfrwt>
<pdfrwt beam="2">  1       -2 0.12864479E+00 0.24004973E+04</pdfrwt>
<totfact> 0.38199818E+00</totfact>
</mgrwt>
</event>
<event>
 4    1  0.2018023E-008  0.2389714E+04  0.7816531E-02  0.8443365E-01
          2   -1    0    0  501    0  0.00000000000E+00  0.00000000000E+00  0.31639965795E+04  0.31639965795E+04  0.00000000000E+00 0.  1.
         -2   -1    0    0    0  501 -0.00000000000E+00 -0.00000000000E+00 -0.45122773062E+03  0.45122773062E+03  0.00000000000E+00 0. -1.
    2000013    1    1    2    0    0  0.59434870358E+03 -0.40605248994E+03  0.14834438206E+04  0.19029541705E+04  0.95000000000E+03 0.  0.
   -2000013    1    1    2    0    0 -0.59434870358E+03  0.40605248994E+03  0.12293250283E+04  0.17122701397E+04  0.95000000000E+03 0.  0.
<mgrwt>
<rscale>  0 0.23897138E+04</rscale>
<asrwt>0</asrwt>
<pdfrwt beam="1">  1        2 0.48676869E+00 0.23897138E+04</pdfrwt>
<pdfrwt beam="2">  1       -2 0.69419653E-01 0.23897138E+04</pdfrwt>
<totfact> 0.23338248E+00</totfact>
</mgrwt>
</event>
<event>
 4    1  0.2018023E-008  0.2264368E+04  0.7816531E-02  0.8492104E-01
          2   -1    0    0  501    0  0.00000000000E+00  0.00000000000E+00  0.19873726731E+04  0.19873726731E+04  0.00000000000E+00 0.  1.
         -2   -1    0    0    0  501 -0.00000000000E+00 -0.00000000000E+00 -0.64499261048E+03  0.64499261048E+03  0.00000000000E+00 0. -1.
    2000013    1    1    2    0    0  0.53873851208E+03  0.62638386717E+02  0.10104734924E+04  0.14892009370E+04  0.95000000000E+03 0.  0.
   -2000013    1    1    2    0    0 -0.53873851208E+03 -0.62638386717E+02  0.33190657017E+03  0.11431643465E+04  0.95000000000E+03 0.  0.
<mgrwt>
<rscale>  0 0.22643681E+04</rscale>
<asrwt>0</asrwt>
<pdfrwt beam="1">  1        2 0.30574964E+00 0.22643681E+04</pdfrwt>
<pdfrwt beam="2">  1       -2 0.99229633E-01 0.22643681E+04</pdfrwt>
<totfact> 0.51936748E+00</totfact>
</mgrwt>
</event>
<event>
 4    1  0.2018023E-008  0.2721511E+04  0.7816531E-02  0.8328059E-01
          2   -1    0    0  501    0  0.00000000000E+00  0.00000000000E+00  0.45200645619E+04  0.45200645619E+04  0.00000000000E+00 0.  1.
         -2   -1    0    0    0  501 -0.00000000000E+00 -0.00000000000E+00 -0.40965246867E+03  0.40965246867E+03  0.00000000000E+00 0. -1.
    2000013    1    1    2    0    0  0.83514574145E+03  0.49001790718E+03  0.22500432790E+04  0.26273143543E+04  0.95000000000E+03 0.  0.
   -2000013    1    1    2    0    0 -0.83514574145E+03 -0.49001790718E+03  0.18603688141E+04  0.23024026762E+04  0.95000000000E+03 0.  0.
<mgrwt>
<rscale>  0 0.27215111E+04</rscale>
<asrwt>0</asrwt>
<pdfrwt beam="1">  1        2 0.69539451E+00 0.27215111E+04</pdfrwt>
<pdfrwt beam="2">  1       -2 0.63023460E-01 0.27215111E+04</pdfrwt>
<totfact> 0.24086566E-01</totfact>
</mgrwt>
</event>
<event>
 4    1  0.2018023E-008  0.2393252E+04  0.7816531E-02  0.8442034E-01
         -1   -1    0    0    0  501 -0.00000000000E+00  0.00000000000E+00  0.74606778442E+03  0.74606778442E+03  0.00000000000E+00 0. -1.
          1   -1    0    0  501    0  0.00000000000E+00 -0.00000000000E+00 -0.19192808368E+04  0.19192808368E+04  0.00000000000E+00 0.  1.
    2000013    1    1    2    0    0  0.40549028190E+03 -0.21333355746E+03 -0.12160945538E+04  0.16097576026E+04  0.95000000000E+03 0.  0.
   -2000013    1    1    2    0    0 -0.40549028190E+03  0.21333355746E+03  0.42881501375E+02  0.10555910186E+04  0.95000000000E+03 0.  0.
<mgrwt>
<rscale>  0 0.23932518E+04</rscale>
<asrwt>0</asrwt>
<pdfrwt beam="2">  1        1 0.29527397E+00 0.23932518E+04</pdfrwt>
<pdfrwt beam="1">  1       -1 0.11477966E+00 0.23932518E+04</pdfrwt>
<totfact> 0.20899518E+00</totfact>
</mgrwt>
</event>
<event>
 4    1  0.2018023E-008  0.1942433E+04  0.7816531E-02  0.8634018E-01
          2   -1    0    0  501    0  0.00000000000E+00  0.00000000000E+00  0.82121679453E+03  0.82121679453E+03  0.00000000000E+00 0.  1.
         -2   -1    0    0    0  501 -0.00000000000E+00 -0.00000000000E+00 -0.11486142329E+04  0.11486142329E+04  0.00000000000E+00 0. -1.
    2000013    1    1    2    0    0 -0.17289292933E+03 -0.10114500487E+03 -0.13806328351E+03  0.98065475437E+03  0.95000000000E+03 0.  0.
   -2000013    1    1    2    0    0  0.17289292933E+03  0.10114500487E+03 -0.18933415489E+03  0.98917627308E+03  0.95000000000E+03 0.  0.
<mgrwt>
<rscale>  0 0.19424328E+04</rscale>
<asrwt>0</asrwt>
<pdfrwt beam="1">  1        2 0.12634104E+00 0.19424328E+04</pdfrwt>
<pdfrwt beam="2">  1       -2 0.17670988E+00 0.19424328E+04</pdfrwt>
<totfact> 0.59304714E+00</totfact>
</mgrwt>
</event>
<event>
 4    1  0.2018023E-008  0.2779250E+04  0.7816531E-02  0.8309739E-01
         -2   -1    0    0    0  501 -0.00000000000E+00  0.00000000000E+00  0.13273316847E+04  0.13273316847E+04  0.00000000000E+00 0. -1.
          2   -1    0    0  501    0  0.00000000000E+00 -0.00000000000E+00 -0.14548420221E+04  0.14548420221E+04  0.00000000000E+00 0.  1.
    2000013    1    1    2    0    0  0.86579658823E+03 -0.34458427656E+03 -0.46444594447E+03  0.14094509893E+04  0.95000000000E+03 0.  0.
   -2000013    1    1    2    0    0 -0.86579658823E+03  0.34458427656E+03  0.33693560714E+03  0.13727227175E+04  0.95000000000E+03 0.  0.
<mgrwt>
<rscale>  0 0.27792502E+04</rscale>
<asrwt>0</asrwt>
<pdfrwt beam="2">  1        2 0.22382185E+00 0.27792502E+04</pdfrwt>
<pdfrwt beam="1">  1       -2 0.20420488E+00 0.27792502E+04</pdfrwt>
<totfact> 0.14652417E+00</totfact>
</mgrwt>
</event>
<event>
 4    1  0.2018023E-008  0.3702735E+04  0.7816531E-02  0.8067356E-01
          2   -1    0    0  501    0  0.00000000000E+00  0.00000000000E+00  0.23816545081E+04  0.23816545081E+04  0.00000000000E+00 0.  1.
         -2   -1    0    0    0  501 -0.00000000000E+00 -0.00000000000E+00 -0.14391511498E+04  0.14391511498E+04  0.00000000000E+00 0. -1.
    2000013    1    1    2    0    0  0.12484292082E+04 -0.55909818228E+02  0.14840583273E+04  0.21602385319E+04  0.95000000000E+03 0.  0.
   -2000013    1    1    2    0    0 -0.12484292082E+04  0.55909818228E+02 -0.54155496905E+03  0.16605671261E+04  0.95000000000E+03 0.  0.
<mgrwt>
<rscale>  0 0.37027346E+04</rscale>
<asrwt>0</asrwt>
<pdfrwt beam="1">  1        2 0.36640839E+00 0.37027346E+04</pdfrwt>
<pdfrwt beam="2">  1       -2 0.22140787E+00 0.37027346E+04</pdfrwt>
<totfact> 0.31873382E-01</totfact>
</mgrwt>
</event>
<event>
 4    1  0.2018023E-008  0.2367960E+04  0.7816531E-02  0.8451597E-01
         -2   -1    0    0    0  501 -0.00000000000E+00  0.00000000000E+00  0.24278889676E+04  0.24278889676E+04  0.00000000000E+00 0. -1.
          2   -1    0    0  501    0  0.00000000000E+00 -0.00000000000E+00 -0.57737769108E+03  0.57737769108E+03  0.00000000000E+00 0.  1.
    2000013    1    1    2    0    0  0.12727474896E+03 -0.67094076892E+03  0.69488519662E+03  0.13607813247E+04  0.95000000000E+03 0.  0.
   -2000013    1    1    2    0    0 -0.12727474896E+03  0.67094076892E+03  0.11556260799E+04  0.16444853339E+04  0.95000000000E+03 0.  0.
<mgrwt>
<rscale>  0 0.23679602E+04</rscale>
<asrwt>0</asrwt>
<pdfrwt beam="2">  1        2 0.88827339E-01 0.23679602E+04</pdfrwt>
<pdfrwt beam="1">  1       -2 0.37352137E+00 0.23679602E+04</pdfrwt>
<totfact> 0.51671501E-01</totfact>
</mgrwt>
</event>
<event>
 4    1  0.2018023E-008  0.2737583E+04  0.7816531E-02  0.8322913E-01
         -1   -1    0    0    0  501 -0.00000000000E+00  0.00000000000E+00  0.12424246983E+04  0.12424246983E+04  0.00000000000E+00 0. -1.
          1   -1    0    0  501    0  0.00000000000E+00 -0.00000000000E+00 -0.15080107127E+04  0.15080107127E+04  0.00000000000E+00 0.  1.
    2000013    1    1    2    0    0  0.43617738014E+03  0.32505948309E+03  0.69275532150E+03  0.12955015669E+04  0.95000000000E+03 0.  0.
   -2000013    1    1    2    0    0 -0.43617738014E+03 -0.32505948309E+03 -0.95834133594E+03  0.14549338441E+04  0.95000000000E+03 0.  0.
<mgrwt>
<rscale>  0 0.27375827E+04</rscale>
<asrwt>0</asrwt>
<pdfrwt beam="2">  1        1 0.23200165E+00 0.27375827E+04</pdfrwt>
<pdfrwt beam="1">  1       -1 0.19114226E+00 0.27375827E+04</pdfrwt>
<totfact> 0.97514730E-01</totfact>
</mgrwt>
</event>
<event>
 4    1  0.2018023E-008  0.2827243E+04  0.7816531E-02  0.8294860E-01
         -2   -1    0    0    0  501 -0.00000000000E+00  0.00000000000E+00  0.11928262591E+04  0.11928262591E+04  0.00000000000E+00 0. -1.
          2   -1    0    0  501    0  0.00000000000E+00 -0.00000000000E+00 -0.16752868322E+04  0.16752868322E+04  0.00000000000E+00 0.  1.
    2000013    1    1    2    0    0  0.96043932476E+03  0.22127019576E+03 -0.59906424925E+03  0.14942497016E+04  0.95000000000E+03 0.  0.
   -2000013    1    1    2    0    0 -0.96043932476E+03 -0.22127019576E+03  0.11660367620E+03  0.13738633896E+04  0.95000000000E+03 0.  0.
<mgrwt>
<rscale>  0 0.28272433E+04</rscale>
<asrwt>0</asrwt>
<pdfrwt beam="2">  1        2 0.25773644E+00 0.28272433E+04</pdfrwt>
<pdfrwt beam="1">  1       -2 0.18351173E+00 0.28272433E+04</pdfrwt>
<totfact> 0.15076456E+00</totfact>
</mgrwt>
</event>
<event>
 4    1  0.2018023E-008  0.2358458E+04  0.7816531E-02  0.8455222E-01
         -2   -1    0    0    0  501 -0.00000000000E+00  0.00000000000E+00  0.51387540967E+03  0.51387540967E+03  0.00000000000E+00 0. -1.
          2   -1    0    0  501    0  0.00000000000E+00 -0.00000000000E+00 -0.27060670808E+04  0.27060670808E+04  0.00000000000E+00 0.  1.
    2000013    1    1    2    0    0  0.53113674833E+03  0.24252100434E+03 -0.57235936755E+03  0.12534025405E+04  0.95000000000E+03 0.  0.
   -2000013    1    1    2    0    0 -0.53113674833E+03 -0.24252100434E+03 -0.16198323036E+04  0.19665399499E+04  0.95000000000E+03 0.  0.
<mgrwt>
<rscale>  0 0.23584583E+04</rscale>
<asrwt>0</asrwt>
<pdfrwt beam="2">  1        2 0.41631801E+00 0.23584583E+04</pdfrwt>
<pdfrwt beam="1">  1       -2 0.79057756E-01 0.23584583E+04</pdfrwt>
<totfact> 0.33735802E+00</totfact>
</mgrwt>
</event>
<event>
 4    1  0.2018023E-008  0.3084383E+04  0.7816531E-02  0.8220037E-01
         -2   -1    0    0    0  501 -0.00000000000E+00  0.00000000000E+00  0.10969694065E+04  0.10969694065E+04  0.00000000000E+00 0. -1.
          2   -1    0    0  501    0  0.00000000000E+00 -0.00000000000E+00 -0.21681142933E+04  0.21681142933E+04  0.00000000000E+00 0.  1.
    2000013    1    1    2    0    0  0.51817131549E+03  0.76372158002E+03 -0.13718435951E+04  0.19068893553E+04  0.95000000000E+03 0.  0.
   -2000013    1    1    2    0    0 -0.51817131549E+03 -0.76372158002E+03  0.30069870833E+03  0.13581943444E+04  0.95000000000E+03 0.  0.
<mgrwt>
<rscale>  0 0.30843833E+04</rscale>
<asrwt>0</asrwt>
<pdfrwt beam="2">  1        2 0.33355604E+00 0.30843833E+04</pdfrwt>
<pdfrwt beam="1">  1       -2 0.16876453E+00 0.30843833E+04</pdfrwt>
<totfact> 0.99505392E-01</totfact>
</mgrwt>
</event>
<event>
 4    1  0.2018023E-008  0.3583997E+04  0.7816531E-02  0.8094167E-01
          2   -1    0    0  501    0  0.00000000000E+00  0.00000000000E+00  0.19059276240E+04  0.19059276240E+04  0.00000000000E+00 0.  1.
         -2   -1    0    0    0  501 -0.00000000000E+00 -0.00000000000E+00 -0.16848795070E+04  0.16848795070E+04  0.00000000000E+00 0. -1.
    2000013    1    1    2    0    0  0.51614908294E+03 -0.13791604645E+04 -0.26470720108E+03  0.17723045350E+04  0.95000000000E+03 0.  0.
   -2000013    1    1    2    0    0 -0.51614908294E+03  0.13791604645E+04  0.48575531811E+03  0.18185025960E+04  0.95000000000E+03 0.  0.
<mgrwt>
<rscale>  0 0.35839969E+04</rscale>
<asrwt>0</asrwt>
<pdfrwt beam="1">  1        2 0.29321963E+00 0.35839969E+04</pdfrwt>
<pdfrwt beam="2">  1       -2 0.25921223E+00 0.35839969E+04</pdfrwt>
<totfact> 0.34698858E-01</totfact>
</mgrwt>
</event>
<event>
 4    1  0.2018023E-008  0.3323669E+04  0.7816531E-02  0.8156899E-01
         -2   -1    0    0    0  501 -0.00000000000E+00  0.00000000000E+00  0.10693082373E+04  0.10693082373E+04  0.00000000000E+00 0. -1.
          2   -1    0    0  501    0  0.00000000000E+00 -0.00000000000E+00 -0.25826923497E+04  0.25826923497E+04  0.00000000000E+00 0.  1.
    2000013    1    1    2    0    0 -0.11690578254E+04 -0.47925381930E+03 -0.13199886386E+04  0.20594296367E+04  0.95000000000E+03 0.  0.
   -2000013    1    1    2    0    0  0.11690578254E+04  0.47925381930E+03 -0.19339547369E+03  0.15925709503E+04  0.95000000000E+03 0.  0.
<mgrwt>
<rscale>  0 0.33236692E+04</rscale>
<asrwt>0</asrwt>
<pdfrwt beam="2">  1        2 0.39733728E+00 0.33236692E+04</pdfrwt>
<pdfrwt beam="1">  1       -2 0.16450896E+00 0.33236692E+04</pdfrwt>
<totfact> 0.60603910E-01</totfact>
</mgrwt>
</event>
<event>
 4    1  0.2018023E-008  0.2213707E+04  0.7816531E-02  0.8512745E-01
         -1   -1    0    0    0  501 -0.00000000000E+00  0.00000000000E+00  0.55484905379E+03  0.55484905379E+03  0.00000000000E+00 0. -1.
          1   -1    0    0  501    0  0.00000000000E+00 -0.00000000000E+00 -0.22080324019E+04  0.22080324019E+04  0.00000000000E+00 0.  1.
    2000013    1    1    2    0    0 -0.48933545132E+03 -0.28394632395E+03 -0.76356689111E+03  0.13437295472E+04  0.95000000000E+03 0.  0.
   -2000013    1    1    2    0    0  0.48933545132E+03  0.28394632395E+03 -0.88961645698E+03  0.14191519085E+04  0.95000000000E+03 0.  0.
<mgrwt>
<rscale>  0 0.22137070E+04</rscale>
<asrwt>0</asrwt>
<pdfrwt beam="2">  1        1 0.33969730E+00 0.22137070E+04</pdfrwt>
<pdfrwt beam="1">  1       -1 0.85361392E-01 0.22137070E+04</pdfrwt>
<totfact> 0.26569521E+00</totfact>
</mgrwt>
</event>
<event>
 4    1  0.2018023E-008  0.2612818E+04  0.7816531E-02  0.8363860E-01
          2   -1    0    0  501    0  0.00000000000E+00  0.00000000000E+00  0.16770060964E+04  0.16770060964E+04  0.00000000000E+00 0.  1.
         -2   -1    0    0    0  501 -0.00000000000E+00 -0.00000000000E+00 -0.10177088875E+04  0.10177088875E+04  0.00000000000E+00 0. -1.
    2000013    1    1    2    0    0  0.76431106521E+03  0.11976506479E+03 -0.13809644602E+03  0.12329175575E+04  0.95000000000E+03 0.  0.
   -2000013    1    1    2    0    0 -0.76431106521E+03 -0.11976506479E+03  0.79739365482E+03  0.14617974264E+04  0.95000000000E+03 0.  0.
<mgrwt>
<rscale>  0 0.26128176E+04</rscale>
<asrwt>0</asrwt>
<pdfrwt beam="1">  1        2 0.25800094E+00 0.26128176E+04</pdfrwt>
<pdfrwt beam="2">  1       -2 0.15657060E+00 0.26128176E+04</pdfrwt>
<totfact> 0.23847539E+00</totfact>
</mgrwt>
</event>
<event>
 4    1  0.2018023E-008  0.2320315E+04  0.7816531E-02  0.8469954E-01
         -2   -1    0    0    0  501 -0.00000000000E+00  0.00000000000E+00  0.82824458938E+03  0.82824458938E+03  0.00000000000E+00 0. -1.
          2   -1    0    0  501    0  0.00000000000E+00 -0.00000000000E+00 -0.16250822717E+04  0.16250822717E+04  0.00000000000E+00 0.  1.
    2000013    1    1    2    0    0  0.60563546243E+03  0.19318868563E+03 -0.18868061512E+03  0.11585407011E+04  0.95000000000E+03 0.  0.
   -2000013    1    1    2    0    0 -0.60563546243E+03 -0.19318868563E+03 -0.60815706717E+03  0.12947861599E+04  0.95000000000E+03 0.  0.
<mgrwt>
<rscale>  0 0.23203151E+04</rscale>
<asrwt>0</asrwt>
<pdfrwt beam="2">  1        2 0.25001266E+00 0.23203151E+04</pdfrwt>
<pdfrwt beam="1">  1       -2 0.12742224E+00 0.23203151E+04</pdfrwt>
<totfact> 0.44655141E+00</totfact>
</mgrwt>
</event>
<event>
 4    1  0.2018023E-008  0.2788104E+04  0.7816531E-02  0.8306971E-01
         -2   -1    0    0    0  501 -0.00000000000E+00  0.00000000000E+00  0.49847947537E+04  0.49847947537E+04  0.00000000000E+00 0.  1.
          2   -1    0    0  501    0  0.00000000000E+00 -0.00000000000E+00 -0.38986188446E+03  0.38986188446E+03  0.00000000000E+00 0. -1.
    2000013    1    1    2    0    0 -0.95237909993E+03 -0.35337707755E+03  0.21147894159E+04  0.25311530145E+04  0.95000000000E+03 0.  0.
   -2000013    1    1    2    0    0  0.95237909993E+03  0.35337707755E+03  0.24801434533E+04  0.28435036237E+04  0.95000000000E+03 0.  0.
<mgrwt>
<rscale>  0 0.27881044E+04</rscale>
<asrwt>0</asrwt>
<pdfrwt beam="2">  1        2 0.59978755E-01 0.27881044E+04</pdfrwt>
<pdfrwt beam="1">  1       -2 0.76689145E+00 0.27881044E+04</pdfrwt>
<totfact> 0.85077160E-03</totfact>
</mgrwt>
</event>
<event>
 4    1  0.2018023E-008  0.2035932E+04  0.7816531E-02  0.8590003E-01
         -2   -1    0    0    0  501 -0.00000000000E+00  0.00000000000E+00  0.63716419787E+03  0.63716419787E+03  0.00000000000E+00 0. -1.
          2   -1    0    0  501    0  0.00000000000E+00 -0.00000000000E+00 -0.16263542434E+04  0.16263542434E+04  0.00000000000E+00 0.  1.
    2000013    1    1    2    0    0 -0.36448011729E+03  0.94057042525E+01 -0.52644089434E+03  0.11456763236E+04  0.95000000000E+03 0.  0.
   -2000013    1    1    2    0    0  0.36448011729E+03 -0.94057042525E+01 -0.46274915120E+03  0.11178421177E+04  0.95000000000E+03 0.  0.
<mgrwt>
<rscale>  0 0.20359319E+04</rscale>
<asrwt>0</asrwt>
<pdfrwt beam="2">  1        2 0.25020834E+00 0.20359319E+04</pdfrwt>
<pdfrwt beam="1">  1       -2 0.98025262E-01 0.20359319E+04</pdfrwt>
<totfact> 0.86470140E+00</totfact>
</mgrwt>
</event>
<event>
 4    1  0.2018023E-008  0.2694292E+04  0.7816531E-02  0.8336859E-01
         -2   -1    0    0    0  501 -0.00000000000E+00  0.00000000000E+00  0.74482140445E+03  0.74482140445E+03  0.00000000000E+00 0. -1.
          2   -1    0    0  501    0  0.00000000000E+00 -0.00000000000E+00 -0.24365609627E+04  0.24365609627E+04  0.00000000000E+00 0.  1.
    2000013    1    1    2    0    0 -0.46230569478E+03  0.79840645943E+03 -0.11377970427E+04  0.17459271291E+04  0.95000000000E+03 0.  0.
   -2000013    1    1    2    0    0  0.46230569478E+03 -0.79840645943E+03 -0.55394251560E+03  0.14354552381E+04  0.95000000000E+03 0.  0.
<mgrwt>
<rscale>  0 0.26942923E+04</rscale>
<asrwt>0</asrwt>
<pdfrwt beam="2">  1        2 0.37485554E+00 0.26942923E+04</pdfrwt>
<pdfrwt beam="1">  1       -2 0.11458791E+00 0.26942923E+04</pdfrwt>
<totfact> 0.19771600E+00</totfact>
</mgrwt>
</event>
<event>
 4    1  0.2018023E-008  0.2563792E+04  0.7816531E-02  0.8380605E-01
          2   -1    0    0  501    0  0.00000000000E+00  0.00000000000E+00  0.26816969910E+04  0.26816969910E+04  0.00000000000E+00 0.  1.
         -2   -1    0    0    0  501 -0.00000000000E+00 -0.00000000000E+00 -0.61276767264E+03  0.61276767264E+03  0.00000000000E+00 0. -1.
    2000013    1    1    2    0    0 -0.77919169881E+03  0.33600222935E+03  0.12194329110E+04  0.17633927033E+04  0.95000000000E+03 0.  0.
   -2000013    1    1    2    0    0  0.77919169881E+03 -0.33600222935E+03  0.84949640736E+03  0.15310719603E+04  0.95000000000E+03 0.  0.
<mgrwt>
<rscale>  0 0.25637919E+04</rscale>
<asrwt>0</asrwt>
<pdfrwt beam="1">  1        2 0.41256876E+00 0.25637919E+04</pdfrwt>
<pdfrwt beam="2">  1       -2 0.94271951E-01 0.25637919E+04</pdfrwt>
<totfact> 0.22919989E+00</totfact>
</mgrwt>
</event>
<event>
 4    1  0.2018023E-008  0.2909045E+04  0.7816531E-02  0.8270191E-01
         -2   -1    0    0    0  501 -0.00000000000E+00  0.00000000000E+00  0.16284414982E+04  0.16284414982E+04  0.00000000000E+00 0. -1.
          2   -1    0    0  501    0  0.00000000000E+00 -0.00000000000E+00 -0.12991781578E+04  0.12991781578E+04  0.00000000000E+00 0.  1.
    2000013    1    1    2    0    0  0.44093114864E+03  0.72508291774E+03  0.87123310806E+03  0.15432798333E+04  0.95000000000E+03 0.  0.
   -2000013    1    1    2    0    0 -0.44093114864E+03 -0.72508291774E+03 -0.54196976769E+03  0.13843398226E+04  0.95000000000E+03 0.  0.
<mgrwt>
<rscale>  0 0.29090449E+04</rscale>
<asrwt>0</asrwt>
<pdfrwt beam="2">  1        2 0.19987356E+00 0.29090449E+04</pdfrwt>
<pdfrwt beam="1">  1       -2 0.25052946E+00 0.29090449E+04</pdfrwt>
<totfact> 0.91034397E-01</totfact>
</mgrwt>
</event>
<event>
 4    1  0.2018023E-008  0.2151801E+04  0.7816531E-02  0.8538762E-01
          1   -1    0    0  501    0  0.00000000000E+00  0.00000000000E+00  0.83867626079E+03  0.83867626079E+03  0.00000000000E+00 0.  1.
         -1   -1    0    0    0  501 -0.00000000000E+00 -0.00000000000E+00 -0.13802248225E+04  0.13802248225E+04  0.00000000000E+00 0. -1.
    2000013    1    1    2    0    0 -0.37435669273E+03 -0.26132394182E+03 -0.49344458842E+03  0.11637958145E+04  0.95000000000E+03 0.  0.
   -2000013    1    1    2    0    0  0.37435669273E+03  0.26132394182E+03 -0.48103973251E+02  0.10551052688E+04  0.95000000000E+03 0.  0.
<mgrwt>
<rscale>  0 0.21518009E+04</rscale>
<asrwt>0</asrwt>
<pdfrwt beam="1">  1        1 0.12902712E+00 0.21518009E+04</pdfrwt>
<pdfrwt beam="2">  1       -1 0.21234228E+00 0.21518009E+04</pdfrwt>
<totfact> 0.23232064E+00</totfact>
</mgrwt>
</event>
<event>
 4    1  0.2018023E-008  0.3075186E+04  0.7816531E-02  0.8222581E-01
         -1   -1    0    0    0  501 -0.00000000000E+00  0.00000000000E+00  0.14708977134E+04  0.14708977134E+04  0.00000000000E+00 0. -1.
          1   -1    0    0  501    0  0.00000000000E+00 -0.00000000000E+00 -0.16073119583E+04  0.16073119583E+04  0.00000000000E+00 0.  1.
    2000013    1    1    2    0    0  0.85667497203E+03  0.31447049157E+03  0.72560982075E+03  0.15039259655E+04  0.95000000000E+03 0.  0.
   -2000013    1    1    2    0    0 -0.85667497203E+03 -0.31447049157E+03 -0.86202406569E+03  0.15742837062E+04  0.95000000000E+03 0.  0.
<mgrwt>
<rscale>  0 0.30751855E+04</rscale>
<asrwt>0</asrwt>
<pdfrwt beam="2">  1        1 0.24727876E+00 0.30751855E+04</pdfrwt>
<pdfrwt beam="1">  1       -1 0.22629196E+00 0.30751855E+04</pdfrwt>
<totfact> 0.46599577E-01</totfact>
</mgrwt>
</event>
<event>
 4    1  0.2018023E-008  0.2551266E+04  0.7816531E-02  0.8384946E-01
         -2   -1    0    0    0  501 -0.00000000000E+00  0.00000000000E+00  0.77517246211E+03  0.77517246211E+03  0.00000000000E+00 0. -1.
          2   -1    0    0  501    0  0.00000000000E+00 -0.00000000000E+00 -0.20991962272E+04  0.20991962272E+04  0.00000000000E+00 0.  1.
    2000013    1    1    2    0    0  0.75419596015E+03 -0.42725433897E+02 -0.21973822993E+03  0.12334593219E+04  0.95000000000E+03 0.  0.
   -2000013    1    1    2    0    0 -0.75419596015E+03  0.42725433897E+02 -0.11042855352E+04  0.16409093675E+04  0.95000000000E+03 0.  0.
<mgrwt>
<rscale>  0 0.25512657E+04</rscale>
<asrwt>0</asrwt>
<pdfrwt beam="2">  1        2 0.32295327E+00 0.25512657E+04</pdfrwt>
<pdfrwt beam="1">  1       -2 0.11925730E+00 0.25512657E+04</pdfrwt>
<totfact> 0.28169226E+00</totfact>
</mgrwt>
</event>
<event>
 4    1  0.2018023E-008  0.2823190E+04  0.7816531E-02  0.8296105E-01
          2   -1    0    0  501    0  0.00000000000E+00  0.00000000000E+00  0.18331261629E+04  0.18331261629E+04  0.00000000000E+00 0.  1.
         -2   -1    0    0    0  501 -0.00000000000E+00 -0.00000000000E+00 -0.10869956960E+04  0.10869956960E+04  0.00000000000E+00 0. -1.
    2000013    1    1    2    0    0  0.25738151350E+03  0.98836609264E+03  0.59727366094E+03  0.15173492026E+04  0.95000000000E+03 0.  0.
   -2000013    1    1    2    0    0 -0.25738151350E+03 -0.98836609264E+03  0.14885680590E+03  0.14027726563E+04  0.95000000000E+03 0.  0.
<mgrwt>
<rscale>  0 0.28231899E+04</rscale>
<asrwt>0</asrwt>
<pdfrwt beam="1">  1        2 0.28201941E+00 0.28231899E+04</pdfrwt>
<pdfrwt beam="2">  1       -2 0.16723011E+00 0.28231899E+04</pdfrwt>
<totfact> 0.16027560E+00</totfact>
</mgrwt>
</event>
<event>
 4    1  0.2018023E-008  0.2309614E+04  0.7816531E-02  0.8474140E-01
         -2   -1    0    0    0  501 -0.00000000000E+00  0.00000000000E+00  0.60175148302E+03  0.60175148302E+03  0.00000000000E+00 0. -1.
          2   -1    0    0  501    0  0.00000000000E+00 -0.00000000000E+00 -0.22161618946E+04  0.22161618946E+04  0.00000000000E+00 0.  1.
    2000013    1    1    2    0    0 -0.24589722324E+03  0.39907599083E+03 -0.24629789170E+03  0.10876073475E+04  0.95000000000E+03 0.  0.
   -2000013    1    1    2    0    0  0.24589722324E+03 -0.39907599083E+03 -0.13681125199E+04  0.17303060301E+04  0.95000000000E+03 0.  0.
<mgrwt>
<rscale>  0 0.23096136E+04</rscale>
<asrwt>0</asrwt>
<pdfrwt beam="2">  1        2 0.34094799E+00 0.23096136E+04</pdfrwt>
<pdfrwt beam="1">  1       -2 0.92577149E-01 0.23096136E+04</pdfrwt>
<totfact> 0.45339314E+00</totfact>
</mgrwt>
</event>
<event>
 4    1  0.2018023E-008  0.2056934E+04  0.7816531E-02  0.8580455E-01
         -2   -1    0    0    0  501 -0.00000000000E+00  0.00000000000E+00  0.83209088858E+03  0.83209088858E+03  0.00000000000E+00 0. -1.
          2   -1    0    0  501    0  0.00000000000E+00 -0.00000000000E+00 -0.12711890580E+04  0.12711890580E+04  0.00000000000E+00 0.  1.
    2000013    1    1    2    0    0  0.24062511827E+03  0.30707816746E+03 -0.27599600385E+03  0.10634243004E+04  0.95000000000E+03 0.  0.
   -2000013    1    1    2    0    0 -0.24062511827E+03 -0.30707816746E+03 -0.16310216553E+03  0.10398556462E+04  0.95000000000E+03 0.  0.
<mgrwt>
<rscale>  0 0.20569344E+04</rscale>
<asrwt>0</asrwt>
<pdfrwt beam="2">  1        2 0.19556755E+00 0.20569344E+04</pdfrwt>
<pdfrwt beam="1">  1       -2 0.12801398E+00 0.20569344E+04</pdfrwt>
<totfact> 0.71780639E+00</totfact>
</mgrwt>
</event>
<event>
 4    1  0.2018023E-008  0.2615716E+04  0.7816531E-02  0.8362882E-01
         -2   -1    0    0    0  501 -0.00000000000E+00  0.00000000000E+00  0.12351472170E+04  0.12351472170E+04  0.00000000000E+00 0. -1.
          2   -1    0    0  501    0  0.00000000000E+00 -0.00000000000E+00 -0.13848489156E+04  0.13848489156E+04  0.00000000000E+00 0.  1.
    2000013    1    1    2    0    0  0.62693125102E+03 -0.53899640173E+02  0.56810634531E+03  0.12732606898E+04  0.95000000000E+03 0.  0.
   -2000013    1    1    2    0    0 -0.62693125102E+03  0.53899640173E+02 -0.71780804397E+03  0.13467354427E+04  0.95000000000E+03 0.  0.
<mgrwt>
<rscale>  0 0.26157158E+04</rscale>
<asrwt>0</asrwt>
<pdfrwt beam="2">  1        2 0.21305368E+00 0.26157158E+04</pdfrwt>
<pdfrwt beam="1">  1       -2 0.19002265E+00 0.26157158E+04</pdfrwt>
<totfact> 0.20210036E+00</totfact>
</mgrwt>
</event>
<event>
 4    1  0.2018023E-008  0.2655198E+04  0.7816531E-02  0.8349690E-01
          2   -1    0    0  501    0  0.00000000000E+00  0.00000000000E+00  0.27751422974E+04  0.27751422974E+04  0.00000000000E+00 0.  1.
         -2   -1    0    0    0  501 -0.00000000000E+00 -0.00000000000E+00 -0.63510965548E+03  0.63510965548E+03  0.00000000000E+00 0. -1.
    2000013    1    1    2    0    0  0.80615302133E+03  0.32923673682E+03  0.14796877363E+04  0.19622067474E+04  0.95000000000E+03 0.  0.
   -2000013    1    1    2    0    0 -0.80615302133E+03 -0.32923673682E+03  0.66034490563E+03  0.14480452055E+04  0.95000000000E+03 0.  0.
<mgrwt>
<rscale>  0 0.26551984E+04</rscale>
<asrwt>0</asrwt>
<pdfrwt beam="1">  1        2 0.42694496E+00 0.26551984E+04</pdfrwt>
<pdfrwt beam="2">  1       -2 0.97709179E-01 0.26551984E+04</pdfrwt>
<totfact> 0.18385585E+00</totfact>
</mgrwt>
</event>
<event>
 4    1  0.2018023E-008  0.2670483E+04  0.7816531E-02  0.8344646E-01
          2   -1    0    0  501    0  0.00000000000E+00  0.00000000000E+00  0.36731118258E+04  0.36731118258E+04  0.00000000000E+00 0.  1.
         -2   -1    0    0    0  501 -0.00000000000E+00 -0.00000000000E+00 -0.48538394032E+03  0.48538394032E+03  0.00000000000E+00 0. -1.
    2000013    1    1    2    0    0  0.60466943515E+02 -0.93366653037E+03  0.14839726339E+04  0.19950098294E+04  0.95000000000E+03 0.  0.
   -2000013    1    1    2    0    0 -0.60466943515E+02  0.93366653037E+03  0.17037552516E+04  0.21634859368E+04  0.95000000000E+03 0.  0.
<mgrwt>
<rscale>  0 0.26704827E+04</rscale>
<asrwt>0</asrwt>
<pdfrwt beam="1">  1        2 0.56509411E+00 0.26704827E+04</pdfrwt>
<pdfrwt beam="2">  1       -2 0.74674455E-01 0.26704827E+04</pdfrwt>
<totfact> 0.86685944E-01</totfact>
</mgrwt>
</event>
<event>
 4    1  0.2018023E-008  0.2103107E+04  0.7816531E-02  0.8559876E-01
         -2   -1    0    0    0  501 -0.00000000000E+00  0.00000000000E+00  0.39492577371E+03  0.39492577371E+03  0.00000000000E+00 0. -1.
          2   -1    0    0  501    0  0.00000000000E+00 -0.00000000000E+00 -0.27999307050E+04  0.27999307050E+04  0.00000000000E+00 0.  1.
    2000013    1    1    2    0    0  0.13515471826E+02 -0.43942116328E+03 -0.13543466710E+04  0.17117326111E+04  0.95000000000E+03 0.  0.
   -2000013    1    1    2    0    0 -0.13515471826E+02  0.43942116328E+03 -0.10506582603E+04  0.14831238676E+04  0.95000000000E+03 0.  0.
<mgrwt>
<rscale>  0 0.21031070E+04</rscale>
<asrwt>0</asrwt>
<pdfrwt beam="2">  1        2 0.43075857E+00 0.21031070E+04</pdfrwt>
<pdfrwt beam="1">  1       -2 0.60757812E-01 0.21031070E+04</pdfrwt>
<totfact> 0.53790190E+00</totfact>
</mgrwt>
</event>
<event>
 4    1  0.2018023E-008  0.2668088E+04  0.7816531E-02  0.8345434E-01
         -2   -1    0    0    0  501 -0.00000000000E+00  0.00000000000E+00  0.14122189350E+04  0.14122189350E+04  0.00000000000E+00 0. -1.
          2   -1    0    0  501    0  0.00000000000E+00 -0.00000000000E+00 -0.12601965861E+04  0.12601965861E+04  0.00000000000E+00 0.  1.
    2000013    1    1    2    0    0 -0.84535937440E+03  0.16135544539E+03  0.44607683494E+03  0.13572592215E+04  0.95000000000E+03 0.  0.
   -2000013    1    1    2    0    0  0.84535937440E+03 -0.16135544539E+03 -0.29405448602E+03  0.13151562996E+04  0.95000000000E+03 0.  0.
<mgrwt>
<rscale>  0 0.26680881E+04</rscale>
<asrwt>0</asrwt>
<pdfrwt beam="2">  1        2 0.19387640E+00 0.26680881E+04</pdfrwt>
<pdfrwt beam="1">  1       -2 0.21726445E+00 0.26680881E+04</pdfrwt>
<totfact> 0.15784713E+00</totfact>
</mgrwt>
</event>
<event>
 4    1  0.2018023E-008  0.2212419E+04  0.7816531E-02  0.8513277E-01
          1   -1    0    0  501    0  0.00000000000E+00  0.00000000000E+00  0.12080819163E+04  0.12080819163E+04  0.00000000000E+00 0. -1.
         -1   -1    0    0    0  501 -0.00000000000E+00 -0.00000000000E+00 -0.10129277755E+04  0.10129277755E+04  0.00000000000E+00 0.  1.
    2000013    1    1    2    0    0 -0.44108636706E+03 -0.22290901126E+03  0.37606024276E+03  0.11349744124E+04  0.95000000000E+03 0.  0.
   -2000013    1    1    2    0    0  0.44108636706E+03  0.22290901126E+03 -0.18090610203E+03  0.10860352795E+04  0.95000000000E+03 0.  0.
<mgrwt>
<rscale>  0 0.22124192E+04</rscale>
<asrwt>0</asrwt>
<pdfrwt beam="1">  1        1 0.18585876E+00 0.22124192E+04</pdfrwt>
<pdfrwt beam="2">  1       -1 0.15583504E+00 0.22124192E+04</pdfrwt>
<totfact> 0.30189421E+00</totfact>
</mgrwt>
</event>
<event>
 4    1  0.2018023E-008  0.2187716E+04  0.7816531E-02  0.8523558E-01
         -2   -1    0    0    0  501 -0.00000000000E+00  0.00000000000E+00  0.11092608319E+04  0.11092608319E+04  0.00000000000E+00 0. -1.
          2   -1    0    0  501    0  0.00000000000E+00 -0.00000000000E+00 -0.10786694694E+04  0.10786694694E+04  0.00000000000E+00 0.  1.
    2000013    1    1    2    0    0  0.18237268364E+03 -0.48316246380E+03  0.18059956115E+03  0.10962764084E+04  0.95000000000E+03 0.  0.
   -2000013    1    1    2    0    0 -0.18237268364E+03  0.48316246380E+03 -0.15000819865E+03  0.10916538929E+04  0.95000000000E+03 0.  0.
<mgrwt>
<rscale>  0 0.21877164E+04</rscale>
<asrwt>0</asrwt>
<pdfrwt beam="2">  1        2 0.16594915E+00 0.21877164E+04</pdfrwt>
<pdfrwt beam="1">  1       -2 0.17065551E+00 0.21877164E+04</pdfrwt>
<totfact> 0.43327987E+00</totfact>
</mgrwt>
</event>
<event>
 4    1  0.2018023E-008  0.2252330E+04  0.7816531E-02  0.8496957E-01
          2   -1    0    0  501    0  0.00000000000E+00  0.00000000000E+00  0.25061239877E+04  0.25061239877E+04  0.00000000000E+00 0.  1.
         -2   -1    0    0    0  501 -0.00000000000E+00 -0.00000000000E+00 -0.50605946793E+03  0.50605946793E+03  0.00000000000E+00 0. -1.
    2000013    1    1    2    0    0  0.10471182881E+03  0.59480533794E+03  0.10421074715E+04  0.15340293150E+04  0.95000000000E+03 0.  0.
   -2000013    1    1    2    0    0 -0.10471182881E+03 -0.59480533794E+03  0.95795704828E+03  0.14781541406E+04  0.95000000000E+03 0.  0.
<mgrwt>
<rscale>  0 0.22523301E+04</rscale>
<asrwt>0</asrwt>
<pdfrwt beam="1">  1        2 0.38555753E+00 0.22523301E+04</pdfrwt>
<pdfrwt beam="2">  1       -2 0.77855304E-01 0.22523301E+04</pdfrwt>
<totfact> 0.46171832E+00</totfact>
</mgrwt>
</event>
<event>
 4    1  0.2018023E-008  0.3056398E+04  0.7816531E-02  0.8227807E-01
          2   -1    0    0  501    0  0.00000000000E+00  0.00000000000E+00  0.29099392707E+04  0.29099392707E+04  0.00000000000E+00 0.  1.
         -2   -1    0    0    0  501 -0.00000000000E+00 -0.00000000000E+00 -0.80255688082E+03  0.80255688082E+03  0.00000000000E+00 0. -1.
    2000013    1    1    2    0    0  0.10035221929E+04  0.38337856208E+03  0.16951164250E+04  0.22203503345E+04  0.95000000000E+03 0.  0.
   -2000013    1    1    2    0    0 -0.10035221929E+04 -0.38337856208E+03  0.41226596490E+03  0.14921458171E+04  0.95000000000E+03 0.  0.
<mgrwt>
<rscale>  0 0.30563977E+04</rscale>
<asrwt>0</asrwt>
<pdfrwt beam="1">  1        2 0.44768296E+00 0.30563977E+04</pdfrwt>
<pdfrwt beam="2">  1       -2 0.12347029E+00 0.30563977E+04</pdfrwt>
<totfact> 0.83422028E-01</totfact>
</mgrwt>
</event>
<event>
 4    1  0.2018023E-008  0.2788247E+04  0.7816531E-02  0.8306927E-01
          2   -1    0    0  501    0  0.00000000000E+00  0.00000000000E+00  0.17104327247E+04  0.17104327247E+04  0.00000000000E+00 0.  1.
         -2   -1    0    0    0  501 -0.00000000000E+00 -0.00000000000E+00 -0.11363090066E+04  0.11363090066E+04  0.00000000000E+00 0. -1.
    2000013    1    1    2    0    0  0.33572589335E+03 -0.60462145047E+03  0.10530011210E+04  0.15778435711E+04  0.95000000000E+03 0.  0.
   -2000013    1    1    2    0    0 -0.33572589335E+03  0.60462145047E+03 -0.47887740293E+03  0.12688981602E+04  0.95000000000E+03 0.  0.
<mgrwt>
<rscale>  0 0.27882468E+04</rscale>
<asrwt>0</asrwt>
<pdfrwt beam="1">  1        2 0.26314350E+00 0.27882468E+04</pdfrwt>
<pdfrwt beam="2">  1       -2 0.17481677E+00 0.27882468E+04</pdfrwt>
<totfact> 0.16611543E+00</totfact>
</mgrwt>
</event>
<event>
 4    1  0.2018023E-008  0.3585363E+04  0.7816531E-02  0.8093853E-01
         -2   -1    0    0    0  501 -0.00000000000E+00  0.00000000000E+00  0.14867155745E+04  0.14867155745E+04  0.00000000000E+00 0. -1.
          2   -1    0    0  501    0  0.00000000000E+00 -0.00000000000E+00 -0.21616153672E+04  0.21616153672E+04  0.00000000000E+00 0.  1.
    2000013    1    1    2    0    0 -0.11551052065E+04  0.23002995910E+03  0.64069463983E+03  0.16432198397E+04  0.95000000000E+03 0.  0.
   -2000013    1    1    2    0    0  0.11551052065E+04 -0.23002995910E+03 -0.13155944325E+04  0.20051111019E+04  0.95000000000E+03 0.  0.
<mgrwt>
<rscale>  0 0.35853632E+04</rscale>
<asrwt>0</asrwt>
<pdfrwt beam="2">  1        2 0.33255621E+00 0.35853632E+04</pdfrwt>
<pdfrwt beam="1">  1       -2 0.22872547E+00 0.35853632E+04</pdfrwt>
<totfact> 0.38567034E-01</totfact>
</mgrwt>
</event>
<event>
 4    1  0.2018023E-008  0.2755864E+04  0.7816531E-02  0.8317103E-01
         -1   -1    0    0    0  501 -0.00000000000E+00  0.00000000000E+00  0.16573827899E+04  0.16573827899E+04  0.00000000000E+00 0. -1.
          1   -1    0    0  501    0  0.00000000000E+00 -0.00000000000E+00 -0.11455992194E+04  0.11455992194E+04  0.00000000000E+00 0.  1.
    2000013    1    1    2    0    0 -0.48557262829E+03  0.87166943984E+03  0.23081170854E+03  0.13969117490E+04  0.95000000000E+03 0.  0.
   -2000013    1    1    2    0    0  0.48557262829E+03 -0.87166943984E+03  0.28097186190E+03  0.14060702603E+04  0.95000000000E+03 0.  0.
<mgrwt>
<rscale>  0 0.27558639E+04</rscale>
<asrwt>0</asrwt>
<pdfrwt beam="2">  1        1 0.17624603E+00 0.27558639E+04</pdfrwt>
<pdfrwt beam="1">  1       -1 0.25498197E+00 0.27558639E+04</pdfrwt>
<totfact> 0.65881639E-01</totfact>
</mgrwt>
</event>
<event>
 4    1  0.2018023E-008  0.2260825E+04  0.7816531E-02  0.8493529E-01
          2   -1    0    0  501    0  0.00000000000E+00  0.00000000000E+00  0.88446342530E+03  0.88446342530E+03  0.00000000000E+00 0.  1.
         -2   -1    0    0    0  501 -0.00000000000E+00 -0.00000000000E+00 -0.14447547871E+04  0.14447547871E+04  0.00000000000E+00 0. -1.
    2000013    1    1    2    0    0  0.50828021242E+03 -0.12027692606E+03  0.49723755337E+02  0.10852593078E+04  0.95000000000E+03 0.  0.
   -2000013    1    1    2    0    0 -0.50828021242E+03  0.12027692606E+03 -0.61001511717E+03  0.12439589046E+04  0.95000000000E+03 0.  0.
<mgrwt>
<rscale>  0 0.22608253E+04</rscale>
<asrwt>0</asrwt>
<pdfrwt beam="1">  1        2 0.13607130E+00 0.22608253E+04</pdfrwt>
<pdfrwt beam="2">  1       -2 0.22226997E+00 0.22608253E+04</pdfrwt>
<totfact> 0.26120774E+00</totfact>
</mgrwt>
</event>
<event>
 4    1  0.2018023E-008  0.2520299E+04  0.7816531E-02  0.8395789E-01
         -2   -1    0    0    0  501 -0.00000000000E+00  0.00000000000E+00  0.19561892064E+04  0.19561892064E+04  0.00000000000E+00 0. -1.
          2   -1    0    0  501    0  0.00000000000E+00 -0.00000000000E+00 -0.81177046475E+03  0.81177046475E+03  0.00000000000E+00 0.  1.
    2000013    1    1    2    0    0  0.22237915982E+03 -0.67658136991E+03  0.10359090872E+04  0.15756974575E+04  0.95000000000E+03 0.  0.
   -2000013    1    1    2    0    0 -0.22237915982E+03  0.67658136991E+03  0.10850965448E+03  0.11922622136E+04  0.95000000000E+03 0.  0.
<mgrwt>
<rscale>  0 0.25202989E+04</rscale>
<asrwt>0</asrwt>
<pdfrwt beam="2">  1        2 0.12488776E+00 0.25202989E+04</pdfrwt>
<pdfrwt beam="1">  1       -2 0.30095218E+00 0.25202989E+04</pdfrwt>
<totfact> 0.94337552E-01</totfact>
</mgrwt>
</event>
<event>
 4    1  0.2018023E-008  0.2263598E+04  0.7816531E-02  0.8492414E-01
         -2   -1    0    0    0  501 -0.00000000000E+00  0.00000000000E+00  0.13098244657E+04  0.13098244657E+04  0.00000000000E+00 0. -1.
          2   -1    0    0  501    0  0.00000000000E+00 -0.00000000000E+00 -0.97796984866E+03  0.97796984866E+03  0.00000000000E+00 0.  1.
    2000013    1    1    2    0    0 -0.22310830429E+03 -0.41873478364E+03 -0.22986141118E+03  0.10864862644E+04  0.95000000000E+03 0.  0.
   -2000013    1    1    2    0    0  0.22310830429E+03  0.41873478364E+03  0.56171602827E+03  0.12013080500E+04  0.95000000000E+03 0.  0.
<mgrwt>
<rscale>  0 0.22635979E+04</rscale>
<asrwt>0</asrwt>
<pdfrwt beam="2">  1        2 0.15045690E+00 0.22635979E+04</pdfrwt>
<pdfrwt beam="1">  1       -2 0.20151146E+00 0.22635979E+04</pdfrwt>
<totfact> 0.30760207E+00</totfact>
</mgrwt>
</event>
<event>
 4    1  0.2018023E-008  0.2481434E+04  0.7816531E-02  0.8409630E-01
         -2   -1    0    0    0  501 -0.00000000000E+00  0.00000000000E+00  0.11513257114E+04  0.11513257114E+04  0.00000000000E+00 0. -1.
          2   -1    0    0  501    0  0.00000000000E+00 -0.00000000000E+00 -0.13370491084E+04  0.13370491084E+04  0.00000000000E+00 0.  1.
    2000013    1    1    2    0    0 -0.32240553064E+03  0.64069446526E+03 -0.44376083001E+03  0.12703772661E+04  0.95000000000E+03 0.  0.
   -2000013    1    1    2    0    0  0.32240553064E+03 -0.64069446526E+03  0.25803743306E+03  0.12179975537E+04  0.95000000000E+03 0.  0.
<mgrwt>
<rscale>  0 0.24814343E+04</rscale>
<asrwt>0</asrwt>
<pdfrwt beam="2">  1        2 0.20569986E+00 0.24814343E+04</pdfrwt>
<pdfrwt beam="1">  1       -2 0.17712703E+00 0.24814343E+04</pdfrwt>
<totfact> 0.26680203E+00</totfact>
</mgrwt>
</event>
<event>
 4    1  0.2018023E-008  0.2443923E+04  0.7816531E-02  0.8423240E-01
          2   -1    0    0  501    0  0.00000000000E+00  0.00000000000E+00  0.26199405830E+04  0.26199405830E+04  0.00000000000E+00 0.  1.
         -2   -1    0    0    0  501 -0.00000000000E+00 -0.00000000000E+00 -0.56993283483E+03  0.56993283483E+03  0.00000000000E+00 0. -1.
    2000013    1    1    2    0    0  0.20258848091E+03  0.72583016584E+03  0.12221693107E+04  0.17216472769E+04  0.95000000000E+03 0.  0.
   -2000013    1    1    2    0    0 -0.20258848091E+03 -0.72583016584E+03  0.82783843756E+03  0.14682261409E+04  0.95000000000E+03 0.  0.
<mgrwt>
<rscale>  0 0.24439232E+04</rscale>
<asrwt>0</asrwt>
<pdfrwt beam="1">  1        2 0.40306777E+00 0.24439232E+04</pdfrwt>
<pdfrwt beam="2">  1       -2 0.87681976E-01 0.24439232E+04</pdfrwt>
<totfact> 0.29782282E+00</totfact>
</mgrwt>
</event>
<event>
 4    1  0.2018023E-008  0.2415565E+04  0.7816531E-02  0.8433699E-01
          2   -1    0    0  501    0  0.00000000000E+00  0.00000000000E+00  0.86171224394E+03  0.86171224394E+03  0.00000000000E+00 0.  1.
         -2   -1    0    0    0  501 -0.00000000000E+00 -0.00000000000E+00 -0.16928377901E+04  0.16928377901E+04  0.00000000000E+00 0. -1.
    2000013    1    1    2    0    0  0.10746926808E+03 -0.60463632141E+03 -0.86312007896E+03  0.14228882582E+04  0.95000000000E+03 0.  0.
   -2000013    1    1    2    0    0 -0.10746926808E+03  0.60463632141E+03  0.31994532760E+02  0.11316617758E+04  0.95000000000E+03 0.  0.
<mgrwt>
<rscale>  0 0.24155654E+04</rscale>
<asrwt>0</asrwt>
<pdfrwt beam="1">  1        2 0.13257112E+00 0.24155654E+04</pdfrwt>
<pdfrwt beam="2">  1       -2 0.26043658E+00 0.24155654E+04</pdfrwt>
<totfact> 0.15510222E+00</totfact>
</mgrwt>
</event>
<event>
 4    1  0.2018023E-008  0.2016370E+04  0.7816531E-02  0.8599005E-01
         -2   -1    0    0    0  501 -0.00000000000E+00  0.00000000000E+00  0.11439963396E+04  0.11439963396E+04  0.00000000000E+00 0. -1.
          2   -1    0    0  501    0  0.00000000000E+00 -0.00000000000E+00 -0.88849703073E+03  0.88849703073E+03  0.00000000000E+00 0.  1.
    2000013    1    1    2    0    0 -0.25287875106E+03  0.22180836420E+03  0.15609456373E+03  0.10198098480E+04  0.95000000000E+03 0.  0.
   -2000013    1    1    2    0    0  0.25287875106E+03 -0.22180836420E+03  0.99404745176E+02  0.10126835224E+04  0.95000000000E+03 0.  0.
<mgrwt>
<rscale>  0 0.20163704E+04</rscale>
<asrwt>0</asrwt>
<pdfrwt beam="2">  1        2 0.13669185E+00 0.20163704E+04</pdfrwt>
<pdfrwt beam="1">  1       -2 0.17599944E+00 0.20163704E+04</pdfrwt>
<totfact> 0.53533423E+00</totfact>
</mgrwt>
</event>
<event>
 4    1  0.2018023E-008  0.2778774E+04  0.7816531E-02  0.8309889E-01
          2   -1    0    0  501    0  0.00000000000E+00  0.00000000000E+00  0.17724981950E+04  0.17724981950E+04  0.00000000000E+00 0.  1.
         -2   -1    0    0    0  501 -0.00000000000E+00 -0.00000000000E+00 -0.10890822226E+04  0.10890822226E+04  0.00000000000E+00 0. -1.
    2000013    1    1    2    0    0  0.46938037533E+03 -0.77160956821E+03 -0.13266762800E+03  0.13174976137E+04  0.95000000000E+03 0.  0.
   -2000013    1    1    2    0    0 -0.46938037533E+03  0.77160956821E+03  0.81608360035E+03  0.15440828039E+04  0.95000000000E+03 0.  0.
<mgrwt>
<rscale>  0 0.27787740E+04</rscale>
<asrwt>0</asrwt>
<pdfrwt beam="1">  1        2 0.27269203E+00 0.27787740E+04</pdfrwt>
<pdfrwt beam="2">  1       -2 0.16755111E+00 0.27787740E+04</pdfrwt>
<totfact> 0.17290419E+00</totfact>
</mgrwt>
</event>
<event>
 4    1  0.2018023E-008  0.3023954E+04  0.7816531E-02  0.8236924E-01
          2   -1    0    0  501    0  0.00000000000E+00  0.00000000000E+00  0.29806496734E+04  0.29806496734E+04  0.00000000000E+00 0.  1.
         -2   -1    0    0    0  501 -0.00000000000E+00 -0.00000000000E+00 -0.76697183217E+03  0.76697183217E+03  0.00000000000E+00 0. -1.
    2000013    1    1    2    0    0  0.41823224569E+02 -0.11351544126E+04  0.14852850642E+04  0.20973546302E+04  0.95000000000E+03 0.  0.
   -2000013    1    1    2    0    0 -0.41823224569E+02  0.11351544126E+04  0.72839277704E+03  0.16502668755E+04  0.95000000000E+03 0.  0.
<mgrwt>
<rscale>  0 0.30239539E+04</rscale>
<asrwt>0</asrwt>
<pdfrwt beam="1">  1        2 0.45856148E+00 0.30239539E+04</pdfrwt>
<pdfrwt beam="2">  1       -2 0.11799567E+00 0.30239539E+04</pdfrwt>
<totfact> 0.84635672E-01</totfact>
</mgrwt>
</event>
<event>
 4    1  0.2018023E-008  0.3593980E+04  0.7816531E-02  0.8091872E-01
          2   -1    0    0  501    0  0.00000000000E+00  0.00000000000E+00  0.13029825504E+04  0.13029825504E+04  0.00000000000E+00 0.  1.
         -2   -1    0    0    0  501 -0.00000000000E+00 -0.00000000000E+00 -0.24782931024E+04  0.24782931024E+04  0.00000000000E+00 0. -1.
    2000013    1    1    2    0    0 -0.49250831376E+03 -0.62385408480E+03 -0.19573903664E+04  0.23163841229E+04  0.95000000000E+03 0.  0.
   -2000013    1    1    2    0    0  0.49250831376E+03  0.62385408480E+03  0.78207981448E+03  0.14648915299E+04  0.95000000000E+03 0.  0.
<mgrwt>
<rscale>  0 0.35939798E+04</rscale>
<asrwt>0</asrwt>
<pdfrwt beam="1">  1        2 0.20045885E+00 0.35939798E+04</pdfrwt>
<pdfrwt beam="2">  1       -2 0.38127586E+00 0.35939798E+04</pdfrwt>
<totfact> 0.13181210E-01</totfact>
</mgrwt>
</event>
<event>
 4    1  0.2018023E-008  0.2722103E+04  0.7816531E-02  0.8327869E-01
         -2   -1    0    0    0  501 -0.00000000000E+00  0.00000000000E+00  0.18585813623E+04  0.18585813623E+04  0.00000000000E+00 0. -1.
          2   -1    0    0  501    0  0.00000000000E+00 -0.00000000000E+00 -0.99670685635E+03  0.99670685635E+03  0.00000000000E+00 0.  1.
    2000013    1    1    2    0    0 -0.72617885252E+02 -0.67612247340E+03 -0.30147089867E+03  0.12065652320E+04  0.95000000000E+03 0.  0.
   -2000013    1    1    2    0    0  0.72617885252E+02  0.67612247340E+03  0.11633454046E+04  0.16487229867E+04  0.95000000000E+03 0.  0.
<mgrwt>
<rscale>  0 0.27221027E+04</rscale>
<asrwt>0</asrwt>
<pdfrwt beam="2">  1        2 0.15333952E+00 0.27221027E+04</pdfrwt>
<pdfrwt beam="1">  1       -2 0.28593559E+00 0.27221027E+04</pdfrwt>
<totfact> 0.85875217E-01</totfact>
</mgrwt>
</event>
<event>
 4    1  0.2018023E-008  0.2640183E+04  0.7816531E-02  0.8354679E-01
          2   -1    0    0  501    0  0.00000000000E+00  0.00000000000E+00  0.14090654889E+04  0.14090654889E+04  0.00000000000E+00 0.  1.
         -2   -1    0    0    0  501 -0.00000000000E+00 -0.00000000000E+00 -0.12367356196E+04  0.12367356196E+04  0.00000000000E+00 0. -1.
    2000013    1    1    2    0    0  0.91557747978E+03 -0.14321509594E+02  0.45405871057E+02  0.13202457802E+04  0.95000000000E+03 0.  0.
   -2000013    1    1    2    0    0 -0.91557747978E+03  0.14321509594E+02  0.12692399824E+03  0.13255553283E+04  0.95000000000E+03 0.  0.
<mgrwt>
<rscale>  0 0.26401829E+04</rscale>
<asrwt>0</asrwt>
<pdfrwt beam="1">  1        2 0.21677931E+00 0.26401829E+04</pdfrwt>
<pdfrwt beam="2">  1       -2 0.19026702E+00 0.26401829E+04</pdfrwt>
<totfact> 0.19461137E+00</totfact>
</mgrwt>
</event>
<event>
 4    1  0.2018023E-008  0.2155840E+04  0.7816531E-02  0.8537036E-01
          2   -1    0    0  501    0  0.00000000000E+00  0.00000000000E+00  0.20371372093E+04  0.20371372093E+04  0.00000000000E+00 0.  1.
         -2   -1    0    0    0  501 -0.00000000000E+00 -0.00000000000E+00 -0.57036500720E+03  0.57036500720E+03  0.00000000000E+00 0. -1.
    2000013    1    1    2    0    0 -0.87172588251E+02  0.36017482167E+03  0.11559987568E+04  0.15414791884E+04  0.95000000000E+03 0.  0.
   -2000013    1    1    2    0    0  0.87172588251E+02 -0.36017482167E+03  0.31077344529E+03  0.10660230282E+04  0.95000000000E+03 0.  0.
<mgrwt>
<rscale>  0 0.21558402E+04</rscale>
<asrwt>0</asrwt>
<pdfrwt beam="1">  1        2 0.31340572E+00 0.21558402E+04</pdfrwt>
<pdfrwt beam="2">  1       -2 0.87748464E-01 0.21558402E+04</pdfrwt>
<totfact> 0.65463495E+00</totfact>
</mgrwt>
</event>
<event>
 4    1  0.2018023E-008  0.2423464E+04  0.7816531E-02  0.8430771E-01
         -1   -1    0    0    0  501 -0.00000000000E+00  0.00000000000E+00  0.30648793224E+04  0.30648793224E+04  0.00000000000E+00 0. -1.
          1   -1    0    0  501    0  0.00000000000E+00 -0.00000000000E+00 -0.47907085318E+03  0.47907085318E+03  0.00000000000E+00 0.  1.
    2000013    1    1    2    0    0  0.59819963371E+03 -0.37541209139E+03  0.91433566921E+03  0.14957562489E+04  0.95000000000E+03 0.  0.
   -2000013    1    1    2    0    0 -0.59819963371E+03  0.37541209139E+03  0.16714728000E+04  0.20481939267E+04  0.95000000000E+03 0.  0.
<mgrwt>
<rscale>  0 0.24234639E+04</rscale>
<asrwt>0</asrwt>
<pdfrwt beam="2">  1        1 0.73703210E-01 0.24234639E+04</pdfrwt>
<pdfrwt beam="1">  1       -1 0.47151988E+00 0.24234639E+04</pdfrwt>
<totfact> 0.96709456E-02</totfact>
</mgrwt>
</event>
<event>
 4    1  0.2018023E-008  0.2987596E+04  0.7816531E-02  0.8247282E-01
          2   -1    0    0  501    0  0.00000000000E+00  0.00000000000E+00  0.11464857098E+04  0.11464857098E+04  0.00000000000E+00 0.  1.
         -2   -1    0    0    0  501 -0.00000000000E+00 -0.00000000000E+00 -0.19463232836E+04  0.19463232836E+04  0.00000000000E+00 0. -1.
    2000013    1    1    2    0    0  0.16823354925E+03  0.10236335020E+04  0.12058399438E+03  0.14117962223E+04  0.95000000000E+03 0.  0.
   -2000013    1    1    2    0    0 -0.16823354925E+03 -0.10236335020E+04 -0.92042156818E+03  0.16810127711E+04  0.95000000000E+03 0.  0.
<mgrwt>
<rscale>  0 0.29875956E+04</rscale>
<asrwt>0</asrwt>
<pdfrwt beam="1">  1        2 0.17638242E+00 0.29875956E+04</pdfrwt>
<pdfrwt beam="2">  1       -2 0.29943435E+00 0.29875956E+04</pdfrwt>
<totfact> 0.56007449E-01</totfact>
</mgrwt>
</event>
<event>
 4    1  0.2018023E-008  0.2247015E+04  0.7816531E-02  0.8499110E-01
          2   -1    0    0  501    0  0.00000000000E+00  0.00000000000E+00  0.59564137788E+03  0.59564137788E+03  0.00000000000E+00 0.  1.
         -2   -1    0    0    0  501 -0.00000000000E+00 -0.00000000000E+00 -0.21191755558E+04  0.21191755558E+04  0.00000000000E+00 0. -1.
    2000013    1    1    2    0    0  0.66189162999E+02 -0.54309822055E+03 -0.10587749992E+04  0.15240869993E+04  0.95000000000E+03 0.  0.
   -2000013    1    1    2    0    0 -0.66189162999E+02  0.54309822055E+03 -0.46475917873E+03  0.11907299344E+04  0.95000000000E+03 0.  0.
<mgrwt>
<rscale>  0 0.22470146E+04</rscale>
<asrwt>0</asrwt>
<pdfrwt beam="1">  1        2 0.91637134E-01 0.22470146E+04</pdfrwt>
<pdfrwt beam="2">  1       -2 0.32602701E+00 0.22470146E+04</pdfrwt>
<totfact> 0.10019526E+00</totfact>
</mgrwt>
</event>
<event>
 4    1  0.2018023E-008  0.2271167E+04  0.7816531E-02  0.8489377E-01
         -2   -1    0    0    0  501 -0.00000000000E+00  0.00000000000E+00  0.62952732804E+03  0.62952732804E+03  0.00000000000E+00 0. -1.
          2   -1    0    0  501    0  0.00000000000E+00 -0.00000000000E+00 -0.20484413099E+04  0.20484413099E+04  0.00000000000E+00 0.  1.
    2000013    1    1    2    0    0  0.56054233145E+03 -0.46479708205E+02 -0.10229370906E+04  0.15050808483E+04  0.95000000000E+03 0.  0.
   -2000013    1    1    2    0    0 -0.56054233145E+03  0.46479708205E+02 -0.39597689127E+03  0.11728877896E+04  0.95000000000E+03 0.  0.
<mgrwt>
<rscale>  0 0.22711669E+04</rscale>
<asrwt>0</asrwt>
<pdfrwt beam="2">  1        2 0.31514482E+00 0.22711669E+04</pdfrwt>
<pdfrwt beam="1">  1       -2 0.96850358E-01 0.22711669E+04</pdfrwt>
<totfact> 0.50821482E+00</totfact>
</mgrwt>
</event>
<event>
 4    1  0.2018023E-008  0.3320654E+04  0.7816531E-02  0.8157660E-01
          2   -1    0    0  501    0  0.00000000000E+00  0.00000000000E+00  0.39356435535E+04  0.39356435535E+04  0.00000000000E+00 0.  1.
         -2   -1    0    0    0  501 -0.00000000000E+00 -0.00000000000E+00 -0.70044105923E+03  0.70044105923E+03  0.00000000000E+00 0. -1.
    2000013    1    1    2    0    0  0.13553031494E+04  0.10268160394E+03  0.17326973922E+04  0.23983599379E+04  0.95000000000E+03 0.  0.
   -2000013    1    1    2    0    0 -0.13553031494E+04 -0.10268160394E+03  0.15025051021E+04  0.22377246748E+04  0.95000000000E+03 0.  0.
<mgrwt>
<rscale>  0 0.33206544E+04</rscale>
<asrwt>0</asrwt>
<pdfrwt beam="1">  1        2 0.60548361E+00 0.33206544E+04</pdfrwt>
<pdfrwt beam="2">  1       -2 0.10776016E+00 0.33206544E+04</pdfrwt>
<totfact> 0.22138719E-01</totfact>
</mgrwt>
</event>
<event>
 4    1  0.2018023E-008  0.2565074E+04  0.7816531E-02  0.8380162E-01
          2   -1    0    0  501    0  0.00000000000E+00  0.00000000000E+00  0.25031740848E+04  0.25031740848E+04  0.00000000000E+00 0.  1.
         -2   -1    0    0    0  501 -0.00000000000E+00 -0.00000000000E+00 -0.65712627202E+03  0.65712627202E+03  0.00000000000E+00 0. -1.
    2000013    1    1    2    0    0  0.78307068977E+03  0.33832198061E+03  0.77344272139E+03  0.14927743001E+04  0.95000000000E+03 0.  0.
   -2000013    1    1    2    0    0 -0.78307068977E+03 -0.33832198061E+03  0.10726050914E+04  0.16675260567E+04  0.95000000000E+03 0.  0.
<mgrwt>
<rscale>  0 0.25650742E+04</rscale>
<asrwt>0</asrwt>
<pdfrwt beam="1">  1        2 0.38510370E+00 0.25650742E+04</pdfrwt>
<pdfrwt beam="2">  1       -2 0.10109635E+00 0.25650742E+04</pdfrwt>
<totfact> 0.24744820E+00</totfact>
</mgrwt>
</event>
<event>
 4    1  0.2018023E-008  0.3291050E+04  0.7816531E-02  0.8165176E-01
         -1   -1    0    0    0  501 -0.00000000000E+00  0.00000000000E+00  0.10788382760E+04  0.10788382760E+04  0.00000000000E+00 0. -1.
          1   -1    0    0  501    0  0.00000000000E+00 -0.00000000000E+00 -0.25098779083E+04  0.25098779083E+04  0.00000000000E+00 0.  1.
    2000013    1    1    2    0    0  0.34544401927E+03 -0.12855281459E+04 -0.51641785705E+03  0.17149640193E+04  0.95000000000E+03 0.  0.
   -2000013    1    1    2    0    0 -0.34544401927E+03  0.12855281459E+04 -0.91462177519E+03  0.18737521650E+04  0.95000000000E+03 0.  0.
<mgrwt>
<rscale>  0 0.32910499E+04</rscale>
<asrwt>0</asrwt>
<pdfrwt beam="2">  1        1 0.38613506E+00 0.32910499E+04</pdfrwt>
<pdfrwt beam="1">  1       -1 0.16597512E+00 0.32910499E+04</pdfrwt>
<totfact> 0.29168549E-01</totfact>
</mgrwt>
</event>
<event>
 4    1  0.2018023E-008  0.2352234E+04  0.7816531E-02  0.8457606E-01
          2   -1    0    0  501    0  0.00000000000E+00  0.00000000000E+00  0.12327455241E+04  0.12327455241E+04  0.00000000000E+00 0.  1.
         -2   -1    0    0    0  501 -0.00000000000E+00 -0.00000000000E+00 -0.11220901421E+04  0.11220901421E+04  0.00000000000E+00 0. -1.
    2000013    1    1    2    0    0  0.46915805607E+03 -0.13966722611E+03  0.54692612502E+03  0.12005183888E+04  0.95000000000E+03 0.  0.
   -2000013    1    1    2    0    0 -0.46915805607E+03  0.13966722611E+03 -0.43627074301E+03  0.11543172774E+04  0.95000000000E+03 0.  0.
<mgrwt>
<rscale>  0 0.23522343E+04</rscale>
<asrwt>0</asrwt>
<pdfrwt beam="1">  1        2 0.18965316E+00 0.23522343E+04</pdfrwt>
<pdfrwt beam="2">  1       -2 0.17262925E+00 0.23522343E+04</pdfrwt>
<totfact> 0.33380202E+00</totfact>
</mgrwt>
</event>
<event>
 4    1  0.2018023E-008  0.3354530E+04  0.7816531E-02  0.8149157E-01
         -2   -1    0    0    0  501 -0.00000000000E+00  0.00000000000E+00  0.13621409489E+04  0.13621409489E+04  0.00000000000E+00 0. -1.
          2   -1    0    0  501    0  0.00000000000E+00 -0.00000000000E+00 -0.20652911094E+04  0.20652911094E+04  0.00000000000E+00 0.  1.
    2000013    1    1    2    0    0 -0.14890705043E+03  0.13317969178E+04 -0.52978230201E+01  0.16426759896E+04  0.95000000000E+03 0.  0.
   -2000013    1    1    2    0    0  0.14890705043E+03 -0.13317969178E+04 -0.69785233743E+03  0.17847560687E+04  0.95000000000E+03 0.  0.
<mgrwt>
<rscale>  0 0.33545298E+04</rscale>
<asrwt>0</asrwt>
<pdfrwt beam="2">  1        2 0.31773709E+00 0.33545298E+04</pdfrwt>
<pdfrwt beam="1">  1       -2 0.20956015E+00 0.33545298E+04</pdfrwt>
<totfact> 0.58888520E-01</totfact>
</mgrwt>
</event>
<event>
 4    1  0.2018023E-008  0.2736904E+04  0.7816531E-02  0.8323129E-01
         -2   -1    0    0    0  501 -0.00000000000E+00  0.00000000000E+00  0.85416025321E+03  0.85416025321E+03  0.00000000000E+00 0. -1.
          2   -1    0    0  501    0  0.00000000000E+00 -0.00000000000E+00 -0.21923992440E+04  0.21923992440E+04  0.00000000000E+00 0.  1.
    2000013    1    1    2    0    0 -0.98259269736E+03  0.32476746880E+02 -0.73606680819E+03  0.15526871849E+04  0.95000000000E+03 0.  0.
   -2000013    1    1    2    0    0  0.98259269736E+03 -0.32476746880E+02 -0.60217218257E+03  0.14938723123E+04  0.95000000000E+03 0.  0.
<mgrwt>
<rscale>  0 0.27369036E+04</rscale>
<asrwt>0</asrwt>
<pdfrwt beam="2">  1        2 0.33729219E+00 0.27369036E+04</pdfrwt>
<pdfrwt beam="1">  1       -2 0.13140927E+00 0.27369036E+04</pdfrwt>
<totfact> 0.19273823E+00</totfact>
</mgrwt>
</event>
<event>
 4    1  0.2018023E-008  0.2222796E+04  0.7816531E-02  0.8508999E-01
         -2   -1    0    0    0  501 -0.00000000000E+00  0.00000000000E+00  0.11723224328E+04  0.11723224328E+04  0.00000000000E+00 0. -1.
          2   -1    0    0  501    0  0.00000000000E+00 -0.00000000000E+00 -0.10536399901E+04  0.10536399901E+04  0.00000000000E+00 0.  1.
    2000013    1    1    2    0    0 -0.55050356301E+03 -0.98493521198E+02 -0.82106741343E+02  0.11054395793E+04  0.95000000000E+03 0.  0.
   -2000013    1    1    2    0    0  0.55050356301E+03  0.98493521198E+02  0.20078918399E+03  0.11205228436E+04  0.95000000000E+03 0.  0.
<mgrwt>
<rscale>  0 0.22227963E+04</rscale>
<asrwt>0</asrwt>
<pdfrwt beam="2">  1        2 0.16209846E+00 0.22227963E+04</pdfrwt>
<pdfrwt beam="1">  1       -2 0.18035730E+00 0.22227963E+04</pdfrwt>
<totfact> 0.38297170E+00</totfact>
</mgrwt>
</event>
<event>
 4    1  0.2018023E-008  0.2740666E+04  0.7816531E-02  0.8321930E-01
         -2   -1    0    0    0  501 -0.00000000000E+00  0.00000000000E+00  0.16892924492E+04  0.16892924492E+04  0.00000000000E+00 0. -1.
          2   -1    0    0  501    0  0.00000000000E+00 -0.00000000000E+00 -0.11115967739E+04  0.11115967739E+04  0.00000000000E+00 0.  1.
    2000013    1    1    2    0    0  0.90985753966E+03  0.19549550568E+03 -0.48949458357E+02  0.13307724391E+04  0.95000000000E+03 0.  0.
   -2000013    1    1    2    0    0 -0.90985753966E+03 -0.19549550568E+03  0.62664513369E+03  0.14701167841E+04  0.95000000000E+03 0.  0.
<mgrwt>
<rscale>  0 0.27406656E+04</rscale>
<asrwt>0</asrwt>
<pdfrwt beam="2">  1        2 0.17101489E+00 0.27406656E+04</pdfrwt>
<pdfrwt beam="1">  1       -2 0.25989115E+00 0.27406656E+04</pdfrwt>
<totfact> 0.10470334E+00</totfact>
</mgrwt>
</event>
<event>
 4    1  0.2018023E-008  0.2419427E+04  0.7816531E-02  0.8432266E-01
         -2   -1    0    0    0  501 -0.00000000000E+00  0.00000000000E+00  0.61465867650E+03  0.61465867650E+03  0.00000000000E+00 0. -1.
          2   -1    0    0  501    0  0.00000000000E+00 -0.00000000000E+00 -0.23808443685E+04  0.23808443685E+04  0.00000000000E+00 0.  1.
    2000013    1    1    2    0    0  0.34240375445E+03  0.58360942481E+03 -0.48561244428E+03  0.12633921552E+04  0.95000000000E+03 0.  0.
   -2000013    1    1    2    0    0 -0.34240375445E+03 -0.58360942481E+03 -0.12805732478E+04  0.17321108898E+04  0.95000000000E+03 0.  0.
<mgrwt>
<rscale>  0 0.24194269E+04</rscale>
<asrwt>0</asrwt>
<pdfrwt beam="2">  1        2 0.36628374E+00 0.24194269E+04</pdfrwt>
<pdfrwt beam="1">  1       -2 0.94562876E-01 0.24194269E+04</pdfrwt>
<totfact> 0.34481180E+00</totfact>
</mgrwt>
</event>
<event>
 4    1  0.2018023E-008  0.2703126E+04  0.7816531E-02  0.8333991E-01
          1   -1    0    0  501    0  0.00000000000E+00  0.00000000000E+00  0.73694596071E+03  0.73694596071E+03  0.00000000000E+00 0.  1.
         -1   -1    0    0    0  501 -0.00000000000E+00 -0.00000000000E+00 -0.24787742947E+04  0.24787742947E+04  0.00000000000E+00 0. -1.
    2000013    1    1    2    0    0  0.55758657651E+03 -0.39244349083E+03 -0.16771534721E+04  0.20445680357E+04  0.95000000000E+03 0.  0.
   -2000013    1    1    2    0    0 -0.55758657651E+03  0.39244349083E+03 -0.64674861849E+02  0.11711522196E+04  0.95000000000E+03 0.  0.
<mgrwt>
<rscale>  0 0.27031261E+04</rscale>
<asrwt>0</asrwt>
<pdfrwt beam="1">  1        1 0.11337630E+00 0.27031261E+04</pdfrwt>
<pdfrwt beam="2">  1       -1 0.38134989E+00 0.27031261E+04</pdfrwt>
<totfact> 0.21047542E-01</totfact>
</mgrwt>
</event>
<event>
 4    1  0.2018023E-008  0.3833510E+04  0.7816531E-02  0.8039002E-01
          2   -1    0    0  501    0  0.00000000000E+00  0.00000000000E+00  0.21464657821E+04  0.21464657821E+04  0.00000000000E+00 0.  1.
         -2   -1    0    0    0  501 -0.00000000000E+00 -0.00000000000E+00 -0.17116271696E+04  0.17116271696E+04  0.00000000000E+00 0. -1.
    2000013    1    1    2    0    0  0.13462450076E+04 -0.64405535698E+03  0.95989427004E+03  0.20127294734E+04  0.95000000000E+03 0.  0.
   -2000013    1    1    2    0    0 -0.13462450076E+04  0.64405535698E+03 -0.52505565759E+03  0.18453634783E+04  0.95000000000E+03 0.  0.
<mgrwt>
<rscale>  0 0.38335097E+04</rscale>
<asrwt>0</asrwt>
<pdfrwt beam="1">  1        2 0.33022551E+00 0.38335097E+04</pdfrwt>
<pdfrwt beam="2">  1       -2 0.26332726E+00 0.38335097E+04</pdfrwt>
<totfact> 0.23560897E-01</totfact>
</mgrwt>
</event>
<event>
 4    1  0.2018023E-008  0.2986999E+04  0.7816531E-02  0.8247453E-01
          2   -1    0    0  501    0  0.00000000000E+00  0.00000000000E+00  0.15895461053E+04  0.15895461053E+04  0.00000000000E+00 0.  1.
         -2   -1    0    0    0  501 -0.00000000000E+00 -0.00000000000E+00 -0.14032560701E+04  0.14032560701E+04  0.00000000000E+00 0. -1.
    2000013    1    1    2    0    0 -0.72894930408E+03  0.75971062195E+03 -0.37628733065E+03  0.14671807906E+04  0.95000000000E+03 0.  0.
   -2000013    1    1    2    0    0  0.72894930408E+03 -0.75971062195E+03  0.56257736584E+03  0.15256213847E+04  0.95000000000E+03 0.  0.
<mgrwt>
<rscale>  0 0.29869986E+04</rscale>
<asrwt>0</asrwt>
<pdfrwt beam="1">  1        2 0.24454556E+00 0.29869986E+04</pdfrwt>
<pdfrwt beam="2">  1       -2 0.21588555E+00 0.29869986E+04</pdfrwt>
<totfact> 0.10168876E+00</totfact>
</mgrwt>
</event>
<event>
 4    1  0.2018023E-008  0.2404027E+04  0.7816531E-02  0.8437997E-01
         -2   -1    0    0    0  501 -0.00000000000E+00  0.00000000000E+00  0.37192139167E+03  0.37192139167E+03  0.00000000000E+00 0. -1.
          2   -1    0    0  501    0  0.00000000000E+00 -0.00000000000E+00 -0.38847904548E+04  0.38847904548E+04  0.00000000000E+00 0.  1.
    2000013    1    1    2    0    0  0.22825202886E+03  0.25656273251E+03 -0.29099657280E+04  0.30803123158E+04  0.95000000000E+03 0.  0.
   -2000013    1    1    2    0    0 -0.22825202886E+03 -0.25656273251E+03 -0.60290333514E+03  0.11763995307E+04  0.95000000000E+03 0.  0.
<mgrwt>
<rscale>  0 0.24040272E+04</rscale>
<asrwt>0</asrwt>
<pdfrwt beam="2">  1        2 0.59766011E+00 0.24040272E+04</pdfrwt>
<pdfrwt beam="1">  1       -2 0.57218672E-01 0.24040272E+04</pdfrwt>
<totfact> 0.10913035E+00</totfact>
</mgrwt>
</event>
<event>
 4    1  0.2018023E-008  0.2941756E+04  0.7816531E-02  0.8260561E-01
         -1   -1    0    0    0  501 -0.00000000000E+00  0.00000000000E+00  0.11198677235E+04  0.11198677235E+04  0.00000000000E+00 0. -1.
          1   -1    0    0  501    0  0.00000000000E+00 -0.00000000000E+00 -0.19319087675E+04  0.19319087675E+04  0.00000000000E+00 0.  1.
    2000013    1    1    2    0    0 -0.88264146409E+03 -0.63760785668E+03 -0.69084770944E+03  0.16016773366E+04  0.95000000000E+03 0.  0.
   -2000013    1    1    2    0    0  0.88264146409E+03  0.63760785668E+03 -0.12119333455E+03  0.14500991543E+04  0.95000000000E+03 0.  0.
<mgrwt>
<rscale>  0 0.29417561E+04</rscale>
<asrwt>0</asrwt>
<pdfrwt beam="2">  1        1 0.29721673E+00 0.29417561E+04</pdfrwt>
<pdfrwt beam="1">  1       -1 0.17228734E+00 0.29417561E+04</pdfrwt>
<totfact> 0.67114497E-01</totfact>
</mgrwt>
</event>
<event>
 4    1  0.2018023E-008  0.2577891E+04  0.7816531E-02  0.8375750E-01
          2   -1    0    0  501    0  0.00000000000E+00  0.00000000000E+00  0.74135606362E+03  0.74135606362E+03  0.00000000000E+00 0.  1.
         -2   -1    0    0    0  501 -0.00000000000E+00 -0.00000000000E+00 -0.22410017102E+04  0.22410017102E+04  0.00000000000E+00 0. -1.
    2000013    1    1    2    0    0  0.20976336857E+02 -0.85946572524E+03 -0.58720196553E+03  0.14094067858E+04  0.95000000000E+03 0.  0.
   -2000013    1    1    2    0    0 -0.20976336857E+02  0.85946572524E+03 -0.91244368104E+03  0.15729509880E+04  0.95000000000E+03 0.  0.
<mgrwt>
<rscale>  0 0.25778908E+04</rscale>
<asrwt>0</asrwt>
<pdfrwt beam="1">  1        2 0.11405478E+00 0.25778908E+04</pdfrwt>
<pdfrwt beam="2">  1       -2 0.34476949E+00 0.25778908E+04</pdfrwt>
<totfact> 0.56637593E-01</totfact>
</mgrwt>
</event>
<event>
 4    1  0.2018023E-008  0.2669347E+04  0.7816531E-02  0.8345020E-01
         -2   -1    0    0    0  501 -0.00000000000E+00  0.00000000000E+00  0.99627038987E+03  0.99627038987E+03  0.00000000000E+00 0. -1.
          2   -1    0    0  501    0  0.00000000000E+00 -0.00000000000E+00 -0.17880225674E+04  0.17880225674E+04  0.00000000000E+00 0.  1.
    2000013    1    1    2    0    0  0.50987518945E+03 -0.78233397029E+03 -0.30964330109E+03  0.13676249939E+04  0.95000000000E+03 0.  0.
   -2000013    1    1    2    0    0 -0.50987518945E+03  0.78233397029E+03 -0.48210887648E+03  0.14166679635E+04  0.95000000000E+03 0.  0.
<mgrwt>
<rscale>  0 0.26693474E+04</rscale>
<asrwt>0</asrwt>
<pdfrwt beam="2">  1        2 0.27508039E+00 0.26693474E+04</pdfrwt>
<pdfrwt beam="1">  1       -2 0.15327237E+00 0.26693474E+04</pdfrwt>
<totfact> 0.21802956E+00</totfact>
</mgrwt>
</event>
<event>
 4    1  0.2018023E-008  0.2334852E+04  0.7816531E-02  0.8464305E-01
         -2   -1    0    0    0  501 -0.00000000000E+00  0.00000000000E+00  0.44857733306E+03  0.44857733306E+03  0.00000000000E+00 0.  1.
          2   -1    0    0  501    0  0.00000000000E+00 -0.00000000000E+00 -0.30382342641E+04  0.30382342641E+04  0.00000000000E+00 0. -1.
    2000013    1    1    2    0    0 -0.52408201524E+03  0.39799334958E+03 -0.10479812191E+04  0.15600722100E+04  0.95000000000E+03 0.  0.
   -2000013    1    1    2    0    0  0.52408201524E+03 -0.39799334958E+03 -0.15416757119E+04  0.19267393871E+04  0.95000000000E+03 0.  0.
<mgrwt>
<rscale>  0 0.23348516E+04</rscale>
<asrwt>0</asrwt>
<pdfrwt beam="2">  1        2 0.46742065E+00 0.23348516E+04</pdfrwt>
<pdfrwt beam="1">  1       -2 0.69011899E-01 0.23348516E+04</pdfrwt>
<totfact> 0.28577766E+00</totfact>
</mgrwt>
</event>
<event>
 4    1  0.2018023E-008  0.2160846E+04  0.7816531E-02  0.8534904E-01
         -2   -1    0    0    0  501 -0.00000000000E+00  0.00000000000E+00  0.60367318105E+03  0.60367318105E+03  0.00000000000E+00 0. -1.
          2   -1    0    0  501    0  0.00000000000E+00 -0.00000000000E+00 -0.19336849645E+04  0.19336849645E+04  0.00000000000E+00 0.  1.
    2000013    1    1    2    0    0  0.14604191120E+03  0.48702653074E+03 -0.75813951588E+03  0.13174970994E+04  0.95000000000E+03 0.  0.
   -2000013    1    1    2    0    0 -0.14604191120E+03 -0.48702653074E+03 -0.57187226762E+03  0.12198610462E+04  0.95000000000E+03 0.  0.
<mgrwt>
<rscale>  0 0.21608459E+04</rscale>
<asrwt>0</asrwt>
<pdfrwt beam="2">  1        2 0.29749000E+00 0.21608459E+04</pdfrwt>
<pdfrwt beam="1">  1       -2 0.92872797E-01 0.21608459E+04</pdfrwt>
<totfact> 0.65527849E+00</totfact>
</mgrwt>
</event>
<event>
 4    1  0.2018023E-008  0.2826991E+04  0.7816531E-02  0.8294938E-01
         -2   -1    0    0    0  501 -0.00000000000E+00  0.00000000000E+00  0.19451402486E+04  0.19451402486E+04  0.00000000000E+00 0. -1.
          2   -1    0    0  501    0  0.00000000000E+00 -0.00000000000E+00 -0.10271593504E+04  0.10271593504E+04  0.00000000000E+00 0.  1.
    2000013    1    1    2    0    0  0.87137598826E+03  0.33985415293E+03 -0.34912780648E+02  0.13336100856E+04  0.95000000000E+03 0.  0.
   -2000013    1    1    2    0    0 -0.87137598826E+03 -0.33985415293E+03  0.95289367882E+03  0.16386895134E+04  0.95000000000E+03 0.  0.
<mgrwt>
<rscale>  0 0.28269906E+04</rscale>
<asrwt>0</asrwt>
<pdfrwt beam="2">  1        2 0.15802451E+00 0.28269906E+04</pdfrwt>
<pdfrwt beam="1">  1       -2 0.29925235E+00 0.28269906E+04</pdfrwt>
<totfact> 0.67489511E-01</totfact>
</mgrwt>
</event>
<event>
 4    1  0.2018023E-008  0.2754952E+04  0.7816531E-02  0.8317392E-01
         -2   -1    0    0    0  501 -0.00000000000E+00  0.00000000000E+00  0.43785695949E+03  0.43785695949E+03  0.00000000000E+00 0.  1.
          2   -1    0    0  501    0  0.00000000000E+00 -0.00000000000E+00 -0.43334715421E+04  0.43334715421E+04  0.00000000000E+00 0. -1.
    2000013    1    1    2    0    0 -0.21100184989E+03 -0.87533573669E+03 -0.26911299811E+04  0.29925599422E+04  0.95000000000E+03 0.  0.
   -2000013    1    1    2    0    0  0.21100184989E+03  0.87533573669E+03 -0.12044846015E+04  0.17787685594E+04  0.95000000000E+03 0.  0.
<mgrwt>
<rscale>  0 0.27549524E+04</rscale>
<asrwt>0</asrwt>
<pdfrwt beam="2">  1        2 0.66668794E+00 0.27549524E+04</pdfrwt>
<pdfrwt beam="1">  1       -2 0.67362608E-01 0.27549524E+04</pdfrwt>
<totfact> 0.31272747E-01</totfact>
</mgrwt>
</event>
<event>
 4    1  0.2018023E-008  0.2167941E+04  0.7816531E-02  0.8531891E-01
         -2   -1    0    0    0  501 -0.00000000000E+00  0.00000000000E+00  0.32001425880E+04  0.32001425880E+04  0.00000000000E+00 0. -1.
          2   -1    0    0  501    0  0.00000000000E+00 -0.00000000000E+00 -0.36716872985E+03  0.36716872985E+03  0.00000000000E+00 0.  1.
    2000013    1    1    2    0    0 -0.23801482608E+03  0.32814147952E+03  0.19576593838E+04  0.22134267891E+04  0.95000000000E+03 0.  0.
   -2000013    1    1    2    0    0  0.23801482608E+03 -0.32814147952E+03  0.87531447440E+03  0.13538845287E+04  0.95000000000E+03 0.  0.
<mgrwt>
<rscale>  0 0.21679412E+04</rscale>
<asrwt>0</asrwt>
<pdfrwt beam="2">  1        2 0.56487499E-01 0.21679412E+04</pdfrwt>
<pdfrwt beam="1">  1       -2 0.49232961E+00 0.21679412E+04</pdfrwt>
<totfact> 0.14742222E-01</totfact>
</mgrwt>
</event>
<event>
 4    1  0.2018023E-008  0.2782805E+04  0.7816531E-02  0.8308627E-01
          2   -1    0    0  501    0  0.00000000000E+00  0.00000000000E+00  0.12587890336E+04  0.12587890336E+04  0.00000000000E+00 0.  1.
         -2   -1    0    0    0  501 -0.00000000000E+00 -0.00000000000E+00 -0.15379868689E+04  0.15379868689E+04  0.00000000000E+00 0. -1.
    2000013    1    1    2    0    0 -0.80631147953E+03  0.47677184551E+03  0.25741774316E+03  0.13587543888E+04  0.95000000000E+03 0.  0.
   -2000013    1    1    2    0    0  0.80631147953E+03 -0.47677184551E+03 -0.53661557854E+03  0.14380215137E+04  0.95000000000E+03 0.  0.
<mgrwt>
<rscale>  0 0.27828051E+04</rscale>
<asrwt>0</asrwt>
<pdfrwt beam="1">  1        2 0.19365985E+00 0.27828051E+04</pdfrwt>
<pdfrwt beam="2">  1       -2 0.23661336E+00 0.27828051E+04</pdfrwt>
<totfact> 0.11840934E+00</totfact>
</mgrwt>
</event>
<event>
 4    1  0.2018023E-008  0.2949033E+04  0.7816531E-02  0.8258436E-01
          2   -1    0    0  501    0  0.00000000000E+00  0.00000000000E+00  0.15519232050E+04  0.15519232050E+04  0.00000000000E+00 0.  1.
         -2   -1    0    0    0  501 -0.00000000000E+00 -0.00000000000E+00 -0.14009705543E+04  0.14009705543E+04  0.00000000000E+00 0. -1.
    2000013    1    1    2    0    0  0.38009303765E+03  0.10047773686E+04  0.41892747761E+03  0.14940041865E+04  0.95000000000E+03 0.  0.
   -2000013    1    1    2    0    0 -0.38009303765E+03 -0.10047773686E+04 -0.26797482694E+03  0.14588895728E+04  0.95000000000E+03 0.  0.
<mgrwt>
<rscale>  0 0.29490329E+04</rscale>
<asrwt>0</asrwt>
<pdfrwt beam="1">  1        2 0.23875742E+00 0.29490329E+04</pdfrwt>
<pdfrwt beam="2">  1       -2 0.21553393E+00 0.29490329E+04</pdfrwt>
<totfact> 0.10764330E+00</totfact>
</mgrwt>
</event>
<event>
 4    1  0.2018023E-008  0.2617035E+04  0.7816531E-02  0.8362438E-01
          2   -1    0    0  501    0  0.00000000000E+00  0.00000000000E+00  0.31102021196E+04  0.31102021196E+04  0.00000000000E+00 0.  1.
         -2   -1    0    0    0  501 -0.00000000000E+00 -0.00000000000E+00 -0.55051661614E+03  0.55051661614E+03  0.00000000000E+00 0. -1.
    2000013    1    1    2    0    0  0.57143172600E+02  0.87645821225E+03  0.10061857671E+04  0.16390101092E+04  0.95000000000E+03 0.  0.
   -2000013    1    1    2    0    0 -0.57143172600E+02 -0.87645821225E+03  0.15534997364E+04  0.20217086266E+04  0.95000000000E+03 0.  0.
<mgrwt>
<rscale>  0 0.26170349E+04</rscale>
<asrwt>0</asrwt>
<pdfrwt beam="1">  1        2 0.47849262E+00 0.26170349E+04</pdfrwt>
<pdfrwt beam="2">  1       -2 0.84694866E-01 0.26170349E+04</pdfrwt>
<totfact> 0.15906763E+00</totfact>
</mgrwt>
</event>
<event>
 4    1  0.2018023E-008  0.2581090E+04  0.7816531E-02  0.8374653E-01
         -2   -1    0    0    0  501 -0.00000000000E+00  0.00000000000E+00  0.65896050089E+03  0.65896050089E+03  0.00000000000E+00 0. -1.
          2   -1    0    0  501    0  0.00000000000E+00 -0.00000000000E+00 -0.25274749558E+04  0.25274749558E+04  0.00000000000E+00 0.  1.
    2000013    1    1    2    0    0 -0.13486017694E+03 -0.85596461026E+03 -0.79821503675E+03  0.15134430700E+04  0.95000000000E+03 0.  0.
   -2000013    1    1    2    0    0  0.13486017694E+03  0.85596461026E+03 -0.10702994182E+04  0.16729923867E+04  0.95000000000E+03 0.  0.
<mgrwt>
<rscale>  0 0.25810898E+04</rscale>
<asrwt>0</asrwt>
<pdfrwt beam="2">  1        2 0.38884229E+00 0.25810898E+04</pdfrwt>
<pdfrwt beam="1">  1       -2 0.10137854E+00 0.25810898E+04</pdfrwt>
<totfact> 0.23762693E+00</totfact>
</mgrwt>
</event>
<event>
 4    1  0.2018023E-008  0.3343304E+04  0.7816531E-02  0.8151963E-01
         -2   -1    0    0    0  501 -0.00000000000E+00  0.00000000000E+00  0.19366333778E+04  0.19366333778E+04  0.00000000000E+00 0. -1.
          2   -1    0    0  501    0  0.00000000000E+00 -0.00000000000E+00 -0.14429270114E+04  0.14429270114E+04  0.00000000000E+00 0.  1.
    2000013    1    1    2    0    0  0.75229317478E+03  0.11114711650E+04  0.55112817471E+03  0.17342305027E+04  0.95000000000E+03 0.  0.
   -2000013    1    1    2    0    0 -0.75229317478E+03 -0.11114711650E+04 -0.57421808291E+02  0.16453298865E+04  0.95000000000E+03 0.  0.
<mgrwt>
<rscale>  0 0.33433041E+04</rscale>
<asrwt>0</asrwt>
<pdfrwt beam="2">  1        2 0.22198877E+00 0.33433041E+04</pdfrwt>
<pdfrwt beam="1">  1       -2 0.29794360E+00 0.33433041E+04</pdfrwt>
<totfact> 0.37237315E-01</totfact>
</mgrwt>
</event>
<event>
 4    1  0.2018023E-008  0.2080117E+04  0.7816531E-02  0.8570053E-01
          2   -1    0    0  501    0  0.00000000000E+00  0.00000000000E+00  0.10536631801E+04  0.10536631801E+04  0.00000000000E+00 0.  1.
         -2   -1    0    0    0  501 -0.00000000000E+00 -0.00000000000E+00 -0.10266299080E+04  0.10266299080E+04  0.00000000000E+00 0. -1.
    2000013    1    1    2    0    0  0.37840738844E+03  0.13092552097E+03  0.15096364488E+03  0.10419326589E+04  0.95000000000E+03 0.  0.
   -2000013    1    1    2    0    0 -0.37840738844E+03 -0.13092552097E+03 -0.12393037275E+03  0.10383604292E+04  0.95000000000E+03 0.  0.
<mgrwt>
<rscale>  0 0.20801174E+04</rscale>
<asrwt>0</asrwt>
<pdfrwt beam="1">  1        2 0.16210203E+00 0.20801174E+04</pdfrwt>
<pdfrwt beam="2">  1       -2 0.15794306E+00 0.20801174E+04</pdfrwt>
<totfact> 0.56072393E+00</totfact>
</mgrwt>
</event>
<event>
 4    1  0.2018023E-008  0.2068293E+04  0.7816531E-02  0.8575341E-01
          2   -1    0    0  501    0  0.00000000000E+00  0.00000000000E+00  0.25385671459E+04  0.25385671459E+04  0.00000000000E+00 0.  1.
         -2   -1    0    0    0  501 -0.00000000000E+00 -0.00000000000E+00 -0.42128458233E+03  0.42128458233E+03  0.00000000000E+00 0. -1.
    2000013    1    1    2    0    0 -0.38266325149E+03 -0.96298687296E+02  0.90682342579E+03  0.13713253906E+04  0.95000000000E+03 0.  0.
   -2000013    1    1    2    0    0  0.38266325149E+03  0.96298687296E+02  0.12104591377E+04  0.15885263376E+04  0.95000000000E+03 0.  0.
<mgrwt>
<rscale>  0 0.20682932E+04</rscale>
<asrwt>0</asrwt>
<pdfrwt beam="1">  1        2 0.39054878E+00 0.20682932E+04</pdfrwt>
<pdfrwt beam="2">  1       -2 0.64813014E-01 0.20682932E+04</pdfrwt>
<totfact> 0.67128461E+00</totfact>
</mgrwt>
</event>
<event>
 4    1  0.2018023E-008  0.2797569E+04  0.7816531E-02  0.8304023E-01
         -2   -1    0    0    0  501 -0.00000000000E+00  0.00000000000E+00  0.83371343500E+03  0.83371343500E+03  0.00000000000E+00 0. -1.
          2   -1    0    0  501    0  0.00000000000E+00 -0.00000000000E+00 -0.23468475909E+04  0.23468475909E+04  0.00000000000E+00 0.  1.
    2000013    1    1    2    0    0 -0.76773194399E+03 -0.93880778050E+02 -0.15241840298E+04  0.19554699934E+04  0.95000000000E+03 0.  0.
   -2000013    1    1    2    0    0  0.76773194399E+03  0.93880778050E+02  0.11049873872E+02  0.12250910325E+04  0.95000000000E+03 0.  0.
<mgrwt>
<rscale>  0 0.27975692E+04</rscale>
<asrwt>0</asrwt>
<pdfrwt beam="2">  1        2 0.36105348E+00 0.27975692E+04</pdfrwt>
<pdfrwt beam="1">  1       -2 0.12826360E+00 0.27975692E+04</pdfrwt>
<totfact> 0.16671674E+00</totfact>
</mgrwt>
</event>
<event>
 4    1  0.2018023E-008  0.2056145E+04  0.7816531E-02  0.8580812E-01
         -1   -1    0    0    0  501 -0.00000000000E+00  0.00000000000E+00  0.95316019314E+03  0.95316019314E+03  0.00000000000E+00 0. -1.
          1   -1    0    0  501    0  0.00000000000E+00 -0.00000000000E+00 -0.11088723062E+04  0.11088723062E+04  0.00000000000E+00 0.  1.
    2000013    1    1    2    0    0 -0.24344485987E+03 -0.27799312839E+03  0.56270552650E+02  0.10208878265E+04  0.95000000000E+03 0.  0.
   -2000013    1    1    2    0    0  0.24344485987E+03  0.27799312839E+03 -0.21198266574E+03  0.10411446728E+04  0.95000000000E+03 0.  0.
<mgrwt>
<rscale>  0 0.20561449E+04</rscale>
<asrwt>0</asrwt>
<pdfrwt beam="2">  1        1 0.17059574E+00 0.20561449E+04</pdfrwt>
<pdfrwt beam="1">  1       -1 0.14664003E+00 0.20561449E+04</pdfrwt>
<totfact> 0.42741305E+00</totfact>
</mgrwt>
</event>
<event>
 4    1  0.2018023E-008  0.2006903E+04  0.7816531E-02  0.8603400E-01
         -2   -1    0    0    0  501 -0.00000000000E+00  0.00000000000E+00  0.63578428383E+03  0.63578428383E+03  0.00000000000E+00 0. -1.
          2   -1    0    0  501    0  0.00000000000E+00 -0.00000000000E+00 -0.15837365564E+04  0.15837365564E+04  0.00000000000E+00 0.  1.
    2000013    1    1    2    0    0  0.57010991352E+02  0.26748910738E+03 -0.28365702359E+03  0.10284755625E+04  0.95000000000E+03 0.  0.
   -2000013    1    1    2    0    0 -0.57010991352E+02 -0.26748910738E+03 -0.66429524898E+03  0.11910452777E+04  0.95000000000E+03 0.  0.
<mgrwt>
<rscale>  0 0.20069029E+04</rscale>
<asrwt>0</asrwt>
<pdfrwt beam="2">  1        2 0.24365178E+00 0.20069029E+04</pdfrwt>
<pdfrwt beam="1">  1       -2 0.97812966E-01 0.20069029E+04</pdfrwt>
<totfact> 0.92037947E+00</totfact>
</mgrwt>
</event>
<event>
 4    1  0.2018023E-008  0.2280224E+04  0.7816531E-02  0.8485760E-01
         -1   -1    0    0    0  501 -0.00000000000E+00  0.00000000000E+00  0.90224074874E+03  0.90224074874E+03  0.00000000000E+00 0. -1.
          1   -1    0    0  501    0  0.00000000000E+00 -0.00000000000E+00 -0.14406969432E+04  0.14406969432E+04  0.00000000000E+00 0.  1.
    2000013    1    1    2    0    0 -0.55531493913E+03  0.15515794596E+03 -0.53100321863E+03  0.12316302562E+04  0.95000000000E+03 0.  0.
   -2000013    1    1    2    0    0  0.55531493913E+03 -0.15515794596E+03 -0.74529758167E+01  0.11113074357E+04  0.95000000000E+03 0.  0.
<mgrwt>
<rscale>  0 0.22802241E+04</rscale>
<asrwt>0</asrwt>
<pdfrwt beam="2">  1        1 0.22164568E+00 0.22802241E+04</pdfrwt>
<pdfrwt beam="1">  1       -1 0.13880627E+00 0.22802241E+04</pdfrwt>
<totfact> 0.27923166E+00</totfact>
</mgrwt>
</event>
<event>
 4    1  0.2018023E-008  0.2145766E+04  0.7816531E-02  0.8541347E-01
         -2   -1    0    0    0  501 -0.00000000000E+00  0.00000000000E+00  0.90815205904E+03  0.90815205904E+03  0.00000000000E+00 0. -1.
          2   -1    0    0  501    0  0.00000000000E+00 -0.00000000000E+00 -0.12674943502E+04  0.12674943502E+04  0.00000000000E+00 0.  1.
    2000013    1    1    2    0    0 -0.46578888748E+02 -0.43166919151E+03 -0.42817539576E+03  0.11288675978E+04  0.95000000000E+03 0.  0.
   -2000013    1    1    2    0    0  0.46578888748E+02  0.43166919151E+03  0.68833104630E+02  0.10467788114E+04  0.95000000000E+03 0.  0.
<mgrwt>
<rscale>  0 0.21457657E+04</rscale>
<asrwt>0</asrwt>
<pdfrwt beam="2">  1        2 0.19499913E+00 0.21457657E+04</pdfrwt>
<pdfrwt beam="1">  1       -2 0.13971570E+00 0.21457657E+04</pdfrwt>
<totfact> 0.57266662E+00</totfact>
</mgrwt>
</event>
<event>
 4    1  0.2018023E-008  0.2216125E+04  0.7816531E-02  0.8511746E-01
          2   -1    0    0  501    0  0.00000000000E+00  0.00000000000E+00  0.26425722171E+04  0.26425722171E+04  0.00000000000E+00 0.  1.
         -2   -1    0    0    0  501 -0.00000000000E+00 -0.00000000000E+00 -0.46462413703E+03  0.46462413703E+03  0.00000000000E+00 0. -1.
    2000013    1    1    2    0    0  0.13178149917E+03  0.38104245965E+03  0.16545952688E+04  0.19500628767E+04  0.95000000000E+03 0.  0.
   -2000013    1    1    2    0    0 -0.13178149917E+03 -0.38104245965E+03  0.52335281132E+03  0.11571334775E+04  0.95000000000E+03 0.  0.
<mgrwt>
<rscale>  0 0.22161253E+04</rscale>
<asrwt>0</asrwt>
<pdfrwt beam="1">  1        2 0.40654957E+00 0.22161253E+04</pdfrwt>
<pdfrwt beam="2">  1       -2 0.71480638E-01 0.22161253E+04</pdfrwt>
<totfact> 0.46568343E+00</totfact>
</mgrwt>
</event>
<event>
 4    1  0.2018023E-008  0.2120828E+04  0.7816531E-02  0.8552124E-01
          2   -1    0    0  501    0  0.00000000000E+00  0.00000000000E+00  0.19170222154E+04  0.19170222154E+04  0.00000000000E+00 0.  1.
         -2   -1    0    0    0  501 -0.00000000000E+00 -0.00000000000E+00 -0.58657517546E+03  0.58657517546E+03  0.00000000000E+00 0. -1.
    2000013    1    1    2    0    0 -0.34449012365E+03 -0.24096449901E+03  0.91630914825E+03  0.13852291472E+04  0.95000000000E+03 0.  0.
   -2000013    1    1    2    0    0  0.34449012365E+03  0.24096449901E+03  0.41413789168E+03  0.11183682436E+04  0.95000000000E+03 0.  0.
<mgrwt>
<rscale>  0 0.21208278E+04</rscale>
<asrwt>0</asrwt>
<pdfrwt beam="1">  1        2 0.29492649E+00 0.21208278E+04</pdfrwt>
<pdfrwt beam="2">  1       -2 0.90242335E-01 0.21208278E+04</pdfrwt>
<totfact> 0.71785573E+00</totfact>
</mgrwt>
</event>
<event>
 4    1  0.2018023E-008  0.3167409E+04  0.7816531E-02  0.8197478E-01
          2   -1    0    0  501    0  0.00000000000E+00  0.00000000000E+00  0.15398764014E+04  0.15398764014E+04  0.00000000000E+00 0.  1.
         -2   -1    0    0    0  501 -0.00000000000E+00 -0.00000000000E+00 -0.16287804353E+04  0.16287804353E+04  0.00000000000E+00 0. -1.
    2000013    1    1    2    0    0  0.16567508832E+03 -0.36343382629E+03 -0.12474596859E+04  0.16180815952E+04  0.95000000000E+03 0.  0.
   -2000013    1    1    2    0    0 -0.16567508832E+03  0.36343382629E+03  0.11585556520E+04  0.15505752415E+04  0.95000000000E+03 0.  0.
<mgrwt>
<rscale>  0 0.31674094E+04</rscale>
<asrwt>0</asrwt>
<pdfrwt beam="1">  1        2 0.23690406E+00 0.31674094E+04</pdfrwt>
<pdfrwt beam="2">  1       -2 0.25058161E+00 0.31674094E+04</pdfrwt>
<totfact> 0.64862557E-01</totfact>
</mgrwt>
</event>
<event>
 4    1  0.2018023E-008  0.2615620E+04  0.7816531E-02  0.8362915E-01
          2   -1    0    0  501    0  0.00000000000E+00  0.00000000000E+00  0.25748512644E+04  0.25748512644E+04  0.00000000000E+00 0.  1.
         -2   -1    0    0    0  501 -0.00000000000E+00 -0.00000000000E+00 -0.66425863630E+03  0.66425863630E+03  0.00000000000E+00 0. -1.
    2000013    1    1    2    0    0 -0.35338744213E+03  0.71744568373E+03  0.44732809357E+03  0.13199293226E+04  0.95000000000E+03 0.  0.
   -2000013    1    1    2    0    0  0.35338744213E+03 -0.71744568373E+03  0.14632645345E+04  0.19191805781E+04  0.95000000000E+03 0.  0.
<mgrwt>
<rscale>  0 0.26156201E+04</rscale>
<asrwt>0</asrwt>
<pdfrwt beam="1">  1        2 0.39613096E+00 0.26156201E+04</pdfrwt>
<pdfrwt beam="2">  1       -2 0.10219364E+00 0.26156201E+04</pdfrwt>
<totfact> 0.21811354E+00</totfact>
</mgrwt>
</event>
<event>
 4    1  0.2018023E-008  0.2641495E+04  0.7816531E-02  0.8354241E-01
          2   -1    0    0  501    0  0.00000000000E+00  0.00000000000E+00  0.13722790958E+04  0.13722790958E+04  0.00000000000E+00 0.  1.
         -2   -1    0    0    0  501 -0.00000000000E+00 -0.00000000000E+00 -0.12711506380E+04  0.12711506380E+04  0.00000000000E+00 0. -1.
    2000013    1    1    2    0    0  0.55099530967E+02 -0.91353852525E+03 -0.14942512181E+02  0.13192088061E+04  0.95000000000E+03 0.  0.
   -2000013    1    1    2    0    0 -0.55099530967E+02  0.91353852525E+03  0.11607096999E+03  0.13242209278E+04  0.95000000000E+03 0.  0.
<mgrwt>
<rscale>  0 0.26414946E+04</rscale>
<asrwt>0</asrwt>
<pdfrwt beam="1">  1        2 0.21111986E+00 0.26414946E+04</pdfrwt>
<pdfrwt beam="2">  1       -2 0.19556164E+00 0.26414946E+04</pdfrwt>
<totfact> 0.18830356E+00</totfact>
</mgrwt>
</event>
<event>
 4    1  0.2018023E-008  0.2885018E+04  0.7816531E-02  0.8277349E-01
          2   -1    0    0  501    0  0.00000000000E+00  0.00000000000E+00  0.19987325820E+04  0.19987325820E+04  0.00000000000E+00 0.  1.
         -2   -1    0    0    0  501 -0.00000000000E+00 -0.00000000000E+00 -0.10410759925E+04  0.10410759925E+04  0.00000000000E+00 0. -1.
    2000013    1    1    2    0    0  0.87873717145E+03 -0.59684515115E+03  0.24339078323E+03  0.14457324179E+04  0.95000000000E+03 0.  0.
   -2000013    1    1    2    0    0 -0.87873717145E+03  0.59684515115E+03  0.71426580632E+03  0.15940761566E+04  0.95000000000E+03 0.  0.
<mgrwt>
<rscale>  0 0.28850182E+04</rscale>
<asrwt>0</asrwt>
<pdfrwt beam="1">  1        2 0.30749732E+00 0.28850182E+04</pdfrwt>
<pdfrwt beam="2">  1       -2 0.16016554E+00 0.28850182E+04</pdfrwt>
<totfact> 0.14526503E+00</totfact>
</mgrwt>
</event>
<event>
 4    1  0.2018023E-008  0.2813212E+04  0.7816531E-02  0.8299178E-01
         -2   -1    0    0    0  501 -0.00000000000E+00  0.00000000000E+00  0.15339474948E+04  0.15339474948E+04  0.00000000000E+00 0. -1.
          2   -1    0    0  501    0  0.00000000000E+00 -0.00000000000E+00 -0.12898355158E+04  0.12898355158E+04  0.00000000000E+00 0.  1.
    2000013    1    1    2    0    0 -0.46494074924E+03  0.64795843471E+03 -0.54377665450E+03  0.13543312310E+04  0.95000000000E+03 0.  0.
   -2000013    1    1    2    0    0  0.46494074924E+03 -0.64795843471E+03  0.78788863349E+03  0.14694517795E+04  0.95000000000E+03 0.  0.
<mgrwt>
<rscale>  0 0.28132117E+04</rscale>
<asrwt>0</asrwt>
<pdfrwt beam="2">  1        2 0.19843623E+00 0.28132117E+04</pdfrwt>
<pdfrwt beam="1">  1       -2 0.23599192E+00 0.28132117E+04</pdfrwt>
<totfact> 0.11427253E+00</totfact>
</mgrwt>
</event>
<event>
 4    1  0.2018023E-008  0.2995601E+04  0.7816531E-02  0.8244988E-01
          2   -1    0    0  501    0  0.00000000000E+00  0.00000000000E+00  0.14783489998E+04  0.14783489998E+04  0.00000000000E+00 0.  1.
         -2   -1    0    0    0  501 -0.00000000000E+00 -0.00000000000E+00 -0.15175076918E+04  0.15175076918E+04  0.00000000000E+00 0. -1.
    2000013    1    1    2    0    0  0.83628720271E+03  0.57955071140E+03  0.53332470997E+03  0.14907013647E+04  0.95000000000E+03 0.  0.
   -2000013    1    1    2    0    0 -0.83628720271E+03 -0.57955071140E+03 -0.57248340205E+03  0.15051553269E+04  0.95000000000E+03 0.  0.
<mgrwt>
<rscale>  0 0.29956008E+04</rscale>
<asrwt>0</asrwt>
<pdfrwt beam="1">  1        2 0.22743831E+00 0.29956008E+04</pdfrwt>
<pdfrwt beam="2">  1       -2 0.23346272E+00 0.29956008E+04</pdfrwt>
<totfact> 0.90953890E-01</totfact>
</mgrwt>
</event>
<event>
 4    1  0.2018023E-008  0.3001491E+04  0.7816531E-02  0.8243305E-01
          2   -1    0    0  501    0  0.00000000000E+00  0.00000000000E+00  0.22392679103E+04  0.22392679103E+04  0.00000000000E+00 0.  1.
         -2   -1    0    0    0  501 -0.00000000000E+00 -0.00000000000E+00 -0.10057919636E+04  0.10057919636E+04  0.00000000000E+00 0. -1.
    2000013    1    1    2    0    0 -0.11602981890E+04 -0.24519158116E+02  0.67440075557E+03  0.16444480702E+04  0.95000000000E+03 0.  0.
   -2000013    1    1    2    0    0  0.11602981890E+04  0.24519158116E+02  0.55907519120E+03  0.16006118037E+04  0.95000000000E+03 0.  0.
<mgrwt>
<rscale>  0 0.30014914E+04</rscale>
<asrwt>0</asrwt>
<pdfrwt beam="1">  1        2 0.34450275E+00 0.30014914E+04</pdfrwt>
<pdfrwt beam="2">  1       -2 0.15473723E+00 0.30014914E+04</pdfrwt>
<totfact> 0.11582418E+00</totfact>
</mgrwt>
</event>
<event>
 4    1  0.2018023E-008  0.2773123E+04  0.7816531E-02  0.8311662E-01
          2   -1    0    0  501    0  0.00000000000E+00  0.00000000000E+00  0.28723101565E+04  0.28723101565E+04  0.00000000000E+00 0.  1.
         -2   -1    0    0    0  501 -0.00000000000E+00 -0.00000000000E+00 -0.66934014591E+03  0.66934014591E+03  0.00000000000E+00 0. -1.
    2000013    1    1    2    0    0  0.52727529301E+03 -0.13094132543E+03  0.14128584659E+02  0.10944699549E+04  0.95000000000E+03 0.  0.
   -2000013    1    1    2    0    0 -0.52727529301E+03  0.13094132543E+03  0.21888414260E+04  0.24471803475E+04  0.95000000000E+03 0.  0.
<mgrwt>
<rscale>  0 0.27731228E+04</rscale>
<asrwt>0</asrwt>
<pdfrwt beam="1">  1        2 0.44189386E+00 0.27731228E+04</pdfrwt>
<pdfrwt beam="2">  1       -2 0.10297541E+00 0.27731228E+04</pdfrwt>
<totfact> 0.14028485E+00</totfact>
</mgrwt>
</event>
<event>
 4    1  0.2018023E-008  0.2465290E+04  0.7816531E-02  0.8415457E-01
         -2   -1    0    0    0  501 -0.00000000000E+00  0.00000000000E+00  0.85799787763E+03  0.85799787763E+03  0.00000000000E+00 0. -1.
          2   -1    0    0  501    0  0.00000000000E+00 -0.00000000000E+00 -0.17708828678E+04  0.17708828678E+04  0.00000000000E+00 0.  1.
    2000013    1    1    2    0    0  0.20561972771E+03 -0.60685708207E+03  0.27968855494E+02  0.11462273978E+04  0.95000000000E+03 0.  0.
   -2000013    1    1    2    0    0 -0.20561972771E+03  0.60685708207E+03 -0.94085384566E+03  0.14826533477E+04  0.95000000000E+03 0.  0.
<mgrwt>
<rscale>  0 0.24652900E+04</rscale>
<asrwt>0</asrwt>
<pdfrwt beam="2">  1        2 0.27244352E+00 0.24652900E+04</pdfrwt>
<pdfrwt beam="1">  1       -2 0.13199967E+00 0.24652900E+04</pdfrwt>
<totfact> 0.33471520E+00</totfact>
</mgrwt>
</event>
<event>
 4    1  0.2018023E-008  0.3225369E+04  0.7816531E-02  0.8182149E-01
         -2   -1    0    0    0  501 -0.00000000000E+00  0.00000000000E+00  0.16350632666E+04  0.16350632666E+04  0.00000000000E+00 0. -1.
          2   -1    0    0  501    0  0.00000000000E+00 -0.00000000000E+00 -0.15906116066E+04  0.15906116066E+04  0.00000000000E+00 0.  1.
    2000013    1    1    2    0    0 -0.12215455482E+04 -0.30631649910E+03  0.35729090675E+03  0.16174548266E+04  0.95000000000E+03 0.  0.
   -2000013    1    1    2    0    0  0.12215455482E+04  0.30631649910E+03 -0.31283924681E+03  0.16082200466E+04  0.95000000000E+03 0.  0.
<mgrwt>
<rscale>  0 0.32253686E+04</rscale>
<asrwt>0</asrwt>
<pdfrwt beam="2">  1        2 0.24470948E+00 0.32253686E+04</pdfrwt>
<pdfrwt beam="1">  1       -2 0.25154819E+00 0.32253686E+04</pdfrwt>
<totfact> 0.59632709E-01</totfact>
</mgrwt>
</event>
<event>
 4    1  0.2018023E-008  0.2183402E+04  0.7816531E-02  0.8525368E-01
         -2   -1    0    0    0  501 -0.00000000000E+00  0.00000000000E+00  0.11008872237E+04  0.11008872237E+04  0.00000000000E+00 0. -1.
          2   -1    0    0  501    0  0.00000000000E+00 -0.00000000000E+00 -0.10825914383E+04  0.10825914383E+04  0.00000000000E+00 0.  1.
    2000013    1    1    2    0    0  0.30968097635E+03 -0.33348610146E+03 -0.27756026441E+03  0.10893369485E+04  0.95000000000E+03 0.  0.
   -2000013    1    1    2    0    0 -0.30968097635E+03  0.33348610146E+03  0.29585604989E+03  0.10941417135E+04  0.95000000000E+03 0.  0.
<mgrwt>
<rscale>  0 0.21834020E+04</rscale>
<asrwt>0</asrwt>
<pdfrwt beam="2">  1        2 0.16655253E+00 0.21834020E+04</pdfrwt>
<pdfrwt beam="1">  1       -2 0.16936727E+00 0.21834020E+04</pdfrwt>
<totfact> 0.44020758E+00</totfact>
</mgrwt>
</event>
<event>
 4    1  0.2018023E-008  0.2436144E+04  0.7816531E-02  0.8426094E-01
          1   -1    0    0  501    0  0.00000000000E+00  0.00000000000E+00  0.25823986762E+04  0.25823986762E+04  0.00000000000E+00 0.  1.
         -1   -1    0    0    0  501 -0.00000000000E+00 -0.00000000000E+00 -0.57454307877E+03  0.57454307877E+03  0.00000000000E+00 0. -1.
    2000013    1    1    2    0    0  0.60393707528E+03 -0.20673317892E+03  0.46380886704E+03  0.12349482837E+04  0.95000000000E+03 0.  0.
   -2000013    1    1    2    0    0 -0.60393707528E+03  0.20673317892E+03  0.15440467304E+04  0.19219934713E+04  0.95000000000E+03 0.  0.
<mgrwt>
<rscale>  0 0.24361439E+04</rscale>
<asrwt>0</asrwt>
<pdfrwt beam="1">  1        1 0.39729210E+00 0.24361439E+04</pdfrwt>
<pdfrwt beam="2">  1       -1 0.88391244E-01 0.24361439E+04</pdfrwt>
<totfact> 0.13325385E+00</totfact>
</mgrwt>
</event>
<event>
 4    1  0.2018023E-008  0.2307712E+04  0.7816531E-02  0.8474887E-01
         -2   -1    0    0    0  501 -0.00000000000E+00  0.00000000000E+00  0.14156470921E+04  0.14156470921E+04  0.00000000000E+00 0. -1.
          2   -1    0    0  501    0  0.00000000000E+00 -0.00000000000E+00 -0.94047713132E+03  0.94047713132E+03  0.00000000000E+00 0.  1.
    2000013    1    1    2    0    0 -0.97397640916E+01 -0.40503241185E+03 -0.28773555794E+03  0.10721184025E+04  0.95000000000E+03 0.  0.
   -2000013    1    1    2    0    0  0.97397640916E+01  0.40503241185E+03  0.76290551869E+03  0.12840058209E+04  0.95000000000E+03 0.  0.
<mgrwt>
<rscale>  0 0.23077120E+04</rscale>
<asrwt>0</asrwt>
<pdfrwt beam="2">  1        2 0.14468879E+00 0.23077120E+04</pdfrwt>
<pdfrwt beam="1">  1       -2 0.21779186E+00 0.23077120E+04</pdfrwt>
<totfact> 0.25470231E+00</totfact>
</mgrwt>
</event>
<event>
 4    1  0.2018023E-008  0.2514320E+04  0.7816531E-02  0.8397902E-01
          2   -1    0    0  501    0  0.00000000000E+00  0.00000000000E+00  0.13720541148E+04  0.13720541148E+04  0.00000000000E+00 0.  1.
         -2   -1    0    0    0  501 -0.00000000000E+00 -0.00000000000E+00 -0.11518871161E+04  0.11518871161E+04  0.00000000000E+00 0. -1.
    2000013    1    1    2    0    0  0.56172702468E+03  0.32547810996E+03 -0.39829116242E+03  0.12176243675E+04  0.95000000000E+03 0.  0.
   -2000013    1    1    2    0    0 -0.56172702468E+03 -0.32547810996E+03  0.61845816111E+03  0.13063168633E+04  0.95000000000E+03 0.  0.
<mgrwt>
<rscale>  0 0.25143202E+04</rscale>
<asrwt>0</asrwt>
<pdfrwt beam="1">  1        2 0.21108525E+00 0.25143202E+04</pdfrwt>
<pdfrwt beam="2">  1       -2 0.17721340E+00 0.25143202E+04</pdfrwt>
<totfact> 0.25362886E+00</totfact>
</mgrwt>
</event>
<event>
 4    1  0.2018023E-008  0.2078324E+04  0.7816531E-02  0.8570852E-01
          2   -1    0    0  501    0  0.00000000000E+00  0.00000000000E+00  0.23904016266E+04  0.23904016266E+04  0.00000000000E+00 0.  1.
         -2   -1    0    0    0  501 -0.00000000000E+00 -0.00000000000E+00 -0.45174751105E+03  0.45174751105E+03  0.00000000000E+00 0. -1.
    2000013    1    1    2    0    0  0.20912513570E+03  0.33612542509E+03  0.11658142617E+04  0.15551001629E+04  0.95000000000E+03 0.  0.
   -2000013    1    1    2    0    0 -0.20912513570E+03 -0.33612542509E+03  0.77283985382E+03  0.12870489748E+04  0.95000000000E+03 0.  0.
<mgrwt>
<rscale>  0 0.20783243E+04</rscale>
<asrwt>0</asrwt>
<pdfrwt beam="1">  1        2 0.36775409E+00 0.20783243E+04</pdfrwt>
<pdfrwt beam="2">  1       -2 0.69499618E-01 0.20783243E+04</pdfrwt>
<totfact> 0.70196852E+00</totfact>
</mgrwt>
</event>
<event>
 4    1  0.2018023E-008  0.2767201E+04  0.7816531E-02  0.8313524E-01
         -2   -1    0    0    0  501 -0.00000000000E+00  0.00000000000E+00  0.86509549102E+03  0.86509549102E+03  0.00000000000E+00 0. -1.
          2   -1    0    0  501    0  0.00000000000E+00 -0.00000000000E+00 -0.22128769884E+04  0.22128769884E+04  0.00000000000E+00 0.  1.
    2000013    1    1    2    0    0  0.57502774272E+02  0.88611028591E+03 -0.14821384160E+03  0.13088030221E+04  0.95000000000E+03 0.  0.
   -2000013    1    1    2    0    0 -0.57502774272E+02 -0.88611028591E+03 -0.11995676558E+04  0.17691694573E+04  0.95000000000E+03 0.  0.
<mgrwt>
<rscale>  0 0.27672007E+04</rscale>
<asrwt>0</asrwt>
<pdfrwt beam="2">  1        2 0.34044260E+00 0.27672007E+04</pdfrwt>
<pdfrwt beam="1">  1       -2 0.13309162E+00 0.27672007E+04</pdfrwt>
<totfact> 0.18125944E+00</totfact>
</mgrwt>
</event>
<event>
 4    1  0.2018023E-008  0.2211455E+04  0.7816531E-02  0.8513676E-01
          1   -1    0    0  501    0  0.00000000000E+00  0.00000000000E+00  0.44236365769E+03  0.44236365769E+03  0.00000000000E+00 0.  1.
         -1   -1    0    0    0  501 -0.00000000000E+00 -0.00000000000E+00 -0.27638638265E+04  0.27638638265E+04  0.00000000000E+00 0. -1.
    2000013    1    1    2    0    0 -0.83659244604E+02  0.40795478765E+03 -0.60543225703E+03  0.12010304725E+04  0.95000000000E+03 0.  0.
   -2000013    1    1    2    0    0  0.83659244604E+02 -0.40795478765E+03 -0.17160679118E+04  0.20051970117E+04  0.95000000000E+03 0.  0.
<mgrwt>
<rscale>  0 0.22114546E+04</rscale>
<asrwt>0</asrwt>
<pdfrwt beam="1">  1        1 0.68055948E-01 0.22114546E+04</pdfrwt>
<pdfrwt beam="2">  1       -1 0.42520981E+00 0.22114546E+04</pdfrwt>
<totfact> 0.22921087E-01</totfact>
</mgrwt>
</event>
<event>
 4    1  0.2018023E-008  0.3197994E+04  0.7816531E-02  0.8189347E-01
          2   -1    0    0  501    0  0.00000000000E+00  0.00000000000E+00  0.15927401936E+04  0.15927401936E+04  0.00000000000E+00 0.  1.
         -2   -1    0    0    0  501 -0.00000000000E+00 -0.00000000000E+00 -0.16052782958E+04  0.16052782958E+04  0.00000000000E+00 0. -1.
    2000013    1    1    2    0    0 -0.12034807159E+04  0.40402181306E+03  0.20035248874E+03  0.15981991674E+04  0.95000000000E+03 0.  0.
   -2000013    1    1    2    0    0  0.12034807159E+04 -0.40402181306E+03 -0.21289059093E+03  0.15998193219E+04  0.95000000000E+03 0.  0.
<mgrwt>
<rscale>  0 0.31979939E+04</rscale>
<asrwt>0</asrwt>
<pdfrwt beam="1">  1        2 0.24503695E+00 0.31979939E+04</pdfrwt>
<pdfrwt beam="2">  1       -2 0.24696589E+00 0.31979939E+04</pdfrwt>
<totfact> 0.63605757E-01</totfact>
</mgrwt>
</event>
<event>
 4    1  0.2018023E-008  0.2700042E+04  0.7816531E-02  0.8334991E-01
          2   -1    0    0  501    0  0.00000000000E+00  0.00000000000E+00  0.75613415580E+03  0.75613415580E+03  0.00000000000E+00 0.  1.
         -2   -1    0    0    0  501 -0.00000000000E+00 -0.00000000000E+00 -0.24103608891E+04  0.24103608891E+04  0.00000000000E+00 0. -1.
    2000013    1    1    2    0    0 -0.80922710995E+03 -0.51316602173E+03 -0.87780465987E+03  0.16097294500E+04  0.95000000000E+03 0.  0.
   -2000013    1    1    2    0    0  0.80922710995E+03  0.51316602173E+03 -0.77642207345E+03  0.15567655949E+04  0.95000000000E+03 0.  0.
<mgrwt>
<rscale>  0 0.27000416E+04</rscale>
<asrwt>0</asrwt>
<pdfrwt beam="1">  1        2 0.11632833E+00 0.27000416E+04</pdfrwt>
<pdfrwt beam="2">  1       -2 0.37082475E+00 0.27000416E+04</pdfrwt>
<totfact> 0.37335526E-01</totfact>
</mgrwt>
</event>
<event>
 4    1  0.2018023E-008  0.2246857E+04  0.7816531E-02  0.8499174E-01
          2   -1    0    0  501    0  0.00000000000E+00  0.00000000000E+00  0.25650716608E+04  0.25650716608E+04  0.00000000000E+00 0.  1.
         -2   -1    0    0    0  501 -0.00000000000E+00 -0.00000000000E+00 -0.49202985196E+03  0.49202985196E+03  0.00000000000E+00 0. -1.
    2000013    1    1    2    0    0 -0.44731531581E+03 -0.37621369422E+03  0.12188840381E+04  0.16522124663E+04  0.95000000000E+03 0.  0.
   -2000013    1    1    2    0    0  0.44731531581E+03  0.37621369422E+03  0.85415777068E+03  0.14048890464E+04  0.95000000000E+03 0.  0.
<mgrwt>
<rscale>  0 0.22468572E+04</rscale>
<asrwt>0</asrwt>
<pdfrwt beam="1">  1        2 0.39462640E+00 0.22468572E+04</pdfrwt>
<pdfrwt beam="2">  1       -2 0.75696902E-01 0.22468572E+04</pdfrwt>
<totfact> 0.45445440E+00</totfact>
</mgrwt>
</event>
<event>
 4    1  0.2018023E-008  0.2384481E+04  0.7816531E-02  0.8445337E-01
         -2   -1    0    0    0  501 -0.00000000000E+00  0.00000000000E+00  0.12453643240E+04  0.12453643240E+04  0.00000000000E+00 0.  1.
          2   -1    0    0  501    0  0.00000000000E+00 -0.00000000000E+00 -0.11413828359E+04  0.11413828359E+04  0.00000000000E+00 0. -1.
    2000013    1    1    2    0    0 -0.30263905422E+03 -0.59449532392E+03  0.32413583220E+03  0.12052299055E+04  0.95000000000E+03 0.  0.
   -2000013    1    1    2    0    0  0.30263905422E+03  0.59449532392E+03 -0.22015434403E+03  0.11815172544E+04  0.95000000000E+03 0.  0.
<mgrwt>
<rscale>  0 0.23844810E+04</rscale>
<asrwt>0</asrwt>
<pdfrwt beam="2">  1        2 0.17559736E+00 0.23844810E+04</pdfrwt>
<pdfrwt beam="1">  1       -2 0.19159451E+00 0.23844810E+04</pdfrwt>
<totfact> 0.27978846E+00</totfact>
</mgrwt>
</event>
<event>
 4    1  0.2018023E-008  0.2320348E+04  0.7816531E-02  0.8469941E-01
          2   -1    0    0  501    0  0.00000000000E+00  0.00000000000E+00  0.19872334535E+04  0.19872334535E+04  0.00000000000E+00 0.  1.
         -2   -1    0    0    0  501 -0.00000000000E+00 -0.00000000000E+00 -0.67732562451E+03  0.67732562451E+03  0.00000000000E+00 0. -1.
    2000013    1    1    2    0    0 -0.18712294983E+03 -0.34577477588E+03  0.12722132783E+04  0.16357266946E+04  0.95000000000E+03 0.  0.
   -2000013    1    1    2    0    0  0.18712294983E+03  0.34577477588E+03  0.37694550710E+02  0.10288323834E+04  0.95000000000E+03 0.  0.
<mgrwt>
<rscale>  0 0.23203484E+04</rscale>
<asrwt>0</asrwt>
<pdfrwt beam="1">  1        2 0.30572822E+00 0.23203484E+04</pdfrwt>
<pdfrwt beam="2">  1       -2 0.10420394E+00 0.23203484E+04</pdfrwt>
<totfact> 0.46016294E+00</totfact>
</mgrwt>
</event>
<event>
 4    1  0.2018023E-008  0.2328884E+04  0.7816531E-02  0.8466619E-01
          2   -1    0    0  501    0  0.00000000000E+00  0.00000000000E+00  0.67602654759E+03  0.67602654759E+03  0.00000000000E+00 0.  1.
         -2   -1    0    0    0  501 -0.00000000000E+00 -0.00000000000E+00 -0.20057276493E+04  0.20057276493E+04  0.00000000000E+00 0. -1.
    2000013    1    1    2    0    0 -0.55404445159E+03 -0.37335825055E+03 -0.76162954619E+03  0.13888632774E+04  0.95000000000E+03 0.  0.
   -2000013    1    1    2    0    0  0.55404445159E+03  0.37335825055E+03 -0.56807155551E+03  0.12928909195E+04  0.95000000000E+03 0.  0.
<mgrwt>
<rscale>  0 0.23288840E+04</rscale>
<asrwt>0</asrwt>
<pdfrwt beam="1">  1        2 0.10400409E+00 0.23288840E+04</pdfrwt>
<pdfrwt beam="2">  1       -2 0.30857348E+00 0.23288840E+04</pdfrwt>
<totfact> 0.10909337E+00</totfact>
</mgrwt>
</event>
<event>
 4    1  0.2018023E-008  0.2055226E+04  0.7816531E-02  0.8581227E-01
          2   -1    0    0  501    0  0.00000000000E+00  0.00000000000E+00  0.16259105041E+04  0.16259105041E+04  0.00000000000E+00 0.  1.
         -2   -1    0    0    0  501 -0.00000000000E+00 -0.00000000000E+00 -0.64947489822E+03  0.64947489822E+03  0.00000000000E+00 0. -1.
    2000013    1    1    2    0    0  0.27492917631E+03  0.27866414035E+03  0.50566346190E+03  0.11451791527E+04  0.95000000000E+03 0.  0.
   -2000013    1    1    2    0    0 -0.27492917631E+03 -0.27866414035E+03  0.47077214399E+03  0.11302062496E+04  0.95000000000E+03 0.  0.
<mgrwt>
<rscale>  0 0.20552256E+04</rscale>
<asrwt>0</asrwt>
<pdfrwt beam="1">  1        2 0.25014008E+00 0.20552256E+04</pdfrwt>
<pdfrwt beam="2">  1       -2 0.99919215E-01 0.20552256E+04</pdfrwt>
<totfact> 0.82566826E+00</totfact>
</mgrwt>
</event>
<event>
 4    1  0.2018023E-008  0.2658462E+04  0.7816531E-02  0.8348610E-01
          2   -1    0    0  501    0  0.00000000000E+00  0.00000000000E+00  0.11130339448E+04  0.11130339448E+04  0.00000000000E+00 0.  1.
         -2   -1    0    0    0  501 -0.00000000000E+00 -0.00000000000E+00 -0.15874223680E+04  0.15874223680E+04  0.00000000000E+00 0. -1.
    2000013    1    1    2    0    0  0.71665315526E+03 -0.59162872288E+03 -0.20958603452E+03  0.13453782355E+04  0.95000000000E+03 0.  0.
   -2000013    1    1    2    0    0 -0.71665315526E+03  0.59162872288E+03 -0.26480238871E+03  0.13550780774E+04  0.95000000000E+03 0.  0.
<mgrwt>
<rscale>  0 0.26584619E+04</rscale>
<asrwt>0</asrwt>
<pdfrwt beam="1">  1        2 0.17123599E+00 0.26584619E+04</pdfrwt>
<pdfrwt beam="2">  1       -2 0.24421882E+00 0.26584619E+04</pdfrwt>
<totfact> 0.13132127E+00</totfact>
</mgrwt>
</event>
<event>
 4    1  0.2018023E-008  0.3292384E+04  0.7816531E-02  0.8164836E-01
         -2   -1    0    0    0  501 -0.00000000000E+00  0.00000000000E+00  0.89581049023E+03  0.89581049023E+03  0.00000000000E+00 0.  1.
          2   -1    0    0  501    0  0.00000000000E+00 -0.00000000000E+00 -0.30251348497E+04  0.30251348497E+04  0.00000000000E+00 0. -1.
    2000013    1    1    2    0    0  0.30571836323E+03  0.75262830813E+03 -0.23404052450E+04  0.26532828343E+04  0.95000000000E+03 0.  0.
   -2000013    1    1    2    0    0 -0.30571836323E+03 -0.75262830813E+03  0.21108088560E+03  0.12676625056E+04  0.95000000000E+03 0.  0.
<mgrwt>
<rscale>  0 0.32923837E+04</rscale>
<asrwt>0</asrwt>
<pdfrwt beam="2">  1        2 0.46540536E+00 0.32923837E+04</pdfrwt>
<pdfrwt beam="1">  1       -2 0.13781700E+00 0.32923837E+04</pdfrwt>
<totfact> 0.52452560E-01</totfact>
</mgrwt>
</event>
<event>
 4    1  0.2018023E-008  0.2236412E+04  0.7816531E-02  0.8503424E-01
          2   -1    0    0  501    0  0.00000000000E+00  0.00000000000E+00  0.15380300712E+04  0.15380300712E+04  0.00000000000E+00 0.  1.
         -2   -1    0    0    0  501 -0.00000000000E+00 -0.00000000000E+00 -0.81297778412E+03  0.81297778412E+03  0.00000000000E+00 0. -1.
    2000013    1    1    2    0    0 -0.74800258599E+02  0.52755150650E+03  0.62842699463E+03  0.12575079158E+04  0.95000000000E+03 0.  0.
   -2000013    1    1    2    0    0  0.74800258599E+02 -0.52755150650E+03  0.96625292496E+02  0.10934999396E+04  0.95000000000E+03 0.  0.
<mgrwt>
<rscale>  0 0.22364117E+04</rscale>
<asrwt>0</asrwt>
<pdfrwt beam="1">  1        2 0.23662001E+00 0.22364117E+04</pdfrwt>
<pdfrwt beam="2">  1       -2 0.12507351E+00 0.22364117E+04</pdfrwt>
<totfact> 0.52724691E+00</totfact>
</mgrwt>
</event>
<event>
 4    1  0.2018023E-008  0.2766215E+04  0.7816531E-02  0.8313835E-01
         -2   -1    0    0    0  501 -0.00000000000E+00  0.00000000000E+00  0.10853995242E+04  0.10853995242E+04  0.00000000000E+00 0. -1.
          2   -1    0    0  501    0  0.00000000000E+00 -0.00000000000E+00 -0.17624716856E+04  0.17624716856E+04  0.00000000000E+00 0.  1.
    2000013    1    1    2    0    0 -0.90199281495E+03 -0.94611100270E+02  0.10778589176E+03  0.13178240008E+04  0.95000000000E+03 0.  0.
   -2000013    1    1    2    0    0  0.90199281495E+03  0.94611100270E+02 -0.78485805315E+03  0.15300472091E+04  0.95000000000E+03 0.  0.
<mgrwt>
<rscale>  0 0.27662147E+04</rscale>
<asrwt>0</asrwt>
<pdfrwt beam="2">  1        2 0.27114949E+00 0.27662147E+04</pdfrwt>
<pdfrwt beam="1">  1       -2 0.16698454E+00 0.27662147E+04</pdfrwt>
<totfact> 0.17696903E+00</totfact>
</mgrwt>
</event>
<event>
 4    1  0.2018023E-008  0.2541730E+04  0.7816531E-02  0.8388268E-01
         -2   -1    0    0    0  501 -0.00000000000E+00  0.00000000000E+00  0.13769508099E+04  0.13769508099E+04  0.00000000000E+00 0. -1.
          2   -1    0    0  501    0  0.00000000000E+00 -0.00000000000E+00 -0.11729521799E+04  0.11729521799E+04  0.00000000000E+00 0.  1.
    2000013    1    1    2    0    0  0.55834696198E+03 -0.53637085206E+03  0.43946237861E+03  0.13019493858E+04  0.95000000000E+03 0.  0.
   -2000013    1    1    2    0    0 -0.55834696198E+03  0.53637085206E+03 -0.23546374866E+03  0.12479536040E+04  0.95000000000E+03 0.  0.
<mgrwt>
<rscale>  0 0.25417297E+04</rscale>
<asrwt>0</asrwt>
<pdfrwt beam="2">  1        2 0.18045418E+00 0.25417297E+04</pdfrwt>
<pdfrwt beam="1">  1       -2 0.21183858E+00 0.25417297E+04</pdfrwt>
<totfact> 0.19473730E+00</totfact>
</mgrwt>
</event>
<event>
 4    1  0.2018023E-008  0.2718863E+04  0.7816531E-02  0.8328910E-01
          2   -1    0    0  501    0  0.00000000000E+00  0.00000000000E+00  0.35853364319E+04  0.35853364319E+04  0.00000000000E+00 0.  1.
         -2   -1    0    0    0  501 -0.00000000000E+00 -0.00000000000E+00 -0.51544791527E+03  0.51544791527E+03  0.00000000000E+00 0. -1.
    2000013    1    1    2    0    0  0.22953451359E+02 -0.96222220769E+03  0.13261929618E+04  0.18941188479E+04  0.95000000000E+03 0.  0.
   -2000013    1    1    2    0    0 -0.22953451359E+02  0.96222220769E+03  0.17436955548E+04  0.22066654993E+04  0.95000000000E+03 0.  0.
<mgrwt>
<rscale>  0 0.27188631E+04</rscale>
<asrwt>0</asrwt>
<pdfrwt beam="1">  1        2 0.55159020E+00 0.27188631E+04</pdfrwt>
<pdfrwt beam="2">  1       -2 0.79299682E-01 0.27188631E+04</pdfrwt>
<totfact> 0.87380247E-01</totfact>
</mgrwt>
</event>
<event>
 4    1  0.2018023E-008  0.2352469E+04  0.7816531E-02  0.8457516E-01
          2   -1    0    0  501    0  0.00000000000E+00  0.00000000000E+00  0.19808384781E+04  0.19808384781E+04  0.00000000000E+00 0.  1.
         -2   -1    0    0    0  501 -0.00000000000E+00 -0.00000000000E+00 -0.69845530460E+03  0.69845530460E+03  0.00000000000E+00 0. -1.
    2000013    1    1    2    0    0  0.36412850312E+03 -0.57270046770E+03  0.47831384571E+03  0.12616891564E+04  0.95000000000E+03 0.  0.
   -2000013    1    1    2    0    0 -0.36412850312E+03  0.57270046770E+03  0.80406932778E+03  0.14176046263E+04  0.95000000000E+03 0.  0.
<mgrwt>
<rscale>  0 0.23524686E+04</rscale>
<asrwt>0</asrwt>
<pdfrwt beam="1">  1        2 0.30474438E+00 0.23524686E+04</pdfrwt>
<pdfrwt beam="2">  1       -2 0.10745466E+00 0.23524686E+04</pdfrwt>
<totfact> 0.42976599E+00</totfact>
</mgrwt>
</event>
<event>
 4    1  0.2018023E-008  0.2043932E+04  0.7816531E-02  0.8586352E-01
          1   -1    0    0  501    0  0.00000000000E+00  0.00000000000E+00  0.15541619520E+04  0.15541619520E+04  0.00000000000E+00 0.  1.
         -1   -1    0    0    0  501 -0.00000000000E+00 -0.00000000000E+00 -0.67201130871E+03  0.67201130871E+03  0.00000000000E+00 0. -1.
    2000013    1    1    2    0    0  0.22790764222E+03  0.29951971640E+03  0.42349780205E+03  0.11061213054E+04  0.95000000000E+03 0.  0.
   -2000013    1    1    2    0    0 -0.22790764222E+03 -0.29951971640E+03  0.45865284126E+03  0.11200519554E+04  0.95000000000E+03 0.  0.
<mgrwt>
<rscale>  0 0.20439319E+04</rscale>
<asrwt>0</asrwt>
<pdfrwt beam="1">  1        1 0.23910184E+00 0.20439319E+04</pdfrwt>
<pdfrwt beam="2">  1       -1 0.10338636E+00 0.20439319E+04</pdfrwt>
<totfact> 0.48943396E+00</totfact>
</mgrwt>
</event>
<event>
 4    1  0.2018023E-008  0.2396098E+04  0.7816531E-02  0.8440966E-01
          2   -1    0    0  501    0  0.00000000000E+00  0.00000000000E+00  0.30332813251E+04  0.30332813251E+04  0.00000000000E+00 0.  1.
         -2   -1    0    0    0  501 -0.00000000000E+00 -0.00000000000E+00 -0.47319091983E+03  0.47319091983E+03  0.00000000000E+00 0. -1.
    2000013    1    1    2    0    0 -0.23281211930E+02 -0.48518490989E+03  0.48268876031E+03  0.11710827686E+04  0.95000000000E+03 0.  0.
   -2000013    1    1    2    0    0  0.23281211930E+02  0.48518490989E+03  0.20774016450E+04  0.23353894764E+04  0.95000000000E+03 0.  0.
<mgrwt>
<rscale>  0 0.23960978E+04</rscale>
<asrwt>0</asrwt>
<pdfrwt beam="1">  1        2 0.46665865E+00 0.23960978E+04</pdfrwt>
<pdfrwt beam="2">  1       -2 0.72798605E-01 0.23960978E+04</pdfrwt>
<totfact> 0.25469171E+00</totfact>
</mgrwt>
</event>
<event>
 4    1  0.2018023E-008  0.3190998E+04  0.7816531E-02  0.8191199E-01
         -2   -1    0    0    0  501 -0.00000000000E+00  0.00000000000E+00  0.12136841225E+04  0.12136841225E+04  0.00000000000E+00 0. -1.
          2   -1    0    0  501    0  0.00000000000E+00 -0.00000000000E+00 -0.20974302209E+04  0.20974302209E+04  0.00000000000E+00 0.  1.
    2000013    1    1    2    0    0  0.11550282895E+04  0.45803362771E+02 -0.10167393815E+04  0.18089906764E+04  0.95000000000E+03 0.  0.
   -2000013    1    1    2    0    0 -0.11550282895E+04 -0.45803362771E+02  0.13299328310E+03  0.15021236670E+04  0.95000000000E+03 0.  0.
<mgrwt>
<rscale>  0 0.31909984E+04</rscale>
<asrwt>0</asrwt>
<pdfrwt beam="2">  1        2 0.32268157E+00 0.31909984E+04</pdfrwt>
<pdfrwt beam="1">  1       -2 0.18672063E+00 0.31909984E+04</pdfrwt>
<totfact> 0.81031491E-01</totfact>
</mgrwt>
</event>
<event>
 4    1  0.2018023E-008  0.2371777E+04  0.7816531E-02  0.8450146E-01
         -2   -1    0    0    0  501 -0.00000000000E+00  0.00000000000E+00  0.52271452750E+03  0.52271452750E+03  0.00000000000E+00 0.  1.
          2   -1    0    0  501    0  0.00000000000E+00 -0.00000000000E+00 -0.26904392748E+04  0.26904392748E+04  0.00000000000E+00 0. -1.
    2000013    1    1    2    0    0  0.63318713407E+03 -0.29619523752E+03 -0.91698036449E+03  0.14939914840E+04  0.95000000000E+03 0.  0.
   -2000013    1    1    2    0    0 -0.63318713407E+03  0.29619523752E+03 -0.12507443828E+04  0.17191623183E+04  0.95000000000E+03 0.  0.
<mgrwt>
<rscale>  0 0.23717771E+04</rscale>
<asrwt>0</asrwt>
<pdfrwt beam="2">  1        2 0.41391374E+00 0.23717771E+04</pdfrwt>
<pdfrwt beam="1">  1       -2 0.80417619E-01 0.23717771E+04</pdfrwt>
<totfact> 0.33132459E+00</totfact>
</mgrwt>
</event>
<event>
 4    1  0.2018023E-008  0.2335416E+04  0.7816531E-02  0.8464087E-01
         -2   -1    0    0    0  501 -0.00000000000E+00  0.00000000000E+00  0.81728664077E+03  0.81728664077E+03  0.00000000000E+00 0. -1.
          2   -1    0    0  501    0  0.00000000000E+00 -0.00000000000E+00 -0.16683760523E+04  0.16683760523E+04  0.00000000000E+00 0.  1.
    2000013    1    1    2    0    0 -0.47839172224E+03 -0.42800465425E+03 -0.18995670000E+03  0.11621661550E+04  0.95000000000E+03 0.  0.
   -2000013    1    1    2    0    0  0.47839172224E+03  0.42800465425E+03 -0.66113271151E+03  0.13234965380E+04  0.95000000000E+03 0.  0.
<mgrwt>
<rscale>  0 0.23354156E+04</rscale>
<asrwt>0</asrwt>
<pdfrwt beam="2">  1        2 0.25667323E+00 0.23354156E+04</pdfrwt>
<pdfrwt beam="1">  1       -2 0.12573641E+00 0.23354156E+04</pdfrwt>
<totfact> 0.43624924E+00</totfact>
</mgrwt>
</event>
<event>
 4    1  0.2018023E-008  0.2760776E+04  0.7816531E-02  0.8315550E-01
         -1   -1    0    0    0  501 -0.00000000000E+00  0.00000000000E+00  0.71299007476E+03  0.71299007476E+03  0.00000000000E+00 0.  1.
          1   -1    0    0  501    0  0.00000000000E+00 -0.00000000000E+00 -0.26725065346E+04  0.26725065346E+04  0.00000000000E+00 0. -1.
    2000013    1    1    2    0    0  0.30126258506E+03  0.83750423502E+03 -0.41673715714E+03  0.13668732008E+04  0.95000000000E+03 0.  0.
   -2000013    1    1    2    0    0 -0.30126258506E+03 -0.83750423502E+03 -0.15427793027E+04  0.20186234085E+04  0.95000000000E+03 0.  0.
<mgrwt>
<rscale>  0 0.27607757E+04</rscale>
<asrwt>0</asrwt>
<pdfrwt beam="2">  1        1 0.41115485E+00 0.27607757E+04</pdfrwt>
<pdfrwt beam="1">  1       -1 0.10969078E+00 0.27607757E+04</pdfrwt>
<totfact> 0.68448660E-01</totfact>
</mgrwt>
</event>
<event>
 4    1  0.2018023E-008  0.2238390E+04  0.7816531E-02  0.8502617E-01
         -2   -1    0    0    0  501 -0.00000000000E+00  0.00000000000E+00  0.28863134740E+03  0.28863134740E+03  0.00000000000E+00 0. -1.
          2   -1    0    0  501    0  0.00000000000E+00 -0.00000000000E+00 -0.43397841491E+04  0.43397841491E+04  0.00000000000E+00 0.  1.
    2000013    1    1    2    0    0 -0.41581782348E+03 -0.26847496633E+03 -0.26959668158E+04  0.29009860981E+04  0.95000000000E+03 0.  0.
   -2000013    1    1    2    0    0  0.41581782348E+03  0.26847496633E+03 -0.13551859859E+04  0.17274293983E+04  0.95000000000E+03 0.  0.
<mgrwt>
<rscale>  0 0.22383903E+04</rscale>
<asrwt>0</asrwt>
<pdfrwt beam="2">  1        2 0.66765909E+00 0.22383903E+04</pdfrwt>
<pdfrwt beam="1">  1       -2 0.44404823E-01 0.22383903E+04</pdfrwt>
<totfact> 0.77203212E-01</totfact>
</mgrwt>
</event>
<event>
 4    1  0.2018023E-008  0.2814554E+04  0.7816531E-02  0.8298764E-01
         -2   -1    0    0    0  501 -0.00000000000E+00  0.00000000000E+00  0.65820541176E+03  0.65820541176E+03  0.00000000000E+00 0. -1.
          2   -1    0    0  501    0  0.00000000000E+00 -0.00000000000E+00 -0.30088303974E+04  0.30088303974E+04  0.00000000000E+00 0.  1.
    2000013    1    1    2    0    0 -0.18409236580E+03 -0.98102056944E+03 -0.15475750402E+04  0.20721437840E+04  0.95000000000E+03 0.  0.
   -2000013    1    1    2    0    0  0.18409236580E+03  0.98102056944E+03 -0.80304994544E+03  0.15948920251E+04  0.95000000000E+03 0.  0.
<mgrwt>
<rscale>  0 0.28145539E+04</rscale>
<asrwt>0</asrwt>
<pdfrwt beam="2">  1        2 0.46289699E+00 0.28145539E+04</pdfrwt>
<pdfrwt beam="1">  1       -2 0.10126237E+00 0.28145539E+04</pdfrwt>
<totfact> 0.11973020E+00</totfact>
</mgrwt>
</event>
<event>
 4    1  0.2018023E-008  0.4478469E+04  0.7816531E-02  0.7914417E-01
         -2   -1    0    0    0  501 -0.00000000000E+00  0.00000000000E+00  0.22739093145E+04  0.22739093145E+04  0.00000000000E+00 0. -1.
          2   -1    0    0  501    0  0.00000000000E+00 -0.00000000000E+00 -0.22050881253E+04  0.22050881253E+04  0.00000000000E+00 0.  1.
    2000013    1    1    2    0    0  0.94459645020E+03 -0.17157272785E+04  0.55953246887E+03  0.22475673809E+04  0.95000000000E+03 0.  0.
   -2000013    1    1    2    0    0 -0.94459645020E+03  0.17157272785E+04 -0.49071127972E+03  0.22314300589E+04  0.95000000000E+03 0.  0.
<mgrwt>
<rscale>  0 0.44784687E+04</rscale>
<asrwt>0</asrwt>
<pdfrwt beam="2">  1        2 0.33924433E+00 0.44784687E+04</pdfrwt>
<pdfrwt beam="1">  1       -2 0.34983220E+00 0.44784687E+04</pdfrwt>
<totfact> 0.60724982E-02</totfact>
</mgrwt>
</event>
<event>
 4    1  0.2018023E-008  0.2240021E+04  0.7816531E-02  0.8501953E-01
         -2   -1    0    0    0  501 -0.00000000000E+00  0.00000000000E+00  0.50139145482E+03  0.50139145482E+03  0.00000000000E+00 0. -1.
          2   -1    0    0  501    0  0.00000000000E+00 -0.00000000000E+00 -0.25018837287E+04  0.25018837287E+04  0.00000000000E+00 0.  1.
    2000013    1    1    2    0    0  0.42394345554E+03  0.17767352793E+02 -0.44439946645E+03  0.11313861490E+04  0.95000000000E+03 0.  0.
   -2000013    1    1    2    0    0 -0.42394345554E+03 -0.17767352793E+02 -0.15560928075E+04  0.18718890346E+04  0.95000000000E+03 0.  0.
<mgrwt>
<rscale>  0 0.22400206E+04</rscale>
<asrwt>0</asrwt>
<pdfrwt beam="2">  1        2 0.38490518E+00 0.22400206E+04</pdfrwt>
<pdfrwt beam="1">  1       -2 0.77137149E-01 0.22400206E+04</pdfrwt>
<totfact> 0.47454155E+00</totfact>
</mgrwt>
</event>
<event>
 4    1  0.2018023E-008  0.2557786E+04  0.7816531E-02  0.8382683E-01
         -2   -1    0    0    0  501 -0.00000000000E+00  0.00000000000E+00  0.55114496162E+03  0.55114496162E+03  0.00000000000E+00 0. -1.
          2   -1    0    0  501    0  0.00000000000E+00 -0.00000000000E+00 -0.29675813499E+04  0.29675813499E+04  0.00000000000E+00 0.  1.
    2000013    1    1    2    0    0  0.67280468197E+01 -0.74304847984E+03 -0.17933342000E+04  0.21611834403E+04  0.95000000000E+03 0.  0.
   -2000013    1    1    2    0    0 -0.67280468197E+01  0.74304847984E+03 -0.62310218830E+03  0.13575428712E+04  0.95000000000E+03 0.  0.
<mgrwt>
<rscale>  0 0.25577862E+04</rscale>
<asrwt>0</asrwt>
<pdfrwt beam="2">  1        2 0.45655097E+00 0.25577862E+04</pdfrwt>
<pdfrwt beam="1">  1       -2 0.84791534E-01 0.25577862E+04</pdfrwt>
<totfact> 0.19621404E+00</totfact>
</mgrwt>
</event>
<event>
 4    1  0.2018023E-008  0.4229645E+04  0.7816531E-02  0.7959757E-01
         -1   -1    0    0    0  501 -0.00000000000E+00  0.00000000000E+00  0.11821233586E+04  0.11821233586E+04  0.00000000000E+00 0. -1.
          1   -1    0    0  501    0  0.00000000000E+00 -0.00000000000E+00 -0.37834247244E+04  0.37834247244E+04  0.00000000000E+00 0.  1.
    2000013    1    1    2    0    0 -0.47495760422E+03  0.18081415230E+04 -0.97911059095E+03  0.23143288535E+04  0.95000000000E+03 0.  0.
   -2000013    1    1    2    0    0  0.47495760422E+03 -0.18081415230E+04 -0.16221907748E+04  0.26512192295E+04  0.95000000000E+03 0.  0.
<mgrwt>
<rscale>  0 0.42296453E+04</rscale>
<asrwt>0</asrwt>
<pdfrwt beam="2">  1        1 0.58206535E+00 0.42296453E+04</pdfrwt>
<pdfrwt beam="1">  1       -1 0.18186513E+00 0.42296453E+04</pdfrwt>
<totfact> 0.22753721E-02</totfact>
</mgrwt>
</event>
<event>
 4    1  0.2018023E-008  0.3420537E+04  0.7816531E-02  0.8132884E-01
          2   -1    0    0  501    0  0.00000000000E+00  0.00000000000E+00  0.26807803437E+04  0.26807803437E+04  0.00000000000E+00 0.  1.
         -2   -1    0    0    0  501 -0.00000000000E+00 -0.00000000000E+00 -0.10911071201E+04  0.10911071201E+04  0.00000000000E+00 0. -1.
    2000013    1    1    2    0    0  0.83940566173E+03 -0.76197459016E+03 -0.15203236899E+03  0.14868829753E+04  0.95000000000E+03 0.  0.
   -2000013    1    1    2    0    0 -0.83940566173E+03  0.76197459016E+03  0.17417055926E+04  0.22850044884E+04  0.95000000000E+03 0.  0.
<mgrwt>
<rscale>  0 0.34205371E+04</rscale>
<asrwt>0</asrwt>
<pdfrwt beam="1">  1        2 0.41242774E+00 0.34205371E+04</pdfrwt>
<pdfrwt beam="2">  1       -2 0.16786263E+00 0.34205371E+04</pdfrwt>
<totfact> 0.49764428E-01</totfact>
</mgrwt>
</event>
<event>
 4    1  0.2018023E-008  0.2632531E+04  0.7816531E-02  0.8357234E-01
         -2   -1    0    0    0  501 -0.00000000000E+00  0.00000000000E+00  0.69071400218E+03  0.69071400218E+03  0.00000000000E+00 0. -1.
          2   -1    0    0  501    0  0.00000000000E+00 -0.00000000000E+00 -0.25083542255E+04  0.25083542255E+04  0.00000000000E+00 0.  1.
    2000013    1    1    2    0    0  0.27077154621E+03  0.73685206162E+03 -0.34694371579E+03  0.12802883007E+04  0.95000000000E+03 0.  0.
   -2000013    1    1    2    0    0 -0.27077154621E+03 -0.73685206162E+03 -0.14706965075E+04  0.19187799270E+04  0.95000000000E+03 0.  0.
<mgrwt>
<rscale>  0 0.26325314E+04</rscale>
<asrwt>0</asrwt>
<pdfrwt beam="2">  1        2 0.38590065E+00 0.26325314E+04</pdfrwt>
<pdfrwt beam="1">  1       -2 0.10626369E+00 0.26325314E+04</pdfrwt>
<totfact> 0.21685470E+00</totfact>
</mgrwt>
</event>
<event>
 4    1  0.2018023E-008  0.2715348E+04  0.7816531E-02  0.8330042E-01
          2   -1    0    0  501    0  0.00000000000E+00  0.00000000000E+00  0.29163033398E+04  0.29163033398E+04  0.00000000000E+00 0.  1.
         -2   -1    0    0    0  501 -0.00000000000E+00 -0.00000000000E+00 -0.63205989812E+03  0.63205989812E+03  0.00000000000E+00 0. -1.
    2000013    1    1    2    0    0 -0.36778976016E+03 -0.83933044238E+03  0.15574918798E+04  0.20415743569E+04  0.95000000000E+03 0.  0.
   -2000013    1    1    2    0    0  0.36778976016E+03  0.83933044238E+03  0.72675156186E+03  0.15067888810E+04  0.95000000000E+03 0.  0.
<mgrwt>
<rscale>  0 0.27153478E+04</rscale>
<asrwt>0</asrwt>
<pdfrwt beam="1">  1        2 0.44866204E+00 0.27153478E+04</pdfrwt>
<pdfrwt beam="2">  1       -2 0.97239986E-01 0.27153478E+04</pdfrwt>
<totfact> 0.15173204E+00</totfact>
</mgrwt>
</event>
<event>
 4    1  0.2018023E-008  0.2596093E+04  0.7816531E-02  0.8369529E-01
          2   -1    0    0  501    0  0.00000000000E+00  0.00000000000E+00  0.23743941066E+04  0.23743941066E+04  0.00000000000E+00 0.  1.
         -2   -1    0    0    0  501 -0.00000000000E+00 -0.00000000000E+00 -0.70962306874E+03  0.70962306874E+03  0.00000000000E+00 0. -1.
    2000013    1    1    2    0    0  0.18477293184E+02  0.80849513410E+03  0.40667808261E+03  0.13122091507E+04  0.95000000000E+03 0.  0.
   -2000013    1    1    2    0    0 -0.18477293184E+02 -0.80849513410E+03  0.12580929552E+04  0.17718080247E+04  0.95000000000E+03 0.  0.
<mgrwt>
<rscale>  0 0.25960931E+04</rscale>
<asrwt>0</asrwt>
<pdfrwt beam="1">  1        2 0.36529140E+00 0.25960931E+04</pdfrwt>
<pdfrwt beam="2">  1       -2 0.10917278E+00 0.25960931E+04</pdfrwt>
<totfact> 0.24342274E+00</totfact>
</mgrwt>
</event>
<event>
 4    1  0.2018023E-008  0.2612517E+04  0.7816531E-02  0.8363962E-01
         -2   -1    0    0    0  501 -0.00000000000E+00  0.00000000000E+00  0.11967453355E+04  0.11967453355E+04  0.00000000000E+00 0. -1.
          2   -1    0    0  501    0  0.00000000000E+00 -0.00000000000E+00 -0.14257931680E+04  0.14257931680E+04  0.00000000000E+00 0.  1.
    2000013    1    1    2    0    0 -0.89027867888E+03 -0.59736189086E+01 -0.22066271872E+03  0.13205392253E+04  0.95000000000E+03 0.  0.
   -2000013    1    1    2    0    0  0.89027867888E+03  0.59736189086E+01 -0.83851137155E+01  0.13019992782E+04  0.95000000000E+03 0.  0.
<mgrwt>
<rscale>  0 0.26125170E+04</rscale>
<asrwt>0</asrwt>
<pdfrwt beam="2">  1        2 0.21935279E+00 0.26125170E+04</pdfrwt>
<pdfrwt beam="1">  1       -2 0.18411467E+00 0.26125170E+04</pdfrwt>
<totfact> 0.21001647E+00</totfact>
</mgrwt>
</event>
<event>
 4    1  0.2018023E-008  0.2156121E+04  0.7816531E-02  0.8536917E-01
         -2   -1    0    0    0  501 -0.00000000000E+00  0.00000000000E+00  0.49505628854E+03  0.49505628854E+03  0.00000000000E+00 0. -1.
          2   -1    0    0  501    0  0.00000000000E+00 -0.00000000000E+00 -0.23476405378E+04  0.23476405378E+04  0.00000000000E+00 0.  1.
    2000013    1    1    2    0    0  0.30135453269E+03 -0.17763891170E+03 -0.43768204575E+03  0.11029214435E+04  0.95000000000E+03 0.  0.
   -2000013    1    1    2    0    0 -0.30135453269E+03  0.17763891170E+03 -0.14149022035E+04  0.17397753829E+04  0.95000000000E+03 0.  0.
<mgrwt>
<rscale>  0 0.21561208E+04</rscale>
<asrwt>0</asrwt>
<pdfrwt beam="2">  1        2 0.36117546E+00 0.21561208E+04</pdfrwt>
<pdfrwt beam="1">  1       -2 0.76162507E-01 0.21561208E+04</pdfrwt>
<totfact> 0.60292603E+00</totfact>
</mgrwt>
</event>
<event>
 4    1  0.2018023E-008  0.2165612E+04  0.7816531E-02  0.8532879E-01
         -2   -1    0    0    0  501 -0.00000000000E+00  0.00000000000E+00  0.86436048628E+03  0.86436048628E+03  0.00000000000E+00 0. -1.
          2   -1    0    0  501    0  0.00000000000E+00 -0.00000000000E+00 -0.13564584540E+04  0.13564584540E+04  0.00000000000E+00 0.  1.
    2000013    1    1    2    0    0 -0.58978965500E+02 -0.49522806547E+03 -0.96595174240E+02  0.10772928956E+04  0.95000000000E+03 0.  0.
   -2000013    1    1    2    0    0  0.58978965500E+02  0.49522806547E+03 -0.39550279346E+03  0.11435260447E+04  0.95000000000E+03 0.  0.
<mgrwt>
<rscale>  0 0.21656122E+04</rscale>
<asrwt>0</asrwt>
<pdfrwt beam="2">  1        2 0.20868591E+00 0.21656122E+04</pdfrwt>
<pdfrwt beam="1">  1       -2 0.13297854E+00 0.21656122E+04</pdfrwt>
<totfact> 0.57621987E+00</totfact>
</mgrwt>
</event>
<event>
 4    1  0.2018023E-008  0.2502585E+04  0.7816531E-02  0.8402065E-01
          2   -1    0    0  501    0  0.00000000000E+00  0.00000000000E+00  0.95980904206E+03  0.95980904206E+03  0.00000000000E+00 0.  1.
         -2   -1    0    0    0  501 -0.00000000000E+00 -0.00000000000E+00 -0.16312960855E+04  0.16312960855E+04  0.00000000000E+00 0. -1.
    2000013    1    1    2    0    0 -0.26437218225E+03 -0.75195921633E+03 -0.50867666600E+03  0.13403683316E+04  0.95000000000E+03 0.  0.
   -2000013    1    1    2    0    0  0.26437218225E+03  0.75195921633E+03 -0.16281037742E+03  0.12507367960E+04  0.95000000000E+03 0.  0.
<mgrwt>
<rscale>  0 0.25025849E+04</rscale>
<asrwt>0</asrwt>
<pdfrwt beam="1">  1        2 0.14766293E+00 0.25025849E+04</pdfrwt>
<pdfrwt beam="2">  1       -2 0.25096863E+00 0.25025849E+04</pdfrwt>
<totfact> 0.15117149E+00</totfact>
</mgrwt>
</event>
<event>
 4    1  0.2018023E-008  0.2947067E+04  0.7816531E-02  0.8259010E-01
          2   -1    0    0  501    0  0.00000000000E+00  0.00000000000E+00  0.22924261409E+04  0.22924261409E+04  0.00000000000E+00 0.  1.
         -2   -1    0    0    0  501 -0.00000000000E+00 -0.00000000000E+00 -0.94716269201E+03  0.94716269201E+03  0.00000000000E+00 0. -1.
    2000013    1    1    2    0    0  0.10673262336E+04  0.35815787090E+03  0.63241980162E+03  0.16030961153E+04  0.95000000000E+03 0.  0.
   -2000013    1    1    2    0    0 -0.10673262336E+04 -0.35815787090E+03  0.71284364732E+03  0.16364927177E+04  0.95000000000E+03 0.  0.
<mgrwt>
<rscale>  0 0.29470667E+04</rscale>
<asrwt>0</asrwt>
<pdfrwt beam="1">  1        2 0.35268094E+00 0.29470667E+04</pdfrwt>
<pdfrwt beam="2">  1       -2 0.14571734E+00 0.29470667E+04</pdfrwt>
<totfact> 0.12731658E+00</totfact>
</mgrwt>
</event>
<event>
 4    1  0.2018023E-008  0.2993874E+04  0.7816531E-02  0.8245482E-01
          2   -1    0    0  501    0  0.00000000000E+00  0.00000000000E+00  0.15899669560E+04  0.15899669560E+04  0.00000000000E+00 0.  1.
         -2   -1    0    0    0  501 -0.00000000000E+00 -0.00000000000E+00 -0.14093503783E+04  0.14093503783E+04  0.00000000000E+00 0. -1.
    2000013    1    1    2    0    0 -0.91671820186E+03 -0.51448254664E+03 -0.39353561797E+03  0.14705219601E+04  0.95000000000E+03 0.  0.
   -2000013    1    1    2    0    0  0.91671820186E+03  0.51448254664E+03  0.57415219569E+03  0.15287953742E+04  0.95000000000E+03 0.  0.
<mgrwt>
<rscale>  0 0.29938741E+04</rscale>
<asrwt>0</asrwt>
<pdfrwt beam="1">  1        2 0.24461030E+00 0.29938741E+04</pdfrwt>
<pdfrwt beam="2">  1       -2 0.21682313E+00 0.29938741E+04</pdfrwt>
<totfact> 0.10018708E+00</totfact>
</mgrwt>
</event>
<event>
 4    1  0.2018023E-008  0.2381261E+04  0.7816531E-02  0.8446552E-01
         -2   -1    0    0    0  501 -0.00000000000E+00  0.00000000000E+00  0.99069949880E+03  0.99069949880E+03  0.00000000000E+00 0. -1.
          2   -1    0    0  501    0  0.00000000000E+00 -0.00000000000E+00 -0.14309095951E+04  0.14309095951E+04  0.00000000000E+00 0.  1.
    2000013    1    1    2    0    0  0.52572689737E+03  0.48277487555E+03 -0.29648469134E+03  0.12246891537E+04  0.95000000000E+03 0.  0.
   -2000013    1    1    2    0    0 -0.52572689737E+03 -0.48277487555E+03 -0.14372540494E+03  0.11969199401E+04  0.95000000000E+03 0.  0.
<mgrwt>
<rscale>  0 0.23812614E+04</rscale>
<asrwt>0</asrwt>
<pdfrwt beam="2">  1        2 0.22013994E+00 0.23812614E+04</pdfrwt>
<pdfrwt beam="1">  1       -2 0.15241531E+00 0.23812614E+04</pdfrwt>
<totfact> 0.35936514E+00</totfact>
</mgrwt>
</event>
<event>
 4    1  0.2018023E-008  0.2596941E+04  0.7816531E-02  0.8369241E-01
          1   -1    0    0  501    0  0.00000000000E+00  0.00000000000E+00  0.22457959558E+04  0.22457959558E+04  0.00000000000E+00 0.  1.
         -1   -1    0    0    0  501 -0.00000000000E+00 -0.00000000000E+00 -0.75074746248E+03  0.75074746248E+03  0.00000000000E+00 0. -1.
    2000013    1    1    2    0    0 -0.58859101940E+03 -0.58067671396E+03  0.38281822309E+03  0.13163109914E+04  0.95000000000E+03 0.  0.
   -2000013    1    1    2    0    0  0.58859101940E+03  0.58067671396E+03  0.11122302703E+04  0.16802324269E+04  0.95000000000E+03 0.  0.
<mgrwt>
<rscale>  0 0.25969410E+04</rscale>
<asrwt>0</asrwt>
<pdfrwt beam="1">  1        1 0.34550707E+00 0.25969410E+04</pdfrwt>
<pdfrwt beam="2">  1       -1 0.11549961E+00 0.25969410E+04</pdfrwt>
<totfact> 0.12127609E+00</totfact>
</mgrwt>
</event>
<event>
 4    1  0.2018023E-008  0.2289827E+04  0.7816531E-02  0.8481943E-01
         -2   -1    0    0    0  501 -0.00000000000E+00  0.00000000000E+00  0.43629776035E+03  0.43629776035E+03  0.00000000000E+00 0. -1.
          2   -1    0    0  501    0  0.00000000000E+00 -0.00000000000E+00 -0.30044327167E+04  0.30044327167E+04  0.00000000000E+00 0.  1.
    2000013    1    1    2    0    0  0.54916667665E+03  0.46016197265E+02 -0.79803287576E+03  0.13575927224E+04  0.95000000000E+03 0.  0.
   -2000013    1    1    2    0    0 -0.54916667665E+03 -0.46016197265E+02 -0.17701020806E+04  0.20831377547E+04  0.95000000000E+03 0.  0.
<mgrwt>
<rscale>  0 0.22898273E+04</rscale>
<asrwt>0</asrwt>
<pdfrwt beam="2">  1        2 0.46222044E+00 0.22898273E+04</pdfrwt>
<pdfrwt beam="1">  1       -2 0.67122730E-01 0.22898273E+04</pdfrwt>
<totfact> 0.32000158E+00</totfact>
</mgrwt>
</event>
<event>
 4    1  0.2018023E-008  0.2356300E+04  0.7816531E-02  0.8456048E-01
          2   -1    0    0  501    0  0.00000000000E+00  0.00000000000E+00  0.31883714439E+04  0.31883714439E+04  0.00000000000E+00 0.  1.
         -2   -1    0    0    0  501 -0.00000000000E+00 -0.00000000000E+00 -0.43534356753E+03  0.43534356753E+03  0.00000000000E+00 0. -1.
    2000013    1    1    2    0    0  0.58710826856E+03 -0.35319951750E+03  0.11814330264E+04  0.16636496067E+04  0.95000000000E+03 0.  0.
   -2000013    1    1    2    0    0 -0.58710826856E+03  0.35319951750E+03  0.15715948500E+04  0.19600654047E+04  0.95000000000E+03 0.  0.
<mgrwt>
<rscale>  0 0.23562996E+04</rscale>
<asrwt>0</asrwt>
<pdfrwt beam="1">  1        2 0.49051867E+00 0.23562996E+04</pdfrwt>
<pdfrwt beam="2">  1       -2 0.66975936E-01 0.23562996E+04</pdfrwt>
<totfact> 0.24398016E+00</totfact>
</mgrwt>
</event>
<event>
 4    1  0.2018023E-008  0.2171821E+04  0.7816531E-02  0.8530249E-01
         -2   -1    0    0    0  501 -0.00000000000E+00  0.00000000000E+00  0.58500708460E+03  0.58500708460E+03  0.00000000000E+00 0. -1.
          2   -1    0    0  501    0  0.00000000000E+00 -0.00000000000E+00 -0.20157049275E+04  0.20157049275E+04  0.00000000000E+00 0.  1.
    2000013    1    1    2    0    0 -0.16383770641E+03 -0.49346661259E+03 -0.61992869826E+03  0.12478636475E+04  0.95000000000E+03 0.  0.
   -2000013    1    1    2    0    0  0.16383770641E+03  0.49346661259E+03 -0.81076914468E+03  0.13528483647E+04  0.95000000000E+03 0.  0.
<mgrwt>
<rscale>  0 0.21718210E+04</rscale>
<asrwt>0</asrwt>
<pdfrwt beam="2">  1        2 0.31010845E+00 0.21718210E+04</pdfrwt>
<pdfrwt beam="1">  1       -2 0.90001090E-01 0.21718210E+04</pdfrwt>
<totfact> 0.63390591E+00</totfact>
</mgrwt>
</event>
<event>
 4    1  0.2018023E-008  0.2420315E+04  0.7816531E-02  0.8431937E-01
          2   -1    0    0  501    0  0.00000000000E+00  0.00000000000E+00  0.33431087176E+04  0.33431087176E+04  0.00000000000E+00 0.  1.
         -2   -1    0    0    0  501 -0.00000000000E+00 -0.00000000000E+00 -0.43805953410E+03  0.43805953410E+03  0.00000000000E+00 0. -1.
    2000013    1    1    2    0    0  0.51954153324E+03 -0.36298442051E+03  0.82703463011E+03  0.14100238912E+04  0.95000000000E+03 0.  0.
   -2000013    1    1    2    0    0 -0.51954153324E+03  0.36298442051E+03  0.20780145534E+04  0.23711443605E+04  0.95000000000E+03 0.  0.
<mgrwt>
<rscale>  0 0.24203146E+04</rscale>
<asrwt>0</asrwt>
<pdfrwt beam="1">  1        2 0.51432440E+00 0.24203146E+04</pdfrwt>
<pdfrwt beam="2">  1       -2 0.67393777E-01 0.24203146E+04</pdfrwt>
<totfact> 0.18912351E+00</totfact>
</mgrwt>
</event>
<event>
 4    1  0.2018023E-008  0.3154921E+04  0.7816531E-02  0.8200825E-01
         -2   -1    0    0    0  501 -0.00000000000E+00  0.00000000000E+00  0.16620835925E+04  0.16620835925E+04  0.00000000000E+00 0. -1.
          2   -1    0    0  501    0  0.00000000000E+00 -0.00000000000E+00 -0.14971459455E+04  0.14971459455E+04  0.00000000000E+00 0.  1.
    2000013    1    1    2    0    0  0.47749163883E+03  0.85127289987E+03 -0.71436777979E+03  0.15380133745E+04  0.95000000000E+03 0.  0.
   -2000013    1    1    2    0    0 -0.47749163883E+03 -0.85127289987E+03  0.87930542685E+03  0.16212161635E+04  0.95000000000E+03 0.  0.
<mgrwt>
<rscale>  0 0.31549211E+04</rscale>
<asrwt>0</asrwt>
<pdfrwt beam="2">  1        2 0.23033015E+00 0.31549211E+04</pdfrwt>
<pdfrwt beam="1">  1       -2 0.25570517E+00 0.31549211E+04</pdfrwt>
<totfact> 0.63835535E-01</totfact>
</mgrwt>
</event>
<event>
 4    1  0.2018023E-008  0.2612209E+04  0.7816531E-02  0.8364066E-01
          2   -1    0    0  501    0  0.00000000000E+00  0.00000000000E+00  0.20776115561E+04  0.20776115561E+04  0.00000000000E+00 0.  1.
         -2   -1    0    0    0  501 -0.00000000000E+00 -0.00000000000E+00 -0.82109170447E+03  0.82109170447E+03  0.00000000000E+00 0. -1.
    2000013    1    1    2    0    0  0.65106722028E+03  0.38328510400E+03  0.11634564974E+04  0.16813467868E+04  0.95000000000E+03 0.  0.
   -2000013    1    1    2    0    0 -0.65106722028E+03 -0.38328510400E+03  0.93063354270E+02  0.12173564737E+04  0.95000000000E+03 0.  0.
<mgrwt>
<rscale>  0 0.26122095E+04</rscale>
<asrwt>0</asrwt>
<pdfrwt beam="1">  1        2 0.31963255E+00 0.26122095E+04</pdfrwt>
<pdfrwt beam="2">  1       -2 0.12632180E+00 0.26122095E+04</pdfrwt>
<totfact> 0.24954510E+00</totfact>
</mgrwt>
</event>
<event>
 4    1  0.2018023E-008  0.2318676E+04  0.7816531E-02  0.8470594E-01
          2   -1    0    0  501    0  0.00000000000E+00  0.00000000000E+00  0.26792538784E+04  0.26792538784E+04  0.00000000000E+00 0.  1.
         -2   -1    0    0    0  501 -0.00000000000E+00 -0.00000000000E+00 -0.50165641097E+03  0.50165641097E+03  0.00000000000E+00 0. -1.
    2000013    1    1    2    0    0 -0.65641953155E+03  0.10232435061E+03  0.11085845524E+04  0.16040001820E+04  0.95000000000E+03 0.  0.
   -2000013    1    1    2    0    0  0.65641953155E+03 -0.10232435061E+03  0.10690129150E+04  0.15769101073E+04  0.95000000000E+03 0.  0.
<mgrwt>
<rscale>  0 0.23186762E+04</rscale>
<asrwt>0</asrwt>
<pdfrwt beam="1">  1        2 0.41219290E+00 0.23186762E+04</pdfrwt>
<pdfrwt beam="2">  1       -2 0.77177911E-01 0.23186762E+04</pdfrwt>
<totfact> 0.37058755E+00</totfact>
</mgrwt>
</event>
<event>
 4    1  0.2018023E-008  0.2736462E+04  0.7816531E-02  0.8323270E-01
         -2   -1    0    0    0  501 -0.00000000000E+00  0.00000000000E+00  0.82087466494E+03  0.82087466494E+03  0.00000000000E+00 0. -1.
          2   -1    0    0  501    0  0.00000000000E+00 -0.00000000000E+00 -0.22805624061E+04  0.22805624061E+04  0.00000000000E+00 0.  1.
    2000013    1    1    2    0    0  0.22464193264E+03  0.79865964816E+03 -0.13308902707E+04  0.18336003229E+04  0.95000000000E+03 0.  0.
   -2000013    1    1    2    0    0 -0.22464193264E+03 -0.79865964816E+03 -0.12879747044E+03  0.12678367481E+04  0.95000000000E+03 0.  0.
<mgrwt>
<rscale>  0 0.27364619E+04</rscale>
<asrwt>0</asrwt>
<pdfrwt beam="2">  1        2 0.35085575E+00 0.27364619E+04</pdfrwt>
<pdfrwt beam="1">  1       -2 0.12628841E+00 0.27364619E+04</pdfrwt>
<totfact> 0.19003934E+00</totfact>
</mgrwt>
</event>
<event>
 4    1  0.2018023E-008  0.3964083E+04  0.7816531E-02  0.8011832E-01
          2   -1    0    0  501    0  0.00000000000E+00  0.00000000000E+00  0.16991302824E+04  0.16991302824E+04  0.00000000000E+00 0.  1.
         -2   -1    0    0    0  501 -0.00000000000E+00 -0.00000000000E+00 -0.23120581905E+04  0.23120581905E+04  0.00000000000E+00 0. -1.
    2000013    1    1    2    0    0 -0.16717438429E+04  0.42518892538E+03 -0.53380008474E+03  0.20403322349E+04  0.95000000000E+03 0.  0.
   -2000013    1    1    2    0    0  0.16717438429E+04 -0.42518892538E+03 -0.79127823325E+02  0.19708562380E+04  0.95000000000E+03 0.  0.
<mgrwt>
<rscale>  0 0.39640828E+04</rscale>
<asrwt>0</asrwt>
<pdfrwt beam="1">  1        2 0.26140466E+00 0.39640828E+04</pdfrwt>
<pdfrwt beam="2">  1       -2 0.35570126E+00 0.39640828E+04</pdfrwt>
<totfact> 0.11119249E-01</totfact>
</mgrwt>
</event>
<event>
 4    1  0.2018023E-008  0.3523009E+04  0.7816531E-02  0.8108359E-01
          2   -1    0    0  501    0  0.00000000000E+00  0.00000000000E+00  0.16974976354E+04  0.16974976354E+04  0.00000000000E+00 0.  1.
         -2   -1    0    0    0  501 -0.00000000000E+00 -0.00000000000E+00 -0.18279249404E+04  0.18279249404E+04  0.00000000000E+00 0. -1.
    2000013    1    1    2    0    0 -0.10223426755E+04 -0.98582369805E+03  0.36329150986E+03  0.17468582172E+04  0.95000000000E+03 0.  0.
   -2000013    1    1    2    0    0  0.10223426755E+04  0.98582369805E+03 -0.49371881481E+03  0.17785643587E+04  0.95000000000E+03 0.  0.
<mgrwt>
<rscale>  0 0.35230091E+04</rscale>
<asrwt>0</asrwt>
<pdfrwt beam="1">  1        2 0.26115348E+00 0.35230091E+04</pdfrwt>
<pdfrwt beam="2">  1       -2 0.28121922E+00 0.35230091E+04</pdfrwt>
<totfact> 0.33403910E-01</totfact>
</mgrwt>
</event>
<event>
 4    1  0.2018023E-008  0.3862160E+04  0.7816531E-02  0.8032945E-01
          2   -1    0    0  501    0  0.00000000000E+00  0.00000000000E+00  0.25068725719E+04  0.25068725719E+04  0.00000000000E+00 0.  1.
         -2   -1    0    0    0  501 -0.00000000000E+00 -0.00000000000E+00 -0.14875389331E+04  0.14875389331E+04  0.00000000000E+00 0. -1.
    2000013    1    1    2    0    0  0.26127844450E+03 -0.16459818102E+04  0.73871834384E+03  0.20556573976E+04  0.95000000000E+03 0.  0.
   -2000013    1    1    2    0    0 -0.26127844450E+03  0.16459818102E+04  0.28061529495E+03  0.19387541073E+04  0.95000000000E+03 0.  0.
<mgrwt>
<rscale>  0 0.38621603E+04</rscale>
<asrwt>0</asrwt>
<pdfrwt beam="1">  1        2 0.38567270E+00 0.38621603E+04</pdfrwt>
<pdfrwt beam="2">  1       -2 0.22885214E+00 0.38621603E+04</pdfrwt>
<totfact> 0.23918729E-01</totfact>
</mgrwt>
</event>
<event>
 4    1  0.2018023E-008  0.2366062E+04  0.7816531E-02  0.8452320E-01
         -2   -1    0    0    0  501 -0.00000000000E+00  0.00000000000E+00  0.11604904082E+04  0.11604904082E+04  0.00000000000E+00 0. -1.
          2   -1    0    0  501    0  0.00000000000E+00 -0.00000000000E+00 -0.12060097743E+04  0.12060097743E+04  0.00000000000E+00 0.  1.
    2000013    1    1    2    0    0  0.19334204887E+03  0.58538080657E+03  0.31937223096E+03  0.11766692222E+04  0.95000000000E+03 0.  0.
   -2000013    1    1    2    0    0 -0.19334204887E+03 -0.58538080657E+03 -0.36489159697E+03  0.11898309603E+04  0.95000000000E+03 0.  0.
<mgrwt>
<rscale>  0 0.23660624E+04</rscale>
<asrwt>0</asrwt>
<pdfrwt beam="2">  1        2 0.18553997E+00 0.23660624E+04</pdfrwt>
<pdfrwt beam="1">  1       -2 0.17853698E+00 0.23660624E+04</pdfrwt>
<totfact> 0.31440647E+00</totfact>
</mgrwt>
</event>
<event>
 4    1  0.2018023E-008  0.2029699E+04  0.7816531E-02  0.8592860E-01
          2   -1    0    0  501    0  0.00000000000E+00  0.00000000000E+00  0.21508912991E+04  0.21508912991E+04  0.00000000000E+00 0.  1.
         -2   -1    0    0    0  501 -0.00000000000E+00 -0.00000000000E+00 -0.47883369466E+03  0.47883369466E+03  0.00000000000E+00 0. -1.
    2000013    1    1    2    0    0 -0.87555177068E+02 -0.32559927204E+03  0.68416741999E+03  0.12183044995E+04  0.95000000000E+03 0.  0.
   -2000013    1    1    2    0    0  0.87555177068E+02  0.32559927204E+03  0.98789018444E+03  0.14114204942E+04  0.95000000000E+03 0.  0.
<mgrwt>
<rscale>  0 0.20296987E+04</rscale>
<asrwt>0</asrwt>
<pdfrwt beam="1">  1        2 0.33090635E+00 0.20296987E+04</pdfrwt>
<pdfrwt beam="2">  1       -2 0.73666723E-01 0.20296987E+04</pdfrwt>
<totfact> 0.84734715E+00</totfact>
</mgrwt>
</event>
<event>
 4    1  0.2018023E-008  0.2511788E+04  0.7816531E-02  0.8398798E-01
          2   -1    0    0  501    0  0.00000000000E+00  0.00000000000E+00  0.24388701700E+04  0.24388701700E+04  0.00000000000E+00 0.  1.
         -2   -1    0    0    0  501 -0.00000000000E+00 -0.00000000000E+00 -0.64672124116E+03  0.64672124116E+03  0.00000000000E+00 0. -1.
    2000013    1    1    2    0    0  0.25841921695E+03  0.77434749564E+03  0.78365597316E+03  0.14775016819E+04  0.95000000000E+03 0.  0.
   -2000013    1    1    2    0    0 -0.25841921695E+03 -0.77434749564E+03  0.10084929556E+04  0.16080897292E+04  0.95000000000E+03 0.  0.
<mgrwt>
<rscale>  0 0.25117875E+04</rscale>
<asrwt>0</asrwt>
<pdfrwt beam="1">  1        2 0.37521079E+00 0.25117875E+04</pdfrwt>
<pdfrwt beam="2">  1       -2 0.99495577E-01 0.25117875E+04</pdfrwt>
<totfact> 0.28122092E+00</totfact>
</mgrwt>
</event>
<event>
 4    1  0.2018023E-008  0.2762085E+04  0.7816531E-02  0.8315137E-01
         -2   -1    0    0    0  501 -0.00000000000E+00  0.00000000000E+00  0.62925330746E+03  0.62925330746E+03  0.00000000000E+00 0. -1.
          2   -1    0    0  501    0  0.00000000000E+00 -0.00000000000E+00 -0.30310189768E+04  0.30310189768E+04  0.00000000000E+00 0.  1.
    2000013    1    1    2    0    0 -0.45290975090E+03 -0.89263171459E+03 -0.12717535155E+04  0.18766394498E+04  0.95000000000E+03 0.  0.
   -2000013    1    1    2    0    0  0.45290975090E+03  0.89263171459E+03 -0.11300121538E+04  0.17836328344E+04  0.95000000000E+03 0.  0.
<mgrwt>
<rscale>  0 0.27620852E+04</rscale>
<asrwt>0</asrwt>
<pdfrwt beam="2">  1        2 0.46631063E+00 0.27620852E+04</pdfrwt>
<pdfrwt beam="1">  1       -2 0.96808198E-01 0.27620852E+04</pdfrwt>
<totfact> 0.12951758E+00</totfact>
</mgrwt>
</event>
<event>
 4    1  0.2018023E-008  0.2808568E+04  0.7816531E-02  0.8300613E-01
          2   -1    0    0  501    0  0.00000000000E+00  0.00000000000E+00  0.29726081092E+04  0.29726081092E+04  0.00000000000E+00 0.  1.
         -2   -1    0    0    0  501 -0.00000000000E+00 -0.00000000000E+00 -0.66339493376E+03  0.66339493376E+03  0.00000000000E+00 0. -1.
    2000013    1    1    2    0    0 -0.99451314213E+03  0.71806687556E+02  0.79935300356E+03  0.15923811775E+04  0.95000000000E+03 0.  0.
   -2000013    1    1    2    0    0  0.99451314213E+03 -0.71806687556E+02  0.15098601719E+04  0.20436218654E+04  0.95000000000E+03 0.  0.
<mgrwt>
<rscale>  0 0.28085677E+04</rscale>
<asrwt>0</asrwt>
<pdfrwt beam="1">  1        2 0.45732432E+00 0.28085677E+04</pdfrwt>
<pdfrwt beam="2">  1       -2 0.10206076E+00 0.28085677E+04</pdfrwt>
<totfact> 0.12386944E+00</totfact>
</mgrwt>
</event>
<event>
 4    1  0.2018023E-008  0.2808169E+04  0.7816531E-02  0.8300737E-01
          1   -1    0    0  501    0  0.00000000000E+00  0.00000000000E+00  0.15512638298E+04  0.15512638298E+04  0.00000000000E+00 0. -1.
         -1   -1    0    0    0  501 -0.00000000000E+00 -0.00000000000E+00 -0.12708690391E+04  0.12708690391E+04  0.00000000000E+00 0.  1.
    2000013    1    1    2    0    0 -0.78542808153E+01  0.10236589327E+04 -0.54850674504E+01  0.13965920615E+04  0.95000000000E+03 0.  0.
   -2000013    1    1    2    0    0  0.78542808153E+01 -0.10236589327E+04  0.28587985820E+03  0.14255408074E+04  0.95000000000E+03 0.  0.
<mgrwt>
<rscale>  0 0.28081689E+04</rscale>
<asrwt>0</asrwt>
<pdfrwt beam="1">  1        1 0.23865597E+00 0.28081689E+04</pdfrwt>
<pdfrwt beam="2">  1       -1 0.19551831E+00 0.28081689E+04</pdfrwt>
<totfact> 0.84320841E-01</totfact>
</mgrwt>
</event>
<event>
 4    1  0.2018023E-008  0.2625523E+04  0.7816531E-02  0.8359583E-01
          2   -1    0    0  501    0  0.00000000000E+00  0.00000000000E+00  0.15351689006E+04  0.15351689006E+04  0.00000000000E+00 0.  1.
         -2   -1    0    0    0  501 -0.00000000000E+00 -0.00000000000E+00 -0.11225756171E+04  0.11225756171E+04  0.00000000000E+00 0. -1.
    2000013    1    1    2    0    0 -0.85757317428E+03 -0.25756513888E+03  0.66501779194E+02  0.13071702401E+04  0.95000000000E+03 0.  0.
   -2000013    1    1    2    0    0  0.85757317428E+03  0.25756513888E+03  0.34609150425E+03  0.13505742776E+04  0.95000000000E+03 0.  0.
<mgrwt>
<rscale>  0 0.26255233E+04</rscale>
<asrwt>0</asrwt>
<pdfrwt beam="1">  1        2 0.23617983E+00 0.26255233E+04</pdfrwt>
<pdfrwt beam="2">  1       -2 0.17270394E+00 0.26255233E+04</pdfrwt>
<totfact> 0.21833331E+00</totfact>
</mgrwt>
</event>
<event>
 4    1  0.2018023E-008  0.2414786E+04  0.7816531E-02  0.8433988E-01
          2   -1    0    0  501    0  0.00000000000E+00  0.00000000000E+00  0.90048752822E+03  0.90048752822E+03  0.00000000000E+00 0.  1.
         -2   -1    0    0    0  501 -0.00000000000E+00 -0.00000000000E+00 -0.16188988195E+04  0.16188988195E+04  0.00000000000E+00 0. -1.
    2000013    1    1    2    0    0 -0.43937555767E+03 -0.13649193336E+03  0.25237475890E+03  0.10852990129E+04  0.95000000000E+03 0.  0.
   -2000013    1    1    2    0    0  0.43937555767E+03  0.13649193336E+03 -0.97078605015E+03  0.14340873348E+04  0.95000000000E+03 0.  0.
<mgrwt>
<rscale>  0 0.24147863E+04</rscale>
<asrwt>0</asrwt>
<pdfrwt beam="1">  1        2 0.13853654E+00 0.24147863E+04</pdfrwt>
<pdfrwt beam="2">  1       -2 0.24906136E+00 0.24147863E+04</pdfrwt>
<totfact> 0.17134339E+00</totfact>
</mgrwt>
</event>
<event>
 4    1  0.2018023E-008  0.2147396E+04  0.7816531E-02  0.8540648E-01
          2   -1    0    0  501    0  0.00000000000E+00  0.00000000000E+00  0.98690421710E+03  0.98690421710E+03  0.00000000000E+00 0.  1.
         -2   -1    0    0    0  501 -0.00000000000E+00 -0.00000000000E+00 -0.11681245558E+04  0.11681245558E+04  0.00000000000E+00 0. -1.
    2000013    1    1    2    0    0 -0.25778371386E+03  0.13354983199E+03  0.31831714236E+03  0.10431269356E+04  0.95000000000E+03 0.  0.
   -2000013    1    1    2    0    0  0.25778371386E+03 -0.13354983199E+03 -0.49953748110E+03  0.11119018373E+04  0.95000000000E+03 0.  0.
<mgrwt>
<rscale>  0 0.21473957E+04</rscale>
<asrwt>0</asrwt>
<pdfrwt beam="1">  1        2 0.15183142E+00 0.21473957E+04</pdfrwt>
<pdfrwt beam="2">  1       -2 0.17971147E+00 0.21473957E+04</pdfrwt>
<totfact> 0.42939391E+00</totfact>
</mgrwt>
</event>
<event>
 4    1  0.2018023E-008  0.2113747E+04  0.7816531E-02  0.8555212E-01
          2   -1    0    0  501    0  0.00000000000E+00  0.00000000000E+00  0.59068559160E+03  0.59068559160E+03  0.00000000000E+00 0.  1.
         -2   -1    0    0    0  501 -0.00000000000E+00 -0.00000000000E+00 -0.18909924767E+04  0.18909924767E+04  0.00000000000E+00 0. -1.
    2000013    1    1    2    0    0  0.30996797200E+03  0.31165198351E+03 -0.82140171379E+03  0.13305667506E+04  0.95000000000E+03 0.  0.
   -2000013    1    1    2    0    0 -0.30996797200E+03 -0.31165198351E+03 -0.47890517128E+03  0.11511113176E+04  0.95000000000E+03 0.  0.
<mgrwt>
<rscale>  0 0.21137474E+04</rscale>
<asrwt>0</asrwt>
<pdfrwt beam="1">  1        2 0.90874705E-01 0.21137474E+04</pdfrwt>
<pdfrwt beam="2">  1       -2 0.29092193E+00 0.21137474E+04</pdfrwt>
<totfact> 0.16813662E+00</totfact>
</mgrwt>
</event>
<event>
 4    1  0.2018023E-008  0.2449348E+04  0.7816531E-02  0.8421256E-01
         -2   -1    0    0    0  501 -0.00000000000E+00  0.00000000000E+00  0.11902516091E+04  0.11902516091E+04  0.00000000000E+00 0. -1.
          2   -1    0    0  501    0  0.00000000000E+00 -0.00000000000E+00 -0.12600920703E+04  0.12600920703E+04  0.00000000000E+00 0.  1.
    2000013    1    1    2    0    0 -0.70274759091E+03 -0.18437276718E+03  0.22877582540E+03  0.12176558923E+04  0.95000000000E+03 0.  0.
   -2000013    1    1    2    0    0  0.70274759091E+03  0.18437276718E+03 -0.29861628657E+03  0.12326877871E+04  0.95000000000E+03 0.  0.
<mgrwt>
<rscale>  0 0.24493482E+04</rscale>
<asrwt>0</asrwt>
<pdfrwt beam="2">  1        2 0.19386032E+00 0.24493482E+04</pdfrwt>
<pdfrwt beam="1">  1       -2 0.18311563E+00 0.24493482E+04</pdfrwt>
<totfact> 0.26969193E+00</totfact>
</mgrwt>
</event>
<event>
 4    1  0.2018023E-008  0.2944777E+04  0.7816531E-02  0.8259678E-01
          2   -1    0    0  501    0  0.00000000000E+00  0.00000000000E+00  0.20079488539E+04  0.20079488539E+04  0.00000000000E+00 0.  1.
         -2   -1    0    0    0  501 -0.00000000000E+00 -0.00000000000E+00 -0.10796731339E+04  0.10796731339E+04  0.00000000000E+00 0. -1.
    2000013    1    1    2    0    0  0.75542176998E+03 -0.75615389719E+03  0.83186026523E+03  0.16543646115E+04  0.95000000000E+03 0.  0.
   -2000013    1    1    2    0    0 -0.75542176998E+03  0.75615389719E+03  0.96415454825E+02  0.14332573763E+04  0.95000000000E+03 0.  0.
<mgrwt>
<rscale>  0 0.29447774E+04</rscale>
<asrwt>0</asrwt>
<pdfrwt beam="1">  1        2 0.30891521E+00 0.29447774E+04</pdfrwt>
<pdfrwt beam="2">  1       -2 0.16610356E+00 0.29447774E+04</pdfrwt>
<totfact> 0.12927347E+00</totfact>
</mgrwt>
</event>
<event>
 4    1  0.2018023E-008  0.3471091E+04  0.7816531E-02  0.8120675E-01
         -1   -1    0    0    0  501 -0.00000000000E+00  0.00000000000E+00  0.13992374572E+04  0.13992374572E+04  0.00000000000E+00 0. -1.
          1   -1    0    0  501    0  0.00000000000E+00 -0.00000000000E+00 -0.21526850510E+04  0.21526850510E+04  0.00000000000E+00 0.  1.
    2000013    1    1    2    0    0 -0.18559843049E+03  0.14033661120E+04 -0.43983386884E+02  0.17053790664E+04  0.95000000000E+03 0.  0.
   -2000013    1    1    2    0    0  0.18559843049E+03 -0.14033661120E+04 -0.70946420698E+03  0.18465434418E+04  0.95000000000E+03 0.  0.
<mgrwt>
<rscale>  0 0.34710906E+04</rscale>
<asrwt>0</asrwt>
<pdfrwt beam="2">  1        1 0.33118231E+00 0.34710906E+04</pdfrwt>
<pdfrwt beam="1">  1       -1 0.21526730E+00 0.34710906E+04</pdfrwt>
<totfact> 0.22726069E-01</totfact>
</mgrwt>
</event>
<event>
 4    1  0.2018023E-008  0.2468405E+04  0.7816531E-02  0.8414329E-01
         -1   -1    0    0    0  501 -0.00000000000E+00  0.00000000000E+00  0.13132123766E+04  0.13132123766E+04  0.00000000000E+00 0.  1.
          1   -1    0    0  501    0  0.00000000000E+00 -0.00000000000E+00 -0.11599458611E+04  0.11599458611E+04  0.00000000000E+00 0. -1.
    2000013    1    1    2    0    0 -0.66168344736E+03  0.39460099725E+03  0.24193683599E+03  0.12468233091E+04  0.95000000000E+03 0.  0.
   -2000013    1    1    2    0    0  0.66168344736E+03 -0.39460099725E+03 -0.88670320493E+02  0.12263349287E+04  0.95000000000E+03 0.  0.
<mgrwt>
<rscale>  0 0.24684046E+04</rscale>
<asrwt>0</asrwt>
<pdfrwt beam="2">  1        1 0.17845321E+00 0.24684046E+04</pdfrwt>
<pdfrwt beam="1">  1       -1 0.20203267E+00 0.24684046E+04</pdfrwt>
<totfact> 0.14846882E+00</totfact>
</mgrwt>
</event>
<event>
 4    1  0.2018023E-008  0.2401579E+04  0.7816531E-02  0.8438912E-01
         -1   -1    0    0    0  501 -0.00000000000E+00  0.00000000000E+00  0.69247854954E+03  0.69247854954E+03  0.00000000000E+00 0. -1.
          1   -1    0    0  501    0  0.00000000000E+00 -0.00000000000E+00 -0.20822247483E+04  0.20822247483E+04  0.00000000000E+00 0.  1.
    2000013    1    1    2    0    0  0.58170274204E+03  0.29925218365E+03 -0.10806096967E+04  0.15805528356E+04  0.95000000000E+03 0.  0.
   -2000013    1    1    2    0    0 -0.58170274204E+03 -0.29925218365E+03 -0.30913650202E+03  0.11941504622E+04  0.95000000000E+03 0.  0.
<mgrwt>
<rscale>  0 0.24015795E+04</rscale>
<asrwt>0</asrwt>
<pdfrwt beam="2">  1        1 0.32034227E+00 0.24015795E+04</pdfrwt>
<pdfrwt beam="1">  1       -1 0.10653516E+00 0.24015795E+04</pdfrwt>
<totfact> 0.19317350E+00</totfact>
</mgrwt>
</event>
<event>
 4    1  0.2018023E-008  0.2262163E+04  0.7816531E-02  0.8492991E-01
         -2   -1    0    0    0  501 -0.00000000000E+00  0.00000000000E+00  0.15353781329E+04  0.15353781329E+04  0.00000000000E+00 0. -1.
          2   -1    0    0  501    0  0.00000000000E+00 -0.00000000000E+00 -0.83324433891E+03  0.83324433891E+03  0.00000000000E+00 0.  1.
    2000013    1    1    2    0    0  0.48440507792E+03 -0.37606083704E+03  0.38021780964E+03  0.11929524783E+04  0.95000000000E+03 0.  0.
   -2000013    1    1    2    0    0 -0.48440507792E+03  0.37606083704E+03  0.32191598433E+03  0.11756699935E+04  0.95000000000E+03 0.  0.
<mgrwt>
<rscale>  0 0.22621628E+04</rscale>
<asrwt>0</asrwt>
<pdfrwt beam="2">  1        2 0.12819144E+00 0.22621628E+04</pdfrwt>
<pdfrwt beam="1">  1       -2 0.23621202E+00 0.22621628E+04</pdfrwt>
<totfact> 0.23184489E+00</totfact>
</mgrwt>
</event>
<event>
 4    1  0.2018023E-008  0.2505306E+04  0.7816531E-02  0.8401098E-01
          2   -1    0    0  501    0  0.00000000000E+00  0.00000000000E+00  0.26301765402E+04  0.26301765402E+04  0.00000000000E+00 0.  1.
         -2   -1    0    0    0  501 -0.00000000000E+00 -0.00000000000E+00 -0.59659079646E+03  0.59659079646E+03  0.00000000000E+00 0. -1.
    2000013    1    1    2    0    0  0.49326061850E+03 -0.28932007431E+02  0.17961403346E+03  0.10857735951E+04  0.95000000000E+03 0.  0.
   -2000013    1    1    2    0    0 -0.49326061850E+03  0.28932007431E+02  0.18539717103E+04  0.21409937416E+04  0.95000000000E+03 0.  0.
<mgrwt>
<rscale>  0 0.25053057E+04</rscale>
<asrwt>0</asrwt>
<pdfrwt beam="1">  1        2 0.40464254E+00 0.25053057E+04</pdfrwt>
<pdfrwt beam="2">  1       -2 0.91783201E-01 0.25053057E+04</pdfrwt>
<totfact> 0.26295840E+00</totfact>
</mgrwt>
</event>
<event>
 4    1  0.2018023E-008  0.3623337E+04  0.7816531E-02  0.8085167E-01
         -2   -1    0    0    0  501 -0.00000000000E+00  0.00000000000E+00  0.21280472727E+04  0.21280472727E+04  0.00000000000E+00 0. -1.
          2   -1    0    0  501    0  0.00000000000E+00 -0.00000000000E+00 -0.15423262670E+04  0.15423262670E+04  0.00000000000E+00 0.  1.
    2000013    1    1    2    0    0 -0.21852217641E+03  0.13804397780E+04  0.95423523937E+03  0.19407294542E+04  0.95000000000E+03 0.  0.
   -2000013    1    1    2    0    0  0.21852217641E+03 -0.13804397780E+04 -0.36851423363E+03  0.17296440855E+04  0.95000000000E+03 0.  0.
<mgrwt>
<rscale>  0 0.36233372E+04</rscale>
<asrwt>0</asrwt>
<pdfrwt beam="2">  1        2 0.23728096E+00 0.36233372E+04</pdfrwt>
<pdfrwt beam="1">  1       -2 0.32739189E+00 0.36233372E+04</pdfrwt>
<totfact> 0.21055771E-01</totfact>
</mgrwt>
</event>
<event>
 4    1  0.2018023E-008  0.3490983E+04  0.7816531E-02  0.8115930E-01
         -2   -1    0    0    0  501 -0.00000000000E+00  0.00000000000E+00  0.10619666167E+04  0.10619666167E+04  0.00000000000E+00 0. -1.
          2   -1    0    0  501    0  0.00000000000E+00 -0.00000000000E+00 -0.28689604767E+04  0.28689604767E+04  0.00000000000E+00 0.  1.
    2000013    1    1    2    0    0  0.29750547256E+03  0.12155914935E+04 -0.17596211184E+04  0.23590122224E+04  0.95000000000E+03 0.  0.
   -2000013    1    1    2    0    0 -0.29750547256E+03 -0.12155914935E+04 -0.47372741634E+02  0.15719148711E+04  0.95000000000E+03 0.  0.
<mgrwt>
<rscale>  0 0.34909828E+04</rscale>
<asrwt>0</asrwt>
<pdfrwt beam="2">  1        2 0.44137853E+00 0.34909828E+04</pdfrwt>
<pdfrwt beam="1">  1       -2 0.16337948E+00 0.34909828E+04</pdfrwt>
<totfact> 0.41044244E-01</totfact>
</mgrwt>
</event>
<event>
 4    1  0.2018023E-008  0.2402963E+04  0.7816531E-02  0.8438395E-01
          4   -1    0    0  501    0  0.00000000000E+00  0.00000000000E+00  0.62476721483E+03  0.62476721483E+03  0.00000000000E+00 0.  1.
         -4   -1    0    0    0  501 -0.00000000000E+00 -0.00000000000E+00 -0.23105524800E+04  0.23105524800E+04  0.00000000000E+00 0. -1.
    2000013    1    1    2    0    0 -0.21898901700E+03 -0.68840462358E+03 -0.67362939711E+03  0.13704501742E+04  0.95000000000E+03 0.  0.
   -2000013    1    1    2    0    0  0.21898901700E+03  0.68840462358E+03 -0.10121558681E+04  0.15648695206E+04  0.95000000000E+03 0.  0.
<mgrwt>
<rscale>  0 0.24029627E+04</rscale>
<asrwt>0</asrwt>
<pdfrwt beam="1">  1        4 0.96118032E-01 0.24029627E+04</pdfrwt>
<pdfrwt beam="2">  1       -4 0.35546961E+00 0.24029627E+04</pdfrwt>
<totfact> 0.22243447E-02</totfact>
</mgrwt>
</event>
<event>
 4    1  0.2018023E-008  0.2825767E+04  0.7816531E-02  0.8295313E-01
         -1   -1    0    0    0  501 -0.00000000000E+00  0.00000000000E+00  0.18333997288E+04  0.18333997288E+04  0.00000000000E+00 0. -1.
          1   -1    0    0  501    0  0.00000000000E+00 -0.00000000000E+00 -0.10888189999E+04  0.10888189999E+04  0.00000000000E+00 0.  1.
    2000013    1    1    2    0    0  0.80626349356E+03 -0.34540958405E+03  0.96126674829E+03  0.16111804254E+04  0.95000000000E+03 0.  0.
   -2000013    1    1    2    0    0 -0.80626349356E+03  0.34540958405E+03 -0.21668601940E+03  0.13110383033E+04  0.95000000000E+03 0.  0.
<mgrwt>
<rscale>  0 0.28257675E+04</rscale>
<asrwt>0</asrwt>
<pdfrwt beam="2">  1        1 0.16751062E+00 0.28257675E+04</pdfrwt>
<pdfrwt beam="1">  1       -1 0.28206150E+00 0.28257675E+04</pdfrwt>
<totfact> 0.48194718E-01</totfact>
</mgrwt>
</event>
<event>
 4    1  0.2018023E-008  0.2910855E+04  0.7816531E-02  0.8269655E-01
         -1   -1    0    0    0  501 -0.00000000000E+00  0.00000000000E+00  0.10259467273E+04  0.10259467273E+04  0.00000000000E+00 0. -1.
          1   -1    0    0  501    0  0.00000000000E+00 -0.00000000000E+00 -0.20646974362E+04  0.20646974362E+04  0.00000000000E+00 0.  1.
    2000013    1    1    2    0    0  0.27163487008E+03  0.28519577811E+03 -0.16128631007E+04  0.19128380789E+04  0.95000000000E+03 0.  0.
   -2000013    1    1    2    0    0 -0.27163487008E+03 -0.28519577811E+03  0.57411239180E+03  0.11778060846E+04  0.95000000000E+03 0.  0.
<mgrwt>
<rscale>  0 0.29108553E+04</rscale>
<asrwt>0</asrwt>
<pdfrwt beam="2">  1        1 0.31764576E+00 0.29108553E+04</pdfrwt>
<pdfrwt beam="1">  1       -1 0.15783796E+00 0.29108553E+04</pdfrwt>
<totfact> 0.70096405E-01</totfact>
</mgrwt>
</event>
<event>
 4    1  0.2018023E-008  0.3019802E+04  0.7816531E-02  0.8238099E-01
          1   -1    0    0  501    0  0.00000000000E+00  0.00000000000E+00  0.26483608927E+04  0.26483608927E+04  0.00000000000E+00 0.  1.
         -1   -1    0    0    0  501 -0.00000000000E+00 -0.00000000000E+00 -0.86083470747E+03  0.86083470747E+03  0.00000000000E+00 0. -1.
    2000013    1    1    2    0    0 -0.84500838147E+03  0.66198881461E+03  0.14450172150E+04  0.20353975305E+04  0.95000000000E+03 0.  0.
   -2000013    1    1    2    0    0  0.84500838147E+03 -0.66198881461E+03  0.34250897017E+03  0.14737980696E+04  0.95000000000E+03 0.  0.
<mgrwt>
<rscale>  0 0.30198020E+04</rscale>
<asrwt>0</asrwt>
<pdfrwt beam="1">  1        1 0.40744013E+00 0.30198020E+04</pdfrwt>
<pdfrwt beam="2">  1       -1 0.13243611E+00 0.30198020E+04</pdfrwt>
<totfact> 0.43841784E-01</totfact>
</mgrwt>
</event>
<event>
 4    1  0.2018023E-008  0.2067835E+04  0.7816531E-02  0.8575546E-01
         -1   -1    0    0    0  501 -0.00000000000E+00  0.00000000000E+00  0.94608026745E+03  0.94608026745E+03  0.00000000000E+00 0. -1.
          1   -1    0    0  501    0  0.00000000000E+00 -0.00000000000E+00 -0.11299094362E+04  0.11299094362E+04  0.00000000000E+00 0.  1.
    2000013    1    1    2    0    0 -0.11258098400E+03 -0.38597957733E+03 -0.16168910649E+03  0.10441733952E+04  0.95000000000E+03 0.  0.
   -2000013    1    1    2    0    0  0.11258098400E+03  0.38597957733E+03 -0.22140062287E+02  0.10318163085E+04  0.95000000000E+03 0.  0.
<mgrwt>
<rscale>  0 0.20678346E+04</rscale>
<asrwt>0</asrwt>
<pdfrwt beam="2">  1        1 0.17383222E+00 0.20678346E+04</pdfrwt>
<pdfrwt beam="1">  1       -1 0.14555081E+00 0.20678346E+04</pdfrwt>
<totfact> 0.42003355E+00</totfact>
</mgrwt>
</event>
<event>
 4    1  0.2018023E-008  0.2611340E+04  0.7816531E-02  0.8364359E-01
          2   -1    0    0  501    0  0.00000000000E+00  0.00000000000E+00  0.35035593660E+04  0.35035593660E+04  0.00000000000E+00 0.  1.
         -2   -1    0    0    0  501 -0.00000000000E+00 -0.00000000000E+00 -0.48658367344E+03  0.48658367344E+03  0.00000000000E+00 0. -1.
    2000013    1    1    2    0    0  0.62554432655E+03 -0.49059762085E+03  0.87795069475E+03  0.15183178694E+04  0.95000000000E+03 0.  0.
   -2000013    1    1    2    0    0 -0.62554432655E+03  0.49059762085E+03  0.21390249978E+04  0.24718251701E+04  0.95000000000E+03 0.  0.
<mgrwt>
<rscale>  0 0.26113405E+04</rscale>
<asrwt>0</asrwt>
<pdfrwt beam="1">  1        2 0.53900912E+00 0.26113405E+04</pdfrwt>
<pdfrwt beam="2">  1       -2 0.74859029E-01 0.26113405E+04</pdfrwt>
<totfact> 0.11461947E+00</totfact>
</mgrwt>
</event>
<event>
 4    1  0.2018023E-008  0.2144547E+04  0.7816531E-02  0.8541870E-01
          2   -1    0    0  501    0  0.00000000000E+00  0.00000000000E+00  0.22891613408E+04  0.22891613408E+04  0.00000000000E+00 0.  1.
         -2   -1    0    0    0  501 -0.00000000000E+00 -0.00000000000E+00 -0.50226688081E+03  0.50226688081E+03  0.00000000000E+00 0. -1.
    2000013    1    1    2    0    0  0.59845253500E+02  0.45511084628E+03  0.64455607078E+03  0.12363898516E+04  0.95000000000E+03 0.  0.
   -2000013    1    1    2    0    0 -0.59845253500E+02 -0.45511084628E+03  0.11423383893E+04  0.15550383701E+04  0.95000000000E+03 0.  0.
<mgrwt>
<rscale>  0 0.21445465E+04</rscale>
<asrwt>0</asrwt>
<pdfrwt beam="1">  1        2 0.35217866E+00 0.21445465E+04</pdfrwt>
<pdfrwt beam="2">  1       -2 0.77271829E-01 0.21445465E+04</pdfrwt>
<totfact> 0.63082920E+00</totfact>
</mgrwt>
</event>
<event>
 4    1  0.2018023E-008  0.2610510E+04  0.7816531E-02  0.8364640E-01
         -2   -1    0    0    0  501 -0.00000000000E+00  0.00000000000E+00  0.18571859775E+04  0.18571859775E+04  0.00000000000E+00 0. -1.
          2   -1    0    0  501    0  0.00000000000E+00 -0.00000000000E+00 -0.91735079157E+03  0.91735079157E+03  0.00000000000E+00 0.  1.
    2000013    1    1    2    0    0 -0.74270790142E+03 -0.69655900258E+02  0.99569679301E+03  0.15653686706E+04  0.95000000000E+03 0.  0.
   -2000013    1    1    2    0    0  0.74270790142E+03  0.69655900258E+02 -0.55861607064E+02  0.12091680985E+04  0.95000000000E+03 0.  0.
<mgrwt>
<rscale>  0 0.26105103E+04</rscale>
<asrwt>0</asrwt>
<pdfrwt beam="2">  1        2 0.14113089E+00 0.26105103E+04</pdfrwt>
<pdfrwt beam="1">  1       -2 0.28572092E+00 0.26105103E+04</pdfrwt>
<totfact> 0.98026624E-01</totfact>
</mgrwt>
</event>
<event>
 4    1  0.2018023E-008  0.2254731E+04  0.7816531E-02  0.8495987E-01
         -2   -1    0    0    0  501 -0.00000000000E+00  0.00000000000E+00  0.40600539104E+03  0.40600539104E+03  0.00000000000E+00 0. -1.
          2   -1    0    0  501    0  0.00000000000E+00 -0.00000000000E+00 -0.31303854828E+04  0.31303854828E+04  0.00000000000E+00 0.  1.
    2000013    1    1    2    0    0  0.15052608568E+03  0.42298315706E+03 -0.20029100568E+04  0.22617960893E+04  0.95000000000E+03 0.  0.
   -2000013    1    1    2    0    0 -0.15052608568E+03 -0.42298315706E+03 -0.72147003498E+03  0.12745947846E+04  0.95000000000E+03 0.  0.
<mgrwt>
<rscale>  0 0.22547314E+04</rscale>
<asrwt>0</asrwt>
<pdfrwt beam="2">  1        2 0.48159779E+00 0.22547314E+04</pdfrwt>
<pdfrwt beam="1">  1       -2 0.62462365E-01 0.22547314E+04</pdfrwt>
<totfact> 0.31173710E+00</totfact>
</mgrwt>
</event>
<event>
 4    1  0.2018023E-008  0.3098620E+04  0.7816531E-02  0.8216117E-01
         -2   -1    0    0    0  501 -0.00000000000E+00  0.00000000000E+00  0.92545124334E+03  0.92545124334E+03  0.00000000000E+00 0. -1.
          2   -1    0    0  501    0  0.00000000000E+00 -0.00000000000E+00 -0.25937198605E+04  0.25937198605E+04  0.00000000000E+00 0.  1.
    2000013    1    1    2    0    0 -0.11628469285E+04 -0.38157922944E+03 -0.82646651643E+03  0.17559506229E+04  0.95000000000E+03 0.  0.
   -2000013    1    1    2    0    0  0.11628469285E+04  0.38157922944E+03 -0.84180210071E+03  0.17632204809E+04  0.95000000000E+03 0.  0.
<mgrwt>
<rscale>  0 0.30986199E+04</rscale>
<asrwt>0</asrwt>
<pdfrwt beam="2">  1        2 0.39903382E+00 0.30986199E+04</pdfrwt>
<pdfrwt beam="1">  1       -2 0.14237712E+00 0.30986199E+04</pdfrwt>
<totfact> 0.89555067E-01</totfact>
</mgrwt>
</event>
<event>
 4    1  0.2018023E-008  0.3321560E+04  0.7816531E-02  0.8157431E-01
          2   -1    0    0  501    0  0.00000000000E+00  0.00000000000E+00  0.11324663629E+04  0.11324663629E+04  0.00000000000E+00 0.  1.
         -2   -1    0    0    0  501 -0.00000000000E+00 -0.00000000000E+00 -0.24355604678E+04  0.24355604678E+04  0.00000000000E+00 0. -1.
    2000013    1    1    2    0    0 -0.10825628701E+04 -0.73807608809E+03 -0.10520265786E+04  0.19302742296E+04  0.95000000000E+03 0.  0.
   -2000013    1    1    2    0    0  0.10825628701E+04  0.73807608809E+03 -0.25106752641E+03  0.16377526011E+04  0.95000000000E+03 0.  0.
<mgrwt>
<rscale>  0 0.33215601E+04</rscale>
<asrwt>0</asrwt>
<pdfrwt beam="1">  1        2 0.17422560E+00 0.33215601E+04</pdfrwt>
<pdfrwt beam="2">  1       -2 0.37470161E+00 0.33215601E+04</pdfrwt>
<totfact> 0.18777769E-01</totfact>
</mgrwt>
</event>
<event>
 4    1  0.2018023E-008  0.2427089E+04  0.7816531E-02  0.8429431E-01
         -1   -1    0    0    0  501 -0.00000000000E+00  0.00000000000E+00  0.55317378050E+03  0.55317378050E+03  0.00000000000E+00 0. -1.
          1   -1    0    0  501    0  0.00000000000E+00 -0.00000000000E+00 -0.26622556262E+04  0.26622556262E+04  0.00000000000E+00 0.  1.
    2000013    1    1    2    0    0  0.74426812518E+02 -0.72707301978E+03 -0.13059598301E+04  0.17726267527E+04  0.95000000000E+03 0.  0.
   -2000013    1    1    2    0    0 -0.74426812518E+02  0.72707301978E+03 -0.80312201561E+03  0.14428026540E+04  0.95000000000E+03 0.  0.
<mgrwt>
<rscale>  0 0.24270888E+04</rscale>
<asrwt>0</asrwt>
<pdfrwt beam="2">  1        1 0.40957778E+00 0.24270888E+04</pdfrwt>
<pdfrwt beam="1">  1       -1 0.85103659E-01 0.24270888E+04</pdfrwt>
<totfact> 0.12735230E+00</totfact>
</mgrwt>
</event>
<event>
 4    1  0.2018023E-008  0.2604524E+04  0.7816531E-02  0.8366666E-01
          2   -1    0    0  501    0  0.00000000000E+00  0.00000000000E+00  0.22143008682E+04  0.22143008682E+04  0.00000000000E+00 0.  1.
         -2   -1    0    0    0  501 -0.00000000000E+00 -0.00000000000E+00 -0.76587913548E+03  0.76587913548E+03  0.00000000000E+00 0. -1.
    2000013    1    1    2    0    0 -0.27351408163E+03  0.60527928744E+03  0.45136572013E+02  0.11600475330E+04  0.95000000000E+03 0.  0.
   -2000013    1    1    2    0    0  0.27351408163E+03 -0.60527928744E+03  0.14032851607E+04  0.18201324707E+04  0.95000000000E+03 0.  0.
<mgrwt>
<rscale>  0 0.26045244E+04</rscale>
<asrwt>0</asrwt>
<pdfrwt beam="1">  1        2 0.34066167E+00 0.26045244E+04</pdfrwt>
<pdfrwt beam="2">  1       -2 0.11782756E+00 0.26045244E+04</pdfrwt>
<totfact> 0.24899326E+00</totfact>
</mgrwt>
</event>
<event>
 4    1  0.2018023E-008  0.2489957E+04  0.7816531E-02  0.8406572E-01
         -2   -1    0    0    0  501 -0.00000000000E+00  0.00000000000E+00  0.56688892927E+03  0.56688892927E+03  0.00000000000E+00 0. -1.
          2   -1    0    0  501    0  0.00000000000E+00 -0.00000000000E+00 -0.27341711926E+04  0.27341711926E+04  0.00000000000E+00 0.  1.
    2000013    1    1    2    0    0  0.62020777857E+03  0.46436351367E+03 -0.79567489401E+03  0.14614683364E+04  0.95000000000E+03 0.  0.
   -2000013    1    1    2    0    0 -0.62020777857E+03 -0.46436351367E+03 -0.13716073693E+04  0.18395917854E+04  0.95000000000E+03 0.  0.
<mgrwt>
<rscale>  0 0.24899569E+04</rscale>
<asrwt>0</asrwt>
<pdfrwt beam="2">  1        2 0.42064172E+00 0.24899569E+04</pdfrwt>
<pdfrwt beam="1">  1       -2 0.87213682E-01 0.24899569E+04</pdfrwt>
<totfact> 0.25690910E+00</totfact>
</mgrwt>
</event>
<event>
 4    1  0.2018023E-008  0.2170759E+04  0.7816531E-02  0.8530698E-01
          2   -1    0    0  501    0  0.00000000000E+00  0.00000000000E+00  0.32619752859E+04  0.32619752859E+04  0.00000000000E+00 0.  1.
         -2   -1    0    0    0  501 -0.00000000000E+00 -0.00000000000E+00 -0.36114587798E+03  0.36114587798E+03  0.00000000000E+00 0. -1.
    2000013    1    1    2    0    0 -0.18580584202E+03  0.43446030818E+03  0.18320027682E+04  0.21170766903E+04  0.95000000000E+03 0.  0.
   -2000013    1    1    2    0    0  0.18580584202E+03 -0.43446030818E+03  0.10688266397E+04  0.15060444735E+04  0.95000000000E+03 0.  0.
<mgrwt>
<rscale>  0 0.21707592E+04</rscale>
<asrwt>0</asrwt>
<pdfrwt beam="1">  1        2 0.50184233E+00 0.21707592E+04</pdfrwt>
<pdfrwt beam="2">  1       -2 0.55560906E-01 0.21707592E+04</pdfrwt>
<totfact> 0.33009278E+00</totfact>
</mgrwt>
</event>
<event>
 4    1  0.2018023E-008  0.2420454E+04  0.7816531E-02  0.8431885E-01
          2   -1    0    0  501    0  0.00000000000E+00  0.00000000000E+00  0.14867829146E+04  0.14867829146E+04  0.00000000000E+00 0.  1.
         -2   -1    0    0    0  501 -0.00000000000E+00 -0.00000000000E+00 -0.98511353339E+03  0.98511353339E+03  0.00000000000E+00 0. -1.
    2000013    1    1    2    0    0  0.57464605481E+03 -0.31981729488E+03  0.61855496149E+03  0.13105767550E+04  0.95000000000E+03 0.  0.
   -2000013    1    1    2    0    0 -0.57464605481E+03  0.31981729488E+03 -0.11688558027E+03  0.11613196930E+04  0.95000000000E+03 0.  0.
<mgrwt>
<rscale>  0 0.24204545E+04</rscale>
<asrwt>0</asrwt>
<pdfrwt beam="1">  1        2 0.22873583E+00 0.24204545E+04</pdfrwt>
<pdfrwt beam="2">  1       -2 0.15155593E+00 0.24204545E+04</pdfrwt>
<totfact> 0.33801822E+00</totfact>
</mgrwt>
</event>
<event>
 4    1  0.2018023E-008  0.2708495E+04  0.7816531E-02  0.8332254E-01
         -1   -1    0    0    0  501 -0.00000000000E+00  0.00000000000E+00  0.83382877717E+03  0.83382877717E+03  0.00000000000E+00 0. -1.
          1   -1    0    0  501    0  0.00000000000E+00 -0.00000000000E+00 -0.21994755138E+04  0.21994755138E+04  0.00000000000E+00 0.  1.
    2000013    1    1    2    0    0  0.20278659687E+03 -0.86865642212E+03 -0.10955259779E+04  0.17024580911E+04  0.95000000000E+03 0.  0.
   -2000013    1    1    2    0    0 -0.20278659687E+03  0.86865642212E+03 -0.27012075875E+03  0.13308461999E+04  0.95000000000E+03 0.  0.
<mgrwt>
<rscale>  0 0.27084948E+04</rscale>
<asrwt>0</asrwt>
<pdfrwt beam="2">  1        1 0.33838085E+00 0.27084948E+04</pdfrwt>
<pdfrwt beam="1">  1       -1 0.12828135E+00 0.27084948E+04</pdfrwt>
<totfact> 0.99747109E-01</totfact>
</mgrwt>
</event>
<event>
 4    1  0.2018023E-008  0.2863629E+04  0.7816531E-02  0.8283782E-01
         -2   -1    0    0    0  501 -0.00000000000E+00  0.00000000000E+00  0.24036686091E+04  0.24036686091E+04  0.00000000000E+00 0. -1.
          2   -1    0    0  501    0  0.00000000000E+00 -0.00000000000E+00 -0.85290178115E+03  0.85290178115E+03  0.00000000000E+00 0.  1.
    2000013    1    1    2    0    0  0.98924748805E+03  0.16132675248E+03  0.12053605416E+04  0.18330387200E+04  0.95000000000E+03 0.  0.
   -2000013    1    1    2    0    0 -0.98924748805E+03 -0.16132675248E+03  0.34540628639E+03  0.14235316703E+04  0.95000000000E+03 0.  0.
<mgrwt>
<rscale>  0 0.28636293E+04</rscale>
<asrwt>0</asrwt>
<pdfrwt beam="2">  1        2 0.13121566E+00 0.28636293E+04</pdfrwt>
<pdfrwt beam="1">  1       -2 0.36979517E+00 0.28636293E+04</pdfrwt>
<totfact> 0.31837507E-01</totfact>
</mgrwt>
</event>
<event>
 4    1  0.2018023E-008  0.2955072E+04  0.7816531E-02  0.8256678E-01
         -2   -1    0    0    0  501 -0.00000000000E+00  0.00000000000E+00  0.87333207806E+03  0.87333207806E+03  0.00000000000E+00 0. -1.
          2   -1    0    0  501    0  0.00000000000E+00 -0.00000000000E+00 -0.24997512686E+04  0.24997512686E+04  0.00000000000E+00 0.  1.
    2000013    1    1    2    0    0 -0.21428255544E+03  0.98280228313E+03 -0.22141625608E+03  0.14011932414E+04  0.95000000000E+03 0.  0.
   -2000013    1    1    2    0    0  0.21428255544E+03 -0.98280228313E+03 -0.14050029344E+04  0.19718901052E+04  0.95000000000E+03 0.  0.
<mgrwt>
<rscale>  0 0.29550722E+04</rscale>
<asrwt>0</asrwt>
<pdfrwt beam="2">  1        2 0.38457712E+00 0.29550722E+04</pdfrwt>
<pdfrwt beam="1">  1       -2 0.13435878E+00 0.29550722E+04</pdfrwt>
<totfact> 0.11945380E+00</totfact>
</mgrwt>
</event>
<event>
 4    1  0.2018023E-008  0.2564829E+04  0.7816531E-02  0.8380247E-01
          2   -1    0    0  501    0  0.00000000000E+00  0.00000000000E+00  0.27598649721E+04  0.27598649721E+04  0.00000000000E+00 0.  1.
         -2   -1    0    0    0  501 -0.00000000000E+00 -0.00000000000E+00 -0.59589404240E+03  0.59589404240E+03  0.00000000000E+00 0. -1.
    2000013    1    1    2    0    0 -0.77989677329E+03 -0.80809261697E+02  0.15488352919E+04  0.19789289718E+04  0.95000000000E+03 0.  0.
   -2000013    1    1    2    0    0  0.77989677329E+03  0.80809261697E+02  0.61513563780E+03  0.13768300428E+04  0.95000000000E+03 0.  0.
<mgrwt>
<rscale>  0 0.25648291E+04</rscale>
<asrwt>0</asrwt>
<pdfrwt beam="1">  1        2 0.42459460E+00 0.25648291E+04</pdfrwt>
<pdfrwt beam="2">  1       -2 0.91676008E-01 0.25648291E+04</pdfrwt>
<totfact> 0.21961271E+00</totfact>
</mgrwt>
</event>
<event>
 4    1  0.2018023E-008  0.2786245E+04  0.7816531E-02  0.8307551E-01
         -2   -1    0    0    0  501 -0.00000000000E+00  0.00000000000E+00  0.10262586815E+04  0.10262586815E+04  0.00000000000E+00 0. -1.
          2   -1    0    0  501    0  0.00000000000E+00 -0.00000000000E+00 -0.18911320364E+04  0.18911320364E+04  0.00000000000E+00 0.  1.
    2000013    1    1    2    0    0 -0.99240815977E+03  0.18512689051E+03 -0.57731389341E+03  0.15016448491E+04  0.95000000000E+03 0.  0.
   -2000013    1    1    2    0    0  0.99240815977E+03 -0.18512689051E+03 -0.28755946154E+03  0.14157458688E+04  0.95000000000E+03 0.  0.
<mgrwt>
<rscale>  0 0.27862453E+04</rscale>
<asrwt>0</asrwt>
<pdfrwt beam="2">  1        2 0.29094339E+00 0.27862453E+04</pdfrwt>
<pdfrwt beam="1">  1       -2 0.15788595E+00 0.27862453E+04</pdfrwt>
<totfact> 0.17475205E+00</totfact>
</mgrwt>
</event>
<event>
 4    1  0.2018023E-008  0.2858700E+04  0.7816531E-02  0.8285273E-01
          2   -1    0    0  501    0  0.00000000000E+00  0.00000000000E+00  0.22226072271E+04  0.22226072271E+04  0.00000000000E+00 0.  1.
         -2   -1    0    0    0  501 -0.00000000000E+00 -0.00000000000E+00 -0.91920945271E+03  0.91920945271E+03  0.00000000000E+00 0. -1.
    2000013    1    1    2    0    0  0.35589285031E+03 -0.95714805221E+03  0.99531175773E+03  0.17134577934E+04  0.95000000000E+03 0.  0.
   -2000013    1    1    2    0    0 -0.35589285031E+03  0.95714805221E+03  0.30808601669E+03  0.14283588864E+04  0.95000000000E+03 0.  0.
<mgrwt>
<rscale>  0 0.28587001E+04</rscale>
<asrwt>0</asrwt>
<pdfrwt beam="1">  1        2 0.34193957E+00 0.28587001E+04</pdfrwt>
<pdfrwt beam="2">  1       -2 0.14141684E+00 0.28587001E+04</pdfrwt>
<totfact> 0.15192136E+00</totfact>
</mgrwt>
</event>
<event>
 4    1  0.2018023E-008  0.2714845E+04  0.7816531E-02  0.8330204E-01
          2   -1    0    0  501    0  0.00000000000E+00  0.00000000000E+00  0.22284510913E+04  0.22284510913E+04  0.00000000000E+00 0.  1.
         -2   -1    0    0    0  501 -0.00000000000E+00 -0.00000000000E+00 -0.82685060858E+03  0.82685060858E+03  0.00000000000E+00 0. -1.
    2000013    1    1    2    0    0  0.40593666032E+03  0.58420767075E+03  0.14422135536E+04  0.18677695545E+04  0.95000000000E+03 0.  0.
   -2000013    1    1    2    0    0 -0.40593666032E+03 -0.58420767075E+03 -0.40613070833E+02  0.11875321454E+04  0.95000000000E+03 0.  0.
<mgrwt>
<rscale>  0 0.27148452E+04</rscale>
<asrwt>0</asrwt>
<pdfrwt beam="1">  1        2 0.34283863E+00 0.27148452E+04</pdfrwt>
<pdfrwt beam="2">  1       -2 0.12720779E+00 0.27148452E+04</pdfrwt>
<totfact> 0.20005526E+00</totfact>
</mgrwt>
</event>
<event>
 4    1  0.2018023E-008  0.4403609E+04  0.7816531E-02  0.7927733E-01
          2   -1    0    0  501    0  0.00000000000E+00  0.00000000000E+00  0.20286204361E+04  0.20286204361E+04  0.00000000000E+00 0.  1.
         -2   -1    0    0    0  501 -0.00000000000E+00 -0.00000000000E+00 -0.23897738651E+04  0.23897738651E+04  0.00000000000E+00 0. -1.
    2000013    1    1    2    0    0  0.28224910100E+02 -0.18653392386E+04 -0.86489074390E+03  0.22651320314E+04  0.95000000000E+03 0.  0.
   -2000013    1    1    2    0    0 -0.28224910100E+02  0.18653392386E+04  0.50373731490E+03  0.21532622699E+04  0.95000000000E+03 0.  0.
<mgrwt>
<rscale>  0 0.44036095E+04</rscale>
<asrwt>0</asrwt>
<pdfrwt beam="1">  1        2 0.31209545E+00 0.44036095E+04</pdfrwt>
<pdfrwt beam="2">  1       -2 0.36765752E+00 0.44036095E+04</pdfrwt>
<totfact> 0.59098516E-02</totfact>
</mgrwt>
</event>
<event>
 4    1  0.2018023E-008  0.3224218E+04  0.7816531E-02  0.8182451E-01
          2   -1    0    0  501    0  0.00000000000E+00  0.00000000000E+00  0.23399699602E+04  0.23399699602E+04  0.00000000000E+00 0.  1.
         -2   -1    0    0    0  501 -0.00000000000E+00 -0.00000000000E+00 -0.11106529875E+04  0.11106529875E+04  0.00000000000E+00 0. -1.
    2000013    1    1    2    0    0  0.37150206800E+03  0.12483117648E+04  0.62528434652E+03  0.17290970368E+04  0.95000000000E+03 0.  0.
   -2000013    1    1    2    0    0 -0.37150206800E+03 -0.12483117648E+04  0.60403262614E+03  0.17215259109E+04  0.95000000000E+03 0.  0.
<mgrwt>
<rscale>  0 0.32242175E+04</rscale>
<asrwt>0</asrwt>
<pdfrwt beam="1">  1        2 0.35999538E+00 0.32242175E+04</pdfrwt>
<pdfrwt beam="2">  1       -2 0.17086969E+00 0.32242175E+04</pdfrwt>
<totfact> 0.75966528E-01</totfact>
</mgrwt>
</event>
<event>
 4    1  0.2018023E-008  0.2805335E+04  0.7816531E-02  0.8301614E-01
         -2   -1    0    0    0  501 -0.00000000000E+00  0.00000000000E+00  0.11406969762E+04  0.11406969762E+04  0.00000000000E+00 0. -1.
          2   -1    0    0  501    0  0.00000000000E+00 -0.00000000000E+00 -0.17248014575E+04  0.17248014575E+04  0.00000000000E+00 0.  1.
    2000013    1    1    2    0    0  0.43822011626E+03  0.78108881631E+03 -0.81572567865E+03  0.15394950445E+04  0.95000000000E+03 0.  0.
   -2000013    1    1    2    0    0 -0.43822011626E+03 -0.78108881631E+03  0.23162119737E+03  0.13260033893E+04  0.95000000000E+03 0.  0.
<mgrwt>
<rscale>  0 0.28053348E+04</rscale>
<asrwt>0</asrwt>
<pdfrwt beam="2">  1        2 0.26535407E+00 0.28053348E+04</pdfrwt>
<pdfrwt beam="1">  1       -2 0.17549184E+00 0.28053348E+04</pdfrwt>
<totfact> 0.16108945E+00</totfact>
</mgrwt>
</event>
<event>
 4    1  0.2018023E-008  0.4188384E+04  0.7816531E-02  0.7967586E-01
          2   -1    0    0  501    0  0.00000000000E+00  0.00000000000E+00  0.43051217120E+04  0.43051217120E+04  0.00000000000E+00 0. -1.
         -2   -1    0    0    0  501 -0.00000000000E+00 -0.00000000000E+00 -0.10187028128E+04  0.10187028128E+04  0.00000000000E+00 0.  1.
    2000013    1    1    2    0    0  0.25286948821E+03 -0.18430184053E+04  0.18337876688E+04  0.27795569853E+04  0.95000000000E+03 0.  0.
   -2000013    1    1    2    0    0 -0.25286948821E+03  0.18430184053E+04  0.14526312304E+04  0.25442675394E+04  0.95000000000E+03 0.  0.
<mgrwt>
<rscale>  0 0.41883837E+04</rscale>
<asrwt>0</asrwt>
<pdfrwt beam="1">  1        2 0.66232640E+00 0.41883837E+04</pdfrwt>
<pdfrwt beam="2">  1       -2 0.15672351E+00 0.41883837E+04</pdfrwt>
<totfact> 0.38621321E-02</totfact>
</mgrwt>
</event>
<event>
 4    1  0.2018023E-008  0.2703268E+04  0.7816531E-02  0.8333945E-01
          2   -1    0    0  501    0  0.00000000000E+00  0.00000000000E+00  0.16264492397E+04  0.16264492397E+04  0.00000000000E+00 0.  1.
         -2   -1    0    0    0  501 -0.00000000000E+00 -0.00000000000E+00 -0.11232533349E+04  0.11232533349E+04  0.00000000000E+00 0. -1.
    2000013    1    1    2    0    0  0.68348591589E+03 -0.62885024794E+03  0.50448239958E+03  0.14211291718E+04  0.95000000000E+03 0.  0.
   -2000013    1    1    2    0    0 -0.68348591589E+03  0.62885024794E+03 -0.12864947517E+01  0.13285734028E+04  0.95000000000E+03 0.  0.
<mgrwt>
<rscale>  0 0.27032680E+04</rscale>
<asrwt>0</asrwt>
<pdfrwt beam="1">  1        2 0.25022296E+00 0.27032680E+04</pdfrwt>
<pdfrwt beam="2">  1       -2 0.17280821E+00 0.27032680E+04</pdfrwt>
<totfact> 0.19248997E+00</totfact>
</mgrwt>
</event>
<event>
 4    1  0.2018023E-008  0.2222704E+04  0.7816531E-02  0.8509037E-01
          2   -1    0    0  501    0  0.00000000000E+00  0.00000000000E+00  0.16380492572E+04  0.16380492572E+04  0.00000000000E+00 0.  1.
         -2   -1    0    0    0  501 -0.00000000000E+00 -0.00000000000E+00 -0.75400895777E+03  0.75400895777E+03  0.00000000000E+00 0. -1.
    2000013    1    1    2    0    0 -0.57564939305E+03  0.10170191670E+02  0.47816735486E+03  0.12093881411E+04  0.95000000000E+03 0.  0.
   -2000013    1    1    2    0    0  0.57564939305E+03 -0.10170191670E+02  0.40587294455E+03  0.11826700739E+04  0.95000000000E+03 0.  0.
<mgrwt>
<rscale>  0 0.22227045E+04</rscale>
<asrwt>0</asrwt>
<pdfrwt beam="1">  1        2 0.25200758E+00 0.22227045E+04</pdfrwt>
<pdfrwt beam="2">  1       -2 0.11600138E+00 0.22227045E+04</pdfrwt>
<totfact> 0.55932573E+00</totfact>
</mgrwt>
</event>
<event>
 4    1  0.2018023E-008  0.3379510E+04  0.7816531E-02  0.8142954E-01
          2   -1    0    0  501    0  0.00000000000E+00  0.00000000000E+00  0.18666820893E+04  0.18666820893E+04  0.00000000000E+00 0.  1.
         -2   -1    0    0    0  501 -0.00000000000E+00 -0.00000000000E+00 -0.15295975678E+04  0.15295975678E+04  0.00000000000E+00 0. -1.
    2000013    1    1    2    0    0 -0.49792589095E+02  0.13961647864E+04  0.20059048213E+03  0.17013206501E+04  0.95000000000E+03 0.  0.
   -2000013    1    1    2    0    0  0.49792589095E+02 -0.13961647864E+04  0.13649403936E+03  0.16949590070E+04  0.95000000000E+03 0.  0.
<mgrwt>
<rscale>  0 0.33795103E+04</rscale>
<asrwt>0</asrwt>
<pdfrwt beam="1">  1        2 0.28718186E+00 0.33795103E+04</pdfrwt>
<pdfrwt beam="2">  1       -2 0.23532271E+00 0.33795103E+04</pdfrwt>
<totfact> 0.52080108E-01</totfact>
</mgrwt>
</event>
<event>
 4    1  0.2018023E-008  0.2741671E+04  0.7816531E-02  0.8321609E-01
          1   -1    0    0  501    0  0.00000000000E+00  0.00000000000E+00  0.14776927590E+04  0.14776927590E+04  0.00000000000E+00 0.  1.
         -1   -1    0    0    0  501 -0.00000000000E+00 -0.00000000000E+00 -0.12717055853E+04  0.12717055853E+04  0.00000000000E+00 0. -1.
    2000013    1    1    2    0    0  0.25293780145E+03 -0.95020632023E+03  0.36155824120E+01  0.13672536907E+04  0.95000000000E+03 0.  0.
   -2000013    1    1    2    0    0 -0.25293780145E+03  0.95020632023E+03  0.20237159134E+03  0.13821446536E+04  0.95000000000E+03 0.  0.
<mgrwt>
<rscale>  0 0.27416711E+04</rscale>
<asrwt>0</asrwt>
<pdfrwt beam="1">  1        1 0.22733735E+00 0.27416711E+04</pdfrwt>
<pdfrwt beam="2">  1       -1 0.19564701E+00 0.27416711E+04</pdfrwt>
<totfact> 0.95166475E-01</totfact>
</mgrwt>
</event>
<event>
 4    1  0.2018023E-008  0.2269483E+04  0.7816531E-02  0.8490052E-01
          1   -1    0    0  501    0  0.00000000000E+00  0.00000000000E+00  0.22228293383E+04  0.22228293383E+04  0.00000000000E+00 0.  1.
         -1   -1    0    0    0  501 -0.00000000000E+00 -0.00000000000E+00 -0.57927874763E+03  0.57927874763E+03  0.00000000000E+00 0. -1.
    2000013    1    1    2    0    0 -0.51237486991E+03 -0.34846442369E+03  0.77932037745E+03  0.13761525034E+04  0.95000000000E+03 0.  0.
   -2000013    1    1    2    0    0  0.51237486991E+03  0.34846442369E+03  0.86423021318E+03  0.14259555825E+04  0.95000000000E+03 0.  0.
<mgrwt>
<rscale>  0 0.22694826E+04</rscale>
<asrwt>0</asrwt>
<pdfrwt beam="1">  1        1 0.34197374E+00 0.22694826E+04</pdfrwt>
<pdfrwt beam="2">  1       -1 0.89119808E-01 0.22694826E+04</pdfrwt>
<totfact> 0.23508151E+00</totfact>
</mgrwt>
</event>
<event>
 4    1  0.2018023E-008  0.2434973E+04  0.7816531E-02  0.8426525E-01
         -2   -1    0    0    0  501 -0.00000000000E+00  0.00000000000E+00  0.42951272435E+03  0.42951272435E+03  0.00000000000E+00 0. -1.
          2   -1    0    0  501    0  0.00000000000E+00 -0.00000000000E+00 -0.34510581650E+04  0.34510581650E+04  0.00000000000E+00 0.  1.
    2000013    1    1    2    0    0 -0.12835897746E+03  0.52582969472E+03 -0.65729650899E+03  0.12757396269E+04  0.95000000000E+03 0.  0.
   -2000013    1    1    2    0    0  0.12835897746E+03 -0.52582969472E+03 -0.23642489317E+04  0.26048312625E+04  0.95000000000E+03 0.  0.
<mgrwt>
<rscale>  0 0.24349730E+04</rscale>
<asrwt>0</asrwt>
<pdfrwt beam="2">  1        2 0.53093202E+00 0.24349730E+04</pdfrwt>
<pdfrwt beam="1">  1       -2 0.66078882E-01 0.24349730E+04</pdfrwt>
<totfact> 0.16638882E+00</totfact>
</mgrwt>
</event>
<event>
 4    1  0.2018023E-008  0.2468481E+04  0.7816531E-02  0.8414301E-01
          2   -1    0    0  501    0  0.00000000000E+00  0.00000000000E+00  0.16793805543E+04  0.16793805543E+04  0.00000000000E+00 0.  1.
         -2   -1    0    0    0  501 -0.00000000000E+00 -0.00000000000E+00 -0.90709035876E+03  0.90709035876E+03  0.00000000000E+00 0. -1.
    2000013    1    1    2    0    0 -0.10602187200E+03 -0.61248955515E+03  0.89350662892E+03  0.14447277212E+04  0.95000000000E+03 0.  0.
   -2000013    1    1    2    0    0  0.10602187200E+03  0.61248955515E+03 -0.12121643335E+03  0.11417431919E+04  0.95000000000E+03 0.  0.
<mgrwt>
<rscale>  0 0.24684812E+04</rscale>
<asrwt>0</asrwt>
<pdfrwt beam="1">  1        2 0.25836624E+00 0.24684812E+04</pdfrwt>
<pdfrwt beam="2">  1       -2 0.13955236E+00 0.24684812E+04</pdfrwt>
<totfact> 0.32615177E+00</totfact>
</mgrwt>
</event>
<event>
 4    1  0.2018023E-008  0.2344365E+04  0.7816531E-02  0.8460631E-01
         -2   -1    0    0    0  501 -0.00000000000E+00  0.00000000000E+00  0.57068492390E+03  0.57068492390E+03  0.00000000000E+00 0. -1.
          2   -1    0    0  501    0  0.00000000000E+00 -0.00000000000E+00 -0.24076549198E+04  0.24076549198E+04  0.00000000000E+00 0.  1.
    2000013    1    1    2    0    0 -0.54123430654E+03 -0.42116782801E+03 -0.87455969331E+03  0.14620778266E+04  0.95000000000E+03 0.  0.
   -2000013    1    1    2    0    0  0.54123430654E+03  0.42116782801E+03 -0.96241030261E+03  0.15162620171E+04  0.95000000000E+03 0.  0.
<mgrwt>
<rscale>  0 0.23443655E+04</rscale>
<asrwt>0</asrwt>
<pdfrwt beam="2">  1        2 0.37040846E+00 0.23443655E+04</pdfrwt>
<pdfrwt beam="1">  1       -2 0.87797679E-01 0.23443655E+04</pdfrwt>
<totfact> 0.39771777E+00</totfact>
</mgrwt>
</event>
<event>
 4    1  0.2018023E-008  0.2156722E+04  0.7816531E-02  0.8536660E-01
         -2   -1    0    0    0  501 -0.00000000000E+00  0.00000000000E+00  0.69664802490E+03  0.69664802490E+03  0.00000000000E+00 0.  1.
          2   -1    0    0  501    0  0.00000000000E+00 -0.00000000000E+00 -0.16692258679E+04  0.16692258679E+04  0.00000000000E+00 0. -1.
    2000013    1    1    2    0    0 -0.12039918520E+03 -0.46580813708E+03 -0.29983608213E+03  0.11062887781E+04  0.95000000000E+03 0.  0.
   -2000013    1    1    2    0    0  0.12039918520E+03  0.46580813708E+03 -0.67274176085E+03  0.12595851147E+04  0.95000000000E+03 0.  0.
<mgrwt>
<rscale>  0 0.21567224E+04</rscale>
<asrwt>0</asrwt>
<pdfrwt beam="2">  1        2 0.25680398E+00 0.21567224E+04</pdfrwt>
<pdfrwt beam="1">  1       -2 0.10717662E+00 0.21567224E+04</pdfrwt>
<totfact> 0.65479008E+00</totfact>
</mgrwt>
</event>
<event>
 4    1  0.2018023E-008  0.2783891E+04  0.7816531E-02  0.8308287E-01
          1   -1    0    0  501    0  0.00000000000E+00  0.00000000000E+00  0.19799968788E+04  0.19799968788E+04  0.00000000000E+00 0. -1.
         -1   -1    0    0    0  501 -0.00000000000E+00 -0.00000000000E+00 -0.97854325044E+03  0.97854325044E+03  0.00000000000E+00 0.  1.
    2000013    1    1    2    0    0 -0.90834705584E+03  0.24891407523E+03  0.91939555493E+02  0.13408972640E+04  0.95000000000E+03 0.  0.
   -2000013    1    1    2    0    0  0.90834705584E+03 -0.24891407523E+03  0.90951407285E+03  0.16176428652E+04  0.95000000000E+03 0.  0.
<mgrwt>
<rscale>  0 0.27838912E+04</rscale>
<asrwt>0</asrwt>
<pdfrwt beam="1">  1        1 0.30461490E+00 0.27838912E+04</pdfrwt>
<pdfrwt beam="2">  1       -1 0.15054512E+00 0.27838912E+04</pdfrwt>
<totfact> 0.92082786E-01</totfact>
</mgrwt>
</event>
<event>
 4    1  0.2018023E-008  0.2734603E+04  0.7816531E-02  0.8323864E-01
          2   -1    0    0  501    0  0.00000000000E+00  0.00000000000E+00  0.12118608567E+04  0.12118608567E+04  0.00000000000E+00 0.  1.
         -2   -1    0    0    0  501 -0.00000000000E+00 -0.00000000000E+00 -0.15426804411E+04  0.15426804411E+04  0.00000000000E+00 0. -1.
    2000013    1    1    2    0    0  0.95850549634E+03  0.19995143513E+03 -0.73637472419E+02  0.13662488208E+04  0.95000000000E+03 0.  0.
   -2000013    1    1    2    0    0 -0.95850549634E+03 -0.19995143513E+03 -0.25718211201E+03  0.13882924770E+04  0.95000000000E+03 0.  0.
<mgrwt>
<rscale>  0 0.27346035E+04</rscale>
<asrwt>0</asrwt>
<pdfrwt beam="1">  1        2 0.18644013E+00 0.27346035E+04</pdfrwt>
<pdfrwt beam="2">  1       -2 0.23733545E+00 0.27346035E+04</pdfrwt>
<totfact> 0.12543763E+00</totfact>
</mgrwt>
</event>
<event>
 4    1  0.2018023E-008  0.3698212E+04  0.7816531E-02  0.8068358E-01
          2   -1    0    0  501    0  0.00000000000E+00  0.00000000000E+00  0.27769800319E+04  0.27769800319E+04  0.00000000000E+00 0.  1.
         -2   -1    0    0    0  501 -0.00000000000E+00 -0.00000000000E+00 -0.12312629614E+04  0.12312629614E+04  0.00000000000E+00 0. -1.
    2000013    1    1    2    0    0 -0.51019086645E+03 -0.12191911074E+04  0.17238999712E+04  0.23708759536E+04  0.95000000000E+03 0.  0.
   -2000013    1    1    2    0    0  0.51019086645E+03  0.12191911074E+04 -0.17818290070E+03  0.16373670397E+04  0.95000000000E+03 0.  0.
<mgrwt>
<rscale>  0 0.36982118E+04</rscale>
<asrwt>0</asrwt>
<pdfrwt beam="1">  1        2 0.42722770E+00 0.36982118E+04</pdfrwt>
<pdfrwt beam="2">  1       -2 0.18942507E+00 0.36982118E+04</pdfrwt>
<totfact> 0.30180271E-01</totfact>
</mgrwt>
</event>
<event>
 4    1  0.2018023E-008  0.2275131E+04  0.7816531E-02  0.8487792E-01
         -2   -1    0    0    0  501 -0.00000000000E+00  0.00000000000E+00  0.10732278180E+04  0.10732278180E+04  0.00000000000E+00 0. -1.
          2   -1    0    0  501    0  0.00000000000E+00 -0.00000000000E+00 -0.12057597451E+04  0.12057597451E+04  0.00000000000E+00 0.  1.
    2000013    1    1    2    0    0 -0.35692393837E+03 -0.42497256248E+03  0.22328898246E+03  0.11226550433E+04  0.95000000000E+03 0.  0.
   -2000013    1    1    2    0    0  0.35692393837E+03  0.42497256248E+03 -0.35582090959E+03  0.11563325198E+04  0.95000000000E+03 0.  0.
<mgrwt>
<rscale>  0 0.22751307E+04</rscale>
<asrwt>0</asrwt>
<pdfrwt beam="2">  1        2 0.18550150E+00 0.22751307E+04</pdfrwt>
<pdfrwt beam="1">  1       -2 0.16511197E+00 0.22751307E+04</pdfrwt>
<totfact> 0.39450145E+00</totfact>
</mgrwt>
</event>
<event>
 4    1  0.2018023E-008  0.2567198E+04  0.7816531E-02  0.8379429E-01
          2   -1    0    0  501    0  0.00000000000E+00  0.00000000000E+00  0.31337220480E+04  0.31337220480E+04  0.00000000000E+00 0.  1.
         -2   -1    0    0    0  501 -0.00000000000E+00 -0.00000000000E+00 -0.52577289221E+03  0.52577289221E+03  0.00000000000E+00 0. -1.
    2000013    1    1    2    0    0  0.37538224277E+03  0.75044872439E+03  0.10151921727E+04  0.16239458931E+04  0.95000000000E+03 0.  0.
   -2000013    1    1    2    0    0 -0.37538224277E+03 -0.75044872439E+03  0.15927569831E+04  0.20355490471E+04  0.95000000000E+03 0.  0.
<mgrwt>
<rscale>  0 0.25671978E+04</rscale>
<asrwt>0</asrwt>
<pdfrwt beam="1">  1        2 0.48211107E+00 0.25671978E+04</pdfrwt>
<pdfrwt beam="2">  1       -2 0.80888139E-01 0.25671978E+04</pdfrwt>
<totfact> 0.17124340E+00</totfact>
</mgrwt>
</event>
<event>
 4    1  0.2018023E-008  0.2230903E+04  0.7816531E-02  0.8505675E-01
         -2   -1    0    0    0  501 -0.00000000000E+00  0.00000000000E+00  0.13371269930E+04  0.13371269930E+04  0.00000000000E+00 0. -1.
          2   -1    0    0  501    0  0.00000000000E+00 -0.00000000000E+00 -0.93052650043E+03  0.93052650043E+03  0.00000000000E+00 0.  1.
    2000013    1    1    2    0    0 -0.29657054092E+03 -0.42982253801E+03 -0.63764661398E+02  0.10859408050E+04  0.95000000000E+03 0.  0.
   -2000013    1    1    2    0    0  0.29657054092E+03  0.42982253801E+03  0.47036515395E+03  0.11817126884E+04  0.95000000000E+03 0.  0.
<mgrwt>
<rscale>  0 0.22309030E+04</rscale>
<asrwt>0</asrwt>
<pdfrwt beam="2">  1        2 0.14315792E+00 0.22309030E+04</pdfrwt>
<pdfrwt beam="1">  1       -2 0.20571185E+00 0.22309030E+04</pdfrwt>
<totfact> 0.31114312E+00</totfact>
</mgrwt>
</event>
<event>
 4    1  0.2018023E-008  0.2296489E+04  0.7816531E-02  0.8479307E-01
          2   -1    0    0  501    0  0.00000000000E+00  0.00000000000E+00  0.23388573203E+04  0.23388573203E+04  0.00000000000E+00 0.  1.
         -2   -1    0    0    0  501 -0.00000000000E+00 -0.00000000000E+00 -0.56372217285E+03  0.56372217285E+03  0.00000000000E+00 0. -1.
    2000013    1    1    2    0    0 -0.12640893184E+03  0.62217264533E+03  0.10310529413E+04  0.15390413205E+04  0.95000000000E+03 0.  0.
   -2000013    1    1    2    0    0  0.12640893184E+03 -0.62217264533E+03  0.74408220624E+03  0.13635381727E+04  0.95000000000E+03 0.  0.
<mgrwt>
<rscale>  0 0.22964893E+04</rscale>
<asrwt>0</asrwt>
<pdfrwt beam="1">  1        2 0.35982420E+00 0.22964893E+04</pdfrwt>
<pdfrwt beam="2">  1       -2 0.86726489E-01 0.22964893E+04</pdfrwt>
<totfact> 0.44961466E+00</totfact>
</mgrwt>
</event>
<event>
 4    1  0.2018023E-008  0.2117351E+04  0.7816531E-02  0.8553638E-01
          2   -1    0    0  501    0  0.00000000000E+00  0.00000000000E+00  0.83781365748E+03  0.83781365748E+03  0.00000000000E+00 0.  1.
         -2   -1    0    0    0  501 -0.00000000000E+00 -0.00000000000E+00 -0.13377605009E+04  0.13377605009E+04  0.00000000000E+00 0. -1.
    2000013    1    1    2    0    0  0.46414680310E+03 -0.16347602987E+02 -0.19763634845E+03  0.10757600221E+04  0.95000000000E+03 0.  0.
   -2000013    1    1    2    0    0 -0.46414680310E+03  0.16347602987E+02 -0.30231049497E+03  0.10998141363E+04  0.95000000000E+03 0.  0.
<mgrwt>
<rscale>  0 0.21173512E+04</rscale>
<asrwt>0</asrwt>
<pdfrwt beam="1">  1        2 0.12889441E+00 0.21173512E+04</pdfrwt>
<pdfrwt beam="2">  1       -2 0.20580931E+00 0.21173512E+04</pdfrwt>
<totfact> 0.36289134E+00</totfact>
</mgrwt>
</event>
<event>
 4    1  0.2018023E-008  0.3118389E+04  0.7816531E-02  0.8210709E-01
          2   -1    0    0  501    0  0.00000000000E+00  0.00000000000E+00  0.16105047526E+04  0.16105047526E+04  0.00000000000E+00 0.  1.
         -2   -1    0    0    0  501 -0.00000000000E+00 -0.00000000000E+00 -0.15095187205E+04  0.15095187205E+04  0.00000000000E+00 0. -1.
    2000013    1    1    2    0    0 -0.11611541035E+04 -0.38201221336E+03 -0.13500884427E+03  0.15540075841E+04  0.95000000000E+03 0.  0.
   -2000013    1    1    2    0    0  0.11611541035E+04  0.38201221336E+03  0.23599487638E+03  0.15660158891E+04  0.95000000000E+03 0.  0.
<mgrwt>
<rscale>  0 0.31183887E+04</rscale>
<asrwt>0</asrwt>
<pdfrwt beam="1">  1        2 0.24776996E+00 0.31183887E+04</pdfrwt>
<pdfrwt beam="2">  1       -2 0.23223365E+00 0.31183887E+04</pdfrwt>
<totfact> 0.77222526E-01</totfact>
</mgrwt>
</event>
<event>
 4    1  0.2018023E-008  0.2049071E+04  0.7816531E-02  0.8584016E-01
          2   -1    0    0  501    0  0.00000000000E+00  0.00000000000E+00  0.94849060948E+03  0.94849060948E+03  0.00000000000E+00 0.  1.
         -2   -1    0    0    0  501 -0.00000000000E+00 -0.00000000000E+00 -0.11066772918E+04  0.11066772918E+04  0.00000000000E+00 0. -1.
    2000013    1    1    2    0    0 -0.32649467556E+03 -0.90602629429E+02  0.10134583999E+03  0.10136955109E+04  0.95000000000E+03 0.  0.
   -2000013    1    1    2    0    0  0.32649467556E+03  0.90602629429E+02 -0.25953252226E+03  0.10414723903E+04  0.95000000000E+03 0.  0.
<mgrwt>
<rscale>  0 0.20490710E+04</rscale>
<asrwt>0</asrwt>
<pdfrwt beam="1">  1        2 0.14592163E+00 0.20490710E+04</pdfrwt>
<pdfrwt beam="2">  1       -2 0.17025804E+00 0.20490710E+04</pdfrwt>
<totfact> 0.53429971E+00</totfact>
</mgrwt>
</event>
<event>
 4    1  0.2018023E-008  0.2241951E+04  0.7816531E-02  0.8501167E-01
         -1   -1    0    0    0  501 -0.00000000000E+00  0.00000000000E+00  0.10235406720E+04  0.10235406720E+04  0.00000000000E+00 0.  1.
          1   -1    0    0  501    0  0.00000000000E+00 -0.00000000000E+00 -0.12276853734E+04  0.12276853734E+04  0.00000000000E+00 0. -1.
    2000013    1    1    2    0    0 -0.11645900471E+03 -0.56626606751E+03 -0.24360209385E+03  0.11384471613E+04  0.95000000000E+03 0.  0.
   -2000013    1    1    2    0    0  0.11645900471E+03  0.56626606751E+03  0.39457392393E+02  0.11127788841E+04  0.95000000000E+03 0.  0.
<mgrwt>
<rscale>  0 0.22419509E+04</rscale>
<asrwt>0</asrwt>
<pdfrwt beam="2">  1        1 0.18887467E+00 0.22419509E+04</pdfrwt>
<pdfrwt beam="1">  1       -1 0.15746780E+00 0.22419509E+04</pdfrwt>
<totfact> 0.28309906E+00</totfact>
</mgrwt>
</event>
<event>
 4    1  0.2018023E-008  0.2432962E+04  0.7816531E-02  0.8427265E-01
          1   -1    0    0  501    0  0.00000000000E+00  0.00000000000E+00  0.90072399568E+03  0.90072399568E+03  0.00000000000E+00 0.  1.
         -1   -1    0    0    0  501 -0.00000000000E+00 -0.00000000000E+00 -0.16429294097E+04  0.16429294097E+04  0.00000000000E+00 0. -1.
    2000013    1    1    2    0    0  0.34890740237E+03  0.60502372418E+03 -0.68394187782E+03  0.13631091572E+04  0.95000000000E+03 0.  0.
   -2000013    1    1    2    0    0 -0.34890740237E+03 -0.60502372418E+03 -0.58263536215E+02  0.11805442482E+04  0.95000000000E+03 0.  0.
<mgrwt>
<rscale>  0 0.24329619E+04</rscale>
<asrwt>0</asrwt>
<pdfrwt beam="1">  1        1 0.13857292E+00 0.24329619E+04</pdfrwt>
<pdfrwt beam="2">  1       -1 0.25275837E+00 0.24329619E+04</pdfrwt>
<totfact> 0.10860236E+00</totfact>
</mgrwt>
</event>
<event>
 4    1  0.2018023E-008  0.2113118E+04  0.7816531E-02  0.8555486E-01
          2   -1    0    0  501    0  0.00000000000E+00  0.00000000000E+00  0.43155684532E+04  0.43155684532E+04  0.00000000000E+00 0.  1.
         -2   -1    0    0    0  501 -0.00000000000E+00 -0.00000000000E+00 -0.25867216723E+03  0.25867216723E+03  0.00000000000E+00 0. -1.
    2000013    1    1    2    0    0 -0.22988053880E+03 -0.39956355995E+03  0.21071351656E+04  0.23569078698E+04  0.95000000000E+03 0.  0.
   -2000013    1    1    2    0    0  0.22988053880E+03  0.39956355995E+03  0.19497611204E+04  0.22173327506E+04  0.95000000000E+03 0.  0.
<mgrwt>
<rscale>  0 0.21131185E+04</rscale>
<asrwt>0</asrwt>
<pdfrwt beam="1">  1        2 0.66393355E+00 0.21131185E+04</pdfrwt>
<pdfrwt beam="2">  1       -2 0.39795721E-01 0.21131185E+04</pdfrwt>
<totfact> 0.10217101E+00</totfact>
</mgrwt>
</event>
<event>
 4    1  0.2018023E-008  0.2365510E+04  0.7816531E-02  0.8452530E-01
         -2   -1    0    0    0  501 -0.00000000000E+00  0.00000000000E+00  0.95724240646E+03  0.95724240646E+03  0.00000000000E+00 0. -1.
          2   -1    0    0  501    0  0.00000000000E+00 -0.00000000000E+00 -0.14613955792E+04  0.14613955792E+04  0.00000000000E+00 0.  1.
    2000013    1    1    2    0    0 -0.32591241112E+02  0.69777108811E+03 -0.15801510967E+03  0.11897123414E+04  0.95000000000E+03 0.  0.
   -2000013    1    1    2    0    0  0.32591241112E+02 -0.69777108811E+03 -0.34613806307E+03  0.12289256443E+04  0.95000000000E+03 0.  0.
<mgrwt>
<rscale>  0 0.23655104E+04</rscale>
<asrwt>0</asrwt>
<pdfrwt beam="2">  1        2 0.22483009E+00 0.23655104E+04</pdfrwt>
<pdfrwt beam="1">  1       -2 0.14726806E+00 0.23655104E+04</pdfrwt>
<totfact> 0.37873165E+00</totfact>
</mgrwt>
</event>
<event>
 4    1  0.2018023E-008  0.2705458E+04  0.7816531E-02  0.8333236E-01
         -2   -1    0    0    0  501 -0.00000000000E+00  0.00000000000E+00  0.44876896387E+04  0.44876896387E+04  0.00000000000E+00 0. -1.
          2   -1    0    0  501    0  0.00000000000E+00 -0.00000000000E+00 -0.40775442250E+03  0.40775442250E+03  0.00000000000E+00 0.  1.
    2000013    1    1    2    0    0 -0.19541685730E+03  0.92112981348E+03  0.24050476698E+04  0.27519851336E+04  0.95000000000E+03 0.  0.
   -2000013    1    1    2    0    0  0.19541685730E+03 -0.92112981348E+03  0.16748875465E+04  0.21434589277E+04  0.95000000000E+03 0.  0.
<mgrwt>
<rscale>  0 0.27054577E+04</rscale>
<asrwt>0</asrwt>
<pdfrwt beam="2">  1        2 0.62731453E-01 0.27054577E+04</pdfrwt>
<pdfrwt beam="1">  1       -2 0.69041376E+00 0.27054577E+04</pdfrwt>
<totfact> 0.16604556E-02</totfact>
</mgrwt>
</event>
<event>
 4    1  0.2018023E-008  0.2756577E+04  0.7816531E-02  0.8316878E-01
          2   -1    0    0  501    0  0.00000000000E+00  0.00000000000E+00  0.25767174273E+04  0.25767174273E+04  0.00000000000E+00 0.  1.
         -2   -1    0    0    0  501 -0.00000000000E+00 -0.00000000000E+00 -0.73724777101E+03  0.73724777101E+03  0.00000000000E+00 0. -1.
    2000013    1    1    2    0    0 -0.27669696311E+03 -0.95938488125E+03  0.90279186749E+03  0.16475781365E+04  0.95000000000E+03 0.  0.
   -2000013    1    1    2    0    0  0.27669696311E+03  0.95938488125E+03  0.93667778877E+03  0.16663870618E+04  0.95000000000E+03 0.  0.
<mgrwt>
<rscale>  0 0.27565770E+04</rscale>
<asrwt>0</asrwt>
<pdfrwt beam="1">  1        2 0.39641806E+00 0.27565770E+04</pdfrwt>
<pdfrwt beam="2">  1       -2 0.11342274E+00 0.27565770E+04</pdfrwt>
<totfact> 0.16720464E+00</totfact>
</mgrwt>
</event>
<event>
 4    1  0.2018023E-008  0.3088163E+04  0.7816531E-02  0.8218994E-01
         -2   -1    0    0    0  501 -0.00000000000E+00  0.00000000000E+00  0.80564801079E+03  0.80564801079E+03  0.00000000000E+00 0. -1.
          2   -1    0    0  501    0  0.00000000000E+00 -0.00000000000E+00 -0.29593423543E+04  0.29593423543E+04  0.00000000000E+00 0.  1.
    2000013    1    1    2    0    0 -0.22954427198E+03  0.11882945098E+04 -0.91810293239E+03  0.17916884242E+04  0.95000000000E+03 0.  0.
   -2000013    1    1    2    0    0  0.22954427198E+03 -0.11882945098E+04 -0.12355914112E+04  0.19733019410E+04  0.95000000000E+03 0.  0.
<mgrwt>
<rscale>  0 0.30881634E+04</rscale>
<asrwt>0</asrwt>
<pdfrwt beam="2">  1        2 0.45528344E+00 0.30881634E+04</pdfrwt>
<pdfrwt beam="1">  1       -2 0.12394585E+00 0.30881634E+04</pdfrwt>
<totfact> 0.76792269E-01</totfact>
</mgrwt>
</event>
<event>
 4    1  0.2018023E-008  0.4549113E+04  0.7816531E-02  0.7902095E-01
          1   -1    0    0  501    0  0.00000000000E+00  0.00000000000E+00  0.32486833027E+04  0.32486833027E+04  0.00000000000E+00 0.  1.
         -1   -1    0    0    0  501 -0.00000000000E+00 -0.00000000000E+00 -0.15925240733E+04  0.15925240733E+04  0.00000000000E+00 0. -1.
    2000013    1    1    2    0    0  0.10982129903E+04  0.17506122940E+04  0.80703113282E+03  0.24134030798E+04  0.95000000000E+03 0.  0.
   -2000013    1    1    2    0    0 -0.10982129903E+04 -0.17506122940E+04  0.84912809665E+03  0.24278042962E+04  0.95000000000E+03 0.  0.
<mgrwt>
<rscale>  0 0.45491126E+04</rscale>
<asrwt>0</asrwt>
<pdfrwt beam="1">  1        1 0.49979743E+00 0.45491126E+04</pdfrwt>
<pdfrwt beam="2">  1       -1 0.24500370E+00 0.45491126E+04</pdfrwt>
<totfact> 0.21963335E-02</totfact>
</mgrwt>
</event>
<event>
 4    1  0.2018023E-008  0.2580929E+04  0.7816531E-02  0.8374708E-01
          2   -1    0    0  501    0  0.00000000000E+00  0.00000000000E+00  0.10582725246E+04  0.10582725246E+04  0.00000000000E+00 0.  1.
         -2   -1    0    0    0  501 -0.00000000000E+00 -0.00000000000E+00 -0.15736006876E+04  0.15736006876E+04  0.00000000000E+00 0. -1.
    2000013    1    1    2    0    0  0.38015382827E+03  0.38340528692E+02  0.54321168074E+03  0.11591228836E+04  0.95000000000E+03 0.  0.
   -2000013    1    1    2    0    0 -0.38015382827E+03 -0.38340528692E+02 -0.10585398437E+04  0.14727503285E+04  0.95000000000E+03 0.  0.
<mgrwt>
<rscale>  0 0.25809288E+04</rscale>
<asrwt>0</asrwt>
<pdfrwt beam="1">  1        2 0.16281116E+00 0.25809288E+04</pdfrwt>
<pdfrwt beam="2">  1       -2 0.24209241E+00 0.25809288E+04</pdfrwt>
<totfact> 0.14731979E+00</totfact>
</mgrwt>
</event>
<event>
 4    1  0.2018023E-008  0.2030530E+04  0.7816531E-02  0.8592479E-01
         -2   -1    0    0    0  501 -0.00000000000E+00  0.00000000000E+00  0.39385823251E+03  0.39385823251E+03  0.00000000000E+00 0. -1.
          2   -1    0    0  501    0  0.00000000000E+00 -0.00000000000E+00 -0.26170901946E+04  0.26170901946E+04  0.00000000000E+00 0.  1.
    2000013    1    1    2    0    0  0.12565901172E+03 -0.29658278941E+03 -0.87946295364E+03  0.13340564550E+04  0.95000000000E+03 0.  0.
   -2000013    1    1    2    0    0 -0.12565901172E+03  0.29658278941E+03 -0.13437690084E+04  0.16768919722E+04  0.95000000000E+03 0.  0.
<mgrwt>
<rscale>  0 0.20305295E+04</rscale>
<asrwt>0</asrwt>
<pdfrwt beam="2">  1        2 0.40262926E+00 0.20305295E+04</pdfrwt>
<pdfrwt beam="1">  1       -2 0.60593575E-01 0.20305295E+04</pdfrwt>
<totfact> 0.69954243E+00</totfact>
</mgrwt>
</event>
<event>
 4    1  0.2018023E-008  0.3562413E+04  0.7816531E-02  0.8099156E-01
          2   -1    0    0  501    0  0.00000000000E+00  0.00000000000E+00  0.25610733459E+04  0.25610733459E+04  0.00000000000E+00 0.  1.
         -2   -1    0    0    0  501 -0.00000000000E+00 -0.00000000000E+00 -0.12388154515E+04  0.12388154515E+04  0.00000000000E+00 0. -1.
    2000013    1    1    2    0    0 -0.16540973565E+03  0.14522939626E+04  0.27113458253E+03  0.17642369728E+04  0.95000000000E+03 0.  0.
   -2000013    1    1    2    0    0  0.16540973565E+03 -0.14522939626E+04  0.10511233119E+04  0.20356518246E+04  0.95000000000E+03 0.  0.
<mgrwt>
<rscale>  0 0.35624134E+04</rscale>
<asrwt>0</asrwt>
<pdfrwt beam="1">  1        2 0.39401128E+00 0.35624134E+04</pdfrwt>
<pdfrwt beam="2">  1       -2 0.19058699E+00 0.35624134E+04</pdfrwt>
<totfact> 0.40270800E-01</totfact>
</mgrwt>
</event>
<event>
 4    1  0.2018023E-008  0.2442224E+04  0.7816531E-02  0.8423863E-01
          1   -1    0    0  501    0  0.00000000000E+00  0.00000000000E+00  0.12517970008E+04  0.12517970008E+04  0.00000000000E+00 0.  1.
         -1   -1    0    0    0  501 -0.00000000000E+00 -0.00000000000E+00 -0.11911787626E+04  0.11911787626E+04  0.00000000000E+00 0. -1.
    2000013    1    1    2    0    0  0.52607876069E+03 -0.35908019224E+03  0.45812829401E+03  0.12321034781E+04  0.95000000000E+03 0.  0.
   -2000013    1    1    2    0    0 -0.52607876069E+03  0.35908019224E+03 -0.39751005588E+03  0.12108722853E+04  0.95000000000E+03 0.  0.
<mgrwt>
<rscale>  0 0.24422236E+04</rscale>
<asrwt>0</asrwt>
<pdfrwt beam="1">  1        1 0.19258415E+00 0.24422236E+04</pdfrwt>
<pdfrwt beam="2">  1       -1 0.18325827E+00 0.24422236E+04</pdfrwt>
<totfact> 0.17253443E+00</totfact>
</mgrwt>
</event>
<event>
 4    1  0.2018023E-008  0.2610339E+04  0.7816531E-02  0.8364698E-01
          2   -1    0    0  501    0  0.00000000000E+00  0.00000000000E+00  0.12927752087E+04  0.12927752087E+04  0.00000000000E+00 0.  1.
         -2   -1    0    0    0  501 -0.00000000000E+00 -0.00000000000E+00 -0.13176830205E+04  0.13176830205E+04  0.00000000000E+00 0. -1.
    2000013    1    1    2    0    0  0.35150139943E+03 -0.82290876551E+03 -0.27812718529E+02  0.13053756614E+04  0.95000000000E+03 0.  0.
   -2000013    1    1    2    0    0 -0.35150139943E+03  0.82290876551E+03  0.29049067906E+01  0.13050825677E+04  0.95000000000E+03 0.  0.
<mgrwt>
<rscale>  0 0.26103394E+04</rscale>
<asrwt>0</asrwt>
<pdfrwt beam="1">  1        2 0.19888849E+00 0.26103394E+04</pdfrwt>
<pdfrwt beam="2">  1       -2 0.20272047E+00 0.26103394E+04</pdfrwt>
<totfact> 0.18833459E+00</totfact>
</mgrwt>
</event>
<event>
 4    1  0.2018023E-008  0.2261924E+04  0.7816531E-02  0.8493087E-01
          2   -1    0    0  501    0  0.00000000000E+00  0.00000000000E+00  0.23319781558E+04  0.23319781558E+04  0.00000000000E+00 0.  1.
         -2   -1    0    0    0  501 -0.00000000000E+00 -0.00000000000E+00 -0.54849346613E+03  0.54849346613E+03  0.00000000000E+00 0. -1.
    2000013    1    1    2    0    0 -0.19801840453E+03 -0.54399052541E+03  0.63251310330E+03  0.12797303646E+04  0.95000000000E+03 0.  0.
   -2000013    1    1    2    0    0  0.19801840453E+03  0.54399052541E+03  0.11509715864E+04  0.16007412573E+04  0.95000000000E+03 0.  0.
<mgrwt>
<rscale>  0 0.22619238E+04</rscale>
<asrwt>0</asrwt>
<pdfrwt beam="1">  1        2 0.35876586E+00 0.22619238E+04</pdfrwt>
<pdfrwt beam="2">  1       -2 0.84383612E-01 0.22619238E+04</pdfrwt>
<totfact> 0.48432812E+00</totfact>
</mgrwt>
</event>
<event>
 4    1  0.2018023E-008  0.2172218E+04  0.7816531E-02  0.8530082E-01
          2   -1    0    0  501    0  0.00000000000E+00  0.00000000000E+00  0.14625837234E+04  0.14625837234E+04  0.00000000000E+00 0.  1.
         -2   -1    0    0    0  501 -0.00000000000E+00 -0.00000000000E+00 -0.80654003021E+03  0.80654003021E+03  0.00000000000E+00 0. -1.
    2000013    1    1    2    0    0  0.38823536309E+03  0.12143870190E+03  0.67708201394E+03  0.12354813269E+04  0.95000000000E+03 0.  0.
   -2000013    1    1    2    0    0 -0.38823536309E+03 -0.12143870190E+03 -0.21038320714E+02  0.10336424268E+04  0.95000000000E+03 0.  0.
<mgrwt>
<rscale>  0 0.21722176E+04</rscale>
<asrwt>0</asrwt>
<pdfrwt beam="1">  1        2 0.22501288E+00 0.21722176E+04</pdfrwt>
<pdfrwt beam="2">  1       -2 0.12408308E+00 0.21722176E+04</pdfrwt>
<totfact> 0.59651258E+00</totfact>
</mgrwt>
</event>
<event>
 4    1  0.2018023E-008  0.3705015E+04  0.7816531E-02  0.8066851E-01
         -2   -1    0    0    0  501 -0.00000000000E+00  0.00000000000E+00  0.14373933537E+04  0.14373933537E+04  0.00000000000E+00 0. -1.
          2   -1    0    0  501    0  0.00000000000E+00 -0.00000000000E+00 -0.23875057412E+04  0.23875057412E+04  0.00000000000E+00 0.  1.
    2000013    1    1    2    0    0  0.12690286297E+04 -0.93861992532E+03 -0.67588576256E+03  0.19623360037E+04  0.95000000000E+03 0.  0.
   -2000013    1    1    2    0    0 -0.12690286297E+04  0.93861992532E+03 -0.27422662495E+03  0.18625630913E+04  0.95000000000E+03 0.  0.
<mgrwt>
<rscale>  0 0.37050155E+04</rscale>
<asrwt>0</asrwt>
<pdfrwt beam="2">  1        2 0.36730857E+00 0.37050155E+04</pdfrwt>
<pdfrwt beam="1">  1       -2 0.22113744E+00 0.37050155E+04</pdfrwt>
<totfact> 0.31747338E-01</totfact>
</mgrwt>
</event>
<event>
 4    1  0.2018023E-008  0.1921091E+04  0.7816531E-02  0.8644429E-01
         -2   -1    0    0    0  501 -0.00000000000E+00  0.00000000000E+00  0.44381982185E+03  0.44381982185E+03  0.00000000000E+00 0.  1.
          2   -1    0    0  501    0  0.00000000000E+00 -0.00000000000E+00 -0.20788779214E+04  0.20788779214E+04  0.00000000000E+00 0. -1.
    2000013    1    1    2    0    0 -0.12851434944E+03  0.52878670888E+02 -0.85547768967E+03  0.12859448547E+04  0.95000000000E+03 0.  0.
   -2000013    1    1    2    0    0  0.12851434944E+03 -0.52878670888E+02 -0.77958040991E+03  0.12367528886E+04  0.95000000000E+03 0.  0.
<mgrwt>
<rscale>  0 0.19210906E+04</rscale>
<asrwt>0</asrwt>
<pdfrwt beam="2">  1        2 0.31982737E+00 0.19210906E+04</pdfrwt>
<pdfrwt beam="1">  1       -2 0.68279972E-01 0.19210906E+04</pdfrwt>
<totfact> 0.11078879E+01</totfact>
</mgrwt>
</event>
<event>
 4    1  0.2018023E-008  0.2420994E+04  0.7816531E-02  0.8431685E-01
         -2   -1    0    0    0  501 -0.00000000000E+00  0.00000000000E+00  0.89922216413E+03  0.89922216413E+03  0.00000000000E+00 0. -1.
          2   -1    0    0  501    0  0.00000000000E+00 -0.00000000000E+00 -0.16295229563E+04  0.16295229563E+04  0.00000000000E+00 0.  1.
    2000013    1    1    2    0    0  0.68816204505E+03  0.25882088860E+03 -0.52094624997E+03  0.13093663536E+04  0.95000000000E+03 0.  0.
   -2000013    1    1    2    0    0 -0.68816204505E+03 -0.25882088860E+03 -0.20935454221E+03  0.12193787668E+04  0.95000000000E+03 0.  0.
<mgrwt>
<rscale>  0 0.24209941E+04</rscale>
<asrwt>0</asrwt>
<pdfrwt beam="2">  1        2 0.25069584E+00 0.24209941E+04</pdfrwt>
<pdfrwt beam="1">  1       -2 0.13834187E+00 0.24209941E+04</pdfrwt>
<totfact> 0.35707088E+00</totfact>
</mgrwt>
</event>
<event>
 4    1  0.2018023E-008  0.2210387E+04  0.7816531E-02  0.8514117E-01
         -1   -1    0    0    0  501 -0.00000000000E+00  0.00000000000E+00  0.94420637551E+03  0.94420637551E+03  0.00000000000E+00 0. -1.
          1   -1    0    0  501    0  0.00000000000E+00 -0.00000000000E+00 -0.12936292463E+04  0.12936292463E+04  0.00000000000E+00 0.  1.
    2000013    1    1    2    0    0 -0.34723467064E+03  0.51660185015E+01  0.27618905210E+03  0.10485127547E+04  0.95000000000E+03 0.  0.
   -2000013    1    1    2    0    0  0.34723467064E+03 -0.51660185015E+01 -0.62561192294E+03  0.11893228672E+04  0.95000000000E+03 0.  0.
<mgrwt>
<rscale>  0 0.22103873E+04</rscale>
<asrwt>0</asrwt>
<pdfrwt beam="2">  1        1 0.19901988E+00 0.22103873E+04</pdfrwt>
<pdfrwt beam="1">  1       -1 0.14526252E+00 0.22103873E+04</pdfrwt>
<totfact> 0.31664194E+00</totfact>
</mgrwt>
</event>
<event>
 4    1  0.2018023E-008  0.2780408E+04  0.7816531E-02  0.8309377E-01
          2   -1    0    0  501    0  0.00000000000E+00  0.00000000000E+00  0.11566935700E+04  0.11566935700E+04  0.00000000000E+00 0. -1.
         -2   -1    0    0    0  501 -0.00000000000E+00 -0.00000000000E+00 -0.16708545779E+04  0.16708545779E+04  0.00000000000E+00 0.  1.
    2000013    1    1    2    0    0 -0.75042057536E+03 -0.56074465106E+03 -0.65434560933E+03  0.14860127119E+04  0.95000000000E+03 0.  0.
   -2000013    1    1    2    0    0  0.75042057536E+03  0.56074465106E+03  0.14018460145E+03  0.13415354360E+04  0.95000000000E+03 0.  0.
<mgrwt>
<rscale>  0 0.27804077E+04</rscale>
<asrwt>0</asrwt>
<pdfrwt beam="1">  1        2 0.17795286E+00 0.27804077E+04</pdfrwt>
<pdfrwt beam="2">  1       -2 0.25705455E+00 0.27804077E+04</pdfrwt>
<totfact> 0.10194965E+00</totfact>
</mgrwt>
</event>
<event>
 4    1  0.2018023E-008  0.3679350E+04  0.7816531E-02  0.8072554E-01
         -2   -1    0    0    0  501 -0.00000000000E+00  0.00000000000E+00  0.10531899975E+04  0.10531899975E+04  0.00000000000E+00 0. -1.
          2   -1    0    0  501    0  0.00000000000E+00 -0.00000000000E+00 -0.32134795703E+04  0.32134795703E+04  0.00000000000E+00 0.  1.
    2000013    1    1    2    0    0 -0.12115843774E+04  0.57947133578E+03 -0.12517280914E+03  0.16498157366E+04  0.95000000000E+03 0.  0.
   -2000013    1    1    2    0    0  0.12115843774E+04 -0.57947133578E+03 -0.20351167636E+04  0.26168538312E+04  0.95000000000E+03 0.  0.
<mgrwt>
<rscale>  0 0.36793502E+04</rscale>
<asrwt>0</asrwt>
<pdfrwt beam="2">  1        2 0.49438147E+00 0.36793502E+04</pdfrwt>
<pdfrwt beam="1">  1       -2 0.16202923E+00 0.36793502E+04</pdfrwt>
<totfact> 0.25014821E-01</totfact>
</mgrwt>
</event>
<event>
 4    1  0.2018023E-008  0.2674480E+04  0.7816531E-02  0.8343333E-01
          1   -1    0    0  501    0  0.00000000000E+00  0.00000000000E+00  0.88439280153E+03  0.88439280153E+03  0.00000000000E+00 0.  1.
         -1   -1    0    0    0  501 -0.00000000000E+00 -0.00000000000E+00 -0.20219647224E+04  0.20219647224E+04  0.00000000000E+00 0. -1.
    2000013    1    1    2    0    0  0.16823497375E+03 -0.85342059367E+03 -0.17835758808E+03  0.13003619286E+04  0.95000000000E+03 0.  0.
   -2000013    1    1    2    0    0 -0.16823497375E+03  0.85342059367E+03 -0.95921433283E+03  0.16059955954E+04  0.95000000000E+03 0.  0.
<mgrwt>
<rscale>  0 0.26744802E+04</rscale>
<asrwt>0</asrwt>
<pdfrwt beam="1">  1        1 0.13606043E+00 0.26744802E+04</pdfrwt>
<pdfrwt beam="2">  1       -1 0.31107149E+00 0.26744802E+04</pdfrwt>
<totfact> 0.45900005E-01</totfact>
</mgrwt>
</event>
<event>
 4    1  0.2018023E-008  0.2158796E+04  0.7816531E-02  0.8535776E-01
          2   -1    0    0  501    0  0.00000000000E+00  0.00000000000E+00  0.23445446179E+04  0.23445446179E+04  0.00000000000E+00 0. -1.
         -2   -1    0    0    0  501 -0.00000000000E+00 -0.00000000000E+00 -0.49694106021E+03  0.49694106021E+03  0.00000000000E+00 0.  1.
    2000013    1    1    2    0    0  0.41089472490E+02 -0.48678110652E+03  0.11275264542E+04  0.15532096109E+04  0.95000000000E+03 0.  0.
   -2000013    1    1    2    0    0 -0.41089472490E+02  0.48678110652E+03  0.72007710348E+03  0.12882760672E+04  0.95000000000E+03 0.  0.
<mgrwt>
<rscale>  0 0.21587964E+04</rscale>
<asrwt>0</asrwt>
<pdfrwt beam="1">  1        2 0.36069917E+00 0.21587964E+04</pdfrwt>
<pdfrwt beam="2">  1       -2 0.76452472E-01 0.21587964E+04</pdfrwt>
<totfact> 0.60014343E+00</totfact>
</mgrwt>
</event>
<event>
 4    1  0.2018023E-008  0.2164762E+04  0.7816531E-02  0.8533240E-01
          2   -1    0    0  501    0  0.00000000000E+00  0.00000000000E+00  0.24378955462E+04  0.24378955462E+04  0.00000000000E+00 0.  1.
         -2   -1    0    0    0  501 -0.00000000000E+00 -0.00000000000E+00 -0.48055718005E+03  0.48055718005E+03  0.00000000000E+00 0. -1.
    2000013    1    1    2    0    0 -0.48082230074E+03 -0.17984416512E+03  0.10787806568E+04  0.15263688002E+04  0.95000000000E+03 0.  0.
   -2000013    1    1    2    0    0  0.48082230074E+03  0.17984416512E+03  0.87855770932E+03  0.13920839261E+04  0.95000000000E+03 0.  0.
<mgrwt>
<rscale>  0 0.21647616E+04</rscale>
<asrwt>0</asrwt>
<pdfrwt beam="1">  1        2 0.37506085E+00 0.21647616E+04</pdfrwt>
<pdfrwt beam="2">  1       -2 0.73931875E-01 0.21647616E+04</pdfrwt>
<totfact> 0.57138374E+00</totfact>
</mgrwt>
</event>
<event>
 4    1  0.2018023E-008  0.2601179E+04  0.7816531E-02  0.8367801E-01
          1   -1    0    0  501    0  0.00000000000E+00  0.00000000000E+00  0.27299580505E+04  0.27299580505E+04  0.00000000000E+00 0.  1.
         -1   -1    0    0    0  501 -0.00000000000E+00 -0.00000000000E+00 -0.61961878870E+03  0.61961878870E+03  0.00000000000E+00 0. -1.
    2000013    1    1    2    0    0  0.12475891974E+03 -0.81038395811E+03  0.61518112189E+03  0.13975817544E+04  0.95000000000E+03 0.  0.
   -2000013    1    1    2    0    0 -0.12475891974E+03  0.81038395811E+03  0.14951581400E+04  0.19519950848E+04  0.95000000000E+03 0.  0.
<mgrwt>
<rscale>  0 0.26011792E+04</rscale>
<asrwt>0</asrwt>
<pdfrwt beam="1">  1        1 0.41999354E+00 0.26011792E+04</pdfrwt>
<pdfrwt beam="2">  1       -1 0.95325969E-01 0.26011792E+04</pdfrwt>
<totfact> 0.87422816E-01</totfact>
</mgrwt>
</event>
<event>
 4    1  0.2018023E-008  0.3295425E+04  0.7816531E-02  0.8164060E-01
          1   -1    0    0  501    0  0.00000000000E+00  0.00000000000E+00  0.20597875967E+04  0.20597875967E+04  0.00000000000E+00 0.  1.
         -1   -1    0    0    0  501 -0.00000000000E+00 -0.00000000000E+00 -0.13180759935E+04  0.13180759935E+04  0.00000000000E+00 0. -1.
    2000013    1    1    2    0    0  0.12381784653E+04 -0.11392486195E+03  0.89989894565E+03  0.18050991381E+04  0.95000000000E+03 0.  0.
   -2000013    1    1    2    0    0 -0.12381784653E+04  0.11392486195E+03 -0.15818734245E+03  0.15727644520E+04  0.95000000000E+03 0.  0.
<mgrwt>
<rscale>  0 0.32954251E+04</rscale>
<asrwt>0</asrwt>
<pdfrwt beam="1">  1        1 0.31689040E+00 0.32954251E+04</pdfrwt>
<pdfrwt beam="2">  1       -1 0.20278092E+00 0.32954251E+04</pdfrwt>
<totfact> 0.32439179E-01</totfact>
</mgrwt>
</event>
<event>
 4    1  0.2018023E-008  0.2106995E+04  0.7816531E-02  0.8558168E-01
         -2   -1    0    0    0  501 -0.00000000000E+00  0.00000000000E+00  0.88077048329E+03  0.88077048329E+03  0.00000000000E+00 0. -1.
          2   -1    0    0  501    0  0.00000000000E+00 -0.00000000000E+00 -0.12600983676E+04  0.12600983676E+04  0.00000000000E+00 0.  1.
    2000013    1    1    2    0    0 -0.27811119138E+03  0.36057073897E+03 -0.19026988166E+03  0.10705417883E+04  0.95000000000E+03 0.  0.
   -2000013    1    1    2    0    0  0.27811119138E+03 -0.36057073897E+03 -0.18905800263E+03  0.10703270626E+04  0.95000000000E+03 0.  0.
<mgrwt>
<rscale>  0 0.21069954E+04</rscale>
<asrwt>0</asrwt>
<pdfrwt beam="2">  1        2 0.19386129E+00 0.21069954E+04</pdfrwt>
<pdfrwt beam="1">  1       -2 0.13550315E+00 0.21069954E+04</pdfrwt>
<totfact> 0.62802544E+00</totfact>
</mgrwt>
</event>
<event>
 4    1  0.2018023E-008  0.2688793E+04  0.7816531E-02  0.8338650E-01
         -2   -1    0    0    0  501 -0.00000000000E+00  0.00000000000E+00  0.11907539161E+04  0.11907539161E+04  0.00000000000E+00 0. -1.
          2   -1    0    0  501    0  0.00000000000E+00 -0.00000000000E+00 -0.15178640316E+04  0.15178640316E+04  0.00000000000E+00 0.  1.
    2000013    1    1    2    0    0 -0.70377937845E+03  0.40164112833E+03 -0.66550743888E+03  0.14149279701E+04  0.95000000000E+03 0.  0.
   -2000013    1    1    2    0    0  0.70377937845E+03 -0.40164112833E+03  0.33839732333E+03  0.12936899775E+04  0.95000000000E+03 0.  0.
<mgrwt>
<rscale>  0 0.26887934E+04</rscale>
<asrwt>0</asrwt>
<pdfrwt beam="2">  1        2 0.23351754E+00 0.26887934E+04</pdfrwt>
<pdfrwt beam="1">  1       -2 0.18319291E+00 0.26887934E+04</pdfrwt>
<totfact> 0.18775948E+00</totfact>
</mgrwt>
</event>
<event>
 4    1  0.2018023E-008  0.2979106E+04  0.7816531E-02  0.8249722E-01
         -1   -1    0    0    0  501 -0.00000000000E+00  0.00000000000E+00  0.28732581227E+04  0.28732581227E+04  0.00000000000E+00 0.  1.
          1   -1    0    0  501    0  0.00000000000E+00 -0.00000000000E+00 -0.77221354440E+03  0.77221354440E+03  0.00000000000E+00 0. -1.
    2000013    1    1    2    0    0  0.10125403119E+04 -0.48001967891E+03  0.13517862885E+04  0.19963674374E+04  0.95000000000E+03 0.  0.
   -2000013    1    1    2    0    0 -0.10125403119E+04  0.48001967891E+03  0.74925828975E+03  0.16491042296E+04  0.95000000000E+03 0.  0.
<mgrwt>
<rscale>  0 0.29791065E+04</rscale>
<asrwt>0</asrwt>
<pdfrwt beam="2">  1        1 0.11880208E+00 0.29791065E+04</pdfrwt>
<pdfrwt beam="1">  1       -1 0.44203971E+00 0.29791065E+04</pdfrwt>
<totfact> 0.73162023E-02</totfact>
</mgrwt>
</event>
<event>
 4    1  0.2018023E-008  0.2467982E+04  0.7816531E-02  0.8414482E-01
          2   -1    0    0  501    0  0.00000000000E+00  0.00000000000E+00  0.12190643122E+04  0.12190643122E+04  0.00000000000E+00 0.  1.
         -2   -1    0    0    0  501 -0.00000000000E+00 -0.00000000000E+00 -0.12491006722E+04  0.12491006722E+04  0.00000000000E+00 0. -1.
    2000013    1    1    2    0    0 -0.39745409098E+03  0.37604754238E+03 -0.58149860127E+03  0.12409762817E+04  0.95000000000E+03 0.  0.
   -2000013    1    1    2    0    0  0.39745409098E+03 -0.37604754238E+03  0.55146224128E+03  0.12271887027E+04  0.95000000000E+03 0.  0.
<mgrwt>
<rscale>  0 0.24679822E+04</rscale>
<asrwt>0</asrwt>
<pdfrwt beam="1">  1        2 0.18754836E+00 0.24679822E+04</pdfrwt>
<pdfrwt beam="2">  1       -2 0.19216933E+00 0.24679822E+04</pdfrwt>
<totfact> 0.24732213E+00</totfact>
</mgrwt>
</event>
<event>
 4    1  0.2018023E-008  0.2168122E+04  0.7816531E-02  0.8531815E-01
         -2   -1    0    0    0  501 -0.00000000000E+00  0.00000000000E+00  0.44437416498E+03  0.44437416498E+03  0.00000000000E+00 0. -1.
          2   -1    0    0  501    0  0.00000000000E+00 -0.00000000000E+00 -0.26445925294E+04  0.26445925294E+04  0.00000000000E+00 0.  1.
    2000013    1    1    2    0    0 -0.78958054922E+02 -0.41558766447E+03 -0.66390029990E+03  0.12337791899E+04  0.95000000000E+03 0.  0.
   -2000013    1    1    2    0    0  0.78958054922E+02  0.41558766447E+03 -0.15363180646E+04  0.18551875045E+04  0.95000000000E+03 0.  0.
<mgrwt>
<rscale>  0 0.21681223E+04</rscale>
<asrwt>0</asrwt>
<pdfrwt beam="2">  1        2 0.40686038E+00 0.21681223E+04</pdfrwt>
<pdfrwt beam="1">  1       -2 0.68365257E-01 0.21681223E+04</pdfrwt>
<totfact> 0.51400916E+00</totfact>
</mgrwt>
</event>
<event>
 4    1  0.2018023E-008  0.3030238E+04  0.7816531E-02  0.8235148E-01
          2   -1    0    0  501    0  0.00000000000E+00  0.00000000000E+00  0.21907658435E+04  0.21907658435E+04  0.00000000000E+00 0.  1.
         -2   -1    0    0    0  501 -0.00000000000E+00 -0.00000000000E+00 -0.10478463825E+04  0.10478463825E+04  0.00000000000E+00 0. -1.
    2000013    1    1    2    0    0 -0.86613530645E+03  0.35082101499E+02 -0.28466357809E+03  0.13171767063E+04  0.95000000000E+03 0.  0.
   -2000013    1    1    2    0    0  0.86613530645E+03 -0.35082101499E+02  0.14275830391E+04  0.19214355197E+04  0.95000000000E+03 0.  0.
<mgrwt>
<rscale>  0 0.30302383E+04</rscale>
<asrwt>0</asrwt>
<pdfrwt beam="1">  1        2 0.33704090E+00 0.30302383E+04</pdfrwt>
<pdfrwt beam="2">  1       -2 0.16120714E+00 0.30302383E+04</pdfrwt>
<totfact> 0.11012165E+00</totfact>
</mgrwt>
</event>
<event>
 4    1  0.2018023E-008  0.2181310E+04  0.7816531E-02  0.8526248E-01
          2   -1    0    0  501    0  0.00000000000E+00  0.00000000000E+00  0.10253063726E+04  0.10253063726E+04  0.00000000000E+00 0.  1.
         -2   -1    0    0    0  501 -0.00000000000E+00 -0.00000000000E+00 -0.11601683723E+04  0.11601683723E+04  0.00000000000E+00 0. -1.
    2000013    1    1    2    0    0 -0.45934831852E+03 -0.23484843660E+03 -0.21218302006E+03  0.11016697781E+04  0.95000000000E+03 0.  0.
   -2000013    1    1    2    0    0  0.45934831852E+03  0.23484843660E+03  0.77321020403E+02  0.10838049668E+04  0.95000000000E+03 0.  0.
<mgrwt>
<rscale>  0 0.21813097E+04</rscale>
<asrwt>0</asrwt>
<pdfrwt beam="1">  1        2 0.15773944E+00 0.21813097E+04</pdfrwt>
<pdfrwt beam="2">  1       -2 0.17848744E+00 0.21813097E+04</pdfrwt>
<totfact> 0.41258324E+00</totfact>
</mgrwt>
</event>
<event>
 4    1  0.2018023E-008  0.2546210E+04  0.7816531E-02  0.8386705E-01
          2   -1    0    0  501    0  0.00000000000E+00  0.00000000000E+00  0.13859917132E+04  0.13859917132E+04  0.00000000000E+00 0.  1.
         -2   -1    0    0    0  501 -0.00000000000E+00 -0.00000000000E+00 -0.11694129223E+04  0.11694129223E+04  0.00000000000E+00 0. -1.
    2000013    1    1    2    0    0 -0.74769866997E+03  0.11935652773E+03 -0.27387078704E+03  0.12453130088E+04  0.95000000000E+03 0.  0.
   -2000013    1    1    2    0    0  0.74769866997E+03 -0.11935652773E+03  0.49044957798E+03  0.13100916267E+04  0.95000000000E+03 0.  0.
<mgrwt>
<rscale>  0 0.25462102E+04</rscale>
<asrwt>0</asrwt>
<pdfrwt beam="1">  1        2 0.21322949E+00 0.25462102E+04</pdfrwt>
<pdfrwt beam="2">  1       -2 0.17990968E+00 0.25462102E+04</pdfrwt>
<totfact> 0.23785568E+00</totfact>
</mgrwt>
</event>
<event>
 4    1  0.2018023E-008  0.4206945E+04  0.7816531E-02  0.7964052E-01
          2   -1    0    0  501    0  0.00000000000E+00  0.00000000000E+00  0.23742503976E+04  0.23742503976E+04  0.00000000000E+00 0.  1.
         -2   -1    0    0    0  501 -0.00000000000E+00 -0.00000000000E+00 -0.18635761086E+04  0.18635761086E+04  0.00000000000E+00 0. -1.
    2000013    1    1    2    0    0 -0.62973922283E+03 -0.10864484627E+04 -0.11495887239E+04  0.19496143170E+04  0.95000000000E+03 0.  0.
   -2000013    1    1    2    0    0  0.62973922283E+03  0.10864484627E+04  0.16602630129E+04  0.22882121892E+04  0.95000000000E+03 0.  0.
<mgrwt>
<rscale>  0 0.42069449E+04</rscale>
<asrwt>0</asrwt>
<pdfrwt beam="1">  1        2 0.36526929E+00 0.42069449E+04</pdfrwt>
<pdfrwt beam="2">  1       -2 0.28670402E+00 0.42069449E+04</pdfrwt>
<totfact> 0.12229782E-01</totfact>
</mgrwt>
</event>
<event>
 4    1  0.2018023E-008  0.2146370E+04  0.7816531E-02  0.8541088E-01
          2   -1    0    0  501    0  0.00000000000E+00  0.00000000000E+00  0.93876543661E+03  0.93876543661E+03  0.00000000000E+00 0. -1.
         -2   -1    0    0    0  501 -0.00000000000E+00 -0.00000000000E+00 -0.12268518865E+04  0.12268518865E+04  0.00000000000E+00 0.  1.
    2000013    1    1    2    0    0 -0.31561284358E+03 -0.38528449359E+03 -0.10952328530E+03  0.10782165636E+04  0.95000000000E+03 0.  0.
   -2000013    1    1    2    0    0  0.31561284358E+03  0.38528449359E+03 -0.17856316462E+03  0.10874007595E+04  0.95000000000E+03 0.  0.
<mgrwt>
<rscale>  0 0.21463701E+04</rscale>
<asrwt>0</asrwt>
<pdfrwt beam="1">  1        2 0.14442545E+00 0.21463701E+04</pdfrwt>
<pdfrwt beam="2">  1       -2 0.18874644E+00 0.21463701E+04</pdfrwt>
<totfact> 0.40059737E+00</totfact>
</mgrwt>
</event>
<event>
 4    1  0.2018023E-008  0.2054177E+04  0.7816531E-02  0.8581702E-01
          2   -1    0    0  501    0  0.00000000000E+00  0.00000000000E+00  0.66642573910E+03  0.66642573910E+03  0.00000000000E+00 0.  1.
         -2   -1    0    0    0  501 -0.00000000000E+00 -0.00000000000E+00 -0.15829378605E+04  0.15829378605E+04  0.00000000000E+00 0. -1.
    2000013    1    1    2    0    0 -0.31261515941E+03 -0.21532923615E+03 -0.55811088707E+03  0.11653680449E+04  0.95000000000E+03 0.  0.
   -2000013    1    1    2    0    0  0.31261515941E+03  0.21532923615E+03 -0.35840123434E+03  0.10839955547E+04  0.95000000000E+03 0.  0.
<mgrwt>
<rscale>  0 0.20541768E+04</rscale>
<asrwt>0</asrwt>
<pdfrwt beam="1">  1        2 0.10252704E+00 0.20541768E+04</pdfrwt>
<pdfrwt beam="2">  1       -2 0.24352890E+00 0.20541768E+04</pdfrwt>
<totfact> 0.28393771E+00</totfact>
</mgrwt>
</event>
<event>
 4    1  0.2018023E-008  0.2785220E+04  0.7816531E-02  0.8307872E-01
          1   -1    0    0  501    0  0.00000000000E+00  0.00000000000E+00  0.18370742588E+04  0.18370742588E+04  0.00000000000E+00 0.  1.
         -1   -1    0    0    0  501 -0.00000000000E+00 -0.00000000000E+00 -0.10556798275E+04  0.10556798275E+04  0.00000000000E+00 0. -1.
    2000013    1    1    2    0    0  0.67633905248E+03 -0.70369165501E+03  0.69215473684E+03  0.15278071341E+04  0.95000000000E+03 0.  0.
   -2000013    1    1    2    0    0 -0.67633905248E+03  0.70369165501E+03  0.89239694503E+02  0.13649469522E+04  0.95000000000E+03 0.  0.
<mgrwt>
<rscale>  0 0.27852197E+04</rscale>
<asrwt>0</asrwt>
<pdfrwt beam="1">  1        1 0.28262681E+00 0.27852197E+04</pdfrwt>
<pdfrwt beam="2">  1       -1 0.16241228E+00 0.27852197E+04</pdfrwt>
<totfact> 0.93381101E-01</totfact>
</mgrwt>
</event>
<event>
 4    1  0.2018023E-008  0.3952550E+04  0.7816531E-02  0.8014188E-01
          2   -1    0    0  501    0  0.00000000000E+00  0.00000000000E+00  0.24385630182E+04  0.24385630182E+04  0.00000000000E+00 0.  1.
         -2   -1    0    0    0  501 -0.00000000000E+00 -0.00000000000E+00 -0.16016248784E+04  0.16016248784E+04  0.00000000000E+00 0. -1.
    2000013    1    1    2    0    0  0.17118033063E+04 -0.93785555870E+02  0.67725622198E+03  0.20737025534E+04  0.95000000000E+03 0.  0.
   -2000013    1    1    2    0    0 -0.17118033063E+04  0.93785555870E+02  0.15968191780E+03  0.19664853431E+04  0.95000000000E+03 0.  0.
<mgrwt>
<rscale>  0 0.39525502E+04</rscale>
<asrwt>0</asrwt>
<pdfrwt beam="1">  1        2 0.37516354E+00 0.39525502E+04</pdfrwt>
<pdfrwt beam="2">  1       -2 0.24640383E+00 0.39525502E+04</pdfrwt>
<totfact> 0.20231398E-01</totfact>
</mgrwt>
</event>
<event>
 4    1  0.2018023E-008  0.2153944E+04  0.7816531E-02  0.8537846E-01
          1   -1    0    0  501    0  0.00000000000E+00  0.00000000000E+00  0.10181808267E+04  0.10181808267E+04  0.00000000000E+00 0.  1.
         -1   -1    0    0    0  501 -0.00000000000E+00 -0.00000000000E+00 -0.11391576064E+04  0.11391576064E+04  0.00000000000E+00 0. -1.
    2000013    1    1    2    0    0 -0.41520989032E+03 -0.24603690790E+03  0.96075020663E+02  0.10698896311E+04  0.95000000000E+03 0.  0.
   -2000013    1    1    2    0    0  0.41520989032E+03  0.24603690790E+03 -0.21705180038E+03  0.10874488021E+04  0.95000000000E+03 0.  0.
<mgrwt>
<rscale>  0 0.21539438E+04</rscale>
<asrwt>0</asrwt>
<pdfrwt beam="1">  1        1 0.15664320E+00 0.21539438E+04</pdfrwt>
<pdfrwt beam="2">  1       -1 0.17525502E+00 0.21539438E+04</pdfrwt>
<totfact> 0.30193551E+00</totfact>
</mgrwt>
</event>
<event>
 4    1  0.2018023E-008  0.3189034E+04  0.7816531E-02  0.8191719E-01
          2   -1    0    0  501    0  0.00000000000E+00  0.00000000000E+00  0.36651679672E+04  0.36651679672E+04  0.00000000000E+00 0.  1.
         -2   -1    0    0    0  501 -0.00000000000E+00 -0.00000000000E+00 -0.69368858520E+03  0.69368858520E+03  0.00000000000E+00 0. -1.
    2000013    1    1    2    0    0 -0.13444979258E+03  0.10434966442E+04  0.24836383003E+04  0.28597064885E+04  0.95000000000E+03 0.  0.
   -2000013    1    1    2    0    0  0.13444979258E+03 -0.10434966442E+04  0.48784108167E+03  0.14991500639E+04  0.95000000000E+03 0.  0.
<mgrwt>
<rscale>  0 0.31890345E+04</rscale>
<asrwt>0</asrwt>
<pdfrwt beam="1">  1        2 0.56387198E+00 0.31890345E+04</pdfrwt>
<pdfrwt beam="2">  1       -2 0.10672132E+00 0.31890345E+04</pdfrwt>
<totfact> 0.36836870E-01</totfact>
</mgrwt>
</event>
<event>
 4    1  0.2018023E-008  0.2733242E+04  0.7816531E-02  0.8324299E-01
          2   -1    0    0  501    0  0.00000000000E+00  0.00000000000E+00  0.31423565679E+04  0.31423565679E+04  0.00000000000E+00 0.  1.
         -2   -1    0    0    0  501 -0.00000000000E+00 -0.00000000000E+00 -0.59434801059E+03  0.59434801059E+03  0.00000000000E+00 0. -1.
    2000013    1    1    2    0    0  0.12359360179E+03 -0.97227155719E+03  0.13663845671E+04  0.19313451645E+04  0.95000000000E+03 0.  0.
   -2000013    1    1    2    0    0 -0.12359360179E+03  0.97227155719E+03  0.11816239902E+04  0.18053594139E+04  0.95000000000E+03 0.  0.
<mgrwt>
<rscale>  0 0.27332423E+04</rscale>
<asrwt>0</asrwt>
<pdfrwt beam="1">  1        2 0.48343946E+00 0.27332423E+04</pdfrwt>
<pdfrwt beam="2">  1       -2 0.91438158E-01 0.27332423E+04</pdfrwt>
<totfact> 0.12594898E+00</totfact>
</mgrwt>
</event>
<event>
 4    1  0.2018023E-008  0.3391529E+04  0.7816531E-02  0.8139989E-01
          2   -1    0    0  501    0  0.00000000000E+00  0.00000000000E+00  0.22157740215E+04  0.22157740215E+04  0.00000000000E+00 0. -1.
         -2   -1    0    0    0  501 -0.00000000000E+00 -0.00000000000E+00 -0.12977934038E+04  0.12977934038E+04  0.00000000000E+00 0.  1.
    2000013    1    1    2    0    0  0.62130745268E+03 -0.10787721071E+04  0.11330523099E+04  0.19328941375E+04  0.95000000000E+03 0.  0.
   -2000013    1    1    2    0    0 -0.62130745268E+03  0.10787721071E+04 -0.21507169226E+03  0.15806732878E+04  0.95000000000E+03 0.  0.
<mgrwt>
<rscale>  0 0.33915288E+04</rscale>
<asrwt>0</asrwt>
<pdfrwt beam="1">  1        2 0.34088831E+00 0.33915288E+04</pdfrwt>
<pdfrwt beam="2">  1       -2 0.19966052E+00 0.33915288E+04</pdfrwt>
<totfact> 0.56070426E-01</totfact>
</mgrwt>
</event>
<event>
 4    1  0.2018023E-008  0.2709223E+04  0.7816531E-02  0.8332019E-01
          2   -1    0    0  501    0  0.00000000000E+00  0.00000000000E+00  0.31575185487E+04  0.31575185487E+04  0.00000000000E+00 0.  1.
         -2   -1    0    0    0  501 -0.00000000000E+00 -0.00000000000E+00 -0.58114366507E+03  0.58114366507E+03  0.00000000000E+00 0. -1.
    2000013    1    1    2    0    0 -0.59353268048E+03 -0.75570877904E+03  0.14197933156E+04  0.19600229234E+04  0.95000000000E+03 0.  0.
   -2000013    1    1    2    0    0  0.59353268048E+03  0.75570877904E+03  0.11565815681E+04  0.17786392903E+04  0.95000000000E+03 0.  0.
<mgrwt>
<rscale>  0 0.27092227E+04</rscale>
<asrwt>0</asrwt>
<pdfrwt beam="1">  1        2 0.48577207E+00 0.27092227E+04</pdfrwt>
<pdfrwt beam="2">  1       -2 0.89406720E-01 0.27092227E+04</pdfrwt>
<totfact> 0.12996682E+00</totfact>
</mgrwt>
</event>
<event>
 4    1  0.2018023E-008  0.2968356E+04  0.7816531E-02  0.8252825E-01
          2   -1    0    0  501    0  0.00000000000E+00  0.00000000000E+00  0.46219808873E+04  0.46219808873E+04  0.00000000000E+00 0.  1.
         -2   -1    0    0    0  501 -0.00000000000E+00 -0.00000000000E+00 -0.47658882544E+03  0.47658882544E+03  0.00000000000E+00 0. -1.
    2000013    1    1    2    0    0  0.75635185393E+03  0.78572047151E+03  0.26445947570E+04  0.30142671108E+04  0.95000000000E+03 0.  0.
   -2000013    1    1    2    0    0 -0.75635185393E+03 -0.78572047151E+03  0.15007973048E+04  0.20843026019E+04  0.95000000000E+03 0.  0.
<mgrwt>
<rscale>  0 0.29683561E+04</rscale>
<asrwt>0</asrwt>
<pdfrwt beam="1">  1        2 0.71107395E+00 0.29683561E+04</pdfrwt>
<pdfrwt beam="2">  1       -2 0.73321361E-01 0.29683561E+04</pdfrwt>
<totfact> 0.13359973E-01</totfact>
</mgrwt>
</event>
<event>
 4    1  0.2018023E-008  0.2577236E+04  0.7816531E-02  0.8375975E-01
          2   -1    0    0  501    0  0.00000000000E+00  0.00000000000E+00  0.12256559284E+04  0.12256559284E+04  0.00000000000E+00 0.  1.
         -2   -1    0    0    0  501 -0.00000000000E+00 -0.00000000000E+00 -0.13548144945E+04  0.13548144945E+04  0.00000000000E+00 0. -1.
    2000013    1    1    2    0    0  0.59886355351E+03  0.36430793950E+03  0.45247811931E+03  0.12643552819E+04  0.95000000000E+03 0.  0.
   -2000013    1    1    2    0    0 -0.59886355351E+03 -0.36430793950E+03 -0.58163668543E+03  0.13161151410E+04  0.95000000000E+03 0.  0.
<mgrwt>
<rscale>  0 0.25772361E+04</rscale>
<asrwt>0</asrwt>
<pdfrwt beam="1">  1        2 0.18856245E+00 0.25772361E+04</pdfrwt>
<pdfrwt beam="2">  1       -2 0.20843300E+00 0.25772361E+04</pdfrwt>
<totfact> 0.18992120E+00</totfact>
</mgrwt>
</event>
<event>
 4    1  0.2018023E-008  0.3244455E+04  0.7816531E-02  0.8177174E-01
          2   -1    0    0  501    0  0.00000000000E+00  0.00000000000E+00  0.15929220528E+04  0.15929220528E+04  0.00000000000E+00 0.  1.
         -2   -1    0    0    0  501 -0.00000000000E+00 -0.00000000000E+00 -0.16520722398E+04  0.16520722398E+04  0.00000000000E+00 0. -1.
    2000013    1    1    2    0    0 -0.11632789161E+04 -0.25506298735E+03  0.52805440482E+03  0.16123326017E+04  0.95000000000E+03 0.  0.
   -2000013    1    1    2    0    0  0.11632789161E+04  0.25506298735E+03 -0.58720459182E+03  0.16326616908E+04  0.95000000000E+03 0.  0.
<mgrwt>
<rscale>  0 0.32444551E+04</rscale>
<asrwt>0</asrwt>
<pdfrwt beam="1">  1        2 0.24506493E+00 0.32444551E+04</pdfrwt>
<pdfrwt beam="2">  1       -2 0.25416496E+00 0.32444551E+04</pdfrwt>
<totfact> 0.57204362E-01</totfact>
</mgrwt>
</event>
<event>
 4    1  0.2018023E-008  0.2726703E+04  0.7816531E-02  0.8326392E-01
          2   -1    0    0  501    0  0.00000000000E+00  0.00000000000E+00  0.21968125674E+04  0.21968125674E+04  0.00000000000E+00 0.  1.
         -2   -1    0    0    0  501 -0.00000000000E+00 -0.00000000000E+00 -0.84610189133E+03  0.84610189133E+03  0.00000000000E+00 0. -1.
    2000013    1    1    2    0    0  0.20034814455E+03 -0.84335117140E+03  0.17026810706E+03  0.12972554897E+04  0.95000000000E+03 0.  0.
   -2000013    1    1    2    0    0 -0.20034814455E+03  0.84335117140E+03  0.11804425690E+04  0.17456589690E+04  0.95000000000E+03 0.  0.
<mgrwt>
<rscale>  0 0.27267030E+04</rscale>
<asrwt>0</asrwt>
<pdfrwt beam="1">  1        2 0.33797116E+00 0.27267030E+04</pdfrwt>
<pdfrwt beam="2">  1       -2 0.13016952E+00 0.27267030E+04</pdfrwt>
<totfact> 0.19646821E+00</totfact>
</mgrwt>
</event>
<event>
 4    1  0.2018023E-008  0.2525584E+04  0.7816531E-02  0.8393928E-01
          2   -1    0    0  501    0  0.00000000000E+00  0.00000000000E+00  0.14893568659E+04  0.14893568659E+04  0.00000000000E+00 0.  1.
         -2   -1    0    0    0  501 -0.00000000000E+00 -0.00000000000E+00 -0.10706925254E+04  0.10706925254E+04  0.00000000000E+00 0. -1.
    2000013    1    1    2    0    0  0.82322432992E+03 -0.11959064804E+03  0.22145546827E+03  0.12820073108E+04  0.95000000000E+03 0.  0.
   -2000013    1    1    2    0    0 -0.82322432992E+03  0.11959064804E+03  0.19720887222E+03  0.12780420806E+04  0.95000000000E+03 0.  0.
<mgrwt>
<rscale>  0 0.25255837E+04</rscale>
<asrwt>0</asrwt>
<pdfrwt beam="1">  1        2 0.22913183E+00 0.25255837E+04</pdfrwt>
<pdfrwt beam="2">  1       -2 0.16472193E+00 0.25255837E+04</pdfrwt>
<totfact> 0.26648577E+00</totfact>
</mgrwt>
</event>
<event>
 4    1  0.2018023E-008  0.1994767E+04  0.7816531E-02  0.8609071E-01
         -2   -1    0    0    0  501 -0.00000000000E+00  0.00000000000E+00  0.46800862059E+03  0.46800862059E+03  0.00000000000E+00 0. -1.
          2   -1    0    0  501    0  0.00000000000E+00 -0.00000000000E+00 -0.21255458621E+04  0.21255458621E+04  0.00000000000E+00 0.  1.
    2000013    1    1    2    0    0  0.29443752495E+03 -0.50330952302E+02 -0.75699771530E+03  0.12509085505E+04  0.95000000000E+03 0.  0.
   -2000013    1    1    2    0    0 -0.29443752495E+03  0.50330952302E+02 -0.90053952624E+03  0.13426459322E+04  0.95000000000E+03 0.  0.
<mgrwt>
<rscale>  0 0.19947669E+04</rscale>
<asrwt>0</asrwt>
<pdfrwt beam="2">  1        2 0.32700705E+00 0.19947669E+04</pdfrwt>
<pdfrwt beam="1">  1       -2 0.72001328E-01 0.19947669E+04</pdfrwt>
<totfact> 0.92342143E+00</totfact>
</mgrwt>
</event>
<event>
 4    1  0.2018023E-008  0.2554294E+04  0.7816531E-02  0.8383894E-01
         -2   -1    0    0    0  501 -0.00000000000E+00  0.00000000000E+00  0.95996524818E+03  0.95996524818E+03  0.00000000000E+00 0. -1.
          2   -1    0    0  501    0  0.00000000000E+00 -0.00000000000E+00 -0.16991292598E+04  0.16991292598E+04  0.00000000000E+00 0.  1.
    2000013    1    1    2    0    0  0.68297177624E+03  0.49099367910E+03 -0.52072780137E+03  0.13715621325E+04  0.95000000000E+03 0.  0.
   -2000013    1    1    2    0    0 -0.68297177624E+03 -0.49099367910E+03 -0.21843621023E+03  0.12875323755E+04  0.95000000000E+03 0.  0.
<mgrwt>
<rscale>  0 0.25542945E+04</rscale>
<asrwt>0</asrwt>
<pdfrwt beam="2">  1        2 0.26140450E+00 0.25542945E+04</pdfrwt>
<pdfrwt beam="1">  1       -2 0.14768696E+00 0.25542945E+04</pdfrwt>
<totfact> 0.27219962E+00</totfact>
</mgrwt>
</event>
<event>
 4    1  0.2018023E-008  0.3448852E+04  0.7816531E-02  0.8126020E-01
          2   -1    0    0  501    0  0.00000000000E+00  0.00000000000E+00  0.17872772618E+04  0.17872772618E+04  0.00000000000E+00 0.  1.
         -2   -1    0    0    0  501 -0.00000000000E+00 -0.00000000000E+00 -0.16637845652E+04  0.16637845652E+04  0.00000000000E+00 0. -1.
    2000013    1    1    2    0    0  0.10815473664E+04 -0.68156430618E+03 -0.59963844014E+03  0.17018639393E+04  0.95000000000E+03 0.  0.
   -2000013    1    1    2    0    0 -0.10815473664E+04  0.68156430618E+03  0.72313113673E+03  0.17491978876E+04  0.95000000000E+03 0.  0.
<mgrwt>
<rscale>  0 0.34488516E+04</rscale>
<asrwt>0</asrwt>
<pdfrwt beam="1">  1        2 0.27496573E+00 0.34488516E+04</pdfrwt>
<pdfrwt beam="2">  1       -2 0.25596686E+00 0.34488516E+04</pdfrwt>
<totfact> 0.42741911E-01</totfact>
</mgrwt>
</event>
<event>
 4    1  0.2018023E-008  0.2457936E+04  0.7816531E-02  0.8418126E-01
         -2   -1    0    0    0  501 -0.00000000000E+00  0.00000000000E+00  0.55805367739E+03  0.55805367739E+03  0.00000000000E+00 0. -1.
          2   -1    0    0  501    0  0.00000000000E+00 -0.00000000000E+00 -0.27064811257E+04  0.27064811257E+04  0.00000000000E+00 0.  1.
    2000013    1    1    2    0    0 -0.36101112123E+03  0.24227332122E+03 -0.21466004517E+03  0.10665853584E+04  0.95000000000E+03 0.  0.
   -2000013    1    1    2    0    0  0.36101112123E+03 -0.24227332122E+03 -0.19337674031E+04  0.21979494447E+04  0.95000000000E+03 0.  0.
<mgrwt>
<rscale>  0 0.24579355E+04</rscale>
<asrwt>0</asrwt>
<pdfrwt beam="2">  1        2 0.41638171E+00 0.24579355E+04</pdfrwt>
<pdfrwt beam="1">  1       -2 0.85854413E-01 0.24579355E+04</pdfrwt>
<totfact> 0.27740056E+00</totfact>
</mgrwt>
</event>
<event>
 4    1  0.2018023E-008  0.2344513E+04  0.7816531E-02  0.8460574E-01
          2   -1    0    0  501    0  0.00000000000E+00  0.00000000000E+00  0.17663426062E+04  0.17663426062E+04  0.00000000000E+00 0.  1.
         -2   -1    0    0    0  501 -0.00000000000E+00 -0.00000000000E+00 -0.77798345728E+03  0.77798345728E+03  0.00000000000E+00 0. -1.
    2000013    1    1    2    0    0  0.21675178776E+03  0.36109137805E+03 -0.94566190974E+02  0.10434611087E+04  0.95000000000E+03 0.  0.
   -2000013    1    1    2    0    0 -0.21675178776E+03 -0.36109137805E+03  0.10829253399E+04  0.15008649548E+04  0.95000000000E+03 0.  0.
<mgrwt>
<rscale>  0 0.23445130E+04</rscale>
<asrwt>0</asrwt>
<pdfrwt beam="1">  1        2 0.27174501E+00 0.23445130E+04</pdfrwt>
<pdfrwt beam="2">  1       -2 0.11968976E+00 0.23445130E+04</pdfrwt>
<totfact> 0.43492851E+00</totfact>
</mgrwt>
</event>
<event>
 4    1  0.2018023E-008  0.2892067E+04  0.7816531E-02  0.8275242E-01
         -1   -1    0    0    0  501 -0.00000000000E+00  0.00000000000E+00  0.83055743594E+03  0.83055743594E+03  0.00000000000E+00 0.  1.
          1   -1    0    0  501    0  0.00000000000E+00 -0.00000000000E+00 -0.25176019722E+04  0.25176019722E+04  0.00000000000E+00 0. -1.
    2000013    1    1    2    0    0 -0.85928944721E+03 -0.53593852754E+03 -0.13107885110E+04  0.19095221863E+04  0.95000000000E+03 0.  0.
   -2000013    1    1    2    0    0  0.85928944721E+03  0.53593852754E+03 -0.37625602519E+03  0.14386372218E+04  0.95000000000E+03 0.  0.
<mgrwt>
<rscale>  0 0.28920671E+04</rscale>
<asrwt>0</asrwt>
<pdfrwt beam="2">  1        1 0.38732338E+00 0.28920671E+04</pdfrwt>
<pdfrwt beam="1">  1       -1 0.12777807E+00 0.28920671E+04</pdfrwt>
<totfact> 0.59897489E-01</totfact>
</mgrwt>
</event>
<event>
 4    1  0.2018023E-008  0.2445637E+04  0.7816531E-02  0.8422613E-01
          2   -1    0    0  501    0  0.00000000000E+00  0.00000000000E+00  0.29522035226E+04  0.29522035226E+04  0.00000000000E+00 0.  1.
         -2   -1    0    0    0  501 -0.00000000000E+00 -0.00000000000E+00 -0.50649780857E+03  0.50649780857E+03  0.00000000000E+00 0. -1.
    2000013    1    1    2    0    0  0.37175780872E+03  0.54343042866E+03  0.65846183059E+03  0.13302603059E+04  0.95000000000E+03 0.  0.
   -2000013    1    1    2    0    0 -0.37175780872E+03 -0.54343042866E+03  0.17872438835E+04  0.21284410253E+04  0.95000000000E+03 0.  0.
<mgrwt>
<rscale>  0 0.24456366E+04</rscale>
<asrwt>0</asrwt>
<pdfrwt beam="1">  1        2 0.45418515E+00 0.24456366E+04</pdfrwt>
<pdfrwt beam="2">  1       -2 0.77922741E-01 0.24456366E+04</pdfrwt>
<totfact> 0.24506868E+00</totfact>
</mgrwt>
</event>
<event>
 4    1  0.2018023E-008  0.3001464E+04  0.7816531E-02  0.8243313E-01
          2   -1    0    0  501    0  0.00000000000E+00  0.00000000000E+00  0.23505170180E+04  0.23505170180E+04  0.00000000000E+00 0.  1.
         -2   -1    0    0    0  501 -0.00000000000E+00 -0.00000000000E+00 -0.95817083442E+03  0.95817083442E+03  0.00000000000E+00 0. -1.
    2000013    1    1    2    0    0 -0.78340136069E+03  0.82860912123E+03  0.94114987417E+03  0.17574338831E+04  0.95000000000E+03 0.  0.
   -2000013    1    1    2    0    0  0.78340136069E+03 -0.82860912123E+03  0.45119630937E+03  0.15512539693E+04  0.95000000000E+03 0.  0.
<mgrwt>
<rscale>  0 0.30014642E+04</rscale>
<asrwt>0</asrwt>
<pdfrwt beam="1">  1        2 0.36161800E+00 0.30014642E+04</pdfrwt>
<pdfrwt beam="2">  1       -2 0.14741090E+00 0.30014642E+04</pdfrwt>
<totfact> 0.11393561E+00</totfact>
</mgrwt>
</event>
<event>
 4    1  0.2018023E-008  0.3734984E+04  0.7816531E-02  0.8060253E-01
          2   -1    0    0  501    0  0.00000000000E+00  0.00000000000E+00  0.29760237177E+04  0.29760237177E+04  0.00000000000E+00 0.  1.
         -2   -1    0    0    0  501 -0.00000000000E+00 -0.00000000000E+00 -0.11718745878E+04  0.11718745878E+04  0.00000000000E+00 0. -1.
    2000013    1    1    2    0    0  0.77836212815E+03  0.14001167280E+04  0.10545568390E+04  0.21402720811E+04  0.95000000000E+03 0.  0.
   -2000013    1    1    2    0    0 -0.77836212815E+03 -0.14001167280E+04  0.74959229087E+03  0.20076262244E+04  0.95000000000E+03 0.  0.
<mgrwt>
<rscale>  0 0.37349841E+04</rscale>
<asrwt>0</asrwt>
<pdfrwt beam="1">  1        2 0.45784980E+00 0.37349841E+04</pdfrwt>
<pdfrwt beam="2">  1       -2 0.18028840E+00 0.37349841E+04</pdfrwt>
<totfact> 0.26207665E-01</totfact>
</mgrwt>
</event>
<event>
 4    1  0.2018023E-008  0.4529214E+04  0.7816531E-02  0.7905542E-01
         -2   -1    0    0    0  501 -0.00000000000E+00  0.00000000000E+00  0.25079596941E+04  0.25079596941E+04  0.00000000000E+00 0. -1.
          2   -1    0    0  501    0  0.00000000000E+00 -0.00000000000E+00 -0.20448670869E+04  0.20448670869E+04  0.00000000000E+00 0.  1.
    2000013    1    1    2    0    0  0.12745672788E+04 -0.13789918345E+04 -0.60935790296E+03  0.21908804809E+04  0.95000000000E+03 0.  0.
   -2000013    1    1    2    0    0 -0.12745672788E+04  0.13789918345E+04  0.10724505102E+04  0.23619463001E+04  0.95000000000E+03 0.  0.
<mgrwt>
<rscale>  0 0.45292137E+04</rscale>
<asrwt>0</asrwt>
<pdfrwt beam="2">  1        2 0.31459494E+00 0.45292137E+04</pdfrwt>
<pdfrwt beam="1">  1       -2 0.38583995E+00 0.45292137E+04</pdfrwt>
<totfact> 0.43763940E-02</totfact>
</mgrwt>
</event>
<event>
 4    1  0.2018023E-008  0.2818430E+04  0.7816531E-02  0.8297569E-01
          2   -1    0    0  501    0  0.00000000000E+00  0.00000000000E+00  0.23502287918E+04  0.23502287918E+04  0.00000000000E+00 0.  1.
         -2   -1    0    0    0  501 -0.00000000000E+00 -0.00000000000E+00 -0.84497600443E+03  0.84497600443E+03  0.00000000000E+00 0. -1.
    2000013    1    1    2    0    0  0.98948044260E+03  0.24355464076E+03  0.51214530429E+03  0.14843123735E+04  0.95000000000E+03 0.  0.
   -2000013    1    1    2    0    0 -0.98948044260E+03 -0.24355464076E+03  0.99310748310E+03  0.17108924228E+04  0.95000000000E+03 0.  0.
<mgrwt>
<rscale>  0 0.28184300E+04</rscale>
<asrwt>0</asrwt>
<pdfrwt beam="1">  1        2 0.36157366E+00 0.28184300E+04</pdfrwt>
<pdfrwt beam="2">  1       -2 0.12999631E+00 0.28184300E+04</pdfrwt>
<totfact> 0.16016319E+00</totfact>
</mgrwt>
</event>
<event>
 4    1  0.2018023E-008  0.3159560E+04  0.7816531E-02  0.8199580E-01
          1   -1    0    0  501    0  0.00000000000E+00  0.00000000000E+00  0.17355988493E+04  0.17355988493E+04  0.00000000000E+00 0.  1.
         -1   -1    0    0    0  501 -0.00000000000E+00 -0.00000000000E+00 -0.14379505433E+04  0.14379505433E+04  0.00000000000E+00 0. -1.
    2000013    1    1    2    0    0  0.85937535866E+03 -0.86719428167E+03 -0.17299007413E+03  0.15565916276E+04  0.95000000000E+03 0.  0.
   -2000013    1    1    2    0    0 -0.85937535866E+03  0.86719428167E+03  0.47063838009E+03  0.16169577651E+04  0.95000000000E+03 0.  0.
<mgrwt>
<rscale>  0 0.31595603E+04</rscale>
<asrwt>0</asrwt>
<pdfrwt beam="1">  1        1 0.26701521E+00 0.31595603E+04</pdfrwt>
<pdfrwt beam="2">  1       -1 0.22122316E+00 0.31595603E+04</pdfrwt>
<totfact> 0.40863432E-01</totfact>
</mgrwt>
</event>
<event>
 4    1  0.2018023E-008  0.2564813E+04  0.7816531E-02  0.8380253E-01
         -2   -1    0    0    0  501 -0.00000000000E+00  0.00000000000E+00  0.94956138583E+03  0.94956138583E+03  0.00000000000E+00 0. -1.
          2   -1    0    0  501    0  0.00000000000E+00 -0.00000000000E+00 -0.17319223923E+04  0.17319223923E+04  0.00000000000E+00 0.  1.
    2000013    1    1    2    0    0 -0.85054611300E+03 -0.11974109517E+03 -0.32262315489E+03  0.13207393082E+04  0.95000000000E+03 0.  0.
   -2000013    1    1    2    0    0  0.85054611300E+03  0.11974109517E+03 -0.45973785157E+03  0.13607444699E+04  0.95000000000E+03 0.  0.
<mgrwt>
<rscale>  0 0.25648132E+04</rscale>
<asrwt>0</asrwt>
<pdfrwt beam="2">  1        2 0.26644960E+00 0.25648132E+04</pdfrwt>
<pdfrwt beam="1">  1       -2 0.14608637E+00 0.25648132E+04</pdfrwt>
<totfact> 0.26837613E+00</totfact>
</mgrwt>
</event>
<event>
 4    1  0.2018023E-008  0.2406978E+04  0.7816531E-02  0.8436896E-01
         -2   -1    0    0    0  501 -0.00000000000E+00  0.00000000000E+00  0.72797721027E+03  0.72797721027E+03  0.00000000000E+00 0. -1.
          2   -1    0    0  501    0  0.00000000000E+00 -0.00000000000E+00 -0.19896033874E+04  0.19896033874E+04  0.00000000000E+00 0.  1.
    2000013    1    1    2    0    0  0.43145137823E+01 -0.63566519816E+03 -0.10559647784E+04  0.15561653101E+04  0.95000000000E+03 0.  0.
   -2000013    1    1    2    0    0 -0.43145137823E+01  0.63566519816E+03 -0.20566139870E+03  0.11614152875E+04  0.95000000000E+03 0.  0.
<mgrwt>
<rscale>  0 0.24069781E+04</rscale>
<asrwt>0</asrwt>
<pdfrwt beam="2">  1        2 0.30609283E+00 0.24069781E+04</pdfrwt>
<pdfrwt beam="1">  1       -2 0.11199650E+00 0.24069781E+04</pdfrwt>
<totfact> 0.38270681E+00</totfact>
</mgrwt>
</event>
<event>
 4    1  0.2018023E-008  0.3070994E+04  0.7816531E-02  0.8223744E-01
          2   -1    0    0  501    0  0.00000000000E+00  0.00000000000E+00  0.10419291246E+04  0.10419291246E+04  0.00000000000E+00 0.  1.
         -2   -1    0    0    0  501 -0.00000000000E+00 -0.00000000000E+00 -0.22628704195E+04  0.22628704195E+04  0.00000000000E+00 0. -1.
    2000013    1    1    2    0    0  0.11001929474E+04 -0.15648007416E+03 -0.10532929033E+03  0.14657778803E+04  0.95000000000E+03 0.  0.
   -2000013    1    1    2    0    0 -0.11001929474E+04  0.15648007416E+03 -0.11156120045E+04  0.18390216638E+04  0.95000000000E+03 0.  0.
<mgrwt>
<rscale>  0 0.30709937E+04</rscale>
<asrwt>0</asrwt>
<pdfrwt beam="1">  1        2 0.16029679E+00 0.30709937E+04</pdfrwt>
<pdfrwt beam="2">  1       -2 0.34813391E+00 0.30709937E+04</pdfrwt>
<totfact> 0.32210938E-01</totfact>
</mgrwt>
</event>
<event>
 4    1  0.2018023E-008  0.2895778E+04  0.7816531E-02  0.8274135E-01
         -2   -1    0    0    0  501 -0.00000000000E+00  0.00000000000E+00  0.86516819007E+03  0.86516819007E+03  0.00000000000E+00 0. -1.
          2   -1    0    0  501    0  0.00000000000E+00 -0.00000000000E+00 -0.24230924531E+04  0.24230924531E+04  0.00000000000E+00 0.  1.
    2000013    1    1    2    0    0 -0.88273609798E+03 -0.24661640056E+03 -0.14544294518E+04  0.19641557214E+04  0.95000000000E+03 0.  0.
   -2000013    1    1    2    0    0  0.88273609798E+03  0.24661640056E+03 -0.10349481115E+03  0.13241049217E+04  0.95000000000E+03 0.  0.
<mgrwt>
<rscale>  0 0.28957780E+04</rscale>
<asrwt>0</asrwt>
<pdfrwt beam="2">  1        2 0.37278345E+00 0.28957780E+04</pdfrwt>
<pdfrwt beam="1">  1       -2 0.13310280E+00 0.28957780E+04</pdfrwt>
<totfact> 0.13614611E+00</totfact>
</mgrwt>
</event>
<event>
 4    1  0.2018023E-008  0.2964746E+04  0.7816531E-02  0.8253870E-01
          2   -1    0    0  501    0  0.00000000000E+00  0.00000000000E+00  0.26715554447E+04  0.26715554447E+04  0.00000000000E+00 0.  1.
         -2   -1    0    0    0  501 -0.00000000000E+00 -0.00000000000E+00 -0.82252838536E+03  0.82252838536E+03  0.00000000000E+00 0. -1.
    2000013    1    1    2    0    0 -0.10807286765E+04 -0.23689848896E+03  0.61084627751E+03  0.15810529849E+04  0.95000000000E+03 0.  0.
   -2000013    1    1    2    0    0  0.10807286765E+04  0.23689848896E+03  0.12381807819E+04  0.19130308452E+04  0.95000000000E+03 0.  0.
<mgrwt>
<rscale>  0 0.29647463E+04</rscale>
<asrwt>0</asrwt>
<pdfrwt beam="1">  1        2 0.41100853E+00 0.29647463E+04</pdfrwt>
<pdfrwt beam="2">  1       -2 0.12654283E+00 0.29647463E+04</pdfrwt>
<totfact> 0.11016108E+00</totfact>
</mgrwt>
</event>
<event>
 4    1  0.2018023E-008  0.2738719E+04  0.7816531E-02  0.8322550E-01
         -2   -1    0    0    0  501 -0.00000000000E+00  0.00000000000E+00  0.13856155927E+04  0.13856155927E+04  0.00000000000E+00 0. -1.
          2   -1    0    0  501    0  0.00000000000E+00 -0.00000000000E+00 -0.13532941356E+04  0.13532941356E+04  0.00000000000E+00 0.  1.
    2000013    1    1    2    0    0 -0.34414351091E+03  0.91764226354E+03 -0.94043931738E+02  0.13681543557E+04  0.95000000000E+03 0.  0.
   -2000013    1    1    2    0    0  0.34414351091E+03 -0.91764226354E+03  0.12636538879E+03  0.13707553726E+04  0.95000000000E+03 0.  0.
<mgrwt>
<rscale>  0 0.27387190E+04</rscale>
<asrwt>0</asrwt>
<pdfrwt beam="2">  1        2 0.20819910E+00 0.27387190E+04</pdfrwt>
<pdfrwt beam="1">  1       -2 0.21317163E+00 0.27387190E+04</pdfrwt>
<totfact> 0.14709618E+00</totfact>
</mgrwt>
</event>
<event>
 4    1  0.2018023E-008  0.2626817E+04  0.7816531E-02  0.8359149E-01
          2   -1    0    0  501    0  0.00000000000E+00  0.00000000000E+00  0.13815528259E+04  0.13815528259E+04  0.00000000000E+00 0.  1.
         -2   -1    0    0    0  501 -0.00000000000E+00 -0.00000000000E+00 -0.12486252488E+04  0.12486252488E+04  0.00000000000E+00 0. -1.
    2000013    1    1    2    0    0 -0.33586974047E+03 -0.66075548816E+03 -0.45682855831E+03  0.12886421650E+04  0.95000000000E+03 0.  0.
   -2000013    1    1    2    0    0  0.33586974047E+03  0.66075548816E+03  0.58975613539E+03  0.13415359097E+04  0.95000000000E+03 0.  0.
<mgrwt>
<rscale>  0 0.26268169E+04</rscale>
<asrwt>0</asrwt>
<pdfrwt beam="1">  1        2 0.21254659E+00 0.26268169E+04</pdfrwt>
<pdfrwt beam="2">  1       -2 0.19209619E+00 0.26268169E+04</pdfrwt>
<totfact> 0.19641223E+00</totfact>
</mgrwt>
</event>
<event>
 4    1  0.2018023E-008  0.2185209E+04  0.7816531E-02  0.8524610E-01
         -2   -1    0    0    0  501 -0.00000000000E+00  0.00000000000E+00  0.10649014594E+04  0.10649014594E+04  0.00000000000E+00 0. -1.
          2   -1    0    0  501    0  0.00000000000E+00 -0.00000000000E+00 -0.11210278268E+04  0.11210278268E+04  0.00000000000E+00 0.  1.
    2000013    1    1    2    0    0 -0.39326421007E+03  0.36963060219E+03 -0.28868328776E+02  0.10929853162E+04  0.95000000000E+03 0.  0.
   -2000013    1    1    2    0    0  0.39326421007E+03 -0.36963060219E+03 -0.27258038633E+02  0.10929439700E+04  0.95000000000E+03 0.  0.
<mgrwt>
<rscale>  0 0.21852086E+04</rscale>
<asrwt>0</asrwt>
<pdfrwt beam="2">  1        2 0.17246582E+00 0.21852086E+04</pdfrwt>
<pdfrwt beam="1">  1       -2 0.16383099E+00 0.21852086E+04</pdfrwt>
<totfact> 0.45687880E+00</totfact>
</mgrwt>
</event>
<event>
 4    1  0.2018023E-008  0.3359691E+04  0.7816531E-02  0.8147871E-01
         -2   -1    0    0    0  501 -0.00000000000E+00  0.00000000000E+00  0.97204519504E+03  0.97204519504E+03  0.00000000000E+00 0. -1.
          2   -1    0    0  501    0  0.00000000000E+00 -0.00000000000E+00 -0.29030340885E+04  0.29030340885E+04  0.00000000000E+00 0.  1.
    2000013    1    1    2    0    0 -0.10306399916E+04 -0.79391727968E+03 -0.41613411783E+03  0.16637881606E+04  0.95000000000E+03 0.  0.
   -2000013    1    1    2    0    0  0.10306399916E+04  0.79391727968E+03 -0.15148547757E+04  0.22112911230E+04  0.95000000000E+03 0.  0.
<mgrwt>
<rscale>  0 0.33596907E+04</rscale>
<asrwt>0</asrwt>
<pdfrwt beam="2">  1        2 0.44662063E+00 0.33596907E+04</pdfrwt>
<pdfrwt beam="1">  1       -2 0.14954541E+00 0.33596907E+04</pdfrwt>
<totfact> 0.50189796E-01</totfact>
</mgrwt>
</event>
<event>
 4    1  0.2018023E-008  0.3055789E+04  0.7816531E-02  0.8227977E-01
         -1   -1    0    0    0  501 -0.00000000000E+00  0.00000000000E+00  0.22419402847E+04  0.22419402847E+04  0.00000000000E+00 0. -1.
          1   -1    0    0  501    0  0.00000000000E+00 -0.00000000000E+00 -0.10412681186E+04  0.10412681186E+04  0.00000000000E+00 0.  1.
    2000013    1    1    2    0    0 -0.46421668127E+03  0.10304056083E+04  0.10229655186E+04  0.17961601535E+04  0.95000000000E+03 0.  0.
   -2000013    1    1    2    0    0  0.46421668127E+03 -0.10304056083E+04  0.17770664757E+03  0.14870482498E+04  0.95000000000E+03 0.  0.
<mgrwt>
<rscale>  0 0.30557886E+04</rscale>
<asrwt>0</asrwt>
<pdfrwt beam="2">  1        1 0.16019510E+00 0.30557886E+04</pdfrwt>
<pdfrwt beam="1">  1       -1 0.34491389E+00 0.30557886E+04</pdfrwt>
<totfact> 0.19982972E-01</totfact>
</mgrwt>
</event>
<event>
 4    1  0.2018023E-008  0.2441883E+04  0.7816531E-02  0.8423987E-01
          2   -1    0    0  501    0  0.00000000000E+00  0.00000000000E+00  0.20564453031E+04  0.20564453031E+04  0.00000000000E+00 0.  1.
         -2   -1    0    0    0  501 -0.00000000000E+00 -0.00000000000E+00 -0.72489094315E+03  0.72489094315E+03  0.00000000000E+00 0. -1.
    2000013    1    1    2    0    0 -0.63442771857E+03  0.27734575415E+03  0.10414431596E+04  0.15705168105E+04  0.95000000000E+03 0.  0.
   -2000013    1    1    2    0    0  0.63442771857E+03 -0.27734575415E+03  0.29011120036E+03  0.12108194358E+04  0.95000000000E+03 0.  0.
<mgrwt>
<rscale>  0 0.24418834E+04</rscale>
<asrwt>0</asrwt>
<pdfrwt beam="1">  1        2 0.31637620E+00 0.24418834E+04</pdfrwt>
<pdfrwt beam="2">  1       -2 0.11152168E+00 0.24418834E+04</pdfrwt>
<totfact> 0.35387865E+00</totfact>
</mgrwt>
</event>
<event>
 4    1  0.2018023E-008  0.2523249E+04  0.7816531E-02  0.8394750E-01
          2   -1    0    0  501    0  0.00000000000E+00  0.00000000000E+00  0.18285175687E+04  0.18285175687E+04  0.00000000000E+00 0.  1.
         -2   -1    0    0    0  501 -0.00000000000E+00 -0.00000000000E+00 -0.87048437257E+03  0.87048437257E+03  0.00000000000E+00 0. -1.
    2000013    1    1    2    0    0  0.82456672353E+03 -0.91899388056E+02  0.44801159658E+03  0.13384954874E+04  0.95000000000E+03 0.  0.
   -2000013    1    1    2    0    0 -0.82456672353E+03  0.91899388056E+02  0.51002159957E+03  0.13605064539E+04  0.95000000000E+03 0.  0.
<mgrwt>
<rscale>  0 0.25232487E+04</rscale>
<asrwt>0</asrwt>
<pdfrwt beam="1">  1        2 0.28131039E+00 0.25232487E+04</pdfrwt>
<pdfrwt beam="2">  1       -2 0.13392067E+00 0.25232487E+04</pdfrwt>
<totfact> 0.29827043E+00</totfact>
</mgrwt>
</event>
<event>
 4    1  0.2018023E-008  0.2257296E+04  0.7816531E-02  0.8494951E-01
          2   -1    0    0  501    0  0.00000000000E+00  0.00000000000E+00  0.25464048636E+04  0.25464048636E+04  0.00000000000E+00 0.  1.
         -2   -1    0    0    0  501 -0.00000000000E+00 -0.00000000000E+00 -0.50025302494E+03  0.50025302494E+03  0.00000000000E+00 0. -1.
    2000013    1    1    2    0    0  0.53533826206E+03 -0.28371925347E+03  0.11112003124E+04  0.15825137610E+04  0.95000000000E+03 0.  0.
   -2000013    1    1    2    0    0 -0.53533826206E+03  0.28371925347E+03  0.93495152624E+03  0.14641441275E+04  0.95000000000E+03 0.  0.
<mgrwt>
<rscale>  0 0.22572964E+04</rscale>
<asrwt>0</asrwt>
<pdfrwt beam="1">  1        2 0.39175459E+00 0.22572964E+04</pdfrwt>
<pdfrwt beam="2">  1       -2 0.76962005E-01 0.22572964E+04</pdfrwt>
<totfact> 0.44871800E+00</totfact>
</mgrwt>
</event>
<event>
 4    1  0.2018023E-008  0.3162800E+04  0.7816531E-02  0.8198711E-01
          2   -1    0    0  501    0  0.00000000000E+00  0.00000000000E+00  0.27645605076E+04  0.27645605076E+04  0.00000000000E+00 0.  1.
         -2   -1    0    0    0  501 -0.00000000000E+00 -0.00000000000E+00 -0.90460191084E+03  0.90460191084E+03  0.00000000000E+00 0. -1.
    2000013    1    1    2    0    0  0.78512860919E+03 -0.74019294930E+03  0.16942498069E+04  0.22220024625E+04  0.95000000000E+03 0.  0.
   -2000013    1    1    2    0    0 -0.78512860919E+03  0.74019294930E+03  0.16570878991E+03  0.14471599560E+04  0.95000000000E+03 0.  0.
<mgrwt>
<rscale>  0 0.31628005E+04</rscale>
<asrwt>0</asrwt>
<pdfrwt beam="1">  1        2 0.42531700E+00 0.31628005E+04</pdfrwt>
<pdfrwt beam="2">  1       -2 0.13916953E+00 0.31628005E+04</pdfrwt>
<totfact> 0.74808767E-01</totfact>
</mgrwt>
</event>
<event>
 4    1  0.2018023E-008  0.2769057E+04  0.7816531E-02  0.8312940E-01
          2   -1    0    0  501    0  0.00000000000E+00  0.00000000000E+00  0.14733449798E+04  0.14733449798E+04  0.00000000000E+00 0.  1.
         -2   -1    0    0    0  501 -0.00000000000E+00 -0.00000000000E+00 -0.13010656327E+04  0.13010656327E+04  0.00000000000E+00 0. -1.
    2000013    1    1    2    0    0  0.52408535802E+03  0.63197919334E+03  0.67066752473E+03  0.14235020520E+04  0.95000000000E+03 0.  0.
   -2000013    1    1    2    0    0 -0.52408535802E+03 -0.63197919334E+03 -0.49838817767E+03  0.13509085605E+04  0.95000000000E+03 0.  0.
<mgrwt>
<rscale>  0 0.27690565E+04</rscale>
<asrwt>0</asrwt>
<pdfrwt beam="1">  1        2 0.22666846E+00 0.27690565E+04</pdfrwt>
<pdfrwt beam="2">  1       -2 0.20016394E+00 0.27690565E+04</pdfrwt>
<totfact> 0.15212395E+00</totfact>
</mgrwt>
</event>
<event>
 4    1  0.2018023E-008  0.3235509E+04  0.7816531E-02  0.8179502E-01
          2   -1    0    0  501    0  0.00000000000E+00  0.00000000000E+00  0.33875513733E+04  0.33875513733E+04  0.00000000000E+00 0.  1.
         -2   -1    0    0    0  501 -0.00000000000E+00 -0.00000000000E+00 -0.77257263425E+03  0.77257263425E+03  0.00000000000E+00 0. -1.
    2000013    1    1    2    0    0  0.41553676447E+03 -0.95943024045E+03  0.23210916407E+04  0.27171940662E+04  0.95000000000E+03 0.  0.
   -2000013    1    1    2    0    0 -0.41553676447E+03  0.95943024045E+03  0.29388709828E+03  0.14429299413E+04  0.95000000000E+03 0.  0.
<mgrwt>
<rscale>  0 0.32355089E+04</rscale>
<asrwt>0</asrwt>
<pdfrwt beam="1">  1        2 0.52116174E+00 0.32355089E+04</pdfrwt>
<pdfrwt beam="2">  1       -2 0.11885733E+00 0.32355089E+04</pdfrwt>
<totfact> 0.44334911E-01</totfact>
</mgrwt>
</event>
<event>
 4    1  0.2018023E-008  0.2182749E+04  0.7816531E-02  0.8525643E-01
         -1   -1    0    0    0  501 -0.00000000000E+00  0.00000000000E+00  0.57369228545E+03  0.57369228545E+03  0.00000000000E+00 0. -1.
          1   -1    0    0  501    0  0.00000000000E+00 -0.00000000000E+00 -0.20761963161E+04  0.20761963161E+04  0.00000000000E+00 0.  1.
    2000013    1    1    2    0    0 -0.39786242815E+02  0.51238960237E+03 -0.94116580939E+03  0.14326266543E+04  0.95000000000E+03 0.  0.
   -2000013    1    1    2    0    0  0.39786242815E+02 -0.51238960237E+03 -0.56133822129E+03  0.12172619473E+04  0.95000000000E+03 0.  0.
<mgrwt>
<rscale>  0 0.21827486E+04</rscale>
<asrwt>0</asrwt>
<pdfrwt beam="2">  1        1 0.31941482E+00 0.21827486E+04</pdfrwt>
<pdfrwt beam="1">  1       -1 0.88260352E-01 0.21827486E+04</pdfrwt>
<totfact> 0.30453043E+00</totfact>
</mgrwt>
</event>
<event>
 4    1  0.2018023E-008  0.2449334E+04  0.7816531E-02  0.8421261E-01
          2   -1    0    0  501    0  0.00000000000E+00  0.00000000000E+00  0.13849551951E+04  0.13849551951E+04  0.00000000000E+00 0.  1.
         -2   -1    0    0    0  501 -0.00000000000E+00 -0.00000000000E+00 -0.10829294009E+04  0.10829294009E+04  0.00000000000E+00 0. -1.
    2000013    1    1    2    0    0  0.68362240275E+03  0.35354403569E+03  0.22208597123E+03  0.12426403958E+04  0.95000000000E+03 0.  0.
   -2000013    1    1    2    0    0 -0.68362240275E+03 -0.35354403569E+03  0.79939823002E+02  0.12252442002E+04  0.95000000000E+03 0.  0.
<mgrwt>
<rscale>  0 0.24493335E+04</rscale>
<asrwt>0</asrwt>
<pdfrwt beam="1">  1        2 0.21307003E+00 0.24493335E+04</pdfrwt>
<pdfrwt beam="2">  1       -2 0.16660452E+00 0.24493335E+04</pdfrwt>
<totfact> 0.29803643E+00</totfact>
</mgrwt>
</event>
<event>
 4    1  0.2018023E-008  0.3266919E+04  0.7816531E-02  0.8171364E-01
          2   -1    0    0  501    0  0.00000000000E+00  0.00000000000E+00  0.26156249461E+04  0.26156249461E+04  0.00000000000E+00 0.  1.
         -2   -1    0    0    0  501 -0.00000000000E+00 -0.00000000000E+00 -0.10200965394E+04  0.10200965394E+04  0.00000000000E+00 0. -1.
    2000013    1    1    2    0    0  0.12761784112E+04 -0.37008590861E+03  0.80861353640E+03  0.18226219488E+04  0.95000000000E+03 0.  0.
   -2000013    1    1    2    0    0 -0.12761784112E+04  0.37008590861E+03  0.78691487028E+03  0.18130995367E+04  0.95000000000E+03 0.  0.
<mgrwt>
<rscale>  0 0.32669190E+04</rscale>
<asrwt>0</asrwt>
<pdfrwt beam="1">  1        2 0.40240384E+00 0.32669190E+04</pdfrwt>
<pdfrwt beam="2">  1       -2 0.15693793E+00 0.32669190E+04</pdfrwt>
<totfact> 0.66220657E-01</totfact>
</mgrwt>
</event>
<event>
 4    1  0.2018023E-008  0.4153365E+04  0.7816531E-02  0.7974303E-01
         -2   -1    0    0    0  501 -0.00000000000E+00  0.00000000000E+00  0.18359286353E+04  0.18359286353E+04  0.00000000000E+00 0. -1.
          2   -1    0    0  501    0  0.00000000000E+00 -0.00000000000E+00 -0.23490071907E+04  0.23490071907E+04  0.00000000000E+00 0.  1.
    2000013    1    1    2    0    0 -0.57775912865E+03  0.16602315606E+04 -0.82646688463E+03  0.21623417761E+04  0.95000000000E+03 0.  0.
   -2000013    1    1    2    0    0  0.57775912865E+03 -0.16602315606E+04  0.31338832921E+03  0.20225940498E+04  0.95000000000E+03 0.  0.
<mgrwt>
<rscale>  0 0.41533647E+04</rscale>
<asrwt>0</asrwt>
<pdfrwt beam="2">  1        2 0.36138572E+00 0.41533647E+04</pdfrwt>
<pdfrwt beam="1">  1       -2 0.28245056E+00 0.41533647E+04</pdfrwt>
<totfact> 0.13479787E-01</totfact>
</mgrwt>
</event>
<event>
 4    1  0.2018023E-008  0.2503315E+04  0.7816531E-02  0.8401806E-01
          2   -1    0    0  501    0  0.00000000000E+00  0.00000000000E+00  0.11936213239E+04  0.11936213239E+04  0.00000000000E+00 0.  1.
         -2   -1    0    0    0  501 -0.00000000000E+00 -0.00000000000E+00 -0.13125153725E+04  0.13125153725E+04  0.00000000000E+00 0. -1.
    2000013    1    1    2    0    0 -0.53342734892E+03 -0.49841098402E+03  0.30316022508E+03  0.12358658372E+04  0.95000000000E+03 0.  0.
   -2000013    1    1    2    0    0  0.53342734892E+03  0.49841098402E+03 -0.42205427371E+03  0.12702708591E+04  0.95000000000E+03 0.  0.
<mgrwt>
<rscale>  0 0.25033149E+04</rscale>
<asrwt>0</asrwt>
<pdfrwt beam="1">  1        2 0.18363405E+00 0.25033149E+04</pdfrwt>
<pdfrwt beam="2">  1       -2 0.20192544E+00 0.25033149E+04</pdfrwt>
<totfact> 0.22009860E+00</totfact>
</mgrwt>
</event>
<event>
 4    1  0.2018023E-008  0.2072389E+04  0.7816531E-02  0.8573505E-01
         -2   -1    0    0    0  501 -0.00000000000E+00  0.00000000000E+00  0.55280599666E+03  0.55280599666E+03  0.00000000000E+00 0. -1.
          2   -1    0    0  501    0  0.00000000000E+00 -0.00000000000E+00 -0.19422714218E+04  0.19422714218E+04  0.00000000000E+00 0.  1.
    2000013    1    1    2    0    0 -0.20732747020E+03  0.27729520464E+03 -0.96748248279E+03  0.13994283350E+04  0.95000000000E+03 0.  0.
   -2000013    1    1    2    0    0  0.20732747020E+03 -0.27729520464E+03 -0.42198294238E+03  0.10956490835E+04  0.95000000000E+03 0.  0.
<mgrwt>
<rscale>  0 0.20723892E+04</rscale>
<asrwt>0</asrwt>
<pdfrwt beam="2">  1        2 0.29881099E+00 0.20723892E+04</pdfrwt>
<pdfrwt beam="1">  1       -2 0.85047076E-01 0.20723892E+04</pdfrwt>
<totfact> 0.79951205E+00</totfact>
</mgrwt>
</event>
<event>
 4    1  0.2018023E-008  0.2294951E+04  0.7816531E-02  0.8479914E-01
         -2   -1    0    0    0  501 -0.00000000000E+00  0.00000000000E+00  0.42270640674E+03  0.42270640674E+03  0.00000000000E+00 0. -1.
          2   -1    0    0  501    0  0.00000000000E+00 -0.00000000000E+00 -0.31149288679E+04  0.31149288679E+04  0.00000000000E+00 0.  1.
    2000013    1    1    2    0    0  0.35832001174E+03 -0.48863991774E+03 -0.16804331675E+04  0.20232443823E+04  0.95000000000E+03 0.  0.
   -2000013    1    1    2    0    0 -0.35832001174E+03  0.48863991774E+03 -0.10117892936E+04  0.15143908923E+04  0.95000000000E+03 0.  0.
<mgrwt>
<rscale>  0 0.22949513E+04</rscale>
<asrwt>0</asrwt>
<pdfrwt beam="2">  1        2 0.47921984E+00 0.22949513E+04</pdfrwt>
<pdfrwt beam="1">  1       -2 0.65031754E-01 0.22949513E+04</pdfrwt>
<totfact> 0.29151691E+00</totfact>
</mgrwt>
</event>
<event>
 4    1  0.2018023E-008  0.2885314E+04  0.7816531E-02  0.8277260E-01
         -2   -1    0    0    0  501 -0.00000000000E+00  0.00000000000E+00  0.12936447681E+04  0.12936447681E+04  0.00000000000E+00 0. -1.
          2   -1    0    0  501    0  0.00000000000E+00 -0.00000000000E+00 -0.16088338504E+04  0.16088338504E+04  0.00000000000E+00 0.  1.
    2000013    1    1    2    0    0  0.10206055249E+04 -0.36710209790E+03 -0.20646238958E+03  0.14565460192E+04  0.95000000000E+03 0.  0.
   -2000013    1    1    2    0    0 -0.10206055249E+04  0.36710209790E+03 -0.10872669271E+03  0.14459325992E+04  0.95000000000E+03 0.  0.
<mgrwt>
<rscale>  0 0.28853142E+04</rscale>
<asrwt>0</asrwt>
<pdfrwt beam="2">  1        2 0.24751290E+00 0.28853142E+04</pdfrwt>
<pdfrwt beam="1">  1       -2 0.19902227E+00 0.28853142E+04</pdfrwt>
<totfact> 0.12861881E+00</totfact>
</mgrwt>
</event>
<event>
 4    1  0.2018023E-008  0.2584648E+04  0.7816531E-02  0.8373435E-01
         -2   -1    0    0    0  501 -0.00000000000E+00  0.00000000000E+00  0.12329672179E+04  0.12329672179E+04  0.00000000000E+00 0. -1.
          2   -1    0    0  501    0  0.00000000000E+00 -0.00000000000E+00 -0.13545385473E+04  0.13545385473E+04  0.00000000000E+00 0.  1.
    2000013    1    1    2    0    0  0.22161093098E+03 -0.63265036457E+03 -0.62554031166E+03  0.13202873059E+04  0.95000000000E+03 0.  0.
   -2000013    1    1    2    0    0 -0.22161093098E+03  0.63265036457E+03  0.50396898225E+03  0.12672184593E+04  0.95000000000E+03 0.  0.
<mgrwt>
<rscale>  0 0.25846482E+04</rscale>
<asrwt>0</asrwt>
<pdfrwt beam="2">  1        2 0.20839055E+00 0.25846482E+04</pdfrwt>
<pdfrwt beam="1">  1       -2 0.18968726E+00 0.25846482E+04</pdfrwt>
<totfact> 0.21202536E+00</totfact>
</mgrwt>
</event>
<event>
 4    1  0.2018023E-008  0.2547068E+04  0.7816531E-02  0.8386407E-01
          1   -1    0    0  501    0  0.00000000000E+00  0.00000000000E+00  0.16899900173E+04  0.16899900173E+04  0.00000000000E+00 0.  1.
         -1   -1    0    0    0  501 -0.00000000000E+00 -0.00000000000E+00 -0.95970303838E+03  0.95970303838E+03  0.00000000000E+00 0. -1.
    2000013    1    1    2    0    0  0.41805333109E+03  0.69933070341E+03  0.11994226232E+03  0.12572661479E+04  0.95000000000E+03 0.  0.
   -2000013    1    1    2    0    0 -0.41805333109E+03 -0.69933070341E+03  0.61034471657E+03  0.13924269077E+04  0.95000000000E+03 0.  0.
<mgrwt>
<rscale>  0 0.25470678E+04</rscale>
<asrwt>0</asrwt>
<pdfrwt beam="1">  1        1 0.25999846E+00 0.25470678E+04</pdfrwt>
<pdfrwt beam="2">  1       -1 0.14764662E+00 0.25470678E+04</pdfrwt>
<totfact> 0.15595716E+00</totfact>
</mgrwt>
</event>
<event>
 4    1  0.2018023E-008  0.2475057E+04  0.7816531E-02  0.8411926E-01
          2   -1    0    0  501    0  0.00000000000E+00  0.00000000000E+00  0.10700578954E+04  0.10700578954E+04  0.00000000000E+00 0.  1.
         -2   -1    0    0    0  501 -0.00000000000E+00 -0.00000000000E+00 -0.14312087180E+04  0.14312087180E+04  0.00000000000E+00 0. -1.
    2000013    1    1    2    0    0  0.28998073805E+03 -0.46219627248E+03  0.40107314379E+03  0.11666507144E+04  0.95000000000E+03 0.  0.
   -2000013    1    1    2    0    0 -0.28998073805E+03  0.46219627248E+03 -0.76222396644E+03  0.13346158990E+04  0.95000000000E+03 0.  0.
<mgrwt>
<rscale>  0 0.24750565E+04</rscale>
<asrwt>0</asrwt>
<pdfrwt beam="1">  1        2 0.16462429E+00 0.24750565E+04</pdfrwt>
<pdfrwt beam="2">  1       -2 0.22018596E+00 0.24750565E+04</pdfrwt>
<totfact> 0.20028940E+00</totfact>
</mgrwt>
</event>
<event>
 4    1  0.2018023E-008  0.2763523E+04  0.7816531E-02  0.8314683E-01
          2   -1    0    0  501    0  0.00000000000E+00  0.00000000000E+00  0.13911645637E+04  0.13911645637E+04  0.00000000000E+00 0.  1.
         -2   -1    0    0    0  501 -0.00000000000E+00 -0.00000000000E+00 -0.13724218805E+04  0.13724218805E+04  0.00000000000E+00 0. -1.
    2000013    1    1    2    0    0 -0.20760311143E+03  0.98080268089E+03  0.50503004296E+02  0.13820721776E+04  0.95000000000E+03 0.  0.
   -2000013    1    1    2    0    0  0.20760311143E+03 -0.98080268089E+03 -0.31760321163E+02  0.13815142666E+04  0.95000000000E+03 0.  0.
<mgrwt>
<rscale>  0 0.27635229E+04</rscale>
<asrwt>0</asrwt>
<pdfrwt beam="1">  1        2 0.21402532E+00 0.27635229E+04</pdfrwt>
<pdfrwt beam="2">  1       -2 0.21114183E+00 0.27635229E+04</pdfrwt>
<totfact> 0.14386758E+00</totfact>
</mgrwt>
</event>
<event>
 4    1  0.2018023E-008  0.2768445E+04  0.7816531E-02  0.8313132E-01
          2   -1    0    0  501    0  0.00000000000E+00  0.00000000000E+00  0.30533951079E+04  0.30533951079E+04  0.00000000000E+00 0.  1.
         -2   -1    0    0    0  501 -0.00000000000E+00 -0.00000000000E+00 -0.62752188140E+03  0.62752188140E+03  0.00000000000E+00 0. -1.
    2000013    1    1    2    0    0  0.12150171838E+02  0.82771925723E+03  0.19747684757E+04  0.23425365158E+04  0.95000000000E+03 0.  0.
   -2000013    1    1    2    0    0 -0.12150171838E+02 -0.82771925723E+03  0.45110475078E+03  0.13383804734E+04  0.95000000000E+03 0.  0.
<mgrwt>
<rscale>  0 0.27684452E+04</rscale>
<asrwt>0</asrwt>
<pdfrwt beam="1">  1        2 0.46975309E+00 0.27684452E+04</pdfrwt>
<pdfrwt beam="2">  1       -2 0.96541829E-01 0.27684452E+04</pdfrwt>
<totfact> 0.12611320E+00</totfact>
</mgrwt>
</event>
<event>
 4    1  0.2018023E-008  0.2153507E+04  0.7816531E-02  0.8538032E-01
         -2   -1    0    0    0  501 -0.00000000000E+00  0.00000000000E+00  0.78709706359E+03  0.78709706359E+03  0.00000000000E+00 0. -1.
          2   -1    0    0  501    0  0.00000000000E+00 -0.00000000000E+00 -0.14730057795E+04  0.14730057795E+04  0.00000000000E+00 0.  1.
    2000013    1    1    2    0    0  0.26009907076E+03  0.37403029946E+03 -0.10981366980E+03  0.10592965749E+04  0.95000000000E+03 0.  0.
   -2000013    1    1    2    0    0 -0.26009907076E+03 -0.37403029946E+03 -0.57609504607E+03  0.12008062681E+04  0.95000000000E+03 0.  0.
<mgrwt>
<rscale>  0 0.21535074E+04</rscale>
<asrwt>0</asrwt>
<pdfrwt beam="2">  1        2 0.22661627E+00 0.21535074E+04</pdfrwt>
<pdfrwt beam="1">  1       -2 0.12109186E+00 0.21535074E+04</pdfrwt>
<totfact> 0.62642589E+00</totfact>
</mgrwt>
</event>
<event>
 4    1  0.2018023E-008  0.2190499E+04  0.7816531E-02  0.8522393E-01
          2   -1    0    0  501    0  0.00000000000E+00  0.00000000000E+00  0.25739769910E+04  0.25739769910E+04  0.00000000000E+00 0.  1.
         -2   -1    0    0    0  501 -0.00000000000E+00 -0.00000000000E+00 -0.46603795993E+03  0.46603795993E+03  0.00000000000E+00 0. -1.
    2000013    1    1    2    0    0 -0.10397317067E+03 -0.50644017158E+03  0.12934594171E+04  0.16860691953E+04  0.95000000000E+03 0.  0.
   -2000013    1    1    2    0    0  0.10397317067E+03  0.50644017158E+03  0.81447961390E+03  0.13539457556E+04  0.95000000000E+03 0.  0.
<mgrwt>
<rscale>  0 0.21904986E+04</rscale>
<asrwt>0</asrwt>
<pdfrwt beam="1">  1        2 0.39599645E+00 0.21904986E+04</pdfrwt>
<pdfrwt beam="2">  1       -2 0.71698149E-01 0.21904986E+04</pdfrwt>
<totfact> 0.50867878E+00</totfact>
</mgrwt>
</event>
<event>
 4    1  0.2018023E-008  0.2024653E+04  0.7816531E-02  0.8595181E-01
          1   -1    0    0  501    0  0.00000000000E+00  0.00000000000E+00  0.91487846557E+03  0.91487846557E+03  0.00000000000E+00 0.  1.
         -1   -1    0    0    0  501 -0.00000000000E+00 -0.00000000000E+00 -0.11201540166E+04  0.11201540166E+04  0.00000000000E+00 0. -1.
    2000013    1    1    2    0    0 -0.13505969299E+03  0.22967935602E+03 -0.33031850441E+03  0.10404826003E+04  0.95000000000E+03 0.  0.
   -2000013    1    1    2    0    0  0.13505969299E+03 -0.22967935602E+03  0.12504295339E+03  0.99454988183E+03  0.95000000000E+03 0.  0.
<mgrwt>
<rscale>  0 0.20246528E+04</rscale>
<asrwt>0</asrwt>
<pdfrwt beam="1">  1        1 0.14075053E+00 0.20246528E+04</pdfrwt>
<pdfrwt beam="2">  1       -1 0.17233139E+00 0.20246528E+04</pdfrwt>
<totfact> 0.38745788E+00</totfact>
</mgrwt>
</event>
<event>
 4    1  0.2018023E-008  0.2174078E+04  0.7816531E-02  0.8529296E-01
         -2   -1    0    0    0  501 -0.00000000000E+00  0.00000000000E+00  0.54034127266E+03  0.54034127266E+03  0.00000000000E+00 0. -1.
          2   -1    0    0  501    0  0.00000000000E+00 -0.00000000000E+00 -0.21868650803E+04  0.21868650803E+04  0.00000000000E+00 0.  1.
    2000013    1    1    2    0    0  0.49238024187E+03  0.42657252061E+02 -0.58893197720E+03  0.12221288056E+04  0.95000000000E+03 0.  0.
   -2000013    1    1    2    0    0 -0.49238024187E+03 -0.42657252061E+02 -0.10575918305E+04  0.15050775474E+04  0.95000000000E+03 0.  0.
<mgrwt>
<rscale>  0 0.21740777E+04</rscale>
<asrwt>0</asrwt>
<pdfrwt beam="2">  1        2 0.33644078E+00 0.21740777E+04</pdfrwt>
<pdfrwt beam="1">  1       -2 0.83129427E-01 0.21740777E+04</pdfrwt>
<totfact> 0.60972510E+00</totfact>
</mgrwt>
</event>
<event>
 4    1  0.2018023E-008  0.2744690E+04  0.7816531E-02  0.8320649E-01
          2   -1    0    0  501    0  0.00000000000E+00  0.00000000000E+00  0.14680427747E+04  0.14680427747E+04  0.00000000000E+00 0. -1.
         -2   -1    0    0    0  501 -0.00000000000E+00 -0.00000000000E+00 -0.12828851774E+04  0.12828851774E+04  0.00000000000E+00 0.  1.
    2000013    1    1    2    0    0  0.28910123418E+03  0.93032605043E+03  0.27115286257E+03  0.13874833183E+04  0.95000000000E+03 0.  0.
   -2000013    1    1    2    0    0 -0.28910123418E+03 -0.93032605043E+03 -0.85995265247E+02  0.13634446338E+04  0.95000000000E+03 0.  0.
<mgrwt>
<rscale>  0 0.27446896E+04</rscale>
<asrwt>0</asrwt>
<pdfrwt beam="1">  1        2 0.22585273E+00 0.27446896E+04</pdfrwt>
<pdfrwt beam="2">  1       -2 0.19736695E+00 0.27446896E+04</pdfrwt>
<totfact> 0.16014310E+00</totfact>
</mgrwt>
</event>
<event>
 4    1  0.2018023E-008  0.2374554E+04  0.7816531E-02  0.8449092E-01
          2   -1    0    0  501    0  0.00000000000E+00  0.00000000000E+00  0.14769847506E+04  0.14769847506E+04  0.00000000000E+00 0.  1.
         -2   -1    0    0    0  501 -0.00000000000E+00 -0.00000000000E+00 -0.95439457351E+03  0.95439457351E+03  0.00000000000E+00 0. -1.
    2000013    1    1    2    0    0  0.37452806663E-01  0.60981665135E+03  0.63785942247E+03  0.12966267746E+04  0.95000000000E+03 0.  0.
   -2000013    1    1    2    0    0 -0.37452806663E-01 -0.60981665135E+03 -0.11526924543E+03  0.11347525495E+04  0.95000000000E+03 0.  0.
<mgrwt>
<rscale>  0 0.23745536E+04</rscale>
<asrwt>0</asrwt>
<pdfrwt beam="1">  1        2 0.22722842E+00 0.23745536E+04</pdfrwt>
<pdfrwt beam="2">  1       -2 0.14682993E+00 0.23745536E+04</pdfrwt>
<totfact> 0.37374816E+00</totfact>
</mgrwt>
</event>
<event>
 4    1  0.2018023E-008  0.2343548E+04  0.7816531E-02  0.8460946E-01
         -2   -1    0    0    0  501 -0.00000000000E+00  0.00000000000E+00  0.81447324564E+03  0.81447324564E+03  0.00000000000E+00 0. -1.
          2   -1    0    0  501    0  0.00000000000E+00 -0.00000000000E+00 -0.16858183236E+04  0.16858183236E+04  0.00000000000E+00 0.  1.
    2000013    1    1    2    0    0 -0.30935708843E+03  0.10084925623E+03 -0.10799512113E+04  0.14746752183E+04  0.95000000000E+03 0.  0.
   -2000013    1    1    2    0    0  0.30935708843E+03 -0.10084925623E+03  0.20860613326E+03  0.10256163510E+04  0.95000000000E+03 0.  0.
<mgrwt>
<rscale>  0 0.23435477E+04</rscale>
<asrwt>0</asrwt>
<pdfrwt beam="2">  1        2 0.25935666E+00 0.23435477E+04</pdfrwt>
<pdfrwt beam="1">  1       -2 0.12530358E+00 0.23435477E+04</pdfrwt>
<totfact> 0.43002004E+00</totfact>
</mgrwt>
</event>
<event>
 4    1  0.2018023E-008  0.2348342E+04  0.7816531E-02  0.8459101E-01
         -2   -1    0    0    0  501 -0.00000000000E+00  0.00000000000E+00  0.48175793043E+03  0.48175793043E+03  0.00000000000E+00 0. -1.
          2   -1    0    0  501    0  0.00000000000E+00 -0.00000000000E+00 -0.28617646128E+04  0.28617646128E+04  0.00000000000E+00 0.  1.
    2000013    1    1    2    0    0 -0.66330305597E+02  0.67530089460E+03 -0.10113385892E+04  0.15445830342E+04  0.95000000000E+03 0.  0.
   -2000013    1    1    2    0    0  0.66330305597E+02 -0.67530089460E+03 -0.13686680932E+04  0.17989395090E+04  0.95000000000E+03 0.  0.
<mgrwt>
<rscale>  0 0.23483422E+04</rscale>
<asrwt>0</asrwt>
<pdfrwt beam="2">  1        2 0.44027147E+00 0.23483422E+04</pdfrwt>
<pdfrwt beam="1">  1       -2 0.74116606E-01 0.23483422E+04</pdfrwt>
<totfact> 0.31404211E+00</totfact>
</mgrwt>
</event>
<event>
 4    1  0.2018023E-008  0.2668493E+04  0.7816531E-02  0.8345301E-01
         -2   -1    0    0    0  501 -0.00000000000E+00  0.00000000000E+00  0.13476659867E+04  0.13476659867E+04  0.00000000000E+00 0.  1.
          2   -1    0    0  501    0  0.00000000000E+00 -0.00000000000E+00 -0.13209607326E+04  0.13209607326E+04  0.00000000000E+00 0. -1.
    2000013    1    1    2    0    0 -0.34329382141E+03  0.86112400385E+03  0.14874275563E+03  0.13356682242E+04  0.95000000000E+03 0.  0.
   -2000013    1    1    2    0    0  0.34329382141E+03 -0.86112400385E+03 -0.12203750155E+03  0.13329584951E+04  0.95000000000E+03 0.  0.
<mgrwt>
<rscale>  0 0.26684931E+04</rscale>
<asrwt>0</asrwt>
<pdfrwt beam="2">  1        2 0.20322473E+00 0.26684931E+04</pdfrwt>
<pdfrwt beam="1">  1       -2 0.20733323E+00 0.26684931E+04</pdfrwt>
<totfact> 0.16843532E+00</totfact>
</mgrwt>
</event>
<event>
 4    1  0.2018023E-008  0.2260388E+04  0.7816531E-02  0.8493705E-01
         -2   -1    0    0    0  501 -0.00000000000E+00  0.00000000000E+00  0.69713758193E+03  0.69713758193E+03  0.00000000000E+00 0. -1.
          2   -1    0    0  501    0  0.00000000000E+00 -0.00000000000E+00 -0.18322617858E+04  0.18322617858E+04  0.00000000000E+00 0.  1.
    2000013    1    1    2    0    0  0.11123179606E+03  0.52106466433E+03 -0.90504675269E+03  0.14161534244E+04  0.95000000000E+03 0.  0.
   -2000013    1    1    2    0    0 -0.11123179606E+03 -0.52106466433E+03 -0.23007745123E+03  0.11132459434E+04  0.95000000000E+03 0.  0.
<mgrwt>
<rscale>  0 0.22603881E+04</rscale>
<asrwt>0</asrwt>
<pdfrwt beam="2">  1        2 0.28188642E+00 0.22603881E+04</pdfrwt>
<pdfrwt beam="1">  1       -2 0.10725194E+00 0.22603881E+04</pdfrwt>
<totfact> 0.52604263E+00</totfact>
</mgrwt>
</event>
<event>
 4    1  0.2018023E-008  0.2601456E+04  0.7816531E-02  0.8367707E-01
          1   -1    0    0  501    0  0.00000000000E+00  0.00000000000E+00  0.13918683224E+04  0.13918683224E+04  0.00000000000E+00 0.  1.
         -1   -1    0    0    0  501 -0.00000000000E+00 -0.00000000000E+00 -0.12155552351E+04  0.12155552351E+04  0.00000000000E+00 0. -1.
    2000013    1    1    2    0    0 -0.81637531788E+03  0.34285815789E+03  0.16162169031E+03  0.13086794668E+04  0.95000000000E+03 0.  0.
   -2000013    1    1    2    0    0  0.81637531788E+03 -0.34285815789E+03  0.14691397004E+02  0.12987440907E+04  0.95000000000E+03 0.  0.
<mgrwt>
<rscale>  0 0.26014556E+04</rscale>
<asrwt>0</asrwt>
<pdfrwt beam="1">  1        1 0.21413359E+00 0.26014556E+04</pdfrwt>
<pdfrwt beam="2">  1       -1 0.18700850E+00 0.26014556E+04</pdfrwt>
<totfact> 0.12716967E+00</totfact>
</mgrwt>
</event>
<event>
 4    1  0.2018023E-008  0.2602893E+04  0.7816531E-02  0.8367219E-01
          2   -1    0    0  501    0  0.00000000000E+00  0.00000000000E+00  0.49036932204E+03  0.49036932204E+03  0.00000000000E+00 0.  1.
         -2   -1    0    0    0  501 -0.00000000000E+00 -0.00000000000E+00 -0.34540560812E+04  0.34540560812E+04  0.00000000000E+00 0. -1.
    2000013    1    1    2    0    0  0.46207816184E+03 -0.30370269799E+03 -0.25377541271E+04  0.27655826811E+04  0.95000000000E+03 0.  0.
   -2000013    1    1    2    0    0 -0.46207816184E+03  0.30370269799E+03 -0.42593263202E+03  0.11788427221E+04  0.95000000000E+03 0.  0.
<mgrwt>
<rscale>  0 0.26028931E+04</rscale>
<asrwt>0</asrwt>
<pdfrwt beam="1">  1        2 0.75441434E-01 0.26028931E+04</pdfrwt>
<pdfrwt beam="2">  1       -2 0.53139325E+00 0.26028931E+04</pdfrwt>
<totfact> 0.59418013E-02</totfact>
</mgrwt>
</event>
<event>
 4    1  0.2018023E-008  0.2312897E+04  0.7816531E-02  0.8472853E-01
         -4   -1    0    0    0  501 -0.00000000000E+00  0.00000000000E+00  0.17810166250E+04  0.17810166250E+04  0.00000000000E+00 0. -1.
          4   -1    0    0  501    0  0.00000000000E+00 -0.00000000000E+00 -0.75090409378E+03  0.75090409378E+03  0.00000000000E+00 0.  1.
    2000013    1    1    2    0    0  0.30428634446E+03 -0.45157930138E+03  0.92224617824E+03  0.14316256697E+04  0.95000000000E+03 0.  0.
   -2000013    1    1    2    0    0 -0.30428634446E+03  0.45157930138E+03  0.10786635294E+03  0.11002950490E+04  0.95000000000E+03 0.  0.
<mgrwt>
<rscale>  0 0.23128966E+04</rscale>
<asrwt>0</asrwt>
<pdfrwt beam="2">  1        4 0.11552371E+00 0.23128966E+04</pdfrwt>
<pdfrwt beam="1">  1       -4 0.27400256E+00 0.23128966E+04</pdfrwt>
<totfact> 0.47169558E-02</totfact>
</mgrwt>
</event>
<event>
 4    1  0.2018023E-008  0.2140742E+04  0.7816531E-02  0.8543505E-01
          1   -1    0    0  501    0  0.00000000000E+00  0.00000000000E+00  0.26296422365E+04  0.26296422365E+04  0.00000000000E+00 0.  1.
         -1   -1    0    0    0  501 -0.00000000000E+00 -0.00000000000E+00 -0.43568451963E+03  0.43568451963E+03  0.00000000000E+00 0. -1.
    2000013    1    1    2    0    0  0.43732192528E+03  0.90854223584E+02  0.13962747206E+04  0.17468795184E+04  0.95000000000E+03 0.  0.
   -2000013    1    1    2    0    0 -0.43732192528E+03 -0.90854223584E+02  0.79768299631E+03  0.13184472378E+04  0.95000000000E+03 0.  0.
<mgrwt>
<rscale>  0 0.21407423E+04</rscale>
<asrwt>0</asrwt>
<pdfrwt beam="1">  1        1 0.40456034E+00 0.21407423E+04</pdfrwt>
<pdfrwt beam="2">  1       -1 0.67028389E-01 0.21407423E+04</pdfrwt>
<totfact> 0.22736250E+00</totfact>
</mgrwt>
</event>
<event>
 4    1  0.2018023E-008  0.3628331E+04  0.7816531E-02  0.8084033E-01
          1   -1    0    0  501    0  0.00000000000E+00  0.00000000000E+00  0.15743025671E+04  0.15743025671E+04  0.00000000000E+00 0.  1.
         -1   -1    0    0    0  501 -0.00000000000E+00 -0.00000000000E+00 -0.20905737427E+04  0.20905737427E+04  0.00000000000E+00 0. -1.
    2000013    1    1    2    0    0 -0.12782450097E+04 -0.86720820738E+03 -0.20530938218E+03  0.18249965266E+04  0.95000000000E+03 0.  0.
   -2000013    1    1    2    0    0  0.12782450097E+04  0.86720820738E+03 -0.31096179344E+03  0.18398797832E+04  0.95000000000E+03 0.  0.
<mgrwt>
<rscale>  0 0.36283305E+04</rscale>
<asrwt>0</asrwt>
<pdfrwt beam="1">  1        1 0.24220039E+00 0.36283305E+04</pdfrwt>
<pdfrwt beam="2">  1       -1 0.32162673E+00 0.36283305E+04</pdfrwt>
<totfact> 0.11201450E-01</totfact>
</mgrwt>
</event>
<event>
 4    1  0.2018023E-008  0.2806232E+04  0.7816531E-02  0.8301336E-01
         -2   -1    0    0    0  501 -0.00000000000E+00  0.00000000000E+00  0.18126607460E+04  0.18126607460E+04  0.00000000000E+00 0. -1.
          2   -1    0    0  501    0  0.00000000000E+00 -0.00000000000E+00 -0.10861021926E+04  0.10861021926E+04  0.00000000000E+00 0.  1.
    2000013    1    1    2    0    0  0.68796382623E+03  0.75129600929E+03  0.53764960799E+03  0.14930864077E+04  0.95000000000E+03 0.  0.
   -2000013    1    1    2    0    0 -0.68796382623E+03 -0.75129600929E+03  0.18890894541E+03  0.14056765309E+04  0.95000000000E+03 0.  0.
<mgrwt>
<rscale>  0 0.28062322E+04</rscale>
<asrwt>0</asrwt>
<pdfrwt beam="2">  1        2 0.16709265E+00 0.28062322E+04</pdfrwt>
<pdfrwt beam="1">  1       -2 0.27887088E+00 0.28062322E+04</pdfrwt>
<totfact> 0.82690078E-01</totfact>
</mgrwt>
</event>
<event>
 4    1  0.2018023E-008  0.2119997E+04  0.7816531E-02  0.8552485E-01
         -2   -1    0    0    0  501 -0.00000000000E+00  0.00000000000E+00  0.50148727125E+03  0.50148727125E+03  0.00000000000E+00 0. -1.
          2   -1    0    0  501    0  0.00000000000E+00 -0.00000000000E+00 -0.22405291405E+04  0.22405291405E+04  0.00000000000E+00 0.  1.
    2000013    1    1    2    0    0  0.28768201105E+03 -0.32340422385E+03 -0.11071193071E+04  0.15216978648E+04  0.95000000000E+03 0.  0.
   -2000013    1    1    2    0    0 -0.28768201105E+03  0.32340422385E+03 -0.63192256207E+03  0.12203185469E+04  0.95000000000E+03 0.  0.
<mgrwt>
<rscale>  0 0.21199970E+04</rscale>
<asrwt>0</asrwt>
<pdfrwt beam="2">  1        2 0.34469679E+00 0.21199970E+04</pdfrwt>
<pdfrwt beam="1">  1       -2 0.77151887E-01 0.21199970E+04</pdfrwt>
<totfact> 0.67578544E+00</totfact>
</mgrwt>
</event>
<event>
 4    1  0.2018023E-008  0.2518577E+04  0.7816531E-02  0.8396397E-01
         -1   -1    0    0    0  501 -0.00000000000E+00  0.00000000000E+00  0.10925070072E+04  0.10925070072E+04  0.00000000000E+00 0. -1.
          1   -1    0    0  501    0  0.00000000000E+00 -0.00000000000E+00 -0.14515308529E+04  0.14515308529E+04  0.00000000000E+00 0.  1.
    2000013    1    1    2    0    0 -0.71882242460E+03  0.40682580759E+03 -0.14609101126E+03  0.12673024499E+04  0.95000000000E+03 0.  0.
   -2000013    1    1    2    0    0  0.71882242460E+03 -0.40682580759E+03 -0.21293283443E+03  0.12767354103E+04  0.95000000000E+03 0.  0.
<mgrwt>
<rscale>  0 0.25185771E+04</rscale>
<asrwt>0</asrwt>
<pdfrwt beam="2">  1        1 0.22331244E+00 0.25185771E+04</pdfrwt>
<pdfrwt beam="1">  1       -1 0.16807800E+00 0.25185771E+04</pdfrwt>
<totfact> 0.15943711E+00</totfact>
</mgrwt>
</event>
<event>
 4    1  0.2018023E-008  0.2855975E+04  0.7816531E-02  0.8286098E-01
          2   -1    0    0  501    0  0.00000000000E+00  0.00000000000E+00  0.23890648020E+04  0.23890648020E+04  0.00000000000E+00 0.  1.
         -2   -1    0    0    0  501 -0.00000000000E+00 -0.00000000000E+00 -0.85353404039E+03  0.85353404039E+03  0.00000000000E+00 0. -1.
    2000013    1    1    2    0    0 -0.67486569104E+03 -0.16364285074E+03  0.16862437433E+04  0.20562443058E+04  0.95000000000E+03 0.  0.
   -2000013    1    1    2    0    0  0.67486569104E+03  0.16364285074E+03 -0.15071298167E+03  0.11863545365E+04  0.95000000000E+03 0.  0.
<mgrwt>
<rscale>  0 0.28559749E+04</rscale>
<asrwt>0</asrwt>
<pdfrwt beam="1">  1        2 0.36754843E+00 0.28559749E+04</pdfrwt>
<pdfrwt beam="2">  1       -2 0.13131293E+00 0.28559749E+04</pdfrwt>
<totfact> 0.14788212E+00</totfact>
</mgrwt>
</event>
<event>
 4    1  0.2018023E-008  0.2442848E+04  0.7816531E-02  0.8423634E-01
          2   -1    0    0  501    0  0.00000000000E+00  0.00000000000E+00  0.12472504568E+04  0.12472504568E+04  0.00000000000E+00 0.  1.
         -2   -1    0    0    0  501 -0.00000000000E+00 -0.00000000000E+00 -0.11961324146E+04  0.11961324146E+04  0.00000000000E+00 0. -1.
    2000013    1    1    2    0    0 -0.67799439527E+03  0.11701931862E+03  0.36623126349E+03  0.12288186438E+04  0.95000000000E+03 0.  0.
   -2000013    1    1    2    0    0  0.67799439527E+03 -0.11701931862E+03 -0.31511322126E+03  0.12145642277E+04  0.95000000000E+03 0.  0.
<mgrwt>
<rscale>  0 0.24428481E+04</rscale>
<asrwt>0</asrwt>
<pdfrwt beam="1">  1        2 0.19188469E+00 0.24428481E+04</pdfrwt>
<pdfrwt beam="2">  1       -2 0.18402037E+00 0.24428481E+04</pdfrwt>
<totfact> 0.27069798E+00</totfact>
</mgrwt>
</event>
<event>
 4    1  0.2018023E-008  0.3021488E+04  0.7816531E-02  0.8237621E-01
         -2   -1    0    0    0  501 -0.00000000000E+00  0.00000000000E+00  0.15098739256E+04  0.15098739256E+04  0.00000000000E+00 0. -1.
          2   -1    0    0  501    0  0.00000000000E+00 -0.00000000000E+00 -0.15116143737E+04  0.15116143737E+04  0.00000000000E+00 0.  1.
    2000013    1    1    2    0    0 -0.45609511503E+03 -0.60585028471E+03  0.89621955632E+03  0.15102274049E+04  0.95000000000E+03 0.  0.
   -2000013    1    1    2    0    0  0.45609511503E+03  0.60585028471E+03 -0.89796000437E+03  0.15112608944E+04  0.95000000000E+03 0.  0.
<mgrwt>
<rscale>  0 0.30214878E+04</rscale>
<asrwt>0</asrwt>
<pdfrwt beam="2">  1        2 0.23255606E+00 0.30214878E+04</pdfrwt>
<pdfrwt beam="1">  1       -2 0.23228830E+00 0.30214878E+04</pdfrwt>
<totfact> 0.88392983E-01</totfact>
</mgrwt>
</event>
<event>
 4    1  0.2018023E-008  0.2332155E+04  0.7816531E-02  0.8465350E-01
         -2   -1    0    0    0  501 -0.00000000000E+00  0.00000000000E+00  0.12199864434E+04  0.12199864434E+04  0.00000000000E+00 0. -1.
          2   -1    0    0  501    0  0.00000000000E+00 -0.00000000000E+00 -0.11145509457E+04  0.11145509457E+04  0.00000000000E+00 0.  1.
    2000013    1    1    2    0    0 -0.48595551569E+03 -0.29204495214E+03  0.42159655788E+03  0.11839284923E+04  0.95000000000E+03 0.  0.
   -2000013    1    1    2    0    0  0.48595551569E+03  0.29204495214E+03 -0.31616106015E+03  0.11506088967E+04  0.95000000000E+03 0.  0.
<mgrwt>
<rscale>  0 0.23321553E+04</rscale>
<asrwt>0</asrwt>
<pdfrwt beam="2">  1        2 0.17146938E+00 0.23321553E+04</pdfrwt>
<pdfrwt beam="1">  1       -2 0.18769022E+00 0.23321553E+04</pdfrwt>
<totfact> 0.30999206E+00</totfact>
</mgrwt>
</event>
<event>
 4    1  0.2018023E-008  0.2134085E+04  0.7816531E-02  0.8546376E-01
         -2   -1    0    0    0  501 -0.00000000000E+00  0.00000000000E+00  0.61440737499E+03  0.61440737499E+03  0.00000000000E+00 0. -1.
          2   -1    0    0  501    0  0.00000000000E+00 -0.00000000000E+00 -0.18531347122E+04  0.18531347122E+04  0.00000000000E+00 0.  1.
    2000013    1    1    2    0    0  0.22432118766E+03 -0.41761102795E+03 -0.74260455258E+03  0.12956390267E+04  0.95000000000E+03 0.  0.
   -2000013    1    1    2    0    0 -0.22432118766E+03  0.41761102795E+03 -0.49612278466E+03  0.11719030606E+04  0.95000000000E+03 0.  0.
<mgrwt>
<rscale>  0 0.21340849E+04</rscale>
<asrwt>0</asrwt>
<pdfrwt beam="2">  1        2 0.28509765E+00 0.21340849E+04</pdfrwt>
<pdfrwt beam="1">  1       -2 0.94524212E-01 0.21340849E+04</pdfrwt>
<totfact> 0.69866310E+00</totfact>
</mgrwt>
</event>
<event>
 4    1  0.2018023E-008  0.2849980E+04  0.7816531E-02  0.8287917E-01
         -2   -1    0    0    0  501 -0.00000000000E+00  0.00000000000E+00  0.13893052413E+04  0.13893052413E+04  0.00000000000E+00 0. -1.
          2   -1    0    0  501    0  0.00000000000E+00 -0.00000000000E+00 -0.14615911258E+04  0.14615911258E+04  0.00000000000E+00 0.  1.
    2000013    1    1    2    0    0  0.74188815440E+03 -0.73282802403E+03  0.16556829503E+03  0.14203336956E+04  0.95000000000E+03 0.  0.
   -2000013    1    1    2    0    0 -0.74188815440E+03  0.73282802403E+03 -0.23785417960E+03  0.14305626715E+04  0.95000000000E+03 0.  0.
<mgrwt>
<rscale>  0 0.28499798E+04</rscale>
<asrwt>0</asrwt>
<pdfrwt beam="2">  1        2 0.22486017E+00 0.28499798E+04</pdfrwt>
<pdfrwt beam="1">  1       -2 0.21373927E+00 0.28499798E+04</pdfrwt>
<totfact> 0.12531912E+00</totfact>
</mgrwt>
</event>
<event>
 4    1  0.2018023E-008  0.2148048E+04  0.7816531E-02  0.8540368E-01
         -2   -1    0    0    0  501 -0.00000000000E+00  0.00000000000E+00  0.37951201267E+03  0.37951201267E+03  0.00000000000E+00 0. -1.
          2   -1    0    0  501    0  0.00000000000E+00 -0.00000000000E+00 -0.30395018178E+04  0.30395018178E+04  0.00000000000E+00 0.  1.
    2000013    1    1    2    0    0 -0.45019914901E+03 -0.13820429642E+03 -0.10577854930E+04  0.14977282299E+04  0.95000000000E+03 0.  0.
   -2000013    1    1    2    0    0  0.45019914901E+03  0.13820429642E+03 -0.16022043121E+04  0.19212856006E+04  0.95000000000E+03 0.  0.
<mgrwt>
<rscale>  0 0.21480479E+04</rscale>
<asrwt>0</asrwt>
<pdfrwt beam="2">  1        2 0.46761565E+00 0.21480479E+04</pdfrwt>
<pdfrwt beam="1">  1       -2 0.58386465E-01 0.21480479E+04</pdfrwt>
<totfact> 0.41475035E+00</totfact>
</mgrwt>
</event>
<event>
 4    1  0.2018023E-008  0.2319911E+04  0.7816531E-02  0.8470112E-01
         -2   -1    0    0    0  501 -0.00000000000E+00  0.00000000000E+00  0.93763237908E+03  0.93763237908E+03  0.00000000000E+00 0. -1.
          2   -1    0    0  501    0  0.00000000000E+00 -0.00000000000E+00 -0.14349935998E+04  0.14349935998E+04  0.00000000000E+00 0.  1.
    2000013    1    1    2    0    0 -0.12696585881E+02  0.43963736898E+03  0.26222478027E+03  0.10792145546E+04  0.95000000000E+03 0.  0.
   -2000013    1    1    2    0    0  0.12696585881E+02 -0.43963736898E+03 -0.75958600096E+03  0.12934114242E+04  0.95000000000E+03 0.  0.
<mgrwt>
<rscale>  0 0.23199107E+04</rscale>
<asrwt>0</asrwt>
<pdfrwt beam="2">  1        2 0.22076825E+00 0.23199107E+04</pdfrwt>
<pdfrwt beam="1">  1       -2 0.14425114E+00 0.23199107E+04</pdfrwt>
<totfact> 0.41555579E+00</totfact>
</mgrwt>
</event>
<event>
 4    1  0.2018023E-008  0.2734087E+04  0.7816531E-02  0.8324029E-01
          2   -1    0    0  501    0  0.00000000000E+00  0.00000000000E+00  0.13846698690E+04  0.13846698690E+04  0.00000000000E+00 0.  1.
         -2   -1    0    0    0  501 -0.00000000000E+00 -0.00000000000E+00 -0.13496417520E+04  0.13496417520E+04  0.00000000000E+00 0. -1.
    2000013    1    1    2    0    0 -0.13063951516E+03 -0.37556389156E+03  0.91658357950E+03  0.13786734123E+04  0.95000000000E+03 0.  0.
   -2000013    1    1    2    0    0  0.13063951516E+03  0.37556389156E+03 -0.88155546250E+03  0.13556382088E+04  0.95000000000E+03 0.  0.
<mgrwt>
<rscale>  0 0.27340872E+04</rscale>
<asrwt>0</asrwt>
<pdfrwt beam="1">  1        2 0.21302613E+00 0.27340872E+04</pdfrwt>
<pdfrwt beam="2">  1       -2 0.20763719E+00 0.27340872E+04</pdfrwt>
<totfact> 0.15322540E+00</totfact>
</mgrwt>
</event>
<event>
 4    1  0.2018023E-008  0.3445710E+04  0.7816531E-02  0.8126778E-01
          2   -1    0    0  501    0  0.00000000000E+00  0.00000000000E+00  0.30121880043E+04  0.30121880043E+04  0.00000000000E+00 0.  1.
         -2   -1    0    0    0  501 -0.00000000000E+00 -0.00000000000E+00 -0.98540664892E+03  0.98540664892E+03  0.00000000000E+00 0. -1.
    2000013    1    1    2    0    0  0.10054994369E+03  0.12327212468E+04  0.16399564776E+03  0.15681538624E+04  0.95000000000E+03 0.  0.
   -2000013    1    1    2    0    0 -0.10054994369E+03 -0.12327212468E+04  0.18627857076E+04  0.24294407908E+04  0.95000000000E+03 0.  0.
<mgrwt>
<rscale>  0 0.34457104E+04</rscale>
<asrwt>0</asrwt>
<pdfrwt beam="1">  1        2 0.46341354E+00 0.34457104E+04</pdfrwt>
<pdfrwt beam="2">  1       -2 0.15160102E+00 0.34457104E+04</pdfrwt>
<totfact> 0.41097439E-01</totfact>
</mgrwt>
</event>
<event>
 4    1  0.2018023E-008  0.2593293E+04  0.7816531E-02  0.8370483E-01
         -2   -1    0    0    0  501 -0.00000000000E+00  0.00000000000E+00  0.62401065892E+03  0.62401065892E+03  0.00000000000E+00 0. -1.
          2   -1    0    0  501    0  0.00000000000E+00 -0.00000000000E+00 -0.26943320860E+04  0.26943320860E+04  0.00000000000E+00 0.  1.
    2000013    1    1    2    0    0 -0.75365512704E+03 -0.22281053433E+03 -0.52148780451E+03  0.13386897008E+04  0.95000000000E+03 0.  0.
   -2000013    1    1    2    0    0  0.75365512704E+03  0.22281053433E+03 -0.15488336226E+04  0.19796530441E+04  0.95000000000E+03 0.  0.
<mgrwt>
<rscale>  0 0.25932928E+04</rscale>
<asrwt>0</asrwt>
<pdfrwt beam="2">  1        2 0.41451263E+00 0.25932928E+04</pdfrwt>
<pdfrwt beam="1">  1       -2 0.96001640E-01 0.25932928E+04</pdfrwt>
<totfact> 0.21535289E+00</totfact>
</mgrwt>
</event>
<event>
 4    1  0.2018023E-008  0.2435894E+04  0.7816531E-02  0.8426186E-01
         -2   -1    0    0    0  501 -0.00000000000E+00  0.00000000000E+00  0.70180022342E+03  0.70180022342E+03  0.00000000000E+00 0. -1.
          2   -1    0    0  501    0  0.00000000000E+00 -0.00000000000E+00 -0.21136993297E+04  0.21136993297E+04  0.00000000000E+00 0.  1.
    2000013    1    1    2    0    0  0.11970841910E+03 -0.48646866033E+03 -0.13698404186E+04  0.17406736155E+04  0.95000000000E+03 0.  0.
   -2000013    1    1    2    0    0 -0.11970841910E+03  0.48646866033E+03 -0.42058687683E+02  0.10748259377E+04  0.95000000000E+03 0.  0.
<mgrwt>
<rscale>  0 0.24358938E+04</rscale>
<asrwt>0</asrwt>
<pdfrwt beam="2">  1        2 0.32518450E+00 0.24358938E+04</pdfrwt>
<pdfrwt beam="1">  1       -2 0.10796927E+00 0.24358938E+04</pdfrwt>
<totfact> 0.35573145E+00</totfact>
</mgrwt>
</event>
<event>
 4    1  0.2018023E-008  0.3225773E+04  0.7816531E-02  0.8182044E-01
          2   -1    0    0  501    0  0.00000000000E+00  0.00000000000E+00  0.32563553268E+04  0.32563553268E+04  0.00000000000E+00 0.  1.
         -2   -1    0    0    0  501 -0.00000000000E+00 -0.00000000000E+00 -0.79886951136E+03  0.79886951136E+03  0.00000000000E+00 0. -1.
    2000013    1    1    2    0    0  0.55601851343E+03  0.11717528240E+04  0.10660827557E+04  0.19290395822E+04  0.95000000000E+03 0.  0.
   -2000013    1    1    2    0    0 -0.55601851343E+03 -0.11717528240E+04  0.13914030597E+04  0.21261852559E+04  0.95000000000E+03 0.  0.
<mgrwt>
<rscale>  0 0.32257731E+04</rscale>
<asrwt>0</asrwt>
<pdfrwt beam="1">  1        2 0.50097774E+00 0.32257731E+04</pdfrwt>
<pdfrwt beam="2">  1       -2 0.12290300E+00 0.32257731E+04</pdfrwt>
<totfact> 0.50002607E-01</totfact>
</mgrwt>
</event>
<event>
 4    1  0.2018023E-008  0.2089512E+04  0.7816531E-02  0.8565878E-01
         -2   -1    0    0    0  501 -0.00000000000E+00  0.00000000000E+00  0.56864892194E+03  0.56864892194E+03  0.00000000000E+00 0. -1.
          2   -1    0    0  501    0  0.00000000000E+00 -0.00000000000E+00 -0.19194880321E+04  0.19194880321E+04  0.00000000000E+00 0.  1.
    2000013    1    1    2    0    0 -0.27430652528E+03  0.29786991835E+03 -0.86386403380E+03  0.13463772231E+04  0.95000000000E+03 0.  0.
   -2000013    1    1    2    0    0  0.27430652528E+03 -0.29786991835E+03 -0.48697507632E+03  0.11417597309E+04  0.95000000000E+03 0.  0.
<mgrwt>
<rscale>  0 0.20895117E+04</rscale>
<asrwt>0</asrwt>
<pdfrwt beam="2">  1        2 0.29530586E+00 0.20895117E+04</pdfrwt>
<pdfrwt beam="1">  1       -2 0.87484448E-01 0.20895117E+04</pdfrwt>
<totfact> 0.77057326E+00</totfact>
</mgrwt>
</event>
<event>
 4    1  0.2018023E-008  0.2204979E+04  0.7816531E-02  0.8516358E-01
          2   -1    0    0  501    0  0.00000000000E+00  0.00000000000E+00  0.24893296179E+04  0.24893296179E+04  0.00000000000E+00 0.  1.
         -2   -1    0    0    0  501 -0.00000000000E+00 -0.00000000000E+00 -0.48827740589E+03  0.48827740589E+03  0.00000000000E+00 0. -1.
    2000013    1    1    2    0    0 -0.24694629084E+03 -0.22341599122E+03  0.39346664659E+03  0.10808391081E+04  0.95000000000E+03 0.  0.
   -2000013    1    1    2    0    0  0.24694629084E+03  0.22341599122E+03  0.16075855654E+04  0.18967679157E+04  0.95000000000E+03 0.  0.
<mgrwt>
<rscale>  0 0.22049793E+04</rscale>
<asrwt>0</asrwt>
<pdfrwt beam="1">  1        2 0.38297378E+00 0.22049793E+04</pdfrwt>
<pdfrwt beam="2">  1       -2 0.75119602E-01 0.22049793E+04</pdfrwt>
<totfact> 0.51338555E+00</totfact>
</mgrwt>
</event>
<event>
 4    1  0.2018023E-008  0.2610893E+04  0.7816531E-02  0.8364511E-01
         -2   -1    0    0    0  501 -0.00000000000E+00  0.00000000000E+00  0.80854538635E+03  0.80854538635E+03  0.00000000000E+00 0. -1.
          2   -1    0    0  501    0  0.00000000000E+00 -0.00000000000E+00 -0.21077238733E+04  0.21077238733E+04  0.00000000000E+00 0.  1.
    2000013    1    1    2    0    0  0.94735516980E+02 -0.65221732586E+03 -0.13265533994E+04  0.17597176421E+04  0.95000000000E+03 0.  0.
   -2000013    1    1    2    0    0 -0.94735516980E+02  0.65221732586E+03  0.27374912463E+02  0.11565516176E+04  0.95000000000E+03 0.  0.
<mgrwt>
<rscale>  0 0.26108929E+04</rscale>
<asrwt>0</asrwt>
<pdfrwt beam="2">  1        2 0.32426521E+00 0.26108929E+04</pdfrwt>
<pdfrwt beam="1">  1       -2 0.12439160E+00 0.26108929E+04</pdfrwt>
<totfact> 0.24955417E+00</totfact>
</mgrwt>
</event>
<event>
 4    1  0.2018023E-008  0.2637742E+04  0.7816531E-02  0.8355493E-01
          2   -1    0    0  501    0  0.00000000000E+00  0.00000000000E+00  0.22252992185E+04  0.22252992185E+04  0.00000000000E+00 0.  1.
         -2   -1    0    0    0  501 -0.00000000000E+00 -0.00000000000E+00 -0.78165705203E+03  0.78165705203E+03  0.00000000000E+00 0. -1.
    2000013    1    1    2    0    0 -0.33300884536E+03  0.85101162123E+03  0.67338687503E+03  0.14802248323E+04  0.95000000000E+03 0.  0.
   -2000013    1    1    2    0    0  0.33300884536E+03 -0.85101162123E+03  0.77025529139E+03  0.15267314382E+04  0.95000000000E+03 0.  0.
<mgrwt>
<rscale>  0 0.26377421E+04</rscale>
<asrwt>0</asrwt>
<pdfrwt beam="1">  1        2 0.34235372E+00 0.26377421E+04</pdfrwt>
<pdfrwt beam="2">  1       -2 0.12025493E+00 0.26377421E+04</pdfrwt>
<totfact> 0.23272718E+00</totfact>
</mgrwt>
</event>
<event>
 4    1  0.2018023E-008  0.3705278E+04  0.7816531E-02  0.8066793E-01
         -2   -1    0    0    0  501 -0.00000000000E+00  0.00000000000E+00  0.13018543771E+04  0.13018543771E+04  0.00000000000E+00 0. -1.
          2   -1    0    0  501    0  0.00000000000E+00 -0.00000000000E+00 -0.26364477076E+04  0.26364477076E+04  0.00000000000E+00 0.  1.
    2000013    1    1    2    0    0 -0.22585918605E+03  0.15673356177E+04 -0.82572672165E+03  0.20228390764E+04  0.95000000000E+03 0.  0.
   -2000013    1    1    2    0    0  0.22585918605E+03 -0.15673356177E+04 -0.50886660885E+03  0.19154630082E+04  0.95000000000E+03 0.  0.
<mgrwt>
<rscale>  0 0.37052779E+04</rscale>
<asrwt>0</asrwt>
<pdfrwt beam="2">  1        2 0.40560734E+00 0.37052779E+04</pdfrwt>
<pdfrwt beam="1">  1       -2 0.20028529E+00 0.37052779E+04</pdfrwt>
<totfact> 0.30988494E-01</totfact>
</mgrwt>
</event>
<event>
 4    1  0.2018023E-008  0.1951495E+04  0.7816531E-02  0.8629640E-01
         -2   -1    0    0    0  501 -0.00000000000E+00  0.00000000000E+00  0.47300686367E+03  0.47300686367E+03  0.00000000000E+00 0. -1.
          2   -1    0    0  501    0  0.00000000000E+00 -0.00000000000E+00 -0.20128311417E+04  0.20128311417E+04  0.00000000000E+00 0.  1.
    2000013    1    1    2    0    0  0.19189995788E+03 -0.27004162414E+02 -0.90961472151E+03  0.13294561897E+04  0.95000000000E+03 0.  0.
   -2000013    1    1    2    0    0 -0.19189995788E+03  0.27004162414E+02 -0.63020955656E+03  0.11563818158E+04  0.95000000000E+03 0.  0.
<mgrwt>
<rscale>  0 0.19514948E+04</rscale>
<asrwt>0</asrwt>
<pdfrwt beam="2">  1        2 0.30966633E+00 0.19514948E+04</pdfrwt>
<pdfrwt beam="1">  1       -2 0.72770286E-01 0.19514948E+04</pdfrwt>
<totfact> 0.10463410E+01</totfact>
</mgrwt>
</event>
<event>
 4    1  0.2018023E-008  0.2892380E+04  0.7816531E-02  0.8275148E-01
          1   -1    0    0  501    0  0.00000000000E+00  0.00000000000E+00  0.33883064990E+04  0.33883064990E+04  0.00000000000E+00 0.  1.
         -1   -1    0    0    0  501 -0.00000000000E+00 -0.00000000000E+00 -0.61725986427E+03  0.61725986427E+03  0.00000000000E+00 0. -1.
    2000013    1    1    2    0    0 -0.73619441465E+03  0.40436798021E+03  0.42259644704E+03  0.13366313765E+04  0.95000000000E+03 0.  0.
   -2000013    1    1    2    0    0  0.73619441465E+03 -0.40436798021E+03  0.23484501877E+04  0.26689349868E+04  0.95000000000E+03 0.  0.
<mgrwt>
<rscale>  0 0.28923801E+04</rscale>
<asrwt>0</asrwt>
<pdfrwt beam="1">  1        1 0.52127791E+00 0.28923801E+04</pdfrwt>
<pdfrwt beam="2">  1       -1 0.94963058E-01 0.28923801E+04</pdfrwt>
<totfact> 0.28103219E-01</totfact>
</mgrwt>
</event>
<event>
 4    1  0.2018023E-008  0.2121339E+04  0.7816531E-02  0.8551901E-01
          2   -1    0    0  501    0  0.00000000000E+00  0.00000000000E+00  0.11601799467E+04  0.11601799467E+04  0.00000000000E+00 0.  1.
         -2   -1    0    0    0  501 -0.00000000000E+00 -0.00000000000E+00 -0.96969432229E+03  0.96969432229E+03  0.00000000000E+00 0. -1.
    2000013    1    1    2    0    0 -0.21764402132E+03 -0.33087325467E+03  0.35254305344E+03  0.10879488201E+04  0.95000000000E+03 0.  0.
   -2000013    1    1    2    0    0  0.21764402132E+03  0.33087325467E+03 -0.16205742905E+03  0.10419254489E+04  0.95000000000E+03 0.  0.
<mgrwt>
<rscale>  0 0.21213391E+04</rscale>
<asrwt>0</asrwt>
<pdfrwt beam="1">  1        2 0.17848922E+00 0.21213391E+04</pdfrwt>
<pdfrwt beam="2">  1       -2 0.14918374E+00 0.21213391E+04</pdfrwt>
<totfact> 0.55977155E+00</totfact>
</mgrwt>
</event>
<event>
 4    1  0.2018023E-008  0.2478052E+04  0.7816531E-02  0.8410847E-01
          4   -1    0    0  501    0  0.00000000000E+00  0.00000000000E+00  0.22717259061E+04  0.22717259061E+04  0.00000000000E+00 0.  1.
         -4   -1    0    0    0  501 -0.00000000000E+00 -0.00000000000E+00 -0.67577930339E+03  0.67577930339E+03  0.00000000000E+00 0. -1.
    2000013    1    1    2    0    0  0.37237076126E+03  0.64714938595E+03  0.47174651817E+03  0.12971149097E+04  0.95000000000E+03 0.  0.
   -2000013    1    1    2    0    0 -0.37237076126E+03 -0.64714938595E+03  0.11242000845E+04  0.16503902998E+04  0.95000000000E+03 0.  0.
<mgrwt>
<rscale>  0 0.24780519E+04</rscale>
<asrwt>0</asrwt>
<pdfrwt beam="1">  1        4 0.34949629E+00 0.24780519E+04</pdfrwt>
<pdfrwt beam="2">  1       -4 0.10396605E+00 0.24780519E+04</pdfrwt>
<totfact> 0.20038745E-02</totfact>
</mgrwt>
</event>
<event>
 4    1  0.2018023E-008  0.2732869E+04  0.7816531E-02  0.8324418E-01
         -2   -1    0    0    0  501 -0.00000000000E+00  0.00000000000E+00  0.10908540287E+04  0.10908540287E+04  0.00000000000E+00 0. -1.
          2   -1    0    0  501    0  0.00000000000E+00 -0.00000000000E+00 -0.17116345874E+04  0.17116345874E+04  0.00000000000E+00 0.  1.
    2000013    1    1    2    0    0  0.71712711415E+03 -0.13575364760E+03  0.36357620881E+03  0.12519536774E+04  0.95000000000E+03 0.  0.
   -2000013    1    1    2    0    0 -0.71712711415E+03  0.13575364760E+03 -0.98435676744E+03  0.15505349388E+04  0.95000000000E+03 0.  0.
<mgrwt>
<rscale>  0 0.27328692E+04</rscale>
<asrwt>0</asrwt>
<pdfrwt beam="2">  1        2 0.26332840E+00 0.27328692E+04</pdfrwt>
<pdfrwt beam="1">  1       -2 0.16782370E+00 0.27328692E+04</pdfrwt>
<totfact> 0.18677373E+00</totfact>
</mgrwt>
</event>
<event>
 4    1  0.2018023E-008  0.3202783E+04  0.7816531E-02  0.8188083E-01
          2   -1    0    0  501    0  0.00000000000E+00  0.00000000000E+00  0.21740280360E+04  0.21740280360E+04  0.00000000000E+00 0.  1.
         -2   -1    0    0    0  501 -0.00000000000E+00 -0.00000000000E+00 -0.11795865464E+04  0.11795865464E+04  0.00000000000E+00 0. -1.
    2000013    1    1    2    0    0  0.12738168447E+04 -0.62082968916E+02  0.69448218037E+03  0.17353008810E+04  0.95000000000E+03 0.  0.
   -2000013    1    1    2    0    0 -0.12738168447E+04  0.62082968916E+02  0.29995930931E+03  0.16183137014E+04  0.95000000000E+03 0.  0.
<mgrwt>
<rscale>  0 0.32027827E+04</rscale>
<asrwt>0</asrwt>
<pdfrwt beam="1">  1        2 0.33446585E+00 0.32027827E+04</pdfrwt>
<pdfrwt beam="2">  1       -2 0.18147485E+00 0.32027827E+04</pdfrwt>
<totfact> 0.79637414E-01</totfact>
</mgrwt>
</event>
<event>
 4    1  0.2018023E-008  0.2284046E+04  0.7816531E-02  0.8484238E-01
          2   -1    0    0  501    0  0.00000000000E+00  0.00000000000E+00  0.14220696983E+04  0.14220696983E+04  0.00000000000E+00 0. -1.
         -2   -1    0    0    0  501 -0.00000000000E+00 -0.00000000000E+00 -0.91712530535E+03  0.91712530535E+03  0.00000000000E+00 0.  1.
    2000013    1    1    2    0    0  0.58605672114E+03 -0.20569977940E+03  0.38177934083E+03  0.11975100604E+04  0.95000000000E+03 0.  0.
   -2000013    1    1    2    0    0 -0.58605672114E+03  0.20569977940E+03  0.12316505213E+03  0.11416849433E+04  0.95000000000E+03 0.  0.
<mgrwt>
<rscale>  0 0.22840456E+04</rscale>
<asrwt>0</asrwt>
<pdfrwt beam="1">  1        2 0.21877995E+00 0.22840456E+04</pdfrwt>
<pdfrwt beam="2">  1       -2 0.14109620E+00 0.22840456E+04</pdfrwt>
<totfact> 0.44915175E+00</totfact>
</mgrwt>
</event>
<event>
 4    1  0.2018023E-008  0.2623675E+04  0.7816531E-02  0.8360203E-01
          2   -1    0    0  501    0  0.00000000000E+00  0.00000000000E+00  0.21762161287E+04  0.21762161287E+04  0.00000000000E+00 0.  1.
         -2   -1    0    0    0  501 -0.00000000000E+00 -0.00000000000E+00 -0.79078459840E+03  0.79078459840E+03  0.00000000000E+00 0. -1.
    2000013    1    1    2    0    0  0.10162712126E+03  0.87960203870E+03  0.90242908986E+03  0.15814253319E+04  0.95000000000E+03 0.  0.
   -2000013    1    1    2    0    0 -0.10162712126E+03 -0.87960203870E+03  0.48300244047E+03  0.13855753952E+04  0.95000000000E+03 0.  0.
<mgrwt>
<rscale>  0 0.26236754E+04</rscale>
<asrwt>0</asrwt>
<pdfrwt beam="1">  1        2 0.33480248E+00 0.26236754E+04</pdfrwt>
<pdfrwt beam="2">  1       -2 0.12165917E+00 0.26236754E+04</pdfrwt>
<totfact> 0.24122868E+00</totfact>
</mgrwt>
</event>
<event>
 4    1  0.2018023E-008  0.2164283E+04  0.7816531E-02  0.8533443E-01
          2   -1    0    0  501    0  0.00000000000E+00  0.00000000000E+00  0.18430091681E+04  0.18430091681E+04  0.00000000000E+00 0.  1.
         -2   -1    0    0    0  501 -0.00000000000E+00 -0.00000000000E+00 -0.63539036111E+03  0.63539036111E+03  0.00000000000E+00 0. -1.
    2000013    1    1    2    0    0 -0.51449998735E+03  0.46387367654E+02  0.65058141004E+03  0.12619897765E+04  0.95000000000E+03 0.  0.
   -2000013    1    1    2    0    0  0.51449998735E+03 -0.46387367654E+02  0.55703739692E+03  0.12164097527E+04  0.95000000000E+03 0.  0.
<mgrwt>
<rscale>  0 0.21642830E+04</rscale>
<asrwt>0</asrwt>
<pdfrwt beam="1">  1        2 0.28353987E+00 0.21642830E+04</pdfrwt>
<pdfrwt beam="2">  1       -2 0.97752364E-01 0.21642830E+04</pdfrwt>
<totfact> 0.65254521E+00</totfact>
</mgrwt>
</event>
<event>
 4    1  0.2018023E-008  0.2466864E+04  0.7816531E-02  0.8414886E-01
         -2   -1    0    0    0  501 -0.00000000000E+00  0.00000000000E+00  0.76688040915E+03  0.76688040915E+03  0.00000000000E+00 0. -1.
          2   -1    0    0  501    0  0.00000000000E+00 -0.00000000000E+00 -0.19838225349E+04  0.19838225349E+04  0.00000000000E+00 0.  1.
    2000013    1    1    2    0    0  0.76333389439E+03  0.15927706101E+03 -0.49255398087E+03  0.13240684426E+04  0.95000000000E+03 0.  0.
   -2000013    1    1    2    0    0 -0.76333389439E+03 -0.15927706101E+03 -0.72438814491E+03  0.14266345015E+04  0.95000000000E+03 0.  0.
<mgrwt>
<rscale>  0 0.24668641E+04</rscale>
<asrwt>0</asrwt>
<pdfrwt beam="2">  1        2 0.30520346E+00 0.24668641E+04</pdfrwt>
<pdfrwt beam="1">  1       -2 0.11798160E+00 0.24668641E+04</pdfrwt>
<totfact> 0.33783538E+00</totfact>
</mgrwt>
</event>
<event>
 4    1  0.2018023E-008  0.1982045E+04  0.7816531E-02  0.8615061E-01
         -2   -1    0    0    0  501 -0.00000000000E+00  0.00000000000E+00  0.47211000795E+03  0.47211000795E+03  0.00000000000E+00 0. -1.
          2   -1    0    0  501    0  0.00000000000E+00 -0.00000000000E+00 -0.20802906613E+04  0.20802906613E+04  0.00000000000E+00 0.  1.
    2000013    1    1    2    0    0 -0.22277890670E+03  0.17307691404E+03 -0.81223292981E+03  0.12813307113E+04  0.95000000000E+03 0.  0.
   -2000013    1    1    2    0    0  0.22277890670E+03 -0.17307691404E+03 -0.79594772356E+03  0.12710699580E+04  0.95000000000E+03 0.  0.
<mgrwt>
<rscale>  0 0.19820454E+04</rscale>
<asrwt>0</asrwt>
<pdfrwt beam="2">  1        2 0.32004472E+00 0.19820454E+04</pdfrwt>
<pdfrwt beam="1">  1       -2 0.72632308E-01 0.19820454E+04</pdfrwt>
<totfact> 0.96118151E+00</totfact>
</mgrwt>
</event>
<event>
 4    1  0.2018023E-008  0.2079850E+04  0.7816531E-02  0.8570172E-01
          2   -1    0    0  501    0  0.00000000000E+00  0.00000000000E+00  0.15315129214E+04  0.15315129214E+04  0.00000000000E+00 0.  1.
         -2   -1    0    0    0  501 -0.00000000000E+00 -0.00000000000E+00 -0.70612798649E+03  0.70612798649E+03  0.00000000000E+00 0. -1.
    2000013    1    1    2    0    0 -0.39178890781E+03 -0.15948259324E+03  0.40914217157E+03  0.11175108780E+04  0.95000000000E+03 0.  0.
   -2000013    1    1    2    0    0  0.39178890781E+03  0.15948259324E+03  0.41624276331E+03  0.11201300299E+04  0.95000000000E+03 0.  0.
<mgrwt>
<rscale>  0 0.20798501E+04</rscale>
<asrwt>0</asrwt>
<pdfrwt beam="1">  1        2 0.23561737E+00 0.20798501E+04</pdfrwt>
<pdfrwt beam="2">  1       -2 0.10863508E+00 0.20798501E+04</pdfrwt>
<totfact> 0.76173574E+00</totfact>
</mgrwt>
</event>
<event>
 4    1  0.2018023E-008  0.2452668E+04  0.7816531E-02  0.8420045E-01
          2   -1    0    0  501    0  0.00000000000E+00  0.00000000000E+00  0.33261096572E+04  0.33261096572E+04  0.00000000000E+00 0.  1.
         -2   -1    0    0    0  501 -0.00000000000E+00 -0.00000000000E+00 -0.45214826020E+03  0.45214826020E+03  0.00000000000E+00 0. -1.
    2000013    1    1    2    0    0  0.61561144721E+03  0.20511119009E+03  0.78278615094E+03  0.13915107662E+04  0.95000000000E+03 0.  0.
   -2000013    1    1    2    0    0 -0.61561144721E+03 -0.20511119009E+03  0.20911752461E+04  0.23867471513E+04  0.95000000000E+03 0.  0.
<mgrwt>
<rscale>  0 0.24526677E+04</rscale>
<asrwt>0</asrwt>
<pdfrwt beam="1">  1        2 0.51170916E+00 0.24526677E+04</pdfrwt>
<pdfrwt beam="2">  1       -2 0.69561273E-01 0.24526677E+04</pdfrwt>
<totfact> 0.18072451E+00</totfact>
</mgrwt>
</event>
<event>
 4    1  0.2018023E-008  0.2394391E+04  0.7816531E-02  0.8441607E-01
          2   -1    0    0  501    0  0.00000000000E+00  0.00000000000E+00  0.13580687893E+04  0.13580687893E+04  0.00000000000E+00 0.  1.
         -2   -1    0    0    0  501 -0.00000000000E+00 -0.00000000000E+00 -0.10553785854E+04  0.10553785854E+04  0.00000000000E+00 0. -1.
    2000013    1    1    2    0    0 -0.34217680205E+03 -0.62369971581E+03 -0.70373417840E+01  0.11868596478E+04  0.95000000000E+03 0.  0.
   -2000013    1    1    2    0    0  0.34217680205E+03  0.62369971581E+03  0.30972754565E+03  0.12265877269E+04  0.95000000000E+03 0.  0.
<mgrwt>
<rscale>  0 0.23943907E+04</rscale>
<asrwt>0</asrwt>
<pdfrwt beam="1">  1        2 0.20893366E+00 0.23943907E+04</pdfrwt>
<pdfrwt beam="2">  1       -2 0.16236594E+00 0.23943907E+04</pdfrwt>
<totfact> 0.33305749E+00</totfact>
</mgrwt>
</event>
<event>
 4    1  0.2018023E-008  0.2371870E+04  0.7816531E-02  0.8450111E-01
         -2   -1    0    0    0  501 -0.00000000000E+00  0.00000000000E+00  0.10322795364E+04  0.10322795364E+04  0.00000000000E+00 0. -1.
          2   -1    0    0  501    0  0.00000000000E+00 -0.00000000000E+00 -0.13624616217E+04  0.13624616217E+04  0.00000000000E+00 0.  1.
    2000013    1    1    2    0    0 -0.41377481049E+02 -0.69276458491E+03 -0.14297625086E+02  0.11765794865E+04  0.95000000000E+03 0.  0.
   -2000013    1    1    2    0    0  0.41377481049E+02  0.69276458491E+03 -0.31588446017E+03  0.12181616716E+04  0.95000000000E+03 0.  0.
<mgrwt>
<rscale>  0 0.23718695E+04</rscale>
<asrwt>0</asrwt>
<pdfrwt beam="2">  1        2 0.20960948E+00 0.23718695E+04</pdfrwt>
<pdfrwt beam="1">  1       -2 0.15881224E+00 0.23718695E+04</pdfrwt>
<totfact> 0.35238731E+00</totfact>
</mgrwt>
</event>
<event>
 4    1  0.2018023E-008  0.2711501E+04  0.7816531E-02  0.8331283E-01
          2   -1    0    0  501    0  0.00000000000E+00  0.00000000000E+00  0.57996855086E+04  0.57996855086E+04  0.00000000000E+00 0.  1.
         -2   -1    0    0    0  501 -0.00000000000E+00 -0.00000000000E+00 -0.31692387206E+03  0.31692387206E+03  0.00000000000E+00 0. -1.
    2000013    1    1    2    0    0  0.11803013643E+02 -0.79915081429E+03  0.15124809332E+04  0.19567523881E+04  0.95000000000E+03 0.  0.
   -2000013    1    1    2    0    0 -0.11803013643E+02  0.79915081429E+03  0.39702807034E+04  0.41598569926E+04  0.95000000000E+03 0.  0.
<mgrwt>
<rscale>  0 0.27115005E+04</rscale>
<asrwt>0</asrwt>
<pdfrwt beam="1">  1        2 0.89225923E+00 0.27115005E+04</pdfrwt>
<pdfrwt beam="2">  1       -2 0.48757523E-01 0.27115005E+04</pdfrwt>
<totfact> 0.47292612E-03</totfact>
</mgrwt>
</event>
<event>
 4    1  0.2018023E-008  0.2262109E+04  0.7816531E-02  0.8493012E-01
          2   -1    0    0  501    0  0.00000000000E+00  0.00000000000E+00  0.11384902407E+04  0.11384902407E+04  0.00000000000E+00 0.  1.
         -2   -1    0    0    0  501 -0.00000000000E+00 -0.00000000000E+00 -0.11236677889E+04  0.11236677889E+04  0.00000000000E+00 0. -1.
    2000013    1    1    2    0    0  0.22020550072E+03  0.42480461297E+03  0.39191315960E+03  0.11335984061E+04  0.95000000000E+03 0.  0.
   -2000013    1    1    2    0    0 -0.22020550072E+03 -0.42480461297E+03 -0.37709070779E+03  0.11285596234E+04  0.95000000000E+03 0.  0.
<mgrwt>
<rscale>  0 0.22621095E+04</rscale>
<asrwt>0</asrwt>
<pdfrwt beam="1">  1        2 0.17515235E+00 0.22621095E+04</pdfrwt>
<pdfrwt beam="2">  1       -2 0.17287197E+00 0.22621095E+04</pdfrwt>
<totfact> 0.38159829E+00</totfact>
</mgrwt>
</event>
<event>
 4    1  0.2018023E-008  0.2284336E+04  0.7816531E-02  0.8484123E-01
          2   -1    0    0  501    0  0.00000000000E+00  0.00000000000E+00  0.10210398995E+04  0.10210398995E+04  0.00000000000E+00 0.  1.
         -2   -1    0    0    0  501 -0.00000000000E+00 -0.00000000000E+00 -0.12776662564E+04  0.12776662564E+04  0.00000000000E+00 0. -1.
    2000013    1    1    2    0    0  0.42966901080E+03 -0.26731168232E+03 -0.51278627504E+03  0.11922754540E+04  0.95000000000E+03 0.  0.
   -2000013    1    1    2    0    0 -0.42966901080E+03  0.26731168232E+03  0.25615991814E+03  0.11064307019E+04  0.95000000000E+03 0.  0.
<mgrwt>
<rscale>  0 0.22843364E+04</rscale>
<asrwt>0</asrwt>
<pdfrwt beam="1">  1        2 0.15708306E+00 0.22843364E+04</pdfrwt>
<pdfrwt beam="2">  1       -2 0.19656404E+00 0.22843364E+04</pdfrwt>
<totfact> 0.31055397E+00</totfact>
</mgrwt>
</event>
<event>
 4    1  0.2018023E-008  0.3097728E+04  0.7816531E-02  0.8216362E-01
         -2   -1    0    0    0  501 -0.00000000000E+00  0.00000000000E+00  0.93888324609E+03  0.93888324609E+03  0.00000000000E+00 0. -1.
          2   -1    0    0  501    0  0.00000000000E+00 -0.00000000000E+00 -0.25551424278E+04  0.25551424278E+04  0.00000000000E+00 0.  1.
    2000013    1    1    2    0    0  0.11148003065E+04  0.47355739841E+03 -0.61458467509E+03  0.16574832294E+04  0.95000000000E+03 0.  0.
   -2000013    1    1    2    0    0 -0.11148003065E+04 -0.47355739841E+03 -0.10016745066E+04  0.18365424444E+04  0.95000000000E+03 0.  0.
<mgrwt>
<rscale>  0 0.30977285E+04</rscale>
<asrwt>0</asrwt>
<pdfrwt beam="2">  1        2 0.39309883E+00 0.30977285E+04</pdfrwt>
<pdfrwt beam="1">  1       -2 0.14444358E+00 0.30977285E+04</pdfrwt>
<totfact> 0.90852754E-01</totfact>
</mgrwt>
</event>
<event>
 4    1  0.2018023E-008  0.3687259E+04  0.7816531E-02  0.8070791E-01
         -2   -1    0    0    0  501 -0.00000000000E+00  0.00000000000E+00  0.18951211648E+04  0.18951211648E+04  0.00000000000E+00 0. -1.
          2   -1    0    0  501    0  0.00000000000E+00 -0.00000000000E+00 -0.17935369830E+04  0.17935369830E+04  0.00000000000E+00 0.  1.
    2000013    1    1    2    0    0  0.89461312860E+03 -0.11989699320E+04 -0.45793635702E+03  0.18303188943E+04  0.95000000000E+03 0.  0.
   -2000013    1    1    2    0    0 -0.89461312860E+03  0.11989699320E+04  0.55952053891E+03  0.18583392535E+04  0.95000000000E+03 0.  0.
<mgrwt>
<rscale>  0 0.36872591E+04</rscale>
<asrwt>0</asrwt>
<pdfrwt beam="2">  1        2 0.27592877E+00 0.36872591E+04</pdfrwt>
<pdfrwt beam="1">  1       -2 0.29155710E+00 0.36872591E+04</pdfrwt>
<totfact> 0.25203178E-01</totfact>
</mgrwt>
</event>
<event>
 4    1  0.2018023E-008  0.4699705E+04  0.7816531E-02  0.7876578E-01
         -2   -1    0    0    0  501 -0.00000000000E+00  0.00000000000E+00  0.15343275817E+04  0.15343275817E+04  0.00000000000E+00 0. -1.
          2   -1    0    0  501    0  0.00000000000E+00 -0.00000000000E+00 -0.35988453332E+04  0.35988453332E+04  0.00000000000E+00 0.  1.
    2000013    1    1    2    0    0  0.38041320867E+03 -0.20768442838E+04 -0.14709386531E+04  0.27430196699E+04  0.95000000000E+03 0.  0.
   -2000013    1    1    2    0    0 -0.38041320867E+03  0.20768442838E+04 -0.59357909837E+03  0.23901532450E+04  0.95000000000E+03 0.  0.
<mgrwt>
<rscale>  0 0.46997054E+04</rscale>
<asrwt>0</asrwt>
<pdfrwt beam="2">  1        2 0.55366851E+00 0.46997054E+04</pdfrwt>
<pdfrwt beam="1">  1       -2 0.23605040E+00 0.46997054E+04</pdfrwt>
<totfact> 0.40327981E-02</totfact>
</mgrwt>
</event>
<event>
 4    1  0.2018023E-008  0.2368483E+04  0.7816531E-02  0.8451398E-01
          2   -1    0    0  501    0  0.00000000000E+00  0.00000000000E+00  0.84338641396E+03  0.84338641396E+03  0.00000000000E+00 0.  1.
         -2   -1    0    0    0  501 -0.00000000000E+00 -0.00000000000E+00 -0.16628530711E+04  0.16628530711E+04  0.00000000000E+00 0. -1.
    2000013    1    1    2    0    0 -0.25273577011E+03 -0.52040670814E+03 -0.83985933666E+03  0.13937583064E+04  0.95000000000E+03 0.  0.
   -2000013    1    1    2    0    0  0.25273577011E+03  0.52040670814E+03  0.20392679541E+02  0.11124811786E+04  0.95000000000E+03 0.  0.
<mgrwt>
<rscale>  0 0.23684828E+04</rscale>
<asrwt>0</asrwt>
<pdfrwt beam="1">  1        2 0.12975176E+00 0.23684828E+04</pdfrwt>
<pdfrwt beam="2">  1       -2 0.25582355E+00 0.23684828E+04</pdfrwt>
<totfact> 0.17113075E+00</totfact>
</mgrwt>
</event>
<event>
 4    1  0.2018023E-008  0.2194486E+04  0.7816531E-02  0.8520727E-01
         -2   -1    0    0    0  501 -0.00000000000E+00  0.00000000000E+00  0.29616606747E+03  0.29616606747E+03  0.00000000000E+00 0. -1.
          2   -1    0    0  501    0  0.00000000000E+00 -0.00000000000E+00 -0.40650917641E+04  0.40650917641E+04  0.00000000000E+00 0.  1.
    2000013    1    1    2    0    0  0.51555083334E+03 -0.63244483604E+02 -0.15309022634E+04  0.18750878024E+04  0.95000000000E+03 0.  0.
   -2000013    1    1    2    0    0 -0.51555083334E+03  0.63244483604E+02 -0.22380234332E+04  0.24861700292E+04  0.95000000000E+03 0.  0.
<mgrwt>
<rscale>  0 0.21944860E+04</rscale>
<asrwt>0</asrwt>
<pdfrwt beam="2">  1        2 0.62539870E+00 0.21944860E+04</pdfrwt>
<pdfrwt beam="1">  1       -2 0.45564013E-01 0.21944860E+04</pdfrwt>
<totfact> 0.12738306E+00</totfact>
</mgrwt>
</event>
<event>
 4    1  0.2018023E-008  0.4043433E+04  0.7816531E-02  0.7995842E-01
          2   -1    0    0  501    0  0.00000000000E+00  0.00000000000E+00  0.33513479574E+04  0.33513479574E+04  0.00000000000E+00 0.  1.
         -2   -1    0    0    0  501 -0.00000000000E+00 -0.00000000000E+00 -0.12196099150E+04  0.12196099150E+04  0.00000000000E+00 0. -1.
    2000013    1    1    2    0    0  0.82535308210E+03 -0.13425488074E+04  0.11924935368E+03  0.18440079769E+04  0.95000000000E+03 0.  0.
   -2000013    1    1    2    0    0 -0.82535308210E+03  0.13425488074E+04  0.20124886887E+04  0.27269498955E+04  0.95000000000E+03 0.  0.
<mgrwt>
<rscale>  0 0.40434328E+04</rscale>
<asrwt>0</asrwt>
<pdfrwt beam="1">  1        2 0.51559199E+00 0.40434328E+04</pdfrwt>
<pdfrwt beam="2">  1       -2 0.18763230E+00 0.40434328E+04</pdfrwt>
<totfact> 0.12987130E-01</totfact>
</mgrwt>
</event>
<event>
 4    1  0.2018023E-008  0.1977093E+04  0.7816531E-02  0.8617406E-01
         -2   -1    0    0    0  501 -0.00000000000E+00  0.00000000000E+00  0.53567118423E+03  0.53567118423E+03  0.00000000000E+00 0. -1.
          2   -1    0    0  501    0  0.00000000000E+00 -0.00000000000E+00 -0.18242984749E+04  0.18242984749E+04  0.00000000000E+00 0.  1.
    2000013    1    1    2    0    0  0.75647692487E+02  0.25679875746E+03 -0.57832755448E+03  0.11439540793E+04  0.95000000000E+03 0.  0.
   -2000013    1    1    2    0    0 -0.75647692487E+02 -0.25679875746E+03 -0.71029973621E+03  0.12160155799E+04  0.95000000000E+03 0.  0.
<mgrwt>
<rscale>  0 0.19770929E+04</rscale>
<asrwt>0</asrwt>
<pdfrwt beam="2">  1        2 0.28066131E+00 0.19770929E+04</pdfrwt>
<pdfrwt beam="1">  1       -2 0.82410950E-01 0.19770929E+04</pdfrwt>
<totfact> 0.10063646E+01</totfact>
</mgrwt>
</event>
<event>
 4    1  0.2018023E-008  0.2471074E+04  0.7816531E-02  0.8413364E-01
          2   -1    0    0  501    0  0.00000000000E+00  0.00000000000E+00  0.71284747395E+03  0.71284747395E+03  0.00000000000E+00 0.  1.
         -2   -1    0    0    0  501 -0.00000000000E+00 -0.00000000000E+00 -0.21414839227E+04  0.21414839227E+04  0.00000000000E+00 0. -1.
    2000013    1    1    2    0    0  0.68527322798E+03  0.36989007457E+03 -0.86770431545E+03  0.15039377791E+04  0.95000000000E+03 0.  0.
   -2000013    1    1    2    0    0 -0.68527322798E+03 -0.36989007457E+03 -0.56093213332E+03  0.13503936176E+04  0.95000000000E+03 0.  0.
<mgrwt>
<rscale>  0 0.24710738E+04</rscale>
<asrwt>0</asrwt>
<pdfrwt beam="1">  1        2 0.10966884E+00 0.24710738E+04</pdfrwt>
<pdfrwt beam="2">  1       -2 0.32945906E+00 0.24710738E+04</pdfrwt>
<totfact> 0.74910410E-01</totfact>
</mgrwt>
</event>
<event>
 4    1  0.2018023E-008  0.2502268E+04  0.7816531E-02  0.8402178E-01
         -2   -1    0    0    0  501 -0.00000000000E+00  0.00000000000E+00  0.12068286066E+04  0.12068286066E+04  0.00000000000E+00 0. -1.
          2   -1    0    0  501    0  0.00000000000E+00 -0.00000000000E+00 -0.12970655834E+04  0.12970655834E+04  0.00000000000E+00 0.  1.
    2000013    1    1    2    0    0  0.63529104791E+03  0.37620841800E+03  0.29819104843E+03  0.12395746814E+04  0.95000000000E+03 0.  0.
   -2000013    1    1    2    0    0 -0.63529104791E+03 -0.37620841800E+03 -0.38842802523E+03  0.12643195087E+04  0.95000000000E+03 0.  0.
<mgrwt>
<rscale>  0 0.25022677E+04</rscale>
<asrwt>0</asrwt>
<pdfrwt beam="2">  1        2 0.19954855E+00 0.25022677E+04</pdfrwt>
<pdfrwt beam="1">  1       -2 0.18566594E+00 0.25022677E+04</pdfrwt>
<totfact> 0.24540923E+00</totfact>
</mgrwt>
</event>
<event>
 4    1  0.2018023E-008  0.3002579E+04  0.7816531E-02  0.8242995E-01
         -2   -1    0    0    0  501 -0.00000000000E+00  0.00000000000E+00  0.12337032658E+04  0.12337032658E+04  0.00000000000E+00 0. -1.
          2   -1    0    0  501    0  0.00000000000E+00 -0.00000000000E+00 -0.18269141408E+04  0.18269141408E+04  0.00000000000E+00 0.  1.
    2000013    1    1    2    0    0  0.72096671181E+03 -0.49768168491E+03 -0.10755025564E+04  0.16812750542E+04  0.95000000000E+03 0.  0.
   -2000013    1    1    2    0    0 -0.72096671181E+03  0.49768168491E+03  0.48229168141E+03  0.13793423524E+04  0.95000000000E+03 0.  0.
<mgrwt>
<rscale>  0 0.30025789E+04</rscale>
<asrwt>0</asrwt>
<pdfrwt beam="2">  1        2 0.28106371E+00 0.30025789E+04</pdfrwt>
<pdfrwt beam="1">  1       -2 0.18980050E+00 0.30025789E+04</pdfrwt>
<totfact> 0.11094935E+00</totfact>
</mgrwt>
</event>
<event>
 4    1  0.2018023E-008  0.3085764E+04  0.7816531E-02  0.8219656E-01
          2   -1    0    0  501    0  0.00000000000E+00  0.00000000000E+00  0.13261615993E+04  0.13261615993E+04  0.00000000000E+00 0.  1.
         -2   -1    0    0    0  501 -0.00000000000E+00 -0.00000000000E+00 -0.17950181158E+04  0.17950181158E+04  0.00000000000E+00 0. -1.
    2000013    1    1    2    0    0  0.61702295870E+03  0.87363789260E+03 -0.81900927958E+03  0.16484042887E+04  0.95000000000E+03 0.  0.
   -2000013    1    1    2    0    0 -0.61702295870E+03 -0.87363789260E+03  0.35015276309E+03  0.14727754263E+04  0.95000000000E+03 0.  0.
<mgrwt>
<rscale>  0 0.30857635E+04</rscale>
<asrwt>0</asrwt>
<pdfrwt beam="1">  1        2 0.20402486E+00 0.30857635E+04</pdfrwt>
<pdfrwt beam="2">  1       -2 0.27615663E+00 0.30857635E+04</pdfrwt>
<totfact> 0.60303814E-01</totfact>
</mgrwt>
</event>
<event>
 4    1  0.2018023E-008  0.2892204E+04  0.7816531E-02  0.8275201E-01
         -2   -1    0    0    0  501 -0.00000000000E+00  0.00000000000E+00  0.80790443756E+03  0.80790443756E+03  0.00000000000E+00 0. -1.
          2   -1    0    0  501    0  0.00000000000E+00 -0.00000000000E+00 -0.25884379974E+04  0.25884379974E+04  0.00000000000E+00 0.  1.
    2000013    1    1    2    0    0  0.75224558356E+03  0.76487184293E+03 -0.11186033858E+04  0.18178767529E+04  0.95000000000E+03 0.  0.
   -2000013    1    1    2    0    0 -0.75224558356E+03 -0.76487184293E+03 -0.66193017403E+03  0.15784656820E+04  0.95000000000E+03 0.  0.
<mgrwt>
<rscale>  0 0.28922037E+04</rscale>
<asrwt>0</asrwt>
<pdfrwt beam="2">  1        2 0.39822123E+00 0.28922037E+04</pdfrwt>
<pdfrwt beam="1">  1       -2 0.12429299E+00 0.28922037E+04</pdfrwt>
<totfact> 0.12980097E+00</totfact>
</mgrwt>
</event>
<event>
 4    1  0.2018023E-008  0.2652192E+04  0.7816531E-02  0.8350686E-01
         -2   -1    0    0    0  501 -0.00000000000E+00  0.00000000000E+00  0.93025129523E+03  0.93025129523E+03  0.00000000000E+00 0. -1.
          2   -1    0    0  501    0  0.00000000000E+00 -0.00000000000E+00 -0.18903818693E+04  0.18903818693E+04  0.00000000000E+00 0.  1.
    2000013    1    1    2    0    0  0.84466142487E+03 -0.36078113621E+03 -0.59856072199E+03  0.14506518841E+04  0.95000000000E+03 0.  0.
   -2000013    1    1    2    0    0 -0.84466142487E+03  0.36078113621E+03 -0.36156985213E+03  0.13699812805E+04  0.95000000000E+03 0.  0.
<mgrwt>
<rscale>  0 0.26521917E+04</rscale>
<asrwt>0</asrwt>
<pdfrwt beam="2">  1        2 0.29082798E+00 0.26521917E+04</pdfrwt>
<pdfrwt beam="1">  1       -2 0.14311558E+00 0.26521917E+04</pdfrwt>
<totfact> 0.22962849E+00</totfact>
</mgrwt>
</event>
<event>
 4    1  0.2018023E-008  0.2576139E+04  0.7816531E-02  0.8376352E-01
          2   -1    0    0  501    0  0.00000000000E+00  0.00000000000E+00  0.11361196593E+04  0.11361196593E+04  0.00000000000E+00 0.  1.
         -2   -1    0    0    0  501 -0.00000000000E+00 -0.00000000000E+00 -0.14603419786E+04  0.14603419786E+04  0.00000000000E+00 0. -1.
    2000013    1    1    2    0    0 -0.18580296815E+03 -0.84583378524E+03 -0.24439893906E+03  0.13085061622E+04  0.95000000000E+03 0.  0.
   -2000013    1    1    2    0    0  0.18580296815E+03  0.84583378524E+03 -0.79823380272E+02  0.12879554757E+04  0.95000000000E+03 0.  0.
<mgrwt>
<rscale>  0 0.25761392E+04</rscale>
<asrwt>0</asrwt>
<pdfrwt beam="1">  1        2 0.17478764E+00 0.25761392E+04</pdfrwt>
<pdfrwt beam="2">  1       -2 0.22466800E+00 0.25761392E+04</pdfrwt>
<totfact> 0.16942353E+00</totfact>
</mgrwt>
</event>
<event>
 4    1  0.2018023E-008  0.2405243E+04  0.7816531E-02  0.8437543E-01
          2   -1    0    0  501    0  0.00000000000E+00  0.00000000000E+00  0.40976148501E+04  0.40976148501E+04  0.00000000000E+00 0.  1.
         -2   -1    0    0    0  501 -0.00000000000E+00 -0.00000000000E+00 -0.35296115458E+03  0.35296115458E+03  0.00000000000E+00 0. -1.
    2000013    1    1    2    0    0  0.46042235785E+03 -0.57432840188E+03  0.19541834039E+04  0.22941609876E+04  0.95000000000E+03 0.  0.
   -2000013    1    1    2    0    0 -0.46042235785E+03  0.57432840188E+03  0.17904702916E+04  0.21564150170E+04  0.95000000000E+03 0.  0.
<mgrwt>
<rscale>  0 0.24052433E+04</rscale>
<asrwt>0</asrwt>
<pdfrwt beam="1">  1        2 0.63040225E+00 0.24052433E+04</pdfrwt>
<pdfrwt beam="2">  1       -2 0.54301719E-01 0.24052433E+04</pdfrwt>
<totfact> 0.82004481E-01</totfact>
</mgrwt>
</event>
<event>
 4    1  0.2018023E-008  0.2907551E+04  0.7816531E-02  0.8270634E-01
          2   -1    0    0  501    0  0.00000000000E+00  0.00000000000E+00  0.62474662843E+03  0.62474662843E+03  0.00000000000E+00 0.  1.
         -2   -1    0    0    0  501 -0.00000000000E+00 -0.00000000000E+00 -0.33829120802E+04  0.33829120802E+04  0.00000000000E+00 0. -1.
    2000013    1    1    2    0    0  0.95082837388E+03 -0.46086540944E+03 -0.95538166944E+03  0.17122282723E+04  0.95000000000E+03 0.  0.
   -2000013    1    1    2    0    0 -0.95082837388E+03  0.46086540944E+03 -0.18027837824E+04  0.22954304364E+04  0.95000000000E+03 0.  0.
<mgrwt>
<rscale>  0 0.29075508E+04</rscale>
<asrwt>0</asrwt>
<pdfrwt beam="1">  1        2 0.96114866E-01 0.29075508E+04</pdfrwt>
<pdfrwt beam="2">  1       -2 0.52044801E+00 0.29075508E+04</pdfrwt>
<totfact> 0.50310734E-02</totfact>
</mgrwt>
</event>
<event>
 4    1  0.2018023E-008  0.2599755E+04  0.7816531E-02  0.8368284E-01
         -2   -1    0    0    0  501 -0.00000000000E+00  0.00000000000E+00  0.10571498273E+04  0.10571498273E+04  0.00000000000E+00 0. -1.
          2   -1    0    0  501    0  0.00000000000E+00 -0.00000000000E+00 -0.15983370493E+04  0.15983370493E+04  0.00000000000E+00 0.  1.
    2000013    1    1    2    0    0 -0.61441353129E+03  0.52033774934E+03  0.11012495909E+03  0.12501531376E+04  0.95000000000E+03 0.  0.
   -2000013    1    1    2    0    0  0.61441353129E+03 -0.52033774934E+03 -0.65131218104E+03  0.14053337390E+04  0.95000000000E+03 0.  0.
<mgrwt>
<rscale>  0 0.25997552E+04</rscale>
<asrwt>0</asrwt>
<pdfrwt beam="2">  1        2 0.24589801E+00 0.25997552E+04</pdfrwt>
<pdfrwt beam="1">  1       -2 0.16263844E+00 0.25997552E+04</pdfrwt>
<totfact> 0.23816879E+00</totfact>
</mgrwt>
</event>
<event>
 4    1  0.2018023E-008  0.2919739E+04  0.7816531E-02  0.8267029E-01
         -2   -1    0    0    0  501 -0.00000000000E+00  0.00000000000E+00  0.72733471798E+03  0.72733471798E+03  0.00000000000E+00 0. -1.
          2   -1    0    0  501    0  0.00000000000E+00 -0.00000000000E+00 -0.29301764294E+04  0.29301764294E+04  0.00000000000E+00 0.  1.
    2000013    1    1    2    0    0 -0.49058834219E+03 -0.57902098165E+03 -0.89319554422E+02  0.12191883372E+04  0.95000000000E+03 0.  0.
   -2000013    1    1    2    0    0  0.49058834219E+03  0.57902098165E+03 -0.21135221570E+04  0.24383228102E+04  0.95000000000E+03 0.  0.
<mgrwt>
<rscale>  0 0.29197391E+04</rscale>
<asrwt>0</asrwt>
<pdfrwt beam="2">  1        2 0.45079639E+00 0.29197391E+04</pdfrwt>
<pdfrwt beam="1">  1       -2 0.11189765E+00 0.29197391E+04</pdfrwt>
<totfact> 0.10447697E+00</totfact>
</mgrwt>
</event>
<event>
 4    1  0.2018023E-008  0.2226923E+04  0.7816531E-02  0.8507305E-01
         -2   -1    0    0    0  501 -0.00000000000E+00  0.00000000000E+00  0.62291984039E+03  0.62291984039E+03  0.00000000000E+00 0. -1.
          2   -1    0    0  501    0  0.00000000000E+00 -0.00000000000E+00 -0.19902988315E+04  0.19902988315E+04  0.00000000000E+00 0.  1.
    2000013    1    1    2    0    0  0.26940540647E+02 -0.56322793514E+03 -0.52047588711E+03  0.12212070458E+04  0.95000000000E+03 0.  0.
   -2000013    1    1    2    0    0 -0.26940540647E+02  0.56322793514E+03 -0.84690310402E+03  0.13920116261E+04  0.95000000000E+03 0.  0.
<mgrwt>
<rscale>  0 0.22269231E+04</rscale>
<asrwt>0</asrwt>
<pdfrwt beam="2">  1        2 0.30619981E+00 0.22269231E+04</pdfrwt>
<pdfrwt beam="1">  1       -2 0.95833824E-01 0.22269231E+04</pdfrwt>
<totfact> 0.56332639E+00</totfact>
</mgrwt>
</event>
<event>
 4    1  0.2018023E-008  0.2121890E+04  0.7816531E-02  0.8551661E-01
          2   -1    0    0  501    0  0.00000000000E+00  0.00000000000E+00  0.17154986420E+04  0.17154986420E+04  0.00000000000E+00 0.  1.
         -2   -1    0    0    0  501 -0.00000000000E+00 -0.00000000000E+00 -0.65613830985E+03  0.65613830985E+03  0.00000000000E+00 0. -1.
    2000013    1    1    2    0    0 -0.12872514224E+03 -0.45093055168E+03  0.59286587255E+03  0.12140422017E+04  0.95000000000E+03 0.  0.
   -2000013    1    1    2    0    0  0.12872514224E+03  0.45093055168E+03  0.46649445956E+03  0.11575947501E+04  0.95000000000E+03 0.  0.
<mgrwt>
<rscale>  0 0.21218901E+04</rscale>
<asrwt>0</asrwt>
<pdfrwt beam="1">  1        2 0.26392287E+00 0.21218901E+04</pdfrwt>
<pdfrwt beam="2">  1       -2 0.10094436E+00 0.21218901E+04</pdfrwt>
<totfact> 0.71439893E+00</totfact>
</mgrwt>
</event>
<event>
 4    1  0.2018023E-008  0.2562242E+04  0.7816531E-02  0.8381141E-01
          2   -1    0    0  501    0  0.00000000000E+00  0.00000000000E+00  0.14186677666E+04  0.14186677666E+04  0.00000000000E+00 0.  1.
         -2   -1    0    0    0  501 -0.00000000000E+00 -0.00000000000E+00 -0.11569105083E+04  0.11569105083E+04  0.00000000000E+00 0. -1.
    2000013    1    1    2    0    0 -0.79783799838E+03 -0.25336912537E+03  0.32690711275E+03  0.13077116065E+04  0.95000000000E+03 0.  0.
   -2000013    1    1    2    0    0  0.79783799838E+03  0.25336912537E+03 -0.65149854360E+02  0.12678666684E+04  0.95000000000E+03 0.  0.
<mgrwt>
<rscale>  0 0.25622425E+04</rscale>
<asrwt>0</asrwt>
<pdfrwt beam="1">  1        2 0.21825658E+00 0.25622425E+04</pdfrwt>
<pdfrwt beam="2">  1       -2 0.17798623E+00 0.25622425E+04</pdfrwt>
<totfact> 0.23462406E+00</totfact>
</mgrwt>
</event>
<event>
 4    1  0.2018023E-008  0.3372010E+04  0.7816531E-02  0.8144810E-01
         -2   -1    0    0    0  501 -0.00000000000E+00  0.00000000000E+00  0.13128393850E+04  0.13128393850E+04  0.00000000000E+00 0. -1.
          2   -1    0    0  501    0  0.00000000000E+00 -0.00000000000E+00 -0.21652399855E+04  0.21652399855E+04  0.00000000000E+00 0.  1.
    2000013    1    1    2    0    0  0.13783712695E+04 -0.17153106757E+03 -0.31909728625E+03  0.17127910969E+04  0.95000000000E+03 0.  0.
   -2000013    1    1    2    0    0 -0.13783712695E+04  0.17153106757E+03 -0.53330331422E+03  0.17652882735E+04  0.95000000000E+03 0.  0.
<mgrwt>
<rscale>  0 0.33720097E+04</rscale>
<asrwt>0</asrwt>
<pdfrwt beam="2">  1        2 0.33311384E+00 0.33720097E+04</pdfrwt>
<pdfrwt beam="1">  1       -2 0.20197529E+00 0.33720097E+04</pdfrwt>
<totfact> 0.57899682E-01</totfact>
</mgrwt>
</event>
<event>
 4    1  0.2018023E-008  0.2724461E+04  0.7816531E-02  0.8327111E-01
          2   -1    0    0  501    0  0.00000000000E+00  0.00000000000E+00  0.21340950785E+04  0.21340950785E+04  0.00000000000E+00 0.  1.
         -2   -1    0    0    0  501 -0.00000000000E+00 -0.00000000000E+00 -0.86953602488E+03  0.86953602488E+03  0.00000000000E+00 0. -1.
    2000013    1    1    2    0    0 -0.26952975734E+03 -0.61611563485E+03  0.14125649367E+04  0.18303235960E+04  0.95000000000E+03 0.  0.
   -2000013    1    1    2    0    0  0.26952975734E+03  0.61611563485E+03 -0.14800588304E+03  0.11733075074E+04  0.95000000000E+03 0.  0.
<mgrwt>
<rscale>  0 0.27244615E+04</rscale>
<asrwt>0</asrwt>
<pdfrwt beam="1">  1        2 0.32832232E+00 0.27244615E+04</pdfrwt>
<pdfrwt beam="2">  1       -2 0.13377477E+00 0.27244615E+04</pdfrwt>
<totfact> 0.19880761E+00</totfact>
</mgrwt>
</event>
<event>
 4    1  0.2018023E-008  0.2166786E+04  0.7816531E-02  0.8532381E-01
          2   -1    0    0  501    0  0.00000000000E+00  0.00000000000E+00  0.18729979857E+04  0.18729979857E+04  0.00000000000E+00 0.  1.
         -2   -1    0    0    0  501 -0.00000000000E+00 -0.00000000000E+00 -0.62666404326E+03  0.62666404326E+03  0.00000000000E+00 0. -1.
    2000013    1    1    2    0    0  0.44260383472E+03  0.21989700616E+03  0.43365016381E+03  0.11553377482E+04  0.95000000000E+03 0.  0.
   -2000013    1    1    2    0    0 -0.44260383472E+03 -0.21989700616E+03  0.81268377866E+03  0.13443242808E+04  0.95000000000E+03 0.  0.
<mgrwt>
<rscale>  0 0.21667861E+04</rscale>
<asrwt>0</asrwt>
<pdfrwt beam="1">  1        2 0.28815353E+00 0.21667861E+04</pdfrwt>
<pdfrwt beam="2">  1       -2 0.96409854E-01 0.21667861E+04</pdfrwt>
<totfact> 0.64862120E+00</totfact>
</mgrwt>
</event>
<event>
 4    1  0.2018023E-008  0.2723424E+04  0.7816531E-02  0.8327445E-01
         -1   -1    0    0    0  501 -0.00000000000E+00  0.00000000000E+00  0.10978408850E+04  0.10978408850E+04  0.00000000000E+00 0. -1.
          1   -1    0    0  501    0  0.00000000000E+00 -0.00000000000E+00 -0.16890053198E+04  0.16890053198E+04  0.00000000000E+00 0.  1.
    2000013    1    1    2    0    0 -0.40931051158E+02 -0.50991665377E+03  0.55446681657E+03  0.12131050224E+04  0.95000000000E+03 0.  0.
   -2000013    1    1    2    0    0  0.40931051158E+02  0.50991665377E+03 -0.11456312514E+04  0.15737411823E+04  0.95000000000E+03 0.  0.
<mgrwt>
<rscale>  0 0.27234237E+04</rscale>
<asrwt>0</asrwt>
<pdfrwt beam="2">  1        1 0.25984697E+00 0.27234237E+04</pdfrwt>
<pdfrwt beam="1">  1       -1 0.16889860E+00 0.27234237E+04</pdfrwt>
<totfact> 0.10594063E+00</totfact>
</mgrwt>
</event>
<event>
 4    1  0.2018023E-008  0.2555616E+04  0.7816531E-02  0.8383436E-01
         -2   -1    0    0    0  501 -0.00000000000E+00  0.00000000000E+00  0.77395268615E+03  0.77395268615E+03  0.00000000000E+00 0. -1.
          2   -1    0    0  501    0  0.00000000000E+00 -0.00000000000E+00 -0.21096815037E+04  0.21096815037E+04  0.00000000000E+00 0.  1.
    2000013    1    1    2    0    0  0.42290396037E+03  0.73720103802E+03 -0.56706440160E+03  0.13951255018E+04  0.95000000000E+03 0.  0.
   -2000013    1    1    2    0    0 -0.42290396037E+03 -0.73720103802E+03 -0.76866441599E+03  0.14885086881E+04  0.95000000000E+03 0.  0.
<mgrwt>
<rscale>  0 0.25556163E+04</rscale>
<asrwt>0</asrwt>
<pdfrwt beam="2">  1        2 0.32456638E+00 0.25556163E+04</pdfrwt>
<pdfrwt beam="1">  1       -2 0.11906965E+00 0.25556163E+04</pdfrwt>
<totfact> 0.27890128E+00</totfact>
</mgrwt>
</event>
<event>
 4    1  0.2018023E-008  0.2556332E+04  0.7816531E-02  0.8383188E-01
         -2   -1    0    0    0  501 -0.00000000000E+00  0.00000000000E+00  0.99818615924E+03  0.99818615924E+03  0.00000000000E+00 0. -1.
          2   -1    0    0  501    0  0.00000000000E+00 -0.00000000000E+00 -0.16366763614E+04  0.16366763614E+04  0.00000000000E+00 0.  1.
    2000013    1    1    2    0    0 -0.30314573582E+03  0.78712541429E+03 -0.17441539278E+03  0.12823355584E+04  0.95000000000E+03 0.  0.
   -2000013    1    1    2    0    0  0.30314573582E+03 -0.78712541429E+03 -0.46407480935E+03  0.13525269623E+04  0.95000000000E+03 0.  0.
<mgrwt>
<rscale>  0 0.25563315E+04</rscale>
<asrwt>0</asrwt>
<pdfrwt beam="2">  1        2 0.25179636E+00 0.25563315E+04</pdfrwt>
<pdfrwt beam="1">  1       -2 0.15356710E+00 0.25563315E+04</pdfrwt>
<totfact> 0.26581823E+00</totfact>
</mgrwt>
</event>
<event>
 4    1  0.2018023E-008  0.2299695E+04  0.7816531E-02  0.8478041E-01
          2   -1    0    0  501    0  0.00000000000E+00  0.00000000000E+00  0.31001429991E+04  0.31001429991E+04  0.00000000000E+00 0.  1.
         -2   -1    0    0    0  501 -0.00000000000E+00 -0.00000000000E+00 -0.42648000143E+03  0.42648000143E+03  0.00000000000E+00 0. -1.
    2000013    1    1    2    0    0 -0.40912665202E+03  0.88166031349E+02  0.20950954156E+04  0.23381793487E+04  0.95000000000E+03 0.  0.
   -2000013    1    1    2    0    0  0.40912665202E+03 -0.88166031349E+02  0.57856758211E+03  0.11884436518E+04  0.95000000000E+03 0.  0.
<mgrwt>
<rscale>  0 0.22996948E+04</rscale>
<asrwt>0</asrwt>
<pdfrwt beam="1">  1        2 0.47694506E+00 0.22996948E+04</pdfrwt>
<pdfrwt beam="2">  1       -2 0.65612310E-01 0.22996948E+04</pdfrwt>
<totfact> 0.29216117E+00</totfact>
</mgrwt>
</event>
<event>
 4    1  0.2018023E-008  0.2697371E+04  0.7816531E-02  0.8335859E-01
         -2   -1    0    0    0  501 -0.00000000000E+00  0.00000000000E+00  0.43378253960E+03  0.43378253960E+03  0.00000000000E+00 0.  1.
          2   -1    0    0  501    0  0.00000000000E+00 -0.00000000000E+00 -0.41932355713E+04  0.41932355713E+04  0.00000000000E+00 0. -1.
    2000013    1    1    2    0    0  0.77166515442E+03 -0.44639790135E+03 -0.24781810000E+04  0.27997534294E+04  0.95000000000E+03 0.  0.
   -2000013    1    1    2    0    0 -0.77166515442E+03  0.44639790135E+03 -0.12812720317E+04  0.18272646814E+04  0.95000000000E+03 0.  0.
<mgrwt>
<rscale>  0 0.26973708E+04</rscale>
<asrwt>0</asrwt>
<pdfrwt beam="2">  1        2 0.64511315E+00 0.26973708E+04</pdfrwt>
<pdfrwt beam="1">  1       -2 0.66735776E-01 0.26973708E+04</pdfrwt>
<totfact> 0.42740202E-01</totfact>
</mgrwt>
</event>
<event>
 4    1  0.2018023E-008  0.2343155E+04  0.7816531E-02  0.8461097E-01
          2   -1    0    0  501    0  0.00000000000E+00  0.00000000000E+00  0.16529820283E+04  0.16529820283E+04  0.00000000000E+00 0.  1.
         -2   -1    0    0    0  501 -0.00000000000E+00 -0.00000000000E+00 -0.83037451576E+03  0.83037451576E+03  0.00000000000E+00 0. -1.
    2000013    1    1    2    0    0 -0.26844482801E+02 -0.48089014209E+03  0.92847491999E+03  0.14129903156E+04  0.95000000000E+03 0.  0.
   -2000013    1    1    2    0    0  0.26844482801E+02  0.48089014209E+03 -0.10586740744E+03  0.10703662284E+04  0.95000000000E+03 0.  0.
<mgrwt>
<rscale>  0 0.23431553E+04</rscale>
<asrwt>0</asrwt>
<pdfrwt beam="1">  1        2 0.25430493E+00 0.23431553E+04</pdfrwt>
<pdfrwt beam="2">  1       -2 0.12774993E+00 0.23431553E+04</pdfrwt>
<totfact> 0.42723079E+00</totfact>
</mgrwt>
</event>
<event>
 4    1  0.2018023E-008  0.2062608E+04  0.7816531E-02  0.8577896E-01
         -2   -1    0    0    0  501 -0.00000000000E+00  0.00000000000E+00  0.59354260002E+03  0.59354260002E+03  0.00000000000E+00 0.  1.
          2   -1    0    0  501    0  0.00000000000E+00 -0.00000000000E+00 -0.17919315749E+04  0.17919315749E+04  0.00000000000E+00 0. -1.
    2000013    1    1    2    0    0  0.17879710760E+03 -0.24918441238E+03 -0.89861473889E+03  0.13431566275E+04  0.95000000000E+03 0.  0.
   -2000013    1    1    2    0    0 -0.17879710760E+03  0.24918441238E+03 -0.29977423596E+03  0.10423175474E+04  0.95000000000E+03 0.  0.
<mgrwt>
<rscale>  0 0.20626078E+04</rscale>
<asrwt>0</asrwt>
<pdfrwt beam="2">  1        2 0.27568178E+00 0.20626078E+04</pdfrwt>
<pdfrwt beam="1">  1       -2 0.91314247E-01 0.20626078E+04</pdfrwt>
<totfact> 0.82354916E+00</totfact>
</mgrwt>
</event>
<event>
 4    1  0.2018023E-008  0.2263016E+04  0.7816531E-02  0.8492648E-01
         -2   -1    0    0    0  501 -0.00000000000E+00  0.00000000000E+00  0.11079954965E+04  0.11079954965E+04  0.00000000000E+00 0. -1.
          2   -1    0    0  501    0  0.00000000000E+00 -0.00000000000E+00 -0.11555198776E+04  0.11555198776E+04  0.00000000000E+00 0.  1.
    2000013    1    1    2    0    0 -0.54020745748E+03 -0.29211309926E+03  0.18688507210E+01  0.11312195421E+04  0.95000000000E+03 0.  0.
   -2000013    1    1    2    0    0  0.54020745748E+03  0.29211309926E+03 -0.49393231780E+02  0.11322958320E+04  0.95000000000E+03 0.  0.
<mgrwt>
<rscale>  0 0.22630164E+04</rscale>
<asrwt>0</asrwt>
<pdfrwt beam="2">  1        2 0.17777229E+00 0.22630164E+04</pdfrwt>
<pdfrwt beam="1">  1       -2 0.17046085E+00 0.22630164E+04</pdfrwt>
<totfact> 0.38752139E+00</totfact>
</mgrwt>
</event>
<event>
 4    1  0.2018023E-008  0.2225572E+04  0.7816531E-02  0.8507859E-01
          2   -1    0    0  501    0  0.00000000000E+00  0.00000000000E+00  0.31988648507E+04  0.31988648507E+04  0.00000000000E+00 0.  1.
         -2   -1    0    0    0  501 -0.00000000000E+00 -0.00000000000E+00 -0.38710363034E+03  0.38710363034E+03  0.00000000000E+00 0. -1.
    2000013    1    1    2    0    0  0.22054895508E+03 -0.29209242938E+03  0.68201105406E+03  0.12253974485E+04  0.95000000000E+03 0.  0.
   -2000013    1    1    2    0    0 -0.22054895508E+03  0.29209242938E+03  0.21297501663E+04  0.23605710326E+04  0.95000000000E+03 0.  0.
<mgrwt>
<rscale>  0 0.22255716E+04</rscale>
<asrwt>0</asrwt>
<pdfrwt beam="1">  1        2 0.49213304E+00 0.22255716E+04</pdfrwt>
<pdfrwt beam="2">  1       -2 0.59554407E-01 0.22255716E+04</pdfrwt>
<totfact> 0.31231108E+00</totfact>
</mgrwt>
</event>
<event>
 4    1  0.2018023E-008  0.2328202E+04  0.7816531E-02  0.8466884E-01
          2   -1    0    0  501    0  0.00000000000E+00  0.00000000000E+00  0.31086463533E+04  0.31086463533E+04  0.00000000000E+00 0.  1.
         -2   -1    0    0    0  501 -0.00000000000E+00 -0.00000000000E+00 -0.43592334024E+03  0.43592334024E+03  0.00000000000E+00 0. -1.
    2000013    1    1    2    0    0  0.53067011698E+03 -0.21392550012E+03  0.79754222409E+03  0.13659972518E+04  0.95000000000E+03 0.  0.
   -2000013    1    1    2    0    0 -0.53067011698E+03  0.21392550012E+03  0.18751807890E+04  0.21785724418E+04  0.95000000000E+03 0.  0.
<mgrwt>
<rscale>  0 0.23282023E+04</rscale>
<asrwt>0</asrwt>
<pdfrwt beam="1">  1        2 0.47825327E+00 0.23282023E+04</pdfrwt>
<pdfrwt beam="2">  1       -2 0.67065131E-01 0.23282023E+04</pdfrwt>
<totfact> 0.27451309E+00</totfact>
</mgrwt>
</event>
<event>
 4    1  0.2018023E-008  0.2476090E+04  0.7816531E-02  0.8411553E-01
          2   -1    0    0  501    0  0.00000000000E+00  0.00000000000E+00  0.30578778668E+04  0.30578778668E+04  0.00000000000E+00 0.  1.
         -2   -1    0    0    0  501 -0.00000000000E+00 -0.00000000000E+00 -0.50124804124E+03  0.50124804124E+03  0.00000000000E+00 0. -1.
    2000013    1    1    2    0    0  0.11584562945E+03  0.76265747754E+03  0.10086786702E+04  0.15858749313E+04  0.95000000000E+03 0.  0.
   -2000013    1    1    2    0    0 -0.11584562945E+03 -0.76265747754E+03  0.15479511554E+04  0.19732509768E+04  0.95000000000E+03 0.  0.
<mgrwt>
<rscale>  0 0.24760899E+04</rscale>
<asrwt>0</asrwt>
<pdfrwt beam="1">  1        2 0.47044274E+00 0.24760899E+04</pdfrwt>
<pdfrwt beam="2">  1       -2 0.77115085E-01 0.24760899E+04</pdfrwt>
<totfact> 0.21477920E+00</totfact>
</mgrwt>
</event>
<event>
 4    1  0.2018023E-008  0.2310454E+04  0.7816531E-02  0.8473811E-01
         -2   -1    0    0    0  501 -0.00000000000E+00  0.00000000000E+00  0.61136561081E+03  0.61136561081E+03  0.00000000000E+00 0. -1.
          2   -1    0    0  501    0  0.00000000000E+00 -0.00000000000E+00 -0.21828995969E+04  0.21828995969E+04  0.00000000000E+00 0.  1.
    2000013    1    1    2    0    0  0.63226976238E+02 -0.65420961737E+03 -0.77625404410E+03  0.13917823878E+04  0.95000000000E+03 0.  0.
   -2000013    1    1    2    0    0 -0.63226976238E+02  0.65420961737E+03 -0.79527994195E+03  0.14024828199E+04  0.95000000000E+03 0.  0.
<mgrwt>
<rscale>  0 0.23104543E+04</rscale>
<asrwt>0</asrwt>
<pdfrwt beam="2">  1        2 0.33583070E+00 0.23104543E+04</pdfrwt>
<pdfrwt beam="1">  1       -2 0.94056249E-01 0.23104543E+04</pdfrwt>
<totfact> 0.45618207E+00</totfact>
</mgrwt>
</event>
<event>
 4    1  0.2018023E-008  0.3049095E+04  0.7816531E-02  0.8229849E-01
         -2   -1    0    0    0  501 -0.00000000000E+00  0.00000000000E+00  0.70377575039E+03  0.70377575039E+03  0.00000000000E+00 0. -1.
          2   -1    0    0  501    0  0.00000000000E+00 -0.00000000000E+00 -0.33025360390E+04  0.33025360390E+04  0.00000000000E+00 0.  1.
    2000013    1    1    2    0    0  0.18651204038E+03 -0.76683402471E+03 -0.12495200893E+03  0.12413436942E+04  0.95000000000E+03 0.  0.
   -2000013    1    1    2    0    0 -0.18651204038E+03  0.76683402471E+03 -0.24738082796E+04  0.27649680951E+04  0.95000000000E+03 0.  0.
<mgrwt>
<rscale>  0 0.30490948E+04</rscale>
<asrwt>0</asrwt>
<pdfrwt beam="2">  1        2 0.50808246E+00 0.30490948E+04</pdfrwt>
<pdfrwt beam="1">  1       -2 0.10827319E+00 0.30490948E+04</pdfrwt>
<totfact> 0.64521830E-01</totfact>
</mgrwt>
</event>
<event>
 4    1  0.2018023E-008  0.2617918E+04  0.7816531E-02  0.8362140E-01
          2   -1    0    0  501    0  0.00000000000E+00  0.00000000000E+00  0.28871361391E+04  0.28871361391E+04  0.00000000000E+00 0.  1.
         -2   -1    0    0    0  501 -0.00000000000E+00 -0.00000000000E+00 -0.59345099364E+03  0.59345099364E+03  0.00000000000E+00 0. -1.
    2000013    1    1    2    0    0  0.81650317013E+03  0.33913765440E+03  0.91972316878E+03  0.15906233000E+04  0.95000000000E+03 0.  0.
   -2000013    1    1    2    0    0 -0.81650317013E+03 -0.33913765440E+03  0.13739619766E+04  0.18899638327E+04  0.95000000000E+03 0.  0.
<mgrwt>
<rscale>  0 0.26179181E+04</rscale>
<asrwt>0</asrwt>
<pdfrwt beam="1">  1        2 0.44417478E+00 0.26179181E+04</pdfrwt>
<pdfrwt beam="2">  1       -2 0.91300155E-01 0.26179181E+04</pdfrwt>
<totfact> 0.18471281E+00</totfact>
</mgrwt>
</event>
<event>
 4    1  0.2018023E-008  0.2508301E+04  0.7816531E-02  0.8400034E-01
         -2   -1    0    0    0  501 -0.00000000000E+00  0.00000000000E+00  0.74875057491E+03  0.74875057491E+03  0.00000000000E+00 0. -1.
          2   -1    0    0  501    0  0.00000000000E+00 -0.00000000000E+00 -0.21006916583E+04  0.21006916583E+04  0.00000000000E+00 0.  1.
    2000013    1    1    2    0    0 -0.13076542873E+03 -0.66080863118E+03 -0.14723822566E+03  0.11738597614E+04  0.95000000000E+03 0.  0.
   -2000013    1    1    2    0    0  0.13076542873E+03  0.66080863118E+03 -0.12047028577E+04  0.16755824718E+04  0.95000000000E+03 0.  0.
<mgrwt>
<rscale>  0 0.25083015E+04</rscale>
<asrwt>0</asrwt>
<pdfrwt beam="2">  1        2 0.32318333E+00 0.25083015E+04</pdfrwt>
<pdfrwt beam="1">  1       -2 0.11519240E+00 0.25083015E+04</pdfrwt>
<totfact> 0.30724706E+00</totfact>
</mgrwt>
</event>
<event>
 4    1  0.2018023E-008  0.3633812E+04  0.7816531E-02  0.8082790E-01
         -2   -1    0    0    0  501 -0.00000000000E+00  0.00000000000E+00  0.14647059307E+04  0.14647059307E+04  0.00000000000E+00 0. -1.
          2   -1    0    0  501    0  0.00000000000E+00 -0.00000000000E+00 -0.22537947331E+04  0.22537947331E+04  0.00000000000E+00 0.  1.
    2000013    1    1    2    0    0  0.14392465357E+04 -0.35449317233E+03 -0.85395120349E+03  0.19567392922E+04  0.95000000000E+03 0.  0.
   -2000013    1    1    2    0    0 -0.14392465357E+04  0.35449317233E+03  0.64862401072E+02  0.17617613717E+04  0.95000000000E+03 0.  0.
<mgrwt>
<rscale>  0 0.36338115E+04</rscale>
<asrwt>0</asrwt>
<pdfrwt beam="2">  1        2 0.34673765E+00 0.36338115E+04</pdfrwt>
<pdfrwt beam="1">  1       -2 0.22533937E+00 0.36338115E+04</pdfrwt>
<totfact> 0.35794148E-01</totfact>
</mgrwt>
</event>
<event>
 4    1  0.2018023E-008  0.3185966E+04  0.7816531E-02  0.8192533E-01
         -2   -1    0    0    0  501 -0.00000000000E+00  0.00000000000E+00  0.16411797385E+04  0.16411797385E+04  0.00000000000E+00 0. -1.
          2   -1    0    0  501    0  0.00000000000E+00 -0.00000000000E+00 -0.15462018156E+04  0.15462018156E+04  0.00000000000E+00 0.  1.
    2000013    1    1    2    0    0  0.10620931344E+04  0.61548092005E+03  0.40574929714E+03  0.16043662553E+04  0.95000000000E+03 0.  0.
   -2000013    1    1    2    0    0 -0.10620931344E+04 -0.61548092005E+03 -0.31077137429E+03  0.15830152988E+04  0.95000000000E+03 0.  0.
<mgrwt>
<rscale>  0 0.31859662E+04</rscale>
<asrwt>0</asrwt>
<pdfrwt beam="2">  1        2 0.23787720E+00 0.31859662E+04</pdfrwt>
<pdfrwt beam="1">  1       -2 0.25248919E+00 0.31859662E+04</pdfrwt>
<totfact> 0.62522895E-01</totfact>
</mgrwt>
</event>
<event>
 4    1  0.2018023E-008  0.2894374E+04  0.7816531E-02  0.8274553E-01
         -2   -1    0    0    0  501 -0.00000000000E+00  0.00000000000E+00  0.93636966906E+03  0.93636966906E+03  0.00000000000E+00 0. -1.
          2   -1    0    0  501    0  0.00000000000E+00 -0.00000000000E+00 -0.22366698770E+04  0.22366698770E+04  0.00000000000E+00 0.  1.
    2000013    1    1    2    0    0 -0.35133075901E+03 -0.10292709583E+04 -0.54604506029E+03  0.15438579001E+04  0.95000000000E+03 0.  0.
   -2000013    1    1    2    0    0  0.35133075901E+03  0.10292709583E+04 -0.75425514767E+03  0.16291816460E+04  0.95000000000E+03 0.  0.
<mgrwt>
<rscale>  0 0.28943737E+04</rscale>
<asrwt>0</asrwt>
<pdfrwt beam="2">  1        2 0.34410306E+00 0.28943737E+04</pdfrwt>
<pdfrwt beam="1">  1       -2 0.14405687E+00 0.28943737E+04</pdfrwt>
<totfact> 0.14171053E+00</totfact>
</mgrwt>
</event>
<event>
 4    1  0.2018023E-008  0.3079919E+04  0.7816531E-02  0.8221271E-01
          2   -1    0    0  501    0  0.00000000000E+00  0.00000000000E+00  0.13851478309E+04  0.13851478309E+04  0.00000000000E+00 0.  1.
         -2   -1    0    0    0  501 -0.00000000000E+00 -0.00000000000E+00 -0.17120739514E+04  0.17120739514E+04  0.00000000000E+00 0. -1.
    2000013    1    1    2    0    0  0.83339965248E+03  0.84411014611E+03  0.86728929928E+02  0.15222019665E+04  0.95000000000E+03 0.  0.
   -2000013    1    1    2    0    0 -0.83339965248E+03 -0.84411014611E+03 -0.41365505040E+03  0.15750198158E+04  0.95000000000E+03 0.  0.
<mgrwt>
<rscale>  0 0.30799192E+04</rscale>
<asrwt>0</asrwt>
<pdfrwt beam="1">  1        2 0.21309967E+00 0.30799192E+04</pdfrwt>
<pdfrwt beam="2">  1       -2 0.26339599E+00 0.30799192E+04</pdfrwt>
<totfact> 0.66749236E-01</totfact>
</mgrwt>
</event>
<event>
 4    1  0.2018023E-008  0.2563840E+04  0.7816531E-02  0.8380589E-01
          1   -1    0    0  501    0  0.00000000000E+00  0.00000000000E+00  0.14023133566E+04  0.14023133566E+04  0.00000000000E+00 0.  1.
         -1   -1    0    0    0  501 -0.00000000000E+00 -0.00000000000E+00 -0.11718626429E+04  0.11718626429E+04  0.00000000000E+00 0. -1.
    2000013    1    1    2    0    0  0.14911966731E+03  0.82504379533E+03  0.31064996924E+03  0.13045832065E+04  0.95000000000E+03 0.  0.
   -2000013    1    1    2    0    0 -0.14911966731E+03 -0.82504379533E+03 -0.80199255501E+02  0.12695927930E+04  0.95000000000E+03 0.  0.
<mgrwt>
<rscale>  0 0.25638398E+04</rscale>
<asrwt>0</asrwt>
<pdfrwt beam="1">  1        1 0.21574052E+00 0.25638398E+04</pdfrwt>
<pdfrwt beam="2">  1       -1 0.18028656E+00 0.25638398E+04</pdfrwt>
<totfact> 0.14007655E+00</totfact>
</mgrwt>
</event>
<event>
 4    1  0.2018023E-008  0.3571106E+04  0.7816531E-02  0.8097142E-01
          2   -1    0    0  501    0  0.00000000000E+00  0.00000000000E+00  0.11895180796E+04  0.11895180796E+04  0.00000000000E+00 0.  1.
         -2   -1    0    0    0  501 -0.00000000000E+00 -0.00000000000E+00 -0.26802450787E+04  0.26802450787E+04  0.00000000000E+00 0. -1.
    2000013    1    1    2    0    0  0.20582215105E+03 -0.13699216811E+04 -0.14015216512E+04  0.21876496770E+04  0.95000000000E+03 0.  0.
   -2000013    1    1    2    0    0 -0.20582215105E+03  0.13699216811E+04 -0.89205347829E+02  0.16821134814E+04  0.95000000000E+03 0.  0.
<mgrwt>
<rscale>  0 0.35711063E+04</rscale>
<asrwt>0</asrwt>
<pdfrwt beam="1">  1        2 0.18300278E+00 0.35711063E+04</pdfrwt>
<pdfrwt beam="2">  1       -2 0.41234539E+00 0.35711063E+04</pdfrwt>
<totfact> 0.96606024E-02</totfact>
</mgrwt>
</event>
<event>
 4    1  0.2018023E-008  0.2376712E+04  0.7816531E-02  0.8448274E-01
         -2   -1    0    0    0  501 -0.00000000000E+00  0.00000000000E+00  0.90159475172E+03  0.90159475172E+03  0.00000000000E+00 0. -1.
          2   -1    0    0  501    0  0.00000000000E+00 -0.00000000000E+00 -0.15663251041E+04  0.15663251041E+04  0.00000000000E+00 0.  1.
    2000013    1    1    2    0    0  0.25920122723E+03 -0.64653472318E+03 -0.49489023804E+03  0.12777357991E+04  0.95000000000E+03 0.  0.
   -2000013    1    1    2    0    0 -0.25920122723E+03  0.64653472318E+03 -0.16984011431E+03  0.11901840567E+04  0.95000000000E+03 0.  0.
<mgrwt>
<rscale>  0 0.23767124E+04</rscale>
<asrwt>0</asrwt>
<pdfrwt beam="2">  1        2 0.24097309E+00 0.23767124E+04</pdfrwt>
<pdfrwt beam="1">  1       -2 0.13870689E+00 0.23767124E+04</pdfrwt>
<totfact> 0.38615573E+00</totfact>
</mgrwt>
</event>
<event>
 4    1  0.2018023E-008  0.2229852E+04  0.7816531E-02  0.8506105E-01
          2   -1    0    0  501    0  0.00000000000E+00  0.00000000000E+00  0.20570485953E+04  0.20570485953E+04  0.00000000000E+00 0.  1.
         -2   -1    0    0    0  501 -0.00000000000E+00 -0.00000000000E+00 -0.60429284694E+03  0.60429284694E+03  0.00000000000E+00 0. -1.
    2000013    1    1    2    0    0 -0.52447966916E+03  0.25032204238E+03  0.66300165346E+03  0.12960753222E+04  0.95000000000E+03 0.  0.
   -2000013    1    1    2    0    0  0.52447966916E+03 -0.25032204238E+03  0.78975409494E+03  0.13652661201E+04  0.95000000000E+03 0.  0.
<mgrwt>
<rscale>  0 0.22298518E+04</rscale>
<asrwt>0</asrwt>
<pdfrwt beam="1">  1        2 0.31646901E+00 0.22298518E+04</pdfrwt>
<pdfrwt beam="2">  1       -2 0.92968132E-01 0.22298518E+04</pdfrwt>
<totfact> 0.55494384E+00</totfact>
</mgrwt>
</event>
<event>
 4    1  0.2018023E-008  0.2402759E+04  0.7816531E-02  0.8438471E-01
          2   -1    0    0  501    0  0.00000000000E+00  0.00000000000E+00  0.31653079192E+04  0.31653079192E+04  0.00000000000E+00 0.  1.
         -2   -1    0    0    0  501 -0.00000000000E+00 -0.00000000000E+00 -0.45597850214E+03  0.45597850214E+03  0.00000000000E+00 0. -1.
    2000013    1    1    2    0    0 -0.24562869508E+03  0.69273236893E+03  0.13916056465E+04  0.18382812261E+04  0.95000000000E+03 0.  0.
   -2000013    1    1    2    0    0  0.24562869508E+03 -0.69273236893E+03  0.13177237705E+04  0.17830051952E+04  0.95000000000E+03 0.  0.
<mgrwt>
<rscale>  0 0.24027587E+04</rscale>
<asrwt>0</asrwt>
<pdfrwt beam="1">  1        2 0.48697044E+00 0.24027587E+04</pdfrwt>
<pdfrwt beam="2">  1       -2 0.70150541E-01 0.24027587E+04</pdfrwt>
<totfact> 0.22740061E+00</totfact>
</mgrwt>
</event>
<event>
 4    1  0.2018023E-008  0.2255965E+04  0.7816531E-02  0.8495489E-01
          2   -1    0    0  501    0  0.00000000000E+00  0.00000000000E+00  0.71510118465E+03  0.71510118465E+03  0.00000000000E+00 0.  1.
         -2   -1    0    0    0  501 -0.00000000000E+00 -0.00000000000E+00 -0.17792513788E+04  0.17792513788E+04  0.00000000000E+00 0. -1.
    2000013    1    1    2    0    0  0.17018642280E+03  0.54309102107E+03 -0.29510683929E+03  0.11460799807E+04  0.95000000000E+03 0.  0.
   -2000013    1    1    2    0    0 -0.17018642280E+03 -0.54309102107E+03 -0.76904335491E+03  0.13482725828E+04  0.95000000000E+03 0.  0.
<mgrwt>
<rscale>  0 0.22559652E+04</rscale>
<asrwt>0</asrwt>
<pdfrwt beam="1">  1        2 0.11001557E+00 0.22559652E+04</pdfrwt>
<pdfrwt beam="2">  1       -2 0.27373098E+00 0.22559652E+04</pdfrwt>
<totfact> 0.16686609E+00</totfact>
</mgrwt>
</event>
<event>
 4    1  0.2018023E-008  0.2203093E+04  0.7816531E-02  0.8517142E-01
         -2   -1    0    0    0  501 -0.00000000000E+00  0.00000000000E+00  0.65480550093E+03  0.65480550093E+03  0.00000000000E+00 0. -1.
          2   -1    0    0  501    0  0.00000000000E+00 -0.00000000000E+00 -0.18530764389E+04  0.18530764389E+04  0.00000000000E+00 0.  1.
    2000013    1    1    2    0    0 -0.50464109575E+03  0.97734013638E+02 -0.35316297664E+03  0.11364148279E+04  0.95000000000E+03 0.  0.
   -2000013    1    1    2    0    0  0.50464109575E+03 -0.97734013638E+02 -0.84510796136E+03  0.13714671120E+04  0.95000000000E+03 0.  0.
<mgrwt>
<rscale>  0 0.22030930E+04</rscale>
<asrwt>0</asrwt>
<pdfrwt beam="2">  1        2 0.28508868E+00 0.22030930E+04</pdfrwt>
<pdfrwt beam="1">  1       -2 0.10073931E+00 0.22030930E+04</pdfrwt>
<totfact> 0.59801833E+00</totfact>
</mgrwt>
</event>
<event>
 4    1  0.2018023E-008  0.2764271E+04  0.7816531E-02  0.8314447E-01
          2   -1    0    0  501    0  0.00000000000E+00  0.00000000000E+00  0.12681522835E+04  0.12681522835E+04  0.00000000000E+00 0.  1.
         -2   -1    0    0    0  501 -0.00000000000E+00 -0.00000000000E+00 -0.15063634113E+04  0.15063634113E+04  0.00000000000E+00 0. -1.
    2000013    1    1    2    0    0 -0.68272600915E+03  0.54237847402E+03 -0.61845215968E+03  0.14301301642E+04  0.95000000000E+03 0.  0.
   -2000013    1    1    2    0    0  0.68272600915E+03 -0.54237847402E+03  0.38024103183E+03  0.13443855306E+04  0.95000000000E+03 0.  0.
<mgrwt>
<rscale>  0 0.27642708E+04</rscale>
<asrwt>0</asrwt>
<pdfrwt beam="1">  1        2 0.19510035E+00 0.27642708E+04</pdfrwt>
<pdfrwt beam="2">  1       -2 0.23174822E+00 0.27642708E+04</pdfrwt>
<totfact> 0.12556293E+00</totfact>
</mgrwt>
</event>
<event>
 4    1  0.2018023E-008  0.3282479E+04  0.7816531E-02  0.8167368E-01
          2   -1    0    0  501    0  0.00000000000E+00  0.00000000000E+00  0.24545388320E+04  0.24545388320E+04  0.00000000000E+00 0.  1.
         -2   -1    0    0    0  501 -0.00000000000E+00 -0.00000000000E+00 -0.10974227708E+04  0.10974227708E+04  0.00000000000E+00 0. -1.
    2000013    1    1    2    0    0 -0.55045557197E+03 -0.10964508392E+04  0.99902973083E+02  0.15548911163E+04  0.95000000000E+03 0.  0.
   -2000013    1    1    2    0    0  0.55045557197E+03  0.10964508392E+04  0.12572130881E+04  0.19970704866E+04  0.95000000000E+03 0.  0.
<mgrwt>
<rscale>  0 0.32824788E+04</rscale>
<asrwt>0</asrwt>
<pdfrwt beam="1">  1        2 0.37762136E+00 0.32824788E+04</pdfrwt>
<pdfrwt beam="2">  1       -2 0.16883427E+00 0.32824788E+04</pdfrwt>
<totfact> 0.67195916E-01</totfact>
</mgrwt>
</event>
<event>
 4    1  0.2018023E-008  0.2186804E+04  0.7816531E-02  0.8523941E-01
         -2   -1    0    0    0  501 -0.00000000000E+00  0.00000000000E+00  0.48737013618E+03  0.48737013618E+03  0.00000000000E+00 0. -1.
          2   -1    0    0  501    0  0.00000000000E+00 -0.00000000000E+00 -0.24530191271E+04  0.24530191271E+04  0.00000000000E+00 0.  1.
    2000013    1    1    2    0    0 -0.25059642994E+03 -0.33912977922E+02 -0.16263831296E+04  0.19004133090E+04  0.95000000000E+03 0.  0.
   -2000013    1    1    2    0    0  0.25059642994E+03  0.33912977922E+02 -0.33926586128E+03  0.10399759542E+04  0.95000000000E+03 0.  0.
<mgrwt>
<rscale>  0 0.21868043E+04</rscale>
<asrwt>0</asrwt>
<pdfrwt beam="2">  1        2 0.37738756E+00 0.21868043E+04</pdfrwt>
<pdfrwt beam="1">  1       -2 0.74980020E-01 0.21868043E+04</pdfrwt>
<totfact> 0.54183929E+00</totfact>
</mgrwt>
</event>
<event>
 4    1  0.2018023E-008  0.3169727E+04  0.7816531E-02  0.8196858E-01
          2   -1    0    0  501    0  0.00000000000E+00  0.00000000000E+00  0.16734550171E+04  0.16734550171E+04  0.00000000000E+00 0.  1.
         -2   -1    0    0    0  501 -0.00000000000E+00 -0.00000000000E+00 -0.15009623394E+04  0.15009623394E+04  0.00000000000E+00 0. -1.
    2000013    1    1    2    0    0  0.74428160893E+03 -0.10246627343E+04  0.15986786175E+03  0.15912091521E+04  0.95000000000E+03 0.  0.
   -2000013    1    1    2    0    0 -0.74428160893E+03  0.10246627343E+04  0.12624815984E+02  0.15832082044E+04  0.95000000000E+03 0.  0.
<mgrwt>
<rscale>  0 0.31697274E+04</rscale>
<asrwt>0</asrwt>
<pdfrwt beam="1">  1        2 0.25745462E+00 0.31697274E+04</pdfrwt>
<pdfrwt beam="2">  1       -2 0.23091728E+00 0.31697274E+04</pdfrwt>
<totfact> 0.72275748E-01</totfact>
</mgrwt>
</event>
<event>
 4    1  0.2018023E-008  0.3652914E+04  0.7816531E-02  0.8078477E-01
          2   -1    0    0  501    0  0.00000000000E+00  0.00000000000E+00  0.32702851997E+04  0.32702851997E+04  0.00000000000E+00 0.  1.
         -2   -1    0    0    0  501 -0.00000000000E+00 -0.00000000000E+00 -0.10200777984E+04  0.10200777984E+04  0.00000000000E+00 0. -1.
    2000013    1    1    2    0    0 -0.83042215198E+03 -0.11525404821E+04  0.18821760488E+04  0.25422504188E+04  0.95000000000E+03 0.  0.
   -2000013    1    1    2    0    0  0.83042215198E+03  0.11525404821E+04  0.36803135261E+03  0.17481125793E+04  0.95000000000E+03 0.  0.
<mgrwt>
<rscale>  0 0.36529141E+04</rscale>
<asrwt>0</asrwt>
<pdfrwt beam="1">  1        2 0.50312080E+00 0.36529141E+04</pdfrwt>
<pdfrwt beam="2">  1       -2 0.15693505E+00 0.36529141E+04</pdfrwt>
<totfact> 0.25085048E-01</totfact>
</mgrwt>
</event>
<event>
 4    1  0.2018023E-008  0.2256330E+04  0.7816531E-02  0.8495342E-01
         -1   -1    0    0    0  501 -0.00000000000E+00  0.00000000000E+00  0.14888901721E+04  0.14888901721E+04  0.00000000000E+00 0. -1.
          1   -1    0    0  501    0  0.00000000000E+00 -0.00000000000E+00 -0.85483520643E+03  0.85483520643E+03  0.00000000000E+00 0.  1.
    2000013    1    1    2    0    0 -0.54347295830E+03  0.63937353575E+02  0.59342608351E+03  0.12466376210E+04  0.95000000000E+03 0.  0.
   -2000013    1    1    2    0    0  0.54347295830E+03 -0.63937353575E+02  0.40628882149E+02  0.10970877575E+04  0.95000000000E+03 0.  0.
<mgrwt>
<rscale>  0 0.22563295E+04</rscale>
<asrwt>0</asrwt>
<pdfrwt beam="2">  1        1 0.13151311E+00 0.22563295E+04</pdfrwt>
<pdfrwt beam="1">  1       -1 0.22906003E+00 0.22563295E+04</pdfrwt>
<totfact> 0.17236278E+00</totfact>
</mgrwt>
</event>
<event>
 4    1  0.2018023E-008  0.3505365E+04  0.7816531E-02  0.8112520E-01
          2   -1    0    0  501    0  0.00000000000E+00  0.00000000000E+00  0.15941999979E+04  0.15941999979E+04  0.00000000000E+00 0.  1.
         -2   -1    0    0    0  501 -0.00000000000E+00 -0.00000000000E+00 -0.19269200489E+04  0.19269200489E+04  0.00000000000E+00 0. -1.
    2000013    1    1    2    0    0 -0.98274375937E+03 -0.99792059244E+03 -0.62422130651E+03  0.18038245605E+04  0.95000000000E+03 0.  0.
   -2000013    1    1    2    0    0  0.98274375937E+03  0.99792059244E+03  0.29150125560E+03  0.17172954863E+04  0.95000000000E+03 0.  0.
<mgrwt>
<rscale>  0 0.35053650E+04</rscale>
<asrwt>0</asrwt>
<pdfrwt beam="1">  1        2 0.24526154E+00 0.35053650E+04</pdfrwt>
<pdfrwt beam="2">  1       -2 0.29644924E+00 0.35053650E+04</pdfrwt>
<totfact> 0.30833781E-01</totfact>
</mgrwt>
</event>
<event>
 4    1  0.2018023E-008  0.1989553E+04  0.7816531E-02  0.8611521E-01
         -1   -1    0    0    0  501 -0.00000000000E+00  0.00000000000E+00  0.14177648466E+04  0.14177648466E+04  0.00000000000E+00 0. -1.
          1   -1    0    0  501    0  0.00000000000E+00 -0.00000000000E+00 -0.69798617122E+03  0.69798617122E+03  0.00000000000E+00 0.  1.
    2000013    1    1    2    0    0  0.74788061799E+02  0.22485411488E+03  0.17287178441E+03  0.99425212145E+03  0.95000000000E+03 0.  0.
   -2000013    1    1    2    0    0 -0.74788061799E+02 -0.22485411488E+03  0.54690689096E+03  0.11214988964E+04  0.95000000000E+03 0.  0.
<mgrwt>
<rscale>  0 0.19895530E+04</rscale>
<asrwt>0</asrwt>
<pdfrwt beam="2">  1        1 0.10738249E+00 0.19895530E+04</pdfrwt>
<pdfrwt beam="1">  1       -1 0.21811767E+00 0.19895530E+04</pdfrwt>
<totfact> 0.28781785E+00</totfact>
</mgrwt>
</event>
<event>
 4    1  0.2018023E-008  0.2867722E+04  0.7816531E-02  0.8282546E-01
         -2   -1    0    0    0  501 -0.00000000000E+00  0.00000000000E+00  0.40219426263E+03  0.40219426263E+03  0.00000000000E+00 0. -1.
          2   -1    0    0  501    0  0.00000000000E+00 -0.00000000000E+00 -0.51118518116E+04  0.51118518116E+04  0.00000000000E+00 0.  1.
    2000013    1    1    2    0    0 -0.78983712600E+03 -0.24826159506E+03 -0.10394603088E+04  0.16335404001E+04  0.95000000000E+03 0.  0.
   -2000013    1    1    2    0    0  0.78983712600E+03  0.24826159506E+03 -0.36701972402E+04  0.38805056742E+04  0.95000000000E+03 0.  0.
<mgrwt>
<rscale>  0 0.28677221E+04</rscale>
<asrwt>0</asrwt>
<pdfrwt beam="2">  1        2 0.78643871E+00 0.28677221E+04</pdfrwt>
<pdfrwt beam="1">  1       -2 0.61876043E-01 0.28677221E+04</pdfrwt>
<totfact> 0.51539143E-02</totfact>
</mgrwt>
</event>
<event>
 4    1  0.2018023E-008  0.3333517E+04  0.7816531E-02  0.8154419E-01
          2   -1    0    0  501    0  0.00000000000E+00  0.00000000000E+00  0.17653202474E+04  0.17653202474E+04  0.00000000000E+00 0.  1.
         -2   -1    0    0    0  501 -0.00000000000E+00 -0.00000000000E+00 -0.15736994384E+04  0.15736994384E+04  0.00000000000E+00 0. -1.
    2000013    1    1    2    0    0  0.65843622142E+03 -0.49420952273E+03 -0.10004377767E+04  0.16065979756E+04  0.95000000000E+03 0.  0.
   -2000013    1    1    2    0    0 -0.65843622142E+03  0.49420952273E+03  0.11920585857E+04  0.17324217102E+04  0.95000000000E+03 0.  0.
<mgrwt>
<rscale>  0 0.33335168E+04</rscale>
<asrwt>0</asrwt>
<pdfrwt beam="1">  1        2 0.27158773E+00 0.33335168E+04</pdfrwt>
<pdfrwt beam="2">  1       -2 0.24210761E+00 0.33335168E+04</pdfrwt>
<totfact> 0.54010015E-01</totfact>
</mgrwt>
</event>
<event>
 4    1  0.2018023E-008  0.2454817E+04  0.7816531E-02  0.8419261E-01
         -2   -1    0    0    0  501 -0.00000000000E+00  0.00000000000E+00  0.93907180471E+03  0.93907180471E+03  0.00000000000E+00 0. -1.
          2   -1    0    0  501    0  0.00000000000E+00 -0.00000000000E+00 -0.16042777438E+04  0.16042777438E+04  0.00000000000E+00 0.  1.
    2000013    1    1    2    0    0 -0.79794781708E+01 -0.76449145470E+03 -0.47735993215E+03  0.13095355517E+04  0.95000000000E+03 0.  0.
   -2000013    1    1    2    0    0  0.79794781708E+01  0.76449145470E+03 -0.18784600696E+03  0.12338139968E+04  0.95000000000E+03 0.  0.
<mgrwt>
<rscale>  0 0.24548173E+04</rscale>
<asrwt>0</asrwt>
<pdfrwt beam="2">  1        2 0.24681196E+00 0.24548173E+04</pdfrwt>
<pdfrwt beam="1">  1       -2 0.14447259E+00 0.24548173E+04</pdfrwt>
<totfact> 0.32850930E+00</totfact>
</mgrwt>
</event>
<event>
 4    1  0.2018023E-008  0.2525441E+04  0.7816531E-02  0.8393978E-01
         -2   -1    0    0    0  501 -0.00000000000E+00  0.00000000000E+00  0.39342971005E+03  0.39342971005E+03  0.00000000000E+00 0. -1.
          2   -1    0    0  501    0  0.00000000000E+00 -0.00000000000E+00 -0.40527261639E+04  0.40527261639E+04  0.00000000000E+00 0.  1.
    2000013    1    1    2    0    0 -0.70341060661E+03  0.32661120360E+03 -0.23592816918E+04  0.26589794022E+04  0.95000000000E+03 0.  0.
   -2000013    1    1    2    0    0  0.70341060661E+03 -0.32661120360E+03 -0.13000147620E+04  0.17871764718E+04  0.95000000000E+03 0.  0.
<mgrwt>
<rscale>  0 0.25254409E+04</rscale>
<asrwt>0</asrwt>
<pdfrwt beam="2">  1        2 0.62349630E+00 0.25254409E+04</pdfrwt>
<pdfrwt beam="1">  1       -2 0.60527651E-01 0.25254409E+04</pdfrwt>
<totfact> 0.70339058E-01</totfact>
</mgrwt>
</event>
<event>
 4    1  0.2018023E-008  0.2511028E+04  0.7816531E-02  0.8399067E-01
         -2   -1    0    0    0  501 -0.00000000000E+00  0.00000000000E+00  0.62879951678E+03  0.62879951678E+03  0.00000000000E+00 0. -1.
          2   -1    0    0  501    0  0.00000000000E+00 -0.00000000000E+00 -0.25068652172E+04  0.25068652172E+04  0.00000000000E+00 0.  1.
    2000013    1    1    2    0    0 -0.46747616157E+03  0.31475360891E+03 -0.19373098145E+03  0.11214434846E+04  0.95000000000E+03 0.  0.
   -2000013    1    1    2    0    0  0.46747616157E+03 -0.31475360891E+03 -0.16843347190E+04  0.20142212494E+04  0.95000000000E+03 0.  0.
<mgrwt>
<rscale>  0 0.25110282E+04</rscale>
<asrwt>0</asrwt>
<pdfrwt beam="2">  1        2 0.38567157E+00 0.25110282E+04</pdfrwt>
<pdfrwt beam="1">  1       -2 0.96738388E-01 0.25110282E+04</pdfrwt>
<totfact> 0.27449078E+00</totfact>
</mgrwt>
</event>
<event>
 4    1  0.2018023E-008  0.2602433E+04  0.7816531E-02  0.8367375E-01
         -2   -1    0    0    0  501 -0.00000000000E+00  0.00000000000E+00  0.12139269001E+04  0.12139269001E+04  0.00000000000E+00 0. -1.
          2   -1    0    0  501    0  0.00000000000E+00 -0.00000000000E+00 -0.13947829548E+04  0.13947829548E+04  0.00000000000E+00 0.  1.
    2000013    1    1    2    0    0  0.88549039300E+03  0.77958705433E+02 -0.68153885210E+02  0.13028107107E+04  0.95000000000E+03 0.  0.
   -2000013    1    1    2    0    0 -0.88549039300E+03 -0.77958705433E+02 -0.11270216946E+03  0.13058991442E+04  0.95000000000E+03 0.  0.
<mgrwt>
<rscale>  0 0.26024331E+04</rscale>
<asrwt>0</asrwt>
<pdfrwt beam="2">  1        2 0.21458199E+00 0.26024331E+04</pdfrwt>
<pdfrwt beam="1">  1       -2 0.18675798E+00 0.26024331E+04</pdfrwt>
<totfact> 0.21007211E+00</totfact>
</mgrwt>
</event>
<event>
 4    1  0.2018023E-008  0.2953495E+04  0.7816531E-02  0.8257137E-01
          2   -1    0    0  501    0  0.00000000000E+00  0.00000000000E+00  0.29900567082E+04  0.29900567082E+04  0.00000000000E+00 0.  1.
         -2   -1    0    0    0  501 -0.00000000000E+00 -0.00000000000E+00 -0.72934503946E+03  0.72934503946E+03  0.00000000000E+00 0. -1.
    2000013    1    1    2    0    0 -0.62596907124E+03 -0.90080669450E+03  0.14752194451E+04  0.20693144735E+04  0.95000000000E+03 0.  0.
   -2000013    1    1    2    0    0  0.62596907124E+03  0.90080669450E+03  0.78549222367E+03  0.16500872742E+04  0.95000000000E+03 0.  0.
<mgrwt>
<rscale>  0 0.29534949E+04</rscale>
<asrwt>0</asrwt>
<pdfrwt beam="1">  1        2 0.46000872E+00 0.29534949E+04</pdfrwt>
<pdfrwt beam="2">  1       -2 0.11220693E+00 0.29534949E+04</pdfrwt>
<totfact> 0.94971211E-01</totfact>
</mgrwt>
</event>
<event>
 4    1  0.2018023E-008  0.2286135E+04  0.7816531E-02  0.8483408E-01
          2   -1    0    0  501    0  0.00000000000E+00  0.00000000000E+00  0.22278077213E+04  0.22278077213E+04  0.00000000000E+00 0. -1.
         -2   -1    0    0    0  501 -0.00000000000E+00 -0.00000000000E+00 -0.58649719291E+03  0.58649719291E+03  0.00000000000E+00 0.  1.
    2000013    1    1    2    0    0 -0.54170663080E+03 -0.28984299136E+03  0.61969917777E+03  0.12899543032E+04  0.95000000000E+03 0.  0.
   -2000013    1    1    2    0    0  0.54170663080E+03  0.28984299136E+03  0.10216113506E+04  0.15243506110E+04  0.95000000000E+03 0.  0.
<mgrwt>
<rscale>  0 0.22861347E+04</rscale>
<asrwt>0</asrwt>
<pdfrwt beam="1">  1        2 0.34273964E+00 0.22861347E+04</pdfrwt>
<pdfrwt beam="2">  1       -2 0.90230339E-01 0.22861347E+04</pdfrwt>
<totfact> 0.47488413E+00</totfact>
</mgrwt>
</event>
<event>
 4    1  0.2018023E-008  0.2266404E+04  0.7816531E-02  0.8491287E-01
          2   -1    0    0  501    0  0.00000000000E+00  0.00000000000E+00  0.13156382023E+04  0.13156382023E+04  0.00000000000E+00 0.  1.
         -2   -1    0    0    0  501 -0.00000000000E+00 -0.00000000000E+00 -0.97606375647E+03  0.97606375647E+03  0.00000000000E+00 0. -1.
    2000013    1    1    2    0    0 -0.49270727319E+03 -0.34014979450E+03  0.32375115155E+03  0.11686646858E+04  0.95000000000E+03 0.  0.
   -2000013    1    1    2    0    0  0.49270727319E+03  0.34014979450E+03  0.15823294268E+02  0.11230372729E+04  0.95000000000E+03 0.  0.
<mgrwt>
<rscale>  0 0.22664040E+04</rscale>
<asrwt>0</asrwt>
<pdfrwt beam="1">  1        2 0.20240588E+00 0.22664040E+04</pdfrwt>
<pdfrwt beam="2">  1       -2 0.15016365E+00 0.22664040E+04</pdfrwt>
<totfact> 0.43972028E+00</totfact>
</mgrwt>
</event>
<event>
 4    1  0.2018023E-008  0.2697412E+04  0.7816531E-02  0.8335845E-01
         -2   -1    0    0    0  501 -0.00000000000E+00  0.00000000000E+00  0.72861042681E+03  0.72861042681E+03  0.00000000000E+00 0. -1.
          2   -1    0    0  501    0  0.00000000000E+00 -0.00000000000E+00 -0.24965444281E+04  0.24965444281E+04  0.00000000000E+00 0.  1.
    2000013    1    1    2    0    0  0.37720563986E+03 -0.82329727613E+03 -0.12552070495E+04  0.18160801845E+04  0.95000000000E+03 0.  0.
   -2000013    1    1    2    0    0 -0.37720563986E+03  0.82329727613E+03 -0.51272695184E+03  0.14090746704E+04  0.95000000000E+03 0.  0.
<mgrwt>
<rscale>  0 0.26974123E+04</rscale>
<asrwt>0</asrwt>
<pdfrwt beam="2">  1        2 0.38408377E+00 0.26974123E+04</pdfrwt>
<pdfrwt beam="1">  1       -2 0.11209391E+00 0.26974123E+04</pdfrwt>
<totfact> 0.19255336E+00</totfact>
</mgrwt>
</event>
<event>
 4    1  0.2018023E-008  0.2929108E+04  0.7816531E-02  0.8264269E-01
          2   -1    0    0  501    0  0.00000000000E+00  0.00000000000E+00  0.10577014358E+04  0.10577014358E+04  0.00000000000E+00 0.  1.
         -2   -1    0    0    0  501 -0.00000000000E+00 -0.00000000000E+00 -0.20279049447E+04  0.20279049447E+04  0.00000000000E+00 0. -1.
    2000013    1    1    2    0    0  0.72219223288E+03  0.72848794931E+03 -0.25727488926E+02  0.13983626916E+04  0.95000000000E+03 0.  0.
   -2000013    1    1    2    0    0 -0.72219223288E+03 -0.72848794931E+03 -0.94447601993E+03  0.16872436889E+04  0.95000000000E+03 0.  0.
<mgrwt>
<rscale>  0 0.29291077E+04</rscale>
<asrwt>0</asrwt>
<pdfrwt beam="1">  1        2 0.16272330E+00 0.29291077E+04</pdfrwt>
<pdfrwt beam="2">  1       -2 0.31198537E+00 0.29291077E+04</pdfrwt>
<totfact> 0.53471486E-01</totfact>
</mgrwt>
</event>
<event>
 4    1  0.2018023E-008  0.2353287E+04  0.7816531E-02  0.8457202E-01
          2   -1    0    0  501    0  0.00000000000E+00  0.00000000000E+00  0.20954753402E+04  0.20954753402E+04  0.00000000000E+00 0.  1.
         -2   -1    0    0    0  501 -0.00000000000E+00 -0.00000000000E+00 -0.66070467504E+03  0.66070467504E+03  0.00000000000E+00 0. -1.
    2000013    1    1    2    0    0 -0.58527436393E+03  0.82188260439E+02  0.29075604068E+03  0.11560017588E+04  0.95000000000E+03 0.  0.
   -2000013    1    1    2    0    0  0.58527436393E+03 -0.82188260439E+02  0.11440146244E+04  0.16001782564E+04  0.95000000000E+03 0.  0.
<mgrwt>
<rscale>  0 0.23532874E+04</rscale>
<asrwt>0</asrwt>
<pdfrwt beam="1">  1        2 0.32238082E+00 0.23532874E+04</pdfrwt>
<pdfrwt beam="2">  1       -2 0.10164687E+00 0.23532874E+04</pdfrwt>
<totfact> 0.42382265E+00</totfact>
</mgrwt>
</event>
<event>
 4    1  0.2018023E-008  0.4155333E+04  0.7816531E-02  0.7973924E-01
          2   -1    0    0  501    0  0.00000000000E+00  0.00000000000E+00  0.33133435104E+04  0.33133435104E+04  0.00000000000E+00 0.  1.
         -2   -1    0    0    0  501 -0.00000000000E+00 -0.00000000000E+00 -0.13028222038E+04  0.13028222038E+04  0.00000000000E+00 0. -1.
    2000013    1    1    2    0    0 -0.15739917710E+04 -0.55678537057E+03  0.18847253504E+04  0.26911242428E+04  0.95000000000E+03 0.  0.
   -2000013    1    1    2    0    0  0.15739917710E+04  0.55678537057E+03  0.12579595616E+03  0.19250414714E+04  0.95000000000E+03 0.  0.
<mgrwt>
<rscale>  0 0.41553327E+04</rscale>
<asrwt>0</asrwt>
<pdfrwt beam="1">  1        2 0.50974515E+00 0.41553327E+04</pdfrwt>
<pdfrwt beam="2">  1       -2 0.20043419E+00 0.41553327E+04</pdfrwt>
<totfact> 0.11218082E-01</totfact>
</mgrwt>
</event>
<event>
 4    1  0.2018023E-008  0.2606294E+04  0.7816531E-02  0.8366066E-01
         -2   -1    0    0    0  501 -0.00000000000E+00  0.00000000000E+00  0.87321609018E+03  0.87321609018E+03  0.00000000000E+00 0. -1.
          2   -1    0    0  501    0  0.00000000000E+00 -0.00000000000E+00 -0.19447564637E+04  0.19447564637E+04  0.00000000000E+00 0.  1.
    2000013    1    1    2    0    0 -0.37568761122E+03 -0.65135670466E+03 -0.16914049295E+02  0.12116900689E+04  0.95000000000E+03 0.  0.
   -2000013    1    1    2    0    0  0.37568761122E+03  0.65135670466E+03 -0.10546263242E+04  0.16062824850E+04  0.95000000000E+03 0.  0.
<mgrwt>
<rscale>  0 0.26062944E+04</rscale>
<asrwt>0</asrwt>
<pdfrwt beam="2">  1        2 0.29919330E+00 0.26062944E+04</pdfrwt>
<pdfrwt beam="1">  1       -2 0.13434094E+00 0.26062944E+04</pdfrwt>
<totfact> 0.25328218E+00</totfact>
</mgrwt>
</event>
<event>
 4    1  0.2018023E-008  0.3061722E+04  0.7816531E-02  0.8226322E-01
         -2   -1    0    0    0  501 -0.00000000000E+00  0.00000000000E+00  0.73648424641E+03  0.73648424641E+03  0.00000000000E+00 0. -1.
          2   -1    0    0  501    0  0.00000000000E+00 -0.00000000000E+00 -0.31820583037E+04  0.31820583037E+04  0.00000000000E+00 0.  1.
    2000013    1    1    2    0    0 -0.55047743644E+03 -0.10556831456E+04 -0.10264083718E+04  0.18367107714E+04  0.95000000000E+03 0.  0.
   -2000013    1    1    2    0    0  0.55047743644E+03  0.10556831456E+04 -0.14191656855E+04  0.20818317787E+04  0.95000000000E+03 0.  0.
<mgrwt>
<rscale>  0 0.30617223E+04</rscale>
<asrwt>0</asrwt>
<pdfrwt beam="2">  1        2 0.48954743E+00 0.30617223E+04</pdfrwt>
<pdfrwt beam="1">  1       -2 0.11330527E+00 0.30617223E+04</pdfrwt>
<totfact> 0.69314684E-01</totfact>
</mgrwt>
</event>
<event>
 4    1  0.2018023E-008  0.3275523E+04  0.7816531E-02  0.8169152E-01
         -2   -1    0    0    0  501 -0.00000000000E+00  0.00000000000E+00  0.96954459471E+03  0.96954459471E+03  0.00000000000E+00 0. -1.
          2   -1    0    0  501    0  0.00000000000E+00 -0.00000000000E+00 -0.27665177255E+04  0.27665177255E+04  0.00000000000E+00 0.  1.
    2000013    1    1    2    0    0 -0.10642697267E+04 -0.60023104566E+03 -0.28763683918E+03  0.15742243521E+04  0.95000000000E+03 0.  0.
   -2000013    1    1    2    0    0  0.10642697267E+04  0.60023104566E+03 -0.15093362916E+04  0.21618379682E+04  0.95000000000E+03 0.  0.
<mgrwt>
<rscale>  0 0.32755227E+04</rscale>
<asrwt>0</asrwt>
<pdfrwt beam="2">  1        2 0.42561811E+00 0.32755227E+04</pdfrwt>
<pdfrwt beam="1">  1       -2 0.14916071E+00 0.32755227E+04</pdfrwt>
<totfact> 0.61628945E-01</totfact>
</mgrwt>
</event>
<event>
 4    1  0.2018023E-008  0.2148759E+04  0.7816531E-02  0.8540064E-01
         -2   -1    0    0    0  501 -0.00000000000E+00  0.00000000000E+00  0.31324747378E+03  0.31324747378E+03  0.00000000000E+00 0. -1.
          2   -1    0    0  501    0  0.00000000000E+00 -0.00000000000E+00 -0.36849185736E+04  0.36849185736E+04  0.00000000000E+00 0.  1.
    2000013    1    1    2    0    0  0.41197668899E+03 -0.17644624785E+03 -0.21057630085E+04  0.23532097056E+04  0.95000000000E+03 0.  0.
   -2000013    1    1    2    0    0 -0.41197668899E+03  0.17644624785E+03 -0.12659080914E+04  0.16449563418E+04  0.95000000000E+03 0.  0.
<mgrwt>
<rscale>  0 0.21487591E+04</rscale>
<asrwt>0</asrwt>
<pdfrwt beam="2">  1        2 0.56691055E+00 0.21487591E+04</pdfrwt>
<pdfrwt beam="1">  1       -2 0.48191919E-01 0.21487591E+04</pdfrwt>
<totfact> 0.22540443E+00</totfact>
</mgrwt>
</event>
<event>
 4    1  0.2018023E-008  0.2619259E+04  0.7816531E-02  0.8361689E-01
         -2   -1    0    0    0  501 -0.00000000000E+00  0.00000000000E+00  0.60743756545E+03  0.60743756545E+03  0.00000000000E+00 0.  1.
          2   -1    0    0  501    0  0.00000000000E+00 -0.00000000000E+00 -0.28235489067E+04  0.28235489067E+04  0.00000000000E+00 0. -1.
    2000013    1    1    2    0    0 -0.84064762014E+03 -0.84122633833E+02 -0.15199264802E+04  0.19815250551E+04  0.95000000000E+03 0.  0.
   -2000013    1    1    2    0    0  0.84064762014E+03  0.84122633833E+02 -0.69618486107E+03  0.14494614171E+04  0.95000000000E+03 0.  0.
<mgrwt>
<rscale>  0 0.26192592E+04</rscale>
<asrwt>0</asrwt>
<pdfrwt beam="2">  1        2 0.43439214E+00 0.26192592E+04</pdfrwt>
<pdfrwt beam="1">  1       -2 0.93451933E-01 0.26192592E+04</pdfrwt>
<totfact> 0.19133594E+00</totfact>
</mgrwt>
</event>
<event>
 4    1  0.2018023E-008  0.2069173E+04  0.7816531E-02  0.8574946E-01
         -2   -1    0    0    0  501 -0.00000000000E+00  0.00000000000E+00  0.64404599205E+03  0.64404599205E+03  0.00000000000E+00 0. -1.
          2   -1    0    0  501    0  0.00000000000E+00 -0.00000000000E+00 -0.16619446945E+04  0.16619446945E+04  0.00000000000E+00 0.  1.
    2000013    1    1    2    0    0  0.52741126809E+02 -0.29673336133E+03 -0.19962855801E+03  0.10164565290E+04  0.95000000000E+03 0.  0.
   -2000013    1    1    2    0    0 -0.52741126809E+02  0.29673336133E+03 -0.81827014445E+03  0.12895341575E+04  0.95000000000E+03 0.  0.
<mgrwt>
<rscale>  0 0.20691726E+04</rscale>
<asrwt>0</asrwt>
<pdfrwt beam="2">  1        2 0.25568380E+00 0.20691726E+04</pdfrwt>
<pdfrwt beam="1">  1       -2 0.99083999E-01 0.20691726E+04</pdfrwt>
<totfact> 0.80317743E+00</totfact>
</mgrwt>
</event>
<event>
 4    1  0.2018023E-008  0.2998600E+04  0.7816531E-02  0.8244131E-01
         -4   -1    0    0    0  501 -0.00000000000E+00  0.00000000000E+00  0.76382497540E+03  0.76382497540E+03  0.00000000000E+00 0. -1.
          4   -1    0    0  501    0  0.00000000000E+00 -0.00000000000E+00 -0.29429519956E+04  0.29429519956E+04  0.00000000000E+00 0.  1.
    2000013    1    1    2    0    0 -0.67200951949E+03 -0.77179197610E+03 -0.17645397654E+04  0.22501911546E+04  0.95000000000E+03 0.  0.
   -2000013    1    1    2    0    0  0.67200951949E+03  0.77179197610E+03 -0.41458725484E+03  0.14565858164E+04  0.95000000000E+03 0.  0.
<mgrwt>
<rscale>  0 0.29985998E+04</rscale>
<asrwt>0</asrwt>
<pdfrwt beam="2">  1        4 0.45276185E+00 0.29985998E+04</pdfrwt>
<pdfrwt beam="1">  1       -4 0.11751153E+00 0.29985998E+04</pdfrwt>
<totfact> 0.26715307E-03</totfact>
</mgrwt>
</event>
<event>
 4    1  0.2018023E-008  0.2017003E+04  0.7816531E-02  0.8598712E-01
          2   -1    0    0  501    0  0.00000000000E+00  0.00000000000E+00  0.22549285163E+04  0.22549285163E+04  0.00000000000E+00 0.  1.
         -2   -1    0    0    0  501 -0.00000000000E+00 -0.00000000000E+00 -0.45104556056E+03  0.45104556056E+03  0.00000000000E+00 0. -1.
    2000013    1    1    2    0    0  0.31688044764E+03  0.11900165949E+03  0.90068039049E+03  0.13521463600E+04  0.95000000000E+03 0.  0.
   -2000013    1    1    2    0    0 -0.31688044764E+03 -0.11900165949E+03  0.90320256526E+03  0.13538277169E+04  0.95000000000E+03 0.  0.
<mgrwt>
<rscale>  0 0.20170032E+04</rscale>
<asrwt>0</asrwt>
<pdfrwt beam="1">  1        2 0.34691207E+00 0.20170032E+04</pdfrwt>
<pdfrwt beam="2">  1       -2 0.69391626E-01 0.20170032E+04</pdfrwt>
<totfact> 0.84527941E+00</totfact>
</mgrwt>
</event>
<event>
 4    1  0.2018023E-008  0.3336043E+04  0.7816531E-02  0.8153784E-01
         -2   -1    0    0    0  501 -0.00000000000E+00  0.00000000000E+00  0.11893469266E+04  0.11893469266E+04  0.00000000000E+00 0. -1.
          2   -1    0    0  501    0  0.00000000000E+00 -0.00000000000E+00 -0.23393469077E+04  0.23393469077E+04  0.00000000000E+00 0.  1.
    2000013    1    1    2    0    0 -0.11976694160E+04 -0.57228251205E+02 -0.12783096049E+04  0.19935552535E+04  0.95000000000E+03 0.  0.
   -2000013    1    1    2    0    0  0.11976694160E+04  0.57228251205E+02  0.12830962382E+03  0.15351385808E+04  0.95000000000E+03 0.  0.
<mgrwt>
<rscale>  0 0.33360426E+04</rscale>
<asrwt>0</asrwt>
<pdfrwt beam="2">  1        2 0.35989952E+00 0.33360426E+04</pdfrwt>
<pdfrwt beam="1">  1       -2 0.18297645E+00 0.33360426E+04</pdfrwt>
<totfact> 0.62020690E-01</totfact>
</mgrwt>
</event>
<event>
 4    1  0.2018023E-008  0.2808879E+04  0.7816531E-02  0.8300517E-01
          2   -1    0    0  501    0  0.00000000000E+00  0.00000000000E+00  0.19434965736E+04  0.19434965736E+04  0.00000000000E+00 0.  1.
         -2   -1    0    0    0  501 -0.00000000000E+00 -0.00000000000E+00 -0.10148980359E+04  0.10148980359E+04  0.00000000000E+00 0. -1.
    2000013    1    1    2    0    0  0.52213942552E+03  0.42306648087E+03 -0.36390084761E+03  0.12192369146E+04  0.95000000000E+03 0.  0.
   -2000013    1    1    2    0    0 -0.52213942552E+03 -0.42306648087E+03  0.12924993853E+04  0.17391576950E+04  0.95000000000E+03 0.  0.
<mgrwt>
<rscale>  0 0.28088794E+04</rscale>
<asrwt>0</asrwt>
<pdfrwt beam="1">  1        2 0.29899947E+00 0.28088794E+04</pdfrwt>
<pdfrwt beam="2">  1       -2 0.15613816E+00 0.28088794E+04</pdfrwt>
<totfact> 0.16811819E+00</totfact>
</mgrwt>
</event>
<event>
 4    1  0.2018023E-008  0.2917964E+04  0.7816531E-02  0.8267553E-01
         -2   -1    0    0    0  501 -0.00000000000E+00  0.00000000000E+00  0.86508738738E+03  0.86508738738E+03  0.00000000000E+00 0. -1.
          2   -1    0    0  501    0  0.00000000000E+00 -0.00000000000E+00 -0.24605931948E+04  0.24605931948E+04  0.00000000000E+00 0.  1.
    2000013    1    1    2    0    0 -0.83168420939E+03 -0.44781928124E+02  0.33875836218E+02  0.12638637654E+04  0.95000000000E+03 0.  0.
   -2000013    1    1    2    0    0  0.83168420939E+03  0.44781928124E+02 -0.16293816436E+04  0.20618168167E+04  0.95000000000E+03 0.  0.
<mgrwt>
<rscale>  0 0.29179638E+04</rscale>
<asrwt>0</asrwt>
<pdfrwt beam="2">  1        2 0.37855279E+00 0.29179638E+04</pdfrwt>
<pdfrwt beam="1">  1       -2 0.13309037E+00 0.29179638E+04</pdfrwt>
<totfact> 0.12933132E+00</totfact>
</mgrwt>
</event>
<event>
 4    1  0.2018023E-008  0.2764334E+04  0.7816531E-02  0.8314428E-01
         -3   -1    0    0    0  501 -0.00000000000E+00  0.00000000000E+00  0.13927469477E+04  0.13927469477E+04  0.00000000000E+00 0.  1.
          3   -1    0    0  501    0  0.00000000000E+00 -0.00000000000E+00 -0.13716669919E+04  0.13716669919E+04  0.00000000000E+00 0. -1.
    2000013    1    1    2    0    0  0.59701027136E+03 -0.59338899404E+03  0.55768772913E+03  0.13863792286E+04  0.95000000000E+03 0.  0.
   -2000013    1    1    2    0    0 -0.59701027136E+03  0.59338899404E+03 -0.53660777324E+03  0.13780347110E+04  0.95000000000E+03 0.  0.
<mgrwt>
<rscale>  0 0.27643336E+04</rscale>
<asrwt>0</asrwt>
<pdfrwt beam="2">  1        3 0.21102569E+00 0.27643336E+04</pdfrwt>
<pdfrwt beam="1">  1       -3 0.21426876E+00 0.27643336E+04</pdfrwt>
<totfact> 0.34033588E-02</totfact>
</mgrwt>
</event>
<event>
 4    1  0.2018023E-008  0.2600909E+04  0.7816531E-02  0.8367892E-01
         -2   -1    0    0    0  501 -0.00000000000E+00  0.00000000000E+00  0.67628034465E+03  0.67628034465E+03  0.00000000000E+00 0. -1.
          2   -1    0    0  501    0  0.00000000000E+00 -0.00000000000E+00 -0.25007121056E+04  0.25007121056E+04  0.00000000000E+00 0.  1.
    2000013    1    1    2    0    0 -0.23535939545E+03  0.85442030882E+03 -0.98189812302E+03  0.16285122146E+04  0.95000000000E+03 0.  0.
   -2000013    1    1    2    0    0  0.23535939545E+03 -0.85442030882E+03 -0.84253363792E+03  0.15484802356E+04  0.95000000000E+03 0.  0.
<mgrwt>
<rscale>  0 0.26009094E+04</rscale>
<asrwt>0</asrwt>
<pdfrwt beam="2">  1        2 0.38472495E+00 0.26009094E+04</pdfrwt>
<pdfrwt beam="1">  1       -2 0.10404313E+00 0.26009094E+04</pdfrwt>
<totfact> 0.23109296E+00</totfact>
</mgrwt>
</event>
<event>
 4    1  0.2018023E-008  0.3290747E+04  0.7816531E-02  0.8165254E-01
          2   -1    0    0  501    0  0.00000000000E+00  0.00000000000E+00  0.11908428248E+04  0.11908428248E+04  0.00000000000E+00 0.  1.
         -2   -1    0    0    0  501 -0.00000000000E+00 -0.00000000000E+00 -0.22733927403E+04  0.22733927403E+04  0.00000000000E+00 0. -1.
    2000013    1    1    2    0    0 -0.10925974183E+04 -0.75721689822E+03 -0.33712625007E+03  0.16683227079E+04  0.95000000000E+03 0.  0.
   -2000013    1    1    2    0    0  0.10925974183E+04  0.75721689822E+03 -0.74542366549E+03  0.17959128571E+04  0.95000000000E+03 0.  0.
<mgrwt>
<rscale>  0 0.32907467E+04</rscale>
<asrwt>0</asrwt>
<pdfrwt beam="1">  1        2 0.18320659E+00 0.32907467E+04</pdfrwt>
<pdfrwt beam="2">  1       -2 0.34975272E+00 0.32907467E+04</pdfrwt>
<totfact> 0.25023251E-01</totfact>
</mgrwt>
</event>
<event>
 4    1  0.2018023E-008  0.2430182E+04  0.7816531E-02  0.8428289E-01
          2   -1    0    0  501    0  0.00000000000E+00  0.00000000000E+00  0.23132742198E+04  0.23132742198E+04  0.00000000000E+00 0.  1.
         -2   -1    0    0    0  501 -0.00000000000E+00 -0.00000000000E+00 -0.63824972932E+03  0.63824972932E+03  0.00000000000E+00 0. -1.
    2000013    1    1    2    0    0 -0.57378582519E+03 -0.39912808261E+03  0.11924645893E+04  0.16772015968E+04  0.95000000000E+03 0.  0.
   -2000013    1    1    2    0    0  0.57378582519E+03  0.39912808261E+03  0.48255990124E+03  0.12743223524E+04  0.95000000000E+03 0.  0.
<mgrwt>
<rscale>  0 0.24301824E+04</rscale>
<asrwt>0</asrwt>
<pdfrwt beam="1">  1        2 0.35588834E+00 0.24301824E+04</pdfrwt>
<pdfrwt beam="2">  1       -2 0.98192267E-01 0.24301824E+04</pdfrwt>
<totfact> 0.34462356E+00</totfact>
</mgrwt>
</event>
<event>
 4    1  0.2018023E-008  0.4142697E+04  0.7816531E-02  0.7976363E-01
          2   -1    0    0  501    0  0.00000000000E+00  0.00000000000E+00  0.29712613555E+04  0.29712613555E+04  0.00000000000E+00 0.  1.
         -2   -1    0    0    0  501 -0.00000000000E+00 -0.00000000000E+00 -0.14439946104E+04  0.14439946104E+04  0.00000000000E+00 0. -1.
    2000013    1    1    2    0    0 -0.57303241620E+03  0.17087498433E+04  0.36514494851E+03  0.20697881560E+04  0.95000000000E+03 0.  0.
   -2000013    1    1    2    0    0  0.57303241620E+03 -0.17087498433E+04  0.11621217966E+04  0.23454678099E+04  0.95000000000E+03 0.  0.
<mgrwt>
<rscale>  0 0.41426974E+04</rscale>
<asrwt>0</asrwt>
<pdfrwt beam="1">  1        2 0.45711713E+00 0.41426974E+04</pdfrwt>
<pdfrwt beam="2">  1       -2 0.22215302E+00 0.41426974E+04</pdfrwt>
<totfact> 0.13548499E-01</totfact>
</mgrwt>
</event>
<event>
 4    1  0.2018023E-008  0.2341964E+04  0.7816531E-02  0.8461557E-01
         -2   -1    0    0    0  501 -0.00000000000E+00  0.00000000000E+00  0.46632729463E+03  0.46632729463E+03  0.00000000000E+00 0. -1.
          2   -1    0    0  501    0  0.00000000000E+00 -0.00000000000E+00 -0.29404216892E+04  0.29404216892E+04  0.00000000000E+00 0.  1.
    2000013    1    1    2    0    0 -0.52242997354E+03 -0.37025686470E+03 -0.15894090907E+04  0.19592714158E+04  0.95000000000E+03 0.  0.
   -2000013    1    1    2    0    0  0.52242997354E+03  0.37025686470E+03 -0.88468530390E+03  0.14474775681E+04  0.95000000000E+03 0.  0.
<mgrwt>
<rscale>  0 0.23419640E+04</rscale>
<asrwt>0</asrwt>
<pdfrwt beam="2">  1        2 0.45237257E+00 0.23419640E+04</pdfrwt>
<pdfrwt beam="1">  1       -2 0.71742660E-01 0.23419640E+04</pdfrwt>
<totfact> 0.30200505E+00</totfact>
</mgrwt>
</event>
<event>
 4    1  0.2018023E-008  0.2735456E+04  0.7816531E-02  0.8323592E-01
          2   -1    0    0  501    0  0.00000000000E+00  0.00000000000E+00  0.21674547856E+04  0.21674547856E+04  0.00000000000E+00 0.  1.
         -2   -1    0    0    0  501 -0.00000000000E+00 -0.00000000000E+00 -0.86307670398E+03  0.86307670398E+03  0.00000000000E+00 0. -1.
    2000013    1    1    2    0    0  0.65951530070E+03 -0.71006685314E+03  0.46344621834E+03  0.14340285092E+04  0.95000000000E+03 0.  0.
   -2000013    1    1    2    0    0 -0.65951530070E+03  0.71006685314E+03  0.84093186325E+03  0.15965029804E+04  0.95000000000E+03 0.  0.
<mgrwt>
<rscale>  0 0.27354559E+04</rscale>
<asrwt>0</asrwt>
<pdfrwt beam="1">  1        2 0.33345458E+00 0.27354559E+04</pdfrwt>
<pdfrwt beam="2">  1       -2 0.13278103E+00 0.27354559E+04</pdfrwt>
<totfact> 0.19389886E+00</totfact>
</mgrwt>
</event>
<event>
 4    1  0.2018023E-008  0.2485870E+04  0.7816531E-02  0.8408037E-01
         -2   -1    0    0    0  501 -0.00000000000E+00  0.00000000000E+00  0.67812188987E+03  0.67812188987E+03  0.00000000000E+00 0. -1.
          2   -1    0    0  501    0  0.00000000000E+00 -0.00000000000E+00 -0.22781863239E+04  0.22781863239E+04  0.00000000000E+00 0.  1.
    2000013    1    1    2    0    0 -0.13744411366E+03 -0.67383352125E+03 -0.31049439249E+03  0.12131979503E+04  0.95000000000E+03 0.  0.
   -2000013    1    1    2    0    0  0.13744411366E+03  0.67383352125E+03 -0.12895700415E+04  0.17431102635E+04  0.95000000000E+03 0.  0.
<mgrwt>
<rscale>  0 0.24858705E+04</rscale>
<asrwt>0</asrwt>
<pdfrwt beam="2">  1        2 0.35049020E+00 0.24858705E+04</pdfrwt>
<pdfrwt beam="1">  1       -2 0.10432644E+00 0.24858705E+04</pdfrwt>
<totfact> 0.31089179E+00</totfact>
</mgrwt>
</event>
<event>
 4    1  0.2018023E-008  0.2625630E+04  0.7816531E-02  0.8359547E-01
          2   -1    0    0  501    0  0.00000000000E+00  0.00000000000E+00  0.94831704426E+03  0.94831704426E+03  0.00000000000E+00 0.  1.
         -2   -1    0    0    0  501 -0.00000000000E+00 -0.00000000000E+00 -0.18174123822E+04  0.18174123822E+04  0.00000000000E+00 0. -1.
    2000013    1    1    2    0    0  0.44246986141E+03 -0.62336099987E+03 -0.94694415629E+03  0.15438788001E+04  0.95000000000E+03 0.  0.
   -2000013    1    1    2    0    0 -0.44246986141E+03  0.62336099987E+03  0.77848818387E+02  0.12218506263E+04  0.95000000000E+03 0.  0.
<mgrwt>
<rscale>  0 0.26256299E+04</rscale>
<asrwt>0</asrwt>
<pdfrwt beam="1">  1        2 0.14589493E+00 0.26256299E+04</pdfrwt>
<pdfrwt beam="2">  1       -2 0.27960191E+00 0.26256299E+04</pdfrwt>
<totfact> 0.10174704E+00</totfact>
</mgrwt>
</event>
<event>
 4    1  0.2018023E-008  0.2261999E+04  0.7816531E-02  0.8493057E-01
          2   -1    0    0  501    0  0.00000000000E+00  0.00000000000E+00  0.24954139671E+04  0.24954139671E+04  0.00000000000E+00 0.  1.
         -2   -1    0    0    0  501 -0.00000000000E+00 -0.00000000000E+00 -0.51260444557E+03  0.51260444557E+03  0.00000000000E+00 0. -1.
    2000013    1    1    2    0    0 -0.57679097482E+03  0.13368338029E+03  0.12062463710E+04  0.16456273522E+04  0.95000000000E+03 0.  0.
   -2000013    1    1    2    0    0  0.57679097482E+03 -0.13368338029E+03  0.77656315049E+03  0.13623910604E+04  0.95000000000E+03 0.  0.
<mgrwt>
<rscale>  0 0.22619994E+04</rscale>
<asrwt>0</asrwt>
<pdfrwt beam="1">  1        2 0.38390984E+00 0.22619994E+04</pdfrwt>
<pdfrwt beam="2">  1       -2 0.78862224E-01 0.22619994E+04</pdfrwt>
<totfact> 0.45470929E+00</totfact>
</mgrwt>
</event>
<event>
 4    1  0.2018023E-008  0.2452349E+04  0.7816531E-02  0.8420161E-01
          2   -1    0    0  501    0  0.00000000000E+00  0.00000000000E+00  0.13909154293E+04  0.13909154293E+04  0.00000000000E+00 0.  1.
         -2   -1    0    0    0  501 -0.00000000000E+00 -0.00000000000E+00 -0.10809458493E+04  0.10809458493E+04  0.00000000000E+00 0. -1.
    2000013    1    1    2    0    0 -0.18832535175E+03  0.69084683785E+03 -0.14447916991E+03  0.11983780797E+04  0.95000000000E+03 0.  0.
   -2000013    1    1    2    0    0  0.18832535175E+03 -0.69084683785E+03  0.45444874993E+03  0.12734831989E+04  0.95000000000E+03 0.  0.
<mgrwt>
<rscale>  0 0.24523493E+04</rscale>
<asrwt>0</asrwt>
<pdfrwt beam="1">  1        2 0.21398699E+00 0.24523493E+04</pdfrwt>
<pdfrwt beam="2">  1       -2 0.16629936E+00 0.24523493E+04</pdfrwt>
<totfact> 0.29712700E+00</totfact>
</mgrwt>
</event>
<event>
 4    1  0.2018023E-008  0.2283626E+04  0.7816531E-02  0.8484405E-01
         -2   -1    0    0    0  501 -0.00000000000E+00  0.00000000000E+00  0.20313834018E+04  0.20313834018E+04  0.00000000000E+00 0. -1.
          2   -1    0    0  501    0  0.00000000000E+00 -0.00000000000E+00 -0.64179746107E+03  0.64179746107E+03  0.00000000000E+00 0.  1.
    2000013    1    1    2    0    0 -0.59580506559E+03  0.62727841691E+02  0.93559894481E+03  0.14617673699E+04  0.95000000000E+03 0.  0.
   -2000013    1    1    2    0    0  0.59580506559E+03 -0.62727841691E+02  0.45398699587E+03  0.12114134929E+04  0.95000000000E+03 0.  0.
<mgrwt>
<rscale>  0 0.22836258E+04</rscale>
<asrwt>0</asrwt>
<pdfrwt beam="2">  1        2 0.98738072E-01 0.22836258E+04</pdfrwt>
<pdfrwt beam="1">  1       -2 0.31252052E+00 0.22836258E+04</pdfrwt>
<totfact> 0.11047548E+00</totfact>
</mgrwt>
</event>
<event>
 4    1  0.2018023E-008  0.2007147E+04  0.7816531E-02  0.8603286E-01
         -4   -1    0    0    0  501 -0.00000000000E+00  0.00000000000E+00  0.46694633940E+03  0.46694633940E+03  0.00000000000E+00 0. -1.
          4   -1    0    0  501    0  0.00000000000E+00 -0.00000000000E+00 -0.21569077996E+04  0.21569077996E+04  0.00000000000E+00 0.  1.
    2000013    1    1    2    0    0 -0.19905485690E+03  0.14050571286E+03 -0.11232005033E+04  0.14911217462E+04  0.95000000000E+03 0.  0.
   -2000013    1    1    2    0    0  0.19905485690E+03 -0.14050571286E+03 -0.56676095691E+03  0.11327323928E+04  0.95000000000E+03 0.  0.
<mgrwt>
<rscale>  0 0.20071474E+04</rscale>
<asrwt>0</asrwt>
<pdfrwt beam="2">  1        4 0.33183197E+00 0.20071474E+04</pdfrwt>
<pdfrwt beam="1">  1       -4 0.71837897E-01 0.20071474E+04</pdfrwt>
<totfact> 0.63979915E-02</totfact>
</mgrwt>
</event>
<event>
 4    1  0.2018023E-008  0.3435177E+04  0.7816531E-02  0.8129326E-01
         -2   -1    0    0    0  501 -0.00000000000E+00  0.00000000000E+00  0.12210667985E+04  0.12210667985E+04  0.00000000000E+00 0. -1.
          2   -1    0    0  501    0  0.00000000000E+00 -0.00000000000E+00 -0.24160109641E+04  0.24160109641E+04  0.00000000000E+00 0.  1.
    2000013    1    1    2    0    0 -0.36466420022E+03  0.11658354013E+04  0.19162289829E+03  0.15592855726E+04  0.95000000000E+03 0.  0.
   -2000013    1    1    2    0    0  0.36466420022E+03 -0.11658354013E+04 -0.13865670640E+04  0.20777921900E+04  0.95000000000E+03 0.  0.
<mgrwt>
<rscale>  0 0.34351773E+04</rscale>
<asrwt>0</asrwt>
<pdfrwt beam="2">  1        2 0.37169399E+00 0.34351773E+04</pdfrwt>
<pdfrwt beam="1">  1       -2 0.18785643E+00 0.34351773E+04</pdfrwt>
<totfact> 0.51517686E-01</totfact>
</mgrwt>
</event>
<event>
 4    1  0.2018023E-008  0.2227068E+04  0.7816531E-02  0.8507245E-01
          2   -1    0    0  501    0  0.00000000000E+00  0.00000000000E+00  0.17363955106E+04  0.17363955106E+04  0.00000000000E+00 0. -1.
         -2   -1    0    0    0  501 -0.00000000000E+00 -0.00000000000E+00 -0.71409894630E+03  0.71409894630E+03  0.00000000000E+00 0.  1.
    2000013    1    1    2    0    0 -0.43335036973E+03  0.27833073955E+03  0.80680092762E+03  0.13485875130E+04  0.95000000000E+03 0.  0.
   -2000013    1    1    2    0    0  0.43335036973E+03 -0.27833073955E+03  0.21549563670E+03  0.11019069439E+04  0.95000000000E+03 0.  0.
<mgrwt>
<rscale>  0 0.22270682E+04</rscale>
<asrwt>0</asrwt>
<pdfrwt beam="1">  1        2 0.26713777E+00 0.22270682E+04</pdfrwt>
<pdfrwt beam="2">  1       -2 0.10986138E+00 0.22270682E+04</pdfrwt>
<totfact> 0.56262501E+00</totfact>
</mgrwt>
</event>
<event>
 4    1  0.2018023E-008  0.2701080E+04  0.7816531E-02  0.8334655E-01
         -2   -1    0    0    0  501 -0.00000000000E+00  0.00000000000E+00  0.14835260670E+04  0.14835260670E+04  0.00000000000E+00 0. -1.
          2   -1    0    0  501    0  0.00000000000E+00 -0.00000000000E+00 -0.12294752848E+04  0.12294752848E+04  0.00000000000E+00 0.  1.
    2000013    1    1    2    0    0  0.70687439277E+03 -0.17348750766E+03 -0.50158764400E+03  0.12976361150E+04  0.95000000000E+03 0.  0.
   -2000013    1    1    2    0    0 -0.70687439277E+03  0.17348750766E+03  0.75563842622E+03  0.14153652368E+04  0.95000000000E+03 0.  0.
<mgrwt>
<rscale>  0 0.27010803E+04</rscale>
<asrwt>0</asrwt>
<pdfrwt beam="2">  1        2 0.18915004E+00 0.27010803E+04</pdfrwt>
<pdfrwt beam="1">  1       -2 0.22823478E+00 0.27010803E+04</pdfrwt>
<totfact> 0.13994434E+00</totfact>
</mgrwt>
</event>
<event>
 4    1  0.2018023E-008  0.2540478E+04  0.7816531E-02  0.8388705E-01
          2   -1    0    0  501    0  0.00000000000E+00  0.00000000000E+00  0.73818192603E+03  0.73818192603E+03  0.00000000000E+00 0.  1.
         -2   -1    0    0    0  501 -0.00000000000E+00 -0.00000000000E+00 -0.21857856347E+04  0.21857856347E+04  0.00000000000E+00 0. -1.
    2000013    1    1    2    0    0  0.42691741836E+03 -0.72499796564E+03 -0.78816174122E+03  0.14938472019E+04  0.95000000000E+03 0.  0.
   -2000013    1    1    2    0    0 -0.42691741836E+03  0.72499796564E+03 -0.65944196743E+03  0.14301203588E+04  0.95000000000E+03 0.  0.
<mgrwt>
<rscale>  0 0.25404783E+04</rscale>
<asrwt>0</asrwt>
<pdfrwt beam="1">  1        2 0.11356645E+00 0.25404783E+04</pdfrwt>
<pdfrwt beam="2">  1       -2 0.33627471E+00 0.25404783E+04</pdfrwt>
<totfact> 0.64578355E-01</totfact>
</mgrwt>
</event>
<event>
 4    1  0.2018023E-008  0.2343064E+04  0.7816531E-02  0.8461132E-01
          2   -1    0    0  501    0  0.00000000000E+00  0.00000000000E+00  0.12992852092E+04  0.12992852092E+04  0.00000000000E+00 0.  1.
         -2   -1    0    0    0  501 -0.00000000000E+00 -0.00000000000E+00 -0.10563403107E+04  0.10563403107E+04  0.00000000000E+00 0. -1.
    2000013    1    1    2    0    0 -0.45013543561E+03  0.51686843866E+03  0.13612619592E+03  0.11793240583E+04  0.95000000000E+03 0.  0.
   -2000013    1    1    2    0    0  0.45013543561E+03 -0.51686843866E+03  0.10681870265E+03  0.11763014616E+04  0.95000000000E+03 0.  0.
<mgrwt>
<rscale>  0 0.23430641E+04</rscale>
<asrwt>0</asrwt>
<pdfrwt beam="1">  1        2 0.19989003E+00 0.23430641E+04</pdfrwt>
<pdfrwt beam="2">  1       -2 0.16251389E+00 0.23430641E+04</pdfrwt>
<totfact> 0.36088979E+00</totfact>
</mgrwt>
</event>
<event>
 4    1  0.2018023E-008  0.2201098E+04  0.7816531E-02  0.8517971E-01
          2   -1    0    0  501    0  0.00000000000E+00  0.00000000000E+00  0.50824361332E+03  0.50824361332E+03  0.00000000000E+00 0.  1.
         -2   -1    0    0    0  501 -0.00000000000E+00 -0.00000000000E+00 -0.23831260343E+04  0.23831260343E+04  0.00000000000E+00 0. -1.
    2000013    1    1    2    0    0 -0.40727970117E+03  0.37684706438E+03 -0.89986844796E+03  0.14213211068E+04  0.95000000000E+03 0.  0.
   -2000013    1    1    2    0    0  0.40727970117E+03 -0.37684706438E+03 -0.97501397304E+03  0.14700485409E+04  0.95000000000E+03 0.  0.
<mgrwt>
<rscale>  0 0.22010984E+04</rscale>
<asrwt>0</asrwt>
<pdfrwt beam="1">  1        2 0.78191325E-01 0.22010984E+04</pdfrwt>
<pdfrwt beam="2">  1       -2 0.36663477E+00 0.22010984E+04</pdfrwt>
<totfact> 0.67471563E-01</totfact>
</mgrwt>
</event>
<event>
 4    1  0.2018023E-008  0.2424581E+04  0.7816531E-02  0.8430358E-01
          1   -1    0    0  501    0  0.00000000000E+00  0.00000000000E+00  0.12209513127E+04  0.12209513127E+04  0.00000000000E+00 0.  1.
         -1   -1    0    0    0  501 -0.00000000000E+00 -0.00000000000E+00 -0.12036911808E+04  0.12036911808E+04  0.00000000000E+00 0. -1.
    2000013    1    1    2    0    0 -0.62846399161E+03 -0.41384301893E+03 -0.21624531779E+02  0.12121058755E+04  0.95000000000E+03 0.  0.
   -2000013    1    1    2    0    0  0.62846399161E+03  0.41384301893E+03  0.38884663703E+02  0.12125366181E+04  0.95000000000E+03 0.  0.
<mgrwt>
<rscale>  0 0.24245811E+04</rscale>
<asrwt>0</asrwt>
<pdfrwt beam="1">  1        1 0.18783866E+00 0.24245811E+04</pdfrwt>
<pdfrwt beam="2">  1       -1 0.18518326E+00 0.24245811E+04</pdfrwt>
<totfact> 0.17628698E+00</totfact>
</mgrwt>
</event>
<event>
 4    1  0.2018023E-008  0.2388257E+04  0.7816531E-02  0.8443913E-01
          2   -1    0    0  501    0  0.00000000000E+00  0.00000000000E+00  0.19308994950E+04  0.19308994950E+04  0.00000000000E+00 0.  1.
         -2   -1    0    0    0  501 -0.00000000000E+00 -0.00000000000E+00 -0.73848608998E+03  0.73848608998E+03  0.00000000000E+00 0. -1.
    2000013    1    1    2    0    0 -0.67735920230E+03 -0.25420950102E+03  0.59856687237E+03  0.13357470794E+04  0.95000000000E+03 0.  0.
   -2000013    1    1    2    0    0  0.67735920230E+03  0.25420950102E+03  0.59384653270E+03  0.13336385056E+04  0.95000000000E+03 0.  0.
<mgrwt>
<rscale>  0 0.23882566E+04</rscale>
<asrwt>0</asrwt>
<pdfrwt beam="1">  1        2 0.29706146E+00 0.23882566E+04</pdfrwt>
<pdfrwt beam="2">  1       -2 0.11361325E+00 0.23882566E+04</pdfrwt>
<totfact> 0.39904788E+00</totfact>
</mgrwt>
</event>
<event>
 4    1  0.2018023E-008  0.1988327E+04  0.7816531E-02  0.8612098E-01
         -2   -1    0    0    0  501 -0.00000000000E+00  0.00000000000E+00  0.73025765787E+03  0.73025765787E+03  0.00000000000E+00 0.  1.
          2   -1    0    0  501    0  0.00000000000E+00 -0.00000000000E+00 -0.13534419088E+04  0.13534419088E+04  0.00000000000E+00 0. -1.
    2000013    1    1    2    0    0 -0.21729778356E+03 -0.14683031262E+03 -0.17461749975E+03  0.10008839786E+04  0.95000000000E+03 0.  0.
   -2000013    1    1    2    0    0  0.21729778356E+03  0.14683031262E+03 -0.44856675117E+03  0.10828155880E+04  0.95000000000E+03 0.  0.
<mgrwt>
<rscale>  0 0.19883273E+04</rscale>
<asrwt>0</asrwt>
<pdfrwt beam="2">  1        2 0.20822183E+00 0.19883273E+04</pdfrwt>
<pdfrwt beam="1">  1       -2 0.11234733E+00 0.19883273E+04</pdfrwt>
<totfact> 0.89353461E+00</totfact>
</mgrwt>
</event>
<event>
 4    1  0.2018023E-008  0.2736682E+04  0.7816531E-02  0.8323200E-01
         -2   -1    0    0    0  501 -0.00000000000E+00  0.00000000000E+00  0.12310786451E+04  0.12310786451E+04  0.00000000000E+00 0. -1.
          2   -1    0    0  501    0  0.00000000000E+00 -0.00000000000E+00 -0.15209073865E+04  0.15209073865E+04  0.00000000000E+00 0.  1.
    2000013    1    1    2    0    0  0.83542476441E+03 -0.39439169233E+03  0.19813451365E+03  0.13398644071E+04  0.95000000000E+03 0.  0.
   -2000013    1    1    2    0    0 -0.83542476441E+03  0.39439169233E+03 -0.48796325505E+03  0.14121216245E+04  0.95000000000E+03 0.  0.
<mgrwt>
<rscale>  0 0.27366816E+04</rscale>
<asrwt>0</asrwt>
<pdfrwt beam="2">  1        2 0.23398575E+00 0.27366816E+04</pdfrwt>
<pdfrwt beam="1">  1       -2 0.18939672E+00 0.27366816E+04</pdfrwt>
<totfact> 0.16907470E+00</totfact>
</mgrwt>
</event>
<event>
 4    1  0.2018023E-008  0.2426374E+04  0.7816531E-02  0.8429695E-01
          2   -1    0    0  501    0  0.00000000000E+00  0.00000000000E+00  0.23764573722E+04  0.23764573722E+04  0.00000000000E+00 0.  1.
         -2   -1    0    0    0  501 -0.00000000000E+00 -0.00000000000E+00 -0.61933483107E+03  0.61933483107E+03  0.00000000000E+00 0. -1.
    2000013    1    1    2    0    0 -0.74972771466E+02 -0.47689140775E+03  0.16257914718E+03  0.10779509777E+04  0.95000000000E+03 0.  0.
   -2000013    1    1    2    0    0  0.74972771466E+02  0.47689140775E+03  0.15945433939E+04  0.19178412255E+04  0.95000000000E+03 0.  0.
<mgrwt>
<rscale>  0 0.24263741E+04</rscale>
<asrwt>0</asrwt>
<pdfrwt beam="1">  1        2 0.36560882E+00 0.24263741E+04</pdfrwt>
<pdfrwt beam="2">  1       -2 0.95282283E-01 0.24263741E+04</pdfrwt>
<totfact> 0.34052264E+00</totfact>
</mgrwt>
</event>
<event>
 4    1  0.2018023E-008  0.2039344E+04  0.7816531E-02  0.8588444E-01
         -2   -1    0    0    0  501 -0.00000000000E+00  0.00000000000E+00  0.60870523786E+03  0.60870523786E+03  0.00000000000E+00 0. -1.
          2   -1    0    0  501    0  0.00000000000E+00 -0.00000000000E+00 -0.17081033833E+04  0.17081033833E+04  0.00000000000E+00 0.  1.
    2000013    1    1    2    0    0  0.22753983948E+03 -0.17393827708E+03 -0.81661791421E+03  0.12850656484E+04  0.95000000000E+03 0.  0.
   -2000013    1    1    2    0    0 -0.22753983948E+03  0.17393827708E+03 -0.28278023125E+03  0.10317429728E+04  0.95000000000E+03 0.  0.
<mgrwt>
<rscale>  0 0.20393445E+04</rscale>
<asrwt>0</asrwt>
<pdfrwt beam="2">  1        2 0.26278513E+00 0.20393445E+04</pdfrwt>
<pdfrwt beam="1">  1       -2 0.93646961E-01 0.20393445E+04</pdfrwt>
<totfact> 0.86627142E+00</totfact>
</mgrwt>
</event>
<event>
 4    1  0.2018023E-008  0.2021537E+04  0.7816531E-02  0.8596617E-01
         -1   -1    0    0    0  501 -0.00000000000E+00  0.00000000000E+00  0.46124420665E+03  0.46124420665E+03  0.00000000000E+00 0. -1.
          1   -1    0    0  501    0  0.00000000000E+00 -0.00000000000E+00 -0.22149934826E+04  0.22149934826E+04  0.00000000000E+00 0.  1.
    2000013    1    1    2    0    0  0.16801213198E+03 -0.17172497144E+03 -0.12050093952E+04  0.15531468652E+04  0.95000000000E+03 0.  0.
   -2000013    1    1    2    0    0 -0.16801213198E+03  0.17172497144E+03 -0.54873988070E+03  0.11230908240E+04  0.95000000000E+03 0.  0.
<mgrwt>
<rscale>  0 0.20215370E+04</rscale>
<asrwt>0</asrwt>
<pdfrwt beam="2">  1        1 0.34076823E+00 0.20215370E+04</pdfrwt>
<pdfrwt beam="1">  1       -1 0.70960646E-01 0.20215370E+04</pdfrwt>
<totfact> 0.39525788E+00</totfact>
</mgrwt>
</event>
<event>
 4    1  0.2018023E-008  0.4042868E+04  0.7816531E-02  0.7995954E-01
          2   -1    0    0  501    0  0.00000000000E+00  0.00000000000E+00  0.32518648127E+04  0.32518648127E+04  0.00000000000E+00 0.  1.
         -2   -1    0    0    0  501 -0.00000000000E+00 -0.00000000000E+00 -0.12565701448E+04  0.12565701448E+04  0.00000000000E+00 0. -1.
    2000013    1    1    2    0    0  0.17095500202E+04 -0.24897892037E+02  0.42846341490E+03  0.20023141798E+04  0.95000000000E+03 0.  0.
   -2000013    1    1    2    0    0 -0.17095500202E+04  0.24897892037E+02  0.15668312531E+04  0.25061207777E+04  0.95000000000E+03 0.  0.
<mgrwt>
<rscale>  0 0.40428684E+04</rscale>
<asrwt>0</asrwt>
<pdfrwt beam="1">  1        2 0.50028689E+00 0.40428684E+04</pdfrwt>
<pdfrwt beam="2">  1       -2 0.19331849E+00 0.40428684E+04</pdfrwt>
<totfact> 0.13865278E-01</totfact>
</mgrwt>
</event>
<event>
 4    1  0.2018023E-008  0.2065959E+04  0.7816531E-02  0.8576389E-01
          2   -1    0    0  501    0  0.00000000000E+00  0.00000000000E+00  0.54484650846E+03  0.54484650846E+03  0.00000000000E+00 0.  1.
         -2   -1    0    0    0  501 -0.00000000000E+00 -0.00000000000E+00 -0.19584358249E+04  0.19584358249E+04  0.00000000000E+00 0. -1.
    2000013    1    1    2    0    0 -0.36184633582E+03 -0.10761957246E+03 -0.88664729006E+03  0.13532029264E+04  0.95000000000E+03 0.  0.
   -2000013    1    1    2    0    0  0.36184633582E+03  0.10761957246E+03 -0.52694202641E+03  0.11500794070E+04  0.95000000000E+03 0.  0.
<mgrwt>
<rscale>  0 0.20659593E+04</rscale>
<asrwt>0</asrwt>
<pdfrwt beam="1">  1        2 0.83822541E-01 0.20659593E+04</pdfrwt>
<pdfrwt beam="2">  1       -2 0.30129781E+00 0.20659593E+04</pdfrwt>
<totfact> 0.16068916E+00</totfact>
</mgrwt>
</event>
<event>
 4    1  0.2018023E-008  0.2546080E+04  0.7816531E-02  0.8386751E-01
          2   -1    0    0  501    0  0.00000000000E+00  0.00000000000E+00  0.19745100627E+04  0.19745100627E+04  0.00000000000E+00 0. -1.
         -2   -1    0    0    0  501 -0.00000000000E+00 -0.00000000000E+00 -0.82077635586E+03  0.82077635586E+03  0.00000000000E+00 0.  1.
    2000013    1    1    2    0    0 -0.76908475672E+03 -0.75888618398E+02  0.19515753808E+03  0.12400955246E+04  0.95000000000E+03 0.  0.
   -2000013    1    1    2    0    0  0.76908475672E+03  0.75888618398E+02  0.95857616876E+03  0.15551908940E+04  0.95000000000E+03 0.  0.
<mgrwt>
<rscale>  0 0.25460803E+04</rscale>
<asrwt>0</asrwt>
<pdfrwt beam="1">  1        2 0.30377078E+00 0.25460803E+04</pdfrwt>
<pdfrwt beam="2">  1       -2 0.12627329E+00 0.25460803E+04</pdfrwt>
<totfact> 0.28668925E+00</totfact>
</mgrwt>
</event>
<event>
 4    1  0.2018023E-008  0.2196737E+04  0.7816531E-02  0.8519788E-01
         -4   -1    0    0    0  501 -0.00000000000E+00  0.00000000000E+00  0.94348427315E+03  0.94348427315E+03  0.00000000000E+00 0.  1.
          4   -1    0    0  501    0  0.00000000000E+00 -0.00000000000E+00 -0.12786784626E+04  0.12786784626E+04  0.00000000000E+00 0. -1.
    2000013    1    1    2    0    0 -0.48665238471E+03  0.22596988419E+03 -0.29563256552E+03  0.11303944205E+04  0.95000000000E+03 0.  0.
   -2000013    1    1    2    0    0  0.48665238471E+03 -0.22596988419E+03 -0.39561623933E+02  0.10917683153E+04  0.95000000000E+03 0.  0.
<mgrwt>
<rscale>  0 0.21967367E+04</rscale>
<asrwt>0</asrwt>
<pdfrwt beam="2">  1        4 0.19671976E+00 0.21967367E+04</pdfrwt>
<pdfrwt beam="1">  1       -4 0.14515143E+00 0.21967367E+04</pdfrwt>
<totfact> 0.82171092E-02</totfact>
</mgrwt>
</event>
<event>
 4    1  0.2018023E-008  0.2006400E+04  0.7816531E-02  0.8603634E-01
          2   -1    0    0  501    0  0.00000000000E+00  0.00000000000E+00  0.21968612630E+04  0.21968612630E+04  0.00000000000E+00 0.  1.
         -2   -1    0    0    0  501 -0.00000000000E+00 -0.00000000000E+00 -0.45811279857E+03  0.45811279857E+03  0.00000000000E+00 0. -1.
    2000013    1    1    2    0    0 -0.31331916165E+03 -0.38110061461E+02  0.95603452361E+03  0.13842410499E+04  0.95000000000E+03 0.  0.
   -2000013    1    1    2    0    0  0.31331916165E+03  0.38110061461E+02  0.78271394082E+03  0.12707330117E+04  0.95000000000E+03 0.  0.
<mgrwt>
<rscale>  0 0.20064000E+04</rscale>
<asrwt>0</asrwt>
<pdfrwt beam="1">  1        2 0.33797865E+00 0.20064000E+04</pdfrwt>
<pdfrwt beam="2">  1       -2 0.70478893E-01 0.20064000E+04</pdfrwt>
<totfact> 0.88175125E+00</totfact>
</mgrwt>
</event>
<event>
 4    1  0.2018023E-008  0.2646674E+04  0.7816531E-02  0.8352518E-01
          2   -1    0    0  501    0  0.00000000000E+00  0.00000000000E+00  0.19243425381E+04  0.19243425381E+04  0.00000000000E+00 0.  1.
         -2   -1    0    0    0  501 -0.00000000000E+00 -0.00000000000E+00 -0.91003572551E+03  0.91003572551E+03  0.00000000000E+00 0. -1.
    2000013    1    1    2    0    0  0.83393533548E+03  0.15428643004E+03  0.89248856880E+03  0.15550846574E+04  0.95000000000E+03 0.  0.
   -2000013    1    1    2    0    0 -0.83393533548E+03 -0.15428643004E+03  0.12181824375E+03  0.12792936062E+04  0.95000000000E+03 0.  0.
<mgrwt>
<rscale>  0 0.26466737E+04</rscale>
<asrwt>0</asrwt>
<pdfrwt beam="1">  1        2 0.29605270E+00 0.26466737E+04</pdfrwt>
<pdfrwt beam="2">  1       -2 0.14000550E+00 0.26466737E+04</pdfrwt>
<totfact> 0.23294661E+00</totfact>
</mgrwt>
</event>
<event>
 4    1  0.2018023E-008  0.2562521E+04  0.7816531E-02  0.8381044E-01
          1   -1    0    0  501    0  0.00000000000E+00  0.00000000000E+00  0.70216711934E+03  0.70216711934E+03  0.00000000000E+00 0.  1.
         -1   -1    0    0    0  501 -0.00000000000E+00 -0.00000000000E+00 -0.23379458204E+04  0.23379458204E+04  0.00000000000E+00 0. -1.
    2000013    1    1    2    0    0 -0.17574399055E+03  0.65562336501E+03 -0.14438650084E+04  0.18568721306E+04  0.95000000000E+03 0.  0.
   -2000013    1    1    2    0    0  0.17574399055E+03 -0.65562336501E+03 -0.19191369267E+03  0.11832408091E+04  0.95000000000E+03 0.  0.
<mgrwt>
<rscale>  0 0.25625212E+04</rscale>
<asrwt>0</asrwt>
<pdfrwt beam="1">  1        1 0.10802571E+00 0.25625212E+04</pdfrwt>
<pdfrwt beam="2">  1       -1 0.35968398E+00 0.25625212E+04</pdfrwt>
<totfact> 0.32101572E-01</totfact>
</mgrwt>
</event>
<event>
 4    1  0.2018023E-008  0.2941886E+04  0.7816531E-02  0.8260523E-01
         -2   -1    0    0    0  501 -0.00000000000E+00  0.00000000000E+00  0.11289900675E+04  0.11289900675E+04  0.00000000000E+00 0. -1.
          2   -1    0    0  501    0  0.00000000000E+00 -0.00000000000E+00 -0.19164684759E+04  0.19164684759E+04  0.00000000000E+00 0.  1.
    2000013    1    1    2    0    0 -0.10135212606E+04  0.32048039964E+02 -0.89334968411E+03  0.16519158818E+04  0.95000000000E+03 0.  0.
   -2000013    1    1    2    0    0  0.10135212606E+04 -0.32048039964E+02  0.10587127569E+03  0.13935426616E+04  0.95000000000E+03 0.  0.
<mgrwt>
<rscale>  0 0.29418864E+04</rscale>
<asrwt>0</asrwt>
<pdfrwt beam="2">  1        2 0.29484130E+00 0.29418864E+04</pdfrwt>
<pdfrwt beam="1">  1       -2 0.17369078E+00 0.29418864E+04</pdfrwt>
<totfact> 0.12835956E+00</totfact>
</mgrwt>
</event>
<event>
 4    1  0.2018023E-008  0.2430055E+04  0.7816531E-02  0.8428336E-01
         -2   -1    0    0    0  501 -0.00000000000E+00  0.00000000000E+00  0.69934679141E+03  0.69934679141E+03  0.00000000000E+00 0. -1.
          2   -1    0    0  501    0  0.00000000000E+00 -0.00000000000E+00 -0.21109590028E+04  0.21109590028E+04  0.00000000000E+00 0.  1.
    2000013    1    1    2    0    0 -0.55159202677E+03 -0.16125746907E+03 -0.13509307468E+03  0.11184846330E+04  0.95000000000E+03 0.  0.
   -2000013    1    1    2    0    0  0.55159202677E+03  0.16125746907E+03 -0.12765191367E+04  0.16918211613E+04  0.95000000000E+03 0.  0.
<mgrwt>
<rscale>  0 0.24300555E+04</rscale>
<asrwt>0</asrwt>
<pdfrwt beam="2">  1        2 0.32476292E+00 0.24300555E+04</pdfrwt>
<pdfrwt beam="1">  1       -2 0.10759182E+00 0.24300555E+04</pdfrwt>
<totfact> 0.36019410E+00</totfact>
</mgrwt>
</event>
<event>
 4    1  0.2018023E-008  0.2324031E+04  0.7816531E-02  0.8468506E-01
         -2   -1    0    0    0  501 -0.00000000000E+00  0.00000000000E+00  0.54834566711E+03  0.54834566711E+03  0.00000000000E+00 0. -1.
          2   -1    0    0  501    0  0.00000000000E+00 -0.00000000000E+00 -0.24624617715E+04  0.24624617715E+04  0.00000000000E+00 0.  1.
    2000013    1    1    2    0    0  0.55285083987E+03  0.36423057245E+03 -0.83097162691E+03  0.14252444723E+04  0.95000000000E+03 0.  0.
   -2000013    1    1    2    0    0 -0.55285083987E+03 -0.36423057245E+03 -0.10831444775E+04  0.15855629663E+04  0.95000000000E+03 0.  0.
<mgrwt>
<rscale>  0 0.23240312E+04</rscale>
<asrwt>0</asrwt>
<pdfrwt beam="2">  1        2 0.37884027E+00 0.23240312E+04</pdfrwt>
<pdfrwt beam="1">  1       -2 0.84360872E-01 0.23240312E+04</pdfrwt>
<totfact> 0.40588672E+00</totfact>
</mgrwt>
</event>
<event>
 4    1  0.2018023E-008  0.2021308E+04  0.7816531E-02  0.8596723E-01
          2   -1    0    0  501    0  0.00000000000E+00  0.00000000000E+00  0.56755732323E+03  0.56755732323E+03  0.00000000000E+00 0.  1.
         -2   -1    0    0    0  501 -0.00000000000E+00 -0.00000000000E+00 -0.17996790926E+04  0.17996790926E+04  0.00000000000E+00 0. -1.
    2000013    1    1    2    0    0  0.21205116350E+02  0.34019668128E+03 -0.67733753146E+03  0.12155120610E+04  0.95000000000E+03 0.  0.
   -2000013    1    1    2    0    0 -0.21205116350E+02 -0.34019668128E+03 -0.55478423794E+03  0.11517243549E+04  0.95000000000E+03 0.  0.
<mgrwt>
<rscale>  0 0.20213075E+04</rscale>
<asrwt>0</asrwt>
<pdfrwt beam="1">  1        2 0.87316514E-01 0.20213075E+04</pdfrwt>
<pdfrwt beam="2">  1       -2 0.27687370E+00 0.20213075E+04</pdfrwt>
<totfact> 0.21649621E+00</totfact>
</mgrwt>
</event>
<event>
 4    1  0.2018023E-008  0.3853385E+04  0.7816531E-02  0.8034795E-01
          2   -1    0    0  501    0  0.00000000000E+00  0.00000000000E+00  0.21127923131E+04  0.21127923131E+04  0.00000000000E+00 0.  1.
         -2   -1    0    0    0  501 -0.00000000000E+00 -0.00000000000E+00 -0.17569845042E+04  0.17569845042E+04  0.00000000000E+00 0. -1.
    2000013    1    1    2    0    0 -0.16289395895E+04  0.21078969507E+03 -0.15783378946E+03  0.19040189040E+04  0.95000000000E+03 0.  0.
   -2000013    1    1    2    0    0  0.16289395895E+04 -0.21078969507E+03  0.51364159832E+03  0.19657579132E+04  0.95000000000E+03 0.  0.
<mgrwt>
<rscale>  0 0.38533847E+04</rscale>
<asrwt>0</asrwt>
<pdfrwt beam="1">  1        2 0.32504497E+00 0.38533847E+04</pdfrwt>
<pdfrwt beam="2">  1       -2 0.27030531E+00 0.38533847E+04</pdfrwt>
<totfact> 0.22269094E-01</totfact>
</mgrwt>
</event>
<event>
 4    1  0.2018023E-008  0.2446765E+04  0.7816531E-02  0.8422200E-01
         -2   -1    0    0    0  501 -0.00000000000E+00  0.00000000000E+00  0.12422798277E+04  0.12422798277E+04  0.00000000000E+00 0. -1.
          2   -1    0    0  501    0  0.00000000000E+00 -0.00000000000E+00 -0.12047724738E+04  0.12047724738E+04  0.00000000000E+00 0.  1.
    2000013    1    1    2    0    0 -0.45310437663E+03  0.30257162206E+03 -0.52657305407E+03  0.12151676197E+04  0.95000000000E+03 0.  0.
   -2000013    1    1    2    0    0  0.45310437663E+03 -0.30257162206E+03  0.56408040795E+03  0.12318846818E+04  0.95000000000E+03 0.  0.
<mgrwt>
<rscale>  0 0.24467648E+04</rscale>
<asrwt>0</asrwt>
<pdfrwt beam="2">  1        2 0.18534961E+00 0.24467648E+04</pdfrwt>
<pdfrwt beam="1">  1       -2 0.19111997E+00 0.24467648E+04</pdfrwt>
<totfact> 0.25678282E+00</totfact>
</mgrwt>
</event>
<event>
 4    1  0.2018023E-008  0.3137485E+04  0.7816531E-02  0.8205525E-01
         -2   -1    0    0    0  501 -0.00000000000E+00  0.00000000000E+00  0.12251134378E+04  0.12251134378E+04  0.00000000000E+00 0. -1.
          2   -1    0    0  501    0  0.00000000000E+00 -0.00000000000E+00 -0.20087553636E+04  0.20087553636E+04  0.00000000000E+00 0.  1.
    2000013    1    1    2    0    0  0.95286611409E+03 -0.74243126452E+03 -0.67029356017E+02  0.15382298100E+04  0.95000000000E+03 0.  0.
   -2000013    1    1    2    0    0 -0.95286611409E+03  0.74243126452E+03 -0.71661256972E+03  0.16956389914E+04  0.95000000000E+03 0.  0.
<mgrwt>
<rscale>  0 0.31374851E+04</rscale>
<asrwt>0</asrwt>
<pdfrwt beam="2">  1        2 0.30903929E+00 0.31374851E+04</pdfrwt>
<pdfrwt beam="1">  1       -2 0.18847899E+00 0.31374851E+04</pdfrwt>
<totfact> 0.88749041E-01</totfact>
</mgrwt>
</event>
<event>
 4    1  0.2018023E-008  0.3298097E+04  0.7816531E-02  0.8163380E-01
          2   -1    0    0  501    0  0.00000000000E+00  0.00000000000E+00  0.27709717408E+04  0.27709717408E+04  0.00000000000E+00 0.  1.
         -2   -1    0    0    0  501 -0.00000000000E+00 -0.00000000000E+00 -0.98137432791E+03  0.98137432791E+03  0.00000000000E+00 0. -1.
    2000013    1    1    2    0    0 -0.47620627917E+02  0.80817412394E+03  0.21209364639E+04  0.24609519749E+04  0.95000000000E+03 0.  0.
   -2000013    1    1    2    0    0  0.47620627917E+02 -0.80817412394E+03 -0.33133905101E+03  0.12913940938E+04  0.95000000000E+03 0.  0.
<mgrwt>
<rscale>  0 0.32980967E+04</rscale>
<asrwt>0</asrwt>
<pdfrwt beam="1">  1        2 0.42630334E+00 0.32980967E+04</pdfrwt>
<pdfrwt beam="2">  1       -2 0.15098067E+00 0.32980967E+04</pdfrwt>
<totfact> 0.59200306E-01</totfact>
</mgrwt>
</event>
<event>
 4    1  0.2018023E-008  0.2425437E+04  0.7816531E-02  0.8430041E-01
         -2   -1    0    0    0  501 -0.00000000000E+00  0.00000000000E+00  0.40456410116E+03  0.40456410116E+03  0.00000000000E+00 0. -1.
          2   -1    0    0  501    0  0.00000000000E+00 -0.00000000000E+00 -0.36352358900E+04  0.36352358900E+04  0.00000000000E+00 0.  1.
    2000013    1    1    2    0    0  0.94749532126E+02  0.67995096605E+03 -0.21337491439E+04  0.24344806837E+04  0.95000000000E+03 0.  0.
   -2000013    1    1    2    0    0 -0.94749532126E+02 -0.67995096605E+03 -0.10969226449E+04  0.16053193075E+04  0.95000000000E+03 0.  0.
<mgrwt>
<rscale>  0 0.24254368E+04</rscale>
<asrwt>0</asrwt>
<pdfrwt beam="2">  1        2 0.55926706E+00 0.24254368E+04</pdfrwt>
<pdfrwt beam="1">  1       -2 0.62240631E-01 0.24254368E+04</pdfrwt>
<totfact> 0.14030592E+00</totfact>
</mgrwt>
</event>
<event>
 4    1  0.2018023E-008  0.4302045E+04  0.7816531E-02  0.7946240E-01
          2   -1    0    0  501    0  0.00000000000E+00  0.00000000000E+00  0.27564085381E+04  0.27564085381E+04  0.00000000000E+00 0.  1.
         -2   -1    0    0    0  501 -0.00000000000E+00 -0.00000000000E+00 -0.16785966067E+04  0.16785966067E+04  0.00000000000E+00 0. -1.
    2000013    1    1    2    0    0  0.16752224185E+04  0.58170247347E+03 -0.24597198020E+03  0.20267585288E+04  0.95000000000E+03 0.  0.
   -2000013    1    1    2    0    0 -0.16752224185E+04 -0.58170247347E+03  0.13237839115E+04  0.24082466160E+04  0.95000000000E+03 0.  0.
<mgrwt>
<rscale>  0 0.43020451E+04</rscale>
<asrwt>0</asrwt>
<pdfrwt beam="1">  1        2 0.42406285E+00 0.43020451E+04</pdfrwt>
<pdfrwt beam="2">  1       -2 0.25824563E+00 0.43020451E+04</pdfrwt>
<totfact> 0.10815594E-01</totfact>
</mgrwt>
</event>
<event>
 4    1  0.2018023E-008  0.3063140E+04  0.7816531E-02  0.8225927E-01
         -2   -1    0    0    0  501 -0.00000000000E+00  0.00000000000E+00  0.11655997484E+04  0.11655997484E+04  0.00000000000E+00 0. -1.
          2   -1    0    0  501    0  0.00000000000E+00 -0.00000000000E+00 -0.20124456321E+04  0.20124456321E+04  0.00000000000E+00 0.  1.
    2000013    1    1    2    0    0 -0.89500796274E+03 -0.69091996769E+03 -0.84460246338E+03  0.17012533545E+04  0.95000000000E+03 0.  0.
   -2000013    1    1    2    0    0  0.89500796274E+03  0.69091996769E+03 -0.22434202749E+01  0.14767920260E+04  0.95000000000E+03 0.  0.
<mgrwt>
<rscale>  0 0.30631396E+04</rscale>
<asrwt>0</asrwt>
<pdfrwt beam="2">  1        2 0.30960702E+00 0.30631396E+04</pdfrwt>
<pdfrwt beam="1">  1       -2 0.17932304E+00 0.30631396E+04</pdfrwt>
<totfact> 0.10264613E+00</totfact>
</mgrwt>
</event>
<event>
 4    1  0.2018023E-008  0.3416216E+04  0.7816531E-02  0.8133938E-01
          2   -1    0    0  501    0  0.00000000000E+00  0.00000000000E+00  0.28222571914E+04  0.28222571914E+04  0.00000000000E+00 0.  1.
         -2   -1    0    0    0  501 -0.00000000000E+00 -0.00000000000E+00 -0.10337941537E+04  0.10337941537E+04  0.00000000000E+00 0. -1.
    2000013    1    1    2    0    0  0.11251028591E+04  0.72742870013E+03  0.14238110702E+04  0.21736482974E+04  0.95000000000E+03 0.  0.
   -2000013    1    1    2    0    0 -0.11251028591E+04 -0.72742870013E+03  0.36465196756E+03  0.16824030477E+04  0.95000000000E+03 0.  0.
<mgrwt>
<rscale>  0 0.34162160E+04</rscale>
<asrwt>0</asrwt>
<pdfrwt beam="1">  1        2 0.43419341E+00 0.34162160E+04</pdfrwt>
<pdfrwt beam="2">  1       -2 0.15904526E+00 0.34162160E+04</pdfrwt>
<totfact> 0.47460461E-01</totfact>
</mgrwt>
</event>
<event>
 4    1  0.2018023E-008  0.4237229E+04  0.7816531E-02  0.7958328E-01
         -2   -1    0    0    0  501 -0.00000000000E+00  0.00000000000E+00  0.20011645460E+04  0.20011645460E+04  0.00000000000E+00 0. -1.
          2   -1    0    0  501    0  0.00000000000E+00 -0.00000000000E+00 -0.22429574983E+04  0.22429574983E+04  0.00000000000E+00 0.  1.
    2000013    1    1    2    0    0  0.12650959544E+02  0.17361382706E+04 -0.87822894953E+03  0.21652072024E+04  0.95000000000E+03 0.  0.
   -2000013    1    1    2    0    0 -0.12650959544E+02 -0.17361382706E+04  0.63643599724E+03  0.20789148419E+04  0.95000000000E+03 0.  0.
<mgrwt>
<rscale>  0 0.42372288E+04</rscale>
<asrwt>0</asrwt>
<pdfrwt beam="2">  1        2 0.34507038E+00 0.42372288E+04</pdfrwt>
<pdfrwt beam="1">  1       -2 0.30787147E+00 0.42372288E+04</pdfrwt>
<totfact> 0.10749315E-01</totfact>
</mgrwt>
</event>
<event>
 4    1  0.2018023E-008  0.2830642E+04  0.7816531E-02  0.8293818E-01
          2   -1    0    0  501    0  0.00000000000E+00  0.00000000000E+00  0.27320374619E+04  0.27320374619E+04  0.00000000000E+00 0.  1.
         -2   -1    0    0    0  501 -0.00000000000E+00 -0.00000000000E+00 -0.73320118479E+03  0.73320118479E+03  0.00000000000E+00 0. -1.
    2000013    1    1    2    0    0  0.31793287120E+03 -0.81017973380E+03  0.28228968575E+03  0.13189617046E+04  0.95000000000E+03 0.  0.
   -2000013    1    1    2    0    0 -0.31793287120E+03  0.81017973380E+03  0.17165465914E+04  0.21462769421E+04  0.95000000000E+03 0.  0.
<mgrwt>
<rscale>  0 0.28306417E+04</rscale>
<asrwt>0</asrwt>
<pdfrwt beam="1">  1        2 0.42031345E+00 0.28306417E+04</pdfrwt>
<pdfrwt beam="2">  1       -2 0.11280018E+00 0.28306417E+04</pdfrwt>
<totfact> 0.13627242E+00</totfact>
</mgrwt>
</event>
<event>
 4    1  0.2018023E-008  0.2865106E+04  0.7816531E-02  0.8283336E-01
          2   -1    0    0  501    0  0.00000000000E+00  0.00000000000E+00  0.13252962462E+04  0.13252962462E+04  0.00000000000E+00 0.  1.
         -2   -1    0    0    0  501 -0.00000000000E+00 -0.00000000000E+00 -0.15484904922E+04  0.15484904922E+04  0.00000000000E+00 0. -1.
    2000013    1    1    2    0    0  0.82792438445E+03  0.68133831240E+03 -0.11690031862E+03  0.14373052448E+04  0.95000000000E+03 0.  0.
   -2000013    1    1    2    0    0 -0.82792438445E+03 -0.68133831240E+03 -0.10629392746E+03  0.14364814936E+04  0.95000000000E+03 0.  0.
<mgrwt>
<rscale>  0 0.28651064E+04</rscale>
<asrwt>0</asrwt>
<pdfrwt beam="1">  1        2 0.20389173E+00 0.28651064E+04</pdfrwt>
<pdfrwt beam="2">  1       -2 0.23822931E+00 0.28651064E+04</pdfrwt>
<totfact> 0.10508095E+00</totfact>
</mgrwt>
</event>
<event>
 4    1  0.2018023E-008  0.2312637E+04  0.7816531E-02  0.8472955E-01
         -2   -1    0    0    0  501 -0.00000000000E+00  0.00000000000E+00  0.14088084554E+04  0.14088084554E+04  0.00000000000E+00 0. -1.
          2   -1    0    0  501    0  0.00000000000E+00 -0.00000000000E+00 -0.94908003445E+03  0.94908003445E+03  0.00000000000E+00 0.  1.
    2000013    1    1    2    0    0  0.49147419380E+03 -0.42680736169E+03  0.12361096914E+03  0.11582275592E+04  0.95000000000E+03 0.  0.
   -2000013    1    1    2    0    0 -0.49147419380E+03  0.42680736169E+03  0.33611745182E+03  0.11996609307E+04  0.95000000000E+03 0.  0.
<mgrwt>
<rscale>  0 0.23126366E+04</rscale>
<asrwt>0</asrwt>
<pdfrwt beam="2">  1        2 0.14601231E+00 0.23126366E+04</pdfrwt>
<pdfrwt beam="1">  1       -2 0.21673976E+00 0.23126366E+04</pdfrwt>
<totfact> 0.25519505E+00</totfact>
</mgrwt>
</event>
<event>
 4    1  0.2018023E-008  0.2647213E+04  0.7816531E-02  0.8352338E-01
         -2   -1    0    0    0  501 -0.00000000000E+00  0.00000000000E+00  0.99584112403E+03  0.99584112403E+03  0.00000000000E+00 0. -1.
          2   -1    0    0  501    0  0.00000000000E+00 -0.00000000000E+00 -0.17592511145E+04  0.17592511145E+04  0.00000000000E+00 0.  1.
    2000013    1    1    2    0    0  0.55352843631E+03 -0.73603344317E+03 -0.41916697546E+03  0.13879264795E+04  0.95000000000E+03 0.  0.
   -2000013    1    1    2    0    0 -0.55352843631E+03  0.73603344317E+03 -0.34424301506E+03  0.13671657590E+04  0.95000000000E+03 0.  0.
<mgrwt>
<rscale>  0 0.26472133E+04</rscale>
<asrwt>0</asrwt>
<pdfrwt beam="2">  1        2 0.27065401E+00 0.26472133E+04</pdfrwt>
<pdfrwt beam="1">  1       -2 0.15320633E+00 0.26472133E+04</pdfrwt>
<totfact> 0.22687860E+00</totfact>
</mgrwt>
</event>
<event>
 4    1  0.2018023E-008  0.2351821E+04  0.7816531E-02  0.8457765E-01
         -2   -1    0    0    0  501 -0.00000000000E+00  0.00000000000E+00  0.10047938921E+04  0.10047938921E+04  0.00000000000E+00 0. -1.
          2   -1    0    0  501    0  0.00000000000E+00 -0.00000000000E+00 -0.13761683895E+04  0.13761683895E+04  0.00000000000E+00 0.  1.
    2000013    1    1    2    0    0 -0.59321649431E+03  0.16859506585E+03  0.13435558274E+03  0.11405619352E+04  0.95000000000E+03 0.  0.
   -2000013    1    1    2    0    0  0.59321649431E+03 -0.16859506585E+03 -0.50573008017E+03  0.12404003464E+04  0.95000000000E+03 0.  0.
<mgrwt>
<rscale>  0 0.23518211E+04</rscale>
<asrwt>0</asrwt>
<pdfrwt beam="2">  1        2 0.21171821E+00 0.23518211E+04</pdfrwt>
<pdfrwt beam="1">  1       -2 0.15458367E+00 0.23518211E+04</pdfrwt>
<totfact> 0.37284712E+00</totfact>
</mgrwt>
</event>
<event>
 4    1  0.2018023E-008  0.2265575E+04  0.7816531E-02  0.8491620E-01
         -1   -1    0    0    0  501 -0.00000000000E+00  0.00000000000E+00  0.75023959443E+03  0.75023959443E+03  0.00000000000E+00 0. -1.
          1   -1    0    0  501    0  0.00000000000E+00 -0.00000000000E+00 -0.17103965429E+04  0.17103965429E+04  0.00000000000E+00 0.  1.
    2000013    1    1    2    0    0 -0.49667426720E+03 -0.25232648062E+03 -0.76815709018E+03  0.13427283030E+04  0.95000000000E+03 0.  0.
   -2000013    1    1    2    0    0  0.49667426720E+03  0.25232648062E+03 -0.19199985833E+03  0.11179078344E+04  0.95000000000E+03 0.  0.
<mgrwt>
<rscale>  0 0.22655747E+04</rscale>
<asrwt>0</asrwt>
<pdfrwt beam="2">  1        1 0.26313793E+00 0.22655747E+04</pdfrwt>
<pdfrwt beam="1">  1       -1 0.11542148E+00 0.22655747E+04</pdfrwt>
<totfact> 0.28918810E+00</totfact>
</mgrwt>
</event>
<event>
 4    1  0.2018023E-008  0.2518785E+04  0.7816531E-02  0.8396324E-01
          2   -1    0    0  501    0  0.00000000000E+00  0.00000000000E+00  0.59715154505E+03  0.59715154505E+03  0.00000000000E+00 0.  1.
         -2   -1    0    0    0  501 -0.00000000000E+00 -0.00000000000E+00 -0.26560588259E+04  0.26560588259E+04  0.00000000000E+00 0. -1.
    2000013    1    1    2    0    0 -0.29005211662E+03  0.74796359230E+03 -0.77117053389E+03  0.14631417423E+04  0.95000000000E+03 0.  0.
   -2000013    1    1    2    0    0  0.29005211662E+03 -0.74796359230E+03 -0.12877367469E+04  0.17900686286E+04  0.95000000000E+03 0.  0.
<mgrwt>
<rscale>  0 0.25187851E+04</rscale>
<asrwt>0</asrwt>
<pdfrwt beam="1">  1        2 0.91869466E-01 0.25187851E+04</pdfrwt>
<pdfrwt beam="2">  1       -2 0.40862445E+00 0.25187851E+04</pdfrwt>
<totfact> 0.28949406E-01</totfact>
</mgrwt>
</event>
<event>
 4    1  0.2018023E-008  0.2179574E+04  0.7816531E-02  0.8526978E-01
         -2   -1    0    0    0  501 -0.00000000000E+00  0.00000000000E+00  0.17568512710E+04  0.17568512710E+04  0.00000000000E+00 0. -1.
          2   -1    0    0  501    0  0.00000000000E+00 -0.00000000000E+00 -0.67600266636E+03  0.67600266636E+03  0.00000000000E+00 0.  1.
    2000013    1    1    2    0    0  0.47531426960E+03  0.16873009829E+03  0.34471343783E+03  0.11294781340E+04  0.95000000000E+03 0.  0.
   -2000013    1    1    2    0    0 -0.47531426960E+03 -0.16873009829E+03  0.73613516681E+03  0.13033758034E+04  0.95000000000E+03 0.  0.
<mgrwt>
<rscale>  0 0.21795744E+04</rscale>
<asrwt>0</asrwt>
<pdfrwt beam="2">  1        2 0.10400041E+00 0.21795744E+04</pdfrwt>
<pdfrwt beam="1">  1       -2 0.27028481E+00 0.21795744E+04</pdfrwt>
<totfact> 0.18924982E+00</totfact>
</mgrwt>
</event>
<event>
 4    1  0.2018023E-008  0.2054241E+04  0.7816531E-02  0.8581673E-01
         -2   -1    0    0    0  501 -0.00000000000E+00  0.00000000000E+00  0.38844102887E+03  0.38844102887E+03  0.00000000000E+00 0.  1.
          2   -1    0    0  501    0  0.00000000000E+00 -0.00000000000E+00 -0.27159233867E+04  0.27159233867E+04  0.00000000000E+00 0. -1.
    2000013    1    1    2    0    0 -0.23427100550E+03 -0.26344793054E+03 -0.14174621057E+04  0.17424082579E+04  0.95000000000E+03 0.  0.
   -2000013    1    1    2    0    0  0.23427100550E+03  0.26344793054E+03 -0.91002025215E+03  0.13619561577E+04  0.95000000000E+03 0.  0.
<mgrwt>
<rscale>  0 0.20542406E+04</rscale>
<asrwt>0</asrwt>
<pdfrwt beam="2">  1        2 0.41783437E+00 0.20542406E+04</pdfrwt>
<pdfrwt beam="1">  1       -2 0.59760158E-01 0.20542406E+04</pdfrwt>
<totfact> 0.62831093E+00</totfact>
</mgrwt>
</event>
<event>
 4    1  0.2018023E-008  0.2182677E+04  0.7816531E-02  0.8525673E-01
         -1   -1    0    0    0  501 -0.00000000000E+00  0.00000000000E+00  0.68785819791E+03  0.68785819791E+03  0.00000000000E+00 0. -1.
          1   -1    0    0  501    0  0.00000000000E+00 -0.00000000000E+00 -0.17314908385E+04  0.17314908385E+04  0.00000000000E+00 0.  1.
    2000013    1    1    2    0    0 -0.47548469639E+03  0.23669438245E+03 -0.61056177972E+03  0.12479565754E+04  0.95000000000E+03 0.  0.
   -2000013    1    1    2    0    0  0.47548469639E+03 -0.23669438245E+03 -0.43307086085E+03  0.11713924610E+04  0.95000000000E+03 0.  0.
<mgrwt>
<rscale>  0 0.21826774E+04</rscale>
<asrwt>0</asrwt>
<pdfrwt beam="2">  1        1 0.26638320E+00 0.21826774E+04</pdfrwt>
<pdfrwt beam="1">  1       -1 0.10582434E+00 0.21826774E+04</pdfrwt>
<totfact> 0.34619317E+00</totfact>
</mgrwt>
</event>
<event>
 4    1  0.2018023E-008  0.2457682E+04  0.7816531E-02  0.8418218E-01
          2   -1    0    0  501    0  0.00000000000E+00  0.00000000000E+00  0.19725073814E+04  0.19725073814E+04  0.00000000000E+00 0.  1.
         -2   -1    0    0    0  501 -0.00000000000E+00 -0.00000000000E+00 -0.76554876781E+03  0.76554876781E+03  0.00000000000E+00 0. -1.
    2000013    1    1    2    0    0  0.66599923218E+03  0.37811411904E+03  0.76502226285E+03  0.14402375939E+04  0.95000000000E+03 0.  0.
   -2000013    1    1    2    0    0 -0.66599923218E+03 -0.37811411904E+03  0.44193635071E+03  0.12978185553E+04  0.95000000000E+03 0.  0.
<mgrwt>
<rscale>  0 0.24576823E+04</rscale>
<asrwt>0</asrwt>
<pdfrwt beam="1">  1        2 0.30346267E+00 0.24576823E+04</pdfrwt>
<pdfrwt beam="2">  1       -2 0.11777673E+00 0.24576823E+04</pdfrwt>
<totfact> 0.34449402E+00</totfact>
</mgrwt>
</event>
<event>
 4    1  0.2018023E-008  0.2880103E+04  0.7816531E-02  0.8278822E-01
         -2   -1    0    0    0  501 -0.00000000000E+00  0.00000000000E+00  0.93694263860E+03  0.93694263860E+03  0.00000000000E+00 0. -1.
          2   -1    0    0  501    0  0.00000000000E+00 -0.00000000000E+00 -0.22133133155E+04  0.22133133155E+04  0.00000000000E+00 0.  1.
    2000013    1    1    2    0    0 -0.47765776308E+03 -0.87458769422E+03 -0.10999024365E+04  0.17621991781E+04  0.95000000000E+03 0.  0.
   -2000013    1    1    2    0    0  0.47765776308E+03  0.87458769422E+03 -0.17646824039E+03  0.13880567760E+04  0.95000000000E+03 0.  0.
<mgrwt>
<rscale>  0 0.28801025E+04</rscale>
<asrwt>0</asrwt>
<pdfrwt beam="2">  1        2 0.34050974E+00 0.28801025E+04</pdfrwt>
<pdfrwt beam="1">  1       -2 0.14414502E+00 0.28801025E+04</pdfrwt>
<totfact> 0.14601334E+00</totfact>
</mgrwt>
</event>
<event>
 4    1  0.2018023E-008  0.2560607E+04  0.7816531E-02  0.8381707E-01
         -2   -1    0    0    0  501 -0.00000000000E+00  0.00000000000E+00  0.74845120539E+03  0.74845120539E+03  0.00000000000E+00 0. -1.
          2   -1    0    0  501    0  0.00000000000E+00 -0.00000000000E+00 -0.21900920420E+04  0.21900920420E+04  0.00000000000E+00 0.  1.
    2000013    1    1    2    0    0  0.10747458347E+03 -0.82157423996E+03 -0.97779492133E+03  0.15953425733E+04  0.95000000000E+03 0.  0.
   -2000013    1    1    2    0    0 -0.10747458347E+03  0.82157423996E+03 -0.46384591527E+03  0.13432006741E+04  0.95000000000E+03 0.  0.
<mgrwt>
<rscale>  0 0.25606070E+04</rscale>
<asrwt>0</asrwt>
<pdfrwt beam="2">  1        2 0.33693723E+00 0.25606070E+04</pdfrwt>
<pdfrwt beam="1">  1       -2 0.11514634E+00 0.25606070E+04</pdfrwt>
<totfact> 0.27282588E+00</totfact>
</mgrwt>
</event>
<event>
 4    1  0.2018023E-008  0.2172773E+04  0.7816531E-02  0.8529847E-01
         -2   -1    0    0    0  501 -0.00000000000E+00  0.00000000000E+00  0.13341611923E+04  0.13341611923E+04  0.00000000000E+00 0. -1.
          2   -1    0    0  501    0  0.00000000000E+00 -0.00000000000E+00 -0.88462786520E+03  0.88462786520E+03  0.00000000000E+00 0.  1.
    2000013    1    1    2    0    0  0.36206551454E+03  0.38204882733E+03  0.19807063172E+03  0.11039858325E+04  0.95000000000E+03 0.  0.
   -2000013    1    1    2    0    0 -0.36206551454E+03 -0.38204882733E+03  0.25146269540E+03  0.11148032250E+04  0.95000000000E+03 0.  0.
<mgrwt>
<rscale>  0 0.21727735E+04</rscale>
<asrwt>0</asrwt>
<pdfrwt beam="2">  1        2 0.13609659E+00 0.21727735E+04</pdfrwt>
<pdfrwt beam="1">  1       -2 0.20525557E+00 0.21727735E+04</pdfrwt>
<totfact> 0.33801967E+00</totfact>
</mgrwt>
</event>
<event>
 4    1  0.2018023E-008  0.2716638E+04  0.7816531E-02  0.8329627E-01
          2   -1    0    0  501    0  0.00000000000E+00  0.00000000000E+00  0.26364448524E+04  0.26364448524E+04  0.00000000000E+00 0.  1.
         -2   -1    0    0    0  501 -0.00000000000E+00 -0.00000000000E+00 -0.69981739298E+03  0.69981739298E+03  0.00000000000E+00 0. -1.
    2000013    1    1    2    0    0  0.48950245870E+03 -0.83460794089E+03  0.10661520535E+04  0.17249241355E+04  0.95000000000E+03 0.  0.
   -2000013    1    1    2    0    0 -0.48950245870E+03  0.83460794089E+03  0.87047540594E+03  0.16113381099E+04  0.95000000000E+03 0.  0.
<mgrwt>
<rscale>  0 0.27166376E+04</rscale>
<asrwt>0</asrwt>
<pdfrwt beam="1">  1        2 0.40560690E+00 0.27166376E+04</pdfrwt>
<pdfrwt beam="2">  1       -2 0.10766422E+00 0.27166376E+04</pdfrwt>
<totfact> 0.17555657E+00</totfact>
</mgrwt>
</event>
<event>
 4    1  0.2018023E-008  0.2022494E+04  0.7816531E-02  0.8596176E-01
          2   -1    0    0  501    0  0.00000000000E+00  0.00000000000E+00  0.10816547305E+04  0.10816547305E+04  0.00000000000E+00 0.  1.
         -2   -1    0    0    0  501 -0.00000000000E+00 -0.00000000000E+00 -0.94542219736E+03  0.94542219736E+03  0.00000000000E+00 0. -1.
    2000013    1    1    2    0    0  0.22760955769E+03  0.17744438387E+03 -0.12422423020E+03  0.10006119525E+04  0.95000000000E+03 0.  0.
   -2000013    1    1    2    0    0 -0.22760955769E+03 -0.17744438387E+03  0.26045676338E+03  0.10264649754E+04  0.95000000000E+03 0.  0.
<mgrwt>
<rscale>  0 0.20224939E+04</rscale>
<asrwt>0</asrwt>
<pdfrwt beam="1">  1        2 0.16640842E+00 0.20224939E+04</pdfrwt>
<pdfrwt beam="2">  1       -2 0.14544957E+00 0.20224939E+04</pdfrwt>
<totfact> 0.67409670E+00</totfact>
</mgrwt>
</event>
<event>
 4    1  0.2018023E-008  0.2753839E+04  0.7816531E-02  0.8317745E-01
         -1   -1    0    0    0  501 -0.00000000000E+00  0.00000000000E+00  0.12136573853E+04  0.12136573853E+04  0.00000000000E+00 0. -1.
          1   -1    0    0  501    0  0.00000000000E+00 -0.00000000000E+00 -0.15621435752E+04  0.15621435752E+04  0.00000000000E+00 0.  1.
    2000013    1    1    2    0    0  0.53533346670E+03 -0.83046773789E+03 -0.42246446694E+02  0.13713290438E+04  0.95000000000E+03 0.  0.
   -2000013    1    1    2    0    0 -0.53533346670E+03  0.83046773789E+03 -0.30623974328E+03  0.14044719166E+04  0.95000000000E+03 0.  0.
<mgrwt>
<rscale>  0 0.27538388E+04</rscale>
<asrwt>0</asrwt>
<pdfrwt beam="2">  1        1 0.24032978E+00 0.27538388E+04</pdfrwt>
<pdfrwt beam="1">  1       -1 0.18671652E+00 0.27538388E+04</pdfrwt>
<totfact> 0.95986022E-01</totfact>
</mgrwt>
</event>
<event>
 4    1  0.2018023E-008  0.2386563E+04  0.7816531E-02  0.8444551E-01
          2   -1    0    0  501    0  0.00000000000E+00  0.00000000000E+00  0.20583227626E+04  0.20583227626E+04  0.00000000000E+00 0.  1.
         -2   -1    0    0    0  501 -0.00000000000E+00 -0.00000000000E+00 -0.69178690463E+03  0.69178690463E+03  0.00000000000E+00 0. -1.
    2000013    1    1    2    0    0  0.15230620365E+03 -0.61321397617E+03  0.10860765931E+04  0.15752113910E+04  0.95000000000E+03 0.  0.
   -2000013    1    1    2    0    0 -0.15230620365E+03  0.61321397617E+03  0.28045926489E+03  0.11748982762E+04  0.95000000000E+03 0.  0.
<mgrwt>
<rscale>  0 0.23865630E+04</rscale>
<asrwt>0</asrwt>
<pdfrwt beam="1">  1        2 0.31666504E+00 0.23865630E+04</pdfrwt>
<pdfrwt beam="2">  1       -2 0.10642876E+00 0.23865630E+04</pdfrwt>
<totfact> 0.39708834E+00</totfact>
</mgrwt>
</event>
<event>
 4    1  0.2018023E-008  0.2407826E+04  0.7816531E-02  0.8436579E-01
          1   -1    0    0  501    0  0.00000000000E+00  0.00000000000E+00  0.20358109193E+04  0.20358109193E+04  0.00000000000E+00 0.  1.
         -1   -1    0    0    0  501 -0.00000000000E+00 -0.00000000000E+00 -0.71195547112E+03  0.71195547112E+03  0.00000000000E+00 0. -1.
    2000013    1    1    2    0    0 -0.40039381875E+02 -0.58433954440E+03  0.11771693680E+04  0.16221231692E+04  0.95000000000E+03 0.  0.
   -2000013    1    1    2    0    0  0.40039381875E+02  0.58433954440E+03  0.14668608017E+03  0.11256432212E+04  0.95000000000E+03 0.  0.
<mgrwt>
<rscale>  0 0.24078262E+04</rscale>
<asrwt>0</asrwt>
<pdfrwt beam="1">  1        1 0.31320168E+00 0.24078262E+04</pdfrwt>
<pdfrwt beam="2">  1       -1 0.10953161E+00 0.24078262E+04</pdfrwt>
<totfact> 0.19448947E+00</totfact>
</mgrwt>
</event>
<event>
 4    1  0.2018023E-008  0.2956265E+04  0.7816531E-02  0.8256331E-01
          2   -1    0    0  501    0  0.00000000000E+00  0.00000000000E+00  0.24404839520E+04  0.24404839520E+04  0.00000000000E+00 0.  1.
         -2   -1    0    0    0  501 -0.00000000000E+00 -0.00000000000E+00 -0.89526305522E+03  0.89526305522E+03  0.00000000000E+00 0. -1.
    2000013    1    1    2    0    0  0.13816633594E+03  0.10760981756E+04  0.11387609666E+04  0.18374857167E+04  0.95000000000E+03 0.  0.
   -2000013    1    1    2    0    0 -0.13816633594E+03 -0.10760981756E+04  0.40645993014E+03  0.14982612905E+04  0.95000000000E+03 0.  0.
<mgrwt>
<rscale>  0 0.29562646E+04</rscale>
<asrwt>0</asrwt>
<pdfrwt beam="1">  1        2 0.37545906E+00 0.29562646E+04</pdfrwt>
<pdfrwt beam="2">  1       -2 0.13773278E+00 0.29562646E+04</pdfrwt>
<totfact> 0.12127626E+00</totfact>
</mgrwt>
</event>
<event>
 4    1  0.2018023E-008  0.2138054E+04  0.7816531E-02  0.8544663E-01
         -2   -1    0    0    0  501 -0.00000000000E+00  0.00000000000E+00  0.60578439776E+03  0.60578439776E+03  0.00000000000E+00 0. -1.
          2   -1    0    0  501    0  0.00000000000E+00 -0.00000000000E+00 -0.18865114511E+04  0.18865114511E+04  0.00000000000E+00 0.  1.
    2000013    1    1    2    0    0  0.46581412372E+03  0.93100992209E+02 -0.78154422473E+03  0.13186970720E+04  0.95000000000E+03 0.  0.
   -2000013    1    1    2    0    0 -0.46581412372E+03 -0.93100992209E+02 -0.49918282864E+03  0.11735987768E+04  0.95000000000E+03 0.  0.
<mgrwt>
<rscale>  0 0.21380544E+04</rscale>
<asrwt>0</asrwt>
<pdfrwt beam="2">  1        2 0.29023254E+00 0.21380544E+04</pdfrwt>
<pdfrwt beam="1">  1       -2 0.93197598E-01 0.21380544E+04</pdfrwt>
<totfact> 0.69168925E+00</totfact>
</mgrwt>
</event>
<event>
 4    1  0.2018023E-008  0.3943862E+04  0.7816531E-02  0.8015968E-01
         -2   -1    0    0    0  501 -0.00000000000E+00  0.00000000000E+00  0.12841807269E+04  0.12841807269E+04  0.00000000000E+00 0. -1.
          2   -1    0    0  501    0  0.00000000000E+00 -0.00000000000E+00 -0.30280093381E+04  0.30280093381E+04  0.00000000000E+00 0.  1.
    2000013    1    1    2    0    0  0.13950977398E+04 -0.97054054760E+03 -0.53003959397E+03  0.20178425680E+04  0.95000000000E+03 0.  0.
   -2000013    1    1    2    0    0 -0.13950977398E+04  0.97054054760E+03 -0.12137890172E+04  0.22943474969E+04  0.95000000000E+03 0.  0.
<mgrwt>
<rscale>  0 0.39438617E+04</rscale>
<asrwt>0</asrwt>
<pdfrwt beam="2">  1        2 0.46584759E+00 0.39438617E+04</pdfrwt>
<pdfrwt beam="1">  1       -2 0.19756627E+00 0.39438617E+04</pdfrwt>
<totfact> 0.18272567E-01</totfact>
</mgrwt>
</event>
<event>
 4    1  0.2018023E-008  0.3796413E+04  0.7816531E-02  0.8046925E-01
          2   -1    0    0  501    0  0.00000000000E+00  0.00000000000E+00  0.20022189689E+04  0.20022189689E+04  0.00000000000E+00 0.  1.
         -2   -1    0    0    0  501 -0.00000000000E+00 -0.00000000000E+00 -0.17995970512E+04  0.17995970512E+04  0.00000000000E+00 0. -1.
    2000013    1    1    2    0    0  0.14993176950E+04  0.22274217022E+03 -0.53450980174E+03  0.18670212514E+04  0.95000000000E+03 0.  0.
   -2000013    1    1    2    0    0 -0.14993176950E+04 -0.22274217022E+03  0.73713171946E+03  0.19347947687E+04  0.95000000000E+03 0.  0.
<mgrwt>
<rscale>  0 0.37964127E+04</rscale>
<asrwt>0</asrwt>
<pdfrwt beam="1">  1        2 0.30803369E+00 0.37964127E+04</pdfrwt>
<pdfrwt beam="2">  1       -2 0.27686109E+00 0.37964127E+04</pdfrwt>
<totfact> 0.23518302E-01</totfact>
</mgrwt>
</event>
<event>
 4    1  0.2018023E-008  0.2597602E+04  0.7816531E-02  0.8369016E-01
         -2   -1    0    0    0  501 -0.00000000000E+00  0.00000000000E+00  0.17793947296E+04  0.17793947296E+04  0.00000000000E+00 0. -1.
          2   -1    0    0  501    0  0.00000000000E+00 -0.00000000000E+00 -0.94800991318E+03  0.94800991318E+03  0.00000000000E+00 0.  1.
    2000013    1    1    2    0    0 -0.68494475608E+03  0.50840995190E+03  0.66582750686E+03  0.14399500918E+04  0.95000000000E+03 0.  0.
   -2000013    1    1    2    0    0  0.68494475608E+03 -0.50840995190E+03  0.16555730958E+03  0.12874545510E+04  0.95000000000E+03 0.  0.
<mgrwt>
<rscale>  0 0.25976019E+04</rscale>
<asrwt>0</asrwt>
<pdfrwt beam="2">  1        2 0.14584768E+00 0.25976019E+04</pdfrwt>
<pdfrwt beam="1">  1       -2 0.27375304E+00 0.25976019E+04</pdfrwt>
<totfact> 0.11076710E+00</totfact>
</mgrwt>
</event>
<event>
 4    1  0.2018023E-008  0.3455145E+04  0.7816531E-02  0.8124503E-01
          1   -1    0    0  501    0  0.00000000000E+00  0.00000000000E+00  0.21258445824E+04  0.21258445824E+04  0.00000000000E+00 0.  1.
         -1   -1    0    0    0  501 -0.00000000000E+00 -0.00000000000E+00 -0.14039159109E+04  0.14039159109E+04  0.00000000000E+00 0. -1.
    2000013    1    1    2    0    0 -0.10637224847E+04 -0.89314868922E+03  0.76028523280E+03  0.18465518516E+04  0.95000000000E+03 0.  0.
   -2000013    1    1    2    0    0  0.10637224847E+04  0.89314868922E+03 -0.38356561323E+02  0.16832086417E+04  0.95000000000E+03 0.  0.
<mgrwt>
<rscale>  0 0.34551452E+04</rscale>
<asrwt>0</asrwt>
<pdfrwt beam="1">  1        1 0.32705301E+00 0.34551452E+04</pdfrwt>
<pdfrwt beam="2">  1       -1 0.21598706E+00 0.34551452E+04</pdfrwt>
<totfact> 0.23470654E-01</totfact>
</mgrwt>
</event>
<event>
 4    1  0.2018023E-008  0.2701008E+04  0.7816531E-02  0.8334678E-01
          2   -1    0    0  501    0  0.00000000000E+00  0.00000000000E+00  0.13160965300E+04  0.13160965300E+04  0.00000000000E+00 0.  1.
         -2   -1    0    0    0  501 -0.00000000000E+00 -0.00000000000E+00 -0.13858109394E+04  0.13858109394E+04  0.00000000000E+00 0. -1.
    2000013    1    1    2    0    0 -0.60180511249E+03 -0.68236154695E+03  0.27114382801E+03  0.13430583195E+04  0.95000000000E+03 0.  0.
   -2000013    1    1    2    0    0  0.60180511249E+03  0.68236154695E+03 -0.34085823746E+03  0.13588491499E+04  0.95000000000E+03 0.  0.
<mgrwt>
<rscale>  0 0.27010079E+04</rscale>
<asrwt>0</asrwt>
<pdfrwt beam="1">  1        2 0.20247639E+00 0.27010079E+04</pdfrwt>
<pdfrwt beam="2">  1       -2 0.21320168E+00 0.27010079E+04</pdfrwt>
<totfact> 0.15499169E+00</totfact>
</mgrwt>
</event>
<event>
 4    1  0.2018023E-008  0.2472660E+04  0.7816531E-02  0.8412791E-01
         -2   -1    0    0    0  501 -0.00000000000E+00  0.00000000000E+00  0.94420680448E+03  0.94420680448E+03  0.00000000000E+00 0. -1.
          2   -1    0    0  501    0  0.00000000000E+00 -0.00000000000E+00 -0.16188313748E+04  0.16188313748E+04  0.00000000000E+00 0.  1.
    2000013    1    1    2    0    0  0.33543168166E+03  0.21434448370E+03  0.37145950913E+03  0.10949612494E+04  0.95000000000E+03 0.  0.
   -2000013    1    1    2    0    0 -0.33543168166E+03 -0.21434448370E+03 -0.10460840794E+04  0.14680769299E+04  0.95000000000E+03 0.  0.
<mgrwt>
<rscale>  0 0.24726598E+04</rscale>
<asrwt>0</asrwt>
<pdfrwt beam="2">  1        2 0.24905098E+00 0.24726598E+04</pdfrwt>
<pdfrwt beam="1">  1       -2 0.14526259E+00 0.24726598E+04</pdfrwt>
<totfact> 0.31735624E+00</totfact>
</mgrwt>
</event>
<event>
 4    1  0.2018023E-008  0.2804286E+04  0.7816531E-02  0.8301939E-01
          2   -1    0    0  501    0  0.00000000000E+00  0.00000000000E+00  0.70375502947E+03  0.70375502947E+03  0.00000000000E+00 0. -1.
         -2   -1    0    0    0  501 -0.00000000000E+00 -0.00000000000E+00 -0.27935926345E+04  0.27935926345E+04  0.00000000000E+00 0.  1.
    2000013    1    1    2    0    0 -0.98403859834E+03 -0.15224064402E+03 -0.13795525727E+04  0.19486340030E+04  0.95000000000E+03 0.  0.
   -2000013    1    1    2    0    0  0.98403859834E+03  0.15224064402E+03 -0.71028503242E+03  0.15487136611E+04  0.95000000000E+03 0.  0.
<mgrwt>
<rscale>  0 0.28042859E+04</rscale>
<asrwt>0</asrwt>
<pdfrwt beam="1">  1        2 0.10827001E+00 0.28042859E+04</pdfrwt>
<pdfrwt beam="2">  1       -2 0.42978347E+00 0.28042859E+04</pdfrwt>
<totfact> 0.16707419E-01</totfact>
</mgrwt>
</event>
<event>
 4    1  0.2018023E-008  0.2880766E+04  0.7816531E-02  0.8278623E-01
          2   -1    0    0  501    0  0.00000000000E+00  0.00000000000E+00  0.16793500279E+04  0.16793500279E+04  0.00000000000E+00 0. -1.
         -2   -1    0    0    0  501 -0.00000000000E+00 -0.00000000000E+00 -0.12354204384E+04  0.12354204384E+04  0.00000000000E+00 0.  1.
    2000013    1    1    2    0    0  0.99894608269E+03 -0.38148654656E+03  0.50321312770E+02  0.14312433391E+04  0.95000000000E+03 0.  0.
   -2000013    1    1    2    0    0 -0.99894608269E+03  0.38148654656E+03  0.39360827678E+03  0.14835271271E+04  0.95000000000E+03 0.  0.
<mgrwt>
<rscale>  0 0.28807661E+04</rscale>
<asrwt>0</asrwt>
<pdfrwt beam="1">  1        2 0.25836154E+00 0.28807661E+04</pdfrwt>
<pdfrwt beam="2">  1       -2 0.19006468E+00 0.28807661E+04</pdfrwt>
<totfact> 0.13480863E+00</totfact>
</mgrwt>
</event>
<event>
 4    1  0.2018023E-008  0.3036674E+04  0.7816531E-02  0.8233335E-01
          2   -1    0    0  501    0  0.00000000000E+00  0.00000000000E+00  0.23650529386E+04  0.23650529386E+04  0.00000000000E+00 0.  1.
         -2   -1    0    0    0  501 -0.00000000000E+00 -0.00000000000E+00 -0.97475512756E+03  0.97475512756E+03  0.00000000000E+00 0. -1.
    2000013    1    1    2    0    0 -0.72347951831E+03 -0.91287429585E+03  0.45904404466E+03  0.15716181242E+04  0.95000000000E+03 0.  0.
   -2000013    1    1    2    0    0  0.72347951831E+03  0.91287429585E+03  0.93125376642E+03  0.17681899420E+04  0.95000000000E+03 0.  0.
<mgrwt>
<rscale>  0 0.30366742E+04</rscale>
<asrwt>0</asrwt>
<pdfrwt beam="1">  1        2 0.36385430E+00 0.30366742E+04</pdfrwt>
<pdfrwt beam="2">  1       -2 0.14996233E+00 0.30366742E+04</pdfrwt>
<totfact> 0.10650686E+00</totfact>
</mgrwt>
</event>
<event>
 4    1  0.2018023E-008  0.2188044E+04  0.7816531E-02  0.8523421E-01
          2   -1    0    0  501    0  0.00000000000E+00  0.00000000000E+00  0.18948735911E+04  0.18948735911E+04  0.00000000000E+00 0.  1.
         -2   -1    0    0    0  501 -0.00000000000E+00 -0.00000000000E+00 -0.63164353754E+03  0.63164353754E+03  0.00000000000E+00 0. -1.
    2000013    1    1    2    0    0  0.18471885783E+03 -0.11833100525E+03  0.58602322033E+02  0.97675867817E+03  0.95000000000E+03 0.  0.
   -2000013    1    1    2    0    0 -0.18471885783E+03  0.11833100525E+03  0.12046277315E+04  0.15497584505E+04  0.95000000000E+03 0.  0.
<mgrwt>
<rscale>  0 0.21880445E+04</rscale>
<asrwt>0</asrwt>
<pdfrwt beam="1">  1        2 0.29151901E+00 0.21880445E+04</pdfrwt>
<pdfrwt beam="2">  1       -2 0.97175929E-01 0.21880445E+04</pdfrwt>
<totfact> 0.61803294E+00</totfact>
</mgrwt>
</event>
<event>
 4    1  0.2018023E-008  0.2271201E+04  0.7816531E-02  0.8489363E-01
         -3   -1    0    0    0  501 -0.00000000000E+00  0.00000000000E+00  0.87075663919E+03  0.87075663919E+03  0.00000000000E+00 0. -1.
          3   -1    0    0  501    0  0.00000000000E+00 -0.00000000000E+00 -0.14809975393E+04  0.14809975393E+04  0.00000000000E+00 0.  1.
    2000013    1    1    2    0    0 -0.48478330786E+03 -0.17493422100E+03  0.55768632196E+02  0.10822324046E+04  0.95000000000E+03 0.  0.
   -2000013    1    1    2    0    0  0.48478330786E+03  0.17493422100E+03 -0.66600953234E+03  0.12695217739E+04  0.95000000000E+03 0.  0.
<mgrwt>
<rscale>  0 0.22712010E+04</rscale>
<asrwt>0</asrwt>
<pdfrwt beam="2">  1        3 0.22784578E+00 0.22712010E+04</pdfrwt>
<pdfrwt beam="1">  1       -3 0.13396256E+00 0.22712010E+04</pdfrwt>
<totfact> 0.10159689E-01</totfact>
</mgrwt>
</event>
<event>
 4    1  0.2018023E-008  0.2318605E+04  0.7816531E-02  0.8470621E-01
         -2   -1    0    0    0  501 -0.00000000000E+00  0.00000000000E+00  0.79379634433E+03  0.79379634433E+03  0.00000000000E+00 0. -1.
          2   -1    0    0  501    0  0.00000000000E+00 -0.00000000000E+00 -0.16931069963E+04  0.16931069963E+04  0.00000000000E+00 0.  1.
    2000013    1    1    2    0    0  0.10655971167E+03  0.55178655609E+03 -0.69440926597E+02  0.11059590489E+04  0.95000000000E+03 0.  0.
   -2000013    1    1    2    0    0 -0.10655971167E+03 -0.55178655609E+03 -0.82986972534E+03  0.13809442917E+04  0.95000000000E+03 0.  0.
<mgrwt>
<rscale>  0 0.23186049E+04</rscale>
<asrwt>0</asrwt>
<pdfrwt beam="2">  1        2 0.26047800E+00 0.23186049E+04</pdfrwt>
<pdfrwt beam="1">  1       -2 0.12212252E+00 0.23186049E+04</pdfrwt>
<totfact> 0.45529923E+00</totfact>
</mgrwt>
</event>
<event>
 4    1  0.2018023E-008  0.2370015E+04  0.7816531E-02  0.8450816E-01
         -2   -1    0    0    0  501 -0.00000000000E+00  0.00000000000E+00  0.19290711756E+04  0.19290711756E+04  0.00000000000E+00 0. -1.
          2   -1    0    0  501    0  0.00000000000E+00 -0.00000000000E+00 -0.72793706046E+03  0.72793706046E+03  0.00000000000E+00 0.  1.
    2000013    1    1    2    0    0  0.16739317332E+03 -0.30651565713E+03  0.12914464455E+04  0.16408248670E+04  0.95000000000E+03 0.  0.
   -2000013    1    1    2    0    0 -0.16739317332E+03  0.30651565713E+03 -0.90312330374E+02  0.10161833691E+04  0.95000000000E+03 0.  0.
<mgrwt>
<rscale>  0 0.23700147E+04</rscale>
<asrwt>0</asrwt>
<pdfrwt beam="2">  1        2 0.11199032E+00 0.23700147E+04</pdfrwt>
<pdfrwt beam="1">  1       -2 0.29678018E+00 0.23700147E+04</pdfrwt>
<totfact> 0.11688488E+00</totfact>
</mgrwt>
</event>
<event>
 4    1  0.2018023E-008  0.2182840E+04  0.7816531E-02  0.8525605E-01
         -2   -1    0    0    0  501 -0.00000000000E+00  0.00000000000E+00  0.96311303417E+03  0.96311303417E+03  0.00000000000E+00 0. -1.
          2   -1    0    0  501    0  0.00000000000E+00 -0.00000000000E+00 -0.12368196088E+04  0.12368196088E+04  0.00000000000E+00 0.  1.
    2000013    1    1    2    0    0  0.40742035056E+03 -0.30295865477E+02  0.21486071305E+03  0.10562075116E+04  0.95000000000E+03 0.  0.
   -2000013    1    1    2    0    0 -0.40742035056E+03  0.30295865477E+02 -0.48856728765E+03  0.11437251313E+04  0.95000000000E+03 0.  0.
<mgrwt>
<rscale>  0 0.21828395E+04</rscale>
<asrwt>0</asrwt>
<pdfrwt beam="2">  1        2 0.19027994E+00 0.21828395E+04</pdfrwt>
<pdfrwt beam="1">  1       -2 0.14817124E+00 0.21828395E+04</pdfrwt>
<totfact> 0.51024090E+00</totfact>
</mgrwt>
</event>
<event>
 4    1  0.2018023E-008  0.3545292E+04  0.7816531E-02  0.8103140E-01
          1   -1    0    0  501    0  0.00000000000E+00  0.00000000000E+00  0.31919929523E+04  0.31919929523E+04  0.00000000000E+00 0.  1.
         -1   -1    0    0    0  501 -0.00000000000E+00 -0.00000000000E+00 -0.98442354499E+03  0.98442354499E+03  0.00000000000E+00 0. -1.
    2000013    1    1    2    0    0  0.14874195404E+04 -0.56674838143E+02  0.92073995193E+03  0.19914544899E+04  0.95000000000E+03 0.  0.
   -2000013    1    1    2    0    0 -0.14874195404E+04  0.56674838143E+02  0.12868294554E+04  0.21849620073E+04  0.95000000000E+03 0.  0.
<mgrwt>
<rscale>  0 0.35452915E+04</rscale>
<asrwt>0</asrwt>
<pdfrwt beam="1">  1        1 0.49107583E+00 0.35452915E+04</pdfrwt>
<pdfrwt beam="2">  1       -1 0.15144978E+00 0.35452915E+04</pdfrwt>
<totfact> 0.11895629E-01</totfact>
</mgrwt>
</event>
<event>
 4    1  0.2018023E-008  0.2416739E+04  0.7816531E-02  0.8433263E-01
          1   -1    0    0  501    0  0.00000000000E+00  0.00000000000E+00  0.18151126536E+04  0.18151126536E+04  0.00000000000E+00 0.  1.
         -1   -1    0    0    0  501 -0.00000000000E+00 -0.00000000000E+00 -0.80444427993E+03  0.80444427993E+03  0.00000000000E+00 0. -1.
    2000013    1    1    2    0    0  0.35677054711E+03 -0.65229736731E+03  0.42961531975E+03  0.12805648760E+04  0.95000000000E+03 0.  0.
   -2000013    1    1    2    0    0 -0.35677054711E+03  0.65229736731E+03  0.58105305394E+03  0.13389920575E+04  0.95000000000E+03 0.  0.
<mgrwt>
<rscale>  0 0.24167391E+04</rscale>
<asrwt>0</asrwt>
<pdfrwt beam="1">  1        1 0.27924810E+00 0.24167391E+04</pdfrwt>
<pdfrwt beam="2">  1       -1 0.12376066E+00 0.24167391E+04</pdfrwt>
<totfact> 0.20422475E+00</totfact>
</mgrwt>
</event>
<event>
 4    1  0.2018023E-008  0.2295965E+04  0.7816531E-02  0.8479514E-01
          2   -1    0    0  501    0  0.00000000000E+00  0.00000000000E+00  0.15377242007E+04  0.15377242007E+04  0.00000000000E+00 0.  1.
         -2   -1    0    0    0  501 -0.00000000000E+00 -0.00000000000E+00 -0.85702244379E+03  0.85702244379E+03  0.00000000000E+00 0. -1.
    2000013    1    1    2    0    0 -0.59736638833E+03 -0.15619112895E+03  0.53301938979E+03  0.12521389462E+04  0.95000000000E+03 0.  0.
   -2000013    1    1    2    0    0  0.59736638833E+03  0.15619112895E+03  0.14768236713E+03  0.11426076983E+04  0.95000000000E+03 0.  0.
<mgrwt>
<rscale>  0 0.22959653E+04</rscale>
<asrwt>0</asrwt>
<pdfrwt beam="1">  1        2 0.23657295E+00 0.22959653E+04</pdfrwt>
<pdfrwt beam="2">  1       -2 0.13184961E+00 0.22959653E+04</pdfrwt>
<totfact> 0.45937433E+00</totfact>
</mgrwt>
</event>
<event>
 4    1  0.2018023E-008  0.3259868E+04  0.7816531E-02  0.8173183E-01
         -2   -1    0    0    0  501 -0.00000000000E+00  0.00000000000E+00  0.10864738933E+04  0.10864738933E+04  0.00000000000E+00 0. -1.
          2   -1    0    0  501    0  0.00000000000E+00 -0.00000000000E+00 -0.24452362214E+04  0.24452362214E+04  0.00000000000E+00 0.  1.
    2000013    1    1    2    0    0  0.96821257073E+03 -0.89526393279E+03 -0.54558255071E+03  0.17143784329E+04  0.95000000000E+03 0.  0.
   -2000013    1    1    2    0    0 -0.96821257073E+03  0.89526393279E+03 -0.81317977737E+03  0.18173316818E+04  0.95000000000E+03 0.  0.
<mgrwt>
<rscale>  0 0.32598683E+04</rscale>
<asrwt>0</asrwt>
<pdfrwt beam="2">  1        2 0.37619018E+00 0.32598683E+04</pdfrwt>
<pdfrwt beam="1">  1       -2 0.16714983E+00 0.32598683E+04</pdfrwt>
<totfact> 0.70079172E-01</totfact>
</mgrwt>
</event>
<event>
 4    1  0.2018023E-008  0.2416493E+04  0.7816531E-02  0.8433355E-01
          2   -1    0    0  501    0  0.00000000000E+00  0.00000000000E+00  0.17243654590E+04  0.17243654590E+04  0.00000000000E+00 0.  1.
         -2   -1    0    0    0  501 -0.00000000000E+00 -0.00000000000E+00 -0.84660688827E+03  0.84660688827E+03  0.00000000000E+00 0. -1.
    2000013    1    1    2    0    0  0.53879668517E+03 -0.48350619601E+03  0.24479039367E+03  0.12192220661E+04  0.95000000000E+03 0.  0.
   -2000013    1    1    2    0    0 -0.53879668517E+03  0.48350619601E+03  0.63296817705E+03  0.13517502812E+04  0.95000000000E+03 0.  0.
<mgrwt>
<rscale>  0 0.24164931E+04</rscale>
<asrwt>0</asrwt>
<pdfrwt beam="1">  1        2 0.26528699E+00 0.24164931E+04</pdfrwt>
<pdfrwt beam="2">  1       -2 0.13024721E+00 0.24164931E+04</pdfrwt>
<totfact> 0.36898923E+00</totfact>
</mgrwt>
</event>
<event>
 4    1  0.2018023E-008  0.2617530E+04  0.7816531E-02  0.8362271E-01
          2   -1    0    0  501    0  0.00000000000E+00  0.00000000000E+00  0.93524768390E+03  0.93524768390E+03  0.00000000000E+00 0.  1.
         -2   -1    0    0    0  501 -0.00000000000E+00 -0.00000000000E+00 -0.18314563160E+04  0.18314563160E+04  0.00000000000E+00 0. -1.
    2000013    1    1    2    0    0  0.65260173821E+03 -0.29744416150E+03  0.12696383668E+03  0.11970722091E+04  0.95000000000E+03 0.  0.
   -2000013    1    1    2    0    0 -0.65260173821E+03  0.29744416150E+03 -0.10231724688E+04  0.15696317908E+04  0.95000000000E+03 0.  0.
<mgrwt>
<rscale>  0 0.26175296E+04</rscale>
<asrwt>0</asrwt>
<pdfrwt beam="1">  1        2 0.14388426E+00 0.26175296E+04</pdfrwt>
<pdfrwt beam="2">  1       -2 0.28176251E+00 0.26175296E+04</pdfrwt>
<totfact> 0.10076104E+00</totfact>
</mgrwt>
</event>
<event>
 4    1  0.2018023E-008  0.3353965E+04  0.7816531E-02  0.8149298E-01
         -2   -1    0    0    0  501 -0.00000000000E+00  0.00000000000E+00  0.83780702368E+03  0.83780702368E+03  0.00000000000E+00 0. -1.
          2   -1    0    0  501    0  0.00000000000E+00 -0.00000000000E+00 -0.33567033565E+04  0.33567033565E+04  0.00000000000E+00 0.  1.
    2000013    1    1    2    0    0  0.13776177995E+04 -0.18384637259E+02 -0.13941482117E+04  0.21781455490E+04  0.95000000000E+03 0.  0.
   -2000013    1    1    2    0    0 -0.13776177995E+04  0.18384637259E+02 -0.11247481212E+04  0.20163648312E+04  0.95000000000E+03 0.  0.
<mgrwt>
<rscale>  0 0.33539646E+04</rscale>
<asrwt>0</asrwt>
<pdfrwt beam="2">  1        2 0.51641590E+00 0.33539646E+04</pdfrwt>
<pdfrwt beam="1">  1       -2 0.12889339E+00 0.33539646E+04</pdfrwt>
<totfact> 0.37605505E-01</totfact>
</mgrwt>
</event>
<event>
 4    1  0.2018023E-008  0.3750777E+04  0.7816531E-02  0.8056801E-01
          2   -1    0    0  501    0  0.00000000000E+00  0.00000000000E+00  0.33109413766E+04  0.33109413766E+04  0.00000000000E+00 0.  1.
         -2   -1    0    0    0  501 -0.00000000000E+00 -0.00000000000E+00 -0.10622606264E+04  0.10622606264E+04  0.00000000000E+00 0. -1.
    2000013    1    1    2    0    0 -0.15929740914E+04 -0.20369070091E+03  0.13441027111E+04  0.22996018037E+04  0.95000000000E+03 0.  0.
   -2000013    1    1    2    0    0  0.15929740914E+04  0.20369070091E+03  0.90457803914E+03  0.20736001993E+04  0.95000000000E+03 0.  0.
<mgrwt>
<rscale>  0 0.37507773E+04</rscale>
<asrwt>0</asrwt>
<pdfrwt beam="1">  1        2 0.50937559E+00 0.37507773E+04</pdfrwt>
<pdfrwt beam="2">  1       -2 0.16342471E+00 0.37507773E+04</pdfrwt>
<totfact> 0.20932587E-01</totfact>
</mgrwt>
</event>
<event>
 4    1  0.2018023E-008  0.3382884E+04  0.7816531E-02  0.8142120E-01
         -2   -1    0    0    0  501 -0.00000000000E+00  0.00000000000E+00  0.10180686816E+04  0.10180686816E+04  0.00000000000E+00 0. -1.
          2   -1    0    0  501    0  0.00000000000E+00 -0.00000000000E+00 -0.28101988080E+04  0.28101988080E+04  0.00000000000E+00 0.  1.
    2000013    1    1    2    0    0  0.81281070468E+03  0.97555589605E+03 -0.23030297710E+03  0.16024699714E+04  0.95000000000E+03 0.  0.
   -2000013    1    1    2    0    0 -0.81281070468E+03 -0.97555589605E+03 -0.15618271493E+04  0.22257975183E+04  0.95000000000E+03 0.  0.
<mgrwt>
<rscale>  0 0.33828836E+04</rscale>
<asrwt>0</asrwt>
<pdfrwt beam="2">  1        2 0.43233828E+00 0.33828836E+04</pdfrwt>
<pdfrwt beam="1">  1       -2 0.15662595E+00 0.33828836E+04</pdfrwt>
<totfact> 0.50453784E-01</totfact>
</mgrwt>
</event>
<event>
 4    1  0.2018023E-008  0.3327508E+04  0.7816531E-02  0.8155931E-01
         -1   -1    0    0    0  501 -0.00000000000E+00  0.00000000000E+00  0.13712840256E+04  0.13712840256E+04  0.00000000000E+00 0. -1.
          1   -1    0    0  501    0  0.00000000000E+00 -0.00000000000E+00 -0.20186025415E+04  0.20186025415E+04  0.00000000000E+00 0.  1.
    2000013    1    1    2    0    0 -0.12870949558E+04  0.26899495915E+03 -0.70019002944E+03  0.17668440199E+04  0.95000000000E+03 0.  0.
   -2000013    1    1    2    0    0  0.12870949558E+04 -0.26899495915E+03  0.52871513534E+02  0.16230425473E+04  0.95000000000E+03 0.  0.
<mgrwt>
<rscale>  0 0.33275080E+04</rscale>
<asrwt>0</asrwt>
<pdfrwt beam="2">  1        1 0.31055424E+00 0.33275080E+04</pdfrwt>
<pdfrwt beam="1">  1       -1 0.21096677E+00 0.33275080E+04</pdfrwt>
<totfact> 0.30340880E-01</totfact>
</mgrwt>
</event>
<event>
 4    1  0.2018023E-008  0.2612333E+04  0.7816531E-02  0.8364024E-01
          1   -1    0    0  501    0  0.00000000000E+00  0.00000000000E+00  0.15158914903E+04  0.15158914903E+04  0.00000000000E+00 0.  1.
         -1   -1    0    0    0  501 -0.00000000000E+00 -0.00000000000E+00 -0.11254571265E+04  0.11254571265E+04  0.00000000000E+00 0. -1.
    2000013    1    1    2    0    0  0.32105071471E+03 -0.54024733482E+03 -0.45112483720E+03  0.12251344265E+04  0.95000000000E+03 0.  0.
   -2000013    1    1    2    0    0 -0.32105071471E+03  0.54024733482E+03  0.84155920104E+03  0.14162141904E+04  0.95000000000E+03 0.  0.
<mgrwt>
<rscale>  0 0.26123330E+04</rscale>
<asrwt>0</asrwt>
<pdfrwt beam="1">  1        1 0.23321408E+00 0.26123330E+04</pdfrwt>
<pdfrwt beam="2">  1       -1 0.17314725E+00 0.26123330E+04</pdfrwt>
<totfact> 0.13093705E+00</totfact>
</mgrwt>
</event>
<event>
 4    1  0.2018023E-008  0.2849260E+04  0.7816531E-02  0.8288136E-01
          2   -1    0    0  501    0  0.00000000000E+00  0.00000000000E+00  0.25170408156E+04  0.25170408156E+04  0.00000000000E+00 0.  1.
         -2   -1    0    0    0  501 -0.00000000000E+00 -0.00000000000E+00 -0.80633216178E+03  0.80633216178E+03  0.00000000000E+00 0. -1.
    2000013    1    1    2    0    0  0.10219386725E+04  0.24365640316E+03  0.67714378696E+03  0.15699524838E+04  0.95000000000E+03 0.  0.
   -2000013    1    1    2    0    0 -0.10219386725E+04 -0.24365640316E+03  0.10335648669E+04  0.17534204936E+04  0.95000000000E+03 0.  0.
<mgrwt>
<rscale>  0 0.28492602E+04</rscale>
<asrwt>0</asrwt>
<pdfrwt beam="1">  1        2 0.38723704E+00 0.28492602E+04</pdfrwt>
<pdfrwt beam="2">  1       -2 0.12405110E+00 0.28492602E+04</pdfrwt>
<totfact> 0.14409350E+00</totfact>
</mgrwt>
</event>
<event>
 4    1  0.2018023E-008  0.2146201E+04  0.7816531E-02  0.8541160E-01
          2   -1    0    0  501    0  0.00000000000E+00  0.00000000000E+00  0.14707073839E+04  0.14707073839E+04  0.00000000000E+00 0.  1.
         -2   -1    0    0    0  501 -0.00000000000E+00 -0.00000000000E+00 -0.78298675200E+03  0.78298675200E+03  0.00000000000E+00 0. -1.
    2000013    1    1    2    0    0 -0.40733768230E+01 -0.49901211023E+03  0.33983161675E+03  0.11256176999E+04  0.95000000000E+03 0.  0.
   -2000013    1    1    2    0    0  0.40733768230E+01  0.49901211023E+03  0.34788901511E+03  0.11280764360E+04  0.95000000000E+03 0.  0.
<mgrwt>
<rscale>  0 0.21462007E+04</rscale>
<asrwt>0</asrwt>
<pdfrwt beam="1">  1        2 0.22626267E+00 0.21462007E+04</pdfrwt>
<pdfrwt beam="2">  1       -2 0.12045950E+00 0.21462007E+04</pdfrwt>
<totfact> 0.63694072E+00</totfact>
</mgrwt>
</event>
<event>
 4    1  0.2018023E-008  0.3042341E+04  0.7816531E-02  0.8231742E-01
          2   -1    0    0  501    0  0.00000000000E+00  0.00000000000E+00  0.13815537650E+04  0.13815537650E+04  0.00000000000E+00 0.  1.
         -2   -1    0    0    0  501 -0.00000000000E+00 -0.00000000000E+00 -0.16748968859E+04  0.16748968859E+04  0.00000000000E+00 0. -1.
    2000013    1    1    2    0    0  0.60760241033E+03  0.79693832528E+03 -0.78772858058E+03  0.15897508295E+04  0.95000000000E+03 0.  0.
   -2000013    1    1    2    0    0 -0.60760241033E+03 -0.79693832528E+03  0.49438545961E+03  0.14666998214E+04  0.95000000000E+03 0.  0.
<mgrwt>
<rscale>  0 0.30423413E+04</rscale>
<asrwt>0</asrwt>
<pdfrwt beam="1">  1        2 0.21254673E+00 0.30423413E+04</pdfrwt>
<pdfrwt beam="2">  1       -2 0.25767644E+00 0.30423413E+04</pdfrwt>
<totfact> 0.72921936E-01</totfact>
</mgrwt>
</event>
<event>
 4    1  0.2018023E-008  0.2565987E+04  0.7816531E-02  0.8379847E-01
          2   -1    0    0  501    0  0.00000000000E+00  0.00000000000E+00  0.25461509151E+04  0.25461509151E+04  0.00000000000E+00 0.  1.
         -2   -1    0    0    0  501 -0.00000000000E+00 -0.00000000000E+00 -0.64649429754E+03  0.64649429754E+03  0.00000000000E+00 0. -1.
    2000013    1    1    2    0    0 -0.44606341685E+03  0.40827353978E+03  0.17147054740E+04  0.20514323575E+04  0.95000000000E+03 0.  0.
   -2000013    1    1    2    0    0  0.44606341685E+03 -0.40827353978E+03  0.18495114360E+03  0.11412128551E+04  0.95000000000E+03 0.  0.
<mgrwt>
<rscale>  0 0.25659868E+04</rscale>
<asrwt>0</asrwt>
<pdfrwt beam="1">  1        2 0.39171552E+00 0.25659868E+04</pdfrwt>
<pdfrwt beam="2">  1       -2 0.99460663E-01 0.25659868E+04</pdfrwt>
<totfact> 0.24281397E+00</totfact>
</mgrwt>
</event>
<event>
 4    1  0.2018023E-008  0.2254119E+04  0.7816531E-02  0.8496234E-01
         -2   -1    0    0    0  501 -0.00000000000E+00  0.00000000000E+00  0.13108108748E+04  0.13108108748E+04  0.00000000000E+00 0. -1.
          2   -1    0    0  501    0  0.00000000000E+00 -0.00000000000E+00 -0.96906631114E+03  0.96906631114E+03  0.00000000000E+00 0.  1.
    2000013    1    1    2    0    0 -0.59334198869E+03  0.59954607148E+02  0.59553738141E+02  0.11232523840E+04  0.95000000000E+03 0.  0.
   -2000013    1    1    2    0    0  0.59334198869E+03 -0.59954607148E+02  0.28219082554E+03  0.11566248019E+04  0.95000000000E+03 0.  0.
<mgrwt>
<rscale>  0 0.22541186E+04</rscale>
<asrwt>0</asrwt>
<pdfrwt beam="2">  1        2 0.14908712E+00 0.22541186E+04</pdfrwt>
<pdfrwt beam="1">  1       -2 0.20166321E+00 0.22541186E+04</pdfrwt>
<totfact> 0.31126388E+00</totfact>
</mgrwt>
</event>
<event>
 4    1  0.2018023E-008  0.2386055E+04  0.7816531E-02  0.8444743E-01
         -2   -1    0    0    0  501 -0.00000000000E+00  0.00000000000E+00  0.68421016430E+03  0.68421016430E+03  0.00000000000E+00 0. -1.
          2   -1    0    0  501    0  0.00000000000E+00 -0.00000000000E+00 -0.20802296098E+04  0.20802296098E+04  0.00000000000E+00 0.  1.
    2000013    1    1    2    0    0  0.21655554897E+03  0.65235578806E+03 -0.44325375645E+03  0.12535702105E+04  0.95000000000E+03 0.  0.
   -2000013    1    1    2    0    0 -0.21655554897E+03 -0.65235578806E+03 -0.95276568905E+03  0.15108695636E+04  0.95000000000E+03 0.  0.
<mgrwt>
<rscale>  0 0.23860547E+04</rscale>
<asrwt>0</asrwt>
<pdfrwt beam="2">  1        2 0.32003532E+00 0.23860547E+04</pdfrwt>
<pdfrwt beam="1">  1       -2 0.10526310E+00 0.23860547E+04</pdfrwt>
<totfact> 0.39644108E+00</totfact>
</mgrwt>
</event>
<event>
 4    1  0.2018023E-008  0.2873333E+04  0.7816531E-02  0.8280856E-01
         -1   -1    0    0    0  501 -0.00000000000E+00  0.00000000000E+00  0.84776421141E+03  0.84776421141E+03  0.00000000000E+00 0. -1.
          1   -1    0    0  501    0  0.00000000000E+00 -0.00000000000E+00 -0.24346513881E+04  0.24346513881E+04  0.00000000000E+00 0.  1.
    2000013    1    1    2    0    0  0.10771663774E+04  0.23062461203E+01 -0.75358165887E+03  0.16219365092E+04  0.95000000000E+03 0.  0.
   -2000013    1    1    2    0    0 -0.10771663774E+04 -0.23062461203E+01 -0.83330551786E+03  0.16604790903E+04  0.95000000000E+03 0.  0.
<mgrwt>
<rscale>  0 0.28733328E+04</rscale>
<asrwt>0</asrwt>
<pdfrwt beam="2">  1        1 0.37456176E+00 0.28733328E+04</pdfrwt>
<pdfrwt beam="1">  1       -1 0.13042526E+00 0.28733328E+04</pdfrwt>
<totfact> 0.65036425E-01</totfact>
</mgrwt>
</event>
<event>
 4    1  0.2018023E-008  0.4054679E+04  0.7816531E-02  0.7993606E-01
         -2   -1    0    0    0  501 -0.00000000000E+00  0.00000000000E+00  0.35488922337E+04  0.35488922337E+04  0.00000000000E+00 0. -1.
          2   -1    0    0  501    0  0.00000000000E+00 -0.00000000000E+00 -0.11581377671E+04  0.11581377671E+04  0.00000000000E+00 0.  1.
    2000013    1    1    2    0    0 -0.16310423353E+04 -0.81371508525E+01  0.33660164025E+03  0.19173330376E+04  0.95000000000E+03 0.  0.
   -2000013    1    1    2    0    0  0.16310423353E+04  0.81371508525E+01  0.20541528263E+04  0.27896969632E+04  0.95000000000E+03 0.  0.
<mgrwt>
<rscale>  0 0.40546793E+04</rscale>
<asrwt>0</asrwt>
<pdfrwt beam="2">  1        2 0.17817504E+00 0.40546793E+04</pdfrwt>
<pdfrwt beam="1">  1       -2 0.54598342E+00 0.40546793E+04</pdfrwt>
<totfact> 0.14142896E-02</totfact>
</mgrwt>
</event>
<event>
 4    1  0.2018023E-008  0.2664262E+04  0.7816531E-02  0.8346695E-01
          2   -1    0    0  501    0  0.00000000000E+00  0.00000000000E+00  0.10899658999E+04  0.10899658999E+04  0.00000000000E+00 0.  1.
         -2   -1    0    0    0  501 -0.00000000000E+00 -0.00000000000E+00 -0.16280991256E+04  0.16280991256E+04  0.00000000000E+00 0. -1.
    2000013    1    1    2    0    0 -0.13753295805E+03  0.91888710373E+03 -0.36478948089E+03  0.13779841034E+04  0.95000000000E+03 0.  0.
   -2000013    1    1    2    0    0  0.13753295805E+03 -0.91888710373E+03 -0.17334374478E+03  0.13400809221E+04  0.95000000000E+03 0.  0.
<mgrwt>
<rscale>  0 0.26642616E+04</rscale>
<asrwt>0</asrwt>
<pdfrwt beam="1">  1        2 0.16768706E+00 0.26642616E+04</pdfrwt>
<pdfrwt beam="2">  1       -2 0.25047679E+00 0.26642616E+04</pdfrwt>
<totfact> 0.12410999E+00</totfact>
</mgrwt>
</event>
<event>
 4    1  0.2018023E-008  0.2291742E+04  0.7816531E-02  0.8481184E-01
          2   -1    0    0  501    0  0.00000000000E+00  0.00000000000E+00  0.10739342048E+04  0.10739342048E+04  0.00000000000E+00 0.  1.
         -2   -1    0    0    0  501 -0.00000000000E+00 -0.00000000000E+00 -0.12226265617E+04  0.12226265617E+04  0.00000000000E+00 0. -1.
    2000013    1    1    2    0    0 -0.11841731531E+03  0.61153713137E+03 -0.22472889902E+03  0.11580170127E+04  0.95000000000E+03 0.  0.
   -2000013    1    1    2    0    0  0.11841731531E+03 -0.61153713137E+03  0.76036542165E+02  0.11385437538E+04  0.95000000000E+03 0.  0.
<mgrwt>
<rscale>  0 0.22917421E+04</rscale>
<asrwt>0</asrwt>
<pdfrwt beam="1">  1        2 0.16522065E+00 0.22917421E+04</pdfrwt>
<pdfrwt beam="2">  1       -2 0.18809639E+00 0.22917421E+04</pdfrwt>
<totfact> 0.32747309E+00</totfact>
</mgrwt>
</event>
<event>
 4    1  0.2018023E-008  0.2451366E+04  0.7816531E-02  0.8420519E-01
         -1   -1    0    0    0  501 -0.00000000000E+00  0.00000000000E+00  0.10767083147E+04  0.10767083147E+04  0.00000000000E+00 0. -1.
          1   -1    0    0  501    0  0.00000000000E+00 -0.00000000000E+00 -0.13952698758E+04  0.13952698758E+04  0.00000000000E+00 0.  1.
    2000013    1    1    2    0    0  0.33368584724E+03  0.64572778841E+03 -0.42890148419E+03  0.12707348679E+04  0.95000000000E+03 0.  0.
   -2000013    1    1    2    0    0 -0.33368584724E+03 -0.64572778841E+03  0.11033992303E+03  0.12012433226E+04  0.95000000000E+03 0.  0.
<mgrwt>
<rscale>  0 0.24513659E+04</rscale>
<asrwt>0</asrwt>
<pdfrwt beam="2">  1        1 0.21465690E+00 0.24513659E+04</pdfrwt>
<pdfrwt beam="1">  1       -1 0.16564743E+00 0.24513659E+04</pdfrwt>
<totfact> 0.18306165E+00</totfact>
</mgrwt>
</event>
<event>
 4    1  0.2018023E-008  0.3407121E+04  0.7816531E-02  0.8136161E-01
          2   -1    0    0  501    0  0.00000000000E+00  0.00000000000E+00  0.11594208198E+04  0.11594208198E+04  0.00000000000E+00 0.  1.
         -2   -1    0    0    0  501 -0.00000000000E+00 -0.00000000000E+00 -0.25030754412E+04  0.25030754412E+04  0.00000000000E+00 0. -1.
    2000013    1    1    2    0    0  0.12906746831E+04 -0.55437952803E+03 -0.84661878717E+03  0.18953736226E+04  0.95000000000E+03 0.  0.
   -2000013    1    1    2    0    0 -0.12906746831E+04  0.55437952803E+03 -0.49703583429E+03  0.17671226384E+04  0.95000000000E+03 0.  0.
<mgrwt>
<rscale>  0 0.34071206E+04</rscale>
<asrwt>0</asrwt>
<pdfrwt beam="1">  1        2 0.17837244E+00 0.34071206E+04</pdfrwt>
<pdfrwt beam="2">  1       -2 0.38508852E+00 0.34071206E+04</pdfrwt>
<totfact> 0.15386433E-01</totfact>
</mgrwt>
</event>
<event>
 4    1  0.2018023E-008  0.2319370E+04  0.7816531E-02  0.8470323E-01
          1   -1    0    0  501    0  0.00000000000E+00  0.00000000000E+00  0.96411385866E+03  0.96411385866E+03  0.00000000000E+00 0. -1.
         -1   -1    0    0    0  501 -0.00000000000E+00 -0.00000000000E+00 -0.13949274714E+04  0.13949274714E+04  0.00000000000E+00 0.  1.
    2000013    1    1    2    0    0  0.18120507078E+03  0.53616962438E+03  0.13993370499E+03  0.11146275546E+04  0.95000000000E+03 0.  0.
   -2000013    1    1    2    0    0 -0.18120507078E+03 -0.53616962438E+03 -0.57074731775E+03  0.12444137754E+04  0.95000000000E+03 0.  0.
<mgrwt>
<rscale>  0 0.23193697E+04</rscale>
<asrwt>0</asrwt>
<pdfrwt beam="1">  1        1 0.14832521E+00 0.23193697E+04</pdfrwt>
<pdfrwt beam="2">  1       -1 0.21460422E+00 0.23193697E+04</pdfrwt>
<totfact> 0.17436259E+00</totfact>
</mgrwt>
</event>
<event>
 4    1  0.2018023E-008  0.2117999E+04  0.7816531E-02  0.8553356E-01
          2   -1    0    0  501    0  0.00000000000E+00  0.00000000000E+00  0.19989857610E+04  0.19989857610E+04  0.00000000000E+00 0.  1.
         -2   -1    0    0    0  501 -0.00000000000E+00 -0.00000000000E+00 -0.56102422790E+03  0.56102422790E+03  0.00000000000E+00 0. -1.
    2000013    1    1    2    0    0 -0.33086178696E+03 -0.32898727102E+03  0.76217859154E+03  0.13042692789E+04  0.95000000000E+03 0.  0.
   -2000013    1    1    2    0    0  0.33086178696E+03  0.32898727102E+03  0.67578294154E+03  0.12557407100E+04  0.95000000000E+03 0.  0.
<mgrwt>
<rscale>  0 0.21179985E+04</rscale>
<asrwt>0</asrwt>
<pdfrwt beam="1">  1        2 0.30753627E+00 0.21179985E+04</pdfrwt>
<pdfrwt beam="2">  1       -2 0.86311420E-01 0.21179985E+04</pdfrwt>
<totfact> 0.71619658E+00</totfact>
</mgrwt>
</event>
<event>
 4    1  0.2018023E-008  0.3084499E+04  0.7816531E-02  0.8220005E-01
         -2   -1    0    0    0  501 -0.00000000000E+00  0.00000000000E+00  0.10514957938E+04  0.10514957938E+04  0.00000000000E+00 0. -1.
          2   -1    0    0  501    0  0.00000000000E+00 -0.00000000000E+00 -0.22620480787E+04  0.22620480787E+04  0.00000000000E+00 0.  1.
    2000013    1    1    2    0    0 -0.43497728445E+03 -0.22878967728E+03  0.58830182034E+03  0.12207165872E+04  0.95000000000E+03 0.  0.
   -2000013    1    1    2    0    0  0.43497728445E+03  0.22878967728E+03 -0.17988541052E+04  0.20928272853E+04  0.95000000000E+03 0.  0.
<mgrwt>
<rscale>  0 0.30844993E+04</rscale>
<asrwt>0</asrwt>
<pdfrwt beam="2">  1        2 0.34800740E+00 0.30844993E+04</pdfrwt>
<pdfrwt beam="1">  1       -2 0.16176858E+00 0.30844993E+04</pdfrwt>
<totfact> 0.98987215E-01</totfact>
</mgrwt>
</event>
<event>
 4    1  0.2018023E-008  0.2605472E+04  0.7816531E-02  0.8366345E-01
         -2   -1    0    0    0  501 -0.00000000000E+00  0.00000000000E+00  0.68058752285E+03  0.68058752285E+03  0.00000000000E+00 0. -1.
          2   -1    0    0  501    0  0.00000000000E+00 -0.00000000000E+00 -0.24936125250E+04  0.24936125250E+04  0.00000000000E+00 0.  1.
    2000013    1    1    2    0    0 -0.30627613012E+03  0.78044732812E+03 -0.12754699014E+04  0.17978394170E+04  0.95000000000E+03 0.  0.
   -2000013    1    1    2    0    0  0.30627613012E+03 -0.78044732812E+03 -0.53755510070E+03  0.13763606308E+04  0.95000000000E+03 0.  0.
<mgrwt>
<rscale>  0 0.26054724E+04</rscale>
<asrwt>0</asrwt>
<pdfrwt beam="2">  1        2 0.38363270E+00 0.26054724E+04</pdfrwt>
<pdfrwt beam="1">  1       -2 0.10470577E+00 0.26054724E+04</pdfrwt>
<totfact> 0.22968007E+00</totfact>
</mgrwt>
</event>
<event>
 4    1  0.2018023E-008  0.2155819E+04  0.7816531E-02  0.8537045E-01
         -2   -1    0    0    0  501 -0.00000000000E+00  0.00000000000E+00  0.17645329632E+04  0.17645329632E+04  0.00000000000E+00 0. -1.
          2   -1    0    0  501    0  0.00000000000E+00 -0.00000000000E+00 -0.65846840272E+03  0.65846840272E+03  0.00000000000E+00 0.  1.
    2000013    1    1    2    0    0 -0.40003691425E+03 -0.28860014616E+03  0.69550908697E+03  0.12765392541E+04  0.95000000000E+03 0.  0.
   -2000013    1    1    2    0    0  0.40003691425E+03  0.28860014616E+03  0.41055547354E+03  0.11464621119E+04  0.95000000000E+03 0.  0.
<mgrwt>
<rscale>  0 0.21558193E+04</rscale>
<asrwt>0</asrwt>
<pdfrwt beam="2">  1        2 0.10130283E+00 0.21558193E+04</pdfrwt>
<pdfrwt beam="1">  1       -2 0.27146661E+00 0.21558193E+04</pdfrwt>
<totfact> 0.19272543E+00</totfact>
</mgrwt>
</event>
<event>
 4    1  0.2018023E-008  0.2481010E+04  0.7816531E-02  0.8409782E-01
          2   -1    0    0  501    0  0.00000000000E+00  0.00000000000E+00  0.17137095766E+04  0.17137095766E+04  0.00000000000E+00 0.  1.
         -2   -1    0    0    0  501 -0.00000000000E+00 -0.00000000000E+00 -0.89796602587E+03  0.89796602587E+03  0.00000000000E+00 0. -1.
    2000013    1    1    2    0    0 -0.77340690482E+03  0.19504518416E+03  0.42085476696E+03  0.13098929724E+04  0.95000000000E+03 0.  0.
   -2000013    1    1    2    0    0  0.77340690482E+03 -0.19504518416E+03  0.39488878373E+03  0.13017826300E+04  0.95000000000E+03 0.  0.
<mgrwt>
<rscale>  0 0.24810103E+04</rscale>
<asrwt>0</asrwt>
<pdfrwt beam="1">  1        2 0.26364763E+00 0.24810103E+04</pdfrwt>
<pdfrwt beam="2">  1       -2 0.13814862E+00 0.24810103E+04</pdfrwt>
<totfact> 0.32007160E+00</totfact>
</mgrwt>
</event>
<event>
 4    1  0.2018023E-008  0.3011773E+04  0.7816531E-02  0.8240377E-01
         -2   -1    0    0    0  501 -0.00000000000E+00  0.00000000000E+00  0.65870015678E+03  0.65870015678E+03  0.00000000000E+00 0. -1.
          2   -1    0    0  501    0  0.00000000000E+00 -0.00000000000E+00 -0.34426811472E+04  0.34426811472E+04  0.00000000000E+00 0.  1.
    2000013    1    1    2    0    0 -0.89318719530E+03 -0.57482603574E+03 -0.20549232298E+04  0.25006834701E+04  0.95000000000E+03 0.  0.
   -2000013    1    1    2    0    0  0.89318719530E+03  0.57482603574E+03 -0.72905776069E+03  0.16006978340E+04  0.95000000000E+03 0.  0.
<mgrwt>
<rscale>  0 0.30117733E+04</rscale>
<asrwt>0</asrwt>
<pdfrwt beam="2">  1        2 0.52964324E+00 0.30117733E+04</pdfrwt>
<pdfrwt beam="1">  1       -2 0.10133849E+00 0.30117733E+04</pdfrwt>
<totfact> 0.60939196E-01</totfact>
</mgrwt>
</event>
<event>
 4    1  0.2018023E-008  0.2679213E+04  0.7816531E-02  0.8341781E-01
          2   -1    0    0  501    0  0.00000000000E+00  0.00000000000E+00  0.31701395671E+04  0.31701395671E+04  0.00000000000E+00 0.  1.
         -2   -1    0    0    0  501 -0.00000000000E+00 -0.00000000000E+00 -0.56607780665E+03  0.56607780665E+03  0.00000000000E+00 0. -1.
    2000013    1    1    2    0    0  0.60441057424E+03 -0.64832621885E+03  0.17569238424E+04  0.21851591284E+04  0.95000000000E+03 0.  0.
   -2000013    1    1    2    0    0 -0.60441057424E+03  0.64832621885E+03  0.84713791799E+03  0.15510582453E+04  0.95000000000E+03 0.  0.
<mgrwt>
<rscale>  0 0.26792131E+04</rscale>
<asrwt>0</asrwt>
<pdfrwt beam="1">  1        2 0.48771377E+00 0.26792131E+04</pdfrwt>
<pdfrwt beam="2">  1       -2 0.87088896E-01 0.26792131E+04</pdfrwt>
<totfact> 0.13582455E+00</totfact>
</mgrwt>
</event>
<event>
 4    1  0.2018023E-008  0.2130713E+04  0.7816531E-02  0.8547833E-01
          2   -1    0    0  501    0  0.00000000000E+00  0.00000000000E+00  0.19004345053E+04  0.19004345053E+04  0.00000000000E+00 0.  1.
         -2   -1    0    0    0  501 -0.00000000000E+00 -0.00000000000E+00 -0.59722391326E+03  0.59722391326E+03  0.00000000000E+00 0. -1.
    2000013    1    1    2    0    0  0.11058877358E+03 -0.10656889158E+03  0.11583914411E+03  0.96928092564E+03  0.95000000000E+03 0.  0.
   -2000013    1    1    2    0    0 -0.11058877358E+03  0.10656889158E+03  0.11873714479E+04  0.15283774929E+04  0.95000000000E+03 0.  0.
<mgrwt>
<rscale>  0 0.21307134E+04</rscale>
<asrwt>0</asrwt>
<pdfrwt beam="1">  1        2 0.29237454E+00 0.21307134E+04</pdfrwt>
<pdfrwt beam="2">  1       -2 0.91880603E-01 0.21307134E+04</pdfrwt>
<totfact> 0.70275918E+00</totfact>
</mgrwt>
</event>
<event>
 4    1  0.2018023E-008  0.2104714E+04  0.7816531E-02  0.8559170E-01
         -2   -1    0    0    0  501 -0.00000000000E+00  0.00000000000E+00  0.10034173418E+04  0.10034173418E+04  0.00000000000E+00 0. -1.
          2   -1    0    0  501    0  0.00000000000E+00 -0.00000000000E+00 -0.11036830926E+04  0.11036830926E+04  0.00000000000E+00 0.  1.
    2000013    1    1    2    0    0  0.29301727664E+03 -0.13739687478E+03  0.26679798105E+03  0.10384691562E+04  0.95000000000E+03 0.  0.
   -2000013    1    1    2    0    0 -0.29301727664E+03  0.13739687478E+03 -0.36706373191E+03  0.10686312783E+04  0.95000000000E+03 0.  0.
<mgrwt>
<rscale>  0 0.21047135E+04</rscale>
<asrwt>0</asrwt>
<pdfrwt beam="2">  1        2 0.16979740E+00 0.21047135E+04</pdfrwt>
<pdfrwt beam="1">  1       -2 0.15437190E+00 0.21047135E+04</pdfrwt>
<totfact> 0.55406291E+00</totfact>
</mgrwt>
</event>
<event>
 4    1  0.2018023E-008  0.2991898E+04  0.7816531E-02  0.8246048E-01
         -1   -1    0    0    0  501 -0.00000000000E+00  0.00000000000E+00  0.11151097087E+04  0.11151097087E+04  0.00000000000E+00 0.  1.
          1   -1    0    0  501    0  0.00000000000E+00 -0.00000000000E+00 -0.20068550548E+04  0.20068550548E+04  0.00000000000E+00 0. -1.
    2000013    1    1    2    0    0  0.72897596742E+03  0.86048092158E+03 -0.70888205191E+03  0.16361073134E+04  0.95000000000E+03 0.  0.
   -2000013    1    1    2    0    0 -0.72897596742E+03 -0.86048092158E+03 -0.18286329421E+03  0.14858574500E+04  0.95000000000E+03 0.  0.
<mgrwt>
<rscale>  0 0.29918981E+04</rscale>
<asrwt>0</asrwt>
<pdfrwt beam="2">  1        1 0.30874693E+00 0.29918981E+04</pdfrwt>
<pdfrwt beam="1">  1       -1 0.17155534E+00 0.29918981E+04</pdfrwt>
<totfact> 0.60177671E-01</totfact>
</mgrwt>
</event>
<event>
 4    1  0.2018023E-008  0.2541999E+04  0.7816531E-02  0.8388174E-01
         -2   -1    0    0    0  501 -0.00000000000E+00  0.00000000000E+00  0.70324073704E+03  0.70324073704E+03  0.00000000000E+00 0. -1.
          2   -1    0    0  501    0  0.00000000000E+00 -0.00000000000E+00 -0.22971364732E+04  0.22971364732E+04  0.00000000000E+00 0.  1.
    2000013    1    1    2    0    0 -0.42889805567E+03  0.68427595423E+03 -0.50602109872E+03  0.13456390586E+04  0.95000000000E+03 0.  0.
   -2000013    1    1    2    0    0  0.42889805567E+03 -0.68427595423E+03 -0.10878746375E+04  0.16547381517E+04  0.95000000000E+03 0.  0.
<mgrwt>
<rscale>  0 0.25419992E+04</rscale>
<asrwt>0</asrwt>
<pdfrwt beam="2">  1        2 0.35340562E+00 0.25419992E+04</pdfrwt>
<pdfrwt beam="1">  1       -2 0.10819088E+00 0.25419992E+04</pdfrwt>
<totfact> 0.27657547E+00</totfact>
</mgrwt>
</event>
<event>
 4    1  0.2018023E-008  0.2279442E+04  0.7816531E-02  0.8486071E-01
         -1   -1    0    0    0  501 -0.00000000000E+00  0.00000000000E+00  0.10348990020E+04  0.10348990020E+04  0.00000000000E+00 0. -1.
          1   -1    0    0  501    0  0.00000000000E+00 -0.00000000000E+00 -0.12551603051E+04  0.12551603051E+04  0.00000000000E+00 0.  1.
    2000013    1    1    2    0    0  0.24639522845E+02 -0.61353240281E+03 -0.25018957364E+03  0.11585007286E+04  0.95000000000E+03 0.  0.
   -2000013    1    1    2    0    0 -0.24639522845E+02  0.61353240281E+03  0.29928270517E+02  0.11315585786E+04  0.95000000000E+03 0.  0.
<mgrwt>
<rscale>  0 0.22794422E+04</rscale>
<asrwt>0</asrwt>
<pdfrwt beam="2">  1        1 0.19310159E+00 0.22794422E+04</pdfrwt>
<pdfrwt beam="1">  1       -1 0.15921523E+00 0.22794422E+04</pdfrwt>
<totfact> 0.26139471E+00</totfact>
</mgrwt>
</event>
<event>
 4    1  0.2018023E-008  0.2223570E+04  0.7816531E-02  0.8508681E-01
          2   -1    0    0  501    0  0.00000000000E+00  0.00000000000E+00  0.24254244677E+04  0.24254244677E+04  0.00000000000E+00 0.  1.
         -2   -1    0    0    0  501 -0.00000000000E+00 -0.00000000000E+00 -0.50962855944E+03  0.50962855944E+03  0.00000000000E+00 0. -1.
    2000013    1    1    2    0    0 -0.31617545502E+03  0.48109507722E+03  0.10190482917E+04  0.15074411473E+04  0.95000000000E+03 0.  0.
   -2000013    1    1    2    0    0  0.31617545502E+03 -0.48109507722E+03  0.89674761648E+03  0.14276118798E+04  0.95000000000E+03 0.  0.
<mgrwt>
<rscale>  0 0.22235697E+04</rscale>
<asrwt>0</asrwt>
<pdfrwt beam="1">  1        2 0.37314222E+00 0.22235697E+04</pdfrwt>
<pdfrwt beam="2">  1       -2 0.78404395E-01 0.22235697E+04</pdfrwt>
<totfact> 0.50718011E+00</totfact>
</mgrwt>
</event>
<event>
 4    1  0.2018023E-008  0.2210810E+04  0.7816531E-02  0.8513942E-01
          2   -1    0    0  501    0  0.00000000000E+00  0.00000000000E+00  0.17792086940E+04  0.17792086940E+04  0.00000000000E+00 0.  1.
         -2   -1    0    0    0  501 -0.00000000000E+00 -0.00000000000E+00 -0.68677738813E+03  0.68677738813E+03  0.00000000000E+00 0. -1.
    2000013    1    1    2    0    0 -0.35582160546E+03 -0.33295451592E+03  0.86553151160E+03  0.13744498980E+04  0.95000000000E+03 0.  0.
   -2000013    1    1    2    0    0  0.35582160546E+03  0.33295451592E+03  0.22689979426E+03  0.10915361841E+04  0.95000000000E+03 0.  0.
<mgrwt>
<rscale>  0 0.22108101E+04</rscale>
<asrwt>0</asrwt>
<pdfrwt beam="1">  1        2 0.27372441E+00 0.22108101E+04</pdfrwt>
<pdfrwt beam="2">  1       -2 0.10565806E+00 0.22108101E+04</pdfrwt>
<totfact> 0.58600798E+00</totfact>
</mgrwt>
</event>
<event>
 4    1  0.2018023E-008  0.2575761E+04  0.7816531E-02  0.8376482E-01
          2   -1    0    0  501    0  0.00000000000E+00  0.00000000000E+00  0.29914684508E+04  0.29914684508E+04  0.00000000000E+00 0.  1.
         -2   -1    0    0    0  501 -0.00000000000E+00 -0.00000000000E+00 -0.55445551758E+03  0.55445551758E+03  0.00000000000E+00 0. -1.
    2000013    1    1    2    0    0 -0.12993295437E+03 -0.76330742701E+03  0.67370148525E+03  0.13985329785E+04  0.95000000000E+03 0.  0.
   -2000013    1    1    2    0    0  0.12993295437E+03  0.76330742701E+03  0.17633114480E+04  0.21473909898E+04  0.95000000000E+03 0.  0.
<mgrwt>
<rscale>  0 0.25757610E+04</rscale>
<asrwt>0</asrwt>
<pdfrwt beam="1">  1        2 0.46022590E+00 0.25757610E+04</pdfrwt>
<pdfrwt beam="2">  1       -2 0.85300851E-01 0.25757610E+04</pdfrwt>
<totfact> 0.18673297E+00</totfact>
</mgrwt>
</event>
<event>
 4    1  0.2018023E-008  0.2814403E+04  0.7816531E-02  0.8298811E-01
         -2   -1    0    0    0  501 -0.00000000000E+00  0.00000000000E+00  0.73573031453E+03  0.73573031453E+03  0.00000000000E+00 0. -1.
          2   -1    0    0  501    0  0.00000000000E+00 -0.00000000000E+00 -0.26914968296E+04  0.26914968296E+04  0.00000000000E+00 0.  1.
    2000013    1    1    2    0    0  0.61187735141E+03 -0.31234637711E+03 -0.19256632170E+04  0.22544695558E+04  0.95000000000E+03 0.  0.
   -2000013    1    1    2    0    0 -0.61187735141E+03  0.31234637711E+03 -0.30103298023E+02  0.11727575883E+04  0.95000000000E+03 0.  0.
<mgrwt>
<rscale>  0 0.28144028E+04</rscale>
<asrwt>0</asrwt>
<pdfrwt beam="2">  1        2 0.41407643E+00 0.28144028E+04</pdfrwt>
<pdfrwt beam="1">  1       -2 0.11318928E+00 0.28144028E+04</pdfrwt>
<totfact> 0.14307565E+00</totfact>
</mgrwt>
</event>
<event>
 4    1  0.2018023E-008  0.3299591E+04  0.7816531E-02  0.8162999E-01
         -2   -1    0    0    0  501 -0.00000000000E+00  0.00000000000E+00  0.14872383783E+04  0.14872383783E+04  0.00000000000E+00 0. -1.
          2   -1    0    0  501    0  0.00000000000E+00 -0.00000000000E+00 -0.18301206542E+04  0.18301206542E+04  0.00000000000E+00 0.  1.
    2000013    1    1    2    0    0 -0.10317145421E+04  0.83113458455E+03  0.83114041509E+02  0.16323686894E+04  0.95000000000E+03 0.  0.
   -2000013    1    1    2    0    0  0.10317145421E+04 -0.83113458455E+03 -0.42599631735E+03  0.16849903432E+04  0.95000000000E+03 0.  0.
<mgrwt>
<rscale>  0 0.32995913E+04</rscale>
<asrwt>0</asrwt>
<pdfrwt beam="2">  1        2 0.28155702E+00 0.32995913E+04</pdfrwt>
<pdfrwt beam="1">  1       -2 0.22880590E+00 0.32995913E+04</pdfrwt>
<totfact> 0.60327524E-01</totfact>
</mgrwt>
</event>
<event>
 4    1  0.2018023E-008  0.2265185E+04  0.7816531E-02  0.8491776E-01
          2   -1    0    0  501    0  0.00000000000E+00  0.00000000000E+00  0.23826465151E+04  0.23826465151E+04  0.00000000000E+00 0.  1.
         -2   -1    0    0    0  501 -0.00000000000E+00 -0.00000000000E+00 -0.53837870267E+03  0.53837870267E+03  0.00000000000E+00 0. -1.
    2000013    1    1    2    0    0 -0.54281209666E+03  0.10108128969E+03  0.56803220655E+03  0.12369409796E+04  0.95000000000E+03 0.  0.
   -2000013    1    1    2    0    0  0.54281209666E+03 -0.10108128969E+03  0.12762356058E+04  0.16840842381E+04  0.95000000000E+03 0.  0.
<mgrwt>
<rscale>  0 0.22651853E+04</rscale>
<asrwt>0</asrwt>
<pdfrwt beam="1">  1        2 0.36656100E+00 0.22651853E+04</pdfrwt>
<pdfrwt beam="2">  1       -2 0.82827494E-01 0.22651853E+04</pdfrwt>
<totfact> 0.47257205E+00</totfact>
</mgrwt>
</event>
<event>
 4    1  0.2018023E-008  0.2630379E+04  0.7816531E-02  0.8357955E-01
          2   -1    0    0  501    0  0.00000000000E+00  0.00000000000E+00  0.12521050999E+04  0.12521050999E+04  0.00000000000E+00 0.  1.
         -2   -1    0    0    0  501 -0.00000000000E+00 -0.00000000000E+00 -0.13814523350E+04  0.13814523350E+04  0.00000000000E+00 0. -1.
    2000013    1    1    2    0    0 -0.83211440387E+02  0.68694598834E+03  0.52629767014E+03  0.12877531488E+04  0.95000000000E+03 0.  0.
   -2000013    1    1    2    0    0  0.83211440387E+02 -0.68694598834E+03 -0.65564490524E+03  0.13458042861E+04  0.95000000000E+03 0.  0.
<mgrwt>
<rscale>  0 0.26303791E+04</rscale>
<asrwt>0</asrwt>
<pdfrwt beam="1">  1        2 0.19263155E+00 0.26303791E+04</pdfrwt>
<pdfrwt beam="2">  1       -2 0.21253113E+00 0.26303791E+04</pdfrwt>
<totfact> 0.17164255E+00</totfact>
</mgrwt>
</event>
<event>
 4    1  0.2018023E-008  0.2700469E+04  0.7816531E-02  0.8334853E-01
          2   -1    0    0  501    0  0.00000000000E+00  0.00000000000E+00  0.34449611337E+04  0.34449611337E+04  0.00000000000E+00 0.  1.
         -2   -1    0    0    0  501 -0.00000000000E+00 -0.00000000000E+00 -0.52921728986E+03  0.52921728986E+03  0.00000000000E+00 0. -1.
    2000013    1    1    2    0    0  0.12657237457E+03  0.94931076489E+03  0.15439547436E+04  0.20502457766E+04  0.95000000000E+03 0.  0.
   -2000013    1    1    2    0    0 -0.12657237457E+03 -0.94931076489E+03  0.13717891003E+04  0.19239326469E+04  0.95000000000E+03 0.  0.
<mgrwt>
<rscale>  0 0.27004688E+04</rscale>
<asrwt>0</asrwt>
<pdfrwt beam="1">  1        2 0.52999401E+00 0.27004688E+04</pdfrwt>
<pdfrwt beam="2">  1       -2 0.81418047E-01 0.27004688E+04</pdfrwt>
<totfact> 0.10350204E+00</totfact>
</mgrwt>
</event>
<event>
 4    1  0.2018023E-008  0.4004979E+04  0.7816531E-02  0.8003543E-01
          2   -1    0    0  501    0  0.00000000000E+00  0.00000000000E+00  0.23817535835E+04  0.23817535835E+04  0.00000000000E+00 0.  1.
         -2   -1    0    0    0  501 -0.00000000000E+00 -0.00000000000E+00 -0.16836186616E+04  0.16836186616E+04  0.00000000000E+00 0. -1.
    2000013    1    1    2    0    0 -0.68646668609E+03  0.15553987048E+04  0.82188439260E+03  0.21138816421E+04  0.95000000000E+03 0.  0.
   -2000013    1    1    2    0    0  0.68646668609E+03 -0.15553987048E+04 -0.12374947068E+03  0.19514906030E+04  0.95000000000E+03 0.  0.
<mgrwt>
<rscale>  0 0.40049793E+04</rscale>
<asrwt>0</asrwt>
<pdfrwt beam="1">  1        2 0.36642363E+00 0.40049793E+04</pdfrwt>
<pdfrwt beam="2">  1       -2 0.25901826E+00 0.40049793E+04</pdfrwt>
<totfact> 0.18167443E-01</totfact>
</mgrwt>
</event>
<event>
 4    1  0.2018023E-008  0.2072211E+04  0.7816531E-02  0.8573584E-01
          2   -1    0    0  501    0  0.00000000000E+00  0.00000000000E+00  0.73149424658E+03  0.73149424658E+03  0.00000000000E+00 0.  1.
         -2   -1    0    0    0  501 -0.00000000000E+00 -0.00000000000E+00 -0.14675644150E+04  0.14675644150E+04  0.00000000000E+00 0. -1.
    2000013    1    1    2    0    0  0.15727268692E+03 -0.37491821792E+03 -0.28779893464E+03  0.10726726411E+04  0.95000000000E+03 0.  0.
   -2000013    1    1    2    0    0 -0.15727268692E+03  0.37491821792E+03 -0.44827123382E+03  0.11263860205E+04  0.95000000000E+03 0.  0.
<mgrwt>
<rscale>  0 0.20722113E+04</rscale>
<asrwt>0</asrwt>
<pdfrwt beam="1">  1        2 0.11253758E+00 0.20722113E+04</pdfrwt>
<pdfrwt beam="2">  1       -2 0.22577914E+00 0.20722113E+04</pdfrwt>
<totfact> 0.32494482E+00</totfact>
</mgrwt>
</event>
<event>
 4    1  0.2018023E-008  0.2197545E+04  0.7816531E-02  0.8519450E-01
         -2   -1    0    0    0  501 -0.00000000000E+00  0.00000000000E+00  0.84808055818E+03  0.84808055818E+03  0.00000000000E+00 0. -1.
          2   -1    0    0  501    0  0.00000000000E+00 -0.00000000000E+00 -0.14235692894E+04  0.14235692894E+04  0.00000000000E+00 0.  1.
    2000013    1    1    2    0    0 -0.15888670378E+03 -0.52839762696E+03 -0.30714973569E+03  0.11407409859E+04  0.95000000000E+03 0.  0.
   -2000013    1    1    2    0    0  0.15888670378E+03  0.52839762696E+03 -0.26833899551E+03  0.11309088616E+04  0.95000000000E+03 0.  0.
<mgrwt>
<rscale>  0 0.21975454E+04</rscale>
<asrwt>0</asrwt>
<pdfrwt beam="2">  1        2 0.21901066E+00 0.21975454E+04</pdfrwt>
<pdfrwt beam="1">  1       -2 0.13047393E+00 0.21975454E+04</pdfrwt>
<totfact> 0.55197823E+00</totfact>
</mgrwt>
</event>
<event>
 4    1  0.2018023E-008  0.2478557E+04  0.7816531E-02  0.8410665E-01
          2   -1    0    0  501    0  0.00000000000E+00  0.00000000000E+00  0.21766055348E+04  0.21766055348E+04  0.00000000000E+00 0. -1.
         -2   -1    0    0    0  501 -0.00000000000E+00 -0.00000000000E+00 -0.70559948036E+03  0.70559948036E+03  0.00000000000E+00 0.  1.
    2000013    1    1    2    0    0  0.44999389139E+03  0.18476679758E+03  0.14678977287E+04  0.18148986236E+04  0.95000000000E+03 0.  0.
   -2000013    1    1    2    0    0 -0.44999389139E+03 -0.18476679758E+03  0.31083256649E+01  0.10673063916E+04  0.95000000000E+03 0.  0.
<mgrwt>
<rscale>  0 0.24785574E+04</rscale>
<asrwt>0</asrwt>
<pdfrwt beam="1">  1        2 0.33486239E+00 0.24785574E+04</pdfrwt>
<pdfrwt beam="2">  1       -2 0.10855377E+00 0.24785574E+04</pdfrwt>
<totfact> 0.32258602E+00</totfact>
</mgrwt>
</event>
<event>
 4    1  0.2018023E-008  0.2410261E+04  0.7816531E-02  0.8435672E-01
          2   -1    0    0  501    0  0.00000000000E+00  0.00000000000E+00  0.44567545527E+04  0.44567545527E+04  0.00000000000E+00 0.  1.
         -2   -1    0    0    0  501 -0.00000000000E+00 -0.00000000000E+00 -0.32587390876E+03  0.32587390876E+03  0.00000000000E+00 0. -1.
    2000013    1    1    2    0    0 -0.69638162553E+03  0.19876088806E+03  0.23815997939E+04  0.26643893930E+04  0.95000000000E+03 0.  0.
   -2000013    1    1    2    0    0  0.69638162553E+03 -0.19876088806E+03  0.17492808500E+04  0.21182390685E+04  0.95000000000E+03 0.  0.
<mgrwt>
<rscale>  0 0.24102614E+04</rscale>
<asrwt>0</asrwt>
<pdfrwt beam="1">  1        2 0.68565450E+00 0.24102614E+04</pdfrwt>
<pdfrwt beam="2">  1       -2 0.50134451E-01 0.24102614E+04</pdfrwt>
<totfact> 0.46170681E-01</totfact>
</mgrwt>
</event>
<event>
 4    1  0.2018023E-008  0.2356860E+04  0.7816531E-02  0.8455833E-01
          2   -1    0    0  501    0  0.00000000000E+00  0.00000000000E+00  0.10041682414E+04  0.10041682414E+04  0.00000000000E+00 0.  1.
         -2   -1    0    0    0  501 -0.00000000000E+00 -0.00000000000E+00 -0.13829333619E+04  0.13829333619E+04  0.00000000000E+00 0. -1.
    2000013    1    1    2    0    0  0.49856731554E+03 -0.44100860139E+03 -0.39974884739E+03  0.12269299473E+04  0.95000000000E+03 0.  0.
   -2000013    1    1    2    0    0 -0.49856731554E+03  0.44100860139E+03  0.20983726845E+02  0.11601716560E+04  0.95000000000E+03 0.  0.
<mgrwt>
<rscale>  0 0.23568604E+04</rscale>
<asrwt>0</asrwt>
<pdfrwt beam="1">  1        2 0.15448742E+00 0.23568604E+04</pdfrwt>
<pdfrwt beam="2">  1       -2 0.21275898E+00 0.23568604E+04</pdfrwt>
<totfact> 0.24827272E+00</totfact>
</mgrwt>
</event>
<event>
 4    1  0.2018023E-008  0.2552989E+04  0.7816531E-02  0.8384348E-01
         -2   -1    0    0    0  501 -0.00000000000E+00  0.00000000000E+00  0.41595832582E+03  0.41595832582E+03  0.00000000000E+00 0. -1.
          2   -1    0    0  501    0  0.00000000000E+00 -0.00000000000E+00 -0.39173100242E+04  0.39173100242E+04  0.00000000000E+00 0.  1.
    2000013    1    1    2    0    0 -0.49618511723E+03  0.66618869629E+03 -0.14244936185E+04  0.19030735978E+04  0.95000000000E+03 0.  0.
   -2000013    1    1    2    0    0  0.49618511723E+03 -0.66618869629E+03 -0.20768580799E+04  0.24301947522E+04  0.95000000000E+03 0.  0.
<mgrwt>
<rscale>  0 0.25529886E+04</rscale>
<asrwt>0</asrwt>
<pdfrwt beam="2">  1        2 0.60266309E+00 0.25529886E+04</pdfrwt>
<pdfrwt beam="1">  1       -2 0.63993588E-01 0.25529886E+04</pdfrwt>
<totfact> 0.80065522E-01</totfact>
</mgrwt>
</event>
<event>
 4    1  0.2018023E-008  0.2072786E+04  0.7816531E-02  0.8573327E-01
          2   -1    0    0  501    0  0.00000000000E+00  0.00000000000E+00  0.35460945991E+04  0.35460945991E+04  0.00000000000E+00 0.  1.
         -2   -1    0    0    0  501 -0.00000000000E+00 -0.00000000000E+00 -0.30289950707E+03  0.30289950707E+03  0.00000000000E+00 0. -1.
    2000013    1    1    2    0    0  0.13837314914E+03 -0.34898757027E+02  0.89943711769E+03  0.13159985488E+04  0.95000000000E+03 0.  0.
   -2000013    1    1    2    0    0 -0.13837314914E+03  0.34898757027E+02  0.23437579743E+04  0.25329955574E+04  0.95000000000E+03 0.  0.
<mgrwt>
<rscale>  0 0.20727859E+04</rscale>
<asrwt>0</asrwt>
<pdfrwt beam="1">  1        2 0.54555299E+00 0.20727859E+04</pdfrwt>
<pdfrwt beam="2">  1       -2 0.46599927E-01 0.20727859E+04</pdfrwt>
<totfact> 0.30575216E+00</totfact>
</mgrwt>
</event>
<event>
 4    1  0.2018023E-008  0.2422885E+04  0.7816531E-02  0.8430985E-01
          2   -1    0    0  501    0  0.00000000000E+00  0.00000000000E+00  0.38456162437E+04  0.38456162437E+04  0.00000000000E+00 0.  1.
         -2   -1    0    0    0  501 -0.00000000000E+00 -0.00000000000E+00 -0.38162740572E+03  0.38162740572E+03  0.00000000000E+00 0. -1.
    2000013    1    1    2    0    0 -0.49212870842E+03  0.40268978622E+03  0.10324902162E+04  0.15404174032E+04  0.95000000000E+03 0.  0.
   -2000013    1    1    2    0    0  0.49212870842E+03 -0.40268978622E+03  0.24314986217E+04  0.26868262462E+04  0.95000000000E+03 0.  0.
<mgrwt>
<rscale>  0 0.24228847E+04</rscale>
<asrwt>0</asrwt>
<pdfrwt beam="1">  1        2 0.59163324E+00 0.24228847E+04</pdfrwt>
<pdfrwt beam="2">  1       -2 0.58711911E-01 0.24228847E+04</pdfrwt>
<totfact> 0.11065748E+00</totfact>
</mgrwt>
</event>
<event>
 4    1  0.2018023E-008  0.3887460E+04  0.7816531E-02  0.8027642E-01
          2   -1    0    0  501    0  0.00000000000E+00  0.00000000000E+00  0.44143162892E+04  0.44143162892E+04  0.00000000000E+00 0.  1.
         -2   -1    0    0    0  501 -0.00000000000E+00 -0.00000000000E+00 -0.85587111307E+03  0.85587111307E+03  0.00000000000E+00 0. -1.
    2000013    1    1    2    0    0  0.15471299202E+04  0.43233082279E+03  0.10428138984E+04  0.21378685079E+04  0.95000000000E+03 0.  0.
   -2000013    1    1    2    0    0 -0.15471299202E+04 -0.43233082279E+03  0.25156312777E+04  0.31323188944E+04  0.95000000000E+03 0.  0.
<mgrwt>
<rscale>  0 0.38874597E+04</rscale>
<asrwt>0</asrwt>
<pdfrwt beam="1">  1        2 0.67912557E+00 0.38874597E+04</pdfrwt>
<pdfrwt beam="2">  1       -2 0.13167248E+00 0.38874597E+04</pdfrwt>
<totfact> 0.49497612E-02</totfact>
</mgrwt>
</event>
<event>
 4    1  0.2018023E-008  0.2394891E+04  0.7816531E-02  0.8441419E-01
          2   -1    0    0  501    0  0.00000000000E+00  0.00000000000E+00  0.14403685885E+04  0.14403685885E+04  0.00000000000E+00 0.  1.
         -2   -1    0    0    0  501 -0.00000000000E+00 -0.00000000000E+00 -0.99549215795E+03  0.99549215795E+03  0.00000000000E+00 0. -1.
    2000013    1    1    2    0    0  0.65836115819E+03  0.54963013305E+02  0.53579189676E+03  0.12751601092E+04  0.95000000000E+03 0.  0.
   -2000013    1    1    2    0    0 -0.65836115819E+03 -0.54963013305E+02 -0.90915466163E+02  0.11607006373E+04  0.95000000000E+03 0.  0.
<mgrwt>
<rscale>  0 0.23948909E+04</rscale>
<asrwt>0</asrwt>
<pdfrwt beam="1">  1        2 0.22159517E+00 0.23948909E+04</pdfrwt>
<pdfrwt beam="2">  1       -2 0.15315264E+00 0.23948909E+04</pdfrwt>
<totfact> 0.34999808E+00</totfact>
</mgrwt>
</event>
<event>
 4    1  0.2018023E-008  0.2792377E+04  0.7816531E-02  0.8305639E-01
         -2   -1    0    0    0  501 -0.00000000000E+00  0.00000000000E+00  0.68426174276E+03  0.68426174276E+03  0.00000000000E+00 0. -1.
          2   -1    0    0  501    0  0.00000000000E+00 -0.00000000000E+00 -0.28488261588E+04  0.28488261588E+04  0.00000000000E+00 0.  1.
    2000013    1    1    2    0    0  0.57974104104E+03 -0.25794067400E+03 -0.20978150394E+04  0.23887153463E+04  0.95000000000E+03 0.  0.
   -2000013    1    1    2    0    0 -0.57974104104E+03  0.25794067400E+03 -0.66749376625E+02  0.11443725553E+04  0.95000000000E+03 0.  0.
<mgrwt>
<rscale>  0 0.27923773E+04</rscale>
<asrwt>0</asrwt>
<pdfrwt beam="2">  1        2 0.43828095E+00 0.27923773E+04</pdfrwt>
<pdfrwt beam="1">  1       -2 0.10527104E+00 0.27923773E+04</pdfrwt>
<totfact> 0.13731611E+00</totfact>
</mgrwt>
</event>
<event>
 4    1  0.2018023E-008  0.2070599E+04  0.7816531E-02  0.8574306E-01
         -2   -1    0    0    0  501 -0.00000000000E+00  0.00000000000E+00  0.66023346175E+03  0.66023346175E+03  0.00000000000E+00 0. -1.
          2   -1    0    0  501    0  0.00000000000E+00 -0.00000000000E+00 -0.16234338515E+04  0.16234338515E+04  0.00000000000E+00 0.  1.
    2000013    1    1    2    0    0  0.23098521171E+03  0.32274980996E+03 -0.60152645275E+03  0.11924159011E+04  0.95000000000E+03 0.  0.
   -2000013    1    1    2    0    0 -0.23098521171E+03 -0.32274980996E+03 -0.36167393705E+03  0.10912514122E+04  0.95000000000E+03 0.  0.
<mgrwt>
<rscale>  0 0.20705993E+04</rscale>
<asrwt>0</asrwt>
<pdfrwt beam="2">  1        2 0.24975905E+00 0.20705993E+04</pdfrwt>
<pdfrwt beam="1">  1       -2 0.10157438E+00 0.20705993E+04</pdfrwt>
<totfact> 0.79553608E+00</totfact>
</mgrwt>
</event>
<event>
 4    1  0.2018023E-008  0.2455618E+04  0.7816531E-02  0.8418970E-01
         -1   -1    0    0    0  501 -0.00000000000E+00  0.00000000000E+00  0.67301283825E+03  0.67301283825E+03  0.00000000000E+00 0. -1.
          1   -1    0    0  501    0  0.00000000000E+00 -0.00000000000E+00 -0.22399499956E+04  0.22399499956E+04  0.00000000000E+00 0.  1.
    2000013    1    1    2    0    0  0.57481595837E+03 -0.10733591265E+03 -0.17502736685E+03  0.11291895161E+04  0.95000000000E+03 0.  0.
   -2000013    1    1    2    0    0 -0.57481595837E+03  0.10733591265E+03 -0.13919097905E+04  0.17837733177E+04  0.95000000000E+03 0.  0.
<mgrwt>
<rscale>  0 0.24556181E+04</rscale>
<asrwt>0</asrwt>
<pdfrwt beam="2">  1        1 0.34460769E+00 0.24556181E+04</pdfrwt>
<pdfrwt beam="1">  1       -1 0.10354044E+00 0.24556181E+04</pdfrwt>
<totfact> 0.16043819E+00</totfact>
</mgrwt>
</event>
<event>
 4    1  0.2018023E-008  0.4011719E+04  0.7816531E-02  0.8002187E-01
          2   -1    0    0  501    0  0.00000000000E+00  0.00000000000E+00  0.21953001400E+04  0.21953001400E+04  0.00000000000E+00 0.  1.
         -2   -1    0    0    0  501 -0.00000000000E+00 -0.00000000000E+00 -0.18327667404E+04  0.18327667404E+04  0.00000000000E+00 0. -1.
    2000013    1    1    2    0    0 -0.16221000792E+04 -0.26715416818E+03  0.83073560912E+03  0.20724868320E+04  0.95000000000E+03 0.  0.
   -2000013    1    1    2    0    0  0.16221000792E+04  0.26715416818E+03 -0.46820220957E+03  0.19555800484E+04  0.95000000000E+03 0.  0.
<mgrwt>
<rscale>  0 0.40117194E+04</rscale>
<asrwt>0</asrwt>
<pdfrwt beam="1">  1        2 0.33773849E+00 0.40117194E+04</pdfrwt>
<pdfrwt beam="2">  1       -2 0.28196411E+00 0.40117194E+04</pdfrwt>
<totfact> 0.16775485E-01</totfact>
</mgrwt>
</event>
<event>
 4    1  0.2018023E-008  0.2467910E+04  0.7816531E-02  0.8414508E-01
          2   -1    0    0  501    0  0.00000000000E+00  0.00000000000E+00  0.28671236710E+04  0.28671236710E+04  0.00000000000E+00 0.  1.
         -2   -1    0    0    0  501 -0.00000000000E+00 -0.00000000000E+00 -0.53107059385E+03  0.53107059385E+03  0.00000000000E+00 0. -1.
    2000013    1    1    2    0    0  0.58022136935E+03 -0.50354837704E+03  0.92982071100E+03  0.15353450296E+04  0.95000000000E+03 0.  0.
   -2000013    1    1    2    0    0 -0.58022136935E+03  0.50354837704E+03  0.14062323661E+04  0.18628492352E+04  0.95000000000E+03 0.  0.
<mgrwt>
<rscale>  0 0.24679101E+04</rscale>
<asrwt>0</asrwt>
<pdfrwt beam="1">  1        2 0.44109594E+00 0.24679101E+04</pdfrwt>
<pdfrwt beam="2">  1       -2 0.81703170E-01 0.24679101E+04</pdfrwt>
<totfact> 0.24810245E+00</totfact>
</mgrwt>
</event>
<event>
 4    1  0.2018023E-008  0.2489256E+04  0.7816531E-02  0.8406823E-01
          2   -1    0    0  501    0  0.00000000000E+00  0.00000000000E+00  0.92357052881E+03  0.92357052881E+03  0.00000000000E+00 0.  1.
         -2   -1    0    0    0  501 -0.00000000000E+00 -0.00000000000E+00 -0.16772940932E+04  0.16772940932E+04  0.00000000000E+00 0. -1.
    2000013    1    1    2    0    0  0.18717611796E+02 -0.79748850856E+03 -0.48270073719E+03  0.13311041552E+04  0.95000000000E+03 0.  0.
   -2000013    1    1    2    0    0 -0.18717611796E+02  0.79748850856E+03 -0.27102282721E+03  0.12697604668E+04  0.95000000000E+03 0.  0.
<mgrwt>
<rscale>  0 0.24892564E+04</rscale>
<asrwt>0</asrwt>
<pdfrwt beam="1">  1        2 0.14208778E+00 0.24892564E+04</pdfrwt>
<pdfrwt beam="2">  1       -2 0.25804524E+00 0.24892564E+04</pdfrwt>
<totfact> 0.14471575E+00</totfact>
</mgrwt>
</event>
<event>
 4    1  0.2018023E-008  0.3065931E+04  0.7816531E-02  0.8225150E-01
          2   -1    0    0  501    0  0.00000000000E+00  0.00000000000E+00  0.95864372934E+03  0.95864372934E+03  0.00000000000E+00 0.  1.
         -2   -1    0    0    0  501 -0.00000000000E+00 -0.00000000000E+00 -0.24513629688E+04  0.24513629688E+04  0.00000000000E+00 0. -1.
    2000013    1    1    2    0    0 -0.91115679507E+03  0.52550895241E+03 -0.13959576925E+04  0.19893627733E+04  0.95000000000E+03 0.  0.
   -2000013    1    1    2    0    0  0.91115679507E+03 -0.52550895241E+03 -0.96761546873E+02  0.14206439248E+04  0.95000000000E+03 0.  0.
<mgrwt>
<rscale>  0 0.30659313E+04</rscale>
<asrwt>0</asrwt>
<pdfrwt beam="1">  1        2 0.14748365E+00 0.30659313E+04</pdfrwt>
<pdfrwt beam="2">  1       -2 0.37713276E+00 0.30659313E+04</pdfrwt>
<totfact> 0.23823225E-01</totfact>
</mgrwt>
</event>
<event>
 4    1  0.2018023E-008  0.2761619E+04  0.7816531E-02  0.8315284E-01
         -2   -1    0    0    0  501 -0.00000000000E+00  0.00000000000E+00  0.81218013591E+03  0.81218013591E+03  0.00000000000E+00 0. -1.
          2   -1    0    0  501    0  0.00000000000E+00 -0.00000000000E+00 -0.23475510269E+04  0.23475510269E+04  0.00000000000E+00 0.  1.
    2000013    1    1    2    0    0  0.13537099085E+03 -0.92842090315E+03 -0.11703313428E+04  0.17755185526E+04  0.95000000000E+03 0.  0.
   -2000013    1    1    2    0    0 -0.13537099085E+03  0.92842090315E+03 -0.36503954815E+03  0.13842126102E+04  0.95000000000E+03 0.  0.
<mgrwt>
<rscale>  0 0.27616186E+04</rscale>
<asrwt>0</asrwt>
<pdfrwt beam="2">  1        2 0.36116169E+00 0.27616186E+04</pdfrwt>
<pdfrwt beam="1">  1       -2 0.12495079E+00 0.27616186E+04</pdfrwt>
<totfact> 0.17843601E+00</totfact>
</mgrwt>
</event>
<event>
 4    1  0.2018023E-008  0.2634223E+04  0.7816531E-02  0.8356668E-01
         -2   -1    0    0    0  501 -0.00000000000E+00  0.00000000000E+00  0.11567782356E+04  0.11567782356E+04  0.00000000000E+00 0.  1.
          2   -1    0    0  501    0  0.00000000000E+00 -0.00000000000E+00 -0.14996678925E+04  0.14996678925E+04  0.00000000000E+00 0. -1.
    2000013    1    1    2    0    0  0.29158803899E+03  0.61247632809E+03  0.44372797046E+03  0.12488175802E+04  0.95000000000E+03 0.  0.
   -2000013    1    1    2    0    0 -0.29158803899E+03 -0.61247632809E+03 -0.78661762741E+03  0.14076285478E+04  0.95000000000E+03 0.  0.
<mgrwt>
<rscale>  0 0.26342234E+04</rscale>
<asrwt>0</asrwt>
<pdfrwt beam="2">  1        2 0.23071814E+00 0.26342234E+04</pdfrwt>
<pdfrwt beam="1">  1       -2 0.17796588E+00 0.26342234E+04</pdfrwt>
<totfact> 0.20985481E+00</totfact>
</mgrwt>
</event>
<event>
 4    1  0.2018023E-008  0.2657678E+04  0.7816531E-02  0.8348869E-01
         -2   -1    0    0    0  501 -0.00000000000E+00  0.00000000000E+00  0.77900186457E+03  0.77900186457E+03  0.00000000000E+00 0. -1.
          2   -1    0    0  501    0  0.00000000000E+00 -0.00000000000E+00 -0.22667635751E+04  0.22667635751E+04  0.00000000000E+00 0.  1.
    2000013    1    1    2    0    0  0.48269015105E+03 -0.72752621156E+03 -0.11081453726E+04  0.17008146099E+04  0.95000000000E+03 0.  0.
   -2000013    1    1    2    0    0 -0.48269015105E+03  0.72752621156E+03 -0.37961633792E+03  0.13449508297E+04  0.95000000000E+03 0.  0.
<mgrwt>
<rscale>  0 0.26576780E+04</rscale>
<asrwt>0</asrwt>
<pdfrwt beam="2">  1        2 0.34873286E+00 0.26576780E+04</pdfrwt>
<pdfrwt beam="1">  1       -2 0.11984644E+00 0.26576780E+04</pdfrwt>
<totfact> 0.22200907E+00</totfact>
</mgrwt>
</event>
<event>
 4    1  0.2018023E-008  0.2411258E+04  0.7816531E-02  0.8435301E-01
         -2   -1    0    0    0  501 -0.00000000000E+00  0.00000000000E+00  0.80401752312E+03  0.80401752312E+03  0.00000000000E+00 0. -1.
          2   -1    0    0  501    0  0.00000000000E+00 -0.00000000000E+00 -0.18078483810E+04  0.18078483810E+04  0.00000000000E+00 0.  1.
    2000013    1    1    2    0    0  0.35957963792E+03 -0.53781150052E+03 -0.89620933124E+03  0.14574738047E+04  0.95000000000E+03 0.  0.
   -2000013    1    1    2    0    0 -0.35957963792E+03  0.53781150052E+03 -0.10762152662E+03  0.11543920994E+04  0.95000000000E+03 0.  0.
<mgrwt>
<rscale>  0 0.24112584E+04</rscale>
<asrwt>0</asrwt>
<pdfrwt beam="2">  1        2 0.27813052E+00 0.24112584E+04</pdfrwt>
<pdfrwt beam="1">  1       -2 0.12369501E+00 0.24112584E+04</pdfrwt>
<totfact> 0.37784097E+00</totfact>
</mgrwt>
</event>
<event>
 4    1  0.2018023E-008  0.2368700E+04  0.7816531E-02  0.8451315E-01
         -2   -1    0    0    0  501 -0.00000000000E+00  0.00000000000E+00  0.61592292122E+03  0.61592292122E+03  0.00000000000E+00 0. -1.
          2   -1    0    0  501    0  0.00000000000E+00 -0.00000000000E+00 -0.22773716918E+04  0.22773716918E+04  0.00000000000E+00 0.  1.
    2000013    1    1    2    0    0  0.61102975967E+03 -0.71342542727E+02 -0.12569073990E+04  0.16913791223E+04  0.95000000000E+03 0.  0.
   -2000013    1    1    2    0    0 -0.61102975967E+03  0.71342542727E+02 -0.40454137159E+03  0.12019154908E+04  0.95000000000E+03 0.  0.
<mgrwt>
<rscale>  0 0.23687004E+04</rscale>
<asrwt>0</asrwt>
<pdfrwt beam="2">  1        2 0.35036488E+00 0.23687004E+04</pdfrwt>
<pdfrwt beam="1">  1       -2 0.94757370E-01 0.23687004E+04</pdfrwt>
<totfact> 0.39465507E+00</totfact>
</mgrwt>
</event>
<event>
 4    1  0.2018023E-008  0.2892680E+04  0.7816531E-02  0.8275059E-01
          2   -1    0    0  501    0  0.00000000000E+00  0.00000000000E+00  0.33495125993E+04  0.33495125993E+04  0.00000000000E+00 0. -1.
         -2   -1    0    0    0  501 -0.00000000000E+00 -0.00000000000E+00 -0.62453846732E+03  0.62453846732E+03  0.00000000000E+00 0.  1.
    2000013    1    1    2    0    0 -0.96429752317E+03 -0.29902658392E+03  0.79585439860E+03  0.15984901735E+04  0.95000000000E+03 0.  0.
   -2000013    1    1    2    0    0  0.96429752317E+03  0.29902658392E+03  0.19291197334E+04  0.23755608931E+04  0.95000000000E+03 0.  0.
<mgrwt>
<rscale>  0 0.28926800E+04</rscale>
<asrwt>0</asrwt>
<pdfrwt beam="1">  1        2 0.51530962E+00 0.28926800E+04</pdfrwt>
<pdfrwt beam="2">  1       -2 0.96082843E-01 0.28926800E+04</pdfrwt>
<totfact> 0.80823977E-01</totfact>
</mgrwt>
</event>
<event>
 4    1  0.2018023E-008  0.2534889E+04  0.7816531E-02  0.8390660E-01
         -2   -1    0    0    0  501 -0.00000000000E+00  0.00000000000E+00  0.12984241016E+04  0.12984241016E+04  0.00000000000E+00 0. -1.
          2   -1    0    0  501    0  0.00000000000E+00 -0.00000000000E+00 -0.12372042626E+04  0.12372042626E+04  0.00000000000E+00 0.  1.
    2000013    1    1    2    0    0  0.77002789619E+03 -0.56007357239E+02  0.35908966804E+03  0.12757449489E+04  0.95000000000E+03 0.  0.
   -2000013    1    1    2    0    0 -0.77002789619E+03  0.56007357239E+02 -0.29786982907E+03  0.12598834153E+04  0.95000000000E+03 0.  0.
<mgrwt>
<rscale>  0 0.25348892E+04</rscale>
<asrwt>0</asrwt>
<pdfrwt beam="2">  1        2 0.19033912E+00 0.25348892E+04</pdfrwt>
<pdfrwt beam="1">  1       -2 0.19975755E+00 0.25348892E+04</pdfrwt>
<totfact> 0.21367102E+00</totfact>
</mgrwt>
</event>
<event>
 4    1  0.2018023E-008  0.4769289E+04  0.7816531E-02  0.7865117E-01
         -2   -1    0    0    0  501 -0.00000000000E+00  0.00000000000E+00  0.19097048226E+04  0.19097048226E+04  0.00000000000E+00 0. -1.
          2   -1    0    0  501    0  0.00000000000E+00 -0.00000000000E+00 -0.29777011938E+04  0.29777011938E+04  0.00000000000E+00 0.  1.
    2000013    1    1    2    0    0 -0.14807381349E+04  0.11807705879E+04 -0.16552747973E+04  0.26887244671E+04  0.95000000000E+03 0.  0.
   -2000013    1    1    2    0    0  0.14807381349E+04 -0.11807705879E+04  0.58727842614E+03  0.21986815493E+04  0.95000000000E+03 0.  0.
<mgrwt>
<rscale>  0 0.47692894E+04</rscale>
<asrwt>0</asrwt>
<pdfrwt beam="2">  1        2 0.45810787E+00 0.47692894E+04</pdfrwt>
<pdfrwt beam="1">  1       -2 0.29380074E+00 0.47692894E+04</pdfrwt>
<totfact> 0.46218518E-02</totfact>
</mgrwt>
</event>
<event>
 4    1  0.2018023E-008  0.2141032E+04  0.7816531E-02  0.8543381E-01
          2   -1    0    0  501    0  0.00000000000E+00  0.00000000000E+00  0.19773919281E+04  0.19773919281E+04  0.00000000000E+00 0.  1.
         -2   -1    0    0    0  501 -0.00000000000E+00 -0.00000000000E+00 -0.57955362034E+03  0.57955362034E+03  0.00000000000E+00 0. -1.
    2000013    1    1    2    0    0 -0.67545475087E+02 -0.14846494528E+03  0.12551159590E+04  0.15825360349E+04  0.95000000000E+03 0.  0.
   -2000013    1    1    2    0    0  0.67545475087E+02  0.14846494528E+03  0.14272234870E+03  0.97440951350E+03  0.95000000000E+03 0.  0.
<mgrwt>
<rscale>  0 0.21410321E+04</rscale>
<asrwt>0</asrwt>
<pdfrwt beam="1">  1        2 0.30421414E+00 0.21410321E+04</pdfrwt>
<pdfrwt beam="2">  1       -2 0.89162096E-01 0.21410321E+04</pdfrwt>
<totfact> 0.68207319E+00</totfact>
</mgrwt>
</event>
<event>
 4    1  0.2018023E-008  0.3057763E+04  0.7816531E-02  0.8227426E-01
         -2   -1    0    0    0  501 -0.00000000000E+00  0.00000000000E+00  0.89443497564E+03  0.89443497564E+03  0.00000000000E+00 0. -1.
          2   -1    0    0  501    0  0.00000000000E+00 -0.00000000000E+00 -0.26133586365E+04  0.26133586365E+04  0.00000000000E+00 0.  1.
    2000013    1    1    2    0    0 -0.11432602628E+04  0.48651127963E+02 -0.12659709917E+04  0.19530984391E+04  0.95000000000E+03 0.  0.
   -2000013    1    1    2    0    0  0.11432602628E+04 -0.48651127963E+02 -0.45295266916E+03  0.15546951731E+04  0.95000000000E+03 0.  0.
<mgrwt>
<rscale>  0 0.30577635E+04</rscale>
<asrwt>0</asrwt>
<pdfrwt beam="2">  1        2 0.40205517E+00 0.30577635E+04</pdfrwt>
<pdfrwt beam="1">  1       -2 0.13760538E+00 0.30577635E+04</pdfrwt>
<totfact> 0.95609352E-01</totfact>
</mgrwt>
</event>
<event>
 4    1  0.2018023E-008  0.2224429E+04  0.7816531E-02  0.8508328E-01
          1   -1    0    0  501    0  0.00000000000E+00  0.00000000000E+00  0.22754855188E+04  0.22754855188E+04  0.00000000000E+00 0.  1.
         -1   -1    0    0    0  501 -0.00000000000E+00 -0.00000000000E+00 -0.54362970592E+03  0.54362970592E+03  0.00000000000E+00 0. -1.
    2000013    1    1    2    0    0  0.42845168509E+03 -0.38851058966E+03  0.86188059968E+03  0.14070712465E+04  0.95000000000E+03 0.  0.
   -2000013    1    1    2    0    0 -0.42845168509E+03  0.38851058966E+03  0.86997521319E+03  0.14120439782E+04  0.95000000000E+03 0.  0.
<mgrwt>
<rscale>  0 0.22244294E+04</rscale>
<asrwt>0</asrwt>
<pdfrwt beam="1">  1        1 0.35007469E+00 0.22244294E+04</pdfrwt>
<pdfrwt beam="2">  1       -1 0.83635340E-01 0.22244294E+04</pdfrwt>
<totfact> 0.24952213E+00</totfact>
</mgrwt>
</event>
<event>
 4    1  0.2018023E-008  0.2694127E+04  0.7816531E-02  0.8336913E-01
          2   -1    0    0  501    0  0.00000000000E+00  0.00000000000E+00  0.19295047157E+04  0.19295047157E+04  0.00000000000E+00 0.  1.
         -2   -1    0    0    0  501 -0.00000000000E+00 -0.00000000000E+00 -0.94043806354E+03  0.94043806354E+03  0.00000000000E+00 0. -1.
    2000013    1    1    2    0    0  0.67942625889E+03 -0.65213984014E+03  0.66354823027E+03  0.14932188943E+04  0.95000000000E+03 0.  0.
   -2000013    1    1    2    0    0 -0.67942625889E+03  0.65213984014E+03  0.32551842187E+03  0.13767238849E+04  0.95000000000E+03 0.  0.
<mgrwt>
<rscale>  0 0.26941267E+04</rscale>
<asrwt>0</asrwt>
<pdfrwt beam="1">  1        2 0.29684688E+00 0.26941267E+04</pdfrwt>
<pdfrwt beam="2">  1       -2 0.14468278E+00 0.26941267E+04</pdfrwt>
<totfact> 0.21153999E+00</totfact>
</mgrwt>
</event>
<event>
 4    1  0.2018023E-008  0.2623040E+04  0.7816531E-02  0.8360417E-01
         -2   -1    0    0    0  501 -0.00000000000E+00  0.00000000000E+00  0.22840434441E+04  0.22840434441E+04  0.00000000000E+00 0. -1.
          2   -1    0    0  501    0  0.00000000000E+00 -0.00000000000E+00 -0.75308734833E+03  0.75308734833E+03  0.00000000000E+00 0.  1.
    2000013    1    1    2    0    0 -0.25360958661E+03  0.85006873037E+03  0.56277013178E+03  0.14163844429E+04  0.95000000000E+03 0.  0.
   -2000013    1    1    2    0    0  0.25360958661E+03 -0.85006873037E+03  0.96818596400E+03  0.16207463496E+04  0.95000000000E+03 0.  0.
<mgrwt>
<rscale>  0 0.26230396E+04</rscale>
<asrwt>0</asrwt>
<pdfrwt beam="2">  1        2 0.11585959E+00 0.26230396E+04</pdfrwt>
<pdfrwt beam="1">  1       -2 0.35139130E+00 0.26230396E+04</pdfrwt>
<totfact> 0.50221528E-01</totfact>
</mgrwt>
</event>
<event>
 4    1  0.2018023E-008  0.2032807E+04  0.7816531E-02  0.8591434E-01
          2   -1    0    0  501    0  0.00000000000E+00  0.00000000000E+00  0.83185298748E+03  0.83185298748E+03  0.00000000000E+00 0. -1.
         -2   -1    0    0    0  501 -0.00000000000E+00 -0.00000000000E+00 -0.12418973707E+04  0.12418973707E+04  0.00000000000E+00 0.  1.
    2000013    1    1    2    0    0 -0.15216651920E+03  0.27691476426E+03 -0.38388063725E+03  0.10722410083E+04  0.95000000000E+03 0.  0.
   -2000013    1    1    2    0    0  0.15216651920E+03 -0.27691476426E+03 -0.26163745941E+02  0.10015093498E+04  0.95000000000E+03 0.  0.
<mgrwt>
<rscale>  0 0.20328070E+04</rscale>
<asrwt>0</asrwt>
<pdfrwt beam="1">  1        2 0.12797738E+00 0.20328070E+04</pdfrwt>
<pdfrwt beam="2">  1       -2 0.19106113E+00 0.20328070E+04</pdfrwt>
<totfact> 0.46158668E+00</totfact>
</mgrwt>
</event>
<event>
 4    1  0.2018023E-008  0.2795628E+04  0.7816531E-02  0.8304627E-01
          2   -1    0    0  501    0  0.00000000000E+00  0.00000000000E+00  0.28245588774E+04  0.28245588774E+04  0.00000000000E+00 0.  1.
         -2   -1    0    0    0  501 -0.00000000000E+00 -0.00000000000E+00 -0.69174846124E+03  0.69174846124E+03  0.00000000000E+00 0. -1.
    2000013    1    1    2    0    0  0.84322323068E+03 -0.43972394288E+03  0.15486511535E+04  0.20506591520E+04  0.95000000000E+03 0.  0.
   -2000013    1    1    2    0    0 -0.84322323068E+03  0.43972394288E+03  0.58415926272E+03  0.14656481866E+04  0.95000000000E+03 0.  0.
<mgrwt>
<rscale>  0 0.27956282E+04</rscale>
<asrwt>0</asrwt>
<pdfrwt beam="1">  1        2 0.43454751E+00 0.27956282E+04</pdfrwt>
<pdfrwt beam="2">  1       -2 0.10642284E+00 0.27956282E+04</pdfrwt>
<totfact> 0.13836328E+00</totfact>
</mgrwt>
</event>
<event>
 4    1  0.2018023E-008  0.2788435E+04  0.7816531E-02  0.8306868E-01
         -2   -1    0    0    0  501 -0.00000000000E+00  0.00000000000E+00  0.94685644382E+03  0.94685644382E+03  0.00000000000E+00 0. -1.
          2   -1    0    0  501    0  0.00000000000E+00 -0.00000000000E+00 -0.20529426161E+04  0.20529426161E+04  0.00000000000E+00 0.  1.
    2000013    1    1    2    0    0  0.94132275854E+03 -0.37449320972E+02 -0.13107287215E+03  0.13443106357E+04  0.95000000000E+03 0.  0.
   -2000013    1    1    2    0    0 -0.94132275854E+03  0.37449320972E+02 -0.97501330014E+03  0.16554884243E+04  0.95000000000E+03 0.  0.
<mgrwt>
<rscale>  0 0.27884346E+04</rscale>
<asrwt>0</asrwt>
<pdfrwt beam="2">  1        2 0.31583732E+00 0.27884346E+04</pdfrwt>
<pdfrwt beam="1">  1       -2 0.14567022E+00 0.27884346E+04</pdfrwt>
<totfact> 0.17601945E+00</totfact>
</mgrwt>
</event>
<event>
 4    1  0.2018023E-008  0.2459402E+04  0.7816531E-02  0.8417593E-01
         -2   -1    0    0    0  501 -0.00000000000E+00  0.00000000000E+00  0.16724157912E+04  0.16724157912E+04  0.00000000000E+00 0. -1.
          2   -1    0    0  501    0  0.00000000000E+00 -0.00000000000E+00 -0.90417987550E+03  0.90417987550E+03  0.00000000000E+00 0.  1.
    2000013    1    1    2    0    0  0.60485870860E+03 -0.37055150153E+03  0.72601557774E+03  0.13902377825E+04  0.95000000000E+03 0.  0.
   -2000013    1    1    2    0    0 -0.60485870860E+03  0.37055150153E+03  0.42220338008E+02  0.11863578843E+04  0.95000000000E+03 0.  0.
<mgrwt>
<rscale>  0 0.24594021E+04</rscale>
<asrwt>0</asrwt>
<pdfrwt beam="2">  1        2 0.13910460E+00 0.24594021E+04</pdfrwt>
<pdfrwt beam="1">  1       -2 0.25729474E+00 0.24594021E+04</pdfrwt>
<totfact> 0.15108288E+00</totfact>
</mgrwt>
</event>
<event>
 4    1  0.2018023E-008  0.2319906E+04  0.7816531E-02  0.8470114E-01
         -3   -1    0    0    0  501 -0.00000000000E+00  0.00000000000E+00  0.59365273488E+03  0.59365273488E+03  0.00000000000E+00 0. -1.
          3   -1    0    0  501    0  0.00000000000E+00 -0.00000000000E+00 -0.22664603986E+04  0.22664603986E+04  0.00000000000E+00 0.  1.
    2000013    1    1    2    0    0  0.31950150663E+03  0.45109020322E+03 -0.12934380080E+04  0.16973642699E+04  0.95000000000E+03 0.  0.
   -2000013    1    1    2    0    0 -0.31950150663E+03 -0.45109020322E+03 -0.37936965579E+03  0.11627488636E+04  0.95000000000E+03 0.  0.
<mgrwt>
<rscale>  0 0.23199055E+04</rscale>
<asrwt>0</asrwt>
<pdfrwt beam="2">  1        3 0.34868622E+00 0.23199055E+04</pdfrwt>
<pdfrwt beam="1">  1       -3 0.91331188E-01 0.23199055E+04</pdfrwt>
<totfact> 0.53399292E-02</totfact>
</mgrwt>
</event>
<event>
 4    1  0.2018023E-008  0.2549092E+04  0.7816531E-02  0.8385702E-01
          2   -1    0    0  501    0  0.00000000000E+00  0.00000000000E+00  0.14426801161E+04  0.14426801161E+04  0.00000000000E+00 0.  1.
         -2   -1    0    0    0  501 -0.00000000000E+00 -0.00000000000E+00 -0.11260070969E+04  0.11260070969E+04  0.00000000000E+00 0. -1.
    2000013    1    1    2    0    0 -0.64544184749E+03 -0.54163426052E+03  0.26874699389E+03  0.12979552370E+04  0.95000000000E+03 0.  0.
   -2000013    1    1    2    0    0  0.64544184749E+03  0.54163426052E+03  0.47926025321E+02  0.12707319759E+04  0.95000000000E+03 0.  0.
<mgrwt>
<rscale>  0 0.25490924E+04</rscale>
<asrwt>0</asrwt>
<pdfrwt beam="1">  1        2 0.22195079E+00 0.25490924E+04</pdfrwt>
<pdfrwt beam="2">  1       -2 0.17323186E+00 0.25490924E+04</pdfrwt>
<totfact> 0.24574606E+00</totfact>
</mgrwt>
</event>
<event>
 4    1  0.2018023E-008  0.2829944E+04  0.7816531E-02  0.8294032E-01
          2   -1    0    0  501    0  0.00000000000E+00  0.00000000000E+00  0.84802087530E+03  0.84802087530E+03  0.00000000000E+00 0.  1.
         -2   -1    0    0    0  501 -0.00000000000E+00 -0.00000000000E+00 -0.23609629405E+04  0.23609629405E+04  0.00000000000E+00 0. -1.
    2000013    1    1    2    0    0 -0.31890111117E+03  0.56760912279E+03 -0.16886266676E+04  0.20439760413E+04  0.95000000000E+03 0.  0.
   -2000013    1    1    2    0    0  0.31890111117E+03 -0.56760912279E+03  0.17568460244E+03  0.11650077744E+04  0.95000000000E+03 0.  0.
<mgrwt>
<rscale>  0 0.28299441E+04</rscale>
<asrwt>0</asrwt>
<pdfrwt beam="1">  1        2 0.13046475E+00 0.28299441E+04</pdfrwt>
<pdfrwt beam="2">  1       -2 0.36322506E+00 0.28299441E+04</pdfrwt>
<totfact> 0.35445303E-01</totfact>
</mgrwt>
</event>
<event>
 4    1  0.2018023E-008  0.2357222E+04  0.7816531E-02  0.8455695E-01
         -2   -1    0    0    0  501 -0.00000000000E+00  0.00000000000E+00  0.82736758399E+03  0.82736758399E+03  0.00000000000E+00 0. -1.
          2   -1    0    0  501    0  0.00000000000E+00 -0.00000000000E+00 -0.16789687109E+04  0.16789687109E+04  0.00000000000E+00 0.  1.
    2000013    1    1    2    0    0  0.67239425188E+03  0.35526603657E+02 -0.61967579013E+03  0.13190429312E+04  0.95000000000E+03 0.  0.
   -2000013    1    1    2    0    0 -0.67239425188E+03 -0.35526603657E+02 -0.23192533676E+03  0.11872933636E+04  0.95000000000E+03 0.  0.
<mgrwt>
<rscale>  0 0.23572223E+04</rscale>
<asrwt>0</asrwt>
<pdfrwt beam="2">  1        2 0.25830288E+00 0.23572223E+04</pdfrwt>
<pdfrwt beam="1">  1       -2 0.12728732E+00 0.23572223E+04</pdfrwt>
<totfact> 0.41652891E+00</totfact>
</mgrwt>
</event>
<event>
 4    1  0.2018023E-008  0.2412323E+04  0.7816531E-02  0.8434904E-01
          2   -1    0    0  501    0  0.00000000000E+00  0.00000000000E+00  0.12409396862E+04  0.12409396862E+04  0.00000000000E+00 0.  1.
         -2   -1    0    0    0  501 -0.00000000000E+00 -0.00000000000E+00 -0.11723582856E+04  0.11723582856E+04  0.00000000000E+00 0. -1.
    2000013    1    1    2    0    0  0.27434726458E+03 -0.67860667761E+03 -0.94417717924E+02  0.12029913341E+04  0.95000000000E+03 0.  0.
   -2000013    1    1    2    0    0 -0.27434726458E+03  0.67860667761E+03  0.16299911856E+03  0.12103066376E+04  0.95000000000E+03 0.  0.
<mgrwt>
<rscale>  0 0.24123233E+04</rscale>
<asrwt>0</asrwt>
<pdfrwt beam="1">  1        2 0.19091380E+00 0.24123233E+04</pdfrwt>
<pdfrwt beam="2">  1       -2 0.18036281E+00 0.24123233E+04</pdfrwt>
<totfact> 0.29002236E+00</totfact>
</mgrwt>
</event>
<event>
 4    1  0.2018023E-008  0.2143575E+04  0.7816531E-02  0.8542288E-01
         -2   -1    0    0    0  501 -0.00000000000E+00  0.00000000000E+00  0.37286471501E+03  0.37286471501E+03  0.00000000000E+00 0. -1.
          2   -1    0    0  501    0  0.00000000000E+00 -0.00000000000E+00 -0.30808174535E+04  0.30808174535E+04  0.00000000000E+00 0.  1.
    2000013    1    1    2    0    0 -0.47165970541E+03 -0.15257612896E+03 -0.13894870199E+04  0.17546841686E+04  0.95000000000E+03 0.  0.
   -2000013    1    1    2    0    0  0.47165970541E+03  0.15257612896E+03 -0.13184657186E+04  0.16989980000E+04  0.95000000000E+03 0.  0.
<mgrwt>
<rscale>  0 0.21435747E+04</rscale>
<asrwt>0</asrwt>
<pdfrwt beam="2">  1        2 0.47397191E+00 0.21435747E+04</pdfrwt>
<pdfrwt beam="1">  1       -2 0.57363803E-01 0.21435747E+04</pdfrwt>
<totfact> 0.40545208E+00</totfact>
</mgrwt>
</event>
<event>
 4    1  0.2018023E-008  0.2264765E+04  0.7816531E-02  0.8491945E-01
         -2   -1    0    0    0  501 -0.00000000000E+00  0.00000000000E+00  0.64611412233E+03  0.64611412233E+03  0.00000000000E+00 0. -1.
          2   -1    0    0  501    0  0.00000000000E+00 -0.00000000000E+00 -0.19846187627E+04  0.19846187627E+04  0.00000000000E+00 0.  1.
    2000013    1    1    2    0    0  0.55783645887E+03 -0.26147491091E+03 -0.68723135392E+03  0.13245140912E+04  0.95000000000E+03 0.  0.
   -2000013    1    1    2    0    0 -0.55783645887E+03  0.26147491091E+03 -0.65127328649E+03  0.13062187939E+04  0.95000000000E+03 0.  0.
<mgrwt>
<rscale>  0 0.22647651E+04</rscale>
<asrwt>0</asrwt>
<pdfrwt beam="2">  1        2 0.30532596E+00 0.22647651E+04</pdfrwt>
<pdfrwt beam="1">  1       -2 0.99402174E-01 0.22647651E+04</pdfrwt>
<totfact> 0.51905058E+00</totfact>
</mgrwt>
</event>
<event>
 4    1  0.2018023E-008  0.2253261E+04  0.7816531E-02  0.8496581E-01
          2   -1    0    0  501    0  0.00000000000E+00  0.00000000000E+00  0.85699531812E+03  0.85699531812E+03  0.00000000000E+00 0. -1.
         -2   -1    0    0    0  501 -0.00000000000E+00 -0.00000000000E+00 -0.14811011745E+04  0.14811011745E+04  0.00000000000E+00 0.  1.
    2000013    1    1    2    0    0 -0.87822798078E+02 -0.56938799924E+03 -0.11825605235E+03  0.11173182320E+04  0.95000000000E+03 0.  0.
   -2000013    1    1    2    0    0  0.87822798078E+02  0.56938799924E+03 -0.50584980408E+03  0.12207782607E+04  0.95000000000E+03 0.  0.
<mgrwt>
<rscale>  0 0.22532614E+04</rscale>
<asrwt>0</asrwt>
<pdfrwt beam="1">  1        2 0.13184543E+00 0.22532614E+04</pdfrwt>
<pdfrwt beam="2">  1       -2 0.22786172E+00 0.22532614E+04</pdfrwt>
<totfact> 0.25177729E+00</totfact>
</mgrwt>
</event>
<event>
 4    1  0.2018023E-008  0.3629030E+04  0.7816531E-02  0.8083874E-01
          2   -1    0    0  501    0  0.00000000000E+00  0.00000000000E+00  0.10237482484E+04  0.10237482484E+04  0.00000000000E+00 0.  1.
         -2   -1    0    0    0  501 -0.00000000000E+00 -0.00000000000E+00 -0.32160886757E+04  0.32160886757E+04  0.00000000000E+00 0. -1.
    2000013    1    1    2    0    0 -0.92340878362E+03  0.12097841513E+04 -0.77899215775E+03  0.19559116177E+04  0.95000000000E+03 0.  0.
   -2000013    1    1    2    0    0  0.92340878362E+03 -0.12097841513E+04 -0.14133482695E+04  0.22839253064E+04  0.95000000000E+03 0.  0.
<mgrwt>
<rscale>  0 0.36290303E+04</rscale>
<asrwt>0</asrwt>
<pdfrwt beam="1">  1        2 0.15749973E+00 0.36290303E+04</pdfrwt>
<pdfrwt beam="2">  1       -2 0.49478286E+00 0.36290303E+04</pdfrwt>
<totfact> 0.35136901E-02</totfact>
</mgrwt>
</event>
<event>
 4    1  0.2018023E-008  0.3739386E+04  0.7816531E-02  0.8059289E-01
         -2   -1    0    0    0  501 -0.00000000000E+00  0.00000000000E+00  0.16374025127E+04  0.16374025127E+04  0.00000000000E+00 0.  1.
          2   -1    0    0  501    0  0.00000000000E+00 -0.00000000000E+00 -0.21349379969E+04  0.21349379969E+04  0.00000000000E+00 0. -1.
    2000013    1    1    2    0    0  0.13463248733E+04  0.70208789616E+03  0.29236859634E+03  0.18147995687E+04  0.95000000000E+03 0.  0.
   -2000013    1    1    2    0    0 -0.13463248733E+04 -0.70208789616E+03 -0.78990408054E+03  0.19575409408E+04  0.95000000000E+03 0.  0.
<mgrwt>
<rscale>  0 0.37393865E+04</rscale>
<asrwt>0</asrwt>
<pdfrwt beam="2">  1        2 0.32845200E+00 0.37393865E+04</pdfrwt>
<pdfrwt beam="1">  1       -2 0.25190808E+00 0.37393865E+04</pdfrwt>
<totfact> 0.28312921E-01</totfact>
</mgrwt>
</event>
<event>
 4    1  0.2018023E-008  0.3602843E+04  0.7816531E-02  0.8089841E-01
         -2   -1    0    0    0  501 -0.00000000000E+00  0.00000000000E+00  0.10342590101E+04  0.10342590101E+04  0.00000000000E+00 0. -1.
          2   -1    0    0  501    0  0.00000000000E+00 -0.00000000000E+00 -0.31376277291E+04  0.31376277291E+04  0.00000000000E+00 0.  1.
    2000013    1    1    2    0    0  0.68776993729E+03  0.96895815041E+03 -0.21687916651E+04  0.26491630132E+04  0.95000000000E+03 0.  0.
   -2000013    1    1    2    0    0 -0.68776993729E+03 -0.96895815041E+03  0.65422946024E+02  0.15227237260E+04  0.95000000000E+03 0.  0.
<mgrwt>
<rscale>  0 0.36028432E+04</rscale>
<asrwt>0</asrwt>
<pdfrwt beam="2">  1        2 0.48271196E+00 0.36028432E+04</pdfrwt>
<pdfrwt beam="1">  1       -2 0.15911677E+00 0.36028432E+04</pdfrwt>
<totfact> 0.29631993E-01</totfact>
</mgrwt>
</event>
<event>
 4    1  0.2018023E-008  0.2248849E+04  0.7816531E-02  0.8498367E-01
         -2   -1    0    0    0  501 -0.00000000000E+00  0.00000000000E+00  0.42024106520E+03  0.42024106520E+03  0.00000000000E+00 0.  1.
          2   -1    0    0  501    0  0.00000000000E+00 -0.00000000000E+00 -0.30085828341E+04  0.30085828341E+04  0.00000000000E+00 0. -1.
    2000013    1    1    2    0    0  0.29409876383E+03 -0.46111553606E+03 -0.16759814425E+04  0.20026321220E+04  0.95000000000E+03 0.  0.
   -2000013    1    1    2    0    0 -0.29409876383E+03  0.46111553606E+03 -0.91236032648E+03  0.14261917774E+04  0.95000000000E+03 0.  0.
<mgrwt>
<rscale>  0 0.22488486E+04</rscale>
<asrwt>0</asrwt>
<pdfrwt beam="2">  1        2 0.46285889E+00 0.22488486E+04</pdfrwt>
<pdfrwt beam="1">  1       -2 0.64652472E-01 0.22488486E+04</pdfrwt>
<totfact> 0.34611611E+00</totfact>
</mgrwt>
</event>
<event>
 4    1  0.2018023E-008  0.2890667E+04  0.7816531E-02  0.8275660E-01
         -4   -1    0    0    0  501 -0.00000000000E+00  0.00000000000E+00  0.24334644720E+04  0.24334644720E+04  0.00000000000E+00 0. -1.
          4   -1    0    0  501    0  0.00000000000E+00 -0.00000000000E+00 -0.85844250370E+03  0.85844250370E+03  0.00000000000E+00 0.  1.
    2000013    1    1    2    0    0 -0.61056581393E+03 -0.44330949342E+03  0.16821621985E+04  0.20740018279E+04  0.95000000000E+03 0.  0.
   -2000013    1    1    2    0    0  0.61056581393E+03  0.44330949342E+03 -0.10714023021E+03  0.12179051478E+04  0.95000000000E+03 0.  0.
<mgrwt>
<rscale>  0 0.28906673E+04</rscale>
<asrwt>0</asrwt>
<pdfrwt beam="2">  1        4 0.13206808E+00 0.28906673E+04</pdfrwt>
<pdfrwt beam="1">  1       -4 0.37437915E+00 0.28906673E+04</pdfrwt>
<totfact> 0.72840672E-03</totfact>
</mgrwt>
</event>
<event>
 4    1  0.2018023E-008  0.2362205E+04  0.7816531E-02  0.8453790E-01
         -2   -1    0    0    0  501 -0.00000000000E+00  0.00000000000E+00  0.71202954378E+03  0.71202954378E+03  0.00000000000E+00 0. -1.
          2   -1    0    0  501    0  0.00000000000E+00 -0.00000000000E+00 -0.19591933500E+04  0.19591933500E+04  0.00000000000E+00 0.  1.
    2000013    1    1    2    0    0  0.48952015190E+03  0.46736571566E+03 -0.83344788795E+03  0.14335955054E+04  0.95000000000E+03 0.  0.
   -2000013    1    1    2    0    0 -0.48952015190E+03 -0.46736571566E+03 -0.41371591824E+03  0.12376273883E+04  0.95000000000E+03 0.  0.
<mgrwt>
<rscale>  0 0.23622054E+04</rscale>
<asrwt>0</asrwt>
<pdfrwt beam="2">  1        2 0.30141436E+00 0.23622054E+04</pdfrwt>
<pdfrwt beam="1">  1       -2 0.10954301E+00 0.23622054E+04</pdfrwt>
<totfact> 0.42142328E+00</totfact>
</mgrwt>
</event>
<event>
 4    1  0.2018023E-008  0.2216318E+04  0.7816531E-02  0.8511667E-01
         -2   -1    0    0    0  501 -0.00000000000E+00  0.00000000000E+00  0.11200111975E+04  0.11200111975E+04  0.00000000000E+00 0. -1.
          2   -1    0    0  501    0  0.00000000000E+00 -0.00000000000E+00 -0.10964321954E+04  0.10964321954E+04  0.00000000000E+00 0.  1.
    2000013    1    1    2    0    0 -0.22959853709E+02 -0.56840901457E+03  0.55385240624E+02  0.11086854773E+04  0.95000000000E+03 0.  0.
   -2000013    1    1    2    0    0  0.22959853709E+02  0.56840901457E+03 -0.31806238480E+02  0.11077579156E+04  0.95000000000E+03 0.  0.
<mgrwt>
<rscale>  0 0.22163180E+04</rscale>
<asrwt>0</asrwt>
<pdfrwt beam="2">  1        2 0.16868188E+00 0.22163180E+04</pdfrwt>
<pdfrwt beam="1">  1       -2 0.17230942E+00 0.22163180E+04</pdfrwt>
<totfact> 0.41021631E+00</totfact>
</mgrwt>
</event>
<event>
 4    1  0.2018023E-008  0.3539156E+04  0.7816531E-02  0.8104573E-01
         -2   -1    0    0    0  501 -0.00000000000E+00  0.00000000000E+00  0.74119424487E+03  0.74119424487E+03  0.00000000000E+00 0. -1.
          2   -1    0    0  501    0  0.00000000000E+00 -0.00000000000E+00 -0.42248113556E+04  0.42248113556E+04  0.00000000000E+00 0.  1.
    2000013    1    1    2    0    0 -0.11410042478E+04  0.96255745901E+03 -0.17731310267E+04  0.25049752879E+04  0.95000000000E+03 0.  0.
   -2000013    1    1    2    0    0  0.11410042478E+04 -0.96255745901E+03 -0.17104860840E+04  0.24610303125E+04  0.95000000000E+03 0.  0.
<mgrwt>
<rscale>  0 0.35391558E+04</rscale>
<asrwt>0</asrwt>
<pdfrwt beam="2">  1        2 0.64997098E+00 0.35391558E+04</pdfrwt>
<pdfrwt beam="1">  1       -2 0.11402988E+00 0.35391558E+04</pdfrwt>
<totfact> 0.10868631E-01</totfact>
</mgrwt>
</event>
<event>
 4    1  0.2018023E-008  0.2666505E+04  0.7816531E-02  0.8345955E-01
         -2   -1    0    0    0  501 -0.00000000000E+00  0.00000000000E+00  0.13647057821E+04  0.13647057821E+04  0.00000000000E+00 0. -1.
          2   -1    0    0  501    0  0.00000000000E+00 -0.00000000000E+00 -0.13025241117E+04  0.13025241117E+04  0.00000000000E+00 0.  1.
    2000013    1    1    2    0    0  0.77782357360E+03 -0.45199309032E+03 -0.22540610196E+03  0.13276351819E+04  0.95000000000E+03 0.  0.
   -2000013    1    1    2    0    0 -0.77782357360E+03  0.45199309032E+03  0.28758777235E+03  0.13395947119E+04  0.95000000000E+03 0.  0.
<mgrwt>
<rscale>  0 0.26665050E+04</rscale>
<asrwt>0</asrwt>
<pdfrwt beam="2">  1        2 0.20038832E+00 0.26665050E+04</pdfrwt>
<pdfrwt beam="1">  1       -2 0.20995474E+00 0.26665050E+04</pdfrwt>
<totfact> 0.16608321E+00</totfact>
</mgrwt>
</event>
<event>
 4    1  0.2018023E-008  0.2178366E+04  0.7816531E-02  0.8527487E-01
          1   -1    0    0  501    0  0.00000000000E+00  0.00000000000E+00  0.86024751578E+03  0.86024751578E+03  0.00000000000E+00 0.  1.
         -1   -1    0    0    0  501 -0.00000000000E+00 -0.00000000000E+00 -0.13790445523E+04  0.13790445523E+04  0.00000000000E+00 0. -1.
    2000013    1    1    2    0    0  0.19948037047E+03  0.47856797438E+03 -0.13349889181E+03  0.10904777294E+04  0.95000000000E+03 0.  0.
   -2000013    1    1    2    0    0 -0.19948037047E+03 -0.47856797438E+03 -0.38529814470E+03  0.11488143386E+04  0.95000000000E+03 0.  0.
<mgrwt>
<rscale>  0 0.21783660E+04</rscale>
<asrwt>0</asrwt>
<pdfrwt beam="1">  1        1 0.13234577E+00 0.21783660E+04</pdfrwt>
<pdfrwt beam="2">  1       -1 0.21216070E+00 0.21783660E+04</pdfrwt>
<totfact> 0.22288538E+00</totfact>
</mgrwt>
</event>
<event>
 4    1  0.2018023E-008  0.2593236E+04  0.7816531E-02  0.8370502E-01
          2   -1    0    0  501    0  0.00000000000E+00  0.00000000000E+00  0.20081863239E+04  0.20081863239E+04  0.00000000000E+00 0.  1.
         -2   -1    0    0    0  501 -0.00000000000E+00 -0.00000000000E+00 -0.83718260273E+03  0.83718260273E+03  0.00000000000E+00 0. -1.
    2000013    1    1    2    0    0  0.53894492256E+03  0.53462457390E+03  0.91830678618E+02  0.12195154522E+04  0.95000000000E+03 0.  0.
   -2000013    1    1    2    0    0 -0.53894492256E+03 -0.53462457390E+03  0.10791730425E+04  0.16258534744E+04  0.95000000000E+03 0.  0.
<mgrwt>
<rscale>  0 0.25932363E+04</rscale>
<asrwt>0</asrwt>
<pdfrwt beam="1">  1        2 0.30895174E+00 0.25932363E+04</pdfrwt>
<pdfrwt beam="2">  1       -2 0.12879732E+00 0.25932363E+04</pdfrwt>
<totfact> 0.26018943E+00</totfact>
</mgrwt>
</event>
<event>
 4    1  0.2018023E-008  0.3345783E+04  0.7816531E-02  0.8151343E-01
         -2   -1    0    0    0  501 -0.00000000000E+00  0.00000000000E+00  0.99782611625E+03  0.99782611625E+03  0.00000000000E+00 0. -1.
          2   -1    0    0  501    0  0.00000000000E+00 -0.00000000000E+00 -0.28046622950E+04  0.28046622950E+04  0.00000000000E+00 0.  1.
    2000013    1    1    2    0    0  0.73331454555E+03  0.80632652899E+03 -0.18598049622E+04  0.23556925078E+04  0.95000000000E+03 0.  0.
   -2000013    1    1    2    0    0 -0.73331454555E+03 -0.80632652899E+03  0.52968783456E+02  0.14467959034E+04  0.95000000000E+03 0.  0.
<mgrwt>
<rscale>  0 0.33457826E+04</rscale>
<asrwt>0</asrwt>
<pdfrwt beam="2">  1        2 0.43148650E+00 0.33457826E+04</pdfrwt>
<pdfrwt beam="1">  1       -2 0.15351171E+00 0.33457826E+04</pdfrwt>
<totfact> 0.53828619E-01</totfact>
</mgrwt>
</event>
<event>
 4    1  0.2018023E-008  0.2286832E+04  0.7816531E-02  0.8483131E-01
         -2   -1    0    0    0  501 -0.00000000000E+00  0.00000000000E+00  0.66463774012E+03  0.66463774012E+03  0.00000000000E+00 0. -1.
          2   -1    0    0  501    0  0.00000000000E+00 -0.00000000000E+00 -0.19670872727E+04  0.19670872727E+04  0.00000000000E+00 0.  1.
    2000013    1    1    2    0    0 -0.82789999398E+02  0.42930518421E+03 -0.11832747924E+04  0.15791758482E+04  0.95000000000E+03 0.  0.
   -2000013    1    1    2    0    0  0.82789999398E+02 -0.42930518421E+03 -0.11917474014E+03  0.10525491646E+04  0.95000000000E+03 0.  0.
<mgrwt>
<rscale>  0 0.22868323E+04</rscale>
<asrwt>0</asrwt>
<pdfrwt beam="2">  1        2 0.30262880E+00 0.22868323E+04</pdfrwt>
<pdfrwt beam="1">  1       -2 0.10225196E+00 0.22868323E+04</pdfrwt>
<totfact> 0.49541415E+00</totfact>
</mgrwt>
</event>
<event>
 4    1  0.2018023E-008  0.2328627E+04  0.7816531E-02  0.8466719E-01
         -2   -1    0    0    0  501 -0.00000000000E+00  0.00000000000E+00  0.91002083308E+03  0.91002083308E+03  0.00000000000E+00 0. -1.
          2   -1    0    0  501    0  0.00000000000E+00 -0.00000000000E+00 -0.14896647976E+04  0.14896647976E+04  0.00000000000E+00 0.  1.
    2000013    1    1    2    0    0 -0.66343487392E+03  0.32731858965E+02 -0.17736451586E+03  0.11726787190E+04  0.95000000000E+03 0.  0.
   -2000013    1    1    2    0    0  0.66343487392E+03 -0.32731858965E+02 -0.40227944869E+03  0.12270069117E+04  0.95000000000E+03 0.  0.
<mgrwt>
<rscale>  0 0.23286271E+04</rscale>
<asrwt>0</asrwt>
<pdfrwt beam="2">  1        2 0.22917920E+00 0.23286271E+04</pdfrwt>
<pdfrwt beam="1">  1       -2 0.14000321E+00 0.23286271E+04</pdfrwt>
<totfact> 0.41800787E+00</totfact>
</mgrwt>
</event>
<event>
 4    1  0.2018023E-008  0.2839793E+04  0.7816531E-02  0.8291020E-01
          2   -1    0    0  501    0  0.00000000000E+00  0.00000000000E+00  0.28144686425E+04  0.28144686425E+04  0.00000000000E+00 0.  1.
         -2   -1    0    0    0  501 -0.00000000000E+00 -0.00000000000E+00 -0.71633651226E+03  0.71633651226E+03  0.00000000000E+00 0. -1.
    2000013    1    1    2    0    0  0.85555550581E+03  0.14182347426E+03  0.17966357566E+04  0.22096355272E+04  0.95000000000E+03 0.  0.
   -2000013    1    1    2    0    0 -0.85555550581E+03 -0.14182347426E+03  0.30149637368E+03  0.13211696275E+04  0.95000000000E+03 0.  0.
<mgrwt>
<rscale>  0 0.28397934E+04</rscale>
<asrwt>0</asrwt>
<pdfrwt beam="1">  1        2 0.43299517E+00 0.28397934E+04</pdfrwt>
<pdfrwt beam="2">  1       -2 0.11020562E+00 0.28397934E+04</pdfrwt>
<totfact> 0.12850240E+00</totfact>
</mgrwt>
</event>
<event>
 4    1  0.2018023E-008  0.2460083E+04  0.7816531E-02  0.8417346E-01
          1   -1    0    0  501    0  0.00000000000E+00  0.00000000000E+00  0.18333584172E+04  0.18333584172E+04  0.00000000000E+00 0.  1.
         -1   -1    0    0    0  501 -0.00000000000E+00 -0.00000000000E+00 -0.82526230814E+03  0.82526230814E+03  0.00000000000E+00 0. -1.
    2000013    1    1    2    0    0  0.46869551902E+03 -0.39878060760E+03 -0.16263584021E+02  0.11320185364E+04  0.95000000000E+03 0.  0.
   -2000013    1    1    2    0    0 -0.46869551902E+03  0.39878060760E+03  0.10243596931E+04  0.15266021890E+04  0.95000000000E+03 0.  0.
<mgrwt>
<rscale>  0 0.24600826E+04</rscale>
<asrwt>0</asrwt>
<pdfrwt beam="1">  1        1 0.28205514E+00 0.24600826E+04</pdfrwt>
<pdfrwt beam="2">  1       -1 0.12696343E+00 0.24600826E+04</pdfrwt>
<totfact> 0.18552194E+00</totfact>
</mgrwt>
</event>
<event>
 4    1  0.2018023E-008  0.2723766E+04  0.7816531E-02  0.8327335E-01
          2   -1    0    0  501    0  0.00000000000E+00  0.00000000000E+00  0.16087323415E+04  0.16087323415E+04  0.00000000000E+00 0.  1.
         -2   -1    0    0    0  501 -0.00000000000E+00 -0.00000000000E+00 -0.11529112308E+04  0.11529112308E+04  0.00000000000E+00 0. -1.
    2000013    1    1    2    0    0  0.50606358236E+03 -0.83160497428E+03  0.15945572968E+03  0.13695230237E+04  0.95000000000E+03 0.  0.
   -2000013    1    1    2    0    0 -0.50606358236E+03  0.83160497428E+03  0.29636538102E+03  0.13921205486E+04  0.95000000000E+03 0.  0.
<mgrwt>
<rscale>  0 0.27237662E+04</rscale>
<asrwt>0</asrwt>
<pdfrwt beam="1">  1        2 0.24749728E+00 0.27237662E+04</pdfrwt>
<pdfrwt beam="2">  1       -2 0.17737096E+00 0.27237662E+04</pdfrwt>
<totfact> 0.18262184E+00</totfact>
</mgrwt>
</event>
<event>
 4    1  0.2018023E-008  0.2225800E+04  0.7816531E-02  0.8507766E-01
          2   -1    0    0  501    0  0.00000000000E+00  0.00000000000E+00  0.84191129072E+03  0.84191129072E+03  0.00000000000E+00 0.  1.
         -2   -1    0    0    0  501 -0.00000000000E+00 -0.00000000000E+00 -0.14711121557E+04  0.14711121557E+04  0.00000000000E+00 0. -1.
    2000013    1    1    2    0    0  0.26365622193E+03  0.27244570709E+03 -0.77031078295E+03  0.12804764617E+04  0.95000000000E+03 0.  0.
   -2000013    1    1    2    0    0 -0.26365622193E+03 -0.27244570709E+03  0.14110991797E+03  0.10325469847E+04  0.95000000000E+03 0.  0.
<mgrwt>
<rscale>  0 0.22257996E+04</rscale>
<asrwt>0</asrwt>
<pdfrwt beam="1">  1        2 0.12952481E+00 0.22257996E+04</pdfrwt>
<pdfrwt beam="2">  1       -2 0.22632495E+00 0.22257996E+04</pdfrwt>
<totfact> 0.26434167E+00</totfact>
</mgrwt>
</event>
<event>
 4    1  0.2018023E-008  0.2334351E+04  0.7816531E-02  0.8464499E-01
          2   -1    0    0  501    0  0.00000000000E+00  0.00000000000E+00  0.53733702754E+03  0.53733702754E+03  0.00000000000E+00 0.  1.
         -2   -1    0    0    0  501 -0.00000000000E+00 -0.00000000000E+00 -0.25352770327E+04  0.25352770327E+04  0.00000000000E+00 0. -1.
    2000013    1    1    2    0    0 -0.81023417623E+02 -0.66517851884E+03 -0.11355758541E+04  0.16251337719E+04  0.95000000000E+03 0.  0.
   -2000013    1    1    2    0    0  0.81023417623E+02  0.66517851884E+03 -0.86236415110E+03  0.14474802884E+04  0.95000000000E+03 0.  0.
<mgrwt>
<rscale>  0 0.23343506E+04</rscale>
<asrwt>0</asrwt>
<pdfrwt beam="1">  1        2 0.82667233E-01 0.23343506E+04</pdfrwt>
<pdfrwt beam="2">  1       -2 0.39004263E+00 0.23343506E+04</pdfrwt>
<totfact> 0.44145449E-01</totfact>
</mgrwt>
</event>
<event>
 4    1  0.2018023E-008  0.2298695E+04  0.7816531E-02  0.8478436E-01
          2   -1    0    0  501    0  0.00000000000E+00  0.00000000000E+00  0.10254116570E+04  0.10254116570E+04  0.00000000000E+00 0.  1.
         -2   -1    0    0    0  501 -0.00000000000E+00 -0.00000000000E+00 -0.12882632498E+04  0.12882632498E+04  0.00000000000E+00 0. -1.
    2000013    1    1    2    0    0  0.25525126503E+03 -0.56556498290E+03 -0.31560235574E+03  0.11777613532E+04  0.95000000000E+03 0.  0.
   -2000013    1    1    2    0    0 -0.25525126503E+03  0.56556498290E+03  0.52750762910E+02  0.11359135536E+04  0.95000000000E+03 0.  0.
<mgrwt>
<rscale>  0 0.22986954E+04</rscale>
<asrwt>0</asrwt>
<pdfrwt beam="1">  1        2 0.15775564E+00 0.22986954E+04</pdfrwt>
<pdfrwt beam="2">  1       -2 0.19819435E+00 0.22986954E+04</pdfrwt>
<totfact> 0.30065240E+00</totfact>
</mgrwt>
</event>
<event>
 4    1  0.2018023E-008  0.2301990E+04  0.7816531E-02  0.8477137E-01
          2   -1    0    0  501    0  0.00000000000E+00  0.00000000000E+00  0.11152255203E+04  0.11152255203E+04  0.00000000000E+00 0.  1.
         -2   -1    0    0    0  501 -0.00000000000E+00 -0.00000000000E+00 -0.11879115364E+04  0.11879115364E+04  0.00000000000E+00 0. -1.
    2000013    1    1    2    0    0 -0.20487857899E+03 -0.61654738058E+03 -0.49890683595E+02  0.11519960872E+04  0.95000000000E+03 0.  0.
   -2000013    1    1    2    0    0  0.20487857899E+03  0.61654738058E+03 -0.22795332499E+02  0.11511409696E+04  0.95000000000E+03 0.  0.
<mgrwt>
<rscale>  0 0.23019898E+04</rscale>
<asrwt>0</asrwt>
<pdfrwt beam="1">  1        2 0.17157316E+00 0.23019898E+04</pdfrwt>
<pdfrwt beam="2">  1       -2 0.18275562E+00 0.23019898E+04</pdfrwt>
<totfact> 0.33543030E+00</totfact>
</mgrwt>
</event>
<event>
 4    1  0.2018023E-008  0.2749061E+04  0.7816531E-02  0.8319260E-01
         -2   -1    0    0    0  501 -0.00000000000E+00  0.00000000000E+00  0.68660067423E+03  0.68660067423E+03  0.00000000000E+00 0. -1.
          2   -1    0    0  501    0  0.00000000000E+00 -0.00000000000E+00 -0.27517216075E+04  0.27517216075E+04  0.00000000000E+00 0.  1.
    2000013    1    1    2    0    0 -0.59959500373E+03  0.67121736523E+03 -0.15584413434E+04  0.20350150713E+04  0.95000000000E+03 0.  0.
   -2000013    1    1    2    0    0  0.59959500373E+03 -0.67121736523E+03 -0.50667958990E+03  0.14033072104E+04  0.95000000000E+03 0.  0.
<mgrwt>
<rscale>  0 0.27490609E+04</rscale>
<asrwt>0</asrwt>
<pdfrwt beam="2">  1        2 0.42334178E+00 0.27490609E+04</pdfrwt>
<pdfrwt beam="1">  1       -2 0.10563087E+00 0.27490609E+04</pdfrwt>
<totfact> 0.15650597E+00</totfact>
</mgrwt>
</event>
<event>
 4    1  0.2018023E-008  0.3220006E+04  0.7816531E-02  0.8183554E-01
          2   -1    0    0  501    0  0.00000000000E+00  0.00000000000E+00  0.25048552623E+04  0.25048552623E+04  0.00000000000E+00 0.  1.
         -2   -1    0    0    0  501 -0.00000000000E+00 -0.00000000000E+00 -0.10348341666E+04  0.10348341666E+04  0.00000000000E+00 0. -1.
    2000013    1    1    2    0    0 -0.92836775743E+03  0.52636577917E+03 -0.80743011789E+02  0.14310650092E+04  0.95000000000E+03 0.  0.
   -2000013    1    1    2    0    0  0.92836775743E+03 -0.52636577917E+03  0.15507641075E+04  0.21086244198E+04  0.95000000000E+03 0.  0.
<mgrwt>
<rscale>  0 0.32200061E+04</rscale>
<asrwt>0</asrwt>
<pdfrwt beam="1">  1        2 0.38536235E+00 0.32200061E+04</pdfrwt>
<pdfrwt beam="2">  1       -2 0.15920526E+00 0.32200061E+04</pdfrwt>
<totfact> 0.74224867E-01</totfact>
</mgrwt>
</event>
<event>
 4    1  0.2018023E-008  0.3616880E+04  0.7816531E-02  0.8086636E-01
         -2   -1    0    0    0  501 -0.00000000000E+00  0.00000000000E+00  0.95131855352E+03  0.95131855352E+03  0.00000000000E+00 0. -1.
          2   -1    0    0  501    0  0.00000000000E+00 -0.00000000000E+00 -0.34378121846E+04  0.34378121846E+04  0.00000000000E+00 0.  1.
    2000013    1    1    2    0    0  0.14662674286E+04 -0.22696419566E+02 -0.18091906224E+04  0.25151791204E+04  0.95000000000E+03 0.  0.
   -2000013    1    1    2    0    0 -0.14662674286E+04  0.22696419566E+02 -0.67730300867E+03  0.18739516177E+04  0.95000000000E+03 0.  0.
<mgrwt>
<rscale>  0 0.36168796E+04</rscale>
<asrwt>0</asrwt>
<pdfrwt beam="2">  1        2 0.52889418E+00 0.36168796E+04</pdfrwt>
<pdfrwt beam="1">  1       -2 0.14635670E+00 0.36168796E+04</pdfrwt>
<totfact> 0.23335649E-01</totfact>
</mgrwt>
</event>
<event>
 4    1  0.2018023E-008  0.2800715E+04  0.7816531E-02  0.8303047E-01
         -2   -1    0    0    0  501 -0.00000000000E+00  0.00000000000E+00  0.15487141488E+04  0.15487141488E+04  0.00000000000E+00 0. -1.
          2   -1    0    0  501    0  0.00000000000E+00 -0.00000000000E+00 -0.12662120942E+04  0.12662120942E+04  0.00000000000E+00 0.  1.
    2000013    1    1    2    0    0 -0.25979862814E+03 -0.83089633933E+03  0.69231826580E+03  0.14627674576E+04  0.95000000000E+03 0.  0.
   -2000013    1    1    2    0    0  0.25979862814E+03  0.83089633933E+03 -0.40981621119E+03  0.13521587854E+04  0.95000000000E+03 0.  0.
<mgrwt>
<rscale>  0 0.28007146E+04</rscale>
<asrwt>0</asrwt>
<pdfrwt beam="2">  1        2 0.19480186E+00 0.28007146E+04</pdfrwt>
<pdfrwt beam="1">  1       -2 0.23826371E+00 0.28007146E+04</pdfrwt>
<totfact> 0.11432139E+00</totfact>
</mgrwt>
</event>
<event>
 4    1  0.2018023E-008  0.2813946E+04  0.7816531E-02  0.8298952E-01
         -2   -1    0    0    0  501 -0.00000000000E+00  0.00000000000E+00  0.17708845888E+04  0.17708845888E+04  0.00000000000E+00 0. -1.
          2   -1    0    0  501    0  0.00000000000E+00 -0.00000000000E+00 -0.11178444402E+04  0.11178444402E+04  0.00000000000E+00 0.  1.
    2000013    1    1    2    0    0 -0.81001753139E+03 -0.32714449795E+03  0.90169715569E+03  0.15743918459E+04  0.95000000000E+03 0.  0.
   -2000013    1    1    2    0    0  0.81001753139E+03  0.32714449795E+03 -0.24865700711E+03  0.13143371831E+04  0.95000000000E+03 0.  0.
<mgrwt>
<rscale>  0 0.28139463E+04</rscale>
<asrwt>0</asrwt>
<pdfrwt beam="2">  1        2 0.17197607E+00 0.28139463E+04</pdfrwt>
<pdfrwt beam="1">  1       -2 0.27244378E+00 0.28139463E+04</pdfrwt>
<totfact> 0.86456572E-01</totfact>
</mgrwt>
</event>
<event>
 4    1  0.2018023E-008  0.2677312E+04  0.7816531E-02  0.8342404E-01
         -2   -1    0    0    0  501 -0.00000000000E+00  0.00000000000E+00  0.61568438663E+03  0.61568438663E+03  0.00000000000E+00 0. -1.
          2   -1    0    0  501    0  0.00000000000E+00 -0.00000000000E+00 -0.29105824901E+04  0.29105824901E+04  0.00000000000E+00 0.  1.
    2000013    1    1    2    0    0  0.93106500327E+03  0.99216094005E+02 -0.12963114725E+04  0.18600132546E+04  0.95000000000E+03 0.  0.
   -2000013    1    1    2    0    0 -0.93106500327E+03 -0.99216094005E+02 -0.99858663091E+03  0.16662536221E+04  0.95000000000E+03 0.  0.
<mgrwt>
<rscale>  0 0.26773122E+04</rscale>
<asrwt>0</asrwt>
<pdfrwt beam="2">  1        2 0.44778192E+00 0.26773122E+04</pdfrwt>
<pdfrwt beam="1">  1       -2 0.94720676E-01 0.26773122E+04</pdfrwt>
<totfact> 0.16319643E+00</totfact>
</mgrwt>
</event>
<event>
 4    1  0.2018023E-008  0.2483412E+04  0.7816531E-02  0.8408919E-01
          2   -1    0    0  501    0  0.00000000000E+00  0.00000000000E+00  0.22187033778E+04  0.22187033778E+04  0.00000000000E+00 0.  1.
         -2   -1    0    0    0  501 -0.00000000000E+00 -0.00000000000E+00 -0.69492576160E+03  0.69492576160E+03  0.00000000000E+00 0. -1.
    2000013    1    1    2    0    0 -0.22564457024E+03  0.58453147265E+03  0.13446715119E+04  0.17615998381E+04  0.95000000000E+03 0.  0.
   -2000013    1    1    2    0    0  0.22564457024E+03 -0.58453147265E+03  0.17910610436E+03  0.11520293014E+04  0.95000000000E+03 0.  0.
<mgrwt>
<rscale>  0 0.24834123E+04</rscale>
<asrwt>0</asrwt>
<pdfrwt beam="1">  1        2 0.34133898E+00 0.24834123E+04</pdfrwt>
<pdfrwt beam="2">  1       -2 0.10691166E+00 0.24834123E+04</pdfrwt>
<totfact> 0.31677604E+00</totfact>
</mgrwt>
</event>
<event>
 4    1  0.2018023E-008  0.2315369E+04  0.7816531E-02  0.8471886E-01
          2   -1    0    0  501    0  0.00000000000E+00  0.00000000000E+00  0.13429928986E+04  0.13429928986E+04  0.00000000000E+00 0.  1.
         -2   -1    0    0    0  501 -0.00000000000E+00 -0.00000000000E+00 -0.99794486673E+03  0.99794486673E+03  0.00000000000E+00 0. -1.
    2000013    1    1    2    0    0 -0.66072624932E+03 -0.23604875093E+02  0.19762768353E+03  0.11741690968E+04  0.95000000000E+03 0.  0.
   -2000013    1    1    2    0    0  0.66072624932E+03  0.23604875093E+02  0.14742034832E+03  0.11667686685E+04  0.95000000000E+03 0.  0.
<mgrwt>
<rscale>  0 0.23153685E+04</rscale>
<asrwt>0</asrwt>
<pdfrwt beam="1">  1        2 0.20661429E+00 0.23153685E+04</pdfrwt>
<pdfrwt beam="2">  1       -2 0.15352998E+00 0.23153685E+04</pdfrwt>
<totfact> 0.39803052E+00</totfact>
</mgrwt>
</event>
<event>
 4    1  0.2018023E-008  0.3204516E+04  0.7816531E-02  0.8187626E-01
          2   -1    0    0  501    0  0.00000000000E+00  0.00000000000E+00  0.37611846795E+04  0.37611846795E+04  0.00000000000E+00 0.  1.
         -2   -1    0    0    0  501 -0.00000000000E+00 -0.00000000000E+00 -0.68255885607E+03  0.68255885607E+03  0.00000000000E+00 0. -1.
    2000013    1    1    2    0    0  0.39433422284E+03 -0.36994192020E+03 -0.85198459730E+02  0.10964101793E+04  0.95000000000E+03 0.  0.
   -2000013    1    1    2    0    0 -0.39433422284E+03  0.36994192020E+03  0.31638242831E+04  0.33473333563E+04  0.95000000000E+03 0.  0.
<mgrwt>
<rscale>  0 0.32045155E+04</rscale>
<asrwt>0</asrwt>
<pdfrwt beam="1">  1        2 0.57864378E+00 0.32045155E+04</pdfrwt>
<pdfrwt beam="2">  1       -2 0.10500906E+00 0.32045155E+04</pdfrwt>
<totfact> 0.32458499E-01</totfact>
</mgrwt>
</event>
<event>
 4    1  0.2018023E-008  0.2262107E+04  0.7816531E-02  0.8493013E-01
          2   -1    0    0  501    0  0.00000000000E+00  0.00000000000E+00  0.86673265367E+03  0.86673265367E+03  0.00000000000E+00 0.  1.
         -2   -1    0    0    0  501 -0.00000000000E+00 -0.00000000000E+00 -0.14759822281E+04  0.14759822281E+04  0.00000000000E+00 0. -1.
    2000013    1    1    2    0    0  0.19286339772E+03  0.44663724581E+03 -0.69226312190E+03  0.12721671861E+04  0.95000000000E+03 0.  0.
   -2000013    1    1    2    0    0 -0.19286339772E+03 -0.44663724581E+03  0.83013547499E+02  0.10705476956E+04  0.95000000000E+03 0.  0.
<mgrwt>
<rscale>  0 0.22621070E+04</rscale>
<asrwt>0</asrwt>
<pdfrwt beam="1">  1        2 0.13334349E+00 0.22621070E+04</pdfrwt>
<pdfrwt beam="2">  1       -2 0.22707419E+00 0.22621070E+04</pdfrwt>
<totfact> 0.25054802E+00</totfact>
</mgrwt>
</event>
<event>
 4    1  0.2018023E-008  0.4092166E+04  0.7816531E-02  0.7986207E-01
         -2   -1    0    0    0  501 -0.00000000000E+00  0.00000000000E+00  0.17931740814E+04  0.17931740814E+04  0.00000000000E+00 0. -1.
          2   -1    0    0  501    0  0.00000000000E+00 -0.00000000000E+00 -0.23346625810E+04  0.23346625810E+04  0.00000000000E+00 0.  1.
    2000013    1    1    2    0    0  0.55462678889E+03 -0.13988334500E+04 -0.12893036876E+04  0.21975326834E+04  0.95000000000E+03 0.  0.
   -2000013    1    1    2    0    0 -0.55462678889E+03  0.13988334500E+04  0.74781518805E+03  0.19303039790E+04  0.95000000000E+03 0.  0.
<mgrwt>
<rscale>  0 0.40921664E+04</rscale>
<asrwt>0</asrwt>
<pdfrwt beam="2">  1        2 0.35917886E+00 0.40921664E+04</pdfrwt>
<pdfrwt beam="1">  1       -2 0.27587294E+00 0.40921664E+04</pdfrwt>
<totfact> 0.15140214E-01</totfact>
</mgrwt>
</event>
<event>
 4    1  0.2018023E-008  0.3902788E+04  0.7816531E-02  0.8024450E-01
         -2   -1    0    0    0  501 -0.00000000000E+00  0.00000000000E+00  0.89674513905E+03  0.89674513905E+03  0.00000000000E+00 0. -1.
          2   -1    0    0  501    0  0.00000000000E+00 -0.00000000000E+00 -0.42463994599E+04  0.42463994599E+04  0.00000000000E+00 0.  1.
    2000013    1    1    2    0    0  0.11681588182E+04 -0.10460094440E+04 -0.79405146571E+03  0.19979360630E+04  0.95000000000E+03 0.  0.
   -2000013    1    1    2    0    0 -0.11681588182E+04  0.10460094440E+04 -0.25556028551E+04  0.31452085359E+04  0.95000000000E+03 0.  0.
<mgrwt>
<rscale>  0 0.39027878E+04</rscale>
<asrwt>0</asrwt>
<pdfrwt beam="2">  1        2 0.65329222E+00 0.39027878E+04</pdfrwt>
<pdfrwt beam="1">  1       -2 0.13796079E+00 0.39027878E+04</pdfrwt>
<totfact> 0.62510460E-02</totfact>
</mgrwt>
</event>
<event>
 4    1  0.2018023E-008  0.2291215E+04  0.7816531E-02  0.8481393E-01
         -2   -1    0    0    0  501 -0.00000000000E+00  0.00000000000E+00  0.59234749788E+03  0.59234749788E+03  0.00000000000E+00 0. -1.
          2   -1    0    0  501    0  0.00000000000E+00 -0.00000000000E+00 -0.22156192325E+04  0.22156192325E+04  0.00000000000E+00 0.  1.
    2000013    1    1    2    0    0 -0.37510744485E+03  0.51220830014E+03 -0.71017827121E+03  0.13453312287E+04  0.95000000000E+03 0.  0.
   -2000013    1    1    2    0    0  0.37510744485E+03 -0.51220830014E+03 -0.91309346337E+03  0.14626355017E+04  0.95000000000E+03 0.  0.
<mgrwt>
<rscale>  0 0.22912150E+04</rscale>
<asrwt>0</asrwt>
<pdfrwt beam="2">  1        2 0.34086450E+00 0.22912150E+04</pdfrwt>
<pdfrwt beam="1">  1       -2 0.91130383E-01 0.22912150E+04</pdfrwt>
<totfact> 0.47131091E+00</totfact>
</mgrwt>
</event>
<event>
 4    1  0.2018023E-008  0.3692800E+04  0.7816531E-02  0.8069559E-01
         -2   -1    0    0    0  501 -0.00000000000E+00  0.00000000000E+00  0.13339666541E+04  0.13339666541E+04  0.00000000000E+00 0. -1.
          2   -1    0    0  501    0  0.00000000000E+00 -0.00000000000E+00 -0.25556806384E+04  0.25556806384E+04  0.00000000000E+00 0.  1.
    2000013    1    1    2    0    0  0.14620199755E+04 -0.23512600413E+03 -0.20717976074E+02  0.17594646575E+04  0.95000000000E+03 0.  0.
   -2000013    1    1    2    0    0 -0.14620199755E+04  0.23512600413E+03 -0.12009960082E+04  0.21301826349E+04  0.95000000000E+03 0.  0.
<mgrwt>
<rscale>  0 0.36927999E+04</rscale>
<asrwt>0</asrwt>
<pdfrwt beam="2">  1        2 0.39318163E+00 0.36927999E+04</pdfrwt>
<pdfrwt beam="1">  1       -2 0.20522564E+00 0.36927999E+04</pdfrwt>
<totfact> 0.32125303E-01</totfact>
</mgrwt>
</event>
<event>
 4    1  0.2018023E-008  0.2804224E+04  0.7816531E-02  0.8301958E-01
         -2   -1    0    0    0  501 -0.00000000000E+00  0.00000000000E+00  0.61874509647E+03  0.61874509647E+03  0.00000000000E+00 0.  1.
          2   -1    0    0  501    0  0.00000000000E+00 -0.00000000000E+00 -0.31772670534E+04  0.31772670534E+04  0.00000000000E+00 0. -1.
    2000013    1    1    2    0    0 -0.52766352106E+03  0.88186733840E+03 -0.11636058635E+04  0.18200542298E+04  0.95000000000E+03 0.  0.
   -2000013    1    1    2    0    0  0.52766352106E+03 -0.88186733840E+03 -0.13949160935E+04  0.19759579200E+04  0.95000000000E+03 0.  0.
<mgrwt>
<rscale>  0 0.28042242E+04</rscale>
<asrwt>0</asrwt>
<pdfrwt beam="2">  1        2 0.48881032E+00 0.28042242E+04</pdfrwt>
<pdfrwt beam="1">  1       -2 0.95191552E-01 0.28042242E+04</pdfrwt>
<totfact> 0.10822359E+00</totfact>
</mgrwt>
</event>
<event>
 4    1  0.2018023E-008  0.2592604E+04  0.7816531E-02  0.8370718E-01
         -2   -1    0    0    0  501 -0.00000000000E+00  0.00000000000E+00  0.23496679466E+04  0.23496679466E+04  0.00000000000E+00 0. -1.
          2   -1    0    0  501    0  0.00000000000E+00 -0.00000000000E+00 -0.71516420684E+03  0.71516420684E+03  0.00000000000E+00 0.  1.
    2000013    1    1    2    0    0 -0.62420551213E+03 -0.38308650319E+03  0.23630196183E+03  0.12225900406E+04  0.95000000000E+03 0.  0.
   -2000013    1    1    2    0    0  0.62420551213E+03  0.38308650319E+03  0.13982017779E+04  0.18422421128E+04  0.95000000000E+03 0.  0.
<mgrwt>
<rscale>  0 0.25926036E+04</rscale>
<asrwt>0</asrwt>
<pdfrwt beam="2">  1        2 0.11002526E+00 0.25926036E+04</pdfrwt>
<pdfrwt beam="1">  1       -2 0.36148737E+00 0.25926036E+04</pdfrwt>
<totfact> 0.46445693E-01</totfact>
</mgrwt>
</event>
<event>
 4    1  0.2018023E-008  0.3010122E+04  0.7816531E-02  0.8240846E-01
          2   -1    0    0  501    0  0.00000000000E+00  0.00000000000E+00  0.17100326763E+04  0.17100326763E+04  0.00000000000E+00 0.  1.
         -2   -1    0    0    0  501 -0.00000000000E+00 -0.00000000000E+00 -0.13246579990E+04  0.13246579990E+04  0.00000000000E+00 0. -1.
    2000013    1    1    2    0    0  0.95214987086E+03  0.63911848225E+03 -0.27375414586E+02  0.14893996187E+04  0.95000000000E+03 0.  0.
   -2000013    1    1    2    0    0 -0.95214987086E+03 -0.63911848225E+03  0.41275009190E+03  0.15452910565E+04  0.95000000000E+03 0.  0.
<mgrwt>
<rscale>  0 0.30101219E+04</rscale>
<asrwt>0</asrwt>
<pdfrwt beam="1">  1        2 0.26308195E+00 0.30101219E+04</pdfrwt>
<pdfrwt beam="2">  1       -2 0.20379354E+00 0.30101219E+04</pdfrwt>
<totfact> 0.10402626E+00</totfact>
</mgrwt>
</event>
<event>
 4    1  0.2018023E-008  0.2386690E+04  0.7816531E-02  0.8444504E-01
          2   -1    0    0  501    0  0.00000000000E+00  0.00000000000E+00  0.14981362896E+04  0.14981362896E+04  0.00000000000E+00 0.  1.
         -2   -1    0    0    0  501 -0.00000000000E+00 -0.00000000000E+00 -0.95056244364E+03  0.95056244364E+03  0.00000000000E+00 0. -1.
    2000013    1    1    2    0    0  0.59007230635E+03 -0.37978873619E+03  0.98625525787E+02  0.11851800729E+04  0.95000000000E+03 0.  0.
   -2000013    1    1    2    0    0 -0.59007230635E+03  0.37978873619E+03  0.44894832019E+03  0.12635186604E+04  0.95000000000E+03 0.  0.
<mgrwt>
<rscale>  0 0.23866898E+04</rscale>
<asrwt>0</asrwt>
<pdfrwt beam="1">  1        2 0.23048251E+00 0.23866898E+04</pdfrwt>
<pdfrwt beam="2">  1       -2 0.14624038E+00 0.23866898E+04</pdfrwt>
<totfact> 0.36709566E+00</totfact>
</mgrwt>
</event>
<event>
 4    1  0.2018023E-008  0.3007652E+04  0.7816531E-02  0.8241549E-01
         -2   -1    0    0    0  501 -0.00000000000E+00  0.00000000000E+00  0.80333376977E+03  0.80333376977E+03  0.00000000000E+00 0. -1.
          2   -1    0    0  501    0  0.00000000000E+00 -0.00000000000E+00 -0.28151343605E+04  0.28151343605E+04  0.00000000000E+00 0.  1.
    2000013    1    1    2    0    0 -0.60255563033E+03  0.74136395457E+03 -0.20217064495E+03  0.13623754147E+04  0.95000000000E+03 0.  0.
   -2000013    1    1    2    0    0  0.60255563033E+03 -0.74136395457E+03 -0.18096299458E+04  0.22560927156E+04  0.95000000000E+03 0.  0.
<mgrwt>
<rscale>  0 0.30076519E+04</rscale>
<asrwt>0</asrwt>
<pdfrwt beam="2">  1        2 0.43309759E+00 0.30076519E+04</pdfrwt>
<pdfrwt beam="1">  1       -2 0.12358981E+00 0.30076519E+04</pdfrwt>
<totfact> 0.95505940E-01</totfact>
</mgrwt>
</event>
<event>
 4    1  0.2018023E-008  0.2485943E+04  0.7816531E-02  0.8408011E-01
         -1   -1    0    0    0  501 -0.00000000000E+00  0.00000000000E+00  0.11330531087E+04  0.11330531087E+04  0.00000000000E+00 0. -1.
          1   -1    0    0  501    0  0.00000000000E+00 -0.00000000000E+00 -0.13635531705E+04  0.13635531705E+04  0.00000000000E+00 0.  1.
    2000013    1    1    2    0    0  0.73498983307E+02  0.54918460519E+03 -0.69693419647E+03  0.13020073369E+04  0.95000000000E+03 0.  0.
   -2000013    1    1    2    0    0 -0.73498983307E+02 -0.54918460519E+03  0.46643413463E+03  0.11945989424E+04  0.95000000000E+03 0.  0.
<mgrwt>
<rscale>  0 0.24859430E+04</rscale>
<asrwt>0</asrwt>
<pdfrwt beam="2">  1        1 0.20977741E+00 0.24859430E+04</pdfrwt>
<pdfrwt beam="1">  1       -1 0.17431586E+00 0.24859430E+04</pdfrwt>
<totfact> 0.16590054E+00</totfact>
</mgrwt>
</event>
<event>
 4    1  0.2018023E-008  0.2595682E+04  0.7816531E-02  0.8369669E-01
         -2   -1    0    0    0  501 -0.00000000000E+00  0.00000000000E+00  0.20523680048E+04  0.20523680048E+04  0.00000000000E+00 0. -1.
          2   -1    0    0  501    0  0.00000000000E+00 -0.00000000000E+00 -0.82070625699E+03  0.82070625699E+03  0.00000000000E+00 0.  1.
    2000013    1    1    2    0    0 -0.39599770978E+03 -0.29231337689E+03  0.14289298147E+04  0.17851055184E+04  0.95000000000E+03 0.  0.
   -2000013    1    1    2    0    0  0.39599770978E+03  0.29231337689E+03 -0.19726806685E+03  0.10879687434E+04  0.95000000000E+03 0.  0.
<mgrwt>
<rscale>  0 0.25956820E+04</rscale>
<asrwt>0</asrwt>
<pdfrwt beam="2">  1        2 0.12626250E+00 0.25956820E+04</pdfrwt>
<pdfrwt beam="1">  1       -2 0.31574892E+00 0.25956820E+04</pdfrwt>
<totfact> 0.74931197E-01</totfact>
</mgrwt>
</event>
<event>
 4    1  0.2018023E-008  0.2577627E+04  0.7816531E-02  0.8375841E-01
         -1   -1    0    0    0  501 -0.00000000000E+00  0.00000000000E+00  0.13397963658E+04  0.13397963658E+04  0.00000000000E+00 0. -1.
          1   -1    0    0  501    0  0.00000000000E+00 -0.00000000000E+00 -0.12397710795E+04  0.12397710795E+04  0.00000000000E+00 0.  1.
    2000013    1    1    2    0    0 -0.39769672803E+03  0.75663706202E+03  0.21710673686E+03  0.12962629619E+04  0.95000000000E+03 0.  0.
   -2000013    1    1    2    0    0  0.39769672803E+03 -0.75663706202E+03 -0.11708145054E+03  0.12833044834E+04  0.95000000000E+03 0.  0.
<mgrwt>
<rscale>  0 0.25776274E+04</rscale>
<asrwt>0</asrwt>
<pdfrwt beam="2">  1        1 0.19073401E+00 0.25776274E+04</pdfrwt>
<pdfrwt beam="1">  1       -1 0.20612252E+00 0.25776274E+04</pdfrwt>
<totfact> 0.12051147E+00</totfact>
</mgrwt>
</event>
<event>
 4    1  0.2018023E-008  0.2581805E+04  0.7816531E-02  0.8374408E-01
         -2   -1    0    0    0  501 -0.00000000000E+00  0.00000000000E+00  0.60703629651E+03  0.60703629651E+03  0.00000000000E+00 0. -1.
          2   -1    0    0  501    0  0.00000000000E+00 -0.00000000000E+00 -0.27451892590E+04  0.27451892590E+04  0.00000000000E+00 0.  1.
    2000013    1    1    2    0    0 -0.43002651871E+03 -0.73738403514E+03 -0.13129258972E+04  0.18316474644E+04  0.95000000000E+03 0.  0.
   -2000013    1    1    2    0    0  0.43002651871E+03  0.73738403514E+03 -0.82522706529E+03  0.15205780912E+04  0.95000000000E+03 0.  0.
<mgrwt>
<rscale>  0 0.25818052E+04</rscale>
<asrwt>0</asrwt>
<pdfrwt beam="2">  1        2 0.42233681E+00 0.25818052E+04</pdfrwt>
<pdfrwt beam="1">  1       -2 0.93390200E-01 0.25818052E+04</pdfrwt>
<totfact> 0.21436590E+00</totfact>
</mgrwt>
</event>
<event>
 4    1  0.2018023E-008  0.2577099E+04  0.7816531E-02  0.8376022E-01
         -2   -1    0    0    0  501 -0.00000000000E+00  0.00000000000E+00  0.75877509753E+03  0.75877509753E+03  0.00000000000E+00 0. -1.
          2   -1    0    0  501    0  0.00000000000E+00 -0.00000000000E+00 -0.21882111649E+04  0.21882111649E+04  0.00000000000E+00 0.  1.
    2000013    1    1    2    0    0 -0.64012638545E+03  0.24193254119E+03 -0.99369037005E+02  0.11750180209E+04  0.95000000000E+03 0.  0.
   -2000013    1    1    2    0    0  0.64012638545E+03 -0.24193254119E+03 -0.13300670304E+04  0.17719682416E+04  0.95000000000E+03 0.  0.
<mgrwt>
<rscale>  0 0.25770993E+04</rscale>
<asrwt>0</asrwt>
<pdfrwt beam="2">  1        2 0.33664787E+00 0.25770993E+04</pdfrwt>
<pdfrwt beam="1">  1       -2 0.11673463E+00 0.25770993E+04</pdfrwt>
<totfact> 0.26411478E+00</totfact>
</mgrwt>
</event>
<event>
 4    1  0.2018023E-008  0.2077348E+04  0.7816531E-02  0.8571288E-01
         -2   -1    0    0    0  501 -0.00000000000E+00  0.00000000000E+00  0.13703058103E+04  0.13703058103E+04  0.00000000000E+00 0. -1.
          2   -1    0    0  501    0  0.00000000000E+00 -0.00000000000E+00 -0.78730123411E+03  0.78730123411E+03  0.00000000000E+00 0.  1.
    2000013    1    1    2    0    0 -0.20040564270E+03 -0.12689279143E+03  0.65141495325E+03  0.11760551192E+04  0.95000000000E+03 0.  0.
   -2000013    1    1    2    0    0  0.20040564270E+03  0.12689279143E+03 -0.68410377063E+02  0.98155192518E+03  0.95000000000E+03 0.  0.
<mgrwt>
<rscale>  0 0.20773478E+04</rscale>
<asrwt>0</asrwt>
<pdfrwt beam="2">  1        2 0.12112327E+00 0.20773478E+04</pdfrwt>
<pdfrwt beam="1">  1       -2 0.21081628E+00 0.20773478E+04</pdfrwt>
<totfact> 0.36734074E+00</totfact>
</mgrwt>
</event>
<event>
 4    1  0.2018023E-008  0.2233633E+04  0.7816531E-02  0.8504558E-01
         -2   -1    0    0    0  501 -0.00000000000E+00  0.00000000000E+00  0.13039439229E+04  0.13039439229E+04  0.00000000000E+00 0. -1.
          2   -1    0    0  501    0  0.00000000000E+00 -0.00000000000E+00 -0.95654362712E+03  0.95654362712E+03  0.00000000000E+00 0.  1.
    2000013    1    1    2    0    0 -0.42168504920E+03  0.31400105797E+03 -0.90909073527E+02  0.10895776268E+04  0.95000000000E+03 0.  0.
   -2000013    1    1    2    0    0  0.42168504920E+03 -0.31400105797E+03  0.43830936930E+03  0.11709099232E+04  0.95000000000E+03 0.  0.
<mgrwt>
<rscale>  0 0.22336331E+04</rscale>
<asrwt>0</asrwt>
<pdfrwt beam="2">  1        2 0.14716056E+00 0.22336331E+04</pdfrwt>
<pdfrwt beam="1">  1       -2 0.20060676E+00 0.22336331E+04</pdfrwt>
<totfact> 0.32283129E+00</totfact>
</mgrwt>
</event>
<event>
 4    1  0.2018023E-008  0.2786249E+04  0.7816531E-02  0.8307550E-01
         -1   -1    0    0    0  501 -0.00000000000E+00  0.00000000000E+00  0.13606577858E+04  0.13606577858E+04  0.00000000000E+00 0. -1.
          1   -1    0    0  501    0  0.00000000000E+00 -0.00000000000E+00 -0.14263654582E+04  0.14263654582E+04  0.00000000000E+00 0.  1.
    2000013    1    1    2    0    0 -0.95516703824E+03 -0.15266461353E+03 -0.35332504688E+03  0.14010671447E+04  0.95000000000E+03 0.  0.
   -2000013    1    1    2    0    0  0.95516703824E+03  0.15266461353E+03  0.28761737442E+03  0.13859560993E+04  0.95000000000E+03 0.  0.
<mgrwt>
<rscale>  0 0.27862486E+04</rscale>
<asrwt>0</asrwt>
<pdfrwt beam="2">  1        1 0.21944084E+00 0.27862486E+04</pdfrwt>
<pdfrwt beam="1">  1       -1 0.20933197E+00 0.27862486E+04</pdfrwt>
<totfact> 0.82902761E-01</totfact>
</mgrwt>
</event>
<event>
 4    1  0.2018023E-008  0.3301642E+04  0.7816531E-02  0.8162478E-01
         -2   -1    0    0    0  501 -0.00000000000E+00  0.00000000000E+00  0.11231025123E+04  0.11231025123E+04  0.00000000000E+00 0. -1.
          2   -1    0    0  501    0  0.00000000000E+00 -0.00000000000E+00 -0.24265020341E+04  0.24265020341E+04  0.00000000000E+00 0.  1.
    2000013    1    1    2    0    0  0.13407470888E+04  0.15628163401E+03 -0.62358576535E+03  0.17644789349E+04  0.95000000000E+03 0.  0.
   -2000013    1    1    2    0    0 -0.13407470888E+04 -0.15628163401E+03 -0.67981375646E+03  0.17851256114E+04  0.95000000000E+03 0.  0.
<mgrwt>
<rscale>  0 0.33016423E+04</rscale>
<asrwt>0</asrwt>
<pdfrwt beam="2">  1        2 0.37330800E+00 0.33016423E+04</pdfrwt>
<pdfrwt beam="1">  1       -2 0.17278500E+00 0.33016423E+04</pdfrwt>
<totfact> 0.65279372E-01</totfact>
</mgrwt>
</event>
<event>
 4    1  0.2018023E-008  0.2513760E+04  0.7816531E-02  0.8398100E-01
          2   -1    0    0  501    0  0.00000000000E+00  0.00000000000E+00  0.23176319351E+04  0.23176319351E+04  0.00000000000E+00 0.  1.
         -2   -1    0    0    0  501 -0.00000000000E+00 -0.00000000000E+00 -0.68162143049E+03  0.68162143049E+03  0.00000000000E+00 0. -1.
    2000013    1    1    2    0    0 -0.53042867466E+03 -0.62911707911E+03  0.80579576302E+03  0.14929667410E+04  0.95000000000E+03 0.  0.
   -2000013    1    1    2    0    0  0.53042867466E+03  0.62911707911E+03  0.83021474156E+03  0.15062866245E+04  0.95000000000E+03 0.  0.
<mgrwt>
<rscale>  0 0.25137602E+04</rscale>
<asrwt>0</asrwt>
<pdfrwt beam="1">  1        2 0.35655876E+00 0.25137602E+04</pdfrwt>
<pdfrwt beam="2">  1       -2 0.10486484E+00 0.25137602E+04</pdfrwt>
<totfact> 0.29097071E+00</totfact>
</mgrwt>
</event>
<event>
 4    1  0.2018023E-008  0.2785519E+04  0.7816531E-02  0.8307778E-01
          2   -1    0    0  501    0  0.00000000000E+00  0.00000000000E+00  0.19012465155E+04  0.19012465155E+04  0.00000000000E+00 0.  1.
         -2   -1    0    0    0  501 -0.00000000000E+00 -0.00000000000E+00 -0.10202668897E+04  0.10202668897E+04  0.00000000000E+00 0. -1.
    2000013    1    1    2    0    0 -0.20782165855E+03 -0.71421588222E+03 -0.28916523679E+03  0.12407299071E+04  0.95000000000E+03 0.  0.
   -2000013    1    1    2    0    0  0.20782165855E+03  0.71421588222E+03  0.11701448626E+04  0.16807834982E+04  0.95000000000E+03 0.  0.
<mgrwt>
<rscale>  0 0.27855189E+04</rscale>
<asrwt>0</asrwt>
<pdfrwt beam="1">  1        2 0.29249946E+00 0.27855189E+04</pdfrwt>
<pdfrwt beam="2">  1       -2 0.15696414E+00 0.27855189E+04</pdfrwt>
<totfact> 0.17527597E+00</totfact>
</mgrwt>
</event>
<event>
 4    1  0.2018023E-008  0.2715677E+04  0.7816531E-02  0.8329936E-01
          2   -1    0    0  501    0  0.00000000000E+00  0.00000000000E+00  0.13609699881E+04  0.13609699881E+04  0.00000000000E+00 0.  1.
         -2   -1    0    0    0  501 -0.00000000000E+00 -0.00000000000E+00 -0.13547140778E+04  0.13547140778E+04  0.00000000000E+00 0. -1.
    2000013    1    1    2    0    0  0.87368144270E+03  0.35855949425E+03 -0.21900103881E+03  0.13573303317E+04  0.95000000000E+03 0.  0.
   -2000013    1    1    2    0    0 -0.87368144270E+03 -0.35855949425E+03  0.22525694905E+03  0.13583537342E+04  0.95000000000E+03 0.  0.
<mgrwt>
<rscale>  0 0.27156769E+04</rscale>
<asrwt>0</asrwt>
<pdfrwt beam="1">  1        2 0.20938000E+00 0.27156769E+04</pdfrwt>
<pdfrwt beam="2">  1       -2 0.20841755E+00 0.27156769E+04</pdfrwt>
<totfact> 0.15652497E+00</totfact>
</mgrwt>
</event>
<event>
 4    1  0.2018023E-008  0.3276711E+04  0.7816531E-02  0.8168847E-01
          2   -1    0    0  501    0  0.00000000000E+00  0.00000000000E+00  0.24717099162E+04  0.24717099162E+04  0.00000000000E+00 0. -1.
         -2   -1    0    0    0  501 -0.00000000000E+00 -0.00000000000E+00 -0.10859721717E+04  0.10859721717E+04  0.00000000000E+00 0.  1.
    2000013    1    1    2    0    0  0.11451352809E+04 -0.49099771109E+03  0.17296149791E+03  0.15763341154E+04  0.95000000000E+03 0.  0.
   -2000013    1    1    2    0    0 -0.11451352809E+04  0.49099771109E+03  0.12127762466E+04  0.19813479725E+04  0.95000000000E+03 0.  0.
<mgrwt>
<rscale>  0 0.32767107E+04</rscale>
<asrwt>0</asrwt>
<pdfrwt beam="1">  1        2 0.38026306E+00 0.32767107E+04</pdfrwt>
<pdfrwt beam="2">  1       -2 0.16707264E+00 0.32767107E+04</pdfrwt>
<totfact> 0.67648954E-01</totfact>
</mgrwt>
</event>
<event>
 4    1  0.2018023E-008  0.2257866E+04  0.7816531E-02  0.8494722E-01
         -2   -1    0    0    0  501 -0.00000000000E+00  0.00000000000E+00  0.63199987091E+03  0.63199987091E+03  0.00000000000E+00 0. -1.
          2   -1    0    0  501    0  0.00000000000E+00 -0.00000000000E+00 -0.20165976063E+04  0.20165976063E+04  0.00000000000E+00 0.  1.
    2000013    1    1    2    0    0 -0.48975266428E+03 -0.34794370631E+03 -0.81570350104E+03  0.13888105330E+04  0.95000000000E+03 0.  0.
   -2000013    1    1    2    0    0  0.48975266428E+03  0.34794370631E+03 -0.56889423434E+03  0.12597869442E+04  0.95000000000E+03 0.  0.
<mgrwt>
<rscale>  0 0.22578657E+04</rscale>
<asrwt>0</asrwt>
<pdfrwt beam="2">  1        2 0.31024579E+00 0.22578657E+04</pdfrwt>
<pdfrwt beam="1">  1       -2 0.97230748E-01 0.22578657E+04</pdfrwt>
<totfact> 0.52513158E+00</totfact>
</mgrwt>
</event>
<event>
 4    1  0.2018023E-008  0.2503901E+04  0.7816531E-02  0.8401597E-01
         -2   -1    0    0    0  501 -0.00000000000E+00  0.00000000000E+00  0.13654171500E+04  0.13654171500E+04  0.00000000000E+00 0. -1.
          2   -1    0    0  501    0  0.00000000000E+00 -0.00000000000E+00 -0.11479134246E+04  0.11479134246E+04  0.00000000000E+00 0.  1.
    2000013    1    1    2    0    0 -0.61554040620E+03 -0.47590029544E+03 -0.13611266036E+03  0.12354747020E+04  0.95000000000E+03 0.  0.
   -2000013    1    1    2    0    0  0.61554040620E+03  0.47590029544E+03  0.35361638581E+03  0.12778558726E+04  0.95000000000E+03 0.  0.
<mgrwt>
<rscale>  0 0.25039015E+04</rscale>
<asrwt>0</asrwt>
<pdfrwt beam="2">  1        2 0.17660207E+00 0.25039015E+04</pdfrwt>
<pdfrwt beam="1">  1       -2 0.21006417E+00 0.25039015E+04</pdfrwt>
<totfact> 0.20767214E+00</totfact>
</mgrwt>
</event>
<event>
 4    1  0.2018023E-008  0.2377894E+04  0.7816531E-02  0.8447826E-01
          2   -1    0    0  501    0  0.00000000000E+00  0.00000000000E+00  0.14920158543E+04  0.14920158543E+04  0.00000000000E+00 0.  1.
         -2   -1    0    0    0  501 -0.00000000000E+00 -0.00000000000E+00 -0.94743984697E+03  0.94743984697E+03  0.00000000000E+00 0. -1.
    2000013    1    1    2    0    0 -0.66385458609E+03 -0.20486176600E+03  0.44524699084E+03  0.12583386418E+04  0.95000000000E+03 0.  0.
   -2000013    1    1    2    0    0  0.66385458609E+03  0.20486176600E+03  0.99329016502E+02  0.11811170595E+04  0.95000000000E+03 0.  0.
<mgrwt>
<rscale>  0 0.23778943E+04</rscale>
<asrwt>0</asrwt>
<pdfrwt beam="1">  1        2 0.22954090E+00 0.23778943E+04</pdfrwt>
<pdfrwt beam="2">  1       -2 0.14575998E+00 0.23778943E+04</pdfrwt>
<totfact> 0.37352183E+00</totfact>
</mgrwt>
</event>
<event>
 4    1  0.2018023E-008  0.2397474E+04  0.7816531E-02  0.8440450E-01
          2   -1    0    0  501    0  0.00000000000E+00  0.00000000000E+00  0.16172667579E+04  0.16172667579E+04  0.00000000000E+00 0.  1.
         -2   -1    0    0    0  501 -0.00000000000E+00 -0.00000000000E+00 -0.88851787524E+03  0.88851787524E+03  0.00000000000E+00 0. -1.
    2000013    1    1    2    0    0  0.30342297463E+03 -0.57417808063E+03  0.71528699140E+03  0.13549470284E+04  0.95000000000E+03 0.  0.
   -2000013    1    1    2    0    0 -0.30342297463E+03  0.57417808063E+03  0.13461891231E+02  0.11508376047E+04  0.95000000000E+03 0.  0.
<mgrwt>
<rscale>  0 0.23974740E+04</rscale>
<asrwt>0</asrwt>
<pdfrwt beam="1">  1        2 0.24881027E+00 0.23974740E+04</pdfrwt>
<pdfrwt beam="2">  1       -2 0.13669506E+00 0.23974740E+04</pdfrwt>
<totfact> 0.37488501E+00</totfact>
</mgrwt>
</event>
<event>
 4    1  0.2018023E-008  0.2335826E+04  0.7816531E-02  0.8463928E-01
         -2   -1    0    0    0  501 -0.00000000000E+00  0.00000000000E+00  0.64973369183E+03  0.64973369183E+03  0.00000000000E+00 0. -1.
          2   -1    0    0  501    0  0.00000000000E+00 -0.00000000000E+00 -0.20993533039E+04  0.20993533039E+04  0.00000000000E+00 0.  1.
    2000013    1    1    2    0    0  0.49533558988E+03  0.46037882795E+03 -0.80121522975E+03  0.14148328015E+04  0.95000000000E+03 0.  0.
   -2000013    1    1    2    0    0 -0.49533558988E+03 -0.46037882795E+03 -0.64840438235E+03  0.13342541943E+04  0.95000000000E+03 0.  0.
<mgrwt>
<rscale>  0 0.23358258E+04</rscale>
<asrwt>0</asrwt>
<pdfrwt beam="2">  1        2 0.32297743E+00 0.23358258E+04</pdfrwt>
<pdfrwt beam="1">  1       -2 0.99959030E-01 0.23358258E+04</pdfrwt>
<totfact> 0.43949574E+00</totfact>
</mgrwt>
</event>
<event>
 4    1  0.2018023E-008  0.2871285E+04  0.7816531E-02  0.8281473E-01
         -2   -1    0    0    0  501 -0.00000000000E+00  0.00000000000E+00  0.99774557145E+03  0.99774557145E+03  0.00000000000E+00 0. -1.
          2   -1    0    0  501    0  0.00000000000E+00 -0.00000000000E+00 -0.20657268271E+04  0.20657268271E+04  0.00000000000E+00 0.  1.
    2000013    1    1    2    0    0 -0.81888837410E+03  0.64618597241E+03 -0.25083000914E+03  0.14330213445E+04  0.95000000000E+03 0.  0.
   -2000013    1    1    2    0    0  0.81888837410E+03 -0.64618597241E+03 -0.81715124652E+03  0.16304510541E+04  0.95000000000E+03 0.  0.
<mgrwt>
<rscale>  0 0.28712853E+04</rscale>
<asrwt>0</asrwt>
<pdfrwt beam="2">  1        2 0.31780412E+00 0.28712853E+04</pdfrwt>
<pdfrwt beam="1">  1       -2 0.15349932E+00 0.28712853E+04</pdfrwt>
<totfact> 0.14969183E+00</totfact>
</mgrwt>
</event>
<event>
 4    1  0.2018023E-008  0.3013711E+04  0.7816531E-02  0.8239826E-01
         -2   -1    0    0    0  501 -0.00000000000E+00  0.00000000000E+00  0.91682640831E+03  0.91682640831E+03  0.00000000000E+00 0. -1.
          2   -1    0    0  501    0  0.00000000000E+00 -0.00000000000E+00 -0.24766019960E+04  0.24766019960E+04  0.00000000000E+00 0.  1.
    2000013    1    1    2    0    0  0.55520953345E+03  0.97641764230E+03 -0.41248656038E+03  0.15278397170E+04  0.95000000000E+03 0.  0.
   -2000013    1    1    2    0    0 -0.55520953345E+03 -0.97641764230E+03 -0.11472890274E+04  0.18655886874E+04  0.95000000000E+03 0.  0.
<mgrwt>
<rscale>  0 0.30137114E+04</rscale>
<asrwt>0</asrwt>
<pdfrwt beam="2">  1        2 0.38101568E+00 0.30137114E+04</pdfrwt>
<pdfrwt beam="1">  1       -2 0.14105022E+00 0.30137114E+04</pdfrwt>
<totfact> 0.10814834E+00</totfact>
</mgrwt>
</event>
<event>
 4    1  0.2018023E-008  0.2355784E+04  0.7816531E-02  0.8456245E-01
          2   -1    0    0  501    0  0.00000000000E+00  0.00000000000E+00  0.15834902143E+04  0.15834902143E+04  0.00000000000E+00 0.  1.
         -2   -1    0    0    0  501 -0.00000000000E+00 -0.00000000000E+00 -0.87618461884E+03  0.87618461884E+03  0.00000000000E+00 0. -1.
    2000013    1    1    2    0    0 -0.61938654824E+03 -0.63691827187E+02  0.28078592445E+02  0.11362150995E+04  0.95000000000E+03 0.  0.
   -2000013    1    1    2    0    0  0.61938654824E+03  0.63691827187E+02  0.67922700306E+03  0.13234597337E+04  0.95000000000E+03 0.  0.
<mgrwt>
<rscale>  0 0.23557842E+04</rscale>
<asrwt>0</asrwt>
<pdfrwt beam="1">  1        2 0.24361388E+00 0.23557842E+04</pdfrwt>
<pdfrwt beam="2">  1       -2 0.13479763E+00 0.23557842E+04</pdfrwt>
<totfact> 0.40723441E+00</totfact>
</mgrwt>
</event>
<event>
 4    1  0.2018023E-008  0.3786739E+04  0.7816531E-02  0.8049007E-01
         -1   -1    0    0    0  501 -0.00000000000E+00  0.00000000000E+00  0.11302884093E+04  0.11302884093E+04  0.00000000000E+00 0. -1.
          1   -1    0    0  501    0  0.00000000000E+00 -0.00000000000E+00 -0.31716231899E+04  0.31716231899E+04  0.00000000000E+00 0.  1.
    2000013    1    1    2    0    0  0.10976202555E+04 -0.11958664977E+04 -0.12682161025E+04  0.22684221363E+04  0.95000000000E+03 0.  0.
   -2000013    1    1    2    0    0 -0.10976202555E+04  0.11958664977E+04 -0.77311867807E+03  0.20334894629E+04  0.95000000000E+03 0.  0.
<mgrwt>
<rscale>  0 0.37867395E+04</rscale>
<asrwt>0</asrwt>
<pdfrwt beam="2">  1        1 0.48794202E+00 0.37867395E+04</pdfrwt>
<pdfrwt beam="1">  1       -1 0.17389053E+00 0.37867395E+04</pdfrwt>
<totfact> 0.81865173E-02</totfact>
</mgrwt>
</event>
<event>
 4    1  0.2018023E-008  0.2432735E+04  0.7816531E-02  0.8427349E-01
          2   -1    0    0  501    0  0.00000000000E+00  0.00000000000E+00  0.12053245936E+04  0.12053245936E+04  0.00000000000E+00 0.  1.
         -2   -1    0    0    0  501 -0.00000000000E+00 -0.00000000000E+00 -0.12275115102E+04  0.12275115102E+04  0.00000000000E+00 0. -1.
    2000013    1    1    2    0    0 -0.71920733836E+03  0.16952777039E+02  0.23284950475E+03  0.12141933471E+04  0.95000000000E+03 0.  0.
   -2000013    1    1    2    0    0  0.71920733836E+03 -0.16952777039E+02 -0.25503642132E+03  0.12186427567E+04  0.95000000000E+03 0.  0.
<mgrwt>
<rscale>  0 0.24327349E+04</rscale>
<asrwt>0</asrwt>
<pdfrwt beam="1">  1        2 0.18543455E+00 0.24327349E+04</pdfrwt>
<pdfrwt beam="2">  1       -2 0.18884792E+00 0.24327349E+04</pdfrwt>
<totfact> 0.26607165E+00</totfact>
</mgrwt>
</event>
<event>
 4    1  0.2018023E-008  0.2361053E+04  0.7816531E-02  0.8454230E-01
          2   -1    0    0  501    0  0.00000000000E+00  0.00000000000E+00  0.18890166046E+04  0.18890166046E+04  0.00000000000E+00 0.  1.
         -2   -1    0    0    0  501 -0.00000000000E+00 -0.00000000000E+00 -0.73776119994E+03  0.73776119994E+03  0.00000000000E+00 0. -1.
    2000013    1    1    2    0    0 -0.54226647157E+02  0.58073635270E+03  0.14338157575E+03  0.11239455133E+04  0.95000000000E+03 0.  0.
   -2000013    1    1    2    0    0  0.54226647157E+02 -0.58073635270E+03  0.10078738290E+04  0.15028322913E+04  0.95000000000E+03 0.  0.
<mgrwt>
<rscale>  0 0.23610533E+04</rscale>
<asrwt>0</asrwt>
<pdfrwt beam="1">  1        2 0.29061794E+00 0.23610533E+04</pdfrwt>
<pdfrwt beam="2">  1       -2 0.11350172E+00 0.23610533E+04</pdfrwt>
<totfact> 0.42295879E+00</totfact>
</mgrwt>
</event>
<event>
 4    1  0.2018023E-008  0.2035902E+04  0.7816531E-02  0.8590017E-01
          2   -1    0    0  501    0  0.00000000000E+00  0.00000000000E+00  0.15748026830E+04  0.15748026830E+04  0.00000000000E+00 0.  1.
         -2   -1    0    0    0  501 -0.00000000000E+00 -0.00000000000E+00 -0.65800246147E+03  0.65800246147E+03  0.00000000000E+00 0. -1.
    2000013    1    1    2    0    0  0.31958989539E+03  0.17593152594E+03  0.43077596731E+03  0.11050599699E+04  0.95000000000E+03 0.  0.
   -2000013    1    1    2    0    0 -0.31958989539E+03 -0.17593152594E+03  0.48602425420E+03  0.11277451745E+04  0.95000000000E+03 0.  0.
<mgrwt>
<rscale>  0 0.20359018E+04</rscale>
<asrwt>0</asrwt>
<pdfrwt beam="1">  1        2 0.24227734E+00 0.20359018E+04</pdfrwt>
<pdfrwt beam="2">  1       -2 0.10123115E+00 0.20359018E+04</pdfrwt>
<totfact> 0.85630907E+00</totfact>
</mgrwt>
</event>
<event>
 4    1  0.2018023E-008  0.1974332E+04  0.7816531E-02  0.8618716E-01
         -2   -1    0    0    0  501 -0.00000000000E+00  0.00000000000E+00  0.51703313903E+03  0.51703313903E+03  0.00000000000E+00 0. -1.
          2   -1    0    0  501    0  0.00000000000E+00 -0.00000000000E+00 -0.18847859471E+04  0.18847859471E+04  0.00000000000E+00 0.  1.
    2000013    1    1    2    0    0  0.17096243833E+03  0.16236260905E+03 -0.83970062897E+03  0.12896460439E+04  0.95000000000E+03 0.  0.
   -2000013    1    1    2    0    0 -0.17096243833E+03 -0.16236260905E+03 -0.52805217912E+03  0.11121730423E+04  0.95000000000E+03 0.  0.
<mgrwt>
<rscale>  0 0.19743321E+04</rscale>
<asrwt>0</asrwt>
<pdfrwt beam="2">  1        2 0.28996707E+00 0.19743321E+04</pdfrwt>
<pdfrwt beam="1">  1       -2 0.79543560E-01 0.19743321E+04</pdfrwt>
<totfact> 0.10092179E+01</totfact>
</mgrwt>
</event>
<event>
 4    1  0.2018023E-008  0.2576127E+04  0.7816531E-02  0.8376356E-01
          2   -1    0    0  501    0  0.00000000000E+00  0.00000000000E+00  0.15583619272E+04  0.15583619272E+04  0.00000000000E+00 0.  1.
         -2   -1    0    0    0  501 -0.00000000000E+00 -0.00000000000E+00 -0.10646486387E+04  0.10646486387E+04  0.00000000000E+00 0. -1.
    2000013    1    1    2    0    0 -0.68912940531E+03  0.40415924680E+03 -0.10344510570E+03  0.12455701200E+04  0.95000000000E+03 0.  0.
   -2000013    1    1    2    0    0  0.68912940531E+03 -0.40415924680E+03  0.59715839423E+03  0.13774404458E+04  0.95000000000E+03 0.  0.
<mgrwt>
<rscale>  0 0.25761273E+04</rscale>
<asrwt>0</asrwt>
<pdfrwt beam="1">  1        2 0.23974799E+00 0.25761273E+04</pdfrwt>
<pdfrwt beam="2">  1       -2 0.16379210E+00 0.25761273E+04</pdfrwt>
<totfact> 0.24644883E+00</totfact>
</mgrwt>
</event>
<event>
 4    1  0.2018023E-008  0.2439679E+04  0.7816531E-02  0.8424796E-01
          2   -1    0    0  501    0  0.00000000000E+00  0.00000000000E+00  0.78840855176E+03  0.78840855176E+03  0.00000000000E+00 0.  1.
         -2   -1    0    0    0  501 -0.00000000000E+00 -0.00000000000E+00 -0.18873573226E+04  0.18873573226E+04  0.00000000000E+00 0. -1.
    2000013    1    1    2    0    0 -0.39438000097E+03 -0.48717638428E+03 -0.68103441074E+02  0.11401817808E+04  0.95000000000E+03 0.  0.
   -2000013    1    1    2    0    0  0.39438000097E+03  0.48717638428E+03 -0.10308453298E+04  0.15355840936E+04  0.95000000000E+03 0.  0.
<mgrwt>
<rscale>  0 0.24396792E+04</rscale>
<asrwt>0</asrwt>
<pdfrwt beam="1">  1        2 0.12129362E+00 0.24396792E+04</pdfrwt>
<pdfrwt beam="2">  1       -2 0.29036266E+00 0.24396792E+04</pdfrwt>
<totfact> 0.11461233E+00</totfact>
</mgrwt>
</event>
<event>
 4    1  0.2018023E-008  0.2759398E+04  0.7816531E-02  0.8315986E-01
          2   -1    0    0  501    0  0.00000000000E+00  0.00000000000E+00  0.43285939225E+04  0.43285939225E+04  0.00000000000E+00 0.  1.
         -2   -1    0    0    0  501 -0.00000000000E+00 -0.00000000000E+00 -0.43976628164E+03  0.43976628164E+03  0.00000000000E+00 0. -1.
    2000013    1    1    2    0    0 -0.78648196341E+03 -0.45325457717E+03  0.26715815579E+04  0.29772204505E+04  0.95000000000E+03 0.  0.
   -2000013    1    1    2    0    0  0.78648196341E+03  0.45325457717E+03  0.12172460830E+04  0.17911397536E+04  0.95000000000E+03 0.  0.
<mgrwt>
<rscale>  0 0.27593982E+04</rscale>
<asrwt>0</asrwt>
<pdfrwt beam="1">  1        2 0.66593749E+00 0.27593982E+04</pdfrwt>
<pdfrwt beam="2">  1       -2 0.67656354E-01 0.27593982E+04</pdfrwt>
<totfact> 0.31284912E-01</totfact>
</mgrwt>
</event>
<event>
 4    1  0.2018023E-008  0.2513803E+04  0.7816531E-02  0.8398084E-01
          2   -1    0    0  501    0  0.00000000000E+00  0.00000000000E+00  0.16489042240E+04  0.16489042240E+04  0.00000000000E+00 0.  1.
         -2   -1    0    0    0  501 -0.00000000000E+00 -0.00000000000E+00 -0.95809202205E+03  0.95809202205E+03  0.00000000000E+00 0. -1.
    2000013    1    1    2    0    0  0.68067440215E+02  0.77633146108E+03  0.71065125529E+02  0.12308021636E+04  0.95000000000E+03 0.  0.
   -2000013    1    1    2    0    0 -0.68067440215E+02 -0.77633146108E+03  0.61974707647E+03  0.13761940825E+04  0.95000000000E+03 0.  0.
<mgrwt>
<rscale>  0 0.25138035E+04</rscale>
<asrwt>0</asrwt>
<pdfrwt beam="1">  1        2 0.25367757E+00 0.25138035E+04</pdfrwt>
<pdfrwt beam="2">  1       -2 0.14739877E+00 0.25138035E+04</pdfrwt>
<totfact> 0.29280185E+00</totfact>
</mgrwt>
</event>
<event>
 4    1  0.2018023E-008  0.2339117E+04  0.7816531E-02  0.8462656E-01
          2   -1    0    0  501    0  0.00000000000E+00  0.00000000000E+00  0.76031924513E+03  0.76031924513E+03  0.00000000000E+00 0.  1.
         -2   -1    0    0    0  501 -0.00000000000E+00 -0.00000000000E+00 -0.17990694378E+04  0.17990694378E+04  0.00000000000E+00 0. -1.
    2000013    1    1    2    0    0 -0.20647555117E+03  0.24223760088E+03 -0.11795641767E+04  0.15476378308E+04  0.95000000000E+03 0.  0.
   -2000013    1    1    2    0    0  0.20647555117E+03 -0.24223760088E+03  0.14081398407E+03  0.10117508520E+04  0.95000000000E+03 0.  0.
<mgrwt>
<rscale>  0 0.23391170E+04</rscale>
<asrwt>0</asrwt>
<pdfrwt beam="1">  1        2 0.11697219E+00 0.23391170E+04</pdfrwt>
<pdfrwt beam="2">  1       -2 0.27677992E+00 0.23391170E+04</pdfrwt>
<totfact> 0.14669549E+00</totfact>
</mgrwt>
</event>
<event>
 4    1  0.2018023E-008  0.2457768E+04  0.7816531E-02  0.8418187E-01
          2   -1    0    0  501    0  0.00000000000E+00  0.00000000000E+00  0.20713645525E+04  0.20713645525E+04  0.00000000000E+00 0. -1.
         -2   -1    0    0    0  501 -0.00000000000E+00 -0.00000000000E+00 -0.72906322788E+03  0.72906322788E+03  0.00000000000E+00 0.  1.
    2000013    1    1    2    0    0 -0.12583794757E+03 -0.65703159818E+03  0.21519786012E+03  0.11816665473E+04  0.95000000000E+03 0.  0.
   -2000013    1    1    2    0    0  0.12583794757E+03  0.65703159818E+03  0.11271034645E+04  0.16187612331E+04  0.95000000000E+03 0.  0.
<mgrwt>
<rscale>  0 0.24577679E+04</rscale>
<asrwt>0</asrwt>
<pdfrwt beam="1">  1        2 0.31867147E+00 0.24577679E+04</pdfrwt>
<pdfrwt beam="2">  1       -2 0.11216357E+00 0.24577679E+04</pdfrwt>
<totfact> 0.34189972E+00</totfact>
</mgrwt>
</event>
<event>
 4    1  0.2018023E-008  0.2098730E+04  0.7816531E-02  0.8561803E-01
          2   -1    0    0  501    0  0.00000000000E+00  0.00000000000E+00  0.77674013521E+03  0.77674013521E+03  0.00000000000E+00 0.  1.
         -2   -1    0    0    0  501 -0.00000000000E+00 -0.00000000000E+00 -0.14176770431E+04  0.14176770431E+04  0.00000000000E+00 0. -1.
    2000013    1    1    2    0    0 -0.41761659958E+03  0.12775157330E+03 -0.41365284692E+03  0.11244255273E+04  0.95000000000E+03 0.  0.
   -2000013    1    1    2    0    0  0.41761659958E+03 -0.12775157330E+03 -0.22728406092E+03  0.10699916509E+04  0.95000000000E+03 0.  0.
<mgrwt>
<rscale>  0 0.20987298E+04</rscale>
<asrwt>0</asrwt>
<pdfrwt beam="1">  1        2 0.11949848E+00 0.20987298E+04</pdfrwt>
<pdfrwt beam="2">  1       -2 0.21810416E+00 0.20987298E+04</pdfrwt>
<totfact> 0.33530485E+00</totfact>
</mgrwt>
</event>
<event>
 4    1  0.2018023E-008  0.2834436E+04  0.7816531E-02  0.8292656E-01
          2   -1    0    0  501    0  0.00000000000E+00  0.00000000000E+00  0.26092008275E+04  0.26092008275E+04  0.00000000000E+00 0.  1.
         -2   -1    0    0    0  501 -0.00000000000E+00 -0.00000000000E+00 -0.76977857655E+03  0.76977857655E+03  0.00000000000E+00 0. -1.
    2000013    1    1    2    0    0 -0.29448073315E+03 -0.80796737136E+03  0.16413868270E+04  0.20823498484E+04  0.95000000000E+03 0.  0.
   -2000013    1    1    2    0    0  0.29448073315E+03  0.80796737136E+03  0.19803542395E+03  0.12966295556E+04  0.95000000000E+03 0.  0.
<mgrwt>
<rscale>  0 0.28344360E+04</rscale>
<asrwt>0</asrwt>
<pdfrwt beam="1">  1        2 0.40141551E+00 0.28344360E+04</pdfrwt>
<pdfrwt beam="2">  1       -2 0.11842747E+00 0.28344360E+04</pdfrwt>
<totfact> 0.14305387E+00</totfact>
</mgrwt>
</event>
<event>
 4    1  0.2018023E-008  0.2113376E+04  0.7816531E-02  0.8555374E-01
          2   -1    0    0  501    0  0.00000000000E+00  0.00000000000E+00  0.38311275619E+04  0.38311275619E+04  0.00000000000E+00 0.  1.
         -2   -1    0    0    0  501 -0.00000000000E+00 -0.00000000000E+00 -0.29145186827E+03  0.29145186827E+03  0.00000000000E+00 0. -1.
    2000013    1    1    2    0    0  0.24535462121E+03  0.39108022206E+03  0.18298567755E+04  0.21128223894E+04  0.95000000000E+03 0.  0.
   -2000013    1    1    2    0    0 -0.24535462121E+03 -0.39108022206E+03  0.17098189181E+04  0.20097570408E+04  0.95000000000E+03 0.  0.
<mgrwt>
<rscale>  0 0.21133758E+04</rscale>
<asrwt>0</asrwt>
<pdfrwt beam="1">  1        2 0.58940420E+00 0.21133758E+04</pdfrwt>
<pdfrwt beam="2">  1       -2 0.44838752E-01 0.21133758E+04</pdfrwt>
<totfact> 0.20329834E+00</totfact>
</mgrwt>
</event>
<event>
 4    1  0.2018023E-008  0.2555982E+04  0.7816531E-02  0.8383309E-01
          1   -1    0    0  501    0  0.00000000000E+00  0.00000000000E+00  0.93945906126E+03  0.93945906126E+03  0.00000000000E+00 0.  1.
         -1   -1    0    0    0  501 -0.00000000000E+00 -0.00000000000E+00 -0.17385120012E+04  0.17385120012E+04  0.00000000000E+00 0. -1.
    2000013    1    1    2    0    0 -0.72213381095E+03 -0.41264919205E+03 -0.19260568996E+03  0.12772445140E+04  0.95000000000E+03 0.  0.
   -2000013    1    1    2    0    0  0.72213381095E+03  0.41264919205E+03 -0.60644724994E+03  0.14007265485E+04  0.95000000000E+03 0.  0.
<mgrwt>
<rscale>  0 0.25559819E+04</rscale>
<asrwt>0</asrwt>
<pdfrwt beam="1">  1        1 0.14453216E+00 0.25559819E+04</pdfrwt>
<pdfrwt beam="2">  1       -1 0.26746338E+00 0.25559819E+04</pdfrwt>
<totfact> 0.80184451E-01</totfact>
</mgrwt>
</event>
<event>
 4    1  0.2018023E-008  0.2409664E+04  0.7816531E-02  0.8435894E-01
         -2   -1    0    0    0  501 -0.00000000000E+00  0.00000000000E+00  0.68721704586E+03  0.68721704586E+03  0.00000000000E+00 0. -1.
          2   -1    0    0  501    0  0.00000000000E+00 -0.00000000000E+00 -0.21123172633E+04  0.21123172633E+04  0.00000000000E+00 0.  1.
    2000013    1    1    2    0    0  0.11119727446E+03  0.70176318554E+03 -0.46806477197E+03  0.12753121317E+04  0.95000000000E+03 0.  0.
   -2000013    1    1    2    0    0 -0.11119727446E+03 -0.70176318554E+03 -0.95703544544E+03  0.15242221775E+04  0.95000000000E+03 0.  0.
<mgrwt>
<rscale>  0 0.24096642E+04</rscale>
<asrwt>0</asrwt>
<pdfrwt beam="2">  1        2 0.32497188E+00 0.24096642E+04</pdfrwt>
<pdfrwt beam="1">  1       -2 0.10572570E+00 0.24096642E+04</pdfrwt>
<totfact> 0.37567600E+00</totfact>
</mgrwt>
</event>
<event>
 4    1  0.2018023E-008  0.3929243E+04  0.7816531E-02  0.8018975E-01
          1   -1    0    0  501    0  0.00000000000E+00  0.00000000000E+00  0.22500222348E+04  0.22500222348E+04  0.00000000000E+00 0.  1.
         -1   -1    0    0    0  501 -0.00000000000E+00 -0.00000000000E+00 -0.17154217959E+04  0.17154217959E+04  0.00000000000E+00 0. -1.
    2000013    1    1    2    0    0 -0.13814785194E+04  0.93957061844E+02 -0.76186299339E+03  0.18439756099E+04  0.95000000000E+03 0.  0.
   -2000013    1    1    2    0    0  0.13814785194E+04 -0.93957061844E+02  0.12964634323E+04  0.21214684208E+04  0.95000000000E+03 0.  0.
<mgrwt>
<rscale>  0 0.39292428E+04</rscale>
<asrwt>0</asrwt>
<pdfrwt beam="1">  1        1 0.34615727E+00 0.39292428E+04</pdfrwt>
<pdfrwt beam="2">  1       -1 0.26391104E+00 0.39292428E+04</pdfrwt>
<totfact> 0.89713620E-02</totfact>
</mgrwt>
</event>
<event>
 4    1  0.2018023E-008  0.2117472E+04  0.7816531E-02  0.8553586E-01
          2   -1    0    0  501    0  0.00000000000E+00  0.00000000000E+00  0.16933709003E+04  0.16933709003E+04  0.00000000000E+00 0.  1.
         -2   -1    0    0    0  501 -0.00000000000E+00 -0.00000000000E+00 -0.66194714076E+03  0.66194714076E+03  0.00000000000E+00 0. -1.
    2000013    1    1    2    0    0 -0.37465561511E+03 -0.16665957013E+02  0.82592394731E+03  0.13135048347E+04  0.95000000000E+03 0.  0.
   -2000013    1    1    2    0    0  0.37465561511E+03  0.16665957013E+02  0.20549981222E+03  0.10418132063E+04  0.95000000000E+03 0.  0.
<mgrwt>
<rscale>  0 0.21174721E+04</rscale>
<asrwt>0</asrwt>
<pdfrwt beam="1">  1        2 0.26051860E+00 0.21174721E+04</pdfrwt>
<pdfrwt beam="2">  1       -2 0.10183802E+00 0.21174721E+04</pdfrwt>
<totfact> 0.71992794E+00</totfact>
</mgrwt>
</event>
<event>
 4    1  0.2018023E-008  0.3306077E+04  0.7816531E-02  0.8161351E-01
          2   -1    0    0  501    0  0.00000000000E+00  0.00000000000E+00  0.22213976810E+04  0.22213976810E+04  0.00000000000E+00 0.  1.
         -2   -1    0    0    0  501 -0.00000000000E+00 -0.00000000000E+00 -0.12300979499E+04  0.12300979499E+04  0.00000000000E+00 0. -1.
    2000013    1    1    2    0    0 -0.71387600697E+03 -0.99190861659E+03  0.11012828167E+04  0.18996908957E+04  0.95000000000E+03 0.  0.
   -2000013    1    1    2    0    0  0.71387600697E+03  0.99190861659E+03 -0.10998308555E+03  0.15518047352E+04  0.95000000000E+03 0.  0.
<mgrwt>
<rscale>  0 0.33060773E+04</rscale>
<asrwt>0</asrwt>
<pdfrwt beam="1">  1        2 0.34175349E+00 0.33060773E+04</pdfrwt>
<pdfrwt beam="2">  1       -2 0.18924584E+00 0.33060773E+04</pdfrwt>
<totfact> 0.65750744E-01</totfact>
</mgrwt>
</event>
<event>
 4    1  0.2018023E-008  0.2814389E+04  0.7816531E-02  0.8298815E-01
          3   -1    0    0  501    0  0.00000000000E+00  0.00000000000E+00  0.96389291769E+03  0.96389291769E+03  0.00000000000E+00 0.  1.
         -3   -1    0    0    0  501 -0.00000000000E+00 -0.00000000000E+00 -0.20543732210E+04  0.20543732210E+04  0.00000000000E+00 0. -1.
    2000013    1    1    2    0    0 -0.92215790810E+03 -0.55259324384E+02 -0.37365949595E+02  0.13256413597E+04  0.95000000000E+03 0.  0.
   -2000013    1    1    2    0    0  0.92215790810E+03  0.55259324384E+02 -0.10531143537E+04  0.16926247790E+04  0.95000000000E+03 0.  0.
<mgrwt>
<rscale>  0 0.28143886E+04</rscale>
<asrwt>0</asrwt>
<pdfrwt beam="1">  1        3 0.14829122E+00 0.28143886E+04</pdfrwt>
<pdfrwt beam="2">  1       -3 0.31605742E+00 0.28143886E+04</pdfrwt>
<totfact> 0.23256379E-02</totfact>
</mgrwt>
</event>
<event>
 4    1  0.2018023E-008  0.2851709E+04  0.7816531E-02  0.8287392E-01
         -2   -1    0    0    0  501 -0.00000000000E+00  0.00000000000E+00  0.96025499823E+03  0.96025499823E+03  0.00000000000E+00 0. -1.
          2   -1    0    0  501    0  0.00000000000E+00 -0.00000000000E+00 -0.21172088758E+04  0.21172088758E+04  0.00000000000E+00 0.  1.
    2000013    1    1    2    0    0  0.17735639480E+03 -0.10330428877E+04 -0.77130504198E+03  0.16112244928E+04  0.95000000000E+03 0.  0.
   -2000013    1    1    2    0    0 -0.17735639480E+03  0.10330428877E+04 -0.38564883560E+03  0.14662393812E+04  0.95000000000E+03 0.  0.
<mgrwt>
<rscale>  0 0.28517085E+04</rscale>
<asrwt>0</asrwt>
<pdfrwt beam="2">  1        2 0.32572444E+00 0.28517085E+04</pdfrwt>
<pdfrwt beam="1">  1       -2 0.14773154E+00 0.28517085E+04</pdfrwt>
<totfact> 0.15534593E+00</totfact>
</mgrwt>
</event>
<event>
 4    1  0.2018023E-008  0.2168536E+04  0.7816531E-02  0.8531639E-01
         -2   -1    0    0    0  501 -0.00000000000E+00  0.00000000000E+00  0.55883683361E+03  0.55883683361E+03  0.00000000000E+00 0. -1.
          2   -1    0    0  501    0  0.00000000000E+00 -0.00000000000E+00 -0.21037221264E+04  0.21037221264E+04  0.00000000000E+00 0.  1.
    2000013    1    1    2    0    0 -0.48956957310E+03  0.87432001050E+02 -0.96971489637E+03  0.14457419209E+04  0.95000000000E+03 0.  0.
   -2000013    1    1    2    0    0  0.48956957310E+03 -0.87432001050E+02 -0.57517039647E+03  0.12168170391E+04  0.95000000000E+03 0.  0.
<mgrwt>
<rscale>  0 0.21685363E+04</rscale>
<asrwt>0</asrwt>
<pdfrwt beam="2">  1        2 0.32364956E+00 0.21685363E+04</pdfrwt>
<pdfrwt beam="1">  1       -2 0.85974898E-01 0.21685363E+04</pdfrwt>
<totfact> 0.62904044E+00</totfact>
</mgrwt>
</event>
<event>
 4    1  0.2018023E-008  0.2771322E+04  0.7816531E-02  0.8312227E-01
         -1   -1    0    0    0  501 -0.00000000000E+00  0.00000000000E+00  0.72517032852E+03  0.72517032852E+03  0.00000000000E+00 0. -1.
          1   -1    0    0  501    0  0.00000000000E+00 -0.00000000000E+00 -0.26477321195E+04  0.26477321195E+04  0.00000000000E+00 0.  1.
    2000013    1    1    2    0    0  0.43824663368E+03 -0.82203498148E+03 -0.14322664973E+04  0.19549140497E+04  0.95000000000E+03 0.  0.
   -2000013    1    1    2    0    0 -0.43824663368E+03  0.82203498148E+03 -0.49029529378E+03  0.14179883983E+04  0.95000000000E+03 0.  0.
<mgrwt>
<rscale>  0 0.27713223E+04</rscale>
<asrwt>0</asrwt>
<pdfrwt beam="2">  1        1 0.40734340E+00 0.27713223E+04</pdfrwt>
<pdfrwt beam="1">  1       -1 0.11156467E+00 0.27713223E+04</pdfrwt>
<totfact> 0.68384553E-01</totfact>
</mgrwt>
</event>
<event>
 4    1  0.2018023E-008  0.2732052E+04  0.7816531E-02  0.8324680E-01
          1   -1    0    0  501    0  0.00000000000E+00  0.00000000000E+00  0.25317157020E+04  0.25317157020E+04  0.00000000000E+00 0.  1.
         -1   -1    0    0    0  501 -0.00000000000E+00 -0.00000000000E+00 -0.73706013753E+03  0.73706013753E+03  0.00000000000E+00 0. -1.
    2000013    1    1    2    0    0 -0.95574698635E+03  0.20583237784E+03  0.79228851584E+03  0.15767182253E+04  0.95000000000E+03 0.  0.
   -2000013    1    1    2    0    0  0.95574698635E+03 -0.20583237784E+03  0.10023670486E+04  0.16920576142E+04  0.95000000000E+03 0.  0.
<mgrwt>
<rscale>  0 0.27320518E+04</rscale>
<asrwt>0</asrwt>
<pdfrwt beam="1">  1        1 0.38949472E+00 0.27320518E+04</pdfrwt>
<pdfrwt beam="2">  1       -1 0.11339387E+00 0.27320518E+04</pdfrwt>
<totfact> 0.79567270E-01</totfact>
</mgrwt>
</event>
<event>
 4    1  0.2018023E-008  0.2872823E+04  0.7816531E-02  0.8281010E-01
          1   -1    0    0  501    0  0.00000000000E+00  0.00000000000E+00  0.23003548208E+04  0.23003548208E+04  0.00000000000E+00 0.  1.
         -1   -1    0    0    0  501 -0.00000000000E+00 -0.00000000000E+00 -0.89693919255E+03  0.89693919255E+03  0.00000000000E+00 0. -1.
    2000013    1    1    2    0    0  0.12849619720E+03  0.10657571058E+04  0.59952932356E+03  0.15537969272E+04  0.95000000000E+03 0.  0.
   -2000013    1    1    2    0    0 -0.12849619720E+03 -0.10657571058E+04  0.80388630464E+03  0.16434970861E+04  0.95000000000E+03 0.  0.
<mgrwt>
<rscale>  0 0.28728233E+04</rscale>
<asrwt>0</asrwt>
<pdfrwt beam="1">  1        1 0.35390074E+00 0.28728233E+04</pdfrwt>
<pdfrwt beam="2">  1       -1 0.13799065E+00 0.28728233E+04</pdfrwt>
<totfact> 0.69642105E-01</totfact>
</mgrwt>
</event>
<event>
 4    1  0.2018023E-008  0.2425168E+04  0.7816531E-02  0.8430141E-01
         -2   -1    0    0    0  501 -0.00000000000E+00  0.00000000000E+00  0.65477606564E+03  0.65477606564E+03  0.00000000000E+00 0. -1.
          2   -1    0    0  501    0  0.00000000000E+00 -0.00000000000E+00 -0.22455913477E+04  0.22455913477E+04  0.00000000000E+00 0.  1.
    2000013    1    1    2    0    0 -0.24738224867E+03  0.59941293543E+03 -0.33630546284E+03  0.11983718991E+04  0.95000000000E+03 0.  0.
   -2000013    1    1    2    0    0  0.24738224867E+03 -0.59941293543E+03 -0.12545098192E+04  0.17019955143E+04  0.95000000000E+03 0.  0.
<mgrwt>
<rscale>  0 0.24251676E+04</rscale>
<asrwt>0</asrwt>
<pdfrwt beam="2">  1        2 0.34547559E+00 0.24251676E+04</pdfrwt>
<pdfrwt beam="1">  1       -2 0.10073478E+00 0.24251676E+04</pdfrwt>
<totfact> 0.35448496E+00</totfact>
</mgrwt>
</event>
<event>
 4    1  0.2018023E-008  0.2654457E+04  0.7816531E-02  0.8349935E-01
         -2   -1    0    0    0  501 -0.00000000000E+00  0.00000000000E+00  0.67188381959E+03  0.67188381959E+03  0.00000000000E+00 0. -1.
          2   -1    0    0  501    0  0.00000000000E+00 -0.00000000000E+00 -0.26217861665E+04  0.26217861665E+04  0.00000000000E+00 0.  1.
    2000013    1    1    2    0    0  0.53880470256E+03 -0.75118876323E+03 -0.10576362355E+04  0.16957857978E+04  0.95000000000E+03 0.  0.
   -2000013    1    1    2    0    0 -0.53880470256E+03  0.75118876323E+03 -0.89226611140E+03  0.15978841882E+04  0.95000000000E+03 0.  0.
<mgrwt>
<rscale>  0 0.26544572E+04</rscale>
<asrwt>0</asrwt>
<pdfrwt beam="2">  1        2 0.40335171E+00 0.26544572E+04</pdfrwt>
<pdfrwt beam="1">  1       -2 0.10336674E+00 0.26544572E+04</pdfrwt>
<totfact> 0.19853672E+00</totfact>
</mgrwt>
</event>
<event>
 4    1  0.2018023E-008  0.2014665E+04  0.7816531E-02  0.8599795E-01
          2   -1    0    0  501    0  0.00000000000E+00  0.00000000000E+00  0.12668427930E+04  0.12668427930E+04  0.00000000000E+00 0.  1.
         -2   -1    0    0    0  501 -0.00000000000E+00 -0.00000000000E+00 -0.80098266346E+03  0.80098266346E+03  0.00000000000E+00 0. -1.
    2000013    1    1    2    0    0  0.31282720581E+03 -0.11666336523E+03  0.26099968299E+03  0.10402365289E+04  0.95000000000E+03 0.  0.
   -2000013    1    1    2    0    0 -0.31282720581E+03  0.11666336523E+03  0.20486044651E+03  0.10275889276E+04  0.95000000000E+03 0.  0.
<mgrwt>
<rscale>  0 0.20146653E+04</rscale>
<asrwt>0</asrwt>
<pdfrwt beam="1">  1        2 0.19489889E+00 0.20146653E+04</pdfrwt>
<pdfrwt beam="2">  1       -2 0.12322810E+00 0.20146653E+04</pdfrwt>
<totfact> 0.79738402E+00</totfact>
</mgrwt>
</event>
<event>
 4    1  0.2018023E-008  0.2257615E+04  0.7816531E-02  0.8494823E-01
          2   -1    0    0  501    0  0.00000000000E+00  0.00000000000E+00  0.31075658767E+04  0.31075658767E+04  0.00000000000E+00 0.  1.
         -2   -1    0    0    0  501 -0.00000000000E+00 -0.00000000000E+00 -0.41003349015E+03  0.41003349015E+03  0.00000000000E+00 0. -1.
    2000013    1    1    2    0    0 -0.13987874894E+03 -0.50337321799E+03  0.85912605160E+03  0.13833106063E+04  0.95000000000E+03 0.  0.
   -2000013    1    1    2    0    0  0.13987874894E+03  0.50337321799E+03  0.18384063349E+04  0.21342887605E+04  0.95000000000E+03 0.  0.
<mgrwt>
<rscale>  0 0.22576147E+04</rscale>
<asrwt>0</asrwt>
<pdfrwt beam="1">  1        2 0.47808704E+00 0.22576147E+04</pdfrwt>
<pdfrwt beam="2">  1       -2 0.63082078E-01 0.22576147E+04</pdfrwt>
<totfact> 0.31560093E+00</totfact>
</mgrwt>
</event>
<event>
 4    1  0.2018023E-008  0.2397553E+04  0.7816531E-02  0.8440420E-01
          2   -1    0    0  501    0  0.00000000000E+00  0.00000000000E+00  0.82981355981E+03  0.82981355981E+03  0.00000000000E+00 0.  1.
         -2   -1    0    0    0  501 -0.00000000000E+00 -0.00000000000E+00 -0.17317932227E+04  0.17317932227E+04  0.00000000000E+00 0. -1.
    2000013    1    1    2    0    0  0.59554900276E+03 -0.29263174399E+03 -0.77900432817E+03  0.13963021505E+04  0.95000000000E+03 0.  0.
   -2000013    1    1    2    0    0 -0.59554900276E+03  0.29263174399E+03 -0.12297533469E+03  0.11653046319E+04  0.95000000000E+03 0.  0.
<mgrwt>
<rscale>  0 0.23975533E+04</rscale>
<asrwt>0</asrwt>
<pdfrwt beam="1">  1        2 0.12766363E+00 0.23975533E+04</pdfrwt>
<pdfrwt beam="2">  1       -2 0.26642972E+00 0.23975533E+04</pdfrwt>
<totfact> 0.15031241E+00</totfact>
</mgrwt>
</event>
<event>
 4    1  0.2018023E-008  0.3432687E+04  0.7816531E-02  0.8129930E-01
          2   -1    0    0  501    0  0.00000000000E+00  0.00000000000E+00  0.29405101142E+04  0.29405101142E+04  0.00000000000E+00 0.  1.
         -2   -1    0    0    0  501 -0.00000000000E+00 -0.00000000000E+00 -0.10018106085E+04  0.10018106085E+04  0.00000000000E+00 0. -1.
    2000013    1    1    2    0    0 -0.15908806309E+03 -0.10544836631E+04 -0.12385959048E+03  0.14335571163E+04  0.95000000000E+03 0.  0.
   -2000013    1    1    2    0    0  0.15908806309E+03  0.10544836631E+04  0.20625590961E+04  0.25087636064E+04  0.95000000000E+03 0.  0.
<mgrwt>
<rscale>  0 0.34326865E+04</rscale>
<asrwt>0</asrwt>
<pdfrwt beam="1">  1        2 0.45238617E+00 0.34326865E+04</pdfrwt>
<pdfrwt beam="2">  1       -2 0.15412471E+00 0.34326865E+04</pdfrwt>
<totfact> 0.43646441E-01</totfact>
</mgrwt>
</event>
<event>
 4    1  0.2018023E-008  0.3111183E+04  0.7816531E-02  0.8212675E-01
         -1   -1    0    0    0  501 -0.00000000000E+00  0.00000000000E+00  0.11884113451E+04  0.11884113451E+04  0.00000000000E+00 0.  1.
          1   -1    0    0  501    0  0.00000000000E+00 -0.00000000000E+00 -0.20362188468E+04  0.20362188468E+04  0.00000000000E+00 0. -1.
    2000013    1    1    2    0    0 -0.67977900909E+03 -0.79689763229E+03 -0.10957854054E+04  0.17889636643E+04  0.95000000000E+03 0.  0.
   -2000013    1    1    2    0    0  0.67977900909E+03  0.79689763229E+03  0.24797790377E+03  0.14356665275E+04  0.95000000000E+03 0.  0.
<mgrwt>
<rscale>  0 0.31111834E+04</rscale>
<asrwt>0</asrwt>
<pdfrwt beam="2">  1        1 0.31326444E+00 0.31111834E+04</pdfrwt>
<pdfrwt beam="1">  1       -1 0.18283252E+00 0.31111834E+04</pdfrwt>
<totfact> 0.47147113E-01</totfact>
</mgrwt>
</event>
<event>
 4    1  0.2018023E-008  0.2002301E+04  0.7816531E-02  0.8605546E-01
          2   -1    0    0  501    0  0.00000000000E+00  0.00000000000E+00  0.25531196554E+04  0.25531196554E+04  0.00000000000E+00 0.  1.
         -2   -1    0    0    0  501 -0.00000000000E+00 -0.00000000000E+00 -0.39257937500E+03  0.39257937500E+03  0.00000000000E+00 0. -1.
    2000013    1    1    2    0    0 -0.30681989116E+03 -0.31912968344E+01  0.96965430250E+03  0.13917176784E+04  0.95000000000E+03 0.  0.
   -2000013    1    1    2    0    0  0.30681989116E+03  0.31912968344E+01  0.11908859779E+04  0.15539813520E+04  0.95000000000E+03 0.  0.
<mgrwt>
<rscale>  0 0.20023008E+04</rscale>
<asrwt>0</asrwt>
<pdfrwt beam="1">  1        2 0.39278763E+00 0.20023008E+04</pdfrwt>
<pdfrwt beam="2">  1       -2 0.60396829E-01 0.20023008E+04</pdfrwt>
<totfact> 0.76963321E+00</totfact>
</mgrwt>
</event>
<event>
 4    1  0.2018023E-008  0.2510320E+04  0.7816531E-02  0.8399318E-01
         -2   -1    0    0    0  501 -0.00000000000E+00  0.00000000000E+00  0.66464004286E+03  0.66464004286E+03  0.00000000000E+00 0. -1.
          2   -1    0    0  501    0  0.00000000000E+00 -0.00000000000E+00 -0.23703460619E+04  0.23703460619E+04  0.00000000000E+00 0.  1.
    2000013    1    1    2    0    0  0.44903307012E+03 -0.65072476423E+03 -0.58837814928E+03  0.13688543616E+04  0.95000000000E+03 0.  0.
   -2000013    1    1    2    0    0 -0.44903307012E+03  0.65072476423E+03 -0.11173278698E+04  0.16661317431E+04  0.95000000000E+03 0.  0.
<mgrwt>
<rscale>  0 0.25103202E+04</rscale>
<asrwt>0</asrwt>
<pdfrwt beam="2">  1        2 0.36466863E+00 0.25103202E+04</pdfrwt>
<pdfrwt beam="1">  1       -2 0.10225231E+00 0.25103202E+04</pdfrwt>
<totfact> 0.28851252E+00</totfact>
</mgrwt>
</event>
<event>
 4    1  0.2018023E-008  0.2284892E+04  0.7816531E-02  0.8483902E-01
          1   -1    0    0  501    0  0.00000000000E+00  0.00000000000E+00  0.37754648827E+04  0.37754648827E+04  0.00000000000E+00 0. -1.
         -1   -1    0    0    0  501 -0.00000000000E+00 -0.00000000000E+00 -0.34570130039E+03  0.34570130039E+03  0.00000000000E+00 0.  1.
    2000013    1    1    2    0    0 -0.52808861288E+03 -0.16161356654E+03  0.22786127502E+04  0.25297376530E+04  0.95000000000E+03 0.  0.
   -2000013    1    1    2    0    0  0.52808861288E+03  0.16161356654E+03  0.11511508321E+04  0.15914285301E+04  0.95000000000E+03 0.  0.
<mgrwt>
<rscale>  0 0.22848922E+04</rscale>
<asrwt>0</asrwt>
<pdfrwt beam="1">  1        1 0.58084072E+00 0.22848922E+04</pdfrwt>
<pdfrwt beam="2">  1       -1 0.53184818E-01 0.22848922E+04</pdfrwt>
<totfact> 0.48382442E-01</totfact>
</mgrwt>
</event>
<event>
 4    1  0.2018023E-008  0.2696654E+04  0.7816531E-02  0.8336091E-01
          2   -1    0    0  501    0  0.00000000000E+00  0.00000000000E+00  0.14505190627E+04  0.14505190627E+04  0.00000000000E+00 0.  1.
         -2   -1    0    0    0  501 -0.00000000000E+00 -0.00000000000E+00 -0.12533347380E+04  0.12533347380E+04  0.00000000000E+00 0. -1.
    2000013    1    1    2    0    0 -0.28128481316E+03  0.85223865878E+03  0.43122182006E+03  0.13761846300E+04  0.95000000000E+03 0.  0.
   -2000013    1    1    2    0    0  0.28128481316E+03 -0.85223865878E+03 -0.23403749542E+03  0.13276691707E+04  0.95000000000E+03 0.  0.
<mgrwt>
<rscale>  0 0.26966542E+04</rscale>
<asrwt>0</asrwt>
<pdfrwt beam="1">  1        2 0.22315678E+00 0.26966542E+04</pdfrwt>
<pdfrwt beam="2">  1       -2 0.19282073E+00 0.26966542E+04</pdfrwt>
<totfact> 0.17636043E+00</totfact>
</mgrwt>
</event>
<event>
 4    1  0.2018023E-008  0.2034772E+04  0.7816531E-02  0.8590534E-01
         -1   -1    0    0    0  501 -0.00000000000E+00  0.00000000000E+00  0.17527003561E+04  0.17527003561E+04  0.00000000000E+00 0. -1.
          1   -1    0    0  501    0  0.00000000000E+00 -0.00000000000E+00 -0.59055973842E+03  0.59055973842E+03  0.00000000000E+00 0.  1.
    2000013    1    1    2    0    0 -0.32071832116E+03 -0.13717985981E+03  0.70127806243E+03  0.12312471224E+04  0.95000000000E+03 0.  0.
   -2000013    1    1    2    0    0  0.32071832116E+03  0.13717985981E+03  0.46086255526E+03  0.11120129722E+04  0.95000000000E+03 0.  0.
<mgrwt>
<rscale>  0 0.20347720E+04</rscale>
<asrwt>0</asrwt>
<pdfrwt beam="2">  1        1 0.90855345E-01 0.20347720E+04</pdfrwt>
<pdfrwt beam="1">  1       -1 0.26964621E+00 0.20347720E+04</pdfrwt>
<totfact> 0.16837602E+00</totfact>
</mgrwt>
</event>
<event>
 4    1  0.2018023E-008  0.2630787E+04  0.7816531E-02  0.8357818E-01
          2   -1    0    0  501    0  0.00000000000E+00  0.00000000000E+00  0.17391222500E+04  0.17391222500E+04  0.00000000000E+00 0.  1.
         -2   -1    0    0    0  501 -0.00000000000E+00 -0.00000000000E+00 -0.99490459145E+03  0.99490459145E+03  0.00000000000E+00 0. -1.
    2000013    1    1    2    0    0  0.58889128742E+03  0.12149500029E+03 -0.33747918870E+03  0.11738595258E+04  0.95000000000E+03 0.  0.
   -2000013    1    1    2    0    0 -0.58889128742E+03 -0.12149500029E+03  0.10816968472E+04  0.15601673156E+04  0.95000000000E+03 0.  0.
<mgrwt>
<rscale>  0 0.26307875E+04</rscale>
<asrwt>0</asrwt>
<pdfrwt beam="1">  1        2 0.26755727E+00 0.26307875E+04</pdfrwt>
<pdfrwt beam="2">  1       -2 0.15306224E+00 0.26307875E+04</pdfrwt>
<totfact> 0.23370202E+00</totfact>
</mgrwt>
</event>
<event>
 4    1  0.2018023E-008  0.2386358E+04  0.7816531E-02  0.8444629E-01
         -2   -1    0    0    0  501 -0.00000000000E+00  0.00000000000E+00  0.10838655713E+04  0.10838655713E+04  0.00000000000E+00 0. -1.
          2   -1    0    0  501    0  0.00000000000E+00 -0.00000000000E+00 -0.13135169507E+04  0.13135169507E+04  0.00000000000E+00 0.  1.
    2000013    1    1    2    0    0  0.63584843345E+03  0.34134530904E+03 -0.95871894779E+02  0.11968756287E+04  0.95000000000E+03 0.  0.
   -2000013    1    1    2    0    0 -0.63584843345E+03 -0.34134530904E+03 -0.13377948464E+03  0.12005068933E+04  0.95000000000E+03 0.  0.
<mgrwt>
<rscale>  0 0.23863577E+04</rscale>
<asrwt>0</asrwt>
<pdfrwt beam="2">  1        2 0.20207953E+00 0.23863577E+04</pdfrwt>
<pdfrwt beam="1">  1       -2 0.16674855E+00 0.23863577E+04</pdfrwt>
<totfact> 0.32867781E+00</totfact>
</mgrwt>
</event>
<event>
 4    1  0.2018023E-008  0.2156845E+04  0.7816531E-02  0.8536608E-01
         -2   -1    0    0    0  501 -0.00000000000E+00  0.00000000000E+00  0.16911468890E+04  0.16911468890E+04  0.00000000000E+00 0. -1.
          2   -1    0    0  501    0  0.00000000000E+00 -0.00000000000E+00 -0.68769607497E+03  0.68769607497E+03  0.00000000000E+00 0.  1.
    2000013    1    1    2    0    0 -0.29965032041E+03 -0.35781701881E+03  0.72955862156E+03  0.12855267853E+04  0.95000000000E+03 0.  0.
   -2000013    1    1    2    0    0  0.29965032041E+03  0.35781701881E+03  0.27389219252E+03  0.10933161787E+04  0.95000000000E+03 0.  0.
<mgrwt>
<rscale>  0 0.21568450E+04</rscale>
<asrwt>0</asrwt>
<pdfrwt beam="2">  1        2 0.10579940E+00 0.21568450E+04</pdfrwt>
<pdfrwt beam="1">  1       -2 0.26017644E+00 0.21568450E+04</pdfrwt>
<totfact> 0.21389885E+00</totfact>
</mgrwt>
</event>
<event>
 4    1  0.2018023E-008  0.2466155E+04  0.7816531E-02  0.8415143E-01
          2   -1    0    0  501    0  0.00000000000E+00  0.00000000000E+00  0.31640224789E+04  0.31640224789E+04  0.00000000000E+00 0. -1.
         -2   -1    0    0    0  501 -0.00000000000E+00 -0.00000000000E+00 -0.48055294453E+03  0.48055294453E+03  0.00000000000E+00 0.  1.
    2000013    1    1    2    0    0  0.64597593646E+03  0.35997327100E+03  0.17358344554E+04  0.21124599222E+04  0.95000000000E+03 0.  0.
   -2000013    1    1    2    0    0 -0.64597593646E+03 -0.35997327100E+03  0.94763507904E+03  0.15321155013E+04  0.95000000000E+03 0.  0.
<mgrwt>
<rscale>  0 0.24661552E+04</rscale>
<asrwt>0</asrwt>
<pdfrwt beam="1">  1        2 0.48677268E+00 0.24661552E+04</pdfrwt>
<pdfrwt beam="2">  1       -2 0.73931224E-01 0.24661552E+04</pdfrwt>
<totfact> 0.20188188E+00</totfact>
</mgrwt>
</event>
<event>
 4    1  0.2018023E-008  0.2537791E+04  0.7816531E-02  0.8389645E-01
         -2   -1    0    0    0  501 -0.00000000000E+00  0.00000000000E+00  0.12693860260E+04  0.12693860260E+04  0.00000000000E+00 0. -1.
          2   -1    0    0  501    0  0.00000000000E+00 -0.00000000000E+00 -0.12684056218E+04  0.12684056218E+04  0.00000000000E+00 0.  1.
    2000013    1    1    2    0    0  0.75181720304E+03  0.11465510756E+03 -0.35898370563E+03  0.12687569513E+04  0.95000000000E+03 0.  0.
   -2000013    1    1    2    0    0 -0.75181720304E+03 -0.11465510756E+03  0.35996410985E+03  0.12690346965E+04  0.95000000000E+03 0.  0.
<mgrwt>
<rscale>  0 0.25377915E+04</rscale>
<asrwt>0</asrwt>
<pdfrwt beam="2">  1        2 0.19513933E+00 0.25377915E+04</pdfrwt>
<pdfrwt beam="1">  1       -2 0.19529016E+00 0.25377915E+04</pdfrwt>
<totfact> 0.21916281E+00</totfact>
</mgrwt>
</event>
<event>
 4    1  0.2018023E-008  0.2728669E+04  0.7816531E-02  0.8325762E-01
          2   -1    0    0  501    0  0.00000000000E+00  0.00000000000E+00  0.25892567043E+04  0.25892567043E+04  0.00000000000E+00 0.  1.
         -2   -1    0    0    0  501 -0.00000000000E+00 -0.00000000000E+00 -0.71889709415E+03  0.71889709415E+03  0.00000000000E+00 0. -1.
    2000013    1    1    2    0    0  0.21365805689E+03 -0.61601911768E+03  0.49420250477E+02  0.11532873362E+04  0.95000000000E+03 0.  0.
   -2000013    1    1    2    0    0 -0.21365805689E+03  0.61601911768E+03  0.18209393596E+04  0.21548664622E+04  0.95000000000E+03 0.  0.
<mgrwt>
<rscale>  0 0.27286694E+04</rscale>
<asrwt>0</asrwt>
<pdfrwt beam="1">  1        2 0.39834718E+00 0.27286694E+04</pdfrwt>
<pdfrwt beam="2">  1       -2 0.11059955E+00 0.27286694E+04</pdfrwt>
<totfact> 0.17518822E+00</totfact>
</mgrwt>
</event>
<event>
 4    1  0.2018023E-008  0.3202477E+04  0.7816531E-02  0.8188163E-01
         -2   -1    0    0    0  501 -0.00000000000E+00  0.00000000000E+00  0.13050902196E+04  0.13050902196E+04  0.00000000000E+00 0. -1.
          2   -1    0    0  501    0  0.00000000000E+00 -0.00000000000E+00 -0.19645886175E+04  0.19645886175E+04  0.00000000000E+00 0.  1.
    2000013    1    1    2    0    0  0.17158783822E+03  0.12609520286E+04 -0.53904594357E+03  0.16770548393E+04  0.95000000000E+03 0.  0.
   -2000013    1    1    2    0    0 -0.17158783822E+03 -0.12609520286E+04 -0.12045245439E+03  0.15926239978E+04  0.95000000000E+03 0.  0.
<mgrwt>
<rscale>  0 0.32024774E+04</rscale>
<asrwt>0</asrwt>
<pdfrwt beam="2">  1        2 0.30224440E+00 0.32024774E+04</pdfrwt>
<pdfrwt beam="1">  1       -2 0.20078311E+00 0.32024774E+04</pdfrwt>
<totfact> 0.77366804E-01</totfact>
</mgrwt>
</event>
<event>
 4    1  0.2018023E-008  0.2262161E+04  0.7816531E-02  0.8492992E-01
         -2   -1    0    0    0  501 -0.00000000000E+00  0.00000000000E+00  0.82503190877E+03  0.82503190877E+03  0.00000000000E+00 0. -1.
          2   -1    0    0  501    0  0.00000000000E+00 -0.00000000000E+00 -0.15506585410E+04  0.15506585410E+04  0.00000000000E+00 0.  1.
    2000013    1    1    2    0    0  0.52128371855E+03 -0.28702257707E+03 -0.52112382719E+03  0.12361993036E+04  0.95000000000E+03 0.  0.
   -2000013    1    1    2    0    0 -0.52128371855E+03  0.28702257707E+03 -0.20450280506E+03  0.11394911462E+04  0.95000000000E+03 0.  0.
<mgrwt>
<rscale>  0 0.22621607E+04</rscale>
<asrwt>0</asrwt>
<pdfrwt beam="2">  1        2 0.23856285E+00 0.22621607E+04</pdfrwt>
<pdfrwt beam="1">  1       -2 0.12692799E+00 0.22621607E+04</pdfrwt>
<totfact> 0.49878337E+00</totfact>
</mgrwt>
</event>
<event>
 4    1  0.2018023E-008  0.2234864E+04  0.7816531E-02  0.8504055E-01
          2   -1    0    0  501    0  0.00000000000E+00  0.00000000000E+00  0.17576890786E+04  0.17576890786E+04  0.00000000000E+00 0.  1.
         -2   -1    0    0    0  501 -0.00000000000E+00 -0.00000000000E+00 -0.71039548087E+03  0.71039548087E+03  0.00000000000E+00 0. -1.
    2000013    1    1    2    0    0 -0.35440183425E+03 -0.31119880061E+03  0.91207397594E+03  0.13988653585E+04  0.95000000000E+03 0.  0.
   -2000013    1    1    2    0    0  0.35440183425E+03  0.31119880061E+03  0.13521962178E+03  0.10692192010E+04  0.95000000000E+03 0.  0.
<mgrwt>
<rscale>  0 0.22348641E+04</rscale>
<asrwt>0</asrwt>
<pdfrwt beam="1">  1        2 0.27041370E+00 0.22348641E+04</pdfrwt>
<pdfrwt beam="2">  1       -2 0.10929161E+00 0.22348641E+04</pdfrwt>
<totfact> 0.55408256E+00</totfact>
</mgrwt>
</event>
<event>
 4    1  0.2018023E-008  0.3127499E+04  0.7816531E-02  0.8208231E-01
         -2   -1    0    0    0  501 -0.00000000000E+00  0.00000000000E+00  0.20312040555E+04  0.20312040555E+04  0.00000000000E+00 0. -1.
          2   -1    0    0  501    0  0.00000000000E+00 -0.00000000000E+00 -0.12038733350E+04  0.12038733350E+04  0.00000000000E+00 0.  1.
    2000013    1    1    2    0    0 -0.87836701703E+03 -0.76093935855E+03  0.86721665550E+03  0.17335287859E+04  0.95000000000E+03 0.  0.
   -2000013    1    1    2    0    0  0.87836701703E+03  0.76093935855E+03 -0.39885934954E+02  0.15015486045E+04  0.95000000000E+03 0.  0.
<mgrwt>
<rscale>  0 0.31274989E+04</rscale>
<asrwt>0</asrwt>
<pdfrwt beam="2">  1        2 0.18521128E+00 0.31274989E+04</pdfrwt>
<pdfrwt beam="1">  1       -2 0.31249293E+00 0.31274989E+04</pdfrwt>
<totfact> 0.42505834E-01</totfact>
</mgrwt>
</event>
<event>
 4    1  0.2018023E-008  0.3473493E+04  0.7816531E-02  0.8120101E-01
          2   -1    0    0  501    0  0.00000000000E+00  0.00000000000E+00  0.26155073572E+04  0.26155073572E+04  0.00000000000E+00 0.  1.
         -2   -1    0    0    0  501 -0.00000000000E+00 -0.00000000000E+00 -0.11532326525E+04  0.11532326525E+04  0.00000000000E+00 0. -1.
    2000013    1    1    2    0    0 -0.73183560024E+03 -0.67519610435E+03  0.18805797126E+04  0.23303547328E+04  0.95000000000E+03 0.  0.
   -2000013    1    1    2    0    0  0.73183560024E+03  0.67519610435E+03 -0.41830500787E+03  0.14383852769E+04  0.95000000000E+03 0.  0.
<mgrwt>
<rscale>  0 0.34734930E+04</rscale>
<asrwt>0</asrwt>
<pdfrwt beam="1">  1        2 0.40238575E+00 0.34734930E+04</pdfrwt>
<pdfrwt beam="2">  1       -2 0.17742041E+00 0.34734930E+04</pdfrwt>
<totfact> 0.46360559E-01</totfact>
</mgrwt>
</event>
<event>
 4    1  0.2018023E-008  0.3694814E+04  0.7816531E-02  0.8069112E-01
         -2   -1    0    0    0  501 -0.00000000000E+00  0.00000000000E+00  0.18123442243E+04  0.18123442243E+04  0.00000000000E+00 0. -1.
          2   -1    0    0  501    0  0.00000000000E+00 -0.00000000000E+00 -0.18831481527E+04  0.18831481527E+04  0.00000000000E+00 0.  1.
    2000013    1    1    2    0    0  0.64952529666E+02  0.12195977427E+04 -0.10449312159E+04  0.18670883030E+04  0.95000000000E+03 0.  0.
   -2000013    1    1    2    0    0 -0.64952529666E+02 -0.12195977427E+04  0.97412728751E+03  0.18284040739E+04  0.95000000000E+03 0.  0.
<mgrwt>
<rscale>  0 0.36948140E+04</rscale>
<asrwt>0</asrwt>
<pdfrwt beam="2">  1        2 0.28971510E+00 0.36948140E+04</pdfrwt>
<pdfrwt beam="1">  1       -2 0.27882219E+00 0.36948140E+04</pdfrwt>
<totfact> 0.26866703E-01</totfact>
</mgrwt>
</event>
<event>
 4    1  0.2018023E-008  0.2365266E+04  0.7816531E-02  0.8452623E-01
         -2   -1    0    0    0  501 -0.00000000000E+00  0.00000000000E+00  0.14654177086E+04  0.14654177086E+04  0.00000000000E+00 0. -1.
          2   -1    0    0  501    0  0.00000000000E+00 -0.00000000000E+00 -0.95441819417E+03  0.95441819417E+03  0.00000000000E+00 0.  1.
    2000013    1    1    2    0    0  0.80761319079E+02 -0.67765105413E+03  0.43384304694E+03  0.12475789078E+04  0.95000000000E+03 0.  0.
   -2000013    1    1    2    0    0 -0.80761319079E+02  0.67765105413E+03  0.77156467515E+02  0.11722569950E+04  0.95000000000E+03 0.  0.
<mgrwt>
<rscale>  0 0.23652664E+04</rscale>
<asrwt>0</asrwt>
<pdfrwt beam="2">  1        2 0.14683357E+00 0.23652664E+04</pdfrwt>
<pdfrwt beam="1">  1       -2 0.22544888E+00 0.23652664E+04</pdfrwt>
<totfact> 0.22201180E+00</totfact>
</mgrwt>
</event>
<event>
 4    1  0.2018023E-008  0.3179117E+04  0.7816531E-02  0.8194354E-01
          2   -1    0    0  501    0  0.00000000000E+00  0.00000000000E+00  0.24069295746E+04  0.24069295746E+04  0.00000000000E+00 0.  1.
         -2   -1    0    0    0  501 -0.00000000000E+00 -0.00000000000E+00 -0.10497590961E+04  0.10497590961E+04  0.00000000000E+00 0. -1.
    2000013    1    1    2    0    0 -0.10308059730E+04 -0.14353475469E+03  0.14783562302E+04  0.20423516649E+04  0.95000000000E+03 0.  0.
   -2000013    1    1    2    0    0  0.10308059730E+04  0.14353475469E+03 -0.12118575166E+03  0.14143370059E+04  0.95000000000E+03 0.  0.
<mgrwt>
<rscale>  0 0.31791170E+04</rscale>
<asrwt>0</asrwt>
<pdfrwt beam="1">  1        2 0.37029686E+00 0.31791170E+04</pdfrwt>
<pdfrwt beam="2">  1       -2 0.16150140E+00 0.31791170E+04</pdfrwt>
<totfact> 0.81581377E-01</totfact>
</mgrwt>
</event>
<event>
 4    1  0.2018023E-008  0.1922689E+04  0.7816531E-02  0.8643644E-01
         -2   -1    0    0    0  501 -0.00000000000E+00  0.00000000000E+00  0.63025126286E+03  0.63025126286E+03  0.00000000000E+00 0. -1.
          2   -1    0    0  501    0  0.00000000000E+00 -0.00000000000E+00 -0.14663724744E+04  0.14663724744E+04  0.00000000000E+00 0.  1.
    2000013    1    1    2    0    0 -0.96475526252E+02 -0.99778803577E+02 -0.36441943256E+03  0.10269200843E+04  0.95000000000E+03 0.  0.
   -2000013    1    1    2    0    0  0.96475526252E+02  0.99778803577E+02 -0.47170177900E+03  0.10697036529E+04  0.95000000000E+03 0.  0.
<mgrwt>
<rscale>  0 0.19226889E+04</rscale>
<asrwt>0</asrwt>
<pdfrwt beam="2">  1        2 0.22559577E+00 0.19226889E+04</pdfrwt>
<pdfrwt beam="1">  1       -2 0.96961732E-01 0.19226889E+04</pdfrwt>
<totfact> 0.11016322E+01</totfact>
</mgrwt>
</event>
<event>
 4    1  0.2018023E-008  0.3367042E+04  0.7816531E-02  0.8146043E-01
         -1   -1    0    0    0  501 -0.00000000000E+00  0.00000000000E+00  0.12696919723E+04  0.12696919723E+04  0.00000000000E+00 0. -1.
          1   -1    0    0  501    0  0.00000000000E+00 -0.00000000000E+00 -0.22322290291E+04  0.22322290291E+04  0.00000000000E+00 0.  1.
    2000013    1    1    2    0    0  0.10922216623E+04 -0.96077146533E+02  0.40709265474E+03  0.15067857868E+04  0.95000000000E+03 0.  0.
   -2000013    1    1    2    0    0 -0.10922216623E+04  0.96077146533E+02 -0.13696297115E+04  0.19951352146E+04  0.95000000000E+03 0.  0.
<mgrwt>
<rscale>  0 0.33670422E+04</rscale>
<asrwt>0</asrwt>
<pdfrwt beam="2">  1        1 0.34341985E+00 0.33670422E+04</pdfrwt>
<pdfrwt beam="1">  1       -1 0.19533723E+00 0.33670422E+04</pdfrwt>
<totfact> 0.27699721E-01</totfact>
</mgrwt>
</event>
<event>
 4    1  0.2018023E-008  0.2986122E+04  0.7816531E-02  0.8247705E-01
         -2   -1    0    0    0  501 -0.00000000000E+00  0.00000000000E+00  0.14481063299E+04  0.14481063299E+04  0.00000000000E+00 0. -1.
          2   -1    0    0  501    0  0.00000000000E+00 -0.00000000000E+00 -0.15394113886E+04  0.15394113886E+04  0.00000000000E+00 0.  1.
    2000013    1    1    2    0    0 -0.10717724577E+04 -0.76773076535E+02  0.36944024084E+03  0.14810727187E+04  0.95000000000E+03 0.  0.
   -2000013    1    1    2    0    0  0.10717724577E+04  0.76773076535E+02 -0.46074529951E+03  0.15064449998E+04  0.95000000000E+03 0.  0.
<mgrwt>
<rscale>  0 0.29861222E+04</rscale>
<asrwt>0</asrwt>
<pdfrwt beam="2">  1        2 0.23683252E+00 0.29861222E+04</pdfrwt>
<pdfrwt beam="1">  1       -2 0.22278559E+00 0.29861222E+04</pdfrwt>
<totfact> 0.98097970E-01</totfact>
</mgrwt>
</event>
<event>
 4    1  0.2018023E-008  0.2201075E+04  0.7816531E-02  0.8517981E-01
         -2   -1    0    0    0  501 -0.00000000000E+00  0.00000000000E+00  0.14037822187E+04  0.14037822187E+04  0.00000000000E+00 0. -1.
          2   -1    0    0  501    0  0.00000000000E+00 -0.00000000000E+00 -0.86279971834E+03  0.86279971834E+03  0.00000000000E+00 0.  1.
    2000013    1    1    2    0    0  0.33047311733E+03 -0.42210715668E+03  0.12021675621E+03  0.10974238021E+04  0.95000000000E+03 0.  0.
   -2000013    1    1    2    0    0 -0.33047311733E+03  0.42210715668E+03  0.42076574415E+03  0.11691581349E+04  0.95000000000E+03 0.  0.
<mgrwt>
<rscale>  0 0.22010751E+04</rscale>
<asrwt>0</asrwt>
<pdfrwt beam="2">  1        2 0.13273842E+00 0.22010751E+04</pdfrwt>
<pdfrwt beam="1">  1       -2 0.21596649E+00 0.22010751E+04</pdfrwt>
<totfact> 0.29786487E+00</totfact>
</mgrwt>
</event>
<event>
 4    1  0.2018023E-008  0.2318419E+04  0.7816531E-02  0.8470694E-01
         -2   -1    0    0    0  501 -0.00000000000E+00  0.00000000000E+00  0.87026967979E+03  0.87026967979E+03  0.00000000000E+00 0. -1.
          2   -1    0    0  501    0  0.00000000000E+00 -0.00000000000E+00 -0.15440813752E+04  0.15440813752E+04  0.00000000000E+00 0.  1.
    2000013    1    1    2    0    0  0.27894785234E+03 -0.60287214825E+03 -0.33618999914E+03  0.12069757442E+04  0.95000000000E+03 0.  0.
   -2000013    1    1    2    0    0 -0.27894785234E+03  0.60287214825E+03 -0.33762169630E+03  0.12073753109E+04  0.95000000000E+03 0.  0.
<mgrwt>
<rscale>  0 0.23184195E+04</rscale>
<asrwt>0</asrwt>
<pdfrwt beam="2">  1        2 0.23755098E+00 0.23184195E+04</pdfrwt>
<pdfrwt beam="1">  1       -2 0.13388765E+00 0.23184195E+04</pdfrwt>
<totfact> 0.43734242E+00</totfact>
</mgrwt>
</event>
<event>
 4    1  0.2018023E-008  0.2781197E+04  0.7816531E-02  0.8309130E-01
         -2   -1    0    0    0  501 -0.00000000000E+00  0.00000000000E+00  0.10078283362E+04  0.10078283362E+04  0.00000000000E+00 0. -1.
          2   -1    0    0  501    0  0.00000000000E+00 -0.00000000000E+00 -0.19187431919E+04  0.19187431919E+04  0.00000000000E+00 0.  1.
    2000013    1    1    2    0    0  0.55022019079E+03 -0.81291932925E+03 -0.18169781957E+03  0.13780762649E+04  0.95000000000E+03 0.  0.
   -2000013    1    1    2    0    0 -0.55022019079E+03  0.81291932925E+03 -0.72921703619E+03  0.15484952632E+04  0.95000000000E+03 0.  0.
<mgrwt>
<rscale>  0 0.27811967E+04</rscale>
<asrwt>0</asrwt>
<pdfrwt beam="2">  1        2 0.29519126E+00 0.27811967E+04</pdfrwt>
<pdfrwt beam="1">  1       -2 0.15505052E+00 0.27811967E+04</pdfrwt>
<totfact> 0.17723280E+00</totfact>
</mgrwt>
</event>
<event>
 4    1  0.2018023E-008  0.2831801E+04  0.7816531E-02  0.8293463E-01
         -2   -1    0    0    0  501 -0.00000000000E+00  0.00000000000E+00  0.11380495032E+04  0.11380495032E+04  0.00000000000E+00 0. -1.
          2   -1    0    0  501    0  0.00000000000E+00 -0.00000000000E+00 -0.17615877403E+04  0.17615877403E+04  0.00000000000E+00 0.  1.
    2000013    1    1    2    0    0 -0.67854008606E+03  0.74386192087E+03 -0.71070014777E+01  0.13843040545E+04  0.95000000000E+03 0.  0.
   -2000013    1    1    2    0    0  0.67854008606E+03 -0.74386192087E+03 -0.61643123556E+03  0.15153331891E+04  0.95000000000E+03 0.  0.
<mgrwt>
<rscale>  0 0.28318009E+04</rscale>
<asrwt>0</asrwt>
<pdfrwt beam="2">  1        2 0.27101350E+00 0.28318009E+04</pdfrwt>
<pdfrwt beam="1">  1       -2 0.17508454E+00 0.28318009E+04</pdfrwt>
<totfact> 0.15436047E+00</totfact>
</mgrwt>
</event>
<event>
 4    1  0.2018023E-008  0.2758753E+04  0.7816531E-02  0.8316189E-01
          2   -1    0    0  501    0  0.00000000000E+00  0.00000000000E+00  0.13123415666E+04  0.13123415666E+04  0.00000000000E+00 0.  1.
         -2   -1    0    0    0  501 -0.00000000000E+00 -0.00000000000E+00 -0.14498357777E+04  0.14498357777E+04  0.00000000000E+00 0. -1.
    2000013    1    1    2    0    0  0.19742653036E+03  0.79629778144E+03  0.50390016410E+03  0.13525837375E+04  0.95000000000E+03 0.  0.
   -2000013    1    1    2    0    0 -0.19742653036E+03 -0.79629778144E+03 -0.64139437525E+03  0.14095936068E+04  0.95000000000E+03 0.  0.
<mgrwt>
<rscale>  0 0.27587532E+04</rscale>
<asrwt>0</asrwt>
<pdfrwt beam="1">  1        2 0.20189870E+00 0.27587532E+04</pdfrwt>
<pdfrwt beam="2">  1       -2 0.22305166E+00 0.27587532E+04</pdfrwt>
<totfact> 0.13421360E+00</totfact>
</mgrwt>
</event>
<event>
 4    1  0.2018023E-008  0.2059867E+04  0.7816531E-02  0.8579131E-01
         -2   -1    0    0    0  501 -0.00000000000E+00  0.00000000000E+00  0.29597734948E+03  0.29597734948E+03  0.00000000000E+00 0. -1.
          2   -1    0    0  501    0  0.00000000000E+00 -0.00000000000E+00 -0.35839318433E+04  0.35839318433E+04  0.00000000000E+00 0.  1.
    2000013    1    1    2    0    0  0.18824107414E+03 -0.30446758732E+02 -0.98634063289E+03  0.13826530842E+04  0.95000000000E+03 0.  0.
   -2000013    1    1    2    0    0 -0.18824107414E+03  0.30446758732E+02 -0.23016138609E+04  0.24972561086E+04  0.95000000000E+03 0.  0.
<mgrwt>
<rscale>  0 0.20598666E+04</rscale>
<asrwt>0</asrwt>
<pdfrwt beam="2">  1        2 0.55137415E+00 0.20598666E+04</pdfrwt>
<pdfrwt beam="1">  1       -2 0.45534975E-01 0.20598666E+04</pdfrwt>
<totfact> 0.30147702E+00</totfact>
</mgrwt>
</event>
<event>
 4    1  0.2018023E-008  0.3516940E+04  0.7816531E-02  0.8109787E-01
          2   -1    0    0  501    0  0.00000000000E+00  0.00000000000E+00  0.38156193552E+04  0.38156193552E+04  0.00000000000E+00 0.  1.
         -2   -1    0    0    0  501 -0.00000000000E+00 -0.00000000000E+00 -0.81041026791E+03  0.81041026791E+03  0.00000000000E+00 0. -1.
    2000013    1    1    2    0    0  0.81618678066E+03  0.85177005889E+03  0.32755319354E+03  0.15496658313E+04  0.95000000000E+03 0.  0.
   -2000013    1    1    2    0    0 -0.81618678066E+03 -0.85177005889E+03  0.26776558938E+04  0.30763637918E+04  0.95000000000E+03 0.  0.
<mgrwt>
<rscale>  0 0.35169402E+04</rscale>
<asrwt>0</asrwt>
<pdfrwt beam="1">  1        2 0.58701835E+00 0.35169402E+04</pdfrwt>
<pdfrwt beam="2">  1       -2 0.12467851E+00 0.35169402E+04</pdfrwt>
<totfact> 0.18879081E-01</totfact>
</mgrwt>
</event>
<event>
 4    1  0.2018023E-008  0.2655067E+04  0.7816531E-02  0.8349733E-01
         -2   -1    0    0    0  501 -0.00000000000E+00  0.00000000000E+00  0.97570811264E+03  0.97570811264E+03  0.00000000000E+00 0. -1.
          2   -1    0    0  501    0  0.00000000000E+00 -0.00000000000E+00 -0.18062215419E+04  0.18062215419E+04  0.00000000000E+00 0.  1.
    2000013    1    1    2    0    0  0.37321976086E+03  0.28568646557E+03  0.42227085320E+03  0.11409305062E+04  0.95000000000E+03 0.  0.
   -2000013    1    1    2    0    0 -0.37321976086E+03 -0.28568646557E+03 -0.12527842825E+04  0.16409991484E+04  0.95000000000E+03 0.  0.
<mgrwt>
<rscale>  0 0.26550669E+04</rscale>
<asrwt>0</asrwt>
<pdfrwt beam="2">  1        2 0.27788023E+00 0.26550669E+04</pdfrwt>
<pdfrwt beam="1">  1       -2 0.15010894E+00 0.26550669E+04</pdfrwt>
<totfact> 0.22544458E+00</totfact>
</mgrwt>
</event>
<event>
 4    1  0.2018023E-008  0.2223049E+04  0.7816531E-02  0.8508896E-01
          2   -1    0    0  501    0  0.00000000000E+00  0.00000000000E+00  0.10475205878E+04  0.10475205878E+04  0.00000000000E+00 0.  1.
         -2   -1    0    0    0  501 -0.00000000000E+00 -0.00000000000E+00 -0.11794386447E+04  0.11794386447E+04  0.00000000000E+00 0. -1.
    2000013    1    1    2    0    0 -0.10319752533E+03  0.55491012629E+03 -0.18621721820E+03  0.11206033330E+04  0.95000000000E+03 0.  0.
   -2000013    1    1    2    0    0  0.10319752533E+03 -0.55491012629E+03  0.54299161325E+02  0.11063558995E+04  0.95000000000E+03 0.  0.
<mgrwt>
<rscale>  0 0.22230486E+04</rscale>
<asrwt>0</asrwt>
<pdfrwt beam="1">  1        2 0.16115701E+00 0.22230486E+04</pdfrwt>
<pdfrwt beam="2">  1       -2 0.18145210E+00 0.22230486E+04</pdfrwt>
<totfact> 0.37971471E+00</totfact>
</mgrwt>
</event>
<event>
 4    1  0.2018023E-008  0.2422222E+04  0.7816531E-02  0.8431230E-01
         -2   -1    0    0    0  501 -0.00000000000E+00  0.00000000000E+00  0.13065794350E+04  0.13065794350E+04  0.00000000000E+00 0. -1.
          2   -1    0    0  501    0  0.00000000000E+00 -0.00000000000E+00 -0.11226185560E+04  0.11226185560E+04  0.00000000000E+00 0.  1.
    2000013    1    1    2    0    0 -0.59382827295E+03 -0.35418623844E+03  0.38644209794E+03  0.12368982999E+04  0.95000000000E+03 0.  0.
   -2000013    1    1    2    0    0  0.59382827295E+03  0.35418623844E+03 -0.20248121896E+03  0.11922996911E+04  0.95000000000E+03 0.  0.
<mgrwt>
<rscale>  0 0.24222224E+04</rscale>
<asrwt>0</asrwt>
<pdfrwt beam="2">  1        2 0.17271055E+00 0.24222224E+04</pdfrwt>
<pdfrwt beam="1">  1       -2 0.20101222E+00 0.24222224E+04</pdfrwt>
<totfact> 0.24802921E+00</totfact>
</mgrwt>
</event>
<event>
 4    1  0.2018023E-008  0.2964113E+04  0.7816531E-02  0.8254053E-01
         -2   -1    0    0    0  501 -0.00000000000E+00  0.00000000000E+00  0.20192996686E+04  0.20192996686E+04  0.00000000000E+00 0. -1.
          2   -1    0    0  501    0  0.00000000000E+00 -0.00000000000E+00 -0.10877492206E+04  0.10877492206E+04  0.00000000000E+00 0.  1.
    2000013    1    1    2    0    0 -0.98035524228E+03 -0.19814212295E+03 -0.10223634155E+03  0.13832241219E+04  0.95000000000E+03 0.  0.
   -2000013    1    1    2    0    0  0.98035524228E+03  0.19814212295E+03  0.10337867896E+04  0.17238247673E+04  0.95000000000E+03 0.  0.
<mgrwt>
<rscale>  0 0.29641131E+04</rscale>
<asrwt>0</asrwt>
<pdfrwt beam="2">  1        2 0.16734603E+00 0.29641131E+04</pdfrwt>
<pdfrwt beam="1">  1       -2 0.31066149E+00 0.29641131E+04</pdfrwt>
<totfact> 0.52030464E-01</totfact>
</mgrwt>
</event>
<event>
 4    1  0.2018023E-008  0.2716316E+04  0.7816531E-02  0.8329730E-01
         -2   -1    0    0    0  501 -0.00000000000E+00  0.00000000000E+00  0.22540192643E+04  0.22540192643E+04  0.00000000000E+00 0. -1.
          2   -1    0    0  501    0  0.00000000000E+00 -0.00000000000E+00 -0.81835759597E+03  0.81835759597E+03  0.00000000000E+00 0.  1.
    2000013    1    1    2    0    0 -0.77308027801E+03  0.12845592406E+03  0.70105107363E+02  0.12335188555E+04  0.95000000000E+03 0.  0.
   -2000013    1    1    2    0    0  0.77308027801E+03 -0.12845592406E+03  0.13655565609E+04  0.18388580048E+04  0.95000000000E+03 0.  0.
<mgrwt>
<rscale>  0 0.27163165E+04</rscale>
<asrwt>0</asrwt>
<pdfrwt beam="2">  1        2 0.12590117E+00 0.27163165E+04</pdfrwt>
<pdfrwt beam="1">  1       -2 0.34677219E+00 0.27163165E+04</pdfrwt>
<totfact> 0.47734902E-01</totfact>
</mgrwt>
</event>
<event>
 4    1  0.2018023E-008  0.2531905E+04  0.7816531E-02  0.8391707E-01
          1   -1    0    0  501    0  0.00000000000E+00  0.00000000000E+00  0.12212453530E+04  0.12212453530E+04  0.00000000000E+00 0.  1.
         -1   -1    0    0    0  501 -0.00000000000E+00 -0.00000000000E+00 -0.13122962520E+04  0.13122962520E+04  0.00000000000E+00 0. -1.
    2000013    1    1    2    0    0 -0.73006061306E+03  0.19217469502E+03  0.31556247025E+03  0.12537939563E+04  0.95000000000E+03 0.  0.
   -2000013    1    1    2    0    0  0.73006061306E+03 -0.19217469502E+03 -0.40661336927E+03  0.12797476486E+04  0.95000000000E+03 0.  0.
<mgrwt>
<rscale>  0 0.25319050E+04</rscale>
<asrwt>0</asrwt>
<pdfrwt beam="1">  1        1 0.18788390E+00 0.25319050E+04</pdfrwt>
<pdfrwt beam="2">  1       -1 0.20189173E+00 0.25319050E+04</pdfrwt>
<totfact> 0.13341850E+00</totfact>
</mgrwt>
</event>
<event>
 4    1  0.2018023E-008  0.2647516E+04  0.7816531E-02  0.8352238E-01
         -2   -1    0    0    0  501 -0.00000000000E+00  0.00000000000E+00  0.94917143391E+03  0.94917143391E+03  0.00000000000E+00 0. -1.
          2   -1    0    0  501    0  0.00000000000E+00 -0.00000000000E+00 -0.18461733776E+04  0.18461733776E+04  0.00000000000E+00 0.  1.
    2000013    1    1    2    0    0  0.40952868644E+03 -0.74942682850E+03 -0.82016490902E+02  0.12800707094E+04  0.95000000000E+03 0.  0.
   -2000013    1    1    2    0    0 -0.40952868644E+03  0.74942682850E+03 -0.81498545280E+03  0.15152741021E+04  0.95000000000E+03 0.  0.
<mgrwt>
<rscale>  0 0.26475158E+04</rscale>
<asrwt>0</asrwt>
<pdfrwt beam="2">  1        2 0.28402667E+00 0.26475158E+04</pdfrwt>
<pdfrwt beam="1">  1       -2 0.14602638E+00 0.26475158E+04</pdfrwt>
<totfact> 0.23056000E+00</totfact>
</mgrwt>
</event>
<event>
 4    1  0.2018023E-008  0.2256699E+04  0.7816531E-02  0.8495193E-01
         -2   -1    0    0    0  501 -0.00000000000E+00  0.00000000000E+00  0.74141037884E+03  0.74141037884E+03  0.00000000000E+00 0. -1.
          2   -1    0    0  501    0  0.00000000000E+00 -0.00000000000E+00 -0.17172303490E+04  0.17172303490E+04  0.00000000000E+00 0.  1.
    2000013    1    1    2    0    0 -0.91429436026E+02  0.59918065087E+03 -0.55045451589E+03  0.12541439185E+04  0.95000000000E+03 0.  0.
   -2000013    1    1    2    0    0  0.91429436026E+02 -0.59918065087E+03 -0.42536545428E+03  0.12044968094E+04  0.95000000000E+03 0.  0.
<mgrwt>
<rscale>  0 0.22566988E+04</rscale>
<asrwt>0</asrwt>
<pdfrwt beam="2">  1        2 0.26418928E+00 0.22566988E+04</pdfrwt>
<pdfrwt beam="1">  1       -2 0.11406314E+00 0.22566988E+04</pdfrwt>
<totfact> 0.52505484E+00</totfact>
</mgrwt>
</event>
<event>
 4    1  0.2018023E-008  0.2360371E+04  0.7816531E-02  0.8454491E-01
          2   -1    0    0  501    0  0.00000000000E+00  0.00000000000E+00  0.13798247603E+04  0.13798247603E+04  0.00000000000E+00 0.  1.
         -2   -1    0    0    0  501 -0.00000000000E+00 -0.00000000000E+00 -0.10094307877E+04  0.10094307877E+04  0.00000000000E+00 0. -1.
    2000013    1    1    2    0    0 -0.44443247752E+03  0.15258638485E+03  0.71071760482E+03  0.12760965268E+04  0.95000000000E+03 0.  0.
   -2000013    1    1    2    0    0  0.44443247752E+03 -0.15258638485E+03 -0.34032363225E+03  0.11131590212E+04  0.95000000000E+03 0.  0.
<mgrwt>
<rscale>  0 0.23603708E+04</rscale>
<asrwt>0</asrwt>
<pdfrwt beam="1">  1        2 0.21228073E+00 0.23603708E+04</pdfrwt>
<pdfrwt beam="2">  1       -2 0.15529704E+00 0.23603708E+04</pdfrwt>
<totfact> 0.36623090E+00</totfact>
</mgrwt>
</event>
<event>
 4    1  0.2018023E-008  0.3248676E+04  0.7816531E-02  0.8176079E-01
          2   -1    0    0  501    0  0.00000000000E+00  0.00000000000E+00  0.24941669948E+04  0.24941669948E+04  0.00000000000E+00 0.  1.
         -2   -1    0    0    0  501 -0.00000000000E+00 -0.00000000000E+00 -0.10578580748E+04  0.10578580748E+04  0.00000000000E+00 0. -1.
    2000013    1    1    2    0    0  0.10294398553E+04  0.28692364169E+03 -0.12445699204E+03  0.14352913065E+04  0.95000000000E+03 0.  0.
   -2000013    1    1    2    0    0 -0.10294398553E+04 -0.28692364169E+03  0.15607659120E+04  0.21167337631E+04  0.95000000000E+03 0.  0.
<mgrwt>
<rscale>  0 0.32486765E+04</rscale>
<asrwt>0</asrwt>
<pdfrwt beam="1">  1        2 0.38371800E+00 0.32486765E+04</pdfrwt>
<pdfrwt beam="2">  1       -2 0.16274740E+00 0.32486765E+04</pdfrwt>
<totfact> 0.70734168E-01</totfact>
</mgrwt>
</event>
<event>
 4    1  0.2018023E-008  0.2179648E+04  0.7816531E-02  0.8526947E-01
          2   -1    0    0  501    0  0.00000000000E+00  0.00000000000E+00  0.22203784338E+04  0.22203784338E+04  0.00000000000E+00 0.  1.
         -2   -1    0    0    0  501 -0.00000000000E+00 -0.00000000000E+00 -0.53491598554E+03  0.53491598554E+03  0.00000000000E+00 0. -1.
    2000013    1    1    2    0    0  0.95803372106E+02  0.44818068943E+03  0.49614689737E+03  0.11656354320E+04  0.95000000000E+03 0.  0.
   -2000013    1    1    2    0    0 -0.95803372106E+02 -0.44818068943E+03  0.11893155509E+04  0.15896589873E+04  0.95000000000E+03 0.  0.
<mgrwt>
<rscale>  0 0.21796476E+04</rscale>
<asrwt>0</asrwt>
<pdfrwt beam="1">  1        2 0.34159668E+00 0.21796476E+04</pdfrwt>
<pdfrwt beam="2">  1       -2 0.82294768E-01 0.21796476E+04</pdfrwt>
<totfact> 0.59703981E+00</totfact>
</mgrwt>
</event>
<event>
 4    1  0.2018023E-008  0.2341751E+04  0.7816531E-02  0.8461639E-01
         -1   -1    0    0    0  501 -0.00000000000E+00  0.00000000000E+00  0.49942549529E+03  0.49942549529E+03  0.00000000000E+00 0. -1.
          1   -1    0    0  501    0  0.00000000000E+00 -0.00000000000E+00 -0.27450527279E+04  0.27450527279E+04  0.00000000000E+00 0.  1.
    2000013    1    1    2    0    0 -0.52881754141E+03  0.18288028246E+03 -0.16689088208E+04  0.20002124492E+04  0.95000000000E+03 0.  0.
   -2000013    1    1    2    0    0  0.52881754141E+03 -0.18288028246E+03 -0.57671841184E+03  0.12442657740E+04  0.95000000000E+03 0.  0.
<mgrwt>
<rscale>  0 0.23417509E+04</rscale>
<asrwt>0</asrwt>
<pdfrwt beam="2">  1        1 0.42231579E+00 0.23417509E+04</pdfrwt>
<pdfrwt beam="1">  1       -1 0.76834695E-01 0.23417509E+04</pdfrwt>
<totfact> 0.13957087E+00</totfact>
</mgrwt>
</event>
<event>
 4    1  0.2018023E-008  0.2145196E+04  0.7816531E-02  0.8541591E-01
          2   -1    0    0  501    0  0.00000000000E+00  0.00000000000E+00  0.63951529384E+03  0.63951529384E+03  0.00000000000E+00 0.  1.
         -2   -1    0    0    0  501 -0.00000000000E+00 -0.00000000000E+00 -0.17989660780E+04  0.17989660780E+04  0.00000000000E+00 0. -1.
    2000013    1    1    2    0    0  0.41874578577E+03  0.22499678706E+03 -0.74830763826E+03  0.12993982872E+04  0.95000000000E+03 0.  0.
   -2000013    1    1    2    0    0 -0.41874578577E+03 -0.22499678706E+03 -0.41114314589E+03  0.11390830846E+04  0.95000000000E+03 0.  0.
<mgrwt>
<rscale>  0 0.21451959E+04</rscale>
<asrwt>0</asrwt>
<pdfrwt beam="1">  1        2 0.98386971E-01 0.21451959E+04</pdfrwt>
<pdfrwt beam="2">  1       -2 0.27676400E+00 0.21451959E+04</pdfrwt>
<totfact> 0.18566955E+00</totfact>
</mgrwt>
</event>
<event>
 4    1  0.2018023E-008  0.2109314E+04  0.7816531E-02  0.8557151E-01
          1   -1    0    0  501    0  0.00000000000E+00  0.00000000000E+00  0.62530066785E+03  0.62530066785E+03  0.00000000000E+00 0.  1.
         -1   -1    0    0    0  501 -0.00000000000E+00 -0.00000000000E+00 -0.17788269711E+04  0.17788269711E+04  0.00000000000E+00 0. -1.
    2000013    1    1    2    0    0 -0.22365138511E+03 -0.37177399593E+03 -0.74414157992E+03  0.12823737899E+04  0.95000000000E+03 0.  0.
   -2000013    1    1    2    0    0  0.22365138511E+03  0.37177399593E+03 -0.40938472333E+03  0.11217538490E+04  0.95000000000E+03 0.  0.
<mgrwt>
<rscale>  0 0.21093143E+04</rscale>
<asrwt>0</asrwt>
<pdfrwt beam="1">  1        1 0.96200104E-01 0.21093143E+04</pdfrwt>
<pdfrwt beam="2">  1       -1 0.27366568E+00 0.21093143E+04</pdfrwt>
<totfact> 0.14498322E+00</totfact>
</mgrwt>
</event>
<event>
 4    1  0.2018023E-008  0.2423061E+04  0.7816531E-02  0.8430920E-01
          2   -1    0    0  501    0  0.00000000000E+00  0.00000000000E+00  0.83554723018E+03  0.83554723018E+03  0.00000000000E+00 0.  1.
         -2   -1    0    0    0  501 -0.00000000000E+00 -0.00000000000E+00 -0.17567005612E+04  0.17567005612E+04  0.00000000000E+00 0. -1.
    2000013    1    1    2    0    0  0.15013505682E+03 -0.68476315855E+03 -0.16981844979E+03  0.11928031793E+04  0.95000000000E+03 0.  0.
   -2000013    1    1    2    0    0 -0.15013505682E+03  0.68476315855E+03 -0.75133488121E+03  0.13994446121E+04  0.95000000000E+03 0.  0.
<mgrwt>
<rscale>  0 0.24230611E+04</rscale>
<asrwt>0</asrwt>
<pdfrwt beam="1">  1        2 0.12854573E+00 0.24230611E+04</pdfrwt>
<pdfrwt beam="2">  1       -2 0.27026162E+00 0.24230611E+04</pdfrwt>
<totfact> 0.14080790E+00</totfact>
</mgrwt>
</event>
<event>
 4    1  0.2018023E-008  0.3114864E+04  0.7816531E-02  0.8211671E-01
          2   -1    0    0  501    0  0.00000000000E+00  0.00000000000E+00  0.13782707037E+04  0.13782707037E+04  0.00000000000E+00 0.  1.
         -2   -1    0    0    0  501 -0.00000000000E+00 -0.00000000000E+00 -0.17598819149E+04  0.17598819149E+04  0.00000000000E+00 0. -1.
    2000013    1    1    2    0    0  0.51586580719E+03 -0.97361106242E+03  0.36928048840E+03  0.15009677248E+04  0.95000000000E+03 0.  0.
   -2000013    1    1    2    0    0 -0.51586580719E+03  0.97361106242E+03 -0.75089169959E+03  0.16371848938E+04  0.95000000000E+03 0.  0.
<mgrwt>
<rscale>  0 0.31148635E+04</rscale>
<asrwt>0</asrwt>
<pdfrwt beam="1">  1        2 0.21204165E+00 0.31148635E+04</pdfrwt>
<pdfrwt beam="2">  1       -2 0.27075106E+00 0.31148635E+04</pdfrwt>
<totfact> 0.60561511E-01</totfact>
</mgrwt>
</event>
<event>
 4    1  0.2018023E-008  0.2198989E+04  0.7816531E-02  0.8518849E-01
         -2   -1    0    0    0  501 -0.00000000000E+00  0.00000000000E+00  0.57106801607E+03  0.57106801607E+03  0.00000000000E+00 0. -1.
          2   -1    0    0  501    0  0.00000000000E+00 -0.00000000000E+00 -0.21168900307E+04  0.21168900307E+04  0.00000000000E+00 0.  1.
    2000013    1    1    2    0    0 -0.16501207041E+03 -0.35069021184E+03 -0.28984554328E+03  0.10661721470E+04  0.95000000000E+03 0.  0.
   -2000013    1    1    2    0    0  0.16501207041E+03  0.35069021184E+03 -0.12559764713E+04  0.16217858997E+04  0.95000000000E+03 0.  0.
<mgrwt>
<rscale>  0 0.21989890E+04</rscale>
<asrwt>0</asrwt>
<pdfrwt beam="2">  1        2 0.32567538E+00 0.21989890E+04</pdfrwt>
<pdfrwt beam="1">  1       -2 0.87856620E-01 0.21989890E+04</pdfrwt>
<totfact> 0.58705619E+00</totfact>
</mgrwt>
</event>
<event>
 4    1  0.2018023E-008  0.2535067E+04  0.7816531E-02  0.8390598E-01
         -2   -1    0    0    0  501 -0.00000000000E+00  0.00000000000E+00  0.52427595559E+03  0.52427595559E+03  0.00000000000E+00 0. -1.
          2   -1    0    0  501    0  0.00000000000E+00 -0.00000000000E+00 -0.30644948535E+04  0.30644948535E+04  0.00000000000E+00 0.  1.
    2000013    1    1    2    0    0 -0.37616655921E+03  0.21766511048E+03 -0.22862883960E+04  0.25136614749E+04  0.95000000000E+03 0.  0.
   -2000013    1    1    2    0    0  0.37616655921E+03 -0.21766511048E+03 -0.25393050183E+03  0.10751093341E+04  0.95000000000E+03 0.  0.
<mgrwt>
<rscale>  0 0.25350668E+04</rscale>
<asrwt>0</asrwt>
<pdfrwt beam="2">  1        2 0.47146076E+00 0.25350668E+04</pdfrwt>
<pdfrwt beam="1">  1       -2 0.80657838E-01 0.25350668E+04</pdfrwt>
<totfact> 0.19135303E+00</totfact>
</mgrwt>
</event>
<event>
 4    1  0.2018023E-008  0.3125890E+04  0.7816531E-02  0.8208668E-01
          2   -1    0    0  501    0  0.00000000000E+00  0.00000000000E+00  0.20745846671E+04  0.20745846671E+04  0.00000000000E+00 0. -1.
         -2   -1    0    0    0  501 -0.00000000000E+00 -0.00000000000E+00 -0.11774869450E+04  0.11774869450E+04  0.00000000000E+00 0.  1.
    2000013    1    1    2    0    0 -0.65023194567E+03 -0.26929745029E+03  0.15120529026E+04  0.19194078983E+04  0.95000000000E+03 0.  0.
   -2000013    1    1    2    0    0  0.65023194567E+03  0.26929745029E+03 -0.61495518054E+03  0.13326637138E+04  0.95000000000E+03 0.  0.
<mgrwt>
<rscale>  0 0.31258895E+04</rscale>
<asrwt>0</asrwt>
<pdfrwt beam="1">  1        2 0.31916687E+00 0.31258895E+04</pdfrwt>
<pdfrwt beam="2">  1       -2 0.18115184E+00 0.31258895E+04</pdfrwt>
<totfact> 0.91580639E-01</totfact>
</mgrwt>
</event>
<event>
 4    1  0.2018023E-008  0.2543541E+04  0.7816531E-02  0.8387636E-01
         -2   -1    0    0    0  501 -0.00000000000E+00  0.00000000000E+00  0.41887713730E+03  0.41887713730E+03  0.00000000000E+00 0. -1.
          2   -1    0    0  501    0  0.00000000000E+00 -0.00000000000E+00 -0.38612760079E+04  0.38612760079E+04  0.00000000000E+00 0.  1.
    2000013    1    1    2    0    0 -0.52891911098E+03 -0.62731714299E+03 -0.20644895130E+04  0.24161744914E+04  0.95000000000E+03 0.  0.
   -2000013    1    1    2    0    0  0.52891911098E+03  0.62731714299E+03 -0.13779093576E+04  0.18639786537E+04  0.95000000000E+03 0.  0.
<mgrwt>
<rscale>  0 0.25435410E+04</rscale>
<asrwt>0</asrwt>
<pdfrwt beam="2">  1        2 0.59404245E+00 0.25435410E+04</pdfrwt>
<pdfrwt beam="1">  1       -2 0.64442638E-01 0.25435410E+04</pdfrwt>
<totfact> 0.87301128E-01</totfact>
</mgrwt>
</event>
<event>
 4    1  0.2018023E-008  0.2640881E+04  0.7816531E-02  0.8354446E-01
         -2   -1    0    0    0  501 -0.00000000000E+00  0.00000000000E+00  0.85466982487E+03  0.85466982487E+03  0.00000000000E+00 0. -1.
          2   -1    0    0  501    0  0.00000000000E+00 -0.00000000000E+00 -0.20400423104E+04  0.20400423104E+04  0.00000000000E+00 0.  1.
    2000013    1    1    2    0    0  0.17013047225E+03 -0.89761676909E+03 -0.50498076085E+03  0.14114410404E+04  0.95000000000E+03 0.  0.
   -2000013    1    1    2    0    0 -0.17013047225E+03  0.89761676909E+03 -0.68039172464E+03  0.14832710948E+04  0.95000000000E+03 0.  0.
<mgrwt>
<rscale>  0 0.26408806E+04</rscale>
<asrwt>0</asrwt>
<pdfrwt beam="2">  1        2 0.31385266E+00 0.26408806E+04</pdfrwt>
<pdfrwt beam="1">  1       -2 0.13148767E+00 0.26408806E+04</pdfrwt>
<totfact> 0.23608470E+00</totfact>
</mgrwt>
</event>
<event>
 4    1  0.2018023E-008  0.2641960E+04  0.7816531E-02  0.8354087E-01
         -1   -1    0    0    0  501 -0.00000000000E+00  0.00000000000E+00  0.12393375513E+04  0.12393375513E+04  0.00000000000E+00 0. -1.
          1   -1    0    0  501    0  0.00000000000E+00 -0.00000000000E+00 -0.14080004893E+04  0.14080004893E+04  0.00000000000E+00 0.  1.
    2000013    1    1    2    0    0  0.70870877046E+03 -0.31413031790E+03 -0.57680108049E+03  0.13550444511E+04  0.95000000000E+03 0.  0.
   -2000013    1    1    2    0    0 -0.70870877046E+03  0.31413031790E+03  0.40813814248E+03  0.12922935894E+04  0.95000000000E+03 0.  0.
<mgrwt>
<rscale>  0 0.26419598E+04</rscale>
<asrwt>0</asrwt>
<pdfrwt beam="2">  1        1 0.21661546E+00 0.26419598E+04</pdfrwt>
<pdfrwt beam="1">  1       -1 0.19066732E+00 0.26419598E+04</pdfrwt>
<totfact> 0.11634313E+00</totfact>
</mgrwt>
</event>
<event>
 4    1  0.2018023E-008  0.3023066E+04  0.7816531E-02  0.8237175E-01
          2   -1    0    0  501    0  0.00000000000E+00  0.00000000000E+00  0.34908408954E+04  0.34908408954E+04  0.00000000000E+00 0.  1.
         -2   -1    0    0    0  501 -0.00000000000E+00 -0.00000000000E+00 -0.65449316142E+03  0.65449316142E+03  0.00000000000E+00 0. -1.
    2000013    1    1    2    0    0  0.10629782085E+04 -0.16027920586E+03  0.76540340306E+03  0.16260241280E+04  0.95000000000E+03 0.  0.
   -2000013    1    1    2    0    0 -0.10629782085E+04  0.16027920586E+03  0.20709443310E+04  0.25193099288E+04  0.95000000000E+03 0.  0.
<mgrwt>
<rscale>  0 0.30230657E+04</rscale>
<asrwt>0</asrwt>
<pdfrwt beam="1">  1        2 0.53705244E+00 0.30230657E+04</pdfrwt>
<pdfrwt beam="2">  1       -2 0.10069126E+00 0.30230657E+04</pdfrwt>
<totfact> 0.57233182E-01</totfact>
</mgrwt>
</event>
<event>
 4    1  0.2018023E-008  0.2000075E+04  0.7816531E-02  0.8606585E-01
         -2   -1    0    0    0  501 -0.00000000000E+00  0.00000000000E+00  0.47018199708E+03  0.47018199708E+03  0.00000000000E+00 0.  1.
          2   -1    0    0  501    0  0.00000000000E+00 -0.00000000000E+00 -0.21269964563E+04  0.21269964563E+04  0.00000000000E+00 0. -1.
    2000013    1    1    2    0    0  0.30093206924E+03  0.68004974921E+02 -0.89189847387E+03  0.13390921083E+04  0.95000000000E+03 0.  0.
   -2000013    1    1    2    0    0 -0.30093206924E+03 -0.68004974921E+02 -0.76491598532E+03  0.12580863450E+04  0.95000000000E+03 0.  0.
<mgrwt>
<rscale>  0 0.20000754E+04</rscale>
<asrwt>0</asrwt>
<pdfrwt beam="2">  1        2 0.32723023E+00 0.20000754E+04</pdfrwt>
<pdfrwt beam="1">  1       -2 0.72335692E-01 0.20000754E+04</pdfrwt>
<totfact> 0.91195063E+00</totfact>
</mgrwt>
</event>
<event>
 4    1  0.2018023E-008  0.2093855E+04  0.7816531E-02  0.8563955E-01
         -2   -1    0    0    0  501 -0.00000000000E+00  0.00000000000E+00  0.25491399843E+03  0.25491399843E+03  0.00000000000E+00 0. -1.
          2   -1    0    0  501    0  0.00000000000E+00 -0.00000000000E+00 -0.42997121532E+04  0.42997121532E+04  0.00000000000E+00 0.  1.
    2000013    1    1    2    0    0 -0.42877579184E+03  0.92819113352E+02 -0.19504928455E+04  0.22134557615E+04  0.95000000000E+03 0.  0.
   -2000013    1    1    2    0    0  0.42877579184E+03 -0.92819113352E+02 -0.20943053092E+04  0.23411703901E+04  0.95000000000E+03 0.  0.
<mgrwt>
<rscale>  0 0.20938546E+04</rscale>
<asrwt>0</asrwt>
<pdfrwt beam="2">  1        2 0.66149418E+00 0.20938546E+04</pdfrwt>
<pdfrwt beam="1">  1       -2 0.39217538E-01 0.20938546E+04</pdfrwt>
<totfact> 0.10886520E+00</totfact>
</mgrwt>
</event>
<event>
 4    1  0.2018023E-008  0.4269571E+04  0.7816531E-02  0.7952269E-01
          2   -1    0    0  501    0  0.00000000000E+00  0.00000000000E+00  0.97895694165E+03  0.97895694165E+03  0.00000000000E+00 0.  1.
         -2   -1    0    0    0  501 -0.00000000000E+00 -0.00000000000E+00 -0.46552708143E+04  0.46552708143E+04  0.00000000000E+00 0. -1.
    2000013    1    1    2    0    0 -0.52411109679E+03  0.16971881992E+04 -0.27709633702E+04  0.34257668082E+04  0.95000000000E+03 0.  0.
   -2000013    1    1    2    0    0  0.52411109679E+03 -0.16971881992E+04 -0.90535050239E+03  0.22084609477E+04  0.95000000000E+03 0.  0.
<mgrwt>
<rscale>  0 0.42695713E+04</rscale>
<asrwt>0</asrwt>
<pdfrwt beam="1">  1        2 0.15060876E+00 0.42695713E+04</pdfrwt>
<pdfrwt beam="2">  1       -2 0.71619553E+00 0.42695713E+04</pdfrwt>
<totfact> 0.39850125E-03</totfact>
</mgrwt>
</event>
<event>
 4    1  0.2018023E-008  0.2166689E+04  0.7816531E-02  0.8532422E-01
          2   -1    0    0  501    0  0.00000000000E+00  0.00000000000E+00  0.10797409210E+04  0.10797409210E+04  0.00000000000E+00 0.  1.
         -2   -1    0    0    0  501 -0.00000000000E+00 -0.00000000000E+00 -0.10869598124E+04  0.10869598124E+04  0.00000000000E+00 0. -1.
    2000013    1    1    2    0    0 -0.27586244987E+03 -0.43400326570E+03  0.78098186051E+02  0.10830781378E+04  0.95000000000E+03 0.  0.
   -2000013    1    1    2    0    0  0.27586244987E+03  0.43400326570E+03 -0.85317077482E+02  0.10836225956E+04  0.95000000000E+03 0.  0.
<mgrwt>
<rscale>  0 0.21666887E+04</rscale>
<asrwt>0</asrwt>
<pdfrwt beam="1">  1        2 0.16611399E+00 0.21666887E+04</pdfrwt>
<pdfrwt beam="2">  1       -2 0.16722459E+00 0.21666887E+04</pdfrwt>
<totfact> 0.45854280E+00</totfact>
</mgrwt>
</event>
<event>
 4    1  0.2018023E-008  0.2562792E+04  0.7816531E-02  0.8380951E-01
         -1   -1    0    0    0  501 -0.00000000000E+00  0.00000000000E+00  0.22593020340E+04  0.22593020340E+04  0.00000000000E+00 0. -1.
          1   -1    0    0  501    0  0.00000000000E+00 -0.00000000000E+00 -0.72676235665E+03  0.72676235665E+03  0.00000000000E+00 0.  1.
    2000013    1    1    2    0    0 -0.84702701464E+02 -0.85562063250E+03  0.78333282850E+03  0.15017894442E+04  0.95000000000E+03 0.  0.
   -2000013    1    1    2    0    0  0.84702701464E+02  0.85562063250E+03  0.74920684882E+03  0.14842749465E+04  0.95000000000E+03 0.  0.
<mgrwt>
<rscale>  0 0.25627920E+04</rscale>
<asrwt>0</asrwt>
<pdfrwt beam="2">  1        1 0.11180959E+00 0.25627920E+04</pdfrwt>
<pdfrwt beam="1">  1       -1 0.34758493E+00 0.25627920E+04</pdfrwt>
<totfact> 0.36643401E-01</totfact>
</mgrwt>
</event>
<event>
 4    1  0.2018023E-008  0.2411769E+04  0.7816531E-02  0.8435111E-01
          2   -1    0    0  501    0  0.00000000000E+00  0.00000000000E+00  0.19304329201E+04  0.19304329201E+04  0.00000000000E+00 0.  1.
         -2   -1    0    0    0  501 -0.00000000000E+00 -0.00000000000E+00 -0.75328023569E+03  0.75328023569E+03  0.00000000000E+00 0. -1.
    2000013    1    1    2    0    0  0.55628714785E+03  0.48208523823E+03  0.69870782407E+03  0.13901633685E+04  0.95000000000E+03 0.  0.
   -2000013    1    1    2    0    0 -0.55628714785E+03 -0.48208523823E+03  0.47844486039E+03  0.12935497873E+04  0.95000000000E+03 0.  0.
<mgrwt>
<rscale>  0 0.24117686E+04</rscale>
<asrwt>0</asrwt>
<pdfrwt beam="1">  1        2 0.29698968E+00 0.24117686E+04</pdfrwt>
<pdfrwt beam="2">  1       -2 0.11588927E+00 0.24117686E+04</pdfrwt>
<totfact> 0.37967194E+00</totfact>
</mgrwt>
</event>
<event>
 4    1  0.2018023E-008  0.2286066E+04  0.7816531E-02  0.8483436E-01
          2   -1    0    0  501    0  0.00000000000E+00  0.00000000000E+00  0.10099779652E+04  0.10099779652E+04  0.00000000000E+00 0.  1.
         -2   -1    0    0    0  501 -0.00000000000E+00 -0.00000000000E+00 -0.12936165203E+04  0.12936165203E+04  0.00000000000E+00 0. -1.
    2000013    1    1    2    0    0  0.59827718669E+03 -0.14545006616E+03  0.17292899775E+02  0.11322059699E+04  0.95000000000E+03 0.  0.
   -2000013    1    1    2    0    0 -0.59827718669E+03  0.14545006616E+03 -0.30093145493E+03  0.11713885156E+04  0.95000000000E+03 0.  0.
<mgrwt>
<rscale>  0 0.22860658E+04</rscale>
<asrwt>0</asrwt>
<pdfrwt beam="1">  1        2 0.15538123E+00 0.22860658E+04</pdfrwt>
<pdfrwt beam="2">  1       -2 0.19901793E+00 0.22860658E+04</pdfrwt>
<totfact> 0.30403882E+00</totfact>
</mgrwt>
</event>
<event>
 4    1  0.2018023E-008  0.2113370E+04  0.7816531E-02  0.8555376E-01
          2   -1    0    0  501    0  0.00000000000E+00  0.00000000000E+00  0.22243091109E+04  0.22243091109E+04  0.00000000000E+00 0.  1.
         -2   -1    0    0    0  501 -0.00000000000E+00 -0.00000000000E+00 -0.50199115874E+03  0.50199115874E+03  0.00000000000E+00 0. -1.
    2000013    1    1    2    0    0 -0.45119605151E+03  0.16652204620E+02  0.99162594162E+03  0.14455715759E+04  0.95000000000E+03 0.  0.
   -2000013    1    1    2    0    0  0.45119605151E+03 -0.16652204620E+02  0.73069201052E+03  0.12807286938E+04  0.95000000000E+03 0.  0.
<mgrwt>
<rscale>  0 0.21133703E+04</rscale>
<asrwt>0</asrwt>
<pdfrwt beam="1">  1        2 0.34220140E+00 0.21133703E+04</pdfrwt>
<pdfrwt beam="2">  1       -2 0.77229410E-01 0.21133703E+04</pdfrwt>
<totfact> 0.68900441E+00</totfact>
</mgrwt>
</event>
<event>
 4    1  0.2018023E-008  0.2595188E+04  0.7816531E-02  0.8369838E-01
         -1   -1    0    0    0  501 -0.00000000000E+00  0.00000000000E+00  0.15046433862E+04  0.15046433862E+04  0.00000000000E+00 0. -1.
          1   -1    0    0  501    0  0.00000000000E+00 -0.00000000000E+00 -0.11190361541E+04  0.11190361541E+04  0.00000000000E+00 0.  1.
    2000013    1    1    2    0    0 -0.65381635691E+03  0.52772737275E+03 -0.84577543697E+02  0.12710725272E+04  0.95000000000E+03 0.  0.
   -2000013    1    1    2    0    0  0.65381635691E+03 -0.52772737275E+03  0.47018477583E+03  0.13526070131E+04  0.95000000000E+03 0.  0.
<mgrwt>
<rscale>  0 0.25951881E+04</rscale>
<asrwt>0</asrwt>
<pdfrwt beam="2">  1        1 0.17215941E+00 0.25951881E+04</pdfrwt>
<pdfrwt beam="1">  1       -1 0.23148360E+00 0.25951881E+04</pdfrwt>
<totfact> 0.99742235E-01</totfact>
</mgrwt>
</event>
<event>
 4    1  0.2018023E-008  0.2096931E+04  0.7816531E-02  0.8562597E-01
          2   -1    0    0  501    0  0.00000000000E+00  0.00000000000E+00  0.15603986346E+04  0.15603986346E+04  0.00000000000E+00 0.  1.
         -2   -1    0    0    0  501 -0.00000000000E+00 -0.00000000000E+00 -0.70448628369E+03  0.70448628369E+03  0.00000000000E+00 0. -1.
    2000013    1    1    2    0    0  0.16660174166E+03 -0.20186748473E+03  0.41117931950E+02  0.98625417923E+03  0.95000000000E+03 0.  0.
   -2000013    1    1    2    0    0 -0.16660174166E+03  0.20186748473E+03  0.81479441899E+03  0.12786307391E+04  0.95000000000E+03 0.  0.
<mgrwt>
<rscale>  0 0.20969306E+04</rscale>
<asrwt>0</asrwt>
<pdfrwt beam="1">  1        2 0.24006133E+00 0.20969306E+04</pdfrwt>
<pdfrwt beam="2">  1       -2 0.10838250E+00 0.20969306E+04</pdfrwt>
<totfact> 0.73686919E+00</totfact>
</mgrwt>
</event>
<event>
 4    1  0.2018023E-008  0.2539807E+04  0.7816531E-02  0.8388940E-01
         -2   -1    0    0    0  501 -0.00000000000E+00  0.00000000000E+00  0.14012309312E+04  0.14012309312E+04  0.00000000000E+00 0. -1.
          2   -1    0    0  501    0  0.00000000000E+00 -0.00000000000E+00 -0.11508840230E+04  0.11508840230E+04  0.00000000000E+00 0.  1.
    2000013    1    1    2    0    0  0.60913634572E+03  0.68457666288E+02  0.70626720834E+03  0.13330592295E+04  0.95000000000E+03 0.  0.
   -2000013    1    1    2    0    0 -0.60913634572E+03 -0.68457666288E+02 -0.45592030013E+03  0.12190557247E+04  0.95000000000E+03 0.  0.
<mgrwt>
<rscale>  0 0.25398065E+04</rscale>
<asrwt>0</asrwt>
<pdfrwt beam="2">  1        2 0.17705908E+00 0.25398065E+04</pdfrwt>
<pdfrwt beam="1">  1       -2 0.21557399E+00 0.25398065E+04</pdfrwt>
<totfact> 0.19007994E+00</totfact>
</mgrwt>
</event>
<event>
 4    1  0.2018023E-008  0.3771674E+04  0.7816531E-02  0.8052261E-01
          2   -1    0    0  501    0  0.00000000000E+00  0.00000000000E+00  0.27991643119E+04  0.27991643119E+04  0.00000000000E+00 0.  1.
         -2   -1    0    0    0  501 -0.00000000000E+00 -0.00000000000E+00 -0.12705150886E+04  0.12705150886E+04  0.00000000000E+00 0. -1.
    2000013    1    1    2    0    0  0.66020282217E+03  0.13967518174E+04  0.13219732793E+04  0.22443031785E+04  0.95000000000E+03 0.  0.
   -2000013    1    1    2    0    0 -0.66020282217E+03 -0.13967518174E+04  0.20667594387E+03  0.18253762220E+04  0.95000000000E+03 0.  0.
<mgrwt>
<rscale>  0 0.37716736E+04</rscale>
<asrwt>0</asrwt>
<pdfrwt beam="1">  1        2 0.43064066E+00 0.37716736E+04</pdfrwt>
<pdfrwt beam="2">  1       -2 0.19546386E+00 0.37716736E+04</pdfrwt>
<totfact> 0.26504929E-01</totfact>
</mgrwt>
</event>
<event>
 4    1  0.2018023E-008  0.2769329E+04  0.7816531E-02  0.8312854E-01
          2   -1    0    0  501    0  0.00000000000E+00  0.00000000000E+00  0.21083257657E+04  0.21083257657E+04  0.00000000000E+00 0.  1.
         -2   -1    0    0    0  501 -0.00000000000E+00 -0.00000000000E+00 -0.90939241483E+03  0.90939241483E+03  0.00000000000E+00 0. -1.
    2000013    1    1    2    0    0 -0.40123346161E+03 -0.71759492164E+03  0.12337997040E+04  0.17608783240E+04  0.95000000000E+03 0.  0.
   -2000013    1    1    2    0    0  0.40123346161E+03  0.71759492164E+03 -0.34866353178E+02  0.12568398565E+04  0.95000000000E+03 0.  0.
<mgrwt>
<rscale>  0 0.27693288E+04</rscale>
<asrwt>0</asrwt>
<pdfrwt beam="1">  1        2 0.32435781E+00 0.27693288E+04</pdfrwt>
<pdfrwt beam="2">  1       -2 0.13990653E+00 0.27693288E+04</pdfrwt>
<totfact> 0.18245111E+00</totfact>
</mgrwt>
</event>
<event>
 4    1  0.2018023E-008  0.2901230E+04  0.7816531E-02  0.8272511E-01
         -2   -1    0    0    0  501 -0.00000000000E+00  0.00000000000E+00  0.79347242069E+03  0.79347242069E+03  0.00000000000E+00 0. -1.
          2   -1    0    0  501    0  0.00000000000E+00 -0.00000000000E+00 -0.26519944936E+04  0.26519944936E+04  0.00000000000E+00 0.  1.
    2000013    1    1    2    0    0  0.65061723341E+03 -0.80463344173E+03 -0.49934964169E+03  0.14908346067E+04  0.95000000000E+03 0.  0.
   -2000013    1    1    2    0    0 -0.65061723341E+03  0.80463344173E+03 -0.13591724312E+04  0.19546323076E+04  0.95000000000E+03 0.  0.
<mgrwt>
<rscale>  0 0.29012304E+04</rscale>
<asrwt>0</asrwt>
<pdfrwt beam="2">  1        2 0.40799914E+00 0.29012304E+04</pdfrwt>
<pdfrwt beam="1">  1       -2 0.12207268E+00 0.29012304E+04</pdfrwt>
<totfact> 0.12447436E+00</totfact>
</mgrwt>
</event>
<event>
 4    1  0.2018023E-008  0.2178412E+04  0.7816531E-02  0.8527467E-01
          1   -1    0    0  501    0  0.00000000000E+00  0.00000000000E+00  0.20086665762E+04  0.20086665762E+04  0.00000000000E+00 0.  1.
         -1   -1    0    0    0  501 -0.00000000000E+00 -0.00000000000E+00 -0.59062566615E+03  0.59062566615E+03  0.00000000000E+00 0. -1.
    2000013    1    1    2    0    0 -0.11433585549E+03  0.50877413554E+03  0.83943630912E+03  0.13707943412E+04  0.95000000000E+03 0.  0.
   -2000013    1    1    2    0    0  0.11433585549E+03 -0.50877413554E+03  0.57860460091E+03  0.12284979011E+04  0.95000000000E+03 0.  0.
<mgrwt>
<rscale>  0 0.21784123E+04</rscale>
<asrwt>0</asrwt>
<pdfrwt beam="1">  1        1 0.30902562E+00 0.21784123E+04</pdfrwt>
<pdfrwt beam="2">  1       -1 0.90865488E-01 0.21784123E+04</pdfrwt>
<totfact> 0.31753010E+00</totfact>
</mgrwt>
</event>
<event>
 4    1  0.2018023E-008  0.2622286E+04  0.7816531E-02  0.8360670E-01
         -1   -1    0    0    0  501 -0.00000000000E+00  0.00000000000E+00  0.14648869579E+04  0.14648869579E+04  0.00000000000E+00 0. -1.
          1   -1    0    0  501    0  0.00000000000E+00 -0.00000000000E+00 -0.11735345438E+04  0.11735345438E+04  0.00000000000E+00 0.  1.
    2000013    1    1    2    0    0  0.78327252884E+03  0.44450783854E+03  0.71109618516E+02  0.13109766019E+04  0.95000000000E+03 0.  0.
   -2000013    1    1    2    0    0 -0.78327252884E+03 -0.44450783854E+03  0.22024279562E+03  0.13274448998E+04  0.95000000000E+03 0.  0.
<mgrwt>
<rscale>  0 0.26222856E+04</rscale>
<asrwt>0</asrwt>
<pdfrwt beam="2">  1        1 0.18054378E+00 0.26222856E+04</pdfrwt>
<pdfrwt beam="1">  1       -1 0.22536722E+00 0.26222856E+04</pdfrwt>
<totfact> 0.99536570E-01</totfact>
</mgrwt>
</event>
<event>
 4    1  0.2018023E-008  0.2105772E+04  0.7816531E-02  0.8558705E-01
         -1   -1    0    0    0  501 -0.00000000000E+00  0.00000000000E+00  0.47635718551E+03  0.47635718551E+03  0.00000000000E+00 0. -1.
          1   -1    0    0  501    0  0.00000000000E+00 -0.00000000000E+00 -0.23271791848E+04  0.23271791848E+04  0.00000000000E+00 0.  1.
    2000013    1    1    2    0    0 -0.25094256762E+03 -0.12380251351E+03 -0.14013027442E+04  0.17159395722E+04  0.95000000000E+03 0.  0.
   -2000013    1    1    2    0    0  0.25094256762E+03  0.12380251351E+03 -0.44951925516E+03  0.10875967982E+04  0.95000000000E+03 0.  0.
<mgrwt>
<rscale>  0 0.21057716E+04</rscale>
<asrwt>0</asrwt>
<pdfrwt beam="2">  1        1 0.35802757E+00 0.21057716E+04</pdfrwt>
<pdfrwt beam="1">  1       -1 0.73285720E-01 0.21057716E+04</pdfrwt>
<totfact> 0.30753094E+00</totfact>
</mgrwt>
</event>
<event>
 4    1  0.2018023E-008  0.3541100E+04  0.7816531E-02  0.8104118E-01
         -2   -1    0    0    0  501 -0.00000000000E+00  0.00000000000E+00  0.29102987250E+04  0.29102987250E+04  0.00000000000E+00 0. -1.
          2   -1    0    0  501    0  0.00000000000E+00 -0.00000000000E+00 -0.10771568199E+04  0.10771568199E+04  0.00000000000E+00 0.  1.
    2000013    1    1    2    0    0 -0.11206050430E+04 -0.52764258690E+03 -0.24328246871E+02  0.15611707867E+04  0.95000000000E+03 0.  0.
   -2000013    1    1    2    0    0  0.11206050430E+04  0.52764258690E+03  0.18574701520E+04  0.24262847581E+04  0.95000000000E+03 0.  0.
<mgrwt>
<rscale>  0 0.35411005E+04</rscale>
<asrwt>0</asrwt>
<pdfrwt beam="2">  1        2 0.16571643E+00 0.35411005E+04</pdfrwt>
<pdfrwt beam="1">  1       -2 0.44773826E+00 0.35411005E+04</pdfrwt>
<totfact> 0.66157113E-02</totfact>
</mgrwt>
</event>
<event>
 4    1  0.2018023E-008  0.2284827E+04  0.7816531E-02  0.8483928E-01
         -2   -1    0    0    0  501 -0.00000000000E+00  0.00000000000E+00  0.11516996726E+04  0.11516996726E+04  0.00000000000E+00 0. -1.
          2   -1    0    0  501    0  0.00000000000E+00 -0.00000000000E+00 -0.11332025617E+04  0.11332025617E+04  0.00000000000E+00 0.  1.
    2000013    1    1    2    0    0 -0.49100708739E+02 -0.41436865933E+03 -0.46878044930E+03  0.11385812993E+04  0.95000000000E+03 0.  0.
   -2000013    1    1    2    0    0  0.49100708739E+02  0.41436865933E+03  0.48727756012E+03  0.11463209350E+04  0.95000000000E+03 0.  0.
<mgrwt>
<rscale>  0 0.22848274E+04</rscale>
<asrwt>0</asrwt>
<pdfrwt beam="2">  1        2 0.17433886E+00 0.22848274E+04</pdfrwt>
<pdfrwt beam="1">  1       -2 0.17718457E+00 0.22848274E+04</pdfrwt>
<totfact> 0.35788159E+00</totfact>
</mgrwt>
</event>
<event>
 4    1  0.2018023E-008  0.2279316E+04  0.7816531E-02  0.8486121E-01
         -2   -1    0    0    0  501 -0.00000000000E+00  0.00000000000E+00  0.77136234014E+03  0.77136234014E+03  0.00000000000E+00 0. -1.
          2   -1    0    0  501    0  0.00000000000E+00 -0.00000000000E+00 -0.16838003790E+04  0.16838003790E+04  0.00000000000E+00 0.  1.
    2000013    1    1    2    0    0 -0.23155849641E+03  0.58537327581E+03 -0.46294506961E+03  0.12300810326E+04  0.95000000000E+03 0.  0.
   -2000013    1    1    2    0    0  0.23155849641E+03 -0.58537327581E+03 -0.44949296925E+03  0.12250816865E+04  0.95000000000E+03 0.  0.
<mgrwt>
<rscale>  0 0.22793159E+04</rscale>
<asrwt>0</asrwt>
<pdfrwt beam="2">  1        2 0.25904621E+00 0.22793159E+04</pdfrwt>
<pdfrwt beam="1">  1       -2 0.11867113E+00 0.22793159E+04</pdfrwt>
<totfact> 0.49644486E+00</totfact>
</mgrwt>
</event>
<event>
 4    1  0.2018023E-008  0.3159951E+04  0.7816531E-02  0.8199475E-01
          2   -1    0    0  501    0  0.00000000000E+00  0.00000000000E+00  0.15696500150E+04  0.15696500150E+04  0.00000000000E+00 0.  1.
         -2   -1    0    0    0  501 -0.00000000000E+00 -0.00000000000E+00 -0.15903685139E+04  0.15903685139E+04  0.00000000000E+00 0. -1.
    2000013    1    1    2    0    0 -0.91923978732E+02  0.10424230959E+04 -0.71657980468E+03  0.15846395632E+04  0.95000000000E+03 0.  0.
   -2000013    1    1    2    0    0  0.91923978732E+02 -0.10424230959E+04  0.69586130585E+03  0.15753789657E+04  0.95000000000E+03 0.  0.
<mgrwt>
<rscale>  0 0.31599506E+04</rscale>
<asrwt>0</asrwt>
<pdfrwt beam="1">  1        2 0.24148462E+00 0.31599506E+04</pdfrwt>
<pdfrwt beam="2">  1       -2 0.24467208E+00 0.31599506E+04</pdfrwt>
<totfact> 0.67911990E-01</totfact>
</mgrwt>
</event>
<event>
 4    1  0.2018023E-008  0.2519162E+04  0.7816531E-02  0.8396191E-01
          2   -1    0    0  501    0  0.00000000000E+00  0.00000000000E+00  0.94937980170E+03  0.94937980170E+03  0.00000000000E+00 0.  1.
         -2   -1    0    0    0  501 -0.00000000000E+00 -0.00000000000E+00 -0.16711377530E+04  0.16711377530E+04  0.00000000000E+00 0. -1.
    2000013    1    1    2    0    0  0.94088679602E+02  0.74323437109E+03 -0.72539806112E+03  0.14106567113E+04  0.95000000000E+03 0.  0.
   -2000013    1    1    2    0    0 -0.94088679602E+02 -0.74323437109E+03  0.36401098413E+01  0.12098608434E+04  0.95000000000E+03 0.  0.
<mgrwt>
<rscale>  0 0.25191621E+04</rscale>
<asrwt>0</asrwt>
<pdfrwt beam="1">  1        2 0.14605843E+00 0.25191621E+04</pdfrwt>
<pdfrwt beam="2">  1       -2 0.25709811E+00 0.25191621E+04</pdfrwt>
<totfact> 0.14064069E+00</totfact>
</mgrwt>
</event>
<event>
 4    1  0.2018023E-008  0.2384216E+04  0.7816531E-02  0.8445437E-01
          2   -1    0    0  501    0  0.00000000000E+00  0.00000000000E+00  0.13079198181E+04  0.13079198181E+04  0.00000000000E+00 0.  1.
         -2   -1    0    0    0  501 -0.00000000000E+00 -0.00000000000E+00 -0.10865506590E+04  0.10865506590E+04  0.00000000000E+00 0. -1.
    2000013    1    1    2    0    0 -0.53199663353E+02 -0.70838738410E+03  0.22942274777E+03  0.12082126002E+04  0.95000000000E+03 0.  0.
   -2000013    1    1    2    0    0  0.53199663353E+02  0.70838738410E+03 -0.80535887197E+01  0.11862578769E+04  0.95000000000E+03 0.  0.
<mgrwt>
<rscale>  0 0.23842157E+04</rscale>
<asrwt>0</asrwt>
<pdfrwt beam="1">  1        2 0.20121843E+00 0.23842157E+04</pdfrwt>
<pdfrwt beam="2">  1       -2 0.16716164E+00 0.23842157E+04</pdfrwt>
<totfact> 0.32895111E+00</totfact>
</mgrwt>
</event>
<event>
 4    1  0.2018023E-008  0.4140203E+04  0.7816531E-02  0.7976845E-01
          2   -1    0    0  501    0  0.00000000000E+00  0.00000000000E+00  0.12374173346E+04  0.12374173346E+04  0.00000000000E+00 0.  1.
         -2   -1    0    0    0  501 -0.00000000000E+00 -0.00000000000E+00 -0.34631159921E+04  0.34631159921E+04  0.00000000000E+00 0. -1.
    2000013    1    1    2    0    0  0.14049056230E+04  0.10971774908E+04 -0.16272236477E+04  0.25938224796E+04  0.95000000000E+03 0.  0.
   -2000013    1    1    2    0    0 -0.14049056230E+04 -0.10971774908E+04 -0.59847500980E+03  0.21067108471E+04  0.95000000000E+03 0.  0.
<mgrwt>
<rscale>  0 0.41402028E+04</rscale>
<asrwt>0</asrwt>
<pdfrwt beam="1">  1        2 0.19037190E+00 0.41402028E+04</pdfrwt>
<pdfrwt beam="2">  1       -2 0.53278707E+00 0.41402028E+04</pdfrwt>
<totfact> 0.14854684E-02</totfact>
</mgrwt>
</event>
<event>
 4    1  0.2018023E-008  0.2562050E+04  0.7816531E-02  0.8381207E-01
          2   -1    0    0  501    0  0.00000000000E+00  0.00000000000E+00  0.14920875835E+04  0.14920875835E+04  0.00000000000E+00 0.  1.
         -2   -1    0    0    0  501 -0.00000000000E+00 -0.00000000000E+00 -0.10998184686E+04  0.10998184686E+04  0.00000000000E+00 0. -1.
    2000013    1    1    2    0    0 -0.57404336910E+03 -0.28698759532E+03 -0.38204778783E+03  0.12084486674E+04  0.95000000000E+03 0.  0.
   -2000013    1    1    2    0    0  0.57404336910E+03  0.28698759532E+03  0.77431690271E+03  0.13834573847E+04  0.95000000000E+03 0.  0.
<mgrwt>
<rscale>  0 0.25620503E+04</rscale>
<asrwt>0</asrwt>
<pdfrwt beam="1">  1        2 0.22955194E+00 0.25620503E+04</pdfrwt>
<pdfrwt beam="2">  1       -2 0.16920284E+00 0.25620503E+04</pdfrwt>
<totfact> 0.24578496E+00</totfact>
</mgrwt>
</event>
<event>
 4    1  0.2018023E-008  0.2429297E+04  0.7816531E-02  0.8428616E-01
         -2   -1    0    0    0  501 -0.00000000000E+00  0.00000000000E+00  0.91056021128E+03  0.91056021128E+03  0.00000000000E+00 0. -1.
          2   -1    0    0  501    0  0.00000000000E+00 -0.00000000000E+00 -0.16202890595E+04  0.16202890595E+04  0.00000000000E+00 0.  1.
    2000013    1    1    2    0    0  0.46923881651E+03  0.57462331108E+03 -0.19861570820E+03  0.12216076359E+04  0.95000000000E+03 0.  0.
   -2000013    1    1    2    0    0 -0.46923881651E+03 -0.57462331108E+03 -0.51111314000E+03  0.13092416349E+04  0.95000000000E+03 0.  0.
<mgrwt>
<rscale>  0 0.24292968E+04</rscale>
<asrwt>0</asrwt>
<pdfrwt beam="2">  1        2 0.24927524E+00 0.24292968E+04</pdfrwt>
<pdfrwt beam="1">  1       -2 0.14008619E+00 0.24292968E+04</pdfrwt>
<totfact> 0.34953441E+00</totfact>
</mgrwt>
</event>
<event>
 4    1  0.2018023E-008  0.2908176E+04  0.7816531E-02  0.8270449E-01
         -2   -1    0    0    0  501 -0.00000000000E+00  0.00000000000E+00  0.12952259762E+04  0.12952259762E+04  0.00000000000E+00 0. -1.
          2   -1    0    0  501    0  0.00000000000E+00 -0.00000000000E+00 -0.16324348441E+04  0.16324348441E+04  0.00000000000E+00 0.  1.
    2000013    1    1    2    0    0  0.66925698981E+03  0.82631380166E+03  0.11821249778E+03  0.14307947483E+04  0.95000000000E+03 0.  0.
   -2000013    1    1    2    0    0 -0.66925698981E+03 -0.82631380166E+03 -0.45542136572E+03  0.14968660720E+04  0.95000000000E+03 0.  0.
<mgrwt>
<rscale>  0 0.29081761E+04</rscale>
<asrwt>0</asrwt>
<pdfrwt beam="2">  1        2 0.25114382E+00 0.29081761E+04</pdfrwt>
<pdfrwt beam="1">  1       -2 0.19926554E+00 0.29081761E+04</pdfrwt>
<totfact> 0.12407770E+00</totfact>
</mgrwt>
</event>
<event>
 4    1  0.2018023E-008  0.2831839E+04  0.7816531E-02  0.8293451E-01
          2   -1    0    0  501    0  0.00000000000E+00  0.00000000000E+00  0.17899498051E+04  0.17899498051E+04  0.00000000000E+00 0.  1.
         -2   -1    0    0    0  501 -0.00000000000E+00 -0.00000000000E+00 -0.11200473194E+04  0.11200473194E+04  0.00000000000E+00 0. -1.
    2000013    1    1    2    0    0 -0.94715829517E+02  0.56403954314E+03 -0.56981322521E+03  0.12467152065E+04  0.95000000000E+03 0.  0.
   -2000013    1    1    2    0    0  0.94715829517E+02 -0.56403954314E+03  0.12397157109E+04  0.16632819179E+04  0.95000000000E+03 0.  0.
<mgrwt>
<rscale>  0 0.28318393E+04</rscale>
<asrwt>0</asrwt>
<pdfrwt beam="1">  1        2 0.27537689E+00 0.28318393E+04</pdfrwt>
<pdfrwt beam="2">  1       -2 0.17231497E+00 0.28318393E+04</pdfrwt>
<totfact> 0.15570160E+00</totfact>
</mgrwt>
</event>
<event>
 4    1  0.2018023E-008  0.2377164E+04  0.7816531E-02  0.8448103E-01
          2   -1    0    0  501    0  0.00000000000E+00  0.00000000000E+00  0.35613021301E+04  0.35613021301E+04  0.00000000000E+00 0.  1.
         -2   -1    0    0    0  501 -0.00000000000E+00 -0.00000000000E+00 -0.39668848126E+03  0.39668848126E+03  0.00000000000E+00 0. -1.
    2000013    1    1    2    0    0 -0.49427136561E+03  0.34338898014E+03  0.22228629868E+04  0.24911523504E+04  0.95000000000E+03 0.  0.
   -2000013    1    1    2    0    0  0.49427136561E+03 -0.34338898014E+03  0.94175066203E+03  0.14668382610E+04  0.95000000000E+03 0.  0.
<mgrwt>
<rscale>  0 0.23771643E+04</rscale>
<asrwt>0</asrwt>
<pdfrwt beam="1">  1        2 0.54789261E+00 0.23771643E+04</pdfrwt>
<pdfrwt beam="2">  1       -2 0.61029000E-01 0.23771643E+04</pdfrwt>
<totfact> 0.16601127E+00</totfact>
</mgrwt>
</event>
<event>
 4    1  0.2018023E-008  0.2485554E+04  0.7816531E-02  0.8408150E-01
          2   -1    0    0  501    0  0.00000000000E+00  0.00000000000E+00  0.22253712967E+04  0.22253712967E+04  0.00000000000E+00 0.  1.
         -2   -1    0    0    0  501 -0.00000000000E+00 -0.00000000000E+00 -0.69403923351E+03  0.69403923351E+03  0.00000000000E+00 0. -1.
    2000013    1    1    2    0    0 -0.65806362622E+03 -0.21422679224E+03  0.29138273452E+03  0.12109272285E+04  0.95000000000E+03 0.  0.
   -2000013    1    1    2    0    0  0.65806362622E+03  0.21422679224E+03  0.12399493287E+04  0.17084833017E+04  0.95000000000E+03 0.  0.
<mgrwt>
<rscale>  0 0.24855543E+04</rscale>
<asrwt>0</asrwt>
<pdfrwt beam="1">  1        2 0.34236481E+00 0.24855543E+04</pdfrwt>
<pdfrwt beam="2">  1       -2 0.10677527E+00 0.24855543E+04</pdfrwt>
<totfact> 0.31495692E+00</totfact>
</mgrwt>
</event>
<event>
 4    1  0.2018023E-008  0.2755831E+04  0.7816531E-02  0.8317114E-01
          2   -1    0    0  501    0  0.00000000000E+00  0.00000000000E+00  0.12494631743E+04  0.12494631743E+04  0.00000000000E+00 0.  1.
         -2   -1    0    0    0  501 -0.00000000000E+00 -0.00000000000E+00 -0.15195737701E+04  0.15195737701E+04  0.00000000000E+00 0. -1.
    2000013    1    1    2    0    0  0.54216065470E+03  0.65839543918E+03 -0.65592990412E+03  0.14353281050E+04  0.95000000000E+03 0.  0.
   -2000013    1    1    2    0    0 -0.54216065470E+03 -0.65839543918E+03  0.38581930833E+03  0.13337088395E+04  0.95000000000E+03 0.  0.
<mgrwt>
<rscale>  0 0.27558312E+04</rscale>
<asrwt>0</asrwt>
<pdfrwt beam="1">  1        2 0.19222510E+00 0.27558312E+04</pdfrwt>
<pdfrwt beam="2">  1       -2 0.23378058E+00 0.27558312E+04</pdfrwt>
<totfact> 0.12516546E+00</totfact>
</mgrwt>
</event>
<event>
 4    1  0.2018023E-008  0.2559129E+04  0.7816531E-02  0.8382218E-01
         -1   -1    0    0    0  501 -0.00000000000E+00  0.00000000000E+00  0.83008401919E+03  0.83008401919E+03  0.00000000000E+00 0. -1.
          1   -1    0    0  501    0  0.00000000000E+00 -0.00000000000E+00 -0.19724335555E+04  0.19724335555E+04  0.00000000000E+00 0.  1.
    2000013    1    1    2    0    0  0.53842004972E+03  0.57434207040E+03 -0.19977300258E+03  0.12498696797E+04  0.95000000000E+03 0.  0.
   -2000013    1    1    2    0    0 -0.53842004972E+03 -0.57434207040E+03 -0.94257653370E+03  0.15526478949E+04  0.95000000000E+03 0.  0.
<mgrwt>
<rscale>  0 0.25591292E+04</rscale>
<asrwt>0</asrwt>
<pdfrwt beam="2">  1        1 0.30345131E+00 0.25591292E+04</pdfrwt>
<pdfrwt beam="1">  1       -1 0.12770523E+00 0.25591292E+04</pdfrwt>
<totfact> 0.14584092E+00</totfact>
</mgrwt>
</event>
<event>
 4    1  0.2018023E-008  0.2125256E+04  0.7816531E-02  0.8550199E-01
         -2   -1    0    0    0  501 -0.00000000000E+00  0.00000000000E+00  0.45204863187E+03  0.45204863187E+03  0.00000000000E+00 0. -1.
          2   -1    0    0  501    0  0.00000000000E+00 -0.00000000000E+00 -0.24979127281E+04  0.24979127281E+04  0.00000000000E+00 0.  1.
    2000013    1    1    2    0    0 -0.30801403784E+03  0.23278311358E+03 -0.63622268876E+03  0.12067891014E+04  0.95000000000E+03 0.  0.
   -2000013    1    1    2    0    0  0.30801403784E+03 -0.23278311358E+03 -0.14096414074E+04  0.17431722586E+04  0.95000000000E+03 0.  0.
<mgrwt>
<rscale>  0 0.21252558E+04</rscale>
<asrwt>0</asrwt>
<pdfrwt beam="2">  1        2 0.38429427E+00 0.21252558E+04</pdfrwt>
<pdfrwt beam="1">  1       -2 0.69545943E-01 0.21252558E+04</pdfrwt>
<totfact> 0.60547554E+00</totfact>
</mgrwt>
</event>
<event>
 4    1  0.2018023E-008  0.2468210E+04  0.7816531E-02  0.8414399E-01
         -2   -1    0    0    0  501 -0.00000000000E+00  0.00000000000E+00  0.10051022368E+04  0.10051022368E+04  0.00000000000E+00 0. -1.
          2   -1    0    0  501    0  0.00000000000E+00 -0.00000000000E+00 -0.15152835638E+04  0.15152835638E+04  0.00000000000E+00 0.  1.
    2000013    1    1    2    0    0  0.31635478776E+03 -0.70497439156E+03 -0.41144723399E+03  0.12918428971E+04  0.95000000000E+03 0.  0.
   -2000013    1    1    2    0    0 -0.31635478776E+03  0.70497439156E+03 -0.98734093021E+02  0.12285429035E+04  0.95000000000E+03 0.  0.
<mgrwt>
<rscale>  0 0.24682098E+04</rscale>
<asrwt>0</asrwt>
<pdfrwt beam="2">  1        2 0.23312055E+00 0.24682098E+04</pdfrwt>
<pdfrwt beam="1">  1       -2 0.15463111E+00 0.24682098E+04</pdfrwt>
<totfact> 0.30748836E+00</totfact>
</mgrwt>
</event>
<event>
 4    1  0.2018023E-008  0.2917610E+04  0.7816531E-02  0.8267657E-01
          2   -1    0    0  501    0  0.00000000000E+00  0.00000000000E+00  0.13295204322E+04  0.13295204322E+04  0.00000000000E+00 0.  1.
         -2   -1    0    0    0  501 -0.00000000000E+00 -0.00000000000E+00 -0.16006615438E+04  0.16006615438E+04  0.00000000000E+00 0. -1.
    2000013    1    1    2    0    0 -0.90164906560E+03  0.49112844536E+03 -0.55140059916E+03  0.15035693559E+04  0.95000000000E+03 0.  0.
   -2000013    1    1    2    0    0  0.90164906560E+03 -0.49112844536E+03  0.28025948753E+03  0.14266126200E+04  0.95000000000E+03 0.  0.
<mgrwt>
<rscale>  0 0.29176101E+04</rscale>
<asrwt>0</asrwt>
<pdfrwt beam="1">  1        2 0.20454161E+00 0.29176101E+04</pdfrwt>
<pdfrwt beam="2">  1       -2 0.24625562E+00 0.29176101E+04</pdfrwt>
<totfact> 0.92804917E-01</totfact>
</mgrwt>
</event>
<event>
 4    1  0.2018023E-008  0.3380052E+04  0.7816531E-02  0.8142820E-01
          2   -1    0    0  501    0  0.00000000000E+00  0.00000000000E+00  0.24696070581E+04  0.24696070581E+04  0.00000000000E+00 0.  1.
         -2   -1    0    0    0  501 -0.00000000000E+00 -0.00000000000E+00 -0.11565351284E+04  0.11565351284E+04  0.00000000000E+00 0. -1.
    2000013    1    1    2    0    0  0.16556460644E+03  0.87878004620E+03 -0.49593078547E+03  0.13957483127E+04  0.95000000000E+03 0.  0.
   -2000013    1    1    2    0    0 -0.16556460644E+03 -0.87878004620E+03  0.18090027152E+04  0.22303938738E+04  0.95000000000E+03 0.  0.
<mgrwt>
<rscale>  0 0.33800517E+04</rscale>
<asrwt>0</asrwt>
<pdfrwt beam="1">  1        2 0.37993955E+00 0.33800517E+04</pdfrwt>
<pdfrwt beam="2">  1       -2 0.17792848E+00 0.33800517E+04</pdfrwt>
<totfact> 0.56372238E-01</totfact>
</mgrwt>
</event>
<event>
 4    1  0.2018023E-008  0.2759316E+04  0.7816531E-02  0.8316011E-01
         -2   -1    0    0    0  501 -0.00000000000E+00  0.00000000000E+00  0.12239053691E+04  0.12239053691E+04  0.00000000000E+00 0. -1.
          2   -1    0    0  501    0  0.00000000000E+00 -0.00000000000E+00 -0.15552319854E+04  0.15552319854E+04  0.00000000000E+00 0.  1.
    2000013    1    1    2    0    0  0.13987046419E+03 -0.89061175605E+03 -0.60260412861E+03  0.14416604255E+04  0.95000000000E+03 0.  0.
   -2000013    1    1    2    0    0 -0.13987046419E+03  0.89061175605E+03  0.27127751228E+03  0.13374769289E+04  0.95000000000E+03 0.  0.
<mgrwt>
<rscale>  0 0.27593164E+04</rscale>
<asrwt>0</asrwt>
<pdfrwt beam="2">  1        2 0.23926646E+00 0.27593164E+04</pdfrwt>
<pdfrwt beam="1">  1       -2 0.18829313E+00 0.27593164E+04</pdfrwt>
<totfact> 0.16420579E+00</totfact>
</mgrwt>
</event>
<event>
 4    1  0.2018023E-008  0.3844995E+04  0.7816531E-02  0.8036567E-01
         -2   -1    0    0    0  501 -0.00000000000E+00  0.00000000000E+00  0.15933998425E+04  0.15933998425E+04  0.00000000000E+00 0. -1.
          2   -1    0    0  501    0  0.00000000000E+00 -0.00000000000E+00 -0.23195667898E+04  0.23195667898E+04  0.00000000000E+00 0.  1.
    2000013    1    1    2    0    0  0.51133004815E+03 -0.14377055193E+04 -0.10570784209E+04  0.20852746501E+04  0.95000000000E+03 0.  0.
   -2000013    1    1    2    0    0 -0.51133004815E+03  0.14377055193E+04  0.33091147352E+03  0.18276919822E+04  0.95000000000E+03 0.  0.
<mgrwt>
<rscale>  0 0.38449954E+04</rscale>
<asrwt>0</asrwt>
<pdfrwt beam="2">  1        2 0.35685643E+00 0.38449954E+04</pdfrwt>
<pdfrwt beam="1">  1       -2 0.24513844E+00 0.38449954E+04</pdfrwt>
<totfact> 0.24307105E-01</totfact>
</mgrwt>
</event>
<event>
 4    1  0.2018023E-008  0.2362845E+04  0.7816531E-02  0.8453546E-01
          2   -1    0    0  501    0  0.00000000000E+00  0.00000000000E+00  0.19529561280E+04  0.19529561280E+04  0.00000000000E+00 0.  1.
         -2   -1    0    0    0  501 -0.00000000000E+00 -0.00000000000E+00 -0.71469054296E+03  0.71469054296E+03  0.00000000000E+00 0. -1.
    2000013    1    1    2    0    0 -0.27375613902E+03 -0.62430659755E+03  0.80992379432E+03  0.14223845134E+04  0.95000000000E+03 0.  0.
   -2000013    1    1    2    0    0  0.27375613902E+03  0.62430659755E+03  0.42834179076E+03  0.12452621576E+04  0.95000000000E+03 0.  0.
<mgrwt>
<rscale>  0 0.23628451E+04</rscale>
<asrwt>0</asrwt>
<pdfrwt beam="1">  1        2 0.30045479E+00 0.23628451E+04</pdfrwt>
<pdfrwt beam="2">  1       -2 0.10995239E+00 0.23628451E+04</pdfrwt>
<totfact> 0.42095888E+00</totfact>
</mgrwt>
</event>
<event>
 4    1  0.2018023E-008  0.2143312E+04  0.7816531E-02  0.8542400E-01
         -2   -1    0    0    0  501 -0.00000000000E+00  0.00000000000E+00  0.40613861735E+03  0.40613861735E+03  0.00000000000E+00 0. -1.
          2   -1    0    0  501    0  0.00000000000E+00 -0.00000000000E+00 -0.28277211831E+04  0.28277211831E+04  0.00000000000E+00 0.  1.
    2000013    1    1    2    0    0  0.43616757021E+03 -0.25957307151E+02 -0.15647387667E+04  0.18819732567E+04  0.95000000000E+03 0.  0.
   -2000013    1    1    2    0    0 -0.43616757021E+03  0.25957307151E+02 -0.85684379910E+03  0.13518865437E+04  0.95000000000E+03 0.  0.
<mgrwt>
<rscale>  0 0.21433122E+04</rscale>
<asrwt>0</asrwt>
<pdfrwt beam="2">  1        2 0.43503403E+00 0.21433122E+04</pdfrwt>
<pdfrwt beam="1">  1       -2 0.62482864E-01 0.21433122E+04</pdfrwt>
<totfact> 0.48583564E+00</totfact>
</mgrwt>
</event>
<event>
 4    1  0.2018023E-008  0.2089753E+04  0.7816531E-02  0.8565771E-01
          2   -1    0    0  501    0  0.00000000000E+00  0.00000000000E+00  0.23965150336E+04  0.23965150336E+04  0.00000000000E+00 0.  1.
         -2   -1    0    0    0  501 -0.00000000000E+00 -0.00000000000E+00 -0.45556456062E+03  0.45556456062E+03  0.00000000000E+00 0. -1.
    2000013    1    1    2    0    0 -0.26954969803E+03 -0.24663379224E+03  0.12928149685E+04  0.16454044518E+04  0.95000000000E+03 0.  0.
   -2000013    1    1    2    0    0  0.26954969803E+03  0.24663379224E+03  0.64813550445E+03  0.12066751424E+04  0.95000000000E+03 0.  0.
<mgrwt>
<rscale>  0 0.20897534E+04</rscale>
<asrwt>0</asrwt>
<pdfrwt beam="1">  1        2 0.36869461E+00 0.20897534E+04</pdfrwt>
<pdfrwt beam="2">  1       -2 0.70086857E-01 0.20897534E+04</pdfrwt>
<totfact> 0.68299960E+00</totfact>
</mgrwt>
</event>
<event>
 4    1  0.2018023E-008  0.2520482E+04  0.7816531E-02  0.8395725E-01
          1   -1    0    0  501    0  0.00000000000E+00  0.00000000000E+00  0.20576182150E+04  0.20576182150E+04  0.00000000000E+00 0.  1.
         -1   -1    0    0    0  501 -0.00000000000E+00 -0.00000000000E+00 -0.77186702934E+03  0.77186702934E+03  0.00000000000E+00 0. -1.
    2000013    1    1    2    0    0 -0.54245843763E+03  0.59921544072E+03  0.44084759646E+03  0.13229387379E+04  0.95000000000E+03 0.  0.
   -2000013    1    1    2    0    0  0.54245843763E+03 -0.59921544072E+03  0.84490358915E+03  0.15065465064E+04  0.95000000000E+03 0.  0.
<mgrwt>
<rscale>  0 0.25204822E+04</rscale>
<asrwt>0</asrwt>
<pdfrwt beam="1">  1        1 0.31655665E+00 0.25204822E+04</pdfrwt>
<pdfrwt beam="2">  1       -1 0.11874877E+00 0.25204822E+04</pdfrwt>
<totfact> 0.15336927E+00</totfact>
</mgrwt>
</event>
<event>
 4    1  0.2018023E-008  0.3376028E+04  0.7816531E-02  0.8143815E-01
          2   -1    0    0  501    0  0.00000000000E+00  0.00000000000E+00  0.11233023122E+04  0.11233023122E+04  0.00000000000E+00 0.  1.
         -2   -1    0    0    0  501 -0.00000000000E+00 -0.00000000000E+00 -0.25366202037E+04  0.25366202037E+04  0.00000000000E+00 0. -1.
    2000013    1    1    2    0    0  0.37198954957E+03  0.79928507946E+03  0.46579389073E+03  0.13772061617E+04  0.95000000000E+03 0.  0.
   -2000013    1    1    2    0    0 -0.37198954957E+03 -0.79928507946E+03 -0.18791117822E+04  0.22827163541E+04  0.95000000000E+03 0.  0.
<mgrwt>
<rscale>  0 0.33760280E+04</rscale>
<asrwt>0</asrwt>
<pdfrwt beam="1">  1        2 0.17281574E+00 0.33760280E+04</pdfrwt>
<pdfrwt beam="2">  1       -2 0.39024926E+00 0.33760280E+04</pdfrwt>
<totfact> 0.15022228E-01</totfact>
</mgrwt>
</event>
<event>
 4    1  0.2018023E-008  0.3962885E+04  0.7816531E-02  0.8012076E-01
         -1   -1    0    0    0  501 -0.00000000000E+00  0.00000000000E+00  0.16064415012E+04  0.16064415012E+04  0.00000000000E+00 0. -1.
          1   -1    0    0  501    0  0.00000000000E+00 -0.00000000000E+00 -0.24439818357E+04  0.24439818357E+04  0.00000000000E+00 0.  1.
    2000013    1    1    2    0    0 -0.15868894312E+04 -0.95431061032E+01 -0.11453204065E+04  0.21754466142E+04  0.95000000000E+03 0.  0.
   -2000013    1    1    2    0    0  0.15868894312E+04  0.95431061032E+01  0.30778007202E+03  0.18749767227E+04  0.95000000000E+03 0.  0.
<mgrwt>
<rscale>  0 0.39628847E+04</rscale>
<asrwt>0</asrwt>
<pdfrwt beam="2">  1        1 0.37599720E+00 0.39628847E+04</pdfrwt>
<pdfrwt beam="1">  1       -1 0.24714485E+00 0.39628847E+04</pdfrwt>
<totfact> 0.84644727E-02</totfact>
</mgrwt>
</event>
<event>
 4    1  0.2018023E-008  0.2691260E+04  0.7816531E-02  0.8337847E-01
          2   -1    0    0  501    0  0.00000000000E+00  0.00000000000E+00  0.27000453457E+04  0.27000453457E+04  0.00000000000E+00 0. -1.
         -2   -1    0    0    0  501 -0.00000000000E+00 -0.00000000000E+00 -0.67062557829E+03  0.67062557829E+03  0.00000000000E+00 0.  1.
    2000013    1    1    2    0    0  0.15379726088E+03  0.35720026607E+03 -0.74975711448E+02  0.10292555488E+04  0.95000000000E+03 0.  0.
   -2000013    1    1    2    0    0 -0.15379726088E+03 -0.35720026607E+03  0.21043954789E+04  0.23414153752E+04  0.95000000000E+03 0.  0.
<mgrwt>
<rscale>  0 0.26912595E+04</rscale>
<asrwt>0</asrwt>
<pdfrwt beam="1">  1        2 0.41539159E+00 0.26912595E+04</pdfrwt>
<pdfrwt beam="2">  1       -2 0.10317317E+00 0.26912595E+04</pdfrwt>
<totfact> 0.17867573E+00</totfact>
</mgrwt>
</event>
<event>
 4    1  0.2018023E-008  0.3127220E+04  0.7816531E-02  0.8208307E-01
          2   -1    0    0  501    0  0.00000000000E+00  0.00000000000E+00  0.33547740909E+04  0.33547740909E+04  0.00000000000E+00 0.  1.
         -2   -1    0    0    0  501 -0.00000000000E+00 -0.00000000000E+00 -0.72877533696E+03  0.72877533696E+03  0.00000000000E+00 0. -1.
    2000013    1    1    2    0    0 -0.47929794459E+03  0.41493470812E+03  0.27075139224E+04  0.29385419806E+04  0.95000000000E+03 0.  0.
   -2000013    1    1    2    0    0  0.47929794459E+03 -0.41493470812E+03 -0.81515168419E+02  0.11450074473E+04  0.95000000000E+03 0.  0.
<mgrwt>
<rscale>  0 0.31272202E+04</rscale>
<asrwt>0</asrwt>
<pdfrwt beam="1">  1        2 0.51611908E+00 0.31272202E+04</pdfrwt>
<pdfrwt beam="2">  1       -2 0.11211928E+00 0.31272202E+04</pdfrwt>
<totfact> 0.54322741E-01</totfact>
</mgrwt>
</event>
<event>
 4    1  0.2018023E-008  0.2133587E+04  0.7816531E-02  0.8546591E-01
         -2   -1    0    0    0  501 -0.00000000000E+00  0.00000000000E+00  0.70046848480E+03  0.70046848480E+03  0.00000000000E+00 0. -1.
          2   -1    0    0  501    0  0.00000000000E+00 -0.00000000000E+00 -0.16246959605E+04  0.16246959605E+04  0.00000000000E+00 0.  1.
    2000013    1    1    2    0    0 -0.32604983409E+03 -0.35564646754E+03 -0.51931909716E+03  0.11853207283E+04  0.95000000000E+03 0.  0.
   -2000013    1    1    2    0    0  0.32604983409E+03  0.35564646754E+03 -0.40490837850E+03  0.11398437170E+04  0.95000000000E+03 0.  0.
<mgrwt>
<rscale>  0 0.21335869E+04</rscale>
<asrwt>0</asrwt>
<pdfrwt beam="2">  1        2 0.24995322E+00 0.21335869E+04</pdfrwt>
<pdfrwt beam="1">  1       -2 0.10776438E+00 0.21335869E+04</pdfrwt>
<totfact> 0.68557597E+00</totfact>
</mgrwt>
</event>
<event>
 4    1  0.2018023E-008  0.2250230E+04  0.7816531E-02  0.8497807E-01
          2   -1    0    0  501    0  0.00000000000E+00  0.00000000000E+00  0.17593938925E+04  0.17593938925E+04  0.00000000000E+00 0.  1.
         -2   -1    0    0    0  501 -0.00000000000E+00 -0.00000000000E+00 -0.71949991499E+03  0.71949991499E+03  0.00000000000E+00 0. -1.
    2000013    1    1    2    0    0 -0.55851241069E+03 -0.85419461287E+02  0.28847306850E+03  0.11423437786E+04  0.95000000000E+03 0.  0.
   -2000013    1    1    2    0    0  0.55851241069E+03  0.85419461287E+02  0.75142090905E+03  0.13365500289E+04  0.95000000000E+03 0.  0.
<mgrwt>
<rscale>  0 0.22502300E+04</rscale>
<asrwt>0</asrwt>
<pdfrwt beam="1">  1        2 0.27067598E+00 0.22502300E+04</pdfrwt>
<pdfrwt beam="2">  1       -2 0.11069230E+00 0.22502300E+04</pdfrwt>
<totfact> 0.53540382E+00</totfact>
</mgrwt>
</event>
<event>
 4    1  0.2018023E-008  0.2398263E+04  0.7816531E-02  0.8440154E-01
         -2   -1    0    0    0  501 -0.00000000000E+00  0.00000000000E+00  0.16949787160E+04  0.16949787160E+04  0.00000000000E+00 0. -1.
          2   -1    0    0  501    0  0.00000000000E+00 -0.00000000000E+00 -0.84833897077E+03  0.84833897077E+03  0.00000000000E+00 0.  1.
    2000013    1    1    2    0    0  0.38988698796E+03 -0.53052726163E+03  0.76192047665E+03  0.13843748956E+04  0.95000000000E+03 0.  0.
   -2000013    1    1    2    0    0 -0.38988698796E+03  0.53052726163E+03  0.84719268532E+02  0.11589427912E+04  0.95000000000E+03 0.  0.
<mgrwt>
<rscale>  0 0.23982631E+04</rscale>
<asrwt>0</asrwt>
<pdfrwt beam="2">  1        2 0.13051369E+00 0.23982631E+04</pdfrwt>
<pdfrwt beam="1">  1       -2 0.26076596E+00 0.23982631E+04</pdfrwt>
<totfact> 0.15795577E+00</totfact>
</mgrwt>
</event>
<event>
 4    1  0.2018023E-008  0.2112760E+04  0.7816531E-02  0.8555643E-01
         -2   -1    0    0    0  501 -0.00000000000E+00  0.00000000000E+00  0.99411841686E+03  0.99411841686E+03  0.00000000000E+00 0. -1.
          2   -1    0    0  501    0  0.00000000000E+00 -0.00000000000E+00 -0.11225414302E+04  0.11225414302E+04  0.00000000000E+00 0.  1.
    2000013    1    1    2    0    0  0.21879634254E+03 -0.39379057014E+03  0.38428825800E+02  0.10521024795E+04  0.95000000000E+03 0.  0.
   -2000013    1    1    2    0    0 -0.21879634254E+03  0.39379057014E+03 -0.16685183911E+03  0.10645573676E+04  0.95000000000E+03 0.  0.
<mgrwt>
<rscale>  0 0.21127604E+04</rscale>
<asrwt>0</asrwt>
<pdfrwt beam="2">  1        2 0.17269868E+00 0.21127604E+04</pdfrwt>
<pdfrwt beam="1">  1       -2 0.15294130E+00 0.21127604E+04</pdfrwt>
<totfact> 0.55270856E+00</totfact>
</mgrwt>
</event>
<event>
 4    1  0.2018023E-008  0.2506406E+04  0.7816531E-02  0.8400707E-01
         -2   -1    0    0    0  501 -0.00000000000E+00  0.00000000000E+00  0.79374021957E+03  0.79374021957E+03  0.00000000000E+00 0. -1.
          2   -1    0    0  501    0  0.00000000000E+00 -0.00000000000E+00 -0.19786294424E+04  0.19786294424E+04  0.00000000000E+00 0.  1.
    2000013    1    1    2    0    0 -0.97234470731E+02 -0.65463104659E+03 -0.11229427370E+04  0.16129156023E+04  0.95000000000E+03 0.  0.
   -2000013    1    1    2    0    0  0.97234470731E+02  0.65463104659E+03 -0.61946485829E+02  0.11594540597E+04  0.95000000000E+03 0.  0.
<mgrwt>
<rscale>  0 0.25064060E+04</rscale>
<asrwt>0</asrwt>
<pdfrwt beam="2">  1        2 0.30440453E+00 0.25064060E+04</pdfrwt>
<pdfrwt beam="1">  1       -2 0.12211388E+00 0.25064060E+04</pdfrwt>
<totfact> 0.31118539E+00</totfact>
</mgrwt>
</event>
<event>
 4    1  0.2018023E-008  0.2468148E+04  0.7816531E-02  0.8414421E-01
          2   -1    0    0  501    0  0.00000000000E+00  0.00000000000E+00  0.14652372482E+04  0.14652372482E+04  0.00000000000E+00 0.  1.
         -2   -1    0    0    0  501 -0.00000000000E+00 -0.00000000000E+00 -0.10393805257E+04  0.10393805257E+04  0.00000000000E+00 0. -1.
    2000013    1    1    2    0    0  0.69424366928E+03  0.14389527051E+03  0.56115913156E+03  0.13115180869E+04  0.95000000000E+03 0.  0.
   -2000013    1    1    2    0    0 -0.69424366928E+03 -0.14389527051E+03 -0.13530240912E+03  0.11930996870E+04  0.95000000000E+03 0.  0.
<mgrwt>
<rscale>  0 0.24681483E+04</rscale>
<asrwt>0</asrwt>
<pdfrwt beam="1">  1        2 0.22542112E+00 0.24681483E+04</pdfrwt>
<pdfrwt beam="2">  1       -2 0.15990470E+00 0.24681483E+04</pdfrwt>
<totfact> 0.29971883E+00</totfact>
</mgrwt>
</event>
<event>
 4    1  0.2018023E-008  0.3762267E+04  0.7816531E-02  0.8054301E-01
          2   -1    0    0  501    0  0.00000000000E+00  0.00000000000E+00  0.31781977305E+04  0.31781977305E+04  0.00000000000E+00 0.  1.
         -2   -1    0    0    0  501 -0.00000000000E+00 -0.00000000000E+00 -0.11134183575E+04  0.11134183575E+04  0.00000000000E+00 0. -1.
    2000013    1    1    2    0    0  0.15999517381E+04 -0.26061583738E+03  0.11369210685E+04  0.21961001104E+04  0.95000000000E+03 0.  0.
   -2000013    1    1    2    0    0 -0.15999517381E+04  0.26061583738E+03  0.92785830452E+03  0.20955159776E+04  0.95000000000E+03 0.  0.
<mgrwt>
<rscale>  0 0.37622672E+04</rscale>
<asrwt>0</asrwt>
<pdfrwt beam="1">  1        2 0.48895349E+00 0.37622672E+04</pdfrwt>
<pdfrwt beam="2">  1       -2 0.17129513E+00 0.37622672E+04</pdfrwt>
<totfact> 0.22464648E-01</totfact>
</mgrwt>
</event>
<event>
 4    1  0.2018023E-008  0.2256010E+04  0.7816531E-02  0.8495470E-01
          2   -1    0    0  501    0  0.00000000000E+00  0.00000000000E+00  0.30114895087E+04  0.30114895087E+04  0.00000000000E+00 0.  1.
         -2   -1    0    0    0  501 -0.00000000000E+00 -0.00000000000E+00 -0.42251366702E+03  0.42251366702E+03  0.00000000000E+00 0. -1.
    2000013    1    1    2    0    0 -0.31338898071E+03 -0.51861239122E+03  0.12150433938E+04  0.16571064885E+04  0.95000000000E+03 0.  0.
   -2000013    1    1    2    0    0  0.31338898071E+03  0.51861239122E+03  0.13739324479E+04  0.17768966872E+04  0.95000000000E+03 0.  0.
<mgrwt>
<rscale>  0 0.22560102E+04</rscale>
<asrwt>0</asrwt>
<pdfrwt beam="1">  1        2 0.46330606E+00 0.22560102E+04</pdfrwt>
<pdfrwt beam="2">  1       -2 0.65002105E-01 0.22560102E+04</pdfrwt>
<totfact> 0.34048187E+00</totfact>
</mgrwt>
</event>
<event>
 4    1  0.2018023E-008  0.2372258E+04  0.7816531E-02  0.8449963E-01
          2   -1    0    0  501    0  0.00000000000E+00  0.00000000000E+00  0.78204176276E+03  0.78204176276E+03  0.00000000000E+00 0.  1.
         -2   -1    0    0    0  501 -0.00000000000E+00 -0.00000000000E+00 -0.17990110944E+04  0.17990110944E+04  0.00000000000E+00 0. -1.
    2000013    1    1    2    0    0 -0.52416554605E+02 -0.70295091381E+03 -0.41416983313E+03  0.12533651236E+04  0.95000000000E+03 0.  0.
   -2000013    1    1    2    0    0  0.52416554605E+02  0.70295091381E+03 -0.60279949852E+03  0.13276877336E+04  0.95000000000E+03 0.  0.
<mgrwt>
<rscale>  0 0.23722578E+04</rscale>
<asrwt>0</asrwt>
<pdfrwt beam="1">  1        2 0.12031412E+00 0.23722578E+04</pdfrwt>
<pdfrwt beam="2">  1       -2 0.27677094E+00 0.23722578E+04</pdfrwt>
<totfact> 0.14099910E+00</totfact>
</mgrwt>
</event>
<event>
 4    1  0.2018023E-008  0.1907909E+04  0.7816531E-02  0.8650930E-01
         -2   -1    0    0    0  501 -0.00000000000E+00  0.00000000000E+00  0.23124251388E+03  0.23124251388E+03  0.00000000000E+00 0. -1.
          2   -1    0    0  501    0  0.00000000000E+00 -0.00000000000E+00 -0.39353872245E+04  0.39353872245E+04  0.00000000000E+00 0.  1.
    2000013    1    1    2    0    0  0.48122293497E+02  0.72110593859E+02 -0.18441553954E+04  0.20762766712E+04  0.95000000000E+03 0.  0.
   -2000013    1    1    2    0    0 -0.48122293497E+02 -0.72110593859E+02 -0.18599893152E+04  0.20903530672E+04  0.95000000000E+03 0.  0.
<mgrwt>
<rscale>  0 0.19079086E+04</rscale>
<asrwt>0</asrwt>
<pdfrwt beam="2">  1        2 0.60544421E+00 0.19079086E+04</pdfrwt>
<pdfrwt beam="1">  1       -2 0.35575770E-01 0.19079086E+04</pdfrwt>
<totfact> 0.27096928E+00</totfact>
</mgrwt>
</event>
<event>
 4    1  0.2018023E-008  0.2710121E+04  0.7816531E-02  0.8331729E-01
         -2   -1    0    0    0  501 -0.00000000000E+00  0.00000000000E+00  0.13031811373E+04  0.13031811373E+04  0.00000000000E+00 0. -1.
          2   -1    0    0  501    0  0.00000000000E+00 -0.00000000000E+00 -0.14090047272E+04  0.14090047272E+04  0.00000000000E+00 0.  1.
    2000013    1    1    2    0    0  0.51901314823E+03 -0.77254986774E+03  0.20705613561E+03  0.13459495494E+04  0.95000000000E+03 0.  0.
   -2000013    1    1    2    0    0 -0.51901314823E+03  0.77254986774E+03 -0.31287972550E+03  0.13662363151E+04  0.95000000000E+03 0.  0.
<mgrwt>
<rscale>  0 0.27101206E+04</rscale>
<asrwt>0</asrwt>
<pdfrwt beam="2">  1        2 0.21676996E+00 0.27101206E+04</pdfrwt>
<pdfrwt beam="1">  1       -2 0.20048941E+00 0.27101206E+04</pdfrwt>
<totfact> 0.16549804E+00</totfact>
</mgrwt>
</event>
<event>
 4    1  0.2018023E-008  0.2170007E+04  0.7816531E-02  0.8531017E-01
         -2   -1    0    0    0  501 -0.00000000000E+00  0.00000000000E+00  0.14253153324E+04  0.14253153324E+04  0.00000000000E+00 0. -1.
          2   -1    0    0  501    0  0.00000000000E+00 -0.00000000000E+00 -0.82594534882E+03  0.82594534882E+03  0.00000000000E+00 0.  1.
    2000013    1    1    2    0    0  0.14363913543E+03  0.33687734440E+03  0.68871130125E+03  0.12292037272E+04  0.95000000000E+03 0.  0.
   -2000013    1    1    2    0    0 -0.14363913543E+03 -0.33687734440E+03 -0.89341317617E+02  0.10220569541E+04  0.95000000000E+03 0.  0.
<mgrwt>
<rscale>  0 0.21700070E+04</rscale>
<asrwt>0</asrwt>
<pdfrwt beam="2">  1        2 0.12706852E+00 0.21700070E+04</pdfrwt>
<pdfrwt beam="1">  1       -2 0.21927928E+00 0.21700070E+04</pdfrwt>
<totfact> 0.30191715E+00</totfact>
</mgrwt>
</event>
<event>
 4    1  0.2018023E-008  0.2584004E+04  0.7816531E-02  0.8373655E-01
          2   -1    0    0  501    0  0.00000000000E+00  0.00000000000E+00  0.25550551260E+04  0.25550551260E+04  0.00000000000E+00 0.  1.
         -2   -1    0    0    0  501 -0.00000000000E+00 -0.00000000000E+00 -0.65332018509E+03  0.65332018509E+03  0.00000000000E+00 0. -1.
    2000013    1    1    2    0    0  0.16524933434E+03  0.75789849234E+03  0.44643632804E+03  0.13051907379E+04  0.95000000000E+03 0.  0.
   -2000013    1    1    2    0    0 -0.16524933434E+03 -0.75789849234E+03  0.14552986129E+04  0.19031845733E+04  0.95000000000E+03 0.  0.
<mgrwt>
<rscale>  0 0.25840039E+04</rscale>
<asrwt>0</asrwt>
<pdfrwt beam="1">  1        2 0.39308540E+00 0.25840039E+04</pdfrwt>
<pdfrwt beam="2">  1       -2 0.10051080E+00 0.25840039E+04</pdfrwt>
<totfact> 0.23366963E+00</totfact>
</mgrwt>
</event>
<event>
 4    1  0.2018023E-008  0.3680165E+04  0.7816531E-02  0.8072372E-01
         -2   -1    0    0    0  501 -0.00000000000E+00  0.00000000000E+00  0.10542793115E+04  0.10542793115E+04  0.00000000000E+00 0. -1.
          2   -1    0    0  501    0  0.00000000000E+00 -0.00000000000E+00 -0.32115809438E+04  0.32115809438E+04  0.00000000000E+00 0.  1.
    2000013    1    1    2    0    0 -0.83404760363E+02 -0.14005171085E+04 -0.19104959258E+04  0.25536051394E+04  0.95000000000E+03 0.  0.
   -2000013    1    1    2    0    0  0.83404760363E+02  0.14005171085E+04 -0.24680570645E+03  0.17122551159E+04  0.95000000000E+03 0.  0.
<mgrwt>
<rscale>  0 0.36801649E+04</rscale>
<asrwt>0</asrwt>
<pdfrwt beam="2">  1        2 0.49408937E+00 0.36801649E+04</pdfrwt>
<pdfrwt beam="1">  1       -2 0.16219682E+00 0.36801649E+04</pdfrwt>
<totfact> 0.25014051E-01</totfact>
</mgrwt>
</event>
<event>
 4    1  0.2018023E-008  0.2270975E+04  0.7816531E-02  0.8489454E-01
          2   -1    0    0  501    0  0.00000000000E+00  0.00000000000E+00  0.38674881221E+04  0.38674881221E+04  0.00000000000E+00 0.  1.
         -2   -1    0    0    0  501 -0.00000000000E+00 -0.00000000000E+00 -0.33337703858E+03  0.33337703858E+03  0.00000000000E+00 0. -1.
    2000013    1    1    2    0    0 -0.12243700044E+03 -0.53567798985E+03  0.12280978188E+04  0.16470172982E+04  0.95000000000E+03 0.  0.
   -2000013    1    1    2    0    0  0.12243700044E+03  0.53567798985E+03  0.23060132647E+04  0.25538478625E+04  0.95000000000E+03 0.  0.
<mgrwt>
<rscale>  0 0.22709749E+04</rscale>
<asrwt>0</asrwt>
<pdfrwt beam="1">  1        2 0.59499814E+00 0.22709749E+04</pdfrwt>
<pdfrwt beam="2">  1       -2 0.51288778E-01 0.22709749E+04</pdfrwt>
<totfact> 0.14300412E+00</totfact>
</mgrwt>
</event>
<event>
 4    1  0.2018023E-008  0.2638142E+04  0.7816531E-02  0.8355360E-01
         -2   -1    0    0    0  501 -0.00000000000E+00  0.00000000000E+00  0.40329175915E+03  0.40329175915E+03  0.00000000000E+00 0. -1.
          2   -1    0    0  501    0  0.00000000000E+00 -0.00000000000E+00 -0.43143652817E+04  0.43143652817E+04  0.00000000000E+00 0.  1.
    2000013    1    1    2    0    0  0.30886030526E+03 -0.53835536188E+03 -0.31580957215E+04  0.33557845238E+04  0.95000000000E+03 0.  0.
   -2000013    1    1    2    0    0 -0.30886030526E+03  0.53835536188E+03 -0.75297780099E+03  0.13618725170E+04  0.95000000000E+03 0.  0.
<mgrwt>
<rscale>  0 0.26381417E+04</rscale>
<asrwt>0</asrwt>
<pdfrwt beam="2">  1        2 0.66374850E+00 0.26381417E+04</pdfrwt>
<pdfrwt beam="1">  1       -2 0.62044887E-01 0.26381417E+04</pdfrwt>
<totfact> 0.39271559E-01</totfact>
</mgrwt>
</event>
<event>
 4    1  0.2018023E-008  0.2124758E+04  0.7816531E-02  0.8550415E-01
         -1   -1    0    0    0  501 -0.00000000000E+00  0.00000000000E+00  0.60834237055E+03  0.60834237055E+03  0.00000000000E+00 0. -1.
          1   -1    0    0  501    0  0.00000000000E+00 -0.00000000000E+00 -0.18552868201E+04  0.18552868201E+04  0.00000000000E+00 0.  1.
    2000013    1    1    2    0    0 -0.17184540623E+03  0.26201881319E+03 -0.10382458953E+04  0.14417486748E+04  0.95000000000E+03 0.  0.
   -2000013    1    1    2    0    0  0.17184540623E+03 -0.26201881319E+03 -0.20869855419E+03  0.10218805158E+04  0.95000000000E+03 0.  0.
<mgrwt>
<rscale>  0 0.21247584E+04</rscale>
<asrwt>0</asrwt>
<pdfrwt beam="2">  1        1 0.28542874E+00 0.21247584E+04</pdfrwt>
<pdfrwt beam="1">  1       -1 0.93591135E-01 0.21247584E+04</pdfrwt>
<totfact> 0.37961762E+00</totfact>
</mgrwt>
</event>
<event>
 4    1  0.2018023E-008  0.3702973E+04  0.7816531E-02  0.8067303E-01
         -2   -1    0    0    0  501 -0.00000000000E+00  0.00000000000E+00  0.14562430304E+04  0.14562430304E+04  0.00000000000E+00 0. -1.
          2   -1    0    0  501    0  0.00000000000E+00 -0.00000000000E+00 -0.23540038639E+04  0.23540038639E+04  0.00000000000E+00 0.  1.
    2000013    1    1    2    0    0  0.63791528998E+02 -0.15169791291E+04  0.33975829644E+02  0.17913540673E+04  0.95000000000E+03 0.  0.
   -2000013    1    1    2    0    0 -0.63791528998E+02  0.15169791291E+04 -0.93173666310E+03  0.20188928270E+04  0.95000000000E+03 0.  0.
<mgrwt>
<rscale>  0 0.37029727E+04</rscale>
<asrwt>0</asrwt>
<pdfrwt beam="2">  1        2 0.36215444E+00 0.37029727E+04</pdfrwt>
<pdfrwt beam="1">  1       -2 0.22403739E+00 0.37029727E+04</pdfrwt>
<totfact> 0.31814625E-01</totfact>
</mgrwt>
</event>
<event>
 4    1  0.2018023E-008  0.2306086E+04  0.7816531E-02  0.8475525E-01
         -2   -1    0    0    0  501 -0.00000000000E+00  0.00000000000E+00  0.42754334846E+03  0.42754334846E+03  0.00000000000E+00 0. -1.
          2   -1    0    0  501    0  0.00000000000E+00 -0.00000000000E+00 -0.31096465527E+04  0.31096465527E+04  0.00000000000E+00 0.  1.
    2000013    1    1    2    0    0 -0.48904782303E+03 -0.13082199767E+03 -0.19748239659E+04  0.22491580346E+04  0.95000000000E+03 0.  0.
   -2000013    1    1    2    0    0  0.48904782303E+03  0.13082199767E+03 -0.70727923830E+03  0.12880318665E+04  0.95000000000E+03 0.  0.
<mgrwt>
<rscale>  0 0.23060865E+04</rscale>
<asrwt>0</asrwt>
<pdfrwt beam="2">  1        2 0.47840717E+00 0.23060865E+04</pdfrwt>
<pdfrwt beam="1">  1       -2 0.65775899E-01 0.23060865E+04</pdfrwt>
<totfact> 0.28640314E+00</totfact>
</mgrwt>
</event>
<event>
 4    1  0.2018023E-008  0.3151782E+04  0.7816531E-02  0.8201669E-01
         -2   -1    0    0    0  501 -0.00000000000E+00  0.00000000000E+00  0.12904138376E+04  0.12904138376E+04  0.00000000000E+00 0. -1.
          2   -1    0    0  501    0  0.00000000000E+00 -0.00000000000E+00 -0.19245235129E+04  0.19245235129E+04  0.00000000000E+00 0.  1.
    2000013    1    1    2    0    0 -0.62127329406E+03 -0.61245262671E+03 -0.12406558694E+04  0.17896384305E+04  0.95000000000E+03 0.  0.
   -2000013    1    1    2    0    0  0.62127329406E+03  0.61245262671E+03  0.60654619408E+03  0.14252989200E+04  0.95000000000E+03 0.  0.
<mgrwt>
<rscale>  0 0.31517816E+04</rscale>
<asrwt>0</asrwt>
<pdfrwt beam="2">  1        2 0.29608054E+00 0.31517816E+04</pdfrwt>
<pdfrwt beam="1">  1       -2 0.19852521E+00 0.31517816E+04</pdfrwt>
<totfact> 0.84622895E-01</totfact>
</mgrwt>
</event>
<event>
 4    1  0.2018023E-008  0.2654195E+04  0.7816531E-02  0.8350022E-01
         -2   -1    0    0    0  501 -0.00000000000E+00  0.00000000000E+00  0.51053814944E+03  0.51053814944E+03  0.00000000000E+00 0. -1.
          2   -1    0    0  501    0  0.00000000000E+00 -0.00000000000E+00 -0.34496687050E+04  0.34496687050E+04  0.00000000000E+00 0.  1.
    2000013    1    1    2    0    0  0.71845700901E+03 -0.50635627725E+03 -0.10317280437E+04  0.16551555545E+04  0.95000000000E+03 0.  0.
   -2000013    1    1    2    0    0 -0.71845700901E+03  0.50635627725E+03 -0.19074025119E+04  0.23050513000E+04  0.95000000000E+03 0.  0.
<mgrwt>
<rscale>  0 0.26541948E+04</rscale>
<asrwt>0</asrwt>
<pdfrwt beam="2">  1        2 0.53071825E+00 0.26541948E+04</pdfrwt>
<pdfrwt beam="1">  1       -2 0.78544332E-01 0.26541948E+04</pdfrwt>
<totfact> 0.11183188E+00</totfact>
</mgrwt>
</event>
<event>
 4    1  0.2018023E-008  0.2305539E+04  0.7816531E-02  0.8475740E-01
          2   -1    0    0  501    0  0.00000000000E+00  0.00000000000E+00  0.24157260477E+04  0.24157260477E+04  0.00000000000E+00 0.  1.
         -2   -1    0    0    0  501 -0.00000000000E+00 -0.00000000000E+00 -0.55009451910E+03  0.55009451910E+03  0.00000000000E+00 0. -1.
    2000013    1    1    2    0    0 -0.63046752065E+03 -0.11997052140E+03  0.77793836546E+03  0.13854855903E+04  0.95000000000E+03 0.  0.
   -2000013    1    1    2    0    0  0.63046752065E+03  0.11997052140E+03  0.10876931631E+04  0.15803349764E+04  0.95000000000E+03 0.  0.
<mgrwt>
<rscale>  0 0.23055391E+04</rscale>
<asrwt>0</asrwt>
<pdfrwt beam="1">  1        2 0.37165016E+00 0.23055391E+04</pdfrwt>
<pdfrwt beam="2">  1       -2 0.84629927E-01 0.23055391E+04</pdfrwt>
<totfact> 0.42936341E+00</totfact>
</mgrwt>
</event>
<event>
 4    1  0.2018023E-008  0.2217769E+04  0.7816531E-02  0.8511069E-01
         -1   -1    0    0    0  501 -0.00000000000E+00  0.00000000000E+00  0.47647567125E+03  0.47647567125E+03  0.00000000000E+00 0. -1.
          1   -1    0    0  501    0  0.00000000000E+00 -0.00000000000E+00 -0.25806655850E+04  0.25806655850E+04  0.00000000000E+00 0.  1.
    2000013    1    1    2    0    0 -0.49940267541E+03  0.21639017626E+03 -0.12943957355E+04  0.16953430510E+04  0.95000000000E+03 0.  0.
   -2000013    1    1    2    0    0  0.49940267541E+03 -0.21639017626E+03 -0.80979417822E+03  0.13617982052E+04  0.95000000000E+03 0.  0.
<mgrwt>
<rscale>  0 0.22177686E+04</rscale>
<asrwt>0</asrwt>
<pdfrwt beam="2">  1        1 0.39702548E+00 0.22177686E+04</pdfrwt>
<pdfrwt beam="1">  1       -1 0.73303949E-01 0.22177686E+04</pdfrwt>
<totfact> 0.20322990E+00</totfact>
</mgrwt>
</event>
<event>
 4    1  0.2018023E-008  0.2090108E+04  0.7816531E-02  0.8565613E-01
         -2   -1    0    0    0  501 -0.00000000000E+00  0.00000000000E+00  0.63550395318E+03  0.63550395318E+03  0.00000000000E+00 0.  1.
          2   -1    0    0  501    0  0.00000000000E+00 -0.00000000000E+00 -0.17185380391E+04  0.17185380391E+04  0.00000000000E+00 0. -1.
    2000013    1    1    2    0    0  0.22201167628E+02 -0.39519969971E+03 -0.74599779634E+03  0.12710973238E+04  0.95000000000E+03 0.  0.
   -2000013    1    1    2    0    0 -0.22201167628E+02  0.39519969971E+03 -0.33703628962E+03  0.10829446685E+04  0.95000000000E+03 0.  0.
<mgrwt>
<rscale>  0 0.20901079E+04</rscale>
<asrwt>0</asrwt>
<pdfrwt beam="2">  1        2 0.26439047E+00 0.20901079E+04</pdfrwt>
<pdfrwt beam="1">  1       -2 0.97769840E-01 0.20901079E+04</pdfrwt>
<totfact> 0.76951814E+00</totfact>
</mgrwt>
</event>
<event>
 4    1  0.2018023E-008  0.4559369E+04  0.7816531E-02  0.7900325E-01
          2   -1    0    0  501    0  0.00000000000E+00  0.00000000000E+00  0.39562042282E+04  0.39562042282E+04  0.00000000000E+00 0.  1.
         -2   -1    0    0    0  501 -0.00000000000E+00 -0.00000000000E+00 -0.13136229427E+04  0.13136229427E+04  0.00000000000E+00 0. -1.
    2000013    1    1    2    0    0 -0.69372205749E+03 -0.18565189691E+04  0.20210631745E+04  0.29858180338E+04  0.95000000000E+03 0.  0.
   -2000013    1    1    2    0    0  0.69372205749E+03  0.18565189691E+04  0.62151811093E+03  0.22840091370E+04  0.95000000000E+03 0.  0.
<mgrwt>
<rscale>  0 0.45593687E+04</rscale>
<asrwt>0</asrwt>
<pdfrwt beam="1">  1        2 0.60864680E+00 0.45593687E+04</pdfrwt>
<pdfrwt beam="2">  1       -2 0.20209584E+00 0.45593687E+04</pdfrwt>
<totfact> 0.35908851E-02</totfact>
</mgrwt>
</event>
<event>
 4    1  0.2018023E-008  0.2644678E+04  0.7816531E-02  0.8353181E-01
          2   -1    0    0  501    0  0.00000000000E+00  0.00000000000E+00  0.11945748549E+04  0.11945748549E+04  0.00000000000E+00 0.  1.
         -2   -1    0    0    0  501 -0.00000000000E+00 -0.00000000000E+00 -0.14637684626E+04  0.14637684626E+04  0.00000000000E+00 0. -1.
    2000013    1    1    2    0    0  0.26896448097E+03  0.84350076997E+03 -0.38537650287E+03  0.13545665321E+04  0.95000000000E+03 0.  0.
   -2000013    1    1    2    0    0 -0.26896448097E+03 -0.84350076997E+03  0.11618289521E+03  0.13037767854E+04  0.95000000000E+03 0.  0.
<mgrwt>
<rscale>  0 0.26446784E+04</rscale>
<asrwt>0</asrwt>
<pdfrwt beam="1">  1        2 0.18378075E+00 0.26446784E+04</pdfrwt>
<pdfrwt beam="2">  1       -2 0.22519515E+00 0.26446784E+04</pdfrwt>
<totfact> 0.15412270E+00</totfact>
</mgrwt>
</event>
<event>
 4    1  0.2018023E-008  0.2934875E+04  0.7816531E-02  0.8262576E-01
          2   -1    0    0  501    0  0.00000000000E+00  0.00000000000E+00  0.10612634293E+04  0.10612634293E+04  0.00000000000E+00 0.  1.
         -2   -1    0    0    0  501 -0.00000000000E+00 -0.00000000000E+00 -0.20290647740E+04  0.20290647740E+04  0.00000000000E+00 0. -1.
    2000013    1    1    2    0    0  0.78108712137E+03  0.78300543069E+03 -0.65907869453E+03  0.16000247877E+04  0.95000000000E+03 0.  0.
   -2000013    1    1    2    0    0 -0.78108712137E+03 -0.78300543069E+03 -0.30872265015E+03  0.14903034155E+04  0.95000000000E+03 0.  0.
<mgrwt>
<rscale>  0 0.29348746E+04</rscale>
<asrwt>0</asrwt>
<pdfrwt beam="1">  1        2 0.16327130E+00 0.29348746E+04</pdfrwt>
<pdfrwt beam="2">  1       -2 0.31216381E+00 0.29348746E+04</pdfrwt>
<totfact> 0.53037405E-01</totfact>
</mgrwt>
</event>
<event>
 4    1  0.2018023E-008  0.3965880E+04  0.7816531E-02  0.8011465E-01
         -2   -1    0    0    0  501 -0.00000000000E+00  0.00000000000E+00  0.19848026102E+04  0.19848026102E+04  0.00000000000E+00 0. -1.
          2   -1    0    0  501    0  0.00000000000E+00 -0.00000000000E+00 -0.19810796268E+04  0.19810796268E+04  0.00000000000E+00 0.  1.
    2000013    1    1    2    0    0 -0.19814352086E+03  0.13830404087E+04 -0.10361613100E+04  0.19819666716E+04  0.95000000000E+03 0.  0.
   -2000013    1    1    2    0    0  0.19814352086E+03 -0.13830404087E+04  0.10398842934E+04  0.19839155654E+04  0.95000000000E+03 0.  0.
<mgrwt>
<rscale>  0 0.39658805E+04</rscale>
<asrwt>0</asrwt>
<pdfrwt beam="2">  1        2 0.30478148E+00 0.39658805E+04</pdfrwt>
<pdfrwt beam="1">  1       -2 0.30535425E+00 0.39658805E+04</pdfrwt>
<totfact> 0.15957593E-01</totfact>
</mgrwt>
</event>
<event>
 4    1  0.2018023E-008  0.2286453E+04  0.7816531E-02  0.8483282E-01
          1   -1    0    0  501    0  0.00000000000E+00  0.00000000000E+00  0.79670616785E+03  0.79670616785E+03  0.00000000000E+00 0.  1.
         -1   -1    0    0    0  501 -0.00000000000E+00 -0.00000000000E+00 -0.16404627291E+04  0.16404627291E+04  0.00000000000E+00 0. -1.
    2000013    1    1    2    0    0 -0.85788174389E+02 -0.60460326987E+03 -0.23251055771E+03  0.11530246677E+04  0.95000000000E+03 0.  0.
   -2000013    1    1    2    0    0  0.85788174389E+02  0.60460326987E+03 -0.61124600357E+03  0.12841442293E+04  0.95000000000E+03 0.  0.
<mgrwt>
<rscale>  0 0.22864530E+04</rscale>
<asrwt>0</asrwt>
<pdfrwt beam="1">  1        1 0.12257018E+00 0.22864530E+04</pdfrwt>
<pdfrwt beam="2">  1       -1 0.25237888E+00 0.22864530E+04</pdfrwt>
<totfact> 0.13547915E+00</totfact>
</mgrwt>
</event>
<event>
 4    1  0.2018023E-008  0.2117347E+04  0.7816531E-02  0.8553640E-01
          2   -1    0    0  501    0  0.00000000000E+00  0.00000000000E+00  0.78998562698E+03  0.78998562698E+03  0.00000000000E+00 0.  1.
         -2   -1    0    0    0  501 -0.00000000000E+00 -0.00000000000E+00 -0.14187467068E+04  0.14187467068E+04  0.00000000000E+00 0. -1.
    2000013    1    1    2    0    0  0.19847679760E+03  0.23016596559E+03  0.55787217447E+02  0.99899030252E+03  0.95000000000E+03 0.  0.
   -2000013    1    1    2    0    0 -0.19847679760E+03 -0.23016596559E+03 -0.68454829728E+03  0.12097420313E+04  0.95000000000E+03 0.  0.
<mgrwt>
<rscale>  0 0.21173469E+04</rscale>
<asrwt>0</asrwt>
<pdfrwt beam="1">  1        2 0.12153625E+00 0.21173469E+04</pdfrwt>
<pdfrwt beam="2">  1       -2 0.21826872E+00 0.21173469E+04</pdfrwt>
<totfact> 0.32661306E+00</totfact>
</mgrwt>
</event>
<event>
 4    1  0.2018023E-008  0.3003027E+04  0.7816531E-02  0.8242867E-01
         -2   -1    0    0    0  501 -0.00000000000E+00  0.00000000000E+00  0.89093925962E+03  0.89093925962E+03  0.00000000000E+00 0. -1.
          2   -1    0    0  501    0  0.00000000000E+00 -0.00000000000E+00 -0.25305233704E+04  0.25305233704E+04  0.00000000000E+00 0.  1.
    2000013    1    1    2    0    0 -0.72789872866E+03 -0.71600536900E+03 -0.14536802047E+04  0.20144940767E+04  0.95000000000E+03 0.  0.
   -2000013    1    1    2    0    0  0.72789872866E+03  0.71600536900E+03 -0.18590390608E+03  0.14069685533E+04  0.95000000000E+03 0.  0.
<mgrwt>
<rscale>  0 0.30030269E+04</rscale>
<asrwt>0</asrwt>
<pdfrwt beam="2">  1        2 0.38931129E+00 0.30030269E+04</pdfrwt>
<pdfrwt beam="1">  1       -2 0.13706758E+00 0.30030269E+04</pdfrwt>
<totfact> 0.10848725E+00</totfact>
</mgrwt>
</event>
<event>
 4    1  0.2018023E-008  0.2391743E+04  0.7816531E-02  0.8442601E-01
          2   -1    0    0  501    0  0.00000000000E+00  0.00000000000E+00  0.16515143417E+04  0.16515143417E+04  0.00000000000E+00 0.  1.
         -2   -1    0    0    0  501 -0.00000000000E+00 -0.00000000000E+00 -0.86593753358E+03  0.86593753358E+03  0.00000000000E+00 0. -1.
    2000013    1    1    2    0    0  0.16152460787E+03  0.70164541381E+03  0.29176586745E+03  0.12272016163E+04  0.95000000000E+03 0.  0.
   -2000013    1    1    2    0    0 -0.16152460787E+03 -0.70164541381E+03  0.49381094067E+03  0.12902502590E+04  0.95000000000E+03 0.  0.
<mgrwt>
<rscale>  0 0.23917427E+04</rscale>
<asrwt>0</asrwt>
<pdfrwt beam="1">  1        2 0.25407913E+00 0.23917427E+04</pdfrwt>
<pdfrwt beam="2">  1       -2 0.13322116E+00 0.23917427E+04</pdfrwt>
<totfact> 0.38331752E+00</totfact>
</mgrwt>
</event>
<event>
 4    1  0.2018023E-008  0.2954504E+04  0.7816531E-02  0.8256843E-01
         -1   -1    0    0    0  501 -0.00000000000E+00  0.00000000000E+00  0.93989416449E+03  0.93989416449E+03  0.00000000000E+00 0. -1.
          1   -1    0    0  501    0  0.00000000000E+00 -0.00000000000E+00 -0.23218290952E+04  0.23218290952E+04  0.00000000000E+00 0.  1.
    2000013    1    1    2    0    0  0.19392616651E+03 -0.87226351082E+03  0.74947672294E+02  0.13063568211E+04  0.95000000000E+03 0.  0.
   -2000013    1    1    2    0    0 -0.19392616651E+03  0.87226351082E+03 -0.14568826030E+04  0.19553664386E+04  0.95000000000E+03 0.  0.
<mgrwt>
<rscale>  0 0.29545041E+04</rscale>
<asrwt>0</asrwt>
<pdfrwt beam="2">  1        1 0.35720447E+00 0.29545041E+04</pdfrwt>
<pdfrwt beam="1">  1       -1 0.14459911E+00 0.29545041E+04</pdfrwt>
<totfact> 0.59114453E-01</totfact>
</mgrwt>
</event>
<event>
 4    1  0.2018023E-008  0.2474695E+04  0.7816531E-02  0.8412056E-01
         -2   -1    0    0    0  501 -0.00000000000E+00  0.00000000000E+00  0.13601012212E+04  0.13601012212E+04  0.00000000000E+00 0. -1.
          2   -1    0    0  501    0  0.00000000000E+00 -0.00000000000E+00 -0.11256726667E+04  0.11256726667E+04  0.00000000000E+00 0.  1.
    2000013    1    1    2    0    0  0.68659570170E+02 -0.78368681121E+03  0.21588650225E+03  0.12521925317E+04  0.95000000000E+03 0.  0.
   -2000013    1    1    2    0    0 -0.68659570170E+02  0.78368681121E+03  0.18542052161E+02  0.12335813562E+04  0.95000000000E+03 0.  0.
<mgrwt>
<rscale>  0 0.24746949E+04</rscale>
<asrwt>0</asrwt>
<pdfrwt beam="2">  1        2 0.17318041E+00 0.24746949E+04</pdfrwt>
<pdfrwt beam="1">  1       -2 0.20924634E+00 0.24746949E+04</pdfrwt>
<totfact> 0.21739507E+00</totfact>
</mgrwt>
</event>
<event>
 4    1  0.2018023E-008  0.2906195E+04  0.7816531E-02  0.8271037E-01
         -2   -1    0    0    0  501 -0.00000000000E+00  0.00000000000E+00  0.10836972129E+04  0.10836972129E+04  0.00000000000E+00 0. -1.
          2   -1    0    0  501    0  0.00000000000E+00 -0.00000000000E+00 -0.19484151659E+04  0.19484151659E+04  0.00000000000E+00 0.  1.
    2000013    1    1    2    0    0 -0.75422961748E+03  0.14111836582E+03  0.38930043324E+03  0.12817298999E+04  0.95000000000E+03 0.  0.
   -2000013    1    1    2    0    0  0.75422961748E+03 -0.14111836582E+03 -0.12540183862E+04  0.17503824788E+04  0.95000000000E+03 0.  0.
<mgrwt>
<rscale>  0 0.29061948E+04</rscale>
<asrwt>0</asrwt>
<pdfrwt beam="2">  1        2 0.29975618E+00 0.29061948E+04</pdfrwt>
<pdfrwt beam="1">  1       -2 0.16672265E+00 0.29061948E+04</pdfrwt>
<totfact> 0.13852867E+00</totfact>
</mgrwt>
</event>
<event>
 4    1  0.2018023E-008  0.2888333E+04  0.7816531E-02  0.8276357E-01
         -2   -1    0    0    0  501 -0.00000000000E+00  0.00000000000E+00  0.24270042297E+04  0.24270042297E+04  0.00000000000E+00 0. -1.
          2   -1    0    0  501    0  0.00000000000E+00 -0.00000000000E+00 -0.85933786242E+03  0.85933786242E+03  0.00000000000E+00 0.  1.
    2000013    1    1    2    0    0 -0.25001319972E+03 -0.77641936499E+03  0.16025607736E+04  0.20337243332E+04  0.95000000000E+03 0.  0.
   -2000013    1    1    2    0    0  0.25001319972E+03  0.77641936499E+03 -0.34894406318E+02  0.12526177589E+04  0.95000000000E+03 0.  0.
<mgrwt>
<rscale>  0 0.28883328E+04</rscale>
<asrwt>0</asrwt>
<pdfrwt beam="2">  1        2 0.13220583E+00 0.28883328E+04</pdfrwt>
<pdfrwt beam="1">  1       -2 0.37338526E+00 0.28883328E+04</pdfrwt>
<totfact> 0.29821724E-01</totfact>
</mgrwt>
</event>
<event>
 4    1  0.2018023E-008  0.2675911E+04  0.7816531E-02  0.8342863E-01
         -2   -1    0    0    0  501 -0.00000000000E+00  0.00000000000E+00  0.11051512128E+04  0.11051512128E+04  0.00000000000E+00 0. -1.
          2   -1    0    0  501    0  0.00000000000E+00 -0.00000000000E+00 -0.16198012748E+04  0.16198012748E+04  0.00000000000E+00 0.  1.
    2000013    1    1    2    0    0  0.99274281261E+02 -0.92908376998E+03 -0.38025741415E+03  0.13856939545E+04  0.95000000000E+03 0.  0.
   -2000013    1    1    2    0    0 -0.99274281261E+02  0.92908376998E+03 -0.13439264790E+03  0.13392585331E+04  0.95000000000E+03 0.  0.
<mgrwt>
<rscale>  0 0.26759113E+04</rscale>
<asrwt>0</asrwt>
<pdfrwt beam="2">  1        2 0.24920020E+00 0.26759113E+04</pdfrwt>
<pdfrwt beam="1">  1       -2 0.17002326E+00 0.26759113E+04</pdfrwt>
<totfact> 0.20362498E+00</totfact>
</mgrwt>
</event>
<event>
 4    1  0.2018023E-008  0.2293860E+04  0.7816531E-02  0.8480346E-01
          2   -1    0    0  501    0  0.00000000000E+00  0.00000000000E+00  0.17290504355E+04  0.17290504355E+04  0.00000000000E+00 0.  1.
         -2   -1    0    0    0  501 -0.00000000000E+00 -0.00000000000E+00 -0.76079242139E+03  0.76079242139E+03  0.00000000000E+00 0. -1.
    2000013    1    1    2    0    0  0.59465587495E+03 -0.33297493171E+02  0.74604169940E+03  0.13467748698E+04  0.95000000000E+03 0.  0.
   -2000013    1    1    2    0    0 -0.59465587495E+03  0.33297493171E+02  0.22221631474E+03  0.11430679871E+04  0.95000000000E+03 0.  0.
<mgrwt>
<rscale>  0 0.22938600E+04</rscale>
<asrwt>0</asrwt>
<pdfrwt beam="1">  1        2 0.26600776E+00 0.22938600E+04</pdfrwt>
<pdfrwt beam="2">  1       -2 0.11704499E+00 0.22938600E+04</pdfrwt>
<totfact> 0.48406393E+00</totfact>
</mgrwt>
</event>
<event>
 4    1  0.2018023E-008  0.3624218E+04  0.7816531E-02  0.8084967E-01
          1   -1    0    0  501    0  0.00000000000E+00  0.00000000000E+00  0.19939276378E+04  0.19939276378E+04  0.00000000000E+00 0. -1.
         -1   -1    0    0    0  501 -0.00000000000E+00 -0.00000000000E+00 -0.16468693642E+04  0.16468693642E+04  0.00000000000E+00 0.  1.
    2000013    1    1    2    0    0 -0.88862587604E+03 -0.85797259267E+03  0.11026739947E+04  0.19089690558E+04  0.95000000000E+03 0.  0.
   -2000013    1    1    2    0    0  0.88862587604E+03  0.85797259267E+03 -0.75561572105E+03  0.17318279462E+04  0.95000000000E+03 0.  0.
<mgrwt>
<rscale>  0 0.36242176E+04</rscale>
<asrwt>0</asrwt>
<pdfrwt beam="1">  1        1 0.30675810E+00 0.36242176E+04</pdfrwt>
<pdfrwt beam="2">  1       -1 0.25336452E+00 0.36242176E+04</pdfrwt>
<totfact> 0.16100714E-01</totfact>
</mgrwt>
</event>
<event>
 4    1  0.2018023E-008  0.3396827E+04  0.7816531E-02  0.8138686E-01
         -2   -1    0    0    0  501 -0.00000000000E+00  0.00000000000E+00  0.18104873879E+04  0.18104873879E+04  0.00000000000E+00 0. -1.
          2   -1    0    0  501    0  0.00000000000E+00 -0.00000000000E+00 -0.15932768663E+04  0.15932768663E+04  0.00000000000E+00 0.  1.
    2000013    1    1    2    0    0  0.12100249478E+04 -0.57080838601E+03  0.54782124381E+03  0.17299106055E+04  0.95000000000E+03 0.  0.
   -2000013    1    1    2    0    0 -0.12100249478E+04  0.57080838601E+03 -0.33061072217E+03  0.16738536487E+04  0.95000000000E+03 0.  0.
<mgrwt>
<rscale>  0 0.33968266E+04</rscale>
<asrwt>0</asrwt>
<pdfrwt beam="2">  1        2 0.24511952E+00 0.33968266E+04</pdfrwt>
<pdfrwt beam="1">  1       -2 0.27853652E+00 0.33968266E+04</pdfrwt>
<totfact> 0.40069512E-01</totfact>
</mgrwt>
</event>
<event>
 4    1  0.2018023E-008  0.2482799E+04  0.7816531E-02  0.8409139E-01
         -2   -1    0    0    0  501 -0.00000000000E+00  0.00000000000E+00  0.75394917267E+03  0.75394917267E+03  0.00000000000E+00 0.  1.
          2   -1    0    0  501    0  0.00000000000E+00 -0.00000000000E+00 -0.20440001037E+04  0.20440001037E+04  0.00000000000E+00 0. -1.
    2000013    1    1    2    0    0 -0.56753839765E+03 -0.40422843598E+03 -0.20411963751E+03  0.11956861159E+04  0.95000000000E+03 0.  0.
   -2000013    1    1    2    0    0  0.56753839765E+03  0.40422843598E+03 -0.10859312935E+04  0.16022631605E+04  0.95000000000E+03 0.  0.
<mgrwt>
<rscale>  0 0.24827986E+04</rscale>
<asrwt>0</asrwt>
<pdfrwt beam="2">  1        2 0.31446156E+00 0.24827986E+04</pdfrwt>
<pdfrwt beam="1">  1       -2 0.11599218E+00 0.24827986E+04</pdfrwt>
<totfact> 0.32562497E+00</totfact>
</mgrwt>
</event>
<event>
 4    1  0.2018023E-008  0.2028593E+04  0.7816531E-02  0.8593368E-01
         -4   -1    0    0    0  501 -0.00000000000E+00  0.00000000000E+00  0.85747080911E+03  0.85747080911E+03  0.00000000000E+00 0. -1.
          4   -1    0    0  501    0  0.00000000000E+00 -0.00000000000E+00 -0.11998040019E+04  0.11998040019E+04  0.00000000000E+00 0.  1.
    2000013    1    1    2    0    0  0.12316798831E+03 -0.32578824315E+03 -0.24279508134E+03  0.10405564782E+04  0.95000000000E+03 0.  0.
   -2000013    1    1    2    0    0 -0.12316798831E+03  0.32578824315E+03 -0.99538111432E+02  0.10167183328E+04  0.95000000000E+03 0.  0.
<mgrwt>
<rscale>  0 0.20285925E+04</rscale>
<asrwt>0</asrwt>
<pdfrwt beam="2">  1        4 0.18458523E+00 0.20285925E+04</pdfrwt>
<pdfrwt beam="1">  1       -4 0.13191859E+00 0.20285925E+04</pdfrwt>
<totfact> 0.12909255E-01</totfact>
</mgrwt>
</event>
<event>
 4    1  0.2018023E-008  0.2457770E+04  0.7816531E-02  0.8418187E-01
         -2   -1    0    0    0  501 -0.00000000000E+00  0.00000000000E+00  0.10664842942E+04  0.10664842942E+04  0.00000000000E+00 0. -1.
          2   -1    0    0  501    0  0.00000000000E+00 -0.00000000000E+00 -0.14160152805E+04  0.14160152805E+04  0.00000000000E+00 0.  1.
    2000013    1    1    2    0    0 -0.43735752146E+03  0.64350695881E+03 -0.22294501536E+03  0.12480333679E+04  0.95000000000E+03 0.  0.
   -2000013    1    1    2    0    0  0.43735752146E+03 -0.64350695881E+03 -0.12658597091E+03  0.12344662068E+04  0.95000000000E+03 0.  0.
<mgrwt>
<rscale>  0 0.24577698E+04</rscale>
<asrwt>0</asrwt>
<pdfrwt beam="2">  1        2 0.21784850E+00 0.24577698E+04</pdfrwt>
<pdfrwt beam="1">  1       -2 0.16407451E+00 0.24577698E+04</pdfrwt>
<totfact> 0.29819902E+00</totfact>
</mgrwt>
</event>
<event>
 4    1  0.2018023E-008  0.2325039E+04  0.7816531E-02  0.8468113E-01
         -4   -1    0    0    0  501 -0.00000000000E+00  0.00000000000E+00  0.13268418964E+04  0.13268418964E+04  0.00000000000E+00 0. -1.
          4   -1    0    0  501    0  0.00000000000E+00 -0.00000000000E+00 -0.10185477921E+04  0.10185477921E+04  0.00000000000E+00 0.  1.
    2000013    1    1    2    0    0 -0.48105884513E+03  0.45337650968E+03  0.26457673893E+03  0.11872104796E+04  0.95000000000E+03 0.  0.
   -2000013    1    1    2    0    0  0.48105884513E+03 -0.45337650968E+03  0.43717365334E+02  0.11581792089E+04  0.95000000000E+03 0.  0.
<mgrwt>
<rscale>  0 0.23250393E+04</rscale>
<asrwt>0</asrwt>
<pdfrwt beam="2">  1        4 0.15669966E+00 0.23250393E+04</pdfrwt>
<pdfrwt beam="1">  1       -4 0.20412952E+00 0.23250393E+04</pdfrwt>
<totfact> 0.59144263E-02</totfact>
</mgrwt>
</event>
<event>
 4    1  0.2018023E-008  0.2761176E+04  0.7816531E-02  0.8315424E-01
          2   -1    0    0  501    0  0.00000000000E+00  0.00000000000E+00  0.20003413106E+04  0.20003413106E+04  0.00000000000E+00 0.  1.
         -2   -1    0    0    0  501 -0.00000000000E+00 -0.00000000000E+00 -0.95284895094E+03  0.95284895094E+03  0.00000000000E+00 0. -1.
    2000013    1    1    2    0    0 -0.98731357916E+03  0.78784726873E+02  0.36321533163E+03  0.14196550686E+04  0.95000000000E+03 0.  0.
   -2000013    1    1    2    0    0  0.98731357916E+03 -0.78784726873E+02  0.68427702803E+03  0.15335351929E+04  0.95000000000E+03 0.  0.
<mgrwt>
<rscale>  0 0.27611759E+04</rscale>
<asrwt>0</asrwt>
<pdfrwt beam="1">  1        2 0.30774481E+00 0.27611759E+04</pdfrwt>
<pdfrwt beam="2">  1       -2 0.14659215E+00 0.27611759E+04</pdfrwt>
<totfact> 0.18562426E+00</totfact>
</mgrwt>
</event>
<event>
 4    1  0.2018023E-008  0.2373068E+04  0.7816531E-02  0.8449656E-01
          1   -1    0    0  501    0  0.00000000000E+00  0.00000000000E+00  0.15697824494E+04  0.15697824494E+04  0.00000000000E+00 0.  1.
         -1   -1    0    0    0  501 -0.00000000000E+00 -0.00000000000E+00 -0.89685252512E+03  0.89685252512E+03  0.00000000000E+00 0. -1.
    2000013    1    1    2    0    0 -0.44320913168E+03 -0.55404038803E+03  0.38257937834E+03  0.12458980964E+04  0.95000000000E+03 0.  0.
   -2000013    1    1    2    0    0  0.44320913168E+03  0.55404038803E+03  0.29035054594E+03  0.12207368781E+04  0.95000000000E+03 0.  0.
<mgrwt>
<rscale>  0 0.23730684E+04</rscale>
<asrwt>0</asrwt>
<pdfrwt beam="1">  1        1 0.24150499E+00 0.23730684E+04</pdfrwt>
<pdfrwt beam="2">  1       -1 0.13797731E+00 0.23730684E+04</pdfrwt>
<totfact> 0.22892944E+00</totfact>
</mgrwt>
</event>
<event>
 4    1  0.2018023E-008  0.3084083E+04  0.7816531E-02  0.8220120E-01
          1   -1    0    0  501    0  0.00000000000E+00  0.00000000000E+00  0.22310972816E+04  0.22310972816E+04  0.00000000000E+00 0.  1.
         -1   -1    0    0    0  501 -0.00000000000E+00 -0.00000000000E+00 -0.10657950968E+04  0.10657950968E+04  0.00000000000E+00 0. -1.
    2000013    1    1    2    0    0  0.70150424751E+03 -0.92912173081E+03  0.95299082202E+03  0.17793445160E+04  0.95000000000E+03 0.  0.
   -2000013    1    1    2    0    0 -0.70150424751E+03  0.92912173081E+03  0.21231136278E+03  0.15175478624E+04  0.95000000000E+03 0.  0.
<mgrwt>
<rscale>  0 0.30840834E+04</rscale>
<asrwt>0</asrwt>
<pdfrwt beam="1">  1        1 0.34324573E+00 0.30840834E+04</pdfrwt>
<pdfrwt beam="2">  1       -1 0.16396848E+00 0.30840834E+04</pdfrwt>
<totfact> 0.47812542E-01</totfact>
</mgrwt>
</event>
<event>
 4    1  0.2018023E-008  0.2630241E+04  0.7816531E-02  0.8358001E-01
         -2   -1    0    0    0  501 -0.00000000000E+00  0.00000000000E+00  0.73213491332E+03  0.73213491332E+03  0.00000000000E+00 0. -1.
          2   -1    0    0  501    0  0.00000000000E+00 -0.00000000000E+00 -0.23623273789E+04  0.23623273789E+04  0.00000000000E+00 0.  1.
    2000013    1    1    2    0    0  0.11027641013E+03 -0.88137231447E+03 -0.10446310467E+04  0.16681522913E+04  0.95000000000E+03 0.  0.
   -2000013    1    1    2    0    0 -0.11027641013E+03  0.88137231447E+03 -0.58556141886E+03  0.14263100009E+04  0.95000000000E+03 0.  0.
<mgrwt>
<rscale>  0 0.26302413E+04</rscale>
<asrwt>0</asrwt>
<pdfrwt beam="2">  1        2 0.36343498E+00 0.26302413E+04</pdfrwt>
<pdfrwt beam="1">  1       -2 0.11263614E+00 0.26302413E+04</pdfrwt>
<totfact> 0.22861874E+00</totfact>
</mgrwt>
</event>
<event>
 4    1  0.2018023E-008  0.3518452E+04  0.7816531E-02  0.8109431E-01
          2   -1    0    0  501    0  0.00000000000E+00  0.00000000000E+00  0.11336522148E+04  0.11336522148E+04  0.00000000000E+00 0.  1.
         -2   -1    0    0    0  501 -0.00000000000E+00 -0.00000000000E+00 -0.27300046424E+04  0.27300046424E+04  0.00000000000E+00 0. -1.
    2000013    1    1    2    0    0  0.60092484015E+03  0.12468573620E+04 -0.22063585071E+03  0.16932052809E+04  0.95000000000E+03 0.  0.
   -2000013    1    1    2    0    0 -0.60092484015E+03 -0.12468573620E+04 -0.13757165769E+04  0.21704515762E+04  0.95000000000E+03 0.  0.
<mgrwt>
<rscale>  0 0.35184518E+04</rscale>
<asrwt>0</asrwt>
<pdfrwt beam="1">  1        2 0.17440803E+00 0.35184518E+04</pdfrwt>
<pdfrwt beam="2">  1       -2 0.42000071E+00 0.35184518E+04</pdfrwt>
<totfact> 0.93359849E-02</totfact>
</mgrwt>
</event>
<event>
 4    1  0.2018023E-008  0.1983610E+04  0.7816531E-02  0.8614322E-01
          2   -1    0    0  501    0  0.00000000000E+00  0.00000000000E+00  0.12904163803E+04  0.12904163803E+04  0.00000000000E+00 0.  1.
         -2   -1    0    0    0  501 -0.00000000000E+00 -0.00000000000E+00 -0.76229406104E+03  0.76229406104E+03  0.00000000000E+00 0. -1.
    2000013    1    1    2    0    0  0.72788617103E+02  0.27347149815E+03  0.22986613610E+03  0.10175575087E+04  0.95000000000E+03 0.  0.
   -2000013    1    1    2    0    0 -0.72788617103E+02 -0.27347149815E+03  0.29825618318E+03  0.10351529326E+04  0.95000000000E+03 0.  0.
<mgrwt>
<rscale>  0 0.19836096E+04</rscale>
<asrwt>0</asrwt>
<pdfrwt beam="1">  1        2 0.19852560E+00 0.19836096E+04</pdfrwt>
<pdfrwt beam="2">  1       -2 0.11727601E+00 0.19836096E+04</pdfrwt>
<totfact> 0.87571072E+00</totfact>
</mgrwt>
</event>
<event>
 4    1  0.2018023E-008  0.2873907E+04  0.7816531E-02  0.8280683E-01
          1   -1    0    0  501    0  0.00000000000E+00  0.00000000000E+00  0.15065538929E+04  0.15065538929E+04  0.00000000000E+00 0.  1.
         -1   -1    0    0    0  501 -0.00000000000E+00 -0.00000000000E+00 -0.13705688762E+04  0.13705688762E+04  0.00000000000E+00 0. -1.
    2000013    1    1    2    0    0  0.99683458362E+03  0.40819447598E+03  0.11314239620E+03  0.14406953596E+04  0.95000000000E+03 0.  0.
   -2000013    1    1    2    0    0 -0.99683458362E+03 -0.40819447598E+03  0.22842620529E+02  0.14364274095E+04  0.95000000000E+03 0.  0.
<mgrwt>
<rscale>  0 0.28739074E+04</rscale>
<asrwt>0</asrwt>
<pdfrwt beam="1">  1        1 0.23177752E+00 0.28739074E+04</pdfrwt>
<pdfrwt beam="2">  1       -1 0.21085675E+00 0.28739074E+04</pdfrwt>
<totfact> 0.70645562E-01</totfact>
</mgrwt>
</event>
<event>
 4    1  0.2018023E-008  0.2082140E+04  0.7816531E-02  0.8569152E-01
          2   -1    0    0  501    0  0.00000000000E+00  0.00000000000E+00  0.55129596321E+03  0.55129596321E+03  0.00000000000E+00 0.  1.
         -2   -1    0    0    0  501 -0.00000000000E+00 -0.00000000000E+00 -0.19659610151E+04  0.19659610151E+04  0.00000000000E+00 0. -1.
    2000013    1    1    2    0    0  0.11187980189E+03 -0.34833000760E+03 -0.97075475238E+03  0.14066682884E+04  0.95000000000E+03 0.  0.
   -2000013    1    1    2    0    0 -0.11187980189E+03  0.34833000760E+03 -0.44391029956E+03  0.11105886900E+04  0.95000000000E+03 0.  0.
<mgrwt>
<rscale>  0 0.20821396E+04</rscale>
<asrwt>0</asrwt>
<pdfrwt beam="1">  1        2 0.84814764E-01 0.20821396E+04</pdfrwt>
<pdfrwt beam="2">  1       -2 0.30245554E+00 0.20821396E+04</pdfrwt>
<totfact> 0.15568680E+00</totfact>
</mgrwt>
</event>
<event>
 4    1  0.2018023E-008  0.3558582E+04  0.7816531E-02  0.8100045E-01
          2   -1    0    0  501    0  0.00000000000E+00  0.00000000000E+00  0.18728363638E+04  0.18728363638E+04  0.00000000000E+00 0.  1.
         -2   -1    0    0    0  501 -0.00000000000E+00 -0.00000000000E+00 -0.16904179828E+04  0.16904179828E+04  0.00000000000E+00 0. -1.
    2000013    1    1    2    0    0 -0.14411319530E+04  0.40286633498E+03 -0.64602573880E+02  0.17736504961E+04  0.95000000000E+03 0.  0.
   -2000013    1    1    2    0    0  0.14411319530E+04 -0.40286633498E+03  0.24702095489E+03  0.17896038505E+04  0.95000000000E+03 0.  0.
<mgrwt>
<rscale>  0 0.35585819E+04</rscale>
<asrwt>0</asrwt>
<pdfrwt beam="1">  1        2 0.28812867E+00 0.35585819E+04</pdfrwt>
<pdfrwt beam="2">  1       -2 0.26006430E+00 0.35585819E+04</pdfrwt>
<totfact> 0.35840096E-01</totfact>
</mgrwt>
</event>
<event>
 4    1  0.2018023E-008  0.2103958E+04  0.7816531E-02  0.8559502E-01
         -1   -1    0    0    0  501 -0.00000000000E+00  0.00000000000E+00  0.16275127984E+04  0.16275127984E+04  0.00000000000E+00 0. -1.
          1   -1    0    0  501    0  0.00000000000E+00 -0.00000000000E+00 -0.67996992516E+03  0.67996992516E+03  0.00000000000E+00 0.  1.
    2000013    1    1    2    0    0  0.37662898709E+03 -0.23706229083E+03  0.55951215340E+03  0.11889498616E+04  0.95000000000E+03 0.  0.
   -2000013    1    1    2    0    0 -0.37662898709E+03  0.23706229083E+03  0.38803071981E+03  0.11185328619E+04  0.95000000000E+03 0.  0.
<mgrwt>
<rscale>  0 0.21039579E+04</rscale>
<asrwt>0</asrwt>
<pdfrwt beam="2">  1        1 0.10461076E+00 0.21039579E+04</pdfrwt>
<pdfrwt beam="1">  1       -1 0.25038658E+00 0.21039579E+04</pdfrwt>
<totfact> 0.18141863E+00</totfact>
</mgrwt>
</event>
<event>
 4    1  0.2018023E-008  0.2892528E+04  0.7816531E-02  0.8275104E-01
          2   -1    0    0  501    0  0.00000000000E+00  0.00000000000E+00  0.10650882103E+04  0.10650882103E+04  0.00000000000E+00 0.  1.
         -2   -1    0    0    0  501 -0.00000000000E+00 -0.00000000000E+00 -0.19638561905E+04  0.19638561905E+04  0.00000000000E+00 0. -1.
    2000013    1    1    2    0    0  0.27028419447E+03 -0.10041595401E+04 -0.10558609843E+03  0.14124582656E+04  0.95000000000E+03 0.  0.
   -2000013    1    1    2    0    0 -0.27028419447E+03  0.10041595401E+04 -0.79318188185E+03  0.16164861352E+04  0.95000000000E+03 0.  0.
<mgrwt>
<rscale>  0 0.28925284E+04</rscale>
<asrwt>0</asrwt>
<pdfrwt beam="1">  1        2 0.16385972E+00 0.28925284E+04</pdfrwt>
<pdfrwt beam="2">  1       -2 0.30213172E+00 0.28925284E+04</pdfrwt>
<totfact> 0.61000346E-01</totfact>
</mgrwt>
</event>
<event>
 4    1  0.2018023E-008  0.2351386E+04  0.7816531E-02  0.8457932E-01
          2   -1    0    0  501    0  0.00000000000E+00  0.00000000000E+00  0.93078960685E+03  0.93078960685E+03  0.00000000000E+00 0.  1.
         -2   -1    0    0    0  501 -0.00000000000E+00 -0.00000000000E+00 -0.14850331906E+04  0.14850331906E+04  0.00000000000E+00 0. -1.
    2000013    1    1    2    0    0  0.70319036261E+02 -0.43094088027E+03 -0.82953527356E+03  0.13346473614E+04  0.95000000000E+03 0.  0.
   -2000013    1    1    2    0    0 -0.70319036261E+02  0.43094088027E+03  0.27529168978E+03  0.10811754361E+04  0.95000000000E+03 0.  0.
<mgrwt>
<rscale>  0 0.23513855E+04</rscale>
<asrwt>0</asrwt>
<pdfrwt beam="1">  1        2 0.14319840E+00 0.23513855E+04</pdfrwt>
<pdfrwt beam="2">  1       -2 0.22846664E+00 0.23513855E+04</pdfrwt>
<totfact> 0.22058146E+00</totfact>
</mgrwt>
</event>
<event>
 4    1  0.2018023E-008  0.3010816E+04  0.7816531E-02  0.8240649E-01
          2   -1    0    0  501    0  0.00000000000E+00  0.00000000000E+00  0.12195503518E+04  0.12195503518E+04  0.00000000000E+00 0.  1.
         -2   -1    0    0    0  501 -0.00000000000E+00 -0.00000000000E+00 -0.18582694310E+04  0.18582694310E+04  0.00000000000E+00 0. -1.
    2000013    1    1    2    0    0  0.11078670785E+04 -0.30033546592E+03 -0.53904265496E+03  0.15844992394E+04  0.95000000000E+03 0.  0.
   -2000013    1    1    2    0    0 -0.11078670785E+04  0.30033546592E+03 -0.99676424189E+02  0.14933205434E+04  0.95000000000E+03 0.  0.
<mgrwt>
<rscale>  0 0.30108159E+04</rscale>
<asrwt>0</asrwt>
<pdfrwt beam="1">  1        2 0.18762313E+00 0.30108159E+04</pdfrwt>
<pdfrwt beam="2">  1       -2 0.28588760E+00 0.30108159E+04</pdfrwt>
<totfact> 0.61134537E-01</totfact>
</mgrwt>
</event>
<event>
 4    1  0.2018023E-008  0.2219780E+04  0.7816531E-02  0.8510240E-01
         -2   -1    0    0    0  501 -0.00000000000E+00  0.00000000000E+00  0.42338614917E+03  0.42338614917E+03  0.00000000000E+00 0. -1.
          2   -1    0    0  501    0  0.00000000000E+00 -0.00000000000E+00 -0.29095324087E+04  0.29095324087E+04  0.00000000000E+00 0.  1.
    2000013    1    1    2    0    0  0.42544730269E+03 -0.34155008541E+03 -0.97577106648E+03  0.14670688608E+04  0.95000000000E+03 0.  0.
   -2000013    1    1    2    0    0 -0.42544730269E+03  0.34155008541E+03 -0.15103751930E+04  0.18658496971E+04  0.95000000000E+03 0.  0.
<mgrwt>
<rscale>  0 0.22197799E+04</rscale>
<asrwt>0</asrwt>
<pdfrwt beam="2">  1        2 0.44762036E+00 0.22197799E+04</pdfrwt>
<pdfrwt beam="1">  1       -2 0.65136332E-01 0.22197799E+04</pdfrwt>
<totfact> 0.39343700E+00</totfact>
</mgrwt>
</event>
<event>
 4    1  0.2018023E-008  0.2312843E+04  0.7816531E-02  0.8472874E-01
         -2   -1    0    0    0  501 -0.00000000000E+00  0.00000000000E+00  0.14323346431E+04  0.14323346431E+04  0.00000000000E+00 0. -1.
          2   -1    0    0  501    0  0.00000000000E+00 -0.00000000000E+00 -0.93365833503E+03  0.93365833503E+03  0.00000000000E+00 0.  1.
    2000013    1    1    2    0    0 -0.54305332121E+03  0.37304461647E+03  0.27720347627E+03  0.11888696156E+04  0.95000000000E+03 0.  0.
   -2000013    1    1    2    0    0  0.54305332121E+03 -0.37304461647E+03  0.22147283184E+03  0.11771233626E+04  0.95000000000E+03 0.  0.
<mgrwt>
<rscale>  0 0.23128434E+04</rscale>
<asrwt>0</asrwt>
<pdfrwt beam="2">  1        2 0.14363974E+00 0.23128434E+04</pdfrwt>
<pdfrwt beam="1">  1       -2 0.22035918E+00 0.23128434E+04</pdfrwt>
<totfact> 0.24778678E+00</totfact>
</mgrwt>
</event>
<event>
 4    1  0.2018023E-008  0.2963185E+04  0.7816531E-02  0.8254322E-01
         -2   -1    0    0    0  501 -0.00000000000E+00  0.00000000000E+00  0.99705099112E+03  0.99705099112E+03  0.00000000000E+00 0. -1.
          2   -1    0    0  501    0  0.00000000000E+00 -0.00000000000E+00 -0.22016088792E+04  0.22016088792E+04  0.00000000000E+00 0.  1.
    2000013    1    1    2    0    0 -0.35854355181E+03 -0.94184935762E+03 -0.34164854646E+02  0.13853883673E+04  0.95000000000E+03 0.  0.
   -2000013    1    1    2    0    0  0.35854355181E+03  0.94184935762E+03 -0.11703930335E+04  0.18132715030E+04  0.95000000000E+03 0.  0.
<mgrwt>
<rscale>  0 0.29631850E+04</rscale>
<asrwt>0</asrwt>
<pdfrwt beam="2">  1        2 0.33870906E+00 0.29631850E+04</pdfrwt>
<pdfrwt beam="1">  1       -2 0.15339246E+00 0.29631850E+04</pdfrwt>
<totfact> 0.12489666E+00</totfact>
</mgrwt>
</event>
<event>
 4    1  0.2018023E-008  0.2217313E+04  0.7816531E-02  0.8511256E-01
          2   -1    0    0  501    0  0.00000000000E+00  0.00000000000E+00  0.19887485629E+04  0.19887485629E+04  0.00000000000E+00 0.  1.
         -2   -1    0    0    0  501 -0.00000000000E+00 -0.00000000000E+00 -0.61803663865E+03  0.61803663865E+03  0.00000000000E+00 0. -1.
    2000013    1    1    2    0    0  0.53279028839E+03  0.18227764197E+03  0.57059389247E+03  0.12430478753E+04  0.95000000000E+03 0.  0.
   -2000013    1    1    2    0    0 -0.53279028839E+03 -0.18227764197E+03  0.80011803174E+03  0.13637373262E+04  0.95000000000E+03 0.  0.
<mgrwt>
<rscale>  0 0.22173132E+04</rscale>
<asrwt>0</asrwt>
<pdfrwt beam="1">  1        2 0.30596131E+00 0.22173132E+04</pdfrwt>
<pdfrwt beam="2">  1       -2 0.95082561E-01 0.22173132E+04</pdfrwt>
<totfact> 0.57539732E+00</totfact>
</mgrwt>
</event>
<event>
 4    1  0.2018023E-008  0.2141557E+04  0.7816531E-02  0.8543155E-01
          2   -1    0    0  501    0  0.00000000000E+00  0.00000000000E+00  0.11161373116E+04  0.11161373116E+04  0.00000000000E+00 0.  1.
         -2   -1    0    0    0  501 -0.00000000000E+00 -0.00000000000E+00 -0.10272633972E+04  0.10272633972E+04  0.00000000000E+00 0. -1.
    2000013    1    1    2    0    0 -0.33648236428E+03  0.34502169760E+03 -0.64314994077E+02  0.10671910662E+04  0.95000000000E+03 0.  0.
   -2000013    1    1    2    0    0  0.33648236428E+03 -0.34502169760E+03  0.15318890847E+03  0.10762096427E+04  0.95000000000E+03 0.  0.
<mgrwt>
<rscale>  0 0.21415574E+04</rscale>
<asrwt>0</asrwt>
<pdfrwt beam="1">  1        2 0.17171343E+00 0.21415574E+04</pdfrwt>
<pdfrwt beam="2">  1       -2 0.15804052E+00 0.21415574E+04</pdfrwt>
<totfact> 0.50938419E+00</totfact>
</mgrwt>
</event>
<event>
 4    1  0.2018023E-008  0.2671512E+04  0.7816531E-02  0.8344308E-01
          2   -1    0    0  501    0  0.00000000000E+00  0.00000000000E+00  0.16578225535E+04  0.16578225535E+04  0.00000000000E+00 0.  1.
         -2   -1    0    0    0  501 -0.00000000000E+00 -0.00000000000E+00 -0.10762575678E+04  0.10762575678E+04  0.00000000000E+00 0. -1.
    2000013    1    1    2    0    0 -0.85498655079E+03  0.16715131520E+03 -0.67856679524E+02  0.12907540793E+04  0.95000000000E+03 0.  0.
   -2000013    1    1    2    0    0  0.85498655079E+03 -0.16715131520E+03  0.64942166521E+03  0.14433260420E+04  0.95000000000E+03 0.  0.
<mgrwt>
<rscale>  0 0.26715120E+04</rscale>
<asrwt>0</asrwt>
<pdfrwt beam="1">  1        2 0.25504963E+00 0.26715120E+04</pdfrwt>
<pdfrwt beam="2">  1       -2 0.16557809E+00 0.26715120E+04</pdfrwt>
<totfact> 0.20876893E+00</totfact>
</mgrwt>
</event>
<event>
 4    1  0.2018023E-008  0.2420636E+04  0.7816531E-02  0.8431818E-01
         -1   -1    0    0    0  501 -0.00000000000E+00  0.00000000000E+00  0.19003537521E+04  0.19003537521E+04  0.00000000000E+00 0. -1.
          1   -1    0    0  501    0  0.00000000000E+00 -0.00000000000E+00 -0.77084043408E+03  0.77084043408E+03  0.00000000000E+00 0.  1.
    2000013    1    1    2    0    0  0.17336209174E+03 -0.20795850732E+03 -0.20696515563E+03  0.10092748542E+04  0.95000000000E+03 0.  0.
   -2000013    1    1    2    0    0 -0.17336209174E+03  0.20795850732E+03  0.13364784737E+04  0.16619193320E+04  0.95000000000E+03 0.  0.
<mgrwt>
<rscale>  0 0.24206359E+04</rscale>
<asrwt>0</asrwt>
<pdfrwt beam="2">  1        1 0.11859084E+00 0.24206359E+04</pdfrwt>
<pdfrwt beam="1">  1       -1 0.29236211E+00 0.24206359E+04</pdfrwt>
<totfact> 0.77679577E-01</totfact>
</mgrwt>
</event>
<event>
 4    1  0.2018023E-008  0.2476539E+04  0.7816531E-02  0.8411391E-01
          2   -1    0    0  501    0  0.00000000000E+00  0.00000000000E+00  0.23135562746E+04  0.23135562746E+04  0.00000000000E+00 0.  1.
         -2   -1    0    0    0  501 -0.00000000000E+00 -0.00000000000E+00 -0.66275098466E+03  0.66275098466E+03  0.00000000000E+00 0. -1.
    2000013    1    1    2    0    0 -0.45159702845E+03  0.62824706075E+03  0.10409826014E+04  0.16077247967E+04  0.95000000000E+03 0.  0.
   -2000013    1    1    2    0    0  0.45159702845E+03 -0.62824706075E+03  0.60982268852E+03  0.13685824626E+04  0.95000000000E+03 0.  0.
<mgrwt>
<rscale>  0 0.24765393E+04</rscale>
<asrwt>0</asrwt>
<pdfrwt beam="1">  1        2 0.35593173E+00 0.24765393E+04</pdfrwt>
<pdfrwt beam="2">  1       -2 0.10196169E+00 0.24765393E+04</pdfrwt>
<totfact> 0.31383583E+00</totfact>
</mgrwt>
</event>
<event>
 4    1  0.2018023E-008  0.2360360E+04  0.7816531E-02  0.8454495E-01
          2   -1    0    0  501    0  0.00000000000E+00  0.00000000000E+00  0.24554021087E+04  0.24554021087E+04  0.00000000000E+00 0. -1.
         -2   -1    0    0    0  501 -0.00000000000E+00 -0.00000000000E+00 -0.56724910618E+03  0.56724910618E+03  0.00000000000E+00 0.  1.
    2000013    1    1    2    0    0 -0.57424992349E+03 -0.66013093417E+01  0.14571408327E+04  0.18318203946E+04  0.95000000000E+03 0.  0.
   -2000013    1    1    2    0    0  0.57424992349E+03  0.66013093417E+01  0.43101216986E+03  0.11908308203E+04  0.95000000000E+03 0.  0.
<mgrwt>
<rscale>  0 0.23603598E+04</rscale>
<asrwt>0</asrwt>
<pdfrwt beam="1">  1        2 0.37775416E+00 0.23603598E+04</pdfrwt>
<pdfrwt beam="2">  1       -2 0.87269095E-01 0.23603598E+04</pdfrwt>
<totfact> 0.37805238E+00</totfact>
</mgrwt>
</event>
<event>
 4    1  0.2018023E-008  0.2152508E+04  0.7816531E-02  0.8538459E-01
          1   -1    0    0  501    0  0.00000000000E+00  0.00000000000E+00  0.47225456490E+03  0.47225456490E+03  0.00000000000E+00 0.  1.
         -1   -1    0    0    0  501 -0.00000000000E+00 -0.00000000000E+00 -0.24527512695E+04  0.24527512695E+04  0.00000000000E+00 0. -1.
    2000013    1    1    2    0    0 -0.76324631524E+02 -0.48405753051E+03 -0.11604390478E+04  0.15777375973E+04  0.95000000000E+03 0.  0.
   -2000013    1    1    2    0    0  0.76324631524E+02  0.48405753051E+03 -0.82005765673E+03  0.13472682371E+04  0.95000000000E+03 0.  0.
<mgrwt>
<rscale>  0 0.21525083E+04</rscale>
<asrwt>0</asrwt>
<pdfrwt beam="1">  1        1 0.72654548E-01 0.21525083E+04</pdfrwt>
<pdfrwt beam="2">  1       -1 0.37734635E+00 0.21525083E+04</pdfrwt>
<totfact> 0.44808211E-01</totfact>
</mgrwt>
</event>
<event>
 4    1  0.2018023E-008  0.2955985E+04  0.7816531E-02  0.8256412E-01
          1   -1    0    0  501    0  0.00000000000E+00  0.00000000000E+00  0.11905007048E+04  0.11905007048E+04  0.00000000000E+00 0.  1.
         -1   -1    0    0    0  501 -0.00000000000E+00 -0.00000000000E+00 -0.18349106089E+04  0.18349106089E+04  0.00000000000E+00 0. -1.
    2000013    1    1    2    0    0 -0.41580465373E+03  0.86372976800E+03 -0.93888406207E+03  0.16440577557E+04  0.95000000000E+03 0.  0.
   -2000013    1    1    2    0    0  0.41580465373E+03 -0.86372976800E+03  0.29447415795E+03  0.13813535579E+04  0.95000000000E+03 0.  0.
<mgrwt>
<rscale>  0 0.29559854E+04</rscale>
<asrwt>0</asrwt>
<pdfrwt beam="1">  1        1 0.18315395E+00 0.29559854E+04</pdfrwt>
<pdfrwt beam="2">  1       -1 0.28229394E+00 0.29559854E+04</pdfrwt>
<totfact> 0.39893392E-01</totfact>
</mgrwt>
</event>
<event>
 4    1  0.2018023E-008  0.2065403E+04  0.7816531E-02  0.8576639E-01
          2   -1    0    0  501    0  0.00000000000E+00  0.00000000000E+00  0.37074234733E+04  0.37074234733E+04  0.00000000000E+00 0.  1.
         -2   -1    0    0    0  501 -0.00000000000E+00 -0.00000000000E+00 -0.28765861237E+03  0.28765861237E+03  0.00000000000E+00 0. -1.
    2000013    1    1    2    0    0  0.37625200406E+03 -0.14839980508E+03  0.17477973714E+04  0.20299959912E+04  0.95000000000E+03 0.  0.
   -2000013    1    1    2    0    0 -0.37625200406E+03  0.14839980508E+03  0.16719674895E+04  0.19650860945E+04  0.95000000000E+03 0.  0.
<mgrwt>
<rscale>  0 0.20654029E+04</rscale>
<asrwt>0</asrwt>
<pdfrwt beam="1">  1        2 0.57037281E+00 0.20654029E+04</pdfrwt>
<pdfrwt beam="2">  1       -2 0.44255174E-01 0.20654029E+04</pdfrwt>
<totfact> 0.25961411E+00</totfact>
</mgrwt>
</event>
<event>
 4    1  0.2018023E-008  0.2465550E+04  0.7816531E-02  0.8415362E-01
         -2   -1    0    0    0  501 -0.00000000000E+00  0.00000000000E+00  0.71752340244E+03  0.71752340244E+03  0.00000000000E+00 0. -1.
          2   -1    0    0  501    0  0.00000000000E+00 -0.00000000000E+00 -0.21180278101E+04  0.21180278101E+04  0.00000000000E+00 0.  1.
    2000013    1    1    2    0    0  0.74972879633E+03  0.56174868417E+02 -0.96247190615E+03  0.15472882905E+04  0.95000000000E+03 0.  0.
   -2000013    1    1    2    0    0 -0.74972879633E+03 -0.56174868417E+02 -0.43803250155E+03  0.12882629220E+04  0.95000000000E+03 0.  0.
<mgrwt>
<rscale>  0 0.24655503E+04</rscale>
<asrwt>0</asrwt>
<pdfrwt beam="2">  1        2 0.32585043E+00 0.24655503E+04</pdfrwt>
<pdfrwt beam="1">  1       -2 0.11038822E+00 0.24655503E+04</pdfrwt>
<totfact> 0.33446638E+00</totfact>
</mgrwt>
</event>
<event>
 4    1  0.2018023E-008  0.2505583E+04  0.7816531E-02  0.8400999E-01
          2   -1    0    0  501    0  0.00000000000E+00  0.00000000000E+00  0.19339603781E+04  0.19339603781E+04  0.00000000000E+00 0.  1.
         -2   -1    0    0    0  501 -0.00000000000E+00 -0.00000000000E+00 -0.81154033329E+03  0.81154033329E+03  0.00000000000E+00 0. -1.
    2000013    1    1    2    0    0  0.58203672914E+03 -0.55549247153E+03  0.71480401062E+03  0.14355428986E+04  0.95000000000E+03 0.  0.
   -2000013    1    1    2    0    0 -0.58203672914E+03  0.55549247153E+03  0.40761603415E+03  0.13099578128E+04  0.95000000000E+03 0.  0.
<mgrwt>
<rscale>  0 0.25055832E+04</rscale>
<asrwt>0</asrwt>
<pdfrwt beam="1">  1        2 0.29753237E+00 0.25055832E+04</pdfrwt>
<pdfrwt beam="2">  1       -2 0.12485236E+00 0.25055832E+04</pdfrwt>
<totfact> 0.31171924E+00</totfact>
</mgrwt>
</event>
<event>
 4    1  0.2018023E-008  0.2087252E+04  0.7816531E-02  0.8566880E-01
          2   -1    0    0  501    0  0.00000000000E+00  0.00000000000E+00  0.12937880657E+04  0.12937880657E+04  0.00000000000E+00 0.  1.
         -2   -1    0    0    0  501 -0.00000000000E+00 -0.00000000000E+00 -0.84183465769E+03  0.84183465769E+03  0.00000000000E+00 0. -1.
    2000013    1    1    2    0    0 -0.83431483305E+02  0.41987889842E+03  0.16634634828E+03  0.10551920249E+04  0.95000000000E+03 0.  0.
   -2000013    1    1    2    0    0  0.83431483305E+02 -0.41987889842E+03  0.28560705972E+03  0.10804306985E+04  0.95000000000E+03 0.  0.
<mgrwt>
<rscale>  0 0.20872524E+04</rscale>
<asrwt>0</asrwt>
<pdfrwt beam="1">  1        2 0.19904432E+00 0.20872524E+04</pdfrwt>
<pdfrwt beam="2">  1       -2 0.12951302E+00 0.20872524E+04</pdfrwt>
<totfact> 0.67437826E+00</totfact>
</mgrwt>
</event>
<event>
 4    1  0.2018023E-008  0.2327807E+04  0.7816531E-02  0.8467037E-01
          2   -1    0    0  501    0  0.00000000000E+00  0.00000000000E+00  0.11354171087E+04  0.11354171087E+04  0.00000000000E+00 0.  1.
         -2   -1    0    0    0  501 -0.00000000000E+00 -0.00000000000E+00 -0.11931041650E+04  0.11931041650E+04  0.00000000000E+00 0. -1.
    2000013    1    1    2    0    0  0.33783486188E+03  0.40851054682E+03  0.38499549168E+03  0.11540081410E+04  0.95000000000E+03 0.  0.
   -2000013    1    1    2    0    0 -0.33783486188E+03 -0.40851054682E+03 -0.44268254794E+03  0.11745131328E+04  0.95000000000E+03 0.  0.
<mgrwt>
<rscale>  0 0.23278066E+04</rscale>
<asrwt>0</asrwt>
<pdfrwt beam="1">  1        2 0.17467955E+00 0.23278066E+04</pdfrwt>
<pdfrwt beam="2">  1       -2 0.18355449E+00 0.23278066E+04</pdfrwt>
<totfact> 0.32125865E+00</totfact>
</mgrwt>
</event>
<event>
 4    1  0.2018023E-008  0.2521673E+04  0.7816531E-02  0.8395305E-01
         -2   -1    0    0    0  501 -0.00000000000E+00  0.00000000000E+00  0.13529129048E+04  0.13529129048E+04  0.00000000000E+00 0. -1.
          2   -1    0    0  501    0  0.00000000000E+00 -0.00000000000E+00 -0.11750269640E+04  0.11750269640E+04  0.00000000000E+00 0.  1.
    2000013    1    1    2    0    0 -0.42939300676E+03  0.21247273964E+03  0.76714920905E+03  0.13116939156E+04  0.95000000000E+03 0.  0.
   -2000013    1    1    2    0    0  0.42939300676E+03 -0.21247273964E+03 -0.58926326829E+03  0.12162459532E+04  0.95000000000E+03 0.  0.
<mgrwt>
<rscale>  0 0.25216734E+04</rscale>
<asrwt>0</asrwt>
<pdfrwt beam="2">  1        2 0.18077338E+00 0.25216734E+04</pdfrwt>
<pdfrwt beam="1">  1       -2 0.20814045E+00 0.25216734E+04</pdfrwt>
<totfact> 0.20546509E+00</totfact>
</mgrwt>
</event>
<event>
 4    1  0.2018023E-008  0.2363759E+04  0.7816531E-02  0.8453198E-01
          2   -1    0    0  501    0  0.00000000000E+00  0.00000000000E+00  0.13484480813E+04  0.13484480813E+04  0.00000000000E+00 0.  1.
         -2   -1    0    0    0  501 -0.00000000000E+00 -0.00000000000E+00 -0.10358861278E+04  0.10358861278E+04  0.00000000000E+00 0. -1.
    2000013    1    1    2    0    0 -0.51143269085E+03  0.22597623055E+03  0.58626610377E+03  0.12485337795E+04  0.95000000000E+03 0.  0.
   -2000013    1    1    2    0    0  0.51143269085E+03 -0.22597623055E+03 -0.27370415026E+03  0.11358004296E+04  0.95000000000E+03 0.  0.
<mgrwt>
<rscale>  0 0.23637586E+04</rscale>
<asrwt>0</asrwt>
<pdfrwt beam="1">  1        2 0.20745355E+00 0.23637586E+04</pdfrwt>
<pdfrwt beam="2">  1       -2 0.15936710E+00 0.23637586E+04</pdfrwt>
<totfact> 0.35585982E+00</totfact>
</mgrwt>
</event>
<event>
 4    1  0.2018023E-008  0.2233877E+04  0.7816531E-02  0.8504459E-01
         -2   -1    0    0    0  501 -0.00000000000E+00  0.00000000000E+00  0.11721393450E+04  0.11721393450E+04  0.00000000000E+00 0. -1.
          2   -1    0    0  501    0  0.00000000000E+00 -0.00000000000E+00 -0.10643375248E+04  0.10643375248E+04  0.00000000000E+00 0.  1.
    2000013    1    1    2    0    0  0.22021439305E+03 -0.40940570323E+03 -0.30560537265E+03  0.11009096478E+04  0.95000000000E+03 0.  0.
   -2000013    1    1    2    0    0 -0.22021439305E+03  0.40940570323E+03  0.41340719277E+03  0.11355672220E+04  0.95000000000E+03 0.  0.
<mgrwt>
<rscale>  0 0.22338772E+04</rscale>
<asrwt>0</asrwt>
<pdfrwt beam="2">  1        2 0.16374423E+00 0.22338772E+04</pdfrwt>
<pdfrwt beam="1">  1       -2 0.18032913E+00 0.22338772E+04</pdfrwt>
<totfact> 0.37693018E+00</totfact>
</mgrwt>
</event>
<event>
 4    1  0.2018023E-008  0.3009535E+04  0.7816531E-02  0.8241013E-01
          2   -1    0    0  501    0  0.00000000000E+00  0.00000000000E+00  0.12701638713E+04  0.12701638713E+04  0.00000000000E+00 0.  1.
         -2   -1    0    0    0  501 -0.00000000000E+00 -0.00000000000E+00 -0.17827032320E+04  0.17827032320E+04  0.00000000000E+00 0. -1.
    2000013    1    1    2    0    0 -0.65784669189E+03 -0.93648740079E+03 -0.48770885679E+03  0.15652893825E+04  0.95000000000E+03 0.  0.
   -2000013    1    1    2    0    0  0.65784669189E+03  0.93648740079E+03 -0.24830503913E+02  0.14875777209E+04  0.95000000000E+03 0.  0.
<mgrwt>
<rscale>  0 0.30095350E+04</rscale>
<asrwt>0</asrwt>
<pdfrwt beam="1">  1        2 0.19540983E+00 0.30095350E+04</pdfrwt>
<pdfrwt beam="2">  1       -2 0.27426203E+00 0.30095350E+04</pdfrwt>
<totfact> 0.67195763E-01</totfact>
</mgrwt>
</event>
<event>
 4    1  0.2018023E-008  0.2239600E+04  0.7816531E-02  0.8502124E-01
          2   -1    0    0  501    0  0.00000000000E+00  0.00000000000E+00  0.23115428827E+04  0.23115428827E+04  0.00000000000E+00 0.  1.
         -2   -1    0    0    0  501 -0.00000000000E+00 -0.00000000000E+00 -0.54247406819E+03  0.54247406819E+03  0.00000000000E+00 0. -1.
    2000013    1    1    2    0    0  0.48413190802E+03  0.34215253808E+03  0.88442254882E+03  0.14269391397E+04  0.95000000000E+03 0.  0.
   -2000013    1    1    2    0    0 -0.48413190802E+03 -0.34215253808E+03  0.88464626572E+03  0.14270778112E+04  0.95000000000E+03 0.  0.
<mgrwt>
<rscale>  0 0.22396000E+04</rscale>
<asrwt>0</asrwt>
<pdfrwt beam="1">  1        2 0.35562198E+00 0.22396000E+04</pdfrwt>
<pdfrwt beam="2">  1       -2 0.83457550E-01 0.22396000E+04</pdfrwt>
<totfact> 0.51103215E+00</totfact>
</mgrwt>
</event>
<event>
 4    1  0.2018023E-008  0.2548217E+04  0.7816531E-02  0.8386007E-01
         -2   -1    0    0    0  501 -0.00000000000E+00  0.00000000000E+00  0.44773777313E+03  0.44773777313E+03  0.00000000000E+00 0. -1.
          2   -1    0    0  501    0  0.00000000000E+00 -0.00000000000E+00 -0.36256770449E+04  0.36256770449E+04  0.00000000000E+00 0.  1.
    2000013    1    1    2    0    0 -0.46625899541E+03 -0.60998994623E+03 -0.10095863160E+04  0.15846923092E+04  0.95000000000E+03 0.  0.
   -2000013    1    1    2    0    0  0.46625899541E+03  0.60998994623E+03 -0.21683529558E+04  0.24887225089E+04  0.95000000000E+03 0.  0.
<mgrwt>
<rscale>  0 0.25482171E+04</rscale>
<asrwt>0</asrwt>
<pdfrwt beam="2">  1        2 0.55779648E+00 0.25482171E+04</pdfrwt>
<pdfrwt beam="1">  1       -2 0.68882733E-01 0.25482171E+04</pdfrwt>
<totfact> 0.11331111E+00</totfact>
</mgrwt>
</event>
<event>
 4    1  0.2018023E-008  0.2286925E+04  0.7816531E-02  0.8483094E-01
          2   -1    0    0  501    0  0.00000000000E+00  0.00000000000E+00  0.20706894025E+04  0.20706894025E+04  0.00000000000E+00 0.  1.
         -2   -1    0    0    0  501 -0.00000000000E+00 -0.00000000000E+00 -0.63143531884E+03  0.63143531884E+03  0.00000000000E+00 0. -1.
    2000013    1    1    2    0    0  0.60572146272E+03  0.19287306419E+03  0.75522915590E+03  0.13700253966E+04  0.95000000000E+03 0.  0.
   -2000013    1    1    2    0    0 -0.60572146272E+03 -0.19287306419E+03  0.68402492773E+03  0.13320993248E+04  0.95000000000E+03 0.  0.
<mgrwt>
<rscale>  0 0.22869249E+04</rscale>
<asrwt>0</asrwt>
<pdfrwt beam="1">  1        2 0.31856760E+00 0.22869249E+04</pdfrwt>
<pdfrwt beam="2">  1       -2 0.97143896E-01 0.22869249E+04</pdfrwt>
<totfact> 0.48975833E+00</totfact>
</mgrwt>
</event>
<event>
 4    1  0.2018023E-008  0.2624484E+04  0.7816531E-02  0.8359932E-01
         -2   -1    0    0    0  501 -0.00000000000E+00  0.00000000000E+00  0.52809430413E+03  0.52809430413E+03  0.00000000000E+00 0. -1.
          2   -1    0    0  501    0  0.00000000000E+00 -0.00000000000E+00 -0.32607421304E+04  0.32607421304E+04  0.00000000000E+00 0.  1.
    2000013    1    1    2    0    0 -0.22872759424E+03 -0.86046054713E+03 -0.16025302801E+04  0.20647789141E+04  0.95000000000E+03 0.  0.
   -2000013    1    1    2    0    0  0.22872759424E+03  0.86046054713E+03 -0.11301175462E+04  0.17240575204E+04  0.95000000000E+03 0.  0.
<mgrwt>
<rscale>  0 0.26244842E+04</rscale>
<asrwt>0</asrwt>
<pdfrwt beam="2">  1        2 0.50165264E+00 0.26244842E+04</pdfrwt>
<pdfrwt beam="1">  1       -2 0.81245278E-01 0.26244842E+04</pdfrwt>
<totfact> 0.13941618E+00</totfact>
</mgrwt>
</event>
<event>
 4    1  0.2018023E-008  0.2543417E+04  0.7816531E-02  0.8387679E-01
         -2   -1    0    0    0  501 -0.00000000000E+00  0.00000000000E+00  0.66247362024E+03  0.66247362024E+03  0.00000000000E+00 0. -1.
          2   -1    0    0  501    0  0.00000000000E+00 -0.00000000000E+00 -0.24412174500E+04  0.24412174500E+04  0.00000000000E+00 0.  1.
    2000013    1    1    2    0    0 -0.78339076194E+03  0.30369279950E+03 -0.77482265658E+03  0.14861966732E+04  0.95000000000E+03 0.  0.
   -2000013    1    1    2    0    0  0.78339076194E+03 -0.30369279950E+03 -0.10039211731E+04  0.16174943970E+04  0.95000000000E+03 0.  0.
<mgrwt>
<rscale>  0 0.25434167E+04</rscale>
<asrwt>0</asrwt>
<pdfrwt beam="2">  1        2 0.37557191E+00 0.25434167E+04</pdfrwt>
<pdfrwt beam="1">  1       -2 0.10191902E+00 0.25434167E+04</pdfrwt>
<totfact> 0.26405256E+00</totfact>
</mgrwt>
</event>
<event>
 4    1  0.2018023E-008  0.2588170E+04  0.7816531E-02  0.8372231E-01
         -2   -1    0    0    0  501 -0.00000000000E+00  0.00000000000E+00  0.40654560271E+03  0.40654560271E+03  0.00000000000E+00 0. -1.
          2   -1    0    0  501    0  0.00000000000E+00 -0.00000000000E+00 -0.41192329413E+04  0.41192329413E+04  0.00000000000E+00 0.  1.
    2000013    1    1    2    0    0  0.60820686572E+02  0.87140144351E+03 -0.20233036364E+04  0.23998535865E+04  0.95000000000E+03 0.  0.
   -2000013    1    1    2    0    0 -0.60820686572E+02 -0.87140144351E+03 -0.16893837022E+04  0.21259249575E+04  0.95000000000E+03 0.  0.
<mgrwt>
<rscale>  0 0.25881700E+04</rscale>
<asrwt>0</asrwt>
<pdfrwt beam="2">  1        2 0.63372814E+00 0.25881700E+04</pdfrwt>
<pdfrwt beam="1">  1       -2 0.62545478E-01 0.25881700E+04</pdfrwt>
<totfact> 0.57409396E-01</totfact>
</mgrwt>
</event>
<event>
 4    1  0.2018023E-008  0.2987962E+04  0.7816531E-02  0.8247177E-01
         -2   -1    0    0    0  501 -0.00000000000E+00  0.00000000000E+00  0.15277936085E+04  0.15277936085E+04  0.00000000000E+00 0. -1.
          2   -1    0    0  501    0  0.00000000000E+00 -0.00000000000E+00 -0.14609170664E+04  0.14609170664E+04  0.00000000000E+00 0.  1.
    2000013    1    1    2    0    0  0.67737198060E+03 -0.98294112091E+02 -0.89468701008E+03  0.14735872484E+04  0.95000000000E+03 0.  0.
   -2000013    1    1    2    0    0 -0.67737198060E+03  0.98294112091E+02  0.96156355221E+03  0.15151234265E+04  0.95000000000E+03 0.  0.
<mgrwt>
<rscale>  0 0.29879624E+04</rscale>
<asrwt>0</asrwt>
<pdfrwt beam="2">  1        2 0.22475647E+00 0.29879624E+04</pdfrwt>
<pdfrwt beam="1">  1       -2 0.23504517E+00 0.29879624E+04</pdfrwt>
<totfact> 0.91016155E-01</totfact>
</mgrwt>
</event>
<event>
 4    1  0.2018023E-008  0.2090822E+04  0.7816531E-02  0.8565297E-01
          2   -1    0    0  501    0  0.00000000000E+00  0.00000000000E+00  0.14256258629E+04  0.14256258629E+04  0.00000000000E+00 0.  1.
         -2   -1    0    0    0  501 -0.00000000000E+00 -0.00000000000E+00 -0.76659981106E+03  0.76659981106E+03  0.00000000000E+00 0. -1.
    2000013    1    1    2    0    0 -0.18166207766E+02  0.25136633620E+03 -0.43949209074E+02  0.98384276135E+03  0.95000000000E+03 0.  0.
   -2000013    1    1    2    0    0  0.18166207766E+02 -0.25136633620E+03  0.70297526094E+03  0.12083829126E+04  0.95000000000E+03 0.  0.
<mgrwt>
<rscale>  0 0.20908223E+04</rscale>
<asrwt>0</asrwt>
<pdfrwt beam="1">  1        2 0.21932706E+00 0.20908223E+04</pdfrwt>
<pdfrwt beam="2">  1       -2 0.11793843E+00 0.20908223E+04</pdfrwt>
<totfact> 0.71531527E+00</totfact>
</mgrwt>
</event>
<event>
 4    1  0.2018023E-008  0.2042455E+04  0.7816531E-02  0.8587025E-01
          1   -1    0    0  501    0  0.00000000000E+00  0.00000000000E+00  0.15038156743E+04  0.15038156743E+04  0.00000000000E+00 0.  1.
         -1   -1    0    0    0  501 -0.00000000000E+00 -0.00000000000E+00 -0.69350644117E+03  0.69350644117E+03  0.00000000000E+00 0. -1.
    2000013    1    1    2    0    0 -0.12583706208E+02  0.23302656485E+03  0.72054927456E+03  0.12149695414E+04  0.95000000000E+03 0.  0.
   -2000013    1    1    2    0    0  0.12583706208E+02 -0.23302656485E+03  0.89759958613E+02  0.98235257406E+03  0.95000000000E+03 0.  0.
<mgrwt>
<rscale>  0 0.20424552E+04</rscale>
<asrwt>0</asrwt>
<pdfrwt beam="1">  1        1 0.23135626E+00 0.20424552E+04</pdfrwt>
<pdfrwt beam="2">  1       -1 0.10669330E+00 0.20424552E+04</pdfrwt>
<totfact> 0.49281880E+00</totfact>
</mgrwt>
</event>
<event>
 4    1  0.2018023E-008  0.3475879E+04  0.7816531E-02  0.8119530E-01
         -2   -1    0    0    0  501 -0.00000000000E+00  0.00000000000E+00  0.15400898341E+04  0.15400898341E+04  0.00000000000E+00 0. -1.
          2   -1    0    0  501    0  0.00000000000E+00 -0.00000000000E+00 -0.19612057184E+04  0.19612057184E+04  0.00000000000E+00 0.  1.
    2000013    1    1    2    0    0 -0.70060527553E+03 -0.66090228422E+03  0.88842559874E+03  0.16184682962E+04  0.95000000000E+03 0.  0.
   -2000013    1    1    2    0    0  0.70060527553E+03  0.66090228422E+03 -0.13095414830E+04  0.18828272563E+04  0.95000000000E+03 0.  0.
<mgrwt>
<rscale>  0 0.34758786E+04</rscale>
<asrwt>0</asrwt>
<pdfrwt beam="2">  1        2 0.30172395E+00 0.34758786E+04</pdfrwt>
<pdfrwt beam="1">  1       -2 0.23693690E+00 0.34758786E+04</pdfrwt>
<totfact> 0.44742494E-01</totfact>
</mgrwt>
</event>
<event>
 4    1  0.2018023E-008  0.2813739E+04  0.7816531E-02  0.8299016E-01
          2   -1    0    0  501    0  0.00000000000E+00  0.00000000000E+00  0.20770988327E+04  0.20770988327E+04  0.00000000000E+00 0.  1.
         -2   -1    0    0    0  501 -0.00000000000E+00 -0.00000000000E+00 -0.95290686052E+03  0.95290686052E+03  0.00000000000E+00 0. -1.
    2000013    1    1    2    0    0  0.22777418005E+03  0.99408421753E+03  0.76838505630E+03  0.15915401671E+04  0.95000000000E+03 0.  0.
   -2000013    1    1    2    0    0 -0.22777418005E+03 -0.99408421753E+03  0.35580691591E+03  0.14384655262E+04  0.95000000000E+03 0.  0.
<mgrwt>
<rscale>  0 0.28137390E+04</rscale>
<asrwt>0</asrwt>
<pdfrwt beam="1">  1        2 0.31955367E+00 0.28137390E+04</pdfrwt>
<pdfrwt beam="2">  1       -2 0.14660106E+00 0.28137390E+04</pdfrwt>
<totfact> 0.16745107E+00</totfact>
</mgrwt>
</event>
<event>
 4    1  0.2018023E-008  0.2422339E+04  0.7816531E-02  0.8431187E-01
          2   -1    0    0  501    0  0.00000000000E+00  0.00000000000E+00  0.19522669783E+04  0.19522669783E+04  0.00000000000E+00 0.  1.
         -2   -1    0    0    0  501 -0.00000000000E+00 -0.00000000000E+00 -0.75139911297E+03  0.75139911297E+03  0.00000000000E+00 0. -1.
    2000013    1    1    2    0    0 -0.32746637326E+03  0.63204226276E+03  0.86858614406E+03  0.14709362791E+04  0.95000000000E+03 0.  0.
   -2000013    1    1    2    0    0  0.32746637326E+03 -0.63204226276E+03  0.33228172128E+03  0.12327298122E+04  0.95000000000E+03 0.  0.
<mgrwt>
<rscale>  0 0.24223391E+04</rscale>
<asrwt>0</asrwt>
<pdfrwt beam="1">  1        2 0.30034876E+00 0.24223391E+04</pdfrwt>
<pdfrwt beam="2">  1       -2 0.11559986E+00 0.24223391E+04</pdfrwt>
<totfact> 0.37115215E+00</totfact>
</mgrwt>
</event>
<event>
 4    1  0.2018023E-008  0.3073406E+04  0.7816531E-02  0.8223074E-01
          2   -1    0    0  501    0  0.00000000000E+00  0.00000000000E+00  0.16127122812E+04  0.16127122812E+04  0.00000000000E+00 0. -1.
         -2   -1    0    0    0  501 -0.00000000000E+00 -0.00000000000E+00 -0.14642764134E+04  0.14642764134E+04  0.00000000000E+00 0.  1.
    2000013    1    1    2    0    0 -0.78050550030E+03  0.85665848443E+03  0.41506146991E+03  0.15549368536E+04  0.95000000000E+03 0.  0.
   -2000013    1    1    2    0    0  0.78050550030E+03 -0.85665848443E+03 -0.26662560216E+03  0.15220518410E+04  0.95000000000E+03 0.  0.
<mgrwt>
<rscale>  0 0.30734063E+04</rscale>
<asrwt>0</asrwt>
<pdfrwt beam="1">  1        2 0.24810958E+00 0.30734063E+04</pdfrwt>
<pdfrwt beam="2">  1       -2 0.22527329E+00 0.30734063E+04</pdfrwt>
<totfact> 0.85456680E-01</totfact>
</mgrwt>
</event>
<event>
 4    1  0.2018023E-008  0.3078593E+04  0.7816531E-02  0.8221637E-01
         -2   -1    0    0    0  501 -0.00000000000E+00  0.00000000000E+00  0.94804929082E+03  0.94804929082E+03  0.00000000000E+00 0. -1.
          2   -1    0    0  501    0  0.00000000000E+00 -0.00000000000E+00 -0.24992733651E+04  0.24992733651E+04  0.00000000000E+00 0.  1.
    2000013    1    1    2    0    0 -0.91421362795E+03 -0.78523148988E+03 -0.64049823537E+03  0.16628629047E+04  0.95000000000E+03 0.  0.
   -2000013    1    1    2    0    0  0.91421362795E+03  0.78523148988E+03 -0.91072583893E+03  0.17844597513E+04  0.95000000000E+03 0.  0.
<mgrwt>
<rscale>  0 0.30785934E+04</rscale>
<asrwt>0</asrwt>
<pdfrwt beam="2">  1        2 0.38450360E+00 0.30785934E+04</pdfrwt>
<pdfrwt beam="1">  1       -2 0.14585374E+00 0.30785934E+04</pdfrwt>
<totfact> 0.95603139E-01</totfact>
</mgrwt>
</event>
<event>
 4    1  0.2018023E-008  0.2940892E+04  0.7816531E-02  0.8260814E-01
          2   -1    0    0  501    0  0.00000000000E+00  0.00000000000E+00  0.12647073112E+04  0.12647073112E+04  0.00000000000E+00 0.  1.
         -2   -1    0    0    0  501 -0.00000000000E+00 -0.00000000000E+00 -0.17096540284E+04  0.17096540284E+04  0.00000000000E+00 0. -1.
    2000013    1    1    2    0    0  0.27445187852E+03  0.10733015582E+04 -0.40391483476E+02  0.14599423072E+04  0.95000000000E+03 0.  0.
   -2000013    1    1    2    0    0 -0.27445187852E+03 -0.10733015582E+04 -0.40455523380E+03  0.15144190324E+04  0.95000000000E+03 0.  0.
<mgrwt>
<rscale>  0 0.29408923E+04</rscale>
<asrwt>0</asrwt>
<pdfrwt beam="1">  1        2 0.19457036E+00 0.29408923E+04</pdfrwt>
<pdfrwt beam="2">  1       -2 0.26302370E+00 0.29408923E+04</pdfrwt>
<totfact> 0.79737724E-01</totfact>
</mgrwt>
</event>
<event>
 4    1  0.2018023E-008  0.2136492E+04  0.7816531E-02  0.8545336E-01
         -2   -1    0    0    0  501 -0.00000000000E+00  0.00000000000E+00  0.96799146914E+03  0.96799146914E+03  0.00000000000E+00 0. -1.
          2   -1    0    0  501    0  0.00000000000E+00 -0.00000000000E+00 -0.11788841027E+04  0.11788841027E+04  0.00000000000E+00 0.  1.
    2000013    1    1    2    0    0 -0.42057587795E+02  0.48415166061E+03 -0.55424033605E+02  0.10685239795E+04  0.95000000000E+03 0.  0.
   -2000013    1    1    2    0    0  0.42057587795E+02 -0.48415166061E+03 -0.15546859991E+03  0.10783515923E+04  0.95000000000E+03 0.  0.
<mgrwt>
<rscale>  0 0.21364922E+04</rscale>
<asrwt>0</asrwt>
<pdfrwt beam="2">  1        2 0.18136679E+00 0.21364922E+04</pdfrwt>
<pdfrwt beam="1">  1       -2 0.14892176E+00 0.21364922E+04</pdfrwt>
<totfact> 0.54727550E+00</totfact>
</mgrwt>
</event>
<event>
 4    1  0.2018023E-008  0.4192123E+04  0.7816531E-02  0.7966872E-01
         -2   -1    0    0    0  501 -0.00000000000E+00  0.00000000000E+00  0.33473121077E+04  0.33473121077E+04  0.00000000000E+00 0. -1.
          2   -1    0    0  501    0  0.00000000000E+00 -0.00000000000E+00 -0.13125380791E+04  0.13125380791E+04  0.00000000000E+00 0.  1.
    2000013    1    1    2    0    0 -0.65592471492E+03  0.71107446792E+03 -0.75943014497E+03  0.15540586461E+04  0.95000000000E+03 0.  0.
   -2000013    1    1    2    0    0  0.65592471492E+03 -0.71107446792E+03  0.27942041735E+04  0.31057915407E+04  0.95000000000E+03 0.  0.
<mgrwt>
<rscale>  0 0.41921234E+04</rscale>
<asrwt>0</asrwt>
<pdfrwt beam="2">  1        2 0.20192894E+00 0.41921234E+04</pdfrwt>
<pdfrwt beam="1">  1       -2 0.51497109E+00 0.41921234E+04</pdfrwt>
<totfact> 0.16933520E-02</totfact>
</mgrwt>
</event>
<event>
 4    1  0.2018023E-008  0.2687694E+04  0.7816531E-02  0.8339009E-01
         -2   -1    0    0    0  501 -0.00000000000E+00  0.00000000000E+00  0.59259083507E+03  0.59259083507E+03  0.00000000000E+00 0. -1.
          2   -1    0    0  501    0  0.00000000000E+00 -0.00000000000E+00 -0.30475076656E+04  0.30475076656E+04  0.00000000000E+00 0.  1.
    2000013    1    1    2    0    0  0.66577837498E+03  0.55883622430E+03 -0.70666205966E+03  0.14688192662E+04  0.95000000000E+03 0.  0.
   -2000013    1    1    2    0    0 -0.66577837498E+03 -0.55883622430E+03 -0.17482547708E+04  0.21712792345E+04  0.95000000000E+03 0.  0.
<mgrwt>
<rscale>  0 0.26876943E+04</rscale>
<asrwt>0</asrwt>
<pdfrwt beam="2">  1        2 0.46884733E+00 0.26876943E+04</pdfrwt>
<pdfrwt beam="1">  1       -2 0.91167822E-01 0.26876943E+04</pdfrwt>
<totfact> 0.14635906E+00</totfact>
</mgrwt>
</event>
<event>
 4    1  0.2018023E-008  0.2211067E+04  0.7816531E-02  0.8513836E-01
          2   -1    0    0  501    0  0.00000000000E+00  0.00000000000E+00  0.16998631957E+04  0.16998631957E+04  0.00000000000E+00 0.  1.
         -2   -1    0    0    0  501 -0.00000000000E+00 -0.00000000000E+00 -0.71900154303E+03  0.71900154303E+03  0.00000000000E+00 0. -1.
    2000013    1    1    2    0    0  0.45088904392E+03  0.33337351069E+03  0.41104796645E+03  0.11772422258E+04  0.95000000000E+03 0.  0.
   -2000013    1    1    2    0    0 -0.45088904392E+03 -0.33337351069E+03  0.56981368625E+03  0.12416225129E+04  0.95000000000E+03 0.  0.
<mgrwt>
<rscale>  0 0.22110669E+04</rscale>
<asrwt>0</asrwt>
<pdfrwt beam="1">  1        2 0.26151741E+00 0.22110669E+04</pdfrwt>
<pdfrwt beam="2">  1       -2 0.11061562E+00 0.22110669E+04</pdfrwt>
<totfact> 0.58065016E+00</totfact>
</mgrwt>
</event>
<event>
 4    1  0.2018023E-008  0.2477357E+04  0.7816531E-02  0.8411097E-01
          2   -1    0    0  501    0  0.00000000000E+00  0.00000000000E+00  0.25561863166E+04  0.25561863166E+04  0.00000000000E+00 0.  1.
         -2   -1    0    0    0  501 -0.00000000000E+00 -0.00000000000E+00 -0.60023951672E+03  0.60023951672E+03  0.00000000000E+00 0. -1.
    2000013    1    1    2    0    0 -0.62885385661E+03 -0.34175032105E+03  0.14185532926E+04  0.18512276734E+04  0.95000000000E+03 0.  0.
   -2000013    1    1    2    0    0  0.62885385661E+03  0.34175032105E+03  0.53739350727E+03  0.13051981599E+04  0.95000000000E+03 0.  0.
<mgrwt>
<rscale>  0 0.24773567E+04</rscale>
<asrwt>0</asrwt>
<pdfrwt beam="1">  1        2 0.39325943E+00 0.24773567E+04</pdfrwt>
<pdfrwt beam="2">  1       -2 0.92344542E-01 0.24773567E+04</pdfrwt>
<totfact> 0.28719820E+00</totfact>
</mgrwt>
</event>
<event>
 4    1  0.2018023E-008  0.3440086E+04  0.7816531E-02  0.8128137E-01
          1   -1    0    0  501    0  0.00000000000E+00  0.00000000000E+00  0.37917777132E+04  0.37917777132E+04  0.00000000000E+00 0.  1.
         -1   -1    0    0    0  501 -0.00000000000E+00 -0.00000000000E+00 -0.78025337250E+03  0.78025337250E+03  0.00000000000E+00 0. -1.
    2000013    1    1    2    0    0 -0.12395300152E+04 -0.55621673159E+03  0.21151490293E+04  0.26874089989E+04  0.95000000000E+03 0.  0.
   -2000013    1    1    2    0    0  0.12395300152E+04  0.55621673159E+03  0.89637531142E+03  0.18846220868E+04  0.95000000000E+03 0.  0.
<mgrwt>
<rscale>  0 0.34400857E+04</rscale>
<asrwt>0</asrwt>
<pdfrwt beam="1">  1        1 0.58335041E+00 0.34400857E+04</pdfrwt>
<pdfrwt beam="2">  1       -1 0.12003898E+00 0.34400857E+04</pdfrwt>
<totfact> 0.73301658E-02</totfact>
</mgrwt>
</event>
<event>
 4    1  0.2018023E-008  0.2628304E+04  0.7816531E-02  0.8358650E-01
         -2   -1    0    0    0  501 -0.00000000000E+00  0.00000000000E+00  0.11036516349E+04  0.11036516349E+04  0.00000000000E+00 0. -1.
          2   -1    0    0  501    0  0.00000000000E+00 -0.00000000000E+00 -0.15648016787E+04  0.15648016787E+04  0.00000000000E+00 0.  1.
    2000013    1    1    2    0    0  0.50792927265E+02 -0.83737687737E+03 -0.58332445860E+03  0.13951872205E+04  0.95000000000E+03 0.  0.
   -2000013    1    1    2    0    0 -0.50792927265E+02  0.83737687737E+03  0.12217441472E+03  0.12732660931E+04  0.95000000000E+03 0.  0.
<mgrwt>
<rscale>  0 0.26283043E+04</rscale>
<asrwt>0</asrwt>
<pdfrwt beam="2">  1        2 0.24073872E+00 0.26283043E+04</pdfrwt>
<pdfrwt beam="1">  1       -2 0.16979256E+00 0.26283043E+04</pdfrwt>
<totfact> 0.22029214E+00</totfact>
</mgrwt>
</event>
<event>
 4    1  0.2018023E-008  0.2696130E+04  0.7816531E-02  0.8336262E-01
          2   -1    0    0  501    0  0.00000000000E+00  0.00000000000E+00  0.14391200827E+04  0.14391200827E+04  0.00000000000E+00 0.  1.
         -2   -1    0    0    0  501 -0.00000000000E+00 -0.00000000000E+00 -0.12627707689E+04  0.12627707689E+04  0.00000000000E+00 0. -1.
    2000013    1    1    2    0    0 -0.27532699621E+03  0.35009199801E+03  0.93639301843E+03  0.14063076644E+04  0.95000000000E+03 0.  0.
   -2000013    1    1    2    0    0  0.27532699621E+03 -0.35009199801E+03 -0.76004370463E+03  0.12955831872E+04  0.95000000000E+03 0.  0.
<mgrwt>
<rscale>  0 0.26961297E+04</rscale>
<asrwt>0</asrwt>
<pdfrwt beam="1">  1        2 0.22140309E+00 0.26961297E+04</pdfrwt>
<pdfrwt beam="2">  1       -2 0.19427243E+00 0.26961297E+04</pdfrwt>
<totfact> 0.17507202E+00</totfact>
</mgrwt>
</event>
<event>
 4    1  0.2018023E-008  0.2239206E+04  0.7816531E-02  0.8502285E-01
          2   -1    0    0  501    0  0.00000000000E+00  0.00000000000E+00  0.21089900611E+04  0.21089900611E+04  0.00000000000E+00 0.  1.
         -2   -1    0    0    0  501 -0.00000000000E+00 -0.00000000000E+00 -0.59436560356E+03  0.59436560356E+03  0.00000000000E+00 0. -1.
    2000013    1    1    2    0    0  0.25540594454E+03  0.41042089831E+02  0.14008003056E+04  0.17122085580E+04  0.95000000000E+03 0.  0.
   -2000013    1    1    2    0    0 -0.25540594454E+03 -0.41042089831E+02  0.11382415193E+03  0.99114710674E+03  0.95000000000E+03 0.  0.
<mgrwt>
<rscale>  0 0.22392062E+04</rscale>
<asrwt>0</asrwt>
<pdfrwt beam="1">  1        2 0.32446001E+00 0.22392062E+04</pdfrwt>
<pdfrwt beam="2">  1       -2 0.91440863E-01 0.22392062E+04</pdfrwt>
<totfact> 0.53901503E+00</totfact>
</mgrwt>
</event>
<event>
 4    1  0.2018023E-008  0.2072194E+04  0.7816531E-02  0.8573592E-01
         -2   -1    0    0    0  501 -0.00000000000E+00  0.00000000000E+00  0.26866953960E+03  0.26866953960E+03  0.00000000000E+00 0. -1.
          2   -1    0    0  501    0  0.00000000000E+00 -0.00000000000E+00 -0.39956047468E+04  0.39956047468E+04  0.00000000000E+00 0.  1.
    2000013    1    1    2    0    0  0.23353160256E+03  0.31089697061E+03 -0.15738773017E+04  0.18790379710E+04  0.95000000000E+03 0.  0.
   -2000013    1    1    2    0    0 -0.23353160256E+03 -0.31089697061E+03 -0.21530579054E+04  0.23852363153E+04  0.95000000000E+03 0.  0.
<mgrwt>
<rscale>  0 0.20721943E+04</rscale>
<asrwt>0</asrwt>
<pdfrwt beam="2">  1        2 0.61470839E+00 0.20721943E+04</pdfrwt>
<pdfrwt beam="1">  1       -2 0.41333778E-01 0.20721943E+04</pdfrwt>
<totfact> 0.17829608E+00</totfact>
</mgrwt>
</event>
<event>
 4    1  0.2018023E-008  0.3467642E+04  0.7816531E-02  0.8121502E-01
         -2   -1    0    0    0  501 -0.00000000000E+00  0.00000000000E+00  0.10277095104E+04  0.10277095104E+04  0.00000000000E+00 0. -1.
          2   -1    0    0  501    0  0.00000000000E+00 -0.00000000000E+00 -0.29250821249E+04  0.29250821249E+04  0.00000000000E+00 0.  1.
    2000013    1    1    2    0    0 -0.10262750648E+04  0.89786057288E+03 -0.38533586851E+03  0.17059829567E+04  0.95000000000E+03 0.  0.
   -2000013    1    1    2    0    0  0.10262750648E+04 -0.89786057288E+03 -0.15120367460E+04  0.22468086786E+04  0.95000000000E+03 0.  0.
<mgrwt>
<rscale>  0 0.34676417E+04</rscale>
<asrwt>0</asrwt>
<pdfrwt beam="2">  1        2 0.45001263E+00 0.34676417E+04</pdfrwt>
<pdfrwt beam="1">  1       -2 0.15810916E+00 0.34676417E+04</pdfrwt>
<totfact> 0.41530712E-01</totfact>
</mgrwt>
</event>
<event>
 4    1  0.2018023E-008  0.2472297E+04  0.7816531E-02  0.8412922E-01
         -2   -1    0    0    0  501 -0.00000000000E+00  0.00000000000E+00  0.73857447837E+03  0.73857447837E+03  0.00000000000E+00 0. -1.
          2   -1    0    0  501    0  0.00000000000E+00 -0.00000000000E+00 -0.20689360864E+04  0.20689360864E+04  0.00000000000E+00 0.  1.
    2000013    1    1    2    0    0  0.42713411885E+02 -0.77546088988E+03 -0.83513760843E+03  0.14842906900E+04  0.95000000000E+03 0.  0.
   -2000013    1    1    2    0    0 -0.42713411885E+02  0.77546088988E+03 -0.49522399959E+03  0.13232198748E+04  0.95000000000E+03 0.  0.
<mgrwt>
<rscale>  0 0.24722972E+04</rscale>
<asrwt>0</asrwt>
<pdfrwt beam="2">  1        2 0.31829786E+00 0.24722972E+04</pdfrwt>
<pdfrwt beam="1">  1       -2 0.11362684E+00 0.24722972E+04</pdfrwt>
<totfact> 0.33191749E+00</totfact>
</mgrwt>
</event>
<event>
 4    1  0.2018023E-008  0.2684341E+04  0.7816531E-02  0.8340104E-01
          2   -1    0    0  501    0  0.00000000000E+00  0.00000000000E+00  0.27118894821E+04  0.27118894821E+04  0.00000000000E+00 0.  1.
         -2   -1    0    0    0  501 -0.00000000000E+00 -0.00000000000E+00 -0.66426826292E+03  0.66426826292E+03  0.00000000000E+00 0. -1.
    2000013    1    1    2    0    0  0.63320241133E+03  0.63154697637E+03  0.14197941294E+04  0.19282407129E+04  0.95000000000E+03 0.  0.
   -2000013    1    1    2    0    0 -0.63320241133E+03 -0.63154697637E+03  0.62782708971E+03  0.14479170320E+04  0.95000000000E+03 0.  0.
<mgrwt>
<rscale>  0 0.26843413E+04</rscale>
<asrwt>0</asrwt>
<pdfrwt beam="1">  1        2 0.41721376E+00 0.26843413E+04</pdfrwt>
<pdfrwt beam="2">  1       -2 0.10219512E+00 0.26843413E+04</pdfrwt>
<totfact> 0.17994422E+00</totfact>
</mgrwt>
</event>
<event>
 4    1  0.2018023E-008  0.2055417E+04  0.7816531E-02  0.8581141E-01
         -2   -1    0    0    0  501 -0.00000000000E+00  0.00000000000E+00  0.93563080153E+03  0.93563080153E+03  0.00000000000E+00 0. -1.
          2   -1    0    0  501    0  0.00000000000E+00 -0.00000000000E+00 -0.11288474498E+04  0.11288474498E+04  0.00000000000E+00 0.  1.
    2000013    1    1    2    0    0  0.71960383094E+02 -0.26632045418E+03  0.18315069599E+03  0.10060561905E+04  0.95000000000E+03 0.  0.
   -2000013    1    1    2    0    0 -0.71960383094E+02  0.26632045418E+03 -0.37636734430E+03  0.10584220609E+04  0.95000000000E+03 0.  0.
<mgrwt>
<rscale>  0 0.20554167E+04</rscale>
<asrwt>0</asrwt>
<pdfrwt beam="2">  1        2 0.17366884E+00 0.20554167E+04</pdfrwt>
<pdfrwt beam="1">  1       -2 0.14394320E+00 0.20554167E+04</pdfrwt>
<totfact> 0.64616479E+00</totfact>
</mgrwt>
</event>
<event>
 4    1  0.2018023E-008  0.2357278E+04  0.7816531E-02  0.8455673E-01
          2   -1    0    0  501    0  0.00000000000E+00  0.00000000000E+00  0.30186171815E+04  0.30186171815E+04  0.00000000000E+00 0. -1.
         -2   -1    0    0    0  501 -0.00000000000E+00 -0.00000000000E+00 -0.46020731915E+03  0.46020731915E+03  0.00000000000E+00 0.  1.
    2000013    1    1    2    0    0  0.50976738209E+03 -0.46434971032E+03  0.14354306541E+04  0.18543043440E+04  0.95000000000E+03 0.  0.
   -2000013    1    1    2    0    0 -0.50976738209E+03  0.46434971032E+03  0.11229792083E+04  0.16245201567E+04  0.95000000000E+03 0.  0.
<mgrwt>
<rscale>  0 0.23572779E+04</rscale>
<asrwt>0</asrwt>
<pdfrwt beam="1">  1        2 0.46440263E+00 0.23572779E+04</pdfrwt>
<pdfrwt beam="2">  1       -2 0.70801128E-01 0.23572779E+04</pdfrwt>
<totfact> 0.27749139E+00</totfact>
</mgrwt>
</event>
<event>
 4    1  0.2018023E-008  0.1923887E+04  0.7816531E-02  0.8643057E-01
         -2   -1    0    0    0  501 -0.00000000000E+00  0.00000000000E+00  0.57368975174E+03  0.57368975174E+03  0.00000000000E+00 0. -1.
          2   -1    0    0  501    0  0.00000000000E+00 -0.00000000000E+00 -0.16129542518E+04  0.16129542518E+04  0.00000000000E+00 0.  1.
    2000013    1    1    2    0    0 -0.11693275834E+03 -0.60451256766E+02 -0.60398197086E+03  0.11334115958E+04  0.95000000000E+03 0.  0.
   -2000013    1    1    2    0    0  0.11693275834E+03  0.60451256766E+02 -0.43528252917E+03  0.10532324077E+04  0.95000000000E+03 0.  0.
<mgrwt>
<rscale>  0 0.19238870E+04</rscale>
<asrwt>0</asrwt>
<pdfrwt beam="2">  1        2 0.24814680E+00 0.19238870E+04</pdfrwt>
<pdfrwt beam="1">  1       -2 0.88259964E-01 0.19238870E+04</pdfrwt>
<totfact> 0.11332952E+01</totfact>
</mgrwt>
</event>
<event>
 4    1  0.2018023E-008  0.2563642E+04  0.7816531E-02  0.8380657E-01
         -2   -1    0    0    0  501 -0.00000000000E+00  0.00000000000E+00  0.85566054929E+03  0.85566054929E+03  0.00000000000E+00 0. -1.
          2   -1    0    0  501    0  0.00000000000E+00 -0.00000000000E+00 -0.19202299466E+04  0.19202299466E+04  0.00000000000E+00 0.  1.
    2000013    1    1    2    0    0  0.74830190702E+03  0.34042540424E+03 -0.80774789371E+03  0.14935869107E+04  0.95000000000E+03 0.  0.
   -2000013    1    1    2    0    0 -0.74830190702E+03 -0.34042540424E+03 -0.25682150355E+03  0.12823035852E+04  0.95000000000E+03 0.  0.
<mgrwt>
<rscale>  0 0.25636419E+04</rscale>
<asrwt>0</asrwt>
<pdfrwt beam="2">  1        2 0.29541999E+00 0.25636419E+04</pdfrwt>
<pdfrwt beam="1">  1       -2 0.13164009E+00 0.25636419E+04</pdfrwt>
<totfact> 0.27620738E+00</totfact>
</mgrwt>
</event>
<event>
 4    1  0.2018023E-008  0.2566556E+04  0.7816531E-02  0.8379651E-01
         -1   -1    0    0    0  501 -0.00000000000E+00  0.00000000000E+00  0.84205219477E+03  0.84205219477E+03  0.00000000000E+00 0.  1.
          1   -1    0    0  501    0  0.00000000000E+00 -0.00000000000E+00 -0.19557016774E+04  0.19557016774E+04  0.00000000000E+00 0. -1.
    2000013    1    1    2    0    0 -0.79473972716E+03 -0.28272795410E+03 -0.35953348331E+03  0.13203449002E+04  0.95000000000E+03 0.  0.
   -2000013    1    1    2    0    0  0.79473972716E+03  0.28272795410E+03 -0.75411599932E+03  0.14774089719E+04  0.95000000000E+03 0.  0.
<mgrwt>
<rscale>  0 0.25665564E+04</rscale>
<asrwt>0</asrwt>
<pdfrwt beam="2">  1        1 0.30087718E+00 0.25665564E+04</pdfrwt>
<pdfrwt beam="1">  1       -1 0.12954649E+00 0.25665564E+04</pdfrwt>
<totfact> 0.14431055E+00</totfact>
</mgrwt>
</event>
<event>
 4    1  0.2018023E-008  0.2151549E+04  0.7816531E-02  0.8538869E-01
          2   -1    0    0  501    0  0.00000000000E+00  0.00000000000E+00  0.80931197602E+03  0.80931197602E+03  0.00000000000E+00 0.  1.
         -2   -1    0    0    0  501 -0.00000000000E+00 -0.00000000000E+00 -0.14299691584E+04  0.14299691584E+04  0.00000000000E+00 0. -1.
    2000013    1    1    2    0    0  0.44119501356E+03  0.15481079327E+03 -0.50827244801E+03  0.11745042797E+04  0.95000000000E+03 0.  0.
   -2000013    1    1    2    0    0 -0.44119501356E+03 -0.15481079327E+03 -0.11238473434E+03  0.10647768547E+04  0.95000000000E+03 0.  0.
<mgrwt>
<rscale>  0 0.21515494E+04</rscale>
<asrwt>0</asrwt>
<pdfrwt beam="1">  1        2 0.12450954E+00 0.21515494E+04</pdfrwt>
<pdfrwt beam="2">  1       -2 0.21999525E+00 0.21515494E+04</pdfrwt>
<totfact> 0.30752575E+00</totfact>
</mgrwt>
</event>
<event>
 4    1  0.2018023E-008  0.2290312E+04  0.7816531E-02  0.8481751E-01
         -2   -1    0    0    0  501 -0.00000000000E+00  0.00000000000E+00  0.64031500576E+03  0.64031500576E+03  0.00000000000E+00 0. -1.
          2   -1    0    0  501    0  0.00000000000E+00 -0.00000000000E+00 -0.20480268108E+04  0.20480268108E+04  0.00000000000E+00 0.  1.
    2000013    1    1    2    0    0  0.52074557585E+03 -0.13421015043E+03 -0.11099493546E+04  0.15568159458E+04  0.95000000000E+03 0.  0.
   -2000013    1    1    2    0    0 -0.52074557585E+03  0.13421015043E+03 -0.29776245036E+03  0.11315258707E+04  0.95000000000E+03 0.  0.
<mgrwt>
<rscale>  0 0.22903120E+04</rscale>
<asrwt>0</asrwt>
<pdfrwt beam="2">  1        2 0.31508105E+00 0.22903120E+04</pdfrwt>
<pdfrwt beam="1">  1       -2 0.98510000E-01 0.22903120E+04</pdfrwt>
<totfact> 0.48778347E+00</totfact>
</mgrwt>
</event>
<event>
 4    1  0.2018023E-008  0.2463798E+04  0.7816531E-02  0.8415997E-01
          1   -1    0    0  501    0  0.00000000000E+00  0.00000000000E+00  0.12368005489E+04  0.12368005489E+04  0.00000000000E+00 0.  1.
         -1   -1    0    0    0  501 -0.00000000000E+00 -0.00000000000E+00 -0.12270170780E+04  0.12270170780E+04  0.00000000000E+00 0. -1.
    2000013    1    1    2    0    0  0.44519987077E+03  0.61404382735E+03 -0.19466596712E+03  0.12311163981E+04  0.95000000000E+03 0.  0.
   -2000013    1    1    2    0    0 -0.44519987077E+03 -0.61404382735E+03  0.20444943808E+03  0.12327012288E+04  0.95000000000E+03 0.  0.
<mgrwt>
<rscale>  0 0.24637982E+04</rscale>
<asrwt>0</asrwt>
<pdfrwt beam="1">  1        1 0.19027701E+00 0.24637982E+04</pdfrwt>
<pdfrwt beam="2">  1       -1 0.18877186E+00 0.24637982E+04</pdfrwt>
<totfact> 0.16137688E+00</totfact>
</mgrwt>
</event>
<event>
 4    1  0.2018023E-008  0.3023798E+04  0.7816531E-02  0.8236968E-01
          2   -1    0    0  501    0  0.00000000000E+00  0.00000000000E+00  0.11507256326E+04  0.11507256326E+04  0.00000000000E+00 0.  1.
         -2   -1    0    0    0  501 -0.00000000000E+00 -0.00000000000E+00 -0.19864319499E+04  0.19864319499E+04  0.00000000000E+00 0. -1.
    2000013    1    1    2    0    0 -0.15106703980E+03  0.11509276926E+04 -0.61438100160E+03  0.16209317750E+04  0.95000000000E+03 0.  0.
   -2000013    1    1    2    0    0  0.15106703980E+03 -0.11509276926E+04 -0.22132531572E+03  0.15162258075E+04  0.95000000000E+03 0.  0.
<mgrwt>
<rscale>  0 0.30237977E+04</rscale>
<asrwt>0</asrwt>
<pdfrwt beam="1">  1        2 0.17703471E+00 0.30237977E+04</pdfrwt>
<pdfrwt beam="2">  1       -2 0.30560492E+00 0.30237977E+04</pdfrwt>
<totfact> 0.50879133E-01</totfact>
</mgrwt>
</event>
<event>
 4    1  0.2018023E-008  0.2610695E+04  0.7816531E-02  0.8364577E-01
          2   -1    0    0  501    0  0.00000000000E+00  0.00000000000E+00  0.12506726512E+04  0.12506726512E+04  0.00000000000E+00 0.  1.
         -2   -1    0    0    0  501 -0.00000000000E+00 -0.00000000000E+00 -0.13624124873E+04  0.13624124873E+04  0.00000000000E+00 0. -1.
    2000013    1    1    2    0    0 -0.66582236443E+03  0.79857431248E+02 -0.64948574873E+03  0.13319265626E+04  0.95000000000E+03 0.  0.
   -2000013    1    1    2    0    0  0.66582236443E+03 -0.79857431248E+02  0.53774591259E+03  0.12811585760E+04  0.95000000000E+03 0.  0.
<mgrwt>
<rscale>  0 0.26106950E+04</rscale>
<asrwt>0</asrwt>
<pdfrwt beam="1">  1        2 0.19241118E+00 0.26106950E+04</pdfrwt>
<pdfrwt beam="2">  1       -2 0.20960192E+00 0.26106950E+04</pdfrwt>
<totfact> 0.17989682E+00</totfact>
</mgrwt>
</event>
<event>
 4    1  0.2018023E-008  0.2836115E+04  0.7816531E-02  0.8292143E-01
          2   -1    0    0  501    0  0.00000000000E+00  0.00000000000E+00  0.21120790269E+04  0.21120790269E+04  0.00000000000E+00 0.  1.
         -2   -1    0    0    0  501 -0.00000000000E+00 -0.00000000000E+00 -0.95208898910E+03  0.95208898910E+03  0.00000000000E+00 0. -1.
    2000013    1    1    2    0    0  0.76783666418E+03 -0.23599033547E+03 -0.15525782923E+03  0.12537422282E+04  0.95000000000E+03 0.  0.
   -2000013    1    1    2    0    0 -0.76783666418E+03  0.23599033547E+03  0.13152478670E+04  0.18104257877E+04  0.95000000000E+03 0.  0.
<mgrwt>
<rscale>  0 0.28361151E+04</rscale>
<asrwt>0</asrwt>
<pdfrwt beam="1">  1        2 0.32493523E+00 0.28361151E+04</pdfrwt>
<pdfrwt beam="2">  1       -2 0.14647523E+00 0.28361151E+04</pdfrwt>
<totfact> 0.16014454E+00</totfact>
</mgrwt>
</event>
<event>
 4    1  0.2018023E-008  0.2853382E+04  0.7816531E-02  0.8286884E-01
         -2   -1    0    0    0  501 -0.00000000000E+00  0.00000000000E+00  0.16211333158E+04  0.16211333158E+04  0.00000000000E+00 0. -1.
          2   -1    0    0  501    0  0.00000000000E+00 -0.00000000000E+00 -0.12555705467E+04  0.12555705467E+04  0.00000000000E+00 0.  1.
    2000013    1    1    2    0    0  0.42261272285E+03 -0.93315904984E+03  0.47421137194E+03  0.14753859668E+04  0.95000000000E+03 0.  0.
   -2000013    1    1    2    0    0 -0.42261272285E+03  0.93315904984E+03 -0.10864860288E+03  0.14013178957E+04  0.95000000000E+03 0.  0.
<mgrwt>
<rscale>  0 0.28533820E+04</rscale>
<asrwt>0</asrwt>
<pdfrwt beam="2">  1        2 0.19316470E+00 0.28533820E+04</pdfrwt>
<pdfrwt beam="1">  1       -2 0.24940512E+00 0.28533820E+04</pdfrwt>
<totfact> 0.98558935E-01</totfact>
</mgrwt>
</event>
<event>
 4    1  0.2018023E-008  0.3244950E+04  0.7816531E-02  0.8177046E-01
          2   -1    0    0  501    0  0.00000000000E+00  0.00000000000E+00  0.98656206738E+03  0.98656206738E+03  0.00000000000E+00 0. -1.
         -2   -1    0    0    0  501 -0.00000000000E+00 -0.00000000000E+00 -0.26682809081E+04  0.26682809081E+04  0.00000000000E+00 0.  1.
    2000013    1    1    2    0    0 -0.12697519476E+04  0.26386900751E+02 -0.12260507937E+04  0.20046612746E+04  0.95000000000E+03 0.  0.
   -2000013    1    1    2    0    0  0.12697519476E+04 -0.26386900751E+02 -0.45566804698E+03  0.16501817009E+04  0.95000000000E+03 0.  0.
<mgrwt>
<rscale>  0 0.32449498E+04</rscale>
<asrwt>0</asrwt>
<pdfrwt beam="1">  1        2 0.15177878E+00 0.32449498E+04</pdfrwt>
<pdfrwt beam="2">  1       -2 0.41050475E+00 0.32449498E+04</pdfrwt>
<totfact> 0.13639482E-01</totfact>
</mgrwt>
</event>
<event>
 4    1  0.2018023E-008  0.1992858E+04  0.7816531E-02  0.8609967E-01
          2   -1    0    0  501    0  0.00000000000E+00  0.00000000000E+00  0.14920052155E+04  0.14920052155E+04  0.00000000000E+00 0.  1.
         -2   -1    0    0    0  501 -0.00000000000E+00 -0.00000000000E+00 -0.66546072212E+03  0.66546072212E+03  0.00000000000E+00 0. -1.
    2000013    1    1    2    0    0  0.15991249839E+03 -0.23450006987E+03  0.52049096152E+03  0.11198094172E+04  0.95000000000E+03 0.  0.
   -2000013    1    1    2    0    0 -0.15991249839E+03  0.23450006987E+03  0.30605353184E+03  0.10376565204E+04  0.95000000000E+03 0.  0.
<mgrwt>
<rscale>  0 0.19928581E+04</rscale>
<asrwt>0</asrwt>
<pdfrwt beam="1">  1        2 0.22953926E+00 0.19928581E+04</pdfrwt>
<pdfrwt beam="2">  1       -2 0.10237857E+00 0.19928581E+04</pdfrwt>
<totfact> 0.93134638E+00</totfact>
</mgrwt>
</event>
<event>
 4    1  0.2018023E-008  0.2168886E+04  0.7816531E-02  0.8531491E-01
          2   -1    0    0  501    0  0.00000000000E+00  0.00000000000E+00  0.16911950464E+04  0.16911950464E+04  0.00000000000E+00 0.  1.
         -2   -1    0    0    0  501 -0.00000000000E+00 -0.00000000000E+00 -0.69537635040E+03  0.69537635040E+03  0.00000000000E+00 0. -1.
    2000013    1    1    2    0    0 -0.27022421890E+03  0.44663197808E+03  0.46283909301E+03  0.11786523144E+04  0.95000000000E+03 0.  0.
   -2000013    1    1    2    0    0  0.27022421890E+03 -0.44663197808E+03  0.53297960299E+03  0.12079190824E+04  0.95000000000E+03 0.  0.
<mgrwt>
<rscale>  0 0.21688864E+04</rscale>
<asrwt>0</asrwt>
<pdfrwt beam="1">  1        2 0.26018385E+00 0.21688864E+04</pdfrwt>
<pdfrwt beam="2">  1       -2 0.10698098E+00 0.21688864E+04</pdfrwt>
<totfact> 0.63876040E+00</totfact>
</mgrwt>
</event>
<event>
 4    1  0.2018023E-008  0.2661225E+04  0.7816531E-02  0.8347697E-01
          2   -1    0    0  501    0  0.00000000000E+00  0.00000000000E+00  0.39433635003E+04  0.39433635003E+04  0.00000000000E+00 0.  1.
         -2   -1    0    0    0  501 -0.00000000000E+00 -0.00000000000E+00 -0.44898984626E+03  0.44898984626E+03  0.00000000000E+00 0. -1.
    2000013    1    1    2    0    0 -0.92551541857E+03 -0.38220389237E+02  0.15822145240E+04  0.20649315699E+04  0.95000000000E+03 0.  0.
   -2000013    1    1    2    0    0  0.92551541857E+03  0.38220389237E+02  0.19121591300E+04  0.23274217767E+04  0.95000000000E+03 0.  0.
<mgrwt>
<rscale>  0 0.26612254E+04</rscale>
<asrwt>0</asrwt>
<pdfrwt beam="1">  1        2 0.60667128E+00 0.26612254E+04</pdfrwt>
<pdfrwt beam="2">  1       -2 0.69075364E-01 0.26612254E+04</pdfrwt>
<totfact> 0.64084586E-01</totfact>
</mgrwt>
</event>
<event>
 4    1  0.2018023E-008  0.2380280E+04  0.7816531E-02  0.8446923E-01
          2   -1    0    0  501    0  0.00000000000E+00  0.00000000000E+00  0.16273328380E+04  0.16273328380E+04  0.00000000000E+00 0.  1.
         -2   -1    0    0    0  501 -0.00000000000E+00 -0.00000000000E+00 -0.87040174429E+03  0.87040174429E+03  0.00000000000E+00 0. -1.
    2000013    1    1    2    0    0 -0.67068572506E+03  0.16780694742E+03  0.17949132070E+03  0.11885687391E+04  0.95000000000E+03 0.  0.
   -2000013    1    1    2    0    0  0.67068572506E+03 -0.16780694742E+03  0.57743977297E+03  0.13091658431E+04  0.95000000000E+03 0.  0.
<mgrwt>
<rscale>  0 0.23802801E+04</rscale>
<asrwt>0</asrwt>
<pdfrwt beam="1">  1        2 0.25035890E+00 0.23802801E+04</pdfrwt>
<pdfrwt beam="2">  1       -2 0.13390796E+00 0.23802801E+04</pdfrwt>
<totfact> 0.39063952E+00</totfact>
</mgrwt>
</event>
<event>
 4    1  0.2018023E-008  0.2415979E+04  0.7816531E-02  0.8433545E-01
         -2   -1    0    0    0  501 -0.00000000000E+00  0.00000000000E+00  0.41016246299E+03  0.41016246299E+03  0.00000000000E+00 0. -1.
          2   -1    0    0  501    0  0.00000000000E+00 -0.00000000000E+00 -0.35577085635E+04  0.35577085635E+04  0.00000000000E+00 0.  1.
    2000013    1    1    2    0    0  0.39356160459E+03  0.45400233459E+03 -0.84717752120E+03  0.14075576751E+04  0.95000000000E+03 0.  0.
   -2000013    1    1    2    0    0 -0.39356160459E+03 -0.45400233459E+03 -0.23003685793E+04  0.25603133514E+04  0.95000000000E+03 0.  0.
<mgrwt>
<rscale>  0 0.24159789E+04</rscale>
<asrwt>0</asrwt>
<pdfrwt beam="2">  1        2 0.54733977E+00 0.24159789E+04</pdfrwt>
<pdfrwt beam="1">  1       -2 0.63101919E-01 0.24159789E+04</pdfrwt>
<totfact> 0.15497268E+00</totfact>
</mgrwt>
</event>
<event>
 4    1  0.2018023E-008  0.2147322E+04  0.7816531E-02  0.8540679E-01
         -3   -1    0    0    0  501 -0.00000000000E+00  0.00000000000E+00  0.15209391960E+04  0.15209391960E+04  0.00000000000E+00 0. -1.
          3   -1    0    0  501    0  0.00000000000E+00 -0.00000000000E+00 -0.75791843103E+03  0.75791843103E+03  0.00000000000E+00 0.  1.
    2000013    1    1    2    0    0  0.46842637022E+03 -0.78001191566E+02  0.54843615163E+03  0.11953198997E+04  0.95000000000E+03 0.  0.
   -2000013    1    1    2    0    0 -0.46842637022E+03  0.78001191566E+02  0.21458461329E+03  0.10835377273E+04  0.95000000000E+03 0.  0.
<mgrwt>
<rscale>  0 0.21473219E+04</rscale>
<asrwt>0</asrwt>
<pdfrwt beam="2">  1        3 0.11660284E+00 0.21473219E+04</pdfrwt>
<pdfrwt beam="1">  1       -3 0.23399064E+00 0.21473219E+04</pdfrwt>
<totfact> 0.13210237E-01</totfact>
</mgrwt>
</event>
<event>
 4    1  0.2018023E-008  0.2329829E+04  0.7816531E-02  0.8466252E-01
         -2   -1    0    0    0  501 -0.00000000000E+00  0.00000000000E+00  0.61443856437E+03  0.61443856437E+03  0.00000000000E+00 0. -1.
          2   -1    0    0  501    0  0.00000000000E+00 -0.00000000000E+00 -0.22085616478E+04  0.22085616478E+04  0.00000000000E+00 0.  1.
    2000013    1    1    2    0    0 -0.38962247886E+03 -0.34972317936E+03 -0.13117227070E+04  0.17021246835E+04  0.95000000000E+03 0.  0.
   -2000013    1    1    2    0    0  0.38962247886E+03  0.34972317936E+03 -0.28240037651E+03  0.11208755287E+04  0.95000000000E+03 0.  0.
<mgrwt>
<rscale>  0 0.23298287E+04</rscale>
<asrwt>0</asrwt>
<pdfrwt beam="2">  1        2 0.33977871E+00 0.23298287E+04</pdfrwt>
<pdfrwt beam="1">  1       -2 0.94529010E-01 0.23298287E+04</pdfrwt>
<totfact> 0.43543406E+00</totfact>
</mgrwt>
</event>
<event>
 4    1  0.2018023E-008  0.2162047E+04  0.7816531E-02  0.8534393E-01
         -2   -1    0    0    0  501 -0.00000000000E+00  0.00000000000E+00  0.84655357521E+03  0.84655357521E+03  0.00000000000E+00 0. -1.
          2   -1    0    0  501    0  0.00000000000E+00 -0.00000000000E+00 -0.13804340278E+04  0.13804340278E+04  0.00000000000E+00 0.  1.
    2000013    1    1    2    0    0  0.12003435632E+02  0.46942271408E+03 -0.48691904109E+03  0.11662297885E+04  0.95000000000E+03 0.  0.
   -2000013    1    1    2    0    0 -0.12003435632E+02 -0.46942271408E+03 -0.46961411528E+02  0.10607578146E+04  0.95000000000E+03 0.  0.
<mgrwt>
<rscale>  0 0.21620466E+04</rscale>
<asrwt>0</asrwt>
<pdfrwt beam="2">  1        2 0.21237446E+00 0.21620466E+04</pdfrwt>
<pdfrwt beam="1">  1       -2 0.13023901E+00 0.21620466E+04</pdfrwt>
<totfact> 0.58868456E+00</totfact>
</mgrwt>
</event>
<event>
 4    1  0.2018023E-008  0.2805396E+04  0.7816531E-02  0.8301595E-01
          2   -1    0    0  501    0  0.00000000000E+00  0.00000000000E+00  0.10499878537E+04  0.10499878537E+04  0.00000000000E+00 0. -1.
         -2   -1    0    0    0  501 -0.00000000000E+00 -0.00000000000E+00 -0.18738895333E+04  0.18738895333E+04  0.00000000000E+00 0.  1.
    2000013    1    1    2    0    0 -0.44003617433E+02 -0.10225944787E+04 -0.54953143842E+03  0.15007066962E+04  0.95000000000E+03 0.  0.
   -2000013    1    1    2    0    0  0.44003617433E+02  0.10225944787E+04 -0.27437024115E+03  0.14231706909E+04  0.95000000000E+03 0.  0.
<mgrwt>
<rscale>  0 0.28053957E+04</rscale>
<asrwt>0</asrwt>
<pdfrwt beam="1">  1        2 0.16153659E+00 0.28053957E+04</pdfrwt>
<pdfrwt beam="2">  1       -2 0.28829069E+00 0.28053957E+04</pdfrwt>
<totfact> 0.76309275E-01</totfact>
</mgrwt>
</event>
<event>
 4    1  0.2018023E-008  0.2515100E+04  0.7816531E-02  0.8397626E-01
          2   -1    0    0  501    0  0.00000000000E+00  0.00000000000E+00  0.14117999148E+04  0.14117999148E+04  0.00000000000E+00 0.  1.
         -2   -1    0    0    0  501 -0.00000000000E+00 -0.00000000000E+00 -0.11201533959E+04  0.11201533959E+04  0.00000000000E+00 0. -1.
    2000013    1    1    2    0    0 -0.13627457175E+03 -0.81001977595E+03  0.21129497908E+03  0.12735181053E+04  0.95000000000E+03 0.  0.
   -2000013    1    1    2    0    0  0.13627457175E+03  0.81001977595E+03  0.80351539787E+02  0.12584352054E+04  0.95000000000E+03 0.  0.
<mgrwt>
<rscale>  0 0.25151004E+04</rscale>
<asrwt>0</asrwt>
<pdfrwt beam="1">  1        2 0.21719999E+00 0.25151004E+04</pdfrwt>
<pdfrwt beam="2">  1       -2 0.17233129E+00 0.25151004E+04</pdfrwt>
<totfact> 0.26041883E+00</totfact>
</mgrwt>
</event>
<event>
 4    1  0.2018023E-008  0.2449684E+04  0.7816531E-02  0.8421133E-01
         -2   -1    0    0    0  501 -0.00000000000E+00  0.00000000000E+00  0.95555570460E+03  0.95555570460E+03  0.00000000000E+00 0. -1.
          2   -1    0    0  501    0  0.00000000000E+00 -0.00000000000E+00 -0.15700162185E+04  0.15700162185E+04  0.00000000000E+00 0.  1.
    2000013    1    1    2    0    0  0.50372620283E+03  0.27880188277E+03  0.22476609077E+03  0.11333535957E+04  0.95000000000E+03 0.  0.
   -2000013    1    1    2    0    0 -0.50372620283E+03 -0.27880188277E+03 -0.83922660468E+03  0.13922183274E+04  0.95000000000E+03 0.  0.
<mgrwt>
<rscale>  0 0.24496840E+04</rscale>
<asrwt>0</asrwt>
<pdfrwt beam="2">  1        2 0.24154095E+00 0.24496840E+04</pdfrwt>
<pdfrwt beam="1">  1       -2 0.14700857E+00 0.24496840E+04</pdfrwt>
<totfact> 0.32813364E+00</totfact>
</mgrwt>
</event>
<event>
 4    1  0.2018023E-008  0.2473707E+04  0.7816531E-02  0.8412413E-01
         -2   -1    0    0    0  501 -0.00000000000E+00  0.00000000000E+00  0.12141656842E+04  0.12141656842E+04  0.00000000000E+00 0. -1.
          2   -1    0    0  501    0  0.00000000000E+00 -0.00000000000E+00 -0.12599648191E+04  0.12599648191E+04  0.00000000000E+00 0.  1.
    2000013    1    1    2    0    0  0.62986822318E+03 -0.38296141632E+03 -0.31262596498E+03  0.12424284361E+04  0.95000000000E+03 0.  0.
   -2000013    1    1    2    0    0 -0.62986822318E+03  0.38296141632E+03  0.26682683015E+03  0.12317020672E+04  0.95000000000E+03 0.  0.
<mgrwt>
<rscale>  0 0.24737066E+04</rscale>
<asrwt>0</asrwt>
<pdfrwt beam="2">  1        2 0.19384074E+00 0.24737066E+04</pdfrwt>
<pdfrwt beam="1">  1       -2 0.18679472E+00 0.24737066E+04</pdfrwt>
<totfact> 0.25410128E+00</totfact>
</mgrwt>
</event>
<event>
 4    1  0.2018023E-008  0.2169487E+04  0.7816531E-02  0.8531237E-01
         -2   -1    0    0    0  501 -0.00000000000E+00  0.00000000000E+00  0.33324910173E+03  0.33324910173E+03  0.00000000000E+00 0. -1.
          2   -1    0    0  501    0  0.00000000000E+00 -0.00000000000E+00 -0.35308981800E+04  0.35308981800E+04  0.00000000000E+00 0.  1.
    2000013    1    1    2    0    0  0.39154313330E+03  0.37385150502E+01 -0.97964374409E+03  0.14196907646E+04  0.95000000000E+03 0.  0.
   -2000013    1    1    2    0    0 -0.39154313330E+03 -0.37385150502E+01 -0.22180053342E+04  0.24444565172E+04  0.95000000000E+03 0.  0.
<mgrwt>
<rscale>  0 0.21694872E+04</rscale>
<asrwt>0</asrwt>
<pdfrwt beam="2">  1        2 0.54321516E+00 0.21694872E+04</pdfrwt>
<pdfrwt beam="1">  1       -2 0.51269087E-01 0.21694872E+04</pdfrwt>
<totfact> 0.25575537E+00</totfact>
</mgrwt>
</event>
<event>
 4    1  0.2018023E-008  0.3157686E+04  0.7816531E-02  0.8200082E-01
          2   -1    0    0  501    0  0.00000000000E+00  0.00000000000E+00  0.47655138935E+03  0.47655138935E+03  0.00000000000E+00 0.  1.
         -2   -1    0    0    0  501 -0.00000000000E+00 -0.00000000000E+00 -0.52308003563E+04  0.52308003563E+04  0.00000000000E+00 0. -1.
    2000013    1    1    2    0    0 -0.70839344582E+03  0.10335775543E+04 -0.21206111720E+04  0.26399991624E+04  0.95000000000E+03 0.  0.
   -2000013    1    1    2    0    0  0.70839344582E+03 -0.10335775543E+04 -0.26336377950E+04  0.30673525833E+04  0.95000000000E+03 0.  0.
<mgrwt>
<rscale>  0 0.31576860E+04</rscale>
<asrwt>0</asrwt>
<pdfrwt beam="1">  1        2 0.73315602E-01 0.31576860E+04</pdfrwt>
<pdfrwt beam="2">  1       -2 0.80473847E+00 0.31576860E+04</pdfrwt>
<totfact> 0.40284995E-03</totfact>
</mgrwt>
</event>
<event>
 4    1  0.2018023E-008  0.2154339E+04  0.7816531E-02  0.8537677E-01
         -2   -1    0    0    0  501 -0.00000000000E+00  0.00000000000E+00  0.50643793416E+03  0.50643793416E+03  0.00000000000E+00 0. -1.
          2   -1    0    0  501    0  0.00000000000E+00 -0.00000000000E+00 -0.22910892005E+04  0.22910892005E+04  0.00000000000E+00 0.  1.
    2000013    1    1    2    0    0  0.35693068367E+03 -0.19266797471E+03 -0.49573674059E+03  0.11457641020E+04  0.95000000000E+03 0.  0.
   -2000013    1    1    2    0    0 -0.35693068367E+03  0.19266797471E+03 -0.12889145257E+04  0.16517630326E+04  0.95000000000E+03 0.  0.
<mgrwt>
<rscale>  0 0.21543393E+04</rscale>
<asrwt>0</asrwt>
<pdfrwt beam="2">  1        2 0.35247525E+00 0.21543393E+04</pdfrwt>
<pdfrwt beam="1">  1       -2 0.77913530E-01 0.21543393E+04</pdfrwt>
<totfact> 0.61721373E+00</totfact>
</mgrwt>
</event>
<event>
 4    1  0.2018023E-008  0.3218432E+04  0.7816531E-02  0.8183966E-01
          1   -1    0    0  501    0  0.00000000000E+00  0.00000000000E+00  0.26749228577E+04  0.26749228577E+04  0.00000000000E+00 0.  1.
         -1   -1    0    0    0  501 -0.00000000000E+00 -0.00000000000E+00 -0.96809353171E+03  0.96809353171E+03  0.00000000000E+00 0. -1.
    2000013    1    1    2    0    0  0.11793292953E+04  0.53743816345E+03  0.75592363524E+03  0.17758316104E+04  0.95000000000E+03 0.  0.
   -2000013    1    1    2    0    0 -0.11793292953E+04 -0.53743816345E+03  0.95090569078E+03  0.18671847790E+04  0.95000000000E+03 0.  0.
<mgrwt>
<rscale>  0 0.32184316E+04</rscale>
<asrwt>0</asrwt>
<pdfrwt beam="1">  1        1 0.41152659E+00 0.32184316E+04</pdfrwt>
<pdfrwt beam="2">  1       -1 0.14893747E+00 0.32184316E+04</pdfrwt>
<totfact> 0.30353030E-01</totfact>
</mgrwt>
</event>
<event>
 4    1  0.2018023E-008  0.2045246E+04  0.7816531E-02  0.8585754E-01
         -2   -1    0    0    0  501 -0.00000000000E+00  0.00000000000E+00  0.99280007622E+03  0.99280007622E+03  0.00000000000E+00 0. -1.
          2   -1    0    0  501    0  0.00000000000E+00 -0.00000000000E+00 -0.10533418071E+04  0.10533418071E+04  0.00000000000E+00 0.  1.
    2000013    1    1    2    0    0  0.47158384702E+02  0.33993128111E+03  0.12942560970E+03  0.10183458045E+04  0.95000000000E+03 0.  0.
   -2000013    1    1    2    0    0 -0.47158384702E+02 -0.33993128111E+03 -0.18996734058E+03  0.10277960788E+04  0.95000000000E+03 0.  0.
<mgrwt>
<rscale>  0 0.20452460E+04</rscale>
<asrwt>0</asrwt>
<pdfrwt beam="2">  1        2 0.16205259E+00 0.20452460E+04</pdfrwt>
<pdfrwt beam="1">  1       -2 0.15273847E+00 0.20452460E+04</pdfrwt>
<totfact> 0.61567629E+00</totfact>
</mgrwt>
</event>
<event>
 4    1  0.2018023E-008  0.2749694E+04  0.7816531E-02  0.8319059E-01
          2   -1    0    0  501    0  0.00000000000E+00  0.00000000000E+00  0.25909724817E+04  0.25909724817E+04  0.00000000000E+00 0.  1.
         -2   -1    0    0    0  501 -0.00000000000E+00 -0.00000000000E+00 -0.72953480664E+03  0.72953480664E+03  0.00000000000E+00 0. -1.
    2000013    1    1    2    0    0  0.92082738849E+03  0.33933549028E+03  0.74118869817E+03  0.15540052576E+04  0.95000000000E+03 0.  0.
   -2000013    1    1    2    0    0 -0.92082738849E+03 -0.33933549028E+03  0.11202489769E+04  0.17665020307E+04  0.95000000000E+03 0.  0.
<mgrwt>
<rscale>  0 0.27496942E+04</rscale>
<asrwt>0</asrwt>
<pdfrwt beam="1">  1        2 0.39861115E+00 0.27496942E+04</pdfrwt>
<pdfrwt beam="2">  1       -2 0.11223613E+00 0.27496942E+04</pdfrwt>
<totfact> 0.16836530E+00</totfact>
</mgrwt>
</event>
<event>
 4    1  0.2018023E-008  0.2866921E+04  0.7816531E-02  0.8282788E-01
         -2   -1    0    0    0  501 -0.00000000000E+00  0.00000000000E+00  0.97099294938E+03  0.97099294938E+03  0.00000000000E+00 0. -1.
          2   -1    0    0  501    0  0.00000000000E+00 -0.00000000000E+00 -0.21161933329E+04  0.21161933329E+04  0.00000000000E+00 0.  1.
    2000013    1    1    2    0    0 -0.92507113391E+03  0.97987579903E+02 -0.11494340283E+04  0.17575712657E+04  0.95000000000E+03 0.  0.
   -2000013    1    1    2    0    0  0.92507113391E+03 -0.97987579903E+02  0.42336447577E+01  0.13296150166E+04  0.95000000000E+03 0.  0.
<mgrwt>
<rscale>  0 0.28669209E+04</rscale>
<asrwt>0</asrwt>
<pdfrwt beam="2">  1        2 0.32556821E+00 0.28669209E+04</pdfrwt>
<pdfrwt beam="1">  1       -2 0.14938353E+00 0.28669209E+04</pdfrwt>
<totfact> 0.15085128E+00</totfact>
</mgrwt>
</event>
<event>
 4    1  0.2018023E-008  0.2534564E+04  0.7816531E-02  0.8390774E-01
          2   -1    0    0  501    0  0.00000000000E+00  0.00000000000E+00  0.26014538932E+04  0.26014538932E+04  0.00000000000E+00 0.  1.
         -2   -1    0    0    0  501 -0.00000000000E+00 -0.00000000000E+00 -0.61734860690E+03  0.61734860690E+03  0.00000000000E+00 0. -1.
    2000013    1    1    2    0    0 -0.50714539756E+02 -0.81395783641E+03  0.74317680965E+03  0.14559914472E+04  0.95000000000E+03 0.  0.
   -2000013    1    1    2    0    0  0.50714539756E+02  0.81395783641E+03  0.12409284766E+04  0.17628110529E+04  0.95000000000E+03 0.  0.
<mgrwt>
<rscale>  0 0.25345642E+04</rscale>
<asrwt>0</asrwt>
<pdfrwt beam="1">  1        2 0.40022367E+00 0.25345642E+04</pdfrwt>
<pdfrwt beam="2">  1       -2 0.94976710E-01 0.25345642E+04</pdfrwt>
<totfact> 0.25184945E+00</totfact>
</mgrwt>
</event>
<event>
 4    1  0.2018023E-008  0.2347533E+04  0.7816531E-02  0.8459412E-01
         -2   -1    0    0    0  501 -0.00000000000E+00  0.00000000000E+00  0.12203979220E+04  0.12203979220E+04  0.00000000000E+00 0. -1.
          2   -1    0    0  501    0  0.00000000000E+00 -0.00000000000E+00 -0.11289171372E+04  0.11289171372E+04  0.00000000000E+00 0.  1.
    2000013    1    1    2    0    0 -0.52408191132E+03  0.43895920016E+03  0.13458332755E+03  0.11781170151E+04  0.95000000000E+03 0.  0.
   -2000013    1    1    2    0    0  0.52408191132E+03 -0.43895920016E+03 -0.43102542722E+02  0.11711980440E+04  0.95000000000E+03 0.  0.
<mgrwt>
<rscale>  0 0.23475333E+04</rscale>
<asrwt>0</asrwt>
<pdfrwt beam="2">  1        2 0.17367956E+00 0.23475333E+04</pdfrwt>
<pdfrwt beam="1">  1       -2 0.18775353E+00 0.23475333E+04</pdfrwt>
<totfact> 0.30309033E+00</totfact>
</mgrwt>
</event>
<event>
 4    1  0.2018023E-008  0.2647663E+04  0.7816531E-02  0.8352189E-01
          2   -1    0    0  501    0  0.00000000000E+00  0.00000000000E+00  0.17985922233E+04  0.17985922233E+04  0.00000000000E+00 0.  1.
         -2   -1    0    0    0  501 -0.00000000000E+00 -0.00000000000E+00 -0.97438984755E+03  0.97438984755E+03  0.00000000000E+00 0. -1.
    2000013    1    1    2    0    0 -0.21380507269E+03 -0.76870544818E+03 -0.71726851345E+02  0.12426847615E+04  0.95000000000E+03 0.  0.
   -2000013    1    1    2    0    0  0.21380507269E+03  0.76870544818E+03  0.89592922710E+03  0.15302973094E+04  0.95000000000E+03 0.  0.
<mgrwt>
<rscale>  0 0.26476631E+04</rscale>
<asrwt>0</asrwt>
<pdfrwt beam="1">  1        2 0.27670650E+00 0.26476631E+04</pdfrwt>
<pdfrwt beam="2">  1       -2 0.14990613E+00 0.26476631E+04</pdfrwt>
<totfact> 0.22861271E+00</totfact>
</mgrwt>
</event>
<event>
 4    1  0.2018023E-008  0.2184972E+04  0.7816531E-02  0.8524709E-01
         -2   -1    0    0    0  501 -0.00000000000E+00  0.00000000000E+00  0.15344690084E+04  0.15344690084E+04  0.00000000000E+00 0. -1.
          2   -1    0    0  501    0  0.00000000000E+00 -0.00000000000E+00 -0.77781025131E+03  0.77781025131E+03  0.00000000000E+00 0.  1.
    2000013    1    1    2    0    0 -0.49511017026E+03 -0.65625279198E+02  0.59413491254E+03  0.12267587588E+04  0.95000000000E+03 0.  0.
   -2000013    1    1    2    0    0  0.49511017026E+03  0.65625279198E+02  0.16252384460E+03  0.10855205010E+04  0.95000000000E+03 0.  0.
<mgrwt>
<rscale>  0 0.21849721E+04</rscale>
<asrwt>0</asrwt>
<pdfrwt beam="2">  1        2 0.11966312E+00 0.21849721E+04</pdfrwt>
<pdfrwt beam="1">  1       -2 0.23607215E+00 0.21849721E+04</pdfrwt>
<totfact> 0.25630617E+00</totfact>
</mgrwt>
</event>
<event>
 4    1  0.2018023E-008  0.2373235E+04  0.7816531E-02  0.8449592E-01
         -1   -1    0    0    0  501 -0.00000000000E+00  0.00000000000E+00  0.10882579428E+04  0.10882579428E+04  0.00000000000E+00 0. -1.
          1   -1    0    0  501    0  0.00000000000E+00 -0.00000000000E+00 -0.12938674161E+04  0.12938674161E+04  0.00000000000E+00 0.  1.
    2000013    1    1    2    0    0 -0.66990244321E+03  0.23594979428E+03 -0.13639505642E+03  0.11939619761E+04  0.95000000000E+03 0.  0.
   -2000013    1    1    2    0    0  0.66990244321E+03 -0.23594979428E+03 -0.69214416910E+02  0.11881633829E+04  0.95000000000E+03 0.  0.
<mgrwt>
<rscale>  0 0.23732353E+04</rscale>
<asrwt>0</asrwt>
<pdfrwt beam="2">  1        1 0.19905652E+00 0.23732353E+04</pdfrwt>
<pdfrwt beam="1">  1       -1 0.16742430E+00 0.23732353E+04</pdfrwt>
<totfact> 0.21101020E+00</totfact>
</mgrwt>
</event>
<event>
 4    1  0.2018023E-008  0.2147409E+04  0.7816531E-02  0.8540642E-01
         -2   -1    0    0    0  501 -0.00000000000E+00  0.00000000000E+00  0.42007299778E+03  0.42007299778E+03  0.00000000000E+00 0. -1.
          2   -1    0    0  501    0  0.00000000000E+00 -0.00000000000E+00 -0.27443837055E+04  0.27443837055E+04  0.00000000000E+00 0.  1.
    2000013    1    1    2    0    0 -0.36101964723E+03 -0.34621869853E+03 -0.11447868417E+04  0.15694710848E+04  0.95000000000E+03 0.  0.
   -2000013    1    1    2    0    0  0.36101964723E+03  0.34621869853E+03 -0.11795238660E+04  0.15949856186E+04  0.95000000000E+03 0.  0.
<mgrwt>
<rscale>  0 0.21474091E+04</rscale>
<asrwt>0</asrwt>
<pdfrwt beam="2">  1        2 0.42221286E+00 0.21474091E+04</pdfrwt>
<pdfrwt beam="1">  1       -2 0.64626618E-01 0.21474091E+04</pdfrwt>
<totfact> 0.50723363E+00</totfact>
</mgrwt>
</event>
<event>
 4    1  0.2018023E-008  0.2560172E+04  0.7816531E-02  0.8381857E-01
         -2   -1    0    0    0  501 -0.00000000000E+00  0.00000000000E+00  0.54064922478E+03  0.54064922478E+03  0.00000000000E+00 0. -1.
          2   -1    0    0  501    0  0.00000000000E+00 -0.00000000000E+00 -0.30308376703E+04  0.30308376703E+04  0.00000000000E+00 0.  1.
    2000013    1    1    2    0    0 -0.49153028534E+03  0.70128570755E+03 -0.11723875042E+04  0.17350493149E+04  0.95000000000E+03 0.  0.
   -2000013    1    1    2    0    0  0.49153028534E+03 -0.70128570755E+03 -0.13178009412E+04  0.18364375801E+04  0.95000000000E+03 0.  0.
<mgrwt>
<rscale>  0 0.25601719E+04</rscale>
<asrwt>0</asrwt>
<pdfrwt beam="2">  1        2 0.46628272E+00 0.25601719E+04</pdfrwt>
<pdfrwt beam="1">  1       -2 0.83176804E-01 0.25601719E+04</pdfrwt>
<totfact> 0.18705803E+00</totfact>
</mgrwt>
</event>
<event>
 4    1  0.2018023E-008  0.3288153E+04  0.7816531E-02  0.8165916E-01
         -2   -1    0    0    0  501 -0.00000000000E+00  0.00000000000E+00  0.14693111789E+04  0.14693111789E+04  0.00000000000E+00 0. -1.
          2   -1    0    0  501    0  0.00000000000E+00 -0.00000000000E+00 -0.18396295504E+04  0.18396295504E+04  0.00000000000E+00 0.  1.
    2000013    1    1    2    0    0 -0.96197419580E+02  0.13371769622E+04 -0.12830341087E+03  0.16481073803E+04  0.95000000000E+03 0.  0.
   -2000013    1    1    2    0    0  0.96197419580E+02 -0.13371769622E+04 -0.24201496058E+03  0.16608333490E+04  0.95000000000E+03 0.  0.
<mgrwt>
<rscale>  0 0.32881534E+04</rscale>
<asrwt>0</asrwt>
<pdfrwt beam="2">  1        2 0.28301993E+00 0.32881534E+04</pdfrwt>
<pdfrwt beam="1">  1       -2 0.22604787E+00 0.32881534E+04</pdfrwt>
<totfact> 0.62078707E-01</totfact>
</mgrwt>
</event>
<event>
 4    1  0.2018023E-008  0.2204976E+04  0.7816531E-02  0.8516360E-01
         -1   -1    0    0    0  501 -0.00000000000E+00  0.00000000000E+00  0.87529785094E+03  0.87529785094E+03  0.00000000000E+00 0. -1.
          1   -1    0    0  501    0  0.00000000000E+00 -0.00000000000E+00 -0.13886468124E+04  0.13886468124E+04  0.00000000000E+00 0.  1.
    2000013    1    1    2    0    0 -0.48524324726E+03 -0.25290956906E+03 -0.13713352330E+03  0.11048664455E+04  0.95000000000E+03 0.  0.
   -2000013    1    1    2    0    0  0.48524324726E+03  0.25290956906E+03 -0.37621543811E+03  0.11590782178E+04  0.95000000000E+03 0.  0.
<mgrwt>
<rscale>  0 0.22049758E+04</rscale>
<asrwt>0</asrwt>
<pdfrwt beam="2">  1        1 0.21363797E+00 0.22049758E+04</pdfrwt>
<pdfrwt beam="1">  1       -1 0.13466121E+00 0.22049758E+04</pdfrwt>
<totfact> 0.33065353E+00</totfact>
</mgrwt>
</event>
<event>
 4    1  0.2018023E-008  0.2376332E+04  0.7816531E-02  0.8448418E-01
          2   -1    0    0  501    0  0.00000000000E+00  0.00000000000E+00  0.17622383032E+04  0.17622383032E+04  0.00000000000E+00 0.  1.
         -2   -1    0    0    0  501 -0.00000000000E+00 -0.00000000000E+00 -0.80110498012E+03  0.80110498012E+03  0.00000000000E+00 0. -1.
    2000013    1    1    2    0    0  0.37832422424E+03 -0.56758892352E+03  0.70671139277E+03  0.13664652932E+04  0.95000000000E+03 0.  0.
   -2000013    1    1    2    0    0 -0.37832422424E+03  0.56758892352E+03  0.25442193035E+03  0.11968779902E+04  0.95000000000E+03 0.  0.
<mgrwt>
<rscale>  0 0.23763315E+04</rscale>
<asrwt>0</asrwt>
<pdfrwt beam="1">  1        2 0.27111358E+00 0.23763315E+04</pdfrwt>
<pdfrwt beam="2">  1       -2 0.12324692E+00 0.23763315E+04</pdfrwt>
<totfact> 0.40535472E+00</totfact>
</mgrwt>
</event>
<event>
 4    1  0.2018023E-008  0.3721035E+04  0.7816531E-02  0.8063316E-01
         -2   -1    0    0    0  501 -0.00000000000E+00  0.00000000000E+00  0.13002437816E+04  0.13002437816E+04  0.00000000000E+00 0. -1.
          2   -1    0    0  501    0  0.00000000000E+00 -0.00000000000E+00 -0.26622130132E+04  0.26622130132E+04  0.00000000000E+00 0.  1.
    2000013    1    1    2    0    0 -0.14820635813E+04 -0.56754487319E+03 -0.89503950441E+03  0.20548029970E+04  0.95000000000E+03 0.  0.
   -2000013    1    1    2    0    0  0.14820635813E+04  0.56754487319E+03 -0.46692972723E+03  0.19076537978E+04  0.95000000000E+03 0.  0.
<mgrwt>
<rscale>  0 0.37210353E+04</rscale>
<asrwt>0</asrwt>
<pdfrwt beam="2">  1        2 0.40957123E+00 0.37210353E+04</pdfrwt>
<pdfrwt beam="1">  1       -2 0.20003751E+00 0.37210353E+04</pdfrwt>
<totfact> 0.29992452E-01</totfact>
</mgrwt>
</event>
<event>
 4    1  0.2018023E-008  0.2541888E+04  0.7816531E-02  0.8388213E-01
         -2   -1    0    0    0  501 -0.00000000000E+00  0.00000000000E+00  0.55488173391E+03  0.55488173391E+03  0.00000000000E+00 0. -1.
          2   -1    0    0  501    0  0.00000000000E+00 -0.00000000000E+00 -0.29110676973E+04  0.29110676973E+04  0.00000000000E+00 0.  1.
    2000013    1    1    2    0    0 -0.12725270115E+03  0.73784768026E+03 -0.17100211456E+04  0.20945846289E+04  0.95000000000E+03 0.  0.
   -2000013    1    1    2    0    0  0.12725270115E+03 -0.73784768026E+03 -0.64616481775E+03  0.13713648023E+04  0.95000000000E+03 0.  0.
<mgrwt>
<rscale>  0 0.25418877E+04</rscale>
<asrwt>0</asrwt>
<pdfrwt beam="2">  1        2 0.44785657E+00 0.25418877E+04</pdfrwt>
<pdfrwt beam="1">  1       -2 0.85366420E-01 0.25418877E+04</pdfrwt>
<totfact> 0.20972844E+00</totfact>
</mgrwt>
</event>
<event>
 4    1  0.2018023E-008  0.2245632E+04  0.7816531E-02  0.8499672E-01
          2   -1    0    0  501    0  0.00000000000E+00  0.00000000000E+00  0.20581943372E+04  0.20581943372E+04  0.00000000000E+00 0.  1.
         -2   -1    0    0    0  501 -0.00000000000E+00 -0.00000000000E+00 -0.61253481218E+03  0.61253481218E+03  0.00000000000E+00 0. -1.
    2000013    1    1    2    0    0 -0.12179603181E+02 -0.54581508455E+03  0.43114028770E+03  0.11774737351E+04  0.95000000000E+03 0.  0.
   -2000013    1    1    2    0    0  0.12179603181E+02  0.54581508455E+03  0.10145192373E+04  0.14932554142E+04  0.95000000000E+03 0.  0.
<mgrwt>
<rscale>  0 0.22456319E+04</rscale>
<asrwt>0</asrwt>
<pdfrwt beam="1">  1        2 0.31664528E+00 0.22456319E+04</pdfrwt>
<pdfrwt beam="2">  1       -2 0.94236126E-01 0.22456319E+04</pdfrwt>
<totfact> 0.53621636E+00</totfact>
</mgrwt>
</event>
<event>
 4    1  0.2018023E-008  0.2913373E+04  0.7816531E-02  0.8268910E-01
         -2   -1    0    0    0  501 -0.00000000000E+00  0.00000000000E+00  0.88255952097E+03  0.88255952097E+03  0.00000000000E+00 0. -1.
          2   -1    0    0  501    0  0.00000000000E+00 -0.00000000000E+00 -0.24042982020E+04  0.24042982020E+04  0.00000000000E+00 0.  1.
    2000013    1    1    2    0    0 -0.66957450756E+03  0.87777994472E+03 -0.73303655145E+03  0.16305429275E+04  0.95000000000E+03 0.  0.
   -2000013    1    1    2    0    0  0.66957450756E+03 -0.87777994472E+03 -0.78870212954E+03  0.16563147955E+04  0.95000000000E+03 0.  0.
<mgrwt>
<rscale>  0 0.29133735E+04</rscale>
<asrwt>0</asrwt>
<pdfrwt beam="2">  1        2 0.36989203E+00 0.29133735E+04</pdfrwt>
<pdfrwt beam="1">  1       -2 0.13577839E+00 0.29133735E+04</pdfrwt>
<totfact> 0.13246358E+00</totfact>
</mgrwt>
</event>
<event>
 4    1  0.2018023E-008  0.2331562E+04  0.7816531E-02  0.8465580E-01
         -2   -1    0    0    0  501 -0.00000000000E+00  0.00000000000E+00  0.19910296396E+04  0.19910296396E+04  0.00000000000E+00 0. -1.
          2   -1    0    0  501    0  0.00000000000E+00 -0.00000000000E+00 -0.68258399592E+03  0.68258399592E+03  0.00000000000E+00 0.  1.
    2000013    1    1    2    0    0 -0.45336085068E+03  0.37998635981E+03  0.10286519240E+04  0.15200494977E+04  0.95000000000E+03 0.  0.
   -2000013    1    1    2    0    0  0.45336085068E+03 -0.37998635981E+03  0.27979371965E+03  0.11535641378E+04  0.95000000000E+03 0.  0.
<mgrwt>
<rscale>  0 0.23315617E+04</rscale>
<asrwt>0</asrwt>
<pdfrwt beam="2">  1        2 0.10501292E+00 0.23315617E+04</pdfrwt>
<pdfrwt beam="1">  1       -2 0.30631225E+00 0.23315617E+04</pdfrwt>
<totfact> 0.11125330E+00</totfact>
</mgrwt>
</event>
<event>
 4    1  0.2018023E-008  0.2206800E+04  0.7816531E-02  0.8515603E-01
         -2   -1    0    0    0  501 -0.00000000000E+00  0.00000000000E+00  0.83833041595E+03  0.83833041595E+03  0.00000000000E+00 0. -1.
          2   -1    0    0  501    0  0.00000000000E+00 -0.00000000000E+00 -0.14522807911E+04  0.14522807911E+04  0.00000000000E+00 0.  1.
    2000013    1    1    2    0    0  0.45544864498E+03 -0.25318673974E+03 -0.90601628659E+02  0.10873112013E+04  0.95000000000E+03 0.  0.
   -2000013    1    1    2    0    0 -0.45544864498E+03  0.25318673974E+03 -0.52334874652E+03  0.12033000058E+04  0.95000000000E+03 0.  0.
<mgrwt>
<rscale>  0 0.22067996E+04</rscale>
<asrwt>0</asrwt>
<pdfrwt beam="2">  1        2 0.22342781E+00 0.22067996E+04</pdfrwt>
<pdfrwt beam="1">  1       -2 0.12897391E+00 0.22067996E+04</pdfrwt>
<totfact> 0.54695741E+00</totfact>
</mgrwt>
</event>
