<event>
 4    1  0.2058093E-008  0.2465787E+04  0.7816531E-02  0.8415277E-01
         -2   -1    0    0    0  501 -0.00000000000E+00  0.00000000000E+00  0.54287767089E+03  0.54287767089E+03  0.00000000000E+00 0. -1.
          2   -1    0    0  501    0  0.00000000000E+00 -0.00000000000E+00 -0.27999419644E+04  0.27999419644E+04  0.00000000000E+00 0.  1.
    2000013    1    1    2    0    0 -0.42187512056E+03  0.66245683028E+03 -0.10927077103E+04  0.16472212388E+04  0.95000000000E+03 0.  0.
   -2000013    1    1    2    0    0  0.42187512056E+03 -0.66245683028E+03 -0.11643565832E+04  0.16955983965E+04  0.95000000000E+03 0.  0.
<mgrwt>
<rscale>  0 0.24657867E+04</rscale>
<asrwt>0</asrwt>
<pdfrwt beam="2">  1        2 0.43076030E+00 0.24657867E+04</pdfrwt>
<pdfrwt beam="1">  1       -2 0.83519642E-01 0.24657867E+04</pdfrwt>
<totfact> 0.25938591E+00</totfact>
</mgrwt>
</event>
<event>
 4    1  0.2058093E-008  0.2911627E+04  0.7816531E-02  0.8269426E-01
          2   -1    0    0  501    0  0.00000000000E+00  0.00000000000E+00  0.16632451286E+04  0.16632451286E+04  0.00000000000E+00 0.  1.
         -2   -1    0    0    0  501 -0.00000000000E+00 -0.00000000000E+00 -0.12742519774E+04  0.12742519774E+04  0.00000000000E+00 0. -1.
    2000013    1    1    2    0    0  0.61227260669E+02 -0.10846044235E+04  0.10171018618E+01  0.14431273566E+04  0.95000000000E+03 0.  0.
   -2000013    1    1    2    0    0 -0.61227260669E+02  0.10846044235E+04  0.38797604933E+03  0.14943697494E+04  0.95000000000E+03 0.  0.
<mgrwt>
<rscale>  0 0.29116273E+04</rscale>
<asrwt>0</asrwt>
<pdfrwt beam="1">  1        2 0.25588387E+00 0.29116273E+04</pdfrwt>
<pdfrwt beam="2">  1       -2 0.19603876E+00 0.29116273E+04</pdfrwt>
<totfact> 0.12522783E+00</totfact>
</mgrwt>
</event>
<event>
 4    1  0.2058093E-008  0.4153237E+04  0.7816531E-02  0.7974328E-01
         -2   -1    0    0    0  501 -0.00000000000E+00  0.00000000000E+00  0.14714989205E+04  0.14714989205E+04  0.00000000000E+00 0.  1.
          2   -1    0    0  501    0  0.00000000000E+00 -0.00000000000E+00 -0.29305787170E+04  0.29305787170E+04  0.00000000000E+00 0. -1.
    2000013    1    1    2    0    0  0.12412992688E+04 -0.11400286325E+04 -0.15293047616E+04  0.24661229109E+04  0.95000000000E+03 0.  0.
   -2000013    1    1    2    0    0 -0.12412992688E+04  0.11400286325E+04  0.70224965073E+02  0.19359547266E+04  0.95000000000E+03 0.  0.
<mgrwt>
<rscale>  0 0.41532365E+04</rscale>
<asrwt>0</asrwt>
<pdfrwt beam="2">  1        2 0.45085826E+00 0.41532365E+04</pdfrwt>
<pdfrwt beam="1">  1       -2 0.22638445E+00 0.41532365E+04</pdfrwt>
<totfact> 0.13495508E-01</totfact>
</mgrwt>
</event>
<event>
 4    1  0.2058093E-008  0.2149382E+04  0.7816531E-02  0.8539797E-01
          2   -1    0    0  501    0  0.00000000000E+00  0.00000000000E+00  0.42761126016E+03  0.42761126016E+03  0.00000000000E+00 0.  1.
         -2   -1    0    0    0  501 -0.00000000000E+00 -0.00000000000E+00 -0.27009594263E+04  0.27009594263E+04  0.00000000000E+00 0. -1.
    2000013    1    1    2    0    0  0.30244980703E+03  0.34967967886E+03 -0.85029730645E+03  0.13561921962E+04  0.95000000000E+03 0.  0.
   -2000013    1    1    2    0    0 -0.30244980703E+03 -0.34967967886E+03 -0.14230508597E+04  0.17723784903E+04  0.95000000000E+03 0.  0.
<mgrwt>
<rscale>  0 0.21493819E+04</rscale>
<asrwt>0</asrwt>
<pdfrwt beam="1">  1        2 0.65786348E-01 0.21493819E+04</pdfrwt>
<pdfrwt beam="2">  1       -2 0.41553222E+00 0.21493819E+04</pdfrwt>
<totfact> 0.39774876E-01</totfact>
</mgrwt>
</event>
<event>
 4    1  0.2058093E-008  0.2905171E+04  0.7816531E-02  0.8271341E-01
          2   -1    0    0  501    0  0.00000000000E+00  0.00000000000E+00  0.27927311430E+04  0.27927311430E+04  0.00000000000E+00 0.  1.
         -2   -1    0    0    0  501 -0.00000000000E+00 -0.00000000000E+00 -0.75553463810E+03  0.75553463810E+03  0.00000000000E+00 0. -1.
    2000013    1    1    2    0    0  0.79555498889E+03 -0.50717933108E+03  0.17066560709E+04  0.21691734736E+04  0.95000000000E+03 0.  0.
   -2000013    1    1    2    0    0 -0.79555498889E+03  0.50717933108E+03  0.33054043407E+03  0.13790923076E+04  0.95000000000E+03 0.  0.
<mgrwt>
<rscale>  0 0.29051713E+04</rscale>
<asrwt>0</asrwt>
<pdfrwt beam="1">  1        2 0.42965094E+00 0.29051713E+04</pdfrwt>
<pdfrwt beam="2">  1       -2 0.11623610E+00 0.29051713E+04</pdfrwt>
<totfact> 0.11571188E+00</totfact>
</mgrwt>
</event>
<event>
 4    1  0.2058093E-008  0.2953604E+04  0.7816531E-02  0.8257105E-01
          1   -1    0    0  501    0  0.00000000000E+00  0.00000000000E+00  0.20801467302E+04  0.20801467302E+04  0.00000000000E+00 0.  1.
         -1   -1    0    0    0  501 -0.00000000000E+00 -0.00000000000E+00 -0.10484567451E+04  0.10484567451E+04  0.00000000000E+00 0. -1.
    2000013    1    1    2    0    0  0.97394755454E+03  0.45686087937E+03  0.88453104551E+03  0.16858798512E+04  0.95000000000E+03 0.  0.
   -2000013    1    1    2    0    0 -0.97394755454E+03 -0.45686087937E+03  0.14715893966E+03  0.14427236241E+04  0.95000000000E+03 0.  0.
<mgrwt>
<rscale>  0 0.29536038E+04</rscale>
<asrwt>0</asrwt>
<pdfrwt beam="1">  1        1 0.32002257E+00 0.29536038E+04</pdfrwt>
<pdfrwt beam="2">  1       -1 0.16130104E+00 0.29536038E+04</pdfrwt>
<totfact> 0.64166893E-01</totfact>
</mgrwt>
</event>
<event>
 4    1  0.2058093E-008  0.3429764E+04  0.7816531E-02  0.8130640E-01
         -2   -1    0    0    0  501 -0.00000000000E+00  0.00000000000E+00  0.18000300849E+04  0.18000300849E+04  0.00000000000E+00 0. -1.
          2   -1    0    0  501    0  0.00000000000E+00 -0.00000000000E+00 -0.16337620334E+04  0.16337620334E+04  0.00000000000E+00 0.  1.
    2000013    1    1    2    0    0  0.80188285448E+03  0.11402031394E+04 -0.22584061502E+03  0.17019351618E+04  0.95000000000E+03 0.  0.
   -2000013    1    1    2    0    0 -0.80188285448E+03 -0.11402031394E+04  0.39210866647E+03  0.17318569565E+04  0.95000000000E+03 0.  0.
<mgrwt>
<rscale>  0 0.34297643E+04</rscale>
<asrwt>0</asrwt>
<pdfrwt beam="2">  1        2 0.25134801E+00 0.34297643E+04</pdfrwt>
<pdfrwt beam="1">  1       -2 0.27692770E+00 0.34297643E+04</pdfrwt>
<totfact> 0.38799003E-01</totfact>
</mgrwt>
</event>
<event>
 4    1  0.2058093E-008  0.2865316E+04  0.7816531E-02  0.8283272E-01
         -2   -1    0    0    0  501 -0.00000000000E+00  0.00000000000E+00  0.11827368042E+04  0.11827368042E+04  0.00000000000E+00 0. -1.
          2   -1    0    0  501    0  0.00000000000E+00 -0.00000000000E+00 -0.17353891874E+04  0.17353891874E+04  0.00000000000E+00 0.  1.
    2000013    1    1    2    0    0  0.60151903634E+03  0.71268329430E+03  0.26283270615E+03  0.13569538166E+04  0.95000000000E+03 0.  0.
   -2000013    1    1    2    0    0 -0.60151903634E+03 -0.71268329430E+03 -0.81548508927E+03  0.15611721750E+04  0.95000000000E+03 0.  0.
<mgrwt>
<rscale>  0 0.28653158E+04</rscale>
<asrwt>0</asrwt>
<pdfrwt beam="2">  1        2 0.26698295E+00 0.28653158E+04</pdfrwt>
<pdfrwt beam="1">  1       -2 0.18195951E+00 0.28653158E+04</pdfrwt>
<totfact> 0.14260514E+00</totfact>
</mgrwt>
</event>
<event>
 4    1  0.2058093E-008  0.2131228E+04  0.7816531E-02  0.8547611E-01
          2   -1    0    0  501    0  0.00000000000E+00  0.00000000000E+00  0.20617503669E+04  0.20617503669E+04  0.00000000000E+00 0.  1.
         -2   -1    0    0    0  501 -0.00000000000E+00 -0.00000000000E+00 -0.55076164456E+03  0.55076164456E+03  0.00000000000E+00 0. -1.
    2000013    1    1    2    0    0 -0.41616309810E+03 -0.10305019873E+03  0.10274561229E+04  0.14635495045E+04  0.95000000000E+03 0.  0.
   -2000013    1    1    2    0    0  0.41616309810E+03  0.10305019873E+03  0.48353259944E+03  0.11489625070E+04  0.95000000000E+03 0.  0.
<mgrwt>
<rscale>  0 0.21312278E+04</rscale>
<asrwt>0</asrwt>
<pdfrwt beam="1">  1        2 0.31719236E+00 0.21312278E+04</pdfrwt>
<pdfrwt beam="2">  1       -2 0.84732562E-01 0.21312278E+04</pdfrwt>
<totfact> 0.68846463E+00</totfact>
</mgrwt>
</event>
<event>
 4    1  0.2058093E-008  0.3467328E+04  0.7816531E-02  0.8121577E-01
          1   -1    0    0  501    0  0.00000000000E+00  0.00000000000E+00  0.32718575384E+04  0.32718575384E+04  0.00000000000E+00 0.  1.
         -1   -1    0    0    0  501 -0.00000000000E+00 -0.00000000000E+00 -0.91861922264E+03  0.91861922264E+03  0.00000000000E+00 0. -1.
    2000013    1    1    2    0    0  0.13875928687E+04  0.23389266681E+03  0.16004286534E+04  0.23332362982E+04  0.95000000000E+03 0.  0.
   -2000013    1    1    2    0    0 -0.13875928687E+04 -0.23389266681E+03  0.75280966244E+03  0.18572404628E+04  0.95000000000E+03 0.  0.
<mgrwt>
<rscale>  0 0.34673282E+04</rscale>
<asrwt>0</asrwt>
<pdfrwt beam="1">  1        1 0.50336269E+00 0.34673282E+04</pdfrwt>
<pdfrwt beam="2">  1       -1 0.14132604E+00 0.34673282E+04</pdfrwt>
<totfact> 0.12535837E-01</totfact>
</mgrwt>
</event>
<event>
 4    1  0.2058093E-008  0.2001946E+04  0.7816531E-02  0.8605711E-01
          2   -1    0    0  501    0  0.00000000000E+00  0.00000000000E+00  0.16440134058E+04  0.16440134058E+04  0.00000000000E+00 0. -1.
         -2   -1    0    0    0  501 -0.00000000000E+00 -0.00000000000E+00 -0.60945183642E+03  0.60945183642E+03  0.00000000000E+00 0.  1.
    2000013    1    1    2    0    0 -0.13892917323E+03  0.21581475993E+03  0.72352035232E+03  0.12214168109E+04  0.95000000000E+03 0.  0.
   -2000013    1    1    2    0    0  0.13892917323E+03 -0.21581475993E+03  0.31104121702E+03  0.10320484313E+04  0.95000000000E+03 0.  0.
<mgrwt>
<rscale>  0 0.20019460E+04</rscale>
<asrwt>0</asrwt>
<pdfrwt beam="1">  1        2 0.25292514E+00 0.20019460E+04</pdfrwt>
<pdfrwt beam="2">  1       -2 0.93761822E-01 0.20019460E+04</pdfrwt>
<totfact> 0.94071388E+00</totfact>
</mgrwt>
</event>
<event>
 4    1  0.2058093E-008  0.2397315E+04  0.7816531E-02  0.8440509E-01
         -2   -1    0    0    0  501 -0.00000000000E+00  0.00000000000E+00  0.10412377601E+04  0.10412377601E+04  0.00000000000E+00 0. -1.
          2   -1    0    0  501    0  0.00000000000E+00 -0.00000000000E+00 -0.13798773289E+04  0.13798773289E+04  0.00000000000E+00 0.  1.
    2000013    1    1    2    0    0 -0.85605051058E+02  0.63797918704E+03  0.18043421678E+03  0.11616377122E+04  0.95000000000E+03 0.  0.
   -2000013    1    1    2    0    0  0.85605051058E+02 -0.63797918704E+03 -0.51907378549E+03  0.12594773768E+04  0.95000000000E+03 0.  0.
<mgrwt>
<rscale>  0 0.23973155E+04</rscale>
<asrwt>0</asrwt>
<pdfrwt beam="2">  1        2 0.21228882E+00 0.23973155E+04</pdfrwt>
<pdfrwt beam="1">  1       -2 0.16019042E+00 0.23973155E+04</pdfrwt>
<totfact> 0.33563730E+00</totfact>
</mgrwt>
</event>
<event>
 4    1  0.2058093E-008  0.2860234E+04  0.7816531E-02  0.8284808E-01
          3   -1    0    0  501    0  0.00000000000E+00  0.00000000000E+00  0.10002246372E+04  0.10002246372E+04  0.00000000000E+00 0.  1.
         -3   -1    0    0    0  501 -0.00000000000E+00 -0.00000000000E+00 -0.20447749220E+04  0.20447749220E+04  0.00000000000E+00 0. -1.
    2000013    1    1    2    0    0  0.83716000526E+03  0.65439107385E+03 -0.64674530035E+03  0.15651977624E+04  0.95000000000E+03 0.  0.
   -2000013    1    1    2    0    0 -0.83716000526E+03 -0.65439107385E+03 -0.39780498444E+03  0.14798017967E+04  0.95000000000E+03 0.  0.
<mgrwt>
<rscale>  0 0.28602337E+04</rscale>
<asrwt>0</asrwt>
<pdfrwt beam="1">  1        3 0.15388071E+00 0.28602337E+04</pdfrwt>
<pdfrwt beam="2">  1       -3 0.31458075E+00 0.28602337E+04</pdfrwt>
<totfact> 0.21443055E-02</totfact>
</mgrwt>
</event>
<event>
 4    1  0.2058093E-008  0.2576185E+04  0.7816531E-02  0.8376336E-01
          2   -1    0    0  501    0  0.00000000000E+00  0.00000000000E+00  0.18207532867E+04  0.18207532867E+04  0.00000000000E+00 0.  1.
         -2   -1    0    0    0  501 -0.00000000000E+00 -0.00000000000E+00 -0.91126133069E+03  0.91126133069E+03  0.00000000000E+00 0. -1.
    2000013    1    1    2    0    0  0.45542322177E+03 -0.67670933672E+03  0.13424634884E+03  0.12593124789E+04  0.95000000000E+03 0.  0.
   -2000013    1    1    2    0    0 -0.45542322177E+03  0.67670933672E+03  0.77524560722E+03  0.14727021385E+04  0.95000000000E+03 0.  0.
<mgrwt>
<rscale>  0 0.25761848E+04</rscale>
<asrwt>0</asrwt>
<pdfrwt beam="1">  1        2 0.28011589E+00 0.25761848E+04</pdfrwt>
<pdfrwt beam="2">  1       -2 0.14019405E+00 0.25761848E+04</pdfrwt>
<totfact> 0.26655463E+00</totfact>
</mgrwt>
</event>
<event>
 4    1  0.2058093E-008  0.2429269E+04  0.7816531E-02  0.8428626E-01
         -2   -1    0    0    0  501 -0.00000000000E+00  0.00000000000E+00  0.39622332334E+03  0.39622332334E+03  0.00000000000E+00 0. -1.
          2   -1    0    0  501    0  0.00000000000E+00 -0.00000000000E+00 -0.37234997001E+04  0.37234997001E+04  0.00000000000E+00 0.  1.
    2000013    1    1    2    0    0  0.11204766023E+03  0.55217020332E+03 -0.25206661259E+04  0.27520363969E+04  0.95000000000E+03 0.  0.
   -2000013    1    1    2    0    0 -0.11204766023E+03 -0.55217020332E+03 -0.80661025085E+03  0.13676866265E+04  0.95000000000E+03 0.  0.
<mgrwt>
<rscale>  0 0.24292694E+04</rscale>
<asrwt>0</asrwt>
<pdfrwt beam="2">  1        2 0.57284609E+00 0.24292694E+04</pdfrwt>
<pdfrwt beam="1">  1       -2 0.60957436E-01 0.24292694E+04</pdfrwt>
<totfact> 0.12632428E+00</totfact>
</mgrwt>
</event>
<event>
 4    1  0.2058093E-008  0.2654842E+04  0.7816531E-02  0.8349808E-01
          2   -1    0    0  501    0  0.00000000000E+00  0.00000000000E+00  0.18284362682E+04  0.18284362682E+04  0.00000000000E+00 0.  1.
         -2   -1    0    0    0  501 -0.00000000000E+00 -0.00000000000E+00 -0.96369012063E+03  0.96369012063E+03  0.00000000000E+00 0. -1.
    2000013    1    1    2    0    0 -0.18933553040E+03  0.22778970303E+03 -0.49158364160E+03  0.11099056575E+04  0.95000000000E+03 0.  0.
   -2000013    1    1    2    0    0  0.18933553040E+03 -0.22778970303E+03  0.13563297892E+04  0.16822207313E+04  0.95000000000E+03 0.  0.
<mgrwt>
<rscale>  0 0.26548416E+04</rscale>
<asrwt>0</asrwt>
<pdfrwt beam="1">  1        2 0.28129789E+00 0.26548416E+04</pdfrwt>
<pdfrwt beam="2">  1       -2 0.14826002E+00 0.26548416E+04</pdfrwt>
<totfact> 0.22645050E+00</totfact>
</mgrwt>
</event>
<event>
 4    1  0.2058093E-008  0.2253904E+04  0.7816531E-02  0.8496321E-01
         -2   -1    0    0    0  501 -0.00000000000E+00  0.00000000000E+00  0.29191603217E+03  0.29191603217E+03  0.00000000000E+00 0. -1.
          2   -1    0    0  501    0  0.00000000000E+00 -0.00000000000E+00 -0.43506374044E+04  0.43506374044E+04  0.00000000000E+00 0.  1.
    2000013    1    1    2    0    0 -0.46894446136E+03 -0.10403966181E+03 -0.27911676539E+04  0.29872813780E+04  0.95000000000E+03 0.  0.
   -2000013    1    1    2    0    0  0.46894446136E+03  0.10403966181E+03 -0.12675537183E+04  0.16552720586E+04  0.95000000000E+03 0.  0.
<mgrwt>
<rscale>  0 0.22539040E+04</rscale>
<asrwt>0</asrwt>
<pdfrwt beam="2">  1        2 0.66932888E+00 0.22539040E+04</pdfrwt>
<pdfrwt beam="1">  1       -2 0.44910156E-01 0.22539040E+04</pdfrwt>
<totfact> 0.73657673E-01</totfact>
</mgrwt>
</event>
<event>
 4    1  0.2058093E-008  0.2412322E+04  0.7816531E-02  0.8434905E-01
         -2   -1    0    0    0  501 -0.00000000000E+00  0.00000000000E+00  0.77495454470E+03  0.77495454470E+03  0.00000000000E+00 0. -1.
          2   -1    0    0  501    0  0.00000000000E+00 -0.00000000000E+00 -0.18773035021E+04  0.18773035021E+04  0.00000000000E+00 0.  1.
    2000013    1    1    2    0    0  0.42162859415E+03  0.60190212456E+03 -0.67295225608E+03  0.13767431053E+04  0.95000000000E+03 0.  0.
   -2000013    1    1    2    0    0 -0.42162859415E+03 -0.60190212456E+03 -0.42939670132E+03  0.12755149415E+04  0.95000000000E+03 0.  0.
<mgrwt>
<rscale>  0 0.24123224E+04</rscale>
<asrwt>0</asrwt>
<pdfrwt beam="2">  1        2 0.28881592E+00 0.24123224E+04</pdfrwt>
<pdfrwt beam="1">  1       -2 0.11922378E+00 0.24123224E+04</pdfrwt>
<totfact> 0.37896309E+00</totfact>
</mgrwt>
</event>
<event>
 4    1  0.2058093E-008  0.2767427E+04  0.7816531E-02  0.8313453E-01
          2   -1    0    0  501    0  0.00000000000E+00  0.00000000000E+00  0.25323280167E+04  0.25323280167E+04  0.00000000000E+00 0.  1.
         -2   -1    0    0    0  501 -0.00000000000E+00 -0.00000000000E+00 -0.75608798318E+03  0.75608798318E+03  0.00000000000E+00 0. -1.
    2000013    1    1    2    0    0  0.31820076914E+03  0.90376995610E+03  0.12526477863E+04  0.18411079109E+04  0.95000000000E+03 0.  0.
   -2000013    1    1    2    0    0 -0.31820076914E+03 -0.90376995610E+03  0.52359224721E+03  0.14473080890E+04  0.95000000000E+03 0.  0.
<mgrwt>
<rscale>  0 0.27674268E+04</rscale>
<asrwt>0</asrwt>
<pdfrwt beam="1">  1        2 0.38958892E+00 0.27674268E+04</pdfrwt>
<pdfrwt beam="2">  1       -2 0.11632123E+00 0.27674268E+04</pdfrwt>
<totfact> 0.16673563E+00</totfact>
</mgrwt>
</event>
<event>
 4    1  0.2058093E-008  0.2847379E+04  0.7816531E-02  0.8288708E-01
         -2   -1    0    0    0  501 -0.00000000000E+00  0.00000000000E+00  0.15268642072E+04  0.15268642072E+04  0.00000000000E+00 0. -1.
          2   -1    0    0  501    0  0.00000000000E+00 -0.00000000000E+00 -0.13274867464E+04  0.13274867464E+04  0.00000000000E+00 0.  1.
    2000013    1    1    2    0    0  0.58292792137E+03 -0.47920488116E+03 -0.64708475267E+03  0.13750130751E+04  0.95000000000E+03 0.  0.
   -2000013    1    1    2    0    0 -0.58292792137E+03  0.47920488116E+03  0.84646221350E+03  0.14793378784E+04  0.95000000000E+03 0.  0.
<mgrwt>
<rscale>  0 0.28473791E+04</rscale>
<asrwt>0</asrwt>
<pdfrwt beam="2">  1        2 0.20422873E+00 0.28473791E+04</pdfrwt>
<pdfrwt beam="1">  1       -2 0.23490219E+00 0.28473791E+04</pdfrwt>
<totfact> 0.11004494E+00</totfact>
</mgrwt>
</event>
<event>
 4    1  0.2058093E-008  0.2350439E+04  0.7816531E-02  0.8458295E-01
          2   -1    0    0  501    0  0.00000000000E+00  0.00000000000E+00  0.17846005539E+04  0.17846005539E+04  0.00000000000E+00 0.  1.
         -2   -1    0    0    0  501 -0.00000000000E+00 -0.00000000000E+00 -0.77392178586E+03  0.77392178586E+03  0.00000000000E+00 0. -1.
    2000013    1    1    2    0    0 -0.55915301868E+03  0.40047516626E+03  0.58686137602E+03  0.13114643464E+04  0.95000000000E+03 0.  0.
   -2000013    1    1    2    0    0  0.55915301868E+03 -0.40047516626E+03  0.42381739201E+03  0.12470579934E+04  0.95000000000E+03 0.  0.
<mgrwt>
<rscale>  0 0.23504393E+04</rscale>
<asrwt>0</asrwt>
<pdfrwt beam="1">  1        2 0.27455393E+00 0.23504393E+04</pdfrwt>
<pdfrwt beam="2">  1       -2 0.11906489E+00 0.23504393E+04</pdfrwt>
<totfact> 0.43024088E+00</totfact>
</mgrwt>
</event>
<event>
 4    1  0.2058093E-008  0.2148623E+04  0.7816531E-02  0.8540122E-01
          2   -1    0    0  501    0  0.00000000000E+00  0.00000000000E+00  0.15354794958E+04  0.15354794958E+04  0.00000000000E+00 0.  1.
         -2   -1    0    0    0  501 -0.00000000000E+00 -0.00000000000E+00 -0.75165120374E+03  0.75165120374E+03  0.00000000000E+00 0. -1.
    2000013    1    1    2    0    0 -0.14178360908E+03  0.48118781791E+03  0.39280692193E+03  0.11438713152E+04  0.95000000000E+03 0.  0.
   -2000013    1    1    2    0    0  0.14178360908E+03 -0.48118781791E+03  0.39102137015E+03  0.11432593843E+04  0.95000000000E+03 0.  0.
<mgrwt>
<rscale>  0 0.21486228E+04</rscale>
<asrwt>0</asrwt>
<pdfrwt beam="1">  1        2 0.23622761E+00 0.21486228E+04</pdfrwt>
<pdfrwt beam="2">  1       -2 0.11563865E+00 0.21486228E+04</pdfrwt>
<totfact> 0.64736248E+00</totfact>
</mgrwt>
</event>
<event>
 4    1  0.2058093E-008  0.2643684E+04  0.7816531E-02  0.8353512E-01
         -2   -1    0    0    0  501 -0.00000000000E+00  0.00000000000E+00  0.11211081130E+04  0.11211081130E+04  0.00000000000E+00 0. -1.
          2   -1    0    0  501    0  0.00000000000E+00 -0.00000000000E+00 -0.15585167888E+04  0.15585167888E+04  0.00000000000E+00 0.  1.
    2000013    1    1    2    0    0  0.51574780499E+03 -0.18332380921E+03 -0.96709345950E+03  0.14619757785E+04  0.95000000000E+03 0.  0.
   -2000013    1    1    2    0    0 -0.51574780499E+03  0.18332380921E+03  0.52968478370E+03  0.12176491233E+04  0.95000000000E+03 0.  0.
<mgrwt>
<rscale>  0 0.26436837E+04</rscale>
<asrwt>0</asrwt>
<pdfrwt beam="2">  1        2 0.23977181E+00 0.26436837E+04</pdfrwt>
<pdfrwt beam="1">  1       -2 0.17247817E+00 0.26436837E+04</pdfrwt>
<totfact> 0.21229007E+00</totfact>
</mgrwt>
</event>
<event>
 4    1  0.2058093E-008  0.3573250E+04  0.7816531E-02  0.8096647E-01
          2   -1    0    0  501    0  0.00000000000E+00  0.00000000000E+00  0.32058404619E+04  0.32058404619E+04  0.00000000000E+00 0.  1.
         -2   -1    0    0    0  501 -0.00000000000E+00 -0.00000000000E+00 -0.99569187960E+03  0.99569187960E+03  0.00000000000E+00 0. -1.
    2000013    1    1    2    0    0 -0.11956201094E+04  0.89403296699E+03  0.13948319459E+04  0.22531885295E+04  0.95000000000E+03 0.  0.
   -2000013    1    1    2    0    0  0.11956201094E+04 -0.89403296699E+03  0.81531663640E+03  0.19483438120E+04  0.95000000000E+03 0.  0.
<mgrwt>
<rscale>  0 0.35732502E+04</rscale>
<asrwt>0</asrwt>
<pdfrwt beam="1">  1        2 0.49320622E+00 0.35732502E+04</pdfrwt>
<pdfrwt beam="2">  1       -2 0.15318337E+00 0.35732502E+04</pdfrwt>
<totfact> 0.29716193E-01</totfact>
</mgrwt>
</event>
<event>
 4    1  0.2058093E-008  0.1910192E+04  0.7816531E-02  0.8649800E-01
         -2   -1    0    0    0  501 -0.00000000000E+00  0.00000000000E+00  0.33481715383E+03  0.33481715383E+03  0.00000000000E+00 0. -1.
          2   -1    0    0  501    0  0.00000000000E+00 -0.00000000000E+00 -0.27244966990E+04  0.27244966990E+04  0.00000000000E+00 0.  1.
    2000013    1    1    2    0    0 -0.29901330167E+02 -0.83257224787E+01 -0.13446089899E+04  0.16466440851E+04  0.95000000000E+03 0.  0.
   -2000013    1    1    2    0    0  0.29901330167E+02  0.83257224787E+01 -0.10450705552E+04  0.14126697677E+04  0.95000000000E+03 0.  0.
<mgrwt>
<rscale>  0 0.19101919E+04</rscale>
<asrwt>0</asrwt>
<pdfrwt beam="2">  1        2 0.41915335E+00 0.19101919E+04</pdfrwt>
<pdfrwt beam="1">  1       -2 0.51510330E-01 0.19101919E+04</pdfrwt>
<totfact> 0.85683479E+00</totfact>
</mgrwt>
</event>
<event>
 4    1  0.2058093E-008  0.2301382E+04  0.7816531E-02  0.8477376E-01
         -2   -1    0    0    0  501 -0.00000000000E+00  0.00000000000E+00  0.14096732755E+04  0.14096732755E+04  0.00000000000E+00 0. -1.
          2   -1    0    0  501    0  0.00000000000E+00 -0.00000000000E+00 -0.93928876672E+03  0.93928876672E+03  0.00000000000E+00 0.  1.
    2000013    1    1    2    0    0 -0.10724457004E+03  0.63516418603E+03  0.15192542106E+03  0.11578066655E+04  0.95000000000E+03 0.  0.
   -2000013    1    1    2    0    0  0.10724457004E+03 -0.63516418603E+03  0.31845908771E+03  0.11911553768E+04  0.95000000000E+03 0.  0.
<mgrwt>
<rscale>  0 0.23013824E+04</rscale>
<asrwt>0</asrwt>
<pdfrwt beam="2">  1        2 0.14450596E+00 0.23013824E+04</pdfrwt>
<pdfrwt beam="1">  1       -2 0.21687281E+00 0.23013824E+04</pdfrwt>
<totfact> 0.25875884E+00</totfact>
</mgrwt>
</event>
<event>
 4    1  0.2058093E-008  0.2417637E+04  0.7816531E-02  0.8432930E-01
         -2   -1    0    0    0  501 -0.00000000000E+00  0.00000000000E+00  0.82599217465E+03  0.82599217465E+03  0.00000000000E+00 0. -1.
          2   -1    0    0  501    0  0.00000000000E+00 -0.00000000000E+00 -0.17690757136E+04  0.17690757136E+04  0.00000000000E+00 0.  1.
    2000013    1    1    2    0    0 -0.22040702361E+03  0.69040645390E+03 -0.66801134411E+03  0.13689337031E+04  0.95000000000E+03 0.  0.
   -2000013    1    1    2    0    0  0.22040702361E+03 -0.69040645390E+03 -0.27507219484E+03  0.12261341852E+04  0.95000000000E+03 0.  0.
<mgrwt>
<rscale>  0 0.24176374E+04</rscale>
<asrwt>0</asrwt>
<pdfrwt beam="2">  1        2 0.27216549E+00 0.24176374E+04</pdfrwt>
<pdfrwt beam="1">  1       -2 0.12707572E+00 0.24176374E+04</pdfrwt>
<totfact> 0.37083840E+00</totfact>
</mgrwt>
</event>
<event>
 4    1  0.2058093E-008  0.2054385E+04  0.7816531E-02  0.8581608E-01
         -2   -1    0    0    0  501 -0.00000000000E+00  0.00000000000E+00  0.85917569241E+03  0.85917569241E+03  0.00000000000E+00 0. -1.
          2   -1    0    0  501    0  0.00000000000E+00 -0.00000000000E+00 -0.12280660178E+04  0.12280660178E+04  0.00000000000E+00 0.  1.
    2000013    1    1    2    0    0  0.49449123321E+02 -0.37226145622E+03 -0.29387413444E+03  0.10629608716E+04  0.95000000000E+03 0.  0.
   -2000013    1    1    2    0    0 -0.49449123321E+02  0.37226145622E+03 -0.75016190980E+02  0.10242808387E+04  0.95000000000E+03 0.  0.
<mgrwt>
<rscale>  0 0.20543850E+04</rscale>
<asrwt>0</asrwt>
<pdfrwt beam="2">  1        2 0.18893323E+00 0.20543850E+04</pdfrwt>
<pdfrwt beam="1">  1       -2 0.13218088E+00 0.20543850E+04</pdfrwt>
<totfact> 0.70194014E+00</totfact>
</mgrwt>
</event>
<event>
 4    1  0.2058093E-008  0.3086126E+04  0.7816531E-02  0.8219556E-01
         -2   -1    0    0    0  501 -0.00000000000E+00  0.00000000000E+00  0.26202038590E+04  0.26202038590E+04  0.00000000000E+00 0. -1.
          2   -1    0    0  501    0  0.00000000000E+00 -0.00000000000E+00 -0.90872434398E+03  0.90872434398E+03  0.00000000000E+00 0.  1.
    2000013    1    1    2    0    0 -0.68390391852E+03  0.66146924234E+03 -0.10047974317E+02  0.13445694813E+04  0.95000000000E+03 0.  0.
   -2000013    1    1    2    0    0  0.68390391852E+03 -0.66146924234E+03  0.17215274893E+04  0.21843587216E+04  0.95000000000E+03 0.  0.
<mgrwt>
<rscale>  0 0.30861257E+04</rscale>
<asrwt>0</asrwt>
<pdfrwt beam="2">  1        2 0.13980375E+00 0.30861257E+04</pdfrwt>
<pdfrwt beam="1">  1       -2 0.40310828E+00 0.30861257E+04</pdfrwt>
<totfact> 0.17399095E-01</totfact>
</mgrwt>
</event>
<event>
 4    1  0.2058093E-008  0.3423308E+04  0.7816531E-02  0.8132209E-01
         -2   -1    0    0    0  501 -0.00000000000E+00  0.00000000000E+00  0.85866466157E+03  0.85866466157E+03  0.00000000000E+00 0. -1.
          2   -1    0    0  501    0  0.00000000000E+00 -0.00000000000E+00 -0.34119947013E+04  0.34119947013E+04  0.00000000000E+00 0.  1.
    2000013    1    1    2    0    0 -0.12316524135E+04  0.42907990548E+03 -0.19891553785E+04  0.25613114517E+04  0.95000000000E+03 0.  0.
   -2000013    1    1    2    0    0  0.12316524135E+04 -0.42907990548E+03 -0.56417466124E+03  0.17093479111E+04  0.95000000000E+03 0.  0.
<mgrwt>
<rscale>  0 0.34233079E+04</rscale>
<asrwt>0</asrwt>
<pdfrwt beam="2">  1        2 0.52492227E+00 0.34233079E+04</pdfrwt>
<pdfrwt beam="1">  1       -2 0.13210225E+00 0.34233079E+04</pdfrwt>
<totfact> 0.32210397E-01</totfact>
</mgrwt>
</event>
<event>
 4    1  0.2058093E-008  0.2368005E+04  0.7816531E-02  0.8451580E-01
          2   -1    0    0  501    0  0.00000000000E+00  0.00000000000E+00  0.10414624123E+04  0.10414624123E+04  0.00000000000E+00 0.  1.
         -2   -1    0    0    0  501 -0.00000000000E+00 -0.00000000000E+00 -0.13460511229E+04  0.13460511229E+04  0.00000000000E+00 0. -1.
    2000013    1    1    2    0    0 -0.61462806381E+03 -0.34843013759E+03 -0.16620775096E+03  0.11955317788E+04  0.95000000000E+03 0.  0.
   -2000013    1    1    2    0    0  0.61462806381E+03  0.34843013759E+03 -0.13838095973E+03  0.11919817564E+04  0.95000000000E+03 0.  0.
<mgrwt>
<rscale>  0 0.23680048E+04</rscale>
<asrwt>0</asrwt>
<pdfrwt beam="1">  1        2 0.16022499E+00 0.23680048E+04</pdfrwt>
<pdfrwt beam="2">  1       -2 0.20708479E+00 0.23680048E+04</pdfrwt>
<totfact> 0.25547196E+00</totfact>
</mgrwt>
</event>
<event>
 4    1  0.2058093E-008  0.2179409E+04  0.7816531E-02  0.8527048E-01
          2   -1    0    0  501    0  0.00000000000E+00  0.00000000000E+00  0.14650468071E+04  0.14650468071E+04  0.00000000000E+00 0.  1.
         -2   -1    0    0    0  501 -0.00000000000E+00 -0.00000000000E+00 -0.81052404370E+03  0.81052404370E+03  0.00000000000E+00 0. -1.
    2000013    1    1    2    0    0  0.42483895443E+03  0.31286282213E+03  0.41198589758E+03  0.11621547498E+04  0.95000000000E+03 0.  0.
   -2000013    1    1    2    0    0 -0.42483895443E+03 -0.31286282213E+03  0.24253686580E+03  0.11134161010E+04  0.95000000000E+03 0.  0.
<mgrwt>
<rscale>  0 0.21794088E+04</rscale>
<asrwt>0</asrwt>
<pdfrwt beam="1">  1        2 0.22539182E+00 0.21794088E+04</pdfrwt>
<pdfrwt beam="2">  1       -2 0.12469601E+00 0.21794088E+04</pdfrwt>
<totfact> 0.58694241E+00</totfact>
</mgrwt>
</event>
<event>
 4    1  0.2058093E-008  0.3336590E+04  0.7816531E-02  0.8153647E-01
         -2   -1    0    0    0  501 -0.00000000000E+00  0.00000000000E+00  0.18564533805E+04  0.18564533805E+04  0.00000000000E+00 0. -1.
          2   -1    0    0  501    0  0.00000000000E+00 -0.00000000000E+00 -0.14992071831E+04  0.14992071831E+04  0.00000000000E+00 0.  1.
    2000013    1    1    2    0    0 -0.86813376786E+03  0.11223052941E+03  0.12403350390E+04  0.17908609493E+04  0.95000000000E+03 0.  0.
   -2000013    1    1    2    0    0  0.86813376786E+03 -0.11223052941E+03 -0.88308884162E+03  0.15647996143E+04  0.95000000000E+03 0.  0.
<mgrwt>
<rscale>  0 0.33365900E+04</rscale>
<asrwt>0</asrwt>
<pdfrwt beam="2">  1        2 0.23064726E+00 0.33365900E+04</pdfrwt>
<pdfrwt beam="1">  1       -2 0.28560821E+00 0.33365900E+04</pdfrwt>
<totfact> 0.41181814E-01</totfact>
</mgrwt>
</event>
<event>
 4    1  0.2058093E-008  0.2306586E+04  0.7816531E-02  0.8475329E-01
         -2   -1    0    0    0  501 -0.00000000000E+00  0.00000000000E+00  0.13793209038E+04  0.13793209038E+04  0.00000000000E+00 0. -1.
          2   -1    0    0  501    0  0.00000000000E+00 -0.00000000000E+00 -0.96430379761E+03  0.96430379761E+03  0.00000000000E+00 0.  1.
    2000013    1    1    2    0    0 -0.30269301663E+03  0.46708765769E+03 -0.14120875358E+03  0.11100602931E+04  0.95000000000E+03 0.  0.
   -2000013    1    1    2    0    0  0.30269301663E+03 -0.46708765769E+03  0.55622585972E+03  0.12335644083E+04  0.95000000000E+03 0.  0.
<mgrwt>
<rscale>  0 0.23065857E+04</rscale>
<asrwt>0</asrwt>
<pdfrwt beam="2">  1        2 0.14835443E+00 0.23065857E+04</pdfrwt>
<pdfrwt beam="1">  1       -2 0.21220322E+00 0.23065857E+04</pdfrwt>
<totfact> 0.26675425E+00</totfact>
</mgrwt>
</event>
<event>
 4    1  0.2058093E-008  0.2195162E+04  0.7816531E-02  0.8520445E-01
         -2   -1    0    0    0  501 -0.00000000000E+00  0.00000000000E+00  0.41443151074E+03  0.41443151074E+03  0.00000000000E+00 0. -1.
          2   -1    0    0  501    0  0.00000000000E+00 -0.00000000000E+00 -0.29068346635E+04  0.29068346635E+04  0.00000000000E+00 0.  1.
    2000013    1    1    2    0    0  0.90030500718E+02  0.51861590233E+03 -0.14859809492E+04  0.18405725540E+04  0.95000000000E+03 0.  0.
   -2000013    1    1    2    0    0 -0.90030500718E+02 -0.51861590233E+03 -0.10064222036E+04  0.14806936203E+04  0.95000000000E+03 0.  0.
<mgrwt>
<rscale>  0 0.21951618E+04</rscale>
<asrwt>0</asrwt>
<pdfrwt beam="2">  1        2 0.44720533E+00 0.21951618E+04</pdfrwt>
<pdfrwt beam="1">  1       -2 0.63758694E-01 0.21951618E+04</pdfrwt>
<totfact> 0.41439049E+00</totfact>
</mgrwt>
</event>
<event>
 4    1  0.2058093E-008  0.2160686E+04  0.7816531E-02  0.8534972E-01
          2   -1    0    0  501    0  0.00000000000E+00  0.00000000000E+00  0.11772478216E+04  0.11772478216E+04  0.00000000000E+00 0. -1.
         -2   -1    0    0    0  501 -0.00000000000E+00 -0.00000000000E+00 -0.99141530101E+03  0.99141530101E+03  0.00000000000E+00 0.  1.
    2000013    1    1    2    0    0 -0.15804579768E+03 -0.43701837404E+03 -0.12852909307E+03  0.10653559317E+04  0.95000000000E+03 0.  0.
   -2000013    1    1    2    0    0  0.15804579768E+03  0.43701837404E+03  0.31436161368E+03  0.11033071909E+04  0.95000000000E+03 0.  0.
<mgrwt>
<rscale>  0 0.21606865E+04</rscale>
<asrwt>0</asrwt>
<pdfrwt beam="1">  1        2 0.18111505E+00 0.21606865E+04</pdfrwt>
<pdfrwt beam="2">  1       -2 0.15252543E+00 0.21606865E+04</pdfrwt>
<totfact> 0.51372218E+00</totfact>
</mgrwt>
</event>
<event>
 4    1  0.2058093E-008  0.2527534E+04  0.7816531E-02  0.8393242E-01
          2   -1    0    0  501    0  0.00000000000E+00  0.00000000000E+00  0.13987928836E+04  0.13987928836E+04  0.00000000000E+00 0.  1.
         -2   -1    0    0    0  501 -0.00000000000E+00 -0.00000000000E+00 -0.11417753321E+04  0.11417753321E+04  0.00000000000E+00 0. -1.
    2000013    1    1    2    0    0 -0.91933427257E+02  0.56732997919E+03  0.73518745907E+03  0.13316589880E+04  0.95000000000E+03 0.  0.
   -2000013    1    1    2    0    0  0.91933427257E+02 -0.56732997919E+03 -0.47816990760E+03  0.12089092277E+04  0.95000000000E+03 0.  0.
<mgrwt>
<rscale>  0 0.25275341E+04</rscale>
<asrwt>0</asrwt>
<pdfrwt beam="1">  1        2 0.21519891E+00 0.25275341E+04</pdfrwt>
<pdfrwt beam="2">  1       -2 0.17565774E+00 0.25275341E+04</pdfrwt>
<totfact> 0.25075621E+00</totfact>
</mgrwt>
</event>
<event>
 4    1  0.2058093E-008  0.2338981E+04  0.7816531E-02  0.8462708E-01
         -2   -1    0    0    0  501 -0.00000000000E+00  0.00000000000E+00  0.46666406131E+03  0.46666406131E+03  0.00000000000E+00 0. -1.
          2   -1    0    0  501    0  0.00000000000E+00 -0.00000000000E+00 -0.29308188596E+04  0.29308188596E+04  0.00000000000E+00 0.  1.
    2000013    1    1    2    0    0  0.51997437900E+03 -0.36377040035E+03 -0.86892410333E+03  0.14353506040E+04  0.95000000000E+03 0.  0.
   -2000013    1    1    2    0    0 -0.51997437900E+03  0.36377040035E+03 -0.15952306950E+04  0.19621323170E+04  0.95000000000E+03 0.  0.
<mgrwt>
<rscale>  0 0.23389808E+04</rscale>
<asrwt>0</asrwt>
<pdfrwt beam="2">  1        2 0.45089521E+00 0.23389808E+04</pdfrwt>
<pdfrwt beam="1">  1       -2 0.71794471E-01 0.23389808E+04</pdfrwt>
<totfact> 0.30575871E+00</totfact>
</mgrwt>
</event>
<event>
 4    1  0.2058093E-008  0.1957799E+04  0.7816531E-02  0.8626609E-01
         -1   -1    0    0    0  501 -0.00000000000E+00  0.00000000000E+00  0.49638986896E+03  0.49638986896E+03  0.00000000000E+00 0. -1.
          1   -1    0    0  501    0  0.00000000000E+00 -0.00000000000E+00 -0.19304260421E+04  0.19304260421E+04  0.00000000000E+00 0.  1.
    2000013    1    1    2    0    0  0.23527662056E+03  0.10744175791E+02 -0.69652196515E+03  0.12012965385E+04  0.95000000000E+03 0.  0.
   -2000013    1    1    2    0    0 -0.23527662056E+03 -0.10744175791E+02 -0.73751420796E+03  0.12255193725E+04  0.95000000000E+03 0.  0.
<mgrwt>
<rscale>  0 0.19577987E+04</rscale>
<asrwt>0</asrwt>
<pdfrwt beam="2">  1        1 0.29698862E+00 0.19577987E+04</pdfrwt>
<pdfrwt beam="1">  1       -1 0.76367672E-01 0.19577987E+04</pdfrwt>
<totfact> 0.53238318E+00</totfact>
</mgrwt>
</event>
<event>
 4    1  0.2058093E-008  0.2680233E+04  0.7816531E-02  0.8341447E-01
         -2   -1    0    0    0  501 -0.00000000000E+00  0.00000000000E+00  0.62579507047E+03  0.62579507047E+03  0.00000000000E+00 0. -1.
          2   -1    0    0  501    0  0.00000000000E+00 -0.00000000000E+00 -0.28698078358E+04  0.28698078358E+04  0.00000000000E+00 0.  1.
    2000013    1    1    2    0    0  0.38673938956E+03 -0.40597622170E+03 -0.21144348931E+04  0.23848939106E+04  0.95000000000E+03 0.  0.
   -2000013    1    1    2    0    0 -0.38673938956E+03  0.40597622170E+03 -0.12957787229E+03  0.11107089956E+04  0.95000000000E+03 0.  0.
<mgrwt>
<rscale>  0 0.26802325E+04</rscale>
<asrwt>0</asrwt>
<pdfrwt beam="2">  1        2 0.44150890E+00 0.26802325E+04</pdfrwt>
<pdfrwt beam="1">  1       -2 0.96276163E-01 0.26802325E+04</pdfrwt>
<totfact> 0.16638211E+00</totfact>
</mgrwt>
</event>
<event>
 4    1  0.2058093E-008  0.2423526E+04  0.7816531E-02  0.8430748E-01
         -2   -1    0    0    0  501 -0.00000000000E+00  0.00000000000E+00  0.64187109365E+03  0.64187109365E+03  0.00000000000E+00 0. -1.
          2   -1    0    0  501    0  0.00000000000E+00 -0.00000000000E+00 -0.22876396680E+04  0.22876396680E+04  0.00000000000E+00 0.  1.
    2000013    1    1    2    0    0  0.65310234836E+03  0.12211364588E+03 -0.12492520654E+04  0.17042843492E+04  0.95000000000E+03 0.  0.
   -2000013    1    1    2    0    0 -0.65310234836E+03 -0.12211364588E+03 -0.39651650892E+03  0.12252264125E+04  0.95000000000E+03 0.  0.
<mgrwt>
<rscale>  0 0.24235262E+04</rscale>
<asrwt>0</asrwt>
<pdfrwt beam="2">  1        2 0.35194457E+00 0.24235262E+04</pdfrwt>
<pdfrwt beam="1">  1       -2 0.98749397E-01 0.24235262E+04</pdfrwt>
<totfact> 0.35183692E+00</totfact>
</mgrwt>
</event>
<event>
 4    1  0.2058093E-008  0.2103491E+04  0.7816531E-02  0.8559707E-01
         -1   -1    0    0    0  501 -0.00000000000E+00  0.00000000000E+00  0.32741446696E+03  0.32741446696E+03  0.00000000000E+00 0. -1.
          1   -1    0    0  501    0  0.00000000000E+00 -0.00000000000E+00 -0.33784955359E+04  0.33784955359E+04  0.00000000000E+00 0.  1.
    2000013    1    1    2    0    0 -0.27802785908E+03 -0.40210709531E+02 -0.90327192894E+03  0.13406403579E+04  0.95000000000E+03 0.  0.
   -2000013    1    1    2    0    0  0.27802785908E+03  0.40210709531E+02 -0.21478091400E+04  0.23652696450E+04  0.95000000000E+03 0.  0.
<mgrwt>
<rscale>  0 0.21034907E+04</rscale>
<asrwt>0</asrwt>
<pdfrwt beam="2">  1        1 0.51976854E+00 0.21034907E+04</pdfrwt>
<pdfrwt beam="1">  1       -1 0.50371457E-01 0.21034907E+04</pdfrwt>
<totfact> 0.11344397E+00</totfact>
</mgrwt>
</event>
<event>
 4    1  0.2058093E-008  0.2603499E+04  0.7816531E-02  0.8367014E-01
          2   -1    0    0  501    0  0.00000000000E+00  0.00000000000E+00  0.15675339039E+04  0.15675339039E+04  0.00000000000E+00 0.  1.
         -2   -1    0    0    0  501 -0.00000000000E+00 -0.00000000000E+00 -0.10810299784E+04  0.10810299784E+04  0.00000000000E+00 0. -1.
    2000013    1    1    2    0    0  0.54400553911E+03  0.69826704868E+03  0.14928292905E+03  0.13070211516E+04  0.95000000000E+03 0.  0.
   -2000013    1    1    2    0    0 -0.54400553911E+03 -0.69826704868E+03  0.33722099637E+03  0.13415427307E+04  0.95000000000E+03 0.  0.
<mgrwt>
<rscale>  0 0.26034985E+04</rscale>
<asrwt>0</asrwt>
<pdfrwt beam="1">  1        2 0.24115906E+00 0.26034985E+04</pdfrwt>
<pdfrwt beam="2">  1       -2 0.16631230E+00 0.26034985E+04</pdfrwt>
<totfact> 0.23297780E+00</totfact>
</mgrwt>
</event>
<event>
 4    1  0.2058093E-008  0.2429097E+04  0.7816531E-02  0.8428690E-01
          2   -1    0    0  501    0  0.00000000000E+00  0.00000000000E+00  0.31583476871E+04  0.31583476871E+04  0.00000000000E+00 0.  1.
         -2   -1    0    0    0  501 -0.00000000000E+00 -0.00000000000E+00 -0.46705674268E+03  0.46705674268E+03  0.00000000000E+00 0. -1.
    2000013    1    1    2    0    0 -0.35383303275E+02 -0.73038579740E+03  0.16362491590E+04  0.20284296147E+04  0.95000000000E+03 0.  0.
   -2000013    1    1    2    0    0  0.35383303275E+02  0.73038579740E+03  0.10550417854E+04  0.15969748151E+04  0.95000000000E+03 0.  0.
<mgrwt>
<rscale>  0 0.24290966E+04</rscale>
<asrwt>0</asrwt>
<pdfrwt beam="1">  1        2 0.48589963E+00 0.24290966E+04</pdfrwt>
<pdfrwt beam="2">  1       -2 0.71854886E-01 0.24290966E+04</pdfrwt>
<totfact> 0.21749135E+00</totfact>
</mgrwt>
</event>
<event>
 4    1  0.2058093E-008  0.2620126E+04  0.7816531E-02  0.8361397E-01
          2   -1    0    0  501    0  0.00000000000E+00  0.00000000000E+00  0.26665109296E+04  0.26665109296E+04  0.00000000000E+00 0.  1.
         -2   -1    0    0    0  501 -0.00000000000E+00 -0.00000000000E+00 -0.64363709421E+03  0.64363709421E+03  0.00000000000E+00 0. -1.
    2000013    1    1    2    0    0  0.24862834122E+03 -0.77844917400E+03  0.14941080449E+04  0.19500405171E+04  0.95000000000E+03 0.  0.
   -2000013    1    1    2    0    0 -0.24862834122E+03  0.77844917400E+03  0.52876579047E+03  0.13601075067E+04  0.95000000000E+03 0.  0.
<mgrwt>
<rscale>  0 0.26201262E+04</rscale>
<asrwt>0</asrwt>
<pdfrwt beam="1">  1        2 0.41023244E+00 0.26201262E+04</pdfrwt>
<pdfrwt beam="2">  1       -2 0.99021093E-01 0.26201262E+04</pdfrwt>
<totfact> 0.20752044E+00</totfact>
</mgrwt>
</event>
<event>
 4    1  0.2058093E-008  0.3520419E+04  0.7816531E-02  0.8108968E-01
         -1   -1    0    0    0  501 -0.00000000000E+00  0.00000000000E+00  0.16129810624E+04  0.16129810624E+04  0.00000000000E+00 0.  1.
          1   -1    0    0  501    0  0.00000000000E+00 -0.00000000000E+00 -0.19208764410E+04  0.19208764410E+04  0.00000000000E+00 0. -1.
    2000013    1    1    2    0    0  0.58858708608E+03  0.13508219535E+04 -0.31165443445E+03  0.17806693108E+04  0.95000000000E+03 0.  0.
   -2000013    1    1    2    0    0 -0.58858708608E+03 -0.13508219535E+04  0.37590558217E+01  0.17531881925E+04  0.95000000000E+03 0.  0.
<mgrwt>
<rscale>  0 0.35204189E+04</rscale>
<asrwt>0</asrwt>
<pdfrwt beam="2">  1        1 0.29551945E+00 0.35204189E+04</pdfrwt>
<pdfrwt beam="1">  1       -1 0.24815093E+00 0.35204189E+04</pdfrwt>
<totfact> 0.19690642E-01</totfact>
</mgrwt>
</event>
<event>
 4    1  0.2058093E-008  0.3021375E+04  0.7816531E-02  0.8237653E-01
         -2   -1    0    0    0  501 -0.00000000000E+00  0.00000000000E+00  0.72698261354E+03  0.72698261354E+03  0.00000000000E+00 0. -1.
          2   -1    0    0  501    0  0.00000000000E+00 -0.00000000000E+00 -0.31392458415E+04  0.31392458415E+04  0.00000000000E+00 0.  1.
    2000013    1    1    2    0    0 -0.56170562244E+03  0.87654427955E+03 -0.51013531128E+03  0.14988599388E+04  0.95000000000E+03 0.  0.
   -2000013    1    1    2    0    0  0.56170562244E+03 -0.87654427955E+03 -0.19021279167E+04  0.23673685163E+04  0.95000000000E+03 0.  0.
<mgrwt>
<rscale>  0 0.30213753E+04</rscale>
<asrwt>0</asrwt>
<pdfrwt beam="2">  1        2 0.48296089E+00 0.30213753E+04</pdfrwt>
<pdfrwt beam="1">  1       -2 0.11184348E+00 0.30213753E+04</pdfrwt>
<totfact> 0.76516178E-01</totfact>
</mgrwt>
</event>
<event>
 4    1  0.2058093E-008  0.2069765E+04  0.7816531E-02  0.8574680E-01
         -2   -1    0    0    0  501 -0.00000000000E+00  0.00000000000E+00  0.15583028305E+04  0.15583028305E+04  0.00000000000E+00 0. -1.
          2   -1    0    0  501    0  0.00000000000E+00 -0.00000000000E+00 -0.68727454402E+03  0.68727454402E+03  0.00000000000E+00 0.  1.
    2000013    1    1    2    0    0 -0.16302321563E+03 -0.36456480541E+03  0.33259997602E+03  0.10828697106E+04  0.95000000000E+03 0.  0.
   -2000013    1    1    2    0    0  0.16302321563E+03  0.36456480541E+03  0.53842831051E+03  0.11627076639E+04  0.95000000000E+03 0.  0.
<mgrwt>
<rscale>  0 0.20697651E+04</rscale>
<asrwt>0</asrwt>
<pdfrwt beam="2">  1        2 0.10573455E+00 0.20697651E+04</pdfrwt>
<pdfrwt beam="1">  1       -2 0.23973890E+00 0.20697651E+04</pdfrwt>
<totfact> 0.28794666E+00</totfact>
</mgrwt>
</event>
<event>
 4    1  0.2058093E-008  0.3110026E+04  0.7816531E-02  0.8212992E-01
          2   -1    0    0  501    0  0.00000000000E+00  0.00000000000E+00  0.27261740984E+04  0.27261740984E+04  0.00000000000E+00 0.  1.
         -2   -1    0    0    0  501 -0.00000000000E+00 -0.00000000000E+00 -0.88698115721E+03  0.88698115721E+03  0.00000000000E+00 0. -1.
    2000013    1    1    2    0    0  0.10514513519E+03  0.11981880340E+04  0.61474355413E+03  0.16513993162E+04  0.95000000000E+03 0.  0.
   -2000013    1    1    2    0    0 -0.10514513519E+03 -0.11981880340E+04  0.12244493871E+04  0.19617559394E+04  0.95000000000E+03 0.  0.
<mgrwt>
<rscale>  0 0.31100258E+04</rscale>
<asrwt>0</asrwt>
<pdfrwt beam="1">  1        2 0.41941140E+00 0.31100258E+04</pdfrwt>
<pdfrwt beam="2">  1       -2 0.13645864E+00 0.31100258E+04</pdfrwt>
<totfact> 0.83369267E-01</totfact>
</mgrwt>
</event>
<event>
 4    1  0.2058093E-008  0.2321829E+04  0.7816531E-02  0.8469364E-01
          1   -1    0    0  501    0  0.00000000000E+00  0.00000000000E+00  0.11621016667E+04  0.11621016667E+04  0.00000000000E+00 0.  1.
         -1   -1    0    0    0  501 -0.00000000000E+00 -0.00000000000E+00 -0.11597282398E+04  0.11597282398E+04  0.00000000000E+00 0. -1.
    2000013    1    1    2    0    0 -0.64399260476E+03  0.17206187691E+03 -0.28652133629E+02  0.11608844513E+04  0.95000000000E+03 0.  0.
   -2000013    1    1    2    0    0  0.64399260476E+03 -0.17206187691E+03  0.31025560477E+02  0.11609454552E+04  0.95000000000E+03 0.  0.
<mgrwt>
<rscale>  0 0.23218287E+04</rscale>
<asrwt>0</asrwt>
<pdfrwt beam="1">  1        1 0.17878487E+00 0.23218287E+04</pdfrwt>
<pdfrwt beam="2">  1       -1 0.17841973E+00 0.23218287E+04</pdfrwt>
<totfact> 0.21963056E+00</totfact>
</mgrwt>
</event>
<event>
 4    1  0.2058093E-008  0.2284499E+04  0.7816531E-02  0.8484058E-01
         -2   -1    0    0    0  501 -0.00000000000E+00  0.00000000000E+00  0.90930800629E+03  0.90930800629E+03  0.00000000000E+00 0.  1.
          2   -1    0    0  501    0  0.00000000000E+00 -0.00000000000E+00 -0.14348648699E+04  0.14348648699E+04  0.00000000000E+00 0. -1.
    2000013    1    1    2    0    0 -0.20911051514E+03  0.36454774059E+03 -0.75017176766E+03  0.12813586320E+04  0.95000000000E+03 0.  0.
   -2000013    1    1    2    0    0  0.20911051514E+03 -0.36454774059E+03  0.22461490401E+03  0.10628142443E+04  0.95000000000E+03 0.  0.
<mgrwt>
<rscale>  0 0.22844992E+04</rscale>
<asrwt>0</asrwt>
<pdfrwt beam="2">  1        2 0.22074844E+00 0.22844992E+04</pdfrwt>
<pdfrwt beam="1">  1       -2 0.13989354E+00 0.22844992E+04</pdfrwt>
<totfact> 0.45160336E+00</totfact>
</mgrwt>
</event>
<event>
 4    1  0.2058093E-008  0.2970032E+04  0.7816531E-02  0.8252340E-01
         -2   -1    0    0    0  501 -0.00000000000E+00  0.00000000000E+00  0.80916480334E+03  0.80916480334E+03  0.00000000000E+00 0. -1.
          2   -1    0    0  501    0  0.00000000000E+00 -0.00000000000E+00 -0.27253691789E+04  0.27253691789E+04  0.00000000000E+00 0.  1.
    2000013    1    1    2    0    0  0.28001780531E+02 -0.87983618048E+03 -0.93458095500E+02  0.12985107700E+04  0.95000000000E+03 0.  0.
   -2000013    1    1    2    0    0 -0.28001780531E+02  0.87983618048E+03 -0.18227462801E+04  0.22360232122E+04  0.95000000000E+03 0.  0.
<mgrwt>
<rscale>  0 0.29700322E+04</rscale>
<asrwt>0</asrwt>
<pdfrwt beam="2">  1        2 0.41928758E+00 0.29700322E+04</pdfrwt>
<pdfrwt beam="1">  1       -2 0.12448689E+00 0.29700322E+04</pdfrwt>
<totfact> 0.10656969E+00</totfact>
</mgrwt>
</event>
<event>
 4    1  0.2058093E-008  0.4914118E+04  0.7816531E-02  0.7841894E-01
          2   -1    0    0  501    0  0.00000000000E+00  0.00000000000E+00  0.44473369609E+04  0.44473369609E+04  0.00000000000E+00 0.  1.
         -2   -1    0    0    0  501 -0.00000000000E+00 -0.00000000000E+00 -0.13574728964E+04  0.13574728964E+04  0.00000000000E+00 0. -1.
    2000013    1    1    2    0    0 -0.21522327762E+04  0.63686004224E+02  0.71093365517E+03  0.24584727967E+04  0.95000000000E+03 0.  0.
   -2000013    1    1    2    0    0  0.21522327762E+04 -0.63686004224E+02  0.23789304094E+04  0.33463370606E+04  0.95000000000E+03 0.  0.
<mgrwt>
<rscale>  0 0.49141182E+04</rscale>
<asrwt>0</asrwt>
<pdfrwt beam="1">  1        2 0.68420568E+00 0.49141182E+04</pdfrwt>
<pdfrwt beam="2">  1       -2 0.20884199E+00 0.49141182E+04</pdfrwt>
<totfact> 0.11713715E-02</totfact>
</mgrwt>
</event>
<event>
 4    1  0.2058093E-008  0.2077367E+04  0.7816531E-02  0.8571280E-01
         -2   -1    0    0    0  501 -0.00000000000E+00  0.00000000000E+00  0.77254900264E+03  0.77254900264E+03  0.00000000000E+00 0. -1.
          2   -1    0    0  501    0  0.00000000000E+00 -0.00000000000E+00 -0.13964981527E+04  0.13964981527E+04  0.00000000000E+00 0.  1.
    2000013    1    1    2    0    0  0.30652856263E+03 -0.26026426297E+03 -0.43842251756E+03  0.11208976538E+04  0.95000000000E+03 0.  0.
   -2000013    1    1    2    0    0 -0.30652856263E+03  0.26026426297E+03 -0.18552663249E+03  0.10481495016E+04  0.95000000000E+03 0.  0.
<mgrwt>
<rscale>  0 0.20773668E+04</rscale>
<asrwt>0</asrwt>
<pdfrwt beam="2">  1        2 0.21484587E+00 0.20773668E+04</pdfrwt>
<pdfrwt beam="1">  1       -2 0.11885369E+00 0.20773668E+04</pdfrwt>
<totfact> 0.73003936E+00</totfact>
</mgrwt>
</event>
<event>
 4    1  0.2058093E-008  0.3268712E+04  0.7816531E-02  0.8170903E-01
         -2   -1    0    0    0  501 -0.00000000000E+00  0.00000000000E+00  0.92991514106E+03  0.92991514106E+03  0.00000000000E+00 0. -1.
          2   -1    0    0  501    0  0.00000000000E+00 -0.00000000000E+00 -0.28724334887E+04  0.28724334887E+04  0.00000000000E+00 0.  1.
    2000013    1    1    2    0    0 -0.37142048298E+03  0.11683409804E+04 -0.15708107899E+04  0.22074692205E+04  0.95000000000E+03 0.  0.
   -2000013    1    1    2    0    0  0.37142048298E+03 -0.11683409804E+04 -0.37170755780E+03  0.15948794093E+04  0.95000000000E+03 0.  0.
<mgrwt>
<rscale>  0 0.32687119E+04</rscale>
<asrwt>0</asrwt>
<pdfrwt beam="2">  1        2 0.44191284E+00 0.32687119E+04</pdfrwt>
<pdfrwt beam="1">  1       -2 0.14306387E+00 0.32687119E+04</pdfrwt>
<totfact> 0.59339398E-01</totfact>
</mgrwt>
</event>
<event>
 4    1  0.2058093E-008  0.2811710E+04  0.7816531E-02  0.8299642E-01
          2   -1    0    0  501    0  0.00000000000E+00  0.00000000000E+00  0.16376054203E+04  0.16376054203E+04  0.00000000000E+00 0.  1.
         -2   -1    0    0    0  501 -0.00000000000E+00 -0.00000000000E+00 -0.12069011711E+04  0.12069011711E+04  0.00000000000E+00 0. -1.
    2000013    1    1    2    0    0 -0.37201284732E+03  0.80622259029E+03  0.75594403176E+03  0.15041076434E+04  0.95000000000E+03 0.  0.
   -2000013    1    1    2    0    0  0.37201284732E+03 -0.80622259029E+03 -0.32523978255E+03  0.13403989480E+04  0.95000000000E+03 0.  0.
<mgrwt>
<rscale>  0 0.28117097E+04</rscale>
<asrwt>0</asrwt>
<pdfrwt beam="1">  1        2 0.25193930E+00 0.28117097E+04</pdfrwt>
<pdfrwt beam="2">  1       -2 0.18567710E+00 0.28117097E+04</pdfrwt>
<totfact> 0.15314586E+00</totfact>
</mgrwt>
</event>
<event>
 4    1  0.2058093E-008  0.2573232E+04  0.7816531E-02  0.8377351E-01
         -1   -1    0    0    0  501 -0.00000000000E+00  0.00000000000E+00  0.55877309802E+03  0.55877309802E+03  0.00000000000E+00 0. -1.
          1   -1    0    0  501    0  0.00000000000E+00 -0.00000000000E+00 -0.29625265015E+04  0.29625265015E+04  0.00000000000E+00 0.  1.
    2000013    1    1    2    0    0  0.86379155999E+03  0.58213225820E+01 -0.13139745210E+04  0.18371714098E+04  0.95000000000E+03 0.  0.
   -2000013    1    1    2    0    0 -0.86379155999E+03 -0.58213225820E+01 -0.10897788824E+04  0.16841281898E+04  0.95000000000E+03 0.  0.
<mgrwt>
<rscale>  0 0.25732315E+04</rscale>
<asrwt>0</asrwt>
<pdfrwt beam="2">  1        1 0.45577331E+00 0.25732315E+04</pdfrwt>
<pdfrwt beam="1">  1       -1 0.85965092E-01 0.25732315E+04</pdfrwt>
<totfact> 0.75048128E-01</totfact>
</mgrwt>
</event>
<event>
 4    1  0.2058093E-008  0.2336691E+04  0.7816531E-02  0.8463593E-01
          2   -1    0    0  501    0  0.00000000000E+00  0.00000000000E+00  0.10883990635E+04  0.10883990635E+04  0.00000000000E+00 0. -1.
         -2   -1    0    0    0  501 -0.00000000000E+00 -0.00000000000E+00 -0.12541642671E+04  0.12541642671E+04  0.00000000000E+00 0.  1.
    2000013    1    1    2    0    0 -0.52725737430E+03 -0.25276590516E+03  0.26532336451E+03  0.11466418051E+04  0.95000000000E+03 0.  0.
   -2000013    1    1    2    0    0  0.52725737430E+03  0.25276590516E+03 -0.43108856807E+03  0.11959215255E+04  0.95000000000E+03 0.  0.
<mgrwt>
<rscale>  0 0.23366910E+04</rscale>
<asrwt>0</asrwt>
<pdfrwt beam="1">  1        2 0.16744601E+00 0.23366910E+04</pdfrwt>
<pdfrwt beam="2">  1       -2 0.19294835E+00 0.23366910E+04</pdfrwt>
<totfact> 0.29649576E+00</totfact>
</mgrwt>
</event>
<event>
 4    1  0.2058093E-008  0.3025244E+04  0.7816531E-02  0.8236559E-01
         -2   -1    0    0    0  501 -0.00000000000E+00  0.00000000000E+00  0.92812492805E+03  0.92812492805E+03  0.00000000000E+00 0. -1.
          2   -1    0    0  501    0  0.00000000000E+00 -0.00000000000E+00 -0.24652121105E+04  0.24652121105E+04  0.00000000000E+00 0.  1.
    2000013    1    1    2    0    0  0.66694217409E+03 -0.77902540833E+03 -0.14166269273E+04  0.19902322230E+04  0.95000000000E+03 0.  0.
   -2000013    1    1    2    0    0 -0.66694217409E+03  0.77902540833E+03 -0.12046025519E+03  0.14031048156E+04  0.95000000000E+03 0.  0.
<mgrwt>
<rscale>  0 0.30252437E+04</rscale>
<asrwt>0</asrwt>
<pdfrwt beam="2">  1        2 0.37926340E+00 0.30252437E+04</pdfrwt>
<pdfrwt beam="1">  1       -2 0.14278845E+00 0.30252437E+04</pdfrwt>
<totfact> 0.10624440E+00</totfact>
</mgrwt>
</event>
<event>
 4    1  0.2058093E-008  0.2303267E+04  0.7816531E-02  0.8476634E-01
         -2   -1    0    0    0  501 -0.00000000000E+00  0.00000000000E+00  0.30163545198E+04  0.30163545198E+04  0.00000000000E+00 0. -1.
          2   -1    0    0  501    0  0.00000000000E+00 -0.00000000000E+00 -0.43968953085E+03  0.43968953085E+03  0.00000000000E+00 0.  1.
    2000013    1    1    2    0    0  0.22760948035E+03 -0.46133257254E+03  0.68977597819E+03  0.12817662494E+04  0.95000000000E+03 0.  0.
   -2000013    1    1    2    0    0 -0.22760948035E+03  0.46133257254E+03  0.18868890107E+04  0.21742778012E+04  0.95000000000E+03 0.  0.
<mgrwt>
<rscale>  0 0.23032668E+04</rscale>
<asrwt>0</asrwt>
<pdfrwt beam="2">  1        2 0.67644545E-01 0.23032668E+04</pdfrwt>
<pdfrwt beam="1">  1       -2 0.46405453E+00 0.23032668E+04</pdfrwt>
<totfact> 0.18134522E-01</totfact>
</mgrwt>
</event>
<event>
 4    1  0.2058093E-008  0.1950451E+04  0.7816531E-02  0.8630143E-01
          2   -1    0    0  501    0  0.00000000000E+00  0.00000000000E+00  0.10743754028E+04  0.10743754028E+04  0.00000000000E+00 0.  1.
         -2   -1    0    0    0  501 -0.00000000000E+00 -0.00000000000E+00 -0.88522561031E+03  0.88522561031E+03  0.00000000000E+00 0. -1.
    2000013    1    1    2    0    0 -0.10661562942E+03 -0.16096298047E+03  0.20132138899E+03  0.99010417390E+03  0.95000000000E+03 0.  0.
   -2000013    1    1    2    0    0  0.10661562942E+03  0.16096298047E+03 -0.12171596475E+02  0.96949683923E+03  0.95000000000E+03 0.  0.
<mgrwt>
<rscale>  0 0.19504508E+04</rscale>
<asrwt>0</asrwt>
<pdfrwt beam="1">  1        2 0.16528852E+00 0.19504508E+04</pdfrwt>
<pdfrwt beam="2">  1       -2 0.13618855E+00 0.19504508E+04</pdfrwt>
<totfact> 0.81320473E+00</totfact>
</mgrwt>
</event>
<event>
 4    1  0.2058093E-008  0.2269456E+04  0.7816531E-02  0.8490062E-01
          2   -1    0    0  501    0  0.00000000000E+00  0.00000000000E+00  0.22455819992E+04  0.22455819992E+04  0.00000000000E+00 0.  1.
         -2   -1    0    0    0  501 -0.00000000000E+00 -0.00000000000E+00 -0.57339617300E+03  0.57339617300E+03  0.00000000000E+00 0. -1.
    2000013    1    1    2    0    0  0.17166597416E+02  0.54423368472E+03  0.12058728999E+04  0.16288383733E+04  0.95000000000E+03 0.  0.
   -2000013    1    1    2    0    0 -0.17166597416E+02 -0.54423368472E+03  0.46631292631E+03  0.11901397989E+04  0.95000000000E+03 0.  0.
<mgrwt>
<rscale>  0 0.22694564E+04</rscale>
<asrwt>0</asrwt>
<pdfrwt beam="1">  1        2 0.34547415E+00 0.22694564E+04</pdfrwt>
<pdfrwt beam="2">  1       -2 0.88214797E-01 0.22694564E+04</pdfrwt>
<totfact> 0.48950633E+00</totfact>
</mgrwt>
</event>
<event>
 4    1  0.2058093E-008  0.3095829E+04  0.7816531E-02  0.8216884E-01
          2   -1    0    0  501    0  0.00000000000E+00  0.00000000000E+00  0.12547235258E+04  0.12547235258E+04  0.00000000000E+00 0.  1.
         -2   -1    0    0    0  501 -0.00000000000E+00 -0.00000000000E+00 -0.19096154213E+04  0.19096154213E+04  0.00000000000E+00 0. -1.
    2000013    1    1    2    0    0  0.96822013663E+03 -0.72871527636E+03 -0.16562887250E+03  0.15486797960E+04  0.95000000000E+03 0.  0.
   -2000013    1    1    2    0    0 -0.96822013663E+03  0.72871527636E+03 -0.48926302306E+03  0.16156591512E+04  0.95000000000E+03 0.  0.
<mgrwt>
<rscale>  0 0.30958291E+04</rscale>
<asrwt>0</asrwt>
<pdfrwt beam="1">  1        2 0.19303439E+00 0.30958291E+04</pdfrwt>
<pdfrwt beam="2">  1       -2 0.29378698E+00 0.30958291E+04</pdfrwt>
<totfact> 0.51776154E-01</totfact>
</mgrwt>
</event>
<event>
 4    1  0.2058093E-008  0.2612968E+04  0.7816531E-02  0.8363810E-01
         -2   -1    0    0    0  501 -0.00000000000E+00  0.00000000000E+00  0.11553249463E+04  0.11553249463E+04  0.00000000000E+00 0. -1.
          2   -1    0    0  501    0  0.00000000000E+00 -0.00000000000E+00 -0.14774198722E+04  0.14774198722E+04  0.00000000000E+00 0.  1.
    2000013    1    1    2    0    0  0.65328270311E+03 -0.31944338143E+03  0.36788075825E+03  0.12516623412E+04  0.95000000000E+03 0.  0.
   -2000013    1    1    2    0    0 -0.65328270311E+03  0.31944338143E+03 -0.68997568416E+03  0.13810824772E+04  0.95000000000E+03 0.  0.
<mgrwt>
<rscale>  0 0.26129677E+04</rscale>
<asrwt>0</asrwt>
<pdfrwt beam="2">  1        2 0.22729536E+00 0.26129677E+04</pdfrwt>
<pdfrwt beam="1">  1       -2 0.17774230E+00 0.26129677E+04</pdfrwt>
<totfact> 0.21718453E+00</totfact>
</mgrwt>
</event>
<event>
 4    1  0.2058093E-008  0.2118146E+04  0.7816531E-02  0.8553292E-01
          2   -1    0    0  501    0  0.00000000000E+00  0.00000000000E+00  0.26884723710E+04  0.26884723710E+04  0.00000000000E+00 0.  1.
         -2   -1    0    0    0  501 -0.00000000000E+00 -0.00000000000E+00 -0.41720168536E+03  0.41720168536E+03  0.00000000000E+00 0. -1.
    2000013    1    1    2    0    0 -0.25030430665E+03  0.34170261282E+03  0.84341048131E+03  0.13391244011E+04  0.95000000000E+03 0.  0.
   -2000013    1    1    2    0    0  0.25030430665E+03 -0.34170261282E+03  0.14278602043E+04  0.17665496553E+04  0.95000000000E+03 0.  0.
<mgrwt>
<rscale>  0 0.21181456E+04</rscale>
<asrwt>0</asrwt>
<pdfrwt beam="1">  1        2 0.41361112E+00 0.21181456E+04</pdfrwt>
<pdfrwt beam="2">  1       -2 0.64184876E-01 0.21181456E+04</pdfrwt>
<totfact> 0.55724373E+00</totfact>
</mgrwt>
</event>
<event>
 4    1  0.2058093E-008  0.2421953E+04  0.7816531E-02  0.8431330E-01
          1   -1    0    0  501    0  0.00000000000E+00  0.00000000000E+00  0.23175015610E+04  0.23175015610E+04  0.00000000000E+00 0.  1.
         -1   -1    0    0    0  501 -0.00000000000E+00 -0.00000000000E+00 -0.63277811805E+03  0.63277811805E+03  0.00000000000E+00 0. -1.
    2000013    1    1    2    0    0  0.35606390680E+03  0.65391292759E+03  0.72312911963E+03  0.14070534269E+04  0.95000000000E+03 0.  0.
   -2000013    1    1    2    0    0 -0.35606390680E+03 -0.65391292759E+03  0.96159432336E+03  0.15432262521E+04  0.95000000000E+03 0.  0.
<mgrwt>
<rscale>  0 0.24219532E+04</rscale>
<asrwt>0</asrwt>
<pdfrwt beam="1">  1        1 0.35653870E+00 0.24219532E+04</pdfrwt>
<pdfrwt beam="2">  1       -1 0.97350481E-01 0.24219532E+04</pdfrwt>
<totfact> 0.16403134E+00</totfact>
</mgrwt>
</event>
<event>
 4    1  0.2058093E-008  0.2061627E+04  0.7816531E-02  0.8578338E-01
         -2   -1    0    0    0  501 -0.00000000000E+00  0.00000000000E+00  0.85442476148E+03  0.85442476148E+03  0.00000000000E+00 0. -1.
          2   -1    0    0  501    0  0.00000000000E+00 -0.00000000000E+00 -0.12436156653E+04  0.12436156653E+04  0.00000000000E+00 0.  1.
    2000013    1    1    2    0    0  0.30582971725E+03 -0.24806889253E+03 -0.12259247767E+03  0.10356635105E+04  0.95000000000E+03 0.  0.
   -2000013    1    1    2    0    0 -0.30582971725E+03  0.24806889253E+03 -0.26659842612E+03  0.10623769163E+04  0.95000000000E+03 0.  0.
<mgrwt>
<rscale>  0 0.20616266E+04</rscale>
<asrwt>0</asrwt>
<pdfrwt beam="2">  1        2 0.19132549E+00 0.20616266E+04</pdfrwt>
<pdfrwt beam="1">  1       -2 0.13144996E+00 0.20616266E+04</pdfrwt>
<totfact> 0.69655054E+00</totfact>
</mgrwt>
</event>
<event>
 4    1  0.2058093E-008  0.2381959E+04  0.7816531E-02  0.8446289E-01
          2   -1    0    0  501    0  0.00000000000E+00  0.00000000000E+00  0.26580943234E+04  0.26580943234E+04  0.00000000000E+00 0.  1.
         -2   -1    0    0    0  501 -0.00000000000E+00 -0.00000000000E+00 -0.53362750912E+03  0.53362750912E+03  0.00000000000E+00 0. -1.
    2000013    1    1    2    0    0 -0.52774347827E+03 -0.48512537930E+03  0.11232336770E+04  0.16364637808E+04  0.95000000000E+03 0.  0.
   -2000013    1    1    2    0    0  0.52774347827E+03  0.48512537930E+03  0.10012331373E+04  0.15552580518E+04  0.95000000000E+03 0.  0.
<mgrwt>
<rscale>  0 0.23819591E+04</rscale>
<asrwt>0</asrwt>
<pdfrwt beam="1">  1        2 0.40893758E+00 0.23819591E+04</pdfrwt>
<pdfrwt beam="2">  1       -2 0.82096541E-01 0.23819591E+04</pdfrwt>
<totfact> 0.33022623E+00</totfact>
</mgrwt>
</event>
<event>
 4    1  0.2058093E-008  0.2211500E+04  0.7816531E-02  0.8513657E-01
          2   -1    0    0  501    0  0.00000000000E+00  0.00000000000E+00  0.19526725686E+04  0.19526725686E+04  0.00000000000E+00 0.  1.
         -2   -1    0    0    0  501 -0.00000000000E+00 -0.00000000000E+00 -0.62615862864E+03  0.62615862864E+03  0.00000000000E+00 0. -1.
    2000013    1    1    2    0    0  0.29114634841E+03  0.34850835218E+03  0.10569061973E+04  0.14919031395E+04  0.95000000000E+03 0.  0.
   -2000013    1    1    2    0    0 -0.29114634841E+03 -0.34850835218E+03  0.26960774260E+03  0.10869280577E+04  0.95000000000E+03 0.  0.
<mgrwt>
<rscale>  0 0.22114997E+04</rscale>
<asrwt>0</asrwt>
<pdfrwt beam="1">  1        2 0.30041116E+00 0.22114997E+04</pdfrwt>
<pdfrwt beam="2">  1       -2 0.96332098E-01 0.22114997E+04</pdfrwt>
<totfact> 0.58473230E+00</totfact>
</mgrwt>
</event>
<event>
 4    1  0.2058093E-008  0.2337968E+04  0.7816531E-02  0.8463100E-01
         -2   -1    0    0    0  501 -0.00000000000E+00  0.00000000000E+00  0.37386537492E+03  0.37386537492E+03  0.00000000000E+00 0. -1.
          2   -1    0    0  501    0  0.00000000000E+00 -0.00000000000E+00 -0.36551205339E+04  0.36551205339E+04  0.00000000000E+00 0.  1.
    2000013    1    1    2    0    0  0.13492894132E+03  0.66710231115E+03 -0.15921393291E+04  0.19750035331E+04  0.95000000000E+03 0.  0.
   -2000013    1    1    2    0    0 -0.13492894132E+03 -0.66710231115E+03 -0.16891158300E+04  0.20539823757E+04  0.95000000000E+03 0.  0.
<mgrwt>
<rscale>  0 0.23379675E+04</rscale>
<asrwt>0</asrwt>
<pdfrwt beam="2">  1        2 0.56232623E+00 0.23379675E+04</pdfrwt>
<pdfrwt beam="1">  1       -2 0.57517750E-01 0.23379675E+04</pdfrwt>
<totfact> 0.16165536E+00</totfact>
</mgrwt>
</event>
<event>
 4    1  0.2058093E-008  0.2195119E+04  0.7816531E-02  0.8520462E-01
          1   -1    0    0  501    0  0.00000000000E+00  0.00000000000E+00  0.98360135544E+03  0.98360135544E+03  0.00000000000E+00 0.  1.
         -1   -1    0    0    0  501 -0.00000000000E+00 -0.00000000000E+00 -0.12247210698E+04  0.12247210698E+04  0.00000000000E+00 0. -1.
    2000013    1    1    2    0    0 -0.50045169731E+03 -0.45596020090E+02 -0.34462443990E+03  0.11286261130E+04  0.95000000000E+03 0.  0.
   -2000013    1    1    2    0    0  0.50045169731E+03  0.45596020090E+02  0.10350472555E+03  0.10796963122E+04  0.95000000000E+03 0.  0.
<mgrwt>
<rscale>  0 0.21951194E+04</rscale>
<asrwt>0</asrwt>
<pdfrwt beam="1">  1        1 0.15132329E+00 0.21951194E+04</pdfrwt>
<pdfrwt beam="2">  1       -1 0.18841863E+00 0.21951194E+04</pdfrwt>
<totfact> 0.25772568E+00</totfact>
</mgrwt>
</event>
<event>
 4    1  0.2058093E-008  0.2733840E+04  0.7816531E-02  0.8324108E-01
         -1   -1    0    0    0  501 -0.00000000000E+00  0.00000000000E+00  0.84938979984E+03  0.84938979984E+03  0.00000000000E+00 0.  1.
          1   -1    0    0  501    0  0.00000000000E+00 -0.00000000000E+00 -0.21997803058E+04  0.21997803058E+04  0.00000000000E+00 0. -1.
    2000013    1    1    2    0    0 -0.18112878664E+03  0.90213895082E+03 -0.28994368851E+03  0.13539681187E+04  0.95000000000E+03 0.  0.
   -2000013    1    1    2    0    0  0.18112878664E+03 -0.90213895082E+03 -0.10604468175E+04  0.16952019870E+04  0.95000000000E+03 0.  0.
<mgrwt>
<rscale>  0 0.27338405E+04</rscale>
<asrwt>0</asrwt>
<pdfrwt beam="2">  1        1 0.33842775E+00 0.27338405E+04</pdfrwt>
<pdfrwt beam="1">  1       -1 0.13067535E+00 0.27338405E+04</pdfrwt>
<totfact> 0.94945278E-01</totfact>
</mgrwt>
</event>
<event>
 4    1  0.2058093E-008  0.2786169E+04  0.7816531E-02  0.8307575E-01
          2   -1    0    0  501    0  0.00000000000E+00  0.00000000000E+00  0.23267474281E+04  0.23267474281E+04  0.00000000000E+00 0.  1.
         -2   -1    0    0    0  501 -0.00000000000E+00 -0.00000000000E+00 -0.83407591381E+03  0.83407591381E+03  0.00000000000E+00 0. -1.
    2000013    1    1    2    0    0  0.62302825960E+03  0.49706262188E+03  0.14664768643E+04  0.19204920869E+04  0.95000000000E+03 0.  0.
   -2000013    1    1    2    0    0 -0.62302825960E+03 -0.49706262188E+03  0.26194649936E+02  0.12403312550E+04  0.95000000000E+03 0.  0.
<mgrwt>
<rscale>  0 0.27861687E+04</rscale>
<asrwt>0</asrwt>
<pdfrwt beam="1">  1        2 0.35796114E+00 0.27861687E+04</pdfrwt>
<pdfrwt beam="2">  1       -2 0.12831937E+00 0.27861687E+04</pdfrwt>
<totfact> 0.17114446E+00</totfact>
</mgrwt>
</event>
<event>
 4    1  0.2058093E-008  0.2786082E+04  0.7816531E-02  0.8307602E-01
         -2   -1    0    0    0  501 -0.00000000000E+00  0.00000000000E+00  0.11286519461E+04  0.11286519461E+04  0.00000000000E+00 0. -1.
          2   -1    0    0  501    0  0.00000000000E+00 -0.00000000000E+00 -0.17193635457E+04  0.17193635457E+04  0.00000000000E+00 0.  1.
    2000013    1    1    2    0    0  0.81502529373E+03 -0.50245129606E+03 -0.65143740372E+03  0.14978632198E+04  0.95000000000E+03 0.  0.
   -2000013    1    1    2    0    0 -0.81502529373E+03  0.50245129606E+03  0.60725804157E+02  0.13501522720E+04  0.95000000000E+03 0.  0.
<mgrwt>
<rscale>  0 0.27860818E+04</rscale>
<asrwt>0</asrwt>
<pdfrwt beam="2">  1        2 0.26451747E+00 0.27860818E+04</pdfrwt>
<pdfrwt beam="1">  1       -2 0.17363876E+00 0.27860818E+04</pdfrwt>
<totfact> 0.16742311E+00</totfact>
</mgrwt>
</event>
<event>
 4    1  0.2058093E-008  0.2916557E+04  0.7816531E-02  0.8267968E-01
          2   -1    0    0  501    0  0.00000000000E+00  0.00000000000E+00  0.14744971010E+04  0.14744971010E+04  0.00000000000E+00 0.  1.
         -2   -1    0    0    0  501 -0.00000000000E+00 -0.00000000000E+00 -0.14422382456E+04  0.14422382456E+04  0.00000000000E+00 0. -1.
    2000013    1    1    2    0    0  0.16924292000E+03 -0.54660655664E+03  0.96310562175E+03  0.14688411529E+04  0.95000000000E+03 0.  0.
   -2000013    1    1    2    0    0 -0.16924292000E+03  0.54660655664E+03 -0.93084676639E+03  0.14478941937E+04  0.95000000000E+03 0.  0.
<mgrwt>
<rscale>  0 0.29165570E+04</rscale>
<asrwt>0</asrwt>
<pdfrwt beam="1">  1        2 0.22684571E+00 0.29165570E+04</pdfrwt>
<pdfrwt beam="2">  1       -2 0.22188281E+00 0.29165570E+04</pdfrwt>
<totfact> 0.10876884E+00</totfact>
</mgrwt>
</event>
<event>
 4    1  0.2058093E-008  0.2122780E+04  0.7816531E-02  0.8551275E-01
          1   -1    0    0  501    0  0.00000000000E+00  0.00000000000E+00  0.22389754049E+04  0.22389754049E+04  0.00000000000E+00 0.  1.
         -1   -1    0    0    0  501 -0.00000000000E+00 -0.00000000000E+00 -0.50315356358E+03  0.50315356358E+03  0.00000000000E+00 0. -1.
    2000013    1    1    2    0    0 -0.40958136087E+03 -0.21059670484E+03  0.72675605745E+03  0.12817106656E+04  0.95000000000E+03 0.  0.
   -2000013    1    1    2    0    0  0.40958136087E+03  0.21059670484E+03  0.10090657839E+04  0.14604183029E+04  0.95000000000E+03 0.  0.
<mgrwt>
<rscale>  0 0.21227797E+04</rscale>
<asrwt>0</asrwt>
<pdfrwt beam="1">  1        1 0.34445775E+00 0.21227797E+04</pdfrwt>
<pdfrwt beam="2">  1       -1 0.77408242E-01 0.21227797E+04</pdfrwt>
<totfact> 0.31460573E+00</totfact>
</mgrwt>
</event>
<event>
 4    1  0.2058093E-008  0.2643630E+04  0.7816531E-02  0.8353530E-01
         -1   -1    0    0    0  501 -0.00000000000E+00  0.00000000000E+00  0.63515983609E+03  0.63515983609E+03  0.00000000000E+00 0. -1.
          1   -1    0    0  501    0  0.00000000000E+00 -0.00000000000E+00 -0.27507950148E+04  0.27507950148E+04  0.00000000000E+00 0.  1.
    2000013    1    1    2    0    0  0.74190775765E+03 -0.42280377135E+03 -0.14931086309E+04  0.19649589140E+04  0.95000000000E+03 0.  0.
   -2000013    1    1    2    0    0 -0.74190775765E+03  0.42280377135E+03 -0.62252654775E+03  0.14209959369E+04  0.95000000000E+03 0.  0.
<mgrwt>
<rscale>  0 0.26436297E+04</rscale>
<asrwt>0</asrwt>
<pdfrwt beam="2">  1        1 0.42319924E+00 0.26436297E+04</pdfrwt>
<pdfrwt beam="1">  1       -1 0.97716897E-01 0.26436297E+04</pdfrwt>
<totfact> 0.79597742E-01</totfact>
</mgrwt>
</event>
<event>
 4    1  0.2058093E-008  0.2685875E+04  0.7816531E-02  0.8339603E-01
         -1   -1    0    0    0  501 -0.00000000000E+00  0.00000000000E+00  0.14921363541E+04  0.14921363541E+04  0.00000000000E+00 0.  1.
          1   -1    0    0  501    0  0.00000000000E+00 -0.00000000000E+00 -0.12086572059E+04  0.12086572059E+04  0.00000000000E+00 0. -1.
    2000013    1    1    2    0    0 -0.81256445943E+03 -0.28653765335E+03  0.54221860962E+03  0.13924316314E+04  0.95000000000E+03 0.  0.
   -2000013    1    1    2    0    0  0.81256445943E+03  0.28653765335E+03 -0.25873946143E+03  0.13083619287E+04  0.95000000000E+03 0.  0.
<mgrwt>
<rscale>  0 0.26858752E+04</rscale>
<asrwt>0</asrwt>
<pdfrwt beam="2">  1        1 0.18594726E+00 0.26858752E+04</pdfrwt>
<pdfrwt beam="1">  1       -1 0.22955944E+00 0.26858752E+04</pdfrwt>
<totfact> 0.87486607E-01</totfact>
</mgrwt>
</event>
<event>
 4    1  0.2058093E-008  0.3120095E+04  0.7816531E-02  0.8210245E-01
          2   -1    0    0  501    0  0.00000000000E+00  0.00000000000E+00  0.22367531163E+04  0.22367531163E+04  0.00000000000E+00 0.  1.
         -2   -1    0    0    0  501 -0.00000000000E+00 -0.00000000000E+00 -0.10880720438E+04  0.10880720438E+04  0.00000000000E+00 0. -1.
    2000013    1    1    2    0    0 -0.78592607875E+03  0.49838261229E+03  0.14434444404E+04  0.19626759493E+04  0.95000000000E+03 0.  0.
   -2000013    1    1    2    0    0  0.78592607875E+03 -0.49838261229E+03 -0.29476336795E+03  0.13621492108E+04  0.95000000000E+03 0.  0.
<mgrwt>
<rscale>  0 0.31200952E+04</rscale>
<asrwt>0</asrwt>
<pdfrwt beam="1">  1        2 0.34411586E+00 0.31200952E+04</pdfrwt>
<pdfrwt beam="2">  1       -2 0.16739570E+00 0.31200952E+04</pdfrwt>
<totfact> 0.92837270E-01</totfact>
</mgrwt>
</event>
<event>
 4    1  0.2058093E-008  0.2408513E+04  0.7816531E-02  0.8436323E-01
         -2   -1    0    0    0  501 -0.00000000000E+00  0.00000000000E+00  0.12393495749E+04  0.12393495749E+04  0.00000000000E+00 0. -1.
          2   -1    0    0  501    0  0.00000000000E+00 -0.00000000000E+00 -0.11701570914E+04  0.11701570914E+04  0.00000000000E+00 0.  1.
    2000013    1    1    2    0    0 -0.26491684708E+03  0.68495301831E+03 -0.57050071895E+02  0.12021215762E+04  0.95000000000E+03 0.  0.
   -2000013    1    1    2    0    0  0.26491684708E+03 -0.68495301831E+03  0.12624255544E+03  0.12073850902E+04  0.95000000000E+03 0.  0.
<mgrwt>
<rscale>  0 0.24085130E+04</rscale>
<asrwt>0</asrwt>
<pdfrwt beam="2">  1        2 0.18002417E+00 0.24085130E+04</pdfrwt>
<pdfrwt beam="1">  1       -2 0.19066916E+00 0.24085130E+04</pdfrwt>
<totfact> 0.27210200E+00</totfact>
</mgrwt>
</event>
<event>
 4    1  0.2058093E-008  0.2303709E+04  0.7816531E-02  0.8476460E-01
         -2   -1    0    0    0  501 -0.00000000000E+00  0.00000000000E+00  0.15485391650E+04  0.15485391650E+04  0.00000000000E+00 0. -1.
          2   -1    0    0  501    0  0.00000000000E+00 -0.00000000000E+00 -0.85678728795E+03  0.85678728795E+03  0.00000000000E+00 0.  1.
    2000013    1    1    2    0    0 -0.59750473199E+03 -0.25903899984E+03  0.35889860689E+03  0.12064084376E+04  0.95000000000E+03 0.  0.
   -2000013    1    1    2    0    0  0.59750473199E+03  0.25903899984E+03  0.33285327019E+03  0.11989180154E+04  0.95000000000E+03 0.  0.
<mgrwt>
<rscale>  0 0.23037089E+04</rscale>
<asrwt>0</asrwt>
<pdfrwt beam="2">  1        2 0.13181343E+00 0.23037089E+04</pdfrwt>
<pdfrwt beam="1">  1       -2 0.23823679E+00 0.23037089E+04</pdfrwt>
<totfact> 0.21609743E+00</totfact>
</mgrwt>
</event>
<event>
 4    1  0.2058093E-008  0.2069735E+04  0.7816531E-02  0.8574694E-01
          2   -1    0    0  501    0  0.00000000000E+00  0.00000000000E+00  0.20173641462E+04  0.20173641462E+04  0.00000000000E+00 0.  1.
         -2   -1    0    0    0  501 -0.00000000000E+00 -0.00000000000E+00 -0.53086638437E+03  0.53086638437E+03  0.00000000000E+00 0. -1.
    2000013    1    1    2    0    0  0.36816246557E+03  0.50724845824E+02  0.52881657070E+03  0.11490272305E+04  0.95000000000E+03 0.  0.
   -2000013    1    1    2    0    0 -0.36816246557E+03 -0.50724845824E+02  0.95768119114E+03  0.13992033001E+04  0.95000000000E+03 0.  0.
<mgrwt>
<rscale>  0 0.20697351E+04</rscale>
<asrwt>0</asrwt>
<pdfrwt beam="1">  1        2 0.31036371E+00 0.20697351E+04</pdfrwt>
<pdfrwt beam="2">  1       -2 0.81671753E-01 0.20697351E+04</pdfrwt>
<totfact> 0.79629261E+00</totfact>
</mgrwt>
</event>
<event>
 4    1  0.2058093E-008  0.2717678E+04  0.7816531E-02  0.8329292E-01
          2   -1    0    0  501    0  0.00000000000E+00  0.00000000000E+00  0.32267129638E+04  0.32267129638E+04  0.00000000000E+00 0.  1.
         -2   -1    0    0    0  501 -0.00000000000E+00 -0.00000000000E+00 -0.57223663739E+03  0.57223663739E+03  0.00000000000E+00 0. -1.
    2000013    1    1    2    0    0  0.40749858444E+03 -0.67068392973E+03  0.21279010347E+04  0.24589296133E+04  0.95000000000E+03 0.  0.
   -2000013    1    1    2    0    0 -0.40749858444E+03  0.67068392973E+03  0.52657529169E+03  0.13400199878E+04  0.95000000000E+03 0.  0.
<mgrwt>
<rscale>  0 0.27176780E+04</rscale>
<asrwt>0</asrwt>
<pdfrwt beam="1">  1        2 0.49641737E+00 0.27176780E+04</pdfrwt>
<pdfrwt beam="2">  1       -2 0.88036408E-01 0.27176780E+04</pdfrwt>
<totfact> 0.12130264E+00</totfact>
</mgrwt>
</event>
<event>
 4    1  0.2058093E-008  0.2834272E+04  0.7816531E-02  0.8292707E-01
          2   -1    0    0  501    0  0.00000000000E+00  0.00000000000E+00  0.15171220967E+04  0.15171220967E+04  0.00000000000E+00 0.  1.
         -2   -1    0    0    0  501 -0.00000000000E+00 -0.00000000000E+00 -0.13237395002E+04  0.13237395002E+04  0.00000000000E+00 0. -1.
    2000013    1    1    2    0    0 -0.83928844049E+03 -0.28140774918E+02  0.73107468551E+03  0.14636144251E+04  0.95000000000E+03 0.  0.
   -2000013    1    1    2    0    0  0.83928844049E+03  0.28140774918E+02 -0.53769208904E+03  0.13772471718E+04  0.95000000000E+03 0.  0.
<mgrwt>
<rscale>  0 0.28342720E+04</rscale>
<asrwt>0</asrwt>
<pdfrwt beam="1">  1        2 0.23340340E+00 0.28342720E+04</pdfrwt>
<pdfrwt beam="2">  1       -2 0.20365223E+00 0.28342720E+04</pdfrwt>
<totfact> 0.13561059E+00</totfact>
</mgrwt>
</event>
<event>
 4    1  0.2058093E-008  0.2080236E+04  0.7816531E-02  0.8570000E-01
         -2   -1    0    0    0  501 -0.00000000000E+00  0.00000000000E+00  0.88827889523E+03  0.88827889523E+03  0.00000000000E+00 0. -1.
          2   -1    0    0  501    0  0.00000000000E+00 -0.00000000000E+00 -0.12179120844E+04  0.12179120844E+04  0.00000000000E+00 0.  1.
    2000013    1    1    2    0    0 -0.38434303598E+03 -0.14458774148E+03 -0.26964788698E+03  0.10695022988E+04  0.95000000000E+03 0.  0.
   -2000013    1    1    2    0    0  0.38434303598E+03  0.14458774148E+03 -0.59985302145E+02  0.10366886807E+04  0.95000000000E+03 0.  0.
<mgrwt>
<rscale>  0 0.20802361E+04</rscale>
<asrwt>0</asrwt>
<pdfrwt beam="2">  1        2 0.18737109E+00 0.20802361E+04</pdfrwt>
<pdfrwt beam="1">  1       -2 0.13665829E+00 0.20802361E+04</pdfrwt>
<totfact> 0.65231331E+00</totfact>
</mgrwt>
</event>
<event>
 4    1  0.2058093E-008  0.2588487E+04  0.7816531E-02  0.8372123E-01
         -2   -1    0    0    0  501 -0.00000000000E+00  0.00000000000E+00  0.69351724323E+03  0.69351724323E+03  0.00000000000E+00 0. -1.
          2   -1    0    0  501    0  0.00000000000E+00 -0.00000000000E+00 -0.24153196252E+04  0.24153196252E+04  0.00000000000E+00 0.  1.
    2000013    1    1    2    0    0  0.26699955710E+03 -0.59210077244E+03 -0.14966148222E+03  0.11605044797E+04  0.95000000000E+03 0.  0.
   -2000013    1    1    2    0    0 -0.26699955710E+03  0.59210077244E+03 -0.15721408997E+04  0.19483323887E+04  0.95000000000E+03 0.  0.
<mgrwt>
<rscale>  0 0.25884867E+04</rscale>
<asrwt>0</asrwt>
<pdfrwt beam="2">  1        2 0.37158763E+00 0.25884867E+04</pdfrwt>
<pdfrwt beam="1">  1       -2 0.10669496E+00 0.25884867E+04</pdfrwt>
<totfact> 0.24392358E+00</totfact>
</mgrwt>
</event>
<event>
 4    1  0.2058093E-008  0.2163427E+04  0.7816531E-02  0.8533807E-01
         -2   -1    0    0    0  501 -0.00000000000E+00  0.00000000000E+00  0.71851464564E+03  0.71851464564E+03  0.00000000000E+00 0. -1.
          2   -1    0    0  501    0  0.00000000000E+00 -0.00000000000E+00 -0.16285034732E+04  0.16285034732E+04  0.00000000000E+00 0.  1.
    2000013    1    1    2    0    0 -0.22247417653E+03  0.35123116500E+03 -0.12106582798E+03  0.10440378466E+04  0.95000000000E+03 0.  0.
   -2000013    1    1    2    0    0  0.22247417653E+03 -0.35123116500E+03 -0.78892299952E+03  0.13029802722E+04  0.95000000000E+03 0.  0.
<mgrwt>
<rscale>  0 0.21634265E+04</rscale>
<asrwt>0</asrwt>
<pdfrwt beam="2">  1        2 0.25053899E+00 0.21634265E+04</pdfrwt>
<pdfrwt beam="1">  1       -2 0.11054072E+00 0.21634265E+04</pdfrwt>
<totfact> 0.63993079E+00</totfact>
</mgrwt>
</event>
<event>
 4    1  0.2058093E-008  0.2292945E+04  0.7816531E-02  0.8480708E-01
          2   -1    0    0  501    0  0.00000000000E+00  0.00000000000E+00  0.86534939970E+03  0.86534939970E+03  0.00000000000E+00 0.  1.
         -2   -1    0    0    0  501 -0.00000000000E+00 -0.00000000000E+00 -0.15189227340E+04  0.15189227340E+04  0.00000000000E+00 0. -1.
    2000013    1    1    2    0    0 -0.47330154038E+03 -0.37514405637E+03 -0.10099400047E+03  0.11302420976E+04  0.95000000000E+03 0.  0.
   -2000013    1    1    2    0    0  0.47330154038E+03  0.37514405637E+03 -0.55257933383E+03  0.12540300361E+04  0.95000000000E+03 0.  0.
<mgrwt>
<rscale>  0 0.22929447E+04</rscale>
<asrwt>0</asrwt>
<pdfrwt beam="1">  1        2 0.13313068E+00 0.22929447E+04</pdfrwt>
<pdfrwt beam="2">  1       -2 0.23368042E+00 0.22929447E+04</pdfrwt>
<totfact> 0.22773397E+00</totfact>
</mgrwt>
</event>
<event>
 4    1  0.2058093E-008  0.2591479E+04  0.7816531E-02  0.8371102E-01
          2   -1    0    0  501    0  0.00000000000E+00  0.00000000000E+00  0.21173611133E+04  0.21173611133E+04  0.00000000000E+00 0.  1.
         -2   -1    0    0    0  501 -0.00000000000E+00 -0.00000000000E+00 -0.79293996417E+03  0.79293996417E+03  0.00000000000E+00 0. -1.
    2000013    1    1    2    0    0 -0.78920958052E+03  0.12945541922E+03  0.24679706555E+03  0.12661039685E+04  0.95000000000E+03 0.  0.
   -2000013    1    1    2    0    0  0.78920958052E+03 -0.12945541922E+03  0.10776240836E+04  0.16441971089E+04  0.95000000000E+03 0.  0.
<mgrwt>
<rscale>  0 0.25914785E+04</rscale>
<asrwt>0</asrwt>
<pdfrwt beam="1">  1        2 0.32574786E+00 0.25914785E+04</pdfrwt>
<pdfrwt beam="2">  1       -2 0.12199077E+00 0.25914785E+04</pdfrwt>
<totfact> 0.25921118E+00</totfact>
</mgrwt>
</event>
<event>
 4    1  0.2058093E-008  0.2020382E+04  0.7816531E-02  0.8597150E-01
          2   -1    0    0  501    0  0.00000000000E+00  0.00000000000E+00  0.30988539726E+04  0.30988539726E+04  0.00000000000E+00 0.  1.
         -2   -1    0    0    0  501 -0.00000000000E+00 -0.00000000000E+00 -0.32931070020E+03  0.32931070020E+03  0.00000000000E+00 0. -1.
    2000013    1    1    2    0    0  0.26597609543E+03  0.18908787401E+03  0.15666392665E+04  0.18610094301E+04  0.95000000000E+03 0.  0.
   -2000013    1    1    2    0    0 -0.26597609543E+03 -0.18908787401E+03  0.12029040059E+04  0.15671552427E+04  0.95000000000E+03 0.  0.
<mgrwt>
<rscale>  0 0.20203819E+04</rscale>
<asrwt>0</asrwt>
<pdfrwt beam="1">  1        2 0.47674675E+00 0.20203819E+04</pdfrwt>
<pdfrwt beam="2">  1       -2 0.50663187E-01 0.20203819E+04</pdfrwt>
<totfact> 0.51645476E+00</totfact>
</mgrwt>
</event>
<event>
 4    1  0.2058093E-008  0.2115084E+04  0.7816531E-02  0.8554628E-01
         -2   -1    0    0    0  501 -0.00000000000E+00  0.00000000000E+00  0.64940662472E+03  0.64940662472E+03  0.00000000000E+00 0. -1.
          2   -1    0    0  501    0  0.00000000000E+00 -0.00000000000E+00 -0.17221795333E+04  0.17221795333E+04  0.00000000000E+00 0.  1.
    2000013    1    1    2    0    0 -0.10722970588E+03 -0.43418310944E+03 -0.39508107940E+03  0.11218744322E+04  0.95000000000E+03 0.  0.
   -2000013    1    1    2    0    0  0.10722970588E+03  0.43418310944E+03 -0.67769182922E+03  0.12497117259E+04  0.95000000000E+03 0.  0.
<mgrwt>
<rscale>  0 0.21150837E+04</rscale>
<asrwt>0</asrwt>
<pdfrwt beam="2">  1        2 0.26495069E+00 0.21150837E+04</pdfrwt>
<pdfrwt beam="1">  1       -2 0.99908713E-01 0.21150837E+04</pdfrwt>
<totfact> 0.72630372E+00</totfact>
</mgrwt>
</event>
<event>
 4    1  0.2058093E-008  0.2133596E+04  0.7816531E-02  0.8546587E-01
         -2   -1    0    0    0  501 -0.00000000000E+00  0.00000000000E+00  0.39460713256E+03  0.39460713256E+03  0.00000000000E+00 0. -1.
          2   -1    0    0  501    0  0.00000000000E+00 -0.00000000000E+00 -0.28840274634E+04  0.28840274634E+04  0.00000000000E+00 0.  1.
    2000013    1    1    2    0    0  0.43011097703E+03  0.10746365885E+03 -0.15482324890E+04  0.18697774548E+04  0.95000000000E+03 0.  0.
   -2000013    1    1    2    0    0 -0.43011097703E+03 -0.10746365885E+03 -0.94118784184E+03  0.14088571412E+04  0.95000000000E+03 0.  0.
<mgrwt>
<rscale>  0 0.21335958E+04</rscale>
<asrwt>0</asrwt>
<pdfrwt beam="2">  1        2 0.44369654E+00 0.21335958E+04</pdfrwt>
<pdfrwt beam="1">  1       -2 0.60708789E-01 0.21335958E+04</pdfrwt>
<totfact> 0.47768003E+00</totfact>
</mgrwt>
</event>
<event>
 4    1  0.2058093E-008  0.2620773E+04  0.7816531E-02  0.8361179E-01
         -2   -1    0    0    0  501 -0.00000000000E+00  0.00000000000E+00  0.59699047223E+03  0.59699047223E+03  0.00000000000E+00 0. -1.
          2   -1    0    0  501    0  0.00000000000E+00 -0.00000000000E+00 -0.28762808563E+04  0.28762808563E+04  0.00000000000E+00 0.  1.
    2000013    1    1    2    0    0 -0.88567759189E+03 -0.16086013573E+03 -0.10526244280E+04  0.16795293884E+04  0.95000000000E+03 0.  0.
   -2000013    1    1    2    0    0  0.88567759189E+03  0.16086013573E+03 -0.12266659561E+04  0.17937419402E+04  0.95000000000E+03 0.  0.
<mgrwt>
<rscale>  0 0.26207726E+04</rscale>
<asrwt>0</asrwt>
<pdfrwt beam="2">  1        2 0.44250475E+00 0.26207726E+04</pdfrwt>
<pdfrwt beam="1">  1       -2 0.91844688E-01 0.26207726E+04</pdfrwt>
<totfact> 0.18495542E+00</totfact>
</mgrwt>
</event>
<event>
 4    1  0.2058093E-008  0.3435087E+04  0.7816531E-02  0.8129348E-01
         -2   -1    0    0    0  501 -0.00000000000E+00  0.00000000000E+00  0.14414889023E+04  0.14414889023E+04  0.00000000000E+00 0. -1.
          2   -1    0    0  501    0  0.00000000000E+00 -0.00000000000E+00 -0.20464638140E+04  0.20464638140E+04  0.00000000000E+00 0.  1.
    2000013    1    1    2    0    0  0.10809516564E+04  0.93673816686E+03 -0.26290026019E+03  0.17371100781E+04  0.95000000000E+03 0.  0.
   -2000013    1    1    2    0    0 -0.10809516564E+04 -0.93673816686E+03 -0.34207465155E+03  0.17508426382E+04  0.95000000000E+03 0.  0.
<mgrwt>
<rscale>  0 0.34350865E+04</rscale>
<asrwt>0</asrwt>
<pdfrwt beam="2">  1        2 0.31484059E+00 0.34350865E+04</pdfrwt>
<pdfrwt beam="1">  1       -2 0.22176752E+00 0.34350865E+04</pdfrwt>
<totfact> 0.50088217E-01</totfact>
</mgrwt>
</event>
<event>
 4    1  0.2058093E-008  0.2432235E+04  0.7816531E-02  0.8427533E-01
          2   -1    0    0  501    0  0.00000000000E+00  0.00000000000E+00  0.38716514019E+04  0.38716514019E+04  0.00000000000E+00 0. -1.
         -2   -1    0    0    0  501 -0.00000000000E+00 -0.00000000000E+00 -0.38199238241E+03  0.38199238241E+03  0.00000000000E+00 0.  1.
    2000013    1    1    2    0    0 -0.11329073572E+03  0.31362479492E+03  0.55194887054E+03  0.11481911245E+04  0.95000000000E+03 0.  0.
   -2000013    1    1    2    0    0  0.11329073572E+03 -0.31362479492E+03  0.29377101489E+04  0.31054526597E+04  0.95000000000E+03 0.  0.
<mgrwt>
<rscale>  0 0.24322346E+04</rscale>
<asrwt>0</asrwt>
<pdfrwt beam="1">  1        2 0.59563865E+00 0.24322346E+04</pdfrwt>
<pdfrwt beam="2">  1       -2 0.58768062E-01 0.24322346E+04</pdfrwt>
<totfact> 0.10534764E+00</totfact>
</mgrwt>
</event>
<event>
 4    1  0.2058093E-008  0.2747587E+04  0.7816531E-02  0.8319728E-01
         -2   -1    0    0    0  501 -0.00000000000E+00  0.00000000000E+00  0.79091266808E+03  0.79091266808E+03  0.00000000000E+00 0. -1.
          2   -1    0    0  501    0  0.00000000000E+00 -0.00000000000E+00 -0.23862417528E+04  0.23862417528E+04  0.00000000000E+00 0.  1.
    2000013    1    1    2    0    0 -0.58647277826E+03  0.52962895328E+03 -0.10351967046E+03  0.12400296246E+04  0.95000000000E+03 0.  0.
   -2000013    1    1    2    0    0  0.58647277826E+03 -0.52962895328E+03 -0.14918094143E+04  0.19371247963E+04  0.95000000000E+03 0.  0.
<mgrwt>
<rscale>  0 0.27475872E+04</rscale>
<asrwt>0</asrwt>
<pdfrwt beam="2">  1        2 0.36711412E+00 0.27475872E+04</pdfrwt>
<pdfrwt beam="1">  1       -2 0.12167887E+00 0.27475872E+04</pdfrwt>
<totfact> 0.18143353E+00</totfact>
</mgrwt>
</event>
<event>
 4    1  0.2058093E-008  0.2973532E+04  0.7816531E-02  0.8251330E-01
         -2   -1    0    0    0  501 -0.00000000000E+00  0.00000000000E+00  0.15383260831E+04  0.15383260831E+04  0.00000000000E+00 0. -1.
          2   -1    0    0  501    0  0.00000000000E+00 -0.00000000000E+00 -0.14369343382E+04  0.14369343382E+04  0.00000000000E+00 0.  1.
    2000013    1    1    2    0    0  0.39578308666E+03 -0.79945340398E+03  0.76679579829E+03  0.15120336614E+04  0.95000000000E+03 0.  0.
   -2000013    1    1    2    0    0 -0.39578308666E+03  0.79945340398E+03 -0.66540405331E+03  0.14632267599E+04  0.95000000000E+03 0.  0.
<mgrwt>
<rscale>  0 0.29735323E+04</rscale>
<asrwt>0</asrwt>
<pdfrwt beam="2">  1        2 0.22106682E+00 0.29735323E+04</pdfrwt>
<pdfrwt beam="1">  1       -2 0.23666555E+00 0.29735323E+04</pdfrwt>
<totfact> 0.91873956E-01</totfact>
</mgrwt>
</event>
<event>
 4    1  0.2058093E-008  0.2140306E+04  0.7816531E-02  0.8543693E-01
         -2   -1    0    0    0  501 -0.00000000000E+00  0.00000000000E+00  0.74800971544E+03  0.74800971544E+03  0.00000000000E+00 0. -1.
          2   -1    0    0  501    0  0.00000000000E+00 -0.00000000000E+00 -0.15310321971E+04  0.15310321971E+04  0.00000000000E+00 0.  1.
    2000013    1    1    2    0    0 -0.21130536502E+03 -0.37108538295E+03 -0.12987577356E+03  0.10496294752E+04  0.95000000000E+03 0.  0.
   -2000013    1    1    2    0    0  0.21130536502E+03  0.37108538295E+03 -0.65314670811E+03  0.12294124373E+04  0.95000000000E+03 0.  0.
<mgrwt>
<rscale>  0 0.21403055E+04</rscale>
<asrwt>0</asrwt>
<pdfrwt beam="2">  1        2 0.23554341E+00 0.21403055E+04</pdfrwt>
<pdfrwt beam="1">  1       -2 0.11507842E+00 0.21403055E+04</pdfrwt>
<totfact> 0.65933362E+00</totfact>
</mgrwt>
</event>
<event>
 4    1  0.2058093E-008  0.2615706E+04  0.7816531E-02  0.8362886E-01
          2   -1    0    0  501    0  0.00000000000E+00  0.00000000000E+00  0.47490624976E+04  0.47490624976E+04  0.00000000000E+00 0.  1.
         -2   -1    0    0    0  501 -0.00000000000E+00 -0.00000000000E+00 -0.36017195689E+03  0.36017195689E+03  0.00000000000E+00 0. -1.
    2000013    1    1    2    0    0  0.56722984717E+03 -0.69497472473E+03  0.20832694518E+04  0.24591159339E+04  0.95000000000E+03 0.  0.
   -2000013    1    1    2    0    0 -0.56722984717E+03  0.69497472473E+03  0.23056210889E+04  0.26501185206E+04  0.95000000000E+03 0.  0.
<mgrwt>
<rscale>  0 0.26157057E+04</rscale>
<asrwt>0</asrwt>
<pdfrwt beam="1">  1        2 0.73062495E+00 0.26157057E+04</pdfrwt>
<pdfrwt beam="2">  1       -2 0.55411074E-01 0.26157057E+04</pdfrwt>
<totfact> 0.18447128E-01</totfact>
</mgrwt>
</event>
<event>
 4    1  0.2058093E-008  0.3093714E+04  0.7816531E-02  0.8217465E-01
          2   -1    0    0  501    0  0.00000000000E+00  0.00000000000E+00  0.14027334445E+04  0.14027334445E+04  0.00000000000E+00 0.  1.
         -2   -1    0    0    0  501 -0.00000000000E+00 -0.00000000000E+00 -0.17057888997E+04  0.17057888997E+04  0.00000000000E+00 0. -1.
    2000013    1    1    2    0    0 -0.12052765217E+04  0.27865129148E+02  0.41221589914E+02  0.15354696931E+04  0.95000000000E+03 0.  0.
   -2000013    1    1    2    0    0  0.12052765217E+04 -0.27865129148E+02 -0.34427704512E+03  0.15730526510E+04  0.95000000000E+03 0.  0.
<mgrwt>
<rscale>  0 0.30937144E+04</rscale>
<asrwt>0</asrwt>
<pdfrwt beam="1">  1        2 0.21580515E+00 0.30937144E+04</pdfrwt>
<pdfrwt beam="2">  1       -2 0.26242906E+00 0.30937144E+04</pdfrwt>
<totfact> 0.66035707E-01</totfact>
</mgrwt>
</event>
<event>
 4    1  0.2058093E-008  0.2846319E+04  0.7816531E-02  0.8289031E-01
          2   -1    0    0  501    0  0.00000000000E+00  0.00000000000E+00  0.11508518230E+04  0.11508518230E+04  0.00000000000E+00 0.  1.
         -2   -1    0    0    0  501 -0.00000000000E+00 -0.00000000000E+00 -0.17598993638E+04  0.17598993638E+04  0.00000000000E+00 0. -1.
    2000013    1    1    2    0    0  0.32961197743E+03  0.70092192445E+03  0.43499743540E+03  0.13006376777E+04  0.95000000000E+03 0.  0.
   -2000013    1    1    2    0    0 -0.32961197743E+03 -0.70092192445E+03 -0.10440449763E+04  0.16101135091E+04  0.95000000000E+03 0.  0.
<mgrwt>
<rscale>  0 0.28463193E+04</rscale>
<asrwt>0</asrwt>
<pdfrwt beam="1">  1        2 0.17705413E+00 0.28463193E+04</pdfrwt>
<pdfrwt beam="2">  1       -2 0.27075375E+00 0.28463193E+04</pdfrwt>
<totfact> 0.84296805E-01</totfact>
</mgrwt>
</event>
<event>
 4    1  0.2058093E-008  0.2175660E+04  0.7816531E-02  0.8528628E-01
         -2   -1    0    0    0  501 -0.00000000000E+00  0.00000000000E+00  0.94231670289E+03  0.94231670289E+03  0.00000000000E+00 0. -1.
          2   -1    0    0  501    0  0.00000000000E+00 -0.00000000000E+00 -0.12558133324E+04  0.12558133324E+04  0.00000000000E+00 0.  1.
    2000013    1    1    2    0    0  0.49176532325E+03 -0.11306506852E+03  0.69654685693E+01  0.10757162082E+04  0.95000000000E+03 0.  0.
   -2000013    1    1    2    0    0 -0.49176532325E+03  0.11306506852E+03 -0.32046209807E+03  0.11224138271E+04  0.95000000000E+03 0.  0.
<mgrwt>
<rscale>  0 0.21756598E+04</rscale>
<asrwt>0</asrwt>
<pdfrwt beam="2">  1        2 0.19320205E+00 0.21756598E+04</pdfrwt>
<pdfrwt beam="1">  1       -2 0.14497180E+00 0.21756598E+04</pdfrwt>
<totfact> 0.52698240E+00</totfact>
</mgrwt>
</event>
<event>
 4    1  0.2058093E-008  0.2941584E+04  0.7816531E-02  0.8260612E-01
          2   -1    0    0  501    0  0.00000000000E+00  0.00000000000E+00  0.61757403384E+03  0.61757403384E+03  0.00000000000E+00 0.  1.
         -2   -1    0    0    0  501 -0.00000000000E+00 -0.00000000000E+00 -0.35027844267E+04  0.35027844267E+04  0.00000000000E+00 0. -1.
    2000013    1    1    2    0    0 -0.69625338936E+03 -0.67031775195E+03 -0.64206249004E+03  0.14996129207E+04  0.95000000000E+03 0.  0.
   -2000013    1    1    2    0    0  0.69625338936E+03  0.67031775195E+03 -0.22431479029E+04  0.26207455399E+04  0.95000000000E+03 0.  0.
<mgrwt>
<rscale>  0 0.29415837E+04</rscale>
<asrwt>0</asrwt>
<pdfrwt beam="1">  1        2 0.95011387E-01 0.29415837E+04</pdfrwt>
<pdfrwt beam="2">  1       -2 0.53888993E+00 0.29415837E+04</pdfrwt>
<totfact> 0.39980196E-02</totfact>
</mgrwt>
</event>
<event>
 4    1  0.2058093E-008  0.4106301E+04  0.7816531E-02  0.7983439E-01
         -2   -1    0    0    0  501 -0.00000000000E+00  0.00000000000E+00  0.14837515888E+04  0.14837515888E+04  0.00000000000E+00 0. -1.
          2   -1    0    0  501    0  0.00000000000E+00 -0.00000000000E+00 -0.28410593647E+04  0.28410593647E+04  0.00000000000E+00 0.  1.
    2000013    1    1    2    0    0 -0.10420007550E+04  0.11808427056E+04 -0.16397775044E+04  0.24640465363E+04  0.95000000000E+03 0.  0.
   -2000013    1    1    2    0    0  0.10420007550E+04 -0.11808427056E+04  0.28246972856E+03  0.18607644172E+04  0.95000000000E+03 0.  0.
<mgrwt>
<rscale>  0 0.41063007E+04</rscale>
<asrwt>0</asrwt>
<pdfrwt beam="2">  1        2 0.43708605E+00 0.41063007E+04</pdfrwt>
<pdfrwt beam="1">  1       -2 0.22826948E+00 0.41063007E+04</pdfrwt>
<totfact> 0.14964923E-01</totfact>
</mgrwt>
</event>
<event>
 4    1  0.2058093E-008  0.1985843E+04  0.7816531E-02  0.8613268E-01
          2   -1    0    0  501    0  0.00000000000E+00  0.00000000000E+00  0.23333169549E+04  0.23333169549E+04  0.00000000000E+00 0.  1.
         -2   -1    0    0    0  501 -0.00000000000E+00 -0.00000000000E+00 -0.42252874954E+03  0.42252874954E+03  0.00000000000E+00 0. -1.
    2000013    1    1    2    0    0  0.36835084506E+02  0.26008695021E+03  0.11218741463E+04  0.14933531549E+04  0.95000000000E+03 0.  0.
   -2000013    1    1    2    0    0 -0.36835084506E+02 -0.26008695021E+03  0.78891405914E+03  0.12624925496E+04  0.95000000000E+03 0.  0.
<mgrwt>
<rscale>  0 0.19858434E+04</rscale>
<asrwt>0</asrwt>
<pdfrwt beam="1">  1        2 0.35897183E+00 0.19858434E+04</pdfrwt>
<pdfrwt beam="2">  1       -2 0.65004424E-01 0.19858434E+04</pdfrwt>
<totfact> 0.88137092E+00</totfact>
</mgrwt>
</event>
<event>
 4    1  0.2058093E-008  0.2055364E+04  0.7816531E-02  0.8581165E-01
         -2   -1    0    0    0  501 -0.00000000000E+00  0.00000000000E+00  0.18137153963E+04  0.18137153963E+04  0.00000000000E+00 0. -1.
          2   -1    0    0  501    0  0.00000000000E+00 -0.00000000000E+00 -0.58230189605E+03  0.58230189605E+03  0.00000000000E+00 0.  1.
    2000013    1    1    2    0    0  0.31672136022E+03  0.14204685212E+03  0.82792305633E+03  0.13070754819E+04  0.95000000000E+03 0.  0.
   -2000013    1    1    2    0    0 -0.31672136022E+03 -0.14204685212E+03  0.40349044394E+03  0.10889418105E+04  0.95000000000E+03 0.  0.
<mgrwt>
<rscale>  0 0.20553636E+04</rscale>
<asrwt>0</asrwt>
<pdfrwt beam="2">  1        2 0.89584908E-01 0.20553636E+04</pdfrwt>
<pdfrwt beam="1">  1       -2 0.27903313E+00 0.20553636E+04</pdfrwt>
<totfact> 0.20310328E+00</totfact>
</mgrwt>
</event>
<event>
 4    1  0.2058093E-008  0.2572023E+04  0.7816531E-02  0.8377767E-01
         -4   -1    0    0    0  501 -0.00000000000E+00  0.00000000000E+00  0.31069793523E+04  0.31069793523E+04  0.00000000000E+00 0. -1.
          4   -1    0    0  501    0  0.00000000000E+00 -0.00000000000E+00 -0.53229373422E+03  0.53229373422E+03  0.00000000000E+00 0.  1.
    2000013    1    1    2    0    0 -0.10907234609E+03  0.84611771332E+03  0.15043130104E+04  0.19731369934E+04  0.95000000000E+03 0.  0.
   -2000013    1    1    2    0    0  0.10907234609E+03 -0.84611771332E+03  0.10703726077E+04  0.16661360931E+04  0.95000000000E+03 0.  0.
<mgrwt>
<rscale>  0 0.25720230E+04</rscale>
<asrwt>0</asrwt>
<pdfrwt beam="2">  1        4 0.81891346E-01 0.25720230E+04</pdfrwt>
<pdfrwt beam="1">  1       -4 0.47799681E+00 0.25720230E+04</pdfrwt>
<totfact> 0.42019165E-03</totfact>
</mgrwt>
</event>
<event>
 4    1  0.2058093E-008  0.2592091E+04  0.7816531E-02  0.8370893E-01
          2   -1    0    0  501    0  0.00000000000E+00  0.00000000000E+00  0.33285745983E+04  0.33285745983E+04  0.00000000000E+00 0.  1.
         -2   -1    0    0    0  501 -0.00000000000E+00 -0.00000000000E+00 -0.50464066855E+03  0.50464066855E+03  0.00000000000E+00 0. -1.
    2000013    1    1    2    0    0 -0.56694565494E+03 -0.35189183933E+03  0.22640230116E+04  0.25443182661E+04  0.95000000000E+03 0.  0.
   -2000013    1    1    2    0    0  0.56694565494E+03  0.35189183933E+03  0.55991091816E+03  0.12888970007E+04  0.95000000000E+03 0.  0.
<mgrwt>
<rscale>  0 0.25920911E+04</rscale>
<asrwt>0</asrwt>
<pdfrwt beam="1">  1        2 0.51208839E+00 0.25920911E+04</pdfrwt>
<pdfrwt beam="2">  1       -2 0.77637028E-01 0.25920911E+04</pdfrwt>
<totfact> 0.13953475E+00</totfact>
</mgrwt>
</event>
<event>
 4    1  0.2058093E-008  0.2420332E+04  0.7816531E-02  0.8431931E-01
         -2   -1    0    0    0  501 -0.00000000000E+00  0.00000000000E+00  0.39288836562E+03  0.39288836562E+03  0.00000000000E+00 0. -1.
          2   -1    0    0  501    0  0.00000000000E+00 -0.00000000000E+00 -0.37275264973E+04  0.37275264973E+04  0.00000000000E+00 0.  1.
    2000013    1    1    2    0    0 -0.34944350822E+03  0.64330824867E+03 -0.13925723221E+04  0.18378557997E+04  0.95000000000E+03 0.  0.
   -2000013    1    1    2    0    0  0.34944350822E+03 -0.64330824867E+03 -0.19420658096E+04  0.22825590632E+04  0.95000000000E+03 0.  0.
<mgrwt>
<rscale>  0 0.24203320E+04</rscale>
<asrwt>0</asrwt>
<pdfrwt beam="2">  1        2 0.57346559E+00 0.24203320E+04</pdfrwt>
<pdfrwt beam="1">  1       -2 0.60444366E-01 0.24203320E+04</pdfrwt>
<totfact> 0.12783203E+00</totfact>
</mgrwt>
</event>
<event>
 4    1  0.2058093E-008  0.3083072E+04  0.7816531E-02  0.8220399E-01
         -2   -1    0    0    0  501 -0.00000000000E+00  0.00000000000E+00  0.71153615191E+03  0.71153615191E+03  0.00000000000E+00 0. -1.
          2   -1    0    0  501    0  0.00000000000E+00 -0.00000000000E+00 -0.33397233032E+04  0.33397233032E+04  0.00000000000E+00 0.  1.
    2000013    1    1    2    0    0  0.64410399076E+03  0.21822496387E+03  0.73703381093E+01  0.11683520050E+04  0.95000000000E+03 0.  0.
   -2000013    1    1    2    0    0 -0.64410399076E+03 -0.21822496387E+03 -0.26355574894E+04  0.28829074501E+04  0.95000000000E+03 0.  0.
<mgrwt>
<rscale>  0 0.30830724E+04</rscale>
<asrwt>0</asrwt>
<pdfrwt beam="2">  1        2 0.51380358E+00 0.30830724E+04</pdfrwt>
<pdfrwt beam="1">  1       -2 0.10946710E+00 0.30830724E+04</pdfrwt>
<totfact> 0.59154322E-01</totfact>
</mgrwt>
</event>
<event>
 4    1  0.2058093E-008  0.2860196E+04  0.7816531E-02  0.8284820E-01
          2   -1    0    0  501    0  0.00000000000E+00  0.00000000000E+00  0.23307567918E+04  0.23307567918E+04  0.00000000000E+00 0.  1.
         -2   -1    0    0    0  501 -0.00000000000E+00 -0.00000000000E+00 -0.87747457739E+03  0.87747457739E+03  0.00000000000E+00 0. -1.
    2000013    1    1    2    0    0 -0.70018143307E+01  0.86350620870E+03  0.19902961067E+02  0.12839735689E+04  0.95000000000E+03 0.  0.
   -2000013    1    1    2    0    0  0.70018143307E+01 -0.86350620870E+03  0.14333792533E+04  0.19242578002E+04  0.95000000000E+03 0.  0.
<mgrwt>
<rscale>  0 0.28601957E+04</rscale>
<asrwt>0</asrwt>
<pdfrwt beam="1">  1        2 0.35857797E+00 0.28601957E+04</pdfrwt>
<pdfrwt beam="2">  1       -2 0.13499609E+00 0.28601957E+04</pdfrwt>
<totfact> 0.14875034E+00</totfact>
</mgrwt>
</event>
<event>
 4    1  0.2058093E-008  0.2159788E+04  0.7816531E-02  0.8535354E-01
         -2   -1    0    0    0  501 -0.00000000000E+00  0.00000000000E+00  0.10326506566E+04  0.10326506566E+04  0.00000000000E+00 0. -1.
          2   -1    0    0  501    0  0.00000000000E+00 -0.00000000000E+00 -0.11292987543E+04  0.11292987543E+04  0.00000000000E+00 0.  1.
    2000013    1    1    2    0    0 -0.49642481994E+03  0.67236839316E+02 -0.16118751682E+03  0.10860201702E+04  0.95000000000E+03 0.  0.
   -2000013    1    1    2    0    0  0.49642481994E+03 -0.67236839316E+02  0.64539419136E+02  0.10759292407E+04  0.95000000000E+03 0.  0.
<mgrwt>
<rscale>  0 0.21597880E+04</rscale>
<asrwt>0</asrwt>
<pdfrwt beam="2">  1        2 0.17373827E+00 0.21597880E+04</pdfrwt>
<pdfrwt beam="1">  1       -2 0.15886933E+00 0.21597880E+04</pdfrwt>
<totfact> 0.49222379E+00</totfact>
</mgrwt>
</event>
<event>
 4    1  0.2058093E-008  0.2954614E+04  0.7816531E-02  0.8256811E-01
          2   -1    0    0  501    0  0.00000000000E+00  0.00000000000E+00  0.20942967787E+04  0.20942967787E+04  0.00000000000E+00 0.  1.
         -2   -1    0    0    0  501 -0.00000000000E+00 -0.00000000000E+00 -0.10420855601E+04  0.10420855601E+04  0.00000000000E+00 0. -1.
    2000013    1    1    2    0    0  0.96820230455E+03 -0.48579307595E+03  0.17964358500E+03  0.14519581374E+04  0.95000000000E+03 0.  0.
   -2000013    1    1    2    0    0 -0.96820230455E+03  0.48579307595E+03  0.87256763355E+03  0.16844242014E+04  0.95000000000E+03 0.  0.
<mgrwt>
<rscale>  0 0.29546143E+04</rscale>
<asrwt>0</asrwt>
<pdfrwt beam="1">  1        2 0.32219950E+00 0.29546143E+04</pdfrwt>
<pdfrwt beam="2">  1       -2 0.16032086E+00 0.29546143E+04</pdfrwt>
<totfact> 0.12741416E+00</totfact>
</mgrwt>
</event>
<event>
 4    1  0.2058093E-008  0.2508199E+04  0.7816531E-02  0.8400070E-01
         -1   -1    0    0    0  501 -0.00000000000E+00  0.00000000000E+00  0.52648577600E+03  0.52648577600E+03  0.00000000000E+00 0. -1.
          1   -1    0    0  501    0  0.00000000000E+00 -0.00000000000E+00 -0.29872900606E+04  0.29872900606E+04  0.00000000000E+00 0.  1.
    2000013    1    1    2    0    0  0.43497639861E+03  0.68975208067E+03 -0.11283819396E+04  0.16854400617E+04  0.95000000000E+03 0.  0.
   -2000013    1    1    2    0    0 -0.43497639861E+03 -0.68975208067E+03 -0.13324223450E+04  0.18283357749E+04  0.95000000000E+03 0.  0.
<mgrwt>
<rscale>  0 0.25081991E+04</rscale>
<asrwt>0</asrwt>
<pdfrwt beam="2">  1        1 0.45958308E+00 0.25081991E+04</pdfrwt>
<pdfrwt beam="1">  1       -1 0.80997812E-01 0.25081991E+04</pdfrwt>
<totfact> 0.82349446E-01</totfact>
</mgrwt>
</event>
<event>
 4    1  0.2058093E-008  0.3920419E+04  0.7816531E-02  0.8020796E-01
         -2   -1    0    0    0  501 -0.00000000000E+00  0.00000000000E+00  0.17884581981E+04  0.17884581981E+04  0.00000000000E+00 0.  1.
          2   -1    0    0  501    0  0.00000000000E+00 -0.00000000000E+00 -0.21484544394E+04  0.21484544394E+04  0.00000000000E+00 0. -1.
    2000013    1    1    2    0    0  0.90223442255E+03  0.10928704003E+04 -0.11492158176E+04  0.20570828035E+04  0.95000000000E+03 0.  0.
   -2000013    1    1    2    0    0 -0.90223442255E+03 -0.10928704003E+04  0.78921957625E+03  0.18798298339E+04  0.95000000000E+03 0.  0.
<mgrwt>
<rscale>  0 0.39204188E+04</rscale>
<asrwt>0</asrwt>
<pdfrwt beam="2">  1        2 0.33053145E+00 0.39204188E+04</pdfrwt>
<pdfrwt beam="1">  1       -2 0.27514742E+00 0.39204188E+04</pdfrwt>
<totfact> 0.19759797E-01</totfact>
</mgrwt>
</event>
<event>
 4    1  0.2058093E-008  0.1966537E+04  0.7816531E-02  0.8622428E-01
          1   -1    0    0  501    0  0.00000000000E+00  0.00000000000E+00  0.29501532066E+04  0.29501532066E+04  0.00000000000E+00 0. -1.
         -1   -1    0    0    0  501 -0.00000000000E+00 -0.00000000000E+00 -0.32771738247E+03  0.32771738247E+03  0.00000000000E+00 0.  1.
    2000013    1    1    2    0    0 -0.12157752530E+03 -0.14556069418E+03  0.10305795833E+04  0.14144127007E+04  0.95000000000E+03 0.  0.
   -2000013    1    1    2    0    0  0.12157752530E+03  0.14556069418E+03  0.15918562408E+04  0.18634578884E+04  0.95000000000E+03 0.  0.
<mgrwt>
<rscale>  0 0.19665365E+04</rscale>
<asrwt>0</asrwt>
<pdfrwt beam="1">  1        1 0.45386971E+00 0.19665365E+04</pdfrwt>
<pdfrwt beam="2">  1       -1 0.50418061E-01 0.19665365E+04</pdfrwt>
<totfact> 0.23928760E+00</totfact>
</mgrwt>
</event>
<event>
 4    1  0.2058093E-008  0.2087895E+04  0.7816531E-02  0.8566595E-01
          1   -1    0    0  501    0  0.00000000000E+00  0.00000000000E+00  0.20197734350E+04  0.20197734350E+04  0.00000000000E+00 0.  1.
         -1   -1    0    0    0  501 -0.00000000000E+00 -0.00000000000E+00 -0.53957842420E+03  0.53957842420E+03  0.00000000000E+00 0. -1.
    2000013    1    1    2    0    0 -0.99250534130E+01 -0.42537687277E+03  0.83725503421E+03  0.13358667534E+04  0.95000000000E+03 0.  0.
   -2000013    1    1    2    0    0  0.99250534130E+01  0.42537687277E+03  0.64293997660E+03  0.12234851058E+04  0.95000000000E+03 0.  0.
<mgrwt>
<rscale>  0 0.20878948E+04</rscale>
<asrwt>0</asrwt>
<pdfrwt beam="1">  1        1 0.31073437E+00 0.20878948E+04</pdfrwt>
<pdfrwt beam="2">  1       -1 0.83012066E-01 0.20878948E+04</pdfrwt>
<totfact> 0.38327062E+00</totfact>
</mgrwt>
</event>
<event>
 4    1  0.2058093E-008  0.2608931E+04  0.7816531E-02  0.8365174E-01
          1   -1    0    0  501    0  0.00000000000E+00  0.00000000000E+00  0.11726076945E+04  0.11726076945E+04  0.00000000000E+00 0. -1.
         -1   -1    0    0    0  501 -0.00000000000E+00 -0.00000000000E+00 -0.14511508997E+04  0.14511508997E+04  0.00000000000E+00 0.  1.
    2000013    1    1    2    0    0 -0.81430980359E+02  0.73031553377E+03  0.37267839983E+03  0.12575297106E+04  0.95000000000E+03 0.  0.
   -2000013    1    1    2    0    0  0.81430980359E+02 -0.73031553377E+03 -0.65122160497E+03  0.13662288835E+04  0.95000000000E+03 0.  0.
<mgrwt>
<rscale>  0 0.26089314E+04</rscale>
<asrwt>0</asrwt>
<pdfrwt beam="1">  1        1 0.18040118E+00 0.26089314E+04</pdfrwt>
<pdfrwt beam="2">  1       -1 0.22325398E+00 0.26089314E+04</pdfrwt>
<totfact> 0.10310090E+00</totfact>
</mgrwt>
</event>
<event>
 4    1  0.2058093E-008  0.2538392E+04  0.7816531E-02  0.8389434E-01
         -2   -1    0    0    0  501 -0.00000000000E+00  0.00000000000E+00  0.20556164339E+04  0.20556164339E+04  0.00000000000E+00 0. -1.
          2   -1    0    0  501    0  0.00000000000E+00 -0.00000000000E+00 -0.78363777893E+03  0.78363777893E+03  0.00000000000E+00 0.  1.
    2000013    1    1    2    0    0 -0.27663804613E+03  0.77231832775E+03  0.42567549364E+03  0.13254070446E+04  0.95000000000E+03 0.  0.
   -2000013    1    1    2    0    0  0.27663804613E+03 -0.77231832775E+03  0.84630316131E+03  0.15138471682E+04  0.95000000000E+03 0.  0.
<mgrwt>
<rscale>  0 0.25383922E+04</rscale>
<asrwt>0</asrwt>
<pdfrwt beam="2">  1        2 0.12055966E+00 0.25383922E+04</pdfrwt>
<pdfrwt beam="1">  1       -2 0.31624868E+00 0.25383922E+04</pdfrwt>
<totfact> 0.79515895E-01</totfact>
</mgrwt>
</event>
<event>
 4    1  0.2058093E-008  0.2069978E+04  0.7816531E-02  0.8574585E-01
          1   -1    0    0  501    0  0.00000000000E+00  0.00000000000E+00  0.37309143174E+04  0.37309143174E+04  0.00000000000E+00 0. -1.
         -1   -1    0    0    0  501 -0.00000000000E+00 -0.00000000000E+00 -0.28711531387E+03  0.28711531387E+03  0.00000000000E+00 0.  1.
    2000013    1    1    2    0    0  0.17781178277E+03 -0.36285724798E+03  0.18648072877E+04  0.21314991515E+04  0.95000000000E+03 0.  0.
   -2000013    1    1    2    0    0 -0.17781178277E+03  0.36285724798E+03  0.15789917157E+04  0.18865304797E+04  0.95000000000E+03 0.  0.
<mgrwt>
<rscale>  0 0.20699784E+04</rscale>
<asrwt>0</asrwt>
<pdfrwt beam="1">  1        1 0.57398678E+00 0.20699784E+04</pdfrwt>
<pdfrwt beam="2">  1       -1 0.44171589E-01 0.20699784E+04</pdfrwt>
<totfact> 0.76468812E-01</totfact>
</mgrwt>
</event>
<event>
 4    1  0.2058093E-008  0.2531488E+04  0.7816531E-02  0.8391853E-01
         -1   -1    0    0    0  501 -0.00000000000E+00  0.00000000000E+00  0.10799313910E+04  0.10799313910E+04  0.00000000000E+00 0. -1.
          1   -1    0    0  501    0  0.00000000000E+00 -0.00000000000E+00 -0.14835272285E+04  0.14835272285E+04  0.00000000000E+00 0.  1.
    2000013    1    1    2    0    0  0.36967599363E+03  0.51850082683E+03  0.34736482665E+03  0.11952680747E+04  0.95000000000E+03 0.  0.
   -2000013    1    1    2    0    0 -0.36967599363E+03 -0.51850082683E+03 -0.75096066414E+03  0.13681905448E+04  0.95000000000E+03 0.  0.
<mgrwt>
<rscale>  0 0.25314878E+04</rscale>
<asrwt>0</asrwt>
<pdfrwt beam="2">  1        1 0.22823496E+00 0.25314878E+04</pdfrwt>
<pdfrwt beam="1">  1       -1 0.16614329E+00 0.25314878E+04</pdfrwt>
<totfact> 0.15637565E+00</totfact>
</mgrwt>
</event>
<event>
 4    1  0.2058093E-008  0.3127695E+04  0.7816531E-02  0.8208178E-01
         -2   -1    0    0    0  501 -0.00000000000E+00  0.00000000000E+00  0.62056325495E+03  0.62056325495E+03  0.00000000000E+00 0. -1.
          2   -1    0    0  501    0  0.00000000000E+00 -0.00000000000E+00 -0.39409676737E+04  0.39409676737E+04  0.00000000000E+00 0.  1.
    2000013    1    1    2    0    0 -0.84083262282E+03  0.61692966687E+03 -0.26445281756E+04  0.29972705893E+04  0.95000000000E+03 0.  0.
   -2000013    1    1    2    0    0  0.84083262282E+03 -0.61692966687E+03 -0.67587624312E+03  0.15642603394E+04  0.95000000000E+03 0.  0.
<mgrwt>
<rscale>  0 0.31276955E+04</rscale>
<asrwt>0</asrwt>
<pdfrwt beam="2">  1        2 0.60630273E+00 0.31276955E+04</pdfrwt>
<pdfrwt beam="1">  1       -2 0.95471269E-01 0.31276955E+04</pdfrwt>
<totfact> 0.29738302E-01</totfact>
</mgrwt>
</event>
<event>
 4    1  0.2058093E-008  0.2124961E+04  0.7816531E-02  0.8550327E-01
          2   -1    0    0  501    0  0.00000000000E+00  0.00000000000E+00  0.25595472939E+04  0.25595472939E+04  0.00000000000E+00 0.  1.
         -2   -1    0    0    0  501 -0.00000000000E+00 -0.00000000000E+00 -0.44104096939E+03  0.44104096939E+03  0.00000000000E+00 0. -1.
    2000013    1    1    2    0    0 -0.41243230543E+03  0.16631922171E+02  0.13933740194E+04  0.17361935910E+04  0.95000000000E+03 0.  0.
   -2000013    1    1    2    0    0  0.41243230543E+03 -0.16631922171E+02  0.72513230503E+03  0.12643946722E+04  0.95000000000E+03 0.  0.
<mgrwt>
<rscale>  0 0.21249614E+04</rscale>
<asrwt>0</asrwt>
<pdfrwt beam="1">  1        2 0.39377650E+00 0.21249614E+04</pdfrwt>
<pdfrwt beam="2">  1       -2 0.67852458E-01 0.21249614E+04</pdfrwt>
<totfact> 0.58828308E+00</totfact>
</mgrwt>
</event>
<event>
 4    1  0.2058093E-008  0.2945389E+04  0.7816531E-02  0.8259500E-01
          2   -1    0    0  501    0  0.00000000000E+00  0.00000000000E+00  0.27223020655E+04  0.27223020655E+04  0.00000000000E+00 0. -1.
         -2   -1    0    0    0  501 -0.00000000000E+00 -0.00000000000E+00 -0.79668925914E+03  0.79668925914E+03  0.00000000000E+00 0.  1.
    2000013    1    1    2    0    0  0.70536628297E+03  0.81630477810E+03  0.58042473762E+03  0.15502541598E+04  0.95000000000E+03 0.  0.
   -2000013    1    1    2    0    0 -0.70536628297E+03 -0.81630477810E+03  0.13451880687E+04  0.19687371648E+04  0.95000000000E+03 0.  0.
<mgrwt>
<rscale>  0 0.29453888E+04</rscale>
<asrwt>0</asrwt>
<pdfrwt beam="1">  1        2 0.41881570E+00 0.29453888E+04</pdfrwt>
<pdfrwt beam="2">  1       -2 0.12256758E+00 0.29453888E+04</pdfrwt>
<totfact> 0.11149490E+00</totfact>
</mgrwt>
</event>
<event>
 4    1  0.2058093E-008  0.2745387E+04  0.7816531E-02  0.8320427E-01
          1   -1    0    0  501    0  0.00000000000E+00  0.00000000000E+00  0.21189859841E+04  0.21189859841E+04  0.00000000000E+00 0.  1.
         -1   -1    0    0    0  501 -0.00000000000E+00 -0.00000000000E+00 -0.88924003162E+03  0.88924003162E+03  0.00000000000E+00 0. -1.
    2000013    1    1    2    0    0 -0.44146703750E+03  0.87281408773E+03  0.44131136421E+03  0.14331619926E+04  0.95000000000E+03 0.  0.
   -2000013    1    1    2    0    0  0.44146703750E+03 -0.87281408773E+03  0.78843458831E+03  0.15750640231E+04  0.95000000000E+03 0.  0.
<mgrwt>
<rscale>  0 0.27453868E+04</rscale>
<asrwt>0</asrwt>
<pdfrwt beam="1">  1        1 0.32599784E+00 0.27453868E+04</pdfrwt>
<pdfrwt beam="2">  1       -1 0.13680616E+00 0.27453868E+04</pdfrwt>
<totfact> 0.95760592E-01</totfact>
</mgrwt>
</event>
<event>
 4    1  0.2058093E-008  0.3174710E+04  0.7816531E-02  0.8195528E-01
         -2   -1    0    0    0  501 -0.00000000000E+00  0.00000000000E+00  0.22704736194E+04  0.22704736194E+04  0.00000000000E+00 0. -1.
          2   -1    0    0  501    0  0.00000000000E+00 -0.00000000000E+00 -0.11097668786E+04  0.11097668786E+04  0.00000000000E+00 0.  1.
    2000013    1    1    2    0    0 -0.90655164281E+03  0.82450533578E+03  0.94228894634E+03  0.18144016612E+04  0.95000000000E+03 0.  0.
   -2000013    1    1    2    0    0  0.90655164281E+03 -0.82450533578E+03  0.21841779452E+03  0.15658388368E+04  0.95000000000E+03 0.  0.
<mgrwt>
<rscale>  0 0.31747103E+04</rscale>
<asrwt>0</asrwt>
<pdfrwt beam="2">  1        2 0.17073337E+00 0.31747103E+04</pdfrwt>
<pdfrwt beam="1">  1       -2 0.34930363E+00 0.31747103E+04</pdfrwt>
<totfact> 0.28483170E-01</totfact>
</mgrwt>
</event>
<event>
 4    1  0.2058093E-008  0.2308687E+04  0.7816531E-02  0.8474504E-01
          2   -1    0    0  501    0  0.00000000000E+00  0.00000000000E+00  0.22873896603E+04  0.22873896603E+04  0.00000000000E+00 0.  1.
         -2   -1    0    0    0  501 -0.00000000000E+00 -0.00000000000E+00 -0.58254588480E+03  0.58254588480E+03  0.00000000000E+00 0. -1.
    2000013    1    1    2    0    0 -0.42398517720E+03  0.48072222565E+03  0.68038732418E+03  0.13327731238E+04  0.95000000000E+03 0.  0.
   -2000013    1    1    2    0    0  0.42398517720E+03 -0.48072222565E+03  0.10244564513E+04  0.15371624213E+04  0.95000000000E+03 0.  0.
<mgrwt>
<rscale>  0 0.23086874E+04</rscale>
<asrwt>0</asrwt>
<pdfrwt beam="1">  1        2 0.35190610E+00 0.23086874E+04</pdfrwt>
<pdfrwt beam="2">  1       -2 0.89622445E-01 0.23086874E+04</pdfrwt>
<totfact> 0.44552098E+00</totfact>
</mgrwt>
</event>
<event>
 4    1  0.2058093E-008  0.2624360E+04  0.7816531E-02  0.8359974E-01
         -2   -1    0    0    0  501 -0.00000000000E+00  0.00000000000E+00  0.13089258328E+04  0.13089258328E+04  0.00000000000E+00 0. -1.
          2   -1    0    0  501    0  0.00000000000E+00 -0.00000000000E+00 -0.13154419598E+04  0.13154419598E+04  0.00000000000E+00 0.  1.
    2000013    1    1    2    0    0  0.33334198713E+03  0.21989547295E+03 -0.81556904536E+03  0.13142008093E+04  0.95000000000E+03 0.  0.
   -2000013    1    1    2    0    0 -0.33334198713E+03 -0.21989547295E+03  0.80905291837E+03  0.13101669833E+04  0.95000000000E+03 0.  0.
<mgrwt>
<rscale>  0 0.26243597E+04</rscale>
<asrwt>0</asrwt>
<pdfrwt beam="2">  1        2 0.20237568E+00 0.26243597E+04</pdfrwt>
<pdfrwt beam="1">  1       -2 0.20137321E+00 0.26243597E+04</pdfrwt>
<totfact> 0.18621841E+00</totfact>
</mgrwt>
</event>
<event>
 4    1  0.2058093E-008  0.2626801E+04  0.7816531E-02  0.8359154E-01
          2   -1    0    0  501    0  0.00000000000E+00  0.00000000000E+00  0.28837023773E+04  0.28837023773E+04  0.00000000000E+00 0.  1.
         -2   -1    0    0    0  501 -0.00000000000E+00 -0.00000000000E+00 -0.59819654524E+03  0.59819654524E+03  0.00000000000E+00 0. -1.
    2000013    1    1    2    0    0 -0.60602805736E+03 -0.51103931013E+03  0.17267223921E+04  0.21242649087E+04  0.95000000000E+03 0.  0.
   -2000013    1    1    2    0    0  0.60602805736E+03  0.51103931013E+03  0.55878343995E+03  0.13576340139E+04  0.95000000000E+03 0.  0.
<mgrwt>
<rscale>  0 0.26268009E+04</rscale>
<asrwt>0</asrwt>
<pdfrwt beam="1">  1        2 0.44364651E+00 0.26268009E+04</pdfrwt>
<pdfrwt beam="2">  1       -2 0.92030240E-01 0.26268009E+04</pdfrwt>
<totfact> 0.18207817E+00</totfact>
</mgrwt>
</event>
<event>
 4    1  0.2058093E-008  0.3527555E+04  0.7816531E-02  0.8107291E-01
          2   -1    0    0  501    0  0.00000000000E+00  0.00000000000E+00  0.13768392452E+04  0.13768392452E+04  0.00000000000E+00 0.  1.
         -2   -1    0    0    0  501 -0.00000000000E+00 -0.00000000000E+00 -0.22594583470E+04  0.22594583470E+04  0.00000000000E+00 0. -1.
    2000013    1    1    2    0    0  0.96686175055E+03 -0.68884128779E+03 -0.13627826403E+04  0.20418130397E+04  0.95000000000E+03 0.  0.
   -2000013    1    1    2    0    0 -0.96686175055E+03  0.68884128779E+03  0.48016353846E+03  0.15944845525E+04  0.95000000000E+03 0.  0.
<mgrwt>
<rscale>  0 0.35275549E+04</rscale>
<asrwt>0</asrwt>
<pdfrwt beam="1">  1        2 0.21182142E+00 0.35275549E+04</pdfrwt>
<pdfrwt beam="2">  1       -2 0.34760897E+00 0.35275549E+04</pdfrwt>
<totfact> 0.19696080E-01</totfact>
</mgrwt>
</event>
<event>
 4    1  0.2058093E-008  0.2815970E+04  0.7816531E-02  0.8298328E-01
          2   -1    0    0  501    0  0.00000000000E+00  0.00000000000E+00  0.29202689247E+04  0.29202689247E+04  0.00000000000E+00 0.  1.
         -2   -1    0    0    0  501 -0.00000000000E+00 -0.00000000000E+00 -0.67884884786E+03  0.67884884786E+03  0.00000000000E+00 0. -1.
    2000013    1    1    2    0    0  0.91067903311E+03  0.47359401160E+03  0.13279593852E+04  0.19286274181E+04  0.95000000000E+03 0.  0.
   -2000013    1    1    2    0    0 -0.91067903311E+03 -0.47359401160E+03  0.91346069166E+03  0.16704903545E+04  0.95000000000E+03 0.  0.
<mgrwt>
<rscale>  0 0.28159696E+04</rscale>
<asrwt>0</asrwt>
<pdfrwt beam="1">  1        2 0.44927214E+00 0.28159696E+04</pdfrwt>
<pdfrwt beam="2">  1       -2 0.10443829E+00 0.28159696E+04</pdfrwt>
<totfact> 0.12625930E+00</totfact>
</mgrwt>
</event>
<event>
 4    1  0.2058093E-008  0.2193015E+04  0.7816531E-02  0.8521341E-01
          2   -1    0    0  501    0  0.00000000000E+00  0.00000000000E+00  0.90504042419E+03  0.90504042419E+03  0.00000000000E+00 0.  1.
         -2   -1    0    0    0  501 -0.00000000000E+00 -0.00000000000E+00 -0.13284808367E+04  0.13284808367E+04  0.00000000000E+00 0. -1.
    2000013    1    1    2    0    0  0.43461817193E+03  0.30772322790E+03 -0.81920865773E+02  0.10921527222E+04  0.95000000000E+03 0.  0.
   -2000013    1    1    2    0    0 -0.43461817193E+03 -0.30772322790E+03 -0.34151954677E+03  0.11413685387E+04  0.95000000000E+03 0.  0.
<mgrwt>
<rscale>  0 0.21930151E+04</rscale>
<asrwt>0</asrwt>
<pdfrwt beam="1">  1        2 0.13923699E+00 0.21930151E+04</pdfrwt>
<pdfrwt beam="2">  1       -2 0.20438167E+00 0.21930151E+04</pdfrwt>
<totfact> 0.33116025E+00</totfact>
</mgrwt>
</event>
<event>
 4    1  0.2058093E-008  0.2388776E+04  0.7816531E-02  0.8443718E-01
         -2   -1    0    0    0  501 -0.00000000000E+00  0.00000000000E+00  0.98357223931E+03  0.98357223931E+03  0.00000000000E+00 0. -1.
          2   -1    0    0  501    0  0.00000000000E+00 -0.00000000000E+00 -0.14503889110E+04  0.14503889110E+04  0.00000000000E+00 0.  1.
    2000013    1    1    2    0    0 -0.53953696553E+03  0.88174700999E+02  0.25010702816E+03  0.11242457207E+04  0.95000000000E+03 0.  0.
   -2000013    1    1    2    0    0  0.53953696553E+03 -0.88174700999E+02 -0.71692369987E+03  0.13097154296E+04  0.95000000000E+03 0.  0.
<mgrwt>
<rscale>  0 0.23887756E+04</rscale>
<asrwt>0</asrwt>
<pdfrwt beam="2">  1        2 0.22313676E+00 0.23887756E+04</pdfrwt>
<pdfrwt beam="1">  1       -2 0.15131881E+00 0.23887756E+04</pdfrwt>
<totfact> 0.35688535E+00</totfact>
</mgrwt>
</event>
<event>
 4    1  0.2058093E-008  0.3475055E+04  0.7816531E-02  0.8119727E-01
          2   -1    0    0  501    0  0.00000000000E+00  0.00000000000E+00  0.14184334159E+04  0.14184334159E+04  0.00000000000E+00 0.  1.
         -2   -1    0    0    0  501 -0.00000000000E+00 -0.00000000000E+00 -0.21284061626E+04  0.21284061626E+04  0.00000000000E+00 0. -1.
    2000013    1    1    2    0    0 -0.10786693626E+04 -0.97268556383E+03 -0.43950776566E+03  0.17903384808E+04  0.95000000000E+03 0.  0.
   -2000013    1    1    2    0    0  0.10786693626E+04  0.97268556383E+03 -0.27046498105E+03  0.17565010976E+04  0.95000000000E+03 0.  0.
<mgrwt>
<rscale>  0 0.34750554E+04</rscale>
<asrwt>0</asrwt>
<pdfrwt beam="1">  1        2 0.21822053E+00 0.34750554E+04</pdfrwt>
<pdfrwt beam="2">  1       -2 0.32744710E+00 0.34750554E+04</pdfrwt>
<totfact> 0.25031734E-01</totfact>
</mgrwt>
</event>
<event>
 4    1  0.2058093E-008  0.2417557E+04  0.7816531E-02  0.8432960E-01
          2   -1    0    0  501    0  0.00000000000E+00  0.00000000000E+00  0.18924241033E+04  0.18924241033E+04  0.00000000000E+00 0.  1.
         -2   -1    0    0    0  501 -0.00000000000E+00 -0.00000000000E+00 -0.77210246747E+03  0.77210246747E+03  0.00000000000E+00 0. -1.
    2000013    1    1    2    0    0 -0.35402839573E+02  0.73488294447E+03  0.41503135615E+03  0.12712424355E+04  0.95000000000E+03 0.  0.
   -2000013    1    1    2    0    0  0.35402839573E+02 -0.73488294447E+03  0.70529027972E+03  0.13932841353E+04  0.95000000000E+03 0.  0.
<mgrwt>
<rscale>  0 0.24175569E+04</rscale>
<asrwt>0</asrwt>
<pdfrwt beam="1">  1        2 0.29114217E+00 0.24175569E+04</pdfrwt>
<pdfrwt beam="2">  1       -2 0.11878500E+00 0.24175569E+04</pdfrwt>
<totfact> 0.37496362E+00</totfact>
</mgrwt>
</event>
<event>
 4    1  0.2058093E-008  0.2518426E+04  0.7816531E-02  0.8396451E-01
          2   -1    0    0  501    0  0.00000000000E+00  0.00000000000E+00  0.38520166779E+04  0.38520166779E+04  0.00000000000E+00 0.  1.
         -2   -1    0    0    0  501 -0.00000000000E+00 -0.00000000000E+00 -0.41163296503E+03  0.41163296503E+03  0.00000000000E+00 0. -1.
    2000013    1    1    2    0    0  0.19141319235E+03 -0.55727121141E+03  0.73895306390E+03  0.13400529258E+04  0.95000000000E+03 0.  0.
   -2000013    1    1    2    0    0 -0.19141319235E+03  0.55727121141E+03  0.27014306490E+04  0.29235967172E+04  0.95000000000E+03 0.  0.
<mgrwt>
<rscale>  0 0.25184257E+04</rscale>
<asrwt>0</asrwt>
<pdfrwt beam="1">  1        2 0.59261793E+00 0.25184257E+04</pdfrwt>
<pdfrwt beam="2">  1       -2 0.63328151E-01 0.25184257E+04</pdfrwt>
<totfact> 0.92346104E-01</totfact>
</mgrwt>
</event>
<event>
 4    1  0.2058093E-008  0.2638292E+04  0.7816531E-02  0.8355310E-01
          1   -1    0    0  501    0  0.00000000000E+00  0.00000000000E+00  0.30806350913E+04  0.30806350913E+04  0.00000000000E+00 0.  1.
         -1   -1    0    0    0  501 -0.00000000000E+00 -0.00000000000E+00 -0.56486590443E+03  0.56486590443E+03  0.00000000000E+00 0. -1.
    2000013    1    1    2    0    0 -0.27546346775E+03  0.71197024154E+03  0.19554559611E+04  0.23041462112E+04  0.95000000000E+03 0.  0.
   -2000013    1    1    2    0    0  0.27546346775E+03 -0.71197024154E+03  0.56031322574E+03  0.13413547845E+04  0.95000000000E+03 0.  0.
<mgrwt>
<rscale>  0 0.26382917E+04</rscale>
<asrwt>0</asrwt>
<pdfrwt beam="1">  1        1 0.47394385E+00 0.26382917E+04</pdfrwt>
<pdfrwt beam="2">  1       -1 0.86902449E-01 0.26382917E+04</pdfrwt>
<totfact> 0.59714067E-01</totfact>
</mgrwt>
</event>
<event>
 4    1  0.2058093E-008  0.2109003E+04  0.7816531E-02  0.8557288E-01
          2   -1    0    0  501    0  0.00000000000E+00  0.00000000000E+00  0.20866909511E+04  0.20866909511E+04  0.00000000000E+00 0.  1.
         -2   -1    0    0    0  501 -0.00000000000E+00 -0.00000000000E+00 -0.53288841323E+03  0.53288841323E+03  0.00000000000E+00 0. -1.
    2000013    1    1    2    0    0 -0.42645707274E+03 -0.15286073685E+03  0.69600873006E+03  0.12618083024E+04  0.95000000000E+03 0.  0.
   -2000013    1    1    2    0    0  0.42645707274E+03  0.15286073685E+03  0.85779380778E+03  0.13577710619E+04  0.95000000000E+03 0.  0.
<mgrwt>
<rscale>  0 0.21090030E+04</rscale>
<asrwt>0</asrwt>
<pdfrwt beam="1">  1        2 0.32102937E+00 0.21090030E+04</pdfrwt>
<pdfrwt beam="2">  1       -2 0.81982834E-01 0.21090030E+04</pdfrwt>
<totfact> 0.71989790E+00</totfact>
</mgrwt>
</event>
<event>
 4    1  0.2058093E-008  0.2109339E+04  0.7816531E-02  0.8557141E-01
          1   -1    0    0  501    0  0.00000000000E+00  0.00000000000E+00  0.74965525834E+03  0.74965525834E+03  0.00000000000E+00 0.  1.
         -1   -1    0    0    0  501 -0.00000000000E+00 -0.00000000000E+00 -0.14837852265E+04  0.14837852265E+04  0.00000000000E+00 0. -1.
    2000013    1    1    2    0    0  0.27158088430E+03 -0.27944008536E+03 -0.62203192727E+03  0.12005276576E+04  0.95000000000E+03 0.  0.
   -2000013    1    1    2    0    0 -0.27158088430E+03  0.27944008536E+03 -0.11209804091E+03  0.10329128273E+04  0.95000000000E+03 0.  0.
<mgrwt>
<rscale>  0 0.21093387E+04</rscale>
<asrwt>0</asrwt>
<pdfrwt beam="1">  1        1 0.11533158E+00 0.21093387E+04</pdfrwt>
<pdfrwt beam="2">  1       -1 0.22827465E+00 0.21093387E+04</pdfrwt>
<totfact> 0.21826256E+00</totfact>
</mgrwt>
</event>
<event>
 4    1  0.2058093E-008  0.2165622E+04  0.7816531E-02  0.8532875E-01
         -2   -1    0    0    0  501 -0.00000000000E+00  0.00000000000E+00  0.91023089394E+03  0.91023089394E+03  0.00000000000E+00 0. -1.
          2   -1    0    0  501    0  0.00000000000E+00 -0.00000000000E+00 -0.12881120724E+04  0.12881120724E+04  0.00000000000E+00 0.  1.
    2000013    1    1    2    0    0 -0.22932009679E+03  0.28897736441E+03  0.18248927787E+03  0.10353250506E+04  0.95000000000E+03 0.  0.
   -2000013    1    1    2    0    0  0.22932009679E+03 -0.28897736441E+03 -0.56037045633E+03  0.11630179157E+04  0.95000000000E+03 0.  0.
<mgrwt>
<rscale>  0 0.21656218E+04</rscale>
<asrwt>0</asrwt>
<pdfrwt beam="2">  1        2 0.19817109E+00 0.21656218E+04</pdfrwt>
<pdfrwt beam="1">  1       -2 0.14003552E+00 0.21656218E+04</pdfrwt>
<totfact> 0.55273672E+00</totfact>
</mgrwt>
</event>
<event>
 4    1  0.2058093E-008  0.3003885E+04  0.7816531E-02  0.8242622E-01
         -2   -1    0    0    0  501 -0.00000000000E+00  0.00000000000E+00  0.16152489809E+04  0.16152489809E+04  0.00000000000E+00 0. -1.
          2   -1    0    0  501    0  0.00000000000E+00 -0.00000000000E+00 -0.13965841273E+04  0.13965841273E+04  0.00000000000E+00 0.  1.
    2000013    1    1    2    0    0  0.24340514298E+03 -0.86652162150E+03 -0.62965596171E+03  0.14522645814E+04  0.95000000000E+03 0.  0.
   -2000013    1    1    2    0    0 -0.24340514298E+03  0.86652162150E+03  0.84832081538E+03  0.15595685269E+04  0.95000000000E+03 0.  0.
<mgrwt>
<rscale>  0 0.30038849E+04</rscale>
<asrwt>0</asrwt>
<pdfrwt beam="2">  1        2 0.21485910E+00 0.30038849E+04</pdfrwt>
<pdfrwt beam="1">  1       -2 0.24849984E+00 0.30038849E+04</pdfrwt>
<totfact> 0.81656164E-01</totfact>
</mgrwt>
</event>
<event>
 4    1  0.2058093E-008  0.2332263E+04  0.7816531E-02  0.8465308E-01
         -2   -1    0    0    0  501 -0.00000000000E+00  0.00000000000E+00  0.65017711510E+03  0.65017711510E+03  0.00000000000E+00 0. -1.
          2   -1    0    0  501    0  0.00000000000E+00 -0.00000000000E+00 -0.20915267121E+04  0.20915267121E+04  0.00000000000E+00 0.  1.
    2000013    1    1    2    0    0 -0.12631101730E+02 -0.54203730666E+03 -0.11958649702E+04  0.16206656082E+04  0.95000000000E+03 0.  0.
   -2000013    1    1    2    0    0  0.12631101730E+02  0.54203730666E+03 -0.24548462680E+03  0.11210382190E+04  0.95000000000E+03 0.  0.
<mgrwt>
<rscale>  0 0.23322631E+04</rscale>
<asrwt>0</asrwt>
<pdfrwt beam="2">  1        2 0.32177334E+00 0.23322631E+04</pdfrwt>
<pdfrwt beam="1">  1       -2 0.10002725E+00 0.23322631E+04</pdfrwt>
<totfact> 0.44335849E+00</totfact>
</mgrwt>
</event>
<event>
 4    1  0.2058093E-008  0.3919001E+04  0.7816531E-02  0.8021089E-01
          2   -1    0    0  501    0  0.00000000000E+00  0.00000000000E+00  0.20283885725E+04  0.20283885725E+04  0.00000000000E+00 0. -1.
         -2   -1    0    0    0  501 -0.00000000000E+00 -0.00000000000E+00 -0.18929524076E+04  0.18929524076E+04  0.00000000000E+00 0.  1.
    2000013    1    1    2    0    0  0.12604672282E+04 -0.10706447625E+04 -0.38208914741E+03  0.19451349458E+04  0.95000000000E+03 0.  0.
   -2000013    1    1    2    0    0 -0.12604672282E+04  0.10706447625E+04  0.51752531228E+03  0.19762060342E+04  0.95000000000E+03 0.  0.
<mgrwt>
<rscale>  0 0.39190014E+04</rscale>
<asrwt>0</asrwt>
<pdfrwt beam="1">  1        2 0.31205978E+00 0.39190014E+04</pdfrwt>
<pdfrwt beam="2">  1       -2 0.29122345E+00 0.39190014E+04</pdfrwt>
<totfact> 0.18399057E-01</totfact>
</mgrwt>
</event>
<event>
 4    1  0.2058093E-008  0.2658262E+04  0.7816531E-02  0.8348676E-01
         -2   -1    0    0    0  501 -0.00000000000E+00  0.00000000000E+00  0.99142974218E+03  0.99142974218E+03  0.00000000000E+00 0. -1.
          2   -1    0    0  501    0  0.00000000000E+00 -0.00000000000E+00 -0.17818599046E+04  0.17818599046E+04  0.00000000000E+00 0.  1.
    2000013    1    1    2    0    0 -0.61401866714E+02  0.73815109943E+03  0.19073942901E+03  0.12196387845E+04  0.95000000000E+03 0.  0.
   -2000013    1    1    2    0    0  0.61401866714E+02 -0.73815109943E+03 -0.98116959145E+03  0.15536508623E+04  0.95000000000E+03 0.  0.
<mgrwt>
<rscale>  0 0.26582618E+04</rscale>
<asrwt>0</asrwt>
<pdfrwt beam="2">  1        2 0.27413229E+00 0.26582618E+04</pdfrwt>
<pdfrwt beam="1">  1       -2 0.15252765E+00 0.26582618E+04</pdfrwt>
<totfact> 0.22283490E+00</totfact>
</mgrwt>
</event>
<event>
 4    1  0.2058093E-008  0.2062369E+04  0.7816531E-02  0.8578004E-01
         -2   -1    0    0    0  501 -0.00000000000E+00  0.00000000000E+00  0.55362755182E+03  0.55362755182E+03  0.00000000000E+00 0. -1.
          2   -1    0    0  501    0  0.00000000000E+00 -0.00000000000E+00 -0.19206797928E+04  0.19206797928E+04  0.00000000000E+00 0.  1.
    2000013    1    1    2    0    0  0.27763159589E+03  0.13329892131E+03 -0.37532274425E+03  0.10668716267E+04  0.95000000000E+03 0.  0.
   -2000013    1    1    2    0    0 -0.27763159589E+03 -0.13329892131E+03 -0.99172949676E+03  0.14074357180E+04  0.95000000000E+03 0.  0.
<mgrwt>
<rscale>  0 0.20623688E+04</rscale>
<asrwt>0</asrwt>
<pdfrwt beam="2">  1        2 0.29548920E+00 0.20623688E+04</pdfrwt>
<pdfrwt beam="1">  1       -2 0.85173469E-01 0.20623688E+04</pdfrwt>
<totfact> 0.81979510E+00</totfact>
</mgrwt>
</event>
<event>
 4    1  0.2058093E-008  0.2157595E+04  0.7816531E-02  0.8536288E-01
         -2   -1    0    0    0  501 -0.00000000000E+00  0.00000000000E+00  0.16055146825E+04  0.16055146825E+04  0.00000000000E+00 0. -1.
          2   -1    0    0  501    0  0.00000000000E+00 -0.00000000000E+00 -0.72487939952E+03  0.72487939952E+03  0.00000000000E+00 0.  1.
    2000013    1    1    2    0    0 -0.47173252040E+03  0.17590936911E+02  0.22848943267E+03  0.10851490371E+04  0.95000000000E+03 0.  0.
   -2000013    1    1    2    0    0  0.47173252040E+03 -0.17590936911E+02  0.65214585034E+03  0.12452450450E+04  0.95000000000E+03 0.  0.
<mgrwt>
<rscale>  0 0.21575954E+04</rscale>
<asrwt>0</asrwt>
<pdfrwt beam="2">  1        2 0.11151991E+00 0.21575954E+04</pdfrwt>
<pdfrwt beam="1">  1       -2 0.24700226E+00 0.21575954E+04</pdfrwt>
<totfact> 0.24095659E+00</totfact>
</mgrwt>
</event>
<event>
 4    1  0.2058093E-008  0.2182180E+04  0.7816531E-02  0.8525882E-01
         -1   -1    0    0    0  501 -0.00000000000E+00  0.00000000000E+00  0.76692131805E+03  0.76692131805E+03  0.00000000000E+00 0.  1.
          1   -1    0    0  501    0  0.00000000000E+00 -0.00000000000E+00 -0.15522806672E+04  0.15522806672E+04  0.00000000000E+00 0. -1.
    2000013    1    1    2    0    0 -0.43475200135E+03 -0.25756513058E+03 -0.58465416180E+03  0.12246099739E+04  0.95000000000E+03 0.  0.
   -2000013    1    1    2    0    0  0.43475200135E+03  0.25756513058E+03 -0.20070518736E+03  0.10945920114E+04  0.95000000000E+03 0.  0.
<mgrwt>
<rscale>  0 0.21821798E+04</rscale>
<asrwt>0</asrwt>
<pdfrwt beam="2">  1        1 0.23881241E+00 0.21821798E+04</pdfrwt>
<pdfrwt beam="1">  1       -1 0.11798789E+00 0.21821798E+04</pdfrwt>
<totfact> 0.35459215E+00</totfact>
</mgrwt>
</event>
<event>
 4    1  0.2058093E-008  0.4596762E+04  0.7816531E-02  0.7893912E-01
          2   -1    0    0  501    0  0.00000000000E+00  0.00000000000E+00  0.36381290118E+04  0.36381290118E+04  0.00000000000E+00 0.  1.
         -2   -1    0    0    0  501 -0.00000000000E+00 -0.00000000000E+00 -0.14519975155E+04  0.14519975155E+04  0.00000000000E+00 0. -1.
    2000013    1    1    2    0    0 -0.38054278002E+03 -0.18198645672E+04  0.21571012397E+04  0.30020502342E+04  0.95000000000E+03 0.  0.
   -2000013    1    1    2    0    0  0.38054278002E+03  0.18198645672E+04  0.29030256541E+02  0.20880762932E+04  0.95000000000E+03 0.  0.
<mgrwt>
<rscale>  0 0.45967616E+04</rscale>
<asrwt>0</asrwt>
<pdfrwt beam="1">  1        2 0.55971215E+00 0.45967616E+04</pdfrwt>
<pdfrwt beam="2">  1       -2 0.22338423E+00 0.45967616E+04</pdfrwt>
<totfact> 0.45717549E-02</totfact>
</mgrwt>
</event>
<event>
 4    1  0.2058093E-008  0.2307375E+04  0.7816531E-02  0.8475019E-01
         -2   -1    0    0    0  501 -0.00000000000E+00  0.00000000000E+00  0.18573423872E+04  0.18573423872E+04  0.00000000000E+00 0. -1.
          2   -1    0    0  501    0  0.00000000000E+00 -0.00000000000E+00 -0.71661250544E+03  0.71661250544E+03  0.00000000000E+00 0.  1.
    2000013    1    1    2    0    0  0.56314928574E+03 -0.21429583262E+03  0.85572138161E+03  0.14134422184E+04  0.95000000000E+03 0.  0.
   -2000013    1    1    2    0    0 -0.56314928574E+03  0.21429583262E+03  0.28500850020E+03  0.11605126743E+04  0.95000000000E+03 0.  0.
<mgrwt>
<rscale>  0 0.23073749E+04</rscale>
<asrwt>0</asrwt>
<pdfrwt beam="2">  1        2 0.11024808E+00 0.23073749E+04</pdfrwt>
<pdfrwt beam="1">  1       -2 0.28574498E+00 0.23073749E+04</pdfrwt>
<totfact> 0.13999764E+00</totfact>
</mgrwt>
</event>
<event>
 4    1  0.2058093E-008  0.2475807E+04  0.7816531E-02  0.8411655E-01
         -2   -1    0    0    0  501 -0.00000000000E+00  0.00000000000E+00  0.47271459639E+03  0.47271459639E+03  0.00000000000E+00 0. -1.
          2   -1    0    0  501    0  0.00000000000E+00 -0.00000000000E+00 -0.32417141766E+04  0.32417141766E+04  0.00000000000E+00 0.  1.
    2000013    1    1    2    0    0  0.51023148951E+03  0.59972606163E+03 -0.12352372596E+04  0.17459434726E+04  0.95000000000E+03 0.  0.
   -2000013    1    1    2    0    0 -0.51023148951E+03 -0.59972606163E+03 -0.15337623206E+04  0.19684853004E+04  0.95000000000E+03 0.  0.
<mgrwt>
<rscale>  0 0.24758074E+04</rscale>
<asrwt>0</asrwt>
<pdfrwt beam="2">  1        2 0.49872524E+00 0.24758074E+04</pdfrwt>
<pdfrwt beam="1">  1       -2 0.72725325E-01 0.24758074E+04</pdfrwt>
<totfact> 0.18612760E+00</totfact>
</mgrwt>
</event>
<event>
 4    1  0.2058093E-008  0.2063965E+04  0.7816531E-02  0.8577285E-01
          1   -1    0    0  501    0  0.00000000000E+00  0.00000000000E+00  0.19196293875E+04  0.19196293875E+04  0.00000000000E+00 0.  1.
         -1   -1    0    0    0  501 -0.00000000000E+00 -0.00000000000E+00 -0.55478844274E+03  0.55478844274E+03  0.00000000000E+00 0. -1.
    2000013    1    1    2    0    0  0.12233383326E+03 -0.35756006863E+03  0.85057581680E+03  0.13299601459E+04  0.95000000000E+03 0.  0.
   -2000013    1    1    2    0    0 -0.12233383326E+03  0.35756006863E+03  0.51426512792E+03  0.11444576843E+04  0.95000000000E+03 0.  0.
<mgrwt>
<rscale>  0 0.20639653E+04</rscale>
<asrwt>0</asrwt>
<pdfrwt beam="1">  1        1 0.29532760E+00 0.20639653E+04</pdfrwt>
<pdfrwt beam="2">  1       -1 0.85352069E-01 0.20639653E+04</pdfrwt>
<totfact> 0.42289686E+00</totfact>
</mgrwt>
</event>
<event>
 4    1  0.2058093E-008  0.3000333E+04  0.7816531E-02  0.8243636E-01
         -2   -1    0    0    0  501 -0.00000000000E+00  0.00000000000E+00  0.14008303132E+04  0.14008303132E+04  0.00000000000E+00 0. -1.
          2   -1    0    0  501    0  0.00000000000E+00 -0.00000000000E+00 -0.16065465712E+04  0.16065465712E+04  0.00000000000E+00 0.  1.
    2000013    1    1    2    0    0  0.53191432416E+03  0.98694688150E+03 -0.40523198777E+03  0.15243719884E+04  0.95000000000E+03 0.  0.
   -2000013    1    1    2    0    0 -0.53191432416E+03 -0.98694688150E+03  0.19951572971E+03  0.14830048960E+04  0.95000000000E+03 0.  0.
<mgrwt>
<rscale>  0 0.30003327E+04</rscale>
<asrwt>0</asrwt>
<pdfrwt beam="2">  1        2 0.24716101E+00 0.30003327E+04</pdfrwt>
<pdfrwt beam="1">  1       -2 0.21551236E+00 0.30003327E+04</pdfrwt>
<totfact> 0.99921780E-01</totfact>
</mgrwt>
</event>
<event>
 4    1  0.2058093E-008  0.3768381E+04  0.7816531E-02  0.8052975E-01
         -2   -1    0    0    0  501 -0.00000000000E+00  0.00000000000E+00  0.32832170362E+04  0.32832170362E+04  0.00000000000E+00 0. -1.
          2   -1    0    0  501    0  0.00000000000E+00 -0.00000000000E+00 -0.10813092867E+04  0.10813092867E+04  0.00000000000E+00 0.  1.
    2000013    1    1    2    0    0 -0.11191824722E+04 -0.11037072037E+04  0.15881323561E+04  0.24280451763E+04  0.95000000000E+03 0.  0.
   -2000013    1    1    2    0    0  0.11191824722E+04  0.11037072037E+04  0.61377539340E+03  0.19364811466E+04  0.95000000000E+03 0.  0.
<mgrwt>
<rscale>  0 0.37683806E+04</rscale>
<asrwt>0</asrwt>
<pdfrwt beam="2">  1        2 0.16635528E+00 0.37683806E+04</pdfrwt>
<pdfrwt beam="1">  1       -2 0.50511031E+00 0.37683806E+04</pdfrwt>
<totfact> 0.27595419E-02</totfact>
</mgrwt>
</event>
<event>
 4    1  0.2058093E-008  0.2420531E+04  0.7816531E-02  0.8431857E-01
          2   -1    0    0  501    0  0.00000000000E+00  0.00000000000E+00  0.10270538358E+04  0.10270538358E+04  0.00000000000E+00 0.  1.
         -2   -1    0    0    0  501 -0.00000000000E+00 -0.00000000000E+00 -0.14261599574E+04  0.14261599574E+04  0.00000000000E+00 0. -1.
    2000013    1    1    2    0    0  0.33643181109E+03 -0.57231313139E+03 -0.55284888129E+03  0.12840835524E+04  0.95000000000E+03 0.  0.
   -2000013    1    1    2    0    0 -0.33643181109E+03  0.57231313139E+03  0.15374275971E+03  0.11691302408E+04  0.95000000000E+03 0.  0.
<mgrwt>
<rscale>  0 0.24205314E+04</rscale>
<asrwt>0</asrwt>
<pdfrwt beam="1">  1        2 0.15800828E+00 0.24205314E+04</pdfrwt>
<pdfrwt beam="2">  1       -2 0.21940922E+00 0.24205314E+04</pdfrwt>
<totfact> 0.21657919E+00</totfact>
</mgrwt>
</event>
<event>
 4    1  0.2058093E-008  0.2720012E+04  0.7816531E-02  0.8328541E-01
         -2   -1    0    0    0  501 -0.00000000000E+00  0.00000000000E+00  0.18707201192E+04  0.18707201192E+04  0.00000000000E+00 0. -1.
          2   -1    0    0  501    0  0.00000000000E+00 -0.00000000000E+00 -0.98871862516E+03  0.98871862516E+03  0.00000000000E+00 0.  1.
    2000013    1    1    2    0    0  0.47834436955E+03 -0.84573107836E+03  0.49897685545E+03  0.14476022572E+04  0.95000000000E+03 0.  0.
   -2000013    1    1    2    0    0 -0.47834436955E+03  0.84573107836E+03  0.38302463862E+03  0.14118364872E+04  0.95000000000E+03 0.  0.
<mgrwt>
<rscale>  0 0.27200116E+04</rscale>
<asrwt>0</asrwt>
<pdfrwt beam="2">  1        2 0.15211056E+00 0.27200116E+04</pdfrwt>
<pdfrwt beam="1">  1       -2 0.28780310E+00 0.27200116E+04</pdfrwt>
<totfact> 0.84663449E-01</totfact>
</mgrwt>
</event>
<event>
 4    1  0.2058093E-008  0.2074214E+04  0.7816531E-02  0.8572688E-01
         -2   -1    0    0    0  501 -0.00000000000E+00  0.00000000000E+00  0.13419924470E+04  0.13419924470E+04  0.00000000000E+00 0. -1.
          2   -1    0    0  501    0  0.00000000000E+00 -0.00000000000E+00 -0.80148831174E+03  0.80148831174E+03  0.00000000000E+00 0.  1.
    2000013    1    1    2    0    0 -0.38266272763E+03 -0.14128529277E+02  0.43835222552E+03  0.11141288310E+04  0.95000000000E+03 0.  0.
   -2000013    1    1    2    0    0  0.38266272763E+03  0.14128529277E+02  0.10215190973E+03  0.10293519277E+04  0.95000000000E+03 0.  0.
<mgrwt>
<rscale>  0 0.20742143E+04</rscale>
<asrwt>0</asrwt>
<pdfrwt beam="2">  1        2 0.12330589E+00 0.20742143E+04</pdfrwt>
<pdfrwt beam="1">  1       -2 0.20646038E+00 0.20742143E+04</pdfrwt>
<totfact> 0.38280881E+00</totfact>
</mgrwt>
</event>
<event>
 4    1  0.2058093E-008  0.2464081E+04  0.7816531E-02  0.8415895E-01
         -2   -1    0    0    0  501 -0.00000000000E+00  0.00000000000E+00  0.23411708568E+04  0.23411708568E+04  0.00000000000E+00 0. -1.
          2   -1    0    0  501    0  0.00000000000E+00 -0.00000000000E+00 -0.64836089651E+03  0.64836089651E+03  0.00000000000E+00 0.  1.
    2000013    1    1    2    0    0  0.22865557890E+03  0.58570262455E+03  0.14155868130E+04  0.18170627296E+04  0.95000000000E+03 0.  0.
   -2000013    1    1    2    0    0 -0.22865557890E+03 -0.58570262455E+03  0.27722314731E+03  0.11724690237E+04  0.95000000000E+03 0.  0.
<mgrwt>
<rscale>  0 0.24640809E+04</rscale>
<asrwt>0</asrwt>
<pdfrwt beam="2">  1        2 0.99747832E-01 0.24640809E+04</pdfrwt>
<pdfrwt beam="1">  1       -2 0.36018013E+00 0.24640809E+04</pdfrwt>
<totfact> 0.54145661E-01</totfact>
</mgrwt>
</event>
<event>
 4    1  0.2058093E-008  0.2626112E+04  0.7816531E-02  0.8359385E-01
         -2   -1    0    0    0  501 -0.00000000000E+00  0.00000000000E+00  0.17620854955E+04  0.17620854955E+04  0.00000000000E+00 0. -1.
          2   -1    0    0  501    0  0.00000000000E+00 -0.00000000000E+00 -0.97845175278E+03  0.97845175278E+03  0.00000000000E+00 0.  1.
    2000013    1    1    2    0    0  0.45527613567E+03 -0.77318541539E+03  0.25767177766E+03  0.13319109547E+04  0.95000000000E+03 0.  0.
   -2000013    1    1    2    0    0 -0.45527613567E+03  0.77318541539E+03  0.52596196509E+03  0.14086262936E+04  0.95000000000E+03 0.  0.
<mgrwt>
<rscale>  0 0.26261117E+04</rscale>
<asrwt>0</asrwt>
<pdfrwt beam="2">  1        2 0.15053104E+00 0.26261117E+04</pdfrwt>
<pdfrwt beam="1">  1       -2 0.27109008E+00 0.26261117E+04</pdfrwt>
<totfact> 0.10957249E+00</totfact>
</mgrwt>
</event>
<event>
 4    1  0.2058093E-008  0.2358728E+04  0.7816531E-02  0.8455119E-01
         -2   -1    0    0    0  501 -0.00000000000E+00  0.00000000000E+00  0.63822179828E+03  0.63822179828E+03  0.00000000000E+00 0. -1.
          2   -1    0    0  501    0  0.00000000000E+00 -0.00000000000E+00 -0.21793358194E+04  0.21793358194E+04  0.00000000000E+00 0.  1.
    2000013    1    1    2    0    0  0.52246823780E+03 -0.97687501206E+02 -0.22854873609E+03  0.11123175950E+04  0.95000000000E+03 0.  0.
   -2000013    1    1    2    0    0 -0.52246823780E+03  0.97687501206E+02 -0.13125652850E+04  0.17052400226E+04  0.95000000000E+03 0.  0.
<mgrwt>
<rscale>  0 0.23587282E+04</rscale>
<asrwt>0</asrwt>
<pdfrwt beam="2">  1        2 0.33528243E+00 0.23587282E+04</pdfrwt>
<pdfrwt beam="1">  1       -2 0.98187970E-01 0.23587282E+04</pdfrwt>
<totfact> 0.41270195E+00</totfact>
</mgrwt>
</event>
<event>
 4    1  0.2058093E-008  0.2204082E+04  0.7816531E-02  0.8516731E-01
         -2   -1    0    0    0  501 -0.00000000000E+00  0.00000000000E+00  0.55714321182E+03  0.55714321182E+03  0.00000000000E+00 0. -1.
          2   -1    0    0  501    0  0.00000000000E+00 -0.00000000000E+00 -0.21798604069E+04  0.21798604069E+04  0.00000000000E+00 0.  1.
    2000013    1    1    2    0    0  0.35932076563E+03  0.36211968573E+03 -0.52886237434E+03  0.12010151916E+04  0.95000000000E+03 0.  0.
   -2000013    1    1    2    0    0 -0.35932076563E+03 -0.36211968573E+03 -0.10938548207E+04  0.15359884271E+04  0.95000000000E+03 0.  0.
<mgrwt>
<rscale>  0 0.22040821E+04</rscale>
<asrwt>0</asrwt>
<pdfrwt beam="2">  1        2 0.33536314E+00 0.22040821E+04</pdfrwt>
<pdfrwt beam="1">  1       -2 0.85714340E-01 0.22040821E+04</pdfrwt>
<totfact> 0.57243968E+00</totfact>
</mgrwt>
</event>
<event>
 4    1  0.2058093E-008  0.3366476E+04  0.7816531E-02  0.8146184E-01
          1   -1    0    0  501    0  0.00000000000E+00  0.00000000000E+00  0.17851427604E+04  0.17851427604E+04  0.00000000000E+00 0.  1.
         -1   -1    0    0    0  501 -0.00000000000E+00 -0.00000000000E+00 -0.15871506567E+04  0.15871506567E+04  0.00000000000E+00 0. -1.
    2000013    1    1    2    0    0 -0.13413583714E+04 -0.29996926082E+03 -0.10523529673E+03  0.16741559980E+04  0.95000000000E+03 0.  0.
   -2000013    1    1    2    0    0  0.13413583714E+04  0.29996926082E+03  0.30322740034E+03  0.16981374191E+04  0.95000000000E+03 0.  0.
<mgrwt>
<rscale>  0 0.33664762E+04</rscale>
<asrwt>0</asrwt>
<pdfrwt beam="1">  1        1 0.27463735E+00 0.33664762E+04</pdfrwt>
<pdfrwt beam="2">  1       -1 0.24417703E+00 0.33664762E+04</pdfrwt>
<totfact> 0.26186294E-01</totfact>
</mgrwt>
</event>
<event>
 4    1  0.2058093E-008  0.3477642E+04  0.7816531E-02  0.8119109E-01
         -2   -1    0    0    0  501 -0.00000000000E+00  0.00000000000E+00  0.10936439575E+04  0.10936439575E+04  0.00000000000E+00 0. -1.
          2   -1    0    0  501    0  0.00000000000E+00 -0.00000000000E+00 -0.27646091324E+04  0.27646091324E+04  0.00000000000E+00 0.  1.
    2000013    1    1    2    0    0 -0.12568593096E+04  0.52401162294E+03 -0.14084490963E+04  0.21772717703E+04  0.95000000000E+03 0.  0.
   -2000013    1    1    2    0    0  0.12568593096E+04 -0.52401162294E+03 -0.26251607864E+03  0.16809813195E+04  0.95000000000E+03 0.  0.
<mgrwt>
<rscale>  0 0.34776418E+04</rscale>
<asrwt>0</asrwt>
<pdfrwt beam="2">  1        2 0.42532448E+00 0.34776418E+04</pdfrwt>
<pdfrwt beam="1">  1       -2 0.16825292E+00 0.34776418E+04</pdfrwt>
<totfact> 0.43844152E-01</totfact>
</mgrwt>
</event>
<event>
 4    1  0.2058093E-008  0.2305513E+04  0.7816531E-02  0.8475750E-01
         -2   -1    0    0    0  501 -0.00000000000E+00  0.00000000000E+00  0.60543857691E+03  0.60543857691E+03  0.00000000000E+00 0. -1.
          2   -1    0    0  501    0  0.00000000000E+00 -0.00000000000E+00 -0.21948520165E+04  0.21948520165E+04  0.00000000000E+00 0.  1.
    2000013    1    1    2    0    0  0.38806302769E+03  0.50327676075E+03 -0.61264675372E+03  0.12968101080E+04  0.95000000000E+03 0.  0.
   -2000013    1    1    2    0    0 -0.38806302769E+03 -0.50327676075E+03 -0.97676668589E+03  0.15034804854E+04  0.95000000000E+03 0.  0.
<mgrwt>
<rscale>  0 0.23055135E+04</rscale>
<asrwt>0</asrwt>
<pdfrwt beam="2">  1        2 0.33766954E+00 0.23055135E+04</pdfrwt>
<pdfrwt beam="1">  1       -2 0.93144397E-01 0.23055135E+04</pdfrwt>
<totfact> 0.45967501E+00</totfact>
</mgrwt>
</event>
<event>
 4    1  0.2058093E-008  0.2302994E+04  0.7816531E-02  0.8476741E-01
         -2   -1    0    0    0  501 -0.00000000000E+00  0.00000000000E+00  0.36202807072E+03  0.36202807072E+03  0.00000000000E+00 0. -1.
          2   -1    0    0  501    0  0.00000000000E+00 -0.00000000000E+00 -0.36625491991E+04  0.36625491991E+04  0.00000000000E+00 0.  1.
    2000013    1    1    2    0    0  0.34327210048E+03  0.37534647767E+03 -0.23595231541E+04  0.25939487713E+04  0.95000000000E+03 0.  0.
   -2000013    1    1    2    0    0 -0.34327210048E+03 -0.37534647767E+03 -0.94099797429E+03  0.14306284986E+04  0.95000000000E+03 0.  0.
<mgrwt>
<rscale>  0 0.23029942E+04</rscale>
<asrwt>0</asrwt>
<pdfrwt beam="2">  1        2 0.56346912E+00 0.23029942E+04</pdfrwt>
<pdfrwt beam="1">  1       -2 0.55696625E-01 0.23029942E+04</pdfrwt>
<totfact> 0.17131933E+00</totfact>
</mgrwt>
</event>
<event>
 4    1  0.2058093E-008  0.2183878E+04  0.7816531E-02  0.8525169E-01
         -2   -1    0    0    0  501 -0.00000000000E+00  0.00000000000E+00  0.52130893900E+03  0.52130893900E+03  0.00000000000E+00 0. -1.
          2   -1    0    0  501    0  0.00000000000E+00 -0.00000000000E+00 -0.22871855551E+04  0.22871855551E+04  0.00000000000E+00 0.  1.
    2000013    1    1    2    0    0  0.46105639988E+03 -0.25585066498E+03 -0.74325512467E+03  0.13164196698E+04  0.95000000000E+03 0.  0.
   -2000013    1    1    2    0    0 -0.46105639988E+03  0.25585066498E+03 -0.10226214914E+04  0.14920748243E+04  0.95000000000E+03 0.  0.
<mgrwt>
<rscale>  0 0.21838775E+04</rscale>
<asrwt>0</asrwt>
<pdfrwt beam="2">  1        2 0.35187470E+00 0.21838775E+04</pdfrwt>
<pdfrwt beam="1">  1       -2 0.80201375E-01 0.21838775E+04</pdfrwt>
<totfact> 0.57991733E+00</totfact>
</mgrwt>
</event>
<event>
 4    1  0.2058093E-008  0.2557239E+04  0.7816531E-02  0.8382873E-01
         -2   -1    0    0    0  501 -0.00000000000E+00  0.00000000000E+00  0.14345031400E+04  0.14345031400E+04  0.00000000000E+00 0. -1.
          2   -1    0    0  501    0  0.00000000000E+00 -0.00000000000E+00 -0.11396749955E+04  0.11396749955E+04  0.00000000000E+00 0.  1.
    2000013    1    1    2    0    0 -0.41277156474E+03 -0.74831873612E+03  0.10232827543E+03  0.12819252597E+04  0.95000000000E+03 0.  0.
   -2000013    1    1    2    0    0  0.41277156474E+03  0.74831873612E+03  0.19249986909E+03  0.12922528758E+04  0.95000000000E+03 0.  0.
<mgrwt>
<rscale>  0 0.25572386E+04</rscale>
<asrwt>0</asrwt>
<pdfrwt beam="2">  1        2 0.17533462E+00 0.25572386E+04</pdfrwt>
<pdfrwt beam="1">  1       -2 0.22069279E+00 0.25572386E+04</pdfrwt>
<totfact> 0.17888738E+00</totfact>
</mgrwt>
</event>
<event>
 4    1  0.2058093E-008  0.2581517E+04  0.7816531E-02  0.8374507E-01
          2   -1    0    0  501    0  0.00000000000E+00  0.00000000000E+00  0.14237840982E+04  0.14237840982E+04  0.00000000000E+00 0.  1.
         -2   -1    0    0    0  501 -0.00000000000E+00 -0.00000000000E+00 -0.11701617681E+04  0.11701617681E+04  0.00000000000E+00 0. -1.
    2000013    1    1    2    0    0  0.42548053734E+03 -0.76210558419E+03  0.16847291963E+03  0.13010463995E+04  0.95000000000E+03 0.  0.
   -2000013    1    1    2    0    0 -0.42548053734E+03  0.76210558419E+03  0.85149410424E+02  0.12928994668E+04  0.95000000000E+03 0.  0.
<mgrwt>
<rscale>  0 0.25815172E+04</rscale>
<asrwt>0</asrwt>
<pdfrwt beam="1">  1        2 0.21904371E+00 0.25815172E+04</pdfrwt>
<pdfrwt beam="2">  1       -2 0.18002489E+00 0.25815172E+04</pdfrwt>
<totfact> 0.22522534E+00</totfact>
</mgrwt>
</event>
<event>
 4    1  0.2058093E-008  0.2212398E+04  0.7816531E-02  0.8513286E-01
         -2   -1    0    0    0  501 -0.00000000000E+00  0.00000000000E+00  0.10560731493E+04  0.10560731493E+04  0.00000000000E+00 0. -1.
          2   -1    0    0  501    0  0.00000000000E+00 -0.00000000000E+00 -0.11587038514E+04  0.11587038514E+04  0.00000000000E+00 0.  1.
    2000013    1    1    2    0    0  0.18185966221E+03 -0.44134931937E+03 -0.35711703828E+03  0.11215590655E+04  0.95000000000E+03 0.  0.
   -2000013    1    1    2    0    0 -0.18185966221E+03  0.44134931937E+03  0.25448633624E+03  0.10932179352E+04  0.95000000000E+03 0.  0.
<mgrwt>
<rscale>  0 0.22123978E+04</rscale>
<asrwt>0</asrwt>
<pdfrwt beam="2">  1        2 0.17826213E+00 0.22123978E+04</pdfrwt>
<pdfrwt beam="1">  1       -2 0.16247279E+00 0.22123978E+04</pdfrwt>
<totfact> 0.44239041E+00</totfact>
</mgrwt>
</event>
<event>
 4    1  0.2058093E-008  0.2393535E+04  0.7816531E-02  0.8441928E-01
          2   -1    0    0  501    0  0.00000000000E+00  0.00000000000E+00  0.23900211434E+04  0.23900211434E+04  0.00000000000E+00 0.  1.
         -2   -1    0    0    0  501 -0.00000000000E+00 -0.00000000000E+00 -0.59926329079E+03  0.59926329079E+03  0.00000000000E+00 0. -1.
    2000013    1    1    2    0    0  0.72047554153E+03  0.93695214181E+01  0.76692341251E+03  0.14176897808E+04  0.95000000000E+03 0.  0.
   -2000013    1    1    2    0    0 -0.72047554153E+03 -0.93695214181E+01  0.10238344401E+04  0.15715946534E+04  0.95000000000E+03 0.  0.
<mgrwt>
<rscale>  0 0.23935346E+04</rscale>
<asrwt>0</asrwt>
<pdfrwt beam="1">  1        2 0.36769556E+00 0.23935346E+04</pdfrwt>
<pdfrwt beam="2">  1       -2 0.92194354E-01 0.23935346E+04</pdfrwt>
<totfact> 0.36217397E+00</totfact>
</mgrwt>
</event>
<event>
 4    1  0.2058093E-008  0.2761776E+04  0.7816531E-02  0.8315234E-01
          2   -1    0    0  501    0  0.00000000000E+00  0.00000000000E+00  0.11319663667E+04  0.11319663667E+04  0.00000000000E+00 0.  1.
         -2   -1    0    0    0  501 -0.00000000000E+00 -0.00000000000E+00 -0.16845485430E+04  0.16845485430E+04  0.00000000000E+00 0. -1.
    2000013    1    1    2    0    0 -0.79015538593E+03  0.21906698389E+03  0.31133803433E+03  0.12929683867E+04  0.95000000000E+03 0.  0.
   -2000013    1    1    2    0    0  0.79015538593E+03 -0.21906698389E+03 -0.86392021060E+03  0.15235465230E+04  0.95000000000E+03 0.  0.
<mgrwt>
<rscale>  0 0.27617765E+04</rscale>
<asrwt>0</asrwt>
<pdfrwt beam="1">  1        2 0.17414867E+00 0.27617765E+04</pdfrwt>
<pdfrwt beam="2">  1       -2 0.25916131E+00 0.27617765E+04</pdfrwt>
<totfact> 0.10260985E+00</totfact>
</mgrwt>
</event>
<event>
 4    1  0.2058093E-008  0.2649870E+04  0.7816531E-02  0.8351456E-01
         -2   -1    0    0    0  501 -0.00000000000E+00  0.00000000000E+00  0.18417716527E+04  0.18417716527E+04  0.00000000000E+00 0. -1.
          2   -1    0    0  501    0  0.00000000000E+00 -0.00000000000E+00 -0.95313290537E+03  0.95313290537E+03  0.00000000000E+00 0.  1.
    2000013    1    1    2    0    0 -0.35866502212E+03  0.84697897715E+03  0.35645831005E+03  0.13695168902E+04  0.95000000000E+03 0.  0.
   -2000013    1    1    2    0    0  0.35866502212E+03 -0.84697897715E+03  0.53218043730E+03  0.14253876679E+04  0.95000000000E+03 0.  0.
<mgrwt>
<rscale>  0 0.26498703E+04</rscale>
<asrwt>0</asrwt>
<pdfrwt beam="2">  1        2 0.14663583E+00 0.26498703E+04</pdfrwt>
<pdfrwt beam="1">  1       -2 0.28334949E+00 0.26498703E+04</pdfrwt>
<totfact> 0.95635801E-01</totfact>
</mgrwt>
</event>
<event>
 4    1  0.2058093E-008  0.2503138E+04  0.7816531E-02  0.8401868E-01
         -2   -1    0    0    0  501 -0.00000000000E+00  0.00000000000E+00  0.41710273644E+03  0.41710273644E+03  0.00000000000E+00 0. -1.
          2   -1    0    0  501    0  0.00000000000E+00 -0.00000000000E+00 -0.37554908559E+04  0.37554908559E+04  0.00000000000E+00 0.  1.
    2000013    1    1    2    0    0 -0.38966878824E+03  0.65970909872E+03 -0.12070333429E+04  0.17165335273E+04  0.95000000000E+03 0.  0.
   -2000013    1    1    2    0    0  0.38966878824E+03 -0.65970909872E+03 -0.21313547766E+04  0.24560600650E+04  0.95000000000E+03 0.  0.
<mgrwt>
<rscale>  0 0.25031384E+04</rscale>
<asrwt>0</asrwt>
<pdfrwt beam="2">  1        2 0.57776783E+00 0.25031384E+04</pdfrwt>
<pdfrwt beam="1">  1       -2 0.64169651E-01 0.25031384E+04</pdfrwt>
<totfact> 0.10643821E+00</totfact>
</mgrwt>
</event>
<event>
 4    1  0.2058093E-008  0.2649150E+04  0.7816531E-02  0.8351695E-01
          1   -1    0    0  501    0  0.00000000000E+00  0.00000000000E+00  0.11777026274E+04  0.11777026274E+04  0.00000000000E+00 0.  1.
         -1   -1    0    0    0  501 -0.00000000000E+00 -0.00000000000E+00 -0.14897644713E+04  0.14897644713E+04  0.00000000000E+00 0. -1.
    2000013    1    1    2    0    0 -0.25620828472E+03 -0.86162159806E+03 -0.36715916108E+03  0.13584330359E+04  0.95000000000E+03 0.  0.
   -2000013    1    1    2    0    0  0.25620828472E+03  0.86162159806E+03  0.55097317135E+02  0.13090340629E+04  0.95000000000E+03 0.  0.
<mgrwt>
<rscale>  0 0.26491505E+04</rscale>
<asrwt>0</asrwt>
<pdfrwt beam="1">  1        1 0.18118502E+00 0.26491505E+04</pdfrwt>
<pdfrwt beam="2">  1       -1 0.22919453E+00 0.26491505E+04</pdfrwt>
<totfact> 0.92993968E-01</totfact>
</mgrwt>
</event>
<event>
 4    1  0.2058093E-008  0.2978091E+04  0.7816531E-02  0.8250015E-01
         -2   -1    0    0    0  501 -0.00000000000E+00  0.00000000000E+00  0.86017937836E+03  0.86017937836E+03  0.00000000000E+00 0. -1.
          2   -1    0    0  501    0  0.00000000000E+00 -0.00000000000E+00 -0.25776674924E+04  0.25776674924E+04  0.00000000000E+00 0.  1.
    2000013    1    1    2    0    0 -0.21661212342E+03  0.10653755129E+04 -0.43805134999E+03  0.15087527236E+04  0.95000000000E+03 0.  0.
   -2000013    1    1    2    0    0  0.21661212342E+03 -0.10653755129E+04 -0.12794367641E+04  0.19290941472E+04  0.95000000000E+03 0.  0.
<mgrwt>
<rscale>  0 0.29780909E+04</rscale>
<asrwt>0</asrwt>
<pdfrwt beam="2">  1        2 0.39656423E+00 0.29780909E+04</pdfrwt>
<pdfrwt beam="1">  1       -2 0.13233529E+00 0.29780909E+04</pdfrwt>
<totfact> 0.11161856E+00</totfact>
</mgrwt>
</event>
<event>
 4    1  0.2058093E-008  0.2322316E+04  0.7816531E-02  0.8469174E-01
          4   -1    0    0  501    0  0.00000000000E+00  0.00000000000E+00  0.11626213117E+04  0.11626213117E+04  0.00000000000E+00 0.  1.
         -4   -1    0    0    0  501 -0.00000000000E+00 -0.00000000000E+00 -0.11596963783E+04  0.11596963783E+04  0.00000000000E+00 0. -1.
    2000013    1    1    2    0    0  0.26563625765E+03 -0.59905389242E+03  0.12936697411E+03  0.11613199393E+04  0.95000000000E+03 0.  0.
   -2000013    1    1    2    0    0 -0.26563625765E+03  0.59905389242E+03 -0.12644204069E+03  0.11609977507E+04  0.95000000000E+03 0.  0.
<mgrwt>
<rscale>  0 0.23223158E+04</rscale>
<asrwt>0</asrwt>
<pdfrwt beam="1">  1        4 0.17886482E+00 0.23223158E+04</pdfrwt>
<pdfrwt beam="2">  1       -4 0.17841483E+00 0.23223158E+04</pdfrwt>
<totfact> 0.61012221E-02</totfact>
</mgrwt>
</event>
<event>
 4    1  0.2058093E-008  0.2726153E+04  0.7816531E-02  0.8326569E-01
         -2   -1    0    0    0  501 -0.00000000000E+00  0.00000000000E+00  0.13052188546E+04  0.13052188546E+04  0.00000000000E+00 0. -1.
          2   -1    0    0  501    0  0.00000000000E+00 -0.00000000000E+00 -0.14234984719E+04  0.14234984719E+04  0.00000000000E+00 0.  1.
    2000013    1    1    2    0    0 -0.86291513610E+03  0.16080516635E+03  0.37137668843E+03  0.13456973948E+04  0.95000000000E+03 0.  0.
   -2000013    1    1    2    0    0  0.86291513610E+03 -0.16080516635E+03 -0.48965630576E+03  0.13830199317E+04  0.95000000000E+03 0.  0.
<mgrwt>
<rscale>  0 0.27261526E+04</rscale>
<asrwt>0</asrwt>
<pdfrwt beam="2">  1        2 0.21899976E+00 0.27261526E+04</pdfrwt>
<pdfrwt beam="1">  1       -2 0.20080290E+00 0.27261526E+04</pdfrwt>
<totfact> 0.16139244E+00</totfact>
</mgrwt>
</event>
<event>
 4    1  0.2058093E-008  0.2001343E+04  0.7816531E-02  0.8605993E-01
          2   -1    0    0  501    0  0.00000000000E+00  0.00000000000E+00  0.11741256225E+04  0.11741256225E+04  0.00000000000E+00 0.  1.
         -2   -1    0    0    0  501 -0.00000000000E+00 -0.00000000000E+00 -0.85284165940E+03  0.85284165940E+03  0.00000000000E+00 0. -1.
    2000013    1    1    2    0    0  0.25827161893E+03  0.93961085975E+02  0.60099497968E+01  0.98897372782E+03  0.95000000000E+03 0.  0.
   -2000013    1    1    2    0    0 -0.25827161893E+03 -0.93961085975E+02  0.31527401330E+03  0.10379935541E+04  0.95000000000E+03 0.  0.
<mgrwt>
<rscale>  0 0.20013428E+04</rscale>
<asrwt>0</asrwt>
<pdfrwt beam="1">  1        2 0.18063471E+00 0.20013428E+04</pdfrwt>
<pdfrwt beam="2">  1       -2 0.13120641E+00 0.20013428E+04</pdfrwt>
<totfact> 0.77376109E+00</totfact>
</mgrwt>
</event>
<event>
 4    1  0.2058093E-008  0.2798850E+04  0.7816531E-02  0.8303626E-01
         -2   -1    0    0    0  501 -0.00000000000E+00  0.00000000000E+00  0.66865364494E+03  0.66865364494E+03  0.00000000000E+00 0. -1.
          2   -1    0    0  501    0  0.00000000000E+00 -0.00000000000E+00 -0.29288553267E+04  0.29288553267E+04  0.00000000000E+00 0.  1.
    2000013    1    1    2    0    0 -0.77104035779E+03 -0.29030313398E+01 -0.25702730655E+03  0.12502298578E+04  0.95000000000E+03 0.  0.
   -2000013    1    1    2    0    0  0.77104035779E+03  0.29030313398E+01 -0.20031743752E+04  0.23472791139E+04  0.95000000000E+03 0.  0.
<mgrwt>
<rscale>  0 0.27988496E+04</rscale>
<asrwt>0</asrwt>
<pdfrwt beam="2">  1        2 0.45059312E+00 0.27988496E+04</pdfrwt>
<pdfrwt beam="1">  1       -2 0.10286979E+00 0.27988496E+04</pdfrwt>
<totfact> 0.12951350E+00</totfact>
</mgrwt>
</event>
<event>
 4    1  0.2058093E-008  0.2208955E+04  0.7816531E-02  0.8514710E-01
         -2   -1    0    0    0  501 -0.00000000000E+00  0.00000000000E+00  0.67373238861E+03  0.67373238861E+03  0.00000000000E+00 0. -1.
          2   -1    0    0  501    0  0.00000000000E+00 -0.00000000000E+00 -0.18106156452E+04  0.18106156452E+04  0.00000000000E+00 0.  1.
    2000013    1    1    2    0    0  0.92612555151E+02 -0.52455936095E+03 -0.77469172463E+03  0.13365578464E+04  0.95000000000E+03 0.  0.
   -2000013    1    1    2    0    0 -0.92612555151E+02  0.52455936095E+03 -0.36219153195E+03  0.11477901874E+04  0.95000000000E+03 0.  0.
<mgrwt>
<rscale>  0 0.22089549E+04</rscale>
<asrwt>0</asrwt>
<pdfrwt beam="2">  1        2 0.27855626E+00 0.22089549E+04</pdfrwt>
<pdfrwt beam="1">  1       -2 0.10365114E+00 0.22089549E+04</pdfrwt>
<totfact> 0.58954873E+00</totfact>
</mgrwt>
</event>
<event>
 4    1  0.2058093E-008  0.3016307E+04  0.7816531E-02  0.8239090E-01
         -2   -1    0    0    0  501 -0.00000000000E+00  0.00000000000E+00  0.12575308882E+04  0.12575308882E+04  0.00000000000E+00 0. -1.
          2   -1    0    0  501    0  0.00000000000E+00 -0.00000000000E+00 -0.18087239806E+04  0.18087239806E+04  0.00000000000E+00 0.  1.
    2000013    1    1    2    0    0  0.13511643942E+03 -0.77914785515E+03  0.60282989252E+03  0.13752206047E+04  0.95000000000E+03 0.  0.
   -2000013    1    1    2    0    0 -0.13511643942E+03  0.77914785515E+03 -0.11540229850E+04  0.16910342641E+04  0.95000000000E+03 0.  0.
<mgrwt>
<rscale>  0 0.30163065E+04</rscale>
<asrwt>0</asrwt>
<pdfrwt beam="2">  1        2 0.27826523E+00 0.30163065E+04</pdfrwt>
<pdfrwt beam="1">  1       -2 0.19346629E+00 0.30163065E+04</pdfrwt>
<totfact> 0.10719767E+00</totfact>
</mgrwt>
</event>
<event>
 4    1  0.2058093E-008  0.3270359E+04  0.7816531E-02  0.8170479E-01
          2   -1    0    0  501    0  0.00000000000E+00  0.00000000000E+00  0.18185265198E+04  0.18185265198E+04  0.00000000000E+00 0.  1.
         -2   -1    0    0    0  501 -0.00000000000E+00 -0.00000000000E+00 -0.14703175304E+04  0.14703175304E+04  0.00000000000E+00 0. -1.
    2000013    1    1    2    0    0 -0.55524129300E+03 -0.10157120094E+04  0.83458744644E+03  0.17143511849E+04  0.95000000000E+03 0.  0.
   -2000013    1    1    2    0    0  0.55524129300E+03  0.10157120094E+04 -0.48637845699E+03  0.15744928653E+04  0.95000000000E+03 0.  0.
<mgrwt>
<rscale>  0 0.32703586E+04</rscale>
<asrwt>0</asrwt>
<pdfrwt beam="1">  1        2 0.27977331E+00 0.32703586E+04</pdfrwt>
<pdfrwt beam="2">  1       -2 0.22620270E+00 0.32703586E+04</pdfrwt>
<totfact> 0.63725465E-01</totfact>
</mgrwt>
</event>
<event>
 4    1  0.2058093E-008  0.2796681E+04  0.7816531E-02  0.8304300E-01
         -2   -1    0    0    0  501 -0.00000000000E+00  0.00000000000E+00  0.11827294697E+04  0.11827294697E+04  0.00000000000E+00 0. -1.
          2   -1    0    0  501    0  0.00000000000E+00 -0.00000000000E+00 -0.16532570882E+04  0.16532570882E+04  0.00000000000E+00 0.  1.
    2000013    1    1    2    0    0  0.80639052380E+03 -0.82754605121E+02 -0.87318535649E+03  0.15238328873E+04  0.95000000000E+03 0.  0.
   -2000013    1    1    2    0    0 -0.80639052380E+03  0.82754605121E+02  0.40265773797E+03  0.13121536707E+04  0.95000000000E+03 0.  0.
<mgrwt>
<rscale>  0 0.27966808E+04</rscale>
<asrwt>0</asrwt>
<pdfrwt beam="2">  1        2 0.25434724E+00 0.27966808E+04</pdfrwt>
<pdfrwt beam="1">  1       -2 0.18195838E+00 0.27966808E+04</pdfrwt>
<totfact> 0.15933972E+00</totfact>
</mgrwt>
</event>
<event>
 4    1  0.2058093E-008  0.2986100E+04  0.7816531E-02  0.8247711E-01
          2   -1    0    0  501    0  0.00000000000E+00  0.00000000000E+00  0.91379004329E+03  0.91379004329E+03  0.00000000000E+00 0.  1.
         -2   -1    0    0    0  501 -0.00000000000E+00 -0.00000000000E+00 -0.24395077119E+04  0.24395077119E+04  0.00000000000E+00 0. -1.
    2000013    1    1    2    0    0 -0.29470798928E+03 -0.92775216063E+03 -0.71415288204E+02  0.13620488295E+04  0.95000000000E+03 0.  0.
   -2000013    1    1    2    0    0  0.29470798928E+03  0.92775216063E+03 -0.14543023804E+04  0.19912489257E+04  0.95000000000E+03 0.  0.
<mgrwt>
<rscale>  0 0.29860997E+04</rscale>
<asrwt>0</asrwt>
<pdfrwt beam="1">  1        2 0.14058309E+00 0.29860997E+04</pdfrwt>
<pdfrwt beam="2">  1       -2 0.37530887E+00 0.29860997E+04</pdfrwt>
<totfact> 0.26389297E-01</totfact>
</mgrwt>
</event>
<event>
 4    1  0.2058093E-008  0.2397370E+04  0.7816531E-02  0.8440489E-01
          2   -1    0    0  501    0  0.00000000000E+00  0.00000000000E+00  0.22008101375E+04  0.22008101375E+04  0.00000000000E+00 0.  1.
         -2   -1    0    0    0  501 -0.00000000000E+00 -0.00000000000E+00 -0.65287110386E+03  0.65287110386E+03  0.00000000000E+00 0. -1.
    2000013    1    1    2    0    0 -0.55989147952E+03  0.12972665762E+03  0.13116519431E+04  0.17184988491E+04  0.95000000000E+03 0.  0.
   -2000013    1    1    2    0    0  0.55989147952E+03 -0.12972665762E+03  0.23628709052E+03  0.11351823923E+04  0.95000000000E+03 0.  0.
<mgrwt>
<rscale>  0 0.23973697E+04</rscale>
<asrwt>0</asrwt>
<pdfrwt beam="1">  1        2 0.33858617E+00 0.23973697E+04</pdfrwt>
<pdfrwt beam="2">  1       -2 0.10044171E+00 0.23973697E+04</pdfrwt>
<totfact> 0.37919355E+00</totfact>
</mgrwt>
</event>
<event>
 4    1  0.2058093E-008  0.2143296E+04  0.7816531E-02  0.8542407E-01
         -2   -1    0    0    0  501 -0.00000000000E+00  0.00000000000E+00  0.91748666141E+03  0.91748666141E+03  0.00000000000E+00 0. -1.
          2   -1    0    0  501    0  0.00000000000E+00 -0.00000000000E+00 -0.12517125751E+04  0.12517125751E+04  0.00000000000E+00 0.  1.
    2000013    1    1    2    0    0 -0.21481204608E+03 -0.44648185695E+03 -0.18832642251E+03  0.10878681469E+04  0.95000000000E+03 0.  0.
   -2000013    1    1    2    0    0  0.21481204608E+03  0.44648185695E+03 -0.14589949119E+03  0.10813310896E+04  0.95000000000E+03 0.  0.
<mgrwt>
<rscale>  0 0.21432961E+04</rscale>
<asrwt>0</asrwt>
<pdfrwt beam="2">  1        2 0.19257116E+00 0.21432961E+04</pdfrwt>
<pdfrwt beam="1">  1       -2 0.14115180E+00 0.21432961E+04</pdfrwt>
<totfact> 0.56980135E+00</totfact>
</mgrwt>
</event>
<event>
 4    1  0.2058093E-008  0.2715702E+04  0.7816531E-02  0.8329928E-01
          2   -1    0    0  501    0  0.00000000000E+00  0.00000000000E+00  0.26272788628E+04  0.26272788628E+04  0.00000000000E+00 0.  1.
         -2   -1    0    0    0  501 -0.00000000000E+00 -0.00000000000E+00 -0.70177521279E+03  0.70177521279E+03  0.00000000000E+00 0. -1.
    2000013    1    1    2    0    0 -0.48352487632E+03  0.68419321378E+03  0.15624720405E+04  0.20114013864E+04  0.95000000000E+03 0.  0.
   -2000013    1    1    2    0    0  0.48352487632E+03 -0.68419321378E+03  0.36303160948E+03  0.13176526892E+04  0.95000000000E+03 0.  0.
<mgrwt>
<rscale>  0 0.27157019E+04</rscale>
<asrwt>0</asrwt>
<pdfrwt beam="1">  1        2 0.40419674E+00 0.27157019E+04</pdfrwt>
<pdfrwt beam="2">  1       -2 0.10796542E+00 0.27157019E+04</pdfrwt>
<totfact> 0.17657631E+00</totfact>
</mgrwt>
</event>
<event>
 4    1  0.2058093E-008  0.2815863E+04  0.7816531E-02  0.8298360E-01
         -1   -1    0    0    0  501 -0.00000000000E+00  0.00000000000E+00  0.15136633496E+04  0.15136633496E+04  0.00000000000E+00 0. -1.
          1   -1    0    0  501    0  0.00000000000E+00 -0.00000000000E+00 -0.13095855327E+04  0.13095855327E+04  0.00000000000E+00 0.  1.
    2000013    1    1    2    0    0 -0.55093339323E+03  0.86426077837E+03  0.27365246316E+03  0.14240294826E+04  0.95000000000E+03 0.  0.
   -2000013    1    1    2    0    0  0.55093339323E+03 -0.86426077837E+03 -0.69574646232E+02  0.13992193996E+04  0.95000000000E+03 0.  0.
<mgrwt>
<rscale>  0 0.28158634E+04</rscale>
<asrwt>0</asrwt>
<pdfrwt beam="2">  1        1 0.20147470E+00 0.28158634E+04</pdfrwt>
<pdfrwt beam="1">  1       -1 0.23287129E+00 0.28158634E+04</pdfrwt>
<totfact> 0.69547547E-01</totfact>
</mgrwt>
</event>
<event>
 4    1  0.2058093E-008  0.2010754E+04  0.7816531E-02  0.8601609E-01
          2   -1    0    0  501    0  0.00000000000E+00  0.00000000000E+00  0.10503256772E+04  0.10503256772E+04  0.00000000000E+00 0.  1.
         -2   -1    0    0    0  501 -0.00000000000E+00 -0.00000000000E+00 -0.96235160240E+03  0.96235160240E+03  0.00000000000E+00 0. -1.
    2000013    1    1    2    0    0  0.26453227022E+03  0.14022839441E+03  0.18065070245E+03  0.10123122052E+04  0.95000000000E+03 0.  0.
   -2000013    1    1    2    0    0 -0.26453227022E+03 -0.14022839441E+03 -0.92676627702E+02  0.10003650743E+04  0.95000000000E+03 0.  0.
<mgrwt>
<rscale>  0 0.20107537E+04</rscale>
<asrwt>0</asrwt>
<pdfrwt beam="1">  1        2 0.16158857E+00 0.20107537E+04</pdfrwt>
<pdfrwt beam="2">  1       -2 0.14805409E+00 0.20107537E+04</pdfrwt>
<totfact> 0.67360124E+00</totfact>
</mgrwt>
</event>
<event>
 4    1  0.2058093E-008  0.3421262E+04  0.7816531E-02  0.8132708E-01
         -2   -1    0    0    0  501 -0.00000000000E+00  0.00000000000E+00  0.98406484354E+03  0.98406484354E+03  0.00000000000E+00 0. -1.
          2   -1    0    0  501    0  0.00000000000E+00 -0.00000000000E+00 -0.29736440344E+04  0.29736440344E+04  0.00000000000E+00 0.  1.
    2000013    1    1    2    0    0  0.12992876868E+04 -0.26768825315E+03 -0.40046890464E+03  0.16800835805E+04  0.95000000000E+03 0.  0.
   -2000013    1    1    2    0    0 -0.12992876868E+04  0.26768825315E+03 -0.15891102862E+04  0.22776252974E+04  0.95000000000E+03 0.  0.
<mgrwt>
<rscale>  0 0.34212621E+04</rscale>
<asrwt>0</asrwt>
<pdfrwt beam="2">  1        2 0.45748369E+00 0.34212621E+04</pdfrwt>
<pdfrwt beam="1">  1       -2 0.15139459E+00 0.34212621E+04</pdfrwt>
<totfact> 0.43694500E-01</totfact>
</mgrwt>
</event>
<event>
 4    1  0.2058093E-008  0.2124303E+04  0.7816531E-02  0.8550613E-01
          2   -1    0    0  501    0  0.00000000000E+00  0.00000000000E+00  0.26400735898E+04  0.26400735898E+04  0.00000000000E+00 0.  1.
         -2   -1    0    0    0  501 -0.00000000000E+00 -0.00000000000E+00 -0.42732364221E+03  0.42732364221E+03  0.00000000000E+00 0. -1.
    2000013    1    1    2    0    0  0.44703456482E+03 -0.14016316714E+03  0.12198908090E+04  0.16155863336E+04  0.95000000000E+03 0.  0.
   -2000013    1    1    2    0    0 -0.44703456482E+03  0.14016316714E+03  0.99285913866E+03  0.14518108984E+04  0.95000000000E+03 0.  0.
<mgrwt>
<rscale>  0 0.21243031E+04</rscale>
<asrwt>0</asrwt>
<pdfrwt beam="1">  1        2 0.40616516E+00 0.21243031E+04</pdfrwt>
<pdfrwt beam="2">  1       -2 0.65742101E-01 0.21243031E+04</pdfrwt>
<totfact> 0.56502163E+00</totfact>
</mgrwt>
</event>
<event>
 4    1  0.2058093E-008  0.2103634E+04  0.7816531E-02  0.8559644E-01
         -2   -1    0    0    0  501 -0.00000000000E+00  0.00000000000E+00  0.56962217440E+03  0.56962217440E+03  0.00000000000E+00 0. -1.
          2   -1    0    0  501    0  0.00000000000E+00 -0.00000000000E+00 -0.19421972865E+04  0.19421972865E+04  0.00000000000E+00 0.  1.
    2000013    1    1    2    0    0  0.39846967104E+03 -0.40373125719E+02 -0.43750720786E+03  0.11199645641E+04  0.95000000000E+03 0.  0.
   -2000013    1    1    2    0    0 -0.39846967104E+03  0.40373125719E+02 -0.93506790420E+03  0.13918548967E+04  0.95000000000E+03 0.  0.
<mgrwt>
<rscale>  0 0.21036337E+04</rscale>
<asrwt>0</asrwt>
<pdfrwt beam="2">  1        2 0.29879958E+00 0.21036337E+04</pdfrwt>
<pdfrwt beam="1">  1       -2 0.87634181E-01 0.21036337E+04</pdfrwt>
<totfact> 0.74471731E+00</totfact>
</mgrwt>
</event>
<event>
 4    1  0.2058093E-008  0.7199618E+04  0.7816531E-02  0.7557192E-01
          2   -1    0    0  501    0  0.00000000000E+00  0.00000000000E+00  0.27911136887E+04  0.27911136887E+04  0.00000000000E+00 0.  1.
         -2   -1    0    0    0  501 -0.00000000000E+00 -0.00000000000E+00 -0.46428145177E+04  0.46428145177E+04  0.00000000000E+00 0. -1.
    2000013    1    1    2    0    0 -0.25281749263E+04  0.12623927046E+04 -0.30091410038E+04  0.42358863747E+04  0.95000000000E+03 0.  0.
   -2000013    1    1    2    0    0  0.25281749263E+04 -0.12623927046E+04  0.11574401748E+04  0.31980418317E+04  0.95000000000E+03 0.  0.
<mgrwt>
<rscale>  0 0.71996175E+04</rscale>
<asrwt>0</asrwt>
<pdfrwt beam="1">  1        2 0.42940211E+00 0.71996175E+04</pdfrwt>
<pdfrwt beam="2">  1       -2 0.71427915E+00 0.71996175E+04</pdfrwt>
<totfact> 0.29734503E-04</totfact>
</mgrwt>
</event>
<event>
 4    1  0.2058093E-008  0.2017657E+04  0.7816531E-02  0.8598410E-01
          2   -1    0    0  501    0  0.00000000000E+00  0.00000000000E+00  0.10224205392E+04  0.10224205392E+04  0.00000000000E+00 0.  1.
         -2   -1    0    0    0  501 -0.00000000000E+00 -0.00000000000E+00 -0.99541699635E+03  0.99541699635E+03  0.00000000000E+00 0. -1.
    2000013    1    1    2    0    0  0.19315020916E+03 -0.60626805065E+01  0.29261639785E+03  0.10126539960E+04  0.95000000000E+03 0.  0.
   -2000013    1    1    2    0    0 -0.19315020916E+03  0.60626805065E+01 -0.26561285500E+03  0.10051835395E+04  0.95000000000E+03 0.  0.
<mgrwt>
<rscale>  0 0.20176568E+04</rscale>
<asrwt>0</asrwt>
<pdfrwt beam="1">  1        2 0.15729547E+00 0.20176568E+04</pdfrwt>
<pdfrwt beam="2">  1       -2 0.15314108E+00 0.20176568E+04</pdfrwt>
<totfact> 0.64095999E+00</totfact>
</mgrwt>
</event>
<event>
 4    1  0.2058093E-008  0.2690920E+04  0.7816531E-02  0.8337957E-01
          1   -1    0    0  501    0  0.00000000000E+00  0.00000000000E+00  0.11248922778E+04  0.11248922778E+04  0.00000000000E+00 0.  1.
         -1   -1    0    0    0  501 -0.00000000000E+00 -0.00000000000E+00 -0.16092763416E+04  0.16092763416E+04  0.00000000000E+00 0. -1.
    2000013    1    1    2    0    0 -0.40195866811E+03  0.73699973238E+03  0.21563064680E+03  0.12859766531E+04  0.95000000000E+03 0.  0.
   -2000013    1    1    2    0    0  0.40195866811E+03 -0.73699973238E+03 -0.70001471059E+03  0.14481919664E+04  0.95000000000E+03 0.  0.
<mgrwt>
<rscale>  0 0.26909199E+04</rscale>
<asrwt>0</asrwt>
<pdfrwt beam="1">  1        1 0.17306035E+00 0.26909199E+04</pdfrwt>
<pdfrwt beam="2">  1       -1 0.24758097E+00 0.26909199E+04</pdfrwt>
<totfact> 0.76730282E-01</totfact>
</mgrwt>
</event>
<event>
 4    1  0.2058093E-008  0.2892977E+04  0.7816531E-02  0.8274970E-01
         -2   -1    0    0    0  501 -0.00000000000E+00  0.00000000000E+00  0.97333793140E+03  0.97333793140E+03  0.00000000000E+00 0. -1.
          2   -1    0    0  501    0  0.00000000000E+00 -0.00000000000E+00 -0.21496433148E+04  0.21496433148E+04  0.00000000000E+00 0.  1.
    2000013    1    1    2    0    0 -0.38146573413E+03 -0.10216976683E+04 -0.56532569194E+03  0.15528925815E+04  0.95000000000E+03 0.  0.
   -2000013    1    1    2    0    0  0.38146573413E+03  0.10216976683E+04 -0.61097969142E+03  0.15700886647E+04  0.95000000000E+03 0.  0.
<mgrwt>
<rscale>  0 0.28929773E+04</rscale>
<asrwt>0</asrwt>
<pdfrwt beam="2">  1        2 0.33071436E+00 0.28929773E+04</pdfrwt>
<pdfrwt beam="1">  1       -2 0.14974430E+00 0.28929773E+04</pdfrwt>
<totfact> 0.14324982E+00</totfact>
</mgrwt>
</event>
<event>
 4    1  0.2058093E-008  0.2110402E+04  0.7816531E-02  0.8556675E-01
          2   -1    0    0  501    0  0.00000000000E+00  0.00000000000E+00  0.18209598719E+04  0.18209598719E+04  0.00000000000E+00 0.  1.
         -2   -1    0    0    0  501 -0.00000000000E+00 -0.00000000000E+00 -0.61146279035E+03  0.61146279035E+03  0.00000000000E+00 0. -1.
    2000013    1    1    2    0    0  0.31119104657E+03 -0.27251811735E+03  0.37468329651E+03  0.11018137612E+04  0.95000000000E+03 0.  0.
   -2000013    1    1    2    0    0 -0.31119104657E+03  0.27251811735E+03  0.83481378500E+03  0.13306089010E+04  0.95000000000E+03 0.  0.
<mgrwt>
<rscale>  0 0.21104021E+04</rscale>
<asrwt>0</asrwt>
<pdfrwt beam="1">  1        2 0.28014767E+00 0.21104021E+04</pdfrwt>
<pdfrwt beam="2">  1       -2 0.94071199E-01 0.21104021E+04</pdfrwt>
<totfact> 0.73763693E+00</totfact>
</mgrwt>
</event>
<event>
 4    1  0.2058093E-008  0.3041500E+04  0.7816531E-02  0.8231979E-01
         -2   -1    0    0    0  501 -0.00000000000E+00  0.00000000000E+00  0.95386920421E+03  0.95386920421E+03  0.00000000000E+00 0. -1.
          2   -1    0    0  501    0  0.00000000000E+00 -0.00000000000E+00 -0.24245264480E+04  0.24245264480E+04  0.00000000000E+00 0.  1.
    2000013    1    1    2    0    0  0.10523067883E+04  0.38146073702E+03 -0.29476000164E+03  0.14974128786E+04  0.95000000000E+03 0.  0.
   -2000013    1    1    2    0    0 -0.10523067883E+04 -0.38146073702E+03 -0.11758972422E+04  0.18809827736E+04  0.95000000000E+03 0.  0.
<mgrwt>
<rscale>  0 0.30415004E+04</rscale>
<asrwt>0</asrwt>
<pdfrwt beam="2">  1        2 0.37300407E+00 0.30415004E+04</pdfrwt>
<pdfrwt beam="1">  1       -2 0.14674911E+00 0.30415004E+04</pdfrwt>
<totfact> 0.10422733E+00</totfact>
</mgrwt>
</event>
<event>
 4    1  0.2058093E-008  0.2272268E+04  0.7816531E-02  0.8488936E-01
         -2   -1    0    0    0  501 -0.00000000000E+00  0.00000000000E+00  0.25776852433E+04  0.25776852433E+04  0.00000000000E+00 0. -1.
          2   -1    0    0  501    0  0.00000000000E+00 -0.00000000000E+00 -0.50075950291E+03  0.50075950291E+03  0.00000000000E+00 0.  1.
    2000013    1    1    2    0    0 -0.44983040334E+03 -0.30734546747E+03  0.62867150864E+03  0.12627495769E+04  0.95000000000E+03 0.  0.
   -2000013    1    1    2    0    0  0.44983040334E+03  0.30734546747E+03  0.14482542318E+04  0.18156951694E+04  0.95000000000E+03 0.  0.
<mgrwt>
<rscale>  0 0.22722679E+04</rscale>
<asrwt>0</asrwt>
<pdfrwt beam="2">  1        2 0.77039925E-01 0.22722679E+04</pdfrwt>
<pdfrwt beam="1">  1       -2 0.39656695E+00 0.22722679E+04</pdfrwt>
<totfact> 0.43711932E-01</totfact>
</mgrwt>
</event>
<event>
 4    1  0.2058093E-008  0.3010307E+04  0.7816531E-02  0.8240794E-01
         -2   -1    0    0    0  501 -0.00000000000E+00  0.00000000000E+00  0.13516970581E+04  0.13516970581E+04  0.00000000000E+00 0. -1.
          2   -1    0    0  501    0  0.00000000000E+00 -0.00000000000E+00 -0.16760313546E+04  0.16760313546E+04  0.00000000000E+00 0.  1.
    2000013    1    1    2    0    0  0.99372402347E+03  0.60692704008E+03 -0.24714745731E+03  0.15229674102E+04  0.95000000000E+03 0.  0.
   -2000013    1    1    2    0    0 -0.99372402347E+03 -0.60692704008E+03 -0.77186839214E+02  0.15047610026E+04  0.95000000000E+03 0.  0.
<mgrwt>
<rscale>  0 0.30103067E+04</rscale>
<asrwt>0</asrwt>
<pdfrwt beam="2">  1        2 0.25785098E+00 0.30103067E+04</pdfrwt>
<pdfrwt beam="1">  1       -2 0.20795339E+00 0.30103067E+04</pdfrwt>
<totfact> 0.10211276E+00</totfact>
</mgrwt>
</event>
<event>
 4    1  0.2058093E-008  0.2759935E+04  0.7816531E-02  0.8315816E-01
          2   -1    0    0  501    0  0.00000000000E+00  0.00000000000E+00  0.34853402964E+04  0.34853402964E+04  0.00000000000E+00 0.  1.
         -2   -1    0    0    0  501 -0.00000000000E+00 -0.00000000000E+00 -0.54637710860E+03  0.54637710860E+03  0.00000000000E+00 0. -1.
    2000013    1    1    2    0    0  0.87482675454E+03 -0.39020067448E+03  0.18934457337E+04  0.23249118614E+04  0.95000000000E+03 0.  0.
   -2000013    1    1    2    0    0 -0.87482675454E+03  0.39020067448E+03  0.10455174541E+04  0.17068055436E+04  0.95000000000E+03 0.  0.
<mgrwt>
<rscale>  0 0.27599349E+04</rscale>
<asrwt>0</asrwt>
<pdfrwt beam="1">  1        2 0.53620618E+00 0.27599349E+04</pdfrwt>
<pdfrwt beam="2">  1       -2 0.84058019E-01 0.27599349E+04</pdfrwt>
<totfact> 0.89806320E-01</totfact>
</mgrwt>
</event>
<event>
 4    1  0.2058093E-008  0.2058995E+04  0.7816531E-02  0.8579525E-01
          1   -1    0    0  501    0  0.00000000000E+00  0.00000000000E+00  0.21587357151E+04  0.21587357151E+04  0.00000000000E+00 0.  1.
         -1   -1    0    0    0  501 -0.00000000000E+00 -0.00000000000E+00 -0.49096564336E+03  0.49096564336E+03  0.00000000000E+00 0. -1.
    2000013    1    1    2    0    0  0.20038472248E+03 -0.30378067324E+03  0.10370684611E+04  0.14527380106E+04  0.95000000000E+03 0.  0.
   -2000013    1    1    2    0    0 -0.20038472248E+03  0.30378067324E+03  0.63070161060E+03  0.11969633478E+04  0.95000000000E+03 0.  0.
<mgrwt>
<rscale>  0 0.20589950E+04</rscale>
<asrwt>0</asrwt>
<pdfrwt beam="1">  1        1 0.33211318E+00 0.20589950E+04</pdfrwt>
<pdfrwt beam="2">  1       -1 0.75533177E-01 0.20589950E+04</pdfrwt>
<totfact> 0.37787791E+00</totfact>
</mgrwt>
</event>
<event>
 4    1  0.2058093E-008  0.2484228E+04  0.7816531E-02  0.8408626E-01
         -2   -1    0    0    0  501 -0.00000000000E+00  0.00000000000E+00  0.90083364915E+03  0.90083364915E+03  0.00000000000E+00 0. -1.
          2   -1    0    0  501    0  0.00000000000E+00 -0.00000000000E+00 -0.17126880433E+04  0.17126880433E+04  0.00000000000E+00 0.  1.
    2000013    1    1    2    0    0  0.22476015049E+03 -0.76716913297E+03 -0.36826724516E+03  0.12950623026E+04  0.95000000000E+03 0.  0.
   -2000013    1    1    2    0    0 -0.22476015049E+03  0.76716913297E+03 -0.44358714898E+03  0.13184593898E+04  0.95000000000E+03 0.  0.
<mgrwt>
<rscale>  0 0.24842279E+04</rscale>
<asrwt>0</asrwt>
<pdfrwt beam="2">  1        2 0.26349047E+00 0.24842279E+04</pdfrwt>
<pdfrwt beam="1">  1       -2 0.13858979E+00 0.24842279E+04</pdfrwt>
<totfact> 0.31776906E+00</totfact>
</mgrwt>
</event>
<event>
 4    1  0.2058093E-008  0.3322885E+04  0.7816531E-02  0.8157097E-01
         -2   -1    0    0    0  501 -0.00000000000E+00  0.00000000000E+00  0.12811987462E+04  0.12811987462E+04  0.00000000000E+00 0. -1.
          2   -1    0    0  501    0  0.00000000000E+00 -0.00000000000E+00 -0.21545374884E+04  0.21545374884E+04  0.00000000000E+00 0.  1.
    2000013    1    1    2    0    0  0.30801545682E+03 -0.12529141948E+04  0.17830961684E+02  0.16023374939E+04  0.95000000000E+03 0.  0.
   -2000013    1    1    2    0    0 -0.30801545682E+03  0.12529141948E+04 -0.89116970389E+03  0.18333987407E+04  0.95000000000E+03 0.  0.
<mgrwt>
<rscale>  0 0.33228847E+04</rscale>
<asrwt>0</asrwt>
<pdfrwt beam="2">  1        2 0.33146730E+00 0.33228847E+04</pdfrwt>
<pdfrwt beam="1">  1       -2 0.19710750E+00 0.33228847E+04</pdfrwt>
<totfact> 0.63452492E-01</totfact>
</mgrwt>
</event>
<event>
 4    1  0.2058093E-008  0.2543638E+04  0.7816531E-02  0.8387602E-01
          2   -1    0    0  501    0  0.00000000000E+00  0.00000000000E+00  0.90792511663E+03  0.90792511663E+03  0.00000000000E+00 0.  1.
         -2   -1    0    0    0  501 -0.00000000000E+00 -0.00000000000E+00 -0.17815609258E+04  0.17815609258E+04  0.00000000000E+00 0. -1.
    2000013    1    1    2    0    0  0.35683431533E+03  0.61218565781E+03 -0.92471037305E+03  0.15032269563E+04  0.95000000000E+03 0.  0.
   -2000013    1    1    2    0    0 -0.35683431533E+03 -0.61218565781E+03  0.51074563895E+02  0.11862590861E+04  0.95000000000E+03 0.  0.
<mgrwt>
<rscale>  0 0.25436383E+04</rscale>
<asrwt>0</asrwt>
<pdfrwt beam="1">  1        2 0.13968079E+00 0.25436383E+04</pdfrwt>
<pdfrwt beam="2">  1       -2 0.27408629E+00 0.25436383E+04</pdfrwt>
<totfact> 0.11777665E+00</totfact>
</mgrwt>
</event>
<event>
 4    1  0.2058093E-008  0.3144828E+04  0.7816531E-02  0.8203542E-01
         -1   -1    0    0    0  501 -0.00000000000E+00  0.00000000000E+00  0.12048021356E+04  0.12048021356E+04  0.00000000000E+00 0. -1.
          1   -1    0    0  501    0  0.00000000000E+00 -0.00000000000E+00 -0.20521921765E+04  0.20521921765E+04  0.00000000000E+00 0.  1.
    2000013    1    1    2    0    0  0.21010165558E+03 -0.10352757615E+04 -0.11215585265E+04  0.18100641249E+04  0.95000000000E+03 0.  0.
   -2000013    1    1    2    0    0 -0.21010165558E+03  0.10352757615E+04  0.27416848556E+03  0.14469301872E+04  0.95000000000E+03 0.  0.
<mgrwt>
<rscale>  0 0.31448278E+04</rscale>
<asrwt>0</asrwt>
<pdfrwt beam="2">  1        1 0.31572188E+00 0.31448278E+04</pdfrwt>
<pdfrwt beam="1">  1       -1 0.18535417E+00 0.31448278E+04</pdfrwt>
<totfact> 0.43995153E-01</totfact>
</mgrwt>
</event>
<event>
 4    1  0.2058093E-008  0.3053708E+04  0.7816531E-02  0.8228558E-01
         -2   -1    0    0    0  501 -0.00000000000E+00  0.00000000000E+00  0.11265707966E+04  0.11265707966E+04  0.00000000000E+00 0. -1.
          2   -1    0    0  501    0  0.00000000000E+00 -0.00000000000E+00 -0.20693618400E+04  0.20693618400E+04  0.00000000000E+00 0.  1.
    2000013    1    1    2    0    0 -0.23974395242E+03  0.11710161854E+04 -0.46600313396E+03  0.15963755793E+04  0.95000000000E+03 0.  0.
   -2000013    1    1    2    0    0  0.23974395242E+03 -0.11710161854E+04 -0.47678790944E+03  0.15995570574E+04  0.95000000000E+03 0.  0.
<mgrwt>
<rscale>  0 0.30537077E+04</rscale>
<asrwt>0</asrwt>
<pdfrwt beam="2">  1        2 0.31836336E+00 0.30537077E+04</pdfrwt>
<pdfrwt beam="1">  1       -2 0.17331858E+00 0.30537077E+04</pdfrwt>
<totfact> 0.10518211E+00</totfact>
</mgrwt>
</event>
<event>
 4    1  0.2058093E-008  0.2028825E+04  0.7816531E-02  0.8593262E-01
          2   -1    0    0  501    0  0.00000000000E+00  0.00000000000E+00  0.30152694547E+04  0.30152694547E+04  0.00000000000E+00 0.  1.
         -2   -1    0    0    0  501 -0.00000000000E+00 -0.00000000000E+00 -0.34127372056E+03  0.34127372056E+03  0.00000000000E+00 0. -1.
    2000013    1    1    2    0    0  0.30121159887E+03  0.18668557970E+03  0.13880522344E+04  0.17189441347E+04  0.95000000000E+03 0.  0.
   -2000013    1    1    2    0    0 -0.30121159887E+03 -0.18668557970E+03  0.12859434997E+04  0.16375990405E+04  0.95000000000E+03 0.  0.
<mgrwt>
<rscale>  0 0.20288245E+04</rscale>
<asrwt>0</asrwt>
<pdfrwt beam="1">  1        2 0.46388759E+00 0.20288245E+04</pdfrwt>
<pdfrwt beam="2">  1       -2 0.52503651E-01 0.20288245E+04</pdfrwt>
<totfact> 0.54161100E+00</totfact>
</mgrwt>
</event>
<event>
 4    1  0.2058093E-008  0.2926049E+04  0.7816531E-02  0.8265169E-01
          2   -1    0    0  501    0  0.00000000000E+00  0.00000000000E+00  0.27253664764E+04  0.27253664764E+04  0.00000000000E+00 0.  1.
         -2   -1    0    0    0  501 -0.00000000000E+00 -0.00000000000E+00 -0.78537735864E+03  0.78537735864E+03  0.00000000000E+00 0. -1.
    2000013    1    1    2    0    0  0.83309092131E+02 -0.10918735506E+04  0.73361747134E+03  0.16247531658E+04  0.95000000000E+03 0.  0.
   -2000013    1    1    2    0    0 -0.83309092131E+02  0.10918735506E+04  0.12063716465E+04  0.18859906693E+04  0.95000000000E+03 0.  0.
<mgrwt>
<rscale>  0 0.29260493E+04</rscale>
<asrwt>0</asrwt>
<pdfrwt beam="1">  1        2 0.41928715E+00 0.29260493E+04</pdfrwt>
<pdfrwt beam="2">  1       -2 0.12082729E+00 0.29260493E+04</pdfrwt>
<totfact> 0.11524326E+00</totfact>
</mgrwt>
</event>
<event>
 4    1  0.2058093E-008  0.2625508E+04  0.7816531E-02  0.8359588E-01
          2   -1    0    0  501    0  0.00000000000E+00  0.00000000000E+00  0.21501883483E+04  0.21501883483E+04  0.00000000000E+00 0.  1.
         -2   -1    0    0    0  501 -0.00000000000E+00 -0.00000000000E+00 -0.80147564128E+03  0.80147564128E+03  0.00000000000E+00 0. -1.
    2000013    1    1    2    0    0 -0.70633287137E+02  0.79009542265E+03  0.18227961327E+03  0.12509858894E+04  0.95000000000E+03 0.  0.
   -2000013    1    1    2    0    0  0.70633287137E+02 -0.79009542265E+03  0.11664330938E+04  0.17006781002E+04  0.95000000000E+03 0.  0.
<mgrwt>
<rscale>  0 0.26255084E+04</rscale>
<asrwt>0</asrwt>
<pdfrwt beam="1">  1        2 0.33079820E+00 0.26255084E+04</pdfrwt>
<pdfrwt beam="2">  1       -2 0.12330395E+00 0.26255084E+04</pdfrwt>
<totfact> 0.24121404E+00</totfact>
</mgrwt>
</event>
<event>
 4    1  0.2058093E-008  0.2374444E+04  0.7816531E-02  0.8449134E-01
         -2   -1    0    0    0  501 -0.00000000000E+00  0.00000000000E+00  0.49398149187E+03  0.49398149187E+03  0.00000000000E+00 0. -1.
          2   -1    0    0  501    0  0.00000000000E+00 -0.00000000000E+00 -0.28533370333E+04  0.28533370333E+04  0.00000000000E+00 0.  1.
    2000013    1    1    2    0    0  0.51588965441E+03  0.43005576884E+03 -0.15129988405E+04  0.19086004273E+04  0.95000000000E+03 0.  0.
   -2000013    1    1    2    0    0 -0.51588965441E+03 -0.43005576884E+03 -0.84635670094E+03  0.14387180978E+04  0.95000000000E+03 0.  0.
<mgrwt>
<rscale>  0 0.23744437E+04</rscale>
<asrwt>0</asrwt>
<pdfrwt beam="2">  1        2 0.43897494E+00 0.23744437E+04</pdfrwt>
<pdfrwt beam="1">  1       -2 0.75997151E-01 0.23744437E+04</pdfrwt>
<totfact> 0.29993212E+00</totfact>
</mgrwt>
</event>
<event>
 4    1  0.2058093E-008  0.2493040E+04  0.7816531E-02  0.8405469E-01
          2   -1    0    0  501    0  0.00000000000E+00  0.00000000000E+00  0.15109224592E+04  0.15109224592E+04  0.00000000000E+00 0.  1.
         -2   -1    0    0    0  501 -0.00000000000E+00 -0.00000000000E+00 -0.10283862569E+04  0.10283862569E+04  0.00000000000E+00 0. -1.
    2000013    1    1    2    0    0  0.23285111947E+03 -0.70391204670E+03 -0.83395282042E+02  0.12079596791E+04  0.95000000000E+03 0.  0.
   -2000013    1    1    2    0    0 -0.23285111947E+03  0.70391204670E+03  0.56593148435E+03  0.13313490370E+04  0.95000000000E+03 0.  0.
<mgrwt>
<rscale>  0 0.24930398E+04</rscale>
<asrwt>0</asrwt>
<pdfrwt beam="1">  1        2 0.23244961E+00 0.24930398E+04</pdfrwt>
<pdfrwt beam="2">  1       -2 0.15821327E+00 0.24930398E+04</pdfrwt>
<totfact> 0.29008741E+00</totfact>
</mgrwt>
</event>
<event>
 4    1  0.2058093E-008  0.2209792E+04  0.7816531E-02  0.8514364E-01
         -2   -1    0    0    0  501 -0.00000000000E+00  0.00000000000E+00  0.12161524604E+04  0.12161524604E+04  0.00000000000E+00 0. -1.
          2   -1    0    0  501    0  0.00000000000E+00 -0.00000000000E+00 -0.10038175124E+04  0.10038175124E+04  0.00000000000E+00 0.  1.
    2000013    1    1    2    0    0 -0.18424671872E+03 -0.53304159036E+03  0.91438870740E+02  0.11085762299E+04  0.95000000000E+03 0.  0.
   -2000013    1    1    2    0    0  0.18424671872E+03  0.53304159036E+03  0.12089607728E+03  0.11113937430E+04  0.95000000000E+03 0.  0.
<mgrwt>
<rscale>  0 0.22097920E+04</rscale>
<asrwt>0</asrwt>
<pdfrwt beam="2">  1        2 0.15443346E+00 0.22097920E+04</pdfrwt>
<pdfrwt beam="1">  1       -2 0.18710038E+00 0.22097920E+04</pdfrwt>
<totfact> 0.37081449E+00</totfact>
</mgrwt>
</event>
<event>
 4    1  0.2058093E-008  0.2866307E+04  0.7816531E-02  0.8282973E-01
          2   -1    0    0  501    0  0.00000000000E+00  0.00000000000E+00  0.11915182082E+04  0.11915182082E+04  0.00000000000E+00 0.  1.
         -2   -1    0    0    0  501 -0.00000000000E+00 -0.00000000000E+00 -0.17237919459E+04  0.17237919459E+04  0.00000000000E+00 0. -1.
    2000013    1    1    2    0    0 -0.78926863248E+03 -0.63865918736E+03  0.87073775963E+02  0.13931663125E+04  0.95000000000E+03 0.  0.
   -2000013    1    1    2    0    0  0.78926863248E+03  0.63865918736E+03 -0.61934751364E+03  0.15221438416E+04  0.95000000000E+03 0.  0.
<mgrwt>
<rscale>  0 0.28663074E+04</rscale>
<asrwt>0</asrwt>
<pdfrwt beam="1">  1        2 0.18331049E+00 0.28663074E+04</pdfrwt>
<pdfrwt beam="2">  1       -2 0.26519876E+00 0.28663074E+04</pdfrwt>
<totfact> 0.86001192E-01</totfact>
</mgrwt>
</event>
<event>
 4    1  0.2058093E-008  0.2228604E+04  0.7816531E-02  0.8506616E-01
          2   -1    0    0  501    0  0.00000000000E+00  0.00000000000E+00  0.15084837670E+04  0.15084837670E+04  0.00000000000E+00 0.  1.
         -2   -1    0    0    0  501 -0.00000000000E+00 -0.00000000000E+00 -0.82312391257E+03  0.82312391257E+03  0.00000000000E+00 0. -1.
    2000013    1    1    2    0    0  0.30507805043E+03  0.49606607936E+03  0.34671681379E+03  0.11669904545E+04  0.95000000000E+03 0.  0.
   -2000013    1    1    2    0    0 -0.30507805043E+03 -0.49606607936E+03  0.33864304065E+03  0.11646172251E+04  0.95000000000E+03 0.  0.
<mgrwt>
<rscale>  0 0.22286041E+04</rscale>
<asrwt>0</asrwt>
<pdfrwt beam="1">  1        2 0.23207442E+00 0.22286041E+04</pdfrwt>
<pdfrwt beam="2">  1       -2 0.12663445E+00 0.22286041E+04</pdfrwt>
<totfact> 0.53137312E+00</totfact>
</mgrwt>
</event>
<event>
 4    1  0.2058093E-008  0.2041401E+04  0.7816531E-02  0.8587505E-01
          2   -1    0    0  501    0  0.00000000000E+00  0.00000000000E+00  0.24404087017E+04  0.24404087017E+04  0.00000000000E+00 0.  1.
         -2   -1    0    0    0  501 -0.00000000000E+00 -0.00000000000E+00 -0.42690788479E+03  0.42690788479E+03  0.00000000000E+00 0. -1.
    2000013    1    1    2    0    0  0.10315740278E+03 -0.32042455533E+03  0.78019697775E+03  0.12745668556E+04  0.95000000000E+03 0.  0.
   -2000013    1    1    2    0    0 -0.10315740278E+03  0.32042455533E+03  0.12333038391E+04  0.15927497308E+04  0.95000000000E+03 0.  0.
<mgrwt>
<rscale>  0 0.20414012E+04</rscale>
<asrwt>0</asrwt>
<pdfrwt beam="1">  1        2 0.37544749E+00 0.20414012E+04</pdfrwt>
<pdfrwt beam="2">  1       -2 0.65678137E-01 0.20414012E+04</pdfrwt>
<totfact> 0.74518483E+00</totfact>
</mgrwt>
</event>
<event>
 4    1  0.2058093E-008  0.2450269E+04  0.7816531E-02  0.8420920E-01
         -2   -1    0    0    0  501 -0.00000000000E+00  0.00000000000E+00  0.10584115025E+04  0.10584115025E+04  0.00000000000E+00 0. -1.
          2   -1    0    0  501    0  0.00000000000E+00 -0.00000000000E+00 -0.14181205073E+04  0.14181205073E+04  0.00000000000E+00 0.  1.
    2000013    1    1    2    0    0  0.28749742315E+03  0.47268630483E+03  0.36665156010E+03  0.11588876035E+04  0.95000000000E+03 0.  0.
   -2000013    1    1    2    0    0 -0.28749742315E+03 -0.47268630483E+03 -0.72636056495E+03  0.13176444063E+04  0.95000000000E+03 0.  0.
<mgrwt>
<rscale>  0 0.24502694E+04</rscale>
<asrwt>0</asrwt>
<pdfrwt beam="2">  1        2 0.21817239E+00 0.24502694E+04</pdfrwt>
<pdfrwt beam="1">  1       -2 0.16283254E+00 0.24502694E+04</pdfrwt>
<totfact> 0.30383346E+00</totfact>
</mgrwt>
</event>
<event>
 4    1  0.2058093E-008  0.2792951E+04  0.7816531E-02  0.8305460E-01
         -2   -1    0    0    0  501 -0.00000000000E+00  0.00000000000E+00  0.76450777983E+03  0.76450777983E+03  0.00000000000E+00 0. -1.
          2   -1    0    0  501    0  0.00000000000E+00 -0.00000000000E+00 -0.25508481213E+04  0.25508481213E+04  0.00000000000E+00 0.  1.
    2000013    1    1    2    0    0 -0.38479794792E+03 -0.91890676635E+03 -0.61431802060E+03  0.15074301763E+04  0.95000000000E+03 0.  0.
   -2000013    1    1    2    0    0  0.38479794792E+03  0.91890676635E+03 -0.11720223209E+04  0.18079257249E+04  0.95000000000E+03 0.  0.
<mgrwt>
<rscale>  0 0.27929506E+04</rscale>
<asrwt>0</asrwt>
<pdfrwt beam="2">  1        2 0.39243817E+00 0.27929506E+04</pdfrwt>
<pdfrwt beam="1">  1       -2 0.11761658E+00 0.27929506E+04</pdfrwt>
<totfact> 0.15795182E+00</totfact>
</mgrwt>
</event>
<event>
 4    1  0.2058093E-008  0.2279711E+04  0.7816531E-02  0.8485964E-01
         -2   -1    0    0    0  501 -0.00000000000E+00  0.00000000000E+00  0.46613552184E+03  0.46613552184E+03  0.00000000000E+00 0. -1.
          2   -1    0    0  501    0  0.00000000000E+00 -0.00000000000E+00 -0.27873240534E+04  0.27873240534E+04  0.00000000000E+00 0.  1.
    2000013    1    1    2    0    0 -0.58655098614E+02  0.60160220174E+03 -0.90768436370E+03  0.14462906118E+04  0.95000000000E+03 0.  0.
   -2000013    1    1    2    0    0  0.58655098614E+02 -0.60160220174E+03 -0.14135041678E+04  0.18071689634E+04  0.95000000000E+03 0.  0.
<mgrwt>
<rscale>  0 0.22797112E+04</rscale>
<asrwt>0</asrwt>
<pdfrwt beam="2">  1        2 0.42881910E+00 0.22797112E+04</pdfrwt>
<pdfrwt beam="1">  1       -2 0.71713155E-01 0.22797112E+04</pdfrwt>
<totfact> 0.37695077E+00</totfact>
</mgrwt>
</event>
<event>
 4    1  0.2058093E-008  0.2751387E+04  0.7816531E-02  0.8318522E-01
         -2   -1    0    0    0  501 -0.00000000000E+00  0.00000000000E+00  0.15140467836E+04  0.15140467836E+04  0.00000000000E+00 0. -1.
          2   -1    0    0  501    0  0.00000000000E+00 -0.00000000000E+00 -0.12499830404E+04  0.12499830404E+04  0.00000000000E+00 0.  1.
    2000013    1    1    2    0    0 -0.98335713887E+02 -0.97782909387E+03  0.28835264313E+03  0.13969491387E+04  0.95000000000E+03 0.  0.
   -2000013    1    1    2    0    0  0.98335713887E+02  0.97782909387E+03 -0.24288899929E+02  0.13670806853E+04  0.95000000000E+03 0.  0.
<mgrwt>
<rscale>  0 0.27513871E+04</rscale>
<asrwt>0</asrwt>
<pdfrwt beam="2">  1        2 0.19230508E+00 0.27513871E+04</pdfrwt>
<pdfrwt beam="1">  1       -2 0.23293027E+00 0.27513871E+04</pdfrwt>
<totfact> 0.12666035E+00</totfact>
</mgrwt>
</event>
<event>
 4    1  0.2058093E-008  0.2122256E+04  0.7816531E-02  0.8551502E-01
          2   -1    0    0  501    0  0.00000000000E+00  0.00000000000E+00  0.13810200574E+04  0.13810200574E+04  0.00000000000E+00 0.  1.
         -2   -1    0    0    0  501 -0.00000000000E+00 -0.00000000000E+00 -0.81533420353E+03  0.81533420353E+03  0.00000000000E+00 0. -1.
    2000013    1    1    2    0    0 -0.35523922857E+03 -0.15361336035E+03  0.56380067300E+03  0.11705396930E+04  0.95000000000E+03 0.  0.
   -2000013    1    1    2    0    0  0.35523922857E+03  0.15361336035E+03  0.18851809146E+01  0.10258145680E+04  0.95000000000E+03 0.  0.
<mgrwt>
<rscale>  0 0.21222562E+04</rscale>
<asrwt>0</asrwt>
<pdfrwt beam="1">  1        2 0.21246462E+00 0.21222562E+04</pdfrwt>
<pdfrwt beam="2">  1       -2 0.12543603E+00 0.21222562E+04</pdfrwt>
<totfact> 0.64887513E+00</totfact>
</mgrwt>
</event>
<event>
 4    1  0.2058093E-008  0.3895723E+04  0.7816531E-02  0.8025919E-01
          4   -1    0    0  501    0  0.00000000000E+00  0.00000000000E+00  0.22645938401E+04  0.22645938401E+04  0.00000000000E+00 0.  1.
         -4   -1    0    0    0  501 -0.00000000000E+00 -0.00000000000E+00 -0.16754279335E+04  0.16754279335E+04  0.00000000000E+00 0. -1.
    2000013    1    1    2    0    0 -0.38600514247E+03 -0.10602588970E+04  0.15812581749E+04  0.21624121518E+04  0.95000000000E+03 0.  0.
   -2000013    1    1    2    0    0  0.38600514247E+03  0.10602588970E+04 -0.99209226830E+03  0.17776096218E+04  0.95000000000E+03 0.  0.
<mgrwt>
<rscale>  0 0.38957227E+04</rscale>
<asrwt>0</asrwt>
<pdfrwt beam="1">  1        4 0.34839905E+00 0.38957227E+04</pdfrwt>
<pdfrwt beam="2">  1       -4 0.25775814E+00 0.38957227E+04</pdfrwt>
<totfact> 0.13382216E-03</totfact>
</mgrwt>
</event>
<event>
 4    1  0.2058093E-008  0.2485872E+04  0.7816531E-02  0.8408036E-01
         -2   -1    0    0    0  501 -0.00000000000E+00  0.00000000000E+00  0.54806764387E+03  0.54806764387E+03  0.00000000000E+00 0.  1.
          2   -1    0    0  501    0  0.00000000000E+00 -0.00000000000E+00 -0.28187946337E+04  0.28187946337E+04  0.00000000000E+00 0. -1.
    2000013    1    1    2    0    0 -0.63182536623E+03 -0.41828184879E+03 -0.78159013706E+03  0.14448342953E+04  0.95000000000E+03 0.  0.
   -2000013    1    1    2    0    0  0.63182536623E+03  0.41828184879E+03 -0.14891368527E+04  0.19220279823E+04  0.95000000000E+03 0.  0.
<mgrwt>
<rscale>  0 0.24858722E+04</rscale>
<asrwt>0</asrwt>
<pdfrwt beam="2">  1        2 0.43366071E+00 0.24858722E+04</pdfrwt>
<pdfrwt beam="1">  1       -2 0.84318100E-01 0.24858722E+04</pdfrwt>
<totfact> 0.24682788E+00</totfact>
</mgrwt>
</event>
<event>
 4    1  0.2058093E-008  0.3320604E+04  0.7816531E-02  0.8157672E-01
          2   -1    0    0  501    0  0.00000000000E+00  0.00000000000E+00  0.35461704670E+04  0.35461704670E+04  0.00000000000E+00 0.  1.
         -2   -1    0    0    0  501 -0.00000000000E+00 -0.00000000000E+00 -0.77734636827E+03  0.77734636827E+03  0.00000000000E+00 0. -1.
    2000013    1    1    2    0    0 -0.44662119457E+02  0.10223042925E+04  0.25540659216E+04  0.29108166385E+04  0.95000000000E+03 0.  0.
   -2000013    1    1    2    0    0  0.44662119457E+02 -0.10223042925E+04  0.21475817720E+03  0.14127001968E+04  0.95000000000E+03 0.  0.
<mgrwt>
<rscale>  0 0.33206040E+04</rscale>
<asrwt>0</asrwt>
<pdfrwt beam="1">  1        2 0.54556468E+00 0.33206040E+04</pdfrwt>
<pdfrwt beam="2">  1       -2 0.11959175E+00 0.33206040E+04</pdfrwt>
<totfact> 0.33630003E-01</totfact>
</mgrwt>
</event>
<event>
 4    1  0.2058093E-008  0.2830232E+04  0.7816531E-02  0.8293943E-01
         -2   -1    0    0    0  501 -0.00000000000E+00  0.00000000000E+00  0.47371099606E+03  0.47371099606E+03  0.00000000000E+00 0. -1.
          2   -1    0    0  501    0  0.00000000000E+00 -0.00000000000E+00 -0.42273740435E+04  0.42273740435E+04  0.00000000000E+00 0.  1.
    2000013    1    1    2    0    0 -0.56983930363E+03 -0.73389298685E+03 -0.10686482402E+04  0.17052345321E+04  0.95000000000E+03 0.  0.
   -2000013    1    1    2    0    0  0.56983930363E+03  0.73389298685E+03 -0.26850148072E+04  0.29958505074E+04  0.95000000000E+03 0.  0.
<mgrwt>
<rscale>  0 0.28302322E+04</rscale>
<asrwt>0</asrwt>
<pdfrwt beam="2">  1        2 0.65036525E+00 0.28302322E+04</pdfrwt>
<pdfrwt beam="1">  1       -2 0.72878613E-01 0.28302322E+04</pdfrwt>
<totfact> 0.32530895E-01</totfact>
</mgrwt>
</event>
<event>
 4    1  0.2058093E-008  0.2476168E+04  0.7816531E-02  0.8411525E-01
          2   -1    0    0  501    0  0.00000000000E+00  0.00000000000E+00  0.14791875117E+04  0.14791875117E+04  0.00000000000E+00 0.  1.
         -2   -1    0    0    0  501 -0.00000000000E+00 -0.00000000000E+00 -0.10362795270E+04  0.10362795270E+04  0.00000000000E+00 0. -1.
    2000013    1    1    2    0    0  0.64866488664E+03  0.38646420648E+03  0.47076913561E+03  0.13016313983E+04  0.95000000000E+03 0.  0.
   -2000013    1    1    2    0    0 -0.64866488664E+03 -0.38646420648E+03 -0.27861150908E+02  0.12138356403E+04  0.95000000000E+03 0.  0.
<mgrwt>
<rscale>  0 0.24761678E+04</rscale>
<asrwt>0</asrwt>
<pdfrwt beam="1">  1        2 0.22756731E+00 0.24761678E+04</pdfrwt>
<pdfrwt beam="2">  1       -2 0.15942762E+00 0.24761678E+04</pdfrwt>
<totfact> 0.29651791E+00</totfact>
</mgrwt>
</event>
<event>
 4    1  0.2058093E-008  0.2015257E+04  0.7816531E-02  0.8599520E-01
         -2   -1    0    0    0  501 -0.00000000000E+00  0.00000000000E+00  0.11332288335E+04  0.11332288335E+04  0.00000000000E+00 0. -1.
          2   -1    0    0  501    0  0.00000000000E+00 -0.00000000000E+00 -0.89594936095E+03  0.89594936095E+03  0.00000000000E+00 0.  1.
    2000013    1    1    2    0    0  0.21905414135E+03 -0.21823163906E+03  0.25071702575E+03  0.10300333937E+04  0.95000000000E+03 0.  0.
   -2000013    1    1    2    0    0 -0.21905414135E+03  0.21823163906E+03 -0.13437553159E+02  0.99914480080E+03  0.95000000000E+03 0.  0.
<mgrwt>
<rscale>  0 0.20152575E+04</rscale>
<asrwt>0</asrwt>
<pdfrwt beam="2">  1        2 0.13783836E+00 0.20152575E+04</pdfrwt>
<pdfrwt beam="1">  1       -2 0.17434290E+00 0.20152575E+04</pdfrwt>
<totfact> 0.54353757E+00</totfact>
</mgrwt>
</event>
<event>
 4    1  0.2058093E-008  0.2310011E+04  0.7816531E-02  0.8473984E-01
          2   -1    0    0  501    0  0.00000000000E+00  0.00000000000E+00  0.25117190100E+04  0.25117190100E+04  0.00000000000E+00 0.  1.
         -2   -1    0    0    0  501 -0.00000000000E+00 -0.00000000000E+00 -0.53112555485E+03  0.53112555485E+03  0.00000000000E+00 0. -1.
    2000013    1    1    2    0    0 -0.56541108759E+03 -0.97044828466E+02  0.14118775403E+04  0.17958300547E+04  0.95000000000E+03 0.  0.
   -2000013    1    1    2    0    0  0.56541108759E+03  0.97044828466E+02  0.56871591491E+03  0.12470145102E+04  0.95000000000E+03 0.  0.
<mgrwt>
<rscale>  0 0.23100114E+04</rscale>
<asrwt>0</asrwt>
<pdfrwt beam="1">  1        2 0.38641830E+00 0.23100114E+04</pdfrwt>
<pdfrwt beam="2">  1       -2 0.81711625E-01 0.23100114E+04</pdfrwt>
<totfact> 0.40909896E+00</totfact>
</mgrwt>
</event>
<event>
 4    1  0.2058093E-008  0.2140577E+04  0.7816531E-02  0.8543576E-01
          1   -1    0    0  501    0  0.00000000000E+00  0.00000000000E+00  0.24562916454E+04  0.24562916454E+04  0.00000000000E+00 0. -1.
         -1   -1    0    0    0  501 -0.00000000000E+00 -0.00000000000E+00 -0.46636071310E+03  0.46636071310E+03  0.00000000000E+00 0.  1.
    2000013    1    1    2    0    0  0.31154592487E+03 -0.15553901753E+03  0.14714039957E+04  0.17857163738E+04  0.95000000000E+03 0.  0.
   -2000013    1    1    2    0    0 -0.31154592487E+03  0.15553901753E+03  0.51852693665E+03  0.11369359847E+04  0.95000000000E+03 0.  0.
<mgrwt>
<rscale>  0 0.21405774E+04</rscale>
<asrwt>0</asrwt>
<pdfrwt beam="1">  1        1 0.37789102E+00 0.21405774E+04</pdfrwt>
<pdfrwt beam="2">  1       -1 0.71747803E-01 0.21405774E+04</pdfrwt>
<totfact> 0.26106523E+00</totfact>
</mgrwt>
</event>
<event>
 4    1  0.2058093E-008  0.2558196E+04  0.7816531E-02  0.8382541E-01
         -2   -1    0    0    0  501 -0.00000000000E+00  0.00000000000E+00  0.19190533913E+04  0.19190533913E+04  0.00000000000E+00 0. -1.
          2   -1    0    0  501    0  0.00000000000E+00 -0.00000000000E+00 -0.85255133099E+03  0.85255133099E+03  0.00000000000E+00 0.  1.
    2000013    1    1    2    0    0 -0.16261739949E+03 -0.83172485920E+03  0.39888550569E+03  0.13340990618E+04  0.95000000000E+03 0.  0.
   -2000013    1    1    2    0    0  0.16261739949E+03  0.83172485920E+03  0.66761655467E+03  0.14375056605E+04  0.95000000000E+03 0.  0.
<mgrwt>
<rscale>  0 0.25581959E+04</rscale>
<asrwt>0</asrwt>
<pdfrwt beam="2">  1        2 0.13116174E+00 0.25581959E+04</pdfrwt>
<pdfrwt beam="1">  1       -2 0.29523898E+00 0.25581959E+04</pdfrwt>
<totfact> 0.95369810E-01</totfact>
</mgrwt>
</event>
<event>
 4    1  0.2058093E-008  0.3421380E+04  0.7816531E-02  0.8132679E-01
          2   -1    0    0  501    0  0.00000000000E+00  0.00000000000E+00  0.34246164306E+04  0.34246164306E+04  0.00000000000E+00 0.  1.
         -2   -1    0    0    0  501 -0.00000000000E+00 -0.00000000000E+00 -0.85453668422E+03  0.85453668422E+03  0.00000000000E+00 0. -1.
    2000013    1    1    2    0    0 -0.88645111755E+03  0.10931016073E+04  0.10248030990E+04  0.19832771111E+04  0.95000000000E+03 0.  0.
   -2000013    1    1    2    0    0  0.88645111755E+03 -0.10931016073E+04  0.15452766473E+04  0.22958760037E+04  0.95000000000E+03 0.  0.
<mgrwt>
<rscale>  0 0.34213801E+04</rscale>
<asrwt>0</asrwt>
<pdfrwt beam="1">  1        2 0.52686406E+00 0.34213801E+04</pdfrwt>
<pdfrwt beam="2">  1       -2 0.13146718E+00 0.34213801E+04</pdfrwt>
<totfact> 0.31967667E-01</totfact>
</mgrwt>
</event>
<event>
 4    1  0.2058093E-008  0.2092117E+04  0.7816531E-02  0.8564724E-01
          2   -1    0    0  501    0  0.00000000000E+00  0.00000000000E+00  0.16824213439E+04  0.16824213439E+04  0.00000000000E+00 0.  1.
         -2   -1    0    0    0  501 -0.00000000000E+00 -0.00000000000E+00 -0.65039520937E+03  0.65039520937E+03  0.00000000000E+00 0. -1.
    2000013    1    1    2    0    0 -0.22546316355E+03  0.24080549474E+03  0.83709700306E+03  0.13084541707E+04  0.95000000000E+03 0.  0.
   -2000013    1    1    2    0    0  0.22546316355E+03 -0.24080549474E+03  0.19492913146E+03  0.10243623825E+04  0.95000000000E+03 0.  0.
<mgrwt>
<rscale>  0 0.20921174E+04</rscale>
<asrwt>0</asrwt>
<pdfrwt beam="1">  1        2 0.25883405E+00 0.20921174E+04</pdfrwt>
<pdfrwt beam="2">  1       -2 0.10006080E+00 0.20921174E+04</pdfrwt>
<totfact> 0.76296317E+00</totfact>
</mgrwt>
</event>
<event>
 4    1  0.2058093E-008  0.2010067E+04  0.7816531E-02  0.8601928E-01
         -2   -1    0    0    0  501 -0.00000000000E+00  0.00000000000E+00  0.34873398675E+03  0.34873398675E+03  0.00000000000E+00 0. -1.
          2   -1    0    0  501    0  0.00000000000E+00 -0.00000000000E+00 -0.28964557371E+04  0.28964557371E+04  0.00000000000E+00 0.  1.
    2000013    1    1    2    0    0 -0.23586883445E+03  0.20758564668E+02 -0.16403399481E+04  0.19103089201E+04  0.95000000000E+03 0.  0.
   -2000013    1    1    2    0    0  0.23586883445E+03 -0.20758564668E+02 -0.90738180234E+03  0.13348808038E+04  0.95000000000E+03 0.  0.
<mgrwt>
<rscale>  0 0.20100672E+04</rscale>
<asrwt>0</asrwt>
<pdfrwt beam="2">  1        2 0.44560857E+00 0.20100672E+04</pdfrwt>
<pdfrwt beam="1">  1       -2 0.53651384E-01 0.20100672E+04</pdfrwt>
<totfact> 0.61472107E+00</totfact>
</mgrwt>
</event>
<event>
 4    1  0.2058093E-008  0.2811783E+04  0.7816531E-02  0.8299620E-01
         -1   -1    0    0    0  501 -0.00000000000E+00  0.00000000000E+00  0.75134978162E+03  0.75134978162E+03  0.00000000000E+00 0.  1.
          1   -1    0    0  501    0  0.00000000000E+00 -0.00000000000E+00 -0.26306397326E+04  0.26306397326E+04  0.00000000000E+00 0. -1.
    2000013    1    1    2    0    0  0.12253464052E+03  0.10230255465E+04 -0.80552110380E+03  0.16164653586E+04  0.95000000000E+03 0.  0.
   -2000013    1    1    2    0    0 -0.12253464052E+03 -0.10230255465E+04 -0.10737688472E+04  0.17655241556E+04  0.95000000000E+03 0.  0.
<mgrwt>
<rscale>  0 0.28117828E+04</rscale>
<asrwt>0</asrwt>
<pdfrwt beam="2">  1        1 0.40471380E+00 0.28117828E+04</pdfrwt>
<pdfrwt beam="1">  1       -1 0.11559227E+00 0.28117828E+04</pdfrwt>
<totfact> 0.64359099E-01</totfact>
</mgrwt>
</event>
<event>
 4    1  0.2058093E-008  0.2680446E+04  0.7816531E-02  0.8341378E-01
         -2   -1    0    0    0  501 -0.00000000000E+00  0.00000000000E+00  0.10509375253E+04  0.10509375253E+04  0.00000000000E+00 0. -1.
          2   -1    0    0  501    0  0.00000000000E+00 -0.00000000000E+00 -0.17091384024E+04  0.17091384024E+04  0.00000000000E+00 0.  1.
    2000013    1    1    2    0    0 -0.72476048097E+03 -0.29495878121E+03  0.21714882566E+03  0.12497727993E+04  0.95000000000E+03 0.  0.
   -2000013    1    1    2    0    0  0.72476048097E+03  0.29495878121E+03 -0.87534970284E+03  0.15103031284E+04  0.95000000000E+03 0.  0.
<mgrwt>
<rscale>  0 0.26804460E+04</rscale>
<asrwt>0</asrwt>
<pdfrwt beam="2">  1        2 0.26294437E+00 0.26804460E+04</pdfrwt>
<pdfrwt beam="1">  1       -2 0.16168270E+00 0.26804460E+04</pdfrwt>
<totfact> 0.20852774E+00</totfact>
</mgrwt>
</event>
<event>
 4    1  0.2058093E-008  0.2599978E+04  0.7816531E-02  0.8368209E-01
         -2   -1    0    0    0  501 -0.00000000000E+00  0.00000000000E+00  0.13695033756E+04  0.13695033756E+04  0.00000000000E+00 0. -1.
          2   -1    0    0  501    0  0.00000000000E+00 -0.00000000000E+00 -0.12340027855E+04  0.12340027855E+04  0.00000000000E+00 0.  1.
    2000013    1    1    2    0    0 -0.77909804021E+03  0.25319168161E+03 -0.27384488964E+03  0.12839746133E+04  0.95000000000E+03 0.  0.
   -2000013    1    1    2    0    0  0.77909804021E+03 -0.25319168161E+03  0.40934547973E+03  0.13195315478E+04  0.95000000000E+03 0.  0.
<mgrwt>
<rscale>  0 0.25999777E+04</rscale>
<asrwt>0</asrwt>
<pdfrwt beam="2">  1        2 0.18984658E+00 0.25999777E+04</pdfrwt>
<pdfrwt beam="1">  1       -2 0.21069283E+00 0.25999777E+04</pdfrwt>
<totfact> 0.18123578E+00</totfact>
</mgrwt>
</event>
<event>
 4    1  0.2058093E-008  0.2173059E+04  0.7816531E-02  0.8529726E-01
         -2   -1    0    0    0  501 -0.00000000000E+00  0.00000000000E+00  0.77731215887E+03  0.77731215887E+03  0.00000000000E+00 0. -1.
          2   -1    0    0  501    0  0.00000000000E+00 -0.00000000000E+00 -0.15187549994E+04  0.15187549994E+04  0.00000000000E+00 0.  1.
    2000013    1    1    2    0    0 -0.31697568477E+03 -0.40649973083E+03 -0.48805278220E+03  0.11859220607E+04  0.95000000000E+03 0.  0.
   -2000013    1    1    2    0    0  0.31697568477E+03  0.40649973083E+03 -0.25339005829E+03  0.11101450975E+04  0.95000000000E+03 0.  0.
<mgrwt>
<rscale>  0 0.21730593E+04</rscale>
<asrwt>0</asrwt>
<pdfrwt beam="2">  1        2 0.23365461E+00 0.21730593E+04</pdfrwt>
<pdfrwt beam="1">  1       -2 0.11958649E+00 0.21730593E+04</pdfrwt>
<totfact> 0.60788594E+00</totfact>
</mgrwt>
</event>
<event>
 4    1  0.2058093E-008  0.2153199E+04  0.7816531E-02  0.8538164E-01
          2   -1    0    0  501    0  0.00000000000E+00  0.00000000000E+00  0.15293288442E+04  0.15293288442E+04  0.00000000000E+00 0.  1.
         -2   -1    0    0    0  501 -0.00000000000E+00 -0.00000000000E+00 -0.75789230806E+03  0.75789230806E+03  0.00000000000E+00 0. -1.
    2000013    1    1    2    0    0 -0.45472734057E+03  0.20914850650E+03  0.46831760425E+03  0.11714697736E+04  0.95000000000E+03 0.  0.
   -2000013    1    1    2    0    0  0.45472734057E+03 -0.20914850650E+03  0.30311893187E+03  0.11157513786E+04  0.95000000000E+03 0.  0.
<mgrwt>
<rscale>  0 0.21531991E+04</rscale>
<asrwt>0</asrwt>
<pdfrwt beam="1">  1        2 0.23528136E+00 0.21531991E+04</pdfrwt>
<pdfrwt beam="2">  1       -2 0.11659882E+00 0.21531991E+04</pdfrwt>
<totfact> 0.63923159E+00</totfact>
</mgrwt>
</event>
<event>
 4    1  0.2058093E-008  0.2872525E+04  0.7816531E-02  0.8281099E-01
          2   -1    0    0  501    0  0.00000000000E+00  0.00000000000E+00  0.14575420011E+04  0.14575420011E+04  0.00000000000E+00 0.  1.
         -2   -1    0    0    0  501 -0.00000000000E+00 -0.00000000000E+00 -0.14152939327E+04  0.14152939327E+04  0.00000000000E+00 0. -1.
    2000013    1    1    2    0    0  0.71221326651E+03  0.20400408955E+03 -0.76093556604E+03  0.14249169594E+04  0.95000000000E+03 0.  0.
   -2000013    1    1    2    0    0 -0.71221326651E+03 -0.20400408955E+03  0.80318363443E+03  0.14479189743E+04  0.95000000000E+03 0.  0.
<mgrwt>
<rscale>  0 0.28725253E+04</rscale>
<asrwt>0</asrwt>
<pdfrwt beam="1">  1        2 0.22423723E+00 0.28725253E+04</pdfrwt>
<pdfrwt beam="2">  1       -2 0.21773753E+00 0.28725253E+04</pdfrwt>
<totfact> 0.11857295E+00</totfact>
</mgrwt>
</event>
<event>
 4    1  0.2058093E-008  0.3116242E+04  0.7816531E-02  0.8211295E-01
          2   -1    0    0  501    0  0.00000000000E+00  0.00000000000E+00  0.24610040077E+04  0.24610040077E+04  0.00000000000E+00 0.  1.
         -2   -1    0    0    0  501 -0.00000000000E+00 -0.00000000000E+00 -0.98648406130E+03  0.98648406130E+03  0.00000000000E+00 0. -1.
    2000013    1    1    2    0    0 -0.39423194193E+03  0.11691320362E+04  0.67714533579E+03  0.16980324932E+04  0.95000000000E+03 0.  0.
   -2000013    1    1    2    0    0  0.39423194193E+03 -0.11691320362E+04  0.79737461065E+03  0.17494555758E+04  0.95000000000E+03 0.  0.
<mgrwt>
<rscale>  0 0.31162421E+04</rscale>
<asrwt>0</asrwt>
<pdfrwt beam="1">  1        2 0.37861600E+00 0.31162421E+04</pdfrwt>
<pdfrwt beam="2">  1       -2 0.15176678E+00 0.31162421E+04</pdfrwt>
<totfact> 0.90281196E-01</totfact>
</mgrwt>
</event>
<event>
 4    1  0.2058093E-008  0.2044091E+04  0.7816531E-02  0.8586280E-01
          2   -1    0    0  501    0  0.00000000000E+00  0.00000000000E+00  0.49755653637E+03  0.49755653637E+03  0.00000000000E+00 0.  1.
         -2   -1    0    0    0  501 -0.00000000000E+00 -0.00000000000E+00 -0.20994139238E+04  0.20994139238E+04  0.00000000000E+00 0. -1.
    2000013    1    1    2    0    0 -0.24256500917E+03  0.51289248259E+02 -0.44021896828E+03  0.10759930812E+04  0.95000000000E+03 0.  0.
   -2000013    1    1    2    0    0  0.24256500917E+03 -0.51289248259E+02 -0.11616384192E+04  0.15209773791E+04  0.95000000000E+03 0.  0.
<mgrwt>
<rscale>  0 0.20440911E+04</rscale>
<asrwt>0</asrwt>
<pdfrwt beam="1">  1        2 0.76547160E-01 0.20440911E+04</pdfrwt>
<pdfrwt beam="2">  1       -2 0.32298676E+00 0.20440911E+04</pdfrwt>
<totfact> 0.13176170E+00</totfact>
</mgrwt>
</event>
<event>
 4    1  0.2058093E-008  0.2032173E+04  0.7816531E-02  0.8591725E-01
          2   -1    0    0  501    0  0.00000000000E+00  0.00000000000E+00  0.14331385030E+04  0.14331385030E+04  0.00000000000E+00 0.  1.
         -2   -1    0    0    0  501 -0.00000000000E+00 -0.00000000000E+00 -0.72039927366E+03  0.72039927366E+03  0.00000000000E+00 0. -1.
    2000013    1    1    2    0    0 -0.20280275873E+03  0.28532455117E+03  0.26525279406E+03  0.10466126806E+04  0.95000000000E+03 0.  0.
   -2000013    1    1    2    0    0  0.20280275873E+03 -0.28532455117E+03  0.44748643524E+03  0.11069250960E+04  0.95000000000E+03 0.  0.
<mgrwt>
<rscale>  0 0.20321732E+04</rscale>
<asrwt>0</asrwt>
<pdfrwt beam="1">  1        2 0.22048285E+00 0.20321732E+04</pdfrwt>
<pdfrwt beam="2">  1       -2 0.11083066E+00 0.20321732E+04</pdfrwt>
<totfact> 0.82828766E+00</totfact>
</mgrwt>
</event>
<event>
 4    1  0.2058093E-008  0.2275265E+04  0.7816531E-02  0.8487738E-01
         -2   -1    0    0    0  501 -0.00000000000E+00  0.00000000000E+00  0.52571357265E+03  0.52571357265E+03  0.00000000000E+00 0. -1.
          2   -1    0    0  501    0  0.00000000000E+00 -0.00000000000E+00 -0.24618106124E+04  0.24618106124E+04  0.00000000000E+00 0.  1.
    2000013    1    1    2    0    0 -0.54049042827E+02 -0.61313267767E+03 -0.81917986109E+03  0.13972861641E+04  0.95000000000E+03 0.  0.
   -2000013    1    1    2    0    0  0.54049042827E+02  0.61313267767E+03 -0.11169171787E+04  0.15902380210E+04  0.95000000000E+03 0.  0.
<mgrwt>
<rscale>  0 0.22752646E+04</rscale>
<asrwt>0</asrwt>
<pdfrwt beam="2">  1        2 0.37874009E+00 0.22752646E+04</pdfrwt>
<pdfrwt beam="1">  1       -2 0.80879012E-01 0.22752646E+04</pdfrwt>
<totfact> 0.44875707E+00</totfact>
</mgrwt>
</event>
<event>
 4    1  0.2058093E-008  0.2703851E+04  0.7816531E-02  0.8333757E-01
         -2   -1    0    0    0  501 -0.00000000000E+00  0.00000000000E+00  0.70440274844E+03  0.70440274844E+03  0.00000000000E+00 0. -1.
          2   -1    0    0  501    0  0.00000000000E+00 -0.00000000000E+00 -0.25946841353E+04  0.25946841353E+04  0.00000000000E+00 0.  1.
    2000013    1    1    2    0    0 -0.44397357885E+03  0.83019261111E+02 -0.19813278740E+04  0.22432487336E+04  0.95000000000E+03 0.  0.
   -2000013    1    1    2    0    0  0.44397357885E+03 -0.83019261111E+02  0.91046487183E+02  0.10558381501E+04  0.95000000000E+03 0.  0.
<mgrwt>
<rscale>  0 0.27038511E+04</rscale>
<asrwt>0</asrwt>
<pdfrwt beam="2">  1        2 0.39918218E+00 0.27038511E+04</pdfrwt>
<pdfrwt beam="1">  1       -2 0.10836965E+00 0.27038511E+04</pdfrwt>
<totfact> 0.18307180E+00</totfact>
</mgrwt>
</event>
<event>
 4    1  0.2058093E-008  0.2930229E+04  0.7816531E-02  0.8263940E-01
          1   -1    0    0  501    0  0.00000000000E+00  0.00000000000E+00  0.83207473764E+03  0.83207473764E+03  0.00000000000E+00 0.  1.
         -1   -1    0    0    0  501 -0.00000000000E+00 -0.00000000000E+00 -0.25797684390E+04  0.25797684390E+04  0.00000000000E+00 0. -1.
    2000013    1    1    2    0    0 -0.10652371811E+04  0.67199312246E+02 -0.12508087765E+04  0.18990177974E+04  0.95000000000E+03 0.  0.
   -2000013    1    1    2    0    0  0.10652371811E+04 -0.67199312246E+02 -0.49688492488E+03  0.15128253792E+04  0.95000000000E+03 0.  0.
<mgrwt>
<rscale>  0 0.29302288E+04</rscale>
<asrwt>0</asrwt>
<pdfrwt beam="1">  1        1 0.12801150E+00 0.29302288E+04</pdfrwt>
<pdfrwt beam="2">  1       -1 0.39688745E+00 0.29302288E+04</pdfrwt>
<totfact> 0.13333965E-01</totfact>
</mgrwt>
</event>
<event>
 4    1  0.2058093E-008  0.2242010E+04  0.7816531E-02  0.8501143E-01
         -2   -1    0    0    0  501 -0.00000000000E+00  0.00000000000E+00  0.15992714935E+04  0.15992714935E+04  0.00000000000E+00 0. -1.
          2   -1    0    0  501    0  0.00000000000E+00 -0.00000000000E+00 -0.78576523325E+03  0.78576523325E+03  0.00000000000E+00 0.  1.
    2000013    1    1    2    0    0 -0.56094918175E+03 -0.10657648500E+03  0.58517079740E+03  0.12533744029E+04  0.95000000000E+03 0.  0.
   -2000013    1    1    2    0    0  0.56094918175E+03  0.10657648500E+03  0.22833546284E+03  0.11316623239E+04  0.95000000000E+03 0.  0.
<mgrwt>
<rscale>  0 0.22420098E+04</rscale>
<asrwt>0</asrwt>
<pdfrwt beam="2">  1        2 0.12088696E+00 0.22420098E+04</pdfrwt>
<pdfrwt beam="1">  1       -2 0.24604177E+00 0.22420098E+04</pdfrwt>
<totfact> 0.21838200E+00</totfact>
</mgrwt>
</event>
<event>
 4    1  0.2058093E-008  0.2164867E+04  0.7816531E-02  0.8533195E-01
         -2   -1    0    0    0  501 -0.00000000000E+00  0.00000000000E+00  0.82269109326E+03  0.82269109326E+03  0.00000000000E+00 0. -1.
          2   -1    0    0  501    0  0.00000000000E+00 -0.00000000000E+00 -0.14241823166E+04  0.14241823166E+04  0.00000000000E+00 0.  1.
    2000013    1    1    2    0    0  0.27214136659E+03  0.43928985258E+03 -0.34859640172E+03  0.11362464298E+04  0.95000000000E+03 0.  0.
   -2000013    1    1    2    0    0 -0.27214136659E+03 -0.43928985258E+03 -0.25289482163E+03  0.11106269800E+04  0.95000000000E+03 0.  0.
<mgrwt>
<rscale>  0 0.21648668E+04</rscale>
<asrwt>0</asrwt>
<pdfrwt beam="2">  1        2 0.21910497E+00 0.21648668E+04</pdfrwt>
<pdfrwt beam="1">  1       -2 0.12656786E+00 0.21648668E+04</pdfrwt>
<totfact> 0.59717886E+00</totfact>
</mgrwt>
</event>
<event>
 4    1  0.2058093E-008  0.3669614E+04  0.7816531E-02  0.8074729E-01
         -2   -1    0    0    0  501 -0.00000000000E+00  0.00000000000E+00  0.11172017062E+04  0.11172017062E+04  0.00000000000E+00 0. -1.
          2   -1    0    0  501    0  0.00000000000E+00 -0.00000000000E+00 -0.30133466921E+04  0.30133466921E+04  0.00000000000E+00 0.  1.
    2000013    1    1    2    0    0 -0.11462060495E+04 -0.10616279056E+04 -0.11194237858E+04  0.21439337047E+04  0.95000000000E+03 0.  0.
   -2000013    1    1    2    0    0  0.11462060495E+04  0.10616279056E+04 -0.77672120006E+03  0.19866146936E+04  0.95000000000E+03 0.  0.
<mgrwt>
<rscale>  0 0.36696136E+04</rscale>
<asrwt>0</asrwt>
<pdfrwt beam="2">  1        2 0.46359179E+00 0.36696136E+04</pdfrwt>
<pdfrwt beam="1">  1       -2 0.17187719E+00 0.36696136E+04</pdfrwt>
<totfact> 0.28587960E-01</totfact>
</mgrwt>
</event>
<event>
 4    1  0.2058093E-008  0.2340679E+04  0.7816531E-02  0.8462053E-01
          2   -1    0    0  501    0  0.00000000000E+00  0.00000000000E+00  0.29556548683E+04  0.29556548683E+04  0.00000000000E+00 0.  1.
         -2   -1    0    0    0  501 -0.00000000000E+00 -0.00000000000E+00 -0.46341476546E+03  0.46341476546E+03  0.00000000000E+00 0. -1.
    2000013    1    1    2    0    0 -0.52010313669E+03 -0.35439482365E+03  0.16355899586E+04  0.19934285732E+04  0.95000000000E+03 0.  0.
   -2000013    1    1    2    0    0  0.52010313669E+03  0.35439482365E+03  0.85665014414E+03  0.14256410605E+04  0.95000000000E+03 0.  0.
<mgrwt>
<rscale>  0 0.23406786E+04</rscale>
<asrwt>0</asrwt>
<pdfrwt beam="1">  1        2 0.45471612E+00 0.23406786E+04</pdfrwt>
<pdfrwt beam="2">  1       -2 0.71294581E-01 0.23406786E+04</pdfrwt>
<totfact> 0.29963240E+00</totfact>
</mgrwt>
</event>
<event>
 4    1  0.2058093E-008  0.2186220E+04  0.7816531E-02  0.8524186E-01
          2   -1    0    0  501    0  0.00000000000E+00  0.00000000000E+00  0.12471348619E+04  0.12471348619E+04  0.00000000000E+00 0.  1.
         -2   -1    0    0    0  501 -0.00000000000E+00 -0.00000000000E+00 -0.95810768257E+03  0.95810768257E+03  0.00000000000E+00 0. -1.
    2000013    1    1    2    0    0 -0.53351470793E+03  0.85894007757E+02  0.12501228386E+03  0.11000653595E+04  0.95000000000E+03 0.  0.
   -2000013    1    1    2    0    0  0.53351470793E+03 -0.85894007757E+02  0.16401489547E+03  0.11051771849E+04  0.95000000000E+03 0.  0.
<mgrwt>
<rscale>  0 0.21862200E+04</rscale>
<asrwt>0</asrwt>
<pdfrwt beam="1">  1        2 0.19186690E+00 0.21862200E+04</pdfrwt>
<pdfrwt beam="2">  1       -2 0.14740118E+00 0.21862200E+04</pdfrwt>
<totfact> 0.50995433E+00</totfact>
</mgrwt>
</event>
<event>
 4    1  0.2058093E-008  0.2839027E+04  0.7816531E-02  0.8291253E-01
          2   -1    0    0  501    0  0.00000000000E+00  0.00000000000E+00  0.19734011838E+04  0.19734011838E+04  0.00000000000E+00 0.  1.
         -2   -1    0    0    0  501 -0.00000000000E+00 -0.00000000000E+00 -0.10210894983E+04  0.10210894983E+04  0.00000000000E+00 0. -1.
    2000013    1    1    2    0    0 -0.83509669246E+03 -0.50928430545E+02  0.11536193357E+04  0.17126931314E+04  0.95000000000E+03 0.  0.
   -2000013    1    1    2    0    0  0.83509669246E+03  0.50928430545E+02 -0.20130765013E+03  0.12817975506E+04  0.95000000000E+03 0.  0.
<mgrwt>
<rscale>  0 0.28390275E+04</rscale>
<asrwt>0</asrwt>
<pdfrwt beam="1">  1        2 0.30360018E+00 0.28390275E+04</pdfrwt>
<pdfrwt beam="2">  1       -2 0.15709069E+00 0.28390275E+04</pdfrwt>
<totfact> 0.15877036E+00</totfact>
</mgrwt>
</event>
<event>
 4    1  0.2058093E-008  0.2249880E+04  0.7816531E-02  0.8497949E-01
         -2   -1    0    0    0  501 -0.00000000000E+00  0.00000000000E+00  0.16923515029E+04  0.16923515029E+04  0.00000000000E+00 0. -1.
          2   -1    0    0  501    0  0.00000000000E+00 -0.00000000000E+00 -0.74777032965E+03  0.74777032965E+03  0.00000000000E+00 0.  1.
    2000013    1    1    2    0    0  0.55257798847E+03  0.23997015581E+03  0.48083948833E+03  0.12233702312E+04  0.95000000000E+03 0.  0.
   -2000013    1    1    2    0    0 -0.55257798847E+03 -0.23997015581E+03  0.46374168488E+03  0.12167516013E+04  0.95000000000E+03 0.  0.
<mgrwt>
<rscale>  0 0.22498802E+04</rscale>
<asrwt>0</asrwt>
<pdfrwt beam="2">  1        2 0.11504159E+00 0.22498802E+04</pdfrwt>
<pdfrwt beam="1">  1       -2 0.26036177E+00 0.22498802E+04</pdfrwt>
<totfact> 0.19020848E+00</totfact>
</mgrwt>
</event>
<event>
 4    1  0.2058093E-008  0.2119007E+04  0.7816531E-02  0.8552917E-01
         -1   -1    0    0    0  501 -0.00000000000E+00  0.00000000000E+00  0.41833823416E+03  0.41833823416E+03  0.00000000000E+00 0. -1.
          1   -1    0    0  501    0  0.00000000000E+00 -0.00000000000E+00 -0.26833494376E+04  0.26833494376E+04  0.00000000000E+00 0.  1.
    2000013    1    1    2    0    0 -0.10269580417E+03  0.45276099804E+03 -0.12307917021E+04  0.16226173805E+04  0.95000000000E+03 0.  0.
   -2000013    1    1    2    0    0  0.10269580417E+03 -0.45276099804E+03 -0.10342195013E+04  0.14790702912E+04  0.95000000000E+03 0.  0.
<mgrwt>
<rscale>  0 0.21190070E+04</rscale>
<asrwt>0</asrwt>
<pdfrwt beam="2">  1        1 0.41282300E+00 0.21190070E+04</pdfrwt>
<pdfrwt beam="1">  1       -1 0.64359728E-01 0.21190070E+04</pdfrwt>
<totfact> 0.22675503E+00</totfact>
</mgrwt>
</event>
<event>
 4    1  0.2058093E-008  0.4189104E+04  0.7816531E-02  0.7967448E-01
          2   -1    0    0  501    0  0.00000000000E+00  0.00000000000E+00  0.35922334787E+04  0.35922334787E+04  0.00000000000E+00 0.  1.
         -2   -1    0    0    0  501 -0.00000000000E+00 -0.00000000000E+00 -0.12212869430E+04  0.12212869430E+04  0.00000000000E+00 0. -1.
    2000013    1    1    2    0    0  0.63217561744E+03 -0.16986716898E+04  0.16987255674E+04  0.26595676480E+04  0.95000000000E+03 0.  0.
   -2000013    1    1    2    0    0 -0.63217561744E+03  0.16986716898E+04  0.67222096837E+03  0.21539527737E+04  0.95000000000E+03 0.  0.
<mgrwt>
<rscale>  0 0.41891039E+04</rscale>
<asrwt>0</asrwt>
<pdfrwt beam="1">  1        2 0.55265130E+00 0.41891039E+04</pdfrwt>
<pdfrwt beam="2">  1       -2 0.18789030E+00 0.41891039E+04</pdfrwt>
<totfact> 0.86830767E-02</totfact>
</mgrwt>
</event>
<event>
 4    1  0.2058093E-008  0.2765059E+04  0.7816531E-02  0.8314199E-01
          2   -1    0    0  501    0  0.00000000000E+00  0.00000000000E+00  0.19198383769E+04  0.19198383769E+04  0.00000000000E+00 0.  1.
         -2   -1    0    0    0  501 -0.00000000000E+00 -0.00000000000E+00 -0.99559854750E+03  0.99559854750E+03  0.00000000000E+00 0. -1.
    2000013    1    1    2    0    0 -0.38960880486E+03  0.92573602502E+03  0.47298011026E+03  0.14611613167E+04  0.95000000000E+03 0.  0.
   -2000013    1    1    2    0    0  0.38960880486E+03 -0.92573602502E+03  0.45125971909E+03  0.14542756076E+04  0.95000000000E+03 0.  0.
<mgrwt>
<rscale>  0 0.27650593E+04</rscale>
<asrwt>0</asrwt>
<pdfrwt beam="1">  1        2 0.29535975E+00 0.27650593E+04</pdfrwt>
<pdfrwt beam="2">  1       -2 0.15316901E+00 0.27650593E+04</pdfrwt>
<totfact> 0.18310500E+00</totfact>
</mgrwt>
</event>
<event>
 4    1  0.2058093E-008  0.3477286E+04  0.7816531E-02  0.8119194E-01
          2   -1    0    0  501    0  0.00000000000E+00  0.00000000000E+00  0.37378460876E+04  0.37378460876E+04  0.00000000000E+00 0. -1.
         -2   -1    0    0    0  501 -0.00000000000E+00 -0.00000000000E+00 -0.80872230938E+03  0.80872230938E+03  0.00000000000E+00 0.  1.
    2000013    1    1    2    0    0 -0.18329915974E+03  0.74050374261E+03 -0.15718439090E+03  0.12284751961E+04  0.95000000000E+03 0.  0.
   -2000013    1    1    2    0    0  0.18329915974E+03 -0.74050374261E+03  0.30863081691E+04  0.33180932009E+04  0.95000000000E+03 0.  0.
<mgrwt>
<rscale>  0 0.34772860E+04</rscale>
<asrwt>0</asrwt>
<pdfrwt beam="1">  1        2 0.57505324E+00 0.34772860E+04</pdfrwt>
<pdfrwt beam="2">  1       -2 0.12441882E+00 0.34772860E+04</pdfrwt>
<totfact> 0.21804430E-01</totfact>
</mgrwt>
</event>
<event>
 4    1  0.2058093E-008  0.2192800E+04  0.7816531E-02  0.8521431E-01
          2   -1    0    0  501    0  0.00000000000E+00  0.00000000000E+00  0.17043901883E+04  0.17043901883E+04  0.00000000000E+00 0.  1.
         -2   -1    0    0    0  501 -0.00000000000E+00 -0.00000000000E+00 -0.70529242637E+03  0.70529242637E+03  0.00000000000E+00 0. -1.
    2000013    1    1    2    0    0  0.31383071424E+03  0.43074590708E+03  0.63663382895E+03  0.12616791929E+04  0.95000000000E+03 0.  0.
   -2000013    1    1    2    0    0 -0.31383071424E+03 -0.43074590708E+03  0.36246393299E+03  0.11480034218E+04  0.95000000000E+03 0.  0.
<mgrwt>
<rscale>  0 0.21928005E+04</rscale>
<asrwt>0</asrwt>
<pdfrwt beam="1">  1        2 0.26221388E+00 0.21928005E+04</pdfrwt>
<pdfrwt beam="2">  1       -2 0.10850653E+00 0.21928005E+04</pdfrwt>
<totfact> 0.60574772E+00</totfact>
</mgrwt>
</event>
<event>
 4    1  0.2058093E-008  0.3411271E+04  0.7816531E-02  0.8135145E-01
         -2   -1    0    0    0  501 -0.00000000000E+00  0.00000000000E+00  0.13101723759E+04  0.13101723759E+04  0.00000000000E+00 0. -1.
          2   -1    0    0  501    0  0.00000000000E+00 -0.00000000000E+00 -0.22204660612E+04  0.22204660612E+04  0.00000000000E+00 0.  1.
    2000013    1    1    2    0    0  0.53462491856E+03  0.69695816104E+03  0.69510073878E+03  0.14687544107E+04  0.95000000000E+03 0.  0.
   -2000013    1    1    2    0    0 -0.53462491856E+03 -0.69695816104E+03 -0.16053944241E+04  0.20618840265E+04  0.95000000000E+03 0.  0.
<mgrwt>
<rscale>  0 0.34112715E+04</rscale>
<asrwt>0</asrwt>
<pdfrwt beam="2">  1        2 0.34161016E+00 0.34112715E+04</pdfrwt>
<pdfrwt beam="1">  1       -2 0.20156498E+00 0.34112715E+04</pdfrwt>
<totfact> 0.54061909E-01</totfact>
</mgrwt>
</event>
<event>
 4    1  0.2058093E-008  0.2749793E+04  0.7816531E-02  0.8319027E-01
          1   -1    0    0  501    0  0.00000000000E+00  0.00000000000E+00  0.18895680379E+04  0.18895680379E+04  0.00000000000E+00 0.  1.
         -1   -1    0    0    0  501 -0.00000000000E+00 -0.00000000000E+00 -0.10004089585E+04  0.10004089585E+04  0.00000000000E+00 0. -1.
    2000013    1    1    2    0    0  0.83307119001E+03 -0.81497424125E+01 -0.12505415261E+03  0.12697293282E+04  0.95000000000E+03 0.  0.
   -2000013    1    1    2    0    0 -0.83307119001E+03  0.81497424125E+01  0.10142132321E+04  0.16202476681E+04  0.95000000000E+03 0.  0.
<mgrwt>
<rscale>  0 0.27497933E+04</rscale>
<asrwt>0</asrwt>
<pdfrwt beam="1">  1        1 0.29070277E+00 0.27497933E+04</pdfrwt>
<pdfrwt beam="2">  1       -1 0.15390907E+00 0.27497933E+04</pdfrwt>
<totfact> 0.10017341E+00</totfact>
</mgrwt>
</event>
<event>
 4    1  0.2058093E-008  0.3513735E+04  0.7816531E-02  0.8110543E-01
         -2   -1    0    0    0  501 -0.00000000000E+00  0.00000000000E+00  0.23652572849E+04  0.23652572849E+04  0.00000000000E+00 0. -1.
          2   -1    0    0  501    0  0.00000000000E+00 -0.00000000000E+00 -0.13049670728E+04  0.13049670728E+04  0.00000000000E+00 0.  1.
    2000013    1    1    2    0    0 -0.24384078580E+03  0.13773974774E+04  0.32041622347E+02  0.16912151859E+04  0.95000000000E+03 0.  0.
   -2000013    1    1    2    0    0  0.24384078580E+03 -0.13773974774E+04  0.10282485898E+04  0.19790091717E+04  0.95000000000E+03 0.  0.
<mgrwt>
<rscale>  0 0.35137347E+04</rscale>
<asrwt>0</asrwt>
<pdfrwt beam="2">  1        2 0.20076417E+00 0.35137347E+04</pdfrwt>
<pdfrwt beam="1">  1       -2 0.36388573E+00 0.35137347E+04</pdfrwt>
<totfact> 0.17112358E-01</totfact>
</mgrwt>
</event>
<event>
 4    1  0.2058093E-008  0.2426124E+04  0.7816531E-02  0.8429787E-01
          2   -1    0    0  501    0  0.00000000000E+00  0.00000000000E+00  0.11976149069E+04  0.11976149069E+04  0.00000000000E+00 0.  1.
         -2   -1    0    0    0  501 -0.00000000000E+00 -0.00000000000E+00 -0.12287084227E+04  0.12287084227E+04  0.00000000000E+00 0. -1.
    2000013    1    1    2    0    0 -0.19679960860E+03 -0.72820525751E+03 -0.18104372751E+02  0.12131944409E+04  0.95000000000E+03 0.  0.
   -2000013    1    1    2    0    0  0.19679960860E+03  0.72820525751E+03 -0.12989143027E+02  0.12131288888E+04  0.95000000000E+03 0.  0.
<mgrwt>
<rscale>  0 0.24261241E+04</rscale>
<asrwt>0</asrwt>
<pdfrwt beam="1">  1        2 0.18424845E+00 0.24261241E+04</pdfrwt>
<pdfrwt beam="2">  1       -2 0.18903207E+00 0.24261241E+04</pdfrwt>
<totfact> 0.26828963E+00</totfact>
</mgrwt>
</event>
<event>
 4    1  0.2058093E-008  0.3018569E+04  0.7816531E-02  0.8238448E-01
          2   -1    0    0  501    0  0.00000000000E+00  0.00000000000E+00  0.13351000694E+04  0.13351000694E+04  0.00000000000E+00 0.  1.
         -2   -1    0    0    0  501 -0.00000000000E+00 -0.00000000000E+00 -0.17061940781E+04  0.17061940781E+04  0.00000000000E+00 0. -1.
    2000013    1    1    2    0    0 -0.11696552523E+03  0.11625353548E+04 -0.28765317238E+03  0.15331059105E+04  0.95000000000E+03 0.  0.
   -2000013    1    1    2    0    0  0.11696552523E+03 -0.11625353548E+04 -0.83440836352E+02  0.15081882370E+04  0.95000000000E+03 0.  0.
<mgrwt>
<rscale>  0 0.30185691E+04</rscale>
<asrwt>0</asrwt>
<pdfrwt beam="1">  1        2 0.20540001E+00 0.30185691E+04</pdfrwt>
<pdfrwt beam="2">  1       -2 0.26249140E+00 0.30185691E+04</pdfrwt>
<totfact> 0.72617885E-01</totfact>
</mgrwt>
</event>
<event>
 4    1  0.2058093E-008  0.2164836E+04  0.7816531E-02  0.8533208E-01
         -1   -1    0    0    0  501 -0.00000000000E+00  0.00000000000E+00  0.89920656226E+03  0.89920656226E+03  0.00000000000E+00 0. -1.
          1   -1    0    0  501    0  0.00000000000E+00 -0.00000000000E+00 -0.13029582299E+04  0.13029582299E+04  0.00000000000E+00 0.  1.
    2000013    1    1    2    0    0  0.29092195939E+03  0.47751490988E+02  0.23234862132E+03  0.10214703487E+04  0.95000000000E+03 0.  0.
   -2000013    1    1    2    0    0 -0.29092195939E+03 -0.47751490988E+02 -0.63610028897E+03  0.11806944435E+04  0.95000000000E+03 0.  0.
<mgrwt>
<rscale>  0 0.21648359E+04</rscale>
<asrwt>0</asrwt>
<pdfrwt beam="2">  1        1 0.20045511E+00 0.21648359E+04</pdfrwt>
<pdfrwt beam="1">  1       -1 0.13833947E+00 0.21648359E+04</pdfrwt>
<totfact> 0.35601113E+00</totfact>
</mgrwt>
</event>
<event>
 4    1  0.2058093E-008  0.2146863E+04  0.7816531E-02  0.8540876E-01
          2   -1    0    0  501    0  0.00000000000E+00  0.00000000000E+00  0.28829423957E+03  0.28829423957E+03  0.00000000000E+00 0.  1.
         -2   -1    0    0    0  501 -0.00000000000E+00 -0.00000000000E+00 -0.39968008096E+04  0.39968008096E+04  0.00000000000E+00 0. -1.
    2000013    1    1    2    0    0 -0.13427612238E+03  0.46843461108E+03 -0.20755604937E+04  0.23340763537E+04  0.95000000000E+03 0.  0.
   -2000013    1    1    2    0    0  0.13427612238E+03 -0.46843461108E+03 -0.16329460763E+04  0.19510186955E+04  0.95000000000E+03 0.  0.
<mgrwt>
<rscale>  0 0.21468625E+04</rscale>
<asrwt>0</asrwt>
<pdfrwt beam="1">  1        2 0.44352963E-01 0.21468625E+04</pdfrwt>
<pdfrwt beam="2">  1       -2 0.61489238E+00 0.21468625E+04</pdfrwt>
<totfact> 0.45977198E-02</totfact>
</mgrwt>
</event>
<event>
 4    1  0.2058093E-008  0.3506163E+04  0.7816531E-02  0.8112331E-01
          2   -1    0    0  501    0  0.00000000000E+00  0.00000000000E+00  0.21312767388E+04  0.21312767388E+04  0.00000000000E+00 0.  1.
         -2   -1    0    0    0  501 -0.00000000000E+00 -0.00000000000E+00 -0.14419969478E+04  0.14419969478E+04  0.00000000000E+00 0. -1.
    2000013    1    1    2    0    0  0.93553721336E+03 -0.39188062961E+03  0.14337358643E+04  0.19967220222E+04  0.95000000000E+03 0.  0.
   -2000013    1    1    2    0    0 -0.93553721336E+03  0.39188062961E+03 -0.74445607333E+03  0.15765516644E+04  0.95000000000E+03 0.  0.
<mgrwt>
<rscale>  0 0.35061629E+04</rscale>
<asrwt>0</asrwt>
<pdfrwt beam="1">  1        2 0.32788873E+00 0.35061629E+04</pdfrwt>
<pdfrwt beam="2">  1       -2 0.22184568E+00 0.35061629E+04</pdfrwt>
<totfact> 0.44598033E-01</totfact>
</mgrwt>
</event>
<event>
 4    1  0.2058093E-008  0.2214063E+04  0.7816531E-02  0.8512598E-01
          2   -1    0    0  501    0  0.00000000000E+00  0.00000000000E+00  0.81181511809E+03  0.81181511809E+03  0.00000000000E+00 0.  1.
         -2   -1    0    0    0  501 -0.00000000000E+00 -0.00000000000E+00 -0.15096026700E+04  0.15096026700E+04  0.00000000000E+00 0. -1.
    2000013    1    1    2    0    0  0.89497518484E+02  0.47428859295E+03 -0.66354286747E+03  0.12552882586E+04  0.95000000000E+03 0.  0.
   -2000013    1    1    2    0    0 -0.89497518484E+02 -0.47428859295E+03 -0.34244684442E+02  0.10661295295E+04  0.95000000000E+03 0.  0.
<mgrwt>
<rscale>  0 0.22140626E+04</rscale>
<asrwt>0</asrwt>
<pdfrwt beam="1">  1        2 0.12489463E+00 0.22140626E+04</pdfrwt>
<pdfrwt beam="2">  1       -2 0.23224656E+00 0.22140626E+04</pdfrwt>
<totfact> 0.25518714E+00</totfact>
</mgrwt>
</event>
<event>
 4    1  0.2058093E-008  0.2522069E+04  0.7816531E-02  0.8395165E-01
         -2   -1    0    0    0  501 -0.00000000000E+00  0.00000000000E+00  0.11516253349E+04  0.11516253349E+04  0.00000000000E+00 0. -1.
          2   -1    0    0  501    0  0.00000000000E+00 -0.00000000000E+00 -0.13808375862E+04  0.13808375862E+04  0.00000000000E+00 0.  1.
    2000013    1    1    2    0    0 -0.78094299542E+03  0.25403456920E+03  0.12036029708E+01  0.12557495662E+04  0.95000000000E+03 0.  0.
   -2000013    1    1    2    0    0  0.78094299542E+03 -0.25403456920E+03 -0.23041585425E+03  0.12767133548E+04  0.95000000000E+03 0.  0.
<mgrwt>
<rscale>  0 0.25220686E+04</rscale>
<asrwt>0</asrwt>
<pdfrwt beam="2">  1        2 0.21243655E+00 0.25220686E+04</pdfrwt>
<pdfrwt beam="1">  1       -2 0.17717313E+00 0.25220686E+04</pdfrwt>
<totfact> 0.25069806E+00</totfact>
</mgrwt>
</event>
<event>
 4    1  0.2058093E-008  0.2332762E+04  0.7816531E-02  0.8465114E-01
          2   -1    0    0  501    0  0.00000000000E+00  0.00000000000E+00  0.86581508507E+03  0.86581508507E+03  0.00000000000E+00 0.  1.
         -2   -1    0    0    0  501 -0.00000000000E+00 -0.00000000000E+00 -0.15712883022E+04  0.15712883022E+04  0.00000000000E+00 0. -1.
    2000013    1    1    2    0    0  0.15806237294E+03 -0.45290507098E+03  0.14593759645E+03  0.10741994690E+04  0.95000000000E+03 0.  0.
   -2000013    1    1    2    0    0 -0.15806237294E+03  0.45290507098E+03 -0.85141081356E+03  0.13629039183E+04  0.95000000000E+03 0.  0.
<mgrwt>
<rscale>  0 0.23327624E+04</rscale>
<asrwt>0</asrwt>
<pdfrwt beam="1">  1        2 0.13320232E+00 0.23327624E+04</pdfrwt>
<pdfrwt beam="2">  1       -2 0.24173666E+00 0.23327624E+04</pdfrwt>
<totfact> 0.20215403E+00</totfact>
</mgrwt>
</event>
<event>
 4    1  0.2058093E-008  0.2390355E+04  0.7816531E-02  0.8443123E-01
         -2   -1    0    0    0  501 -0.00000000000E+00  0.00000000000E+00  0.37729606727E+03  0.37729606727E+03  0.00000000000E+00 0. -1.
          2   -1    0    0  501    0  0.00000000000E+00 -0.00000000000E+00 -0.37860176793E+04  0.37860176793E+04  0.00000000000E+00 0.  1.
    2000013    1    1    2    0    0 -0.36399288543E+03 -0.60709374041E+03 -0.14295454194E+04  0.18566512156E+04  0.95000000000E+03 0.  0.
   -2000013    1    1    2    0    0  0.36399288543E+03  0.60709374041E+03 -0.19791761926E+04  0.23066625310E+04  0.95000000000E+03 0.  0.
<mgrwt>
<rscale>  0 0.23903553E+04</rscale>
<asrwt>0</asrwt>
<pdfrwt beam="2">  1        2 0.58246427E+00 0.23903553E+04</pdfrwt>
<pdfrwt beam="1">  1       -2 0.58045547E-01 0.23903553E+04</pdfrwt>
<totfact> 0.12622513E+00</totfact>
</mgrwt>
</event>
<event>
 4    1  0.2058093E-008  0.2348610E+04  0.7816531E-02  0.8458998E-01
         -2   -1    0    0    0  501 -0.00000000000E+00  0.00000000000E+00  0.36329957924E+03  0.36329957924E+03  0.00000000000E+00 0. -1.
          2   -1    0    0  501    0  0.00000000000E+00 -0.00000000000E+00 -0.37957443401E+04  0.37957443401E+04  0.00000000000E+00 0.  1.
    2000013    1    1    2    0    0 -0.33282921301E+03  0.58591924121E+03 -0.14510925830E+04  0.18607112421E+04  0.95000000000E+03 0.  0.
   -2000013    1    1    2    0    0  0.33282921301E+03 -0.58591924121E+03 -0.19813521779E+04  0.22983326772E+04  0.95000000000E+03 0.  0.
<mgrwt>
<rscale>  0 0.23486101E+04</rscale>
<asrwt>0</asrwt>
<pdfrwt beam="2">  1        2 0.58396070E+00 0.23486101E+04</pdfrwt>
<pdfrwt beam="1">  1       -2 0.55892240E-01 0.23486101E+04</pdfrwt>
<totfact> 0.13485204E+00</totfact>
</mgrwt>
</event>
<event>
 4    1  0.2058093E-008  0.2715380E+04  0.7816531E-02  0.8330032E-01
         -2   -1    0    0    0  501 -0.00000000000E+00  0.00000000000E+00  0.10426658740E+04  0.10426658740E+04  0.00000000000E+00 0. -1.
          2   -1    0    0  501    0  0.00000000000E+00 -0.00000000000E+00 -0.17678935373E+04  0.17678935373E+04  0.00000000000E+00 0.  1.
    2000013    1    1    2    0    0 -0.67249762854E+03  0.58485372680E+03  0.33576302642E+02  0.13030480844E+04  0.95000000000E+03 0.  0.
   -2000013    1    1    2    0    0  0.67249762854E+03 -0.58485372680E+03 -0.75880396588E+03  0.15075113269E+04  0.95000000000E+03 0.  0.
<mgrwt>
<rscale>  0 0.27153801E+04</rscale>
<asrwt>0</asrwt>
<pdfrwt beam="2">  1        2 0.27198362E+00 0.27153801E+04</pdfrwt>
<pdfrwt beam="1">  1       -2 0.16041014E+00 0.27153801E+04</pdfrwt>
<totfact> 0.19707436E+00</totfact>
</mgrwt>
</event>
<event>
 4    1  0.2058093E-008  0.2456190E+04  0.7816531E-02  0.8418761E-01
          2   -1    0    0  501    0  0.00000000000E+00  0.00000000000E+00  0.24702040446E+04  0.24702040446E+04  0.00000000000E+00 0.  1.
         -2   -1    0    0    0  501 -0.00000000000E+00 -0.00000000000E+00 -0.61056401679E+03  0.61056401679E+03  0.00000000000E+00 0. -1.
    2000013    1    1    2    0    0 -0.62202293762E+03 -0.38134177387E+03  0.59004099558E+03  0.13352836627E+04  0.95000000000E+03 0.  0.
   -2000013    1    1    2    0    0  0.62202293762E+03  0.38134177387E+03  0.12695990322E+04  0.17454843987E+04  0.95000000000E+03 0.  0.
<mgrwt>
<rscale>  0 0.24561903E+04</rscale>
<asrwt>0</asrwt>
<pdfrwt beam="1">  1        2 0.38003139E+00 0.24561903E+04</pdfrwt>
<pdfrwt beam="2">  1       -2 0.93932927E-01 0.24561903E+04</pdfrwt>
<totfact> 0.31020961E+00</totfact>
</mgrwt>
</event>
<event>
 4    1  0.2058093E-008  0.2869842E+04  0.7816531E-02  0.8281907E-01
          4   -1    0    0  501    0  0.00000000000E+00  0.00000000000E+00  0.19973374114E+04  0.19973374114E+04  0.00000000000E+00 0.  1.
         -4   -1    0    0    0  501 -0.00000000000E+00 -0.00000000000E+00 -0.10308718252E+04  0.10308718252E+04  0.00000000000E+00 0. -1.
    2000013    1    1    2    0    0  0.77970565663E+03  0.73790726044E+03  0.41607449727E+03  0.14926707685E+04  0.95000000000E+03 0.  0.
   -2000013    1    1    2    0    0 -0.77970565663E+03 -0.73790726044E+03  0.55039108901E+03  0.15355384680E+04  0.95000000000E+03 0.  0.
<mgrwt>
<rscale>  0 0.28698424E+04</rscale>
<asrwt>0</asrwt>
<pdfrwt beam="1">  1        4 0.30728268E+00 0.28698424E+04</pdfrwt>
<pdfrwt beam="2">  1       -4 0.15859567E+00 0.28698424E+04</pdfrwt>
<totfact> 0.12257692E-02</totfact>
</mgrwt>
</event>
<event>
 4    1  0.2058093E-008  0.2283350E+04  0.7816531E-02  0.8484515E-01
         -2   -1    0    0    0  501 -0.00000000000E+00  0.00000000000E+00  0.68831097741E+03  0.68831097741E+03  0.00000000000E+00 0. -1.
          2   -1    0    0  501    0  0.00000000000E+00 -0.00000000000E+00 -0.18936518518E+04  0.18936518518E+04  0.00000000000E+00 0.  1.
    2000013    1    1    2    0    0 -0.44776753174E+03  0.42732596440E+03 -0.45172901133E+03  0.12205172436E+04  0.95000000000E+03 0.  0.
   -2000013    1    1    2    0    0  0.44776753174E+03 -0.42732596440E+03 -0.75361186306E+03  0.13614455856E+04  0.95000000000E+03 0.  0.
<mgrwt>
<rscale>  0 0.22833496E+04</rscale>
<asrwt>0</asrwt>
<pdfrwt beam="2">  1        2 0.29133105E+00 0.22833496E+04</pdfrwt>
<pdfrwt beam="1">  1       -2 0.10589400E+00 0.22833496E+04</pdfrwt>
<totfact> 0.50055782E+00</totfact>
</mgrwt>
</event>
<event>
 4    1  0.2058093E-008  0.2870348E+04  0.7816531E-02  0.8281755E-01
          2   -1    0    0  501    0  0.00000000000E+00  0.00000000000E+00  0.81443099696E+03  0.81443099696E+03  0.00000000000E+00 0.  1.
         -2   -1    0    0    0  501 -0.00000000000E+00 -0.00000000000E+00 -0.25290341598E+04  0.25290341598E+04  0.00000000000E+00 0. -1.
    2000013    1    1    2    0    0 -0.96993386318E+03  0.63874783867E+02 -0.13940998019E+04  0.19470146237E+04  0.95000000000E+03 0.  0.
   -2000013    1    1    2    0    0  0.96993386318E+03 -0.63874783867E+02 -0.32050336086E+03  0.13964505331E+04  0.95000000000E+03 0.  0.
<mgrwt>
<rscale>  0 0.28703476E+04</rscale>
<asrwt>0</asrwt>
<pdfrwt beam="1">  1        2 0.12529708E+00 0.28703476E+04</pdfrwt>
<pdfrwt beam="2">  1       -2 0.38908218E+00 0.28703476E+04</pdfrwt>
<totfact> 0.25432552E-01</totfact>
</mgrwt>
</event>
<event>
 4    1  0.2058093E-008  0.3174471E+04  0.7816531E-02  0.8195592E-01
          2   -1    0    0  501    0  0.00000000000E+00  0.00000000000E+00  0.31045212377E+04  0.31045212377E+04  0.00000000000E+00 0.  1.
         -2   -1    0    0    0  501 -0.00000000000E+00 -0.00000000000E+00 -0.81149900807E+03  0.81149900807E+03  0.00000000000E+00 0. -1.
    2000013    1    1    2    0    0 -0.10766380740E+04 -0.41130549883E+03  0.48392531597E+03  0.15700335879E+04  0.95000000000E+03 0.  0.
   -2000013    1    1    2    0    0  0.10766380740E+04  0.41130549883E+03  0.18090969136E+04  0.23459866578E+04  0.95000000000E+03 0.  0.
<mgrwt>
<rscale>  0 0.31744706E+04</rscale>
<asrwt>0</asrwt>
<pdfrwt beam="1">  1        2 0.47761865E+00 0.31744706E+04</pdfrwt>
<pdfrwt beam="2">  1       -2 0.12484600E+00 0.31744706E+04</pdfrwt>
<totfact> 0.60620232E-01</totfact>
</mgrwt>
</event>
<event>
 4    1  0.2058093E-008  0.2453835E+04  0.7816531E-02  0.8419619E-01
         -2   -1    0    0    0  501 -0.00000000000E+00  0.00000000000E+00  0.97661579951E+03  0.97661579951E+03  0.00000000000E+00 0. -1.
          2   -1    0    0  501    0  0.00000000000E+00 -0.00000000000E+00 -0.15413708798E+04  0.15413708798E+04  0.00000000000E+00 0.  1.
    2000013    1    1    2    0    0 -0.16114778558E+03 -0.69998775254E+03  0.20074920488E+02  0.11911567760E+04  0.95000000000E+03 0.  0.
   -2000013    1    1    2    0    0  0.16114778558E+03  0.69998775254E+03 -0.58483000073E+03  0.13268299033E+04  0.95000000000E+03 0.  0.
<mgrwt>
<rscale>  0 0.24538355E+04</rscale>
<asrwt>0</asrwt>
<pdfrwt beam="2">  1        2 0.23713398E+00 0.24538355E+04</pdfrwt>
<pdfrwt beam="1">  1       -2 0.15024859E+00 0.24538355E+04</pdfrwt>
<totfact> 0.32132589E+00</totfact>
</mgrwt>
</event>
<event>
 4    1  0.2058093E-008  0.2037257E+04  0.7816531E-02  0.8589397E-01
          2   -1    0    0  501    0  0.00000000000E+00  0.00000000000E+00  0.26125337216E+04  0.26125337216E+04  0.00000000000E+00 0.  1.
         -2   -1    0    0    0  501 -0.00000000000E+00 -0.00000000000E+00 -0.39716395373E+03  0.39716395373E+03  0.00000000000E+00 0. -1.
    2000013    1    1    2    0    0  0.31164465511E+03 -0.19380109402E+03  0.11380678562E+04  0.15272130501E+04  0.95000000000E+03 0.  0.
   -2000013    1    1    2    0    0 -0.31164465511E+03  0.19380109402E+03  0.10773019117E+04  0.14824846252E+04  0.95000000000E+03 0.  0.
<mgrwt>
<rscale>  0 0.20372572E+04</rscale>
<asrwt>0</asrwt>
<pdfrwt beam="1">  1        2 0.40192826E+00 0.20372572E+04</pdfrwt>
<pdfrwt beam="2">  1       -2 0.61102148E-01 0.20372572E+04</pdfrwt>
<totfact> 0.69109590E+00</totfact>
</mgrwt>
</event>
<event>
 4    1  0.2058093E-008  0.2684505E+04  0.7816531E-02  0.8340050E-01
          2   -1    0    0  501    0  0.00000000000E+00  0.00000000000E+00  0.22191444596E+04  0.22191444596E+04  0.00000000000E+00 0.  1.
         -2   -1    0    0    0  501 -0.00000000000E+00 -0.00000000000E+00 -0.81186317619E+03  0.81186317619E+03  0.00000000000E+00 0. -1.
    2000013    1    1    2    0    0 -0.13775125376E+03 -0.81918265344E+03  0.12199453868E+04  0.17552214602E+04  0.95000000000E+03 0.  0.
   -2000013    1    1    2    0    0  0.13775125376E+03  0.81918265344E+03  0.18733589662E+03  0.12757861756E+04  0.95000000000E+03 0.  0.
<mgrwt>
<rscale>  0 0.26845049E+04</rscale>
<asrwt>0</asrwt>
<pdfrwt beam="1">  1        2 0.34140684E+00 0.26845049E+04</pdfrwt>
<pdfrwt beam="2">  1       -2 0.12490203E+00 0.26845049E+04</pdfrwt>
<totfact> 0.21255364E+00</totfact>
</mgrwt>
</event>
<event>
 4    1  0.2058093E-008  0.2322817E+04  0.7816531E-02  0.8468979E-01
         -2   -1    0    0    0  501 -0.00000000000E+00  0.00000000000E+00  0.90695168209E+03  0.90695168209E+03  0.00000000000E+00 0. -1.
          2   -1    0    0  501    0  0.00000000000E+00 -0.00000000000E+00 -0.14872560095E+04  0.14872560095E+04  0.00000000000E+00 0.  1.
    2000013    1    1    2    0    0  0.53385515395E+03  0.37445961345E+03 -0.14025905769E+03  0.11607729885E+04  0.95000000000E+03 0.  0.
   -2000013    1    1    2    0    0 -0.53385515395E+03 -0.37445961345E+03 -0.44004526976E+03  0.12334347032E+04  0.95000000000E+03 0.  0.
<mgrwt>
<rscale>  0 0.23228167E+04</rscale>
<asrwt>0</asrwt>
<pdfrwt beam="2">  1        2 0.22880862E+00 0.23228167E+04</pdfrwt>
<pdfrwt beam="1">  1       -2 0.13953103E+00 0.23228167E+04</pdfrwt>
<totfact> 0.42322234E+00</totfact>
</mgrwt>
</event>
<event>
 4    1  0.2058093E-008  0.2864280E+04  0.7816531E-02  0.8283585E-01
         -2   -1    0    0    0  501 -0.00000000000E+00  0.00000000000E+00  0.76015710497E+03  0.76015710497E+03  0.00000000000E+00 0. -1.
          2   -1    0    0  501    0  0.00000000000E+00 -0.00000000000E+00 -0.26981587110E+04  0.26981587110E+04  0.00000000000E+00 0.  1.
    2000013    1    1    2    0    0 -0.67804829794E+03 -0.59930610698E+03 -0.16621832891E+04  0.21176096408E+04  0.95000000000E+03 0.  0.
   -2000013    1    1    2    0    0  0.67804829794E+03  0.59930610698E+03 -0.27581831694E+03  0.13407061752E+04  0.95000000000E+03 0.  0.
<mgrwt>
<rscale>  0 0.28642797E+04</rscale>
<asrwt>0</asrwt>
<pdfrwt beam="2">  1        2 0.41510134E+00 0.28642797E+04</pdfrwt>
<pdfrwt beam="1">  1       -2 0.11694725E+00 0.28642797E+04</pdfrwt>
<totfact> 0.13036211E+00</totfact>
</mgrwt>
</event>
<event>
 4    1  0.2058093E-008  0.2627888E+04  0.7816531E-02  0.8358790E-01
          2   -1    0    0  501    0  0.00000000000E+00  0.00000000000E+00  0.41100367707E+04  0.41100367707E+04  0.00000000000E+00 0.  1.
         -2   -1    0    0    0  501 -0.00000000000E+00 -0.00000000000E+00 -0.42005670231E+03  0.42005670231E+03  0.00000000000E+00 0. -1.
    2000013    1    1    2    0    0  0.88080393254E+03 -0.11788663758E+03  0.15260274501E+04  0.20052362967E+04  0.95000000000E+03 0.  0.
   -2000013    1    1    2    0    0 -0.88080393254E+03  0.11788663758E+03  0.21639526182E+04  0.25248571763E+04  0.95000000000E+03 0.  0.
<mgrwt>
<rscale>  0 0.26278877E+04</rscale>
<asrwt>0</asrwt>
<pdfrwt beam="1">  1        2 0.63231332E+00 0.26278877E+04</pdfrwt>
<pdfrwt beam="2">  1       -2 0.64624111E-01 0.26278877E+04</pdfrwt>
<totfact> 0.54284489E-01</totfact>
</mgrwt>
</event>
<event>
 4    1  0.2058093E-008  0.2416502E+04  0.7816531E-02  0.8433351E-01
         -1   -1    0    0    0  501 -0.00000000000E+00  0.00000000000E+00  0.13686813446E+04  0.13686813446E+04  0.00000000000E+00 0.  1.
          1   -1    0    0  501    0  0.00000000000E+00 -0.00000000000E+00 -0.10666255138E+04  0.10666255138E+04  0.00000000000E+00 0. -1.
    2000013    1    1    2    0    0  0.50614544886E+03  0.54290067451E+03  0.23194021391E+03  0.12276891384E+04  0.95000000000E+03 0.  0.
   -2000013    1    1    2    0    0 -0.50614544886E+03 -0.54290067451E+03  0.70115616885E+02  0.12076177199E+04  0.95000000000E+03 0.  0.
<mgrwt>
<rscale>  0 0.24165020E+04</rscale>
<asrwt>0</asrwt>
<pdfrwt beam="2">  1        1 0.16409623E+00 0.24165020E+04</pdfrwt>
<pdfrwt beam="1">  1       -1 0.21056636E+00 0.24165020E+04</pdfrwt>
<totfact> 0.15324504E+00</totfact>
</mgrwt>
</event>
<event>
 4    1  0.2058093E-008  0.2153971E+04  0.7816531E-02  0.8537835E-01
         -2   -1    0    0    0  501 -0.00000000000E+00  0.00000000000E+00  0.39578271279E+03  0.39578271279E+03  0.00000000000E+00 0. -1.
          2   -1    0    0  501    0  0.00000000000E+00 -0.00000000000E+00 -0.29306418343E+04  0.29306418343E+04  0.00000000000E+00 0.  1.
    2000013    1    1    2    0    0  0.32976561145E+03  0.38498532109E+03 -0.12997616126E+04  0.16878504986E+04  0.95000000000E+03 0.  0.
   -2000013    1    1    2    0    0 -0.32976561145E+03 -0.38498532109E+03 -0.12350975089E+04  0.16385740485E+04  0.95000000000E+03 0.  0.
<mgrwt>
<rscale>  0 0.21539706E+04</rscale>
<asrwt>0</asrwt>
<pdfrwt beam="2">  1        2 0.45086796E+00 0.21539706E+04</pdfrwt>
<pdfrwt beam="1">  1       -2 0.60889649E-01 0.21539706E+04</pdfrwt>
<totfact> 0.44355187E+00</totfact>
</mgrwt>
</event>
<event>
 4    1  0.2058093E-008  0.2318995E+04  0.7816531E-02  0.8470469E-01
         -2   -1    0    0    0  501 -0.00000000000E+00  0.00000000000E+00  0.48300487259E+03  0.48300487259E+03  0.00000000000E+00 0. -1.
          2   -1    0    0  501    0  0.00000000000E+00 -0.00000000000E+00 -0.27834791279E+04  0.27834791279E+04  0.00000000000E+00 0.  1.
    2000013    1    1    2    0    0  0.40654965274E+03 -0.47939924519E+03 -0.14550493163E+04  0.18479109203E+04  0.95000000000E+03 0.  0.
   -2000013    1    1    2    0    0 -0.40654965274E+03  0.47939924519E+03 -0.84542493904E+03  0.14185730802E+04  0.95000000000E+03 0.  0.
<mgrwt>
<rscale>  0 0.23189946E+04</rscale>
<asrwt>0</asrwt>
<pdfrwt beam="2">  1        2 0.42822756E+00 0.23189946E+04</pdfrwt>
<pdfrwt beam="1">  1       -2 0.74308441E-01 0.23189946E+04</pdfrwt>
<totfact> 0.34922494E+00</totfact>
</mgrwt>
</event>
<event>
 4    1  0.2058093E-008  0.2207805E+04  0.7816531E-02  0.8515187E-01
         -2   -1    0    0    0  501 -0.00000000000E+00  0.00000000000E+00  0.98422968051E+03  0.98422968051E+03  0.00000000000E+00 0. -1.
          2   -1    0    0  501    0  0.00000000000E+00 -0.00000000000E+00 -0.12381260158E+04  0.12381260158E+04  0.00000000000E+00 0.  1.
    2000013    1    1    2    0    0 -0.41394200645E+03  0.96498647191E+02 -0.49739598000E+03  0.11535002100E+04  0.95000000000E+03 0.  0.
   -2000013    1    1    2    0    0  0.41394200645E+03 -0.96498647191E+02  0.24349964469E+03  0.10688554863E+04  0.95000000000E+03 0.  0.
<mgrwt>
<rscale>  0 0.22078047E+04</rscale>
<asrwt>0</asrwt>
<pdfrwt beam="2">  1        2 0.19048092E+00 0.22078047E+04</pdfrwt>
<pdfrwt beam="1">  1       -2 0.15141995E+00 0.22078047E+04</pdfrwt>
<totfact> 0.47986742E+00</totfact>
</mgrwt>
</event>
<event>
 4    1  0.2058093E-008  0.2694385E+04  0.7816531E-02  0.8336829E-01
         -4   -1    0    0    0  501 -0.00000000000E+00  0.00000000000E+00  0.12164204314E+04  0.12164204314E+04  0.00000000000E+00 0. -1.
          4   -1    0    0  501    0  0.00000000000E+00 -0.00000000000E+00 -0.14920228764E+04  0.14920228764E+04  0.00000000000E+00 0.  1.
    2000013    1    1    2    0    0 -0.84830998445E+03 -0.60894448065E+02 -0.57491395964E+03  0.13987008345E+04  0.95000000000E+03 0.  0.
   -2000013    1    1    2    0    0  0.84830998445E+03  0.60894448065E+02  0.29931151470E+03  0.13097424733E+04  0.95000000000E+03 0.  0.
<mgrwt>
<rscale>  0 0.26943846E+04</rscale>
<asrwt>0</asrwt>
<pdfrwt beam="2">  1        4 0.22954198E+00 0.26943846E+04</pdfrwt>
<pdfrwt beam="1">  1       -4 0.18714160E+00 0.26943846E+04</pdfrwt>
<totfact> 0.23799792E-02</totfact>
</mgrwt>
</event>
<event>
 4    1  0.2058093E-008  0.2856397E+04  0.7816531E-02  0.8285970E-01
          2   -1    0    0  501    0  0.00000000000E+00  0.00000000000E+00  0.48580091929E+04  0.48580091929E+04  0.00000000000E+00 0.  1.
         -2   -1    0    0    0  501 -0.00000000000E+00 -0.00000000000E+00 -0.41987375770E+03  0.41987375770E+03  0.00000000000E+00 0. -1.
    2000013    1    1    2    0    0 -0.80317314885E+03 -0.69861173614E+03  0.21006808255E+04  0.25393907528E+04  0.95000000000E+03 0.  0.
   -2000013    1    1    2    0    0  0.80317314885E+03  0.69861173614E+03  0.23374546097E+04  0.27384921978E+04  0.95000000000E+03 0.  0.
<mgrwt>
<rscale>  0 0.28563967E+04</rscale>
<asrwt>0</asrwt>
<pdfrwt beam="1">  1        2 0.74738599E+00 0.28563967E+04</pdfrwt>
<pdfrwt beam="2">  1       -2 0.64595966E-01 0.28563967E+04</pdfrwt>
<totfact> 0.98002577E-02</totfact>
</mgrwt>
</event>
<event>
 4    1  0.2058093E-008  0.2838636E+04  0.7816531E-02  0.8291373E-01
          2   -1    0    0  501    0  0.00000000000E+00  0.00000000000E+00  0.20708163770E+04  0.20708163770E+04  0.00000000000E+00 0.  1.
         -2   -1    0    0    0  501 -0.00000000000E+00 -0.00000000000E+00 -0.97278738490E+03  0.97278738490E+03  0.00000000000E+00 0. -1.
    2000013    1    1    2    0    0 -0.10319861927E+04 -0.15511465299E+03  0.71129705717E+03  0.15803479241E+04  0.95000000000E+03 0.  0.
   -2000013    1    1    2    0    0  0.10319861927E+04  0.15511465299E+03  0.38673193497E+03  0.14632558379E+04  0.95000000000E+03 0.  0.
<mgrwt>
<rscale>  0 0.28386363E+04</rscale>
<asrwt>0</asrwt>
<pdfrwt beam="1">  1        2 0.31858713E+00 0.28386363E+04</pdfrwt>
<pdfrwt beam="2">  1       -2 0.14965960E+00 0.28386363E+04</pdfrwt>
<totfact> 0.15951648E+00</totfact>
</mgrwt>
</event>
<event>
 4    1  0.2058093E-008  0.2176219E+04  0.7816531E-02  0.8528392E-01
         -2   -1    0    0    0  501 -0.00000000000E+00  0.00000000000E+00  0.33775402009E+03  0.33775402009E+03  0.00000000000E+00 0. -1.
          2   -1    0    0  501    0  0.00000000000E+00 -0.00000000000E+00 -0.35054557546E+04  0.35054557546E+04  0.00000000000E+00 0.  1.
    2000013    1    1    2    0    0  0.32548499635E+03  0.31622836519E+03 -0.10984699513E+04  0.15215377405E+04  0.95000000000E+03 0.  0.
   -2000013    1    1    2    0    0 -0.32548499635E+03 -0.31622836519E+03 -0.20692317832E+04  0.23216720342E+04  0.95000000000E+03 0.  0.
<mgrwt>
<rscale>  0 0.21762185E+04</rscale>
<asrwt>0</asrwt>
<pdfrwt beam="2">  1        2 0.53930092E+00 0.21762185E+04</pdfrwt>
<pdfrwt beam="1">  1       -2 0.51962154E-01 0.21762185E+04</pdfrwt>
<totfact> 0.25906411E+00</totfact>
</mgrwt>
</event>
<event>
 4    1  0.2058093E-008  0.1994928E+04  0.7816531E-02  0.8608996E-01
          1   -1    0    0  501    0  0.00000000000E+00  0.00000000000E+00  0.94272008400E+03  0.94272008400E+03  0.00000000000E+00 0.  1.
         -1   -1    0    0    0  501 -0.00000000000E+00 -0.00000000000E+00 -0.10553864896E+04  0.10553864896E+04  0.00000000000E+00 0. -1.
    2000013    1    1    2    0    0 -0.26146411224E+03  0.98152508271E+02 -0.17667725196E+03  0.10058390767E+04  0.95000000000E+03 0.  0.
   -2000013    1    1    2    0    0  0.26146411224E+03 -0.98152508271E+02  0.64010846394E+02  0.99226749686E+03  0.95000000000E+03 0.  0.
<mgrwt>
<rscale>  0 0.19949276E+04</rscale>
<asrwt>0</asrwt>
<pdfrwt beam="1">  1        1 0.14503386E+00 0.19949276E+04</pdfrwt>
<pdfrwt beam="2">  1       -1 0.16236715E+00 0.19949276E+04</pdfrwt>
<totfact> 0.43725040E+00</totfact>
</mgrwt>
</event>
<event>
 4    1  0.2058093E-008  0.2918434E+04  0.7816531E-02  0.8267414E-01
         -2   -1    0    0    0  501 -0.00000000000E+00  0.00000000000E+00  0.87439393626E+03  0.87439393626E+03  0.00000000000E+00 0. -1.
          2   -1    0    0  501    0  0.00000000000E+00 -0.00000000000E+00 -0.24351893776E+04  0.24351893776E+04  0.00000000000E+00 0.  1.
    2000013    1    1    2    0    0 -0.38737908310E+03  0.57665140571E+03  0.19791034893E+03  0.11934227683E+04  0.95000000000E+03 0.  0.
   -2000013    1    1    2    0    0  0.38737908310E+03 -0.57665140571E+03 -0.17587057903E+04  0.21161605455E+04  0.95000000000E+03 0.  0.
<mgrwt>
<rscale>  0 0.29184344E+04</rscale>
<asrwt>0</asrwt>
<pdfrwt beam="2">  1        2 0.37464452E+00 0.29184344E+04</pdfrwt>
<pdfrwt beam="1">  1       -2 0.13452214E+00 0.29184344E+04</pdfrwt>
<totfact> 0.13016118E+00</totfact>
</mgrwt>
</event>
<event>
 4    1  0.2058093E-008  0.2620050E+04  0.7816531E-02  0.8361422E-01
         -2   -1    0    0    0  501 -0.00000000000E+00  0.00000000000E+00  0.78314568731E+03  0.78314568731E+03  0.00000000000E+00 0. -1.
          2   -1    0    0  501    0  0.00000000000E+00 -0.00000000000E+00 -0.21913750541E+04  0.21913750541E+04  0.00000000000E+00 0.  1.
    2000013    1    1    2    0    0  0.89459432287E+03 -0.11541784122E+03 -0.69644475690E+03  0.14836291922E+04  0.95000000000E+03 0.  0.
   -2000013    1    1    2    0    0 -0.89459432287E+03  0.11541784122E+03 -0.71178460987E+03  0.14908915492E+04  0.95000000000E+03 0.  0.
<mgrwt>
<rscale>  0 0.26200503E+04</rscale>
<asrwt>0</asrwt>
<pdfrwt beam="2">  1        2 0.33713462E+00 0.26200503E+04</pdfrwt>
<pdfrwt beam="1">  1       -2 0.12048395E+00 0.26200503E+04</pdfrwt>
<totfact> 0.24240522E+00</totfact>
</mgrwt>
</event>
<event>
 4    1  0.2058093E-008  0.2391680E+04  0.7816531E-02  0.8442625E-01
         -2   -1    0    0    0  501 -0.00000000000E+00  0.00000000000E+00  0.12816333975E+04  0.12816333975E+04  0.00000000000E+00 0. -1.
          2   -1    0    0  501    0  0.00000000000E+00 -0.00000000000E+00 -0.11157898682E+04  0.11157898682E+04  0.00000000000E+00 0.  1.
    2000013    1    1    2    0    0 -0.14066760527E+03  0.71216608932E+03  0.59081347909E+02  0.11970624544E+04  0.95000000000E+03 0.  0.
   -2000013    1    1    2    0    0  0.14066760527E+03 -0.71216608932E+03  0.10676218145E+03  0.12003608113E+04  0.95000000000E+03 0.  0.
<mgrwt>
<rscale>  0 0.23916802E+04</rscale>
<asrwt>0</asrwt>
<pdfrwt beam="2">  1        2 0.17165998E+00 0.23916802E+04</pdfrwt>
<pdfrwt beam="1">  1       -2 0.19717437E+00 0.23916802E+04</pdfrwt>
<totfact> 0.26610738E+00</totfact>
</mgrwt>
</event>
<event>
 4    1  0.2058093E-008  0.3143039E+04  0.7816531E-02  0.8204025E-01
         -2   -1    0    0    0  501 -0.00000000000E+00  0.00000000000E+00  0.75050474580E+03  0.75050474580E+03  0.00000000000E+00 0. -1.
          2   -1    0    0  501    0  0.00000000000E+00 -0.00000000000E+00 -0.32906831962E+04  0.32906831962E+04  0.00000000000E+00 0.  1.
    2000013    1    1    2    0    0 -0.10573873071E+04  0.52954298220E+02 -0.21290500581E+04  0.25605128831E+04  0.95000000000E+03 0.  0.
   -2000013    1    1    2    0    0  0.10573873071E+04 -0.52954298220E+02 -0.41112839233E+03  0.14806750589E+04  0.95000000000E+03 0.  0.
<mgrwt>
<rscale>  0 0.31430389E+04</rscale>
<asrwt>0</asrwt>
<pdfrwt beam="2">  1        2 0.50625895E+00 0.31430389E+04</pdfrwt>
<pdfrwt beam="1">  1       -2 0.11546227E+00 0.31430389E+04</pdfrwt>
<totfact> 0.55761209E-01</totfact>
</mgrwt>
</event>
<event>
 4    1  0.2058093E-008  0.2777585E+04  0.7816531E-02  0.8310261E-01
          2   -1    0    0  501    0  0.00000000000E+00  0.00000000000E+00  0.34880404391E+04  0.34880404391E+04  0.00000000000E+00 0.  1.
         -2   -1    0    0    0  501 -0.00000000000E+00 -0.00000000000E+00 -0.55295919736E+03  0.55295919736E+03  0.00000000000E+00 0. -1.
    2000013    1    1    2    0    0 -0.57714264735E+03  0.53784186884E+03  0.23921234535E+04  0.26920479431E+04  0.95000000000E+03 0.  0.
   -2000013    1    1    2    0    0  0.57714264735E+03 -0.53784186884E+03  0.54295778831E+03  0.13489516934E+04  0.95000000000E+03 0.  0.
<mgrwt>
<rscale>  0 0.27775846E+04</rscale>
<asrwt>0</asrwt>
<pdfrwt beam="1">  1        2 0.53662159E+00 0.27775846E+04</pdfrwt>
<pdfrwt beam="2">  1       -2 0.85070648E-01 0.27775846E+04</pdfrwt>
<totfact> 0.86881474E-01</totfact>
</mgrwt>
</event>
<event>
 4    1  0.2058093E-008  0.2264363E+04  0.7816531E-02  0.8492106E-01
          2   -1    0    0  501    0  0.00000000000E+00  0.00000000000E+00  0.24441016500E+04  0.24441016500E+04  0.00000000000E+00 0.  1.
         -2   -1    0    0    0  501 -0.00000000000E+00 -0.00000000000E+00 -0.52446067378E+03  0.52446067378E+03  0.00000000000E+00 0. -1.
    2000013    1    1    2    0    0 -0.56173312132E+03  0.25245831973E+03  0.95001909322E+03  0.14779430234E+04  0.95000000000E+03 0.  0.
   -2000013    1    1    2    0    0  0.56173312132E+03 -0.25245831973E+03  0.96962188299E+03  0.14906193004E+04  0.95000000000E+03 0.  0.
<mgrwt>
<rscale>  0 0.22643632E+04</rscale>
<asrwt>0</asrwt>
<pdfrwt beam="1">  1        2 0.37601563E+00 0.22643632E+04</pdfrwt>
<pdfrwt beam="2">  1       -2 0.80686259E-01 0.22643632E+04</pdfrwt>
<totfact> 0.46232619E+00</totfact>
</mgrwt>
</event>
<event>
 4    1  0.2058093E-008  0.2988768E+04  0.7816531E-02  0.8246946E-01
          2   -1    0    0  501    0  0.00000000000E+00  0.00000000000E+00  0.23747961793E+04  0.23747961793E+04  0.00000000000E+00 0.  1.
         -2   -1    0    0    0  501 -0.00000000000E+00 -0.00000000000E+00 -0.94036846526E+03  0.94036846526E+03  0.00000000000E+00 0. -1.
    2000013    1    1    2    0    0 -0.50501315965E+03 -0.53799281155E+03 -0.26630316342E+03  0.12320275693E+04  0.95000000000E+03 0.  0.
   -2000013    1    1    2    0    0  0.50501315965E+03  0.53799281155E+03  0.17007308775E+04  0.20831370753E+04  0.95000000000E+03 0.  0.
<mgrwt>
<rscale>  0 0.29887679E+04</rscale>
<asrwt>0</asrwt>
<pdfrwt beam="1">  1        2 0.36535326E+00 0.29887679E+04</pdfrwt>
<pdfrwt beam="2">  1       -2 0.14467207E+00 0.29887679E+04</pdfrwt>
<totfact> 0.11605964E+00</totfact>
</mgrwt>
</event>
<event>
 4    1  0.2058093E-008  0.2462952E+04  0.7816531E-02  0.8416304E-01
          2   -1    0    0  501    0  0.00000000000E+00  0.00000000000E+00  0.43805632161E+04  0.43805632161E+04  0.00000000000E+00 0.  1.
         -2   -1    0    0    0  501 -0.00000000000E+00 -0.00000000000E+00 -0.34619599981E+03  0.34619599981E+03  0.00000000000E+00 0. -1.
    2000013    1    1    2    0    0  0.27840777881E+00 -0.60507648554E+03  0.10616199690E+04  0.15477902279E+04  0.95000000000E+03 0.  0.
   -2000013    1    1    2    0    0 -0.27840777881E+00  0.60507648554E+03  0.29727472473E+04  0.31789689881E+04  0.95000000000E+03 0.  0.
<mgrwt>
<rscale>  0 0.24629523E+04</rscale>
<asrwt>0</asrwt>
<pdfrwt beam="1">  1        2 0.67393276E+00 0.24629523E+04</pdfrwt>
<pdfrwt beam="2">  1       -2 0.53260926E-01 0.24629523E+04</pdfrwt>
<totfact> 0.47858838E-01</totfact>
</mgrwt>
</event>
<event>
 4    1  0.2058093E-008  0.1985639E+04  0.7816531E-02  0.8613364E-01
          2   -1    0    0  501    0  0.00000000000E+00  0.00000000000E+00  0.12282369832E+04  0.12282369832E+04  0.00000000000E+00 0.  1.
         -2   -1    0    0    0  501 -0.00000000000E+00 -0.00000000000E+00 -0.80252484782E+03  0.80252484782E+03  0.00000000000E+00 0. -1.
    2000013    1    1    2    0    0  0.22904689029E+03 -0.17510765692E+03  0.22113499304E+03  0.10171164410E+04  0.95000000000E+03 0.  0.
   -2000013    1    1    2    0    0 -0.22904689029E+03  0.17510765692E+03  0.20457714233E+03  0.10136453900E+04  0.95000000000E+03 0.  0.
<mgrwt>
<rscale>  0 0.19856391E+04</rscale>
<asrwt>0</asrwt>
<pdfrwt beam="1">  1        2 0.18895954E+00 0.19856391E+04</pdfrwt>
<pdfrwt beam="2">  1       -2 0.12346536E+00 0.19856391E+04</pdfrwt>
<totfact> 0.83832101E+00</totfact>
</mgrwt>
</event>
<event>
 4    1  0.2058093E-008  0.2490898E+04  0.7816531E-02  0.8406235E-01
          2   -1    0    0  501    0  0.00000000000E+00  0.00000000000E+00  0.32369048486E+04  0.32369048486E+04  0.00000000000E+00 0.  1.
         -2   -1    0    0    0  501 -0.00000000000E+00 -0.00000000000E+00 -0.47920559172E+03  0.47920559172E+03  0.00000000000E+00 0. -1.
    2000013    1    1    2    0    0 -0.74889487905E+03  0.12879085940E+03  0.98073315266E+03  0.15626158012E+04  0.95000000000E+03 0.  0.
   -2000013    1    1    2    0    0  0.74889487905E+03 -0.12879085940E+03  0.17769661042E+04  0.21534946392E+04  0.95000000000E+03 0.  0.
<mgrwt>
<rscale>  0 0.24908978E+04</rscale>
<asrwt>0</asrwt>
<pdfrwt beam="1">  1        2 0.49798535E+00 0.24908978E+04</pdfrwt>
<pdfrwt beam="2">  1       -2 0.73723939E-01 0.24908978E+04</pdfrwt>
<totfact> 0.18168932E+00</totfact>
</mgrwt>
</event>
<event>
 4    1  0.2058093E-008  0.2318616E+04  0.7816531E-02  0.8470617E-01
         -2   -1    0    0    0  501 -0.00000000000E+00  0.00000000000E+00  0.76855969311E+03  0.76855969311E+03  0.00000000000E+00 0. -1.
          2   -1    0    0  501    0  0.00000000000E+00 -0.00000000000E+00 -0.17487189630E+04  0.17487189630E+04  0.00000000000E+00 0.  1.
    2000013    1    1    2    0    0  0.32462619658E+03 -0.47837643524E+03 -0.84566104824E+03  0.13970929782E+04  0.95000000000E+03 0.  0.
   -2000013    1    1    2    0    0 -0.32462619658E+03  0.47837643524E+03 -0.13449822165E+03  0.11201856779E+04  0.95000000000E+03 0.  0.
<mgrwt>
<rscale>  0 0.23186159E+04</rscale>
<asrwt>0</asrwt>
<pdfrwt beam="2">  1        2 0.26903369E+00 0.23186159E+04</pdfrwt>
<pdfrwt beam="1">  1       -2 0.11823995E+00 0.23186159E+04</pdfrwt>
<totfact> 0.45947288E+00</totfact>
</mgrwt>
</event>
<event>
 4    1  0.2058093E-008  0.2441415E+04  0.7816531E-02  0.8424159E-01
         -2   -1    0    0    0  501 -0.00000000000E+00  0.00000000000E+00  0.95293094588E+03  0.95293094588E+03  0.00000000000E+00 0. -1.
          2   -1    0    0  501    0  0.00000000000E+00 -0.00000000000E+00 -0.15637303730E+04  0.15637303730E+04  0.00000000000E+00 0.  1.
    2000013    1    1    2    0    0 -0.31397628803E+03  0.26382087643E+03  0.36220651335E+03  0.10963011095E+04  0.95000000000E+03 0.  0.
   -2000013    1    1    2    0    0  0.31397628803E+03 -0.26382087643E+03 -0.97300594047E+03  0.14203602094E+04  0.95000000000E+03 0.  0.
<mgrwt>
<rscale>  0 0.24414152E+04</rscale>
<asrwt>0</asrwt>
<pdfrwt beam="2">  1        2 0.24057390E+00 0.24414152E+04</pdfrwt>
<pdfrwt beam="1">  1       -2 0.14660476E+00 0.24414152E+04</pdfrwt>
<totfact> 0.33344577E+00</totfact>
</mgrwt>
</event>
<event>
 4    1  0.2058093E-008  0.2159249E+04  0.7816531E-02  0.8535584E-01
         -2   -1    0    0    0  501 -0.00000000000E+00  0.00000000000E+00  0.83209355703E+03  0.83209355703E+03  0.00000000000E+00 0. -1.
          2   -1    0    0  501    0  0.00000000000E+00 -0.00000000000E+00 -0.14007910122E+04  0.14007910122E+04  0.00000000000E+00 0.  1.
    2000013    1    1    2    0    0 -0.13179915747E+03  0.33018137731E+03  0.97987336660E+02  0.10190644131E+04  0.95000000000E+03 0.  0.
   -2000013    1    1    2    0    0  0.13179915747E+03 -0.33018137731E+03 -0.66668479180E+03  0.12138201561E+04  0.95000000000E+03 0.  0.
<mgrwt>
<rscale>  0 0.21592491E+04</rscale>
<asrwt>0</asrwt>
<pdfrwt beam="2">  1        2 0.21550631E+00 0.21592491E+04</pdfrwt>
<pdfrwt beam="1">  1       -2 0.12801439E+00 0.21592491E+04</pdfrwt>
<totfact> 0.59873398E+00</totfact>
</mgrwt>
</event>
<event>
 4    1  0.2058093E-008  0.2893725E+04  0.7816531E-02  0.8274747E-01
         -2   -1    0    0    0  501 -0.00000000000E+00  0.00000000000E+00  0.92485044754E+03  0.92485044754E+03  0.00000000000E+00 0. -1.
          2   -1    0    0  501    0  0.00000000000E+00 -0.00000000000E+00 -0.22635127832E+04  0.22635127832E+04  0.00000000000E+00 0.  1.
    2000013    1    1    2    0    0  0.50134296960E+03 -0.89967630860E+03 -0.10668248931E+04  0.17610728508E+04  0.95000000000E+03 0.  0.
   -2000013    1    1    2    0    0 -0.50134296960E+03  0.89967630860E+03 -0.27183744260E+03  0.14272903799E+04  0.95000000000E+03 0.  0.
<mgrwt>
<rscale>  0 0.28937248E+04</rscale>
<asrwt>0</asrwt>
<pdfrwt beam="2">  1        2 0.34823273E+00 0.28937248E+04</pdfrwt>
<pdfrwt beam="1">  1       -2 0.14228468E+00 0.28937248E+04</pdfrwt>
<totfact> 0.14135773E+00</totfact>
</mgrwt>
</event>
<event>
 4    1  0.2058093E-008  0.2622107E+04  0.7816531E-02  0.8360730E-01
          2   -1    0    0  501    0  0.00000000000E+00  0.00000000000E+00  0.23168607543E+04  0.23168607543E+04  0.00000000000E+00 0.  1.
         -2   -1    0    0    0  501 -0.00000000000E+00 -0.00000000000E+00 -0.74189242482E+03  0.74189242482E+03  0.00000000000E+00 0. -1.
    2000013    1    1    2    0    0  0.73027282840E+03 -0.50406688636E+03  0.98606635458E+03  0.16316276185E+04  0.95000000000E+03 0.  0.
   -2000013    1    1    2    0    0 -0.73027282840E+03  0.50406688636E+03  0.58890197494E+03  0.14271255607E+04  0.95000000000E+03 0.  0.
<mgrwt>
<rscale>  0 0.26221071E+04</rscale>
<asrwt>0</asrwt>
<pdfrwt beam="1">  1        2 0.35644011E+00 0.26221071E+04</pdfrwt>
<pdfrwt beam="2">  1       -2 0.11413730E+00 0.26221071E+04</pdfrwt>
<totfact> 0.23513100E+00</totfact>
</mgrwt>
</event>
<event>
 4    1  0.2058093E-008  0.2973156E+04  0.7816531E-02  0.8251438E-01
          2   -1    0    0  501    0  0.00000000000E+00  0.00000000000E+00  0.93261556382E+03  0.93261556382E+03  0.00000000000E+00 0.  1.
         -2   -1    0    0    0  501 -0.00000000000E+00 -0.00000000000E+00 -0.23695875783E+04  0.23695875783E+04  0.00000000000E+00 0. -1.
    2000013    1    1    2    0    0 -0.48999010733E+03 -0.10292845312E+04 -0.81718790489E+03  0.16940522493E+04  0.95000000000E+03 0.  0.
   -2000013    1    1    2    0    0  0.48999010733E+03  0.10292845312E+04 -0.61978410958E+03  0.16081508928E+04  0.95000000000E+03 0.  0.
<mgrwt>
<rscale>  0 0.29731561E+04</rscale>
<asrwt>0</asrwt>
<pdfrwt beam="1">  1        2 0.14347932E+00 0.29731561E+04</pdfrwt>
<pdfrwt beam="2">  1       -2 0.36455194E+00 0.29731561E+04</pdfrwt>
<totfact> 0.30076944E-01</totfact>
</mgrwt>
</event>
<event>
 4    1  0.2058093E-008  0.2194437E+04  0.7816531E-02  0.8520747E-01
         -1   -1    0    0    0  501 -0.00000000000E+00  0.00000000000E+00  0.65923375931E+03  0.65923375931E+03  0.00000000000E+00 0. -1.
          1   -1    0    0  501    0  0.00000000000E+00 -0.00000000000E+00 -0.18261931148E+04  0.18261931148E+04  0.00000000000E+00 0.  1.
    2000013    1    1    2    0    0 -0.41804650473E+03  0.35065721437E+03 -0.65204467791E+03  0.12749061236E+04  0.95000000000E+03 0.  0.
   -2000013    1    1    2    0    0  0.41804650473E+03 -0.35065721437E+03 -0.51491467757E+03  0.12105207505E+04  0.95000000000E+03 0.  0.
<mgrwt>
<rscale>  0 0.21944367E+04</rscale>
<asrwt>0</asrwt>
<pdfrwt beam="2">  1        1 0.28095278E+00 0.21944367E+04</pdfrwt>
<pdfrwt beam="1">  1       -1 0.10142058E+00 0.21944367E+04</pdfrwt>
<totfact> 0.32906748E+00</totfact>
</mgrwt>
</event>
<event>
 4    1  0.2058093E-008  0.3559498E+04  0.7816531E-02  0.8099833E-01
          2   -1    0    0  501    0  0.00000000000E+00  0.00000000000E+00  0.14854227633E+04  0.14854227633E+04  0.00000000000E+00 0.  1.
         -2   -1    0    0    0  501 -0.00000000000E+00 -0.00000000000E+00 -0.21323939963E+04  0.21323939963E+04  0.00000000000E+00 0. -1.
    2000013    1    1    2    0    0 -0.35701876606E+03  0.12749156976E+04 -0.10508460528E+04  0.19389816559E+04  0.95000000000E+03 0.  0.
   -2000013    1    1    2    0    0  0.35701876606E+03 -0.12749156976E+04  0.40387481976E+03  0.16788351037E+04  0.95000000000E+03 0.  0.
<mgrwt>
<rscale>  0 0.35594980E+04</rscale>
<asrwt>0</asrwt>
<pdfrwt beam="1">  1        2 0.22852658E+00 0.35594980E+04</pdfrwt>
<pdfrwt beam="2">  1       -2 0.32806062E+00 0.35594980E+04</pdfrwt>
<totfact> 0.22573135E-01</totfact>
</mgrwt>
</event>
<event>
 4    1  0.2058093E-008  0.2452146E+04  0.7816531E-02  0.8420235E-01
          2   -1    0    0  501    0  0.00000000000E+00  0.00000000000E+00  0.37157022134E+04  0.37157022134E+04  0.00000000000E+00 0.  1.
         -2   -1    0    0    0  501 -0.00000000000E+00 -0.00000000000E+00 -0.40456823807E+03  0.40456823807E+03  0.00000000000E+00 0. -1.
    2000013    1    1    2    0    0  0.51517183028E+03  0.57751234510E+03  0.15836369695E+04  0.20023307855E+04  0.95000000000E+03 0.  0.
   -2000013    1    1    2    0    0 -0.51517183028E+03 -0.57751234510E+03  0.17274970058E+04  0.21179396659E+04  0.95000000000E+03 0.  0.
<mgrwt>
<rscale>  0 0.24521461E+04</rscale>
<asrwt>0</asrwt>
<pdfrwt beam="1">  1        2 0.57164647E+00 0.24521461E+04</pdfrwt>
<pdfrwt beam="2">  1       -2 0.62241270E-01 0.24521461E+04</pdfrwt>
<totfact> 0.12220783E+00</totfact>
</mgrwt>
</event>
<event>
 4    1  0.2058093E-008  0.2822277E+04  0.7816531E-02  0.8296385E-01
          1   -1    0    0  501    0  0.00000000000E+00  0.00000000000E+00  0.30563496987E+04  0.30563496987E+04  0.00000000000E+00 0.  1.
         -1   -1    0    0    0  501 -0.00000000000E+00 -0.00000000000E+00 -0.65153272224E+03  0.65153272224E+03  0.00000000000E+00 0. -1.
    2000013    1    1    2    0    0 -0.10029728862E+04  0.20921310237E+03  0.14621510279E+04  0.20224021265E+04  0.95000000000E+03 0.  0.
   -2000013    1    1    2    0    0  0.10029728862E+04 -0.20921310237E+03  0.94266594848E+03  0.16854802945E+04  0.95000000000E+03 0.  0.
<mgrwt>
<rscale>  0 0.28222770E+04</rscale>
<asrwt>0</asrwt>
<pdfrwt beam="1">  1        1 0.47020764E+00 0.28222770E+04</pdfrwt>
<pdfrwt beam="2">  1       -1 0.10023580E+00 0.28222770E+04</pdfrwt>
<totfact> 0.44494116E-01</totfact>
</mgrwt>
</event>
<event>
 4    1  0.2058093E-008  0.2300836E+04  0.7816531E-02  0.8477591E-01
         -1   -1    0    0    0  501 -0.00000000000E+00  0.00000000000E+00  0.94835658414E+03  0.94835658414E+03  0.00000000000E+00 0.  1.
          1   -1    0    0  501    0  0.00000000000E+00 -0.00000000000E+00 -0.13955318053E+04  0.13955318053E+04  0.00000000000E+00 0. -1.
    2000013    1    1    2    0    0  0.22089199599E+02  0.64726635790E+03 -0.18386954942E+03  0.11643666442E+04  0.95000000000E+03 0.  0.
   -2000013    1    1    2    0    0 -0.22089199599E+02 -0.64726635790E+03 -0.26330567172E+03  0.11795217453E+04  0.95000000000E+03 0.  0.
<mgrwt>
<rscale>  0 0.23008362E+04</rscale>
<asrwt>0</asrwt>
<pdfrwt beam="2">  1        1 0.21469720E+00 0.23008362E+04</pdfrwt>
<pdfrwt beam="1">  1       -1 0.14590101E+00 0.23008362E+04</pdfrwt>
<totfact> 0.26288329E+00</totfact>
</mgrwt>
</event>
<event>
 4    1  0.2058093E-008  0.2499677E+04  0.7816531E-02  0.8403100E-01
          2   -1    0    0  501    0  0.00000000000E+00  0.00000000000E+00  0.10732343706E+04  0.10732343706E+04  0.00000000000E+00 0.  1.
         -2   -1    0    0    0  501 -0.00000000000E+00 -0.00000000000E+00 -0.14555038273E+04  0.14555038273E+04  0.00000000000E+00 0. -1.
    2000013    1    1    2    0    0 -0.84484435175E+02  0.68814145633E+03  0.23677277543E+03  0.11996823042E+04  0.95000000000E+03 0.  0.
   -2000013    1    1    2    0    0  0.84484435175E+02 -0.68814145633E+03 -0.61904223209E+03  0.13290558938E+04  0.95000000000E+03 0.  0.
<mgrwt>
<rscale>  0 0.24996774E+04</rscale>
<asrwt>0</asrwt>
<pdfrwt beam="1">  1        2 0.16511298E+00 0.24996774E+04</pdfrwt>
<pdfrwt beam="2">  1       -2 0.22392367E+00 0.24996774E+04</pdfrwt>
<totfact> 0.18844202E+00</totfact>
</mgrwt>
</event>
<event>
 4    1  0.2058093E-008  0.2197163E+04  0.7816531E-02  0.8519610E-01
          2   -1    0    0  501    0  0.00000000000E+00  0.00000000000E+00  0.12429017368E+04  0.12429017368E+04  0.00000000000E+00 0.  1.
         -2   -1    0    0    0  501 -0.00000000000E+00 -0.00000000000E+00 -0.97101887413E+03  0.97101887413E+03  0.00000000000E+00 0. -1.
    2000013    1    1    2    0    0 -0.28403458479E+02 -0.54530104719E+03  0.21541667912E+03  0.11167203473E+04  0.95000000000E+03 0.  0.
   -2000013    1    1    2    0    0  0.28403458479E+02  0.54530104719E+03  0.56466183547E+02  0.10972002636E+04  0.95000000000E+03 0.  0.
<mgrwt>
<rscale>  0 0.21971628E+04</rscale>
<asrwt>0</asrwt>
<pdfrwt beam="1">  1        2 0.19121565E+00 0.21971628E+04</pdfrwt>
<pdfrwt beam="2">  1       -2 0.14938752E+00 0.21971628E+04</pdfrwt>
<totfact> 0.49461109E+00</totfact>
</mgrwt>
</event>
<event>
 4    1  0.2058093E-008  0.2603552E+04  0.7816531E-02  0.8366996E-01
         -2   -1    0    0    0  501 -0.00000000000E+00  0.00000000000E+00  0.61296153273E+03  0.61296153273E+03  0.00000000000E+00 0. -1.
          2   -1    0    0  501    0  0.00000000000E+00 -0.00000000000E+00 -0.27646451888E+04  0.27646451888E+04  0.00000000000E+00 0.  1.
    2000013    1    1    2    0    0 -0.69594810456E+03  0.55300556122E+03 -0.11333088307E+04  0.17254123625E+04  0.95000000000E+03 0.  0.
   -2000013    1    1    2    0    0  0.69594810456E+03 -0.55300556122E+03 -0.10183748253E+04  0.16521943589E+04  0.95000000000E+03 0.  0.
<mgrwt>
<rscale>  0 0.26035523E+04</rscale>
<asrwt>0</asrwt>
<pdfrwt beam="2">  1        2 0.42533002E+00 0.26035523E+04</pdfrwt>
<pdfrwt beam="1">  1       -2 0.94301775E-01 0.26035523E+04</pdfrwt>
<totfact> 0.20362460E+00</totfact>
</mgrwt>
</event>
<event>
 4    1  0.2058093E-008  0.2137845E+04  0.7816531E-02  0.8544753E-01
          2   -1    0    0  501    0  0.00000000000E+00  0.00000000000E+00  0.27643291447E+04  0.27643291447E+04  0.00000000000E+00 0. -1.
         -2   -1    0    0    0  501 -0.00000000000E+00 -0.00000000000E+00 -0.41333530439E+03  0.41333530439E+03  0.00000000000E+00 0.  1.
    2000013    1    1    2    0    0  0.43616616572E+03  0.12104457047E+03  0.89661760751E+03  0.13825034706E+04  0.95000000000E+03 0.  0.
   -2000013    1    1    2    0    0 -0.43616616572E+03 -0.12104457047E+03  0.14543762328E+04  0.17951609785E+04  0.95000000000E+03 0.  0.
<mgrwt>
<rscale>  0 0.21378445E+04</rscale>
<asrwt>0</asrwt>
<pdfrwt beam="1">  1        2 0.42528140E+00 0.21378445E+04</pdfrwt>
<pdfrwt beam="2">  1       -2 0.63590049E-01 0.21378445E+04</pdfrwt>
<totfact> 0.51128922E+00</totfact>
</mgrwt>
</event>
<event>
 4    1  0.2058093E-008  0.2597293E+04  0.7816531E-02  0.8369121E-01
          2   -1    0    0  501    0  0.00000000000E+00  0.00000000000E+00  0.16420140507E+04  0.16420140507E+04  0.00000000000E+00 0.  1.
         -2   -1    0    0    0  501 -0.00000000000E+00 -0.00000000000E+00 -0.10270818248E+04  0.10270818248E+04  0.00000000000E+00 0. -1.
    2000013    1    1    2    0    0  0.63693056661E+03  0.58831831835E+03  0.12310816574E+03  0.12920737637E+04  0.95000000000E+03 0.  0.
   -2000013    1    1    2    0    0 -0.63693056661E+03 -0.58831831835E+03  0.49182406014E+03  0.13770221118E+04  0.95000000000E+03 0.  0.
<mgrwt>
<rscale>  0 0.25972930E+04</rscale>
<asrwt>0</asrwt>
<pdfrwt beam="1">  1        2 0.25261755E+00 0.25972930E+04</pdfrwt>
<pdfrwt beam="2">  1       -2 0.15801259E+00 0.25972930E+04</pdfrwt>
<totfact> 0.24363143E+00</totfact>
</mgrwt>
</event>
<event>
 4    1  0.2058093E-008  0.2900570E+04  0.7816531E-02  0.8272708E-01
          2   -1    0    0  501    0  0.00000000000E+00  0.00000000000E+00  0.26266099024E+04  0.26266099024E+04  0.00000000000E+00 0.  1.
         -2   -1    0    0    0  501 -0.00000000000E+00 -0.00000000000E+00 -0.80077613798E+03  0.80077613798E+03  0.00000000000E+00 0. -1.
    2000013    1    1    2    0    0  0.31132521935E+03  0.78359049566E+03  0.85872996131E+02  0.12731110040E+04  0.95000000000E+03 0.  0.
   -2000013    1    1    2    0    0 -0.31132521935E+03 -0.78359049566E+03  0.17399607683E+04  0.21542750363E+04  0.95000000000E+03 0.  0.
<mgrwt>
<rscale>  0 0.29005700E+04</rscale>
<asrwt>0</asrwt>
<pdfrwt beam="1">  1        2 0.40409383E+00 0.29005700E+04</pdfrwt>
<pdfrwt beam="2">  1       -2 0.12319633E+00 0.29005700E+04</pdfrwt>
<totfact> 0.12593862E+00</totfact>
</mgrwt>
</event>
<event>
 4    1  0.2058093E-008  0.2545042E+04  0.7816531E-02  0.8387113E-01
         -2   -1    0    0    0  501 -0.00000000000E+00  0.00000000000E+00  0.50502610069E+03  0.50502610069E+03  0.00000000000E+00 0. -1.
          2   -1    0    0  501    0  0.00000000000E+00 -0.00000000000E+00 -0.32063869506E+04  0.32063869506E+04  0.00000000000E+00 0.  1.
    2000013    1    1    2    0    0 -0.66540626010E+03 -0.52148000962E+03 -0.14175428640E+04  0.19043725115E+04  0.95000000000E+03 0.  0.
   -2000013    1    1    2    0    0  0.66540626010E+03  0.52148000962E+03 -0.12838179860E+04  0.18070405398E+04  0.95000000000E+03 0.  0.
<mgrwt>
<rscale>  0 0.25450415E+04</rscale>
<asrwt>0</asrwt>
<pdfrwt beam="2">  1        2 0.49329030E+00 0.25450415E+04</pdfrwt>
<pdfrwt beam="1">  1       -2 0.77696324E-01 0.25450415E+04</pdfrwt>
<totfact> 0.16850431E+00</totfact>
</mgrwt>
</event>
<event>
 4    1  0.2058093E-008  0.2285031E+04  0.7816531E-02  0.8483847E-01
         -2   -1    0    0    0  501 -0.00000000000E+00  0.00000000000E+00  0.60509737256E+03  0.60509737256E+03  0.00000000000E+00 0. -1.
          2   -1    0    0  501    0  0.00000000000E+00 -0.00000000000E+00 -0.21572427528E+04  0.21572427528E+04  0.00000000000E+00 0.  1.
    2000013    1    1    2    0    0 -0.27198943187E+03  0.40492459462E+03 -0.12669749181E+04  0.16570056191E+04  0.95000000000E+03 0.  0.
   -2000013    1    1    2    0    0  0.27198943187E+03 -0.40492459462E+03 -0.28517046210E+03  0.11053345063E+04  0.95000000000E+03 0.  0.
<mgrwt>
<rscale>  0 0.22850312E+04</rscale>
<asrwt>0</asrwt>
<pdfrwt beam="2">  1        2 0.33188350E+00 0.22850312E+04</pdfrwt>
<pdfrwt beam="1">  1       -2 0.93091905E-01 0.22850312E+04</pdfrwt>
<totfact> 0.48404438E+00</totfact>
</mgrwt>
</event>
<event>
 4    1  0.2058093E-008  0.2850369E+04  0.7816531E-02  0.8287799E-01
          2   -1    0    0  501    0  0.00000000000E+00  0.00000000000E+00  0.12767617877E+04  0.12767617877E+04  0.00000000000E+00 0.  1.
         -2   -1    0    0    0  501 -0.00000000000E+00 -0.00000000000E+00 -0.15908617325E+04  0.15908617325E+04  0.00000000000E+00 0. -1.
    2000013    1    1    2    0    0  0.11146039994E+03 -0.85116093022E+03 -0.78674057825E+03  0.15027837793E+04  0.95000000000E+03 0.  0.
   -2000013    1    1    2    0    0 -0.11146039994E+03  0.85116093022E+03  0.47264063348E+03  0.13648397409E+04  0.95000000000E+03 0.  0.
<mgrwt>
<rscale>  0 0.28503694E+04</rscale>
<asrwt>0</asrwt>
<pdfrwt beam="1">  1        2 0.19642489E+00 0.28503694E+04</pdfrwt>
<pdfrwt beam="2">  1       -2 0.24474796E+00 0.28503694E+04</pdfrwt>
<totfact> 0.10233941E+00</totfact>
</mgrwt>
</event>
<event>
 4    1  0.2058093E-008  0.2207364E+04  0.7816531E-02  0.8515369E-01
          1   -1    0    0  501    0  0.00000000000E+00  0.00000000000E+00  0.11557178773E+04  0.11557178773E+04  0.00000000000E+00 0. -1.
         -1   -1    0    0    0  501 -0.00000000000E+00 -0.00000000000E+00 -0.10539886866E+04  0.10539886866E+04  0.00000000000E+00 0.  1.
    2000013    1    1    2    0    0  0.53849034021E+03  0.10251367683E+03 -0.72280880051E+02  0.10991839819E+04  0.95000000000E+03 0.  0.
   -2000013    1    1    2    0    0 -0.53849034021E+03 -0.10251367683E+03  0.17401007073E+03  0.11105225820E+04  0.95000000000E+03 0.  0.
<mgrwt>
<rscale>  0 0.22073636E+04</rscale>
<asrwt>0</asrwt>
<pdfrwt beam="1">  1        1 0.17780275E+00 0.22073636E+04</pdfrwt>
<pdfrwt beam="2">  1       -1 0.16215211E+00 0.22073636E+04</pdfrwt>
<totfact> 0.29546921E+00</totfact>
</mgrwt>
</event>
<event>
 4    1  0.2058093E-008  0.2367183E+04  0.7816531E-02  0.8451893E-01
         -2   -1    0    0    0  501 -0.00000000000E+00  0.00000000000E+00  0.66025546844E+03  0.66025546844E+03  0.00000000000E+00 0. -1.
          2   -1    0    0  501    0  0.00000000000E+00 -0.00000000000E+00 -0.21217367980E+04  0.21217367980E+04  0.00000000000E+00 0.  1.
    2000013    1    1    2    0    0  0.50361496757E+03 -0.38270287753E+03 -0.36227394939E+03  0.11974272180E+04  0.95000000000E+03 0.  0.
   -2000013    1    1    2    0    0 -0.50361496757E+03  0.38270287753E+03 -0.10992073801E+04  0.15845650484E+04  0.95000000000E+03 0.  0.
<mgrwt>
<rscale>  0 0.23671826E+04</rscale>
<asrwt>0</asrwt>
<pdfrwt beam="2">  1        2 0.32642104E+00 0.23671826E+04</pdfrwt>
<pdfrwt beam="1">  1       -2 0.10157776E+00 0.23671826E+04</pdfrwt>
<totfact> 0.40991925E+00</totfact>
</mgrwt>
</event>
<event>
 4    1  0.2058093E-008  0.2064954E+04  0.7816531E-02  0.8576841E-01
         -2   -1    0    0    0  501 -0.00000000000E+00  0.00000000000E+00  0.59017590083E+03  0.59017590083E+03  0.00000000000E+00 0. -1.
          2   -1    0    0  501    0  0.00000000000E+00 -0.00000000000E+00 -0.18062555215E+04  0.18062555215E+04  0.00000000000E+00 0.  1.
    2000013    1    1    2    0    0  0.17478217944E+03 -0.33052629712E+03 -0.78674579816E+03  0.12889008473E+04  0.95000000000E+03 0.  0.
   -2000013    1    1    2    0    0 -0.17478217944E+03  0.33052629712E+03 -0.42933382248E+03  0.11075305750E+04  0.95000000000E+03 0.  0.
<mgrwt>
<rscale>  0 0.20649537E+04</rscale>
<asrwt>0</asrwt>
<pdfrwt beam="2">  1        2 0.27788546E+00 0.20649537E+04</pdfrwt>
<pdfrwt beam="1">  1       -2 0.90796295E-01 0.20649537E+04</pdfrwt>
<totfact> 0.81916647E+00</totfact>
</mgrwt>
</event>
<event>
 4    1  0.2058093E-008  0.2654186E+04  0.7816531E-02  0.8350025E-01
         -2   -1    0    0    0  501 -0.00000000000E+00  0.00000000000E+00  0.16651508311E+04  0.16651508311E+04  0.00000000000E+00 0. -1.
          2   -1    0    0  501    0  0.00000000000E+00 -0.00000000000E+00 -0.10576674877E+04  0.10576674877E+04  0.00000000000E+00 0.  1.
    2000013    1    1    2    0    0  0.46748424842E+03  0.63352999104E+03 -0.19753896829E+03  0.12495692922E+04  0.95000000000E+03 0.  0.
   -2000013    1    1    2    0    0 -0.46748424842E+03 -0.63352999104E+03  0.80502231171E+03  0.14732490266E+04  0.95000000000E+03 0.  0.
<mgrwt>
<rscale>  0 0.26541860E+04</rscale>
<asrwt>0</asrwt>
<pdfrwt beam="2">  1        2 0.16271808E+00 0.26541860E+04</pdfrwt>
<pdfrwt beam="1">  1       -2 0.25617705E+00 0.26541860E+04</pdfrwt>
<totfact> 0.12003466E+00</totfact>
</mgrwt>
</event>
<event>
 4    1  0.2058093E-008  0.2505885E+04  0.7816531E-02  0.8400892E-01
          2   -1    0    0  501    0  0.00000000000E+00  0.00000000000E+00  0.19646820347E+04  0.19646820347E+04  0.00000000000E+00 0.  1.
         -2   -1    0    0    0  501 -0.00000000000E+00 -0.00000000000E+00 -0.79904261933E+03  0.79904261933E+03  0.00000000000E+00 0. -1.
    2000013    1    1    2    0    0 -0.62515208219E+03  0.33384604005E+03  0.13469134021E+03  0.11928579385E+04  0.95000000000E+03 0.  0.
   -2000013    1    1    2    0    0  0.62515208219E+03 -0.33384604005E+03  0.10309480752E+04  0.15708667155E+04  0.95000000000E+03 0.  0.
<mgrwt>
<rscale>  0 0.25058848E+04</rscale>
<asrwt>0</asrwt>
<pdfrwt beam="1">  1        2 0.30225877E+00 0.25058848E+04</pdfrwt>
<pdfrwt beam="2">  1       -2 0.12292963E+00 0.25058848E+04</pdfrwt>
<totfact> 0.31157826E+00</totfact>
</mgrwt>
</event>
<event>
 4    1  0.2058093E-008  0.3319365E+04  0.7816531E-02  0.8157985E-01
         -2   -1    0    0    0  501 -0.00000000000E+00  0.00000000000E+00  0.16839032844E+04  0.16839032844E+04  0.00000000000E+00 0. -1.
          2   -1    0    0  501    0  0.00000000000E+00 -0.00000000000E+00 -0.16358098411E+04  0.16358098411E+04  0.00000000000E+00 0.  1.
    2000013    1    1    2    0    0 -0.71145668002E+03 -0.11417948730E+04  0.22944457715E+03  0.16628322084E+04  0.95000000000E+03 0.  0.
   -2000013    1    1    2    0    0  0.71145668002E+03  0.11417948730E+04 -0.18135113379E+03  0.16568809170E+04  0.95000000000E+03 0.  0.
<mgrwt>
<rscale>  0 0.33193647E+04</rscale>
<asrwt>0</asrwt>
<pdfrwt beam="2">  1        2 0.25166305E+00 0.33193647E+04</pdfrwt>
<pdfrwt beam="1">  1       -2 0.25906205E+00 0.33193647E+04</pdfrwt>
<totfact> 0.50206956E-01</totfact>
</mgrwt>
</event>
<event>
 4    1  0.2058093E-008  0.2718736E+04  0.7816531E-02  0.8328951E-01
         -2   -1    0    0    0  501 -0.00000000000E+00  0.00000000000E+00  0.56333266022E+03  0.56333266022E+03  0.00000000000E+00 0. -1.
          2   -1    0    0  501    0  0.00000000000E+00 -0.00000000000E+00 -0.32802661831E+04  0.32802661831E+04  0.00000000000E+00 0.  1.
    2000013    1    1    2    0    0  0.94301577061E+03  0.13385913204E+03 -0.10822105028E+04  0.17265215270E+04  0.95000000000E+03 0.  0.
   -2000013    1    1    2    0    0 -0.94301577061E+03 -0.13385913204E+03 -0.16347230201E+04  0.21170773163E+04  0.95000000000E+03 0.  0.
<mgrwt>
<rscale>  0 0.27187358E+04</rscale>
<asrwt>0</asrwt>
<pdfrwt beam="2">  1        2 0.50465634E+00 0.27187358E+04</pdfrwt>
<pdfrwt beam="1">  1       -2 0.86666563E-01 0.27187358E+04</pdfrwt>
<totfact> 0.11590067E+00</totfact>
</mgrwt>
</event>
<event>
 4    1  0.2058093E-008  0.2435090E+04  0.7816531E-02  0.8426482E-01
         -2   -1    0    0    0  501 -0.00000000000E+00  0.00000000000E+00  0.71626464446E+03  0.71626464446E+03  0.00000000000E+00 0. -1.
          2   -1    0    0  501    0  0.00000000000E+00 -0.00000000000E+00 -0.20696478369E+04  0.20696478369E+04  0.00000000000E+00 0.  1.
    2000013    1    1    2    0    0  0.15323683334E+03  0.71416929905E+03 -0.43026137714E+03  0.12732415982E+04  0.95000000000E+03 0.  0.
   -2000013    1    1    2    0    0 -0.15323683334E+03 -0.71416929905E+03 -0.92312181531E+03  0.15126708831E+04  0.95000000000E+03 0.  0.
<mgrwt>
<rscale>  0 0.24350898E+04</rscale>
<asrwt>0</asrwt>
<pdfrwt beam="2">  1        2 0.31840736E+00 0.24350898E+04</pdfrwt>
<pdfrwt beam="1">  1       -2 0.11019456E+00 0.24350898E+04</pdfrwt>
<totfact> 0.35837929E+00</totfact>
</mgrwt>
</event>
<event>
 4    1  0.2058093E-008  0.3031359E+04  0.7816531E-02  0.8234832E-01
         -2   -1    0    0    0  501 -0.00000000000E+00  0.00000000000E+00  0.12432782449E+04  0.12432782449E+04  0.00000000000E+00 0. -1.
          2   -1    0    0  501    0  0.00000000000E+00 -0.00000000000E+00 -0.18477640106E+04  0.18477640106E+04  0.00000000000E+00 0.  1.
    2000013    1    1    2    0    0 -0.10981829212E+04  0.36015298191E+03 -0.54416830410E+02  0.14970561413E+04  0.95000000000E+03 0.  0.
   -2000013    1    1    2    0    0  0.10981829212E+04 -0.36015298191E+03 -0.55006893524E+03  0.15939861142E+04  0.95000000000E+03 0.  0.
<mgrwt>
<rscale>  0 0.30313593E+04</rscale>
<asrwt>0</asrwt>
<pdfrwt beam="2">  1        2 0.28427138E+00 0.30313593E+04</pdfrwt>
<pdfrwt beam="1">  1       -2 0.19127358E+00 0.30313593E+04</pdfrwt>
<totfact> 0.10535230E+00</totfact>
</mgrwt>
</event>
<event>
 4    1  0.2058093E-008  0.2275468E+04  0.7816531E-02  0.8487657E-01
          2   -1    0    0  501    0  0.00000000000E+00  0.00000000000E+00  0.17603004578E+04  0.17603004578E+04  0.00000000000E+00 0.  1.
         -2   -1    0    0    0  501 -0.00000000000E+00 -0.00000000000E+00 -0.73535126919E+03  0.73535126919E+03  0.00000000000E+00 0. -1.
    2000013    1    1    2    0    0 -0.15796185084E+03  0.17972737643E+03 -0.12202518806E+03  0.98724061033E+03  0.95000000000E+03 0.  0.
   -2000013    1    1    2    0    0  0.15796185084E+03 -0.17972737643E+03  0.11469743767E+04  0.15084111167E+04  0.95000000000E+03 0.  0.
<mgrwt>
<rscale>  0 0.22754685E+04</rscale>
<asrwt>0</asrwt>
<pdfrwt beam="1">  1        2 0.27081545E+00 0.22754685E+04</pdfrwt>
<pdfrwt beam="2">  1       -2 0.11313097E+00 0.22754685E+04</pdfrwt>
<totfact> 0.50614820E+00</totfact>
</mgrwt>
</event>
<event>
 4    1  0.2058093E-008  0.2209988E+04  0.7816531E-02  0.8514282E-01
         -1   -1    0    0    0  501 -0.00000000000E+00  0.00000000000E+00  0.95996916935E+03  0.95996916935E+03  0.00000000000E+00 0. -1.
          1   -1    0    0  501    0  0.00000000000E+00 -0.00000000000E+00 -0.12719281664E+04  0.12719281664E+04  0.00000000000E+00 0.  1.
    2000013    1    1    2    0    0  0.92120217483E+02 -0.55574545548E+03 -0.19056339876E+03  0.11207825635E+04  0.95000000000E+03 0.  0.
   -2000013    1    1    2    0    0 -0.92120217483E+02  0.55574545548E+03 -0.12139559830E+03  0.11111147722E+04  0.95000000000E+03 0.  0.
<mgrwt>
<rscale>  0 0.22099881E+04</rscale>
<asrwt>0</asrwt>
<pdfrwt beam="2">  1        1 0.19568126E+00 0.22099881E+04</pdfrwt>
<pdfrwt beam="1">  1       -1 0.14768756E+00 0.22099881E+04</pdfrwt>
<totfact> 0.31402411E+00</totfact>
</mgrwt>
</event>
<event>
 4    1  0.2058093E-008  0.2354153E+04  0.7816531E-02  0.8456870E-01
          1   -1    0    0  501    0  0.00000000000E+00  0.00000000000E+00  0.32953454070E+04  0.32953454070E+04  0.00000000000E+00 0.  1.
         -1   -1    0    0    0  501 -0.00000000000E+00 -0.00000000000E+00 -0.42044437170E+03  0.42044437170E+03  0.00000000000E+00 0. -1.
    2000013    1    1    2    0    0  0.32271842535E+03 -0.61526563071E+03  0.14652612744E+04  0.18794120306E+04  0.95000000000E+03 0.  0.
   -2000013    1    1    2    0    0 -0.32271842535E+03  0.61526563071E+03  0.14096397610E+04  0.18363777482E+04  0.95000000000E+03 0.  0.
<mgrwt>
<rscale>  0 0.23541533E+04</rscale>
<asrwt>0</asrwt>
<pdfrwt beam="1">  1        1 0.50697620E+00 0.23541533E+04</pdfrwt>
<pdfrwt beam="2">  1       -1 0.64683752E-01 0.23541533E+04</pdfrwt>
<totfact> 0.78587356E-01</totfact>
</mgrwt>
</event>
<event>
 4    1  0.2058093E-008  0.2997906E+04  0.7816531E-02  0.8244329E-01
          2   -1    0    0  501    0  0.00000000000E+00  0.00000000000E+00  0.96393495154E+03  0.96393495154E+03  0.00000000000E+00 0.  1.
         -2   -1    0    0    0  501 -0.00000000000E+00 -0.00000000000E+00 -0.23309251094E+04  0.23309251094E+04  0.00000000000E+00 0. -1.
    2000013    1    1    2    0    0 -0.13301118162E+03 -0.11030815365E+04 -0.31918015745E+03  0.14962809975E+04  0.95000000000E+03 0.  0.
   -2000013    1    1    2    0    0  0.13301118162E+03  0.11030815365E+04 -0.10478100004E+04  0.17985790634E+04  0.95000000000E+03 0.  0.
<mgrwt>
<rscale>  0 0.29979061E+04</rscale>
<asrwt>0</asrwt>
<pdfrwt beam="1">  1        2 0.14829769E+00 0.29979061E+04</pdfrwt>
<pdfrwt beam="2">  1       -2 0.35860386E+00 0.29979061E+04</pdfrwt>
<totfact> 0.31228221E-01</totfact>
</mgrwt>
</event>
<event>
 4    1  0.2058093E-008  0.4371919E+04  0.7816531E-02  0.7933452E-01
         -2   -1    0    0    0  501 -0.00000000000E+00  0.00000000000E+00  0.15004935952E+04  0.15004935952E+04  0.00000000000E+00 0. -1.
          2   -1    0    0  501    0  0.00000000000E+00 -0.00000000000E+00 -0.31845651792E+04  0.31845651792E+04  0.00000000000E+00 0.  1.
    2000013    1    1    2    0    0  0.76403981843E+03  0.17282631960E+04 -0.14341211925E+04  0.25553579228E+04  0.95000000000E+03 0.  0.
   -2000013    1    1    2    0    0 -0.76403981843E+03 -0.17282631960E+04 -0.24995039156E+03  0.21297008516E+04  0.95000000000E+03 0.  0.
<mgrwt>
<rscale>  0 0.43719193E+04</rscale>
<asrwt>0</asrwt>
<pdfrwt beam="2">  1        2 0.48993310E+00 0.43719193E+04</pdfrwt>
<pdfrwt beam="1">  1       -2 0.23084517E+00 0.43719193E+04</pdfrwt>
<totfact> 0.85737904E-02</totfact>
</mgrwt>
</event>
<event>
 4    1  0.2058093E-008  0.2565431E+04  0.7816531E-02  0.8380039E-01
          2   -1    0    0  501    0  0.00000000000E+00  0.00000000000E+00  0.16521090445E+04  0.16521090445E+04  0.00000000000E+00 0.  1.
         -2   -1    0    0    0  501 -0.00000000000E+00 -0.00000000000E+00 -0.99591396121E+03  0.99591396121E+03  0.00000000000E+00 0. -1.
    2000013    1    1    2    0    0  0.58896046039E+03 -0.51734357728E+03  0.69787628247E+03  0.14156447671E+04  0.95000000000E+03 0.  0.
   -2000013    1    1    2    0    0 -0.58896046039E+03  0.51734357728E+03 -0.41681199134E+02  0.12323782387E+04  0.95000000000E+03 0.  0.
<mgrwt>
<rscale>  0 0.25654305E+04</rscale>
<asrwt>0</asrwt>
<pdfrwt beam="1">  1        2 0.25417062E+00 0.25654305E+04</pdfrwt>
<pdfrwt beam="2">  1       -2 0.15321753E+00 0.25654305E+04</pdfrwt>
<totfact> 0.26199199E+00</totfact>
</mgrwt>
</event>
<event>
 4    1  0.2058093E-008  0.2913637E+04  0.7816531E-02  0.8268832E-01
          2   -1    0    0  501    0  0.00000000000E+00  0.00000000000E+00  0.20104586122E+04  0.20104586122E+04  0.00000000000E+00 0.  1.
         -2   -1    0    0    0  501 -0.00000000000E+00 -0.00000000000E+00 -0.10556397754E+04  0.10556397754E+04  0.00000000000E+00 0. -1.
    2000013    1    1    2    0    0 -0.91493444644E+03 -0.16215941489E+03 -0.15083883981E+03  0.13374053509E+04  0.95000000000E+03 0.  0.
   -2000013    1    1    2    0    0  0.91493444644E+03  0.16215941489E+03  0.11056576766E+04  0.17286930366E+04  0.95000000000E+03 0.  0.
<mgrwt>
<rscale>  0 0.29136370E+04</rscale>
<asrwt>0</asrwt>
<pdfrwt beam="1">  1        2 0.30930132E+00 0.29136370E+04</pdfrwt>
<pdfrwt beam="2">  1       -2 0.16240612E+00 0.29136370E+04</pdfrwt>
<totfact> 0.13744236E+00</totfact>
</mgrwt>
</event>
<event>
 4    1  0.2058093E-008  0.2719267E+04  0.7816531E-02  0.8328781E-01
          3   -1    0    0  501    0  0.00000000000E+00  0.00000000000E+00  0.91245610620E+03  0.91245610620E+03  0.00000000000E+00 0.  1.
         -3   -1    0    0    0  501 -0.00000000000E+00 -0.00000000000E+00 -0.20259638678E+04  0.20259638678E+04  0.00000000000E+00 0. -1.
    2000013    1    1    2    0    0 -0.76380395816E+03 -0.59324540965E+03 -0.66887806508E+03  0.15116991991E+04  0.95000000000E+03 0.  0.
   -2000013    1    1    2    0    0  0.76380395816E+03  0.59324540965E+03 -0.44462969654E+03  0.14267207749E+04  0.95000000000E+03 0.  0.
<mgrwt>
<rscale>  0 0.27192669E+04</rscale>
<asrwt>0</asrwt>
<pdfrwt beam="1">  1        3 0.14037786E+00 0.27192669E+04</pdfrwt>
<pdfrwt beam="2">  1       -3 0.31168674E+00 0.27192669E+04</pdfrwt>
<totfact> 0.28556614E-02</totfact>
</mgrwt>
</event>
<event>
 4    1  0.2058093E-008  0.2633114E+04  0.7816531E-02  0.8357039E-01
         -2   -1    0    0    0  501 -0.00000000000E+00  0.00000000000E+00  0.13525044327E+04  0.13525044327E+04  0.00000000000E+00 0. -1.
          2   -1    0    0  501    0  0.00000000000E+00 -0.00000000000E+00 -0.12815652239E+04  0.12815652239E+04  0.00000000000E+00 0.  1.
    2000013    1    1    2    0    0 -0.53816717674E+03 -0.60431693792E+03 -0.38420588923E+03  0.13057323757E+04  0.95000000000E+03 0.  0.
   -2000013    1    1    2    0    0  0.53816717674E+03  0.60431693792E+03  0.45514509809E+03  0.13283372809E+04  0.95000000000E+03 0.  0.
<mgrwt>
<rscale>  0 0.26331142E+04</rscale>
<asrwt>0</asrwt>
<pdfrwt beam="2">  1        2 0.19716388E+00 0.26331142E+04</pdfrwt>
<pdfrwt beam="1">  1       -2 0.20807760E+00 0.26331142E+04</pdfrwt>
<totfact> 0.17614926E+00</totfact>
</mgrwt>
</event>
<event>
 4    1  0.2058093E-008  0.2075541E+04  0.7816531E-02  0.8572095E-01
          2   -1    0    0  501    0  0.00000000000E+00  0.00000000000E+00  0.19478991364E+04  0.19478991364E+04  0.00000000000E+00 0.  1.
         -2   -1    0    0    0  501 -0.00000000000E+00 -0.00000000000E+00 -0.55288687197E+03  0.55288687197E+03  0.00000000000E+00 0. -1.
    2000013    1    1    2    0    0  0.65102531008E+02 -0.10413558971E+03  0.21647930760E+03  0.98206204041E+03  0.95000000000E+03 0.  0.
   -2000013    1    1    2    0    0 -0.65102531008E+02  0.10413558971E+03  0.11785329569E+04  0.15187239680E+04  0.95000000000E+03 0.  0.
<mgrwt>
<rscale>  0 0.20755412E+04</rscale>
<asrwt>0</asrwt>
<pdfrwt beam="1">  1        2 0.29967679E+00 0.20755412E+04</pdfrwt>
<pdfrwt beam="2">  1       -2 0.85059520E-01 0.20755412E+04</pdfrwt>
<totfact> 0.79330632E+00</totfact>
</mgrwt>
</event>
<event>
 4    1  0.2058093E-008  0.2059495E+04  0.7816531E-02  0.8579299E-01
         -2   -1    0    0    0  501 -0.00000000000E+00  0.00000000000E+00  0.63806399522E+03  0.63806399522E+03  0.00000000000E+00 0. -1.
          2   -1    0    0  501    0  0.00000000000E+00 -0.00000000000E+00 -0.16618705293E+04  0.16618705293E+04  0.00000000000E+00 0.  1.
    2000013    1    1    2    0    0 -0.35313396983E+03 -0.14764132944E+03 -0.39278145506E+03  0.10969406703E+04  0.95000000000E+03 0.  0.
   -2000013    1    1    2    0    0  0.35313396983E+03  0.14764132944E+03 -0.63102507899E+03  0.12029938541E+04  0.95000000000E+03 0.  0.
<mgrwt>
<rscale>  0 0.20594948E+04</rscale>
<asrwt>0</asrwt>
<pdfrwt beam="2">  1        2 0.25567239E+00 0.20594948E+04</pdfrwt>
<pdfrwt beam="1">  1       -2 0.98163692E-01 0.20594948E+04</pdfrwt>
<totfact> 0.82178424E+00</totfact>
</mgrwt>
</event>
<event>
 4    1  0.2058093E-008  0.2208319E+04  0.7816531E-02  0.8514974E-01
         -1   -1    0    0    0  501 -0.00000000000E+00  0.00000000000E+00  0.21269022801E+04  0.21269022801E+04  0.00000000000E+00 0. -1.
          1   -1    0    0  501    0  0.00000000000E+00 -0.00000000000E+00 -0.57321300690E+03  0.57321300690E+03  0.00000000000E+00 0.  1.
    2000013    1    1    2    0    0  0.21752517236E+03  0.51827587944E+03  0.74356190675E+03  0.13309062315E+04  0.95000000000E+03 0.  0.
   -2000013    1    1    2    0    0 -0.21752517236E+03 -0.51827587944E+03  0.81012736642E+03  0.13692090555E+04  0.95000000000E+03 0.  0.
<mgrwt>
<rscale>  0 0.22083189E+04</rscale>
<asrwt>0</asrwt>
<pdfrwt beam="2">  1        1 0.88186617E-01 0.22083189E+04</pdfrwt>
<pdfrwt beam="1">  1       -1 0.32721573E+00 0.22083189E+04</pdfrwt>
<totfact> 0.73207433E-01</totfact>
</mgrwt>
</event>
<event>
 4    1  0.2058093E-008  0.2096966E+04  0.7816531E-02  0.8562581E-01
         -2   -1    0    0    0  501 -0.00000000000E+00  0.00000000000E+00  0.36850268569E+03  0.36850268569E+03  0.00000000000E+00 0. -1.
          2   -1    0    0  501    0  0.00000000000E+00 -0.00000000000E+00 -0.29831983406E+04  0.29831983406E+04  0.00000000000E+00 0.  1.
    2000013    1    1    2    0    0 -0.12404969980E+03 -0.41127436558E+03 -0.11302135656E+04  0.15376662953E+04  0.95000000000E+03 0.  0.
   -2000013    1    1    2    0    0  0.12404969980E+03  0.41127436558E+03 -0.14844820894E+04  0.18140347310E+04  0.95000000000E+03 0.  0.
<mgrwt>
<rscale>  0 0.20969660E+04</rscale>
<asrwt>0</asrwt>
<pdfrwt beam="2">  1        2 0.45895359E+00 0.20969660E+04</pdfrwt>
<pdfrwt beam="1">  1       -2 0.56692721E-01 0.20969660E+04</pdfrwt>
<totfact> 0.48069580E+00</totfact>
</mgrwt>
</event>
<event>
 4    1  0.2058093E-008  0.3127202E+04  0.7816531E-02  0.8208312E-01
          2   -1    0    0  501    0  0.00000000000E+00  0.00000000000E+00  0.26407350160E+04  0.26407350160E+04  0.00000000000E+00 0.  1.
         -2   -1    0    0    0  501 -0.00000000000E+00 -0.00000000000E+00 -0.92582091921E+03  0.92582091921E+03  0.00000000000E+00 0. -1.
    2000013    1    1    2    0    0 -0.10597462739E+04 -0.42581869348E+03  0.14138079072E+04  0.20507892440E+04  0.95000000000E+03 0.  0.
   -2000013    1    1    2    0    0  0.10597462739E+04  0.42581869348E+03  0.30110618959E+03  0.15157666912E+04  0.95000000000E+03 0.  0.
<mgrwt>
<rscale>  0 0.31272018E+04</rscale>
<asrwt>0</asrwt>
<pdfrwt beam="1">  1        2 0.40626692E+00 0.31272018E+04</pdfrwt>
<pdfrwt beam="2">  1       -2 0.14243399E+00 0.31272018E+04</pdfrwt>
<totfact> 0.83733998E-01</totfact>
</mgrwt>
</event>
<event>
 4    1  0.2058093E-008  0.2731356E+04  0.7816531E-02  0.8324902E-01
          2   -1    0    0  501    0  0.00000000000E+00  0.00000000000E+00  0.10629568999E+04  0.10629568999E+04  0.00000000000E+00 0.  1.
         -2   -1    0    0    0  501 -0.00000000000E+00 -0.00000000000E+00 -0.17546117170E+04  0.17546117170E+04  0.00000000000E+00 0. -1.
    2000013    1    1    2    0    0  0.18547945038E+03  0.96124197626E+03 -0.41258376824E+03  0.14251716140E+04  0.95000000000E+03 0.  0.
   -2000013    1    1    2    0    0 -0.18547945038E+03 -0.96124197626E+03 -0.27907104882E+03  0.13923970029E+04  0.95000000000E+03 0.  0.
<mgrwt>
<rscale>  0 0.27313562E+04</rscale>
<asrwt>0</asrwt>
<pdfrwt beam="1">  1        2 0.16353183E+00 0.27313562E+04</pdfrwt>
<pdfrwt beam="2">  1       -2 0.26994026E+00 0.27313562E+04</pdfrwt>
<totfact> 0.97512297E-01</totfact>
</mgrwt>
</event>
<event>
 4    1  0.2058093E-008  0.2462393E+04  0.7816531E-02  0.8416507E-01
         -2   -1    0    0    0  501 -0.00000000000E+00  0.00000000000E+00  0.21282163238E+04  0.21282163238E+04  0.00000000000E+00 0. -1.
          2   -1    0    0  501    0  0.00000000000E+00 -0.00000000000E+00 -0.71226067720E+03  0.71226067720E+03  0.00000000000E+00 0.  1.
    2000013    1    1    2    0    0  0.26985838329E+03 -0.66686637594E+03  0.35091844684E+03  0.12422471842E+04  0.95000000000E+03 0.  0.
   -2000013    1    1    2    0    0 -0.26985838329E+03  0.66686637594E+03  0.10650371998E+04  0.15982298168E+04  0.95000000000E+03 0.  0.
<mgrwt>
<rscale>  0 0.24623930E+04</rscale>
<asrwt>0</asrwt>
<pdfrwt beam="2">  1        2 0.10957857E+00 0.24623930E+04</pdfrwt>
<pdfrwt beam="1">  1       -2 0.32741789E+00 0.24623930E+04</pdfrwt>
<totfact> 0.77266254E-01</totfact>
</mgrwt>
</event>
<event>
 4    1  0.2058093E-008  0.2472302E+04  0.7816531E-02  0.8412920E-01
         -2   -1    0    0    0  501 -0.00000000000E+00  0.00000000000E+00  0.63249982469E+03  0.63249982469E+03  0.00000000000E+00 0. -1.
          2   -1    0    0  501    0  0.00000000000E+00 -0.00000000000E+00 -0.24159208941E+04  0.24159208941E+04  0.00000000000E+00 0.  1.
    2000013    1    1    2    0    0 -0.69138109118E+03  0.34022111039E+03 -0.11116302818E+04  0.16528702613E+04  0.95000000000E+03 0.  0.
   -2000013    1    1    2    0    0  0.69138109118E+03 -0.34022111039E+03 -0.67179078760E+03  0.13955504575E+04  0.95000000000E+03 0.  0.
<mgrwt>
<rscale>  0 0.24723022E+04</rscale>
<asrwt>0</asrwt>
<pdfrwt beam="2">  1        2 0.37168014E+00 0.24723022E+04</pdfrwt>
<pdfrwt beam="1">  1       -2 0.97307666E-01 0.24723022E+04</pdfrwt>
<totfact> 0.30650936E+00</totfact>
</mgrwt>
</event>
<event>
 4    1  0.2058093E-008  0.2376117E+04  0.7816531E-02  0.8448500E-01
          2   -1    0    0  501    0  0.00000000000E+00  0.00000000000E+00  0.88839944376E+03  0.88839944376E+03  0.00000000000E+00 0.  1.
         -2   -1    0    0    0  501 -0.00000000000E+00 -0.00000000000E+00 -0.15887928305E+04  0.15887928305E+04  0.00000000000E+00 0. -1.
    2000013    1    1    2    0    0  0.70605786411E+03  0.73189988101E+02 -0.27568485883E+03  0.12175289004E+04  0.95000000000E+03 0.  0.
   -2000013    1    1    2    0    0 -0.70605786411E+03 -0.73189988101E+02 -0.42470852791E+03  0.12596633739E+04  0.95000000000E+03 0.  0.
<mgrwt>
<rscale>  0 0.23761167E+04</rscale>
<asrwt>0</asrwt>
<pdfrwt beam="1">  1        2 0.13667684E+00 0.23761167E+04</pdfrwt>
<pdfrwt beam="2">  1       -2 0.24442967E+00 0.23761167E+04</pdfrwt>
<totfact> 0.18706855E+00</totfact>
</mgrwt>
</event>
<event>
 4    1  0.2058093E-008  0.3289488E+04  0.7816531E-02  0.8165575E-01
          2   -1    0    0  501    0  0.00000000000E+00  0.00000000000E+00  0.14256541676E+04  0.14256541676E+04  0.00000000000E+00 0.  1.
         -2   -1    0    0    0  501 -0.00000000000E+00 -0.00000000000E+00 -0.18975023352E+04  0.18975023352E+04  0.00000000000E+00 0. -1.
    2000013    1    1    2    0    0 -0.11755643259E+04 -0.20535586745E+03  0.38564538654E+03  0.15733228787E+04  0.95000000000E+03 0.  0.
   -2000013    1    1    2    0    0  0.11755643259E+04  0.20535586745E+03 -0.85749355418E+03  0.17498336241E+04  0.95000000000E+03 0.  0.
<mgrwt>
<rscale>  0 0.32894876E+04</rscale>
<asrwt>0</asrwt>
<pdfrwt beam="1">  1        2 0.21933141E+00 0.32894876E+04</pdfrwt>
<pdfrwt beam="2">  1       -2 0.29192344E+00 0.32894876E+04</pdfrwt>
<totfact> 0.41643922E-01</totfact>
</mgrwt>
</event>
<event>
 4    1  0.2058093E-008  0.2156820E+04  0.7816531E-02  0.8536618E-01
          2   -1    0    0  501    0  0.00000000000E+00  0.00000000000E+00  0.32903785049E+04  0.32903785049E+04  0.00000000000E+00 0.  1.
         -2   -1    0    0    0  501 -0.00000000000E+00 -0.00000000000E+00 -0.35344523482E+03  0.35344523482E+03  0.00000000000E+00 0. -1.
    2000013    1    1    2    0    0 -0.42671030783E+03 -0.27928340107E+03  0.15017318528E+04  0.18487237388E+04  0.95000000000E+03 0.  0.
   -2000013    1    1    2    0    0  0.42671030783E+03  0.27928340107E+03  0.14352014173E+04  0.17951000009E+04  0.95000000000E+03 0.  0.
<mgrwt>
<rscale>  0 0.21568204E+04</rscale>
<asrwt>0</asrwt>
<pdfrwt beam="1">  1        2 0.50621206E+00 0.21568204E+04</pdfrwt>
<pdfrwt beam="2">  1       -2 0.54376192E-01 0.21568204E+04</pdfrwt>
<totfact> 0.33102465E+00</totfact>
</mgrwt>
</event>
<event>
 4    1  0.2058093E-008  0.2831841E+04  0.7816531E-02  0.8293451E-01
          2   -1    0    0  501    0  0.00000000000E+00  0.00000000000E+00  0.22083384263E+04  0.22083384263E+04  0.00000000000E+00 0.  1.
         -2   -1    0    0    0  501 -0.00000000000E+00 -0.00000000000E+00 -0.90784553089E+03  0.90784553089E+03  0.00000000000E+00 0. -1.
    2000013    1    1    2    0    0 -0.39533909433E+03  0.97234828816E+03  0.62383712613E+03  0.15470704421E+04  0.95000000000E+03 0.  0.
   -2000013    1    1    2    0    0  0.39533909433E+03 -0.97234828816E+03  0.67665576928E+03  0.15691135150E+04  0.95000000000E+03 0.  0.
<mgrwt>
<rscale>  0 0.28318405E+04</rscale>
<asrwt>0</asrwt>
<pdfrwt beam="1">  1        2 0.33974437E+00 0.28318405E+04</pdfrwt>
<pdfrwt beam="2">  1       -2 0.13966854E+00 0.28318405E+04</pdfrwt>
<totfact> 0.16020873E+00</totfact>
</mgrwt>
</event>
<event>
 4    1  0.2058093E-008  0.4276088E+04  0.7816531E-02  0.7951054E-01
          1   -1    0    0  501    0  0.00000000000E+00  0.00000000000E+00  0.21292089715E+04  0.21292089715E+04  0.00000000000E+00 0.  1.
         -1   -1    0    0    0  501 -0.00000000000E+00 -0.00000000000E+00 -0.21469158747E+04  0.21469158747E+04  0.00000000000E+00 0. -1.
    2000013    1    1    2    0    0  0.11588332403E+04  0.12385232064E+04 -0.89874777610E+03  0.21417473653E+04  0.95000000000E+03 0.  0.
   -2000013    1    1    2    0    0 -0.11588332403E+04 -0.12385232064E+04  0.88104087287E+03  0.21343774810E+04  0.95000000000E+03 0.  0.
<mgrwt>
<rscale>  0 0.42760882E+04</rscale>
<asrwt>0</asrwt>
<pdfrwt beam="1">  1        1 0.32757061E+00 0.42760882E+04</pdfrwt>
<pdfrwt beam="2">  1       -1 0.33029475E+00 0.42760882E+04</pdfrwt>
<totfact> 0.39039912E-02</totfact>
</mgrwt>
</event>
<event>
 4    1  0.2058093E-008  0.2460181E+04  0.7816531E-02  0.8417310E-01
          2   -1    0    0  501    0  0.00000000000E+00  0.00000000000E+00  0.15404960729E+04  0.15404960729E+04  0.00000000000E+00 0.  1.
         -2   -1    0    0    0  501 -0.00000000000E+00 -0.00000000000E+00 -0.98223065062E+03  0.98223065062E+03  0.00000000000E+00 0. -1.
    2000013    1    1    2    0    0 -0.50640946184E+03 -0.18413989596E+03  0.85943932029E+03  0.13897819935E+04  0.95000000000E+03 0.  0.
   -2000013    1    1    2    0    0  0.50640946184E+03  0.18413989596E+03 -0.30117389801E+03  0.11329447300E+04  0.95000000000E+03 0.  0.
<mgrwt>
<rscale>  0 0.24601809E+04</rscale>
<asrwt>0</asrwt>
<pdfrwt beam="1">  1        2 0.23699940E+00 0.24601809E+04</pdfrwt>
<pdfrwt beam="2">  1       -2 0.15111241E+00 0.24601809E+04</pdfrwt>
<totfact> 0.31666136E+00</totfact>
</mgrwt>
</event>
<event>
 4    1  0.2058093E-008  0.2036899E+04  0.7816531E-02  0.8589561E-01
         -1   -1    0    0    0  501 -0.00000000000E+00  0.00000000000E+00  0.14440304159E+04  0.14440304159E+04  0.00000000000E+00 0. -1.
          1   -1    0    0  501    0  0.00000000000E+00 -0.00000000000E+00 -0.71829483478E+03  0.71829483478E+03  0.00000000000E+00 0.  1.
    2000013    1    1    2    0    0 -0.34176575602E+03 -0.13239258630E+03  0.34142603498E+03  0.10739661849E+04  0.95000000000E+03 0.  0.
   -2000013    1    1    2    0    0  0.34176575602E+03  0.13239258630E+03  0.38430954615E+03  0.10883590658E+04  0.95000000000E+03 0.  0.
<mgrwt>
<rscale>  0 0.20368992E+04</rscale>
<asrwt>0</asrwt>
<pdfrwt beam="2">  1        1 0.11050690E+00 0.20368992E+04</pdfrwt>
<pdfrwt beam="1">  1       -1 0.22215852E+00 0.20368992E+04</pdfrwt>
<totfact> 0.25775626E+00</totfact>
</mgrwt>
</event>
<event>
 4    1  0.2058093E-008  0.2144216E+04  0.7816531E-02  0.8542012E-01
          2   -1    0    0  501    0  0.00000000000E+00  0.00000000000E+00  0.11650143509E+04  0.11650143509E+04  0.00000000000E+00 0.  1.
         -2   -1    0    0    0  501 -0.00000000000E+00 -0.00000000000E+00 -0.98661022833E+03  0.98661022833E+03  0.00000000000E+00 0. -1.
    2000013    1    1    2    0    0 -0.35225972807E+03 -0.34195713375E+03  0.16623631308E+03  0.10821996623E+04  0.95000000000E+03 0.  0.
   -2000013    1    1    2    0    0  0.35225972807E+03  0.34195713375E+03  0.12167809502E+02  0.10694249169E+04  0.95000000000E+03 0.  0.
<mgrwt>
<rscale>  0 0.21442155E+04</rscale>
<asrwt>0</asrwt>
<pdfrwt beam="1">  1        2 0.17923298E+00 0.21442155E+04</pdfrwt>
<pdfrwt beam="2">  1       -2 0.15178619E+00 0.21442155E+04</pdfrwt>
<totfact> 0.53005287E+00</totfact>
</mgrwt>
</event>
<event>
 4    1  0.2058093E-008  0.3282071E+04  0.7816531E-02  0.8167472E-01
          2   -1    0    0  501    0  0.00000000000E+00  0.00000000000E+00  0.31359174724E+04  0.31359174724E+04  0.00000000000E+00 0.  1.
         -2   -1    0    0    0  501 -0.00000000000E+00 -0.00000000000E+00 -0.85875926291E+03  0.85875926291E+03  0.00000000000E+00 0. -1.
    2000013    1    1    2    0    0  0.62421496448E+01  0.12911950062E+04  0.71124206548E+03  0.17537356654E+04  0.95000000000E+03 0.  0.
   -2000013    1    1    2    0    0 -0.62421496448E+01 -0.12911950062E+04  0.15659161440E+04  0.22409410698E+04  0.95000000000E+03 0.  0.
<mgrwt>
<rscale>  0 0.32820714E+04</rscale>
<asrwt>0</asrwt>
<pdfrwt beam="1">  1        2 0.48244884E+00 0.32820714E+04</pdfrwt>
<pdfrwt beam="2">  1       -2 0.13211681E+00 0.32820714E+04</pdfrwt>
<totfact> 0.49710137E-01</totfact>
</mgrwt>
</event>
<event>
 4    1  0.2058093E-008  0.2109703E+04  0.7816531E-02  0.8556981E-01
         -2   -1    0    0    0  501 -0.00000000000E+00  0.00000000000E+00  0.32135875356E+03  0.32135875356E+03  0.00000000000E+00 0. -1.
          2   -1    0    0  501    0  0.00000000000E+00 -0.00000000000E+00 -0.34625209877E+04  0.34625209877E+04  0.00000000000E+00 0.  1.
    2000013    1    1    2    0    0  0.76056833409E+02  0.44012136559E+03 -0.13848807129E+04  0.17377819332E+04  0.95000000000E+03 0.  0.
   -2000013    1    1    2    0    0 -0.76056833409E+02 -0.44012136559E+03 -0.17562815213E+04  0.20460978081E+04  0.95000000000E+03 0.  0.
<mgrwt>
<rscale>  0 0.21097028E+04</rscale>
<asrwt>0</asrwt>
<pdfrwt beam="2">  1        2 0.53269553E+00 0.21097028E+04</pdfrwt>
<pdfrwt beam="1">  1       -2 0.49439809E-01 0.21097028E+04</pdfrwt>
<totfact> 0.30915320E+00</totfact>
</mgrwt>
</event>
<event>
 4    1  0.2058093E-008  0.2910505E+04  0.7816531E-02  0.8269759E-01
         -2   -1    0    0    0  501 -0.00000000000E+00  0.00000000000E+00  0.11716062004E+04  0.11716062004E+04  0.00000000000E+00 0. -1.
          2   -1    0    0  501    0  0.00000000000E+00 -0.00000000000E+00 -0.18075692087E+04  0.18075692087E+04  0.00000000000E+00 0.  1.
    2000013    1    1    2    0    0  0.67726712776E+03 -0.17826280283E+03 -0.11894147967E+04  0.16756121114E+04  0.95000000000E+03 0.  0.
   -2000013    1    1    2    0    0 -0.67726712776E+03  0.17826280283E+03  0.55345178837E+03  0.13035632978E+04  0.95000000000E+03 0.  0.
<mgrwt>
<rscale>  0 0.29105046E+04</rscale>
<asrwt>0</asrwt>
<pdfrwt beam="2">  1        2 0.27808757E+00 0.29105046E+04</pdfrwt>
<pdfrwt beam="1">  1       -2 0.18024711E+00 0.29105046E+04</pdfrwt>
<totfact> 0.13311586E+00</totfact>
</mgrwt>
</event>
<event>
 4    1  0.2058093E-008  0.2662387E+04  0.7816531E-02  0.8347313E-01
         -1   -1    0    0    0  501 -0.00000000000E+00  0.00000000000E+00  0.15732169758E+04  0.15732169758E+04  0.00000000000E+00 0.  1.
          1   -1    0    0  501    0  0.00000000000E+00 -0.00000000000E+00 -0.11264025195E+04  0.11264025195E+04  0.00000000000E+00 0. -1.
    2000013    1    1    2    0    0 -0.55337726041E+03  0.74764935918E+03  0.15637977618E+03  0.13387160233E+04  0.95000000000E+03 0.  0.
   -2000013    1    1    2    0    0  0.55337726041E+03 -0.74764935918E+03  0.29043468017E+03  0.13609034720E+04  0.95000000000E+03 0.  0.
<mgrwt>
<rscale>  0 0.26623866E+04</rscale>
<asrwt>0</asrwt>
<pdfrwt beam="2">  1        1 0.17329270E+00 0.26623866E+04</pdfrwt>
<pdfrwt beam="1">  1       -1 0.24203338E+00 0.26623866E+04</pdfrwt>
<totfact> 0.83417188E-01</totfact>
</mgrwt>
</event>
<event>
 4    1  0.2058093E-008  0.2972727E+04  0.7816531E-02  0.8251562E-01
          1   -1    0    0  501    0  0.00000000000E+00  0.00000000000E+00  0.15526276915E+04  0.15526276915E+04  0.00000000000E+00 0.  1.
         -1   -1    0    0    0  501 -0.00000000000E+00 -0.00000000000E+00 -0.14229269191E+04  0.14229269191E+04  0.00000000000E+00 0. -1.
    2000013    1    1    2    0    0  0.10629447421E+04 -0.22405563653E+03 -0.29147041691E+03  0.14722457189E+04  0.95000000000E+03 0.  0.
   -2000013    1    1    2    0    0 -0.10629447421E+04  0.22405563653E+03  0.42117118927E+03  0.15033088916E+04  0.95000000000E+03 0.  0.
<mgrwt>
<rscale>  0 0.29727265E+04</rscale>
<asrwt>0</asrwt>
<pdfrwt beam="1">  1        1 0.23886580E+00 0.29727265E+04</pdfrwt>
<pdfrwt beam="2">  1       -1 0.21891183E+00 0.29727265E+04</pdfrwt>
<totfact> 0.57431865E-01</totfact>
</mgrwt>
</event>
<event>
 4    1  0.2058093E-008  0.2316071E+04  0.7816531E-02  0.8471611E-01
         -2   -1    0    0    0  501 -0.00000000000E+00  0.00000000000E+00  0.71580813018E+03  0.71580813018E+03  0.00000000000E+00 0.  1.
          2   -1    0    0  501    0  0.00000000000E+00 -0.00000000000E+00 -0.18734712207E+04  0.18734712207E+04  0.00000000000E+00 0. -1.
    2000013    1    1    2    0    0 -0.56630148941E+03 -0.94755265000E+02 -0.20995487769E+03  0.11297154455E+04  0.95000000000E+03 0.  0.
   -2000013    1    1    2    0    0  0.56630148941E+03  0.94755265000E+02 -0.94770821280E+03  0.14595639053E+04  0.95000000000E+03 0.  0.
<mgrwt>
<rscale>  0 0.23160708E+04</rscale>
<asrwt>0</asrwt>
<pdfrwt beam="2">  1        2 0.28822634E+00 0.23160708E+04</pdfrwt>
<pdfrwt beam="1">  1       -2 0.11012433E+00 0.23160708E+04</pdfrwt>
<totfact> 0.46603035E+00</totfact>
</mgrwt>
</event>
<event>
 4    1  0.2058093E-008  0.2979480E+04  0.7816531E-02  0.8249615E-01
         -2   -1    0    0    0  501 -0.00000000000E+00  0.00000000000E+00  0.21329690789E+04  0.21329690789E+04  0.00000000000E+00 0. -1.
          2   -1    0    0  501    0  0.00000000000E+00 -0.00000000000E+00 -0.10404862669E+04  0.10404862669E+04  0.00000000000E+00 0.  1.
    2000013    1    1    2    0    0 -0.87801570537E+03  0.47356088626E+03  0.11503097946E+04  0.17946821767E+04  0.95000000000E+03 0.  0.
   -2000013    1    1    2    0    0  0.87801570537E+03 -0.47356088626E+03 -0.57826982606E+02  0.13787731691E+04  0.95000000000E+03 0.  0.
<mgrwt>
<rscale>  0 0.29794798E+04</rscale>
<asrwt>0</asrwt>
<pdfrwt beam="2">  1        2 0.16007481E+00 0.29794798E+04</pdfrwt>
<pdfrwt beam="1">  1       -2 0.32814909E+00 0.29794798E+04</pdfrwt>
<totfact> 0.43373991E-01</totfact>
</mgrwt>
</event>
<event>
 4    1  0.2058093E-008  0.2494285E+04  0.7816531E-02  0.8405024E-01
         -2   -1    0    0    0  501 -0.00000000000E+00  0.00000000000E+00  0.19253877099E+04  0.19253877099E+04  0.00000000000E+00 0. -1.
          2   -1    0    0  501    0  0.00000000000E+00 -0.00000000000E+00 -0.80781864167E+03  0.80781864167E+03  0.00000000000E+00 0.  1.
    2000013    1    1    2    0    0 -0.38191602062E+03  0.53800692138E+03  0.10698878768E+04  0.15755860380E+04  0.95000000000E+03 0.  0.
   -2000013    1    1    2    0    0  0.38191602062E+03 -0.53800692138E+03  0.47681191397E+02  0.11576203135E+04  0.95000000000E+03 0.  0.
<mgrwt>
<rscale>  0 0.24942847E+04</rscale>
<asrwt>0</asrwt>
<pdfrwt beam="2">  1        2 0.12427979E+00 0.24942847E+04</pdfrwt>
<pdfrwt beam="1">  1       -2 0.29621349E+00 0.24942847E+04</pdfrwt>
<totfact> 0.10173025E+00</totfact>
</mgrwt>
</event>
<event>
 4    1  0.2058093E-008  0.2103200E+04  0.7816531E-02  0.8559835E-01
         -1   -1    0    0    0  501 -0.00000000000E+00  0.00000000000E+00  0.59565509687E+03  0.59565509687E+03  0.00000000000E+00 0.  1.
          1   -1    0    0  501    0  0.00000000000E+00 -0.00000000000E+00 -0.18565477697E+04  0.18565477697E+04  0.00000000000E+00 0. -1.
    2000013    1    1    2    0    0 -0.32401282277E+03 -0.30943617464E+03 -0.69020667603E+03  0.12568294678E+04  0.95000000000E+03 0.  0.
   -2000013    1    1    2    0    0  0.32401282277E+03  0.30943617464E+03 -0.57068599678E+03  0.11953733987E+04  0.95000000000E+03 0.  0.
<mgrwt>
<rscale>  0 0.21031996E+04</rscale>
<asrwt>0</asrwt>
<pdfrwt beam="2">  1        1 0.28562273E+00 0.21031996E+04</pdfrwt>
<pdfrwt beam="1">  1       -1 0.91639247E-01 0.21031996E+04</pdfrwt>
<totfact> 0.39785158E+00</totfact>
</mgrwt>
</event>
<event>
 4    1  0.2058093E-008  0.2749627E+04  0.7816531E-02  0.8319080E-01
         -2   -1    0    0    0  501 -0.00000000000E+00  0.00000000000E+00  0.17167251509E+04  0.17167251509E+04  0.00000000000E+00 0. -1.
          2   -1    0    0  501    0  0.00000000000E+00 -0.00000000000E+00 -0.11009984375E+04  0.11009984375E+04  0.00000000000E+00 0.  1.
    2000013    1    1    2    0    0  0.92384692852E+03  0.25802308412E+03  0.57418943970E+03  0.14670591576E+04  0.95000000000E+03 0.  0.
   -2000013    1    1    2    0    0 -0.92384692852E+03 -0.25802308412E+03  0.41537273713E+02  0.13506644307E+04  0.95000000000E+03 0.  0.
<mgrwt>
<rscale>  0 0.27496267E+04</rscale>
<asrwt>0</asrwt>
<pdfrwt beam="2">  1        2 0.16938437E+00 0.27496267E+04</pdfrwt>
<pdfrwt beam="1">  1       -2 0.26411156E+00 0.27496267E+04</pdfrwt>
<totfact> 0.10008450E+00</totfact>
</mgrwt>
</event>
<event>
 4    1  0.2058093E-008  0.2348223E+04  0.7816531E-02  0.8459147E-01
          2   -1    0    0  501    0  0.00000000000E+00  0.00000000000E+00  0.11368387527E+04  0.11368387527E+04  0.00000000000E+00 0.  1.
         -2   -1    0    0    0  501 -0.00000000000E+00 -0.00000000000E+00 -0.12126058186E+04  0.12126058186E+04  0.00000000000E+00 0. -1.
    2000013    1    1    2    0    0 -0.68954930016E+03 -0.20251181745E+02 -0.50093927854E+02  0.11751160578E+04  0.95000000000E+03 0.  0.
   -2000013    1    1    2    0    0  0.68954930016E+03  0.20251181745E+02 -0.25673138056E+02  0.11743285136E+04  0.95000000000E+03 0.  0.
<mgrwt>
<rscale>  0 0.23482226E+04</rscale>
<asrwt>0</asrwt>
<pdfrwt beam="1">  1        2 0.17489827E+00 0.23482226E+04</pdfrwt>
<pdfrwt beam="2">  1       -2 0.18655474E+00 0.23482226E+04</pdfrwt>
<totfact> 0.30537045E+00</totfact>
</mgrwt>
</event>
<event>
 4    1  0.2058093E-008  0.2500881E+04  0.7816531E-02  0.8402672E-01
         -1   -1    0    0    0  501 -0.00000000000E+00  0.00000000000E+00  0.12510766936E+04  0.12510766936E+04  0.00000000000E+00 0. -1.
          1   -1    0    0  501    0  0.00000000000E+00 -0.00000000000E+00 -0.12498048071E+04  0.12498048071E+04  0.00000000000E+00 0.  1.
    2000013    1    1    2    0    0  0.16469296787E+03  0.58790181084E+03  0.53761771889E+03  0.12507138460E+04  0.95000000000E+03 0.  0.
   -2000013    1    1    2    0    0 -0.16469296787E+03 -0.58790181084E+03 -0.53634583238E+03  0.12501676547E+04  0.95000000000E+03 0.  0.
<mgrwt>
<rscale>  0 0.25008812E+04</rscale>
<asrwt>0</asrwt>
<pdfrwt beam="2">  1        1 0.19227766E+00 0.25008812E+04</pdfrwt>
<pdfrwt beam="1">  1       -1 0.19247334E+00 0.25008812E+04</pdfrwt>
<totfact> 0.14826582E+00</totfact>
</mgrwt>
</event>
<event>
 4    1  0.2058093E-008  0.2480582E+04  0.7816531E-02  0.8409936E-01
          2   -1    0    0  501    0  0.00000000000E+00  0.00000000000E+00  0.14066993842E+04  0.14066993842E+04  0.00000000000E+00 0.  1.
         -2   -1    0    0    0  501 -0.00000000000E+00 -0.00000000000E+00 -0.10935679638E+04  0.10935679638E+04  0.00000000000E+00 0. -1.
    2000013    1    1    2    0    0  0.45735711289E+03 -0.50196925296E+03  0.57782108874E+03  0.13028913501E+04  0.95000000000E+03 0.  0.
   -2000013    1    1    2    0    0 -0.45735711289E+03  0.50196925296E+03 -0.26468966836E+03  0.11973759978E+04  0.95000000000E+03 0.  0.
<mgrwt>
<rscale>  0 0.24805817E+04</rscale>
<asrwt>0</asrwt>
<pdfrwt beam="1">  1        2 0.21641529E+00 0.24805817E+04</pdfrwt>
<pdfrwt beam="2">  1       -2 0.16824122E+00 0.24805817E+04</pdfrwt>
<totfact> 0.28113952E+00</totfact>
</mgrwt>
</event>
<event>
 4    1  0.2058093E-008  0.3452017E+04  0.7816531E-02  0.8125256E-01
          2   -1    0    0  501    0  0.00000000000E+00  0.00000000000E+00  0.25939587734E+04  0.25939587734E+04  0.00000000000E+00 0.  1.
         -2   -1    0    0    0  501 -0.00000000000E+00 -0.00000000000E+00 -0.11484786169E+04  0.11484786169E+04  0.00000000000E+00 0. -1.
    2000013    1    1    2    0    0 -0.47976029286E+03 -0.25638769261E+03 -0.72395542100E+03  0.13124465852E+04  0.95000000000E+03 0.  0.
   -2000013    1    1    2    0    0  0.47976029286E+03  0.25638769261E+03  0.21694355775E+04  0.24299908050E+04  0.95000000000E+03 0.  0.
<mgrwt>
<rscale>  0 0.34520175E+04</rscale>
<asrwt>0</asrwt>
<pdfrwt beam="1">  1        2 0.39907058E+00 0.34520175E+04</pdfrwt>
<pdfrwt beam="2">  1       -2 0.17668902E+00 0.34520175E+04</pdfrwt>
<totfact> 0.48382982E-01</totfact>
</mgrwt>
</event>
<event>
 4    1  0.2058093E-008  0.2407653E+04  0.7816531E-02  0.8436644E-01
          2   -1    0    0  501    0  0.00000000000E+00  0.00000000000E+00  0.10245177675E+04  0.10245177675E+04  0.00000000000E+00 0.  1.
         -2   -1    0    0    0  501 -0.00000000000E+00 -0.00000000000E+00 -0.14145171373E+04  0.14145171373E+04  0.00000000000E+00 0. -1.
    2000013    1    1    2    0    0 -0.19454005402E+02 -0.48000733584E+03 -0.76438666091E+03  0.13105618902E+04  0.95000000000E+03 0.  0.
   -2000013    1    1    2    0    0  0.19454005402E+02  0.48000733584E+03  0.37438729106E+03  0.11284730145E+04  0.95000000000E+03 0.  0.
<mgrwt>
<rscale>  0 0.24076527E+04</rscale>
<asrwt>0</asrwt>
<pdfrwt beam="1">  1        2 0.15761812E+00 0.24076527E+04</pdfrwt>
<pdfrwt beam="2">  1       -2 0.21761802E+00 0.24076527E+04</pdfrwt>
<totfact> 0.22339299E+00</totfact>
</mgrwt>
</event>
<event>
 4    1  0.2058093E-008  0.3061456E+04  0.7816531E-02  0.8226396E-01
         -2   -1    0    0    0  501 -0.00000000000E+00  0.00000000000E+00  0.14210378582E+04  0.14210378582E+04  0.00000000000E+00 0. -1.
          2   -1    0    0  501    0  0.00000000000E+00 -0.00000000000E+00 -0.16488846783E+04  0.16488846783E+04  0.00000000000E+00 0.  1.
    2000013    1    1    2    0    0 -0.75443890546E+03 -0.92930562869E+03 -0.20271511425E+03  0.15415513067E+04  0.95000000000E+03 0.  0.
   -2000013    1    1    2    0    0  0.75443890546E+03  0.92930562869E+03 -0.25131705812E+02  0.15283712298E+04  0.95000000000E+03 0.  0.
<mgrwt>
<rscale>  0 0.30614556E+04</rscale>
<asrwt>0</asrwt>
<pdfrwt beam="2">  1        2 0.25367457E+00 0.30614556E+04</pdfrwt>
<pdfrwt beam="1">  1       -2 0.21862121E+00 0.30614556E+04</pdfrwt>
<totfact> 0.89952760E-01</totfact>
</mgrwt>
</event>
<event>
 4    1  0.2058093E-008  0.2928481E+04  0.7816531E-02  0.8264454E-01
          2   -1    0    0  501    0  0.00000000000E+00  0.00000000000E+00  0.21192416271E+04  0.21192416271E+04  0.00000000000E+00 0.  1.
         -2   -1    0    0    0  501 -0.00000000000E+00 -0.00000000000E+00 -0.10116824649E+04  0.10116824649E+04  0.00000000000E+00 0. -1.
    2000013    1    1    2    0    0 -0.10785130943E+04  0.25330197592E+03  0.42661517925E+03  0.15204778515E+04  0.95000000000E+03 0.  0.
   -2000013    1    1    2    0    0  0.10785130943E+04 -0.25330197592E+03  0.68094398296E+03  0.16104462405E+04  0.95000000000E+03 0.  0.
<mgrwt>
<rscale>  0 0.29284806E+04</rscale>
<asrwt>0</asrwt>
<pdfrwt beam="1">  1        2 0.32603717E+00 0.29284806E+04</pdfrwt>
<pdfrwt beam="2">  1       -2 0.15564346E+00 0.29284806E+04</pdfrwt>
<totfact> 0.13399144E+00</totfact>
</mgrwt>
</event>
<event>
 4    1  0.2058093E-008  0.2658529E+04  0.7816531E-02  0.8348587E-01
          2   -1    0    0  501    0  0.00000000000E+00  0.00000000000E+00  0.14451562616E+04  0.14451562616E+04  0.00000000000E+00 0.  1.
         -2   -1    0    0    0  501 -0.00000000000E+00 -0.00000000000E+00 -0.12226668524E+04  0.12226668524E+04  0.00000000000E+00 0. -1.
    2000013    1    1    2    0    0  0.56251337440E+03 -0.48459423574E+03  0.67283648761E+03  0.13807468301E+04  0.95000000000E+03 0.  0.
   -2000013    1    1    2    0    0 -0.56251337440E+03  0.48459423574E+03 -0.45034707844E+03  0.12870762840E+04  0.95000000000E+03 0.  0.
<mgrwt>
<rscale>  0 0.26585294E+04</rscale>
<asrwt>0</asrwt>
<pdfrwt beam="1">  1        2 0.22233173E+00 0.26585294E+04</pdfrwt>
<pdfrwt beam="2">  1       -2 0.18810259E+00 0.26585294E+04</pdfrwt>
<totfact> 0.19164108E+00</totfact>
</mgrwt>
</event>
<event>
 4    1  0.2058093E-008  0.2507947E+04  0.7816531E-02  0.8400160E-01
          1   -1    0    0  501    0  0.00000000000E+00  0.00000000000E+00  0.25052336377E+04  0.25052336377E+04  0.00000000000E+00 0.  1.
         -1   -1    0    0    0  501 -0.00000000000E+00 -0.00000000000E+00 -0.62766596046E+03  0.62766596046E+03  0.00000000000E+00 0. -1.
    2000013    1    1    2    0    0 -0.62148341082E+03  0.52466156910E+03  0.10535358551E+04  0.16352214498E+04  0.95000000000E+03 0.  0.
   -2000013    1    1    2    0    0  0.62148341082E+03 -0.52466156910E+03  0.82403182213E+03  0.14976781483E+04  0.95000000000E+03 0.  0.
<mgrwt>
<rscale>  0 0.25079473E+04</rscale>
<asrwt>0</asrwt>
<pdfrwt beam="1">  1        1 0.38542055E+00 0.25079473E+04</pdfrwt>
<pdfrwt beam="2">  1       -1 0.96563995E-01 0.25079473E+04</pdfrwt>
<totfact> 0.12305256E+00</totfact>
</mgrwt>
</event>
<event>
 4    1  0.2058093E-008  0.2678888E+04  0.7816531E-02  0.8341888E-01
         -2   -1    0    0    0  501 -0.00000000000E+00  0.00000000000E+00  0.67622265223E+03  0.67622265223E+03  0.00000000000E+00 0. -1.
          2   -1    0    0  501    0  0.00000000000E+00 -0.00000000000E+00 -0.26531352110E+04  0.26531352110E+04  0.00000000000E+00 0.  1.
    2000013    1    1    2    0    0 -0.73363709481E+03 -0.47299745323E+03 -0.14359729276E+04  0.19304062335E+04  0.95000000000E+03 0.  0.
   -2000013    1    1    2    0    0  0.73363709481E+03  0.47299745323E+03 -0.54093963116E+03  0.13989516297E+04  0.95000000000E+03 0.  0.
<mgrwt>
<rscale>  0 0.26788879E+04</rscale>
<asrwt>0</asrwt>
<pdfrwt beam="2">  1        2 0.40817465E+00 0.26788879E+04</pdfrwt>
<pdfrwt beam="1">  1       -2 0.10403425E+00 0.26788879E+04</pdfrwt>
<totfact> 0.18695351E+00</totfact>
</mgrwt>
</event>
<event>
 4    1  0.2058093E-008  0.2290160E+04  0.7816531E-02  0.8481811E-01
         -2   -1    0    0    0  501 -0.00000000000E+00  0.00000000000E+00  0.11509247034E+04  0.11509247034E+04  0.00000000000E+00 0. -1.
          2   -1    0    0  501    0  0.00000000000E+00 -0.00000000000E+00 -0.11392653335E+04  0.11392653335E+04  0.00000000000E+00 0.  1.
    2000013    1    1    2    0    0 -0.10708299138E+02 -0.63491109405E+03 -0.68210797870E+02  0.11447180779E+04  0.95000000000E+03 0.  0.
   -2000013    1    1    2    0    0  0.10708299138E+02  0.63491109405E+03  0.79870167766E+02  0.11454719589E+04  0.95000000000E+03 0.  0.
<mgrwt>
<rscale>  0 0.22901604E+04</rscale>
<asrwt>0</asrwt>
<pdfrwt beam="2">  1        2 0.17527159E+00 0.22901604E+04</pdfrwt>
<pdfrwt beam="1">  1       -2 0.17706534E+00 0.22901604E+04</pdfrwt>
<totfact> 0.35537349E+00</totfact>
</mgrwt>
</event>
<event>
 4    1  0.2058093E-008  0.3534892E+04  0.7816531E-02  0.8105570E-01
          2   -1    0    0  501    0  0.00000000000E+00  0.00000000000E+00  0.28521691108E+04  0.28521691108E+04  0.00000000000E+00 0.  1.
         -2   -1    0    0    0  501 -0.00000000000E+00 -0.00000000000E+00 -0.10952594787E+04  0.10952594787E+04  0.00000000000E+00 0. -1.
    2000013    1    1    2    0    0 -0.20290270856E+03  0.11743015634E+04 -0.12111181575E+03  0.15288301877E+04  0.95000000000E+03 0.  0.
   -2000013    1    1    2    0    0  0.20290270856E+03 -0.11743015634E+04  0.18780214478E+04  0.24185984019E+04  0.95000000000E+03 0.  0.
<mgrwt>
<rscale>  0 0.35348919E+04</rscale>
<asrwt>0</asrwt>
<pdfrwt beam="1">  1        2 0.43879524E+00 0.35348919E+04</pdfrwt>
<pdfrwt beam="2">  1       -2 0.16850146E+00 0.35348919E+04</pdfrwt>
<totfact> 0.38455444E-01</totfact>
</mgrwt>
</event>
<event>
 4    1  0.2058093E-008  0.2432496E+04  0.7816531E-02  0.8427437E-01
          2   -1    0    0  501    0  0.00000000000E+00  0.00000000000E+00  0.35282944372E+04  0.35282944372E+04  0.00000000000E+00 0.  1.
         -2   -1    0    0    0  501 -0.00000000000E+00 -0.00000000000E+00 -0.41925607806E+03  0.41925607806E+03  0.00000000000E+00 0. -1.
    2000013    1    1    2    0    0  0.64446339648E+03  0.37224458691E+03  0.13091547023E+04  0.17805294540E+04  0.95000000000E+03 0.  0.
   -2000013    1    1    2    0    0 -0.64446339648E+03 -0.37224458691E+03  0.17998836568E+04  0.21670210613E+04  0.95000000000E+03 0.  0.
<mgrwt>
<rscale>  0 0.24324957E+04</rscale>
<asrwt>0</asrwt>
<pdfrwt beam="1">  1        2 0.54281451E+00 0.24324957E+04</pdfrwt>
<pdfrwt beam="2">  1       -2 0.64500937E-01 0.24324957E+04</pdfrwt>
<totfact> 0.15487552E+00</totfact>
</mgrwt>
</event>
<event>
 4    1  0.2058093E-008  0.2722846E+04  0.7816531E-02  0.8327630E-01
          2   -1    0    0  501    0  0.00000000000E+00  0.00000000000E+00  0.60797124655E+03  0.60797124655E+03  0.00000000000E+00 0.  1.
         -2   -1    0    0    0  501 -0.00000000000E+00 -0.00000000000E+00 -0.30486180330E+04  0.30486180330E+04  0.00000000000E+00 0. -1.
    2000013    1    1    2    0    0  0.69600543872E+03  0.58130612005E+03 -0.17019685679E+04  0.21497761237E+04  0.95000000000E+03 0.  0.
   -2000013    1    1    2    0    0 -0.69600543872E+03 -0.58130612005E+03 -0.73867821848E+03  0.15068131558E+04  0.95000000000E+03 0.  0.
<mgrwt>
<rscale>  0 0.27228456E+04</rscale>
<asrwt>0</asrwt>
<pdfrwt beam="1">  1        2 0.93534039E-01 0.27228456E+04</pdfrwt>
<pdfrwt beam="2">  1       -2 0.46901816E+00 0.27228456E+04</pdfrwt>
<totfact> 0.11098586E-01</totfact>
</mgrwt>
</event>
<event>
 4    1  0.2058093E-008  0.2440240E+04  0.7816531E-02  0.8424590E-01
         -2   -1    0    0    0  501 -0.00000000000E+00  0.00000000000E+00  0.10805567171E+04  0.10805567171E+04  0.00000000000E+00 0. -1.
          2   -1    0    0  501    0  0.00000000000E+00 -0.00000000000E+00 -0.13777093111E+04  0.13777093111E+04  0.00000000000E+00 0.  1.
    2000013    1    1    2    0    0 -0.74599634333E+03  0.35197270193E+02  0.21322001122E+02  0.12085958877E+04  0.95000000000E+03 0.  0.
   -2000013    1    1    2    0    0  0.74599634333E+03 -0.35197270193E+02 -0.31847459514E+03  0.12496701404E+04  0.95000000000E+03 0.  0.
<mgrwt>
<rscale>  0 0.24402402E+04</rscale>
<asrwt>0</asrwt>
<pdfrwt beam="2">  1        2 0.21195528E+00 0.24402402E+04</pdfrwt>
<pdfrwt beam="1">  1       -2 0.16623950E+00 0.24402402E+04</pdfrwt>
<totfact> 0.30296450E+00</totfact>
</mgrwt>
</event>
<event>
 4    1  0.2058093E-008  0.2320920E+04  0.7816531E-02  0.8469718E-01
          2   -1    0    0  501    0  0.00000000000E+00  0.00000000000E+00  0.16239466600E+04  0.16239466600E+04  0.00000000000E+00 0.  1.
         -2   -1    0    0    0  501 -0.00000000000E+00 -0.00000000000E+00 -0.82925608951E+03  0.82925608951E+03  0.00000000000E+00 0. -1.
    2000013    1    1    2    0    0  0.38291391251E+02  0.65959101856E+03  0.30494962244E+03  0.11966707211E+04  0.95000000000E+03 0.  0.
   -2000013    1    1    2    0    0 -0.38291391251E+02 -0.65959101856E+03  0.48974094810E+03  0.12565320285E+04  0.95000000000E+03 0.  0.
<mgrwt>
<rscale>  0 0.23209202E+04</rscale>
<asrwt>0</asrwt>
<pdfrwt beam="1">  1        2 0.24983795E+00 0.23209202E+04</pdfrwt>
<pdfrwt beam="2">  1       -2 0.12757786E+00 0.23209202E+04</pdfrwt>
<totfact> 0.44580757E+00</totfact>
</mgrwt>
</event>
<event>
 4    1  0.2058093E-008  0.2604767E+04  0.7816531E-02  0.8366584E-01
          2   -1    0    0  501    0  0.00000000000E+00  0.00000000000E+00  0.15126257399E+04  0.15126257399E+04  0.00000000000E+00 0.  1.
         -2   -1    0    0    0  501 -0.00000000000E+00 -0.00000000000E+00 -0.11213628491E+04  0.11213628491E+04  0.00000000000E+00 0. -1.
    2000013    1    1    2    0    0  0.54970657763E+03  0.53674106368E+03 -0.26046517818E+03  0.12492439313E+04  0.95000000000E+03 0.  0.
   -2000013    1    1    2    0    0 -0.54970657763E+03 -0.53674106368E+03  0.65172806899E+03  0.13847446576E+04  0.95000000000E+03 0.  0.
<mgrwt>
<rscale>  0 0.26047666E+04</rscale>
<asrwt>0</asrwt>
<pdfrwt beam="1">  1        2 0.23271165E+00 0.26047666E+04</pdfrwt>
<pdfrwt beam="2">  1       -2 0.17251736E+00 0.26047666E+04</pdfrwt>
<totfact> 0.22588572E+00</totfact>
</mgrwt>
</event>
<event>
 4    1  0.2058093E-008  0.2127304E+04  0.7816531E-02  0.8549310E-01
         -2   -1    0    0    0  501 -0.00000000000E+00  0.00000000000E+00  0.41239987127E+03  0.41239987127E+03  0.00000000000E+00 0. -1.
          2   -1    0    0  501    0  0.00000000000E+00 -0.00000000000E+00 -0.27433472755E+04  0.27433472755E+04  0.00000000000E+00 0.  1.
    2000013    1    1    2    0    0  0.46328790473E+03 -0.87742011047E+02 -0.12852728218E+04  0.16663614763E+04  0.95000000000E+03 0.  0.
   -2000013    1    1    2    0    0 -0.46328790473E+03  0.87742011047E+02 -0.10456745824E+04  0.14893856705E+04  0.95000000000E+03 0.  0.
<mgrwt>
<rscale>  0 0.21273045E+04</rscale>
<asrwt>0</asrwt>
<pdfrwt beam="2">  1        2 0.42205343E+00 0.21273045E+04</pdfrwt>
<pdfrwt beam="1">  1       -2 0.63446134E-01 0.21273045E+04</pdfrwt>
<totfact> 0.52936377E+00</totfact>
</mgrwt>
</event>
<event>
 4    1  0.2058093E-008  0.2896556E+04  0.7816531E-02  0.8273903E-01
          2   -1    0    0  501    0  0.00000000000E+00  0.00000000000E+00  0.20419239119E+04  0.20419239119E+04  0.00000000000E+00 0.  1.
         -2   -1    0    0    0  501 -0.00000000000E+00 -0.00000000000E+00 -0.10272216473E+04  0.10272216473E+04  0.00000000000E+00 0. -1.
    2000013    1    1    2    0    0 -0.63229194112E+03  0.33325232069E+03 -0.36907216030E+03  0.12448150335E+04  0.95000000000E+03 0.  0.
   -2000013    1    1    2    0    0  0.63229194112E+03 -0.33325232069E+03  0.13837744249E+04  0.18243305257E+04  0.95000000000E+03 0.  0.
<mgrwt>
<rscale>  0 0.28965555E+04</rscale>
<asrwt>0</asrwt>
<pdfrwt beam="1">  1        2 0.31414214E+00 0.28965555E+04</pdfrwt>
<pdfrwt beam="2">  1       -2 0.15803410E+00 0.28965555E+04</pdfrwt>
<totfact> 0.14239961E+00</totfact>
</mgrwt>
</event>
<event>
 4    1  0.2058093E-008  0.4301273E+04  0.7816531E-02  0.7946383E-01
         -2   -1    0    0    0  501 -0.00000000000E+00  0.00000000000E+00  0.15818735660E+04  0.15818735660E+04  0.00000000000E+00 0. -1.
          2   -1    0    0  501    0  0.00000000000E+00 -0.00000000000E+00 -0.29238988361E+04  0.29238988361E+04  0.00000000000E+00 0.  1.
    2000013    1    1    2    0    0  0.76114670813E+02 -0.19274261372E+04 -0.71754671227E+03  0.22667461794E+04  0.95000000000E+03 0.  0.
   -2000013    1    1    2    0    0 -0.76114670813E+02  0.19274261372E+04 -0.62447855784E+03  0.22390262228E+04  0.95000000000E+03 0.  0.
<mgrwt>
<rscale>  0 0.43012734E+04</rscale>
<asrwt>0</asrwt>
<pdfrwt beam="2">  1        2 0.44983059E+00 0.43012734E+04</pdfrwt>
<pdfrwt beam="1">  1       -2 0.24336516E+00 0.43012734E+04</pdfrwt>
<totfact> 0.10553077E-01</totfact>
</mgrwt>
</event>
<event>
 4    1  0.2058093E-008  0.2346274E+04  0.7816531E-02  0.8459896E-01
         -1   -1    0    0    0  501 -0.00000000000E+00  0.00000000000E+00  0.72617643367E+03  0.72617643367E+03  0.00000000000E+00 0. -1.
          1   -1    0    0  501    0  0.00000000000E+00 -0.00000000000E+00 -0.18952012790E+04  0.18952012790E+04  0.00000000000E+00 0.  1.
    2000013    1    1    2    0    0 -0.46623573859E+03 -0.49855563234E+03 -0.68329300157E+03  0.13547408640E+04  0.95000000000E+03 0.  0.
   -2000013    1    1    2    0    0  0.46623573859E+03  0.49855563234E+03 -0.48573184377E+03  0.12666368487E+04  0.95000000000E+03 0.  0.
<mgrwt>
<rscale>  0 0.23462741E+04</rscale>
<asrwt>0</asrwt>
<pdfrwt beam="2">  1        1 0.29156942E+00 0.23462741E+04</pdfrwt>
<pdfrwt beam="1">  1       -1 0.11171945E+00 0.23462741E+04</pdfrwt>
<totfact> 0.23243344E+00</totfact>
</mgrwt>
</event>
<event>
 4    1  0.2058093E-008  0.2706549E+04  0.7816531E-02  0.8332883E-01
          2   -1    0    0  501    0  0.00000000000E+00  0.00000000000E+00  0.94033608102E+03  0.94033608102E+03  0.00000000000E+00 0.  1.
         -2   -1    0    0    0  501 -0.00000000000E+00 -0.00000000000E+00 -0.19475505838E+04  0.19475505838E+04  0.00000000000E+00 0. -1.
    2000013    1    1    2    0    0  0.34386624136E+03 -0.53968106840E+03  0.26533781132E+03  0.11757566932E+04  0.95000000000E+03 0.  0.
   -2000013    1    1    2    0    0 -0.34386624136E+03  0.53968106840E+03 -0.12725523141E+04  0.17121299716E+04  0.95000000000E+03 0.  0.
<mgrwt>
<rscale>  0 0.27065492E+04</rscale>
<asrwt>0</asrwt>
<pdfrwt beam="1">  1        2 0.14466709E+00 0.27065492E+04</pdfrwt>
<pdfrwt beam="2">  1       -2 0.29962317E+00 0.27065492E+04</pdfrwt>
<totfact> 0.77195724E-01</totfact>
</mgrwt>
</event>
<event>
 4    1  0.2058093E-008  0.2347036E+04  0.7816531E-02  0.8459603E-01
         -2   -1    0    0    0  501 -0.00000000000E+00  0.00000000000E+00  0.21406216967E+04  0.21406216967E+04  0.00000000000E+00 0. -1.
          2   -1    0    0  501    0  0.00000000000E+00 -0.00000000000E+00 -0.64333838797E+03  0.64333838797E+03  0.00000000000E+00 0.  1.
    2000013    1    1    2    0    0 -0.24820763112E+03 -0.60665469779E+03  0.49699907738E+03  0.12566403755E+04  0.95000000000E+03 0.  0.
   -2000013    1    1    2    0    0  0.24820763112E+03  0.60665469779E+03  0.10002842314E+04  0.15273197092E+04  0.95000000000E+03 0.  0.
<mgrwt>
<rscale>  0 0.23470357E+04</rscale>
<asrwt>0</asrwt>
<pdfrwt beam="2">  1        2 0.98975138E-01 0.23470357E+04</pdfrwt>
<pdfrwt beam="1">  1       -2 0.32932641E+00 0.23470357E+04</pdfrwt>
<totfact> 0.86264765E-01</totfact>
</mgrwt>
</event>
<event>
 4    1  0.2058093E-008  0.2587029E+04  0.7816531E-02  0.8372620E-01
          2   -1    0    0  501    0  0.00000000000E+00  0.00000000000E+00  0.25465326845E+04  0.25465326845E+04  0.00000000000E+00 0.  1.
         -2   -1    0    0    0  501 -0.00000000000E+00 -0.00000000000E+00 -0.65704244205E+03  0.65704244205E+03  0.00000000000E+00 0. -1.
    2000013    1    1    2    0    0 -0.31809212707E+03  0.30045420608E+03  0.18871925266E+04  0.21576494070E+04  0.95000000000E+03 0.  0.
   -2000013    1    1    2    0    0  0.31809212707E+03 -0.30045420608E+03  0.22977158645E+01  0.10459257195E+04  0.95000000000E+03 0.  0.
<mgrwt>
<rscale>  0 0.25870292E+04</rscale>
<asrwt>0</asrwt>
<pdfrwt beam="1">  1        2 0.39177425E+00 0.25870292E+04</pdfrwt>
<pdfrwt beam="2">  1       -2 0.10108345E+00 0.25870292E+04</pdfrwt>
<totfact> 0.23312665E+00</totfact>
</mgrwt>
</event>
<event>
 4    1  0.2058093E-008  0.3167588E+04  0.7816531E-02  0.8197430E-01
         -2   -1    0    0    0  501 -0.00000000000E+00  0.00000000000E+00  0.23621043182E+04  0.23621043182E+04  0.00000000000E+00 0. -1.
          2   -1    0    0  501    0  0.00000000000E+00 -0.00000000000E+00 -0.10619358703E+04  0.10619358703E+04  0.00000000000E+00 0.  1.
    2000013    1    1    2    0    0 -0.67008298045E+03 -0.10311621450E+04  0.31937940366E+03  0.15864456415E+04  0.95000000000E+03 0.  0.
   -2000013    1    1    2    0    0  0.67008298045E+03  0.10311621450E+04  0.98078904424E+03  0.18375945470E+04  0.95000000000E+03 0.  0.
<mgrwt>
<rscale>  0 0.31675879E+04</rscale>
<asrwt>0</asrwt>
<pdfrwt beam="2">  1        2 0.16337475E+00 0.31675879E+04</pdfrwt>
<pdfrwt beam="1">  1       -2 0.36340066E+00 0.31675879E+04</pdfrwt>
<totfact> 0.24840165E-01</totfact>
</mgrwt>
</event>
<event>
 4    1  0.2058093E-008  0.2323562E+04  0.7816531E-02  0.8468689E-01
          1   -1    0    0  501    0  0.00000000000E+00  0.00000000000E+00  0.17198090896E+04  0.17198090896E+04  0.00000000000E+00 0.  1.
         -1   -1    0    0    0  501 -0.00000000000E+00 -0.00000000000E+00 -0.78481671814E+03  0.78481671814E+03  0.00000000000E+00 0. -1.
    2000013    1    1    2    0    0  0.43161646106E+03  0.42336782946E+03  0.77560528440E+03  0.13673319442E+04  0.95000000000E+03 0.  0.
   -2000013    1    1    2    0    0 -0.43161646106E+03 -0.42336782946E+03  0.15938708705E+03  0.11372938635E+04  0.95000000000E+03 0.  0.
<mgrwt>
<rscale>  0 0.23235619E+04</rscale>
<asrwt>0</asrwt>
<pdfrwt beam="1">  1        1 0.26458601E+00 0.23235619E+04</pdfrwt>
<pdfrwt beam="2">  1       -1 0.12074103E+00 0.23235619E+04</pdfrwt>
<totfact> 0.25410484E+00</totfact>
</mgrwt>
</event>
<event>
 4    1  0.2058093E-008  0.2940591E+04  0.7816531E-02  0.8260902E-01
         -2   -1    0    0    0  501 -0.00000000000E+00  0.00000000000E+00  0.10400854922E+04  0.10400854922E+04  0.00000000000E+00 0. -1.
          2   -1    0    0  501    0  0.00000000000E+00 -0.00000000000E+00 -0.20784524829E+04  0.20784524829E+04  0.00000000000E+00 0.  1.
    2000013    1    1    2    0    0  0.99666082201E+03  0.30671570920E+02  0.26744158540E+02  0.13774936622E+04  0.95000000000E+03 0.  0.
   -2000013    1    1    2    0    0 -0.99666082201E+03 -0.30671570920E+02 -0.10651111493E+04  0.17410443130E+04  0.95000000000E+03 0.  0.
<mgrwt>
<rscale>  0 0.29405906E+04</rscale>
<asrwt>0</asrwt>
<pdfrwt beam="2">  1        2 0.31976192E+00 0.29405906E+04</pdfrwt>
<pdfrwt beam="1">  1       -2 0.16001315E+00 0.29405906E+04</pdfrwt>
<totfact> 0.13087268E+00</totfact>
</mgrwt>
</event>
<event>
 4    1  0.2058093E-008  0.1952064E+04  0.7816531E-02  0.8629366E-01
          2   -1    0    0  501    0  0.00000000000E+00  0.00000000000E+00  0.14816996754E+04  0.14816996754E+04  0.00000000000E+00 0.  1.
         -2   -1    0    0    0  501 -0.00000000000E+00 -0.00000000000E+00 -0.64293604269E+03  0.64293604269E+03  0.00000000000E+00 0. -1.
    2000013    1    1    2    0    0 -0.27247951294E+02 -0.22153044122E+03  0.39991370759E+03  0.10546322396E+04  0.95000000000E+03 0.  0.
   -2000013    1    1    2    0    0  0.27247951294E+02  0.22153044122E+03  0.43884992509E+03  0.10700034785E+04  0.95000000000E+03 0.  0.
<mgrwt>
<rscale>  0 0.19520637E+04</rscale>
<asrwt>0</asrwt>
<pdfrwt beam="1">  1        2 0.22795380E+00 0.19520637E+04</pdfrwt>
<pdfrwt beam="2">  1       -2 0.98913237E-01 0.19520637E+04</pdfrwt>
<totfact> 0.10278536E+01</totfact>
</mgrwt>
</event>
<event>
 4    1  0.2058093E-008  0.2388511E+04  0.7816531E-02  0.8443817E-01
          2   -1    0    0  501    0  0.00000000000E+00  0.00000000000E+00  0.18746231858E+04  0.18746231858E+04  0.00000000000E+00 0.  1.
         -2   -1    0    0    0  501 -0.00000000000E+00 -0.00000000000E+00 -0.76081747977E+03  0.76081747977E+03  0.00000000000E+00 0. -1.
    2000013    1    1    2    0    0 -0.52242586994E+03  0.44684219183E+03  0.80644625403E+03  0.14231838583E+04  0.95000000000E+03 0.  0.
   -2000013    1    1    2    0    0  0.52242586994E+03 -0.44684219183E+03  0.30735945203E+03  0.12122568073E+04  0.95000000000E+03 0.  0.
<mgrwt>
<rscale>  0 0.23885109E+04</rscale>
<asrwt>0</asrwt>
<pdfrwt beam="1">  1        2 0.28840357E+00 0.23885109E+04</pdfrwt>
<pdfrwt beam="2">  1       -2 0.11704884E+00 0.23885109E+04</pdfrwt>
<totfact> 0.39869825E+00</totfact>
</mgrwt>
</event>
<event>
 4    1  0.2058093E-008  0.2632347E+04  0.7816531E-02  0.8357296E-01
         -1   -1    0    0    0  501 -0.00000000000E+00  0.00000000000E+00  0.13755672539E+04  0.13755672539E+04  0.00000000000E+00 0. -1.
          1   -1    0    0  501    0  0.00000000000E+00 -0.00000000000E+00 -0.12593444383E+04  0.12593444383E+04  0.00000000000E+00 0.  1.
    2000013    1    1    2    0    0 -0.60616011079E+03  0.66090157835E+03 -0.10201942317E+03  0.13103926659E+04  0.95000000000E+03 0.  0.
   -2000013    1    1    2    0    0  0.60616011079E+03 -0.66090157835E+03  0.21824223882E+03  0.13245190263E+04  0.95000000000E+03 0.  0.
<mgrwt>
<rscale>  0 0.26323472E+04</rscale>
<asrwt>0</asrwt>
<pdfrwt beam="2">  1        1 0.19374530E+00 0.26323472E+04</pdfrwt>
<pdfrwt beam="1">  1       -1 0.21162573E+00 0.26323472E+04</pdfrwt>
<totfact> 0.10650382E+00</totfact>
</mgrwt>
</event>
<event>
 4    1  0.2058093E-008  0.1922705E+04  0.7816531E-02  0.8643637E-01
         -1   -1    0    0    0  501 -0.00000000000E+00  0.00000000000E+00  0.13252164971E+04  0.13252164971E+04  0.00000000000E+00 0. -1.
          1   -1    0    0  501    0  0.00000000000E+00 -0.00000000000E+00 -0.69739438713E+03  0.69739438713E+03  0.00000000000E+00 0.  1.
    2000013    1    1    2    0    0  0.97814046111E+01 -0.81189802321E+02  0.18502504663E+03  0.97129898989E+03  0.95000000000E+03 0.  0.
   -2000013    1    1    2    0    0 -0.97814046111E+01  0.81189802321E+02  0.44279706334E+03  0.10513118943E+04  0.95000000000E+03 0.  0.
<mgrwt>
<rscale>  0 0.19227049E+04</rscale>
<asrwt>0</asrwt>
<pdfrwt beam="2">  1        1 0.10729144E+00 0.19227049E+04</pdfrwt>
<pdfrwt beam="1">  1       -1 0.20387946E+00 0.19227049E+04</pdfrwt>
<totfact> 0.36206444E+00</totfact>
</mgrwt>
</event>
<event>
 4    1  0.2058093E-008  0.2636284E+04  0.7816531E-02  0.8355980E-01
         -2   -1    0    0    0  501 -0.00000000000E+00  0.00000000000E+00  0.49040687316E+03  0.49040687316E+03  0.00000000000E+00 0. -1.
          2   -1    0    0  501    0  0.00000000000E+00 -0.00000000000E+00 -0.35429731269E+04  0.35429731269E+04  0.00000000000E+00 0.  1.
    2000013    1    1    2    0    0  0.24390899703E+03 -0.80434426571E+03 -0.97776479069E+03  0.16015571431E+04  0.95000000000E+03 0.  0.
   -2000013    1    1    2    0    0 -0.24390899703E+03  0.80434426571E+03 -0.20748014630E+04  0.24318228569E+04  0.95000000000E+03 0.  0.
<mgrwt>
<rscale>  0 0.26362840E+04</rscale>
<asrwt>0</asrwt>
<pdfrwt beam="2">  1        2 0.54507280E+00 0.26362840E+04</pdfrwt>
<pdfrwt beam="1">  1       -2 0.75447209E-01 0.26362840E+04</pdfrwt>
<totfact> 0.10544240E+00</totfact>
</mgrwt>
</event>
<event>
 4    1  0.2058093E-008  0.2959435E+04  0.7816531E-02  0.8255410E-01
          1   -1    0    0  501    0  0.00000000000E+00  0.00000000000E+00  0.30076562127E+04  0.30076562127E+04  0.00000000000E+00 0.  1.
         -1   -1    0    0    0  501 -0.00000000000E+00 -0.00000000000E+00 -0.72799649507E+03  0.72799649507E+03  0.00000000000E+00 0. -1.
    2000013    1    1    2    0    0 -0.60310522259E+03 -0.95677572244E+03  0.12520774542E+04  0.19363247775E+04  0.95000000000E+03 0.  0.
   -2000013    1    1    2    0    0  0.60310522259E+03  0.95677572244E+03  0.10275822634E+04  0.17993279303E+04  0.95000000000E+03 0.  0.
<mgrwt>
<rscale>  0 0.29594345E+04</rscale>
<asrwt>0</asrwt>
<pdfrwt beam="1">  1        1 0.46271633E+00 0.29594345E+04</pdfrwt>
<pdfrwt beam="2">  1       -1 0.11199946E+00 0.29594345E+04</pdfrwt>
<totfact> 0.36822266E-01</totfact>
</mgrwt>
</event>
<event>
 4    1  0.2058093E-008  0.2043752E+04  0.7816531E-02  0.8586434E-01
          2   -1    0    0  501    0  0.00000000000E+00  0.00000000000E+00  0.46825073733E+03  0.46825073733E+03  0.00000000000E+00 0.  1.
         -2   -1    0    0    0  501 -0.00000000000E+00 -0.00000000000E+00 -0.22300677826E+04  0.22300677826E+04  0.00000000000E+00 0. -1.
    2000013    1    1    2    0    0 -0.21064163156E+03 -0.31076670356E+03 -0.91790083973E+03  0.13733127075E+04  0.95000000000E+03 0.  0.
   -2000013    1    1    2    0    0  0.21064163156E+03  0.31076670356E+03 -0.84391620553E+03  0.13250058124E+04  0.95000000000E+03 0.  0.
<mgrwt>
<rscale>  0 0.20437523E+04</rscale>
<asrwt>0</asrwt>
<pdfrwt beam="1">  1        2 0.72038574E-01 0.20437523E+04</pdfrwt>
<pdfrwt beam="2">  1       -2 0.34308735E+00 0.20437523E+04</pdfrwt>
<totfact> 0.10599279E+00</totfact>
</mgrwt>
</event>
<event>
 4    1  0.2058093E-008  0.2431743E+04  0.7816531E-02  0.8427714E-01
         -1   -1    0    0    0  501 -0.00000000000E+00  0.00000000000E+00  0.98296334166E+03  0.98296334166E+03  0.00000000000E+00 0. -1.
          1   -1    0    0  501    0  0.00000000000E+00 -0.00000000000E+00 -0.15039654627E+04  0.15039654627E+04  0.00000000000E+00 0.  1.
    2000013    1    1    2    0    0 -0.29061132021E+03 -0.58853483825E+03 -0.64995115285E+03  0.13250527146E+04  0.95000000000E+03 0.  0.
   -2000013    1    1    2    0    0  0.29061132021E+03  0.58853483825E+03  0.12894903180E+03  0.11618760898E+04  0.95000000000E+03 0.  0.
<mgrwt>
<rscale>  0 0.24317425E+04</rscale>
<asrwt>0</asrwt>
<pdfrwt beam="2">  1        1 0.23137930E+00 0.24317425E+04</pdfrwt>
<pdfrwt beam="1">  1       -1 0.15122513E+00 0.24317425E+04</pdfrwt>
<totfact> 0.19827841E+00</totfact>
</mgrwt>
</event>
<event>
 4    1  0.2058093E-008  0.2096044E+04  0.7816531E-02  0.8562988E-01
         -2   -1    0    0    0  501 -0.00000000000E+00  0.00000000000E+00  0.52519472983E+03  0.52519472983E+03  0.00000000000E+00 0.  1.
          2   -1    0    0  501    0  0.00000000000E+00 -0.00000000000E+00 -0.20913189096E+04  0.20913189096E+04  0.00000000000E+00 0. -1.
    2000013    1    1    2    0    0  0.56512145136E+02  0.43096464555E+03 -0.88694615499E+03  0.13704370216E+04  0.95000000000E+03 0.  0.
   -2000013    1    1    2    0    0 -0.56512145136E+02 -0.43096464555E+03 -0.67917802481E+03  0.12460766179E+04  0.95000000000E+03 0.  0.
<mgrwt>
<rscale>  0 0.20960436E+04</rscale>
<asrwt>0</asrwt>
<pdfrwt beam="2">  1        2 0.32174137E+00 0.20960436E+04</pdfrwt>
<pdfrwt beam="1">  1       -2 0.80799190E-01 0.20960436E+04</pdfrwt>
<totfact> 0.74031595E+00</totfact>
</mgrwt>
</event>
<event>
 4    1  0.2058093E-008  0.2817029E+04  0.7816531E-02  0.8298001E-01
          2   -1    0    0  501    0  0.00000000000E+00  0.00000000000E+00  0.31097266751E+04  0.31097266751E+04  0.00000000000E+00 0.  1.
         -2   -1    0    0    0  501 -0.00000000000E+00 -0.00000000000E+00 -0.63797016716E+03  0.63797016716E+03  0.00000000000E+00 0. -1.
    2000013    1    1    2    0    0  0.82801305126E+03  0.31993019650E+03  0.19565568560E+04  0.23491648888E+04  0.95000000000E+03 0.  0.
   -2000013    1    1    2    0    0 -0.82801305126E+03 -0.31993019650E+03  0.51519965191E+03  0.13985319535E+04  0.95000000000E+03 0.  0.
<mgrwt>
<rscale>  0 0.28170288E+04</rscale>
<asrwt>0</asrwt>
<pdfrwt beam="1">  1        2 0.47841948E+00 0.28170288E+04</pdfrwt>
<pdfrwt beam="2">  1       -2 0.98149258E-01 0.28170288E+04</pdfrwt>
<totfact> 0.11123249E+00</totfact>
</mgrwt>
</event>
<event>
 4    1  0.2058093E-008  0.3147642E+04  0.7816531E-02  0.8202783E-01
         -2   -1    0    0    0  501 -0.00000000000E+00  0.00000000000E+00  0.84858858046E+03  0.84858858046E+03  0.00000000000E+00 0. -1.
          2   -1    0    0  501    0  0.00000000000E+00 -0.00000000000E+00 -0.29188615047E+04  0.29188615047E+04  0.00000000000E+00 0.  1.
    2000013    1    1    2    0    0  0.64239986552E+03 -0.36960220053E+02 -0.23244549637E+04  0.25922257856E+04  0.95000000000E+03 0.  0.
   -2000013    1    1    2    0    0 -0.64239986552E+03  0.36960220053E+02  0.25418203948E+03  0.11752242996E+04  0.95000000000E+03 0.  0.
<mgrwt>
<rscale>  0 0.31476420E+04</rscale>
<asrwt>0</asrwt>
<pdfrwt beam="2">  1        2 0.44905561E+00 0.31476420E+04</pdfrwt>
<pdfrwt beam="1">  1       -2 0.13055209E+00 0.31476420E+04</pdfrwt>
<totfact> 0.71028445E-01</totfact>
</mgrwt>
</event>
<event>
 4    1  0.2058093E-008  0.2339960E+04  0.7816531E-02  0.8462330E-01
          2   -1    0    0  501    0  0.00000000000E+00  0.00000000000E+00  0.25981564135E+04  0.25981564135E+04  0.00000000000E+00 0.  1.
         -2   -1    0    0    0  501 -0.00000000000E+00 -0.00000000000E+00 -0.52685555793E+03  0.52685555793E+03  0.00000000000E+00 0. -1.
    2000013    1    1    2    0    0 -0.30529848173E+03 -0.94753379812E+02  0.18415743002E+04  0.20966833974E+04  0.95000000000E+03 0.  0.
   -2000013    1    1    2    0    0  0.30529848173E+03  0.94753379812E+02  0.22972655543E+03  0.10283285740E+04  0.95000000000E+03 0.  0.
<mgrwt>
<rscale>  0 0.23399600E+04</rscale>
<asrwt>0</asrwt>
<pdfrwt beam="1">  1        2 0.39971636E+00 0.23399600E+04</pdfrwt>
<pdfrwt beam="2">  1       -2 0.81054703E-01 0.23399600E+04</pdfrwt>
<totfact> 0.37000549E+00</totfact>
</mgrwt>
</event>
<event>
 4    1  0.2058093E-008  0.2604488E+04  0.7816531E-02  0.8366678E-01
         -1   -1    0    0    0  501 -0.00000000000E+00  0.00000000000E+00  0.12979384369E+04  0.12979384369E+04  0.00000000000E+00 0. -1.
          1   -1    0    0  501    0  0.00000000000E+00 -0.00000000000E+00 -0.13065638555E+04  0.13065638555E+04  0.00000000000E+00 0.  1.
    2000013    1    1    2    0    0 -0.76436354525E+03  0.35580461006E+03  0.28290115390E+03  0.13012999703E+04  0.95000000000E+03 0.  0.
   -2000013    1    1    2    0    0  0.76436354525E+03 -0.35580461006E+03 -0.29152657248E+03  0.13032023221E+04  0.95000000000E+03 0.  0.
<mgrwt>
<rscale>  0 0.26044880E+04</rscale>
<asrwt>0</asrwt>
<pdfrwt beam="2">  1        1 0.20100982E+00 0.26044880E+04</pdfrwt>
<pdfrwt beam="1">  1       -1 0.19968284E+00 0.26044880E+04</pdfrwt>
<totfact> 0.11917331E+00</totfact>
</mgrwt>
</event>
<event>
 4    1  0.2058093E-008  0.2060920E+04  0.7816531E-02  0.8578657E-01
          2   -1    0    0  501    0  0.00000000000E+00  0.00000000000E+00  0.28530775372E+04  0.28530775372E+04  0.00000000000E+00 0.  1.
         -2   -1    0    0    0  501 -0.00000000000E+00 -0.00000000000E+00 -0.37217625800E+03  0.37217625800E+03  0.00000000000E+00 0. -1.
    2000013    1    1    2    0    0  0.38485719735E+03  0.44295620267E+02  0.13911306704E+04  0.17285316620E+04  0.95000000000E+03 0.  0.
   -2000013    1    1    2    0    0 -0.38485719735E+03 -0.44295620267E+02  0.10897706088E+04  0.14967221332E+04  0.95000000000E+03 0.  0.
<mgrwt>
<rscale>  0 0.20609199E+04</rscale>
<asrwt>0</asrwt>
<pdfrwt beam="1">  1        2 0.43893499E+00 0.20609199E+04</pdfrwt>
<pdfrwt beam="2">  1       -2 0.57257888E-01 0.20609199E+04</pdfrwt>
<totfact> 0.56806007E+00</totfact>
</mgrwt>
</event>
<event>
 4    1  0.2058093E-008  0.2474473E+04  0.7816531E-02  0.8412136E-01
          2   -1    0    0  501    0  0.00000000000E+00  0.00000000000E+00  0.16170530291E+04  0.16170530291E+04  0.00000000000E+00 0.  1.
         -2   -1    0    0    0  501 -0.00000000000E+00 -0.00000000000E+00 -0.94663208337E+03  0.94663208337E+03  0.00000000000E+00 0. -1.
    2000013    1    1    2    0    0  0.62528190341E+02 -0.42170980032E+03 -0.35709103440E+03  0.11008010434E+04  0.95000000000E+03 0.  0.
   -2000013    1    1    2    0    0 -0.62528190341E+02  0.42170980032E+03  0.10275119801E+04  0.14628840691E+04  0.95000000000E+03 0.  0.
<mgrwt>
<rscale>  0 0.24744731E+04</rscale>
<asrwt>0</asrwt>
<pdfrwt beam="1">  1        2 0.24877739E+00 0.24744731E+04</pdfrwt>
<pdfrwt beam="2">  1       -2 0.14563570E+00 0.24744731E+04</pdfrwt>
<totfact> 0.31589804E+00</totfact>
</mgrwt>
</event>
<event>
 4    1  0.2058093E-008  0.2834094E+04  0.7816531E-02  0.8292761E-01
         -2   -1    0    0    0  501 -0.00000000000E+00  0.00000000000E+00  0.11415121031E+04  0.11415121031E+04  0.00000000000E+00 0. -1.
          2   -1    0    0  501    0  0.00000000000E+00 -0.00000000000E+00 -0.17590902868E+04  0.17590902868E+04  0.00000000000E+00 0.  1.
    2000013    1    1    2    0    0  0.43212463233E+03 -0.32061457038E+03 -0.12333132856E+04  0.16471451244E+04  0.95000000000E+03 0.  0.
   -2000013    1    1    2    0    0 -0.43212463233E+03  0.32061457038E+03  0.61573510191E+03  0.12534572655E+04  0.95000000000E+03 0.  0.
<mgrwt>
<rscale>  0 0.28340945E+04</rscale>
<asrwt>0</asrwt>
<pdfrwt beam="2">  1        2 0.27062928E+00 0.28340945E+04</pdfrwt>
<pdfrwt beam="1">  1       -2 0.17561725E+00 0.28340945E+04</pdfrwt>
<totfact> 0.15349826E+00</totfact>
</mgrwt>
</event>
<event>
 4    1  0.2058093E-008  0.2554942E+04  0.7816531E-02  0.8383669E-01
          1   -1    0    0  501    0  0.00000000000E+00  0.00000000000E+00  0.25661904186E+04  0.25661904186E+04  0.00000000000E+00 0.  1.
         -1   -1    0    0    0  501 -0.00000000000E+00 -0.00000000000E+00 -0.63593584742E+03  0.63593584742E+03  0.00000000000E+00 0. -1.
    2000013    1    1    2    0    0  0.43717085990E+03 -0.72353132567E+03  0.81257077684E+03  0.15091014569E+04  0.95000000000E+03 0.  0.
   -2000013    1    1    2    0    0 -0.43717085990E+03  0.72353132567E+03  0.11176837943E+04  0.16930248091E+04  0.95000000000E+03 0.  0.
<mgrwt>
<rscale>  0 0.25549423E+04</rscale>
<asrwt>0</asrwt>
<pdfrwt beam="1">  1        1 0.39479852E+00 0.25549423E+04</pdfrwt>
<pdfrwt beam="2">  1       -1 0.97836286E-01 0.25549423E+04</pdfrwt>
<totfact> 0.10788984E+00</totfact>
</mgrwt>
</event>
<event>
 4    1  0.2058093E-008  0.2490381E+04  0.7816531E-02  0.8406420E-01
          2   -1    0    0  501    0  0.00000000000E+00  0.00000000000E+00  0.38703897017E+04  0.38703897017E+04  0.00000000000E+00 0.  1.
         -2   -1    0    0    0  501 -0.00000000000E+00 -0.00000000000E+00 -0.40060551906E+03  0.40060551906E+03  0.00000000000E+00 0. -1.
    2000013    1    1    2    0    0  0.22413370260E+03  0.73615909460E+03  0.13296541444E+04  0.18062796774E+04  0.95000000000E+03 0.  0.
   -2000013    1    1    2    0    0 -0.22413370260E+03 -0.73615909460E+03  0.21401300383E+04  0.24647155434E+04  0.95000000000E+03 0.  0.
<mgrwt>
<rscale>  0 0.24903811E+04</rscale>
<asrwt>0</asrwt>
<pdfrwt beam="1">  1        2 0.59544455E+00 0.24903811E+04</pdfrwt>
<pdfrwt beam="2">  1       -2 0.61631621E-01 0.24903811E+04</pdfrwt>
<totfact> 0.94952290E-01</totfact>
</mgrwt>
</event>
<event>
 4    1  0.2058093E-008  0.2448852E+04  0.7816531E-02  0.8421437E-01
          2   -1    0    0  501    0  0.00000000000E+00  0.00000000000E+00  0.19260021497E+04  0.19260021497E+04  0.00000000000E+00 0.  1.
         -2   -1    0    0    0  501 -0.00000000000E+00 -0.00000000000E+00 -0.77840962577E+03  0.77840962577E+03  0.00000000000E+00 0. -1.
    2000013    1    1    2    0    0 -0.14621900998E+03  0.71675068400E+03  0.29968579487E+03  0.12358896057E+04  0.95000000000E+03 0.  0.
   -2000013    1    1    2    0    0  0.14621900998E+03 -0.71675068400E+03  0.84790672907E+03  0.14685221698E+04  0.95000000000E+03 0.  0.
<mgrwt>
<rscale>  0 0.24488517E+04</rscale>
<asrwt>0</asrwt>
<pdfrwt beam="1">  1        2 0.29630802E+00 0.24488517E+04</pdfrwt>
<pdfrwt beam="2">  1       -2 0.11975533E+00 0.24488517E+04</pdfrwt>
<totfact> 0.35111167E+00</totfact>
</mgrwt>
</event>
<event>
 4    1  0.2058093E-008  0.2477672E+04  0.7816531E-02  0.8410983E-01
         -2   -1    0    0    0  501 -0.00000000000E+00  0.00000000000E+00  0.11927190116E+04  0.11927190116E+04  0.00000000000E+00 0. -1.
          2   -1    0    0  501    0  0.00000000000E+00 -0.00000000000E+00 -0.12867359862E+04  0.12867359862E+04  0.00000000000E+00 0.  1.
    2000013    1    1    2    0    0 -0.56410249623E+03  0.50056403989E+03  0.20504276314E+03  0.12301701179E+04  0.95000000000E+03 0.  0.
   -2000013    1    1    2    0    0  0.56410249623E+03 -0.50056403989E+03 -0.29905973782E+03  0.12492848799E+04  0.95000000000E+03 0.  0.
<mgrwt>
<rscale>  0 0.24776719E+04</rscale>
<asrwt>0</asrwt>
<pdfrwt beam="2">  1        2 0.19795938E+00 0.24776719E+04</pdfrwt>
<pdfrwt beam="1">  1       -2 0.18349523E+00 0.24776719E+04</pdfrwt>
<totfact> 0.25799709E+00</totfact>
</mgrwt>
</event>
<event>
 4    1  0.2058093E-008  0.2997399E+04  0.7816531E-02  0.8244474E-01
         -2   -1    0    0    0  501 -0.00000000000E+00  0.00000000000E+00  0.10309673159E+04  0.10309673159E+04  0.00000000000E+00 0. -1.
          2   -1    0    0  501    0  0.00000000000E+00 -0.00000000000E+00 -0.21786331945E+04  0.21786331945E+04  0.00000000000E+00 0.  1.
    2000013    1    1    2    0    0 -0.10574470967E+04 -0.24463520442E+03 -0.13813780876E+03  0.14490075224E+04  0.95000000000E+03 0.  0.
   -2000013    1    1    2    0    0  0.10574470967E+04  0.24463520442E+03 -0.10095280699E+04  0.17605929880E+04  0.95000000000E+03 0.  0.
<mgrwt>
<rscale>  0 0.29973986E+04</rscale>
<asrwt>0</asrwt>
<pdfrwt beam="2">  1        2 0.33517434E+00 0.29973986E+04</pdfrwt>
<pdfrwt beam="1">  1       -2 0.15861036E+00 0.29973986E+04</pdfrwt>
<totfact> 0.11724319E+00</totfact>
</mgrwt>
</event>
<event>
 4    1  0.2058093E-008  0.2418593E+04  0.7816531E-02  0.8432575E-01
          2   -1    0    0  501    0  0.00000000000E+00  0.00000000000E+00  0.29530391106E+04  0.29530391106E+04  0.00000000000E+00 0.  1.
         -2   -1    0    0    0  501 -0.00000000000E+00 -0.00000000000E+00 -0.49521800738E+03  0.49521800738E+03  0.00000000000E+00 0. -1.
    2000013    1    1    2    0    0 -0.57785119942E+03  0.46378497474E+03  0.13776901719E+04  0.18301745057E+04  0.95000000000E+03 0.  0.
   -2000013    1    1    2    0    0  0.57785119942E+03 -0.46378497474E+03  0.10801309314E+04  0.16180826123E+04  0.95000000000E+03 0.  0.
<mgrwt>
<rscale>  0 0.24185931E+04</rscale>
<asrwt>0</asrwt>
<pdfrwt beam="1">  1        2 0.45431370E+00 0.24185931E+04</pdfrwt>
<pdfrwt beam="2">  1       -2 0.76187387E-01 0.24185931E+04</pdfrwt>
<totfact> 0.25798971E+00</totfact>
</mgrwt>
</event>
<event>
 4    1  0.2058093E-008  0.2594034E+04  0.7816531E-02  0.8370231E-01
         -2   -1    0    0    0  501 -0.00000000000E+00  0.00000000000E+00  0.69292994402E+03  0.69292994402E+03  0.00000000000E+00 0. -1.
          2   -1    0    0  501    0  0.00000000000E+00 -0.00000000000E+00 -0.24277389252E+04  0.24277389252E+04  0.00000000000E+00 0.  1.
    2000013    1    1    2    0    0  0.35429791323E+03  0.31901107581E+02 -0.18396991194E+04  0.21008421030E+04  0.95000000000E+03 0.  0.
   -2000013    1    1    2    0    0 -0.35429791323E+03 -0.31901107581E+02  0.10489013819E+03  0.10198267662E+04  0.95000000000E+03 0.  0.
<mgrwt>
<rscale>  0 0.25940339E+04</rscale>
<asrwt>0</asrwt>
<pdfrwt beam="2">  1        2 0.37349829E+00 0.25940339E+04</pdfrwt>
<pdfrwt beam="1">  1       -2 0.10660461E+00 0.25940339E+04</pdfrwt>
<totfact> 0.24032595E+00</totfact>
</mgrwt>
</event>
<event>
 4    1  0.2058093E-008  0.3127735E+04  0.7816531E-02  0.8208167E-01
          2   -1    0    0  501    0  0.00000000000E+00  0.00000000000E+00  0.15160112054E+04  0.15160112054E+04  0.00000000000E+00 0.  1.
         -2   -1    0    0    0  501 -0.00000000000E+00 -0.00000000000E+00 -0.16132348113E+04  0.16132348113E+04  0.00000000000E+00 0. -1.
    2000013    1    1    2    0    0  0.12923856099E+03 -0.86784618650E+03  0.83120048052E+03  0.15372878221E+04  0.95000000000E+03 0.  0.
   -2000013    1    1    2    0    0 -0.12923856099E+03  0.86784618650E+03 -0.92842408651E+03  0.15919581946E+04  0.95000000000E+03 0.  0.
<mgrwt>
<rscale>  0 0.31277353E+04</rscale>
<asrwt>0</asrwt>
<pdfrwt beam="1">  1        2 0.23323249E+00 0.31277353E+04</pdfrwt>
<pdfrwt beam="2">  1       -2 0.24818997E+00 0.31277353E+04</pdfrwt>
<totfact> 0.69436865E-01</totfact>
</mgrwt>
</event>
<event>
 4    1  0.2058093E-008  0.2441113E+04  0.7816531E-02  0.8424270E-01
          2   -1    0    0  501    0  0.00000000000E+00  0.00000000000E+00  0.35877186634E+04  0.35877186634E+04  0.00000000000E+00 0.  1.
         -2   -1    0    0    0  501 -0.00000000000E+00 -0.00000000000E+00 -0.41523827845E+03  0.41523827845E+03  0.00000000000E+00 0. -1.
    2000013    1    1    2    0    0  0.54641026258E+03 -0.40591631447E+03  0.21635036534E+04  0.24589795216E+04  0.95000000000E+03 0.  0.
   -2000013    1    1    2    0    0 -0.54641026258E+03  0.40591631447E+03  0.10089767316E+04  0.15439774202E+04  0.95000000000E+03 0.  0.
<mgrwt>
<rscale>  0 0.24411130E+04</rscale>
<asrwt>0</asrwt>
<pdfrwt beam="1">  1        2 0.55195670E+00 0.24411130E+04</pdfrwt>
<pdfrwt beam="2">  1       -2 0.63882815E-01 0.24411130E+04</pdfrwt>
<totfact> 0.14337241E+00</totfact>
</mgrwt>
</event>
<event>
 4    1  0.2058093E-008  0.2391844E+04  0.7816531E-02  0.8442563E-01
          2   -1    0    0  501    0  0.00000000000E+00  0.00000000000E+00  0.16761377657E+04  0.16761377657E+04  0.00000000000E+00 0.  1.
         -2   -1    0    0    0  501 -0.00000000000E+00 -0.00000000000E+00 -0.85328888124E+03  0.85328888124E+03  0.00000000000E+00 0. -1.
    2000013    1    1    2    0    0  0.54569254312E+03  0.41064181270E+03  0.67330286638E+03  0.13499051077E+04  0.95000000000E+03 0.  0.
   -2000013    1    1    2    0    0 -0.54569254312E+03 -0.41064181270E+03  0.14954601807E+03  0.11795215392E+04  0.95000000000E+03 0.  0.
<mgrwt>
<rscale>  0 0.23918442E+04</rscale>
<asrwt>0</asrwt>
<pdfrwt beam="1">  1        2 0.25786735E+00 0.23918442E+04</pdfrwt>
<pdfrwt beam="2">  1       -2 0.13127521E+00 0.23918442E+04</pdfrwt>
<totfact> 0.38555096E+00</totfact>
</mgrwt>
</event>
<event>
 4    1  0.2058093E-008  0.2765369E+04  0.7816531E-02  0.8314101E-01
          2   -1    0    0  501    0  0.00000000000E+00  0.00000000000E+00  0.23665884774E+04  0.23665884774E+04  0.00000000000E+00 0.  1.
         -2   -1    0    0    0  501 -0.00000000000E+00 -0.00000000000E+00 -0.80783641544E+03  0.80783641544E+03  0.00000000000E+00 0. -1.
    2000013    1    1    2    0    0 -0.62350033404E+03 -0.68268209622E+03  0.12305963438E+04  0.18087771760E+04  0.95000000000E+03 0.  0.
   -2000013    1    1    2    0    0  0.62350033404E+03  0.68268209622E+03  0.32815571809E+03  0.13656477168E+04  0.95000000000E+03 0.  0.
<mgrwt>
<rscale>  0 0.27653689E+04</rscale>
<asrwt>0</asrwt>
<pdfrwt beam="1">  1        2 0.36409053E+00 0.27653689E+04</pdfrwt>
<pdfrwt beam="2">  1       -2 0.12428253E+00 0.27653689E+04</pdfrwt>
<totfact> 0.17632876E+00</totfact>
</mgrwt>
</event>
<event>
 4    1  0.2058093E-008  0.2576495E+04  0.7816531E-02  0.8376229E-01
          2   -1    0    0  501    0  0.00000000000E+00  0.00000000000E+00  0.10278593227E+04  0.10278593227E+04  0.00000000000E+00 0. -1.
         -2   -1    0    0    0  501 -0.00000000000E+00 -0.00000000000E+00 -0.16145998930E+04  0.16145998930E+04  0.00000000000E+00 0.  1.
    2000013    1    1    2    0    0 -0.25886003728E+03 -0.81595188156E+03 -0.45323126098E+03  0.13567256789E+04  0.95000000000E+03 0.  0.
   -2000013    1    1    2    0    0  0.25886003728E+03  0.81595188156E+03 -0.13350930938E+03  0.12857335368E+04  0.95000000000E+03 0.  0.
<mgrwt>
<rscale>  0 0.25764949E+04</rscale>
<asrwt>0</asrwt>
<pdfrwt beam="1">  1        2 0.15813220E+00 0.25764949E+04</pdfrwt>
<pdfrwt beam="2">  1       -2 0.24839998E+00 0.25764949E+04</pdfrwt>
<totfact> 0.14083699E+00</totfact>
</mgrwt>
</event>
<event>
 4    1  0.2058093E-008  0.2485299E+04  0.7816531E-02  0.8408242E-01
          2   -1    0    0  501    0  0.00000000000E+00  0.00000000000E+00  0.36130328112E+04  0.36130328112E+04  0.00000000000E+00 0.  1.
         -2   -1    0    0    0  501 -0.00000000000E+00 -0.00000000000E+00 -0.42739107499E+03  0.42739107499E+03  0.00000000000E+00 0. -1.
    2000013    1    1    2    0    0  0.23275757767E+03  0.58980718313E+03  0.23886471612E+04  0.26476751810E+04  0.95000000000E+03 0.  0.
   -2000013    1    1    2    0    0 -0.23275757767E+03 -0.58980718313E+03  0.79699457498E+03  0.13927487052E+04  0.95000000000E+03 0.  0.
<mgrwt>
<rscale>  0 0.24852992E+04</rscale>
<asrwt>0</asrwt>
<pdfrwt beam="1">  1        2 0.55585118E+00 0.24852992E+04</pdfrwt>
<pdfrwt beam="2">  1       -2 0.65752476E-01 0.24852992E+04</pdfrwt>
<totfact> 0.12871653E+00</totfact>
</mgrwt>
</event>
<event>
 4    1  0.2058093E-008  0.2777999E+04  0.7816531E-02  0.8310131E-01
          2   -1    0    0  501    0  0.00000000000E+00  0.00000000000E+00  0.12789114377E+04  0.12789114377E+04  0.00000000000E+00 0.  1.
         -2   -1    0    0    0  501 -0.00000000000E+00 -0.00000000000E+00 -0.15085641882E+04  0.15085641882E+04  0.00000000000E+00 0. -1.
    2000013    1    1    2    0    0 -0.61741329904E+03 -0.75409046950E+03  0.16355175540E+03  0.13708029744E+04  0.95000000000E+03 0.  0.
   -2000013    1    1    2    0    0  0.61741329904E+03  0.75409046950E+03 -0.39320450594E+03  0.14166726515E+04  0.95000000000E+03 0.  0.
<mgrwt>
<rscale>  0 0.27779993E+04</rscale>
<asrwt>0</asrwt>
<pdfrwt beam="1">  1        2 0.19675561E+00 0.27779993E+04</pdfrwt>
<pdfrwt beam="2">  1       -2 0.23208680E+00 0.27779993E+04</pdfrwt>
<totfact> 0.12300984E+00</totfact>
</mgrwt>
</event>
<event>
 4    1  0.2058093E-008  0.2391197E+04  0.7816531E-02  0.8442806E-01
          2   -1    0    0  501    0  0.00000000000E+00  0.00000000000E+00  0.12832299263E+04  0.12832299263E+04  0.00000000000E+00 0.  1.
         -2   -1    0    0    0  501 -0.00000000000E+00 -0.00000000000E+00 -0.11139518357E+04  0.11139518357E+04  0.00000000000E+00 0. -1.
    2000013    1    1    2    0    0  0.47684558877E+03  0.51617153907E+03  0.26714287764E+03  0.12114784729E+04  0.95000000000E+03 0.  0.
   -2000013    1    1    2    0    0 -0.47684558877E+03 -0.51617153907E+03 -0.97864787080E+02  0.11857032891E+04  0.95000000000E+03 0.  0.
<mgrwt>
<rscale>  0 0.23911975E+04</rscale>
<asrwt>0</asrwt>
<pdfrwt beam="1">  1        2 0.19741999E+00 0.23911975E+04</pdfrwt>
<pdfrwt beam="2">  1       -2 0.17137721E+00 0.23911975E+04</pdfrwt>
<totfact> 0.31710702E+00</totfact>
</mgrwt>
</event>
<event>
 4    1  0.2058093E-008  0.2507336E+04  0.7816531E-02  0.8400377E-01
         -2   -1    0    0    0  501 -0.00000000000E+00  0.00000000000E+00  0.70704202998E+03  0.70704202998E+03  0.00000000000E+00 0.  1.
          2   -1    0    0  501    0  0.00000000000E+00 -0.00000000000E+00 -0.22228998814E+04  0.22228998814E+04  0.00000000000E+00 0. -1.
    2000013    1    1    2    0    0  0.44359770343E+03  0.17426044949E+03 -0.15348488498E+04  0.18669243740E+04  0.95000000000E+03 0.  0.
   -2000013    1    1    2    0    0 -0.44359770343E+03 -0.17426044949E+03  0.18990998320E+02  0.10630175374E+04  0.95000000000E+03 0.  0.
<mgrwt>
<rscale>  0 0.25073362E+04</rscale>
<asrwt>0</asrwt>
<pdfrwt beam="2">  1        2 0.34198460E+00 0.25073362E+04</pdfrwt>
<pdfrwt beam="1">  1       -2 0.10877569E+00 0.25073362E+04</pdfrwt>
<totfact> 0.30158020E+00</totfact>
</mgrwt>
</event>
<event>
 4    1  0.2058093E-008  0.2272799E+04  0.7816531E-02  0.8488724E-01
         -2   -1    0    0    0  501 -0.00000000000E+00  0.00000000000E+00  0.98758435167E+03  0.98758435167E+03  0.00000000000E+00 0. -1.
          2   -1    0    0  501    0  0.00000000000E+00 -0.00000000000E+00 -0.13076394149E+04  0.13076394149E+04  0.00000000000E+00 0.  1.
    2000013    1    1    2    0    0 -0.48405409453E+03  0.27449980989E+03  0.12425607759E+03  0.11079702545E+04  0.95000000000E+03 0.  0.
   -2000013    1    1    2    0    0  0.48405409453E+03 -0.27449980989E+03 -0.44431114083E+03  0.11872535121E+04  0.95000000000E+03 0.  0.
<mgrwt>
<rscale>  0 0.22727994E+04</rscale>
<asrwt>0</asrwt>
<pdfrwt beam="2">  1        2 0.20117529E+00 0.22727994E+04</pdfrwt>
<pdfrwt beam="1">  1       -2 0.15193605E+00 0.22727994E+04</pdfrwt>
<totfact> 0.43057950E+00</totfact>
</mgrwt>
</event>
<event>
 4    1  0.2058093E-008  0.2351531E+04  0.7816531E-02  0.8457876E-01
          2   -1    0    0  501    0  0.00000000000E+00  0.00000000000E+00  0.11093162643E+04  0.11093162643E+04  0.00000000000E+00 0.  1.
         -2   -1    0    0    0  501 -0.00000000000E+00 -0.00000000000E+00 -0.12461950258E+04  0.12461950258E+04  0.00000000000E+00 0. -1.
    2000013    1    1    2    0    0 -0.30578910876E+03  0.56429434947E+03 -0.32962835643E+03  0.11929333365E+04  0.95000000000E+03 0.  0.
   -2000013    1    1    2    0    0  0.30578910876E+03 -0.56429434947E+03  0.19274959490E+03  0.11625779536E+04  0.95000000000E+03 0.  0.
<mgrwt>
<rscale>  0 0.23515309E+04</rscale>
<asrwt>0</asrwt>
<pdfrwt beam="1">  1        2 0.17066404E+00 0.23515309E+04</pdfrwt>
<pdfrwt beam="2">  1       -2 0.19172231E+00 0.23515309E+04</pdfrwt>
<totfact> 0.29293767E+00</totfact>
</mgrwt>
</event>
<event>
 4    1  0.2058093E-008  0.2278031E+04  0.7816531E-02  0.8486634E-01
          2   -1    0    0  501    0  0.00000000000E+00  0.00000000000E+00  0.20232865456E+04  0.20232865456E+04  0.00000000000E+00 0.  1.
         -2   -1    0    0    0  501 -0.00000000000E+00 -0.00000000000E+00 -0.64121219972E+03  0.64121219972E+03  0.00000000000E+00 0. -1.
    2000013    1    1    2    0    0 -0.99257215394E+02  0.57892968796E+03  0.95217169632E+03  0.14676997369E+04  0.95000000000E+03 0.  0.
   -2000013    1    1    2    0    0  0.99257215394E+02 -0.57892968796E+03  0.42990264952E+03  0.11967990084E+04  0.95000000000E+03 0.  0.
<mgrwt>
<rscale>  0 0.22780307E+04</rscale>
<asrwt>0</asrwt>
<pdfrwt beam="1">  1        2 0.31127485E+00 0.22780307E+04</pdfrwt>
<pdfrwt beam="2">  1       -2 0.98648032E-01 0.22780307E+04</pdfrwt>
<totfact> 0.50236721E+00</totfact>
</mgrwt>
</event>
<event>
 4    1  0.2058093E-008  0.2798237E+04  0.7816531E-02  0.8303816E-01
         -2   -1    0    0    0  501 -0.00000000000E+00  0.00000000000E+00  0.79103951760E+03  0.79103951760E+03  0.00000000000E+00 0. -1.
          2   -1    0    0  501    0  0.00000000000E+00 -0.00000000000E+00 -0.24746330152E+04  0.24746330152E+04  0.00000000000E+00 0.  1.
    2000013    1    1    2    0    0  0.13642081797E+03 -0.93460149523E+03 -0.37070602715E+03  0.13899689036E+04  0.95000000000E+03 0.  0.
   -2000013    1    1    2    0    0 -0.13642081797E+03  0.93460149523E+03 -0.13128874705E+04  0.18757036292E+04  0.95000000000E+03 0.  0.
<mgrwt>
<rscale>  0 0.27982369E+04</rscale>
<asrwt>0</asrwt>
<pdfrwt beam="2">  1        2 0.38071277E+00 0.27982369E+04</pdfrwt>
<pdfrwt beam="1">  1       -2 0.12169839E+00 0.27982369E+04</pdfrwt>
<totfact> 0.16064375E+00</totfact>
</mgrwt>
</event>
<event>
 4    1  0.2058093E-008  0.2410132E+04  0.7816531E-02  0.8435720E-01
         -2   -1    0    0    0  501 -0.00000000000E+00  0.00000000000E+00  0.57295579424E+03  0.57295579424E+03  0.00000000000E+00 0. -1.
          2   -1    0    0  501    0  0.00000000000E+00 -0.00000000000E+00 -0.25345481685E+04  0.25345481685E+04  0.00000000000E+00 0.  1.
    2000013    1    1    2    0    0  0.48375197147E+03  0.56177751382E+03 -0.96969623968E+03  0.15467452092E+04  0.95000000000E+03 0.  0.
   -2000013    1    1    2    0    0 -0.48375197147E+03 -0.56177751382E+03 -0.99189613455E+03  0.15607587535E+04  0.95000000000E+03 0.  0.
<mgrwt>
<rscale>  0 0.24101320E+04</rscale>
<asrwt>0</asrwt>
<pdfrwt beam="2">  1        2 0.38993048E+00 0.24101320E+04</pdfrwt>
<pdfrwt beam="1">  1       -2 0.88147046E-01 0.24101320E+04</pdfrwt>
<totfact> 0.33106432E+00</totfact>
</mgrwt>
</event>
<event>
 4    1  0.2058093E-008  0.3421776E+04  0.7816531E-02  0.8132582E-01
          2   -1    0    0  501    0  0.00000000000E+00  0.00000000000E+00  0.74560392729E+03  0.74560392729E+03  0.00000000000E+00 0.  1.
         -2   -1    0    0    0  501 -0.00000000000E+00 -0.00000000000E+00 -0.39258606691E+04  0.39258606691E+04  0.00000000000E+00 0. -1.
    2000013    1    1    2    0    0 -0.10463825914E+04  0.92664844109E+03 -0.12262443297E+04  0.20880059907E+04  0.95000000000E+03 0.  0.
   -2000013    1    1    2    0    0  0.10463825914E+04 -0.92664844109E+03 -0.19540124121E+04  0.25834586057E+04  0.95000000000E+03 0.  0.
<mgrwt>
<rscale>  0 0.34217756E+04</rscale>
<asrwt>0</asrwt>
<pdfrwt beam="1">  1        2 0.11470830E+00 0.34217756E+04</pdfrwt>
<pdfrwt beam="2">  1       -2 0.60397857E+00 0.34217756E+04</pdfrwt>
<totfact> 0.15181476E-02</totfact>
</mgrwt>
</event>
<event>
 4    1  0.2058093E-008  0.2358338E+04  0.7816531E-02  0.8455268E-01
         -1   -1    0    0    0  501 -0.00000000000E+00  0.00000000000E+00  0.13400702858E+04  0.13400702858E+04  0.00000000000E+00 0. -1.
          1   -1    0    0  501    0  0.00000000000E+00 -0.00000000000E+00 -0.10375866591E+04  0.10375866591E+04  0.00000000000E+00 0.  1.
    2000013    1    1    2    0    0  0.49554525557E+02 -0.41925006478E+03 -0.40983559836E+03  0.11174486501E+04  0.95000000000E+03 0.  0.
   -2000013    1    1    2    0    0 -0.49554525557E+02  0.41925006478E+03  0.71231922507E+03  0.12602082948E+04  0.95000000000E+03 0.  0.
<mgrwt>
<rscale>  0 0.23583376E+04</rscale>
<asrwt>0</asrwt>
<pdfrwt beam="2">  1        1 0.15962872E+00 0.23583376E+04</pdfrwt>
<pdfrwt beam="1">  1       -1 0.20616466E+00 0.23583376E+04</pdfrwt>
<totfact> 0.17370018E+00</totfact>
</mgrwt>
</event>
<event>
 4    1  0.2058093E-008  0.1999592E+04  0.7816531E-02  0.8606811E-01
          2   -1    0    0  501    0  0.00000000000E+00  0.00000000000E+00  0.16639654868E+04  0.16639654868E+04  0.00000000000E+00 0.  1.
         -2   -1    0    0    0  501 -0.00000000000E+00 -0.00000000000E+00 -0.60072879361E+03  0.60072879361E+03  0.00000000000E+00 0. -1.
    2000013    1    1    2    0    0 -0.29045185950E+03  0.55625405616E+02  0.42044374454E+03  0.10801524942E+04  0.95000000000E+03 0.  0.
   -2000013    1    1    2    0    0  0.29045185950E+03 -0.55625405616E+02  0.64279294869E+03  0.11845417862E+04  0.95000000000E+03 0.  0.
<mgrwt>
<rscale>  0 0.19995919E+04</rscale>
<asrwt>0</asrwt>
<pdfrwt beam="1">  1        2 0.25599469E+00 0.19995919E+04</pdfrwt>
<pdfrwt beam="2">  1       -2 0.92419815E-01 0.19995919E+04</pdfrwt>
<totfact> 0.94836780E+00</totfact>
</mgrwt>
</event>
<event>
 4    1  0.2058093E-008  0.2251240E+04  0.7816531E-02  0.8497399E-01
         -1   -1    0    0    0  501 -0.00000000000E+00  0.00000000000E+00  0.57185537417E+03  0.57185537417E+03  0.00000000000E+00 0.  1.
          1   -1    0    0  501    0  0.00000000000E+00 -0.00000000000E+00 -0.22156304935E+04  0.22156304935E+04  0.00000000000E+00 0. -1.
    2000013    1    1    2    0    0  0.56780846703E+03  0.20389991039E+03 -0.79315234306E+03  0.13767978312E+04  0.95000000000E+03 0.  0.
   -2000013    1    1    2    0    0 -0.56780846703E+03 -0.20389991039E+03 -0.85062277623E+03  0.14106880364E+04  0.95000000000E+03 0.  0.
<mgrwt>
<rscale>  0 0.22512398E+04</rscale>
<asrwt>0</asrwt>
<pdfrwt beam="2">  1        1 0.34086623E+00 0.22512398E+04</pdfrwt>
<pdfrwt beam="1">  1       -1 0.87977749E-01 0.22512398E+04</pdfrwt>
<totfact> 0.24498406E+00</totfact>
</mgrwt>
</event>
<event>
 4    1  0.2058093E-008  0.2256309E+04  0.7816531E-02  0.8495350E-01
         -2   -1    0    0    0  501 -0.00000000000E+00  0.00000000000E+00  0.95156272265E+03  0.95156272265E+03  0.00000000000E+00 0. -1.
          2   -1    0    0  501    0  0.00000000000E+00 -0.00000000000E+00 -0.13375181696E+04  0.13375181696E+04  0.00000000000E+00 0.  1.
    2000013    1    1    2    0    0  0.49530591173E+03 -0.35029180664E+03 -0.14539084018E+03  0.11365169565E+04  0.95000000000E+03 0.  0.
   -2000013    1    1    2    0    0 -0.49530591173E+03  0.35029180664E+03 -0.24056460677E+03  0.11525639358E+04  0.95000000000E+03 0.  0.
<mgrwt>
<rscale>  0 0.22563089E+04</rscale>
<asrwt>0</asrwt>
<pdfrwt beam="2">  1        2 0.20577203E+00 0.22563089E+04</pdfrwt>
<pdfrwt beam="1">  1       -2 0.14639426E+00 0.22563089E+04</pdfrwt>
<totfact> 0.45712327E+00</totfact>
</mgrwt>
</event>
<event>
 4    1  0.2058093E-008  0.2211044E+04  0.7816531E-02  0.8513845E-01
          1   -1    0    0  501    0  0.00000000000E+00  0.00000000000E+00  0.39549998372E+04  0.39549998372E+04  0.00000000000E+00 0.  1.
         -1   -1    0    0    0  501 -0.00000000000E+00 -0.00000000000E+00 -0.30902126945E+03  0.30902126945E+03  0.00000000000E+00 0. -1.
    2000013    1    1    2    0    0  0.40828356053E+03  0.29188430426E+03  0.23250955491E+04  0.25613397325E+04  0.95000000000E+03 0.  0.
   -2000013    1    1    2    0    0 -0.40828356053E+03 -0.29188430426E+03  0.13208830186E+04  0.17026813741E+04  0.95000000000E+03 0.  0.
<mgrwt>
<rscale>  0 0.22110442E+04</rscale>
<asrwt>0</asrwt>
<pdfrwt beam="1">  1        1 0.60846148E+00 0.22110442E+04</pdfrwt>
<pdfrwt beam="2">  1       -1 0.47541737E-01 0.22110442E+04</pdfrwt>
<totfact> 0.42485706E-01</totfact>
</mgrwt>
</event>
<event>
 4    1  0.2058093E-008  0.2372328E+04  0.7816531E-02  0.8449937E-01
         -1   -1    0    0    0  501 -0.00000000000E+00  0.00000000000E+00  0.13044805896E+04  0.13044805896E+04  0.00000000000E+00 0.  1.
          1   -1    0    0  501    0  0.00000000000E+00 -0.00000000000E+00 -0.10785789920E+04  0.10785789920E+04  0.00000000000E+00 0. -1.
    2000013    1    1    2    0    0 -0.48682984586E+03  0.37740818059E+03 -0.24226600319E+03  0.11578570939E+04  0.95000000000E+03 0.  0.
   -2000013    1    1    2    0    0  0.48682984586E+03 -0.37740818059E+03  0.46816760074E+03  0.12252024877E+04  0.95000000000E+03 0.  0.
<mgrwt>
<rscale>  0 0.23723283E+04</rscale>
<asrwt>0</asrwt>
<pdfrwt beam="2">  1        1 0.16593523E+00 0.23723283E+04</pdfrwt>
<pdfrwt beam="1">  1       -1 0.20068932E+00 0.23723283E+04</pdfrwt>
<totfact> 0.17598813E+00</totfact>
</mgrwt>
</event>
<event>
 4    1  0.2058093E-008  0.3693640E+04  0.7816531E-02  0.8069373E-01
          2   -1    0    0  501    0  0.00000000000E+00  0.00000000000E+00  0.28807321395E+04  0.28807321395E+04  0.00000000000E+00 0.  1.
         -2   -1    0    0    0  501 -0.00000000000E+00 -0.00000000000E+00 -0.11839852076E+04  0.11839852076E+04  0.00000000000E+00 0. -1.
    2000013    1    1    2    0    0  0.12294447533E+04 -0.69372986490E+03  0.16384488084E+04  0.23621621503E+04  0.95000000000E+03 0.  0.
   -2000013    1    1    2    0    0 -0.12294447533E+04  0.69372986490E+03  0.58298123515E+02  0.17025551968E+04  0.95000000000E+03 0.  0.
<mgrwt>
<rscale>  0 0.36936401E+04</rscale>
<asrwt>0</asrwt>
<pdfrwt beam="1">  1        2 0.44318956E+00 0.36936401E+04</pdfrwt>
<pdfrwt beam="2">  1       -2 0.18215157E+00 0.36936401E+04</pdfrwt>
<totfact> 0.29249590E-01</totfact>
</mgrwt>
</event>
<event>
 4    1  0.2058093E-008  0.2894866E+04  0.7816531E-02  0.8274406E-01
          2   -1    0    0  501    0  0.00000000000E+00  0.00000000000E+00  0.11077883447E+04  0.11077883447E+04  0.00000000000E+00 0.  1.
         -2   -1    0    0    0  501 -0.00000000000E+00 -0.00000000000E+00 -0.18912123349E+04  0.18912123349E+04  0.00000000000E+00 0. -1.
    2000013    1    1    2    0    0 -0.10764421635E+04  0.11288451180E+03 -0.24125569271E+03  0.14601968887E+04  0.95000000000E+03 0.  0.
   -2000013    1    1    2    0    0  0.10764421635E+04 -0.11288451180E+03 -0.54216829750E+03  0.15388037910E+04  0.95000000000E+03 0.  0.
<mgrwt>
<rscale>  0 0.28948665E+04</rscale>
<asrwt>0</asrwt>
<pdfrwt beam="1">  1        2 0.17042898E+00 0.28948665E+04</pdfrwt>
<pdfrwt beam="2">  1       -2 0.29095574E+00 0.28948665E+04</pdfrwt>
<totfact> 0.67158778E-01</totfact>
</mgrwt>
</event>
<event>
 4    1  0.2058093E-008  0.2302654E+04  0.7816531E-02  0.8476875E-01
          2   -1    0    0  501    0  0.00000000000E+00  0.00000000000E+00  0.19734130561E+04  0.19734130561E+04  0.00000000000E+00 0.  1.
         -2   -1    0    0    0  501 -0.00000000000E+00 -0.00000000000E+00 -0.67170649404E+03  0.67170649404E+03  0.00000000000E+00 0. -1.
    2000013    1    1    2    0    0  0.20756145384E+03 -0.59701211041E+03  0.82713372599E+03  0.14093102631E+04  0.95000000000E+03 0.  0.
   -2000013    1    1    2    0    0 -0.20756145384E+03  0.59701211041E+03  0.47457283606E+03  0.12358092870E+04  0.95000000000E+03 0.  0.
<mgrwt>
<rscale>  0 0.23026544E+04</rscale>
<asrwt>0</asrwt>
<pdfrwt beam="1">  1        2 0.30360201E+00 0.23026544E+04</pdfrwt>
<pdfrwt beam="2">  1       -2 0.10333946E+00 0.23026544E+04</pdfrwt>
<totfact> 0.47851939E+00</totfact>
</mgrwt>
</event>
<event>
 4    1  0.2058093E-008  0.2257955E+04  0.7816531E-02  0.8494686E-01
         -2   -1    0    0    0  501 -0.00000000000E+00  0.00000000000E+00  0.67322849680E+03  0.67322849680E+03  0.00000000000E+00 0. -1.
          2   -1    0    0  501    0  0.00000000000E+00 -0.00000000000E+00 -0.18932510273E+04  0.18932510273E+04  0.00000000000E+00 0.  1.
    2000013    1    1    2    0    0  0.18326299857E+03  0.49265631885E+03 -0.96180962523E+03  0.14504734849E+04  0.95000000000E+03 0.  0.
   -2000013    1    1    2    0    0 -0.18326299857E+03 -0.49265631885E+03 -0.25821290527E+03  0.11160060392E+04  0.95000000000E+03 0.  0.
<mgrwt>
<rscale>  0 0.22579553E+04</rscale>
<asrwt>0</asrwt>
<pdfrwt beam="2">  1        2 0.29126939E+00 0.22579553E+04</pdfrwt>
<pdfrwt beam="1">  1       -2 0.10357362E+00 0.22579553E+04</pdfrwt>
<totfact> 0.52927152E+00</totfact>
</mgrwt>
</event>
<event>
 4    1  0.2058093E-008  0.2679318E+04  0.7816531E-02  0.8341747E-01
         -2   -1    0    0    0  501 -0.00000000000E+00  0.00000000000E+00  0.95780187116E+03  0.95780187116E+03  0.00000000000E+00 0. -1.
          2   -1    0    0  501    0  0.00000000000E+00 -0.00000000000E+00 -0.18737554058E+04  0.18737554058E+04  0.00000000000E+00 0.  1.
    2000013    1    1    2    0    0 -0.93440770100E+03  0.13802782812E+03 -0.46233424157E+03  0.14171881964E+04  0.95000000000E+03 0.  0.
   -2000013    1    1    2    0    0  0.93440770100E+03 -0.13802782812E+03 -0.45361929304E+03  0.14143690806E+04  0.95000000000E+03 0.  0.
<mgrwt>
<rscale>  0 0.26793181E+04</rscale>
<asrwt>0</asrwt>
<pdfrwt beam="2">  1        2 0.28827006E+00 0.26793181E+04</pdfrwt>
<pdfrwt beam="1">  1       -2 0.14735413E+00 0.26793181E+04</pdfrwt>
<totfact> 0.21675353E+00</totfact>
</mgrwt>
</event>
<event>
 4    1  0.2058093E-008  0.2353233E+04  0.7816531E-02  0.8457223E-01
          1   -1    0    0  501    0  0.00000000000E+00  0.00000000000E+00  0.11088921989E+04  0.11088921989E+04  0.00000000000E+00 0.  1.
         -1   -1    0    0    0  501 -0.00000000000E+00 -0.00000000000E+00 -0.12484769066E+04  0.12484769066E+04  0.00000000000E+00 0. -1.
    2000013    1    1    2    0    0  0.55920986202E+03  0.32185893348E+03 -0.32640164464E+03  0.11938789203E+04  0.95000000000E+03 0.  0.
   -2000013    1    1    2    0    0 -0.55920986202E+03 -0.32185893348E+03  0.18681693694E+03  0.11634901851E+04  0.95000000000E+03 0.  0.
<mgrwt>
<rscale>  0 0.23532329E+04</rscale>
<asrwt>0</asrwt>
<pdfrwt beam="1">  1        1 0.17059880E+00 0.23532329E+04</pdfrwt>
<pdfrwt beam="2">  1       -1 0.19207337E+00 0.23532329E+04</pdfrwt>
<totfact> 0.19195592E+00</totfact>
</mgrwt>
</event>
<event>
 4    1  0.2058093E-008  0.2765630E+04  0.7816531E-02  0.8314019E-01
         -2   -1    0    0    0  501 -0.00000000000E+00  0.00000000000E+00  0.11966356717E+04  0.11966356717E+04  0.00000000000E+00 0. -1.
          2   -1    0    0  501    0  0.00000000000E+00 -0.00000000000E+00 -0.15979610212E+04  0.15979610212E+04  0.00000000000E+00 0.  1.
    2000013    1    1    2    0    0  0.76694293909E+03  0.21569296415E+03 -0.81940960067E+03  0.14861551131E+04  0.95000000000E+03 0.  0.
   -2000013    1    1    2    0    0 -0.76694293909E+03 -0.21569296415E+03  0.41808425111E+03  0.13084415798E+04  0.95000000000E+03 0.  0.
<mgrwt>
<rscale>  0 0.27656299E+04</rscale>
<asrwt>0</asrwt>
<pdfrwt beam="2">  1        2 0.24584016E+00 0.27656299E+04</pdfrwt>
<pdfrwt beam="1">  1       -2 0.18409780E+00 0.27656299E+04</pdfrwt>
<totfact> 0.16583448E+00</totfact>
</mgrwt>
</event>
<event>
 4    1  0.2058093E-008  0.2101517E+04  0.7816531E-02  0.8560575E-01
          2   -1    0    0  501    0  0.00000000000E+00  0.00000000000E+00  0.30177898951E+04  0.30177898951E+04  0.00000000000E+00 0.  1.
         -2   -1    0    0    0  501 -0.00000000000E+00 -0.00000000000E+00 -0.36586174385E+03  0.36586174385E+03  0.00000000000E+00 0. -1.
    2000013    1    1    2    0    0 -0.32622803395E+02  0.43451018420E+03  0.15003499864E+04  0.18285003225E+04  0.95000000000E+03 0.  0.
   -2000013    1    1    2    0    0  0.32622803395E+02 -0.43451018420E+03  0.11515781648E+04  0.15551513165E+04  0.95000000000E+03 0.  0.
<mgrwt>
<rscale>  0 0.21015174E+04</rscale>
<asrwt>0</asrwt>
<pdfrwt beam="1">  1        2 0.46427535E+00 0.21015174E+04</pdfrwt>
<pdfrwt beam="2">  1       -2 0.56286424E-01 0.21015174E+04</pdfrwt>
<totfact> 0.46408186E+00</totfact>
</mgrwt>
</event>
<event>
 4    1  0.2058093E-008  0.2242197E+04  0.7816531E-02  0.8501067E-01
         -2   -1    0    0    0  501 -0.00000000000E+00  0.00000000000E+00  0.37348430949E+03  0.37348430949E+03  0.00000000000E+00 0. -1.
          2   -1    0    0  501    0  0.00000000000E+00 -0.00000000000E+00 -0.33652324153E+04  0.33652324153E+04  0.00000000000E+00 0.  1.
    2000013    1    1    2    0    0 -0.31518976228E+03 -0.50046434596E+03 -0.16083778065E+04  0.19593846779E+04  0.95000000000E+03 0.  0.
   -2000013    1    1    2    0    0  0.31518976228E+03  0.50046434596E+03 -0.13833702994E+04  0.17793320469E+04  0.95000000000E+03 0.  0.
<mgrwt>
<rscale>  0 0.22421967E+04</rscale>
<asrwt>0</asrwt>
<pdfrwt beam="2">  1        2 0.51772805E+00 0.22421967E+04</pdfrwt>
<pdfrwt beam="1">  1       -2 0.57459126E-01 0.22421967E+04</pdfrwt>
<totfact> 0.26084246E+00</totfact>
</mgrwt>
</event>
<event>
 4    1  0.2058093E-008  0.2800474E+04  0.7816531E-02  0.8303121E-01
         -2   -1    0    0    0  501 -0.00000000000E+00  0.00000000000E+00  0.98533540196E+03  0.98533540196E+03  0.00000000000E+00 0. -1.
          2   -1    0    0  501    0  0.00000000000E+00 -0.00000000000E+00 -0.19898438763E+04  0.19898438763E+04  0.00000000000E+00 0.  1.
    2000013    1    1    2    0    0  0.63878146840E+03 -0.42283414937E+03 -0.12316203563E+04  0.17338452019E+04  0.95000000000E+03 0.  0.
   -2000013    1    1    2    0    0 -0.63878146840E+03  0.42283414937E+03  0.22711188189E+03  0.12413340764E+04  0.95000000000E+03 0.  0.
<mgrwt>
<rscale>  0 0.28004740E+04</rscale>
<asrwt>0</asrwt>
<pdfrwt beam="2">  1        2 0.30612982E+00 0.28004740E+04</pdfrwt>
<pdfrwt beam="1">  1       -2 0.15159007E+00 0.28004740E+04</pdfrwt>
<totfact> 0.17159971E+00</totfact>
</mgrwt>
</event>
<event>
 4    1  0.2058093E-008  0.2203766E+04  0.7816531E-02  0.8516862E-01
          2   -1    0    0  501    0  0.00000000000E+00  0.00000000000E+00  0.79252137529E+03  0.79252137529E+03  0.00000000000E+00 0.  1.
         -2   -1    0    0    0  501 -0.00000000000E+00 -0.00000000000E+00 -0.15320037343E+04  0.15320037343E+04  0.00000000000E+00 0. -1.
    2000013    1    1    2    0    0 -0.12350156903E+03  0.53844724267E+03 -0.28491271234E+03  0.11352767611E+04  0.95000000000E+03 0.  0.
   -2000013    1    1    2    0    0  0.12350156903E+03 -0.53844724267E+03 -0.45456964671E+03  0.11892483485E+04  0.95000000000E+03 0.  0.
<mgrwt>
<rscale>  0 0.22037656E+04</rscale>
<asrwt>0</asrwt>
<pdfrwt beam="1">  1        2 0.12192637E+00 0.22037656E+04</pdfrwt>
<pdfrwt beam="2">  1       -2 0.23569288E+00 0.22037656E+04</pdfrwt>
<totfact> 0.25100645E+00</totfact>
</mgrwt>
</event>
<event>
 4    1  0.2058093E-008  0.2940926E+04  0.7816531E-02  0.8260804E-01
         -2   -1    0    0    0  501 -0.00000000000E+00  0.00000000000E+00  0.73459725393E+03  0.73459725393E+03  0.00000000000E+00 0. -1.
          2   -1    0    0  501    0  0.00000000000E+00 -0.00000000000E+00 -0.29434655404E+04  0.29434655404E+04  0.00000000000E+00 0.  1.
    2000013    1    1    2    0    0  0.78264890475E+03 -0.49567653227E+03 -0.18969217600E+04  0.23149614891E+04  0.95000000000E+03 0.  0.
   -2000013    1    1    2    0    0 -0.78264890475E+03  0.49567653227E+03 -0.31194652648E+03  0.13631013052E+04  0.95000000000E+03 0.  0.
<mgrwt>
<rscale>  0 0.29409262E+04</rscale>
<asrwt>0</asrwt>
<pdfrwt beam="2">  1        2 0.45284085E+00 0.29409262E+04</pdfrwt>
<pdfrwt beam="1">  1       -2 0.11301496E+00 0.29409262E+04</pdfrwt>
<totfact> 0.99888821E-01</totfact>
</mgrwt>
</event>
<event>
 4    1  0.2058093E-008  0.3065643E+04  0.7816531E-02  0.8225231E-01
          2   -1    0    0  501    0  0.00000000000E+00  0.00000000000E+00  0.21078021711E+04  0.21078021711E+04  0.00000000000E+00 0.  1.
         -2   -1    0    0    0  501 -0.00000000000E+00 -0.00000000000E+00 -0.11146878074E+04  0.11146878074E+04  0.00000000000E+00 0. -1.
    2000013    1    1    2    0    0  0.78488766487E+03 -0.89092431233E+03  0.69942509882E+03  0.16737652899E+04  0.95000000000E+03 0.  0.
   -2000013    1    1    2    0    0 -0.78488766487E+03  0.89092431233E+03  0.29368926494E+03  0.15487246886E+04  0.95000000000E+03 0.  0.
<mgrwt>
<rscale>  0 0.30656428E+04</rscale>
<asrwt>0</asrwt>
<pdfrwt beam="1">  1        2 0.32427726E+00 0.30656428E+04</pdfrwt>
<pdfrwt beam="2">  1       -2 0.17149043E+00 0.30656428E+04</pdfrwt>
<totfact> 0.10302283E+00</totfact>
</mgrwt>
</event>
<event>
 4    1  0.2058093E-008  0.3506534E+04  0.7816531E-02  0.8112243E-01
          3   -1    0    0  501    0  0.00000000000E+00  0.00000000000E+00  0.13065848728E+04  0.13065848728E+04  0.00000000000E+00 0.  1.
         -3   -1    0    0    0  501 -0.00000000000E+00 -0.00000000000E+00 -0.23526561664E+04  0.23526561664E+04  0.00000000000E+00 0. -1.
    2000013    1    1    2    0    0 -0.13257623915E+04 -0.51929540065E+02  0.14605963148E+03  0.16383455105E+04  0.95000000000E+03 0.  0.
   -2000013    1    1    2    0    0  0.13257623915E+04  0.51929540065E+02 -0.11921309250E+04  0.20208955288E+04  0.95000000000E+03 0.  0.
<mgrwt>
<rscale>  0 0.35065339E+04</rscale>
<asrwt>0</asrwt>
<pdfrwt beam="1">  1        3 0.20101306E+00 0.35065339E+04</pdfrwt>
<pdfrwt beam="2">  1       -3 0.36194709E+00 0.35065339E+04</pdfrwt>
<totfact> 0.52891925E-03</totfact>
</mgrwt>
</event>
<event>
 4    1  0.2058093E-008  0.3000689E+04  0.7816531E-02  0.8243534E-01
          1   -1    0    0  501    0  0.00000000000E+00  0.00000000000E+00  0.21912720530E+04  0.21912720530E+04  0.00000000000E+00 0.  1.
         -1   -1    0    0    0  501 -0.00000000000E+00 -0.00000000000E+00 -0.10272728207E+04  0.10272728207E+04  0.00000000000E+00 0. -1.
    2000013    1    1    2    0    0 -0.81813085834E+03 -0.82112289120E+03  0.65748913683E+03  0.16365735147E+04  0.95000000000E+03 0.  0.
   -2000013    1    1    2    0    0  0.81813085834E+03  0.82112289120E+03  0.50651009545E+03  0.15819713590E+04  0.95000000000E+03 0.  0.
<mgrwt>
<rscale>  0 0.30006894E+04</rscale>
<asrwt>0</asrwt>
<pdfrwt beam="1">  1        1 0.33711878E+00 0.30006894E+04</pdfrwt>
<pdfrwt beam="2">  1       -1 0.15804197E+00 0.30006894E+04</pdfrwt>
<totfact> 0.56836503E-01</totfact>
</mgrwt>
</event>
<event>
 4    1  0.2058093E-008  0.2047037E+04  0.7816531E-02  0.8584940E-01
          2   -1    0    0  501    0  0.00000000000E+00  0.00000000000E+00  0.20361063934E+04  0.20361063934E+04  0.00000000000E+00 0.  1.
         -2   -1    0    0    0  501 -0.00000000000E+00 -0.00000000000E+00 -0.51450673693E+03  0.51450673693E+03  0.00000000000E+00 0. -1.
    2000013    1    1    2    0    0 -0.23972348219E+02 -0.34992756479E+03  0.57570879358E+03  0.11648882303E+04  0.95000000000E+03 0.  0.
   -2000013    1    1    2    0    0  0.23972348219E+02  0.34992756479E+03  0.94589086289E+03  0.13857249000E+04  0.95000000000E+03 0.  0.
<mgrwt>
<rscale>  0 0.20470373E+04</rscale>
<asrwt>0</asrwt>
<pdfrwt beam="1">  1        2 0.31324713E+00 0.20470373E+04</pdfrwt>
<pdfrwt beam="2">  1       -2 0.79154884E-01 0.20470373E+04</pdfrwt>
<totfact> 0.83573416E+00</totfact>
</mgrwt>
</event>
<event>
 4    1  0.2058093E-008  0.3076168E+04  0.7816531E-02  0.8222309E-01
         -2   -1    0    0    0  501 -0.00000000000E+00  0.00000000000E+00  0.98490256996E+03  0.98490256996E+03  0.00000000000E+00 0. -1.
          2   -1    0    0  501    0  0.00000000000E+00 -0.00000000000E+00 -0.24019664943E+04  0.24019664943E+04  0.00000000000E+00 0.  1.
    2000013    1    1    2    0    0  0.10490594501E+04 -0.56609072292E+03 -0.93475659492E+03  0.17880867787E+04  0.95000000000E+03 0.  0.
   -2000013    1    1    2    0    0 -0.10490594501E+04  0.56609072292E+03 -0.48230732939E+03  0.15987822855E+04  0.95000000000E+03 0.  0.
<mgrwt>
<rscale>  0 0.30761684E+04</rscale>
<asrwt>0</asrwt>
<pdfrwt beam="2">  1        2 0.36953331E+00 0.30761684E+04</pdfrwt>
<pdfrwt beam="1">  1       -2 0.15152347E+00 0.30761684E+04</pdfrwt>
<totfact> 0.98372673E-01</totfact>
</mgrwt>
</event>
<event>
 4    1  0.2058093E-008  0.2061212E+04  0.7816531E-02  0.8578525E-01
         -2   -1    0    0    0  501 -0.00000000000E+00  0.00000000000E+00  0.30769796790E+03  0.30769796790E+03  0.00000000000E+00 0. -1.
          2   -1    0    0  501    0  0.00000000000E+00 -0.00000000000E+00 -0.34519207183E+04  0.34519207183E+04  0.00000000000E+00 0.  1.
    2000013    1    1    2    0    0 -0.37920053793E+03  0.11280761747E+03 -0.16741629893E+04  0.19651565641E+04  0.95000000000E+03 0.  0.
   -2000013    1    1    2    0    0  0.37920053793E+03 -0.11280761747E+03 -0.14700597610E+04  0.17944621221E+04  0.95000000000E+03 0.  0.
<mgrwt>
<rscale>  0 0.20612123E+04</rscale>
<asrwt>0</asrwt>
<pdfrwt beam="2">  1        2 0.53106473E+00 0.20612123E+04</pdfrwt>
<pdfrwt beam="1">  1       -2 0.47338148E-01 0.20612123E+04</pdfrwt>
<totfact> 0.34492462E+00</totfact>
</mgrwt>
</event>
<event>
 4    1  0.2058093E-008  0.2601744E+04  0.7816531E-02  0.8367609E-01
          2   -1    0    0  501    0  0.00000000000E+00  0.00000000000E+00  0.29785487953E+04  0.29785487953E+04  0.00000000000E+00 0.  1.
         -2   -1    0    0    0  501 -0.00000000000E+00 -0.00000000000E+00 -0.56815171923E+03  0.56815171923E+03  0.00000000000E+00 0. -1.
    2000013    1    1    2    0    0 -0.51464870037E+02 -0.87029253482E+03  0.14401675121E+04  0.19330391077E+04  0.95000000000E+03 0.  0.
   -2000013    1    1    2    0    0  0.51464870037E+02  0.87029253482E+03  0.97022956393E+03  0.16136614068E+04  0.95000000000E+03 0.  0.
<mgrwt>
<rscale>  0 0.26017437E+04</rscale>
<asrwt>0</asrwt>
<pdfrwt beam="1">  1        2 0.45823827E+00 0.26017437E+04</pdfrwt>
<pdfrwt beam="2">  1       -2 0.87407959E-01 0.26017437E+04</pdfrwt>
<totfact> 0.17951354E+00</totfact>
</mgrwt>
</event>
<event>
 4    1  0.2058093E-008  0.2713553E+04  0.7816531E-02  0.8330621E-01
          2   -1    0    0  501    0  0.00000000000E+00  0.00000000000E+00  0.19233173268E+04  0.19233173268E+04  0.00000000000E+00 0.  1.
         -2   -1    0    0    0  501 -0.00000000000E+00 -0.00000000000E+00 -0.95711809564E+03  0.95711809564E+03  0.00000000000E+00 0. -1.
    2000013    1    1    2    0    0  0.15250341262E+03  0.41596614502E+03 -0.43130509538E+03  0.11334942479E+04  0.95000000000E+03 0.  0.
   -2000013    1    1    2    0    0 -0.15250341262E+03 -0.41596614502E+03  0.13975043265E+04  0.17469411746E+04  0.95000000000E+03 0.  0.
<mgrwt>
<rscale>  0 0.27135525E+04</rscale>
<asrwt>0</asrwt>
<pdfrwt beam="1">  1        2 0.29589497E+00 0.27135525E+04</pdfrwt>
<pdfrwt beam="2">  1       -2 0.14724894E+00 0.27135525E+04</pdfrwt>
<totfact> 0.20325545E+00</totfact>
</mgrwt>
</event>
<event>
 4    1  0.2058093E-008  0.2092280E+04  0.7816531E-02  0.8564652E-01
          2   -1    0    0  501    0  0.00000000000E+00  0.00000000000E+00  0.63047646993E+03  0.63047646993E+03  0.00000000000E+00 0.  1.
         -2   -1    0    0    0  501 -0.00000000000E+00 -0.00000000000E+00 -0.17358434898E+04  0.17358434898E+04  0.00000000000E+00 0. -1.
    2000013    1    1    2    0    0 -0.39234925794E+03  0.18812058416E+03 -0.49522385535E+03  0.11563191434E+04  0.95000000000E+03 0.  0.
   -2000013    1    1    2    0    0  0.39234925794E+03 -0.18812058416E+03 -0.61014316450E+03  0.12100008164E+04  0.95000000000E+03 0.  0.
<mgrwt>
<rscale>  0 0.20922796E+04</rscale>
<asrwt>0</asrwt>
<pdfrwt beam="1">  1        2 0.96996380E-01 0.20922796E+04</pdfrwt>
<pdfrwt beam="2">  1       -2 0.26705285E+00 0.20922796E+04</pdfrwt>
<totfact> 0.21750649E+00</totfact>
</mgrwt>
</event>
<event>
 4    1  0.2058093E-008  0.2343371E+04  0.7816531E-02  0.8461014E-01
          2   -1    0    0  501    0  0.00000000000E+00  0.00000000000E+00  0.11622559791E+04  0.11622559791E+04  0.00000000000E+00 0.  1.
         -2   -1    0    0    0  501 -0.00000000000E+00 -0.00000000000E+00 -0.11811910968E+04  0.11811910968E+04  0.00000000000E+00 0. -1.
    2000013    1    1    2    0    0  0.53490043228E+03 -0.27998023091E+03 -0.33480726278E+03  0.11743522918E+04  0.95000000000E+03 0.  0.
   -2000013    1    1    2    0    0 -0.53490043228E+03  0.27998023091E+03  0.31587214503E+03  0.11690947841E+04  0.95000000000E+03 0.  0.
<mgrwt>
<rscale>  0 0.23433706E+04</rscale>
<asrwt>0</asrwt>
<pdfrwt beam="1">  1        2 0.17880861E+00 0.23433706E+04</pdfrwt>
<pdfrwt beam="2">  1       -2 0.18172171E+00 0.23433706E+04</pdfrwt>
<totfact> 0.31810755E+00</totfact>
</mgrwt>
</event>
<event>
 4    1  0.2058093E-008  0.2194702E+04  0.7816531E-02  0.8520637E-01
          2   -1    0    0  501    0  0.00000000000E+00  0.00000000000E+00  0.45469797573E+03  0.45469797573E+03  0.00000000000E+00 0.  1.
         -2   -1    0    0    0  501 -0.00000000000E+00 -0.00000000000E+00 -0.26483053168E+04  0.26483053168E+04  0.00000000000E+00 0. -1.
    2000013    1    1    2    0    0  0.37510019387E+03  0.11223043263E+03 -0.55217671689E+03  0.11664882992E+04  0.95000000000E+03 0.  0.
   -2000013    1    1    2    0    0 -0.37510019387E+03 -0.11223043263E+03 -0.16414306242E+04  0.19365149934E+04  0.95000000000E+03 0.  0.
<mgrwt>
<rscale>  0 0.21947019E+04</rscale>
<asrwt>0</asrwt>
<pdfrwt beam="1">  1        2 0.69953536E-01 0.21947019E+04</pdfrwt>
<pdfrwt beam="2">  1       -2 0.40743158E+00 0.21947019E+04</pdfrwt>
<totfact> 0.41759984E-01</totfact>
</mgrwt>
</event>
<event>
 4    1  0.2058093E-008  0.2109587E+04  0.7816531E-02  0.8557032E-01
         -2   -1    0    0    0  501 -0.00000000000E+00  0.00000000000E+00  0.63927935462E+03  0.63927935462E+03  0.00000000000E+00 0. -1.
          2   -1    0    0  501    0  0.00000000000E+00 -0.00000000000E+00 -0.17403809490E+04  0.17403809490E+04  0.00000000000E+00 0.  1.
    2000013    1    1    2    0    0  0.96751670989E+02 -0.33264545077E+03 -0.88909966132E+03  0.13464813736E+04  0.95000000000E+03 0.  0.
   -2000013    1    1    2    0    0 -0.96751670989E+02  0.33264545077E+03 -0.21200193306E+03  0.10331789300E+04  0.95000000000E+03 0.  0.
<mgrwt>
<rscale>  0 0.21095873E+04</rscale>
<asrwt>0</asrwt>
<pdfrwt beam="2">  1        2 0.26775091E+00 0.21095873E+04</pdfrwt>
<pdfrwt beam="1">  1       -2 0.98350671E-01 0.21095873E+04</pdfrwt>
<totfact> 0.73674539E+00</totfact>
</mgrwt>
</event>
<event>
 4    1  0.2058093E-008  0.3657731E+04  0.7816531E-02  0.8077394E-01
          2   -1    0    0  501    0  0.00000000000E+00  0.00000000000E+00  0.21472416694E+04  0.21472416694E+04  0.00000000000E+00 0.  1.
         -2   -1    0    0    0  501 -0.00000000000E+00 -0.00000000000E+00 -0.15576959422E+04  0.15576959422E+04  0.00000000000E+00 0. -1.
    2000013    1    1    2    0    0  0.11748216103E+03 -0.53735205013E+03  0.17764226917E+04  0.20882353468E+04  0.95000000000E+03 0.  0.
   -2000013    1    1    2    0    0 -0.11748216103E+03  0.53735205013E+03 -0.11868769645E+04  0.16167022648E+04  0.95000000000E+03 0.  0.
<mgrwt>
<rscale>  0 0.36577313E+04</rscale>
<asrwt>0</asrwt>
<pdfrwt beam="1">  1        2 0.33034487E+00 0.36577313E+04</pdfrwt>
<pdfrwt beam="2">  1       -2 0.23964553E+00 0.36577313E+04</pdfrwt>
<totfact> 0.33391798E-01</totfact>
</mgrwt>
</event>
<event>
 4    1  0.2058093E-008  0.2946873E+04  0.7816531E-02  0.8259067E-01
          2   -1    0    0  501    0  0.00000000000E+00  0.00000000000E+00  0.25825213779E+04  0.25825213779E+04  0.00000000000E+00 0.  1.
         -2   -1    0    0    0  501 -0.00000000000E+00 -0.00000000000E+00 -0.84065694092E+03  0.84065694092E+03  0.00000000000E+00 0. -1.
    2000013    1    1    2    0    0  0.69602444252E+03  0.40197070858E+03  0.17874318098E+04  0.21779446618E+04  0.95000000000E+03 0.  0.
   -2000013    1    1    2    0    0 -0.69602444252E+03 -0.40197070858E+03 -0.45567372819E+02  0.12452336570E+04  0.95000000000E+03 0.  0.
<mgrwt>
<rscale>  0 0.29468726E+04</rscale>
<asrwt>0</asrwt>
<pdfrwt beam="1">  1        2 0.39731098E+00 0.29468726E+04</pdfrwt>
<pdfrwt beam="2">  1       -2 0.12933184E+00 0.29468726E+04</pdfrwt>
<totfact> 0.11784425E+00</totfact>
</mgrwt>
</event>
<event>
 4    1  0.2058093E-008  0.3470877E+04  0.7816531E-02  0.8120726E-01
         -2   -1    0    0    0  501 -0.00000000000E+00  0.00000000000E+00  0.97225399175E+03  0.97225399175E+03  0.00000000000E+00 0. -1.
          2   -1    0    0  501    0  0.00000000000E+00 -0.00000000000E+00 -0.30976961613E+04  0.30976961613E+04  0.00000000000E+00 0.  1.
    2000013    1    1    2    0    0  0.34532127826E+03 -0.85944721216E+03 -0.23744358857E+04  0.27199893512E+04  0.95000000000E+03 0.  0.
   -2000013    1    1    2    0    0 -0.34532127826E+03  0.85944721216E+03  0.24899371613E+03  0.13499608018E+04  0.95000000000E+03 0.  0.
<mgrwt>
<rscale>  0 0.34708774E+04</rscale>
<asrwt>0</asrwt>
<pdfrwt beam="2">  1        2 0.47656864E+00 0.34708774E+04</pdfrwt>
<pdfrwt beam="1">  1       -2 0.14957754E+00 0.34708774E+04</pdfrwt>
<totfact> 0.37510881E-01</totfact>
</mgrwt>
</event>
<event>
 4    1  0.2058093E-008  0.2417692E+04  0.7816531E-02  0.8432910E-01
          2   -1    0    0  501    0  0.00000000000E+00  0.00000000000E+00  0.14396737788E+04  0.14396737788E+04  0.00000000000E+00 0.  1.
         -2   -1    0    0    0  501 -0.00000000000E+00 -0.00000000000E+00 -0.10150275649E+04  0.10150275649E+04  0.00000000000E+00 0. -1.
    2000013    1    1    2    0    0  0.71463245398E+03  0.21226345584E+03  0.15622102921E+03  0.12176454036E+04  0.95000000000E+03 0.  0.
   -2000013    1    1    2    0    0 -0.71463245398E+03 -0.21226345584E+03  0.26842518469E+03  0.12370559400E+04  0.95000000000E+03 0.  0.
<mgrwt>
<rscale>  0 0.24176919E+04</rscale>
<asrwt>0</asrwt>
<pdfrwt beam="1">  1        2 0.22148827E+00 0.24176919E+04</pdfrwt>
<pdfrwt beam="2">  1       -2 0.15615809E+00 0.24176919E+04</pdfrwt>
<totfact> 0.33188791E+00</totfact>
</mgrwt>
</event>
<event>
 4    1  0.2058093E-008  0.2056468E+04  0.7816531E-02  0.8580666E-01
          4   -1    0    0  501    0  0.00000000000E+00  0.00000000000E+00  0.13538520275E+04  0.13538520275E+04  0.00000000000E+00 0.  1.
         -4   -1    0    0    0  501 -0.00000000000E+00 -0.00000000000E+00 -0.78093116635E+03  0.78093116635E+03  0.00000000000E+00 0. -1.
    2000013    1    1    2    0    0 -0.36094441111E+03  0.13186346040E+03  0.19901221932E+03  0.10439227479E+04  0.95000000000E+03 0.  0.
   -2000013    1    1    2    0    0  0.36094441111E+03 -0.13186346040E+03  0.37390864181E+03  0.10908604459E+04  0.95000000000E+03 0.  0.
<mgrwt>
<rscale>  0 0.20564681E+04</rscale>
<asrwt>0</asrwt>
<pdfrwt beam="1">  1        4 0.20828493E+00 0.20564681E+04</pdfrwt>
<pdfrwt beam="2">  1       -4 0.12014326E+00 0.20564681E+04</pdfrwt>
<totfact> 0.11333784E-01</totfact>
</mgrwt>
</event>
<event>
 4    1  0.2058093E-008  0.2457231E+04  0.7816531E-02  0.8418382E-01
          2   -1    0    0  501    0  0.00000000000E+00  0.00000000000E+00  0.24328486848E+04  0.24328486848E+04  0.00000000000E+00 0.  1.
         -2   -1    0    0    0  501 -0.00000000000E+00 -0.00000000000E+00 -0.62046461658E+03  0.62046461658E+03  0.00000000000E+00 0. -1.
    2000013    1    1    2    0    0  0.43544964209E+03  0.48125533054E+03  0.14417631285E+04  0.18445606530E+04  0.95000000000E+03 0.  0.
   -2000013    1    1    2    0    0 -0.43544964209E+03 -0.48125533054E+03  0.37062093973E+03  0.12087526484E+04  0.95000000000E+03 0.  0.
<mgrwt>
<rscale>  0 0.24572314E+04</rscale>
<asrwt>0</asrwt>
<pdfrwt beam="1">  1        2 0.37428441E+00 0.24572314E+04</pdfrwt>
<pdfrwt beam="2">  1       -2 0.95456096E-01 0.24572314E+04</pdfrwt>
<totfact> 0.31393057E+00</totfact>
</mgrwt>
</event>
<event>
 4    1  0.2058093E-008  0.2433271E+04  0.7816531E-02  0.8427151E-01
         -2   -1    0    0    0  501 -0.00000000000E+00  0.00000000000E+00  0.24520190089E+04  0.24520190089E+04  0.00000000000E+00 0. -1.
          2   -1    0    0  501    0  0.00000000000E+00 -0.00000000000E+00 -0.60366665149E+03  0.60366665149E+03  0.00000000000E+00 0.  1.
    2000013    1    1    2    0    0 -0.75484793356E+03 -0.31372194400E+02  0.81969230891E+03  0.14646416281E+04  0.95000000000E+03 0.  0.
   -2000013    1    1    2    0    0  0.75484793356E+03  0.31372194400E+02  0.10286600485E+04  0.15910440323E+04  0.95000000000E+03 0.  0.
<mgrwt>
<rscale>  0 0.24332711E+04</rscale>
<asrwt>0</asrwt>
<pdfrwt beam="2">  1        2 0.92871793E-01 0.24332711E+04</pdfrwt>
<pdfrwt beam="1">  1       -2 0.37723369E+00 0.24332711E+04</pdfrwt>
<totfact> 0.46089852E-01</totfact>
</mgrwt>
</event>
<event>
 4    1  0.2058093E-008  0.2943463E+04  0.7816531E-02  0.8260062E-01
          1   -1    0    0  501    0  0.00000000000E+00  0.00000000000E+00  0.98425751724E+03  0.98425751724E+03  0.00000000000E+00 0. -1.
         -1   -1    0    0    0  501 -0.00000000000E+00 -0.00000000000E+00 -0.22006364645E+04  0.22006364645E+04  0.00000000000E+00 0.  1.
    2000013    1    1    2    0    0 -0.52751287343E+03  0.98856212207E+03 -0.51160365601E+03  0.15555588069E+04  0.95000000000E+03 0.  0.
   -2000013    1    1    2    0    0  0.52751287343E+03 -0.98856212207E+03 -0.70477529122E+03  0.16293351748E+04  0.95000000000E+03 0.  0.
<mgrwt>
<rscale>  0 0.29434626E+04</rscale>
<asrwt>0</asrwt>
<pdfrwt beam="1">  1        1 0.15142423E+00 0.29434626E+04</pdfrwt>
<pdfrwt beam="2">  1       -1 0.33855945E+00 0.29434626E+04</pdfrwt>
<totfact> 0.24616903E-01</totfact>
</mgrwt>
</event>
<event>
 4    1  0.2058093E-008  0.2538580E+04  0.7816531E-02  0.8389369E-01
         -2   -1    0    0    0  501 -0.00000000000E+00  0.00000000000E+00  0.99109171761E+03  0.99109171761E+03  0.00000000000E+00 0. -1.
          2   -1    0    0  501    0  0.00000000000E+00 -0.00000000000E+00 -0.16255778335E+04  0.16255778335E+04  0.00000000000E+00 0.  1.
    2000013    1    1    2    0    0  0.16536951084E+03 -0.76170797425E+03  0.10420057033E+02  0.12288835139E+04  0.95000000000E+03 0.  0.
   -2000013    1    1    2    0    0 -0.16536951084E+03  0.76170797425E+03 -0.64490617290E+03  0.13877860372E+04  0.95000000000E+03 0.  0.
<mgrwt>
<rscale>  0 0.25385797E+04</rscale>
<asrwt>0</asrwt>
<pdfrwt beam="2">  1        2 0.25008890E+00 0.25385797E+04</pdfrwt>
<pdfrwt beam="1">  1       -2 0.15247565E+00 0.25385797E+04</pdfrwt>
<totfact> 0.27522842E+00</totfact>
</mgrwt>
</event>
<event>
 4    1  0.2058093E-008  0.2765449E+04  0.7816531E-02  0.8314076E-01
          2   -1    0    0  501    0  0.00000000000E+00  0.00000000000E+00  0.15421688000E+04  0.15421688000E+04  0.00000000000E+00 0.  1.
         -2   -1    0    0    0  501 -0.00000000000E+00 -0.00000000000E+00 -0.12397646839E+04  0.12397646839E+04  0.00000000000E+00 0. -1.
    2000013    1    1    2    0    0  0.47056940777E+03  0.45248151997E+03 -0.61705936280E+03  0.13074545310E+04  0.95000000000E+03 0.  0.
   -2000013    1    1    2    0    0 -0.47056940777E+03 -0.45248151997E+03  0.91946347888E+03  0.14744789529E+04  0.95000000000E+03 0.  0.
<mgrwt>
<rscale>  0 0.27654485E+04</rscale>
<asrwt>0</asrwt>
<pdfrwt beam="1">  1        2 0.23725674E+00 0.27654485E+04</pdfrwt>
<pdfrwt beam="2">  1       -2 0.19073303E+00 0.27654485E+04</pdfrwt>
<totfact> 0.16073338E+00</totfact>
</mgrwt>
</event>
<event>
 4    1  0.2058093E-008  0.2494217E+04  0.7816531E-02  0.8405049E-01
          2   -1    0    0  501    0  0.00000000000E+00  0.00000000000E+00  0.15334772736E+04  0.15334772736E+04  0.00000000000E+00 0.  1.
         -2   -1    0    0    0  501 -0.00000000000E+00 -0.00000000000E+00 -0.10142178650E+04  0.10142178650E+04  0.00000000000E+00 0. -1.
    2000013    1    1    2    0    0 -0.80005803173E+03  0.94043544697E+02  0.32295082395E+03  0.12867533863E+04  0.95000000000E+03 0.  0.
   -2000013    1    1    2    0    0  0.80005803173E+03 -0.94043544697E+02  0.19630858463E+03  0.12609417524E+04  0.95000000000E+03 0.  0.
<mgrwt>
<rscale>  0 0.24942173E+04</rscale>
<asrwt>0</asrwt>
<pdfrwt beam="1">  1        2 0.23591958E+00 0.24942173E+04</pdfrwt>
<pdfrwt beam="2">  1       -2 0.15603352E+00 0.24942173E+04</pdfrwt>
<totfact> 0.29247313E+00</totfact>
</mgrwt>
</event>
<event>
 4    1  0.2058093E-008  0.2672870E+04  0.7816531E-02  0.8343862E-01
          2   -1    0    0  501    0  0.00000000000E+00  0.00000000000E+00  0.17942147429E+04  0.17942147429E+04  0.00000000000E+00 0.  1.
         -2   -1    0    0    0  501 -0.00000000000E+00 -0.00000000000E+00 -0.99545418951E+03  0.99545418951E+03  0.00000000000E+00 0. -1.
    2000013    1    1    2    0    0 -0.27034463275E+03  0.89579978448E+03  0.30594098914E+03  0.13680801742E+04  0.95000000000E+03 0.  0.
   -2000013    1    1    2    0    0  0.27034463275E+03 -0.89579978448E+03  0.49281956421E+03  0.14215887581E+04  0.95000000000E+03 0.  0.
<mgrwt>
<rscale>  0 0.26728701E+04</rscale>
<asrwt>0</asrwt>
<pdfrwt beam="1">  1        2 0.27603304E+00 0.26728701E+04</pdfrwt>
<pdfrwt beam="2">  1       -2 0.15314680E+00 0.26728701E+04</pdfrwt>
<totfact> 0.21672086E+00</totfact>
</mgrwt>
</event>
<event>
 4    1  0.2058093E-008  0.3287111E+04  0.7816531E-02  0.8166183E-01
          2   -1    0    0  501    0  0.00000000000E+00  0.00000000000E+00  0.40841282330E+04  0.40841282330E+04  0.00000000000E+00 0.  1.
         -2   -1    0    0    0  501 -0.00000000000E+00 -0.00000000000E+00 -0.66140803677E+03  0.66140803677E+03  0.00000000000E+00 0. -1.
    2000013    1    1    2    0    0 -0.77165938849E+03 -0.41838526814E+03  0.31753046665E+04  0.34286388217E+04  0.95000000000E+03 0.  0.
   -2000013    1    1    2    0    0  0.77165938849E+03  0.41838526814E+03  0.24741552973E+03  0.13168974481E+04  0.95000000000E+03 0.  0.
<mgrwt>
<rscale>  0 0.32871113E+04</rscale>
<asrwt>0</asrwt>
<pdfrwt beam="1">  1        2 0.62832740E+00 0.32871113E+04</pdfrwt>
<pdfrwt beam="2">  1       -2 0.10175509E+00 0.32871113E+04</pdfrwt>
<totfact> 0.19290132E-01</totfact>
</mgrwt>
</event>
<event>
 4    1  0.2058093E-008  0.2058807E+04  0.7816531E-02  0.8579609E-01
         -2   -1    0    0    0  501 -0.00000000000E+00  0.00000000000E+00  0.10332100898E+04  0.10332100898E+04  0.00000000000E+00 0. -1.
          2   -1    0    0  501    0  0.00000000000E+00 -0.00000000000E+00 -0.10256112176E+04  0.10256112176E+04  0.00000000000E+00 0.  1.
    2000013    1    1    2    0    0 -0.19079083724E+03 -0.28580436828E+03 -0.19390516750E+03  0.10286809488E+04  0.95000000000E+03 0.  0.
   -2000013    1    1    2    0    0  0.19079083724E+03  0.28580436828E+03  0.20150403969E+03  0.10301403586E+04  0.95000000000E+03 0.  0.
<mgrwt>
<rscale>  0 0.20588073E+04</rscale>
<asrwt>0</asrwt>
<pdfrwt beam="2">  1        2 0.15778634E+00 0.20588073E+04</pdfrwt>
<pdfrwt beam="1">  1       -2 0.15895540E+00 0.20588073E+04</pdfrwt>
<totfact> 0.57503582E+00</totfact>
</mgrwt>
</event>
<event>
 4    1  0.2058093E-008  0.3322488E+04  0.7816531E-02  0.8157197E-01
          2   -1    0    0  501    0  0.00000000000E+00  0.00000000000E+00  0.26906223851E+04  0.26906223851E+04  0.00000000000E+00 0.  1.
         -2   -1    0    0    0  501 -0.00000000000E+00 -0.00000000000E+00 -0.10256850243E+04  0.10256850243E+04  0.00000000000E+00 0. -1.
    2000013    1    1    2    0    0 -0.11266505782E+04 -0.58591629580E+03  0.13856519934E+04  0.21059845388E+04  0.95000000000E+03 0.  0.
   -2000013    1    1    2    0    0  0.11266505782E+04  0.58591629580E+03  0.27928536737E+03  0.16103228705E+04  0.95000000000E+03 0.  0.
<mgrwt>
<rscale>  0 0.33224877E+04</rscale>
<asrwt>0</asrwt>
<pdfrwt beam="1">  1        2 0.41394190E+00 0.33224877E+04</pdfrwt>
<pdfrwt beam="2">  1       -2 0.15779770E+00 0.33224877E+04</pdfrwt>
<totfact> 0.58636224E-01</totfact>
</mgrwt>
</event>
<event>
 4    1  0.2058093E-008  0.1960626E+04  0.7816531E-02  0.8625254E-01
          2   -1    0    0  501    0  0.00000000000E+00  0.00000000000E+00  0.10409944438E+04  0.10409944438E+04  0.00000000000E+00 0.  1.
         -2   -1    0    0    0  501 -0.00000000000E+00 -0.00000000000E+00 -0.92316860059E+03  0.92316860059E+03  0.00000000000E+00 0. -1.
    2000013    1    1    2    0    0  0.21542100455E+03 -0.39925024457E+02  0.16163164329E+03  0.98824339355E+03  0.95000000000E+03 0.  0.
   -2000013    1    1    2    0    0 -0.21542100455E+03  0.39925024457E+02 -0.43805800079E+02  0.97591965084E+03  0.95000000000E+03 0.  0.
<mgrwt>
<rscale>  0 0.19606258E+04</rscale>
<asrwt>0</asrwt>
<pdfrwt beam="1">  1        2 0.16015299E+00 0.19606258E+04</pdfrwt>
<pdfrwt beam="2">  1       -2 0.14202594E+00 0.19606258E+04</pdfrwt>
<totfact> 0.76470360E+00</totfact>
</mgrwt>
</event>
<event>
 4    1  0.2058093E-008  0.2346523E+04  0.7816531E-02  0.8459800E-01
          2   -1    0    0  501    0  0.00000000000E+00  0.00000000000E+00  0.23687818533E+04  0.23687818533E+04  0.00000000000E+00 0.  1.
         -2   -1    0    0    0  501 -0.00000000000E+00 -0.00000000000E+00 -0.58111848958E+03  0.58111848958E+03  0.00000000000E+00 0. -1.
    2000013    1    1    2    0    0 -0.40582042471E+02  0.48134063224E+03  0.27705629778E+03  0.11011793217E+04  0.95000000000E+03 0.  0.
   -2000013    1    1    2    0    0  0.40582042471E+02 -0.48134063224E+03  0.15106070659E+04  0.18487210211E+04  0.95000000000E+03 0.  0.
<mgrwt>
<rscale>  0 0.23465233E+04</rscale>
<asrwt>0</asrwt>
<pdfrwt beam="1">  1        2 0.36442797E+00 0.23465233E+04</pdfrwt>
<pdfrwt beam="2">  1       -2 0.89402846E-01 0.23465233E+04</pdfrwt>
<totfact> 0.40146765E+00</totfact>
</mgrwt>
</event>
<event>
 4    1  0.2058093E-008  0.2263790E+04  0.7816531E-02  0.8492336E-01
          2   -1    0    0  501    0  0.00000000000E+00  0.00000000000E+00  0.13966414124E+04  0.13966414124E+04  0.00000000000E+00 0.  1.
         -2   -1    0    0    0  501 -0.00000000000E+00 -0.00000000000E+00 -0.91733392048E+03  0.91733392048E+03  0.00000000000E+00 0. -1.
    2000013    1    1    2    0    0 -0.24243817477E+03  0.51733330461E+03  0.59444950214E+01  0.11085780774E+04  0.95000000000E+03 0.  0.
   -2000013    1    1    2    0    0  0.24243817477E+03 -0.51733330461E+03  0.47336299686E+03  0.12053972554E+04  0.95000000000E+03 0.  0.
<mgrwt>
<rscale>  0 0.22637902E+04</rscale>
<asrwt>0</asrwt>
<pdfrwt beam="1">  1        2 0.21486791E+00 0.22637902E+04</pdfrwt>
<pdfrwt beam="2">  1       -2 0.14112830E+00 0.22637902E+04</pdfrwt>
<totfact> 0.46494585E+00</totfact>
</mgrwt>
</event>
<event>
 4    1  0.2058093E-008  0.2517667E+04  0.7816531E-02  0.8396719E-01
         -2   -1    0    0    0  501 -0.00000000000E+00  0.00000000000E+00  0.10739375100E+04  0.10739375100E+04  0.00000000000E+00 0. -1.
          2   -1    0    0  501    0  0.00000000000E+00 -0.00000000000E+00 -0.14755622660E+04  0.14755622660E+04  0.00000000000E+00 0.  1.
    2000013    1    1    2    0    0 -0.79009061757E+03  0.24049109522E+03 -0.19161375411E+03  0.12733008213E+04  0.95000000000E+03 0.  0.
   -2000013    1    1    2    0    0  0.79009061757E+03 -0.24049109522E+03 -0.21001100193E+03  0.12761989546E+04  0.95000000000E+03 0.  0.
<mgrwt>
<rscale>  0 0.25176669E+04</rscale>
<asrwt>0</asrwt>
<pdfrwt beam="2">  1        2 0.22700958E+00 0.25176669E+04</pdfrwt>
<pdfrwt beam="1">  1       -2 0.16522116E+00 0.25176669E+04</pdfrwt>
<totfact> 0.26924511E+00</totfact>
</mgrwt>
</event>
<event>
 4    1  0.2058093E-008  0.3112563E+04  0.7816531E-02  0.8212299E-01
          3   -1    0    0  501    0  0.00000000000E+00  0.00000000000E+00  0.36713571301E+04  0.36713571301E+04  0.00000000000E+00 0.  1.
         -3   -1    0    0    0  501 -0.00000000000E+00 -0.00000000000E+00 -0.65970469113E+03  0.65970469113E+03  0.00000000000E+00 0. -1.
    2000013    1    1    2    0    0  0.39916111096E+03 -0.11617394191E+04  0.16487049817E+04  0.22648832612E+04  0.95000000000E+03 0.  0.
   -2000013    1    1    2    0    0 -0.39916111096E+03  0.11617394191E+04  0.13629474573E+04  0.20661785600E+04  0.95000000000E+03 0.  0.
<mgrwt>
<rscale>  0 0.31125626E+04</rscale>
<asrwt>0</asrwt>
<pdfrwt beam="1">  1        3 0.56482416E+00 0.31125626E+04</pdfrwt>
<pdfrwt beam="2">  1       -3 0.10149303E+00 0.31125626E+04</pdfrwt>
<totfact> 0.30974194E-03</totfact>
</mgrwt>
</event>
<event>
 4    1  0.2058093E-008  0.2625926E+04  0.7816531E-02  0.8359448E-01
          1   -1    0    0  501    0  0.00000000000E+00  0.00000000000E+00  0.10874909306E+04  0.10874909306E+04  0.00000000000E+00 0.  1.
         -1   -1    0    0    0  501 -0.00000000000E+00 -0.00000000000E+00 -0.15851830135E+04  0.15851830135E+04  0.00000000000E+00 0. -1.
    2000013    1    1    2    0    0  0.15795013558E+03  0.83937616055E+03  0.59653141037E+02  0.12788897847E+04  0.95000000000E+03 0.  0.
   -2000013    1    1    2    0    0 -0.15795013558E+03 -0.83937616055E+03 -0.55734522402E+03  0.13937841594E+04  0.95000000000E+03 0.  0.
<mgrwt>
<rscale>  0 0.26259262E+04</rscale>
<asrwt>0</asrwt>
<pdfrwt beam="1">  1        1 0.16730630E+00 0.26259262E+04</pdfrwt>
<pdfrwt beam="2">  1       -1 0.24387431E+00 0.26259262E+04</pdfrwt>
<totfact> 0.87062325E-01</totfact>
</mgrwt>
</event>
<event>
 4    1  0.2058093E-008  0.3122554E+04  0.7816531E-02  0.8209575E-01
          4   -1    0    0  501    0  0.00000000000E+00  0.00000000000E+00  0.12746403897E+04  0.12746403897E+04  0.00000000000E+00 0.  1.
         -4   -1    0    0    0  501 -0.00000000000E+00 -0.00000000000E+00 -0.19123712157E+04  0.19123712157E+04  0.00000000000E+00 0. -1.
    2000013    1    1    2    0    0 -0.39768510561E+03  0.11718134157E+04 -0.38166162551E+03  0.16060715180E+04  0.95000000000E+03 0.  0.
   -2000013    1    1    2    0    0  0.39768510561E+03 -0.11718134157E+04 -0.25606920045E+03  0.15809400874E+04  0.95000000000E+03 0.  0.
<mgrwt>
<rscale>  0 0.31225538E+04</rscale>
<asrwt>0</asrwt>
<pdfrwt beam="1">  1        4 0.19609852E+00 0.31225538E+04</pdfrwt>
<pdfrwt beam="2">  1       -4 0.29421095E+00 0.31225538E+04</pdfrwt>
<totfact> 0.78734093E-03</totfact>
</mgrwt>
</event>
<event>
 4    1  0.2058093E-008  0.3239674E+04  0.7816531E-02  0.8178417E-01
          2   -1    0    0  501    0  0.00000000000E+00  0.00000000000E+00  0.21570383600E+04  0.21570383600E+04  0.00000000000E+00 0.  1.
         -2   -1    0    0    0  501 -0.00000000000E+00 -0.00000000000E+00 -0.12164230133E+04  0.12164230133E+04  0.00000000000E+00 0. -1.
    2000013    1    1    2    0    0  0.19225130400E+03  0.82544050181E+03 -0.57258023614E+03  0.13959443802E+04  0.95000000000E+03 0.  0.
   -2000013    1    1    2    0    0 -0.19225130400E+03 -0.82544050181E+03  0.15131955828E+04  0.19775169930E+04  0.95000000000E+03 0.  0.
<mgrwt>
<rscale>  0 0.32396735E+04</rscale>
<asrwt>0</asrwt>
<pdfrwt beam="1">  1        2 0.33185205E+00 0.32396735E+04</pdfrwt>
<pdfrwt beam="2">  1       -2 0.18714200E+00 0.32396735E+04</pdfrwt>
<totfact> 0.74243816E-01</totfact>
</mgrwt>
</event>
<event>
 4    1  0.2058093E-008  0.2249464E+04  0.7816531E-02  0.8498117E-01
         -2   -1    0    0    0  501 -0.00000000000E+00  0.00000000000E+00  0.55957146782E+03  0.55957146782E+03  0.00000000000E+00 0. -1.
          2   -1    0    0  501    0  0.00000000000E+00 -0.00000000000E+00 -0.22606986317E+04  0.22606986317E+04  0.00000000000E+00 0.  1.
    2000013    1    1    2    0    0 -0.49613392650E+03 -0.97248180315E+02 -0.12605162275E+04  0.16574097989E+04  0.95000000000E+03 0.  0.
   -2000013    1    1    2    0    0  0.49613392650E+03  0.97248180315E+02 -0.44061093640E+03  0.11628603007E+04  0.95000000000E+03 0.  0.
<mgrwt>
<rscale>  0 0.22494643E+04</rscale>
<asrwt>0</asrwt>
<pdfrwt beam="2">  1        2 0.34779979E+00 0.22494643E+04</pdfrwt>
<pdfrwt beam="1">  1       -2 0.86087919E-01 0.22494643E+04</pdfrwt>
<totfact> 0.50841751E+00</totfact>
</mgrwt>
</event>
<event>
 4    1  0.2058093E-008  0.2103285E+04  0.7816531E-02  0.8559798E-01
         -2   -1    0    0    0  501 -0.00000000000E+00  0.00000000000E+00  0.53249116512E+03  0.53249116512E+03  0.00000000000E+00 0. -1.
          2   -1    0    0  501    0  0.00000000000E+00 -0.00000000000E+00 -0.20769396443E+04  0.20769396443E+04  0.00000000000E+00 0.  1.
    2000013    1    1    2    0    0  0.74519761610E+02 -0.30062143731E+03 -0.11790453874E+04  0.15455013649E+04  0.95000000000E+03 0.  0.
   -2000013    1    1    2    0    0 -0.74519761610E+02  0.30062143731E+03 -0.36540309183E+03  0.10639294445E+04  0.95000000000E+03 0.  0.
<mgrwt>
<rscale>  0 0.21032851E+04</rscale>
<asrwt>0</asrwt>
<pdfrwt beam="2">  1        2 0.31952917E+00 0.21032851E+04</pdfrwt>
<pdfrwt beam="1">  1       -2 0.81921718E-01 0.21032851E+04</pdfrwt>
<totfact> 0.73055772E+00</totfact>
</mgrwt>
</event>
<event>
 4    1  0.2058093E-008  0.2828311E+04  0.7816531E-02  0.8294533E-01
         -2   -1    0    0    0  501 -0.00000000000E+00  0.00000000000E+00  0.71456529724E+03  0.71456529724E+03  0.00000000000E+00 0. -1.
          2   -1    0    0  501    0  0.00000000000E+00 -0.00000000000E+00 -0.27986740778E+04  0.27986740778E+04  0.00000000000E+00 0.  1.
    2000013    1    1    2    0    0 -0.51207937241E+03  0.72538852215E+03 -0.35164808616E+03  0.13470598235E+04  0.95000000000E+03 0.  0.
   -2000013    1    1    2    0    0  0.51207937241E+03 -0.72538852215E+03 -0.17324606944E+04  0.21661795515E+04  0.95000000000E+03 0.  0.
<mgrwt>
<rscale>  0 0.28283107E+04</rscale>
<asrwt>0</asrwt>
<pdfrwt beam="2">  1        2 0.43056524E+00 0.28283107E+04</pdfrwt>
<pdfrwt beam="1">  1       -2 0.10993312E+00 0.28283107E+04</pdfrwt>
<totfact> 0.13228370E+00</totfact>
</mgrwt>
</event>
<event>
 4    1  0.2058093E-008  0.3344544E+04  0.7816531E-02  0.8151653E-01
          2   -1    0    0  501    0  0.00000000000E+00  0.00000000000E+00  0.40719087062E+04  0.40719087062E+04  0.00000000000E+00 0.  1.
         -2   -1    0    0    0  501 -0.00000000000E+00 -0.00000000000E+00 -0.68677725363E+03  0.68677725363E+03  0.00000000000E+00 0. -1.
    2000013    1    1    2    0    0 -0.40072506022E+03 -0.11898642001E+04  0.89067433803E+03  0.18089107676E+04  0.95000000000E+03 0.  0.
   -2000013    1    1    2    0    0  0.40072506022E+03  0.11898642001E+04  0.24944571146E+04  0.29497751923E+04  0.95000000000E+03 0.  0.
<mgrwt>
<rscale>  0 0.33445444E+04</rscale>
<asrwt>0</asrwt>
<pdfrwt beam="1">  1        2 0.62644748E+00 0.33445444E+04</pdfrwt>
<pdfrwt beam="2">  1       -2 0.10565804E+00 0.33445444E+04</pdfrwt>
<totfact> 0.17955949E-01</totfact>
</mgrwt>
</event>
<event>
 4    1  0.2058093E-008  0.2271929E+04  0.7816531E-02  0.8489072E-01
          1   -1    0    0  501    0  0.00000000000E+00  0.00000000000E+00  0.23422623455E+04  0.23422623455E+04  0.00000000000E+00 0.  1.
         -1   -1    0    0    0  501 -0.00000000000E+00 -0.00000000000E+00 -0.55092677024E+03  0.55092677024E+03  0.00000000000E+00 0. -1.
    2000013    1    1    2    0    0 -0.50103319682E+03  0.59149186885E+02  0.13607513161E+04  0.17345538431E+04  0.95000000000E+03 0.  0.
   -2000013    1    1    2    0    0  0.50103319682E+03 -0.59149186885E+02  0.43058425919E+03  0.11586352726E+04  0.95000000000E+03 0.  0.
<mgrwt>
<rscale>  0 0.22719287E+04</rscale>
<asrwt>0</asrwt>
<pdfrwt beam="1">  1        1 0.36034805E+00 0.22719287E+04</pdfrwt>
<pdfrwt beam="2">  1       -1 0.84757966E-01 0.22719287E+04</pdfrwt>
<totfact> 0.21726640E+00</totfact>
</mgrwt>
</event>
<event>
 4    1  0.2058093E-008  0.2521459E+04  0.7816531E-02  0.8395380E-01
          1   -1    0    0  501    0  0.00000000000E+00  0.00000000000E+00  0.22867046685E+04  0.22867046685E+04  0.00000000000E+00 0.  1.
         -1   -1    0    0    0  501 -0.00000000000E+00 -0.00000000000E+00 -0.69507844935E+03  0.69507844935E+03  0.00000000000E+00 0. -1.
    2000013    1    1    2    0    0 -0.80495991831E+03  0.34416774598E+02  0.10257117482E+04  0.16136076273E+04  0.95000000000E+03 0.  0.
   -2000013    1    1    2    0    0  0.80495991831E+03 -0.34416774598E+02  0.56591447089E+03  0.13681754905E+04  0.95000000000E+03 0.  0.
<mgrwt>
<rscale>  0 0.25214592E+04</rscale>
<asrwt>0</asrwt>
<pdfrwt beam="1">  1        1 0.35180072E+00 0.25214592E+04</pdfrwt>
<pdfrwt beam="2">  1       -1 0.10693515E+00 0.25214592E+04</pdfrwt>
<totfact> 0.13744245E+00</totfact>
</mgrwt>
</event>
<event>
 4    1  0.2058093E-008  0.2593801E+04  0.7816531E-02  0.8370310E-01
         -2   -1    0    0    0  501 -0.00000000000E+00  0.00000000000E+00  0.20060384717E+04  0.20060384717E+04  0.00000000000E+00 0. -1.
          2   -1    0    0  501    0  0.00000000000E+00 -0.00000000000E+00 -0.83844416667E+03  0.83844416667E+03  0.00000000000E+00 0.  1.
    2000013    1    1    2    0    0 -0.85136361616E+03 -0.22563223981E+03  0.51689866906E+03  0.13947810397E+04  0.95000000000E+03 0.  0.
   -2000013    1    1    2    0    0  0.85136361616E+03  0.22563223981E+03  0.65069563593E+03  0.14497015987E+04  0.95000000000E+03 0.  0.
<mgrwt>
<rscale>  0 0.25938013E+04</rscale>
<asrwt>0</asrwt>
<pdfrwt beam="2">  1        2 0.12899141E+00 0.25938013E+04</pdfrwt>
<pdfrwt beam="1">  1       -2 0.30862130E+00 0.25938013E+04</pdfrwt>
<totfact> 0.80541433E-01</totfact>
</mgrwt>
</event>
<event>
 4    1  0.2058093E-008  0.3167540E+04  0.7816531E-02  0.8197443E-01
          2   -1    0    0  501    0  0.00000000000E+00  0.00000000000E+00  0.17428020370E+04  0.17428020370E+04  0.00000000000E+00 0.  1.
         -2   -1    0    0    0  501 -0.00000000000E+00 -0.00000000000E+00 -0.14392496182E+04  0.14392496182E+04  0.00000000000E+00 0. -1.
    2000013    1    1    2    0    0  0.19148861533E+02  0.97381653375E+03 -0.66258054081E+03  0.15133401116E+04  0.95000000000E+03 0.  0.
   -2000013    1    1    2    0    0 -0.19148861533E+02 -0.97381653375E+03  0.96613295955E+03  0.16687115436E+04  0.95000000000E+03 0.  0.
<mgrwt>
<rscale>  0 0.31675398E+04</rscale>
<asrwt>0</asrwt>
<pdfrwt beam="1">  1        2 0.26812339E+00 0.31675398E+04</pdfrwt>
<pdfrwt beam="2">  1       -2 0.22142302E+00 0.31675398E+04</pdfrwt>
<totfact> 0.75886353E-01</totfact>
</mgrwt>
</event>
<event>
 4    1  0.2058093E-008  0.2017880E+04  0.7816531E-02  0.8598306E-01
          2   -1    0    0  501    0  0.00000000000E+00  0.00000000000E+00  0.12970822978E+04  0.12970822978E+04  0.00000000000E+00 0.  1.
         -2   -1    0    0    0  501 -0.00000000000E+00 -0.00000000000E+00 -0.78480777591E+03  0.78480777591E+03  0.00000000000E+00 0. -1.
    2000013    1    1    2    0    0  0.22967732071E+03 -0.13320151264E+03  0.47491559573E+03  0.10947781226E+04  0.95000000000E+03 0.  0.
   -2000013    1    1    2    0    0 -0.22967732071E+03  0.13320151264E+03  0.37358926128E+02  0.98711195109E+03  0.95000000000E+03 0.  0.
<mgrwt>
<rscale>  0 0.20178803E+04</rscale>
<asrwt>0</asrwt>
<pdfrwt beam="1">  1        2 0.19955112E+00 0.20178803E+04</pdfrwt>
<pdfrwt beam="2">  1       -2 0.12073966E+00 0.20178803E+04</pdfrwt>
<totfact> 0.80530198E+00</totfact>
</mgrwt>
</event>
<event>
 4    1  0.2058093E-008  0.2765932E+04  0.7816531E-02  0.8313924E-01
          2   -1    0    0  501    0  0.00000000000E+00  0.00000000000E+00  0.13965092920E+04  0.13965092920E+04  0.00000000000E+00 0.  1.
         -2   -1    0    0    0  501 -0.00000000000E+00 -0.00000000000E+00 -0.13695538695E+04  0.13695538695E+04  0.00000000000E+00 0. -1.
    2000013    1    1    2    0    0  0.69673980161E+03 -0.24756036165E+03  0.69421718319E+03  0.13896654206E+04  0.95000000000E+03 0.  0.
   -2000013    1    1    2    0    0 -0.69673980161E+03  0.24756036165E+03 -0.66726176069E+03  0.13763977409E+04  0.95000000000E+03 0.  0.
<mgrwt>
<rscale>  0 0.27659318E+04</rscale>
<asrwt>0</asrwt>
<pdfrwt beam="1">  1        2 0.21484758E+00 0.27659318E+04</pdfrwt>
<pdfrwt beam="2">  1       -2 0.21070059E+00 0.27659318E+04</pdfrwt>
<totfact> 0.14376507E+00</totfact>
</mgrwt>
</event>
<event>
 4    1  0.2058093E-008  0.2500308E+04  0.7816531E-02  0.8402876E-01
          1   -1    0    0  501    0  0.00000000000E+00  0.00000000000E+00  0.97212373080E+03  0.97212373080E+03  0.00000000000E+00 0.  1.
         -1   -1    0    0    0  501 -0.00000000000E+00 -0.00000000000E+00 -0.16077014745E+04  0.16077014745E+04  0.00000000000E+00 0. -1.
    2000013    1    1    2    0    0 -0.45388536673E+03  0.65809130348E+03 -0.16724224550E+03  0.12528232351E+04  0.95000000000E+03 0.  0.
   -2000013    1    1    2    0    0  0.45388536673E+03 -0.65809130348E+03 -0.46833549818E+03  0.13270019701E+04  0.95000000000E+03 0.  0.
<mgrwt>
<rscale>  0 0.25003078E+04</rscale>
<asrwt>0</asrwt>
<pdfrwt beam="1">  1        1 0.14955750E+00 0.25003078E+04</pdfrwt>
<pdfrwt beam="2">  1       -1 0.24733869E+00 0.25003078E+04</pdfrwt>
<totfact> 0.10260399E+00</totfact>
</mgrwt>
</event>
<event>
 4    1  0.2058093E-008  0.2198939E+04  0.7816531E-02  0.8518870E-01
          4   -1    0    0  501    0  0.00000000000E+00  0.00000000000E+00  0.67485386610E+03  0.67485386610E+03  0.00000000000E+00 0. -1.
         -4   -1    0    0    0  501 -0.00000000000E+00 -0.00000000000E+00 -0.17912512552E+04  0.17912512552E+04  0.00000000000E+00 0.  1.
    2000013    1    1    2    0    0  0.10390169695E+03  0.39347045254E+03 -0.13749752736E+03  0.10426025751E+04  0.95000000000E+03 0.  0.
   -2000013    1    1    2    0    0 -0.10390169695E+03 -0.39347045254E+03 -0.97889986176E+03  0.14235025462E+04  0.95000000000E+03 0.  0.
<mgrwt>
<rscale>  0 0.21989387E+04</rscale>
<asrwt>0</asrwt>
<pdfrwt beam="1">  1        4 0.10382367E+00 0.21989387E+04</pdfrwt>
<pdfrwt beam="2">  1       -4 0.27557712E+00 0.21989387E+04</pdfrwt>
<totfact> 0.60432766E-02</totfact>
</mgrwt>
</event>
<event>
 4    1  0.2058093E-008  0.2656185E+04  0.7816531E-02  0.8349363E-01
         -2   -1    0    0    0  501 -0.00000000000E+00  0.00000000000E+00  0.54576475830E+03  0.54576475830E+03  0.00000000000E+00 0. -1.
          2   -1    0    0  501    0  0.00000000000E+00 -0.00000000000E+00 -0.32318493383E+04  0.32318493383E+04  0.00000000000E+00 0.  1.
    2000013    1    1    2    0    0 -0.68393442083E+03 -0.26291029840E+03 -0.21531213405E+04  0.24648163469E+04  0.95000000000E+03 0.  0.
   -2000013    1    1    2    0    0  0.68393442083E+03  0.26291029840E+03 -0.53296323951E+03  0.13127977497E+04  0.95000000000E+03 0.  0.
<mgrwt>
<rscale>  0 0.26561848E+04</rscale>
<asrwt>0</asrwt>
<pdfrwt beam="2">  1        2 0.49720759E+00 0.26561848E+04</pdfrwt>
<pdfrwt beam="1">  1       -2 0.83963809E-01 0.26561848E+04</pdfrwt>
<totfact> 0.13482726E+00</totfact>
</mgrwt>
</event>
<event>
 4    1  0.2058093E-008  0.3688623E+04  0.7816531E-02  0.8070488E-01
         -2   -1    0    0    0  501 -0.00000000000E+00  0.00000000000E+00  0.14034597572E+04  0.14034597572E+04  0.00000000000E+00 0. -1.
          2   -1    0    0  501    0  0.00000000000E+00 -0.00000000000E+00 -0.24236422345E+04  0.24236422345E+04  0.00000000000E+00 0.  1.
    2000013    1    1    2    0    0 -0.94998257002E+03 -0.11501008989E+04  0.32797621379E+02  0.17688342616E+04  0.95000000000E+03 0.  0.
   -2000013    1    1    2    0    0  0.94998257002E+03  0.11501008989E+04 -0.10529800987E+04  0.20582677302E+04  0.95000000000E+03 0.  0.
<mgrwt>
<rscale>  0 0.36886227E+04</rscale>
<asrwt>0</asrwt>
<pdfrwt beam="2">  1        2 0.37286803E+00 0.36886227E+04</pdfrwt>
<pdfrwt beam="1">  1       -2 0.21591689E+00 0.36886227E+04</pdfrwt>
<totfact> 0.32713047E-01</totfact>
</mgrwt>
</event>
<event>
 4    1  0.2058093E-008  0.2873999E+04  0.7816531E-02  0.8280656E-01
         -2   -1    0    0    0  501 -0.00000000000E+00  0.00000000000E+00  0.96585320974E+03  0.96585320974E+03  0.00000000000E+00 0. -1.
          2   -1    0    0  501    0  0.00000000000E+00 -0.00000000000E+00 -0.21379727720E+04  0.21379727720E+04  0.00000000000E+00 0.  1.
    2000013    1    1    2    0    0  0.10522979842E+04 -0.10361258790E+03 -0.35849329167E+03  0.14659754623E+04  0.95000000000E+03 0.  0.
   -2000013    1    1    2    0    0 -0.10522979842E+04  0.10361258790E+03 -0.81362627059E+03  0.16378505195E+04  0.95000000000E+03 0.  0.
<mgrwt>
<rscale>  0 0.28739992E+04</rscale>
<asrwt>0</asrwt>
<pdfrwt beam="2">  1        2 0.32891889E+00 0.28739992E+04</pdfrwt>
<pdfrwt beam="1">  1       -2 0.14859280E+00 0.28739992E+04</pdfrwt>
<totfact> 0.14866107E+00</totfact>
</mgrwt>
</event>
<event>
 4    1  0.2058093E-008  0.3079049E+04  0.7816531E-02  0.8221511E-01
          2   -1    0    0  501    0  0.00000000000E+00  0.00000000000E+00  0.12717584458E+04  0.12717584458E+04  0.00000000000E+00 0.  1.
         -2   -1    0    0    0  501 -0.00000000000E+00 -0.00000000000E+00 -0.18636682779E+04  0.18636682779E+04  0.00000000000E+00 0. -1.
    2000013    1    1    2    0    0 -0.20627922587E+03  0.99574112992E+03 -0.96648279594E+03  0.16942964651E+04  0.95000000000E+03 0.  0.
   -2000013    1    1    2    0    0  0.20627922587E+03 -0.99574112992E+03  0.37457296383E+03  0.14411302585E+04  0.95000000000E+03 0.  0.
<mgrwt>
<rscale>  0 0.30790491E+04</rscale>
<asrwt>0</asrwt>
<pdfrwt beam="1">  1        2 0.19565515E+00 0.30790491E+04</pdfrwt>
<pdfrwt beam="2">  1       -2 0.28671819E+00 0.30790491E+04</pdfrwt>
<totfact> 0.55963000E-01</totfact>
</mgrwt>
</event>
<event>
 4    1  0.2058093E-008  0.3230391E+04  0.7816531E-02  0.8180837E-01
         -2   -1    0    0    0  501 -0.00000000000E+00  0.00000000000E+00  0.63645469399E+03  0.63645469399E+03  0.00000000000E+00 0. -1.
          2   -1    0    0  501    0  0.00000000000E+00 -0.00000000000E+00 -0.40990459369E+04  0.40990459369E+04  0.00000000000E+00 0.  1.
    2000013    1    1    2    0    0 -0.46564917092E+03 -0.60960186230E+03 -0.18135573895E+03  0.12344365050E+04  0.95000000000E+03 0.  0.
   -2000013    1    1    2    0    0  0.46564917092E+03  0.60960186230E+03 -0.32812355039E+04  0.35010641258E+04  0.95000000000E+03 0.  0.
<mgrwt>
<rscale>  0 0.32303913E+04</rscale>
<asrwt>0</asrwt>
<pdfrwt beam="2">  1        2 0.63062245E+00 0.32303913E+04</pdfrwt>
<pdfrwt beam="1">  1       -2 0.97916107E-01 0.32303913E+04</pdfrwt>
<totfact> 0.20633658E-01</totfact>
</mgrwt>
</event>
<event>
 4    1  0.2058093E-008  0.2899347E+04  0.7816531E-02  0.8273072E-01
         -2   -1    0    0    0  501 -0.00000000000E+00  0.00000000000E+00  0.11669676453E+04  0.11669676453E+04  0.00000000000E+00 0. -1.
          2   -1    0    0  501    0  0.00000000000E+00 -0.00000000000E+00 -0.18008667006E+04  0.18008667006E+04  0.00000000000E+00 0.  1.
    2000013    1    1    2    0    0 -0.83340723886E+03  0.65529213670E+03 -0.59742515691E+03  0.15438238981E+04  0.95000000000E+03 0.  0.
   -2000013    1    1    2    0    0  0.83340723886E+03 -0.65529213670E+03 -0.36473898451E+02  0.14240104478E+04  0.95000000000E+03 0.  0.
<mgrwt>
<rscale>  0 0.28993469E+04</rscale>
<asrwt>0</asrwt>
<pdfrwt beam="2">  1        2 0.27705642E+00 0.28993469E+04</pdfrwt>
<pdfrwt beam="1">  1       -2 0.17953348E+00 0.28993469E+04</pdfrwt>
<totfact> 0.13592069E+00</totfact>
</mgrwt>
</event>
<event>
 4    1  0.2058093E-008  0.2578239E+04  0.7816531E-02  0.8375631E-01
         -1   -1    0    0    0  501 -0.00000000000E+00  0.00000000000E+00  0.19409420583E+04  0.19409420583E+04  0.00000000000E+00 0. -1.
          1   -1    0    0  501    0  0.00000000000E+00 -0.00000000000E+00 -0.85619709129E+03  0.85619709129E+03  0.00000000000E+00 0.  1.
    2000013    1    1    2    0    0  0.32407212317E+03 -0.75653479157E+03  0.23177683298E+03  0.12781189820E+04  0.95000000000E+03 0.  0.
   -2000013    1    1    2    0    0 -0.32407212317E+03  0.75653479157E+03  0.85296813405E+03  0.15190201676E+04  0.95000000000E+03 0.  0.
<mgrwt>
<rscale>  0 0.25782389E+04</rscale>
<asrwt>0</asrwt>
<pdfrwt beam="2">  1        1 0.13172263E+00 0.25782389E+04</pdfrwt>
<pdfrwt beam="1">  1       -1 0.29860647E+00 0.25782389E+04</pdfrwt>
<totfact> 0.58880061E-01</totfact>
</mgrwt>
</event>
<event>
 4    1  0.2058093E-008  0.2737646E+04  0.7816531E-02  0.8322892E-01
          2   -1    0    0  501    0  0.00000000000E+00  0.00000000000E+00  0.22493766631E+04  0.22493766631E+04  0.00000000000E+00 0.  1.
         -2   -1    0    0    0  501 -0.00000000000E+00 -0.00000000000E+00 -0.83297594546E+03  0.83297594546E+03  0.00000000000E+00 0. -1.
    2000013    1    1    2    0    0  0.75949476947E+03 -0.58103141377E+03  0.97641090899E+03  0.16644242464E+04  0.95000000000E+03 0.  0.
   -2000013    1    1    2    0    0 -0.75949476947E+03  0.58103141377E+03  0.43998980866E+03  0.14179283622E+04  0.95000000000E+03 0.  0.
<mgrwt>
<rscale>  0 0.27376462E+04</rscale>
<asrwt>0</asrwt>
<pdfrwt beam="1">  1        2 0.34605794E+00 0.27376462E+04</pdfrwt>
<pdfrwt beam="2">  1       -2 0.12815015E+00 0.27376462E+04</pdfrwt>
<totfact> 0.19073487E+00</totfact>
</mgrwt>
</event>
<event>
 4    1  0.2058093E-008  0.2903614E+04  0.7816531E-02  0.8271803E-01
         -2   -1    0    0    0  501 -0.00000000000E+00  0.00000000000E+00  0.74677276628E+03  0.74677276628E+03  0.00000000000E+00 0. -1.
          2   -1    0    0  501    0  0.00000000000E+00 -0.00000000000E+00 -0.28224688274E+04  0.28224688274E+04  0.00000000000E+00 0.  1.
    2000013    1    1    2    0    0  0.10267187083E+04  0.81774172424E+02 -0.15049670489E+04  0.20562743347E+04  0.95000000000E+03 0.  0.
   -2000013    1    1    2    0    0 -0.10267187083E+04 -0.81774172424E+02 -0.57072901218E+03  0.15129672589E+04  0.95000000000E+03 0.  0.
<mgrwt>
<rscale>  0 0.29036135E+04</rscale>
<asrwt>0</asrwt>
<pdfrwt beam="2">  1        2 0.43422596E+00 0.29036135E+04</pdfrwt>
<pdfrwt beam="1">  1       -2 0.11488812E+00 0.29036135E+04</pdfrwt>
<totfact> 0.11423133E+00</totfact>
</mgrwt>
</event>
<event>
 4    1  0.2058093E-008  0.2488098E+04  0.7816531E-02  0.8407238E-01
         -2   -1    0    0    0  501 -0.00000000000E+00  0.00000000000E+00  0.70985550375E+03  0.70985550375E+03  0.00000000000E+00 0. -1.
          2   -1    0    0  501    0  0.00000000000E+00 -0.00000000000E+00 -0.21802436153E+04  0.21802436153E+04  0.00000000000E+00 0.  1.
    2000013    1    1    2    0    0  0.13328294321E+02  0.80138804283E+03 -0.67419791988E+03  0.14140167162E+04  0.95000000000E+03 0.  0.
   -2000013    1    1    2    0    0 -0.13328294321E+02 -0.80138804283E+03 -0.79619019171E+03  0.14760824028E+04  0.95000000000E+03 0.  0.
<mgrwt>
<rscale>  0 0.24880980E+04</rscale>
<asrwt>0</asrwt>
<pdfrwt beam="2">  1        2 0.33542209E+00 0.24880980E+04</pdfrwt>
<pdfrwt beam="1">  1       -2 0.10920854E+00 0.24880980E+04</pdfrwt>
<totfact> 0.31618510E+00</totfact>
</mgrwt>
</event>
<event>
 4    1  0.2058093E-008  0.2728230E+04  0.7816531E-02  0.8325903E-01
          2   -1    0    0  501    0  0.00000000000E+00  0.00000000000E+00  0.28436148096E+04  0.28436148096E+04  0.00000000000E+00 0.  1.
         -2   -1    0    0    0  501 -0.00000000000E+00 -0.00000000000E+00 -0.65438182672E+03  0.65438182672E+03  0.00000000000E+00 0. -1.
    2000013    1    1    2    0    0 -0.93875343235E+03 -0.23681374423E+03  0.90894339872E+03  0.16327941874E+04  0.95000000000E+03 0.  0.
   -2000013    1    1    2    0    0  0.93875343235E+03  0.23681374423E+03  0.12802895841E+04  0.18652024489E+04  0.95000000000E+03 0.  0.
<mgrwt>
<rscale>  0 0.27282301E+04</rscale>
<asrwt>0</asrwt>
<pdfrwt beam="1">  1        2 0.43747920E+00 0.27282301E+04</pdfrwt>
<pdfrwt beam="2">  1       -2 0.10067413E+00 0.27282301E+04</pdfrwt>
<totfact> 0.15474005E+00</totfact>
</mgrwt>
</event>
<event>
 4    1  0.2058093E-008  0.2466526E+04  0.7816531E-02  0.8415009E-01
         -2   -1    0    0    0  501 -0.00000000000E+00  0.00000000000E+00  0.27687479681E+04  0.27687479681E+04  0.00000000000E+00 0. -1.
          2   -1    0    0  501    0  0.00000000000E+00 -0.00000000000E+00 -0.54932310823E+03  0.54932310823E+03  0.00000000000E+00 0.  1.
    2000013    1    1    2    0    0 -0.52792785533E+03  0.56633280599E+03  0.12951243551E+04  0.17830557374E+04  0.95000000000E+03 0.  0.
   -2000013    1    1    2    0    0  0.52792785533E+03 -0.56633280599E+03  0.92430050482E+03  0.15350153389E+04  0.95000000000E+03 0.  0.
<mgrwt>
<rscale>  0 0.24665257E+04</rscale>
<asrwt>0</asrwt>
<pdfrwt beam="2">  1        2 0.84511249E-01 0.24665257E+04</pdfrwt>
<pdfrwt beam="1">  1       -2 0.42596122E+00 0.24665257E+04</pdfrwt>
<totfact> 0.24689795E-01</totfact>
</mgrwt>
</event>
<event>
 4    1  0.2058093E-008  0.2751231E+04  0.7816531E-02  0.8318571E-01
         -1   -1    0    0    0  501 -0.00000000000E+00  0.00000000000E+00  0.65848572191E+03  0.65848572191E+03  0.00000000000E+00 0. -1.
          1   -1    0    0  501    0  0.00000000000E+00 -0.00000000000E+00 -0.28737414871E+04  0.28737414871E+04  0.00000000000E+00 0.  1.
    2000013    1    1    2    0    0  0.50963978933E+03  0.71747873153E+03 -0.17033627137E+04  0.21397319878E+04  0.95000000000E+03 0.  0.
   -2000013    1    1    2    0    0 -0.50963978933E+03 -0.71747873153E+03 -0.51189305153E+03  0.13924952213E+04  0.95000000000E+03 0.  0.
<mgrwt>
<rscale>  0 0.27512308E+04</rscale>
<asrwt>0</asrwt>
<pdfrwt beam="2">  1        1 0.44211408E+00 0.27512308E+04</pdfrwt>
<pdfrwt beam="1">  1       -1 0.10130550E+00 0.27512308E+04</pdfrwt>
<totfact> 0.59315406E-01</totfact>
</mgrwt>
</event>
<event>
 4    1  0.2058093E-008  0.2218942E+04  0.7816531E-02  0.8510585E-01
          2   -1    0    0  501    0  0.00000000000E+00  0.00000000000E+00  0.19764016893E+04  0.19764016893E+04  0.00000000000E+00 0.  1.
         -2   -1    0    0    0  501 -0.00000000000E+00 -0.00000000000E+00 -0.62281148604E+03  0.62281148604E+03  0.00000000000E+00 0. -1.
    2000013    1    1    2    0    0  0.30043203801E+03 -0.12737716515E+03  0.12495269250E+03  0.10122240498E+04  0.95000000000E+03 0.  0.
   -2000013    1    1    2    0    0 -0.30043203801E+03  0.12737716515E+03  0.12286375108E+04  0.15869891255E+04  0.95000000000E+03 0.  0.
<mgrwt>
<rscale>  0 0.22189418E+04</rscale>
<asrwt>0</asrwt>
<pdfrwt beam="1">  1        2 0.30406180E+00 0.22189418E+04</pdfrwt>
<pdfrwt beam="2">  1       -2 0.95817152E-01 0.22189418E+04</pdfrwt>
<totfact> 0.57405489E+00</totfact>
</mgrwt>
</event>
<event>
 4    1  0.2058093E-008  0.2243908E+04  0.7816531E-02  0.8500372E-01
         -2   -1    0    0    0  501 -0.00000000000E+00  0.00000000000E+00  0.57712595236E+03  0.57712595236E+03  0.00000000000E+00 0. -1.
          2   -1    0    0  501    0  0.00000000000E+00 -0.00000000000E+00 -0.21811193811E+04  0.21811193811E+04  0.00000000000E+00 0.  1.
    2000013    1    1    2    0    0  0.13113927104E+03 -0.48070573145E+03 -0.12059675291E+04  0.16140424994E+04  0.95000000000E+03 0.  0.
   -2000013    1    1    2    0    0 -0.13113927104E+03  0.48070573145E+03 -0.39802589963E+03  0.11442028340E+04  0.95000000000E+03 0.  0.
<mgrwt>
<rscale>  0 0.22439078E+04</rscale>
<asrwt>0</asrwt>
<pdfrwt beam="2">  1        2 0.33555682E+00 0.22439078E+04</pdfrwt>
<pdfrwt beam="1">  1       -2 0.88788611E-01 0.22439078E+04</pdfrwt>
<totfact> 0.52542661E+00</totfact>
</mgrwt>
</event>
<event>
 4    1  0.2058093E-008  0.2344578E+04  0.7816531E-02  0.8460549E-01
         -2   -1    0    0    0  501 -0.00000000000E+00  0.00000000000E+00  0.20035013325E+04  0.20035013325E+04  0.00000000000E+00 0. -1.
          2   -1    0    0  501    0  0.00000000000E+00 -0.00000000000E+00 -0.68592982685E+03  0.68592982685E+03  0.00000000000E+00 0.  1.
    2000013    1    1    2    0    0 -0.19361615807E+03  0.62645926623E+03  0.42419936334E+03  0.12297900344E+04  0.95000000000E+03 0.  0.
   -2000013    1    1    2    0    0  0.19361615807E+03 -0.62645926623E+03  0.89337214228E+03  0.14596411249E+04  0.95000000000E+03 0.  0.
<mgrwt>
<rscale>  0 0.23445778E+04</rscale>
<asrwt>0</asrwt>
<pdfrwt beam="2">  1        2 0.10552767E+00 0.23445778E+04</pdfrwt>
<pdfrwt beam="1">  1       -2 0.30823097E+00 0.23445778E+04</pdfrwt>
<totfact> 0.10749602E+00</totfact>
</mgrwt>
</event>
<event>
 4    1  0.2058093E-008  0.2333008E+04  0.7816531E-02  0.8465019E-01
          2   -1    0    0  501    0  0.00000000000E+00  0.00000000000E+00  0.85269682394E+03  0.85269682394E+03  0.00000000000E+00 0.  1.
         -2   -1    0    0    0  501 -0.00000000000E+00 -0.00000000000E+00 -0.15957970211E+04  0.15957970211E+04  0.00000000000E+00 0. -1.
    2000013    1    1    2    0    0 -0.13537409610E+03 -0.66049486810E+03 -0.43496840662E+03  0.12434939209E+04  0.95000000000E+03 0.  0.
   -2000013    1    1    2    0    0  0.13537409610E+03  0.66049486810E+03 -0.30813179052E+03  0.12049999241E+04  0.95000000000E+03 0.  0.
<mgrwt>
<rscale>  0 0.23330075E+04</rscale>
<asrwt>0</asrwt>
<pdfrwt beam="1">  1        2 0.13118413E+00 0.23330075E+04</pdfrwt>
<pdfrwt beam="2">  1       -2 0.24550723E+00 0.23330075E+04</pdfrwt>
<totfact> 0.19566361E+00</totfact>
</mgrwt>
</event>
<event>
 4    1  0.2058093E-008  0.2574163E+04  0.7816531E-02  0.8377031E-01
          2   -1    0    0  501    0  0.00000000000E+00  0.00000000000E+00  0.19278216617E+04  0.19278216617E+04  0.00000000000E+00 0.  1.
         -2   -1    0    0    0  501 -0.00000000000E+00 -0.00000000000E+00 -0.85930066283E+03  0.85930066283E+03  0.00000000000E+00 0. -1.
    2000013    1    1    2    0    0 -0.38159044081E+03 -0.69442306485E+03  0.91896300772E+03  0.15410475875E+04  0.95000000000E+03 0.  0.
   -2000013    1    1    2    0    0  0.38159044081E+03  0.69442306485E+03  0.14955799118E+03  0.12460747370E+04  0.95000000000E+03 0.  0.
<mgrwt>
<rscale>  0 0.25741627E+04</rscale>
<asrwt>0</asrwt>
<pdfrwt beam="1">  1        2 0.29658795E+00 0.25741627E+04</pdfrwt>
<pdfrwt beam="2">  1       -2 0.13220010E+00 0.25741627E+04</pdfrwt>
<totfact> 0.27036605E+00</totfact>
</mgrwt>
</event>
<event>
 4    1  0.2058093E-008  0.2925318E+04  0.7816531E-02  0.8265384E-01
          1   -1    0    0  501    0  0.00000000000E+00  0.00000000000E+00  0.19479560680E+04  0.19479560680E+04  0.00000000000E+00 0.  1.
         -1   -1    0    0    0  501 -0.00000000000E+00 -0.00000000000E+00 -0.10982648696E+04  0.10982648696E+04  0.00000000000E+00 0. -1.
    2000013    1    1    2    0    0  0.61813327477E+03  0.78118385435E+03 -0.90096710381E+02  0.13794761241E+04  0.95000000000E+03 0.  0.
   -2000013    1    1    2    0    0 -0.61813327477E+03 -0.78118385435E+03  0.93978790884E+03  0.16667448135E+04  0.95000000000E+03 0.  0.
<mgrwt>
<rscale>  0 0.29253183E+04</rscale>
<asrwt>0</asrwt>
<pdfrwt beam="1">  1        1 0.29968555E+00 0.29253183E+04</pdfrwt>
<pdfrwt beam="2">  1       -1 0.16896383E+00 0.29253183E+04</pdfrwt>
<totfact> 0.69333995E-01</totfact>
</mgrwt>
</event>
<event>
 4    1  0.2058093E-008  0.3631272E+04  0.7816531E-02  0.8083366E-01
          2   -1    0    0  501    0  0.00000000000E+00  0.00000000000E+00  0.14888871845E+04  0.14888871845E+04  0.00000000000E+00 0.  1.
         -2   -1    0    0    0  501 -0.00000000000E+00 -0.00000000000E+00 -0.22140924470E+04  0.22140924470E+04  0.00000000000E+00 0. -1.
    2000013    1    1    2    0    0 -0.15118011794E+04 -0.32862810547E+03 -0.33992312342E+03  0.18470481769E+04  0.95000000000E+03 0.  0.
   -2000013    1    1    2    0    0  0.15118011794E+04  0.32862810547E+03 -0.38528213908E+03  0.18559314547E+04  0.95000000000E+03 0.  0.
<mgrwt>
<rscale>  0 0.36312719E+04</rscale>
<asrwt>0</asrwt>
<pdfrwt beam="1">  1        2 0.22905957E+00 0.36312719E+04</pdfrwt>
<pdfrwt beam="2">  1       -2 0.34062960E+00 0.36312719E+04</pdfrwt>
<totfact> 0.18649473E-01</totfact>
</mgrwt>
</event>
<event>
 4    1  0.2058093E-008  0.3186370E+04  0.7816531E-02  0.8192426E-01
         -2   -1    0    0    0  501 -0.00000000000E+00  0.00000000000E+00  0.15972265492E+04  0.15972265492E+04  0.00000000000E+00 0. -1.
          2   -1    0    0  501    0  0.00000000000E+00 -0.00000000000E+00 -0.15891537375E+04  0.15891537375E+04  0.00000000000E+00 0.  1.
    2000013    1    1    2    0    0  0.12552967434E+04 -0.22902350912E+03 -0.82663690486E+02  0.15929704854E+04  0.95000000000E+03 0.  0.
   -2000013    1    1    2    0    0 -0.12552967434E+04  0.22902350912E+03  0.90736502183E+02  0.15934098012E+04  0.95000000000E+03 0.  0.
<mgrwt>
<rscale>  0 0.31863701E+04</rscale>
<asrwt>0</asrwt>
<pdfrwt beam="2">  1        2 0.24448519E+00 0.31863701E+04</pdfrwt>
<pdfrwt beam="1">  1       -2 0.24572716E+00 0.31863701E+04</pdfrwt>
<totfact> 0.65096199E-01</totfact>
</mgrwt>
</event>
<event>
 4    1  0.2058093E-008  0.2753756E+04  0.7816531E-02  0.8317771E-01
          2   -1    0    0  501    0  0.00000000000E+00  0.00000000000E+00  0.13968105292E+04  0.13968105292E+04  0.00000000000E+00 0.  1.
         -2   -1    0    0    0  501 -0.00000000000E+00 -0.00000000000E+00 -0.13572303929E+04  0.13572303929E+04  0.00000000000E+00 0. -1.
    2000013    1    1    2    0    0  0.73795355868E+03 -0.66422279311E+03  0.10655345005E+03  0.13782673947E+04  0.95000000000E+03 0.  0.
   -2000013    1    1    2    0    0 -0.73795355868E+03  0.66422279311E+03 -0.66973313765E+02  0.13757735273E+04  0.95000000000E+03 0.  0.
<mgrwt>
<rscale>  0 0.27537565E+04</rscale>
<asrwt>0</asrwt>
<pdfrwt beam="1">  1        2 0.21489393E+00 0.27537565E+04</pdfrwt>
<pdfrwt beam="2">  1       -2 0.20880468E+00 0.27537565E+04</pdfrwt>
<totfact> 0.14795415E+00</totfact>
</mgrwt>
</event>
<event>
 4    1  0.2058093E-008  0.2721873E+04  0.7816531E-02  0.8327943E-01
         -2   -1    0    0    0  501 -0.00000000000E+00  0.00000000000E+00  0.73509069500E+03  0.73509069500E+03  0.00000000000E+00 0. -1.
          2   -1    0    0  501    0  0.00000000000E+00 -0.00000000000E+00 -0.25196181636E+04  0.25196181636E+04  0.00000000000E+00 0.  1.
    2000013    1    1    2    0    0  0.73751155552E+03 -0.41124995955E+03 -0.14738978829E+04  0.19462591793E+04  0.95000000000E+03 0.  0.
   -2000013    1    1    2    0    0 -0.73751155552E+03  0.41124995955E+03 -0.31062958568E+03  0.13084496793E+04  0.95000000000E+03 0.  0.
<mgrwt>
<rscale>  0 0.27218728E+04</rscale>
<asrwt>0</asrwt>
<pdfrwt beam="2">  1        2 0.38763356E+00 0.27218728E+04</pdfrwt>
<pdfrwt beam="1">  1       -2 0.11309088E+00 0.27218728E+04</pdfrwt>
<totfact> 0.18235595E+00</totfact>
</mgrwt>
</event>
<event>
 4    1  0.2058093E-008  0.2139696E+04  0.7816531E-02  0.8543956E-01
         -2   -1    0    0    0  501 -0.00000000000E+00  0.00000000000E+00  0.96671415047E+03  0.96671415047E+03  0.00000000000E+00 0. -1.
          2   -1    0    0  501    0  0.00000000000E+00 -0.00000000000E+00 -0.11839847416E+04  0.11839847416E+04  0.00000000000E+00 0.  1.
    2000013    1    1    2    0    0  0.42352679142E+03  0.14517217736E+03 -0.31370623645E+03  0.10960663789E+04  0.95000000000E+03 0.  0.
   -2000013    1    1    2    0    0 -0.42352679142E+03 -0.14517217736E+03  0.96435645333E+02  0.10546325132E+04  0.95000000000E+03 0.  0.
<mgrwt>
<rscale>  0 0.21396961E+04</rscale>
<asrwt>0</asrwt>
<pdfrwt beam="2">  1        2 0.18215150E+00 0.21396961E+04</pdfrwt>
<pdfrwt beam="1">  1       -2 0.14872525E+00 0.21396961E+04</pdfrwt>
<totfact> 0.54518390E+00</totfact>
</mgrwt>
</event>
<event>
 4    1  0.2058093E-008  0.2374679E+04  0.7816531E-02  0.8449045E-01
          2   -1    0    0  501    0  0.00000000000E+00  0.00000000000E+00  0.95904133448E+03  0.95904133448E+03  0.00000000000E+00 0.  1.
         -2   -1    0    0    0  501 -0.00000000000E+00 -0.00000000000E+00 -0.14699833912E+04  0.14699833912E+04  0.00000000000E+00 0. -1.
    2000013    1    1    2    0    0  0.57386377597E+03  0.39181673207E+03 -0.95577131708E+02  0.11808788985E+04  0.95000000000E+03 0.  0.
   -2000013    1    1    2    0    0 -0.57386377597E+03 -0.39181673207E+03 -0.41536492502E+03  0.12481458272E+04  0.95000000000E+03 0.  0.
<mgrwt>
<rscale>  0 0.23746788E+04</rscale>
<asrwt>0</asrwt>
<pdfrwt beam="1">  1        2 0.14754482E+00 0.23746788E+04</pdfrwt>
<pdfrwt beam="2">  1       -2 0.22615129E+00 0.23746788E+04</pdfrwt>
<totfact> 0.21806769E+00</totfact>
</mgrwt>
</event>
<event>
 4    1  0.2058093E-008  0.2198670E+04  0.7816531E-02  0.8518982E-01
         -2   -1    0    0    0  501 -0.00000000000E+00  0.00000000000E+00  0.65286196297E+03  0.65286196297E+03  0.00000000000E+00 0. -1.
          2   -1    0    0  501    0  0.00000000000E+00 -0.00000000000E+00 -0.18511382990E+04  0.18511382990E+04  0.00000000000E+00 0.  1.
    2000013    1    1    2    0    0 -0.24842056683E+03 -0.47403418877E+03 -0.43962885169E+03  0.11756677751E+04  0.95000000000E+03 0.  0.
   -2000013    1    1    2    0    0  0.24842056683E+03  0.47403418877E+03 -0.75864748431E+03  0.13283324868E+04  0.95000000000E+03 0.  0.
<mgrwt>
<rscale>  0 0.21986703E+04</rscale>
<asrwt>0</asrwt>
<pdfrwt beam="2">  1        2 0.28479051E+00 0.21986703E+04</pdfrwt>
<pdfrwt beam="1">  1       -2 0.10044030E+00 0.21986703E+04</pdfrwt>
<totfact> 0.60397864E+00</totfact>
</mgrwt>
</event>
<event>
 4    1  0.2058093E-008  0.2461247E+04  0.7816531E-02  0.8416923E-01
          4   -1    0    0  501    0  0.00000000000E+00  0.00000000000E+00  0.30461365349E+04  0.30461365349E+04  0.00000000000E+00 0.  1.
         -4   -1    0    0    0  501 -0.00000000000E+00 -0.00000000000E+00 -0.49716566697E+03  0.49716566697E+03  0.00000000000E+00 0. -1.
    2000013    1    1    2    0    0 -0.29217261009E+03 -0.72311728099E+03  0.11872588144E+04  0.17089022583E+04  0.95000000000E+03 0.  0.
   -2000013    1    1    2    0    0  0.29217261009E+03  0.72311728099E+03  0.13617120535E+04  0.18343999435E+04  0.95000000000E+03 0.  0.
<mgrwt>
<rscale>  0 0.24612472E+04</rscale>
<asrwt>0</asrwt>
<pdfrwt beam="1">  1        4 0.46863638E+00 0.24612472E+04</pdfrwt>
<pdfrwt beam="2">  1       -4 0.76487028E-01 0.24612472E+04</pdfrwt>
<totfact> 0.58636940E-03</totfact>
</mgrwt>
</event>
<event>
 4    1  0.2058093E-008  0.3588143E+04  0.7816531E-02  0.8093213E-01
         -2   -1    0    0    0  501 -0.00000000000E+00  0.00000000000E+00  0.12543231224E+04  0.12543231224E+04  0.00000000000E+00 0. -1.
          2   -1    0    0  501    0  0.00000000000E+00 -0.00000000000E+00 -0.25660796410E+04  0.25660796410E+04  0.00000000000E+00 0.  1.
    2000013    1    1    2    0    0  0.74251650951E+03  0.10654124063E+04 -0.15008193894E+04  0.22003166140E+04  0.95000000000E+03 0.  0.
   -2000013    1    1    2    0    0 -0.74251650951E+03 -0.10654124063E+04  0.18906287083E+03  0.16200861494E+04  0.95000000000E+03 0.  0.
<mgrwt>
<rscale>  0 0.35881433E+04</rscale>
<asrwt>0</asrwt>
<pdfrwt beam="2">  1        2 0.39478148E+00 0.35881433E+04</pdfrwt>
<pdfrwt beam="1">  1       -2 0.19297279E+00 0.35881433E+04</pdfrwt>
<totfact> 0.38475162E-01</totfact>
</mgrwt>
</event>
<event>
 4    1  0.2058093E-008  0.2121021E+04  0.7816531E-02  0.8552040E-01
         -2   -1    0    0    0  501 -0.00000000000E+00  0.00000000000E+00  0.51526524050E+03  0.51526524050E+03  0.00000000000E+00 0. -1.
          2   -1    0    0  501    0  0.00000000000E+00 -0.00000000000E+00 -0.21827253952E+04  0.21827253952E+04  0.00000000000E+00 0.  1.
    2000013    1    1    2    0    0 -0.44229438325E+03 -0.90271448494E+02 -0.66114082372E+03  0.12423286379E+04  0.95000000000E+03 0.  0.
   -2000013    1    1    2    0    0  0.44229438325E+03  0.90271448494E+02 -0.10063193310E+04  0.14556619978E+04  0.95000000000E+03 0.  0.
<mgrwt>
<rscale>  0 0.21210210E+04</rscale>
<asrwt>0</asrwt>
<pdfrwt beam="2">  1        2 0.33580390E+00 0.21210210E+04</pdfrwt>
<pdfrwt beam="1">  1       -2 0.79271576E-01 0.21210210E+04</pdfrwt>
<totfact> 0.68543254E+00</totfact>
</mgrwt>
</event>
<event>
 4    1  0.2058093E-008  0.2317658E+04  0.7816531E-02  0.8470991E-01
          2   -1    0    0  501    0  0.00000000000E+00  0.00000000000E+00  0.27407888773E+04  0.27407888773E+04  0.00000000000E+00 0.  1.
         -2   -1    0    0    0  501 -0.00000000000E+00 -0.00000000000E+00 -0.48996302615E+03  0.48996302615E+03  0.00000000000E+00 0. -1.
    2000013    1    1    2    0    0 -0.36434487621E+03  0.55020085514E+03  0.10276653148E+04  0.15472763712E+04  0.95000000000E+03 0.  0.
   -2000013    1    1    2    0    0  0.36434487621E+03 -0.55020085514E+03  0.12231605364E+04  0.16834755322E+04  0.95000000000E+03 0.  0.
<mgrwt>
<rscale>  0 0.23176585E+04</rscale>
<asrwt>0</asrwt>
<pdfrwt beam="1">  1        2 0.42165982E+00 0.23176585E+04</pdfrwt>
<pdfrwt beam="2">  1       -2 0.75378929E-01 0.23176585E+04</pdfrwt>
<totfact> 0.35895594E+00</totfact>
</mgrwt>
</event>
<event>
 4    1  0.2058093E-008  0.2468703E+04  0.7816531E-02  0.8414221E-01
          2   -1    0    0  501    0  0.00000000000E+00  0.00000000000E+00  0.77371790358E+03  0.77371790358E+03  0.00000000000E+00 0.  1.
         -2   -1    0    0    0  501 -0.00000000000E+00 -0.00000000000E+00 -0.19692239003E+04  0.19692239003E+04  0.00000000000E+00 0. -1.
    2000013    1    1    2    0    0 -0.77514835041E+03  0.11898523684E+03 -0.51089380150E+03  0.13336134853E+04  0.95000000000E+03 0.  0.
   -2000013    1    1    2    0    0  0.77514835041E+03 -0.11898523684E+03 -0.68461219520E+03  0.14093283186E+04  0.95000000000E+03 0.  0.
<mgrwt>
<rscale>  0 0.24687031E+04</rscale>
<asrwt>0</asrwt>
<pdfrwt beam="1">  1        2 0.11903352E+00 0.24687031E+04</pdfrwt>
<pdfrwt beam="2">  1       -2 0.30295752E+00 0.24687031E+04</pdfrwt>
<totfact> 0.98166054E-01</totfact>
</mgrwt>
</event>
<event>
 4    1  0.2058093E-008  0.2057361E+04  0.7816531E-02  0.8580262E-01
          2   -1    0    0  501    0  0.00000000000E+00  0.00000000000E+00  0.14931283047E+04  0.14931283047E+04  0.00000000000E+00 0.  1.
         -2   -1    0    0    0  501 -0.00000000000E+00 -0.00000000000E+00 -0.70870232095E+03  0.70870232095E+03  0.00000000000E+00 0. -1.
    2000013    1    1    2    0    0 -0.13874111254E+03  0.19225958221E+03  0.54676367657E+02  0.98066423838E+03  0.95000000000E+03 0.  0.
   -2000013    1    1    2    0    0  0.13874111254E+03 -0.19225958221E+03  0.72974961613E+03  0.12211663873E+04  0.95000000000E+03 0.  0.
<mgrwt>
<rscale>  0 0.20573609E+04</rscale>
<asrwt>0</asrwt>
<pdfrwt beam="1">  1        2 0.22971205E+00 0.20573609E+04</pdfrwt>
<pdfrwt beam="2">  1       -2 0.10903113E+00 0.20573609E+04</pdfrwt>
<totfact> 0.79514836E+00</totfact>
</mgrwt>
</event>
<event>
 4    1  0.2058093E-008  0.2444926E+04  0.7816531E-02  0.8422873E-01
          2   -1    0    0  501    0  0.00000000000E+00  0.00000000000E+00  0.28077234123E+04  0.28077234123E+04  0.00000000000E+00 0.  1.
         -2   -1    0    0    0  501 -0.00000000000E+00 -0.00000000000E+00 -0.53225174210E+03  0.53225174210E+03  0.00000000000E+00 0. -1.
    2000013    1    1    2    0    0  0.27019750573E+02  0.43556413712E+03  0.27216262205E+03  0.10802863867E+04  0.95000000000E+03 0.  0.
   -2000013    1    1    2    0    0 -0.27019750573E+02 -0.43556413712E+03  0.20033090482E+04  0.22596887677E+04  0.95000000000E+03 0.  0.
<mgrwt>
<rscale>  0 0.24449259E+04</rscale>
<asrwt>0</asrwt>
<pdfrwt beam="1">  1        2 0.43195744E+00 0.24449259E+04</pdfrwt>
<pdfrwt beam="2">  1       -2 0.81884885E-01 0.24449259E+04</pdfrwt>
<totfact> 0.26881743E+00</totfact>
</mgrwt>
</event>
<event>
 4    1  0.2058093E-008  0.2076375E+04  0.7816531E-02  0.8571722E-01
         -1   -1    0    0    0  501 -0.00000000000E+00  0.00000000000E+00  0.12543694749E+04  0.12543694749E+04  0.00000000000E+00 0.  1.
          1   -1    0    0  501    0  0.00000000000E+00 -0.00000000000E+00 -0.85926276609E+03  0.85926276609E+03  0.00000000000E+00 0. -1.
    2000013    1    1    2    0    0  0.32647622161E+03  0.12136224003E+03 -0.39033607000E+02  0.10125903116E+04  0.95000000000E+03 0.  0.
   -2000013    1    1    2    0    0 -0.32647622161E+03 -0.12136224003E+03  0.43414031582E+03  0.11010419294E+04  0.95000000000E+03 0.  0.
<mgrwt>
<rscale>  0 0.20763747E+04</rscale>
<asrwt>0</asrwt>
<pdfrwt beam="2">  1        1 0.13219427E+00 0.20763747E+04</pdfrwt>
<pdfrwt beam="1">  1       -1 0.19297992E+00 0.20763747E+04</pdfrwt>
<totfact> 0.30525699E+00</totfact>
</mgrwt>
</event>
<event>
 4    1  0.2058093E-008  0.2388485E+04  0.7816531E-02  0.8443827E-01
         -2   -1    0    0    0  501 -0.00000000000E+00  0.00000000000E+00  0.67630216866E+03  0.67630216866E+03  0.00000000000E+00 0. -1.
          2   -1    0    0  501    0  0.00000000000E+00 -0.00000000000E+00 -0.21088437609E+04  0.21088437609E+04  0.00000000000E+00 0.  1.
    2000013    1    1    2    0    0  0.11749064662E+03 -0.68076816478E+03 -0.96762967946E+03  0.15218595674E+04  0.95000000000E+03 0.  0.
   -2000013    1    1    2    0    0 -0.11749064662E+03  0.68076816478E+03 -0.46491191274E+03  0.12632863622E+04  0.95000000000E+03 0.  0.
<mgrwt>
<rscale>  0 0.23884854E+04</rscale>
<asrwt>0</asrwt>
<pdfrwt beam="2">  1        2 0.32443750E+00 0.23884854E+04</pdfrwt>
<pdfrwt beam="1">  1       -2 0.10404649E+00 0.23884854E+04</pdfrwt>
<totfact> 0.39283696E+00</totfact>
</mgrwt>
</event>
<event>
 4    1  0.2058093E-008  0.4131289E+04  0.7816531E-02  0.7978573E-01
         -2   -1    0    0    0  501 -0.00000000000E+00  0.00000000000E+00  0.14449367326E+04  0.14449367326E+04  0.00000000000E+00 0. -1.
          2   -1    0    0  501    0  0.00000000000E+00 -0.00000000000E+00 -0.29529930144E+04  0.29529930144E+04  0.00000000000E+00 0.  1.
    2000013    1    1    2    0    0 -0.12001474123E+04  0.94371186254E+03 -0.18362237299E+04  0.25700512596E+04  0.95000000000E+03 0.  0.
   -2000013    1    1    2    0    0  0.12001474123E+04 -0.94371186254E+03  0.32816744812E+03  0.18278784874E+04  0.95000000000E+03 0.  0.
<mgrwt>
<rscale>  0 0.41312894E+04</rscale>
<asrwt>0</asrwt>
<pdfrwt beam="2">  1        2 0.45430661E+00 0.41312894E+04</pdfrwt>
<pdfrwt beam="1">  1       -2 0.22229796E+00 0.41312894E+04</pdfrwt>
<totfact> 0.13892089E-01</totfact>
</mgrwt>
</event>
<event>
 4    1  0.2058093E-008  0.2736700E+04  0.7816531E-02  0.8323194E-01
         -2   -1    0    0    0  501 -0.00000000000E+00  0.00000000000E+00  0.10252409451E+04  0.10252409451E+04  0.00000000000E+00 0. -1.
          2   -1    0    0  501    0  0.00000000000E+00 -0.00000000000E+00 -0.18262841966E+04  0.18262841966E+04  0.00000000000E+00 0.  1.
    2000013    1    1    2    0    0  0.78531057250E+02  0.46094625613E+03  0.50258745027E+03  0.11720634467E+04  0.95000000000E+03 0.  0.
   -2000013    1    1    2    0    0 -0.78531057250E+02 -0.46094625613E+03 -0.13036307018E+04  0.16794616949E+04  0.95000000000E+03 0.  0.
<mgrwt>
<rscale>  0 0.27366997E+04</rscale>
<asrwt>0</asrwt>
<pdfrwt beam="2">  1        2 0.28096680E+00 0.27366997E+04</pdfrwt>
<pdfrwt beam="1">  1       -2 0.15772938E+00 0.27366997E+04</pdfrwt>
<totfact> 0.19114112E+00</totfact>
</mgrwt>
</event>
<event>
 4    1  0.2058093E-008  0.2189065E+04  0.7816531E-02  0.8522994E-01
          2   -1    0    0  501    0  0.00000000000E+00  0.00000000000E+00  0.12671265009E+04  0.12671265009E+04  0.00000000000E+00 0.  1.
         -2   -1    0    0    0  501 -0.00000000000E+00 -0.00000000000E+00 -0.94544695004E+03  0.94544695004E+03  0.00000000000E+00 0. -1.
    2000013    1    1    2    0    0  0.54348211584E+03  0.10851505567E+02  0.16408677789E+03  0.11067587976E+04  0.95000000000E+03 0.  0.
   -2000013    1    1    2    0    0 -0.54348211584E+03 -0.10851505567E+02  0.15759277297E+03  0.11058146533E+04  0.95000000000E+03 0.  0.
<mgrwt>
<rscale>  0 0.21890645E+04</rscale>
<asrwt>0</asrwt>
<pdfrwt beam="1">  1        2 0.19494254E+00 0.21890645E+04</pdfrwt>
<pdfrwt beam="2">  1       -2 0.14545338E+00 0.21890645E+04</pdfrwt>
<totfact> 0.51389050E+00</totfact>
</mgrwt>
</event>
<event>
 4    1  0.2058093E-008  0.3086955E+04  0.7816531E-02  0.8219327E-01
          2   -1    0    0  501    0  0.00000000000E+00  0.00000000000E+00  0.10068820735E+04  0.10068820735E+04  0.00000000000E+00 0.  1.
         -2   -1    0    0    0  501 -0.00000000000E+00 -0.00000000000E+00 -0.23660396643E+04  0.23660396643E+04  0.00000000000E+00 0. -1.
    2000013    1    1    2    0    0 -0.83046194765E+03 -0.78050506507E+03 -0.21476767354E+03  0.14991598836E+04  0.95000000000E+03 0.  0.
   -2000013    1    1    2    0    0  0.83046194765E+03  0.78050506507E+03 -0.11443899173E+04  0.18737618541E+04  0.95000000000E+03 0.  0.
<mgrwt>
<rscale>  0 0.30869551E+04</rscale>
<asrwt>0</asrwt>
<pdfrwt beam="1">  1        2 0.15490494E+00 0.30869551E+04</pdfrwt>
<pdfrwt beam="2">  1       -2 0.36400610E+00 0.30869551E+04</pdfrwt>
<totfact> 0.26860011E-01</totfact>
</mgrwt>
</event>
<event>
 4    1  0.2058093E-008  0.2531677E+04  0.7816531E-02  0.8391786E-01
          2   -1    0    0  501    0  0.00000000000E+00  0.00000000000E+00  0.13348361192E+04  0.13348361192E+04  0.00000000000E+00 0.  1.
         -2   -1    0    0    0  501 -0.00000000000E+00 -0.00000000000E+00 -0.12004077010E+04  0.12004077010E+04  0.00000000000E+00 0. -1.
    2000013    1    1    2    0    0 -0.33190831122E+03 -0.72471076870E+03  0.32149855134E+03  0.12811050479E+04  0.95000000000E+03 0.  0.
   -2000013    1    1    2    0    0  0.33190831122E+03  0.72471076870E+03 -0.18707013321E+03  0.12541387722E+04  0.95000000000E+03 0.  0.
<mgrwt>
<rscale>  0 0.25316774E+04</rscale>
<asrwt>0</asrwt>
<pdfrwt beam="1">  1        2 0.20535940E+00 0.25316774E+04</pdfrwt>
<pdfrwt beam="2">  1       -2 0.18467811E+00 0.25316774E+04</pdfrwt>
<totfact> 0.23636999E+00</totfact>
</mgrwt>
</event>
<event>
 4    1  0.2058093E-008  0.2502519E+04  0.7816531E-02  0.8402089E-01
          2   -1    0    0  501    0  0.00000000000E+00  0.00000000000E+00  0.20394692009E+04  0.20394692009E+04  0.00000000000E+00 0.  1.
         -2   -1    0    0    0  501 -0.00000000000E+00 -0.00000000000E+00 -0.76767546833E+03  0.76767546833E+03  0.00000000000E+00 0. -1.
    2000013    1    1    2    0    0  0.73541448268E+03  0.31667500989E+03  0.80240050315E+03  0.14790078062E+04  0.95000000000E+03 0.  0.
   -2000013    1    1    2    0    0 -0.73541448268E+03 -0.31667500989E+03  0.46939322942E+03  0.13281368631E+04  0.95000000000E+03 0.  0.
<mgrwt>
<rscale>  0 0.25025191E+04</rscale>
<asrwt>0</asrwt>
<pdfrwt beam="1">  1        2 0.31376449E+00 0.25025191E+04</pdfrwt>
<pdfrwt beam="2">  1       -2 0.11810392E+00 0.25025191E+04</pdfrwt>
<totfact> 0.31284389E+00</totfact>
</mgrwt>
</event>
<event>
 4    1  0.2058093E-008  0.2454807E+04  0.7816531E-02  0.8419265E-01
          2   -1    0    0  501    0  0.00000000000E+00  0.00000000000E+00  0.94883978018E+03  0.94883978018E+03  0.00000000000E+00 0.  1.
         -2   -1    0    0    0  501 -0.00000000000E+00 -0.00000000000E+00 -0.15877485721E+04  0.15877485721E+04  0.00000000000E+00 0. -1.
    2000013    1    1    2    0    0 -0.62830293742E+03 -0.99756064366E+02  0.14185231739E+03  0.11521015292E+04  0.95000000000E+03 0.  0.
   -2000013    1    1    2    0    0  0.62830293742E+03  0.99756064366E+02 -0.78076110928E+03  0.13844868231E+04  0.95000000000E+03 0.  0.
<mgrwt>
<rscale>  0 0.24548067E+04</rscale>
<asrwt>0</asrwt>
<pdfrwt beam="1">  1        2 0.14597535E+00 0.24548067E+04</pdfrwt>
<pdfrwt beam="2">  1       -2 0.24426901E+00 0.24548067E+04</pdfrwt>
<totfact> 0.16969235E+00</totfact>
</mgrwt>
</event>
<event>
 4    1  0.2058093E-008  0.3973143E+04  0.7816531E-02  0.8009987E-01
          2   -1    0    0  501    0  0.00000000000E+00  0.00000000000E+00  0.32906829717E+04  0.32906829717E+04  0.00000000000E+00 0.  1.
         -2   -1    0    0    0  501 -0.00000000000E+00 -0.00000000000E+00 -0.11992847581E+04  0.11992847581E+04  0.00000000000E+00 0. -1.
    2000013    1    1    2    0    0  0.13490430247E+04 -0.65281349596E+03  0.36263182074E+02  0.17747950759E+04  0.95000000000E+03 0.  0.
   -2000013    1    1    2    0    0 -0.13490430247E+04  0.65281349596E+03  0.20551350315E+04  0.27151726539E+04  0.95000000000E+03 0.  0.
<mgrwt>
<rscale>  0 0.39731428E+04</rscale>
<asrwt>0</asrwt>
<pdfrwt beam="1">  1        2 0.50625891E+00 0.39731428E+04</pdfrwt>
<pdfrwt beam="2">  1       -2 0.18450535E+00 0.39731428E+04</pdfrwt>
<totfact> 0.15065325E-01</totfact>
</mgrwt>
</event>
<event>
 4    1  0.2058093E-008  0.2649067E+04  0.7816531E-02  0.8351723E-01
          2   -1    0    0  501    0  0.00000000000E+00  0.00000000000E+00  0.53169433704E+03  0.53169433704E+03  0.00000000000E+00 0.  1.
         -2   -1    0    0    0  501 -0.00000000000E+00 -0.00000000000E+00 -0.32996188592E+04  0.32996188592E+04  0.00000000000E+00 0. -1.
    2000013    1    1    2    0    0  0.69579696148E+03 -0.51411847571E+03 -0.18491129217E+04  0.22517037585E+04  0.95000000000E+03 0.  0.
   -2000013    1    1    2    0    0 -0.69579696148E+03  0.51411847571E+03 -0.91881160039E+03  0.15796094377E+04  0.95000000000E+03 0.  0.
<mgrwt>
<rscale>  0 0.26490668E+04</rscale>
<asrwt>0</asrwt>
<pdfrwt beam="1">  1        2 0.81799128E-01 0.26490668E+04</pdfrwt>
<pdfrwt beam="2">  1       -2 0.50763368E+00 0.26490668E+04</pdfrwt>
<totfact> 0.74395542E-02</totfact>
</mgrwt>
</event>
<event>
 4    1  0.2058093E-008  0.2660876E+04  0.7816531E-02  0.8347812E-01
         -1   -1    0    0    0  501 -0.00000000000E+00  0.00000000000E+00  0.82768482116E+03  0.82768482116E+03  0.00000000000E+00 0. -1.
          1   -1    0    0  501    0  0.00000000000E+00 -0.00000000000E+00 -0.21385736002E+04  0.21385736002E+04  0.00000000000E+00 0.  1.
    2000013    1    1    2    0    0 -0.10280942909E+03  0.92566940076E+03 -0.64267119382E+03  0.14774843084E+04  0.95000000000E+03 0.  0.
   -2000013    1    1    2    0    0  0.10280942909E+03 -0.92566940076E+03 -0.66821758520E+03  0.14887741129E+04  0.95000000000E+03 0.  0.
<mgrwt>
<rscale>  0 0.26608757E+04</rscale>
<asrwt>0</asrwt>
<pdfrwt beam="2">  1        1 0.32901132E+00 0.26608757E+04</pdfrwt>
<pdfrwt beam="1">  1       -1 0.12733613E+00 0.26608757E+04</pdfrwt>
<totfact> 0.11227206E+00</totfact>
</mgrwt>
</event>
<event>
 4    1  0.2058093E-008  0.2036599E+04  0.7816531E-02  0.8589698E-01
          2   -1    0    0  501    0  0.00000000000E+00  0.00000000000E+00  0.16976594651E+04  0.16976594651E+04  0.00000000000E+00 0.  1.
         -2   -1    0    0    0  501 -0.00000000000E+00 -0.00000000000E+00 -0.61080189023E+03  0.61080189023E+03  0.00000000000E+00 0. -1.
    2000013    1    1    2    0    0 -0.20533510312E+03 -0.22547275028E+03  0.77415189080E+03  0.12628585098E+04  0.95000000000E+03 0.  0.
   -2000013    1    1    2    0    0  0.20533510312E+03  0.22547275028E+03  0.31270568402E+03  0.10456028455E+04  0.95000000000E+03 0.  0.
<mgrwt>
<rscale>  0 0.20365987E+04</rscale>
<asrwt>0</asrwt>
<pdfrwt beam="1">  1        2 0.26117838E+00 0.20365987E+04</pdfrwt>
<pdfrwt beam="2">  1       -2 0.93969522E-01 0.20365987E+04</pdfrwt>
<totfact> 0.87113175E+00</totfact>
</mgrwt>
</event>
<event>
 4    1  0.2058093E-008  0.2413345E+04  0.7816531E-02  0.8434524E-01
         -2   -1    0    0    0  501 -0.00000000000E+00  0.00000000000E+00  0.76990101079E+03  0.76990101079E+03  0.00000000000E+00 0. -1.
          2   -1    0    0  501    0  0.00000000000E+00 -0.00000000000E+00 -0.18912281370E+04  0.18912281370E+04  0.00000000000E+00 0.  1.
    2000013    1    1    2    0    0  0.37378044009E+02  0.71301267349E+03 -0.79136801511E+03  0.14277771276E+04  0.95000000000E+03 0.  0.
   -2000013    1    1    2    0    0 -0.37378044009E+02 -0.71301267349E+03 -0.32995911110E+03  0.12333520202E+04  0.95000000000E+03 0.  0.
<mgrwt>
<rscale>  0 0.24133449E+04</rscale>
<asrwt>0</asrwt>
<pdfrwt beam="2">  1        2 0.29095817E+00 0.24133449E+04</pdfrwt>
<pdfrwt beam="1">  1       -2 0.11844631E+00 0.24133449E+04</pdfrwt>
<totfact> 0.37833731E+00</totfact>
</mgrwt>
</event>
<event>
 4    1  0.2058093E-008  0.2452002E+04  0.7816531E-02  0.8420287E-01
          1   -1    0    0  501    0  0.00000000000E+00  0.00000000000E+00  0.17210169418E+04  0.17210169418E+04  0.00000000000E+00 0.  1.
         -1   -1    0    0    0  501 -0.00000000000E+00 -0.00000000000E+00 -0.87336671822E+03  0.87336671822E+03  0.00000000000E+00 0. -1.
    2000013    1    1    2    0    0  0.67610297707E+02 -0.47003492624E+03 -0.22417090129E+03  0.10854752771E+04  0.95000000000E+03 0.  0.
   -2000013    1    1    2    0    0 -0.67610297707E+02  0.47003492624E+03  0.10718211249E+04  0.15089083829E+04  0.95000000000E+03 0.  0.
<mgrwt>
<rscale>  0 0.24520024E+04</rscale>
<asrwt>0</asrwt>
<pdfrwt beam="1">  1        1 0.26477184E+00 0.24520024E+04</pdfrwt>
<pdfrwt beam="2">  1       -1 0.13436411E+00 0.24520024E+04</pdfrwt>
<totfact> 0.19179086E+00</totfact>
</mgrwt>
</event>
<event>
 4    1  0.2058093E-008  0.2352814E+04  0.7816531E-02  0.8457384E-01
          2   -1    0    0  501    0  0.00000000000E+00  0.00000000000E+00  0.24978984492E+04  0.24978984492E+04  0.00000000000E+00 0.  1.
         -2   -1    0    0    0  501 -0.00000000000E+00 -0.00000000000E+00 -0.55403916519E+03  0.55403916519E+03  0.00000000000E+00 0. -1.
    2000013    1    1    2    0    0  0.51932342039E+03 -0.19517383353E+01  0.15688030840E+04  0.19061331907E+04  0.95000000000E+03 0.  0.
   -2000013    1    1    2    0    0 -0.51932342039E+03  0.19517383353E+01  0.37505620002E+03  0.11458044237E+04  0.95000000000E+03 0.  0.
<mgrwt>
<rscale>  0 0.23528141E+04</rscale>
<asrwt>0</asrwt>
<pdfrwt beam="1">  1        2 0.38429206E+00 0.23528141E+04</pdfrwt>
<pdfrwt beam="2">  1       -2 0.85236796E-01 0.23528141E+04</pdfrwt>
<totfact> 0.37727096E+00</totfact>
</mgrwt>
</event>
<event>
 4    1  0.2058093E-008  0.3271801E+04  0.7816531E-02  0.8170108E-01
         -2   -1    0    0    0  501 -0.00000000000E+00  0.00000000000E+00  0.19689660263E+04  0.19689660263E+04  0.00000000000E+00 0. -1.
          2   -1    0    0  501    0  0.00000000000E+00 -0.00000000000E+00 -0.13591759411E+04  0.13591759411E+04  0.00000000000E+00 0.  1.
    2000013    1    1    2    0    0 -0.17702612970E+02  0.13309082006E+04  0.35085302627E+03  0.16724915148E+04  0.95000000000E+03 0.  0.
   -2000013    1    1    2    0    0  0.17702612970E+02 -0.13309082006E+04  0.25893705893E+03  0.16556504527E+04  0.95000000000E+03 0.  0.
<mgrwt>
<rscale>  0 0.32718015E+04</rscale>
<asrwt>0</asrwt>
<pdfrwt beam="2">  1        2 0.20910399E+00 0.32718015E+04</pdfrwt>
<pdfrwt beam="1">  1       -2 0.30291785E+00 0.32718015E+04</pdfrwt>
<totfact> 0.38996498E-01</totfact>
</mgrwt>
</event>
<event>
 4    1  0.2058093E-008  0.2395748E+04  0.7816531E-02  0.8441097E-01
         -2   -1    0    0    0  501 -0.00000000000E+00  0.00000000000E+00  0.55950251043E+03  0.55950251043E+03  0.00000000000E+00 0. -1.
          2   -1    0    0  501    0  0.00000000000E+00 -0.00000000000E+00 -0.25646035775E+04  0.25646035775E+04  0.00000000000E+00 0.  1.
    2000013    1    1    2    0    0 -0.33656340562E+03 -0.53187853792E+03 -0.14838605449E+04  0.18709654785E+04  0.95000000000E+03 0.  0.
   -2000013    1    1    2    0    0  0.33656340562E+03  0.53187853792E+03 -0.52124052223E+03  0.12531406095E+04  0.95000000000E+03 0.  0.
<mgrwt>
<rscale>  0 0.23957480E+04</rscale>
<asrwt>0</asrwt>
<pdfrwt beam="2">  1        2 0.39455440E+00 0.23957480E+04</pdfrwt>
<pdfrwt beam="1">  1       -2 0.86077309E-01 0.23957480E+04</pdfrwt>
<totfact> 0.33615960E+00</totfact>
</mgrwt>
</event>
<event>
 4    1  0.2058093E-008  0.2427812E+04  0.7816531E-02  0.8429164E-01
         -2   -1    0    0    0  501 -0.00000000000E+00  0.00000000000E+00  0.69013608595E+03  0.69013608595E+03  0.00000000000E+00 0. -1.
          2   -1    0    0  501    0  0.00000000000E+00 -0.00000000000E+00 -0.21351840685E+04  0.21351840685E+04  0.00000000000E+00 0.  1.
    2000013    1    1    2    0    0  0.53907160855E+03  0.41909460467E+03 -0.10993089430E+04  0.16053718071E+04  0.95000000000E+03 0.  0.
   -2000013    1    1    2    0    0 -0.53907160855E+03 -0.41909460467E+03 -0.34573903959E+03  0.12199483474E+04  0.95000000000E+03 0.  0.
<mgrwt>
<rscale>  0 0.24278118E+04</rscale>
<asrwt>0</asrwt>
<pdfrwt beam="2">  1        2 0.32848985E+00 0.24278118E+04</pdfrwt>
<pdfrwt beam="1">  1       -2 0.10617478E+00 0.24278118E+04</pdfrwt>
<totfact> 0.36051831E+00</totfact>
</mgrwt>
</event>
<event>
 4    1  0.2058093E-008  0.2167928E+04  0.7816531E-02  0.8531897E-01
          2   -1    0    0  501    0  0.00000000000E+00  0.00000000000E+00  0.17908659030E+04  0.17908659030E+04  0.00000000000E+00 0.  1.
         -2   -1    0    0    0  501 -0.00000000000E+00 -0.00000000000E+00 -0.65609511218E+03  0.65609511218E+03  0.00000000000E+00 0. -1.
    2000013    1    1    2    0    0  0.63994143232E+02  0.51803211405E+03  0.56164738144E+03  0.12208195209E+04  0.95000000000E+03 0.  0.
   -2000013    1    1    2    0    0 -0.63994143232E+02 -0.51803211405E+03  0.57312340937E+03  0.12261414943E+04  0.95000000000E+03 0.  0.
<mgrwt>
<rscale>  0 0.21679284E+04</rscale>
<asrwt>0</asrwt>
<pdfrwt beam="1">  1        2 0.27551783E+00 0.21679284E+04</pdfrwt>
<pdfrwt beam="2">  1       -2 0.10093771E+00 0.21679284E+04</pdfrwt>
<totfact> 0.64636399E+00</totfact>
</mgrwt>
</event>
<event>
 4    1  0.2058093E-008  0.2603536E+04  0.7816531E-02  0.8367001E-01
          1   -1    0    0  501    0  0.00000000000E+00  0.00000000000E+00  0.17786777244E+04  0.17786777244E+04  0.00000000000E+00 0.  1.
         -1   -1    0    0    0  501 -0.00000000000E+00 -0.00000000000E+00 -0.95272982626E+03  0.95272982626E+03  0.00000000000E+00 0. -1.
    2000013    1    1    2    0    0  0.23612850103E+03 -0.67800513696E+03 -0.13883616416E+03  0.11988424063E+04  0.95000000000E+03 0.  0.
   -2000013    1    1    2    0    0 -0.23612850103E+03  0.67800513696E+03  0.96478406229E+03  0.15325651443E+04  0.95000000000E+03 0.  0.
<mgrwt>
<rscale>  0 0.26035355E+04</rscale>
<asrwt>0</asrwt>
<pdfrwt beam="1">  1        1 0.27364273E+00 0.26035355E+04</pdfrwt>
<pdfrwt beam="2">  1       -1 0.14657382E+00 0.26035355E+04</pdfrwt>
<totfact> 0.13768415E+00</totfact>
</mgrwt>
</event>
<event>
 4    1  0.2058093E-008  0.2284981E+04  0.7816531E-02  0.8483866E-01
          2   -1    0    0  501    0  0.00000000000E+00  0.00000000000E+00  0.16487559580E+04  0.16487559580E+04  0.00000000000E+00 0.  1.
         -2   -1    0    0    0  501 -0.00000000000E+00 -0.00000000000E+00 -0.79167859183E+03  0.79167859183E+03  0.00000000000E+00 0. -1.
    2000013    1    1    2    0    0  0.60385177446E+02  0.33853365059E+03 -0.14116778589E+03  0.10201371212E+04  0.95000000000E+03 0.  0.
   -2000013    1    1    2    0    0 -0.60385177446E+02 -0.33853365059E+03  0.99824515210E+03  0.14202974287E+04  0.95000000000E+03 0.  0.
<mgrwt>
<rscale>  0 0.22849812E+04</rscale>
<asrwt>0</asrwt>
<pdfrwt beam="1">  1        2 0.25365476E+00 0.22849812E+04</pdfrwt>
<pdfrwt beam="2">  1       -2 0.12179671E+00 0.22849812E+04</pdfrwt>
<totfact> 0.48653727E+00</totfact>
</mgrwt>
</event>
<event>
 4    1  0.2058093E-008  0.2816661E+04  0.7816531E-02  0.8298114E-01
          2   -1    0    0  501    0  0.00000000000E+00  0.00000000000E+00  0.31206074696E+04  0.31206074696E+04  0.00000000000E+00 0.  1.
         -2   -1    0    0    0  501 -0.00000000000E+00 -0.00000000000E+00 -0.63557982646E+03  0.63557982646E+03  0.00000000000E+00 0. -1.
    2000013    1    1    2    0    0  0.87742795811E+03 -0.55133268384E+03  0.13544662108E+04  0.19521593854E+04  0.95000000000E+03 0.  0.
   -2000013    1    1    2    0    0 -0.87742795811E+03  0.55133268384E+03  0.11305614323E+04  0.18040279106E+04  0.95000000000E+03 0.  0.
<mgrwt>
<rscale>  0 0.28166613E+04</rscale>
<asrwt>0</asrwt>
<pdfrwt beam="1">  1        2 0.48009345E+00 0.28166613E+04</pdfrwt>
<pdfrwt beam="2">  1       -2 0.97781513E-01 0.28166613E+04</pdfrwt>
<totfact> 0.11043461E+00</totfact>
</mgrwt>
</event>
<event>
 4    1  0.2058093E-008  0.2423919E+04  0.7816531E-02  0.8430603E-01
          2   -1    0    0  501    0  0.00000000000E+00  0.00000000000E+00  0.12358901455E+04  0.12358901455E+04  0.00000000000E+00 0.  1.
         -2   -1    0    0    0  501 -0.00000000000E+00 -0.00000000000E+00 -0.11884921538E+04  0.11884921538E+04  0.00000000000E+00 0. -1.
    2000013    1    1    2    0    0 -0.65369198035E+02  0.74790857968E+03  0.75722064338E+02  0.12132082289E+04  0.95000000000E+03 0.  0.
   -2000013    1    1    2    0    0  0.65369198035E+02 -0.74790857968E+03 -0.28324072683E+02  0.12111740704E+04  0.95000000000E+03 0.  0.
<mgrwt>
<rscale>  0 0.24239189E+04</rscale>
<asrwt>0</asrwt>
<pdfrwt beam="1">  1        2 0.19013695E+00 0.24239189E+04</pdfrwt>
<pdfrwt beam="2">  1       -2 0.18284495E+00 0.24239189E+04</pdfrwt>
<totfact> 0.28049558E+00</totfact>
</mgrwt>
</event>
<event>
 4    1  0.2058093E-008  0.2105222E+04  0.7816531E-02  0.8558946E-01
         -2   -1    0    0    0  501 -0.00000000000E+00  0.00000000000E+00  0.68341263158E+03  0.68341263158E+03  0.00000000000E+00 0. -1.
          2   -1    0    0  501    0  0.00000000000E+00 -0.00000000000E+00 -0.16212607260E+04  0.16212607260E+04  0.00000000000E+00 0.  1.
    2000013    1    1    2    0    0  0.28473972114E+03 -0.39696621965E+01 -0.82808365095E+02  0.99521339035E+03  0.95000000000E+03 0.  0.
   -2000013    1    1    2    0    0 -0.28473972114E+03  0.39696621965E+01 -0.85503972927E+03  0.13094599672E+04  0.95000000000E+03 0.  0.
<mgrwt>
<rscale>  0 0.21052221E+04</rscale>
<asrwt>0</asrwt>
<pdfrwt beam="2">  1        2 0.24942473E+00 0.21052221E+04</pdfrwt>
<pdfrwt beam="1">  1       -2 0.10514041E+00 0.21052221E+04</pdfrwt>
<totfact> 0.73243389E+00</totfact>
</mgrwt>
</event>
<event>
 4    1  0.2058093E-008  0.2194569E+04  0.7816531E-02  0.8520692E-01
         -2   -1    0    0    0  501 -0.00000000000E+00  0.00000000000E+00  0.94298975487E+03  0.94298975487E+03  0.00000000000E+00 0. -1.
          2   -1    0    0  501    0  0.00000000000E+00 -0.00000000000E+00 -0.12768248281E+04  0.12768248281E+04  0.00000000000E+00 0.  1.
    2000013    1    1    2    0    0  0.37917247930E+03  0.36642458543E+03 -0.32195830376E+03  0.11332236740E+04  0.95000000000E+03 0.  0.
   -2000013    1    1    2    0    0 -0.37917247930E+03 -0.36642458543E+03 -0.11876769458E+02  0.10865909090E+04  0.95000000000E+03 0.  0.
<mgrwt>
<rscale>  0 0.21945685E+04</rscale>
<asrwt>0</asrwt>
<pdfrwt beam="2">  1        2 0.19643459E+00 0.21945685E+04</pdfrwt>
<pdfrwt beam="1">  1       -2 0.14507535E+00 0.21945685E+04</pdfrwt>
<totfact> 0.51044535E+00</totfact>
</mgrwt>
</event>
<event>
 4    1  0.2058093E-008  0.3874441E+04  0.7816531E-02  0.8030366E-01
          2   -1    0    0  501    0  0.00000000000E+00  0.00000000000E+00  0.29191673481E+04  0.29191673481E+04  0.00000000000E+00 0.  1.
         -2   -1    0    0    0  501 -0.00000000000E+00 -0.00000000000E+00 -0.12855797137E+04  0.12855797137E+04  0.00000000000E+00 0. -1.
    2000013    1    1    2    0    0  0.15223745961E+04 -0.32743555898E+03  0.15246946570E+04  0.23774003141E+04  0.95000000000E+03 0.  0.
   -2000013    1    1    2    0    0 -0.15223745961E+04  0.32743555898E+03  0.10889297738E+03  0.18273467478E+04  0.95000000000E+03 0.  0.
<mgrwt>
<rscale>  0 0.38744405E+04</rscale>
<asrwt>0</asrwt>
<pdfrwt beam="1">  1        2 0.44910267E+00 0.38744405E+04</pdfrwt>
<pdfrwt beam="2">  1       -2 0.19778150E+00 0.38744405E+04</pdfrwt>
<totfact> 0.21421511E-01</totfact>
</mgrwt>
</event>
<event>
 4    1  0.2058093E-008  0.2156100E+04  0.7816531E-02  0.8536926E-01
          2   -1    0    0  501    0  0.00000000000E+00  0.00000000000E+00  0.10737959892E+04  0.10737959892E+04  0.00000000000E+00 0.  1.
         -2   -1    0    0    0  501 -0.00000000000E+00 -0.00000000000E+00 -0.10823210544E+04  0.10823210544E+04  0.00000000000E+00 0. -1.
    2000013    1    1    2    0    0 -0.70432703376E+02  0.49972183629E+03 -0.75039690973E+02  0.10783383674E+04  0.95000000000E+03 0.  0.
   -2000013    1    1    2    0    0  0.70432703376E+02 -0.49972183629E+03  0.66514625743E+02  0.10777786762E+04  0.95000000000E+03 0.  0.
<mgrwt>
<rscale>  0 0.21561002E+04</rscale>
<asrwt>0</asrwt>
<pdfrwt beam="1">  1        2 0.16519938E+00 0.21561002E+04</pdfrwt>
<pdfrwt beam="2">  1       -2 0.16651093E+00 0.21561002E+04</pdfrwt>
<totfact> 0.46838235E+00</totfact>
</mgrwt>
</event>
<event>
 4    1  0.2058093E-008  0.3199680E+04  0.7816531E-02  0.8188902E-01
         -2   -1    0    0    0  501 -0.00000000000E+00  0.00000000000E+00  0.96811910588E+03  0.96811910588E+03  0.00000000000E+00 0. -1.
          2   -1    0    0  501    0  0.00000000000E+00 -0.00000000000E+00 -0.26437739043E+04  0.26437739043E+04  0.00000000000E+00 0.  1.
    2000013    1    1    2    0    0 -0.60025334771E+03 -0.63102824570E+03  0.23217389218E+03  0.13095439834E+04  0.95000000000E+03 0.  0.
   -2000013    1    1    2    0    0  0.60025334771E+03  0.63102824570E+03 -0.19078286906E+04  0.23023490268E+04  0.95000000000E+03 0.  0.
<mgrwt>
<rscale>  0 0.31996800E+04</rscale>
<asrwt>0</asrwt>
<pdfrwt beam="2">  1        2 0.40673444E+00 0.31996800E+04</pdfrwt>
<pdfrwt beam="1">  1       -2 0.14894140E+00 0.31996800E+04</pdfrwt>
<totfact> 0.73700063E-01</totfact>
</mgrwt>
</event>
<event>
 4    1  0.2058093E-008  0.2321880E+04  0.7816531E-02  0.8469344E-01
         -2   -1    0    0    0  501 -0.00000000000E+00  0.00000000000E+00  0.41356581779E+03  0.41356581779E+03  0.00000000000E+00 0. -1.
          2   -1    0    0  501    0  0.00000000000E+00 -0.00000000000E+00 -0.32589285097E+04  0.32589285097E+04  0.00000000000E+00 0.  1.
    2000013    1    1    2    0    0 -0.34728068386E+03 -0.12784987010E+03 -0.54440601763E+03  0.11557799854E+04  0.95000000000E+03 0.  0.
   -2000013    1    1    2    0    0  0.34728068386E+03  0.12784987010E+03 -0.23009566743E+04  0.25167143421E+04  0.95000000000E+03 0.  0.
<mgrwt>
<rscale>  0 0.23218798E+04</rscale>
<asrwt>0</asrwt>
<pdfrwt beam="2">  1        2 0.50137364E+00 0.23218798E+04</pdfrwt>
<pdfrwt beam="1">  1       -2 0.63625508E-01 0.23218798E+04</pdfrwt>
<totfact> 0.24572595E+00</totfact>
</mgrwt>
</event>
<event>
 4    1  0.2058093E-008  0.4216018E+04  0.7816531E-02  0.7962332E-01
          2   -1    0    0  501    0  0.00000000000E+00  0.00000000000E+00  0.19816566681E+04  0.19816566681E+04  0.00000000000E+00 0.  1.
         -2   -1    0    0    0  501 -0.00000000000E+00 -0.00000000000E+00 -0.22424179116E+04  0.22424179116E+04  0.00000000000E+00 0. -1.
    2000013    1    1    2    0    0 -0.63558419893E+03  0.14336775621E+04  0.91170486139E+03  0.20477071032E+04  0.95000000000E+03 0.  0.
   -2000013    1    1    2    0    0  0.63558419893E+03 -0.14336775621E+04 -0.11724661049E+04  0.21763674766E+04  0.95000000000E+03 0.  0.
<mgrwt>
<rscale>  0 0.42160182E+04</rscale>
<asrwt>0</asrwt>
<pdfrwt beam="1">  1        2 0.30487026E+00 0.42160182E+04</pdfrwt>
<pdfrwt beam="2">  1       -2 0.34498737E+00 0.42160182E+04</pdfrwt>
<totfact> 0.88711236E-02</totfact>
</mgrwt>
</event>
<event>
 4    1  0.2058093E-008  0.2491610E+04  0.7816531E-02  0.8405981E-01
          2   -1    0    0  501    0  0.00000000000E+00  0.00000000000E+00  0.30826092668E+04  0.30826092668E+04  0.00000000000E+00 0.  1.
         -2   -1    0    0    0  501 -0.00000000000E+00 -0.00000000000E+00 -0.50347938720E+03  0.50347938720E+03  0.00000000000E+00 0. -1.
    2000013    1    1    2    0    0 -0.28468091687E+03  0.22327540801E+03  0.25305877752E+03  0.10475847828E+04  0.95000000000E+03 0.  0.
   -2000013    1    1    2    0    0  0.28468091687E+03 -0.22327540801E+03  0.23260711021E+04  0.25385038712E+04  0.95000000000E+03 0.  0.
<mgrwt>
<rscale>  0 0.24916101E+04</rscale>
<asrwt>0</asrwt>
<pdfrwt beam="1">  1        2 0.47424757E+00 0.24916101E+04</pdfrwt>
<pdfrwt beam="2">  1       -2 0.77458369E-01 0.24916101E+04</pdfrwt>
<totfact> 0.20483235E+00</totfact>
</mgrwt>
</event>
<event>
 4    1  0.2058093E-008  0.2897727E+04  0.7816531E-02  0.8273554E-01
          2   -1    0    0  501    0  0.00000000000E+00  0.00000000000E+00  0.29583244331E+04  0.29583244331E+04  0.00000000000E+00 0.  1.
         -2   -1    0    0    0  501 -0.00000000000E+00 -0.00000000000E+00 -0.70959281210E+03  0.70959281210E+03  0.00000000000E+00 0. -1.
    2000013    1    1    2    0    0 -0.20440139385E+01 -0.10795369139E+04  0.90041868817E+03  0.16966608207E+04  0.95000000000E+03 0.  0.
   -2000013    1    1    2    0    0  0.20440139385E+01  0.10795369139E+04  0.13483129328E+04  0.19712564245E+04  0.95000000000E+03 0.  0.
<mgrwt>
<rscale>  0 0.28977272E+04</rscale>
<asrwt>0</asrwt>
<pdfrwt beam="1">  1        2 0.45512683E+00 0.28977272E+04</pdfrwt>
<pdfrwt beam="2">  1       -2 0.10916813E+00 0.28977272E+04</pdfrwt>
<totfact> 0.10674481E+00</totfact>
</mgrwt>
</event>
<event>
 4    1  0.2058093E-008  0.2143953E+04  0.7816531E-02  0.8542125E-01
          2   -1    0    0  501    0  0.00000000000E+00  0.00000000000E+00  0.22095734695E+04  0.22095734695E+04  0.00000000000E+00 0.  1.
         -2   -1    0    0    0  501 -0.00000000000E+00 -0.00000000000E+00 -0.52007024989E+03  0.52007024989E+03  0.00000000000E+00 0. -1.
    2000013    1    1    2    0    0 -0.31941740316E+03  0.34854140266E+03  0.65114057535E+03  0.12449870022E+04  0.95000000000E+03 0.  0.
   -2000013    1    1    2    0    0  0.31941740316E+03 -0.34854140266E+03  0.10383626442E+04  0.14846567171E+04  0.95000000000E+03 0.  0.
<mgrwt>
<rscale>  0 0.21439528E+04</rscale>
<asrwt>0</asrwt>
<pdfrwt beam="1">  1        2 0.33993437E+00 0.21439528E+04</pdfrwt>
<pdfrwt beam="2">  1       -2 0.80010809E-01 0.21439528E+04</pdfrwt>
<totfact> 0.64710282E+00</totfact>
</mgrwt>
</event>
<event>
 4    1  0.2058093E-008  0.2076484E+04  0.7816531E-02  0.8571674E-01
          2   -1    0    0  501    0  0.00000000000E+00  0.00000000000E+00  0.50646887590E+03  0.50646887590E+03  0.00000000000E+00 0.  1.
         -2   -1    0    0    0  501 -0.00000000000E+00 -0.00000000000E+00 -0.21283570583E+04  0.21283570583E+04  0.00000000000E+00 0. -1.
    2000013    1    1    2    0    0 -0.23279963804E+03 -0.34774122432E+03 -0.78799944189E+03  0.13032892047E+04  0.95000000000E+03 0.  0.
   -2000013    1    1    2    0    0  0.23279963804E+03  0.34774122432E+03 -0.83388874050E+03  0.13315367295E+04  0.95000000000E+03 0.  0.
<mgrwt>
<rscale>  0 0.20764842E+04</rscale>
<asrwt>0</asrwt>
<pdfrwt beam="1">  1        2 0.77918286E-01 0.20764842E+04</pdfrwt>
<pdfrwt beam="2">  1       -2 0.32743956E+00 0.20764842E+04</pdfrwt>
<totfact> 0.12079220E+00</totfact>
</mgrwt>
</event>
<event>
 4    1  0.2058093E-008  0.2395707E+04  0.7816531E-02  0.8441113E-01
         -2   -1    0    0    0  501 -0.00000000000E+00  0.00000000000E+00  0.67329273061E+03  0.67329273061E+03  0.00000000000E+00 0. -1.
          2   -1    0    0  501    0  0.00000000000E+00 -0.00000000000E+00 -0.21310981767E+04  0.21310981767E+04  0.00000000000E+00 0.  1.
    2000013    1    1    2    0    0  0.21087442231E+02 -0.26511353291E+03  0.66429546747E+02  0.98875818592E+03  0.95000000000E+03 0.  0.
   -2000013    1    1    2    0    0 -0.21087442231E+02  0.26511353291E+03 -0.15242349928E+04  0.18156327214E+04  0.95000000000E+03 0.  0.
<mgrwt>
<rscale>  0 0.23957069E+04</rscale>
<asrwt>0</asrwt>
<pdfrwt beam="2">  1        2 0.32786125E+00 0.23957069E+04</pdfrwt>
<pdfrwt beam="1">  1       -2 0.10358350E+00 0.23957069E+04</pdfrwt>
<totfact> 0.38559806E+00</totfact>
</mgrwt>
</event>
<event>
 4    1  0.2058093E-008  0.2587991E+04  0.7816531E-02  0.8372292E-01
         -2   -1    0    0    0  501 -0.00000000000E+00  0.00000000000E+00  0.81834069220E+03  0.81834069220E+03  0.00000000000E+00 0. -1.
          2   -1    0    0  501    0  0.00000000000E+00 -0.00000000000E+00 -0.20461206146E+04  0.20461206146E+04  0.00000000000E+00 0.  1.
    2000013    1    1    2    0    0  0.73181631034E+03  0.28905025436E+03 -0.10465715160E+04  0.16176888143E+04  0.95000000000E+03 0.  0.
   -2000013    1    1    2    0    0 -0.73181631034E+03 -0.28905025436E+03 -0.18120840638E+03  0.12467724925E+04  0.95000000000E+03 0.  0.
<mgrwt>
<rscale>  0 0.25879905E+04</rscale>
<asrwt>0</asrwt>
<pdfrwt beam="2">  1        2 0.31478778E+00 0.25879905E+04</pdfrwt>
<pdfrwt beam="1">  1       -2 0.12589857E+00 0.25879905E+04</pdfrwt>
<totfact> 0.26258376E+00</totfact>
</mgrwt>
</event>
<event>
 4    1  0.2058093E-008  0.3071112E+04  0.7816531E-02  0.8223711E-01
         -2   -1    0    0    0  501 -0.00000000000E+00  0.00000000000E+00  0.12866596021E+04  0.12866596021E+04  0.00000000000E+00 0. -1.
          2   -1    0    0  501    0  0.00000000000E+00 -0.00000000000E+00 -0.18325996478E+04  0.18325996478E+04  0.00000000000E+00 0.  1.
    2000013    1    1    2    0    0  0.10584419169E+04  0.42952502745E+03 -0.66717970308E+03  0.16286251247E+04  0.95000000000E+03 0.  0.
   -2000013    1    1    2    0    0 -0.10584419169E+04 -0.42952502745E+03  0.12123965737E+03  0.14906341252E+04  0.95000000000E+03 0.  0.
<mgrwt>
<rscale>  0 0.30711118E+04</rscale>
<asrwt>0</asrwt>
<pdfrwt beam="2">  1        2 0.28193841E+00 0.30711118E+04</pdfrwt>
<pdfrwt beam="1">  1       -2 0.19794763E+00 0.30711118E+04</pdfrwt>
<totfact> 0.96653798E-01</totfact>
</mgrwt>
</event>
<event>
 4    1  0.2058093E-008  0.2632891E+04  0.7816531E-02  0.8357114E-01
         -2   -1    0    0    0  501 -0.00000000000E+00  0.00000000000E+00  0.44841821295E+03  0.44841821295E+03  0.00000000000E+00 0. -1.
          2   -1    0    0  501    0  0.00000000000E+00 -0.00000000000E+00 -0.38647593713E+04  0.38647593713E+04  0.00000000000E+00 0.  1.
    2000013    1    1    2    0    0 -0.59076061715E+03  0.67219422561E+03 -0.19904214334E+04  0.23801513957E+04  0.95000000000E+03 0.  0.
   -2000013    1    1    2    0    0  0.59076061715E+03 -0.67219422561E+03 -0.14259197249E+04  0.19330261885E+04  0.95000000000E+03 0.  0.
<mgrwt>
<rscale>  0 0.26328908E+04</rscale>
<asrwt>0</asrwt>
<pdfrwt beam="2">  1        2 0.59457838E+00 0.26328908E+04</pdfrwt>
<pdfrwt beam="1">  1       -2 0.68987415E-01 0.26328908E+04</pdfrwt>
<totfact> 0.74255799E-01</totfact>
</mgrwt>
</event>
<event>
 4    1  0.2058093E-008  0.2588404E+04  0.7816531E-02  0.8372151E-01
         -2   -1    0    0    0  501 -0.00000000000E+00  0.00000000000E+00  0.77975054998E+03  0.77975054998E+03  0.00000000000E+00 0. -1.
          2   -1    0    0  501    0  0.00000000000E+00 -0.00000000000E+00 -0.21480694453E+04  0.21480694453E+04  0.00000000000E+00 0.  1.
    2000013    1    1    2    0    0 -0.70141968068E+02 -0.56439327893E+03 -0.14420995685E+04  0.18181338880E+04  0.95000000000E+03 0.  0.
   -2000013    1    1    2    0    0  0.70141968068E+02  0.56439327893E+03  0.73780673229E+02  0.11096861073E+04  0.95000000000E+03 0.  0.
<mgrwt>
<rscale>  0 0.25884036E+04</rscale>
<asrwt>0</asrwt>
<pdfrwt beam="2">  1        2 0.33047222E+00 0.25884036E+04</pdfrwt>
<pdfrwt beam="1">  1       -2 0.11996162E+00 0.25884036E+04</pdfrwt>
<totfact> 0.25984136E+00</totfact>
</mgrwt>
</event>
<event>
 4    1  0.2058093E-008  0.2115539E+04  0.7816531E-02  0.8554429E-01
         -2   -1    0    0    0  501 -0.00000000000E+00  0.00000000000E+00  0.64192642323E+03  0.64192642323E+03  0.00000000000E+00 0. -1.
          2   -1    0    0  501    0  0.00000000000E+00 -0.00000000000E+00 -0.17429981044E+04  0.17429981044E+04  0.00000000000E+00 0.  1.
    2000013    1    1    2    0    0  0.75643998907E+02  0.43825285773E+03 -0.70423839036E+03  0.12634236393E+04  0.95000000000E+03 0.  0.
   -2000013    1    1    2    0    0 -0.75643998907E+02 -0.43825285773E+03 -0.39683329084E+03  0.11215008884E+04  0.95000000000E+03 0.  0.
<mgrwt>
<rscale>  0 0.21155392E+04</rscale>
<asrwt>0</asrwt>
<pdfrwt beam="2">  1        2 0.26815356E+00 0.21155392E+04</pdfrwt>
<pdfrwt beam="1">  1       -2 0.98757910E-01 0.21155392E+04</pdfrwt>
<totfact> 0.72680384E+00</totfact>
</mgrwt>
</event>
<event>
 4    1  0.2058093E-008  0.2334011E+04  0.7816531E-02  0.8464630E-01
          1   -1    0    0  501    0  0.00000000000E+00  0.00000000000E+00  0.40475265943E+04  0.40475265943E+04  0.00000000000E+00 0.  1.
         -1   -1    0    0    0  501 -0.00000000000E+00 -0.00000000000E+00 -0.33647762626E+03  0.33647762626E+03  0.00000000000E+00 0. -1.
    2000013    1    1    2    0    0 -0.27407069232E+01 -0.40262273682E+03  0.28796609886E+04  0.30589311840E+04  0.95000000000E+03 0.  0.
   -2000013    1    1    2    0    0  0.27407069232E+01  0.40262273682E+03  0.83138797947E+03  0.13250730365E+04  0.95000000000E+03 0.  0.
<mgrwt>
<rscale>  0 0.23340113E+04</rscale>
<asrwt>0</asrwt>
<pdfrwt beam="1">  1        1 0.62269636E+00 0.23340113E+04</pdfrwt>
<pdfrwt beam="2">  1       -1 0.51765792E-01 0.23340113E+04</pdfrwt>
<totfact> 0.29608339E-01</totfact>
</mgrwt>
</event>
<event>
 4    1  0.2058093E-008  0.2904297E+04  0.7816531E-02  0.8271600E-01
          4   -1    0    0  501    0  0.00000000000E+00  0.00000000000E+00  0.11914983001E+04  0.11914983001E+04  0.00000000000E+00 0.  1.
         -4   -1    0    0    0  501 -0.00000000000E+00 -0.00000000000E+00 -0.17698179548E+04  0.17698179548E+04  0.00000000000E+00 0. -1.
    2000013    1    1    2    0    0  0.83819418931E+03 -0.56892134631E+03 -0.72174626822E+03  0.15651385475E+04  0.95000000000E+03 0.  0.
   -2000013    1    1    2    0    0 -0.83819418931E+03  0.56892134631E+03  0.14342661351E+03  0.13961777074E+04  0.95000000000E+03 0.  0.
<mgrwt>
<rscale>  0 0.29042969E+04</rscale>
<asrwt>0</asrwt>
<pdfrwt beam="1">  1        4 0.18330743E+00 0.29042969E+04</pdfrwt>
<pdfrwt beam="2">  1       -4 0.27227969E+00 0.29042969E+04</pdfrwt>
<totfact> 0.13425634E-02</totfact>
</mgrwt>
</event>
<event>
 4    1  0.2058093E-008  0.2314158E+04  0.7816531E-02  0.8472360E-01
          2   -1    0    0  501    0  0.00000000000E+00  0.00000000000E+00  0.11217046231E+04  0.11217046231E+04  0.00000000000E+00 0.  1.
         -2   -1    0    0    0  501 -0.00000000000E+00 -0.00000000000E+00 -0.11935689062E+04  0.11935689062E+04  0.00000000000E+00 0. -1.
    2000013    1    1    2    0    0  0.53248526729E+03  0.98108419774E+02  0.34262300908E+03  0.11458867083E+04  0.95000000000E+03 0.  0.
   -2000013    1    1    2    0    0 -0.53248526729E+03 -0.98108419774E+02 -0.41448729215E+03  0.11693868211E+04  0.95000000000E+03 0.  0.
<mgrwt>
<rscale>  0 0.23141580E+04</rscale>
<asrwt>0</asrwt>
<pdfrwt beam="1">  1        2 0.17256994E+00 0.23141580E+04</pdfrwt>
<pdfrwt beam="2">  1       -2 0.18362599E+00 0.23141580E+04</pdfrwt>
<totfact> 0.32751736E+00</totfact>
</mgrwt>
</event>
<event>
 4    1  0.2058093E-008  0.2876985E+04  0.7816531E-02  0.8279758E-01
          4   -1    0    0  501    0  0.00000000000E+00  0.00000000000E+00  0.11350772122E+04  0.11350772122E+04  0.00000000000E+00 0.  1.
         -4   -1    0    0    0  501 -0.00000000000E+00 -0.00000000000E+00 -0.18230133871E+04  0.18230133871E+04  0.00000000000E+00 0. -1.
    2000013    1    1    2    0    0 -0.13680125160E+03  0.10570263903E+04 -0.52424368479E+03  0.15209703526E+04  0.95000000000E+03 0.  0.
   -2000013    1    1    2    0    0  0.13680125160E+03 -0.10570263903E+04 -0.16369249014E+03  0.14371202468E+04  0.95000000000E+03 0.  0.
<mgrwt>
<rscale>  0 0.28769852E+04</rscale>
<asrwt>0</asrwt>
<pdfrwt beam="1">  1        4 0.17462727E+00 0.28769852E+04</pdfrwt>
<pdfrwt beam="2">  1       -4 0.28046359E+00 0.28769852E+04</pdfrwt>
<totfact> 0.13769889E-02</totfact>
</mgrwt>
</event>
<event>
 4    1  0.2058093E-008  0.2533835E+04  0.7816531E-02  0.8391030E-01
         -2   -1    0    0    0  501 -0.00000000000E+00  0.00000000000E+00  0.56846678253E+03  0.56846678253E+03  0.00000000000E+00 0.  1.
          2   -1    0    0  501    0  0.00000000000E+00 -0.00000000000E+00 -0.28235235214E+04  0.28235235214E+04  0.00000000000E+00 0. -1.
    2000013    1    1    2    0    0  0.53849452433E+03 -0.40402340420E+03 -0.45903550591E+03  0.12515689592E+04  0.95000000000E+03 0.  0.
   -2000013    1    1    2    0    0 -0.53849452433E+03  0.40402340420E+03 -0.17960212330E+04  0.21404213448E+04  0.95000000000E+03 0.  0.
<mgrwt>
<rscale>  0 0.25338345E+04</rscale>
<asrwt>0</asrwt>
<pdfrwt beam="2">  1        2 0.43438824E+00 0.25338345E+04</pdfrwt>
<pdfrwt beam="1">  1       -2 0.87456426E-01 0.25338345E+04</pdfrwt>
<totfact> 0.22465113E+00</totfact>
</mgrwt>
</event>
<event>
 4    1  0.2058093E-008  0.2371239E+04  0.7816531E-02  0.8450350E-01
         -2   -1    0    0    0  501 -0.00000000000E+00  0.00000000000E+00  0.52023366163E+03  0.52023366163E+03  0.00000000000E+00 0. -1.
          2   -1    0    0  501    0  0.00000000000E+00 -0.00000000000E+00 -0.27020428910E+04  0.27020428910E+04  0.00000000000E+00 0.  1.
    2000013    1    1    2    0    0  0.54803197441E+03  0.32040625694E+03 -0.66076513069E+03  0.13198900607E+04  0.95000000000E+03 0.  0.
   -2000013    1    1    2    0    0 -0.54803197441E+03 -0.32040625694E+03 -0.15210440987E+04  0.19023864919E+04  0.95000000000E+03 0.  0.
<mgrwt>
<rscale>  0 0.23712391E+04</rscale>
<asrwt>0</asrwt>
<pdfrwt beam="2">  1        2 0.41569890E+00 0.23712391E+04</pdfrwt>
<pdfrwt beam="1">  1       -2 0.80035949E-01 0.23712391E+04</pdfrwt>
<totfact> 0.32962396E+00</totfact>
</mgrwt>
</event>
<event>
 4    1  0.2058093E-008  0.2276556E+04  0.7816531E-02  0.8487222E-01
         -2   -1    0    0    0  501 -0.00000000000E+00  0.00000000000E+00  0.75472243276E+03  0.75472243276E+03  0.00000000000E+00 0. -1.
          2   -1    0    0  501    0  0.00000000000E+00 -0.00000000000E+00 -0.17167595105E+04  0.17167595105E+04  0.00000000000E+00 0.  1.
    2000013    1    1    2    0    0 -0.41879778315E+03 -0.26896721602E+03 -0.89504105147E+03  0.13969013674E+04  0.95000000000E+03 0.  0.
   -2000013    1    1    2    0    0  0.41879778315E+03  0.26896721602E+03 -0.66996026272E+02  0.10745805759E+04  0.95000000000E+03 0.  0.
<mgrwt>
<rscale>  0 0.22765561E+04</rscale>
<asrwt>0</asrwt>
<pdfrwt beam="2">  1        2 0.26411685E+00 0.22765561E+04</pdfrwt>
<pdfrwt beam="1">  1       -2 0.11611114E+00 0.22765561E+04</pdfrwt>
<totfact> 0.50220056E+00</totfact>
</mgrwt>
</event>
<event>
 4    1  0.2058093E-008  0.2713498E+04  0.7816531E-02  0.8330639E-01
         -2   -1    0    0    0  501 -0.00000000000E+00  0.00000000000E+00  0.15891294700E+04  0.15891294700E+04  0.00000000000E+00 0. -1.
          2   -1    0    0  501    0  0.00000000000E+00 -0.00000000000E+00 -0.11583497857E+04  0.11583497857E+04  0.00000000000E+00 0.  1.
    2000013    1    1    2    0    0 -0.10021313341E+03 -0.96344256473E+03  0.21729311012E+03  0.13740380429E+04  0.95000000000E+03 0.  0.
   -2000013    1    1    2    0    0  0.10021313341E+03  0.96344256473E+03  0.21348657414E+03  0.13734412128E+04  0.95000000000E+03 0.  0.
<mgrwt>
<rscale>  0 0.27134979E+04</rscale>
<asrwt>0</asrwt>
<pdfrwt beam="2">  1        2 0.17820766E+00 0.27134979E+04</pdfrwt>
<pdfrwt beam="1">  1       -2 0.24448146E+00 0.27134979E+04</pdfrwt>
<totfact> 0.12220742E+00</totfact>
</mgrwt>
</event>
<event>
 4    1  0.2058093E-008  0.2519365E+04  0.7816531E-02  0.8396119E-01
          2   -1    0    0  501    0  0.00000000000E+00  0.00000000000E+00  0.17029099399E+04  0.17029099399E+04  0.00000000000E+00 0.  1.
         -2   -1    0    0    0  501 -0.00000000000E+00 -0.00000000000E+00 -0.93181683380E+03  0.93181683380E+03  0.00000000000E+00 0. -1.
    2000013    1    1    2    0    0  0.72853492292E+03 -0.38973292910E+03  0.34312744426E+03  0.13049487856E+04  0.95000000000E+03 0.  0.
   -2000013    1    1    2    0    0 -0.72853492292E+03  0.38973292910E+03  0.42796566181E+03  0.13297779881E+04  0.95000000000E+03 0.  0.
<mgrwt>
<rscale>  0 0.25193651E+04</rscale>
<asrwt>0</asrwt>
<pdfrwt beam="1">  1        2 0.26198614E+00 0.25193651E+04</pdfrwt>
<pdfrwt beam="2">  1       -2 0.14335644E+00 0.25193651E+04</pdfrwt>
<totfact> 0.29378272E+00</totfact>
</mgrwt>
</event>
<event>
 4    1  0.2058093E-008  0.2327609E+04  0.7816531E-02  0.8467114E-01
          2   -1    0    0  501    0  0.00000000000E+00  0.00000000000E+00  0.13138162457E+04  0.13138162457E+04  0.00000000000E+00 0. -1.
         -2   -1    0    0    0  501 -0.00000000000E+00 -0.00000000000E+00 -0.10309213239E+04  0.10309213239E+04  0.00000000000E+00 0.  1.
    2000013    1    1    2    0    0 -0.22182776763E+03  0.37279360199E+03  0.65880102910E+03  0.12347880078E+04  0.95000000000E+03 0.  0.
   -2000013    1    1    2    0    0  0.22182776763E+03 -0.37279360199E+03 -0.37590610728E+03  0.11099495618E+04  0.95000000000E+03 0.  0.
<mgrwt>
<rscale>  0 0.23276092E+04</rscale>
<asrwt>0</asrwt>
<pdfrwt beam="1">  1        2 0.20212558E+00 0.23276092E+04</pdfrwt>
<pdfrwt beam="2">  1       -2 0.15860328E+00 0.23276092E+04</pdfrwt>
<totfact> 0.37872671E+00</totfact>
</mgrwt>
</event>
<event>
 4    1  0.2058093E-008  0.2118569E+04  0.7816531E-02  0.8553107E-01
          2   -1    0    0  501    0  0.00000000000E+00  0.00000000000E+00  0.10046995429E+04  0.10046995429E+04  0.00000000000E+00 0.  1.
         -2   -1    0    0    0  501 -0.00000000000E+00 -0.00000000000E+00 -0.11168351588E+04  0.11168351588E+04  0.00000000000E+00 0. -1.
    2000013    1    1    2    0    0 -0.32863922785E+03  0.21109669573E+02 -0.38990274394E+03  0.10784124953E+04  0.95000000000E+03 0.  0.
   -2000013    1    1    2    0    0  0.32863922785E+03 -0.21109669573E+02  0.27776712806E+03  0.10431222065E+04  0.95000000000E+03 0.  0.
<mgrwt>
<rscale>  0 0.21185691E+04</rscale>
<asrwt>0</asrwt>
<pdfrwt beam="1">  1        2 0.15456916E+00 0.21185691E+04</pdfrwt>
<pdfrwt beam="2">  1       -2 0.17182079E+00 0.21185691E+04</pdfrwt>
<totfact> 0.47608921E+00</totfact>
</mgrwt>
</event>
<event>
 4    1  0.2058093E-008  0.2138874E+04  0.7816531E-02  0.8544310E-01
         -2   -1    0    0    0  501 -0.00000000000E+00  0.00000000000E+00  0.15398806039E+04  0.15398806039E+04  0.00000000000E+00 0. -1.
          2   -1    0    0  501    0  0.00000000000E+00 -0.00000000000E+00 -0.74271716482E+03  0.74271716482E+03  0.00000000000E+00 0.  1.
    2000013    1    1    2    0    0 -0.24296535089E+03 -0.42436643552E+03  0.44721498385E+03  0.11582833311E+04  0.95000000000E+03 0.  0.
   -2000013    1    1    2    0    0  0.24296535089E+03  0.42436643552E+03  0.34994845523E+03  0.11243144376E+04  0.95000000000E+03 0.  0.
<mgrwt>
<rscale>  0 0.21388742E+04</rscale>
<asrwt>0</asrwt>
<pdfrwt beam="2">  1        2 0.11426418E+00 0.21388742E+04</pdfrwt>
<pdfrwt beam="1">  1       -2 0.23690471E+00 0.21388742E+04</pdfrwt>
<totfact> 0.27002693E+00</totfact>
</mgrwt>
</event>
<event>
 4    1  0.2058093E-008  0.2050326E+04  0.7816531E-02  0.8583446E-01
          2   -1    0    0  501    0  0.00000000000E+00  0.00000000000E+00  0.34084468158E+04  0.34084468158E+04  0.00000000000E+00 0.  1.
         -2   -1    0    0    0  501 -0.00000000000E+00 -0.00000000000E+00 -0.30833963804E+03  0.30833963804E+03  0.00000000000E+00 0. -1.
    2000013    1    1    2    0    0  0.37373258338E+03  0.29632167724E+02  0.13888778453E+04  0.17239593320E+04  0.95000000000E+03 0.  0.
   -2000013    1    1    2    0    0 -0.37373258338E+03 -0.29632167724E+02  0.17112293324E+04  0.19928271218E+04  0.95000000000E+03 0.  0.
<mgrwt>
<rscale>  0 0.20503261E+04</rscale>
<asrwt>0</asrwt>
<pdfrwt beam="1">  1        2 0.52437641E+00 0.20503261E+04</pdfrwt>
<pdfrwt beam="2">  1       -2 0.47436870E-01 0.20503261E+04</pdfrwt>
<totfact> 0.36823868E+00</totfact>
</mgrwt>
</event>
<event>
 4    1  0.2058093E-008  0.3853123E+04  0.7816531E-02  0.8034850E-01
          2   -1    0    0  501    0  0.00000000000E+00  0.00000000000E+00  0.17663602736E+04  0.17663602736E+04  0.00000000000E+00 0.  1.
         -2   -1    0    0    0  501 -0.00000000000E+00 -0.00000000000E+00 -0.21012922770E+04  0.21012922770E+04  0.00000000000E+00 0. -1.
    2000013    1    1    2    0    0 -0.22271411547E+03 -0.16198754438E+04 -0.53701344026E+03  0.19658284426E+04  0.95000000000E+03 0.  0.
   -2000013    1    1    2    0    0  0.22271411547E+03  0.16198754438E+04  0.20208143679E+03  0.19018241080E+04  0.95000000000E+03 0.  0.
<mgrwt>
<rscale>  0 0.38531230E+04</rscale>
<asrwt>0</asrwt>
<pdfrwt beam="1">  1        2 0.27174773E+00 0.38531230E+04</pdfrwt>
<pdfrwt beam="2">  1       -2 0.32327573E+00 0.38531230E+04</pdfrwt>
<totfact> 0.16431973E-01</totfact>
</mgrwt>
</event>
<event>
 4    1  0.2058093E-008  0.2149361E+04  0.7816531E-02  0.8539806E-01
          2   -1    0    0  501    0  0.00000000000E+00  0.00000000000E+00  0.13645797207E+04  0.13645797207E+04  0.00000000000E+00 0.  1.
         -2   -1    0    0    0  501 -0.00000000000E+00 -0.00000000000E+00 -0.84636895053E+03  0.84636895053E+03  0.00000000000E+00 0. -1.
    2000013    1    1    2    0    0 -0.26467073456E+01 -0.48608476883E+03  0.12837118845E+03  0.10748323449E+04  0.95000000000E+03 0.  0.
   -2000013    1    1    2    0    0  0.26467073456E+01  0.48608476883E+03  0.38983958173E+03  0.11361163264E+04  0.95000000000E+03 0.  0.
<mgrwt>
<rscale>  0 0.21493607E+04</rscale>
<asrwt>0</asrwt>
<pdfrwt beam="1">  1        2 0.20993534E+00 0.21493607E+04</pdfrwt>
<pdfrwt beam="2">  1       -2 0.13021061E+00 0.21493607E+04</pdfrwt>
<totfact> 0.60214460E+00</totfact>
</mgrwt>
</event>
<event>
 4    1  0.2058093E-008  0.3418988E+04  0.7816531E-02  0.8133262E-01
         -2   -1    0    0    0  501 -0.00000000000E+00  0.00000000000E+00  0.93170822932E+03  0.93170822932E+03  0.00000000000E+00 0. -1.
          2   -1    0    0  501    0  0.00000000000E+00 -0.00000000000E+00 -0.31365713400E+04  0.31365713400E+04  0.00000000000E+00 0.  1.
    2000013    1    1    2    0    0  0.21394292956E+03 -0.14032863036E+04 -0.11856000738E+04  0.20792141693E+04  0.95000000000E+03 0.  0.
   -2000013    1    1    2    0    0 -0.21394292956E+03  0.14032863036E+04 -0.10192630369E+04  0.19890654000E+04  0.95000000000E+03 0.  0.
<mgrwt>
<rscale>  0 0.34189878E+04</rscale>
<asrwt>0</asrwt>
<pdfrwt beam="2">  1        2 0.48254944E+00 0.34189878E+04</pdfrwt>
<pdfrwt beam="1">  1       -2 0.14333973E+00 0.34189878E+04</pdfrwt>
<totfact> 0.39788858E-01</totfact>
</mgrwt>
</event>
<event>
 4    1  0.2058093E-008  0.2797865E+04  0.7816531E-02  0.8303932E-01
          2   -1    0    0  501    0  0.00000000000E+00  0.00000000000E+00  0.33330201792E+04  0.33330201792E+04  0.00000000000E+00 0.  1.
         -2   -1    0    0    0  501 -0.00000000000E+00 -0.00000000000E+00 -0.58715861257E+03  0.58715861257E+03  0.00000000000E+00 0. -1.
    2000013    1    1    2    0    0  0.98162341160E+03 -0.18968649949E+03  0.10444974067E+04  0.17300405553E+04  0.95000000000E+03 0.  0.
   -2000013    1    1    2    0    0 -0.98162341160E+03  0.18968649949E+03  0.17013641600E+04  0.21901382365E+04  0.95000000000E+03 0.  0.
<mgrwt>
<rscale>  0 0.27978645E+04</rscale>
<asrwt>0</asrwt>
<pdfrwt beam="1">  1        2 0.51277232E+00 0.27978645E+04</pdfrwt>
<pdfrwt beam="2">  1       -2 0.90332096E-01 0.27978645E+04</pdfrwt>
<totfact> 0.96502356E-01</totfact>
</mgrwt>
</event>
<event>
 4    1  0.2058093E-008  0.2843828E+04  0.7816531E-02  0.8289789E-01
         -2   -1    0    0    0  501 -0.00000000000E+00  0.00000000000E+00  0.23010038092E+04  0.23010038092E+04  0.00000000000E+00 0. -1.
          2   -1    0    0  501    0  0.00000000000E+00 -0.00000000000E+00 -0.87867689481E+03  0.87867689481E+03  0.00000000000E+00 0.  1.
    2000013    1    1    2    0    0  0.62344041058E+03  0.76490606377E+03  0.11377730130E+04  0.17806702842E+04  0.95000000000E+03 0.  0.
   -2000013    1    1    2    0    0 -0.62344041058E+03 -0.76490606377E+03  0.28455390141E+03  0.13990104198E+04  0.95000000000E+03 0.  0.
<mgrwt>
<rscale>  0 0.28438276E+04</rscale>
<asrwt>0</asrwt>
<pdfrwt beam="2">  1        2 0.13518106E+00 0.28438276E+04</pdfrwt>
<pdfrwt beam="1">  1       -2 0.35400059E+00 0.28438276E+04</pdfrwt>
<totfact> 0.38584061E-01</totfact>
</mgrwt>
</event>
<event>
 4    1  0.2058093E-008  0.2481620E+04  0.7816531E-02  0.8409563E-01
          2   -1    0    0  501    0  0.00000000000E+00  0.00000000000E+00  0.15212348361E+04  0.15212348361E+04  0.00000000000E+00 0.  1.
         -2   -1    0    0    0  501 -0.00000000000E+00 -0.00000000000E+00 -0.10120790639E+04  0.10120790639E+04  0.00000000000E+00 0. -1.
    2000013    1    1    2    0    0 -0.51766753076E+03  0.40751083204E+03  0.71459224413E+03  0.13591125141E+04  0.95000000000E+03 0.  0.
   -2000013    1    1    2    0    0  0.51766753076E+03 -0.40751083204E+03 -0.20543647199E+03  0.11742013859E+04  0.95000000000E+03 0.  0.
<mgrwt>
<rscale>  0 0.24816204E+04</rscale>
<asrwt>0</asrwt>
<pdfrwt beam="1">  1        2 0.23403613E+00 0.24816204E+04</pdfrwt>
<pdfrwt beam="2">  1       -2 0.15570447E+00 0.24816204E+04</pdfrwt>
<totfact> 0.29916504E+00</totfact>
</mgrwt>
</event>
<event>
 4    1  0.2058093E-008  0.3569230E+04  0.7816531E-02  0.8097577E-01
          2   -1    0    0  501    0  0.00000000000E+00  0.00000000000E+00  0.18593929513E+04  0.18593929513E+04  0.00000000000E+00 0.  1.
         -2   -1    0    0    0  501 -0.00000000000E+00 -0.00000000000E+00 -0.17128440860E+04  0.17128440860E+04  0.00000000000E+00 0. -1.
    2000013    1    1    2    0    0  0.11630522747E+04  0.76832103769E+03 -0.50974742474E+03  0.17622003994E+04  0.95000000000E+03 0.  0.
   -2000013    1    1    2    0    0 -0.11630522747E+04 -0.76832103769E+03  0.65629629005E+03  0.18100366380E+04  0.95000000000E+03 0.  0.
<mgrwt>
<rscale>  0 0.35692297E+04</rscale>
<asrwt>0</asrwt>
<pdfrwt beam="1">  1        2 0.28606045E+00 0.35692297E+04</pdfrwt>
<pdfrwt beam="2">  1       -2 0.26351448E+00 0.35692297E+04</pdfrwt>
<totfact> 0.34701566E-01</totfact>
</mgrwt>
</event>
<event>
 4    1  0.2058093E-008  0.4826480E+04  0.7816531E-02  0.7855846E-01
         -1   -1    0    0    0  501 -0.00000000000E+00  0.00000000000E+00  0.23957410217E+04  0.23957410217E+04  0.00000000000E+00 0. -1.
          1   -1    0    0  501    0  0.00000000000E+00 -0.00000000000E+00 -0.24308672949E+04  0.24308672949E+04  0.00000000000E+00 0.  1.
    2000013    1    1    2    0    0  0.67331427919E+03  0.15089649508E+04  0.14626453623E+04  0.24025317474E+04  0.95000000000E+03 0.  0.
   -2000013    1    1    2    0    0 -0.67331427919E+03 -0.15089649508E+04 -0.14977716355E+04  0.24240765692E+04  0.95000000000E+03 0.  0.
<mgrwt>
<rscale>  0 0.48264805E+04</rscale>
<asrwt>0</asrwt>
<pdfrwt beam="2">  1        1 0.37397958E+00 0.48264805E+04</pdfrwt>
<pdfrwt beam="1">  1       -1 0.36857554E+00 0.48264805E+04</pdfrwt>
<totfact> 0.12933531E-02</totfact>
</mgrwt>
</event>
<event>
 4    1  0.2058093E-008  0.2279774E+04  0.7816531E-02  0.8485939E-01
         -2   -1    0    0    0  501 -0.00000000000E+00  0.00000000000E+00  0.15551323267E+04  0.15551323267E+04  0.00000000000E+00 0. -1.
          2   -1    0    0  501    0  0.00000000000E+00 -0.00000000000E+00 -0.83551896317E+03  0.83551896317E+03  0.00000000000E+00 0.  1.
    2000013    1    1    2    0    0 -0.61753798610E+03 -0.12209765823E+03  0.38509481344E+03  0.12029376616E+04  0.95000000000E+03 0.  0.
   -2000013    1    1    2    0    0  0.61753798610E+03  0.12209765823E+03  0.33451855014E+03  0.11877136283E+04  0.95000000000E+03 0.  0.
<mgrwt>
<rscale>  0 0.22797742E+04</rscale>
<asrwt>0</asrwt>
<pdfrwt beam="2">  1        2 0.12854138E+00 0.22797742E+04</pdfrwt>
<pdfrwt beam="1">  1       -2 0.23925113E+00 0.22797742E+04</pdfrwt>
<totfact> 0.22085388E+00</totfact>
</mgrwt>
</event>
<event>
 4    1  0.2058093E-008  0.2291461E+04  0.7816531E-02  0.8481296E-01
         -2   -1    0    0    0  501 -0.00000000000E+00  0.00000000000E+00  0.12169930861E+04  0.12169930861E+04  0.00000000000E+00 0. -1.
          2   -1    0    0  501    0  0.00000000000E+00 -0.00000000000E+00 -0.10786408056E+04  0.10786408056E+04  0.00000000000E+00 0.  1.
    2000013    1    1    2    0    0 -0.51248492465E+03  0.22217936427E+03  0.38310589861E+03  0.11667367301E+04  0.95000000000E+03 0.  0.
   -2000013    1    1    2    0    0  0.51248492465E+03 -0.22217936427E+03 -0.24475361807E+03  0.11288971616E+04  0.95000000000E+03 0.  0.
<mgrwt>
<rscale>  0 0.22914610E+04</rscale>
<asrwt>0</asrwt>
<pdfrwt beam="2">  1        2 0.16594474E+00 0.22914610E+04</pdfrwt>
<pdfrwt beam="1">  1       -2 0.18722971E+00 0.22914610E+04</pdfrwt>
<totfact> 0.32969528E+00</totfact>
</mgrwt>
</event>
<event>
 4    1  0.2058093E-008  0.2616480E+04  0.7816531E-02  0.8362625E-01
         -2   -1    0    0    0  501 -0.00000000000E+00  0.00000000000E+00  0.67790513968E+03  0.67790513968E+03  0.00000000000E+00 0. -1.
          2   -1    0    0  501    0  0.00000000000E+00 -0.00000000000E+00 -0.25246779209E+04  0.25246779209E+04  0.00000000000E+00 0.  1.
    2000013    1    1    2    0    0 -0.24061935097E+03  0.86623678891E+03 -0.89035432330E+03  0.15822435551E+04  0.95000000000E+03 0.  0.
   -2000013    1    1    2    0    0  0.24061935097E+03 -0.86623678891E+03 -0.95641845791E+03  0.16203395055E+04  0.95000000000E+03 0.  0.
<mgrwt>
<rscale>  0 0.26164802E+04</rscale>
<asrwt>0</asrwt>
<pdfrwt beam="2">  1        2 0.38841199E+00 0.26164802E+04</pdfrwt>
<pdfrwt beam="1">  1       -2 0.10429310E+00 0.26164802E+04</pdfrwt>
<totfact> 0.22222795E+00</totfact>
</mgrwt>
</event>
<event>
 4    1  0.2058093E-008  0.2278671E+04  0.7816531E-02  0.8486379E-01
          2   -1    0    0  501    0  0.00000000000E+00  0.00000000000E+00  0.15338581636E+04  0.15338581636E+04  0.00000000000E+00 0.  1.
         -2   -1    0    0    0  501 -0.00000000000E+00 -0.00000000000E+00 -0.84628785481E+03  0.84628785481E+03  0.00000000000E+00 0. -1.
    2000013    1    1    2    0    0 -0.56417346562E+03 -0.23816210133E+03  0.49360421145E+03  0.12333523436E+04  0.95000000000E+03 0.  0.
   -2000013    1    1    2    0    0  0.56417346562E+03  0.23816210133E+03  0.19396609739E+03  0.11467936749E+04  0.95000000000E+03 0.  0.
<mgrwt>
<rscale>  0 0.22786711E+04</rscale>
<asrwt>0</asrwt>
<pdfrwt beam="1">  1        2 0.23597818E+00 0.22786711E+04</pdfrwt>
<pdfrwt beam="2">  1       -2 0.13019813E+00 0.22786711E+04</pdfrwt>
<totfact> 0.47737056E+00</totfact>
</mgrwt>
</event>
<event>
 4    1  0.2058093E-008  0.2321734E+04  0.7816531E-02  0.8469401E-01
         -2   -1    0    0    0  501 -0.00000000000E+00  0.00000000000E+00  0.43754510227E+03  0.43754510227E+03  0.00000000000E+00 0. -1.
          2   -1    0    0  501    0  0.00000000000E+00 -0.00000000000E+00 -0.30799381348E+04  0.30799381348E+04  0.00000000000E+00 0.  1.
    2000013    1    1    2    0    0 -0.39556335772E+03 -0.11834045855E+02 -0.21349514170E+04  0.23700480939E+04  0.95000000000E+03 0.  0.
   -2000013    1    1    2    0    0  0.39556335772E+03  0.11834045855E+02 -0.50744161560E+03  0.11474351432E+04  0.95000000000E+03 0.  0.
<mgrwt>
<rscale>  0 0.23217337E+04</rscale>
<asrwt>0</asrwt>
<pdfrwt beam="2">  1        2 0.47383665E+00 0.23217337E+04</pdfrwt>
<pdfrwt beam="1">  1       -2 0.67314629E-01 0.23217337E+04</pdfrwt>
<totfact> 0.28419503E+00</totfact>
</mgrwt>
</event>
<event>
 4    1  0.2058093E-008  0.2127854E+04  0.7816531E-02  0.8549072E-01
          2   -1    0    0  501    0  0.00000000000E+00  0.00000000000E+00  0.14073005373E+04  0.14073005373E+04  0.00000000000E+00 0.  1.
         -2   -1    0    0    0  501 -0.00000000000E+00 -0.00000000000E+00 -0.80433479752E+03  0.80433479752E+03  0.00000000000E+00 0. -1.
    2000013    1    1    2    0    0 -0.32390595119E+03  0.20828183007E+03  0.59755734181E+03  0.11865374679E+04  0.95000000000E+03 0.  0.
   -2000013    1    1    2    0    0  0.32390595119E+03 -0.20828183007E+03  0.54083979463E+01  0.10250978669E+04  0.95000000000E+03 0.  0.
<mgrwt>
<rscale>  0 0.21278541E+04</rscale>
<asrwt>0</asrwt>
<pdfrwt beam="1">  1        2 0.21650778E+00 0.21278541E+04</pdfrwt>
<pdfrwt beam="2">  1       -2 0.12374381E+00 0.21278541E+04</pdfrwt>
<totfact> 0.64817801E+00</totfact>
</mgrwt>
</event>
<event>
 4    1  0.2058093E-008  0.2447250E+04  0.7816531E-02  0.8422023E-01
         -2   -1    0    0    0  501 -0.00000000000E+00  0.00000000000E+00  0.10382774620E+04  0.10382774620E+04  0.00000000000E+00 0. -1.
          2   -1    0    0  501    0  0.00000000000E+00 -0.00000000000E+00 -0.14420597115E+04  0.14420597115E+04  0.00000000000E+00 0.  1.
    2000013    1    1    2    0    0  0.37585714376E+03  0.59246929769E+03 -0.52632783453E+03  0.12929847063E+04  0.95000000000E+03 0.  0.
   -2000013    1    1    2    0    0 -0.37585714376E+03 -0.59246929769E+03  0.12254558504E+03  0.11873524673E+04  0.95000000000E+03 0.  0.
<mgrwt>
<rscale>  0 0.24472500E+04</rscale>
<asrwt>0</asrwt>
<pdfrwt beam="2">  1        2 0.22185534E+00 0.24472500E+04</pdfrwt>
<pdfrwt beam="1">  1       -2 0.15973499E+00 0.24472500E+04</pdfrwt>
<totfact> 0.31037898E+00</totfact>
</mgrwt>
</event>
<event>
 4    1  0.2058093E-008  0.2113208E+04  0.7816531E-02  0.8555447E-01
          2   -1    0    0  501    0  0.00000000000E+00  0.00000000000E+00  0.88166668052E+03  0.88166668052E+03  0.00000000000E+00 0.  1.
         -2   -1    0    0    0  501 -0.00000000000E+00 -0.00000000000E+00 -0.12662515769E+04  0.12662515769E+04  0.00000000000E+00 0. -1.
    2000013    1    1    2    0    0  0.22975341306E+03 -0.34648720466E+03 -0.39828307787E+03  0.11108417637E+04  0.95000000000E+03 0.  0.
   -2000013    1    1    2    0    0 -0.22975341306E+03  0.34648720466E+03  0.13698181446E+02  0.10370764938E+04  0.95000000000E+03 0.  0.
<mgrwt>
<rscale>  0 0.21132078E+04</rscale>
<asrwt>0</asrwt>
<pdfrwt beam="1">  1        2 0.13564103E+00 0.21132078E+04</pdfrwt>
<pdfrwt beam="2">  1       -2 0.19480793E+00 0.21132078E+04</pdfrwt>
<totfact> 0.39971073E+00</totfact>
</mgrwt>
</event>
<event>
 4    1  0.2058093E-008  0.2407265E+04  0.7816531E-02  0.8436789E-01
          2   -1    0    0  501    0  0.00000000000E+00  0.00000000000E+00  0.10247390863E+04  0.10247390863E+04  0.00000000000E+00 0.  1.
         -2   -1    0    0    0  501 -0.00000000000E+00 -0.00000000000E+00 -0.14137563089E+04  0.14137563089E+04  0.00000000000E+00 0. -1.
    2000013    1    1    2    0    0  0.62305876429E+03  0.30569040802E+03 -0.45193640712E+03  0.12603155817E+04  0.95000000000E+03 0.  0.
   -2000013    1    1    2    0    0 -0.62305876429E+03 -0.30569040802E+03  0.62919184491E+02  0.11781798136E+04  0.95000000000E+03 0.  0.
<mgrwt>
<rscale>  0 0.24072651E+04</rscale>
<asrwt>0</asrwt>
<pdfrwt beam="1">  1        2 0.15765217E+00 0.24072651E+04</pdfrwt>
<pdfrwt beam="2">  1       -2 0.21750097E+00 0.24072651E+04</pdfrwt>
<totfact> 0.22371106E+00</totfact>
</mgrwt>
</event>
<event>
 4    1  0.2058093E-008  0.2937233E+04  0.7816531E-02  0.8261885E-01
          2   -1    0    0  501    0  0.00000000000E+00  0.00000000000E+00  0.18380249407E+04  0.18380249407E+04  0.00000000000E+00 0.  1.
         -2   -1    0    0    0  501 -0.00000000000E+00 -0.00000000000E+00 -0.11734520136E+04  0.11734520136E+04  0.00000000000E+00 0. -1.
    2000013    1    1    2    0    0  0.89208910495E+03  0.89110140216E+02 -0.35592602326E+03  0.13538637015E+04  0.95000000000E+03 0.  0.
   -2000013    1    1    2    0    0 -0.89208910495E+03 -0.89110140216E+02  0.10204989503E+04  0.16576132528E+04  0.95000000000E+03 0.  0.
<mgrwt>
<rscale>  0 0.29372328E+04</rscale>
<asrwt>0</asrwt>
<pdfrwt beam="1">  1        2 0.28277307E+00 0.29372328E+04</pdfrwt>
<pdfrwt beam="2">  1       -2 0.18053108E+00 0.29372328E+04</pdfrwt>
<totfact> 0.12717682E+00</totfact>
</mgrwt>
</event>
<event>
 4    1  0.2058093E-008  0.2077414E+04  0.7816531E-02  0.8571258E-01
          3   -1    0    0  501    0  0.00000000000E+00  0.00000000000E+00  0.30247269803E+04  0.30247269803E+04  0.00000000000E+00 0.  1.
         -3   -1    0    0    0  501 -0.00000000000E+00 -0.00000000000E+00 -0.35669751513E+03  0.35669751513E+03  0.00000000000E+00 0. -1.
    2000013    1    1    2    0    0 -0.17306432198E+03  0.15906101715E+03  0.76743913206E+03  0.12436697665E+04  0.95000000000E+03 0.  0.
   -2000013    1    1    2    0    0  0.17306432198E+03 -0.15906101715E+03  0.19005903331E+04  0.21377547289E+04  0.95000000000E+03 0.  0.
<mgrwt>
<rscale>  0 0.20774144E+04</rscale>
<asrwt>0</asrwt>
<pdfrwt beam="1">  1        3 0.46534260E+00 0.20774144E+04</pdfrwt>
<pdfrwt beam="2">  1       -3 0.54876543E-01 0.20774144E+04</pdfrwt>
<totfact> 0.40386905E-02</totfact>
</mgrwt>
</event>
<event>
 4    1  0.2058093E-008  0.2569897E+04  0.7816531E-02  0.8378499E-01
         -2   -1    0    0    0  501 -0.00000000000E+00  0.00000000000E+00  0.12577627628E+04  0.12577627628E+04  0.00000000000E+00 0. -1.
          2   -1    0    0  501    0  0.00000000000E+00 -0.00000000000E+00 -0.13127222196E+04  0.13127222196E+04  0.00000000000E+00 0.  1.
    2000013    1    1    2    0    0 -0.80313894326E+03  0.30332433238E+02 -0.34792917904E+03  0.12920940106E+04  0.95000000000E+03 0.  0.
   -2000013    1    1    2    0    0  0.80313894326E+03 -0.30332433238E+02  0.29296972223E+03  0.12783909718E+04  0.95000000000E+03 0.  0.
<mgrwt>
<rscale>  0 0.25698974E+04</rscale>
<asrwt>0</asrwt>
<pdfrwt beam="2">  1        2 0.20195726E+00 0.25698974E+04</pdfrwt>
<pdfrwt beam="1">  1       -2 0.19350196E+00 0.25698974E+04</pdfrwt>
<totfact> 0.21164540E+00</totfact>
</mgrwt>
</event>
<event>
 4    1  0.2058093E-008  0.2109013E+04  0.7816531E-02  0.8557283E-01
          1   -1    0    0  501    0  0.00000000000E+00  0.00000000000E+00  0.13372825358E+04  0.13372825358E+04  0.00000000000E+00 0. -1.
         -1   -1    0    0    0  501 -0.00000000000E+00 -0.00000000000E+00 -0.83152527932E+03  0.83152527932E+03  0.00000000000E+00 0.  1.
    2000013    1    1    2    0    0  0.42429514781E+03  0.72438878366E+02  0.41288724620E+03  0.11217172735E+04  0.95000000000E+03 0.  0.
   -2000013    1    1    2    0    0 -0.42429514781E+03 -0.72438878366E+02  0.92870010266E+02  0.10470905416E+04  0.95000000000E+03 0.  0.
<mgrwt>
<rscale>  0 0.21090133E+04</rscale>
<asrwt>0</asrwt>
<pdfrwt beam="1">  1        1 0.20573577E+00 0.21090133E+04</pdfrwt>
<pdfrwt beam="2">  1       -1 0.12792697E+00 0.21090133E+04</pdfrwt>
<totfact> 0.41296197E+00</totfact>
</mgrwt>
</event>
<event>
 4    1  0.2058093E-008  0.3586948E+04  0.7816531E-02  0.8093488E-01
          1   -1    0    0  501    0  0.00000000000E+00  0.00000000000E+00  0.29765893432E+04  0.29765893432E+04  0.00000000000E+00 0.  1.
         -1   -1    0    0    0  501 -0.00000000000E+00 -0.00000000000E+00 -0.10806157267E+04  0.10806157267E+04  0.00000000000E+00 0. -1.
    2000013    1    1    2    0    0 -0.13272157425E+04 -0.58427816683E+03  0.14677607809E+04  0.22714982530E+04  0.95000000000E+03 0.  0.
   -2000013    1    1    2    0    0  0.13272157425E+04  0.58427816683E+03  0.42821283569E+03  0.17857068169E+04  0.95000000000E+03 0.  0.
<mgrwt>
<rscale>  0 0.35869481E+04</rscale>
<asrwt>0</asrwt>
<pdfrwt beam="1">  1        1 0.45793682E+00 0.35869481E+04</pdfrwt>
<pdfrwt beam="2">  1       -1 0.16624857E+00 0.35869481E+04</pdfrwt>
<totfact> 0.13199057E-01</totfact>
</mgrwt>
</event>
<event>
 4    1  0.2058093E-008  0.3102666E+04  0.7816531E-02  0.8215007E-01
          2   -1    0    0  501    0  0.00000000000E+00  0.00000000000E+00  0.15424096911E+04  0.15424096911E+04  0.00000000000E+00 0.  1.
         -2   -1    0    0    0  501 -0.00000000000E+00 -0.00000000000E+00 -0.15603083950E+04  0.15603083950E+04  0.00000000000E+00 0. -1.
    2000013    1    1    2    0    0 -0.79390746945E+03 -0.87978415937E+03  0.30700772515E+03  0.15495363760E+04  0.95000000000E+03 0.  0.
   -2000013    1    1    2    0    0  0.79390746945E+03  0.87978415937E+03 -0.32490642902E+03  0.15531817102E+04  0.95000000000E+03 0.  0.
<mgrwt>
<rscale>  0 0.31026665E+04</rscale>
<asrwt>0</asrwt>
<pdfrwt beam="1">  1        2 0.23729380E+00 0.31026665E+04</pdfrwt>
<pdfrwt beam="2">  1       -2 0.24004745E+00 0.31026665E+04</pdfrwt>
<totfact> 0.75491106E-01</totfact>
</mgrwt>
</event>
<event>
 4    1  0.2058093E-008  0.2909207E+04  0.7816531E-02  0.8270143E-01
         -2   -1    0    0    0  501 -0.00000000000E+00  0.00000000000E+00  0.56589206119E+03  0.56589206119E+03  0.00000000000E+00 0. -1.
          2   -1    0    0  501    0  0.00000000000E+00 -0.00000000000E+00 -0.37390018189E+04  0.37390018189E+04  0.00000000000E+00 0.  1.
    2000013    1    1    2    0    0 -0.79233065717E+03  0.56520643343E+03 -0.82319229761E+03  0.15897772616E+04  0.95000000000E+03 0.  0.
   -2000013    1    1    2    0    0  0.79233065717E+03 -0.56520643343E+03 -0.23499174601E+04  0.27151166184E+04  0.95000000000E+03 0.  0.
<mgrwt>
<rscale>  0 0.29092071E+04</rscale>
<asrwt>0</asrwt>
<pdfrwt beam="2">  1        2 0.57523105E+00 0.29092071E+04</pdfrwt>
<pdfrwt beam="1">  1       -2 0.87060317E-01 0.29092071E+04</pdfrwt>
<totfact> 0.53695477E-01</totfact>
</mgrwt>
</event>
<event>
 4    1  0.2058093E-008  0.2231339E+04  0.7816531E-02  0.8505496E-01
          1   -1    0    0  501    0  0.00000000000E+00  0.00000000000E+00  0.23376140724E+04  0.23376140724E+04  0.00000000000E+00 0.  1.
         -1   -1    0    0    0  501 -0.00000000000E+00 -0.00000000000E+00 -0.53247407785E+03  0.53247407785E+03  0.00000000000E+00 0. -1.
    2000013    1    1    2    0    0  0.15135496807E+03  0.20945275381E+03  0.22750872436E+03  0.10104647456E+04  0.95000000000E+03 0.  0.
   -2000013    1    1    2    0    0 -0.15135496807E+03 -0.20945275381E+03  0.15776312701E+04  0.18596234046E+04  0.95000000000E+03 0.  0.
<mgrwt>
<rscale>  0 0.22313394E+04</rscale>
<asrwt>0</asrwt>
<pdfrwt beam="1">  1        1 0.35963293E+00 0.22313394E+04</pdfrwt>
<pdfrwt beam="2">  1       -1 0.81919090E-01 0.22313394E+04</pdfrwt>
<totfact> 0.23640503E+00</totfact>
</mgrwt>
</event>
<event>
 4    1  0.2058093E-008  0.3346385E+04  0.7816531E-02  0.8151192E-01
         -2   -1    0    0    0  501 -0.00000000000E+00  0.00000000000E+00  0.13968541548E+04  0.13968541548E+04  0.00000000000E+00 0. -1.
          2   -1    0    0  501    0  0.00000000000E+00 -0.00000000000E+00 -0.20041981574E+04  0.20041981574E+04  0.00000000000E+00 0.  1.
    2000013    1    1    2    0    0 -0.11304697397E+04  0.46084254392E+02  0.49464510972E+03  0.15579664231E+04  0.95000000000E+03 0.  0.
   -2000013    1    1    2    0    0  0.11304697397E+04 -0.46084254392E+02 -0.11019891123E+04  0.18430858891E+04  0.95000000000E+03 0.  0.
<mgrwt>
<rscale>  0 0.33463846E+04</rscale>
<asrwt>0</asrwt>
<pdfrwt beam="2">  1        2 0.30833818E+00 0.33463846E+04</pdfrwt>
<pdfrwt beam="1">  1       -2 0.21490064E+00 0.33463846E+04</pdfrwt>
<totfact> 0.58895307E-01</totfact>
</mgrwt>
</event>
<event>
 4    1  0.2058093E-008  0.2344368E+04  0.7816531E-02  0.8460630E-01
          2   -1    0    0  501    0  0.00000000000E+00  0.00000000000E+00  0.81561522420E+03  0.81561522420E+03  0.00000000000E+00 0. -1.
         -2   -1    0    0    0  501 -0.00000000000E+00 -0.00000000000E+00 -0.16846368660E+04  0.16846368660E+04  0.00000000000E+00 0.  1.
    2000013    1    1    2    0    0  0.27143709405E+02  0.63978702551E+03 -0.17013400129E+03  0.11582356398E+04  0.95000000000E+03 0.  0.
   -2000013    1    1    2    0    0 -0.27143709405E+02 -0.63978702551E+03 -0.69888764050E+03  0.13420164504E+04  0.95000000000E+03 0.  0.
<mgrwt>
<rscale>  0 0.23443681E+04</rscale>
<asrwt>0</asrwt>
<pdfrwt beam="1">  1        2 0.12547927E+00 0.23443681E+04</pdfrwt>
<pdfrwt beam="2">  1       -2 0.25917490E+00 0.23443681E+04</pdfrwt>
<totfact> 0.17113405E+00</totfact>
</mgrwt>
</event>
<event>
 4    1  0.2058093E-008  0.2227600E+04  0.7816531E-02  0.8507027E-01
         -2   -1    0    0    0  501 -0.00000000000E+00  0.00000000000E+00  0.14976458422E+04  0.14976458422E+04  0.00000000000E+00 0. -1.
          2   -1    0    0  501    0  0.00000000000E+00 -0.00000000000E+00 -0.82833370690E+03  0.82833370690E+03  0.00000000000E+00 0.  1.
    2000013    1    1    2    0    0  0.31669699144E+03 -0.48447190849E+03  0.27707994377E+03  0.11464219597E+04  0.95000000000E+03 0.  0.
   -2000013    1    1    2    0    0 -0.31669699144E+03  0.48447190849E+03  0.39223219149E+03  0.11795575893E+04  0.95000000000E+03 0.  0.
<mgrwt>
<rscale>  0 0.22276001E+04</rscale>
<asrwt>0</asrwt>
<pdfrwt beam="2">  1        2 0.12743596E+00 0.22276001E+04</pdfrwt>
<pdfrwt beam="1">  1       -2 0.23040705E+00 0.22276001E+04</pdfrwt>
<totfact> 0.25474096E+00</totfact>
</mgrwt>
</event>
<event>
 4    1  0.2058093E-008  0.2301192E+04  0.7816531E-02  0.8477451E-01
          2   -1    0    0  501    0  0.00000000000E+00  0.00000000000E+00  0.83515491107E+03  0.83515491107E+03  0.00000000000E+00 0.  1.
         -2   -1    0    0    0  501 -0.00000000000E+00 -0.00000000000E+00 -0.15851806858E+04  0.15851806858E+04  0.00000000000E+00 0. -1.
    2000013    1    1    2    0    0 -0.61197749506E+03  0.21582897792E+03 -0.39238572465E+03  0.12155513807E+04  0.95000000000E+03 0.  0.
   -2000013    1    1    2    0    0  0.61197749506E+03 -0.21582897792E+03 -0.35764005008E+03  0.12047842162E+04  0.95000000000E+03 0.  0.
<mgrwt>
<rscale>  0 0.23011922E+04</rscale>
<asrwt>0</asrwt>
<pdfrwt beam="1">  1        2 0.12848537E+00 0.23011922E+04</pdfrwt>
<pdfrwt beam="2">  1       -2 0.24387395E+00 0.23011922E+04</pdfrwt>
<totfact> 0.20654599E+00</totfact>
</mgrwt>
</event>
<event>
 4    1  0.2058093E-008  0.2371952E+04  0.7816531E-02  0.8450080E-01
          2   -1    0    0  501    0  0.00000000000E+00  0.00000000000E+00  0.46463549476E+04  0.46463549476E+04  0.00000000000E+00 0.  1.
         -2   -1    0    0    0  501 -0.00000000000E+00 -0.00000000000E+00 -0.30271882091E+03  0.30271882091E+03  0.00000000000E+00 0. -1.
    2000013    1    1    2    0    0  0.51103638181E+03  0.45896147240E+03  0.25464318145E+04  0.28033228145E+04  0.95000000000E+03 0.  0.
   -2000013    1    1    2    0    0 -0.51103638181E+03 -0.45896147240E+03  0.17972043122E+04  0.21457509540E+04  0.95000000000E+03 0.  0.
<mgrwt>
<rscale>  0 0.23719520E+04</rscale>
<asrwt>0</asrwt>
<pdfrwt beam="1">  1        2 0.71482378E+00 0.23719520E+04</pdfrwt>
<pdfrwt beam="2">  1       -2 0.46572130E-01 0.23719520E+04</pdfrwt>
<totfact> 0.34793544E-01</totfact>
</mgrwt>
</event>
<event>
 4    1  0.2058093E-008  0.2104617E+04  0.7816531E-02  0.8559212E-01
         -2   -1    0    0    0  501 -0.00000000000E+00  0.00000000000E+00  0.77724015322E+03  0.77724015322E+03  0.00000000000E+00 0. -1.
          2   -1    0    0  501    0  0.00000000000E+00 -0.00000000000E+00 -0.14247248109E+04  0.14247248109E+04  0.00000000000E+00 0.  1.
    2000013    1    1    2    0    0  0.11024557320E+03 -0.33312883729E+03 -0.24644521805E+02  0.10130331984E+04  0.95000000000E+03 0.  0.
   -2000013    1    1    2    0    0 -0.11024557320E+03  0.33312883729E+03 -0.62284013587E+03  0.11889317657E+04  0.95000000000E+03 0.  0.
<mgrwt>
<rscale>  0 0.21046171E+04</rscale>
<asrwt>0</asrwt>
<pdfrwt beam="2">  1        2 0.21918843E+00 0.21046171E+04</pdfrwt>
<pdfrwt beam="1">  1       -2 0.11957541E+00 0.21046171E+04</pdfrwt>
<totfact> 0.69135619E+00</totfact>
</mgrwt>
</event>
<event>
 4    1  0.2058093E-008  0.2358067E+04  0.7816531E-02  0.8455371E-01
         -1   -1    0    0    0  501 -0.00000000000E+00  0.00000000000E+00  0.19697312546E+04  0.19697312546E+04  0.00000000000E+00 0.  1.
          1   -1    0    0  501    0  0.00000000000E+00 -0.00000000000E+00 -0.70574109674E+03  0.70574109674E+03  0.00000000000E+00 0. -1.
    2000013    1    1    2    0    0 -0.94088176219E+02  0.67187683758E+03  0.44435880485E+03  0.12490899956E+04  0.95000000000E+03 0.  0.
   -2000013    1    1    2    0    0  0.94088176219E+02 -0.67187683758E+03  0.81963135301E+03  0.14263823557E+04  0.95000000000E+03 0.  0.
<mgrwt>
<rscale>  0 0.23580673E+04</rscale>
<asrwt>0</asrwt>
<pdfrwt beam="2">  1        1 0.10857555E+00 0.23580673E+04</pdfrwt>
<pdfrwt beam="1">  1       -1 0.30303558E+00 0.23580673E+04</pdfrwt>
<totfact> 0.76391752E-01</totfact>
</mgrwt>
</event>
<event>
 4    1  0.2058093E-008  0.2465437E+04  0.7816531E-02  0.8415403E-01
         -2   -1    0    0    0  501 -0.00000000000E+00  0.00000000000E+00  0.10454884472E+04  0.10454884472E+04  0.00000000000E+00 0. -1.
          2   -1    0    0  501    0  0.00000000000E+00 -0.00000000000E+00 -0.14534782276E+04  0.14534782276E+04  0.00000000000E+00 0.  1.
    2000013    1    1    2    0    0 -0.21429168923E+03 -0.51251492311E+03  0.35898869429E+03  0.11575687267E+04  0.95000000000E+03 0.  0.
   -2000013    1    1    2    0    0  0.21429168923E+03  0.51251492311E+03 -0.76697847462E+03  0.13413979480E+04  0.95000000000E+03 0.  0.
<mgrwt>
<rscale>  0 0.24654368E+04</rscale>
<asrwt>0</asrwt>
<pdfrwt beam="2">  1        2 0.22361203E+00 0.24654368E+04</pdfrwt>
<pdfrwt beam="1">  1       -2 0.16084438E+00 0.24654368E+04</pdfrwt>
<totfact> 0.29960437E+00</totfact>
</mgrwt>
</event>
<event>
 4    1  0.2058093E-008  0.3052035E+04  0.7816531E-02  0.8229026E-01
         -1   -1    0    0    0  501 -0.00000000000E+00  0.00000000000E+00  0.15673559109E+04  0.15673559109E+04  0.00000000000E+00 0.  1.
          1   -1    0    0  501    0  0.00000000000E+00 -0.00000000000E+00 -0.14857692659E+04  0.14857692659E+04  0.00000000000E+00 0. -1.
    2000013    1    1    2    0    0 -0.38762464264E+03 -0.11169691985E+04 -0.12765978758E+03  0.15220611274E+04  0.95000000000E+03 0.  0.
   -2000013    1    1    2    0    0  0.38762464264E+03  0.11169691985E+04  0.20924643258E+03  0.15310640495E+04  0.95000000000E+03 0.  0.
<mgrwt>
<rscale>  0 0.30520349E+04</rscale>
<asrwt>0</asrwt>
<pdfrwt beam="2">  1        1 0.22857989E+00 0.30520349E+04</pdfrwt>
<pdfrwt beam="1">  1       -1 0.24113168E+00 0.30520349E+04</pdfrwt>
<totfact> 0.45190793E-01</totfact>
</mgrwt>
</event>
<event>
 4    1  0.2058093E-008  0.3536165E+04  0.7816531E-02  0.8105272E-01
         -2   -1    0    0    0  501 -0.00000000000E+00  0.00000000000E+00  0.19644205722E+04  0.19644205722E+04  0.00000000000E+00 0. -1.
          2   -1    0    0  501    0  0.00000000000E+00 -0.00000000000E+00 -0.15913682877E+04  0.15913682877E+04  0.00000000000E+00 0.  1.
    2000013    1    1    2    0    0  0.10307847437E+04 -0.39670920567E+03  0.11939446747E+04  0.18835868093E+04  0.95000000000E+03 0.  0.
   -2000013    1    1    2    0    0 -0.10307847437E+04  0.39670920567E+03 -0.82089239032E+03  0.16722020506E+04  0.95000000000E+03 0.  0.
<mgrwt>
<rscale>  0 0.35361655E+04</rscale>
<asrwt>0</asrwt>
<pdfrwt beam="2">  1        2 0.24482589E+00 0.35361655E+04</pdfrwt>
<pdfrwt beam="1">  1       -2 0.30221855E+00 0.35361655E+04</pdfrwt>
<totfact> 0.28457354E-01</totfact>
</mgrwt>
</event>
<event>
 4    1  0.2058093E-008  0.3184777E+04  0.7816531E-02  0.8192849E-01
         -2   -1    0    0    0  501 -0.00000000000E+00  0.00000000000E+00  0.81036057317E+03  0.81036057317E+03  0.00000000000E+00 0. -1.
          2   -1    0    0  501    0  0.00000000000E+00 -0.00000000000E+00 -0.31291017795E+04  0.31291017795E+04  0.00000000000E+00 0.  1.
    2000013    1    1    2    0    0 -0.51207544392E+03 -0.10930007768E+04 -0.63994957112E+03  0.16640034291E+04  0.95000000000E+03 0.  0.
   -2000013    1    1    2    0    0  0.51207544392E+03  0.10930007768E+04 -0.16787916352E+04  0.22754589236E+04  0.95000000000E+03 0.  0.
<mgrwt>
<rscale>  0 0.31847767E+04</rscale>
<asrwt>0</asrwt>
<pdfrwt beam="2">  1        2 0.48140028E+00 0.31847767E+04</pdfrwt>
<pdfrwt beam="1">  1       -2 0.12467086E+00 0.31847767E+04</pdfrwt>
<totfact> 0.58612067E-01</totfact>
</mgrwt>
</event>
<event>
 4    1  0.2058093E-008  0.2896512E+04  0.7816531E-02  0.8273916E-01
         -2   -1    0    0    0  501 -0.00000000000E+00  0.00000000000E+00  0.69001943780E+03  0.69001943780E+03  0.00000000000E+00 0. -1.
          2   -1    0    0  501    0  0.00000000000E+00 -0.00000000000E+00 -0.30396903035E+04  0.30396903035E+04  0.00000000000E+00 0.  1.
    2000013    1    1    2    0    0  0.90555397781E+03  0.61186155547E+03 -0.12048359982E+04  0.18837548547E+04  0.95000000000E+03 0.  0.
   -2000013    1    1    2    0    0 -0.90555397781E+03 -0.61186155547E+03 -0.11448348674E+04  0.18459548866E+04  0.95000000000E+03 0.  0.
<mgrwt>
<rscale>  0 0.28965120E+04</rscale>
<asrwt>0</asrwt>
<pdfrwt beam="2">  1        2 0.46764465E+00 0.28965120E+04</pdfrwt>
<pdfrwt beam="1">  1       -2 0.10615684E+00 0.28965120E+04</pdfrwt>
<totfact> 0.10154745E+00</totfact>
</mgrwt>
</event>
<event>
 4    1  0.2058093E-008  0.2632336E+04  0.7816531E-02  0.8357300E-01
          2   -1    0    0  501    0  0.00000000000E+00  0.00000000000E+00  0.27774111348E+04  0.27774111348E+04  0.00000000000E+00 0.  1.
         -2   -1    0    0    0  501 -0.00000000000E+00 -0.00000000000E+00 -0.62370957795E+03  0.62370957795E+03  0.00000000000E+00 0. -1.
    2000013    1    1    2    0    0 -0.12705902449E+03 -0.61732667300E+03  0.22707412667E+03  0.11624538167E+04  0.95000000000E+03 0.  0.
   -2000013    1    1    2    0    0  0.12705902449E+03  0.61732667300E+03  0.19266274301E+04  0.22386668961E+04  0.95000000000E+03 0.  0.
<mgrwt>
<rscale>  0 0.26323358E+04</rscale>
<asrwt>0</asrwt>
<pdfrwt beam="1">  1        2 0.42729401E+00 0.26323358E+04</pdfrwt>
<pdfrwt beam="2">  1       -2 0.95955321E-01 0.26323358E+04</pdfrwt>
<totfact> 0.19161297E+00</totfact>
</mgrwt>
</event>
<event>
 4    1  0.2058093E-008  0.2388004E+04  0.7816531E-02  0.8444008E-01
          2   -1    0    0  501    0  0.00000000000E+00  0.00000000000E+00  0.23150671622E+04  0.23150671622E+04  0.00000000000E+00 0.  1.
         -2   -1    0    0    0  501 -0.00000000000E+00 -0.00000000000E+00 -0.61580971969E+03  0.61580971969E+03  0.00000000000E+00 0. -1.
    2000013    1    1    2    0    0 -0.10358542882E+03 -0.56627538499E+03  0.31219811775E+03  0.11538480911E+04  0.95000000000E+03 0.  0.
   -2000013    1    1    2    0    0  0.10358542882E+03  0.56627538499E+03  0.13870593248E+04  0.17770287907E+04  0.95000000000E+03 0.  0.
<mgrwt>
<rscale>  0 0.23880041E+04</rscale>
<asrwt>0</asrwt>
<pdfrwt beam="1">  1        2 0.35616417E+00 0.23880041E+04</pdfrwt>
<pdfrwt beam="2">  1       -2 0.94739958E-01 0.23880041E+04</pdfrwt>
<totfact> 0.37525088E+00</totfact>
</mgrwt>
</event>
<event>
 4    1  0.2058093E-008  0.1970015E+04  0.7816531E-02  0.8620769E-01
         -2   -1    0    0    0  501 -0.00000000000E+00  0.00000000000E+00  0.40157512763E+03  0.40157512763E+03  0.00000000000E+00 0. -1.
          2   -1    0    0  501    0  0.00000000000E+00 -0.00000000000E+00 -0.24160856040E+04  0.24160856040E+04  0.00000000000E+00 0.  1.
    2000013    1    1    2    0    0  0.64826309632E+02  0.23919860804E+03 -0.89353759529E+03  0.13275269710E+04  0.95000000000E+03 0.  0.
   -2000013    1    1    2    0    0 -0.64826309632E+02 -0.23919860804E+03 -0.11209728811E+04  0.14901337607E+04  0.95000000000E+03 0.  0.
<mgrwt>
<rscale>  0 0.19700151E+04</rscale>
<asrwt>0</asrwt>
<pdfrwt beam="2">  1        2 0.37170548E+00 0.19700151E+04</pdfrwt>
<pdfrwt beam="1">  1       -2 0.61780789E-01 0.19700151E+04</pdfrwt>
<totfact> 0.88258261E+00</totfact>
</mgrwt>
</event>
<event>
 4    1  0.2058093E-008  0.2639954E+04  0.7816531E-02  0.8354755E-01
         -1   -1    0    0    0  501 -0.00000000000E+00  0.00000000000E+00  0.10112796484E+04  0.10112796484E+04  0.00000000000E+00 0. -1.
          1   -1    0    0  501    0  0.00000000000E+00 -0.00000000000E+00 -0.17229056842E+04  0.17229056842E+04  0.00000000000E+00 0.  1.
    2000013    1    1    2    0    0 -0.55857006314E+03 -0.41815392687E+03 -0.97114636480E+03  0.15272453908E+04  0.95000000000E+03 0.  0.
   -2000013    1    1    2    0    0  0.55857006314E+03  0.41815392687E+03  0.25952032901E+03  0.12069399418E+04  0.95000000000E+03 0.  0.
<mgrwt>
<rscale>  0 0.26399541E+04</rscale>
<asrwt>0</asrwt>
<pdfrwt beam="2">  1        1 0.26506241E+00 0.26399541E+04</pdfrwt>
<pdfrwt beam="1">  1       -1 0.15558149E+00 0.26399541E+04</pdfrwt>
<totfact> 0.12745407E+00</totfact>
</mgrwt>
</event>
<event>
 4    1  0.2058093E-008  0.2961946E+04  0.7816531E-02  0.8254682E-01
          2   -1    0    0  501    0  0.00000000000E+00  0.00000000000E+00  0.25823101406E+04  0.25823101406E+04  0.00000000000E+00 0.  1.
         -2   -1    0    0    0  501 -0.00000000000E+00 -0.00000000000E+00 -0.84934865430E+03  0.84934865430E+03  0.00000000000E+00 0. -1.
    2000013    1    1    2    0    0 -0.66047486280E+03  0.69619025032E+03  0.15710986050E+04  0.20716560370E+04  0.95000000000E+03 0.  0.
   -2000013    1    1    2    0    0  0.66047486280E+03 -0.69619025032E+03  0.16186288124E+03  0.13600027578E+04  0.95000000000E+03 0.  0.
<mgrwt>
<rscale>  0 0.29619464E+04</rscale>
<asrwt>0</asrwt>
<pdfrwt beam="1">  1        2 0.39727848E+00 0.29619464E+04</pdfrwt>
<pdfrwt beam="2">  1       -2 0.13066902E+00 0.29619464E+04</pdfrwt>
<totfact> 0.11470264E+00</totfact>
</mgrwt>
</event>
<event>
 4    1  0.2058093E-008  0.2477099E+04  0.7816531E-02  0.8411190E-01
          2   -1    0    0  501    0  0.00000000000E+00  0.00000000000E+00  0.40160261190E+04  0.40160261190E+04  0.00000000000E+00 0.  1.
         -2   -1    0    0    0  501 -0.00000000000E+00 -0.00000000000E+00 -0.38197090069E+03  0.38197090069E+03  0.00000000000E+00 0. -1.
    2000013    1    1    2    0    0  0.78388003902E+03 -0.11676526380E+03  0.17134544875E+04  0.21134162683E+04  0.95000000000E+03 0.  0.
   -2000013    1    1    2    0    0 -0.78388003902E+03  0.11676526380E+03  0.19206007309E+04  0.22845807515E+04  0.95000000000E+03 0.  0.
<mgrwt>
<rscale>  0 0.24770992E+04</rscale>
<asrwt>0</asrwt>
<pdfrwt beam="1">  1        2 0.61785014E+00 0.24770992E+04</pdfrwt>
<pdfrwt beam="2">  1       -2 0.58764757E-01 0.24770992E+04</pdfrwt>
<totfact> 0.80594710E-01</totfact>
</mgrwt>
</event>
<event>
 4    1  0.2058093E-008  0.3200274E+04  0.7816531E-02  0.8188745E-01
         -1   -1    0    0    0  501 -0.00000000000E+00  0.00000000000E+00  0.64596141678E+03  0.64596141678E+03  0.00000000000E+00 0.  1.
          1   -1    0    0  501    0  0.00000000000E+00 -0.00000000000E+00 -0.39637635588E+04  0.39637635588E+04  0.00000000000E+00 0. -1.
    2000013    1    1    2    0    0  0.82415353752E+03 -0.93657973360E+03 -0.11999355329E+04  0.19745267620E+04  0.95000000000E+03 0.  0.
   -2000013    1    1    2    0    0 -0.82415353752E+03  0.93657973360E+03 -0.21178666091E+04  0.26351982136E+04  0.95000000000E+03 0.  0.
<mgrwt>
<rscale>  0 0.32002739E+04</rscale>
<asrwt>0</asrwt>
<pdfrwt beam="2">  1        1 0.60980980E+00 0.32002739E+04</pdfrwt>
<pdfrwt beam="1">  1       -1 0.99378677E-01 0.32002739E+04</pdfrwt>
<totfact> 0.83366446E-02</totfact>
</mgrwt>
</event>
<event>
 4    1  0.2058093E-008  0.2635883E+04  0.7816531E-02  0.8356114E-01
          2   -1    0    0  501    0  0.00000000000E+00  0.00000000000E+00  0.33751188127E+04  0.33751188127E+04  0.00000000000E+00 0.  1.
         -2   -1    0    0    0  501 -0.00000000000E+00 -0.00000000000E+00 -0.51463961309E+03  0.51463961309E+03  0.00000000000E+00 0. -1.
    2000013    1    1    2    0    0  0.14571675978E+03 -0.89418839984E+03  0.12577437656E+04  0.18180279559E+04  0.95000000000E+03 0.  0.
   -2000013    1    1    2    0    0 -0.14571675978E+03  0.89418839984E+03  0.16027354341E+04  0.20717304699E+04  0.95000000000E+03 0.  0.
<mgrwt>
<rscale>  0 0.26358830E+04</rscale>
<asrwt>0</asrwt>
<pdfrwt beam="1">  1        2 0.51924903E+00 0.26358830E+04</pdfrwt>
<pdfrwt beam="2">  1       -2 0.79175327E-01 0.26358830E+04</pdfrwt>
<totfact> 0.12374156E+00</totfact>
</mgrwt>
</event>
<event>
 4    1  0.2058093E-008  0.2915598E+04  0.7816531E-02  0.8268252E-01
          2   -1    0    0  501    0  0.00000000000E+00  0.00000000000E+00  0.17253808877E+04  0.17253808877E+04  0.00000000000E+00 0. -1.
         -2   -1    0    0    0  501 -0.00000000000E+00 -0.00000000000E+00 -0.12317155300E+04  0.12317155300E+04  0.00000000000E+00 0.  1.
    2000013    1    1    2    0    0  0.81817686133E+03 -0.64585412378E+03  0.62105241584E+03  0.15410214239E+04  0.95000000000E+03 0.  0.
   -2000013    1    1    2    0    0 -0.81817686133E+03  0.64585412378E+03 -0.12738705813E+03  0.14160749938E+04  0.95000000000E+03 0.  0.
<mgrwt>
<rscale>  0 0.29155983E+04</rscale>
<asrwt>0</asrwt>
<pdfrwt beam="1">  1        2 0.26544321E+00 0.29155983E+04</pdfrwt>
<pdfrwt beam="2">  1       -2 0.18949470E+00 0.29155983E+04</pdfrwt>
<totfact> 0.12784495E+00</totfact>
</mgrwt>
</event>
<event>
 4    1  0.2058093E-008  0.2510248E+04  0.7816531E-02  0.8399344E-01
         -2   -1    0    0    0  501 -0.00000000000E+00  0.00000000000E+00  0.10276374134E+04  0.10276374134E+04  0.00000000000E+00 0.  1.
          2   -1    0    0  501    0  0.00000000000E+00 -0.00000000000E+00 -0.15329688716E+04  0.15329688716E+04  0.00000000000E+00 0. -1.
    2000013    1    1    2    0    0  0.60681682375E+03 -0.55070754153E+03 -0.21545499354E+03  0.12729596648E+04  0.95000000000E+03 0.  0.
   -2000013    1    1    2    0    0 -0.60681682375E+03  0.55070754153E+03 -0.28987646459E+03  0.12876466202E+04  0.95000000000E+03 0.  0.
<mgrwt>
<rscale>  0 0.25102479E+04</rscale>
<asrwt>0</asrwt>
<pdfrwt beam="2">  1        2 0.23584136E+00 0.25102479E+04</pdfrwt>
<pdfrwt beam="1">  1       -2 0.15809806E+00 0.25102479E+04</pdfrwt>
<totfact> 0.28206010E+00</totfact>
</mgrwt>
</event>
<event>
 4    1  0.2058093E-008  0.2072775E+04  0.7816531E-02  0.8573332E-01
         -2   -1    0    0    0  501 -0.00000000000E+00  0.00000000000E+00  0.10815119328E+04  0.10815119328E+04  0.00000000000E+00 0. -1.
          2   -1    0    0  501    0  0.00000000000E+00 -0.00000000000E+00 -0.99314545975E+03  0.99314545975E+03  0.00000000000E+00 0.  1.
    2000013    1    1    2    0    0  0.39323382842E+02  0.13709217412E+03 -0.34508913903E+03  0.10207483071E+04  0.95000000000E+03 0.  0.
   -2000013    1    1    2    0    0 -0.39323382842E+02 -0.13709217412E+03  0.43345561203E+03  0.10539090854E+04  0.95000000000E+03 0.  0.
<mgrwt>
<rscale>  0 0.20727746E+04</rscale>
<asrwt>0</asrwt>
<pdfrwt beam="2">  1        2 0.15279161E+00 0.20727746E+04</pdfrwt>
<pdfrwt beam="1">  1       -2 0.16638645E+00 0.20727746E+04</pdfrwt>
<totfact> 0.53158807E+00</totfact>
</mgrwt>
</event>
<event>
 4    1  0.2058093E-008  0.2156953E+04  0.7816531E-02  0.8536562E-01
          2   -1    0    0  501    0  0.00000000000E+00  0.00000000000E+00  0.37561130989E+04  0.37561130989E+04  0.00000000000E+00 0.  1.
         -2   -1    0    0    0  501 -0.00000000000E+00 -0.00000000000E+00 -0.30965827299E+03  0.30965827299E+03  0.00000000000E+00 0. -1.
    2000013    1    1    2    0    0 -0.47714008414E+03  0.22741404307E+02  0.20626860785E+04  0.23206364838E+04  0.95000000000E+03 0.  0.
   -2000013    1    1    2    0    0  0.47714008414E+03 -0.22741404307E+02  0.13837687473E+04  0.17451348880E+04  0.95000000000E+03 0.  0.
<mgrwt>
<rscale>  0 0.21569529E+04</rscale>
<asrwt>0</asrwt>
<pdfrwt beam="1">  1        2 0.57786352E+00 0.21569529E+04</pdfrwt>
<pdfrwt beam="2">  1       -2 0.47639737E-01 0.21569529E+04</pdfrwt>
<totfact> 0.20420520E+00</totfact>
</mgrwt>
</event>
<event>
 4    1  0.2058093E-008  0.2883302E+04  0.7816531E-02  0.8277863E-01
          2   -1    0    0  501    0  0.00000000000E+00  0.00000000000E+00  0.35790414312E+04  0.35790414312E+04  0.00000000000E+00 0.  1.
         -2   -1    0    0    0  501 -0.00000000000E+00 -0.00000000000E+00 -0.58070226213E+03  0.58070226213E+03  0.00000000000E+00 0. -1.
    2000013    1    1    2    0    0  0.29409738860E+03  0.10381871439E+04  0.16540947288E+04  0.21915417385E+04  0.95000000000E+03 0.  0.
   -2000013    1    1    2    0    0 -0.29409738860E+03 -0.10381871439E+04  0.13442444403E+04  0.19682019548E+04  0.95000000000E+03 0.  0.
<mgrwt>
<rscale>  0 0.28833019E+04</rscale>
<asrwt>0</asrwt>
<pdfrwt beam="1">  1        2 0.55062175E+00 0.28833019E+04</pdfrwt>
<pdfrwt beam="2">  1       -2 0.89338812E-01 0.28833019E+04</pdfrwt>
<totfact> 0.66371560E-01</totfact>
</mgrwt>
</event>
<event>
 4    1  0.2058093E-008  0.2396900E+04  0.7816531E-02  0.8440665E-01
         -2   -1    0    0    0  501 -0.00000000000E+00  0.00000000000E+00  0.40788616824E+03  0.40788616824E+03  0.00000000000E+00 0. -1.
          2   -1    0    0  501    0  0.00000000000E+00 -0.00000000000E+00 -0.35212824112E+04  0.35212824112E+04  0.00000000000E+00 0.  1.
    2000013    1    1    2    0    0  0.50124111874E+03  0.33605366180E+03 -0.22318064869E+04  0.24995269388E+04  0.95000000000E+03 0.  0.
   -2000013    1    1    2    0    0 -0.50124111874E+03 -0.33605366180E+03 -0.88158975608E+03  0.14296416407E+04  0.95000000000E+03 0.  0.
<mgrwt>
<rscale>  0 0.23969000E+04</rscale>
<asrwt>0</asrwt>
<pdfrwt beam="2">  1        2 0.54173576E+00 0.23969000E+04</pdfrwt>
<pdfrwt beam="1">  1       -2 0.62751718E-01 0.23969000E+04</pdfrwt>
<totfact> 0.16667773E+00</totfact>
</mgrwt>
</event>
<event>
 4    1  0.2058093E-008  0.2752517E+04  0.7816531E-02  0.8318163E-01
         -2   -1    0    0    0  501 -0.00000000000E+00  0.00000000000E+00  0.84088081847E+03  0.84088081847E+03  0.00000000000E+00 0. -1.
          2   -1    0    0  501    0  0.00000000000E+00 -0.00000000000E+00 -0.22525044365E+04  0.22525044365E+04  0.00000000000E+00 0.  1.
    2000013    1    1    2    0    0 -0.74367927861E+03  0.66009865382E+03 -0.76526565632E+03  0.15738235692E+04  0.95000000000E+03 0.  0.
   -2000013    1    1    2    0    0  0.74367927861E+03 -0.66009865382E+03 -0.64635796170E+03  0.15195616858E+04  0.95000000000E+03 0.  0.
<mgrwt>
<rscale>  0 0.27525172E+04</rscale>
<asrwt>0</asrwt>
<pdfrwt beam="2">  1        2 0.34653914E+00 0.27525172E+04</pdfrwt>
<pdfrwt beam="1">  1       -2 0.12936628E+00 0.27525172E+04</pdfrwt>
<totfact> 0.18525121E+00</totfact>
</mgrwt>
</event>
<event>
 4    1  0.2058093E-008  0.3006871E+04  0.7816531E-02  0.8241771E-01
         -2   -1    0    0    0  501 -0.00000000000E+00  0.00000000000E+00  0.14386435009E+04  0.14386435009E+04  0.00000000000E+00 0. -1.
          2   -1    0    0  501    0  0.00000000000E+00 -0.00000000000E+00 -0.15711460007E+04  0.15711460007E+04  0.00000000000E+00 0.  1.
    2000013    1    1    2    0    0 -0.66390556728E+03 -0.95229524049E+03 -0.16725584314E+03  0.15093413611E+04  0.95000000000E+03 0.  0.
   -2000013    1    1    2    0    0  0.66390556728E+03  0.95229524049E+03  0.34753343375E+02  0.15004481405E+04  0.95000000000E+03 0.  0.
<mgrwt>
<rscale>  0 0.30068715E+04</rscale>
<asrwt>0</asrwt>
<pdfrwt beam="2">  1        2 0.24171477E+00 0.30068715E+04</pdfrwt>
<pdfrwt beam="1">  1       -2 0.22132977E+00 0.30068715E+04</pdfrwt>
<totfact> 0.96003268E-01</totfact>
</mgrwt>
</event>
<event>
 4    1  0.2058093E-008  0.3559727E+04  0.7816531E-02  0.8099779E-01
         -2   -1    0    0    0  501 -0.00000000000E+00  0.00000000000E+00  0.10361865421E+04  0.10361865421E+04  0.00000000000E+00 0. -1.
          2   -1    0    0  501    0  0.00000000000E+00 -0.00000000000E+00 -0.30572815786E+04  0.30572815786E+04  0.00000000000E+00 0.  1.
    2000013    1    1    2    0    0 -0.10357553953E+03 -0.14946751260E+04 -0.11757245381E+04  0.21282880007E+04  0.95000000000E+03 0.  0.
   -2000013    1    1    2    0    0  0.10357553953E+03  0.14946751260E+04 -0.84537049833E+03  0.19651801200E+04  0.95000000000E+03 0.  0.
<mgrwt>
<rscale>  0 0.35597270E+04</rscale>
<asrwt>0</asrwt>
<pdfrwt beam="2">  1        2 0.47035100E+00 0.35597270E+04</pdfrwt>
<pdfrwt beam="1">  1       -2 0.15941332E+00 0.35597270E+04</pdfrwt>
<totfact> 0.33305948E-01</totfact>
</mgrwt>
</event>
<event>
 4    1  0.2058093E-008  0.2243837E+04  0.7816531E-02  0.8500401E-01
          2   -1    0    0  501    0  0.00000000000E+00  0.00000000000E+00  0.16498700494E+04  0.16498700494E+04  0.00000000000E+00 0.  1.
         -2   -1    0    0    0  501 -0.00000000000E+00 -0.00000000000E+00 -0.76290933701E+03  0.76290933701E+03  0.00000000000E+00 0. -1.
    2000013    1    1    2    0    0  0.47778899854E+03 -0.10465499697E+03  0.75727034540E+02  0.10712000650E+04  0.95000000000E+03 0.  0.
   -2000013    1    1    2    0    0 -0.47778899854E+03  0.10465499697E+03  0.81123367782E+03  0.13415793214E+04  0.95000000000E+03 0.  0.
<mgrwt>
<rscale>  0 0.22438371E+04</rscale>
<asrwt>0</asrwt>
<pdfrwt beam="1">  1        2 0.25382616E+00 0.22438371E+04</pdfrwt>
<pdfrwt beam="2">  1       -2 0.11737067E+00 0.22438371E+04</pdfrwt>
<totfact> 0.53435309E+00</totfact>
</mgrwt>
</event>
<event>
 4    1  0.2058093E-008  0.2985678E+04  0.7816531E-02  0.8247833E-01
          2   -1    0    0  501    0  0.00000000000E+00  0.00000000000E+00  0.28454642730E+04  0.28454642730E+04  0.00000000000E+00 0.  1.
         -2   -1    0    0    0  501 -0.00000000000E+00 -0.00000000000E+00 -0.78320002118E+03  0.78320002118E+03  0.00000000000E+00 0. -1.
    2000013    1    1    2    0    0 -0.71631032153E+03  0.89547707601E+03  0.90315549990E+03  0.17415997035E+04  0.95000000000E+03 0.  0.
   -2000013    1    1    2    0    0  0.71631032153E+03 -0.89547707601E+03  0.11591087519E+04  0.18870645906E+04  0.95000000000E+03 0.  0.
<mgrwt>
<rscale>  0 0.29856776E+04</rscale>
<asrwt>0</asrwt>
<pdfrwt beam="1">  1        2 0.43776373E+00 0.29856776E+04</pdfrwt>
<pdfrwt beam="2">  1       -2 0.12049231E+00 0.29856776E+04</pdfrwt>
<totfact> 0.97697704E-01</totfact>
</mgrwt>
</event>
<event>
 4    1  0.2058093E-008  0.2807851E+04  0.7816531E-02  0.8300835E-01
          2   -1    0    0  501    0  0.00000000000E+00  0.00000000000E+00  0.12558505098E+04  0.12558505098E+04  0.00000000000E+00 0.  1.
         -2   -1    0    0    0  501 -0.00000000000E+00 -0.00000000000E+00 -0.15694597683E+04  0.15694597683E+04  0.00000000000E+00 0. -1.
    2000013    1    1    2    0    0  0.97938296985E+03 -0.28502891901E+03 -0.32540054473E+03  0.14313692748E+04  0.95000000000E+03 0.  0.
   -2000013    1    1    2    0    0 -0.97938296985E+03  0.28502891901E+03  0.11791286277E+02  0.13939410033E+04  0.95000000000E+03 0.  0.
<mgrwt>
<rscale>  0 0.28078510E+04</rscale>
<asrwt>0</asrwt>
<pdfrwt beam="1">  1        2 0.19320777E+00 0.28078510E+04</pdfrwt>
<pdfrwt beam="2">  1       -2 0.24145535E+00 0.28078510E+04</pdfrwt>
<totfact> 0.11071295E+00</totfact>
</mgrwt>
</event>
<event>
 4    1  0.2058093E-008  0.2352996E+04  0.7816531E-02  0.8457314E-01
         -2   -1    0    0    0  501 -0.00000000000E+00  0.00000000000E+00  0.16665398809E+04  0.16665398809E+04  0.00000000000E+00 0. -1.
          2   -1    0    0  501    0  0.00000000000E+00 -0.00000000000E+00 -0.83055138060E+03  0.83055138060E+03  0.00000000000E+00 0.  1.
    2000013    1    1    2    0    0 -0.41020643463E+03  0.15651023863E+03  0.98838663896E+03  0.14395044015E+04  0.95000000000E+03 0.  0.
   -2000013    1    1    2    0    0  0.41020643463E+03 -0.15651023863E+03 -0.15239813866E+03  0.10575868600E+04  0.95000000000E+03 0.  0.
<mgrwt>
<rscale>  0 0.23529955E+04</rscale>
<asrwt>0</asrwt>
<pdfrwt beam="2">  1        2 0.12777714E+00 0.23529955E+04</pdfrwt>
<pdfrwt beam="1">  1       -2 0.25639075E+00 0.23529955E+04</pdfrwt>
<totfact> 0.17356002E+00</totfact>
</mgrwt>
</event>
<event>
 4    1  0.2058093E-008  0.3231729E+04  0.7816531E-02  0.8180487E-01
         -2   -1    0    0    0  501 -0.00000000000E+00  0.00000000000E+00  0.16133383720E+04  0.16133383720E+04  0.00000000000E+00 0. -1.
          2   -1    0    0  501    0  0.00000000000E+00 -0.00000000000E+00 -0.16183948820E+04  0.16183948820E+04  0.00000000000E+00 0.  1.
    2000013    1    1    2    0    0 -0.10805156880E+04  0.70834507562E+03 -0.20064882992E+03  0.16161766151E+04  0.95000000000E+03 0.  0.
   -2000013    1    1    2    0    0  0.10805156880E+04 -0.70834507562E+03  0.19559231990E+03  0.16155566390E+04  0.95000000000E+03 0.  0.
<mgrwt>
<rscale>  0 0.32317293E+04</rscale>
<asrwt>0</asrwt>
<pdfrwt beam="2">  1        2 0.24898383E+00 0.32317293E+04</pdfrwt>
<pdfrwt beam="1">  1       -2 0.24820590E+00 0.32317293E+04</pdfrwt>
<totfact> 0.60295424E-01</totfact>
</mgrwt>
</event>
<event>
 4    1  0.2058093E-008  0.2522391E+04  0.7816531E-02  0.8395052E-01
          1   -1    0    0  501    0  0.00000000000E+00  0.00000000000E+00  0.17431799207E+04  0.17431799207E+04  0.00000000000E+00 0.  1.
         -1   -1    0    0    0  501 -0.00000000000E+00 -0.00000000000E+00 -0.91247843044E+03  0.91247843044E+03  0.00000000000E+00 0. -1.
    2000013    1    1    2    0    0 -0.69308636370E+03  0.37702401641E+03  0.68500418264E+03  0.14121779444E+04  0.95000000000E+03 0.  0.
   -2000013    1    1    2    0    0  0.69308636370E+03 -0.37702401641E+03  0.14569730764E+03  0.12434804067E+04  0.95000000000E+03 0.  0.
<mgrwt>
<rscale>  0 0.25223910E+04</rscale>
<asrwt>0</asrwt>
<pdfrwt beam="1">  1        1 0.26818153E+00 0.25223910E+04</pdfrwt>
<pdfrwt beam="2">  1       -1 0.14038130E+00 0.25223910E+04</pdfrwt>
<totfact> 0.16433772E+00</totfact>
</mgrwt>
</event>
<event>
 4    1  0.2058093E-008  0.1964801E+04  0.7816531E-02  0.8623256E-01
         -2   -1    0    0    0  501 -0.00000000000E+00  0.00000000000E+00  0.19590650985E+04  0.19590650985E+04  0.00000000000E+00 0. -1.
          2   -1    0    0  501    0  0.00000000000E+00 -0.00000000000E+00 -0.49263840205E+03  0.49263840205E+03  0.00000000000E+00 0.  1.
    2000013    1    1    2    0    0 -0.69146575757E+02  0.20865556050E+03  0.58403679577E+03  0.11366254311E+04  0.95000000000E+03 0.  0.
   -2000013    1    1    2    0    0  0.69146575757E+02 -0.20865556050E+03  0.88238990067E+03  0.13150780694E+04  0.95000000000E+03 0.  0.
<mgrwt>
<rscale>  0 0.19648010E+04</rscale>
<asrwt>0</asrwt>
<pdfrwt beam="2">  1        2 0.75790525E-01 0.19648010E+04</pdfrwt>
<pdfrwt beam="1">  1       -2 0.30139462E+00 0.19648010E+04</pdfrwt>
<totfact> 0.18213143E+00</totfact>
</mgrwt>
</event>
<event>
 4    1  0.2058093E-008  0.2042827E+04  0.7816531E-02  0.8586855E-01
          2   -1    0    0  501    0  0.00000000000E+00  0.00000000000E+00  0.12723177956E+04  0.12723177956E+04  0.00000000000E+00 0.  1.
         -2   -1    0    0    0  501 -0.00000000000E+00 -0.00000000000E+00 -0.81998797775E+03  0.81998797775E+03  0.00000000000E+00 0. -1.
    2000013    1    1    2    0    0 -0.32965024575E+03 -0.54812951979E+02  0.51411243355E+02  0.10083733734E+04  0.95000000000E+03 0.  0.
   -2000013    1    1    2    0    0  0.32965024575E+03  0.54812951979E+02  0.40091857444E+03  0.10839323999E+04  0.95000000000E+03 0.  0.
<mgrwt>
<rscale>  0 0.20428268E+04</rscale>
<asrwt>0</asrwt>
<pdfrwt beam="1">  1        2 0.19574120E+00 0.20428268E+04</pdfrwt>
<pdfrwt beam="2">  1       -2 0.12615200E+00 0.20428268E+04</pdfrwt>
<totfact> 0.74453955E+00</totfact>
</mgrwt>
</event>
<event>
 4    1  0.2058093E-008  0.1990998E+04  0.7816531E-02  0.8610841E-01
          2   -1    0    0  501    0  0.00000000000E+00  0.00000000000E+00  0.47106744687E+03  0.47106744687E+03  0.00000000000E+00 0.  1.
         -2   -1    0    0    0  501 -0.00000000000E+00 -0.00000000000E+00 -0.21037708175E+04  0.21037708175E+04  0.00000000000E+00 0. -1.
    2000013    1    1    2    0    0 -0.17989477583E+03 -0.21861488250E+03 -0.69808311430E+03  0.12124251035E+04  0.95000000000E+03 0.  0.
   -2000013    1    1    2    0    0  0.17989477583E+03  0.21861488250E+03 -0.93462025630E+03  0.13624131608E+04  0.95000000000E+03 0.  0.
<mgrwt>
<rscale>  0 0.19909977E+04</rscale>
<asrwt>0</asrwt>
<pdfrwt beam="1">  1        2 0.72471916E-01 0.19909977E+04</pdfrwt>
<pdfrwt beam="2">  1       -2 0.32365704E+00 0.19909977E+04</pdfrwt>
<totfact> 0.13967888E+00</totfact>
</mgrwt>
</event>
<event>
 4    1  0.2058093E-008  0.2277829E+04  0.7816531E-02  0.8486714E-01
          2   -1    0    0  501    0  0.00000000000E+00  0.00000000000E+00  0.30355687251E+04  0.30355687251E+04  0.00000000000E+00 0.  1.
         -2   -1    0    0    0  501 -0.00000000000E+00 -0.00000000000E+00 -0.42730920583E+03  0.42730920583E+03  0.00000000000E+00 0. -1.
    2000013    1    1    2    0    0 -0.12470262479E+03 -0.61562550806E+03  0.12904516702E+04  0.17211365501E+04  0.95000000000E+03 0.  0.
   -2000013    1    1    2    0    0  0.12470262479E+03  0.61562550806E+03  0.13178078491E+04  0.17417413809E+04  0.95000000000E+03 0.  0.
<mgrwt>
<rscale>  0 0.22778292E+04</rscale>
<asrwt>0</asrwt>
<pdfrwt beam="1">  1        2 0.46701056E+00 0.22778292E+04</pdfrwt>
<pdfrwt beam="2">  1       -2 0.65739880E-01 0.22778292E+04</pdfrwt>
<totfact> 0.32031533E+00</totfact>
</mgrwt>
</event>
<event>
 4    1  0.2058093E-008  0.2384556E+04  0.7816531E-02  0.8445308E-01
         -2   -1    0    0    0  501 -0.00000000000E+00  0.00000000000E+00  0.98885076595E+03  0.98885076595E+03  0.00000000000E+00 0. -1.
          2   -1    0    0  501    0  0.00000000000E+00 -0.00000000000E+00 -0.14375545619E+04  0.14375545619E+04  0.00000000000E+00 0.  1.
    2000013    1    1    2    0    0  0.65534361612E+03 -0.29439616984E+03 -0.16972007244E+03  0.12030998558E+04  0.95000000000E+03 0.  0.
   -2000013    1    1    2    0    0 -0.65534361612E+03  0.29439616984E+03 -0.27898372351E+03  0.12233054721E+04  0.95000000000E+03 0.  0.
<mgrwt>
<rscale>  0 0.23845561E+04</rscale>
<asrwt>0</asrwt>
<pdfrwt beam="2">  1        2 0.22116224E+00 0.23845561E+04</pdfrwt>
<pdfrwt beam="1">  1       -2 0.15213089E+00 0.23845561E+04</pdfrwt>
<totfact> 0.35792652E+00</totfact>
</mgrwt>
</event>
<event>
 4    1  0.2058093E-008  0.2780795E+04  0.7816531E-02  0.8309256E-01
          2   -1    0    0  501    0  0.00000000000E+00  0.00000000000E+00  0.29530002045E+04  0.29530002045E+04  0.00000000000E+00 0.  1.
         -2   -1    0    0    0  501 -0.00000000000E+00 -0.00000000000E+00 -0.65465811738E+03  0.65465811738E+03  0.00000000000E+00 0. -1.
    2000013    1    1    2    0    0  0.14321546426E+03 -0.77535885217E+03  0.31946314085E+03  0.12752445715E+04  0.95000000000E+03 0.  0.
   -2000013    1    1    2    0    0 -0.14321546426E+03  0.77535885217E+03  0.19788789463E+04  0.23324137503E+04  0.95000000000E+03 0.  0.
<mgrwt>
<rscale>  0 0.27807952E+04</rscale>
<asrwt>0</asrwt>
<pdfrwt beam="1">  1        2 0.45430772E+00 0.27807952E+04</pdfrwt>
<pdfrwt beam="2">  1       -2 0.10071664E+00 0.27807952E+04</pdfrwt>
<totfact> 0.13179922E+00</totfact>
</mgrwt>
</event>
<event>
 4    1  0.2058093E-008  0.2346662E+04  0.7816531E-02  0.8459747E-01
         -2   -1    0    0    0  501 -0.00000000000E+00  0.00000000000E+00  0.52938092824E+03  0.52938092824E+03  0.00000000000E+00 0. -1.
          2   -1    0    0  501    0  0.00000000000E+00 -0.00000000000E+00 -0.26005959501E+04  0.26005959501E+04  0.00000000000E+00 0.  1.
    2000013    1    1    2    0    0  0.43003334905E+03  0.31758795399E+03 -0.45664771140E+03  0.11818705183E+04  0.95000000000E+03 0.  0.
   -2000013    1    1    2    0    0 -0.43003334905E+03 -0.31758795399E+03 -0.16145673105E+04  0.19481063600E+04  0.95000000000E+03 0.  0.
<mgrwt>
<rscale>  0 0.23466622E+04</rscale>
<asrwt>0</asrwt>
<pdfrwt beam="2">  1        2 0.40009169E+00 0.23466622E+04</pdfrwt>
<pdfrwt beam="1">  1       -2 0.81443219E-01 0.23466622E+04</pdfrwt>
<totfact> 0.36462207E+00</totfact>
</mgrwt>
</event>
<event>
 4    1  0.2058093E-008  0.2901935E+04  0.7816531E-02  0.8272302E-01
          2   -1    0    0  501    0  0.00000000000E+00  0.00000000000E+00  0.20806377638E+04  0.20806377638E+04  0.00000000000E+00 0.  1.
         -2   -1    0    0    0  501 -0.00000000000E+00 -0.00000000000E+00 -0.10118563171E+04  0.10118563171E+04  0.00000000000E+00 0. -1.
    2000013    1    1    2    0    0  0.54110385317E+03 -0.89967180273E+03  0.19638172185E+03  0.14294294362E+04  0.95000000000E+03 0.  0.
   -2000013    1    1    2    0    0 -0.54110385317E+03  0.89967180273E+03  0.87239972477E+03  0.16630646447E+04  0.95000000000E+03 0.  0.
<mgrwt>
<rscale>  0 0.29019348E+04</rscale>
<asrwt>0</asrwt>
<pdfrwt beam="1">  1        2 0.32009812E+00 0.29019348E+04</pdfrwt>
<pdfrwt beam="2">  1       -2 0.15567020E+00 0.29019348E+04</pdfrwt>
<totfact> 0.14106410E+00</totfact>
</mgrwt>
</event>
<event>
 4    1  0.2058093E-008  0.2312240E+04  0.7816531E-02  0.8473111E-01
         -2   -1    0    0    0  501 -0.00000000000E+00  0.00000000000E+00  0.57256151310E+03  0.57256151310E+03  0.00000000000E+00 0. -1.
          2   -1    0    0  501    0  0.00000000000E+00 -0.00000000000E+00 -0.23344450078E+04  0.23344450078E+04  0.00000000000E+00 0.  1.
    2000013    1    1    2    0    0  0.57123660407E+03  0.11932931438E+03 -0.12655019202E+04  0.16865781492E+04  0.95000000000E+03 0.  0.
   -2000013    1    1    2    0    0 -0.57123660407E+03 -0.11932931438E+03 -0.49638157446E+03  0.12204283717E+04  0.95000000000E+03 0.  0.
<mgrwt>
<rscale>  0 0.23122399E+04</rscale>
<asrwt>0</asrwt>
<pdfrwt beam="2">  1        2 0.35914539E+00 0.23122399E+04</pdfrwt>
<pdfrwt beam="1">  1       -2 0.88086386E-01 0.23122399E+04</pdfrwt>
<totfact> 0.43580447E+00</totfact>
</mgrwt>
</event>
<event>
 4    1  0.2058093E-008  0.2407473E+04  0.7816531E-02  0.8436711E-01
         -2   -1    0    0    0  501 -0.00000000000E+00  0.00000000000E+00  0.20763037825E+04  0.20763037825E+04  0.00000000000E+00 0. -1.
          2   -1    0    0  501    0  0.00000000000E+00 -0.00000000000E+00 -0.69786560877E+03  0.69786560877E+03  0.00000000000E+00 0.  1.
    2000013    1    1    2    0    0  0.23639020078E+03 -0.51784423990E+03  0.12326897978E+04  0.16571261634E+04  0.95000000000E+03 0.  0.
   -2000013    1    1    2    0    0 -0.23639020078E+03  0.51784423990E+03  0.14574837593E+03  0.11170432279E+04  0.95000000000E+03 0.  0.
<mgrwt>
<rscale>  0 0.24074725E+04</rscale>
<asrwt>0</asrwt>
<pdfrwt beam="2">  1        2 0.10736394E+00 0.24074725E+04</pdfrwt>
<pdfrwt beam="1">  1       -2 0.31943135E+00 0.24074725E+04</pdfrwt>
<totfact> 0.89269781E-01</totfact>
</mgrwt>
</event>
<event>
 4    1  0.2058093E-008  0.2413605E+04  0.7816531E-02  0.8434427E-01
          1   -1    0    0  501    0  0.00000000000E+00  0.00000000000E+00  0.20608934667E+04  0.20608934667E+04  0.00000000000E+00 0.  1.
         -1   -1    0    0    0  501 -0.00000000000E+00 -0.00000000000E+00 -0.70667048038E+03  0.70667048038E+03  0.00000000000E+00 0. -1.
    2000013    1    1    2    0    0  0.39340449087E+03  0.31090961630E+03  0.13077079627E+04  0.16923451180E+04  0.95000000000E+03 0.  0.
   -2000013    1    1    2    0    0 -0.39340449087E+03 -0.31090961630E+03  0.46515023670E+02  0.10752188291E+04  0.95000000000E+03 0.  0.
<mgrwt>
<rscale>  0 0.24136053E+04</rscale>
<asrwt>0</asrwt>
<pdfrwt beam="1">  1        1 0.31706053E+00 0.24136053E+04</pdfrwt>
<pdfrwt beam="2">  1       -1 0.10871854E+00 0.24136053E+04</pdfrwt>
<totfact> 0.19022989E+00</totfact>
</mgrwt>
</event>
<event>
 4    1  0.2058093E-008  0.2837252E+04  0.7816531E-02  0.8291795E-01
          2   -1    0    0  501    0  0.00000000000E+00  0.00000000000E+00  0.34965332639E+04  0.34965332639E+04  0.00000000000E+00 0.  1.
         -2   -1    0    0    0  501 -0.00000000000E+00 -0.00000000000E+00 -0.57557018573E+03  0.57557018573E+03  0.00000000000E+00 0. -1.
    2000013    1    1    2    0    0  0.18500342861E+03  0.27894735613E+03  0.28942463597E+04  0.30645064671E+04  0.95000000000E+03 0.  0.
   -2000013    1    1    2    0    0 -0.18500342861E+03 -0.27894735613E+03  0.26716718399E+02  0.10075969825E+04  0.95000000000E+03 0.  0.
<mgrwt>
<rscale>  0 0.28372524E+04</rscale>
<asrwt>0</asrwt>
<pdfrwt beam="1">  1        2 0.53792818E+00 0.28372524E+04</pdfrwt>
<pdfrwt beam="2">  1       -2 0.88549261E-01 0.28372524E+04</pdfrwt>
<totfact> 0.77788739E-01</totfact>
</mgrwt>
</event>
<event>
 4    1  0.2058093E-008  0.2268472E+04  0.7816531E-02  0.8490457E-01
          2   -1    0    0  501    0  0.00000000000E+00  0.00000000000E+00  0.20510422956E+04  0.20510422956E+04  0.00000000000E+00 0.  1.
         -2   -1    0    0    0  501 -0.00000000000E+00 -0.00000000000E+00 -0.62723793728E+03  0.62723793728E+03  0.00000000000E+00 0. -1.
    2000013    1    1    2    0    0 -0.25962436787E+03 -0.56264878836E+03  0.70763425696E+03  0.13368712403E+04  0.95000000000E+03 0.  0.
   -2000013    1    1    2    0    0  0.25962436787E+03  0.56264878836E+03  0.71617010139E+03  0.13414089926E+04  0.95000000000E+03 0.  0.
<mgrwt>
<rscale>  0 0.22684722E+04</rscale>
<asrwt>0</asrwt>
<pdfrwt beam="1">  1        2 0.31554497E+00 0.22684722E+04</pdfrwt>
<pdfrwt beam="2">  1       -2 0.96498145E-01 0.22684722E+04</pdfrwt>
<totfact> 0.51098449E+00</totfact>
</mgrwt>
</event>
<event>
 4    1  0.2058093E-008  0.3325092E+04  0.7816531E-02  0.8156540E-01
          2   -1    0    0  501    0  0.00000000000E+00  0.00000000000E+00  0.33455144234E+04  0.33455144234E+04  0.00000000000E+00 0. -1.
         -2   -1    0    0    0  501 -0.00000000000E+00 -0.00000000000E+00 -0.82619842402E+03  0.82619842402E+03  0.00000000000E+00 0.  1.
    2000013    1    1    2    0    0 -0.92147722580E+03 -0.99217407985E+03  0.14697043102E+04  0.22127043277E+04  0.95000000000E+03 0.  0.
   -2000013    1    1    2    0    0  0.92147722580E+03  0.99217407985E+03  0.10496116892E+04  0.19590085198E+04  0.95000000000E+03 0.  0.
<mgrwt>
<rscale>  0 0.33250917E+04</rscale>
<asrwt>0</asrwt>
<pdfrwt beam="1">  1        2 0.51469452E+00 0.33250917E+04</pdfrwt>
<pdfrwt beam="2">  1       -2 0.12710745E+00 0.33250917E+04</pdfrwt>
<totfact> 0.39733005E-01</totfact>
</mgrwt>
</event>
<event>
 4    1  0.2058093E-008  0.2079545E+04  0.7816531E-02  0.8570308E-01
          2   -1    0    0  501    0  0.00000000000E+00  0.00000000000E+00  0.19217629241E+04  0.19217629241E+04  0.00000000000E+00 0.  1.
         -2   -1    0    0    0  501 -0.00000000000E+00 -0.00000000000E+00 -0.56257060629E+03  0.56257060629E+03  0.00000000000E+00 0. -1.
    2000013    1    1    2    0    0 -0.17058702121E+03 -0.33814951223E+03  0.90367644503E+03  0.13647623023E+04  0.95000000000E+03 0.  0.
   -2000013    1    1    2    0    0  0.17058702121E+03  0.33814951223E+03  0.45551587278E+03  0.11195712281E+04  0.95000000000E+03 0.  0.
<mgrwt>
<rscale>  0 0.20795455E+04</rscale>
<asrwt>0</asrwt>
<pdfrwt beam="1">  1        2 0.29565583E+00 0.20795455E+04</pdfrwt>
<pdfrwt beam="2">  1       -2 0.86549325E-01 0.20795455E+04</pdfrwt>
<totfact> 0.78812969E+00</totfact>
</mgrwt>
</event>
<event>
 4    1  0.2058093E-008  0.2932189E+04  0.7816531E-02  0.8263364E-01
          2   -1    0    0  501    0  0.00000000000E+00  0.00000000000E+00  0.21032280750E+04  0.21032280750E+04  0.00000000000E+00 0.  1.
         -2   -1    0    0    0  501 -0.00000000000E+00 -0.00000000000E+00 -0.10219685120E+04  0.10219685120E+04  0.00000000000E+00 0. -1.
    2000013    1    1    2    0    0  0.80092261598E+03  0.44420175005E+03 -0.14028117243E+03  0.13270158397E+04  0.95000000000E+03 0.  0.
   -2000013    1    1    2    0    0 -0.80092261598E+03 -0.44420175005E+03  0.12215407354E+04  0.17981807472E+04  0.95000000000E+03 0.  0.
<mgrwt>
<rscale>  0 0.29321889E+04</rscale>
<asrwt>0</asrwt>
<pdfrwt beam="1">  1        2 0.32357355E+00 0.29321889E+04</pdfrwt>
<pdfrwt beam="2">  1       -2 0.15722593E+00 0.29321889E+04</pdfrwt>
<totfact> 0.13305503E+00</totfact>
</mgrwt>
</event>
<event>
 4    1  0.2058093E-008  0.2191809E+04  0.7816531E-02  0.8521845E-01
          2   -1    0    0  501    0  0.00000000000E+00  0.00000000000E+00  0.15656218746E+04  0.15656218746E+04  0.00000000000E+00 0.  1.
         -2   -1    0    0    0  501 -0.00000000000E+00 -0.00000000000E+00 -0.76711124563E+03  0.76711124563E+03  0.00000000000E+00 0. -1.
    2000013    1    1    2    0    0 -0.34743948707E+03  0.23120764256E+03  0.23972133621E+02  0.10379045401E+04  0.95000000000E+03 0.  0.
   -2000013    1    1    2    0    0  0.34743948707E+03 -0.23120764256E+03  0.77453849536E+03  0.12948285801E+04  0.95000000000E+03 0.  0.
<mgrwt>
<rscale>  0 0.21918085E+04</rscale>
<asrwt>0</asrwt>
<pdfrwt beam="1">  1        2 0.24086490E+00 0.21918085E+04</pdfrwt>
<pdfrwt beam="2">  1       -2 0.11801711E+00 0.21918085E+04</pdfrwt>
<totfact> 0.59017951E+00</totfact>
</mgrwt>
</event>
<event>
 4    1  0.2058093E-008  0.2549380E+04  0.7816531E-02  0.8385602E-01
          2   -1    0    0  501    0  0.00000000000E+00  0.00000000000E+00  0.25308054747E+04  0.25308054747E+04  0.00000000000E+00 0.  1.
         -2   -1    0    0    0  501 -0.00000000000E+00 -0.00000000000E+00 -0.64202265384E+03  0.64202265384E+03  0.00000000000E+00 0. -1.
    2000013    1    1    2    0    0 -0.82296419802E+03 -0.20317524586E+03  0.10209508547E+04  0.16319898589E+04  0.95000000000E+03 0.  0.
   -2000013    1    1    2    0    0  0.82296419802E+03  0.20317524586E+03  0.86783196613E+03  0.15408382696E+04  0.95000000000E+03 0.  0.
<mgrwt>
<rscale>  0 0.25493799E+04</rscale>
<asrwt>0</asrwt>
<pdfrwt beam="1">  1        2 0.38935468E+00 0.25493799E+04</pdfrwt>
<pdfrwt beam="2">  1       -2 0.98772717E-01 0.25493799E+04</pdfrwt>
<totfact> 0.25231359E+00</totfact>
</mgrwt>
</event>
<event>
 4    1  0.2058093E-008  0.2540211E+04  0.7816531E-02  0.8388799E-01
         -2   -1    0    0    0  501 -0.00000000000E+00  0.00000000000E+00  0.21210130755E+04  0.21210130755E+04  0.00000000000E+00 0. -1.
          2   -1    0    0  501    0  0.00000000000E+00 -0.00000000000E+00 -0.76056495212E+03  0.76056495212E+03  0.00000000000E+00 0.  1.
    2000013    1    1    2    0    0  0.67291689958E+03  0.40761464620E+03  0.33670690157E+03  0.12786079896E+04  0.95000000000E+03 0.  0.
   -2000013    1    1    2    0    0 -0.67291689958E+03 -0.40761464620E+03  0.10237412219E+04  0.16029700380E+04  0.95000000000E+03 0.  0.
<mgrwt>
<rscale>  0 0.25402112E+04</rscale>
<asrwt>0</asrwt>
<pdfrwt beam="2">  1        2 0.11700999E+00 0.25402112E+04</pdfrwt>
<pdfrwt beam="1">  1       -2 0.32630970E+00 0.25402112E+04</pdfrwt>
<totfact> 0.71653799E-01</totfact>
</mgrwt>
</event>
<event>
 4    1  0.2058093E-008  0.3111737E+04  0.7816531E-02  0.8212524E-01
         -2   -1    0    0    0  501 -0.00000000000E+00  0.00000000000E+00  0.10388992244E+04  0.10388992244E+04  0.00000000000E+00 0. -1.
          2   -1    0    0  501    0  0.00000000000E+00 -0.00000000000E+00 -0.23300887898E+04  0.23300887898E+04  0.00000000000E+00 0.  1.
    2000013    1    1    2    0    0 -0.12792915029E+03  0.10459731487E+04  0.45791982524E+02  0.14195149175E+04  0.95000000000E+03 0.  0.
   -2000013    1    1    2    0    0  0.12792915029E+03 -0.10459731487E+04 -0.13369815479E+04  0.19494730967E+04  0.95000000000E+03 0.  0.
<mgrwt>
<rscale>  0 0.31117374E+04</rscale>
<asrwt>0</asrwt>
<pdfrwt beam="2">  1        2 0.35847520E+00 0.31117374E+04</pdfrwt>
<pdfrwt beam="1">  1       -2 0.15983065E+00 0.31117374E+04</pdfrwt>
<totfact> 0.93382549E-01</totfact>
</mgrwt>
</event>
<event>
 4    1  0.2058093E-008  0.2353347E+04  0.7816531E-02  0.8457179E-01
          2   -1    0    0  501    0  0.00000000000E+00  0.00000000000E+00  0.23142839592E+04  0.23142839592E+04  0.00000000000E+00 0.  1.
         -2   -1    0    0    0  501 -0.00000000000E+00 -0.00000000000E+00 -0.59826731603E+03  0.59826731603E+03  0.00000000000E+00 0. -1.
    2000013    1    1    2    0    0  0.29390093025E+03  0.38237728455E+03  0.23985379383E+03  0.10920714203E+04  0.95000000000E+03 0.  0.
   -2000013    1    1    2    0    0 -0.29390093025E+03 -0.38237728455E+03  0.14761628493E+04  0.18204798549E+04  0.95000000000E+03 0.  0.
<mgrwt>
<rscale>  0 0.23533469E+04</rscale>
<asrwt>0</asrwt>
<pdfrwt beam="1">  1        2 0.35604368E+00 0.23533469E+04</pdfrwt>
<pdfrwt beam="2">  1       -2 0.92041127E-01 0.23533469E+04</pdfrwt>
<totfact> 0.40294144E+00</totfact>
</mgrwt>
</event>
<event>
 4    1  0.2058093E-008  0.3175304E+04  0.7816531E-02  0.8195370E-01
         -2   -1    0    0    0  501 -0.00000000000E+00  0.00000000000E+00  0.10715564698E+04  0.10715564698E+04  0.00000000000E+00 0. -1.
          2   -1    0    0  501    0  0.00000000000E+00 -0.00000000000E+00 -0.23523151180E+04  0.23523151180E+04  0.00000000000E+00 0.  1.
    2000013    1    1    2    0    0  0.81108772533E+03  0.54280563825E+03  0.23935389560E+03  0.13828563000E+04  0.95000000000E+03 0.  0.
   -2000013    1    1    2    0    0 -0.81108772533E+03 -0.54280563825E+03 -0.15201125438E+04  0.20410152878E+04  0.95000000000E+03 0.  0.
<mgrwt>
<rscale>  0 0.31753038E+04</rscale>
<asrwt>0</asrwt>
<pdfrwt beam="2">  1        2 0.36189463E+00 0.31753038E+04</pdfrwt>
<pdfrwt beam="1">  1       -2 0.16485484E+00 0.31753038E+04</pdfrwt>
<totfact> 0.82888543E-01</totfact>
</mgrwt>
</event>
<event>
 4    1  0.2058093E-008  0.2652976E+04  0.7816531E-02  0.8350426E-01
         -2   -1    0    0    0  501 -0.00000000000E+00  0.00000000000E+00  0.17883324969E+04  0.17883324969E+04  0.00000000000E+00 0. -1.
          2   -1    0    0  501    0  0.00000000000E+00 -0.00000000000E+00 -0.98391699387E+03  0.98391699387E+03  0.00000000000E+00 0.  1.
    2000013    1    1    2    0    0 -0.68442896565E+03 -0.62340010532E+03  0.40201496099E+03  0.13860688039E+04  0.95000000000E+03 0.  0.
   -2000013    1    1    2    0    0  0.68442896565E+03  0.62340010532E+03  0.40240054202E+03  0.13861806868E+04  0.95000000000E+03 0.  0.
<mgrwt>
<rscale>  0 0.26529762E+04</rscale>
<asrwt>0</asrwt>
<pdfrwt beam="2">  1        2 0.15137185E+00 0.26529762E+04</pdfrwt>
<pdfrwt beam="1">  1       -2 0.27512808E+00 0.26529762E+04</pdfrwt>
<totfact> 0.10245699E+00</totfact>
</mgrwt>
</event>
<event>
 4    1  0.2058093E-008  0.4069068E+04  0.7816531E-02  0.7990756E-01
         -2   -1    0    0    0  501 -0.00000000000E+00  0.00000000000E+00  0.82745259757E+03  0.82745259757E+03  0.00000000000E+00 0. -1.
          2   -1    0    0  501    0  0.00000000000E+00 -0.00000000000E+00 -0.50024969597E+04  0.50024969597E+04  0.00000000000E+00 0.  1.
    2000013    1    1    2    0    0  0.10025119934E+04 -0.23863303615E+03  0.25406240668E+02  0.14018279138E+04  0.95000000000E+03 0.  0.
   -2000013    1    1    2    0    0 -0.10025119934E+04  0.23863303615E+03 -0.42004506028E+04  0.44281216435E+04  0.95000000000E+03 0.  0.
<mgrwt>
<rscale>  0 0.40690682E+04</rscale>
<asrwt>0</asrwt>
<pdfrwt beam="2">  1        2 0.76961491E+00 0.40690682E+04</pdfrwt>
<pdfrwt beam="1">  1       -2 0.12730040E+00 0.40690682E+04</pdfrwt>
<totfact> 0.12094342E-02</totfact>
</mgrwt>
</event>
<event>
 4    1  0.2058093E-008  0.2982011E+04  0.7816531E-02  0.8248886E-01
          2   -1    0    0  501    0  0.00000000000E+00  0.00000000000E+00  0.16022488352E+04  0.16022488352E+04  0.00000000000E+00 0.  1.
         -2   -1    0    0    0  501 -0.00000000000E+00 -0.00000000000E+00 -0.13874859184E+04  0.13874859184E+04  0.00000000000E+00 0. -1.
    2000013    1    1    2    0    0  0.25005634600E+03 -0.20934417774E+03 -0.99740023370E+03  0.14155071131E+04  0.95000000000E+03 0.  0.
   -2000013    1    1    2    0    0 -0.25005634600E+03  0.20934417774E+03  0.12121631505E+04  0.15742276406E+04  0.95000000000E+03 0.  0.
<mgrwt>
<rscale>  0 0.29820112E+04</rscale>
<asrwt>0</asrwt>
<pdfrwt beam="1">  1        2 0.24649982E+00 0.29820112E+04</pdfrwt>
<pdfrwt beam="2">  1       -2 0.21345937E+00 0.29820112E+04</pdfrwt>
<totfact> 0.10371838E+00</totfact>
</mgrwt>
</event>
<event>
 4    1  0.2058093E-008  0.2329469E+04  0.7816531E-02  0.8466392E-01
          2   -1    0    0  501    0  0.00000000000E+00  0.00000000000E+00  0.19410512447E+04  0.19410512447E+04  0.00000000000E+00 0.  1.
         -2   -1    0    0    0  501 -0.00000000000E+00 -0.00000000000E+00 -0.69890276082E+03  0.69890276082E+03  0.00000000000E+00 0. -1.
    2000013    1    1    2    0    0  0.25027548253E+03  0.22398258789E+03  0.12831499698E+04  0.16314962034E+04  0.95000000000E+03 0.  0.
   -2000013    1    1    2    0    0 -0.25027548253E+03 -0.22398258789E+03 -0.41001485869E+02  0.10084578021E+04  0.95000000000E+03 0.  0.
<mgrwt>
<rscale>  0 0.23294687E+04</rscale>
<asrwt>0</asrwt>
<pdfrwt beam="1">  1        2 0.29862327E+00 0.23294687E+04</pdfrwt>
<pdfrwt beam="2">  1       -2 0.10752350E+00 0.23294687E+04</pdfrwt>
<totfact> 0.45238027E+00</totfact>
</mgrwt>
</event>
<event>
 4    1  0.2058093E-008  0.2021070E+04  0.7816531E-02  0.8596832E-01
          2   -1    0    0  501    0  0.00000000000E+00  0.00000000000E+00  0.26434256192E+04  0.26434256192E+04  0.00000000000E+00 0. -1.
         -2   -1    0    0    0  501 -0.00000000000E+00 -0.00000000000E+00 -0.38630984706E+03  0.38630984706E+03  0.00000000000E+00 0.  1.
    2000013    1    1    2    0    0  0.11733437712E+03  0.70678787103E+02  0.65470205345E+03  0.11618509482E+04  0.95000000000E+03 0.  0.
   -2000013    1    1    2    0    0 -0.11733437712E+03 -0.70678787103E+02  0.16024137187E+04  0.18678845181E+04  0.95000000000E+03 0.  0.
<mgrwt>
<rscale>  0 0.20210704E+04</rscale>
<asrwt>0</asrwt>
<pdfrwt beam="1">  1        2 0.40668085E+00 0.20210704E+04</pdfrwt>
<pdfrwt beam="2">  1       -2 0.59432286E-01 0.20210704E+04</pdfrwt>
<totfact> 0.70379323E+00</totfact>
</mgrwt>
</event>
<event>
 4    1  0.2058093E-008  0.2579534E+04  0.7816531E-02  0.8375186E-01
          2   -1    0    0  501    0  0.00000000000E+00  0.00000000000E+00  0.29506532574E+04  0.29506532574E+04  0.00000000000E+00 0.  1.
         -2   -1    0    0    0  501 -0.00000000000E+00 -0.00000000000E+00 -0.56377310585E+03  0.56377310585E+03  0.00000000000E+00 0. -1.
    2000013    1    1    2    0    0  0.56026045995E+03  0.53891268754E+03  0.65415256710E+03  0.13909472488E+04  0.95000000000E+03 0.  0.
   -2000013    1    1    2    0    0 -0.56026045995E+03 -0.53891268754E+03  0.17327275845E+04  0.21234791145E+04  0.95000000000E+03 0.  0.
<mgrwt>
<rscale>  0 0.25795340E+04</rscale>
<asrwt>0</asrwt>
<pdfrwt beam="1">  1        2 0.45394665E+00 0.25795340E+04</pdfrwt>
<pdfrwt beam="2">  1       -2 0.86734326E-01 0.25795340E+04</pdfrwt>
<totfact> 0.19054165E+00</totfact>
</mgrwt>
</event>
<event>
 4    1  0.2058093E-008  0.2670771E+04  0.7816531E-02  0.8344552E-01
          2   -1    0    0  501    0  0.00000000000E+00  0.00000000000E+00  0.24491256922E+04  0.24491256922E+04  0.00000000000E+00 0.  1.
         -2   -1    0    0    0  501 -0.00000000000E+00 -0.00000000000E+00 -0.72811868863E+03  0.72811868863E+03  0.00000000000E+00 0. -1.
    2000013    1    1    2    0    0  0.58673295393E+03  0.71015225261E+03  0.10739176729E+04  0.17042215083E+04  0.95000000000E+03 0.  0.
   -2000013    1    1    2    0    0 -0.58673295393E+03 -0.71015225261E+03  0.64708933062E+03  0.14730228725E+04  0.95000000000E+03 0.  0.
<mgrwt>
<rscale>  0 0.26707708E+04</rscale>
<asrwt>0</asrwt>
<pdfrwt beam="1">  1        2 0.37678857E+00 0.26707708E+04</pdfrwt>
<pdfrwt beam="2">  1       -2 0.11201826E+00 0.26707708E+04</pdfrwt>
<totfact> 0.20589326E+00</totfact>
</mgrwt>
</event>
<event>
 4    1  0.2058093E-008  0.2244128E+04  0.7816531E-02  0.8500282E-01
          1   -1    0    0  501    0  0.00000000000E+00  0.00000000000E+00  0.23640472357E+04  0.23640472357E+04  0.00000000000E+00 0.  1.
         -1   -1    0    0    0  501 -0.00000000000E+00 -0.00000000000E+00 -0.53257288552E+03  0.53257288552E+03  0.00000000000E+00 0. -1.
    2000013    1    1    2    0    0  0.24346668673E+03  0.39359021402E+03  0.42876444570E+03  0.11404070475E+04  0.95000000000E+03 0.  0.
   -2000013    1    1    2    0    0 -0.24346668673E+03 -0.39359021402E+03  0.14027099045E+04  0.17562130737E+04  0.95000000000E+03 0.  0.
<mgrwt>
<rscale>  0 0.22441279E+04</rscale>
<asrwt>0</asrwt>
<pdfrwt beam="1">  1        1 0.36369957E+00 0.22441279E+04</pdfrwt>
<pdfrwt beam="2">  1       -1 0.81934291E-01 0.22441279E+04</pdfrwt>
<totfact> 0.22637897E+00</totfact>
</mgrwt>
</event>
<event>
 4    1  0.2058093E-008  0.2421578E+04  0.7816531E-02  0.8431469E-01
         -2   -1    0    0    0  501 -0.00000000000E+00  0.00000000000E+00  0.58351541185E+03  0.58351541185E+03  0.00000000000E+00 0. -1.
          2   -1    0    0  501    0  0.00000000000E+00 -0.00000000000E+00 -0.25123767709E+04  0.25123767709E+04  0.00000000000E+00 0.  1.
    2000013    1    1    2    0    0 -0.57135749395E+03 -0.21484437292E+03 -0.15230214357E+04  0.18959698795E+04  0.95000000000E+03 0.  0.
   -2000013    1    1    2    0    0  0.57135749395E+03  0.21484437292E+03 -0.40583992341E+03  0.11999223033E+04  0.95000000000E+03 0.  0.
<mgrwt>
<rscale>  0 0.24215785E+04</rscale>
<asrwt>0</asrwt>
<pdfrwt beam="2">  1        2 0.38651951E+00 0.24215785E+04</pdfrwt>
<pdfrwt beam="1">  1       -2 0.89771601E-01 0.24215785E+04</pdfrwt>
<totfact> 0.32668428E+00</totfact>
</mgrwt>
</event>
<event>
 4    1  0.2058093E-008  0.3754977E+04  0.7816531E-02  0.8055886E-01
         -2   -1    0    0    0  501 -0.00000000000E+00  0.00000000000E+00  0.24458776936E+04  0.24458776936E+04  0.00000000000E+00 0. -1.
          2   -1    0    0  501    0  0.00000000000E+00 -0.00000000000E+00 -0.14411856909E+04  0.14411856909E+04  0.00000000000E+00 0.  1.
    2000013    1    1    2    0    0 -0.92298420728E+03 -0.13186116721E+04  0.31766828609E+03  0.18957979135E+04  0.95000000000E+03 0.  0.
   -2000013    1    1    2    0    0  0.92298420728E+03  0.13186116721E+04  0.68702371666E+03  0.19912654710E+04  0.95000000000E+03 0.  0.
<mgrwt>
<rscale>  0 0.37549775E+04</rscale>
<asrwt>0</asrwt>
<pdfrwt beam="2">  1        2 0.22172088E+00 0.37549775E+04</pdfrwt>
<pdfrwt beam="1">  1       -2 0.37628888E+00 0.37549775E+04</pdfrwt>
<totfact> 0.11663816E-01</totfact>
</mgrwt>
</event>
<event>
 4    1  0.2058093E-008  0.3607013E+04  0.7816531E-02  0.8088887E-01
         -2   -1    0    0    0  501 -0.00000000000E+00  0.00000000000E+00  0.20341131193E+04  0.20341131193E+04  0.00000000000E+00 0. -1.
          2   -1    0    0  501    0  0.00000000000E+00 -0.00000000000E+00 -0.15990438522E+04  0.15990438522E+04  0.00000000000E+00 0.  1.
    2000013    1    1    2    0    0  0.14048560332E+04  0.61343217528E+03  0.23235762995E+03  0.18183535344E+04  0.95000000000E+03 0.  0.
   -2000013    1    1    2    0    0 -0.14048560332E+04 -0.61343217528E+03  0.20271163717E+03  0.18148034372E+04  0.95000000000E+03 0.  0.
<mgrwt>
<rscale>  0 0.36070132E+04</rscale>
<asrwt>0</asrwt>
<pdfrwt beam="2">  1        2 0.24600675E+00 0.36070132E+04</pdfrwt>
<pdfrwt beam="1">  1       -2 0.31294048E+00 0.36070132E+04</pdfrwt>
<totfact> 0.24070629E-01</totfact>
</mgrwt>
</event>
<event>
 4    1  0.2058093E-008  0.2388859E+04  0.7816531E-02  0.8443687E-01
         -2   -1    0    0    0  501 -0.00000000000E+00  0.00000000000E+00  0.56471120879E+03  0.56471120879E+03  0.00000000000E+00 0. -1.
          2   -1    0    0  501    0  0.00000000000E+00 -0.00000000000E+00 -0.25263557760E+04  0.25263557760E+04  0.00000000000E+00 0.  1.
    2000013    1    1    2    0    0 -0.62792129103E+03  0.16088398401E+03 -0.56355030441E+03  0.12807254779E+04  0.95000000000E+03 0.  0.
   -2000013    1    1    2    0    0  0.62792129103E+03 -0.16088398401E+03 -0.13980942627E+04  0.18103415069E+04  0.95000000000E+03 0.  0.
<mgrwt>
<rscale>  0 0.23888587E+04</rscale>
<asrwt>0</asrwt>
<pdfrwt beam="2">  1        2 0.38867011E+00 0.23888587E+04</pdfrwt>
<pdfrwt beam="1">  1       -2 0.86878649E-01 0.23888587E+04</pdfrwt>
<totfact> 0.34664973E+00</totfact>
</mgrwt>
</event>
<event>
 4    1  0.2058093E-008  0.4283775E+04  0.7816531E-02  0.7949625E-01
         -2   -1    0    0    0  501 -0.00000000000E+00  0.00000000000E+00  0.15918346472E+04  0.15918346472E+04  0.00000000000E+00 0. -1.
          2   -1    0    0  501    0  0.00000000000E+00 -0.00000000000E+00 -0.28820093496E+04  0.28820093496E+04  0.00000000000E+00 0.  1.
    2000013    1    1    2    0    0 -0.15831888732E+04  0.36592642245E+03 -0.17125909210E+04  0.25447704843E+04  0.95000000000E+03 0.  0.
   -2000013    1    1    2    0    0  0.15831888732E+04 -0.36592642245E+03  0.42241621859E+03  0.19290735125E+04  0.95000000000E+03 0.  0.
<mgrwt>
<rscale>  0 0.42837751E+04</rscale>
<asrwt>0</asrwt>
<pdfrwt beam="2">  1        2 0.44338605E+00 0.42837751E+04</pdfrwt>
<pdfrwt beam="1">  1       -2 0.24489764E+00 0.42837751E+04</pdfrwt>
<totfact> 0.10974324E-01</totfact>
</mgrwt>
</event>
<event>
 4    1  0.2058093E-008  0.2114985E+04  0.7816531E-02  0.8554671E-01
         -1   -1    0    0    0  501 -0.00000000000E+00  0.00000000000E+00  0.56575629553E+03  0.56575629553E+03  0.00000000000E+00 0.  1.
          1   -1    0    0  501    0  0.00000000000E+00 -0.00000000000E+00 -0.19766296307E+04  0.19766296307E+04  0.00000000000E+00 0. -1.
    2000013    1    1    2    0    0  0.13177803814E+03  0.44537600378E+03 -0.71515952934E+03  0.12765885745E+04  0.95000000000E+03 0.  0.
   -2000013    1    1    2    0    0 -0.13177803814E+03 -0.44537600378E+03 -0.69571380582E+03  0.12657973517E+04  0.95000000000E+03 0.  0.
<mgrwt>
<rscale>  0 0.21149853E+04</rscale>
<asrwt>0</asrwt>
<pdfrwt beam="2">  1        1 0.30409686E+00 0.21149853E+04</pdfrwt>
<pdfrwt beam="1">  1       -1 0.87039431E-01 0.21149853E+04</pdfrwt>
<totfact> 0.36904565E+00</totfact>
</mgrwt>
</event>
<event>
 4    1  0.2058093E-008  0.5020158E+04  0.7816531E-02  0.7825405E-01
         -2   -1    0    0    0  501 -0.00000000000E+00  0.00000000000E+00  0.21401209185E+04  0.21401209185E+04  0.00000000000E+00 0. -1.
          2   -1    0    0  501    0  0.00000000000E+00 -0.00000000000E+00 -0.29439912128E+04  0.29439912128E+04  0.00000000000E+00 0.  1.
    2000013    1    1    2    0    0 -0.21261068833E+04 -0.85552810155E+03 -0.15314838986E+02  0.24809259070E+04  0.95000000000E+03 0.  0.
   -2000013    1    1    2    0    0  0.21261068833E+04  0.85552810155E+03 -0.78855545535E+03  0.26031862242E+04  0.95000000000E+03 0.  0.
<mgrwt>
<rscale>  0 0.50201582E+04</rscale>
<asrwt>0</asrwt>
<pdfrwt beam="2">  1        2 0.45292172E+00 0.50201582E+04</pdfrwt>
<pdfrwt beam="1">  1       -2 0.32924937E+00 0.50201582E+04</pdfrwt>
<totfact> 0.28770490E-02</totfact>
</mgrwt>
</event>
<event>
 4    1  0.2058093E-008  0.2349114E+04  0.7816531E-02  0.8458804E-01
         -2   -1    0    0    0  501 -0.00000000000E+00  0.00000000000E+00  0.31289544292E+03  0.31289544292E+03  0.00000000000E+00 0.  1.
          2   -1    0    0  501    0  0.00000000000E+00 -0.00000000000E+00 -0.44090888412E+04  0.44090888412E+04  0.00000000000E+00 0. -1.
    2000013    1    1    2    0    0 -0.16769453207E+03  0.58843891557E+03 -0.26922806968E+04  0.29198043023E+04  0.95000000000E+03 0.  0.
   -2000013    1    1    2    0    0  0.16769453207E+03 -0.58843891557E+03 -0.14039127015E+04  0.18021799818E+04  0.95000000000E+03 0.  0.
<mgrwt>
<rscale>  0 0.23491137E+04</rscale>
<asrwt>0</asrwt>
<pdfrwt beam="2">  1        2 0.67832138E+00 0.23491137E+04</pdfrwt>
<pdfrwt beam="1">  1       -2 0.48137759E-01 0.23491137E+04</pdfrwt>
<totfact> 0.55996430E-01</totfact>
</mgrwt>
</event>
<event>
 4    1  0.2058093E-008  0.3150201E+04  0.7816531E-02  0.8202094E-01
          2   -1    0    0  501    0  0.00000000000E+00  0.00000000000E+00  0.25831780054E+04  0.25831780054E+04  0.00000000000E+00 0.  1.
         -2   -1    0    0    0  501 -0.00000000000E+00 -0.00000000000E+00 -0.96042234863E+03  0.96042234863E+03  0.00000000000E+00 0. -1.
    2000013    1    1    2    0    0 -0.54111260778E+03 -0.11329141109E+04  0.75928419453E+03  0.17479444285E+04  0.95000000000E+03 0.  0.
   -2000013    1    1    2    0    0  0.54111260778E+03  0.11329141109E+04  0.86347146223E+03  0.17956559256E+04  0.95000000000E+03 0.  0.
<mgrwt>
<rscale>  0 0.31502012E+04</rscale>
<asrwt>0</asrwt>
<pdfrwt beam="1">  1        2 0.39741200E+00 0.31502012E+04</pdfrwt>
<pdfrwt beam="2">  1       -2 0.14775728E+00 0.31502012E+04</pdfrwt>
<totfact> 0.82055492E-01</totfact>
</mgrwt>
</event>
<event>
 4    1  0.2058093E-008  0.1933843E+04  0.7816531E-02  0.8638192E-01
          2   -1    0    0  501    0  0.00000000000E+00  0.00000000000E+00  0.18100712730E+04  0.18100712730E+04  0.00000000000E+00 0.  1.
         -2   -1    0    0    0  501 -0.00000000000E+00 -0.00000000000E+00 -0.51651946193E+03  0.51651946193E+03  0.00000000000E+00 0. -1.
    2000013    1    1    2    0    0  0.13403535167E+03  0.99683183581E+02  0.72779347230E+03  0.12083399981E+04  0.95000000000E+03 0.  0.
   -2000013    1    1    2    0    0 -0.13403535167E+03 -0.99683183581E+02  0.56575833874E+03  0.11182507368E+04  0.95000000000E+03 0.  0.
<mgrwt>
<rscale>  0 0.19338428E+04</rscale>
<asrwt>0</asrwt>
<pdfrwt beam="1">  1        2 0.27847250E+00 0.19338428E+04</pdfrwt>
<pdfrwt beam="2">  1       -2 0.79464534E-01 0.19338428E+04</pdfrwt>
<totfact> 0.11164648E+01</totfact>
</mgrwt>
</event>
<event>
 4    1  0.2058093E-008  0.2453975E+04  0.7816531E-02  0.8419568E-01
         -2   -1    0    0    0  501 -0.00000000000E+00  0.00000000000E+00  0.99885735166E+03  0.99885735166E+03  0.00000000000E+00 0.  1.
          2   -1    0    0  501    0  0.00000000000E+00 -0.00000000000E+00 -0.15072208244E+04  0.15072208244E+04  0.00000000000E+00 0. -1.
    2000013    1    1    2    0    0  0.22205953740E+03  0.50914038642E+03 -0.80834880435E+03  0.13654530972E+04  0.95000000000E+03 0.  0.
   -2000013    1    1    2    0    0 -0.22205953740E+03 -0.50914038642E+03  0.29998533164E+03  0.11406250788E+04  0.95000000000E+03 0.  0.
<mgrwt>
<rscale>  0 0.24539752E+04</rscale>
<asrwt>0</asrwt>
<pdfrwt beam="2">  1        2 0.23188013E+00 0.24539752E+04</pdfrwt>
<pdfrwt beam="1">  1       -2 0.15367036E+00 0.24539752E+04</pdfrwt>
<totfact> 0.31632533E+00</totfact>
</mgrwt>
</event>
<event>
 4    1  0.2058093E-008  0.2739261E+04  0.7816531E-02  0.8322377E-01
          2   -1    0    0  501    0  0.00000000000E+00  0.00000000000E+00  0.11257829145E+04  0.11257829145E+04  0.00000000000E+00 0.  1.
         -2   -1    0    0    0  501 -0.00000000000E+00 -0.00000000000E+00 -0.16662964445E+04  0.16662964445E+04  0.00000000000E+00 0. -1.
    2000013    1    1    2    0    0  0.62998690032E+03  0.74115049276E+03 -0.43836264633E+03  0.14285829893E+04  0.95000000000E+03 0.  0.
   -2000013    1    1    2    0    0 -0.62998690032E+03 -0.74115049276E+03 -0.10215088367E+03  0.13634963698E+04  0.95000000000E+03 0.  0.
<mgrwt>
<rscale>  0 0.27392613E+04</rscale>
<asrwt>0</asrwt>
<pdfrwt beam="1">  1        2 0.17319737E+00 0.27392613E+04</pdfrwt>
<pdfrwt beam="2">  1       -2 0.25635330E+00 0.27392613E+04</pdfrwt>
<totfact> 0.10788875E+00</totfact>
</mgrwt>
</event>
<event>
 4    1  0.2058093E-008  0.2195241E+04  0.7816531E-02  0.8520412E-01
         -2   -1    0    0    0  501 -0.00000000000E+00  0.00000000000E+00  0.53303523600E+03  0.53303523600E+03  0.00000000000E+00 0. -1.
          2   -1    0    0  501    0  0.00000000000E+00 -0.00000000000E+00 -0.22602077656E+04  0.22602077656E+04  0.00000000000E+00 0.  1.
    2000013    1    1    2    0    0  0.31445397179E+03  0.37909303808E+03 -0.11744228060E+04  0.15888240177E+04  0.95000000000E+03 0.  0.
   -2000013    1    1    2    0    0 -0.31445397179E+03 -0.37909303808E+03 -0.55274972360E+03  0.12044189839E+04  0.95000000000E+03 0.  0.
<mgrwt>
<rscale>  0 0.21952407E+04</rscale>
<asrwt>0</asrwt>
<pdfrwt beam="2">  1        2 0.34772427E+00 0.21952407E+04</pdfrwt>
<pdfrwt beam="1">  1       -2 0.82005422E-01 0.21952407E+04</pdfrwt>
<totfact> 0.57071451E+00</totfact>
</mgrwt>
</event>
<event>
 4    1  0.2058093E-008  0.2755538E+04  0.7816531E-02  0.8317207E-01
         -2   -1    0    0    0  501 -0.00000000000E+00  0.00000000000E+00  0.22682398157E+04  0.22682398157E+04  0.00000000000E+00 0. -1.
          2   -1    0    0  501    0  0.00000000000E+00 -0.00000000000E+00 -0.83688120975E+03  0.83688120975E+03  0.00000000000E+00 0.  1.
    2000013    1    1    2    0    0 -0.53906533345E+03 -0.62223928736E+03  0.80248845380E+02  0.12596479832E+04  0.95000000000E+03 0.  0.
   -2000013    1    1    2    0    0  0.53906533345E+03  0.62223928736E+03  0.13511097605E+04  0.18454730422E+04  0.95000000000E+03 0.  0.
<mgrwt>
<rscale>  0 0.27555379E+04</rscale>
<asrwt>0</asrwt>
<pdfrwt beam="2">  1        2 0.12875096E+00 0.27555379E+04</pdfrwt>
<pdfrwt beam="1">  1       -2 0.34895997E+00 0.27555379E+04</pdfrwt>
<totfact> 0.44719530E-01</totfact>
</mgrwt>
</event>
<event>
 4    1  0.2058093E-008  0.3173021E+04  0.7816531E-02  0.8195979E-01
         -2   -1    0    0    0  501 -0.00000000000E+00  0.00000000000E+00  0.68788139316E+03  0.68788139316E+03  0.00000000000E+00 0. -1.
          2   -1    0    0  501    0  0.00000000000E+00 -0.00000000000E+00 -0.36590840120E+04  0.36590840120E+04  0.00000000000E+00 0.  1.
    2000013    1    1    2    0    0 -0.11602149483E+04  0.22330611290E+03 -0.84514416560E+03  0.17357226181E+04  0.95000000000E+03 0.  0.
   -2000013    1    1    2    0    0  0.11602149483E+04 -0.22330611290E+03 -0.21260584532E+04  0.26112427870E+04  0.95000000000E+03 0.  0.
<mgrwt>
<rscale>  0 0.31730212E+04</rscale>
<asrwt>0</asrwt>
<pdfrwt beam="2">  1        2 0.56293601E+00 0.31730212E+04</pdfrwt>
<pdfrwt beam="1">  1       -2 0.10582791E+00 0.31730212E+04</pdfrwt>
<totfact> 0.38029495E-01</totfact>
</mgrwt>
</event>
<event>
 4    1  0.2058093E-008  0.3337365E+04  0.7816531E-02  0.8153452E-01
         -2   -1    0    0    0  501 -0.00000000000E+00  0.00000000000E+00  0.10978782030E+04  0.10978782030E+04  0.00000000000E+00 0. -1.
          2   -1    0    0  501    0  0.00000000000E+00 -0.00000000000E+00 -0.25362571403E+04  0.25362571403E+04  0.00000000000E+00 0.  1.
    2000013    1    1    2    0    0 -0.35844547004E+03  0.12694026593E+04 -0.30865639763E+03  0.16545800187E+04  0.95000000000E+03 0.  0.
   -2000013    1    1    2    0    0  0.35844547004E+03 -0.12694026593E+04 -0.11297225397E+04  0.19795553246E+04  0.95000000000E+03 0.  0.
<mgrwt>
<rscale>  0 0.33373651E+04</rscale>
<asrwt>0</asrwt>
<pdfrwt beam="2">  1        2 0.39019341E+00 0.33373651E+04</pdfrwt>
<pdfrwt beam="1">  1       -2 0.16890434E+00 0.33373651E+04</pdfrwt>
<totfact> 0.59909798E-01</totfact>
</mgrwt>
</event>
<event>
 4    1  0.2058093E-008  0.2207978E+04  0.7816531E-02  0.8515115E-01
          2   -1    0    0  501    0  0.00000000000E+00  0.00000000000E+00  0.15957991766E+04  0.15957991766E+04  0.00000000000E+00 0.  1.
         -2   -1    0    0    0  501 -0.00000000000E+00 -0.00000000000E+00 -0.76375004387E+03  0.76375004387E+03  0.00000000000E+00 0. -1.
    2000013    1    1    2    0    0  0.40448254642E+03  0.29150065083E+03  0.69410479424E+03  0.12778341931E+04  0.95000000000E+03 0.  0.
   -2000013    1    1    2    0    0 -0.40448254642E+03 -0.29150065083E+03  0.13794433849E+03  0.10817150273E+04  0.95000000000E+03 0.  0.
<mgrwt>
<rscale>  0 0.22079780E+04</rscale>
<asrwt>0</asrwt>
<pdfrwt beam="1">  1        2 0.24550757E+00 0.22079780E+04</pdfrwt>
<pdfrwt beam="2">  1       -2 0.11750001E+00 0.22079780E+04</pdfrwt>
<totfact> 0.57301009E+00</totfact>
</mgrwt>
</event>
<event>
 4    1  0.2058093E-008  0.2115088E+04  0.7816531E-02  0.8554626E-01
          2   -1    0    0  501    0  0.00000000000E+00  0.00000000000E+00  0.24551788860E+04  0.24551788860E+04  0.00000000000E+00 0.  1.
         -2   -1    0    0    0  501 -0.00000000000E+00 -0.00000000000E+00 -0.45552642866E+03  0.45552642866E+03  0.00000000000E+00 0. -1.
    2000013    1    1    2    0    0  0.89479995951E+02 -0.35926797196E+03  0.61347296596E+03  0.11899282438E+04  0.95000000000E+03 0.  0.
   -2000013    1    1    2    0    0 -0.89479995951E+02  0.35926797196E+03  0.13861794913E+04  0.17207770709E+04  0.95000000000E+03 0.  0.
<mgrwt>
<rscale>  0 0.21150876E+04</rscale>
<asrwt>0</asrwt>
<pdfrwt beam="1">  1        2 0.37771982E+00 0.21150876E+04</pdfrwt>
<pdfrwt beam="2">  1       -2 0.70080990E-01 0.21150876E+04</pdfrwt>
<totfact> 0.63078699E+00</totfact>
</mgrwt>
</event>
<event>
 4    1  0.2058093E-008  0.2247530E+04  0.7816531E-02  0.8498901E-01
         -2   -1    0    0    0  501 -0.00000000000E+00  0.00000000000E+00  0.75287889308E+03  0.75287889308E+03  0.00000000000E+00 0. -1.
          2   -1    0    0  501    0  0.00000000000E+00 -0.00000000000E+00 -0.16773583213E+04  0.16773583213E+04  0.00000000000E+00 0.  1.
    2000013    1    1    2    0    0 -0.21770564271E+03 -0.52322927342E+03 -0.24820099498E+03  0.11336967643E+04  0.95000000000E+03 0.  0.
   -2000013    1    1    2    0    0  0.21770564271E+03  0.52322927342E+03 -0.67627843321E+03  0.12965404501E+04  0.95000000000E+03 0.  0.
<mgrwt>
<rscale>  0 0.22475299E+04</rscale>
<asrwt>0</asrwt>
<pdfrwt beam="2">  1        2 0.25805512E+00 0.22475299E+04</pdfrwt>
<pdfrwt beam="1">  1       -2 0.11582752E+00 0.22475299E+04</pdfrwt>
<totfact> 0.53265700E+00</totfact>
</mgrwt>
</event>
<event>
 4    1  0.2058093E-008  0.2155336E+04  0.7816531E-02  0.8537252E-01
          1   -1    0    0  501    0  0.00000000000E+00  0.00000000000E+00  0.14194272797E+04  0.14194272797E+04  0.00000000000E+00 0.  1.
         -1   -1    0    0    0  501 -0.00000000000E+00 -0.00000000000E+00 -0.81819520762E+03  0.81819520762E+03  0.00000000000E+00 0. -1.
    2000013    1    1    2    0    0  0.42609862312E+03  0.24757316880E+03  0.43200231003E+03  0.11541137320E+04  0.95000000000E+03 0.  0.
   -2000013    1    1    2    0    0 -0.42609862312E+03 -0.24757316880E+03  0.16922976209E+03  0.10835087553E+04  0.95000000000E+03 0.  0.
<mgrwt>
<rscale>  0 0.21553363E+04</rscale>
<asrwt>0</asrwt>
<pdfrwt beam="1">  1        1 0.21837343E+00 0.21553363E+04</pdfrwt>
<pdfrwt beam="2">  1       -1 0.12587619E+00 0.21553363E+04</pdfrwt>
<totfact> 0.37477825E+00</totfact>
</mgrwt>
</event>
<event>
 4    1  0.2058093E-008  0.3867852E+04  0.7816531E-02  0.8031749E-01
          2   -1    0    0  501    0  0.00000000000E+00  0.00000000000E+00  0.19084181485E+04  0.19084181485E+04  0.00000000000E+00 0.  1.
         -2   -1    0    0    0  501 -0.00000000000E+00 -0.00000000000E+00 -0.19597750048E+04  0.19597750048E+04  0.00000000000E+00 0. -1.
    2000013    1    1    2    0    0  0.16596391987E+04 -0.15954057807E+02 -0.31365065283E+03  0.19379198987E+04  0.95000000000E+03 0.  0.
   -2000013    1    1    2    0    0 -0.16596391987E+04  0.15954057807E+02  0.26229379650E+03  0.19302732546E+04  0.95000000000E+03 0.  0.
<mgrwt>
<rscale>  0 0.38678522E+04</rscale>
<asrwt>0</asrwt>
<pdfrwt beam="1">  1        2 0.29360279E+00 0.38678522E+04</pdfrwt>
<pdfrwt beam="2">  1       -2 0.30150385E+00 0.38678522E+04</pdfrwt>
<totfact> 0.18638774E-01</totfact>
</mgrwt>
</event>
<event>
 4    1  0.2058093E-008  0.3106850E+04  0.7816531E-02  0.8213860E-01
         -2   -1    0    0    0  501 -0.00000000000E+00  0.00000000000E+00  0.54392594426E+03  0.54392594426E+03  0.00000000000E+00 0. -1.
          2   -1    0    0  501    0  0.00000000000E+00 -0.00000000000E+00 -0.44365039387E+04  0.44365039387E+04  0.00000000000E+00 0.  1.
    2000013    1    1    2    0    0 -0.10838236246E+04  0.55932034088E+03 -0.21900192504E+04  0.26807083411E+04  0.95000000000E+03 0.  0.
   -2000013    1    1    2    0    0  0.10838236246E+04 -0.55932034088E+03 -0.17025587440E+04  0.22997215418E+04  0.95000000000E+03 0.  0.
<mgrwt>
<rscale>  0 0.31068502E+04</rscale>
<asrwt>0</asrwt>
<pdfrwt beam="2">  1        2 0.68253906E+00 0.31068502E+04</pdfrwt>
<pdfrwt beam="1">  1       -2 0.83680915E-01 0.31068502E+04</pdfrwt>
<totfact> 0.14991337E-01</totfact>
</mgrwt>
</event>
<event>
 4    1  0.2058093E-008  0.2074967E+04  0.7816531E-02  0.8572351E-01
          2   -1    0    0  501    0  0.00000000000E+00  0.00000000000E+00  0.72522223111E+03  0.72522223111E+03  0.00000000000E+00 0.  1.
         -2   -1    0    0    0  501 -0.00000000000E+00 -0.00000000000E+00 -0.14841962065E+04  0.14841962065E+04  0.00000000000E+00 0. -1.
    2000013    1    1    2    0    0 -0.38814451046E+03  0.23207270209E+02 -0.53983474037E+03  0.11597914835E+04  0.95000000000E+03 0.  0.
   -2000013    1    1    2    0    0  0.38814451046E+03 -0.23207270209E+02 -0.21913923503E+03  0.10496269541E+04  0.95000000000E+03 0.  0.
<mgrwt>
<rscale>  0 0.20749671E+04</rscale>
<asrwt>0</asrwt>
<pdfrwt beam="1">  1        2 0.11157265E+00 0.20749671E+04</pdfrwt>
<pdfrwt beam="2">  1       -2 0.22833788E+00 0.20749671E+04</pdfrwt>
<totfact> 0.31657290E+00</totfact>
</mgrwt>
</event>
<event>
 4    1  0.2058093E-008  0.2257635E+04  0.7816531E-02  0.8494815E-01
         -2   -1    0    0    0  501 -0.00000000000E+00  0.00000000000E+00  0.11967246444E+04  0.11967246444E+04  0.00000000000E+00 0. -1.
          2   -1    0    0  501    0  0.00000000000E+00 -0.00000000000E+00 -0.10647638655E+04  0.10647638655E+04  0.00000000000E+00 0.  1.
    2000013    1    1    2    0    0 -0.60813778664E+03  0.34693206663E+02  0.39592075621E+02  0.11292044627E+04  0.95000000000E+03 0.  0.
   -2000013    1    1    2    0    0  0.60813778664E+03 -0.34693206663E+02  0.92368703248E+02  0.11322840472E+04  0.95000000000E+03 0.  0.
<mgrwt>
<rscale>  0 0.22576352E+04</rscale>
<asrwt>0</asrwt>
<pdfrwt beam="2">  1        2 0.16380983E+00 0.22576352E+04</pdfrwt>
<pdfrwt beam="1">  1       -2 0.18411148E+00 0.22576352E+04</pdfrwt>
<totfact> 0.35413711E+00</totfact>
</mgrwt>
</event>
<event>
 4    1  0.2058093E-008  0.2467703E+04  0.7816531E-02  0.8414583E-01
          2   -1    0    0  501    0  0.00000000000E+00  0.00000000000E+00  0.21420657905E+04  0.21420657905E+04  0.00000000000E+00 0.  1.
         -2   -1    0    0    0  501 -0.00000000000E+00 -0.00000000000E+00 -0.71071095186E+03  0.71071095186E+03  0.00000000000E+00 0. -1.
    2000013    1    1    2    0    0  0.74320897014E+03 -0.25483404857E+03  0.65684786881E+03  0.13968711782E+04  0.95000000000E+03 0.  0.
   -2000013    1    1    2    0    0 -0.74320897014E+03  0.25483404857E+03  0.77450696987E+03  0.14559055642E+04  0.95000000000E+03 0.  0.
<mgrwt>
<rscale>  0 0.24677031E+04</rscale>
<asrwt>0</asrwt>
<pdfrwt beam="1">  1        2 0.32954858E+00 0.24677031E+04</pdfrwt>
<pdfrwt beam="2">  1       -2 0.10934015E+00 0.24677031E+04</pdfrwt>
<totfact> 0.33177455E+00</totfact>
</mgrwt>
</event>
<event>
 4    1  0.2058093E-008  0.2246443E+04  0.7816531E-02  0.8499342E-01
         -2   -1    0    0    0  501 -0.00000000000E+00  0.00000000000E+00  0.40245711384E+03  0.40245711384E+03  0.00000000000E+00 0. -1.
          2   -1    0    0  501    0  0.00000000000E+00 -0.00000000000E+00 -0.31348096997E+04  0.31348096997E+04  0.00000000000E+00 0.  1.
    2000013    1    1    2    0    0 -0.45682111762E+03  0.38668852874E+03 -0.13186003954E+04  0.17318835280E+04  0.95000000000E+03 0.  0.
   -2000013    1    1    2    0    0  0.45682111762E+03 -0.38668852874E+03 -0.14137521904E+04  0.18053832855E+04  0.95000000000E+03 0.  0.
<mgrwt>
<rscale>  0 0.22464429E+04</rscale>
<asrwt>0</asrwt>
<pdfrwt beam="2">  1        2 0.48227841E+00 0.22464429E+04</pdfrwt>
<pdfrwt beam="1">  1       -2 0.61916480E-01 0.22464429E+04</pdfrwt>
<totfact> 0.31578225E+00</totfact>
</mgrwt>
</event>
<event>
 4    1  0.2058093E-008  0.2555927E+04  0.7816531E-02  0.8383328E-01
          2   -1    0    0  501    0  0.00000000000E+00  0.00000000000E+00  0.22093194159E+04  0.22093194159E+04  0.00000000000E+00 0.  1.
         -2   -1    0    0    0  501 -0.00000000000E+00 -0.00000000000E+00 -0.73922818327E+03  0.73922818327E+03  0.00000000000E+00 0. -1.
    2000013    1    1    2    0    0  0.65771179891E+03  0.53268001803E+03  0.59681248511E+03  0.14053533201E+04  0.95000000000E+03 0.  0.
   -2000013    1    1    2    0    0 -0.65771179891E+03 -0.53268001803E+03  0.87327874755E+03  0.15431942791E+04  0.95000000000E+03 0.  0.
<mgrwt>
<rscale>  0 0.25559274E+04</rscale>
<asrwt>0</asrwt>
<pdfrwt beam="1">  1        2 0.33989529E+00 0.25559274E+04</pdfrwt>
<pdfrwt beam="2">  1       -2 0.11372741E+00 0.25559274E+04</pdfrwt>
<totfact> 0.27439167E+00</totfact>
</mgrwt>
</event>
<event>
 4    1  0.2058093E-008  0.5024279E+04  0.7816531E-02  0.7824773E-01
         -2   -1    0    0    0  501 -0.00000000000E+00  0.00000000000E+00  0.25886866721E+04  0.25886866721E+04  0.00000000000E+00 0. -1.
          2   -1    0    0  501    0  0.00000000000E+00 -0.00000000000E+00 -0.24378560512E+04  0.24378560512E+04  0.00000000000E+00 0.  1.
    2000013    1    1    2    0    0  0.20548883484E+04 -0.10454917341E+04  0.38006255692E+03  0.25224128603E+04  0.95000000000E+03 0.  0.
   -2000013    1    1    2    0    0 -0.20548883484E+04  0.10454917341E+04 -0.22923193596E+03  0.25041298631E+04  0.95000000000E+03 0.  0.
<mgrwt>
<rscale>  0 0.50242792E+04</rscale>
<asrwt>0</asrwt>
<pdfrwt beam="2">  1        2 0.37505478E+00 0.50242792E+04</pdfrwt>
<pdfrwt beam="1">  1       -2 0.39825949E+00 0.50242792E+04</pdfrwt>
<totfact> 0.20949466E-02</totfact>
</mgrwt>
</event>
<event>
 4    1  0.2058093E-008  0.2152721E+04  0.7816531E-02  0.8538368E-01
          2   -1    0    0  501    0  0.00000000000E+00  0.00000000000E+00  0.37298199638E+04  0.37298199638E+04  0.00000000000E+00 0.  1.
         -2   -1    0    0    0  501 -0.00000000000E+00 -0.00000000000E+00 -0.31061870879E+03  0.31061870879E+03  0.00000000000E+00 0. -1.
    2000013    1    1    2    0    0  0.12733366860E+03 -0.45509238478E+03  0.13700483742E+04  0.17328749204E+04  0.95000000000E+03 0.  0.
   -2000013    1    1    2    0    0 -0.12733366860E+03  0.45509238478E+03  0.20491528807E+04  0.23075637522E+04  0.95000000000E+03 0.  0.
<mgrwt>
<rscale>  0 0.21527209E+04</rscale>
<asrwt>0</asrwt>
<pdfrwt beam="1">  1        2 0.57381842E+00 0.21527209E+04</pdfrwt>
<pdfrwt beam="2">  1       -2 0.47787496E-01 0.21527209E+04</pdfrwt>
<totfact> 0.21237616E+00</totfact>
</mgrwt>
</event>
<event>
 4    1  0.2058093E-008  0.4092521E+04  0.7816531E-02  0.7986138E-01
          2   -1    0    0  501    0  0.00000000000E+00  0.00000000000E+00  0.39507058280E+04  0.39507058280E+04  0.00000000000E+00 0.  1.
         -2   -1    0    0    0  501 -0.00000000000E+00 -0.00000000000E+00 -0.10598564891E+04  0.10598564891E+04  0.00000000000E+00 0. -1.
    2000013    1    1    2    0    0 -0.16961542738E+04 -0.10862394991E+03  0.67503264493E+03  0.20608026482E+04  0.95000000000E+03 0.  0.
   -2000013    1    1    2    0    0  0.16961542738E+04  0.10862394991E+03  0.22158166940E+04  0.29497596689E+04  0.95000000000E+03 0.  0.
<mgrwt>
<rscale>  0 0.40925206E+04</rscale>
<asrwt>0</asrwt>
<pdfrwt beam="1">  1        2 0.60780089E+00 0.40925206E+04</pdfrwt>
<pdfrwt beam="2">  1       -2 0.16305485E+00 0.40925206E+04</pdfrwt>
<totfact> 0.69949714E-02</totfact>
</mgrwt>
</event>
<event>
 4    1  0.2058093E-008  0.2208217E+04  0.7816531E-02  0.8515016E-01
         -1   -1    0    0    0  501 -0.00000000000E+00  0.00000000000E+00  0.15269696560E+04  0.15269696560E+04  0.00000000000E+00 0. -1.
          1   -1    0    0  501    0  0.00000000000E+00 -0.00000000000E+00 -0.79834929450E+03  0.79834929450E+03  0.00000000000E+00 0.  1.
    2000013    1    1    2    0    0  0.72421913918E+02  0.47942974468E+03  0.63767639238E+02  0.10684868392E+04  0.95000000000E+03 0.  0.
   -2000013    1    1    2    0    0 -0.72421913918E+02 -0.47942974468E+03  0.66485272224E+03  0.12568321113E+04  0.95000000000E+03 0.  0.
<mgrwt>
<rscale>  0 0.22082166E+04</rscale>
<asrwt>0</asrwt>
<pdfrwt beam="2">  1        1 0.12282297E+00 0.22082166E+04</pdfrwt>
<pdfrwt beam="1">  1       -1 0.23491841E+00 0.22082166E+04</pdfrwt>
<totfact> 0.17697249E+00</totfact>
</mgrwt>
</event>
<event>
 4    1  0.2058093E-008  0.2319243E+04  0.7816531E-02  0.8470372E-01
         -2   -1    0    0    0  501 -0.00000000000E+00  0.00000000000E+00  0.15215035327E+04  0.15215035327E+04  0.00000000000E+00 0. -1.
          2   -1    0    0  501    0  0.00000000000E+00 -0.00000000000E+00 -0.88381155754E+03  0.88381155754E+03  0.00000000000E+00 0.  1.
    2000013    1    1    2    0    0  0.44639327645E+03  0.47255883631E+03  0.17348891902E+03  0.11641207910E+04  0.95000000000E+03 0.  0.
   -2000013    1    1    2    0    0 -0.44639327645E+03 -0.47255883631E+03  0.46420305610E+03  0.12411942992E+04  0.95000000000E+03 0.  0.
<mgrwt>
<rscale>  0 0.23192433E+04</rscale>
<asrwt>0</asrwt>
<pdfrwt beam="2">  1        2 0.13597101E+00 0.23192433E+04</pdfrwt>
<pdfrwt beam="1">  1       -2 0.23407747E+00 0.23192433E+04</pdfrwt>
<totfact> 0.21944392E+00</totfact>
</mgrwt>
</event>
<event>
 4    1  0.2058093E-008  0.3005144E+04  0.7816531E-02  0.8242264E-01
         -2   -1    0    0    0  501 -0.00000000000E+00  0.00000000000E+00  0.14062787451E+04  0.14062787451E+04  0.00000000000E+00 0. -1.
          2   -1    0    0  501    0  0.00000000000E+00 -0.00000000000E+00 -0.16054584933E+04  0.16054584933E+04  0.00000000000E+00 0.  1.
    2000013    1    1    2    0    0 -0.25989933107E+02  0.59537673503E+03  0.90264090279E+03  0.14395865839E+04  0.95000000000E+03 0.  0.
   -2000013    1    1    2    0    0  0.25989933107E+02 -0.59537673503E+03 -0.11018206511E+04  0.15721506545E+04  0.95000000000E+03 0.  0.
<mgrwt>
<rscale>  0 0.30051437E+04</rscale>
<asrwt>0</asrwt>
<pdfrwt beam="2">  1        2 0.24699361E+00 0.30051437E+04</pdfrwt>
<pdfrwt beam="1">  1       -2 0.21635058E+00 0.30051437E+04</pdfrwt>
<totfact> 0.98797782E-01</totfact>
</mgrwt>
</event>
<event>
 4    1  0.2058093E-008  0.3422207E+04  0.7816531E-02  0.8132477E-01
         -2   -1    0    0    0  501 -0.00000000000E+00  0.00000000000E+00  0.17470224693E+04  0.17470224693E+04  0.00000000000E+00 0. -1.
          2   -1    0    0  501    0  0.00000000000E+00 -0.00000000000E+00 -0.16759231755E+04  0.16759231755E+04  0.00000000000E+00 0.  1.
    2000013    1    1    2    0    0 -0.81841627169E+03  0.11083588348E+04 -0.32105350746E+03  0.17040656839E+04  0.95000000000E+03 0.  0.
   -2000013    1    1    2    0    0  0.81841627169E+03 -0.11083588348E+04  0.39215280134E+03  0.17188799609E+04  0.95000000000E+03 0.  0.
<mgrwt>
<rscale>  0 0.34222072E+04</rscale>
<asrwt>0</asrwt>
<pdfrwt beam="2">  1        2 0.25783434E+00 0.34222072E+04</pdfrwt>
<pdfrwt beam="1">  1       -2 0.26877269E+00 0.34222072E+04</pdfrwt>
<totfact> 0.41244339E-01</totfact>
</mgrwt>
</event>
<event>
 4    1  0.2058093E-008  0.2363326E+04  0.7816531E-02  0.8453363E-01
          1   -1    0    0  501    0  0.00000000000E+00  0.00000000000E+00  0.12795662580E+04  0.12795662580E+04  0.00000000000E+00 0.  1.
         -1   -1    0    0    0  501 -0.00000000000E+00 -0.00000000000E+00 -0.10912507273E+04  0.10912507273E+04  0.00000000000E+00 0. -1.
    2000013    1    1    2    0    0 -0.44157493942E+03 -0.51332084484E+03  0.28274536355E+03  0.12003881278E+04  0.95000000000E+03 0.  0.
   -2000013    1    1    2    0    0  0.44157493942E+03  0.51332084484E+03 -0.94429832824E+02  0.11704288574E+04  0.95000000000E+03 0.  0.
<mgrwt>
<rscale>  0 0.23633261E+04</rscale>
<asrwt>0</asrwt>
<pdfrwt beam="1">  1        1 0.19685635E+00 0.23633261E+04</pdfrwt>
<pdfrwt beam="2">  1       -1 0.16788473E+00 0.23633261E+04</pdfrwt>
<totfact> 0.21454924E+00</totfact>
</mgrwt>
</event>
<event>
 4    1  0.2058093E-008  0.2719927E+04  0.7816531E-02  0.8328568E-01
         -2   -1    0    0    0  501 -0.00000000000E+00  0.00000000000E+00  0.32051568623E+04  0.32051568623E+04  0.00000000000E+00 0. -1.
          2   -1    0    0  501    0  0.00000000000E+00 -0.00000000000E+00 -0.57703924709E+03  0.57703924709E+03  0.00000000000E+00 0.  1.
    2000013    1    1    2    0    0  0.70425226660E+03 -0.62914480660E+03  0.16407844724E+04  0.21181284492E+04  0.95000000000E+03 0.  0.
   -2000013    1    1    2    0    0 -0.70425226660E+03  0.62914480660E+03  0.98733314289E+03  0.16640676602E+04  0.95000000000E+03 0.  0.
<mgrwt>
<rscale>  0 0.27199274E+04</rscale>
<asrwt>0</asrwt>
<pdfrwt beam="2">  1        2 0.88775270E-01 0.27199274E+04</pdfrwt>
<pdfrwt beam="1">  1       -2 0.49310105E+00 0.27199274E+04</pdfrwt>
<totfact> 0.82671243E-02</totfact>
</mgrwt>
</event>
<event>
 4    1  0.2058093E-008  0.3587317E+04  0.7816531E-02  0.8093403E-01
          2   -1    0    0  501    0  0.00000000000E+00  0.00000000000E+00  0.25484082452E+04  0.25484082452E+04  0.00000000000E+00 0.  1.
         -2   -1    0    0    0  501 -0.00000000000E+00 -0.00000000000E+00 -0.12624393518E+04  0.12624393518E+04  0.00000000000E+00 0. -1.
    2000013    1    1    2    0    0  0.11211150512E+04 -0.60422388144E+03  0.15271475295E+04  0.22037842530E+04  0.95000000000E+03 0.  0.
   -2000013    1    1    2    0    0 -0.11211150512E+04  0.60422388144E+03 -0.24117863610E+03  0.16070633440E+04  0.95000000000E+03 0.  0.
<mgrwt>
<rscale>  0 0.35873170E+04</rscale>
<asrwt>0</asrwt>
<pdfrwt beam="1">  1        2 0.39206281E+00 0.35873170E+04</pdfrwt>
<pdfrwt beam="2">  1       -2 0.19422144E+00 0.35873170E+04</pdfrwt>
<totfact> 0.38655303E-01</totfact>
</mgrwt>
</event>
<event>
 4    1  0.2058093E-008  0.2364982E+04  0.7816531E-02  0.8452731E-01
         -2   -1    0    0    0  501 -0.00000000000E+00  0.00000000000E+00  0.18640482417E+04  0.18640482417E+04  0.00000000000E+00 0. -1.
          2   -1    0    0  501    0  0.00000000000E+00 -0.00000000000E+00 -0.75013351828E+03  0.75013351828E+03  0.00000000000E+00 0.  1.
    2000013    1    1    2    0    0  0.30436865052E+03  0.39225739658E+03  0.11088450510E+04  0.15422527314E+04  0.95000000000E+03 0.  0.
   -2000013    1    1    2    0    0 -0.30436865052E+03 -0.39225739658E+03  0.50696724343E+01  0.10719290285E+04  0.95000000000E+03 0.  0.
<mgrwt>
<rscale>  0 0.23649821E+04</rscale>
<asrwt>0</asrwt>
<pdfrwt beam="2">  1        2 0.11540516E+00 0.23649821E+04</pdfrwt>
<pdfrwt beam="1">  1       -2 0.28677665E+00 0.23649821E+04</pdfrwt>
<totfact> 0.12946972E+00</totfact>
</mgrwt>
</event>
<event>
 4    1  0.2058093E-008  0.2310986E+04  0.7816531E-02  0.8473602E-01
          2   -1    0    0  501    0  0.00000000000E+00  0.00000000000E+00  0.13537250563E+04  0.13537250563E+04  0.00000000000E+00 0.  1.
         -2   -1    0    0    0  501 -0.00000000000E+00 -0.00000000000E+00 -0.98628859348E+03  0.98628859348E+03  0.00000000000E+00 0. -1.
    2000013    1    1    2    0    0  0.76769800995E+02 -0.59345576210E+03 -0.92805900855E+02  0.11265861171E+04  0.95000000000E+03 0.  0.
   -2000013    1    1    2    0    0 -0.76769800995E+02  0.59345576210E+03  0.46024236371E+03  0.12134275328E+04  0.95000000000E+03 0.  0.
<mgrwt>
<rscale>  0 0.23109856E+04</rscale>
<asrwt>0</asrwt>
<pdfrwt beam="1">  1        2 0.20826539E+00 0.23109856E+04</pdfrwt>
<pdfrwt beam="2">  1       -2 0.15173671E+00 0.23109856E+04</pdfrwt>
<totfact> 0.40502647E+00</totfact>
</mgrwt>
</event>
<event>
 4    1  0.2058093E-008  0.3198534E+04  0.7816531E-02  0.8189204E-01
         -2   -1    0    0    0  501 -0.00000000000E+00  0.00000000000E+00  0.20063273243E+04  0.20063273243E+04  0.00000000000E+00 0. -1.
          2   -1    0    0  501    0  0.00000000000E+00 -0.00000000000E+00 -0.12747945311E+04  0.12747945311E+04  0.00000000000E+00 0.  1.
    2000013    1    1    2    0    0 -0.88422479166E+03 -0.88672643398E+03  0.66837101222E+03  0.17080272424E+04  0.95000000000E+03 0.  0.
   -2000013    1    1    2    0    0  0.88422479166E+03  0.88672643398E+03  0.63161780980E+02  0.15730946130E+04  0.95000000000E+03 0.  0.
<mgrwt>
<rscale>  0 0.31985341E+04</rscale>
<asrwt>0</asrwt>
<pdfrwt beam="2">  1        2 0.19612224E+00 0.31985341E+04</pdfrwt>
<pdfrwt beam="1">  1       -2 0.30866574E+00 0.31985341E+04</pdfrwt>
<totfact> 0.40498462E-01</totfact>
</mgrwt>
</event>
<event>
 4    1  0.2058093E-008  0.2254056E+04  0.7816531E-02  0.8496260E-01
         -4   -1    0    0    0  501 -0.00000000000E+00  0.00000000000E+00  0.84061944918E+03  0.84061944918E+03  0.00000000000E+00 0. -1.
          4   -1    0    0  501    0  0.00000000000E+00 -0.00000000000E+00 -0.15110193990E+04  0.15110193990E+04  0.00000000000E+00 0.  1.
    2000013    1    1    2    0    0 -0.40618654561E+03  0.44949561333E+03 -0.36197172279E+03  0.11834514542E+04  0.95000000000E+03 0.  0.
   -2000013    1    1    2    0    0  0.40618654561E+03 -0.44949561333E+03 -0.30842822699E+03  0.11681873940E+04  0.95000000000E+03 0.  0.
<mgrwt>
<rscale>  0 0.22540562E+04</rscale>
<asrwt>0</asrwt>
<pdfrwt beam="2">  1        4 0.23246452E+00 0.22540562E+04</pdfrwt>
<pdfrwt beam="1">  1       -4 0.12932607E+00 0.22540562E+04</pdfrwt>
<totfact> 0.64806654E-02</totfact>
</mgrwt>
</event>
<event>
 4    1  0.2058093E-008  0.2066479E+04  0.7816531E-02  0.8576155E-01
         -2   -1    0    0    0  501 -0.00000000000E+00  0.00000000000E+00  0.58575733554E+03  0.58575733554E+03  0.00000000000E+00 0. -1.
          2   -1    0    0  501    0  0.00000000000E+00 -0.00000000000E+00 -0.18225699219E+04  0.18225699219E+04  0.00000000000E+00 0.  1.
    2000013    1    1    2    0    0  0.13245950834E+03  0.37940028002E+03 -0.54854287079E+03  0.11682848004E+04  0.95000000000E+03 0.  0.
   -2000013    1    1    2    0    0 -0.13245950834E+03 -0.37940028002E+03 -0.68826971560E+03  0.12400424570E+04  0.95000000000E+03 0.  0.
<mgrwt>
<rscale>  0 0.20664788E+04</rscale>
<asrwt>0</asrwt>
<pdfrwt beam="2">  1        2 0.28039537E+00 0.20664788E+04</pdfrwt>
<pdfrwt beam="1">  1       -2 0.90116514E-01 0.20664788E+04</pdfrwt>
<totfact> 0.81621608E+00</totfact>
</mgrwt>
</event>
<event>
 4    1  0.2058093E-008  0.1991073E+04  0.7816531E-02  0.8610806E-01
          2   -1    0    0  501    0  0.00000000000E+00  0.00000000000E+00  0.31730592454E+04  0.31730592454E+04  0.00000000000E+00 0.  1.
         -2   -1    0    0    0  501 -0.00000000000E+00 -0.00000000000E+00 -0.31234616105E+03  0.31234616105E+03  0.00000000000E+00 0. -1.
    2000013    1    1    2    0    0  0.21554443585E+03  0.16909544444E+03  0.12266623330E+04  0.15755167890E+04  0.95000000000E+03 0.  0.
   -2000013    1    1    2    0    0 -0.21554443585E+03 -0.16909544444E+03  0.16340507513E+04  0.19098886174E+04  0.95000000000E+03 0.  0.
<mgrwt>
<rscale>  0 0.19910730E+04</rscale>
<asrwt>0</asrwt>
<pdfrwt beam="1">  1        2 0.48816294E+00 0.19910730E+04</pdfrwt>
<pdfrwt beam="2">  1       -2 0.48053258E-01 0.19910730E+04</pdfrwt>
<totfact> 0.51681544E+00</totfact>
</mgrwt>
</event>
<event>
 4    1  0.2058093E-008  0.2660818E+04  0.7816531E-02  0.8347831E-01
          2   -1    0    0  501    0  0.00000000000E+00  0.00000000000E+00  0.37469235037E+04  0.37469235037E+04  0.00000000000E+00 0.  1.
         -2   -1    0    0    0  501 -0.00000000000E+00 -0.00000000000E+00 -0.47238450429E+03  0.47238450429E+03  0.00000000000E+00 0. -1.
    2000013    1    1    2    0    0 -0.84086176475E+03 -0.39388582786E+03  0.17526466964E+04  0.21991964431E+04  0.95000000000E+03 0.  0.
   -2000013    1    1    2    0    0  0.84086176475E+03  0.39388582786E+03  0.15218923031E+04  0.20201115650E+04  0.95000000000E+03 0.  0.
<mgrwt>
<rscale>  0 0.26608184E+04</rscale>
<asrwt>0</asrwt>
<pdfrwt beam="1">  1        2 0.57644975E+00 0.26608184E+04</pdfrwt>
<pdfrwt beam="2">  1       -2 0.72674542E-01 0.26608184E+04</pdfrwt>
<totfact> 0.81236714E-01</totfact>
</mgrwt>
</event>
<event>
 4    1  0.2058093E-008  0.3031204E+04  0.7816531E-02  0.8234876E-01
          2   -1    0    0  501    0  0.00000000000E+00  0.00000000000E+00  0.13061379980E+04  0.13061379980E+04  0.00000000000E+00 0.  1.
         -2   -1    0    0    0  501 -0.00000000000E+00 -0.00000000000E+00 -0.17586579176E+04  0.17586579176E+04  0.00000000000E+00 0. -1.
    2000013    1    1    2    0    0 -0.43247571139E+03  0.10242630781E+04 -0.62866527894E+03  0.15918134712E+04  0.95000000000E+03 0.  0.
   -2000013    1    1    2    0    0  0.43247571139E+03 -0.10242630781E+04  0.17614535933E+03  0.14729824445E+04  0.95000000000E+03 0.  0.
<mgrwt>
<rscale>  0 0.30312043E+04</rscale>
<asrwt>0</asrwt>
<pdfrwt beam="1">  1        2 0.20094431E+00 0.30312043E+04</pdfrwt>
<pdfrwt beam="2">  1       -2 0.27056276E+00 0.30312043E+04</pdfrwt>
<totfact> 0.67312782E-01</totfact>
</mgrwt>
</event>
<event>
 4    1  0.2058093E-008  0.2103690E+04  0.7816531E-02  0.8559620E-01
         -2   -1    0    0    0  501 -0.00000000000E+00  0.00000000000E+00  0.38212728943E+03  0.38212728943E+03  0.00000000000E+00 0. -1.
          2   -1    0    0  501    0  0.00000000000E+00 -0.00000000000E+00 -0.28953132313E+04  0.28953132313E+04  0.00000000000E+00 0.  1.
    2000013    1    1    2    0    0  0.39434549106E+03 -0.17317151521E+03 -0.10453691053E+04  0.14767509290E+04  0.95000000000E+03 0.  0.
   -2000013    1    1    2    0    0 -0.39434549106E+03  0.17317151521E+03 -0.14678168366E+04  0.18006895917E+04  0.95000000000E+03 0.  0.
<mgrwt>
<rscale>  0 0.21036903E+04</rscale>
<asrwt>0</asrwt>
<pdfrwt beam="2">  1        2 0.44543282E+00 0.21036903E+04</pdfrwt>
<pdfrwt beam="1">  1       -2 0.58788811E-01 0.21036903E+04</pdfrwt>
<totfact> 0.50449979E+00</totfact>
</mgrwt>
</event>
<event>
 4    1  0.2058093E-008  0.1953879E+04  0.7816531E-02  0.8628493E-01
         -2   -1    0    0    0  501 -0.00000000000E+00  0.00000000000E+00  0.40808631320E+03  0.40808631320E+03  0.00000000000E+00 0. -1.
          2   -1    0    0  501    0  0.00000000000E+00 -0.00000000000E+00 -0.23387465039E+04  0.23387465039E+04  0.00000000000E+00 0.  1.
    2000013    1    1    2    0    0 -0.17209282930E+03 -0.66645826332E+02 -0.11531701382E+04  0.15054431161E+04  0.95000000000E+03 0.  0.
   -2000013    1    1    2    0    0  0.17209282930E+03  0.66645826332E+02 -0.77749005241E+03  0.12413897010E+04  0.95000000000E+03 0.  0.
<mgrwt>
<rscale>  0 0.19538786E+04</rscale>
<asrwt>0</asrwt>
<pdfrwt beam="2">  1        2 0.35980716E+00 0.19538786E+04</pdfrwt>
<pdfrwt beam="1">  1       -2 0.62782509E-01 0.19538786E+04</pdfrwt>
<totfact> 0.94538284E+00</totfact>
</mgrwt>
</event>
<event>
 4    1  0.2058093E-008  0.2113168E+04  0.7816531E-02  0.8555465E-01
          2   -1    0    0  501    0  0.00000000000E+00  0.00000000000E+00  0.25524506226E+04  0.25524506226E+04  0.00000000000E+00 0.  1.
         -2   -1    0    0    0  501 -0.00000000000E+00 -0.00000000000E+00 -0.43737156815E+03  0.43737156815E+03  0.00000000000E+00 0. -1.
    2000013    1    1    2    0    0 -0.45557380625E+03  0.66281599870E+02  0.99540526467E+03  0.14509556797E+04  0.95000000000E+03 0.  0.
   -2000013    1    1    2    0    0  0.45557380625E+03 -0.66281599870E+02  0.11196737898E+04  0.15388665111E+04  0.95000000000E+03 0.  0.
<mgrwt>
<rscale>  0 0.21131676E+04</rscale>
<asrwt>0</asrwt>
<pdfrwt beam="1">  1        2 0.39268470E+00 0.21131676E+04</pdfrwt>
<pdfrwt beam="2">  1       -2 0.67287935E-01 0.21131676E+04</pdfrwt>
<totfact> 0.60538547E+00</totfact>
</mgrwt>
</event>
<event>
 4    1  0.2058093E-008  0.2171079E+04  0.7816531E-02  0.8530563E-01
          2   -1    0    0  501    0  0.00000000000E+00  0.00000000000E+00  0.18151587357E+04  0.18151587357E+04  0.00000000000E+00 0.  1.
         -2   -1    0    0    0  501 -0.00000000000E+00 -0.00000000000E+00 -0.64919710255E+03  0.64919710255E+03  0.00000000000E+00 0. -1.
    2000013    1    1    2    0    0  0.40731545042E+03 -0.32560458163E+03  0.51144738512E+03  0.11983332790E+04  0.95000000000E+03 0.  0.
   -2000013    1    1    2    0    0 -0.40731545042E+03  0.32560458163E+03  0.65451424802E+03  0.12660225593E+04  0.95000000000E+03 0.  0.
<mgrwt>
<rscale>  0 0.21710788E+04</rscale>
<asrwt>0</asrwt>
<pdfrwt beam="1">  1        2 0.27925519E+00 0.21710788E+04</pdfrwt>
<pdfrwt beam="2">  1       -2 0.99876478E-01 0.21710788E+04</pdfrwt>
<totfact> 0.64237908E+00</totfact>
</mgrwt>
</event>
<event>
 4    1  0.2058093E-008  0.2670017E+04  0.7816531E-02  0.8344799E-01
          2   -1    0    0  501    0  0.00000000000E+00  0.00000000000E+00  0.10068763683E+04  0.10068763683E+04  0.00000000000E+00 0.  1.
         -2   -1    0    0    0  501 -0.00000000000E+00 -0.00000000000E+00 -0.17700760564E+04  0.17700760564E+04  0.00000000000E+00 0. -1.
    2000013    1    1    2    0    0  0.31133604678E+03 -0.88068841758E+03 -0.29331476237E+03  0.13642125101E+04  0.95000000000E+03 0.  0.
   -2000013    1    1    2    0    0 -0.31133604678E+03  0.88068841758E+03 -0.46988492572E+03  0.14127399146E+04  0.95000000000E+03 0.  0.
<mgrwt>
<rscale>  0 0.26700170E+04</rscale>
<asrwt>0</asrwt>
<pdfrwt beam="1">  1        2 0.15490406E+00 0.26700170E+04</pdfrwt>
<pdfrwt beam="2">  1       -2 0.27231939E+00 0.26700170E+04</pdfrwt>
<totfact> 0.10286378E+00</totfact>
</mgrwt>
</event>
<event>
 4    1  0.2058093E-008  0.2754082E+04  0.7816531E-02  0.8317667E-01
         -1   -1    0    0    0  501 -0.00000000000E+00  0.00000000000E+00  0.17932711177E+04  0.17932711177E+04  0.00000000000E+00 0. -1.
          1   -1    0    0  501    0  0.00000000000E+00 -0.00000000000E+00 -0.10574208605E+04  0.10574208605E+04  0.00000000000E+00 0.  1.
    2000013    1    1    2    0    0 -0.42184235575E+03 -0.61722126569E+03 -0.31462216126E+03  0.12491597849E+04  0.95000000000E+03 0.  0.
   -2000013    1    1    2    0    0  0.42184235575E+03  0.61722126569E+03  0.10504724185E+04  0.16015321932E+04  0.95000000000E+03 0.  0.
<mgrwt>
<rscale>  0 0.27540823E+04</rscale>
<asrwt>0</asrwt>
<pdfrwt beam="2">  1        1 0.16268013E+00 0.27540823E+04</pdfrwt>
<pdfrwt beam="1">  1       -1 0.27588786E+00 0.27540823E+04</pdfrwt>
<totfact> 0.56174598E-01</totfact>
</mgrwt>
</event>
<event>
 4    1  0.2058093E-008  0.2268286E+04  0.7816531E-02  0.8490531E-01
          2   -1    0    0  501    0  0.00000000000E+00  0.00000000000E+00  0.17914011664E+04  0.17914011664E+04  0.00000000000E+00 0.  1.
         -2   -1    0    0    0  501 -0.00000000000E+00 -0.00000000000E+00 -0.71803039185E+03  0.71803039185E+03  0.00000000000E+00 0. -1.
    2000013    1    1    2    0    0 -0.42235515877E+03  0.10086558207E+03  0.10254983531E+04  0.14637980113E+04  0.95000000000E+03 0.  0.
   -2000013    1    1    2    0    0  0.42235515877E+03 -0.10086558207E+03  0.47872421511E+02  0.10456335470E+04  0.95000000000E+03 0.  0.
<mgrwt>
<rscale>  0 0.22682861E+04</rscale>
<asrwt>0</asrwt>
<pdfrwt beam="1">  1        2 0.27560018E+00 0.22682861E+04</pdfrwt>
<pdfrwt beam="2">  1       -2 0.11046621E+00 0.22682861E+04</pdfrwt>
<totfact> 0.51571990E+00</totfact>
</mgrwt>
</event>
<event>
 4    1  0.2058093E-008  0.2149734E+04  0.7816531E-02  0.8539646E-01
          2   -1    0    0  501    0  0.00000000000E+00  0.00000000000E+00  0.46937965106E+03  0.46937965106E+03  0.00000000000E+00 0.  1.
         -2   -1    0    0    0  501 -0.00000000000E+00 -0.00000000000E+00 -0.24614174413E+04  0.24614174413E+04  0.00000000000E+00 0. -1.
    2000013    1    1    2    0    0 -0.44482325069E+03  0.59387316901E+01 -0.13155628179E+04  0.16825898255E+04  0.95000000000E+03 0.  0.
   -2000013    1    1    2    0    0  0.44482325069E+03 -0.59387316901E+01 -0.67647497228E+03  0.12482072668E+04  0.95000000000E+03 0.  0.
<mgrwt>
<rscale>  0 0.21497342E+04</rscale>
<asrwt>0</asrwt>
<pdfrwt beam="1">  1        2 0.72212254E-01 0.21497342E+04</pdfrwt>
<pdfrwt beam="2">  1       -2 0.37867961E+00 0.21497342E+04</pdfrwt>
<totfact> 0.62212996E-01</totfact>
</mgrwt>
</event>
<event>
 4    1  0.2058093E-008  0.2681840E+04  0.7816531E-02  0.8340921E-01
         -2   -1    0    0    0  501 -0.00000000000E+00  0.00000000000E+00  0.99779516902E+03  0.99779516902E+03  0.00000000000E+00 0. -1.
          2   -1    0    0  501    0  0.00000000000E+00 -0.00000000000E+00 -0.18020400827E+04  0.18020400827E+04  0.00000000000E+00 0.  1.
    2000013    1    1    2    0    0 -0.84997229743E+03 -0.38364077794E+03 -0.57024738141E+03  0.14482110443E+04  0.95000000000E+03 0.  0.
   -2000013    1    1    2    0    0  0.84997229743E+03  0.38364077794E+03 -0.23399753228E+03  0.13516242074E+04  0.95000000000E+03 0.  0.
<mgrwt>
<rscale>  0 0.26818403E+04</rscale>
<asrwt>0</asrwt>
<pdfrwt beam="2">  1        2 0.27723693E+00 0.26818403E+04</pdfrwt>
<pdfrwt beam="1">  1       -2 0.15350695E+00 0.26818403E+04</pdfrwt>
<totfact> 0.21306256E+00</totfact>
</mgrwt>
</event>
<event>
 4    1  0.2058093E-008  0.3074659E+04  0.7816531E-02  0.8222727E-01
         -2   -1    0    0    0  501 -0.00000000000E+00  0.00000000000E+00  0.22468896436E+04  0.22468896436E+04  0.00000000000E+00 0. -1.
          2   -1    0    0  501    0  0.00000000000E+00 -0.00000000000E+00 -0.10518459574E+04  0.10518459574E+04  0.00000000000E+00 0.  1.
    2000013    1    1    2    0    0  0.53093228077E+03 -0.98549559029E+03  0.10865840301E+04  0.18265419513E+04  0.95000000000E+03 0.  0.
   -2000013    1    1    2    0    0 -0.53093228077E+03  0.98549559029E+03  0.10845965612E+03  0.14721936497E+04  0.95000000000E+03 0.  0.
<mgrwt>
<rscale>  0 0.30746589E+04</rscale>
<asrwt>0</asrwt>
<pdfrwt beam="2">  1        2 0.16182246E+00 0.30746589E+04</pdfrwt>
<pdfrwt beam="1">  1       -2 0.34567533E+00 0.30746589E+04</pdfrwt>
<totfact> 0.32892520E-01</totfact>
</mgrwt>
</event>
<event>
 4    1  0.2058093E-008  0.2476646E+04  0.7816531E-02  0.8411353E-01
          2   -1    0    0  501    0  0.00000000000E+00  0.00000000000E+00  0.10883636659E+04  0.10883636659E+04  0.00000000000E+00 0.  1.
         -2   -1    0    0    0  501 -0.00000000000E+00 -0.00000000000E+00 -0.14089437948E+04  0.14089437948E+04  0.00000000000E+00 0. -1.
    2000013    1    1    2    0    0 -0.47920526762E+03 -0.53498687158E+03  0.18179619210E+03  0.12047400121E+04  0.95000000000E+03 0.  0.
   -2000013    1    1    2    0    0  0.47920526762E+03  0.53498687158E+03 -0.50237632101E+03  0.12925674486E+04  0.95000000000E+03 0.  0.
<mgrwt>
<rscale>  0 0.24766455E+04</rscale>
<asrwt>0</asrwt>
<pdfrwt beam="1">  1        2 0.16744056E+00 0.24766455E+04</pdfrwt>
<pdfrwt beam="2">  1       -2 0.21676058E+00 0.24766455E+04</pdfrwt>
<totfact> 0.20510508E+00</totfact>
</mgrwt>
</event>
<event>
 4    1  0.2058093E-008  0.5493115E+04  0.7816531E-02  0.7756637E-01
         -2   -1    0    0    0  501 -0.00000000000E+00  0.00000000000E+00  0.15345585897E+04  0.15345585897E+04  0.00000000000E+00 0. -1.
          2   -1    0    0  501    0  0.00000000000E+00 -0.00000000000E+00 -0.49157967303E+04  0.49157967303E+04  0.00000000000E+00 0.  1.
    2000013    1    1    2    0    0  0.25078796800E+04  0.56035999397E+03 -0.19183601408E+04  0.33445581833E+04  0.95000000000E+03 0.  0.
   -2000013    1    1    2    0    0 -0.25078796800E+04 -0.56035999397E+03 -0.14628779997E+04  0.31057971367E+04  0.95000000000E+03 0.  0.
<mgrwt>
<rscale>  0 0.54931150E+04</rscale>
<asrwt>0</asrwt>
<pdfrwt beam="2">  1        2 0.75627642E+00 0.54931150E+04</pdfrwt>
<pdfrwt beam="1">  1       -2 0.23608594E+00 0.54931150E+04</pdfrwt>
<totfact> 0.23500089E-03</totfact>
</mgrwt>
</event>
<event>
 4    1  0.2058093E-008  0.2577673E+04  0.7816531E-02  0.8375825E-01
          2   -1    0    0  501    0  0.00000000000E+00  0.00000000000E+00  0.27998491395E+04  0.27998491395E+04  0.00000000000E+00 0.  1.
         -2   -1    0    0    0  501 -0.00000000000E+00 -0.00000000000E+00 -0.59328175328E+03  0.59328175328E+03  0.00000000000E+00 0. -1.
    2000013    1    1    2    0    0 -0.33901920927E+03 -0.65879750341E+03  0.17060118983E+04  0.20885221502E+04  0.95000000000E+03 0.  0.
   -2000013    1    1    2    0    0  0.33901920927E+03  0.65879750341E+03  0.50055548795E+03  0.13046087426E+04  0.95000000000E+03 0.  0.
<mgrwt>
<rscale>  0 0.25776729E+04</rscale>
<asrwt>0</asrwt>
<pdfrwt beam="1">  1        2 0.43074601E+00 0.25776729E+04</pdfrwt>
<pdfrwt beam="2">  1       -2 0.91274117E-01 0.25776729E+04</pdfrwt>
<totfact> 0.20964474E+00</totfact>
</mgrwt>
</event>
<event>
 4    1  0.2058093E-008  0.2089950E+04  0.7816531E-02  0.8565683E-01
          2   -1    0    0  501    0  0.00000000000E+00  0.00000000000E+00  0.15684366621E+04  0.15684366621E+04  0.00000000000E+00 0.  1.
         -2   -1    0    0    0  501 -0.00000000000E+00 -0.00000000000E+00 -0.69621732402E+03  0.69621732402E+03  0.00000000000E+00 0. -1.
    2000013    1    1    2    0    0  0.24161019442E+03 -0.35116599866E+03  0.53168553635E+03  0.11691375258E+04  0.95000000000E+03 0.  0.
   -2000013    1    1    2    0    0 -0.24161019442E+03  0.35116599866E+03  0.34053380170E+03  0.10955164603E+04  0.95000000000E+03 0.  0.
<mgrwt>
<rscale>  0 0.20899500E+04</rscale>
<asrwt>0</asrwt>
<pdfrwt beam="1">  1        2 0.24129795E+00 0.20899500E+04</pdfrwt>
<pdfrwt beam="2">  1       -2 0.10711036E+00 0.20899500E+04</pdfrwt>
<totfact> 0.75076112E+00</totfact>
</mgrwt>
</event>
<event>
 4    1  0.2058093E-008  0.2817551E+04  0.7816531E-02  0.8297840E-01
         -2   -1    0    0    0  501 -0.00000000000E+00  0.00000000000E+00  0.93941622000E+03  0.93941622000E+03  0.00000000000E+00 0. -1.
          2   -1    0    0  501    0  0.00000000000E+00 -0.00000000000E+00 -0.21126402056E+04  0.21126402056E+04  0.00000000000E+00 0.  1.
    2000013    1    1    2    0    0 -0.79261750905E+03 -0.34965280519E+03  0.37209064442E+02  0.12862286400E+04  0.95000000000E+03 0.  0.
   -2000013    1    1    2    0    0  0.79261750905E+03  0.34965280519E+03 -0.12104330500E+04  0.17658277856E+04  0.95000000000E+03 0.  0.
<mgrwt>
<rscale>  0 0.28175510E+04</rscale>
<asrwt>0</asrwt>
<pdfrwt beam="2">  1        2 0.32502157E+00 0.28175510E+04</pdfrwt>
<pdfrwt beam="1">  1       -2 0.14452557E+00 0.28175510E+04</pdfrwt>
<totfact> 0.16602089E+00</totfact>
</mgrwt>
</event>
<event>
 4    1  0.2058093E-008  0.2891649E+04  0.7816531E-02  0.8275367E-01
         -2   -1    0    0    0  501 -0.00000000000E+00  0.00000000000E+00  0.96520811460E+03  0.96520811460E+03  0.00000000000E+00 0. -1.
          2   -1    0    0  501    0  0.00000000000E+00 -0.00000000000E+00 -0.21657587195E+04  0.21657587195E+04  0.00000000000E+00 0.  1.
    2000013    1    1    2    0    0 -0.10538035837E+04  0.27770243724E+03 -0.61862655507E+03  0.15725200957E+04  0.95000000000E+03 0.  0.
   -2000013    1    1    2    0    0  0.10538035837E+04 -0.27770243724E+03 -0.58192404987E+03  0.15584467384E+04  0.95000000000E+03 0.  0.
<mgrwt>
<rscale>  0 0.28916486E+04</rscale>
<asrwt>0</asrwt>
<pdfrwt beam="2">  1        2 0.33319364E+00 0.28916486E+04</pdfrwt>
<pdfrwt beam="1">  1       -2 0.14849356E+00 0.28916486E+04</pdfrwt>
<totfact> 0.14346369E+00</totfact>
</mgrwt>
</event>
<event>
 4    1  0.2058093E-008  0.2015530E+04  0.7816531E-02  0.8599394E-01
         -2   -1    0    0    0  501 -0.00000000000E+00  0.00000000000E+00  0.89526951189E+03  0.89526951189E+03  0.00000000000E+00 0. -1.
          2   -1    0    0  501    0  0.00000000000E+00 -0.00000000000E+00 -0.11343966641E+04  0.11343966641E+04  0.00000000000E+00 0.  1.
    2000013    1    1    2    0    0 -0.26288125341E+03  0.20932211184E+03 -0.10649380605E+03  0.10132932599E+04  0.95000000000E+03 0.  0.
   -2000013    1    1    2    0    0  0.26288125341E+03 -0.20932211184E+03 -0.13263334612E+03  0.10163729160E+04  0.95000000000E+03 0.  0.
<mgrwt>
<rscale>  0 0.20155304E+04</rscale>
<asrwt>0</asrwt>
<pdfrwt beam="2">  1        2 0.17452256E+00 0.20155304E+04</pdfrwt>
<pdfrwt beam="1">  1       -2 0.13773377E+00 0.20155304E+04</pdfrwt>
<totfact> 0.72154408E+00</totfact>
</mgrwt>
</event>
<event>
 4    1  0.2058093E-008  0.2021267E+04  0.7816531E-02  0.8596742E-01
          2   -1    0    0  501    0  0.00000000000E+00  0.00000000000E+00  0.24681425966E+04  0.24681425966E+04  0.00000000000E+00 0.  1.
         -2   -1    0    0    0  501 -0.00000000000E+00 -0.00000000000E+00 -0.41382549981E+03  0.41382549981E+03  0.00000000000E+00 0. -1.
    2000013    1    1    2    0    0  0.27816104929E+03  0.14836279939E+03  0.12262395764E+04  0.15828924753E+04  0.95000000000E+03 0.  0.
   -2000013    1    1    2    0    0 -0.27816104929E+03 -0.14836279939E+03  0.82807752033E+03  0.12990756211E+04  0.95000000000E+03 0.  0.
<mgrwt>
<rscale>  0 0.20212673E+04</rscale>
<asrwt>0</asrwt>
<pdfrwt beam="1">  1        2 0.37971424E+00 0.20212673E+04</pdfrwt>
<pdfrwt beam="2">  1       -2 0.63665463E-01 0.20212673E+04</pdfrwt>
<totfact> 0.76927162E+00</totfact>
</mgrwt>
</event>
<event>
 4    1  0.2058093E-008  0.2801628E+04  0.7816531E-02  0.8302763E-01
         -2   -1    0    0    0  501 -0.00000000000E+00  0.00000000000E+00  0.60108533707E+03  0.60108533707E+03  0.00000000000E+00 0. -1.
          2   -1    0    0  501    0  0.00000000000E+00 -0.00000000000E+00 -0.32645613272E+04  0.32645613272E+04  0.00000000000E+00 0.  1.
    2000013    1    1    2    0    0 -0.47933789766E+03 -0.44627954726E+03 -0.24276473251E+04  0.26879177423E+04  0.95000000000E+03 0.  0.
   -2000013    1    1    2    0    0  0.47933789766E+03  0.44627954726E+03 -0.23582866509E+03  0.11777289220E+04  0.95000000000E+03 0.  0.
<mgrwt>
<rscale>  0 0.28016281E+04</rscale>
<asrwt>0</asrwt>
<pdfrwt beam="2">  1        2 0.50224020E+00 0.28016281E+04</pdfrwt>
<pdfrwt beam="1">  1       -2 0.92474667E-01 0.28016281E+04</pdfrwt>
<totfact> 0.10150445E+00</totfact>
</mgrwt>
</event>
<event>
 4    1  0.2058093E-008  0.2073095E+04  0.7816531E-02  0.8573189E-01
         -1   -1    0    0    0  501 -0.00000000000E+00  0.00000000000E+00  0.56354700796E+03  0.56354700796E+03  0.00000000000E+00 0.  1.
          1   -1    0    0  501    0  0.00000000000E+00 -0.00000000000E+00 -0.19065509789E+04  0.19065509789E+04  0.00000000000E+00 0. -1.
    2000013    1    1    2    0    0  0.29807155139E+03 -0.28763231460E+03 -0.64914419608E+03  0.12228929575E+04  0.95000000000E+03 0.  0.
   -2000013    1    1    2    0    0 -0.29807155139E+03  0.28763231460E+03 -0.69385977487E+03  0.12472050294E+04  0.95000000000E+03 0.  0.
<mgrwt>
<rscale>  0 0.20730954E+04</rscale>
<asrwt>0</asrwt>
<pdfrwt beam="2">  1        1 0.29331554E+00 0.20730954E+04</pdfrwt>
<pdfrwt beam="1">  1       -1 0.86699539E-01 0.20730954E+04</pdfrwt>
<totfact> 0.41681104E+00</totfact>
</mgrwt>
</event>
<event>
 4    1  0.2058093E-008  0.2266746E+04  0.7816531E-02  0.8491149E-01
          2   -1    0    0  501    0  0.00000000000E+00  0.00000000000E+00  0.41035312609E+04  0.41035312609E+04  0.00000000000E+00 0.  1.
         -2   -1    0    0    0  501 -0.00000000000E+00 -0.00000000000E+00 -0.31303147530E+03  0.31303147530E+03  0.00000000000E+00 0. -1.
    2000013    1    1    2    0    0  0.30406537999E+03  0.49648059850E+03  0.14908154535E+04  0.18611769009E+04  0.95000000000E+03 0.  0.
   -2000013    1    1    2    0    0 -0.30406537999E+03 -0.49648059850E+03  0.22996843321E+04  0.25553858353E+04  0.95000000000E+03 0.  0.
<mgrwt>
<rscale>  0 0.22667461E+04</rscale>
<asrwt>0</asrwt>
<pdfrwt beam="1">  1        2 0.63131246E+00 0.22667461E+04</pdfrwt>
<pdfrwt beam="2">  1       -2 0.48158691E-01 0.22667461E+04</pdfrwt>
<totfact> 0.10510538E+00</totfact>
</mgrwt>
</event>
<event>
 4    1  0.2058093E-008  0.2019087E+04  0.7816531E-02  0.8597749E-01
         -2   -1    0    0    0  501 -0.00000000000E+00  0.00000000000E+00  0.15765634544E+04  0.15765634544E+04  0.00000000000E+00 0. -1.
          2   -1    0    0  501    0  0.00000000000E+00 -0.00000000000E+00 -0.64645528825E+03  0.64645528825E+03  0.00000000000E+00 0.  1.
    2000013    1    1    2    0    0 -0.22396408427E+03 -0.16505457583E+03  0.68324942159E+03  0.12028020187E+04  0.95000000000E+03 0.  0.
   -2000013    1    1    2    0    0  0.22396408427E+03  0.16505457583E+03  0.24685874453E+03  0.10202167239E+04  0.95000000000E+03 0.  0.
<mgrwt>
<rscale>  0 0.20190867E+04</rscale>
<asrwt>0</asrwt>
<pdfrwt beam="2">  1        2 0.99454660E-01 0.20190867E+04</pdfrwt>
<pdfrwt beam="1">  1       -2 0.24254822E+00 0.20190867E+04</pdfrwt>
<totfact> 0.29987288E+00</totfact>
</mgrwt>
</event>
<event>
 4    1  0.2058093E-008  0.3057312E+04  0.7816531E-02  0.8227552E-01
          2   -1    0    0  501    0  0.00000000000E+00  0.00000000000E+00  0.93920454536E+03  0.93920454536E+03  0.00000000000E+00 0.  1.
         -2   -1    0    0    0  501 -0.00000000000E+00 -0.00000000000E+00 -0.24880521627E+04  0.24880521627E+04  0.00000000000E+00 0. -1.
    2000013    1    1    2    0    0 -0.57935978718E+03  0.10058350339E+04 -0.44391221021E+03  0.15642633822E+04  0.95000000000E+03 0.  0.
   -2000013    1    1    2    0    0  0.57935978718E+03 -0.10058350339E+04 -0.11049354072E+04  0.18629933259E+04  0.95000000000E+03 0.  0.
<mgrwt>
<rscale>  0 0.30573125E+04</rscale>
<asrwt>0</asrwt>
<pdfrwt beam="1">  1        2 0.14449301E+00 0.30573125E+04</pdfrwt>
<pdfrwt beam="2">  1       -2 0.38277725E+00 0.30573125E+04</pdfrwt>
<totfact> 0.22577714E-01</totfact>
</mgrwt>
</event>
<event>
 4    1  0.2058093E-008  0.3050106E+04  0.7816531E-02  0.8229566E-01
          2   -1    0    0  501    0  0.00000000000E+00  0.00000000000E+00  0.17207199374E+04  0.17207199374E+04  0.00000000000E+00 0.  1.
         -2   -1    0    0    0  501 -0.00000000000E+00 -0.00000000000E+00 -0.13516358973E+04  0.13516358973E+04  0.00000000000E+00 0. -1.
    2000013    1    1    2    0    0 -0.74425089406E+03  0.61015163509E+03 -0.52564893440E+03  0.14508622310E+04  0.95000000000E+03 0.  0.
   -2000013    1    1    2    0    0  0.74425089406E+03 -0.61015163509E+03  0.89473297451E+03  0.16214936037E+04  0.95000000000E+03 0.  0.
<mgrwt>
<rscale>  0 0.30501061E+04</rscale>
<asrwt>0</asrwt>
<pdfrwt beam="1">  1        2 0.26472615E+00 0.30501061E+04</pdfrwt>
<pdfrwt beam="2">  1       -2 0.20794398E+00 0.30501061E+04</pdfrwt>
<totfact> 0.96125881E-01</totfact>
</mgrwt>
</event>
<event>
 4    1  0.2058093E-008  0.2327858E+04  0.7816531E-02  0.8467018E-01
          2   -1    0    0  501    0  0.00000000000E+00  0.00000000000E+00  0.25323602816E+04  0.25323602816E+04  0.00000000000E+00 0.  1.
         -2   -1    0    0    0  501 -0.00000000000E+00 -0.00000000000E+00 -0.53496741822E+03  0.53496741822E+03  0.00000000000E+00 0. -1.
    2000013    1    1    2    0    0 -0.49723972996E+03  0.28476171288E+03  0.14624938309E+04  0.18356810146E+04  0.95000000000E+03 0.  0.
   -2000013    1    1    2    0    0  0.49723972996E+03 -0.28476171288E+03  0.53489903253E+03  0.12316466852E+04  0.95000000000E+03 0.  0.
<mgrwt>
<rscale>  0 0.23278576E+04</rscale>
<asrwt>0</asrwt>
<pdfrwt beam="1">  1        2 0.38959388E+00 0.23278576E+04</pdfrwt>
<pdfrwt beam="2">  1       -2 0.82302681E-01 0.23278576E+04</pdfrwt>
<totfact> 0.39093291E+00</totfact>
</mgrwt>
</event>
<event>
 4    1  0.2058093E-008  0.2042333E+04  0.7816531E-02  0.8587080E-01
         -2   -1    0    0    0  501 -0.00000000000E+00  0.00000000000E+00  0.12285752549E+04  0.12285752549E+04  0.00000000000E+00 0. -1.
          2   -1    0    0  501    0  0.00000000000E+00 -0.00000000000E+00 -0.84877279440E+03  0.84877279440E+03  0.00000000000E+00 0.  1.
    2000013    1    1    2    0    0 -0.16633813631E+03  0.28034132953E+03  0.22894388578E+01  0.10043728781E+04  0.95000000000E+03 0.  0.
   -2000013    1    1    2    0    0  0.16633813631E+03 -0.28034132953E+03  0.37751302167E+03  0.10729751713E+04  0.95000000000E+03 0.  0.
<mgrwt>
<rscale>  0 0.20423332E+04</rscale>
<asrwt>0</asrwt>
<pdfrwt beam="2">  1        2 0.13058043E+00 0.20423332E+04</pdfrwt>
<pdfrwt beam="1">  1       -2 0.18901158E+00 0.20423332E+04</pdfrwt>
<totfact> 0.46322474E+00</totfact>
</mgrwt>
</event>
<event>
 4    1  0.2058093E-008  0.2395295E+04  0.7816531E-02  0.8441267E-01
          1   -1    0    0  501    0  0.00000000000E+00  0.00000000000E+00  0.13720704537E+04  0.13720704537E+04  0.00000000000E+00 0.  1.
         -1   -1    0    0    0  501 -0.00000000000E+00 -0.00000000000E+00 -0.10453976713E+04  0.10453976713E+04  0.00000000000E+00 0. -1.
    2000013    1    1    2    0    0 -0.35930007575E+03 -0.60342106654E+03  0.36174135949E+03  0.12355445517E+04  0.95000000000E+03 0.  0.
   -2000013    1    1    2    0    0  0.35930007575E+03  0.60342106654E+03 -0.35068577141E+02  0.11819235733E+04  0.95000000000E+03 0.  0.
<mgrwt>
<rscale>  0 0.23952948E+04</rscale>
<asrwt>0</asrwt>
<pdfrwt beam="1">  1        1 0.21108776E+00 0.23952948E+04</pdfrwt>
<pdfrwt beam="2">  1       -1 0.16083041E+00 0.23952948E+04</pdfrwt>
<totfact> 0.20759998E+00</totfact>
</mgrwt>
</event>
<event>
 4    1  0.2058093E-008  0.2386741E+04  0.7816531E-02  0.8444484E-01
          2   -1    0    0  501    0  0.00000000000E+00  0.00000000000E+00  0.10139499516E+04  0.10139499516E+04  0.00000000000E+00 0.  1.
         -2   -1    0    0    0  501 -0.00000000000E+00 -0.00000000000E+00 -0.14045402704E+04  0.14045402704E+04  0.00000000000E+00 0. -1.
    2000013    1    1    2    0    0 -0.98275734103E+02  0.69537053787E+03 -0.36616577687E+03  0.12368410088E+04  0.95000000000E+03 0.  0.
   -2000013    1    1    2    0    0  0.98275734103E+02 -0.69537053787E+03 -0.24424541866E+02  0.11816492132E+04  0.95000000000E+03 0.  0.
<mgrwt>
<rscale>  0 0.23867413E+04</rscale>
<asrwt>0</asrwt>
<pdfrwt beam="1">  1        2 0.15599230E+00 0.23867413E+04</pdfrwt>
<pdfrwt beam="2">  1       -2 0.21608312E+00 0.23867413E+04</pdfrwt>
<totfact> 0.23245158E+00</totfact>
</mgrwt>
</event>
<event>
 4    1  0.2058093E-008  0.2563240E+04  0.7816531E-02  0.8380796E-01
          2   -1    0    0  501    0  0.00000000000E+00  0.00000000000E+00  0.16593745275E+04  0.16593745275E+04  0.00000000000E+00 0.  1.
         -2   -1    0    0    0  501 -0.00000000000E+00 -0.00000000000E+00 -0.98986067387E+03  0.98986067387E+03  0.00000000000E+00 0. -1.
    2000013    1    1    2    0    0  0.74333286439E+03 -0.42638649593E+03  0.41279091782E+03  0.13443383254E+04  0.95000000000E+03 0.  0.
   -2000013    1    1    2    0    0 -0.74333286439E+03  0.42638649593E+03  0.25672293578E+03  0.13048968760E+04  0.95000000000E+03 0.  0.
<mgrwt>
<rscale>  0 0.25632398E+04</rscale>
<asrwt>0</asrwt>
<pdfrwt beam="1">  1        2 0.25528839E+00 0.25632398E+04</pdfrwt>
<pdfrwt beam="2">  1       -2 0.15228626E+00 0.25632398E+04</pdfrwt>
<totfact> 0.26386341E+00</totfact>
</mgrwt>
</event>
<event>
 4    1  0.2058093E-008  0.4042170E+04  0.7816531E-02  0.7996093E-01
          2   -1    0    0  501    0  0.00000000000E+00  0.00000000000E+00  0.21986727612E+04  0.21986727612E+04  0.00000000000E+00 0.  1.
         -2   -1    0    0    0  501 -0.00000000000E+00 -0.00000000000E+00 -0.18578413981E+04  0.18578413981E+04  0.00000000000E+00 0. -1.
    2000013    1    1    2    0    0 -0.11449718868E+04  0.13103902965E+04 -0.22366331009E+03  0.19951462671E+04  0.95000000000E+03 0.  0.
   -2000013    1    1    2    0    0  0.11449718868E+04 -0.13103902965E+04  0.56449467322E+03  0.20613678922E+04  0.95000000000E+03 0.  0.
<mgrwt>
<rscale>  0 0.40421703E+04</rscale>
<asrwt>0</asrwt>
<pdfrwt beam="1">  1        2 0.33825735E+00 0.40421703E+04</pdfrwt>
<pdfrwt beam="2">  1       -2 0.28582175E+00 0.40421703E+04</pdfrwt>
<totfact> 0.15782011E-01</totfact>
</mgrwt>
</event>
<event>
 4    1  0.2058093E-008  0.2726779E+04  0.7816531E-02  0.8326368E-01
         -2   -1    0    0    0  501 -0.00000000000E+00  0.00000000000E+00  0.50991698387E+03  0.50991698387E+03  0.00000000000E+00 0. -1.
          2   -1    0    0  501    0  0.00000000000E+00 -0.00000000000E+00 -0.36453611488E+04  0.36453611488E+04  0.00000000000E+00 0.  1.
    2000013    1    1    2    0    0  0.26021087926E+03  0.90838047264E+03 -0.19516266748E+04  0.23673215799E+04  0.95000000000E+03 0.  0.
   -2000013    1    1    2    0    0 -0.26021087926E+03 -0.90838047264E+03 -0.11838174901E+04  0.17879565528E+04  0.95000000000E+03 0.  0.
<mgrwt>
<rscale>  0 0.27267795E+04</rscale>
<asrwt>0</asrwt>
<pdfrwt beam="2">  1        2 0.56082480E+00 0.27267795E+04</pdfrwt>
<pdfrwt beam="1">  1       -2 0.78448765E-01 0.27267795E+04</pdfrwt>
<totfact> 0.80971360E-01</totfact>
</mgrwt>
</event>
<event>
 4    1  0.2058093E-008  0.2745972E+04  0.7816531E-02  0.8320241E-01
         -2   -1    0    0    0  501 -0.00000000000E+00  0.00000000000E+00  0.25149136891E+04  0.25149136891E+04  0.00000000000E+00 0. -1.
          2   -1    0    0  501    0  0.00000000000E+00 -0.00000000000E+00 -0.74956493662E+03  0.74956493662E+03  0.00000000000E+00 0.  1.
    2000013    1    1    2    0    0  0.93913426814E+02 -0.95895178098E+03  0.60594920647E+03  0.14825932317E+04  0.95000000000E+03 0.  0.
   -2000013    1    1    2    0    0 -0.93913426814E+02  0.95895178098E+03  0.11593995460E+04  0.17818853940E+04  0.95000000000E+03 0.  0.
<mgrwt>
<rscale>  0 0.27459724E+04</rscale>
<asrwt>0</asrwt>
<pdfrwt beam="2">  1        2 0.11531768E+00 0.27459724E+04</pdfrwt>
<pdfrwt beam="1">  1       -2 0.38690979E+00 0.27459724E+04</pdfrwt>
<totfact> 0.29621818E-01</totfact>
</mgrwt>
</event>
<event>
 4    1  0.2058093E-008  0.2659658E+04  0.7816531E-02  0.8348215E-01
         -2   -1    0    0    0  501 -0.00000000000E+00  0.00000000000E+00  0.45991820954E+03  0.45991820954E+03  0.00000000000E+00 0. -1.
          2   -1    0    0  501    0  0.00000000000E+00 -0.00000000000E+00 -0.38451290879E+04  0.38451290879E+04  0.00000000000E+00 0.  1.
    2000013    1    1    2    0    0  0.78889563866E+03 -0.38480920145E+03 -0.11923664028E+04  0.17591680104E+04  0.95000000000E+03 0.  0.
   -2000013    1    1    2    0    0 -0.78889563866E+03  0.38480920145E+03 -0.21928444755E+04  0.25458792870E+04  0.95000000000E+03 0.  0.
<mgrwt>
<rscale>  0 0.26596578E+04</rscale>
<asrwt>0</asrwt>
<pdfrwt beam="2">  1        2 0.59155830E+00 0.26596578E+04</pdfrwt>
<pdfrwt beam="1">  1       -2 0.70756650E-01 0.26596578E+04</pdfrwt>
<totfact> 0.72576854E-01</totfact>
</mgrwt>
</event>
<event>
 4    1  0.2058093E-008  0.3125069E+04  0.7816531E-02  0.8208892E-01
          2   -1    0    0  501    0  0.00000000000E+00  0.00000000000E+00  0.27659878947E+04  0.27659878947E+04  0.00000000000E+00 0.  1.
         -2   -1    0    0    0  501 -0.00000000000E+00 -0.00000000000E+00 -0.88269127461E+03  0.88269127461E+03  0.00000000000E+00 0. -1.
    2000013    1    1    2    0    0 -0.10590291002E+04 -0.20252351109E+03  0.22528613500E+03  0.14545831878E+04  0.95000000000E+03 0.  0.
   -2000013    1    1    2    0    0  0.10590291002E+04  0.20252351109E+03  0.16580104851E+04  0.21940959816E+04  0.95000000000E+03 0.  0.
<mgrwt>
<rscale>  0 0.31250686E+04</rscale>
<asrwt>0</asrwt>
<pdfrwt beam="1">  1        2 0.42553660E+00 0.31250686E+04</pdfrwt>
<pdfrwt beam="2">  1       -2 0.13579866E+00 0.31250686E+04</pdfrwt>
<totfact> 0.79789051E-01</totfact>
</mgrwt>
</event>
<event>
 4    1  0.2058093E-008  0.2128794E+04  0.7816531E-02  0.8548664E-01
          2   -1    0    0  501    0  0.00000000000E+00  0.00000000000E+00  0.32104071785E+04  0.32104071785E+04  0.00000000000E+00 0.  1.
         -2   -1    0    0    0  501 -0.00000000000E+00 -0.00000000000E+00 -0.35289641094E+03  0.35289641094E+03  0.00000000000E+00 0. -1.
    2000013    1    1    2    0    0 -0.35988977597E+03 -0.11903333644E+03  0.19217678024E+04  0.21770119596E+04  0.95000000000E+03 0.  0.
   -2000013    1    1    2    0    0  0.35988977597E+03  0.11903333644E+03  0.93574296518E+03  0.13862916298E+04  0.95000000000E+03 0.  0.
<mgrwt>
<rscale>  0 0.21287942E+04</rscale>
<asrwt>0</asrwt>
<pdfrwt beam="1">  1        2 0.49390878E+00 0.21287942E+04</pdfrwt>
<pdfrwt beam="2">  1       -2 0.54291757E-01 0.21287942E+04</pdfrwt>
<totfact> 0.37582512E+00</totfact>
</mgrwt>
</event>
<event>
 4    1  0.2058093E-008  0.2413195E+04  0.7816531E-02  0.8434580E-01
          2   -1    0    0  501    0  0.00000000000E+00  0.00000000000E+00  0.12054266165E+04  0.12054266165E+04  0.00000000000E+00 0.  1.
         -2   -1    0    0    0  501 -0.00000000000E+00 -0.00000000000E+00 -0.12077698080E+04  0.12077698080E+04  0.00000000000E+00 0. -1.
    2000013    1    1    2    0    0  0.40082708291E+03 -0.43359558308E+03 -0.45362113552E+03  0.12070375366E+04  0.95000000000E+03 0.  0.
   -2000013    1    1    2    0    0 -0.40082708291E+03  0.43359558308E+03  0.45127794403E+03  0.12061588879E+04  0.95000000000E+03 0.  0.
<mgrwt>
<rscale>  0 0.24131953E+04</rscale>
<asrwt>0</asrwt>
<pdfrwt beam="1">  1        2 0.18545025E+00 0.24131953E+04</pdfrwt>
<pdfrwt beam="2">  1       -2 0.18581074E+00 0.24131953E+04</pdfrwt>
<totfact> 0.27937400E+00</totfact>
</mgrwt>
</event>
<event>
 4    1  0.2058093E-008  0.2250893E+04  0.7816531E-02  0.8497539E-01
          2   -1    0    0  501    0  0.00000000000E+00  0.00000000000E+00  0.11972605751E+04  0.11972605751E+04  0.00000000000E+00 0.  1.
         -2   -1    0    0    0  501 -0.00000000000E+00 -0.00000000000E+00 -0.10579395710E+04  0.10579395710E+04  0.00000000000E+00 0. -1.
    2000013    1    1    2    0    0 -0.53045244113E+03  0.23381328204E+03  0.23755474493E+03  0.11379721877E+04  0.95000000000E+03 0.  0.
   -2000013    1    1    2    0    0  0.53045244113E+03 -0.23381328204E+03 -0.98233740808E+02  0.11172279584E+04  0.95000000000E+03 0.  0.
<mgrwt>
<rscale>  0 0.22508926E+04</rscale>
<asrwt>0</asrwt>
<pdfrwt beam="1">  1        2 0.18419394E+00 0.22508926E+04</pdfrwt>
<pdfrwt beam="2">  1       -2 0.16275993E+00 0.22508926E+04</pdfrwt>
<totfact> 0.41603049E+00</totfact>
</mgrwt>
</event>
<event>
 4    1  0.2058093E-008  0.2865723E+04  0.7816531E-02  0.8283150E-01
         -2   -1    0    0    0  501 -0.00000000000E+00  0.00000000000E+00  0.10796508660E+04  0.10796508660E+04  0.00000000000E+00 0. -1.
          2   -1    0    0  501    0  0.00000000000E+00 -0.00000000000E+00 -0.19016254964E+04  0.19016254964E+04  0.00000000000E+00 0.  1.
    2000013    1    1    2    0    0  0.82575133589E+03  0.63120218694E+03 -0.13513472180E+03  0.14145822219E+04  0.95000000000E+03 0.  0.
   -2000013    1    1    2    0    0 -0.82575133589E+03 -0.63120218694E+03 -0.68683990863E+03  0.15666941404E+04  0.95000000000E+03 0.  0.
<mgrwt>
<rscale>  0 0.28657227E+04</rscale>
<asrwt>0</asrwt>
<pdfrwt beam="2">  1        2 0.29255777E+00 0.28657227E+04</pdfrwt>
<pdfrwt beam="1">  1       -2 0.16610013E+00 0.28657227E+04</pdfrwt>
<totfact> 0.14909706E+00</totfact>
</mgrwt>
</event>
<event>
 4    1  0.2058093E-008  0.2162776E+04  0.7816531E-02  0.8534083E-01
          1   -1    0    0  501    0  0.00000000000E+00  0.00000000000E+00  0.77523822689E+03  0.77523822689E+03  0.00000000000E+00 0. -1.
         -1   -1    0    0    0  501 -0.00000000000E+00 -0.00000000000E+00 -0.15084395966E+04  0.15084395966E+04  0.00000000000E+00 0.  1.
    2000013    1    1    2    0    0 -0.56785705726E+02 -0.48959177347E+03 -0.53009605840E+03  0.11943310061E+04  0.95000000000E+03 0.  0.
   -2000013    1    1    2    0    0  0.56785705726E+02  0.48959177347E+03 -0.20310531130E+03  0.10893468174E+04  0.95000000000E+03 0.  0.
<mgrwt>
<rscale>  0 0.21627760E+04</rscale>
<asrwt>0</asrwt>
<pdfrwt beam="1">  1        1 0.11926742E+00 0.21627760E+04</pdfrwt>
<pdfrwt beam="2">  1       -1 0.23206763E+00 0.21627760E+04</pdfrwt>
<totfact> 0.19447048E+00</totfact>
</mgrwt>
</event>
<event>
 4    1  0.2058093E-008  0.2393138E+04  0.7816531E-02  0.8442077E-01
         -2   -1    0    0    0  501 -0.00000000000E+00  0.00000000000E+00  0.16839109428E+04  0.16839109428E+04  0.00000000000E+00 0. -1.
          2   -1    0    0  501    0  0.00000000000E+00 -0.00000000000E+00 -0.85026922171E+03  0.85026922171E+03  0.00000000000E+00 0.  1.
    2000013    1    1    2    0    0 -0.70513802205E+03  0.13464676123E+03  0.54179444704E+03  0.13082012855E+04  0.95000000000E+03 0.  0.
   -2000013    1    1    2    0    0  0.70513802205E+03 -0.13464676123E+03  0.29184727405E+03  0.12259788790E+04  0.95000000000E+03 0.  0.
<mgrwt>
<rscale>  0 0.23931382E+04</rscale>
<asrwt>0</asrwt>
<pdfrwt beam="2">  1        2 0.13081065E+00 0.23931382E+04</pdfrwt>
<pdfrwt beam="1">  1       -2 0.25906322E+00 0.23931382E+04</pdfrwt>
<totfact> 0.16135631E+00</totfact>
</mgrwt>
</event>
<event>
 4    1  0.2058093E-008  0.2524559E+04  0.7816531E-02  0.8394288E-01
         -2   -1    0    0    0  501 -0.00000000000E+00  0.00000000000E+00  0.65934087866E+03  0.65934087866E+03  0.00000000000E+00 0. -1.
          2   -1    0    0  501    0  0.00000000000E+00 -0.00000000000E+00 -0.24165797032E+04  0.24165797032E+04  0.00000000000E+00 0.  1.
    2000013    1    1    2    0    0 -0.54150597401E+03 -0.56173411326E+03 -0.52956168512E+03  0.13385475383E+04  0.95000000000E+03 0.  0.
   -2000013    1    1    2    0    0  0.54150597401E+03  0.56173411326E+03 -0.12276771394E+04  0.17373730436E+04  0.95000000000E+03 0.  0.
<mgrwt>
<rscale>  0 0.25245592E+04</rscale>
<asrwt>0</asrwt>
<pdfrwt beam="2">  1        2 0.37178148E+00 0.25245592E+04</pdfrwt>
<pdfrwt beam="1">  1       -2 0.10143706E+00 0.25245592E+04</pdfrwt>
<totfact> 0.27634803E+00</totfact>
</mgrwt>
</event>
<event>
 4    1  0.2058093E-008  0.2373687E+04  0.7816531E-02  0.8449421E-01
          2   -1    0    0  501    0  0.00000000000E+00  0.00000000000E+00  0.21375913838E+04  0.21375913838E+04  0.00000000000E+00 0.  1.
         -2   -1    0    0    0  501 -0.00000000000E+00 -0.00000000000E+00 -0.65896483563E+03  0.65896483563E+03  0.00000000000E+00 0. -1.
    2000013    1    1    2    0    0  0.65556146598E+03  0.19377148950E+03  0.97134973206E+03  0.15209630264E+04  0.95000000000E+03 0.  0.
   -2000013    1    1    2    0    0 -0.65556146598E+03 -0.19377148950E+03  0.50727681608E+03  0.12755931930E+04  0.95000000000E+03 0.  0.
<mgrwt>
<rscale>  0 0.23736871E+04</rscale>
<asrwt>0</asrwt>
<pdfrwt beam="1">  1        2 0.32886021E+00 0.23736871E+04</pdfrwt>
<pdfrwt beam="2">  1       -2 0.10137921E+00 0.23736871E+04</pdfrwt>
<totfact> 0.40328306E+00</totfact>
</mgrwt>
</event>
<event>
 4    1  0.2058093E-008  0.2761645E+04  0.7816531E-02  0.8315276E-01
          1   -1    0    0  501    0  0.00000000000E+00  0.00000000000E+00  0.12436166368E+04  0.12436166368E+04  0.00000000000E+00 0. -1.
         -1   -1    0    0    0  501 -0.00000000000E+00 -0.00000000000E+00 -0.15331662472E+04  0.15331662472E+04  0.00000000000E+00 0.  1.
    2000013    1    1    2    0    0 -0.83159899304E+03 -0.55336985901E+03 -0.64361649069E+02  0.13800063434E+04  0.95000000000E+03 0.  0.
   -2000013    1    1    2    0    0  0.83159899304E+03  0.55336985901E+03 -0.22518796133E+03  0.13967765405E+04  0.95000000000E+03 0.  0.
<mgrwt>
<rscale>  0 0.27616452E+04</rscale>
<asrwt>0</asrwt>
<pdfrwt beam="1">  1        1 0.19132564E+00 0.27616452E+04</pdfrwt>
<pdfrwt beam="2">  1       -1 0.23587173E+00 0.27616452E+04</pdfrwt>
<totfact> 0.74457431E-01</totfact>
</mgrwt>
</event>
<event>
 4    1  0.2058093E-008  0.2740946E+04  0.7816531E-02  0.8321840E-01
         -2   -1    0    0    0  501 -0.00000000000E+00  0.00000000000E+00  0.60857573378E+03  0.60857573378E+03  0.00000000000E+00 0. -1.
          2   -1    0    0  501    0  0.00000000000E+00 -0.00000000000E+00 -0.30862171783E+04  0.30862171783E+04  0.00000000000E+00 0.  1.
    2000013    1    1    2    0    0  0.81705719431E+03  0.54147195062E+03 -0.14034894371E+04  0.19578194329E+04  0.95000000000E+03 0.  0.
   -2000013    1    1    2    0    0 -0.81705719431E+03 -0.54147195062E+03 -0.10741520074E+04  0.17369734791E+04  0.95000000000E+03 0.  0.
<mgrwt>
<rscale>  0 0.27409465E+04</rscale>
<asrwt>0</asrwt>
<pdfrwt beam="2">  1        2 0.47480264E+00 0.27409465E+04</pdfrwt>
<pdfrwt beam="1">  1       -2 0.93627036E-01 0.27409465E+04</pdfrwt>
<totfact> 0.12943116E+00</totfact>
</mgrwt>
</event>
<event>
 4    1  0.2058093E-008  0.2149682E+04  0.7816531E-02  0.8539668E-01
         -2   -1    0    0    0  501 -0.00000000000E+00  0.00000000000E+00  0.74822617959E+03  0.74822617959E+03  0.00000000000E+00 0. -1.
          2   -1    0    0  501    0  0.00000000000E+00 -0.00000000000E+00 -0.15440294036E+04  0.15440294036E+04  0.00000000000E+00 0.  1.
    2000013    1    1    2    0    0 -0.16971402421E+03 -0.23975288943E+03 -0.83300706476E+03  0.12971835136E+04  0.95000000000E+03 0.  0.
   -2000013    1    1    2    0    0  0.16971402421E+03  0.23975288943E+03  0.37203840707E+02  0.99507206963E+03  0.95000000000E+03 0.  0.
<mgrwt>
<rscale>  0 0.21496820E+04</rscale>
<asrwt>0</asrwt>
<pdfrwt beam="2">  1        2 0.23754298E+00 0.21496820E+04</pdfrwt>
<pdfrwt beam="1">  1       -2 0.11511172E+00 0.21496820E+04</pdfrwt>
<totfact> 0.64736038E+00</totfact>
</mgrwt>
</event>
<event>
 4    1  0.2058093E-008  0.3639450E+04  0.7816531E-02  0.8081515E-01
         -2   -1    0    0    0  501 -0.00000000000E+00  0.00000000000E+00  0.10824353436E+04  0.10824353436E+04  0.00000000000E+00 0. -1.
          2   -1    0    0  501    0  0.00000000000E+00 -0.00000000000E+00 -0.30592116644E+04  0.30592116644E+04  0.00000000000E+00 0.  1.
    2000013    1    1    2    0    0  0.90500239301E+03 -0.11238317169E+04 -0.33777020081E+03  0.17602885468E+04  0.95000000000E+03 0.  0.
   -2000013    1    1    2    0    0 -0.90500239301E+03  0.11238317169E+04 -0.16390061201E+04  0.23813584612E+04  0.95000000000E+03 0.  0.
<mgrwt>
<rscale>  0 0.36394499E+04</rscale>
<asrwt>0</asrwt>
<pdfrwt beam="2">  1        2 0.47064795E+00 0.36394499E+04</pdfrwt>
<pdfrwt beam="1">  1       -2 0.16652851E+00 0.36394499E+04</pdfrwt>
<totfact> 0.29271271E-01</totfact>
</mgrwt>
</event>
<event>
 4    1  0.2058093E-008  0.2109147E+04  0.7816531E-02  0.8557225E-01
          2   -1    0    0  501    0  0.00000000000E+00  0.00000000000E+00  0.19784189703E+04  0.19784189703E+04  0.00000000000E+00 0.  1.
         -2   -1    0    0    0  501 -0.00000000000E+00 -0.00000000000E+00 -0.56212811220E+03  0.56212811220E+03  0.00000000000E+00 0. -1.
    2000013    1    1    2    0    0 -0.42394655362E+03  0.87592087562E+02  0.52858495805E+03  0.11701731120E+04  0.95000000000E+03 0.  0.
   -2000013    1    1    2    0    0  0.42394655362E+03 -0.87592087562E+02  0.88770590008E+03  0.13703739706E+04  0.95000000000E+03 0.  0.
<mgrwt>
<rscale>  0 0.21091467E+04</rscale>
<asrwt>0</asrwt>
<pdfrwt beam="1">  1        2 0.30437215E+00 0.21091467E+04</pdfrwt>
<pdfrwt beam="2">  1       -2 0.86481249E-01 0.21091467E+04</pdfrwt>
<totfact> 0.73255078E+00</totfact>
</mgrwt>
</event>
<event>
 4    1  0.2058093E-008  0.2834691E+04  0.7816531E-02  0.8292578E-01
          2   -1    0    0  501    0  0.00000000000E+00  0.00000000000E+00  0.16610029188E+04  0.16610029188E+04  0.00000000000E+00 0.  1.
         -2   -1    0    0    0  501 -0.00000000000E+00 -0.00000000000E+00 -0.12094309781E+04  0.12094309781E+04  0.00000000000E+00 0. -1.
    2000013    1    1    2    0    0  0.76927724657E+03  0.71130934512E+03  0.13177178581E+03  0.14204267915E+04  0.95000000000E+03 0.  0.
   -2000013    1    1    2    0    0 -0.76927724657E+03 -0.71130934512E+03  0.31980015492E+03  0.14500071054E+04  0.95000000000E+03 0.  0.
<mgrwt>
<rscale>  0 0.28346911E+04</rscale>
<asrwt>0</asrwt>
<pdfrwt beam="1">  1        2 0.25553891E+00 0.28346911E+04</pdfrwt>
<pdfrwt beam="2">  1       -2 0.18606631E+00 0.28346911E+04</pdfrwt>
<totfact> 0.14742981E+00</totfact>
</mgrwt>
</event>
<event>
 4    1  0.2058093E-008  0.2785993E+04  0.7816531E-02  0.8307630E-01
          2   -1    0    0  501    0  0.00000000000E+00  0.00000000000E+00  0.27482994530E+04  0.27482994530E+04  0.00000000000E+00 0.  1.
         -2   -1    0    0    0  501 -0.00000000000E+00 -0.00000000000E+00 -0.70605067306E+03  0.70605067306E+03  0.00000000000E+00 0. -1.
    2000013    1    1    2    0    0 -0.55098204197E+03 -0.56236024828E+02 -0.39112710947E+02  0.11003515371E+04  0.95000000000E+03 0.  0.
   -2000013    1    1    2    0    0  0.55098204197E+03  0.56236024828E+02  0.20813614909E+04  0.23539985890E+04  0.95000000000E+03 0.  0.
<mgrwt>
<rscale>  0 0.27859926E+04</rscale>
<asrwt>0</asrwt>
<pdfrwt beam="1">  1        2 0.42281529E+00 0.27859926E+04</pdfrwt>
<pdfrwt beam="2">  1       -2 0.10862318E+00 0.27859926E+04</pdfrwt>
<totfact> 0.14655742E+00</totfact>
</mgrwt>
</event>
<event>
 4    1  0.2058093E-008  0.2371671E+04  0.7816531E-02  0.8450186E-01
         -1   -1    0    0    0  501 -0.00000000000E+00  0.00000000000E+00  0.10914365771E+04  0.10914365771E+04  0.00000000000E+00 0. -1.
          1   -1    0    0  501    0  0.00000000000E+00 -0.00000000000E+00 -0.12883995008E+04  0.12883995008E+04  0.00000000000E+00 0.  1.
    2000013    1    1    2    0    0 -0.56768197362E+03  0.16653538596E+03 -0.49188915966E+03  0.12224777312E+04  0.95000000000E+03 0.  0.
   -2000013    1    1    2    0    0  0.56768197362E+03 -0.16653538596E+03  0.29492623602E+03  0.11573583467E+04  0.95000000000E+03 0.  0.
<mgrwt>
<rscale>  0 0.23716714E+04</rscale>
<asrwt>0</asrwt>
<pdfrwt beam="2">  1        1 0.19821531E+00 0.23716714E+04</pdfrwt>
<pdfrwt beam="1">  1       -1 0.16791332E+00 0.23716714E+04</pdfrwt>
<totfact> 0.21118321E+00</totfact>
</mgrwt>
</event>
<event>
 4    1  0.2058093E-008  0.2579377E+04  0.7816531E-02  0.8375240E-01
         -2   -1    0    0    0  501 -0.00000000000E+00  0.00000000000E+00  0.10493444619E+04  0.10493444619E+04  0.00000000000E+00 0. -1.
          2   -1    0    0  501    0  0.00000000000E+00 -0.00000000000E+00 -0.15850813639E+04  0.15850813639E+04  0.00000000000E+00 0.  1.
    2000013    1    1    2    0    0 -0.12696197230E+03 -0.46665318593E+03 -0.10092471939E+04  0.14679797126E+04  0.95000000000E+03 0.  0.
   -2000013    1    1    2    0    0  0.12696197230E+03  0.46665318593E+03  0.47351029195E+03  0.11664461132E+04  0.95000000000E+03 0.  0.
<mgrwt>
<rscale>  0 0.25793769E+04</rscale>
<asrwt>0</asrwt>
<pdfrwt beam="2">  1        2 0.24385867E+00 0.25793769E+04</pdfrwt>
<pdfrwt beam="1">  1       -2 0.16143761E+00 0.25793769E+04</pdfrwt>
<totfact> 0.24765971E+00</totfact>
</mgrwt>
</event>
<event>
 4    1  0.2058093E-008  0.2527648E+04  0.7816531E-02  0.8393201E-01
         -2   -1    0    0    0  501 -0.00000000000E+00  0.00000000000E+00  0.40941911540E+03  0.40941911540E+03  0.00000000000E+00 0. -1.
          2   -1    0    0  501    0  0.00000000000E+00 -0.00000000000E+00 -0.39012618487E+04  0.39012618487E+04  0.00000000000E+00 0.  1.
    2000013    1    1    2    0    0  0.80283604494E+03  0.61532789291E+02 -0.13784885089E+04  0.18577035739E+04  0.95000000000E+03 0.  0.
   -2000013    1    1    2    0    0 -0.80283604494E+03 -0.61532789291E+02 -0.21133542244E+04  0.24529773903E+04  0.95000000000E+03 0.  0.
<mgrwt>
<rscale>  0 0.25276481E+04</rscale>
<asrwt>0</asrwt>
<pdfrwt beam="2">  1        2 0.60019415E+00 0.25276481E+04</pdfrwt>
<pdfrwt beam="1">  1       -2 0.62987554E-01 0.25276481E+04</pdfrwt>
<totfact> 0.85466707E-01</totfact>
</mgrwt>
</event>
<event>
 4    1  0.2058093E-008  0.2738343E+04  0.7816531E-02  0.8322670E-01
         -2   -1    0    0    0  501 -0.00000000000E+00  0.00000000000E+00  0.10351932742E+04  0.10351932742E+04  0.00000000000E+00 0. -1.
          2   -1    0    0  501    0  0.00000000000E+00 -0.00000000000E+00 -0.18108994016E+04  0.18108994016E+04  0.00000000000E+00 0.  1.
    2000013    1    1    2    0    0 -0.85821322806E+03  0.33689214724E+02 -0.89112309591E+03  0.15602132162E+04  0.95000000000E+03 0.  0.
   -2000013    1    1    2    0    0  0.85821322806E+03 -0.33689214724E+02  0.11541696857E+03  0.12858794596E+04  0.95000000000E+03 0.  0.
<mgrwt>
<rscale>  0 0.27383432E+04</rscale>
<asrwt>0</asrwt>
<pdfrwt beam="2">  1        2 0.27859991E+00 0.27383432E+04</pdfrwt>
<pdfrwt beam="1">  1       -2 0.15926050E+00 0.27383432E+04</pdfrwt>
<totfact> 0.18986321E+00</totfact>
</mgrwt>
</event>
<event>
 4    1  0.2058093E-008  0.2703152E+04  0.7816531E-02  0.8333983E-01
          2   -1    0    0  501    0  0.00000000000E+00  0.00000000000E+00  0.29039039886E+04  0.29039039886E+04  0.00000000000E+00 0.  1.
         -2   -1    0    0    0  501 -0.00000000000E+00 -0.00000000000E+00 -0.62906966067E+03  0.62906966067E+03  0.00000000000E+00 0. -1.
    2000013    1    1    2    0    0  0.71968716504E+02 -0.95675188712E+03  0.12169632303E+04  0.18177054694E+04  0.95000000000E+03 0.  0.
   -2000013    1    1    2    0    0 -0.71968716504E+02  0.95675188712E+03  0.10578710977E+04  0.17152681799E+04  0.95000000000E+03 0.  0.
<mgrwt>
<rscale>  0 0.27031522E+04</rscale>
<asrwt>0</asrwt>
<pdfrwt beam="1">  1        2 0.44675445E+00 0.27031522E+04</pdfrwt>
<pdfrwt beam="2">  1       -2 0.96779949E-01 0.27031522E+04</pdfrwt>
<totfact> 0.15631759E+00</totfact>
</mgrwt>
</event>
<event>
 4    1  0.2058093E-008  0.3763436E+04  0.7816531E-02  0.8054047E-01
         -2   -1    0    0    0  501 -0.00000000000E+00  0.00000000000E+00  0.33648690442E+04  0.33648690442E+04  0.00000000000E+00 0. -1.
          2   -1    0    0  501    0  0.00000000000E+00 -0.00000000000E+00 -0.10523032641E+04  0.10523032641E+04  0.00000000000E+00 0.  1.
    2000013    1    1    2    0    0  0.79928760471E+03 -0.13559242236E+04  0.68537680426E+03  0.19620480470E+04  0.95000000000E+03 0.  0.
   -2000013    1    1    2    0    0 -0.79928760471E+03  0.13559242236E+04  0.16271889758E+04  0.24551242612E+04  0.95000000000E+03 0.  0.
<mgrwt>
<rscale>  0 0.37634360E+04</rscale>
<asrwt>0</asrwt>
<pdfrwt beam="2">  1        2 0.16189281E+00 0.37634360E+04</pdfrwt>
<pdfrwt beam="1">  1       -2 0.51767216E+00 0.37634360E+04</pdfrwt>
<totfact> 0.24184866E-02</totfact>
</mgrwt>
</event>
<event>
 4    1  0.2058093E-008  0.2507850E+04  0.7816531E-02  0.8400194E-01
         -2   -1    0    0    0  501 -0.00000000000E+00  0.00000000000E+00  0.90048155916E+03  0.90048155916E+03  0.00000000000E+00 0. -1.
          2   -1    0    0  501    0  0.00000000000E+00 -0.00000000000E+00 -0.17460965388E+04  0.17460965388E+04  0.00000000000E+00 0.  1.
    2000013    1    1    2    0    0 -0.38089847136E+01 -0.48705913525E+03 -0.11169037819E+04  0.15450615417E+04  0.95000000000E+03 0.  0.
   -2000013    1    1    2    0    0  0.38089847136E+01  0.48705913525E+03  0.27128880221E+03  0.11015165563E+04  0.95000000000E+03 0.  0.
<mgrwt>
<rscale>  0 0.25078499E+04</rscale>
<asrwt>0</asrwt>
<pdfrwt beam="2">  1        2 0.26863024E+00 0.25078499E+04</pdfrwt>
<pdfrwt beam="1">  1       -2 0.13853563E+00 0.25078499E+04</pdfrwt>
<totfact> 0.30417707E+00</totfact>
</mgrwt>
</event>
<event>
 4    1  0.2058093E-008  0.2788437E+04  0.7816531E-02  0.8306867E-01
         -2   -1    0    0    0  501 -0.00000000000E+00  0.00000000000E+00  0.12682188294E+04  0.12682188294E+04  0.00000000000E+00 0. -1.
          2   -1    0    0  501    0  0.00000000000E+00 -0.00000000000E+00 -0.15327362430E+04  0.15327362430E+04  0.00000000000E+00 0.  1.
    2000013    1    1    2    0    0  0.49166806731E+03  0.65509028250E+03  0.47913147000E+03  0.13427388920E+04  0.95000000000E+03 0.  0.
   -2000013    1    1    2    0    0 -0.49166806731E+03 -0.65509028250E+03 -0.74364888359E+03  0.14582161804E+04  0.95000000000E+03 0.  0.
<mgrwt>
<rscale>  0 0.27884368E+04</rscale>
<asrwt>0</asrwt>
<pdfrwt beam="2">  1        2 0.23580558E+00 0.27884368E+04</pdfrwt>
<pdfrwt beam="1">  1       -2 0.19511059E+00 0.27884368E+04</pdfrwt>
<totfact> 0.15182821E+00</totfact>
</mgrwt>
</event>
<event>
 4    1  0.2058093E-008  0.2283437E+04  0.7816531E-02  0.8484481E-01
          2   -1    0    0  501    0  0.00000000000E+00  0.00000000000E+00  0.18610761771E+04  0.18610761771E+04  0.00000000000E+00 0.  1.
         -2   -1    0    0    0  501 -0.00000000000E+00 -0.00000000000E+00 -0.70041229673E+03  0.70041229673E+03  0.00000000000E+00 0. -1.
    2000013    1    1    2    0    0  0.12677161486E+02 -0.60976822910E+03  0.38916117890E+03  0.11941207756E+04  0.95000000000E+03 0.  0.
   -2000013    1    1    2    0    0 -0.12677161486E+02  0.60976822910E+03  0.77150270143E+03  0.13673676982E+04  0.95000000000E+03 0.  0.
<mgrwt>
<rscale>  0 0.22834366E+04</rscale>
<asrwt>0</asrwt>
<pdfrwt beam="1">  1        2 0.28631941E+00 0.22834366E+04</pdfrwt>
<pdfrwt beam="2">  1       -2 0.10775574E+00 0.22834366E+04</pdfrwt>
<totfact> 0.50037520E+00</totfact>
</mgrwt>
</event>
<event>
 4    1  0.2058093E-008  0.3060819E+04  0.7816531E-02  0.8226574E-01
         -2   -1    0    0    0  501 -0.00000000000E+00  0.00000000000E+00  0.11108389630E+04  0.11108389630E+04  0.00000000000E+00 0. -1.
          2   -1    0    0  501    0  0.00000000000E+00 -0.00000000000E+00 -0.21084539309E+04  0.21084539309E+04  0.00000000000E+00 0.  1.
    2000013    1    1    2    0    0  0.24710647041E+03 -0.59572802489E+03  0.56535779819E+03  0.12798761375E+04  0.95000000000E+03 0.  0.
   -2000013    1    1    2    0    0 -0.24710647041E+03  0.59572802489E+03 -0.15629727662E+04  0.19394167564E+04  0.95000000000E+03 0.  0.
<mgrwt>
<rscale>  0 0.30608187E+04</rscale>
<asrwt>0</asrwt>
<pdfrwt beam="2">  1        2 0.32437753E+00 0.30608187E+04</pdfrwt>
<pdfrwt beam="1">  1       -2 0.17089830E+00 0.30608187E+04</pdfrwt>
<totfact> 0.10397744E+00</totfact>
</mgrwt>
</event>
<event>
 4    1  0.2058093E-008  0.3980376E+04  0.7816531E-02  0.8008517E-01
          2   -1    0    0  501    0  0.00000000000E+00  0.00000000000E+00  0.17134309332E+04  0.17134309332E+04  0.00000000000E+00 0.  1.
         -2   -1    0    0    0  501 -0.00000000000E+00 -0.00000000000E+00 -0.23116472563E+04  0.23116472563E+04  0.00000000000E+00 0. -1.
    2000013    1    1    2    0    0 -0.71373503950E+03  0.14324721862E+04 -0.10119746218E+04  0.21184869379E+04  0.95000000000E+03 0.  0.
   -2000013    1    1    2    0    0  0.71373503950E+03 -0.14324721862E+04  0.41375829868E+03  0.19065912516E+04  0.95000000000E+03 0.  0.
<mgrwt>
<rscale>  0 0.39803758E+04</rscale>
<asrwt>0</asrwt>
<pdfrwt beam="1">  1        2 0.26360476E+00 0.39803758E+04</pdfrwt>
<pdfrwt beam="2">  1       -2 0.35563804E+00 0.39803758E+04</pdfrwt>
<totfact> 0.10913146E-01</totfact>
</mgrwt>
</event>
<event>
 4    1  0.2058093E-008  0.2199023E+04  0.7816531E-02  0.8518835E-01
         -2   -1    0    0    0  501 -0.00000000000E+00  0.00000000000E+00  0.31451769888E+03  0.31451769888E+03  0.00000000000E+00 0. -1.
          2   -1    0    0  501    0  0.00000000000E+00 -0.00000000000E+00 -0.38437446967E+04  0.38437446967E+04  0.00000000000E+00 0.  1.
    2000013    1    1    2    0    0  0.18858387921E+03 -0.43373011667E+03 -0.23085396704E+04  0.25407756893E+04  0.95000000000E+03 0.  0.
   -2000013    1    1    2    0    0 -0.18858387921E+03  0.43373011667E+03 -0.12206873274E+04  0.16174867063E+04  0.95000000000E+03 0.  0.
<mgrwt>
<rscale>  0 0.21990232E+04</rscale>
<asrwt>0</asrwt>
<pdfrwt beam="2">  1        2 0.59134539E+00 0.21990232E+04</pdfrwt>
<pdfrwt beam="1">  1       -2 0.48387334E-01 0.21990232E+04</pdfrwt>
<totfact> 0.16912923E+00</totfact>
</mgrwt>
</event>
<event>
 4    1  0.2058093E-008  0.2732961E+04  0.7816531E-02  0.8324389E-01
         -2   -1    0    0    0  501 -0.00000000000E+00  0.00000000000E+00  0.12033076344E+04  0.12033076344E+04  0.00000000000E+00 0. -1.
          2   -1    0    0  501    0  0.00000000000E+00 -0.00000000000E+00 -0.15517802690E+04  0.15517802690E+04  0.00000000000E+00 0.  1.
    2000013    1    1    2    0    0 -0.48384836009E+03  0.77899394792E+03  0.18050507186E+03  0.13326750870E+04  0.95000000000E+03 0.  0.
   -2000013    1    1    2    0    0  0.48384836009E+03 -0.77899394792E+03 -0.52897770637E+03  0.14224128164E+04  0.95000000000E+03 0.  0.
<mgrwt>
<rscale>  0 0.27329611E+04</rscale>
<asrwt>0</asrwt>
<pdfrwt beam="2">  1        2 0.23873542E+00 0.27329611E+04</pdfrwt>
<pdfrwt beam="1">  1       -2 0.18512425E+00 0.27329611E+04</pdfrwt>
<totfact> 0.17367840E+00</totfact>
</mgrwt>
</event>
<event>
 4    1  0.2058093E-008  0.2125616E+04  0.7816531E-02  0.8550043E-01
         -1   -1    0    0    0  501 -0.00000000000E+00  0.00000000000E+00  0.10147887795E+04  0.10147887795E+04  0.00000000000E+00 0.  1.
          1   -1    0    0  501    0  0.00000000000E+00 -0.00000000000E+00 -0.11130990185E+04  0.11130990185E+04  0.00000000000E+00 0. -1.
    2000013    1    1    2    0    0 -0.11022463096E+03 -0.45359789733E+03  0.46654412755E+02  0.10595174165E+04  0.95000000000E+03 0.  0.
   -2000013    1    1    2    0    0  0.11022463096E+03  0.45359789733E+03 -0.14496465180E+03  0.10683703815E+04  0.95000000000E+03 0.  0.
<mgrwt>
<rscale>  0 0.21256156E+04</rscale>
<asrwt>0</asrwt>
<pdfrwt beam="2">  1        1 0.17124600E+00 0.21256156E+04</pdfrwt>
<pdfrwt beam="1">  1       -1 0.15612135E+00 0.21256156E+04</pdfrwt>
<totfact> 0.35584558E+00</totfact>
</mgrwt>
</event>
<event>
 4    1  0.2058093E-008  0.2694293E+04  0.7816531E-02  0.8336859E-01
          1   -1    0    0  501    0  0.00000000000E+00  0.00000000000E+00  0.40192507287E+04  0.40192507287E+04  0.00000000000E+00 0.  1.
         -1   -1    0    0    0  501 -0.00000000000E+00 -0.00000000000E+00 -0.45152795569E+03  0.45152795569E+03  0.00000000000E+00 0. -1.
    2000013    1    1    2    0    0 -0.65627246419E+03 -0.65906864001E+03  0.21445138151E+04  0.25231933185E+04  0.95000000000E+03 0.  0.
   -2000013    1    1    2    0    0  0.65627246419E+03  0.65906864001E+03  0.14232089579E+04  0.19475853659E+04  0.95000000000E+03 0.  0.
<mgrwt>
<rscale>  0 0.26942933E+04</rscale>
<asrwt>0</asrwt>
<pdfrwt beam="1">  1        1 0.61834624E+00 0.26942933E+04</pdfrwt>
<pdfrwt beam="2">  1       -1 0.69465842E-01 0.26942933E+04</pdfrwt>
<totfact> 0.16912339E-01</totfact>
</mgrwt>
</event>
<event>
 4    1  0.2058093E-008  0.2322386E+04  0.7816531E-02  0.8469146E-01
          2   -1    0    0  501    0  0.00000000000E+00  0.00000000000E+00  0.18348884781E+04  0.18348884781E+04  0.00000000000E+00 0.  1.
         -2   -1    0    0    0  501 -0.00000000000E+00 -0.00000000000E+00 -0.73485104290E+03  0.73485104290E+03  0.00000000000E+00 0. -1.
    2000013    1    1    2    0    0  0.65774209002E+03 -0.19879923014E+02  0.42458810850E+03  0.12311762385E+04  0.95000000000E+03 0.  0.
   -2000013    1    1    2    0    0 -0.65774209002E+03  0.19879923014E+02  0.67544932670E+03  0.13385632825E+04  0.95000000000E+03 0.  0.
<mgrwt>
<rscale>  0 0.23223865E+04</rscale>
<asrwt>0</asrwt>
<pdfrwt beam="1">  1        2 0.28229053E+00 0.23223865E+04</pdfrwt>
<pdfrwt beam="2">  1       -2 0.11305401E+00 0.23223865E+04</pdfrwt>
<totfact> 0.45909947E+00</totfact>
</mgrwt>
</event>
<event>
 4    1  0.2058093E-008  0.2384978E+04  0.7816531E-02  0.8445149E-01
         -2   -1    0    0    0  501 -0.00000000000E+00  0.00000000000E+00  0.79622019660E+03  0.79622019660E+03  0.00000000000E+00 0. -1.
          2   -1    0    0  501    0  0.00000000000E+00 -0.00000000000E+00 -0.17859758618E+04  0.17859758618E+04  0.00000000000E+00 0.  1.
    2000013    1    1    2    0    0 -0.59798989945E+03  0.37032540620E+02 -0.61034824348E+02  0.11248060182E+04  0.95000000000E+03 0.  0.
   -2000013    1    1    2    0    0  0.59798989945E+03 -0.37032540620E+02 -0.92872084089E+03  0.14573900402E+04  0.95000000000E+03 0.  0.
<mgrwt>
<rscale>  0 0.23849780E+04</rscale>
<asrwt>0</asrwt>
<pdfrwt beam="2">  1        2 0.27476552E+00 0.23849780E+04</pdfrwt>
<pdfrwt beam="1">  1       -2 0.12249542E+00 0.23849780E+04</pdfrwt>
<totfact> 0.39901106E+00</totfact>
</mgrwt>
</event>
<event>
 4    1  0.2058093E-008  0.3482215E+04  0.7816531E-02  0.8118018E-01
          2   -1    0    0  501    0  0.00000000000E+00  0.00000000000E+00  0.30342656205E+04  0.30342656205E+04  0.00000000000E+00 0.  1.
         -2   -1    0    0    0  501 -0.00000000000E+00 -0.00000000000E+00 -0.99907406995E+03  0.99907406995E+03  0.00000000000E+00 0. -1.
    2000013    1    1    2    0    0 -0.12265568342E+04  0.78985384040E+03  0.98817152219E+03  0.20018225981E+04  0.95000000000E+03 0.  0.
   -2000013    1    1    2    0    0  0.12265568342E+04 -0.78985384040E+03  0.10470200283E+04  0.20315170924E+04  0.95000000000E+03 0.  0.
<mgrwt>
<rscale>  0 0.34822154E+04</rscale>
<asrwt>0</asrwt>
<pdfrwt beam="1">  1        2 0.46681009E+00 0.34822154E+04</pdfrwt>
<pdfrwt beam="2">  1       -2 0.15370370E+00 0.34822154E+04</pdfrwt>
<totfact> 0.38250352E-01</totfact>
</mgrwt>
</event>
<event>
 4    1  0.2058093E-008  0.3152243E+04  0.7816531E-02  0.8201545E-01
         -2   -1    0    0    0  501 -0.00000000000E+00  0.00000000000E+00  0.13571948845E+04  0.13571948845E+04  0.00000000000E+00 0. -1.
          2   -1    0    0  501    0  0.00000000000E+00 -0.00000000000E+00 -0.18303626839E+04  0.18303626839E+04  0.00000000000E+00 0.  1.
    2000013    1    1    2    0    0 -0.10788926872E+04 -0.64617844015E+03 -0.24683972471E+03  0.15953011806E+04  0.95000000000E+03 0.  0.
   -2000013    1    1    2    0    0  0.10788926872E+04  0.64617844015E+03 -0.22632807472E+03  0.15922563878E+04  0.95000000000E+03 0.  0.
<mgrwt>
<rscale>  0 0.31522429E+04</rscale>
<asrwt>0</asrwt>
<pdfrwt beam="2">  1        2 0.28159426E+00 0.31522429E+04</pdfrwt>
<pdfrwt beam="1">  1       -2 0.20879921E+00 0.31522429E+04</pdfrwt>
<totfact> 0.81802047E-01</totfact>
</mgrwt>
</event>
<event>
 4    1  0.2058093E-008  0.2027942E+04  0.7816531E-02  0.8593667E-01
         -1   -1    0    0    0  501 -0.00000000000E+00  0.00000000000E+00  0.30567547164E+03  0.30567547164E+03  0.00000000000E+00 0.  1.
          1   -1    0    0  501    0  0.00000000000E+00 -0.00000000000E+00 -0.33634910519E+04  0.33634910519E+04  0.00000000000E+00 0. -1.
    2000013    1    1    2    0    0  0.34527918925E+03  0.78128315076E+02 -0.15610178213E+04  0.18613431684E+04  0.95000000000E+03 0.  0.
   -2000013    1    1    2    0    0 -0.34527918925E+03 -0.78128315076E+02 -0.14967977589E+04  0.18078233551E+04  0.95000000000E+03 0.  0.
<mgrwt>
<rscale>  0 0.20279415E+04</rscale>
<asrwt>0</asrwt>
<pdfrwt beam="2">  1        1 0.51746017E+00 0.20279415E+04</pdfrwt>
<pdfrwt beam="1">  1       -1 0.47026995E-01 0.20279415E+04</pdfrwt>
<totfact> 0.13366480E+00</totfact>
</mgrwt>
</event>
<event>
 4    1  0.2058093E-008  0.2012942E+04  0.7816531E-02  0.8600594E-01
         -2   -1    0    0    0  501 -0.00000000000E+00  0.00000000000E+00  0.97606498501E+03  0.97606498501E+03  0.00000000000E+00 0.  1.
          2   -1    0    0  501    0  0.00000000000E+00 -0.00000000000E+00 -0.10378243415E+04  0.10378243415E+04  0.00000000000E+00 0. -1.
    2000013    1    1    2    0    0  0.30125916963E+03  0.95575364084E+02 -0.13384682666E+03  0.10101023268E+04  0.95000000000E+03 0.  0.
   -2000013    1    1    2    0    0 -0.30125916963E+03 -0.95575364084E+02  0.72087470185E+02  0.10037869997E+04  0.95000000000E+03 0.  0.
<mgrwt>
<rscale>  0 0.20129421E+04</rscale>
<asrwt>0</asrwt>
<pdfrwt beam="2">  1        2 0.15966528E+00 0.20129421E+04</pdfrwt>
<pdfrwt beam="1">  1       -2 0.15016385E+00 0.20129421E+04</pdfrwt>
<totfact> 0.66058848E+00</totfact>
</mgrwt>
</event>
<event>
 4    1  0.2058093E-008  0.2407461E+04  0.7816531E-02  0.8436715E-01
          2   -1    0    0  501    0  0.00000000000E+00  0.00000000000E+00  0.11593983243E+04  0.11593983243E+04  0.00000000000E+00 0.  1.
         -2   -1    0    0    0  501 -0.00000000000E+00 -0.00000000000E+00 -0.12497581864E+04  0.12497581864E+04  0.00000000000E+00 0. -1.
    2000013    1    1    2    0    0  0.70384486137E+03  0.22228111901E+03 -0.43951015716E+01  0.12030485450E+04  0.95000000000E+03 0.  0.
   -2000013    1    1    2    0    0 -0.70384486137E+03 -0.22228111901E+03 -0.85964760553E+02  0.12061079656E+04  0.95000000000E+03 0.  0.
<mgrwt>
<rscale>  0 0.24074614E+04</rscale>
<asrwt>0</asrwt>
<pdfrwt beam="1">  1        2 0.17836897E+00 0.24074614E+04</pdfrwt>
<pdfrwt beam="2">  1       -2 0.19227049E+00 0.24074614E+04</pdfrwt>
<totfact> 0.26949387E+00</totfact>
</mgrwt>
</event>
<event>
 4    1  0.2058093E-008  0.3443897E+04  0.7816531E-02  0.8127216E-01
         -2   -1    0    0    0  501 -0.00000000000E+00  0.00000000000E+00  0.13189041884E+04  0.13189041884E+04  0.00000000000E+00 0. -1.
          2   -1    0    0  501    0  0.00000000000E+00 -0.00000000000E+00 -0.22481592269E+04  0.22481592269E+04  0.00000000000E+00 0.  1.
    2000013    1    1    2    0    0 -0.11564152226E+04 -0.19748693387E+03 -0.13226934124E+04  0.20070662967E+04  0.95000000000E+03 0.  0.
   -2000013    1    1    2    0    0  0.11564152226E+04  0.19748693387E+03  0.39343837385E+03  0.15599971186E+04  0.95000000000E+03 0.  0.
<mgrwt>
<rscale>  0 0.34438970E+04</rscale>
<asrwt>0</asrwt>
<pdfrwt beam="2">  1        2 0.34587065E+00 0.34438970E+04</pdfrwt>
<pdfrwt beam="1">  1       -2 0.20290834E+00 0.34438970E+04</pdfrwt>
<totfact> 0.50970335E-01</totfact>
</mgrwt>
</event>
<event>
 4    1  0.2058093E-008  0.2594998E+04  0.7816531E-02  0.8369902E-01
         -2   -1    0    0    0  501 -0.00000000000E+00  0.00000000000E+00  0.14588669197E+04  0.14588669197E+04  0.00000000000E+00 0.  1.
          2   -1    0    0  501    0  0.00000000000E+00 -0.00000000000E+00 -0.11539804499E+04  0.11539804499E+04  0.00000000000E+00 0. -1.
    2000013    1    1    2    0    0 -0.64206207617E+03  0.38231724064E+03  0.62748679748E+03  0.13618553018E+04  0.95000000000E+03 0.  0.
   -2000013    1    1    2    0    0  0.64206207617E+03 -0.38231724064E+03 -0.32260032776E+03  0.12509920678E+04  0.95000000000E+03 0.  0.
<mgrwt>
<rscale>  0 0.25949982E+04</rscale>
<asrwt>0</asrwt>
<pdfrwt beam="2">  1        2 0.17753545E+00 0.25949982E+04</pdfrwt>
<pdfrwt beam="1">  1       -2 0.22444107E+00 0.25949982E+04</pdfrwt>
<totfact> 0.16552495E+00</totfact>
</mgrwt>
</event>
<event>
 4    1  0.2058093E-008  0.2298603E+04  0.7816531E-02  0.8478472E-01
          2   -1    0    0  501    0  0.00000000000E+00  0.00000000000E+00  0.33524988549E+04  0.33524988549E+04  0.00000000000E+00 0.  1.
         -2   -1    0    0    0  501 -0.00000000000E+00 -0.00000000000E+00 -0.39400294197E+03  0.39400294197E+03  0.00000000000E+00 0. -1.
    2000013    1    1    2    0    0 -0.63237834584E+03  0.78618605998E+02  0.16600949466E+04  0.20160601403E+04  0.95000000000E+03 0.  0.
   -2000013    1    1    2    0    0  0.63237834584E+03 -0.78618605998E+02  0.12984009663E+04  0.17304416566E+04  0.95000000000E+03 0.  0.
<mgrwt>
<rscale>  0 0.22986034E+04</rscale>
<asrwt>0</asrwt>
<pdfrwt beam="1">  1        2 0.51576903E+00 0.22986034E+04</pdfrwt>
<pdfrwt beam="2">  1       -2 0.60615840E-01 0.22986034E+04</pdfrwt>
<totfact> 0.23648490E+00</totfact>
</mgrwt>
</event>
<event>
 4    1  0.2058093E-008  0.2284254E+04  0.7816531E-02  0.8484155E-01
          2   -1    0    0  501    0  0.00000000000E+00  0.00000000000E+00  0.20652733843E+04  0.20652733843E+04  0.00000000000E+00 0.  1.
         -2   -1    0    0    0  501 -0.00000000000E+00 -0.00000000000E+00 -0.63161333307E+03  0.63161333307E+03  0.00000000000E+00 0. -1.
    2000013    1    1    2    0    0  0.62610322360E+03  0.51940552349E+02  0.81736597568E+03  0.14018880860E+04  0.95000000000E+03 0.  0.
   -2000013    1    1    2    0    0 -0.62610322360E+03 -0.51940552349E+02  0.61629407556E+03  0.12949986313E+04  0.95000000000E+03 0.  0.
<mgrwt>
<rscale>  0 0.22842541E+04</rscale>
<asrwt>0</asrwt>
<pdfrwt beam="1">  1        2 0.31773436E+00 0.22842541E+04</pdfrwt>
<pdfrwt beam="2">  1       -2 0.97171283E-01 0.22842541E+04</pdfrwt>
<totfact> 0.49296141E+00</totfact>
</mgrwt>
</event>
<event>
 4    1  0.2058093E-008  0.2701953E+04  0.7816531E-02  0.8334372E-01
         -2   -1    0    0    0  501 -0.00000000000E+00  0.00000000000E+00  0.63798151945E+03  0.63798151945E+03  0.00000000000E+00 0. -1.
          2   -1    0    0  501    0  0.00000000000E+00 -0.00000000000E+00 -0.28607992952E+04  0.28607992952E+04  0.00000000000E+00 0.  1.
    2000013    1    1    2    0    0  0.72066042305E+03  0.14414393651E+03 -0.19122739528E+04  0.22581896710E+04  0.95000000000E+03 0.  0.
   -2000013    1    1    2    0    0 -0.72066042305E+03 -0.14414393651E+03 -0.31054382302E+03  0.12405911437E+04  0.95000000000E+03 0.  0.
<mgrwt>
<rscale>  0 0.27019527E+04</rscale>
<asrwt>0</asrwt>
<pdfrwt beam="2">  1        2 0.44012296E+00 0.27019527E+04</pdfrwt>
<pdfrwt beam="1">  1       -2 0.98151004E-01 0.27019527E+04</pdfrwt>
<totfact> 0.16074635E+00</totfact>
</mgrwt>
</event>
<event>
 4    1  0.2058093E-008  0.2020774E+04  0.7816531E-02  0.8596969E-01
          2   -1    0    0  501    0  0.00000000000E+00  0.00000000000E+00  0.18606609847E+04  0.18606609847E+04  0.00000000000E+00 0.  1.
         -2   -1    0    0    0  501 -0.00000000000E+00 -0.00000000000E+00 -0.54866607638E+03  0.54866607638E+03  0.00000000000E+00 0. -1.
    2000013    1    1    2    0    0 -0.15839392569E+03  0.27969913938E+03  0.50967547476E+03  0.11249841483E+04  0.95000000000E+03 0.  0.
   -2000013    1    1    2    0    0  0.15839392569E+03 -0.27969913938E+03  0.80231943359E+03  0.12843429128E+04  0.95000000000E+03 0.  0.
<mgrwt>
<rscale>  0 0.20207737E+04</rscale>
<asrwt>0</asrwt>
<pdfrwt beam="1">  1        2 0.28625553E+00 0.20207737E+04</pdfrwt>
<pdfrwt beam="2">  1       -2 0.84410166E-01 0.20207737E+04</pdfrwt>
<totfact> 0.90657513E+00</totfact>
</mgrwt>
</event>
<event>
 4    1  0.2058093E-008  0.3400815E+04  0.7816531E-02  0.8137706E-01
          2   -1    0    0  501    0  0.00000000000E+00  0.00000000000E+00  0.24014754205E+04  0.24014754205E+04  0.00000000000E+00 0.  1.
         -2   -1    0    0    0  501 -0.00000000000E+00 -0.00000000000E+00 -0.12040037550E+04  0.12040037550E+04  0.00000000000E+00 0. -1.
    2000013    1    1    2    0    0 -0.43607799894E+02 -0.12630639303E+04  0.12622205023E+04  0.20230997822E+04  0.95000000000E+03 0.  0.
   -2000013    1    1    2    0    0  0.43607799894E+02  0.12630639303E+04 -0.64748836823E+02  0.15823793932E+04  0.95000000000E+03 0.  0.
<mgrwt>
<rscale>  0 0.34008149E+04</rscale>
<asrwt>0</asrwt>
<pdfrwt beam="1">  1        2 0.36945776E+00 0.34008149E+04</pdfrwt>
<pdfrwt beam="2">  1       -2 0.18523135E+00 0.34008149E+04</pdfrwt>
<totfact> 0.54867832E-01</totfact>
</mgrwt>
</event>
<event>
 4    1  0.2058093E-008  0.2452109E+04  0.7816531E-02  0.8420248E-01
          1   -1    0    0  501    0  0.00000000000E+00  0.00000000000E+00  0.78951348195E+03  0.78951348195E+03  0.00000000000E+00 0.  1.
         -1   -1    0    0    0  501 -0.00000000000E+00 -0.00000000000E+00 -0.19039701410E+04  0.19039701410E+04  0.00000000000E+00 0. -1.
    2000013    1    1    2    0    0 -0.43596656736E+03 -0.21636409360E+03 -0.12197859471E+04  0.16208818666E+04  0.95000000000E+03 0.  0.
   -2000013    1    1    2    0    0  0.43596656736E+03  0.21636409360E+03  0.10532928799E+03  0.10726017564E+04  0.95000000000E+03 0.  0.
<mgrwt>
<rscale>  0 0.24521094E+04</rscale>
<asrwt>0</asrwt>
<pdfrwt beam="1">  1        1 0.12146361E+00 0.24521094E+04</pdfrwt>
<pdfrwt beam="2">  1       -1 0.29291848E+00 0.24521094E+04</pdfrwt>
<totfact> 0.73955228E-01</totfact>
</mgrwt>
</event>
<event>
 4    1  0.2058093E-008  0.3796565E+04  0.7816531E-02  0.8046893E-01
         -2   -1    0    0    0  501 -0.00000000000E+00  0.00000000000E+00  0.16865504753E+04  0.16865504753E+04  0.00000000000E+00 0. -1.
          2   -1    0    0  501    0  0.00000000000E+00 -0.00000000000E+00 -0.21365951324E+04  0.21365951324E+04  0.00000000000E+00 0.  1.
    2000013    1    1    2    0    0 -0.15134678923E+04  0.62038328567E+03 -0.38587500743E+03  0.19305077062E+04  0.95000000000E+03 0.  0.
   -2000013    1    1    2    0    0  0.15134678923E+04 -0.62038328567E+03 -0.64169649644E+02  0.18926379015E+04  0.95000000000E+03 0.  0.
<mgrwt>
<rscale>  0 0.37965645E+04</rscale>
<asrwt>0</asrwt>
<pdfrwt beam="2">  1        2 0.32870694E+00 0.37965645E+04</pdfrwt>
<pdfrwt beam="1">  1       -2 0.25946930E+00 0.37965645E+04</pdfrwt>
<totfact> 0.25271964E-01</totfact>
</mgrwt>
</event>
<event>
 4    1  0.2058093E-008  0.3618936E+04  0.7816531E-02  0.8086168E-01
          2   -1    0    0  501    0  0.00000000000E+00  0.00000000000E+00  0.30527551390E+04  0.30527551390E+04  0.00000000000E+00 0.  1.
         -2   -1    0    0    0  501 -0.00000000000E+00 -0.00000000000E+00 -0.10725310879E+04  0.10725310879E+04  0.00000000000E+00 0. -1.
    2000013    1    1    2    0    0  0.93143081030E+03 -0.12234026465E+04  0.10881541535E+04  0.21097053945E+04  0.95000000000E+03 0.  0.
   -2000013    1    1    2    0    0 -0.93143081030E+03  0.12234026465E+04  0.89206989756E+03  0.20155808324E+04  0.95000000000E+03 0.  0.
<mgrwt>
<rscale>  0 0.36189362E+04</rscale>
<asrwt>0</asrwt>
<pdfrwt beam="1">  1        2 0.46965463E+00 0.36189362E+04</pdfrwt>
<pdfrwt beam="2">  1       -2 0.16500478E+00 0.36189362E+04</pdfrwt>
<totfact> 0.30359078E-01</totfact>
</mgrwt>
</event>
<event>
 4    1  0.2058093E-008  0.2581357E+04  0.7816531E-02  0.8374561E-01
          2   -1    0    0  501    0  0.00000000000E+00  0.00000000000E+00  0.23578955186E+04  0.23578955186E+04  0.00000000000E+00 0.  1.
         -2   -1    0    0    0  501 -0.00000000000E+00 -0.00000000000E+00 -0.70649909572E+03  0.70649909572E+03  0.00000000000E+00 0. -1.
    2000013    1    1    2    0    0  0.58157537473E+03 -0.17581182844E+03  0.80346650137E+02  0.11305287700E+04  0.95000000000E+03 0.  0.
   -2000013    1    1    2    0    0 -0.58157537473E+03  0.17581182844E+03  0.15710497727E+04  0.19338658443E+04  0.95000000000E+03 0.  0.
<mgrwt>
<rscale>  0 0.25813570E+04</rscale>
<asrwt>0</asrwt>
<pdfrwt beam="1">  1        2 0.36275315E+00 0.25813570E+04</pdfrwt>
<pdfrwt beam="2">  1       -2 0.10869217E+00 0.25813570E+04</pdfrwt>
<totfact> 0.25174198E+00</totfact>
</mgrwt>
</event>
<event>
 4    1  0.2058093E-008  0.3077680E+04  0.7816531E-02  0.8221890E-01
         -2   -1    0    0    0  501 -0.00000000000E+00  0.00000000000E+00  0.17465787275E+04  0.17465787275E+04  0.00000000000E+00 0. -1.
          2   -1    0    0  501    0  0.00000000000E+00 -0.00000000000E+00 -0.13558094378E+04  0.13558094378E+04  0.00000000000E+00 0.  1.
    2000013    1    1    2    0    0  0.11236684759E+04 -0.40449020738E+03 -0.44104088196E+01  0.15260283822E+04  0.95000000000E+03 0.  0.
   -2000013    1    1    2    0    0 -0.11236684759E+04  0.40449020738E+03  0.39517969847E+03  0.15763597831E+04  0.95000000000E+03 0.  0.
<mgrwt>
<rscale>  0 0.30776796E+04</rscale>
<asrwt>0</asrwt>
<pdfrwt beam="2">  1        2 0.20858607E+00 0.30776796E+04</pdfrwt>
<pdfrwt beam="1">  1       -2 0.26870442E+00 0.30776796E+04</pdfrwt>
<totfact> 0.64412898E-01</totfact>
</mgrwt>
</event>
<event>
 4    1  0.2058093E-008  0.2070464E+04  0.7816531E-02  0.8574367E-01
          1   -1    0    0  501    0  0.00000000000E+00  0.00000000000E+00  0.20361542849E+04  0.20361542849E+04  0.00000000000E+00 0.  1.
         -1   -1    0    0    0  501 -0.00000000000E+00 -0.00000000000E+00 -0.52633776944E+03  0.52633776944E+03  0.00000000000E+00 0. -1.
    2000013    1    1    2    0    0  0.34008838809E+03  0.21404595846E+03  0.86371604082E+03  0.13453554115E+04  0.95000000000E+03 0.  0.
   -2000013    1    1    2    0    0 -0.34008838809E+03 -0.21404595846E+03  0.64610047465E+03  0.12171366429E+04  0.95000000000E+03 0.  0.
<mgrwt>
<rscale>  0 0.20704636E+04</rscale>
<asrwt>0</asrwt>
<pdfrwt beam="1">  1        1 0.31325450E+00 0.20704636E+04</pdfrwt>
<pdfrwt beam="2">  1       -1 0.80975042E-01 0.20704636E+04</pdfrwt>
<totfact> 0.39465921E+00</totfact>
</mgrwt>
</event>
<event>
 4    1  0.2058093E-008  0.2283215E+04  0.7816531E-02  0.8484569E-01
          2   -1    0    0  501    0  0.00000000000E+00  0.00000000000E+00  0.12696709675E+04  0.12696709675E+04  0.00000000000E+00 0.  1.
         -2   -1    0    0    0  501 -0.00000000000E+00 -0.00000000000E+00 -0.10264612890E+04  0.10264612890E+04  0.00000000000E+00 0. -1.
    2000013    1    1    2    0    0  0.18674683214E+03 -0.49218044761E+03 -0.23202655633E+03  0.11106089749E+04  0.95000000000E+03 0.  0.
   -2000013    1    1    2    0    0 -0.18674683214E+03  0.49218044761E+03  0.47523623481E+03  0.11855232816E+04  0.95000000000E+03 0.  0.
<mgrwt>
<rscale>  0 0.22832154E+04</rscale>
<asrwt>0</asrwt>
<pdfrwt beam="1">  1        2 0.19533400E+00 0.22832154E+04</pdfrwt>
<pdfrwt beam="2">  1       -2 0.15791712E+00 0.22832154E+04</pdfrwt>
<totfact> 0.40815891E+00</totfact>
</mgrwt>
</event>
<event>
 4    1  0.2058093E-008  0.2294552E+04  0.7816531E-02  0.8480072E-01
         -2   -1    0    0    0  501 -0.00000000000E+00  0.00000000000E+00  0.53320725896E+03  0.53320725896E+03  0.00000000000E+00 0. -1.
          2   -1    0    0  501    0  0.00000000000E+00 -0.00000000000E+00 -0.24685384861E+04  0.24685384861E+04  0.00000000000E+00 0.  1.
    2000013    1    1    2    0    0 -0.49960581524E+03  0.36709307011E+03 -0.74343391841E+03  0.13563027994E+04  0.95000000000E+03 0.  0.
   -2000013    1    1    2    0    0  0.49960581524E+03 -0.36709307011E+03 -0.11918973087E+04  0.16454429456E+04  0.95000000000E+03 0.  0.
<mgrwt>
<rscale>  0 0.22945524E+04</rscale>
<asrwt>0</asrwt>
<pdfrwt beam="2">  1        2 0.37977515E+00 0.22945524E+04</pdfrwt>
<pdfrwt beam="1">  1       -2 0.82031887E-01 0.22945524E+04</pdfrwt>
<totfact> 0.43007510E+00</totfact>
</mgrwt>
</event>
<event>
 4    1  0.2058093E-008  0.3290733E+04  0.7816531E-02  0.8165257E-01
         -2   -1    0    0    0  501 -0.00000000000E+00  0.00000000000E+00  0.11258970326E+04  0.11258970326E+04  0.00000000000E+00 0. -1.
          2   -1    0    0  501    0  0.00000000000E+00 -0.00000000000E+00 -0.24045098040E+04  0.24045098040E+04  0.00000000000E+00 0.  1.
    2000013    1    1    2    0    0 -0.11157267028E+04 -0.65444154814E+03 -0.10284811245E+04  0.19061514207E+04  0.95000000000E+03 0.  0.
   -2000013    1    1    2    0    0  0.11157267028E+04  0.65444154814E+03 -0.25013164695E+03  0.16242554159E+04  0.95000000000E+03 0.  0.
<mgrwt>
<rscale>  0 0.32907327E+04</rscale>
<asrwt>0</asrwt>
<pdfrwt beam="2">  1        2 0.36992458E+00 0.32907327E+04</pdfrwt>
<pdfrwt beam="1">  1       -2 0.17321493E+00 0.32907327E+04</pdfrwt>
<totfact> 0.66799175E-01</totfact>
</mgrwt>
</event>
<event>
 4    1  0.2058093E-008  0.2254596E+04  0.7816531E-02  0.8496042E-01
         -2   -1    0    0    0  501 -0.00000000000E+00  0.00000000000E+00  0.66441097351E+03  0.66441097351E+03  0.00000000000E+00 0. -1.
          2   -1    0    0  501    0  0.00000000000E+00 -0.00000000000E+00 -0.19126727952E+04  0.19126727952E+04  0.00000000000E+00 0.  1.
    2000013    1    1    2    0    0 -0.10274268237E+03  0.58086708588E+03 -0.78714144463E+03  0.13674992812E+04  0.95000000000E+03 0.  0.
   -2000013    1    1    2    0    0  0.10274268237E+03 -0.58086708588E+03 -0.46112037704E+03  0.12095844875E+04  0.95000000000E+03 0.  0.
<mgrwt>
<rscale>  0 0.22545960E+04</rscale>
<asrwt>0</asrwt>
<pdfrwt beam="2">  1        2 0.29425735E+00 0.22545960E+04</pdfrwt>
<pdfrwt beam="1">  1       -2 0.10221707E+00 0.22545960E+04</pdfrwt>
<totfact> 0.53297640E+00</totfact>
</mgrwt>
</event>
<event>
 4    1  0.2058093E-008  0.2582351E+04  0.7816531E-02  0.8374221E-01
          2   -1    0    0  501    0  0.00000000000E+00  0.00000000000E+00  0.27441374001E+04  0.27441374001E+04  0.00000000000E+00 0.  1.
         -2   -1    0    0    0  501 -0.00000000000E+00 -0.00000000000E+00 -0.60752582391E+03  0.60752582391E+03  0.00000000000E+00 0. -1.
    2000013    1    1    2    0    0  0.48867021338E+02  0.65255202831E+03  0.31549227971E+03  0.11959295606E+04  0.95000000000E+03 0.  0.
   -2000013    1    1    2    0    0 -0.48867021338E+02 -0.65255202831E+03  0.18211192965E+04  0.21557336634E+04  0.95000000000E+03 0.  0.
<mgrwt>
<rscale>  0 0.25823511E+04</rscale>
<asrwt>0</asrwt>
<pdfrwt beam="1">  1        2 0.42217498E+00 0.25823511E+04</pdfrwt>
<pdfrwt beam="2">  1       -2 0.93465512E-01 0.25823511E+04</pdfrwt>
<totfact> 0.21426513E+00</totfact>
</mgrwt>
</event>
<event>
 4    1  0.2058093E-008  0.2267608E+04  0.7816531E-02  0.8490803E-01
          2   -1    0    0  501    0  0.00000000000E+00  0.00000000000E+00  0.53873926384E+03  0.53873926384E+03  0.00000000000E+00 0.  1.
         -2   -1    0    0    0  501 -0.00000000000E+00 -0.00000000000E+00 -0.23861487016E+04  0.23861487016E+04  0.00000000000E+00 0. -1.
    2000013    1    1    2    0    0 -0.30977672677E+03 -0.44230898237E+03 -0.53372189170E+03  0.12161241359E+04  0.95000000000E+03 0.  0.
   -2000013    1    1    2    0    0  0.30977672677E+03  0.44230898237E+03 -0.13136875461E+04  0.17087638295E+04  0.95000000000E+03 0.  0.
<mgrwt>
<rscale>  0 0.22676084E+04</rscale>
<asrwt>0</asrwt>
<pdfrwt beam="1">  1        2 0.82882965E-01 0.22676084E+04</pdfrwt>
<pdfrwt beam="2">  1       -2 0.36709979E+00 0.22676084E+04</pdfrwt>
<totfact> 0.62220306E-01</totfact>
</mgrwt>
</event>
<event>
 4    1  0.2058093E-008  0.2031099E+04  0.7816531E-02  0.8592217E-01
         -2   -1    0    0    0  501 -0.00000000000E+00  0.00000000000E+00  0.52740420286E+03  0.52740420286E+03  0.00000000000E+00 0. -1.
          2   -1    0    0  501    0  0.00000000000E+00 -0.00000000000E+00 -0.19555042098E+04  0.19555042098E+04  0.00000000000E+00 0.  1.
    2000013    1    1    2    0    0 -0.35370390731E+03  0.22334970641E+02 -0.64451193083E+03  0.12014578369E+04  0.95000000000E+03 0.  0.
   -2000013    1    1    2    0    0  0.35370390731E+03 -0.22334970641E+02 -0.78358807609E+03  0.12814505757E+04  0.95000000000E+03 0.  0.
<mgrwt>
<rscale>  0 0.20310993E+04</rscale>
<asrwt>0</asrwt>
<pdfrwt beam="2">  1        2 0.30084680E+00 0.20310993E+04</pdfrwt>
<pdfrwt beam="1">  1       -2 0.81139107E-01 0.20310993E+04</pdfrwt>
<totfact> 0.87755768E+00</totfact>
</mgrwt>
</event>
<event>
 4    1  0.2058093E-008  0.2049280E+04  0.7816531E-02  0.8583921E-01
         -2   -1    0    0    0  501 -0.00000000000E+00  0.00000000000E+00  0.44924094838E+03  0.44924094838E+03  0.00000000000E+00 0. -1.
          2   -1    0    0  501    0  0.00000000000E+00 -0.00000000000E+00 -0.23370243809E+04  0.23370243809E+04  0.00000000000E+00 0.  1.
    2000013    1    1    2    0    0  0.26986451569E+03  0.90623126795E+02 -0.59367737210E+03  0.11558513010E+04  0.95000000000E+03 0.  0.
   -2000013    1    1    2    0    0 -0.26986451569E+03 -0.90623126795E+02 -0.12941060604E+04  0.16304140283E+04  0.95000000000E+03 0.  0.
<mgrwt>
<rscale>  0 0.20492799E+04</rscale>
<asrwt>0</asrwt>
<pdfrwt beam="2">  1        2 0.35954221E+00 0.20492799E+04</pdfrwt>
<pdfrwt beam="1">  1       -2 0.69113992E-01 0.20492799E+04</pdfrwt>
<totfact> 0.76400371E+00</totfact>
</mgrwt>
</event>
<event>
 4    1  0.2058093E-008  0.2274266E+04  0.7816531E-02  0.8488137E-01
         -2   -1    0    0    0  501 -0.00000000000E+00  0.00000000000E+00  0.48025555907E+03  0.48025555907E+03  0.00000000000E+00 0. -1.
          2   -1    0    0  501    0  0.00000000000E+00 -0.00000000000E+00 -0.26924642742E+04  0.26924642742E+04  0.00000000000E+00 0.  1.
    2000013    1    1    2    0    0  0.44030956199E+03  0.36642337528E+03 -0.14546786396E+04  0.18294066101E+04  0.95000000000E+03 0.  0.
   -2000013    1    1    2    0    0 -0.44030956199E+03 -0.36642337528E+03 -0.75753007547E+03  0.13433132232E+04  0.95000000000E+03 0.  0.
<mgrwt>
<rscale>  0 0.22742655E+04</rscale>
<asrwt>0</asrwt>
<pdfrwt beam="2">  1        2 0.41422526E+00 0.22742655E+04</pdfrwt>
<pdfrwt beam="1">  1       -2 0.73885472E-01 0.22742655E+04</pdfrwt>
<totfact> 0.40247226E+00</totfact>
</mgrwt>
</event>
<event>
 4    1  0.2058093E-008  0.3139853E+04  0.7816531E-02  0.8204885E-01
          2   -1    0    0  501    0  0.00000000000E+00  0.00000000000E+00  0.17027201168E+04  0.17027201168E+04  0.00000000000E+00 0.  1.
         -2   -1    0    0    0  501 -0.00000000000E+00 -0.00000000000E+00 -0.14474889700E+04  0.14474889700E+04  0.00000000000E+00 0. -1.
    2000013    1    1    2    0    0  0.65484931923E+03 -0.10562027219E+04 -0.61537451410E+01  0.15642665020E+04  0.95000000000E+03 0.  0.
   -2000013    1    1    2    0    0 -0.65484931923E+03  0.10562027219E+04  0.26138489203E+03  0.15859425848E+04  0.95000000000E+03 0.  0.
<mgrwt>
<rscale>  0 0.31398526E+04</rscale>
<asrwt>0</asrwt>
<pdfrwt beam="1">  1        2 0.26195694E+00 0.31398526E+04</pdfrwt>
<pdfrwt beam="2">  1       -2 0.22269061E+00 0.31398526E+04</pdfrwt>
<totfact> 0.78602467E-01</totfact>
</mgrwt>
</event>
<event>
 4    1  0.2058093E-008  0.2291739E+04  0.7816531E-02  0.8481186E-01
          2   -1    0    0  501    0  0.00000000000E+00  0.00000000000E+00  0.10756693448E+04  0.10756693448E+04  0.00000000000E+00 0.  1.
         -2   -1    0    0    0  501 -0.00000000000E+00 -0.00000000000E+00 -0.12206505589E+04  0.12206505589E+04  0.00000000000E+00 0. -1.
    2000013    1    1    2    0    0  0.38145583801E+03  0.38735545716E+03  0.26725000245E+03  0.11267099762E+04  0.95000000000E+03 0.  0.
   -2000013    1    1    2    0    0 -0.38145583801E+03 -0.38735545716E+03 -0.41223121654E+03  0.11696099275E+04  0.95000000000E+03 0.  0.
<mgrwt>
<rscale>  0 0.22917385E+04</rscale>
<asrwt>0</asrwt>
<pdfrwt beam="1">  1        2 0.16548759E+00 0.22917385E+04</pdfrwt>
<pdfrwt beam="2">  1       -2 0.18779239E+00 0.22917385E+04</pdfrwt>
<totfact> 0.32820694E+00</totfact>
</mgrwt>
</event>
<event>
 4    1  0.2058093E-008  0.4303299E+04  0.7816531E-02  0.7946008E-01
         -2   -1    0    0    0  501 -0.00000000000E+00  0.00000000000E+00  0.15202556939E+04  0.15202556939E+04  0.00000000000E+00 0.  1.
          2   -1    0    0  501    0  0.00000000000E+00 -0.00000000000E+00 -0.30452742885E+04  0.30452742885E+04  0.00000000000E+00 0. -1.
    2000013    1    1    2    0    0  0.14335458445E+04 -0.72577527625E+03  0.37288789473E+03  0.19035096065E+04  0.95000000000E+03 0.  0.
   -2000013    1    1    2    0    0 -0.14335458445E+04  0.72577527625E+03 -0.18979064893E+04  0.26620203759E+04  0.95000000000E+03 0.  0.
<mgrwt>
<rscale>  0 0.43032990E+04</rscale>
<asrwt>0</asrwt>
<pdfrwt beam="2">  1        2 0.46850373E+00 0.43032990E+04</pdfrwt>
<pdfrwt beam="1">  1       -2 0.23388549E+00 0.43032990E+04</pdfrwt>
<totfact> 0.10141514E-01</totfact>
</mgrwt>
</event>
<event>
 4    1  0.2058093E-008  0.1973989E+04  0.7816531E-02  0.8618879E-01
          2   -1    0    0  501    0  0.00000000000E+00  0.00000000000E+00  0.11752374066E+04  0.11752374066E+04  0.00000000000E+00 0.  1.
         -2   -1    0    0    0  501 -0.00000000000E+00 -0.00000000000E+00 -0.82890356558E+03  0.82890356558E+03  0.00000000000E+00 0. -1.
    2000013    1    1    2    0    0  0.18574830694E+03  0.18979414782E+03  0.13897425133E+03  0.99616168096E+03  0.95000000000E+03 0.  0.
   -2000013    1    1    2    0    0 -0.18574830694E+03 -0.18979414782E+03  0.20735958968E+03  0.10079792912E+04  0.95000000000E+03 0.  0.
<mgrwt>
<rscale>  0 0.19739893E+04</rscale>
<asrwt>0</asrwt>
<pdfrwt beam="1">  1        2 0.18080576E+00 0.19739893E+04</pdfrwt>
<pdfrwt beam="2">  1       -2 0.12752362E+00 0.19739893E+04</pdfrwt>
<totfact> 0.83215401E+00</totfact>
</mgrwt>
</event>
<event>
 4    1  0.2058093E-008  0.2581177E+04  0.7816531E-02  0.8374623E-01
          1   -1    0    0  501    0  0.00000000000E+00  0.00000000000E+00  0.14906870374E+04  0.14906870374E+04  0.00000000000E+00 0.  1.
         -1   -1    0    0    0  501 -0.00000000000E+00 -0.00000000000E+00 -0.11173494113E+04  0.11173494113E+04  0.00000000000E+00 0. -1.
    2000013    1    1    2    0    0 -0.54103594214E+03 -0.59825361736E+03 -0.15221811309E+03  0.12555069236E+04  0.95000000000E+03 0.  0.
   -2000013    1    1    2    0    0  0.54103594214E+03  0.59825361736E+03  0.52555573918E+03  0.13525295251E+04  0.95000000000E+03 0.  0.
<mgrwt>
<rscale>  0 0.25811767E+04</rscale>
<asrwt>0</asrwt>
<pdfrwt beam="1">  1        1 0.22933647E+00 0.25811767E+04</pdfrwt>
<pdfrwt beam="2">  1       -1 0.17189991E+00 0.25811767E+04</pdfrwt>
<totfact> 0.13958443E+00</totfact>
</mgrwt>
</event>
<event>
 4    1  0.2058093E-008  0.2700141E+04  0.7816531E-02  0.8334959E-01
          1   -1    0    0  501    0  0.00000000000E+00  0.00000000000E+00  0.25015467905E+04  0.25015467905E+04  0.00000000000E+00 0.  1.
         -1   -1    0    0    0  501 -0.00000000000E+00 -0.00000000000E+00 -0.72862519555E+03  0.72862519555E+03  0.00000000000E+00 0. -1.
    2000013    1    1    2    0    0 -0.67054075429E+03  0.28042138480E+03  0.13752787495E+03  0.12040244900E+04  0.95000000000E+03 0.  0.
   -2000013    1    1    2    0    0  0.67054075429E+03 -0.28042138480E+03  0.16353937200E+04  0.20261474961E+04  0.95000000000E+03 0.  0.
<mgrwt>
<rscale>  0 0.27001408E+04</rscale>
<asrwt>0</asrwt>
<pdfrwt beam="1">  1        1 0.38485335E+00 0.27001408E+04</pdfrwt>
<pdfrwt beam="2">  1       -1 0.11209618E+00 0.27001408E+04</pdfrwt>
<totfact> 0.86065889E-01</totfact>
</mgrwt>
</event>
<event>
 4    1  0.2058093E-008  0.2802323E+04  0.7816531E-02  0.8302547E-01
          2   -1    0    0  501    0  0.00000000000E+00  0.00000000000E+00  0.17318944008E+04  0.17318944008E+04  0.00000000000E+00 0.  1.
         -2   -1    0    0    0  501 -0.00000000000E+00 -0.00000000000E+00 -0.11335874766E+04  0.11335874766E+04  0.00000000000E+00 0. -1.
    2000013    1    1    2    0    0 -0.30998276264E+03 -0.95234079333E+03  0.53506927239E+02  0.13814504302E+04  0.95000000000E+03 0.  0.
   -2000013    1    1    2    0    0  0.30998276264E+03  0.95234079333E+03  0.54479999696E+03  0.14840314473E+04  0.95000000000E+03 0.  0.
<mgrwt>
<rscale>  0 0.28023232E+04</rscale>
<asrwt>0</asrwt>
<pdfrwt beam="1">  1        2 0.26644529E+00 0.28023232E+04</pdfrwt>
<pdfrwt beam="2">  1       -2 0.17439807E+00 0.28023232E+04</pdfrwt>
<totfact> 0.16252353E+00</totfact>
</mgrwt>
</event>
<event>
 4    1  0.2058093E-008  0.2828841E+04  0.7816531E-02  0.8294370E-01
         -2   -1    0    0    0  501 -0.00000000000E+00  0.00000000000E+00  0.13057978681E+04  0.13057978681E+04  0.00000000000E+00 0. -1.
          2   -1    0    0  501    0  0.00000000000E+00 -0.00000000000E+00 -0.15320786846E+04  0.15320786846E+04  0.00000000000E+00 0.  1.
    2000013    1    1    2    0    0 -0.13503120422E+03  0.90372328214E+03  0.40146580954E+03  0.13779056546E+04  0.95000000000E+03 0.  0.
   -2000013    1    1    2    0    0  0.13503120422E+03 -0.90372328214E+03 -0.62774662597E+03  0.14599708981E+04  0.95000000000E+03 0.  0.
<mgrwt>
<rscale>  0 0.28288408E+04</rscale>
<asrwt>0</asrwt>
<pdfrwt beam="2">  1        2 0.23570441E+00 0.28288408E+04</pdfrwt>
<pdfrwt beam="1">  1       -2 0.20089198E+00 0.28288408E+04</pdfrwt>
<totfact> 0.13870941E+00</totfact>
</mgrwt>
</event>
<event>
 4    1  0.2058093E-008  0.3532317E+04  0.7816531E-02  0.8106174E-01
          2   -1    0    0  501    0  0.00000000000E+00  0.00000000000E+00  0.23020113671E+04  0.23020113671E+04  0.00000000000E+00 0.  1.
         -2   -1    0    0    0  501 -0.00000000000E+00 -0.00000000000E+00 -0.13550392408E+04  0.13550392408E+04  0.00000000000E+00 0. -1.
    2000013    1    1    2    0    0 -0.12225388618E+04 -0.55023357083E+03  0.11440115350E+04  0.20021540009E+04  0.95000000000E+03 0.  0.
   -2000013    1    1    2    0    0  0.12225388618E+04  0.55023357083E+03 -0.19703940865E+03  0.16548966070E+04  0.95000000000E+03 0.  0.
<mgrwt>
<rscale>  0 0.35323169E+04</rscale>
<asrwt>0</asrwt>
<pdfrwt beam="1">  1        2 0.35415560E+00 0.35323169E+04</pdfrwt>
<pdfrwt beam="2">  1       -2 0.20846758E+00 0.35323169E+04</pdfrwt>
<totfact> 0.43410436E-01</totfact>
</mgrwt>
</event>
<event>
 4    1  0.2058093E-008  0.3031461E+04  0.7816531E-02  0.8234804E-01
          2   -1    0    0  501    0  0.00000000000E+00  0.00000000000E+00  0.29309346084E+04  0.29309346084E+04  0.00000000000E+00 0.  1.
         -2   -1    0    0    0  501 -0.00000000000E+00 -0.00000000000E+00 -0.78385900820E+03  0.78385900820E+03  0.00000000000E+00 0. -1.
    2000013    1    1    2    0    0 -0.10771815006E+04  0.26444649442E+03  0.15708316097E+04  0.21448225754E+04  0.95000000000E+03 0.  0.
   -2000013    1    1    2    0    0  0.10771815006E+04 -0.26444649442E+03  0.57624399044E+03  0.15699710412E+04  0.95000000000E+03 0.  0.
<mgrwt>
<rscale>  0 0.30314614E+04</rscale>
<asrwt>0</asrwt>
<pdfrwt beam="1">  1        2 0.45091301E+00 0.30314614E+04</pdfrwt>
<pdfrwt beam="2">  1       -2 0.12059370E+00 0.30314614E+04</pdfrwt>
<totfact> 0.86052460E-01</totfact>
</mgrwt>
</event>
<event>
 4    1  0.2058093E-008  0.3234414E+04  0.7816531E-02  0.8179787E-01
          2   -1    0    0  501    0  0.00000000000E+00  0.00000000000E+00  0.92116902817E+03  0.92116902817E+03  0.00000000000E+00 0.  1.
         -2   -1    0    0    0  501 -0.00000000000E+00 -0.00000000000E+00 -0.28391732130E+04  0.28391732130E+04  0.00000000000E+00 0. -1.
    2000013    1    1    2    0    0 -0.12761618776E+04  0.20438407285E+03 -0.11986689910E+04  0.20024158752E+04  0.95000000000E+03 0.  0.
   -2000013    1    1    2    0    0  0.12761618776E+04 -0.20438407285E+03 -0.71933519385E+03  0.17579263660E+04  0.95000000000E+03 0.  0.
<mgrwt>
<rscale>  0 0.32344140E+04</rscale>
<asrwt>0</asrwt>
<pdfrwt beam="1">  1        2 0.14171831E+00 0.32344140E+04</pdfrwt>
<pdfrwt beam="2">  1       -2 0.43679588E+00 0.32344140E+04</pdfrwt>
<totfact> 0.10100225E-01</totfact>
</mgrwt>
</event>
<event>
 4    1  0.2058093E-008  0.2472395E+04  0.7816531E-02  0.8412886E-01
          2   -1    0    0  501    0  0.00000000000E+00  0.00000000000E+00  0.11385494210E+04  0.11385494210E+04  0.00000000000E+00 0.  1.
         -2   -1    0    0    0  501 -0.00000000000E+00 -0.00000000000E+00 -0.13422204284E+04  0.13422204284E+04  0.00000000000E+00 0. -1.
    2000013    1    1    2    0    0  0.49193926703E+03 -0.47467521284E+03 -0.50113259611E+03  0.12731671842E+04  0.95000000000E+03 0.  0.
   -2000013    1    1    2    0    0 -0.49193926703E+03  0.47467521284E+03  0.29746158864E+03  0.12076026651E+04  0.95000000000E+03 0.  0.
<mgrwt>
<rscale>  0 0.24723950E+04</rscale>
<asrwt>0</asrwt>
<pdfrwt beam="1">  1        2 0.17516145E+00 0.24723950E+04</pdfrwt>
<pdfrwt beam="2">  1       -2 0.20649545E+00 0.24723950E+04</pdfrwt>
<totfact> 0.22245493E+00</totfact>
</mgrwt>
</event>
<event>
 4    1  0.2058093E-008  0.2112954E+04  0.7816531E-02  0.8555558E-01
          2   -1    0    0  501    0  0.00000000000E+00  0.00000000000E+00  0.14829500397E+04  0.14829500397E+04  0.00000000000E+00 0.  1.
         -2   -1    0    0    0  501 -0.00000000000E+00 -0.00000000000E+00 -0.75265085130E+03  0.75265085130E+03  0.00000000000E+00 0. -1.
    2000013    1    1    2    0    0 -0.24140528878E+03  0.31157469521E+03  0.10970603571E+03  0.10343552187E+04  0.95000000000E+03 0.  0.
   -2000013    1    1    2    0    0  0.24140528878E+03 -0.31157469521E+03  0.62059315272E+03  0.12012456724E+04  0.95000000000E+03 0.  0.
<mgrwt>
<rscale>  0 0.21129540E+04</rscale>
<asrwt>0</asrwt>
<pdfrwt beam="1">  1        2 0.22814616E+00 0.21129540E+04</pdfrwt>
<pdfrwt beam="2">  1       -2 0.11579244E+00 0.21129540E+04</pdfrwt>
<totfact> 0.69289827E+00</totfact>
</mgrwt>
</event>
<event>
 4    1  0.2058093E-008  0.3620282E+04  0.7816531E-02  0.8085862E-01
         -1   -1    0    0    0  501 -0.00000000000E+00  0.00000000000E+00  0.11123506946E+04  0.11123506946E+04  0.00000000000E+00 0. -1.
          1   -1    0    0  501    0  0.00000000000E+00 -0.00000000000E+00 -0.29456638355E+04  0.29456638355E+04  0.00000000000E+00 0.  1.
    2000013    1    1    2    0    0 -0.11722329826E+04  0.61510927855E+03 -0.18004162878E+04  0.24282686012E+04  0.95000000000E+03 0.  0.
   -2000013    1    1    2    0    0  0.11722329826E+04 -0.61510927855E+03 -0.32896853050E+02  0.16297459290E+04  0.95000000000E+03 0.  0.
<mgrwt>
<rscale>  0 0.36202824E+04</rscale>
<asrwt>0</asrwt>
<pdfrwt beam="2">  1        1 0.45317906E+00 0.36202824E+04</pdfrwt>
<pdfrwt beam="1">  1       -1 0.17113087E+00 0.36202824E+04</pdfrwt>
<totfact> 0.12757685E-01</totfact>
</mgrwt>
</event>
<event>
 4    1  0.2058093E-008  0.2371122E+04  0.7816531E-02  0.8450395E-01
          2   -1    0    0  501    0  0.00000000000E+00  0.00000000000E+00  0.19404380987E+04  0.19404380987E+04  0.00000000000E+00 0.  1.
         -2   -1    0    0    0  501 -0.00000000000E+00 -0.00000000000E+00 -0.72434902220E+03  0.72434902220E+03  0.00000000000E+00 0. -1.
    2000013    1    1    2    0    0  0.62290219999E+03 -0.25676489751E+03  0.85712162867E+03  0.14460611501E+04  0.95000000000E+03 0.  0.
   -2000013    1    1    2    0    0 -0.62290219999E+03  0.25676489751E+03  0.35896744780E+03  0.12187259708E+04  0.95000000000E+03 0.  0.
<mgrwt>
<rscale>  0 0.23711216E+04</rscale>
<asrwt>0</asrwt>
<pdfrwt beam="1">  1        2 0.29852894E+00 0.23711216E+04</pdfrwt>
<pdfrwt beam="2">  1       -2 0.11143831E+00 0.23711216E+04</pdfrwt>
<totfact> 0.41377122E+00</totfact>
</mgrwt>
</event>
<event>
 4    1  0.2058093E-008  0.3189532E+04  0.7816531E-02  0.8191587E-01
          2   -1    0    0  501    0  0.00000000000E+00  0.00000000000E+00  0.18604995770E+04  0.18604995770E+04  0.00000000000E+00 0.  1.
         -2   -1    0    0    0  501 -0.00000000000E+00 -0.00000000000E+00 -0.13669869871E+04  0.13669869871E+04  0.00000000000E+00 0. -1.
    2000013    1    1    2    0    0  0.56203991541E+03  0.11345600257E+04  0.50376325186E+02  0.15837149657E+04  0.95000000000E+03 0.  0.
   -2000013    1    1    2    0    0 -0.56203991541E+03 -0.11345600257E+04  0.44313626475E+03  0.16437715984E+04  0.95000000000E+03 0.  0.
<mgrwt>
<rscale>  0 0.31895321E+04</rscale>
<asrwt>0</asrwt>
<pdfrwt beam="1">  1        2 0.28623071E+00 0.31895321E+04</pdfrwt>
<pdfrwt beam="2">  1       -2 0.21030569E+00 0.31895321E+04</pdfrwt>
<totfact> 0.76735900E-01</totfact>
</mgrwt>
</event>
<event>
 4    1  0.2058093E-008  0.2945637E+04  0.7816531E-02  0.8259427E-01
         -2   -1    0    0    0  501 -0.00000000000E+00  0.00000000000E+00  0.47056489280E+03  0.47056489280E+03  0.00000000000E+00 0. -1.
          2   -1    0    0  501    0  0.00000000000E+00 -0.00000000000E+00 -0.46097670007E+04  0.46097670007E+04  0.00000000000E+00 0.  1.
    2000013    1    1    2    0    0 -0.23624085603E+03  0.10453863540E+04 -0.26621848601E+04  0.30229738008E+04  0.95000000000E+03 0.  0.
   -2000013    1    1    2    0    0  0.23624085603E+03 -0.10453863540E+04 -0.14770172479E+04  0.20573580927E+04  0.95000000000E+03 0.  0.
<mgrwt>
<rscale>  0 0.29456371E+04</rscale>
<asrwt>0</asrwt>
<pdfrwt beam="2">  1        2 0.70919496E+00 0.29456371E+04</pdfrwt>
<pdfrwt beam="1">  1       -2 0.72394595E-01 0.29456371E+04</pdfrwt>
<totfact> 0.14175191E-01</totfact>
</mgrwt>
</event>
<event>
 4    1  0.2058093E-008  0.2350193E+04  0.7816531E-02  0.8458389E-01
         -2   -1    0    0    0  501 -0.00000000000E+00  0.00000000000E+00  0.42878724419E+03  0.42878724419E+03  0.00000000000E+00 0. -1.
          2   -1    0    0  501    0  0.00000000000E+00 -0.00000000000E+00 -0.32203666786E+04  0.32203666786E+04  0.00000000000E+00 0.  1.
    2000013    1    1    2    0    0  0.15592364796E+03 -0.63829657930E+03 -0.17310351233E+04  0.20810375550E+04  0.95000000000E+03 0.  0.
   -2000013    1    1    2    0    0 -0.15592364796E+03  0.63829657930E+03 -0.10605443111E+04  0.15681163678E+04  0.95000000000E+03 0.  0.
<mgrwt>
<rscale>  0 0.23501933E+04</rscale>
<asrwt>0</asrwt>
<pdfrwt beam="2">  1        2 0.49544101E+00 0.23501933E+04</pdfrwt>
<pdfrwt beam="1">  1       -2 0.65967271E-01 0.23501933E+04</pdfrwt>
<totfact> 0.24041611E+00</totfact>
</mgrwt>
</event>
<event>
 4    1  0.2058093E-008  0.2164708E+04  0.7816531E-02  0.8533262E-01
         -2   -1    0    0    0  501 -0.00000000000E+00  0.00000000000E+00  0.80738604517E+03  0.80738604517E+03  0.00000000000E+00 0. -1.
          2   -1    0    0  501    0  0.00000000000E+00 -0.00000000000E+00 -0.14509672416E+04  0.14509672416E+04  0.00000000000E+00 0.  1.
    2000013    1    1    2    0    0  0.11175862906E+03 -0.49155445444E+03 -0.44902950475E+03  0.11654369434E+04  0.95000000000E+03 0.  0.
   -2000013    1    1    2    0    0 -0.11175862906E+03  0.49155445444E+03 -0.19455169165E+03  0.10929163434E+04  0.95000000000E+03 0.  0.
<mgrwt>
<rscale>  0 0.21647085E+04</rscale>
<asrwt>0</asrwt>
<pdfrwt beam="2">  1        2 0.22322573E+00 0.21647085E+04</pdfrwt>
<pdfrwt beam="1">  1       -2 0.12421324E+00 0.21647085E+04</pdfrwt>
<totfact> 0.60443182E+00</totfact>
</mgrwt>
</event>
<event>
 4    1  0.2058093E-008  0.5132885E+04  0.7816531E-02  0.7808329E-01
         -1   -1    0    0    0  501 -0.00000000000E+00  0.00000000000E+00  0.17801018742E+04  0.17801018742E+04  0.00000000000E+00 0. -1.
          1   -1    0    0  501    0  0.00000000000E+00 -0.00000000000E+00 -0.37001398517E+04  0.37001398517E+04  0.00000000000E+00 0.  1.
    2000013    1    1    2    0    0 -0.49293625460E+03 -0.13934116284E+04  0.10372839261E+04  0.20403529255E+04  0.95000000000E+03 0.  0.
   -2000013    1    1    2    0    0  0.49293625460E+03  0.13934116284E+04 -0.29573219037E+04  0.34398888004E+04  0.95000000000E+03 0.  0.
<mgrwt>
<rscale>  0 0.51328845E+04</rscale>
<asrwt>0</asrwt>
<pdfrwt beam="2">  1        1 0.56925228E+00 0.51328845E+04</pdfrwt>
<pdfrwt beam="1">  1       -1 0.27386183E+00 0.51328845E+04</pdfrwt>
<totfact> 0.59990639E-03</totfact>
</mgrwt>
</event>
<event>
 4    1  0.2058093E-008  0.2589709E+04  0.7816531E-02  0.8371705E-01
          2   -1    0    0  501    0  0.00000000000E+00  0.00000000000E+00  0.16769618734E+04  0.16769618734E+04  0.00000000000E+00 0.  1.
         -2   -1    0    0    0  501 -0.00000000000E+00 -0.00000000000E+00 -0.99981320510E+03  0.99981320510E+03  0.00000000000E+00 0. -1.
    2000013    1    1    2    0    0 -0.72872794762E+03 -0.47834972229E+03  0.21503298667E+03  0.13071350595E+04  0.95000000000E+03 0.  0.
   -2000013    1    1    2    0    0  0.72872794762E+03  0.47834972229E+03  0.46211568166E+03  0.13696400190E+04  0.95000000000E+03 0.  0.
<mgrwt>
<rscale>  0 0.25897093E+04</rscale>
<asrwt>0</asrwt>
<pdfrwt beam="1">  1        2 0.25799413E+00 0.25897093E+04</pdfrwt>
<pdfrwt beam="2">  1       -2 0.15381742E+00 0.25897093E+04</pdfrwt>
<totfact> 0.25062357E+00</totfact>
</mgrwt>
</event>
<event>
 4    1  0.2058093E-008  0.2647313E+04  0.7816531E-02  0.8352305E-01
          2   -1    0    0  501    0  0.00000000000E+00  0.00000000000E+00  0.16946366073E+04  0.16946366073E+04  0.00000000000E+00 0.  1.
         -2   -1    0    0    0  501 -0.00000000000E+00 -0.00000000000E+00 -0.10338889917E+04  0.10338889917E+04  0.00000000000E+00 0. -1.
    2000013    1    1    2    0    0 -0.56804264218E+03  0.54505153595E+03 -0.16372024386E+03  0.12446115613E+04  0.95000000000E+03 0.  0.
   -2000013    1    1    2    0    0  0.56804264218E+03 -0.54505153595E+03  0.82446785945E+03  0.14839140378E+04  0.95000000000E+03 0.  0.
<mgrwt>
<rscale>  0 0.26473127E+04</rscale>
<asrwt>0</asrwt>
<pdfrwt beam="1">  1        2 0.26071332E+00 0.26473127E+04</pdfrwt>
<pdfrwt beam="2">  1       -2 0.15905984E+00 0.26473127E+04</pdfrwt>
<totfact> 0.22274289E+00</totfact>
</mgrwt>
</event>
<event>
 4    1  0.2058093E-008  0.2715807E+04  0.7816531E-02  0.8329894E-01
         -2   -1    0    0    0  501 -0.00000000000E+00  0.00000000000E+00  0.88088681770E+03  0.88088681770E+03  0.00000000000E+00 0. -1.
          2   -1    0    0  501    0  0.00000000000E+00 -0.00000000000E+00 -0.20932343488E+04  0.20932343488E+04  0.00000000000E+00 0.  1.
    2000013    1    1    2    0    0 -0.68256359156E+03 -0.62298660307E+03 -0.28242479924E+03  0.13550900824E+04  0.95000000000E+03 0.  0.
   -2000013    1    1    2    0    0  0.68256359156E+03  0.62298660307E+03 -0.92992273188E+03  0.16190310841E+04  0.95000000000E+03 0.  0.
<mgrwt>
<rscale>  0 0.27158075E+04</rscale>
<asrwt>0</asrwt>
<pdfrwt beam="2">  1        2 0.32203605E+00 0.27158075E+04</pdfrwt>
<pdfrwt beam="1">  1       -2 0.13552105E+00 0.27158075E+04</pdfrwt>
<totfact> 0.20287239E+00</totfact>
</mgrwt>
</event>
<event>
 4    1  0.2058093E-008  0.1988502E+04  0.7816531E-02  0.8612015E-01
          2   -1    0    0  501    0  0.00000000000E+00  0.00000000000E+00  0.17975178600E+04  0.17975178600E+04  0.00000000000E+00 0.  1.
         -2   -1    0    0    0  501 -0.00000000000E+00 -0.00000000000E+00 -0.54994437660E+03  0.54994437660E+03  0.00000000000E+00 0. -1.
    2000013    1    1    2    0    0 -0.29233786233E+03  0.10405412832E+02  0.64924711365E+03  0.11872621922E+04  0.95000000000E+03 0.  0.
   -2000013    1    1    2    0    0  0.29233786233E+03 -0.10405412832E+02  0.59832636977E+03  0.11602000444E+04  0.95000000000E+03 0.  0.
<mgrwt>
<rscale>  0 0.19885018E+04</rscale>
<asrwt>0</asrwt>
<pdfrwt beam="1">  1        2 0.27654121E+00 0.19885018E+04</pdfrwt>
<pdfrwt beam="2">  1       -2 0.84606828E-01 0.19885018E+04</pdfrwt>
<totfact> 0.98014983E+00</totfact>
</mgrwt>
</event>
<event>
 4    1  0.2058093E-008  0.2169416E+04  0.7816531E-02  0.8531267E-01
          2   -1    0    0  501    0  0.00000000000E+00  0.00000000000E+00  0.10524247613E+04  0.10524247613E+04  0.00000000000E+00 0.  1.
         -2   -1    0    0    0  501 -0.00000000000E+00 -0.00000000000E+00 -0.11179819372E+04  0.11179819372E+04  0.00000000000E+00 0. -1.
    2000013    1    1    2    0    0  0.46362995357E+03 -0.24274812385E+03 -0.18194966104E+02  0.10847628507E+04  0.95000000000E+03 0.  0.
   -2000013    1    1    2    0    0 -0.46362995357E+03  0.24274812385E+03 -0.47362209802E+02  0.10856438479E+04  0.95000000000E+03 0.  0.
<mgrwt>
<rscale>  0 0.21694164E+04</rscale>
<asrwt>0</asrwt>
<pdfrwt beam="1">  1        2 0.16191150E+00 0.21694164E+04</pdfrwt>
<pdfrwt beam="2">  1       -2 0.17199722E+00 0.21694164E+04</pdfrwt>
<totfact> 0.44088552E+00</totfact>
</mgrwt>
</event>
<event>
 4    1  0.2058093E-008  0.2041474E+04  0.7816531E-02  0.8587472E-01
          1   -1    0    0  501    0  0.00000000000E+00  0.00000000000E+00  0.11814683884E+04  0.11814683884E+04  0.00000000000E+00 0.  1.
         -1   -1    0    0    0  501 -0.00000000000E+00 -0.00000000000E+00 -0.88187174661E+03  0.88187174661E+03  0.00000000000E+00 0. -1.
    2000013    1    1    2    0    0 -0.53350261410E+02 -0.36930886512E+03  0.13668619971E+03  0.10297661897E+04  0.95000000000E+03 0.  0.
   -2000013    1    1    2    0    0  0.53350261410E+02  0.36930886512E+03  0.16291044205E+03  0.10335739453E+04  0.95000000000E+03 0.  0.
<mgrwt>
<rscale>  0 0.20414736E+04</rscale>
<asrwt>0</asrwt>
<pdfrwt beam="1">  1        1 0.18176437E+00 0.20414736E+04</pdfrwt>
<pdfrwt beam="2">  1       -1 0.13567258E+00 0.20414736E+04</pdfrwt>
<totfact> 0.46354840E+00</totfact>
</mgrwt>
</event>
<event>
 4    1  0.2058093E-008  0.2362495E+04  0.7816531E-02  0.8453680E-01
          2   -1    0    0  501    0  0.00000000000E+00  0.00000000000E+00  0.13740020355E+04  0.13740020355E+04  0.00000000000E+00 0. -1.
         -2   -1    0    0    0  501 -0.00000000000E+00 -0.00000000000E+00 -0.10155336393E+04  0.10155336393E+04  0.00000000000E+00 0.  1.
    2000013    1    1    2    0    0  0.24496559327E+03  0.46758167456E+03  0.64735398309E+03  0.12649932584E+04  0.95000000000E+03 0.  0.
   -2000013    1    1    2    0    0 -0.24496559327E+03 -0.46758167456E+03 -0.28888558688E+03  0.11245424165E+04  0.95000000000E+03 0.  0.
<mgrwt>
<rscale>  0 0.23624947E+04</rscale>
<asrwt>0</asrwt>
<pdfrwt beam="1">  1        2 0.21138493E+00 0.23624947E+04</pdfrwt>
<pdfrwt beam="2">  1       -2 0.15623595E+00 0.23624947E+04</pdfrwt>
<totfact> 0.36304527E+00</totfact>
</mgrwt>
</event>
<event>
 4    1  0.2058093E-008  0.2283357E+04  0.7816531E-02  0.8484512E-01
         -2   -1    0    0    0  501 -0.00000000000E+00  0.00000000000E+00  0.31035973200E+03  0.31035973200E+03  0.00000000000E+00 0. -1.
          2   -1    0    0  501    0  0.00000000000E+00 -0.00000000000E+00 -0.41997404098E+04  0.41997404098E+04  0.00000000000E+00 0.  1.
    2000013    1    1    2    0    0 -0.62302298924E+03  0.57531056978E+02 -0.21368326633E+04  0.24207480866E+04  0.95000000000E+03 0.  0.
   -2000013    1    1    2    0    0  0.62302298924E+03 -0.57531056978E+02 -0.17525480145E+04  0.20893520552E+04  0.95000000000E+03 0.  0.
<mgrwt>
<rscale>  0 0.22833574E+04</rscale>
<asrwt>0</asrwt>
<pdfrwt beam="2">  1        2 0.64611382E+00 0.22833574E+04</pdfrwt>
<pdfrwt beam="1">  1       -2 0.47747658E-01 0.22833574E+04</pdfrwt>
<totfact> 0.88445456E-01</totfact>
</mgrwt>
</event>
<event>
 4    1  0.2058093E-008  0.2007488E+04  0.7816531E-02  0.8603128E-01
         -2   -1    0    0    0  501 -0.00000000000E+00  0.00000000000E+00  0.45091727307E+03  0.45091727307E+03  0.00000000000E+00 0. -1.
          2   -1    0    0  501    0  0.00000000000E+00 -0.00000000000E+00 -0.22343381722E+04  0.22343381722E+04  0.00000000000E+00 0.  1.
    2000013    1    1    2    0    0 -0.69820669794E+02 -0.31633053070E+03 -0.90222121065E+03  0.13496084779E+04  0.95000000000E+03 0.  0.
   -2000013    1    1    2    0    0  0.69820669794E+02  0.31633053070E+03 -0.88119968850E+03  0.13356469674E+04  0.95000000000E+03 0.  0.
<mgrwt>
<rscale>  0 0.20074877E+04</rscale>
<asrwt>0</asrwt>
<pdfrwt beam="2">  1        2 0.34374433E+00 0.20074877E+04</pdfrwt>
<pdfrwt beam="1">  1       -2 0.69371888E-01 0.20074877E+04</pdfrwt>
<totfact> 0.86942386E+00</totfact>
</mgrwt>
</event>
<event>
 4    1  0.2058093E-008  0.2883670E+04  0.7816531E-02  0.8277753E-01
         -2   -1    0    0    0  501 -0.00000000000E+00  0.00000000000E+00  0.15160191175E+04  0.15160191175E+04  0.00000000000E+00 0. -1.
          2   -1    0    0  501    0  0.00000000000E+00 -0.00000000000E+00 -0.13712809893E+04  0.13712809893E+04  0.00000000000E+00 0.  1.
    2000013    1    1    2    0    0  0.62585180698E+03 -0.88551619540E+03  0.96037318942E+02  0.14448365247E+04  0.95000000000E+03 0.  0.
   -2000013    1    1    2    0    0 -0.62585180698E+03  0.88551619540E+03  0.48700809321E+02  0.14424635820E+04  0.95000000000E+03 0.  0.
<mgrwt>
<rscale>  0 0.28836700E+04</rscale>
<asrwt>0</asrwt>
<pdfrwt beam="2">  1        2 0.21096631E+00 0.28836700E+04</pdfrwt>
<pdfrwt beam="1">  1       -2 0.23323371E+00 0.28836700E+04</pdfrwt>
<totfact> 0.10601450E+00</totfact>
</mgrwt>
</event>
<event>
 4    1  0.2058093E-008  0.2375858E+04  0.7816531E-02  0.8448598E-01
         -2   -1    0    0    0  501 -0.00000000000E+00  0.00000000000E+00  0.70027306631E+03  0.70027306631E+03  0.00000000000E+00 0. -1.
          2   -1    0    0  501    0  0.00000000000E+00 -0.00000000000E+00 -0.20151783425E+04  0.20151783425E+04  0.00000000000E+00 0.  1.
    2000013    1    1    2    0    0  0.32110583736E+03 -0.26731000435E+03  0.31910805452E+01  0.10378216514E+04  0.95000000000E+03 0.  0.
   -2000013    1    1    2    0    0 -0.32110583736E+03  0.26731000435E+03 -0.13180963568E+04  0.16776297574E+04  0.95000000000E+03 0.  0.
<mgrwt>
<rscale>  0 0.23758578E+04</rscale>
<asrwt>0</asrwt>
<pdfrwt beam="2">  1        2 0.31002743E+00 0.23758578E+04</pdfrwt>
<pdfrwt beam="1">  1       -2 0.10773432E+00 0.23758578E+04</pdfrwt>
<totfact> 0.40790364E+00</totfact>
</mgrwt>
</event>
<event>
 4    1  0.2058093E-008  0.3219039E+04  0.7816531E-02  0.8183807E-01
          2   -1    0    0  501    0  0.00000000000E+00  0.00000000000E+00  0.16593923631E+04  0.16593923631E+04  0.00000000000E+00 0.  1.
         -2   -1    0    0    0  501 -0.00000000000E+00 -0.00000000000E+00 -0.15611454966E+04  0.15611454966E+04  0.00000000000E+00 0. -1.
    2000013    1    1    2    0    0  0.12411536848E+04  0.34105873553E+03  0.22603728760E+03  0.16156659264E+04  0.95000000000E+03 0.  0.
   -2000013    1    1    2    0    0 -0.12411536848E+04 -0.34105873553E+03 -0.12779042103E+03  0.16048719333E+04  0.95000000000E+03 0.  0.
<mgrwt>
<rscale>  0 0.32190389E+04</rscale>
<asrwt>0</asrwt>
<pdfrwt beam="1">  1        2 0.25529113E+00 0.32190389E+04</pdfrwt>
<pdfrwt beam="2">  1       -2 0.24017623E+00 0.32190389E+04</pdfrwt>
<totfact> 0.64184335E-01</totfact>
</mgrwt>
</event>
<event>
 4    1  0.2058093E-008  0.2010585E+04  0.7816531E-02  0.8601688E-01
          2   -1    0    0  501    0  0.00000000000E+00  0.00000000000E+00  0.35082931066E+04  0.35082931066E+04  0.00000000000E+00 0.  1.
         -2   -1    0    0    0  501 -0.00000000000E+00 -0.00000000000E+00 -0.28806394460E+03  0.28806394460E+03  0.00000000000E+00 0. -1.
    2000013    1    1    2    0    0  0.28771307071E+03  0.15862933218E+03  0.15854468248E+04  0.18772543009E+04  0.95000000000E+03 0.  0.
   -2000013    1    1    2    0    0 -0.28771307071E+03 -0.15862933218E+03  0.16347823372E+04  0.19191027503E+04  0.95000000000E+03 0.  0.
<mgrwt>
<rscale>  0 0.20105847E+04</rscale>
<asrwt>0</asrwt>
<pdfrwt beam="1">  1        2 0.53973737E+00 0.20105847E+04</pdfrwt>
<pdfrwt beam="2">  1       -2 0.44317532E-01 0.20105847E+04</pdfrwt>
<totfact> 0.36155682E+00</totfact>
</mgrwt>
</event>
<event>
 4    1  0.2058093E-008  0.2420686E+04  0.7816531E-02  0.8431799E-01
          2   -1    0    0  501    0  0.00000000000E+00  0.00000000000E+00  0.12546348818E+04  0.12546348818E+04  0.00000000000E+00 0.  1.
         -2   -1    0    0    0  501 -0.00000000000E+00 -0.00000000000E+00 -0.11676149702E+04  0.11676149702E+04  0.00000000000E+00 0. -1.
    2000013    1    1    2    0    0 -0.25439789492E+03  0.61138088370E+03 -0.30874810892E+03  0.11984699699E+04  0.95000000000E+03 0.  0.
   -2000013    1    1    2    0    0  0.25439789492E+03 -0.61138088370E+03  0.39576802056E+03  0.12237798822E+04  0.95000000000E+03 0.  0.
<mgrwt>
<rscale>  0 0.24206862E+04</rscale>
<asrwt>0</asrwt>
<pdfrwt beam="1">  1        2 0.19302075E+00 0.24206862E+04</pdfrwt>
<pdfrwt beam="2">  1       -2 0.17963307E+00 0.24206862E+04</pdfrwt>
<totfact> 0.28779974E+00</totfact>
</mgrwt>
</event>
<event>
 4    1  0.2058093E-008  0.2417299E+04  0.7816531E-02  0.8433055E-01
         -2   -1    0    0    0  501 -0.00000000000E+00  0.00000000000E+00  0.11838079312E+04  0.11838079312E+04  0.00000000000E+00 0. -1.
          2   -1    0    0  501    0  0.00000000000E+00 -0.00000000000E+00 -0.12340121549E+04  0.12340121549E+04  0.00000000000E+00 0.  1.
    2000013    1    1    2    0    0 -0.53100905632E+03  0.46740591771E+03 -0.26576668865E+03  0.12139072628E+04  0.95000000000E+03 0.  0.
   -2000013    1    1    2    0    0  0.53100905632E+03 -0.46740591771E+03  0.21556246491E+03  0.12039128233E+04  0.95000000000E+03 0.  0.
<mgrwt>
<rscale>  0 0.24172988E+04</rscale>
<asrwt>0</asrwt>
<pdfrwt beam="2">  1        2 0.18984802E+00 0.24172988E+04</pdfrwt>
<pdfrwt beam="1">  1       -2 0.18212430E+00 0.24172988E+04</pdfrwt>
<totfact> 0.28459101E+00</totfact>
</mgrwt>
</event>
<event>
 4    1  0.2058093E-008  0.3409248E+04  0.7816531E-02  0.8135640E-01
         -2   -1    0    0    0  501 -0.00000000000E+00  0.00000000000E+00  0.11416389767E+04  0.11416389767E+04  0.00000000000E+00 0. -1.
          2   -1    0    0  501    0  0.00000000000E+00 -0.00000000000E+00 -0.25452385902E+04  0.25452385902E+04  0.00000000000E+00 0.  1.
    2000013    1    1    2    0    0  0.14453788024E+03  0.12658413941E+04 -0.35160831608E+02  0.15896483630E+04  0.95000000000E+03 0.  0.
   -2000013    1    1    2    0    0 -0.14453788024E+03 -0.12658413941E+04 -0.13684387819E+04  0.20972292039E+04  0.95000000000E+03 0.  0.
<mgrwt>
<rscale>  0 0.34092484E+04</rscale>
<asrwt>0</asrwt>
<pdfrwt beam="2">  1        2 0.39157517E+00 0.34092484E+04</pdfrwt>
<pdfrwt beam="1">  1       -2 0.17563677E+00 0.34092484E+04</pdfrwt>
<totfact> 0.52735371E-01</totfact>
</mgrwt>
</event>
<event>
 4    1  0.2058093E-008  0.2174510E+04  0.7816531E-02  0.8529113E-01
          2   -1    0    0  501    0  0.00000000000E+00  0.00000000000E+00  0.16390086348E+04  0.16390086348E+04  0.00000000000E+00 0.  1.
         -2   -1    0    0    0  501 -0.00000000000E+00 -0.00000000000E+00 -0.72124303507E+03  0.72124303507E+03  0.00000000000E+00 0. -1.
    2000013    1    1    2    0    0  0.22465451823E+03 -0.46925954999E+03  0.35620100217E+03  0.11401988124E+04  0.95000000000E+03 0.  0.
   -2000013    1    1    2    0    0 -0.22465451823E+03  0.46925954999E+03  0.56156459755E+03  0.12200528575E+04  0.95000000000E+03 0.  0.
<mgrwt>
<rscale>  0 0.21745101E+04</rscale>
<asrwt>0</asrwt>
<pdfrwt beam="1">  1        2 0.25215517E+00 0.21745101E+04</pdfrwt>
<pdfrwt beam="2">  1       -2 0.11096047E+00 0.21745101E+04</pdfrwt>
<totfact> 0.62499224E+00</totfact>
</mgrwt>
</event>
<event>
 4    1  0.2058093E-008  0.2531308E+04  0.7816531E-02  0.8391916E-01
          2   -1    0    0  501    0  0.00000000000E+00  0.00000000000E+00  0.29202104058E+04  0.29202104058E+04  0.00000000000E+00 0.  1.
         -2   -1    0    0    0  501 -0.00000000000E+00 -0.00000000000E+00 -0.54854971169E+03  0.54854971169E+03  0.00000000000E+00 0. -1.
    2000013    1    1    2    0    0 -0.37047360533E+03 -0.39266789782E+03  0.31058802239E+03  0.11359593698E+04  0.95000000000E+03 0.  0.
   -2000013    1    1    2    0    0  0.37047360533E+03  0.39266789782E+03  0.20610726717E+04  0.23328007476E+04  0.95000000000E+03 0.  0.
<mgrwt>
<rscale>  0 0.25313084E+04</rscale>
<asrwt>0</asrwt>
<pdfrwt beam="1">  1        2 0.44926313E+00 0.25313084E+04</pdfrwt>
<pdfrwt beam="2">  1       -2 0.84392265E-01 0.25313084E+04</pdfrwt>
<totfact> 0.21269653E+00</totfact>
</mgrwt>
</event>
<event>
 4    1  0.2058093E-008  0.2706133E+04  0.7816531E-02  0.8333018E-01
          2   -1    0    0  501    0  0.00000000000E+00  0.00000000000E+00  0.15033231001E+04  0.15033231001E+04  0.00000000000E+00 0.  1.
         -2   -1    0    0    0  501 -0.00000000000E+00 -0.00000000000E+00 -0.12178278287E+04  0.12178278287E+04  0.00000000000E+00 0. -1.
    2000013    1    1    2    0    0  0.87428387523E+03  0.36456456369E+03  0.31981888122E+03  0.13791532665E+04  0.95000000000E+03 0.  0.
   -2000013    1    1    2    0    0 -0.87428387523E+03 -0.36456456369E+03 -0.34323609872E+02  0.13419976624E+04  0.95000000000E+03 0.  0.
<mgrwt>
<rscale>  0 0.27061328E+04</rscale>
<asrwt>0</asrwt>
<pdfrwt beam="1">  1        2 0.23128048E+00 0.27061328E+04</pdfrwt>
<pdfrwt beam="2">  1       -2 0.18735813E+00 0.27061328E+04</pdfrwt>
<totfact> 0.17899561E+00</totfact>
</mgrwt>
</event>
<event>
 4    1  0.2058093E-008  0.2594189E+04  0.7816531E-02  0.8370178E-01
         -2   -1    0    0    0  501 -0.00000000000E+00  0.00000000000E+00  0.13955653543E+04  0.13955653543E+04  0.00000000000E+00 0. -1.
          2   -1    0    0  501    0  0.00000000000E+00 -0.00000000000E+00 -0.12055714169E+04  0.12055714169E+04  0.00000000000E+00 0.  1.
    2000013    1    1    2    0    0  0.58175549528E+03 -0.64697700538E+03  0.24684564203E+03  0.13116598159E+04  0.95000000000E+03 0.  0.
   -2000013    1    1    2    0    0 -0.58175549528E+03  0.64697700538E+03 -0.56851704607E+02  0.12894769552E+04  0.95000000000E+03 0.  0.
<mgrwt>
<rscale>  0 0.25941887E+04</rscale>
<asrwt>0</asrwt>
<pdfrwt beam="2">  1        2 0.18547253E+00 0.25941887E+04</pdfrwt>
<pdfrwt beam="1">  1       -2 0.21470236E+00 0.25941887E+04</pdfrwt>
<totfact> 0.17767831E+00</totfact>
</mgrwt>
</event>
<event>
 4    1  0.2058093E-008  0.2028177E+04  0.7816531E-02  0.8593559E-01
         -2   -1    0    0    0  501 -0.00000000000E+00  0.00000000000E+00  0.14177012640E+04  0.14177012640E+04  0.00000000000E+00 0. -1.
          2   -1    0    0  501    0  0.00000000000E+00 -0.00000000000E+00 -0.72538206337E+03  0.72538206337E+03  0.00000000000E+00 0.  1.
    2000013    1    1    2    0    0  0.15472487233E+03  0.30420746525E+03  0.44856851573E+03  0.11046246789E+04  0.95000000000E+03 0.  0.
   -2000013    1    1    2    0    0 -0.15472487233E+03 -0.30420746525E+03  0.24375068487E+03  0.10384586484E+04  0.95000000000E+03 0.  0.
<mgrwt>
<rscale>  0 0.20281766E+04</rscale>
<asrwt>0</asrwt>
<pdfrwt beam="2">  1        2 0.11159724E+00 0.20281766E+04</pdfrwt>
<pdfrwt beam="1">  1       -2 0.21810789E+00 0.20281766E+04</pdfrwt>
<totfact> 0.36856043E+00</totfact>
</mgrwt>
</event>
<event>
 4    1  0.2058093E-008  0.2142649E+04  0.7816531E-02  0.8542685E-01
         -2   -1    0    0    0  501 -0.00000000000E+00  0.00000000000E+00  0.74655830258E+03  0.74655830258E+03  0.00000000000E+00 0. -1.
          2   -1    0    0  501    0  0.00000000000E+00 -0.00000000000E+00 -0.15373698155E+04  0.15373698155E+04  0.00000000000E+00 0.  1.
    2000013    1    1    2    0    0  0.29807582282E+03  0.38527461539E+03 -0.49045045985E+03  0.11748733459E+04  0.95000000000E+03 0.  0.
   -2000013    1    1    2    0    0 -0.29807582282E+03 -0.38527461539E+03 -0.30036105308E+03  0.11090547721E+04  0.95000000000E+03 0.  0.
<mgrwt>
<rscale>  0 0.21426490E+04</rscale>
<asrwt>0</asrwt>
<pdfrwt beam="2">  1        2 0.23651843E+00 0.21426490E+04</pdfrwt>
<pdfrwt beam="1">  1       -2 0.11485512E+00 0.21426490E+04</pdfrwt>
<totfact> 0.65692089E+00</totfact>
</mgrwt>
</event>
<event>
 4    1  0.2058093E-008  0.2509848E+04  0.7816531E-02  0.8399486E-01
         -2   -1    0    0    0  501 -0.00000000000E+00  0.00000000000E+00  0.36529210128E+04  0.36529210128E+04  0.00000000000E+00 0. -1.
          2   -1    0    0  501    0  0.00000000000E+00 -0.00000000000E+00 -0.43111642084E+03  0.43111642084E+03  0.00000000000E+00 0.  1.
    2000013    1    1    2    0    0 -0.28154760939E+03 -0.76983873000E+03  0.15778133253E+04  0.20159155776E+04  0.95000000000E+03 0.  0.
   -2000013    1    1    2    0    0  0.28154760939E+03  0.76983873000E+03  0.16439912666E+04  0.20681218560E+04  0.95000000000E+03 0.  0.
<mgrwt>
<rscale>  0 0.25098480E+04</rscale>
<asrwt>0</asrwt>
<pdfrwt beam="2">  1        2 0.66325606E-01 0.25098480E+04</pdfrwt>
<pdfrwt beam="1">  1       -2 0.56198783E+00 0.25098480E+04</pdfrwt>
<totfact> 0.47794063E-02</totfact>
</mgrwt>
</event>
<event>
 4    1  0.2058093E-008  0.2151348E+04  0.7816531E-02  0.8538955E-01
          2   -1    0    0  501    0  0.00000000000E+00  0.00000000000E+00  0.94141167724E+03  0.94141167724E+03  0.00000000000E+00 0.  1.
         -2   -1    0    0    0  501 -0.00000000000E+00 -0.00000000000E+00 -0.12290846287E+04  0.12290846287E+04  0.00000000000E+00 0. -1.
    2000013    1    1    2    0    0 -0.41733163349E+03 -0.17233974673E+03  0.83352032689E+02  0.10551370726E+04  0.95000000000E+03 0.  0.
   -2000013    1    1    2    0    0  0.41733163349E+03  0.17233974673E+03 -0.37102498419E+03  0.11153592334E+04  0.95000000000E+03 0.  0.
<mgrwt>
<rscale>  0 0.21513481E+04</rscale>
<asrwt>0</asrwt>
<pdfrwt beam="1">  1        2 0.14483257E+00 0.21513481E+04</pdfrwt>
<pdfrwt beam="2">  1       -2 0.18908994E+00 0.21513481E+04</pdfrwt>
<totfact> 0.39670242E+00</totfact>
</mgrwt>
</event>
<event>
 4    1  0.2058093E-008  0.3373474E+04  0.7816531E-02  0.8144447E-01
         -2   -1    0    0    0  501 -0.00000000000E+00  0.00000000000E+00  0.92197059505E+03  0.92197059505E+03  0.00000000000E+00 0. -1.
          2   -1    0    0  501    0  0.00000000000E+00 -0.00000000000E+00 -0.30858709243E+04  0.30858709243E+04  0.00000000000E+00 0.  1.
    2000013    1    1    2    0    0 -0.13827903413E+04  0.16478939575E+03 -0.10135205978E+04  0.19669744978E+04  0.95000000000E+03 0.  0.
   -2000013    1    1    2    0    0  0.13827903413E+04 -0.16478939575E+03 -0.11503797314E+04  0.20408670215E+04  0.95000000000E+03 0.  0.
<mgrwt>
<rscale>  0 0.33734743E+04</rscale>
<asrwt>0</asrwt>
<pdfrwt beam="2">  1        2 0.47474938E+00 0.33734743E+04</pdfrwt>
<pdfrwt beam="1">  1       -2 0.14184163E+00 0.33734743E+04</pdfrwt>
<totfact> 0.44243122E-01</totfact>
</mgrwt>
</event>
<event>
 4    1  0.2058093E-008  0.2246630E+04  0.7816531E-02  0.8499266E-01
         -2   -1    0    0    0  501 -0.00000000000E+00  0.00000000000E+00  0.20348663072E+04  0.20348663072E+04  0.00000000000E+00 0. -1.
          2   -1    0    0  501    0  0.00000000000E+00 -0.00000000000E+00 -0.62010789609E+03  0.62010789609E+03  0.00000000000E+00 0.  1.
    2000013    1    1    2    0    0 -0.42197236618E+03 -0.42428412947E+03  0.74931022706E+03  0.13498309215E+04  0.95000000000E+03 0.  0.
   -2000013    1    1    2    0    0  0.42197236618E+03  0.42428412947E+03  0.66544818409E+03  0.13051432818E+04  0.95000000000E+03 0.  0.
<mgrwt>
<rscale>  0 0.22466301E+04</rscale>
<asrwt>0</asrwt>
<pdfrwt beam="2">  1        2 0.95401216E-01 0.22466301E+04</pdfrwt>
<pdfrwt beam="1">  1       -2 0.31305635E+00 0.22466301E+04</pdfrwt>
<totfact> 0.11472457E+00</totfact>
</mgrwt>
</event>
<event>
 4    1  0.2058093E-008  0.1935976E+04  0.7816531E-02  0.8637153E-01
         -2   -1    0    0    0  501 -0.00000000000E+00  0.00000000000E+00  0.32009956063E+03  0.32009956063E+03  0.00000000000E+00 0. -1.
          2   -1    0    0  501    0  0.00000000000E+00 -0.00000000000E+00 -0.29272179346E+04  0.29272179346E+04  0.00000000000E+00 0.  1.
    2000013    1    1    2    0    0  0.14713961150E+03  0.97952686814E+02 -0.12078414840E+04  0.15468115091E+04  0.95000000000E+03 0.  0.
   -2000013    1    1    2    0    0 -0.14713961150E+03 -0.97952686814E+02 -0.13992768899E+04  0.17005059861E+04  0.95000000000E+03 0.  0.
<mgrwt>
<rscale>  0 0.19359764E+04</rscale>
<asrwt>0</asrwt>
<pdfrwt beam="2">  1        2 0.45034123E+00 0.19359764E+04</pdfrwt>
<pdfrwt beam="1">  1       -2 0.49246085E-01 0.19359764E+04</pdfrwt>
<totfact> 0.70626534E+00</totfact>
</mgrwt>
</event>
<event>
 4    1  0.2058093E-008  0.2258167E+04  0.7816531E-02  0.8494600E-01
          2   -1    0    0  501    0  0.00000000000E+00  0.00000000000E+00  0.19496807966E+04  0.19496807966E+04  0.00000000000E+00 0.  1.
         -2   -1    0    0    0  501 -0.00000000000E+00 -0.00000000000E+00 -0.65386571487E+03  0.65386571487E+03  0.00000000000E+00 0. -1.
    2000013    1    1    2    0    0  0.46140478806E+03 -0.12847143300E+03  0.21202325257E+03  0.10848286257E+04  0.95000000000E+03 0.  0.
   -2000013    1    1    2    0    0 -0.46140478806E+03  0.12847143300E+03  0.10837918291E+04  0.15187178857E+04  0.95000000000E+03 0.  0.
<mgrwt>
<rscale>  0 0.22581669E+04</rscale>
<asrwt>0</asrwt>
<pdfrwt beam="1">  1        2 0.29995089E+00 0.22581669E+04</pdfrwt>
<pdfrwt beam="2">  1       -2 0.10059473E+00 0.22581669E+04</pdfrwt>
<totfact> 0.52794261E+00</totfact>
</mgrwt>
</event>
<event>
 4    1  0.2058093E-008  0.2158057E+04  0.7816531E-02  0.8536091E-01
         -2   -1    0    0    0  501 -0.00000000000E+00  0.00000000000E+00  0.12271667424E+04  0.12271667424E+04  0.00000000000E+00 0.  1.
          2   -1    0    0  501    0  0.00000000000E+00 -0.00000000000E+00 -0.94877256288E+03  0.94877256288E+03  0.00000000000E+00 0. -1.
    2000013    1    1    2    0    0  0.49064690813E+03 -0.44106573776E+00  0.28554649916E+03  0.11066938990E+04  0.95000000000E+03 0.  0.
   -2000013    1    1    2    0    0 -0.49064690813E+03  0.44106573776E+00 -0.71523196778E+01  0.10692454062E+04  0.95000000000E+03 0.  0.
<mgrwt>
<rscale>  0 0.21580567E+04</rscale>
<asrwt>0</asrwt>
<pdfrwt beam="2">  1        2 0.14596501E+00 0.21580567E+04</pdfrwt>
<pdfrwt beam="1">  1       -2 0.18879488E+00 0.21580567E+04</pdfrwt>
<totfact> 0.39386921E+00</totfact>
</mgrwt>
</event>
<event>
 4    1  0.2058093E-008  0.2127467E+04  0.7816531E-02  0.8549240E-01
         -2   -1    0    0    0  501 -0.00000000000E+00  0.00000000000E+00  0.38646804233E+03  0.38646804233E+03  0.00000000000E+00 0. -1.
          2   -1    0    0  501    0  0.00000000000E+00 -0.00000000000E+00 -0.29278715279E+04  0.29278715279E+04  0.00000000000E+00 0.  1.
    2000013    1    1    2    0    0 -0.32700455094E+03 -0.34187348033E+03 -0.13832506706E+04  0.17434712130E+04  0.95000000000E+03 0.  0.
   -2000013    1    1    2    0    0  0.32700455094E+03  0.34187348033E+03 -0.11581528150E+04  0.15708683572E+04  0.95000000000E+03 0.  0.
<mgrwt>
<rscale>  0 0.21274668E+04</rscale>
<asrwt>0</asrwt>
<pdfrwt beam="2">  1        2 0.45044177E+00 0.21274668E+04</pdfrwt>
<pdfrwt beam="1">  1       -2 0.59456622E-01 0.21274668E+04</pdfrwt>
<totfact> 0.46942426E+00</totfact>
</mgrwt>
</event>
<event>
 4    1  0.2058093E-008  0.3021757E+04  0.7816531E-02  0.8237545E-01
          2   -1    0    0  501    0  0.00000000000E+00  0.00000000000E+00  0.13349123712E+04  0.13349123712E+04  0.00000000000E+00 0.  1.
         -2   -1    0    0    0  501 -0.00000000000E+00 -0.00000000000E+00 -0.17100398749E+04  0.17100398749E+04  0.00000000000E+00 0. -1.
    2000013    1    1    2    0    0  0.66609016603E+03 -0.87005197666E+03  0.23946610257E+03  0.14698675334E+04  0.95000000000E+03 0.  0.
   -2000013    1    1    2    0    0 -0.66609016603E+03  0.87005197666E+03 -0.61459360630E+03  0.15750847127E+04  0.95000000000E+03 0.  0.
<mgrwt>
<rscale>  0 0.30217567E+04</rscale>
<asrwt>0</asrwt>
<pdfrwt beam="1">  1        2 0.20537113E+00 0.30217567E+04</pdfrwt>
<pdfrwt beam="2">  1       -2 0.26308306E+00 0.30217567E+04</pdfrwt>
<totfact> 0.72014691E-01</totfact>
</mgrwt>
</event>
<event>
 4    1  0.2058093E-008  0.3029629E+04  0.7816531E-02  0.8235321E-01
          2   -1    0    0  501    0  0.00000000000E+00  0.00000000000E+00  0.11341927106E+04  0.11341927106E+04  0.00000000000E+00 0.  1.
         -2   -1    0    0    0  501 -0.00000000000E+00 -0.00000000000E+00 -0.20231679197E+04  0.20231679197E+04  0.00000000000E+00 0. -1.
    2000013    1    1    2    0    0  0.81714523466E+03 -0.65508762967E+03  0.12183475619E+03  0.14192286091E+04  0.95000000000E+03 0.  0.
   -2000013    1    1    2    0    0 -0.81714523466E+03  0.65508762967E+03 -0.10108099653E+04  0.17381320212E+04  0.95000000000E+03 0.  0.
<mgrwt>
<rscale>  0 0.30296286E+04</rscale>
<asrwt>0</asrwt>
<pdfrwt beam="1">  1        2 0.17449119E+00 0.30296286E+04</pdfrwt>
<pdfrwt beam="2">  1       -2 0.31125660E+00 0.30296286E+04</pdfrwt>
<totfact> 0.48046177E-01</totfact>
</mgrwt>
</event>
<event>
 4    1  0.2058093E-008  0.2148486E+04  0.7816531E-02  0.8540181E-01
         -2   -1    0    0    0  501 -0.00000000000E+00  0.00000000000E+00  0.60202558440E+03  0.60202558440E+03  0.00000000000E+00 0. -1.
          2   -1    0    0  501    0  0.00000000000E+00 -0.00000000000E+00 -0.19168588317E+04  0.19168588317E+04  0.00000000000E+00 0.  1.
    2000013    1    1    2    0    0  0.62456416922E+02  0.48141427814E+03 -0.50987326500E+03  0.11824260051E+04  0.95000000000E+03 0.  0.
   -2000013    1    1    2    0    0 -0.62456416922E+02 -0.48141427814E+03 -0.80495998232E+03  0.13364584110E+04  0.95000000000E+03 0.  0.
<mgrwt>
<rscale>  0 0.21484860E+04</rscale>
<asrwt>0</asrwt>
<pdfrwt beam="2">  1        2 0.29490136E+00 0.21484860E+04</pdfrwt>
<pdfrwt beam="1">  1       -2 0.92619321E-01 0.21484860E+04</pdfrwt>
<totfact> 0.67448872E+00</totfact>
</mgrwt>
</event>
<event>
 4    1  0.2058093E-008  0.2197047E+04  0.7816531E-02  0.8519658E-01
          2   -1    0    0  501    0  0.00000000000E+00  0.00000000000E+00  0.24040130402E+04  0.24040130402E+04  0.00000000000E+00 0.  1.
         -2   -1    0    0    0  501 -0.00000000000E+00 -0.00000000000E+00 -0.50197467504E+03  0.50197467504E+03  0.00000000000E+00 0. -1.
    2000013    1    1    2    0    0 -0.32179964514E+03  0.43910182363E+03  0.10684939422E+04  0.15298838935E+04  0.95000000000E+03 0.  0.
   -2000013    1    1    2    0    0  0.32179964514E+03 -0.43910182363E+03  0.83354442298E+03  0.13761038217E+04  0.95000000000E+03 0.  0.
<mgrwt>
<rscale>  0 0.21970468E+04</rscale>
<asrwt>0</asrwt>
<pdfrwt beam="1">  1        2 0.36984815E+00 0.21970468E+04</pdfrwt>
<pdfrwt beam="2">  1       -2 0.77226874E-01 0.21970468E+04</pdfrwt>
<totfact> 0.54090213E+00</totfact>
</mgrwt>
</event>
<event>
 4    1  0.2058093E-008  0.2221851E+04  0.7816531E-02  0.8509388E-01
          1   -1    0    0  501    0  0.00000000000E+00  0.00000000000E+00  0.27992501133E+04  0.27992501133E+04  0.00000000000E+00 0.  1.
         -1   -1    0    0    0  501 -0.00000000000E+00 -0.00000000000E+00 -0.44088805997E+03  0.44088805997E+03  0.00000000000E+00 0. -1.
    2000013    1    1    2    0    0  0.26143523001E+03  0.31060827872E+03  0.17748235291E+04  0.20536125344E+04  0.95000000000E+03 0.  0.
   -2000013    1    1    2    0    0 -0.26143523001E+03 -0.31060827872E+03  0.58353852429E+03  0.11865256388E+04  0.95000000000E+03 0.  0.
<mgrwt>
<rscale>  0 0.22218514E+04</rscale>
<asrwt>0</asrwt>
<pdfrwt beam="1">  1        1 0.43065385E+00 0.22218514E+04</pdfrwt>
<pdfrwt beam="2">  1       -1 0.67828934E-01 0.22218514E+04</pdfrwt>
<totfact> 0.16717770E+00</totfact>
</mgrwt>
</event>
<event>
 4    1  0.2058093E-008  0.2476547E+04  0.7816531E-02  0.8411389E-01
         -2   -1    0    0    0  501 -0.00000000000E+00  0.00000000000E+00  0.46014427238E+03  0.46014427238E+03  0.00000000000E+00 0. -1.
          2   -1    0    0  501    0  0.00000000000E+00 -0.00000000000E+00 -0.33322625191E+04  0.33322625191E+04  0.00000000000E+00 0.  1.
    2000013    1    1    2    0    0  0.16281606836E+03 -0.53979478363E+03 -0.22926919312E+04  0.25449604657E+04  0.95000000000E+03 0.  0.
   -2000013    1    1    2    0    0 -0.16281606836E+03  0.53979478363E+03 -0.57942631551E+03  0.12474463258E+04  0.95000000000E+03 0.  0.
<mgrwt>
<rscale>  0 0.24765472E+04</rscale>
<asrwt>0</asrwt>
<pdfrwt beam="2">  1        2 0.51265577E+00 0.24765472E+04</pdfrwt>
<pdfrwt beam="1">  1       -2 0.70791427E-01 0.24765472E+04</pdfrwt>
<totfact> 0.17192054E+00</totfact>
</mgrwt>
</event>
<event>
 4    1  0.2058093E-008  0.2265331E+04  0.7816531E-02  0.8491717E-01
          2   -1    0    0  501    0  0.00000000000E+00  0.00000000000E+00  0.17115373454E+04  0.17115373454E+04  0.00000000000E+00 0.  1.
         -2   -1    0    0    0  501 -0.00000000000E+00 -0.00000000000E+00 -0.74957813927E+03  0.74957813927E+03  0.00000000000E+00 0. -1.
    2000013    1    1    2    0    0 -0.51381372621E+03 -0.10193331542E+03  0.83475455947E+03  0.13688353154E+04  0.95000000000E+03 0.  0.
   -2000013    1    1    2    0    0  0.51381372621E+03  0.10193331542E+03  0.12720464662E+03  0.10922801693E+04  0.95000000000E+03 0.  0.
<mgrwt>
<rscale>  0 0.22653309E+04</rscale>
<asrwt>0</asrwt>
<pdfrwt beam="1">  1        2 0.26331344E+00 0.22653309E+04</pdfrwt>
<pdfrwt beam="2">  1       -2 0.11531971E+00 0.22653309E+04</pdfrwt>
<totfact> 0.51457355E+00</totfact>
</mgrwt>
</event>
<event>
 4    1  0.2058093E-008  0.2141700E+04  0.7816531E-02  0.8543094E-01
          2   -1    0    0  501    0  0.00000000000E+00  0.00000000000E+00  0.19856511217E+04  0.19856511217E+04  0.00000000000E+00 0.  1.
         -2   -1    0    0    0  501 -0.00000000000E+00 -0.00000000000E+00 -0.57750289495E+03  0.57750289495E+03  0.00000000000E+00 0. -1.
    2000013    1    1    2    0    0 -0.22561082552E+03 -0.32227230832E+03  0.34611815686E+03  0.10849227916E+04  0.95000000000E+03 0.  0.
   -2000013    1    1    2    0    0  0.22561082552E+03  0.32227230832E+03  0.10620300699E+04  0.14782312251E+04  0.95000000000E+03 0.  0.
<mgrwt>
<rscale>  0 0.21416996E+04</rscale>
<asrwt>0</asrwt>
<pdfrwt beam="1">  1        2 0.30548478E+00 0.21416996E+04</pdfrwt>
<pdfrwt beam="2">  1       -2 0.88846600E-01 0.21416996E+04</pdfrwt>
<totfact> 0.68039072E+00</totfact>
</mgrwt>
</event>
<event>
 4    1  0.2058093E-008  0.3056758E+04  0.7816531E-02  0.8227706E-01
          2   -1    0    0  501    0  0.00000000000E+00  0.00000000000E+00  0.31644117163E+04  0.31644117163E+04  0.00000000000E+00 0.  1.
         -2   -1    0    0    0  501 -0.00000000000E+00 -0.00000000000E+00 -0.73819179591E+03  0.73819179591E+03  0.00000000000E+00 0. -1.
    2000013    1    1    2    0    0  0.41379281901E+03  0.10727059663E+04  0.16394636919E+04  0.22163627375E+04  0.95000000000E+03 0.  0.
   -2000013    1    1    2    0    0 -0.41379281901E+03 -0.10727059663E+04  0.78675622847E+03  0.16862407747E+04  0.95000000000E+03 0.  0.
<mgrwt>
<rscale>  0 0.30567583E+04</rscale>
<asrwt>0</asrwt>
<pdfrwt beam="1">  1        2 0.48683256E+00 0.30567583E+04</pdfrwt>
<pdfrwt beam="2">  1       -2 0.11356797E+00 0.30567583E+04</pdfrwt>
<totfact> 0.70797672E-01</totfact>
</mgrwt>
</event>
<event>
 4    1  0.2058093E-008  0.2321161E+04  0.7816531E-02  0.8469624E-01
         -2   -1    0    0    0  501 -0.00000000000E+00  0.00000000000E+00  0.10035155453E+04  0.10035155453E+04  0.00000000000E+00 0. -1.
          2   -1    0    0  501    0  0.00000000000E+00 -0.00000000000E+00 -0.13422280242E+04  0.13422280242E+04  0.00000000000E+00 0.  1.
    2000013    1    1    2    0    0  0.44720316286E+03 -0.26119581261E+03 -0.59360312673E+03  0.12341307036E+04  0.95000000000E+03 0.  0.
   -2000013    1    1    2    0    0 -0.44720316286E+03  0.26119581261E+03  0.25489064786E+03  0.11116128660E+04  0.95000000000E+03 0.  0.
<mgrwt>
<rscale>  0 0.23211606E+04</rscale>
<asrwt>0</asrwt>
<pdfrwt beam="2">  1        2 0.20649662E+00 0.23211606E+04</pdfrwt>
<pdfrwt beam="1">  1       -2 0.15438701E+00 0.23211606E+04</pdfrwt>
<totfact> 0.39235935E+00</totfact>
</mgrwt>
</event>
<event>
 4    1  0.2058093E-008  0.2533478E+04  0.7816531E-02  0.8391155E-01
          2   -1    0    0  501    0  0.00000000000E+00  0.00000000000E+00  0.11354471177E+04  0.11354471177E+04  0.00000000000E+00 0.  1.
         -2   -1    0    0    0  501 -0.00000000000E+00 -0.00000000000E+00 -0.14132124530E+04  0.14132124530E+04  0.00000000000E+00 0. -1.
    2000013    1    1    2    0    0  0.31023768510E+03  0.67630715706E+03 -0.52653473558E+03  0.13165779961E+04  0.95000000000E+03 0.  0.
   -2000013    1    1    2    0    0 -0.31023768510E+03 -0.67630715706E+03  0.24876940029E+03  0.12320815746E+04  0.95000000000E+03 0.  0.
<mgrwt>
<rscale>  0 0.25334782E+04</rscale>
<asrwt>0</asrwt>
<pdfrwt beam="1">  1        2 0.17468417E+00 0.25334782E+04</pdfrwt>
<pdfrwt beam="2">  1       -2 0.21741730E+00 0.25334782E+04</pdfrwt>
<totfact> 0.18914893E+00</totfact>
</mgrwt>
</event>
<event>
 4    1  0.2058093E-008  0.2196322E+04  0.7816531E-02  0.8519960E-01
         -2   -1    0    0    0  501 -0.00000000000E+00  0.00000000000E+00  0.12939104845E+04  0.12939104845E+04  0.00000000000E+00 0. -1.
          2   -1    0    0  501    0  0.00000000000E+00 -0.00000000000E+00 -0.93202593319E+03  0.93202593319E+03  0.00000000000E+00 0.  1.
    2000013    1    1    2    0    0 -0.37298322921E+03  0.38280778417E+03  0.45727339124E+02  0.10909854621E+04  0.95000000000E+03 0.  0.
   -2000013    1    1    2    0    0  0.37298322921E+03 -0.38280778417E+03  0.31615721220E+03  0.11349509556E+04  0.95000000000E+03 0.  0.
<mgrwt>
<rscale>  0 0.21963225E+04</rscale>
<asrwt>0</asrwt>
<pdfrwt beam="2">  1        2 0.14338860E+00 0.21963225E+04</pdfrwt>
<pdfrwt beam="1">  1       -2 0.19906315E+00 0.21963225E+04</pdfrwt>
<totfact> 0.34407549E+00</totfact>
</mgrwt>
</event>
<event>
 4    1  0.2058093E-008  0.2005521E+04  0.7816531E-02  0.8604044E-01
         -2   -1    0    0    0  501 -0.00000000000E+00  0.00000000000E+00  0.47701975942E+03  0.47701975942E+03  0.00000000000E+00 0. -1.
          2   -1    0    0  501    0  0.00000000000E+00 -0.00000000000E+00 -0.21079396871E+04  0.21079396871E+04  0.00000000000E+00 0.  1.
    2000013    1    1    2    0    0  0.60313312232E+02  0.10396958542E+03 -0.11990771084E+04  0.15345140215E+04  0.95000000000E+03 0.  0.
   -2000013    1    1    2    0    0 -0.60313312232E+02 -0.10396958542E+03 -0.43184281926E+03  0.10504454250E+04  0.95000000000E+03 0.  0.
<mgrwt>
<rscale>  0 0.20055213E+04</rscale>
<asrwt>0</asrwt>
<pdfrwt beam="2">  1        2 0.32429841E+00 0.20055213E+04</pdfrwt>
<pdfrwt beam="1">  1       -2 0.73387657E-01 0.20055213E+04</pdfrwt>
<totfact> 0.90492355E+00</totfact>
</mgrwt>
</event>
<event>
 4    1  0.2058093E-008  0.2362915E+04  0.7816531E-02  0.8453520E-01
          2   -1    0    0  501    0  0.00000000000E+00  0.00000000000E+00  0.10520025576E+04  0.10520025576E+04  0.00000000000E+00 0. -1.
         -2   -1    0    0    0  501 -0.00000000000E+00 -0.00000000000E+00 -0.13268427378E+04  0.13268427378E+04  0.00000000000E+00 0.  1.
    2000013    1    1    2    0    0  0.66022177849E+03 -0.22688939332E+03 -0.21520911788E+03  0.11984100125E+04  0.95000000000E+03 0.  0.
   -2000013    1    1    2    0    0 -0.66022177849E+03  0.22688939332E+03 -0.59631062391E+02  0.11804352829E+04  0.95000000000E+03 0.  0.
<mgrwt>
<rscale>  0 0.23629151E+04</rscale>
<asrwt>0</asrwt>
<pdfrwt beam="1">  1        2 0.16184655E+00 0.23629151E+04</pdfrwt>
<pdfrwt beam="2">  1       -2 0.20412965E+00 0.23629151E+04</pdfrwt>
<totfact> 0.26306523E+00</totfact>
</mgrwt>
</event>
<event>
 4    1  0.2058093E-008  0.3223657E+04  0.7816531E-02  0.8182597E-01
         -2   -1    0    0    0  501 -0.00000000000E+00  0.00000000000E+00  0.87885503490E+03  0.87885503490E+03  0.00000000000E+00 0. -1.
          2   -1    0    0  501    0  0.00000000000E+00 -0.00000000000E+00 -0.29561089878E+04  0.29561089878E+04  0.00000000000E+00 0.  1.
    2000013    1    1    2    0    0  0.11548528410E+03  0.87396710356E+03 -0.21786489976E+04  0.25349885214E+04  0.95000000000E+03 0.  0.
   -2000013    1    1    2    0    0 -0.11548528410E+03 -0.87396710356E+03  0.10139504467E+03  0.12999755013E+04  0.95000000000E+03 0.  0.
<mgrwt>
<rscale>  0 0.32236571E+04</rscale>
<asrwt>0</asrwt>
<pdfrwt beam="2">  1        2 0.45478600E+00 0.32236571E+04</pdfrwt>
<pdfrwt beam="1">  1       -2 0.13520847E+00 0.32236571E+04</pdfrwt>
<totfact> 0.61208832E-01</totfact>
</mgrwt>
</event>
<event>
 4    1  0.2058093E-008  0.2746160E+04  0.7816531E-02  0.8320181E-01
          2   -1    0    0  501    0  0.00000000000E+00  0.00000000000E+00  0.14538045592E+04  0.14538045592E+04  0.00000000000E+00 0.  1.
         -2   -1    0    0    0  501 -0.00000000000E+00 -0.00000000000E+00 -0.12968381331E+04  0.12968381331E+04  0.00000000000E+00 0. -1.
    2000013    1    1    2    0    0  0.63525036671E+02  0.83208708669E+03 -0.45759577630E+03  0.13447298036E+04  0.95000000000E+03 0.  0.
   -2000013    1    1    2    0    0 -0.63525036671E+02 -0.83208708669E+03  0.61456220236E+03  0.14059128887E+04  0.95000000000E+03 0.  0.
<mgrwt>
<rscale>  0 0.27461604E+04</rscale>
<asrwt>0</asrwt>
<pdfrwt beam="1">  1        2 0.22366224E+00 0.27461604E+04</pdfrwt>
<pdfrwt beam="2">  1       -2 0.19951356E+00 0.27461604E+04</pdfrwt>
<totfact> 0.15789959E+00</totfact>
</mgrwt>
</event>
<event>
 4    1  0.2058093E-008  0.2839098E+04  0.7816531E-02  0.8291232E-01
          2   -1    0    0  501    0  0.00000000000E+00  0.00000000000E+00  0.39858523968E+04  0.39858523968E+04  0.00000000000E+00 0.  1.
         -2   -1    0    0    0  501 -0.00000000000E+00 -0.00000000000E+00 -0.50556792472E+03  0.50556792472E+03  0.00000000000E+00 0. -1.
    2000013    1    1    2    0    0  0.58935190959E+03 -0.87443723159E+03  0.17000276986E+04  0.22146264518E+04  0.95000000000E+03 0.  0.
   -2000013    1    1    2    0    0 -0.58935190959E+03  0.87443723159E+03  0.17802567735E+04  0.22767938696E+04  0.95000000000E+03 0.  0.
<mgrwt>
<rscale>  0 0.28390978E+04</rscale>
<asrwt>0</asrwt>
<pdfrwt beam="1">  1        2 0.61320804E+00 0.28390978E+04</pdfrwt>
<pdfrwt beam="2">  1       -2 0.77779683E-01 0.28390978E+04</pdfrwt>
<totfact> 0.44878619E-01</totfact>
</mgrwt>
</event>
<event>
 4    1  0.2058093E-008  0.2390954E+04  0.7816531E-02  0.8442898E-01
         -2   -1    0    0    0  501 -0.00000000000E+00  0.00000000000E+00  0.72517872049E+03  0.72517872049E+03  0.00000000000E+00 0. -1.
          2   -1    0    0  501    0  0.00000000000E+00 -0.00000000000E+00 -0.19707760700E+04  0.19707760700E+04  0.00000000000E+00 0.  1.
    2000013    1    1    2    0    0  0.40448240469E+03  0.57087025764E+03 -0.84017606317E+03  0.14484110894E+04  0.95000000000E+03 0.  0.
   -2000013    1    1    2    0    0 -0.40448240469E+03 -0.57087025764E+03 -0.40542128636E+03  0.12475437011E+04  0.95000000000E+03 0.  0.
<mgrwt>
<rscale>  0 0.23909537E+04</rscale>
<asrwt>0</asrwt>
<pdfrwt beam="2">  1        2 0.30319632E+00 0.23909537E+04</pdfrwt>
<pdfrwt beam="1">  1       -2 0.11156596E+00 0.23909537E+04</pdfrwt>
<totfact> 0.39625781E+00</totfact>
</mgrwt>
</event>
<event>
 4    1  0.2058093E-008  0.2184245E+04  0.7816531E-02  0.8525014E-01
          1   -1    0    0  501    0  0.00000000000E+00  0.00000000000E+00  0.14204937879E+04  0.14204937879E+04  0.00000000000E+00 0.  1.
         -1   -1    0    0    0  501 -0.00000000000E+00 -0.00000000000E+00 -0.83966007471E+03  0.83966007471E+03  0.00000000000E+00 0. -1.
    2000013    1    1    2    0    0  0.40761066582E+03 -0.25009396734E+03  0.54710744477E+03  0.11960434789E+04  0.95000000000E+03 0.  0.
   -2000013    1    1    2    0    0 -0.40761066582E+03  0.25009396734E+03  0.33726268395E+02  0.10641103836E+04  0.95000000000E+03 0.  0.
<mgrwt>
<rscale>  0 0.21842453E+04</rscale>
<asrwt>0</asrwt>
<pdfrwt beam="1">  1        1 0.21853750E+00 0.21842453E+04</pdfrwt>
<pdfrwt beam="2">  1       -1 0.12917847E+00 0.21842453E+04</pdfrwt>
<totfact> 0.34969885E+00</totfact>
</mgrwt>
</event>
<event>
 4    1  0.2058093E-008  0.2081206E+04  0.7816531E-02  0.8569568E-01
         -2   -1    0    0    0  501 -0.00000000000E+00  0.00000000000E+00  0.28370110200E+03  0.28370110200E+03  0.00000000000E+00 0. -1.
          2   -1    0    0  501    0  0.00000000000E+00 -0.00000000000E+00 -0.38168862194E+04  0.38168862194E+04  0.00000000000E+00 0.  1.
    2000013    1    1    2    0    0  0.38486318297E+03 -0.12421452132E+03 -0.20220167128E+04  0.22703745294E+04  0.95000000000E+03 0.  0.
   -2000013    1    1    2    0    0 -0.38486318297E+03  0.12421452132E+03 -0.15111684046E+04  0.18302127920E+04  0.95000000000E+03 0.  0.
<mgrwt>
<rscale>  0 0.20812062E+04</rscale>
<asrwt>0</asrwt>
<pdfrwt beam="2">  1        2 0.58721324E+00 0.20812062E+04</pdfrwt>
<pdfrwt beam="1">  1       -2 0.43646325E-01 0.20812062E+04</pdfrwt>
<totfact> 0.22065198E+00</totfact>
</mgrwt>
</event>
<event>
 4    1  0.2058093E-008  0.4023159E+04  0.7816531E-02  0.7999891E-01
          2   -1    0    0  501    0  0.00000000000E+00  0.00000000000E+00  0.22742809157E+04  0.22742809157E+04  0.00000000000E+00 0.  1.
         -2   -1    0    0    0  501 -0.00000000000E+00 -0.00000000000E+00 -0.17792221984E+04  0.17792221984E+04  0.00000000000E+00 0. -1.
    2000013    1    1    2    0    0  0.12332822142E+04 -0.86145242506E+03  0.11931528217E+04  0.21422415729E+04  0.95000000000E+03 0.  0.
   -2000013    1    1    2    0    0 -0.12332822142E+04  0.86145242506E+03 -0.69809410432E+03  0.19112615412E+04  0.95000000000E+03 0.  0.
<mgrwt>
<rscale>  0 0.40231585E+04</rscale>
<asrwt>0</asrwt>
<pdfrwt beam="1">  1        2 0.34988937E+00 0.40231585E+04</pdfrwt>
<pdfrwt beam="2">  1       -2 0.27372649E+00 0.40231585E+04</pdfrwt>
<totfact> 0.16980426E-01</totfact>
</mgrwt>
</event>
<event>
 4    1  0.2058093E-008  0.2746617E+04  0.7816531E-02  0.8320036E-01
         -2   -1    0    0    0  501 -0.00000000000E+00  0.00000000000E+00  0.23265294266E+04  0.23265294266E+04  0.00000000000E+00 0. -1.
          2   -1    0    0  501    0  0.00000000000E+00 -0.00000000000E+00 -0.81063924609E+03  0.81063924609E+03  0.00000000000E+00 0.  1.
    2000013    1    1    2    0    0 -0.63698410591E+03 -0.75954998253E+03  0.79047522740E+03  0.15843030052E+04  0.95000000000E+03 0.  0.
   -2000013    1    1    2    0    0  0.63698410591E+03  0.75954998253E+03  0.72541495315E+03  0.15528656675E+04  0.95000000000E+03 0.  0.
<mgrwt>
<rscale>  0 0.27466169E+04</rscale>
<asrwt>0</asrwt>
<pdfrwt beam="2">  1        2 0.12471373E+00 0.27466169E+04</pdfrwt>
<pdfrwt beam="1">  1       -2 0.35792760E+00 0.27466169E+04</pdfrwt>
<totfact> 0.40998831E-01</totfact>
</mgrwt>
</event>
<event>
 4    1  0.2058093E-008  0.2843006E+04  0.7816531E-02  0.8290040E-01
         -2   -1    0    0    0  501 -0.00000000000E+00  0.00000000000E+00  0.62352264818E+03  0.62352264818E+03  0.00000000000E+00 0. -1.
          2   -1    0    0  501    0  0.00000000000E+00 -0.00000000000E+00 -0.32407334098E+04  0.32407334098E+04  0.00000000000E+00 0.  1.
    2000013    1    1    2    0    0  0.91412519874E+03 -0.39077298115E+03 -0.17983799043E+04  0.22638459934E+04  0.95000000000E+03 0.  0.
   -2000013    1    1    2    0    0 -0.91412519874E+03  0.39077298115E+03 -0.81883085729E+03  0.16004100645E+04  0.95000000000E+03 0.  0.
<mgrwt>
<rscale>  0 0.28430059E+04</rscale>
<asrwt>0</asrwt>
<pdfrwt beam="2">  1        2 0.49857438E+00 0.28430059E+04</pdfrwt>
<pdfrwt beam="1">  1       -2 0.95926560E-01 0.28430059E+04</pdfrwt>
<totfact> 0.96285458E-01</totfact>
</mgrwt>
</event>
<event>
 4    1  0.2058093E-008  0.2259330E+04  0.7816531E-02  0.8494132E-01
         -2   -1    0    0    0  501 -0.00000000000E+00  0.00000000000E+00  0.10308831157E+04  0.10308831157E+04  0.00000000000E+00 0. -1.
          2   -1    0    0  501    0  0.00000000000E+00 -0.00000000000E+00 -0.12379120250E+04  0.12379120250E+04  0.00000000000E+00 0.  1.
    2000013    1    1    2    0    0  0.25008407724E+03  0.54625118658E+03  0.96973961751E+01  0.11240669215E+04  0.95000000000E+03 0.  0.
   -2000013    1    1    2    0    0 -0.25008407724E+03 -0.54625118658E+03 -0.21672630546E+03  0.11447282193E+04  0.95000000000E+03 0.  0.
<mgrwt>
<rscale>  0 0.22593296E+04</rscale>
<asrwt>0</asrwt>
<pdfrwt beam="2">  1        2 0.19044800E+00 0.22593296E+04</pdfrwt>
<pdfrwt beam="1">  1       -2 0.15859740E+00 0.22593296E+04</pdfrwt>
<totfact> 0.42202786E+00</totfact>
</mgrwt>
</event>
<event>
 4    1  0.2058093E-008  0.2345756E+04  0.7816531E-02  0.8460096E-01
          4   -1    0    0  501    0  0.00000000000E+00  0.00000000000E+00  0.95384756337E+03  0.95384756337E+03  0.00000000000E+00 0.  1.
         -4   -1    0    0    0  501 -0.00000000000E+00 -0.00000000000E+00 -0.14422041453E+04  0.14422041453E+04  0.00000000000E+00 0. -1.
    2000013    1    1    2    0    0  0.46732033128E+03 -0.14074010367E+03 -0.73928423297E+03  0.12989369677E+04  0.95000000000E+03 0.  0.
   -2000013    1    1    2    0    0 -0.46732033128E+03  0.14074010367E+03  0.25092765108E+03  0.10971147410E+04  0.95000000000E+03 0.  0.
<mgrwt>
<rscale>  0 0.23457561E+04</rscale>
<asrwt>0</asrwt>
<pdfrwt beam="1">  1        4 0.14674578E+00 0.23457561E+04</pdfrwt>
<pdfrwt beam="2">  1       -4 0.22187756E+00 0.23457561E+04</pdfrwt>
<totfact> 0.54044232E-02</totfact>
</mgrwt>
</event>
<event>
 4    1  0.2058093E-008  0.2247416E+04  0.7816531E-02  0.8498948E-01
          2   -1    0    0  501    0  0.00000000000E+00  0.00000000000E+00  0.20061018845E+04  0.20061018845E+04  0.00000000000E+00 0.  1.
         -2   -1    0    0    0  501 -0.00000000000E+00 -0.00000000000E+00 -0.62943947298E+03  0.62943947298E+03  0.00000000000E+00 0. -1.
    2000013    1    1    2    0    0 -0.59963702489E+03 -0.23804173335E+02  0.69936408675E+03  0.13235336513E+04  0.95000000000E+03 0.  0.
   -2000013    1    1    2    0    0  0.59963702489E+03  0.23804173335E+02  0.67729832473E+03  0.13120077061E+04  0.95000000000E+03 0.  0.
<mgrwt>
<rscale>  0 0.22474160E+04</rscale>
<asrwt>0</asrwt>
<pdfrwt beam="1">  1        2 0.30863106E+00 0.22474160E+04</pdfrwt>
<pdfrwt beam="2">  1       -2 0.96836843E-01 0.22474160E+04</pdfrwt>
<totfact> 0.53780863E+00</totfact>
</mgrwt>
</event>
<event>
 4    1  0.2058093E-008  0.2111136E+04  0.7816531E-02  0.8556354E-01
          2   -1    0    0  501    0  0.00000000000E+00  0.00000000000E+00  0.13224329212E+04  0.13224329212E+04  0.00000000000E+00 0.  1.
         -2   -1    0    0    0  501 -0.00000000000E+00 -0.00000000000E+00 -0.84255629961E+03  0.84255629961E+03  0.00000000000E+00 0. -1.
    2000013    1    1    2    0    0  0.28423853860E+03 -0.33673595514E+03  0.37576130155E+03  0.11126002005E+04  0.95000000000E+03 0.  0.
   -2000013    1    1    2    0    0 -0.28423853860E+03  0.33673595514E+03  0.10411532005E+03  0.10523890204E+04  0.95000000000E+03 0.  0.
<mgrwt>
<rscale>  0 0.21111364E+04</rscale>
<asrwt>0</asrwt>
<pdfrwt beam="1">  1        2 0.20345122E+00 0.21111364E+04</pdfrwt>
<pdfrwt beam="2">  1       -2 0.12962405E+00 0.21111364E+04</pdfrwt>
<totfact> 0.64627888E+00</totfact>
</mgrwt>
</event>
<event>
 4    1  0.2058093E-008  0.2986734E+04  0.7816531E-02  0.8247529E-01
          2   -1    0    0  501    0  0.00000000000E+00  0.00000000000E+00  0.35042525251E+04  0.35042525251E+04  0.00000000000E+00 0.  1.
         -2   -1    0    0    0  501 -0.00000000000E+00 -0.00000000000E+00 -0.63641122296E+03  0.63641122296E+03  0.00000000000E+00 0. -1.
    2000013    1    1    2    0    0  0.76703433453E+03  0.85887853464E+03  0.13779211881E+04  0.20315464081E+04  0.95000000000E+03 0.  0.
   -2000013    1    1    2    0    0 -0.76703433453E+03 -0.85887853464E+03  0.14899201141E+04  0.21091173400E+04  0.95000000000E+03 0.  0.
<mgrwt>
<rscale>  0 0.29867344E+04</rscale>
<asrwt>0</asrwt>
<pdfrwt beam="1">  1        2 0.53911576E+00 0.29867344E+04</pdfrwt>
<pdfrwt beam="2">  1       -2 0.97909421E-01 0.29867344E+04</pdfrwt>
<totfact> 0.60032644E-01</totfact>
</mgrwt>
</event>
<event>
 4    1  0.2058093E-008  0.3630269E+04  0.7816531E-02  0.8083593E-01
          2   -1    0    0  501    0  0.00000000000E+00  0.00000000000E+00  0.20979689545E+04  0.20979689545E+04  0.00000000000E+00 0.  1.
         -2   -1    0    0    0  501 -0.00000000000E+00 -0.00000000000E+00 -0.15704297120E+04  0.15704297120E+04  0.00000000000E+00 0. -1.
    2000013    1    1    2    0    0 -0.14806390745E+04 -0.34147828259E+02 -0.18673202926E+03  0.17694143082E+04  0.95000000000E+03 0.  0.
   -2000013    1    1    2    0    0  0.14806390745E+04  0.34147828259E+02  0.71427127174E+03  0.18989843582E+04  0.95000000000E+03 0.  0.
<mgrwt>
<rscale>  0 0.36302687E+04</rscale>
<asrwt>0</asrwt>
<pdfrwt beam="1">  1        2 0.32276446E+00 0.36302687E+04</pdfrwt>
<pdfrwt beam="2">  1       -2 0.24160457E+00 0.36302687E+04</pdfrwt>
<totfact> 0.34679844E-01</totfact>
</mgrwt>
</event>
<event>
 4    1  0.2058093E-008  0.2039562E+04  0.7816531E-02  0.8588344E-01
         -2   -1    0    0    0  501 -0.00000000000E+00  0.00000000000E+00  0.31118293055E+03  0.31118293055E+03  0.00000000000E+00 0. -1.
          2   -1    0    0  501    0  0.00000000000E+00 -0.00000000000E+00 -0.33419344752E+04  0.33419344752E+04  0.00000000000E+00 0.  1.
    2000013    1    1    2    0    0  0.10281702861E+03 -0.11966057232E+03 -0.91444484310E+03  0.13280057850E+04  0.95000000000E+03 0.  0.
   -2000013    1    1    2    0    0 -0.10281702861E+03  0.11966057232E+03 -0.21163067016E+04  0.23251116208E+04  0.95000000000E+03 0.  0.
<mgrwt>
<rscale>  0 0.20395617E+04</rscale>
<asrwt>0</asrwt>
<pdfrwt beam="2">  1        2 0.51414376E+00 0.20395617E+04</pdfrwt>
<pdfrwt beam="1">  1       -2 0.47874297E-01 0.20395617E+04</pdfrwt>
<totfact> 0.40131413E+00</totfact>
</mgrwt>
</event>
<event>
 4    1  0.2058093E-008  0.2997329E+04  0.7816531E-02  0.8244494E-01
          2   -1    0    0  501    0  0.00000000000E+00  0.00000000000E+00  0.11045746256E+04  0.11045746256E+04  0.00000000000E+00 0.  1.
         -2   -1    0    0    0  501 -0.00000000000E+00 -0.00000000000E+00 -0.20333582641E+04  0.20333582641E+04  0.00000000000E+00 0. -1.
    2000013    1    1    2    0    0 -0.56451543040E+03 -0.36138186598E+03 -0.14543838666E+04  0.18619900525E+04  0.95000000000E+03 0.  0.
   -2000013    1    1    2    0    0  0.56451543040E+03  0.36138186598E+03  0.52560022799E+03  0.12759428372E+04  0.95000000000E+03 0.  0.
<mgrwt>
<rscale>  0 0.29973294E+04</rscale>
<asrwt>0</asrwt>
<pdfrwt beam="1">  1        2 0.16993456E+00 0.29973294E+04</pdfrwt>
<pdfrwt beam="2">  1       -2 0.31282435E+00 0.29973294E+04</pdfrwt>
<totfact> 0.49129641E-01</totfact>
</mgrwt>
</event>
<event>
 4    1  0.2058093E-008  0.2633452E+04  0.7816531E-02  0.8356926E-01
         -2   -1    0    0    0  501 -0.00000000000E+00  0.00000000000E+00  0.13299317923E+04  0.13299317923E+04  0.00000000000E+00 0. -1.
          2   -1    0    0  501    0  0.00000000000E+00 -0.00000000000E+00 -0.13036510330E+04  0.13036510330E+04  0.00000000000E+00 0.  1.
    2000013    1    1    2    0    0 -0.51787988133E+03  0.55755587249E+03 -0.48907864563E+03  0.13117797239E+04  0.95000000000E+03 0.  0.
   -2000013    1    1    2    0    0  0.51787988133E+03 -0.55755587249E+03  0.51535940497E+03  0.13218031013E+04  0.95000000000E+03 0.  0.
<mgrwt>
<rscale>  0 0.26334517E+04</rscale>
<asrwt>0</asrwt>
<pdfrwt beam="2">  1        2 0.20056170E+00 0.26334517E+04</pdfrwt>
<pdfrwt beam="1">  1       -2 0.20460489E+00 0.26334517E+04</pdfrwt>
<totfact> 0.18008046E+00</totfact>
</mgrwt>
</event>
<event>
 4    1  0.2058093E-008  0.2513432E+04  0.7816531E-02  0.8398216E-01
         -2   -1    0    0    0  501 -0.00000000000E+00  0.00000000000E+00  0.11797667801E+04  0.11797667801E+04  0.00000000000E+00 0. -1.
          2   -1    0    0  501    0  0.00000000000E+00 -0.00000000000E+00 -0.13386836805E+04  0.13386836805E+04  0.00000000000E+00 0.  1.
    2000013    1    1    2    0    0 -0.54893592524E+03 -0.45275457095E+03 -0.49322028240E+03  0.12853340416E+04  0.95000000000E+03 0.  0.
   -2000013    1    1    2    0    0  0.54893592524E+03  0.45275457095E+03  0.33430338203E+03  0.12331164190E+04  0.95000000000E+03 0.  0.
<mgrwt>
<rscale>  0 0.25134315E+04</rscale>
<asrwt>0</asrwt>
<pdfrwt beam="2">  1        2 0.20595133E+00 0.25134315E+04</pdfrwt>
<pdfrwt beam="1">  1       -2 0.18150258E+00 0.25134315E+04</pdfrwt>
<totfact> 0.24761194E+00</totfact>
</mgrwt>
</event>
<event>
 4    1  0.2058093E-008  0.2043365E+04  0.7816531E-02  0.8586610E-01
         -2   -1    0    0    0  501 -0.00000000000E+00  0.00000000000E+00  0.57522191875E+03  0.57522191875E+03  0.00000000000E+00 0. -1.
          2   -1    0    0  501    0  0.00000000000E+00 -0.00000000000E+00 -0.18146653791E+04  0.18146653791E+04  0.00000000000E+00 0.  1.
    2000013    1    1    2    0    0 -0.10639209328E+03  0.32081746077E+03 -0.42721167589E+03  0.10951040757E+04  0.95000000000E+03 0.  0.
   -2000013    1    1    2    0    0  0.10639209328E+03 -0.32081746077E+03 -0.81223178448E+03  0.12947832222E+04  0.95000000000E+03 0.  0.
<mgrwt>
<rscale>  0 0.20433652E+04</rscale>
<asrwt>0</asrwt>
<pdfrwt beam="2">  1        2 0.27917928E+00 0.20433652E+04</pdfrwt>
<pdfrwt beam="1">  1       -2 0.88495682E-01 0.20433652E+04</pdfrwt>
<totfact> 0.86134844E+00</totfact>
</mgrwt>
</event>
<event>
 4    1  0.2058093E-008  0.2408894E+04  0.7816531E-02  0.8436181E-01
         -2   -1    0    0    0  501 -0.00000000000E+00  0.00000000000E+00  0.89729537597E+03  0.89729537597E+03  0.00000000000E+00 0. -1.
          2   -1    0    0  501    0  0.00000000000E+00 -0.00000000000E+00 -0.16167386807E+04  0.16167386807E+04  0.00000000000E+00 0.  1.
    2000013    1    1    2    0    0 -0.71004886141E+03  0.15211467818E+03 -0.20890158144E+03  0.12138567179E+04  0.95000000000E+03 0.  0.
   -2000013    1    1    2    0    0  0.71004886141E+03 -0.15211467818E+03 -0.51054172325E+03  0.13001773387E+04  0.95000000000E+03 0.  0.
<mgrwt>
<rscale>  0 0.24088936E+04</rscale>
<asrwt>0</asrwt>
<pdfrwt beam="2">  1        2 0.24872903E+00 0.24088936E+04</pdfrwt>
<pdfrwt beam="1">  1       -2 0.13804544E+00 0.24088936E+04</pdfrwt>
<totfact> 0.36538152E+00</totfact>
</mgrwt>
</event>
<event>
 4    1  0.2058093E-008  0.3915896E+04  0.7816531E-02  0.8021731E-01
          2   -1    0    0  501    0  0.00000000000E+00  0.00000000000E+00  0.21713452083E+04  0.21713452083E+04  0.00000000000E+00 0.  1.
         -2   -1    0    0    0  501 -0.00000000000E+00 -0.00000000000E+00 -0.17655232724E+04  0.17655232724E+04  0.00000000000E+00 0. -1.
    2000013    1    1    2    0    0 -0.99468822732E+03 -0.22848720060E+03 -0.11790233003E+04  0.18259811097E+04  0.95000000000E+03 0.  0.
   -2000013    1    1    2    0    0  0.99468822732E+03  0.22848720060E+03  0.15848452361E+04  0.21108873710E+04  0.95000000000E+03 0.  0.
<mgrwt>
<rscale>  0 0.39158961E+04</rscale>
<asrwt>0</asrwt>
<pdfrwt beam="1">  1        2 0.33405311E+00 0.39158961E+04</pdfrwt>
<pdfrwt beam="2">  1       -2 0.27161897E+00 0.39158961E+04</pdfrwt>
<totfact> 0.20166570E-01</totfact>
</mgrwt>
</event>
<event>
 4    1  0.2058093E-008  0.2339442E+04  0.7816531E-02  0.8462530E-01
         -2   -1    0    0    0  501 -0.00000000000E+00  0.00000000000E+00  0.60395699529E+03  0.60395699529E+03  0.00000000000E+00 0. -1.
          2   -1    0    0  501    0  0.00000000000E+00 -0.00000000000E+00 -0.22654720760E+04  0.22654720760E+04  0.00000000000E+00 0.  1.
    2000013    1    1    2    0    0 -0.63265165388E+03  0.18894848936E+03 -0.61903010492E+03  0.13121158171E+04  0.95000000000E+03 0.  0.
   -2000013    1    1    2    0    0  0.63265165388E+03 -0.18894848936E+03 -0.10424849758E+04  0.15573132541E+04  0.95000000000E+03 0.  0.
<mgrwt>
<rscale>  0 0.23394424E+04</rscale>
<asrwt>0</asrwt>
<pdfrwt beam="2">  1        2 0.34853417E+00 0.23394424E+04</pdfrwt>
<pdfrwt beam="1">  1       -2 0.92916461E-01 0.23394424E+04</pdfrwt>
<totfact> 0.42059980E+00</totfact>
</mgrwt>
</event>
<event>
 4    1  0.2058093E-008  0.2964905E+04  0.7816531E-02  0.8253824E-01
          2   -1    0    0  501    0  0.00000000000E+00  0.00000000000E+00  0.22317577669E+04  0.22317577669E+04  0.00000000000E+00 0.  1.
         -2   -1    0    0    0  501 -0.00000000000E+00 -0.00000000000E+00 -0.98472409080E+03  0.98472409080E+03  0.00000000000E+00 0. -1.
    2000013    1    1    2    0    0  0.11345665831E+03 -0.91111314939E+03 -0.10597305445E+03  0.13254168675E+04  0.95000000000E+03 0.  0.
   -2000013    1    1    2    0    0 -0.11345665831E+03  0.91111314939E+03  0.13530067305E+04  0.18910649902E+04  0.95000000000E+03 0.  0.
<mgrwt>
<rscale>  0 0.29649052E+04</rscale>
<asrwt>0</asrwt>
<pdfrwt beam="1">  1        2 0.34334735E+00 0.29649052E+04</pdfrwt>
<pdfrwt beam="2">  1       -2 0.15149601E+00 0.29649052E+04</pdfrwt>
<totfact> 0.12413591E+00</totfact>
</mgrwt>
</event>
<event>
 4    1  0.2058093E-008  0.2855712E+04  0.7816531E-02  0.8286178E-01
         -2   -1    0    0    0  501 -0.00000000000E+00  0.00000000000E+00  0.75608737577E+03  0.75608737577E+03  0.00000000000E+00 0. -1.
          2   -1    0    0  501    0  0.00000000000E+00 -0.00000000000E+00 -0.26964771890E+04  0.26964771890E+04  0.00000000000E+00 0.  1.
    2000013    1    1    2    0    0 -0.10196665116E+04  0.20213632627E+03 -0.12555131831E+04  0.18866351641E+04  0.95000000000E+03 0.  0.
   -2000013    1    1    2    0    0  0.10196665116E+04 -0.20213632627E+03 -0.68487663007E+03  0.15659294006E+04  0.95000000000E+03 0.  0.
<mgrwt>
<rscale>  0 0.28557117E+04</rscale>
<asrwt>0</asrwt>
<pdfrwt beam="2">  1        2 0.41484264E+00 0.28557117E+04</pdfrwt>
<pdfrwt beam="1">  1       -2 0.11632114E+00 0.28557117E+04</pdfrwt>
<totfact> 0.13248668E+00</totfact>
</mgrwt>
</event>
<event>
 4    1  0.2058093E-008  0.2276409E+04  0.7816531E-02  0.8487281E-01
          1   -1    0    0  501    0  0.00000000000E+00  0.00000000000E+00  0.95465326944E+03  0.95465326944E+03  0.00000000000E+00 0.  1.
         -1   -1    0    0    0  501 -0.00000000000E+00 -0.00000000000E+00 -0.13570466652E+04  0.13570466652E+04  0.00000000000E+00 0. -1.
    2000013    1    1    2    0    0  0.49558310797E+03 -0.29305848069E+03  0.50687259742E+02  0.11120049857E+04  0.95000000000E+03 0.  0.
   -2000013    1    1    2    0    0 -0.49558310797E+03  0.29305848069E+03 -0.45308065550E+03  0.11996949489E+04  0.95000000000E+03 0.  0.
<mgrwt>
<rscale>  0 0.22764086E+04</rscale>
<asrwt>0</asrwt>
<pdfrwt beam="1">  1        1 0.14686973E+00 0.22764086E+04</pdfrwt>
<pdfrwt beam="2">  1       -1 0.20877641E+00 0.22764086E+04</pdfrwt>
<totfact> 0.19503783E+00</totfact>
</mgrwt>
</event>
<event>
 4    1  0.2058093E-008  0.2565829E+04  0.7816531E-02  0.8379902E-01
          2   -1    0    0  501    0  0.00000000000E+00  0.00000000000E+00  0.61226575437E+03  0.61226575437E+03  0.00000000000E+00 0.  1.
         -2   -1    0    0    0  501 -0.00000000000E+00 -0.00000000000E+00 -0.26881631030E+04  0.26881631030E+04  0.00000000000E+00 0. -1.
    2000013    1    1    2    0    0 -0.62600625283E+03 -0.22755193505E+02 -0.27591053366E+03  0.11709091553E+04  0.95000000000E+03 0.  0.
   -2000013    1    1    2    0    0  0.62600625283E+03  0.22755193505E+02 -0.17999868150E+04  0.21295197021E+04  0.95000000000E+03 0.  0.
<mgrwt>
<rscale>  0 0.25658295E+04</rscale>
<asrwt>0</asrwt>
<pdfrwt beam="1">  1        2 0.94194730E-01 0.25658295E+04</pdfrwt>
<pdfrwt beam="2">  1       -2 0.41356356E+00 0.25658295E+04</pdfrwt>
<totfact> 0.25951951E-01</totfact>
</mgrwt>
</event>
<event>
 4    1  0.2058093E-008  0.3246398E+04  0.7816531E-02  0.8176670E-01
         -1   -1    0    0    0  501 -0.00000000000E+00  0.00000000000E+00  0.15391010152E+04  0.15391010152E+04  0.00000000000E+00 0. -1.
          1   -1    0    0  501    0  0.00000000000E+00 -0.00000000000E+00 -0.17118925310E+04  0.17118925310E+04  0.00000000000E+00 0.  1.
    2000013    1    1    2    0    0  0.47226764353E+03 -0.42590941952E+03 -0.12403462317E+04  0.16868296699E+04  0.95000000000E+03 0.  0.
   -2000013    1    1    2    0    0 -0.47226764353E+03  0.42590941952E+03  0.10675547158E+04  0.15641638763E+04  0.95000000000E+03 0.  0.
<mgrwt>
<rscale>  0 0.32463983E+04</rscale>
<asrwt>0</asrwt>
<pdfrwt beam="2">  1        1 0.26336808E+00 0.32463983E+04</pdfrwt>
<pdfrwt beam="1">  1       -1 0.23678477E+00 0.32463983E+04</pdfrwt>
<totfact> 0.33184899E-01</totfact>
</mgrwt>
</event>
<event>
 4    1  0.2058093E-008  0.2669465E+04  0.7816531E-02  0.8344981E-01
         -1   -1    0    0    0  501 -0.00000000000E+00  0.00000000000E+00  0.23818642849E+04  0.23818642849E+04  0.00000000000E+00 0. -1.
          1   -1    0    0  501    0  0.00000000000E+00 -0.00000000000E+00 -0.74794812290E+03  0.74794812290E+03  0.00000000000E+00 0.  1.
    2000013    1    1    2    0    0 -0.72795249800E+03 -0.57035099195E+03  0.63609726992E+03  0.14704879565E+04  0.95000000000E+03 0.  0.
   -2000013    1    1    2    0    0  0.72795249800E+03  0.57035099195E+03  0.99781889210E+03  0.16593244513E+04  0.95000000000E+03 0.  0.
<mgrwt>
<rscale>  0 0.26694651E+04</rscale>
<asrwt>0</asrwt>
<pdfrwt beam="2">  1        1 0.11506894E+00 0.26694651E+04</pdfrwt>
<pdfrwt beam="1">  1       -1 0.36644065E+00 0.26694651E+04</pdfrwt>
<totfact> 0.25994644E-01</totfact>
</mgrwt>
</event>
<event>
 4    1  0.2058093E-008  0.2320232E+04  0.7816531E-02  0.8469986E-01
         -2   -1    0    0    0  501 -0.00000000000E+00  0.00000000000E+00  0.59587644220E+03  0.59587644220E+03  0.00000000000E+00 0. -1.
          2   -1    0    0  501    0  0.00000000000E+00 -0.00000000000E+00 -0.22586377570E+04  0.22586377570E+04  0.00000000000E+00 0.  1.
    2000013    1    1    2    0    0  0.59415762529E+03  0.18424830192E+03 -0.53921184261E+03  0.12570680696E+04  0.95000000000E+03 0.  0.
   -2000013    1    1    2    0    0 -0.59415762529E+03 -0.18424830192E+03 -0.11235494722E+04  0.15974461296E+04  0.95000000000E+03 0.  0.
<mgrwt>
<rscale>  0 0.23202319E+04</rscale>
<asrwt>0</asrwt>
<pdfrwt beam="2">  1        2 0.34748274E+00 0.23202319E+04</pdfrwt>
<pdfrwt beam="1">  1       -2 0.91673298E-01 0.23202319E+04</pdfrwt>
<totfact> 0.43853981E+00</totfact>
</mgrwt>
</event>
<event>
 4    1  0.2058093E-008  0.2785159E+04  0.7816531E-02  0.8307891E-01
          2   -1    0    0  501    0  0.00000000000E+00  0.00000000000E+00  0.29783853098E+04  0.29783853098E+04  0.00000000000E+00 0.  1.
         -2   -1    0    0    0  501 -0.00000000000E+00 -0.00000000000E+00 -0.65111719160E+03  0.65111719160E+03  0.00000000000E+00 0. -1.
    2000013    1    1    2    0    0 -0.90169440750E+03  0.46919671680E+03  0.12416007616E+04  0.18647441687E+04  0.95000000000E+03 0.  0.
   -2000013    1    1    2    0    0  0.90169440750E+03 -0.46919671680E+03  0.10856673566E+04  0.17647583327E+04  0.95000000000E+03 0.  0.
<mgrwt>
<rscale>  0 0.27851592E+04</rscale>
<asrwt>0</asrwt>
<pdfrwt beam="1">  1        2 0.45821312E+00 0.27851592E+04</pdfrwt>
<pdfrwt beam="2">  1       -2 0.10017188E+00 0.27851592E+04</pdfrwt>
<totfact> 0.12868830E+00</totfact>
</mgrwt>
</event>
<event>
 4    1  0.2058093E-008  0.2516326E+04  0.7816531E-02  0.8397192E-01
          2   -1    0    0  501    0  0.00000000000E+00  0.00000000000E+00  0.23461155241E+04  0.23461155241E+04  0.00000000000E+00 0.  1.
         -2   -1    0    0    0  501 -0.00000000000E+00 -0.00000000000E+00 -0.67472156156E+03  0.67472156156E+03  0.00000000000E+00 0. -1.
    2000013    1    1    2    0    0  0.80877108147E+03 -0.12363033617E+03  0.96206073289E+03  0.15803341343E+04  0.95000000000E+03 0.  0.
   -2000013    1    1    2    0    0 -0.80877108147E+03  0.12363033617E+03  0.70933322967E+03  0.14405029514E+04  0.95000000000E+03 0.  0.
<mgrwt>
<rscale>  0 0.25163265E+04</rscale>
<asrwt>0</asrwt>
<pdfrwt beam="1">  1        2 0.36094085E+00 0.25163265E+04</pdfrwt>
<pdfrwt beam="2">  1       -2 0.10380332E+00 0.25163265E+04</pdfrwt>
<totfact> 0.28716903E+00</totfact>
</mgrwt>
</event>
<event>
 4    1  0.2058093E-008  0.3585557E+04  0.7816531E-02  0.8093808E-01
          2   -1    0    0  501    0  0.00000000000E+00  0.00000000000E+00  0.27751339256E+04  0.27751339256E+04  0.00000000000E+00 0.  1.
         -2   -1    0    0    0  501 -0.00000000000E+00 -0.00000000000E+00 -0.11581623220E+04  0.11581623220E+04  0.00000000000E+00 0. -1.
    2000013    1    1    2    0    0 -0.12179160039E+04 -0.71191498863E+03  0.18656965555E+03  0.17109794213E+04  0.95000000000E+03 0.  0.
   -2000013    1    1    2    0    0  0.12179160039E+04  0.71191498863E+03  0.14304019480E+04  0.22223168263E+04  0.95000000000E+03 0.  0.
<mgrwt>
<rscale>  0 0.35855574E+04</rscale>
<asrwt>0</asrwt>
<pdfrwt beam="1">  1        2 0.42694368E+00 0.35855574E+04</pdfrwt>
<pdfrwt beam="2">  1       -2 0.17817882E+00 0.35855574E+04</pdfrwt>
<totfact> 0.36451567E-01</totfact>
</mgrwt>
</event>
<event>
 4    1  0.2058093E-008  0.2290247E+04  0.7816531E-02  0.8481776E-01
         -2   -1    0    0    0  501 -0.00000000000E+00  0.00000000000E+00  0.65720363236E+03  0.65720363236E+03  0.00000000000E+00 0. -1.
          2   -1    0    0  501    0  0.00000000000E+00 -0.00000000000E+00 -0.19952841111E+04  0.19952841111E+04  0.00000000000E+00 0.  1.
    2000013    1    1    2    0    0  0.63402691285E+03  0.29024696952E+02 -0.75856738868E+03  0.13714069573E+04  0.95000000000E+03 0.  0.
   -2000013    1    1    2    0    0 -0.63402691285E+03 -0.29024696952E+02 -0.57951309009E+03  0.12810807862E+04  0.95000000000E+03 0.  0.
<mgrwt>
<rscale>  0 0.22902471E+04</rscale>
<asrwt>0</asrwt>
<pdfrwt beam="2">  1        2 0.30696678E+00 0.22902471E+04</pdfrwt>
<pdfrwt beam="1">  1       -2 0.10110825E+00 0.22902471E+04</pdfrwt>
<totfact> 0.49069997E+00</totfact>
</mgrwt>
</event>
<event>
 4    1  0.2058093E-008  0.2359543E+04  0.7816531E-02  0.8454807E-01
         -1   -1    0    0    0  501 -0.00000000000E+00  0.00000000000E+00  0.50519729413E+03  0.50519729413E+03  0.00000000000E+00 0. -1.
          1   -1    0    0  501    0  0.00000000000E+00 -0.00000000000E+00 -0.27550840179E+04  0.27550840179E+04  0.00000000000E+00 0.  1.
    2000013    1    1    2    0    0 -0.73769660271E+02 -0.68590687109E+03 -0.96469223896E+03  0.15195529983E+04  0.95000000000E+03 0.  0.
   -2000013    1    1    2    0    0  0.73769660271E+02  0.68590687109E+03 -0.12851944848E+04  0.17407283138E+04  0.95000000000E+03 0.  0.
<mgrwt>
<rscale>  0 0.23595432E+04</rscale>
<asrwt>0</asrwt>
<pdfrwt beam="2">  1        1 0.42385908E+00 0.23595432E+04</pdfrwt>
<pdfrwt beam="1">  1       -1 0.77722661E-01 0.23595432E+04</pdfrwt>
<totfact> 0.13379987E+00</totfact>
</mgrwt>
</event>
<event>
 4    1  0.2058093E-008  0.2851545E+04  0.7816531E-02  0.8287442E-01
         -2   -1    0    0    0  501 -0.00000000000E+00  0.00000000000E+00  0.94665891185E+03  0.94665891185E+03  0.00000000000E+00 0. -1.
          2   -1    0    0  501    0  0.00000000000E+00 -0.00000000000E+00 -0.21473702681E+04  0.21473702681E+04  0.00000000000E+00 0.  1.
    2000013    1    1    2    0    0 -0.10618893838E+04 -0.81715636629E+01 -0.54448565973E+03  0.15253329051E+04  0.95000000000E+03 0.  0.
   -2000013    1    1    2    0    0  0.10618893838E+04  0.81715636629E+01 -0.65622569651E+03  0.15686962748E+04  0.95000000000E+03 0.  0.
<mgrwt>
<rscale>  0 0.28515450E+04</rscale>
<asrwt>0</asrwt>
<pdfrwt beam="2">  1        2 0.33036466E+00 0.28515450E+04</pdfrwt>
<pdfrwt beam="1">  1       -2 0.14563983E+00 0.28515450E+04</pdfrwt>
<totfact> 0.15514039E+00</totfact>
</mgrwt>
</event>
<event>
 4    1  0.2058093E-008  0.2896475E+04  0.7816531E-02  0.8273927E-01
          2   -1    0    0  501    0  0.00000000000E+00  0.00000000000E+00  0.67339142077E+03  0.67339142077E+03  0.00000000000E+00 0.  1.
         -2   -1    0    0    0  501 -0.00000000000E+00 -0.00000000000E+00 -0.31146705863E+04  0.31146705863E+04  0.00000000000E+00 0. -1.
    2000013    1    1    2    0    0 -0.88261919162E+03 -0.83828295495E+02 -0.20568749035E+04  0.24329566764E+04  0.95000000000E+03 0.  0.
   -2000013    1    1    2    0    0  0.88261919162E+03  0.83828295495E+02 -0.38440426203E+03  0.13551053307E+04  0.95000000000E+03 0.  0.
<mgrwt>
<rscale>  0 0.28964754E+04</rscale>
<asrwt>0</asrwt>
<pdfrwt beam="1">  1        2 0.10359868E+00 0.28964754E+04</pdfrwt>
<pdfrwt beam="2">  1       -2 0.47918010E+00 0.28964754E+04</pdfrwt>
<totfact> 0.82825395E-02</totfact>
</mgrwt>
</event>
<event>
 4    1  0.2058093E-008  0.3151280E+04  0.7816531E-02  0.8201804E-01
          2   -1    0    0  501    0  0.00000000000E+00  0.00000000000E+00  0.18371696681E+04  0.18371696681E+04  0.00000000000E+00 0. -1.
         -2   -1    0    0    0  501 -0.00000000000E+00 -0.00000000000E+00 -0.13513406285E+04  0.13513406285E+04  0.00000000000E+00 0.  1.
    2000013    1    1    2    0    0 -0.11768274214E+04 -0.38777900752E+03  0.28642282380E+02  0.15616067747E+04  0.95000000000E+03 0.  0.
   -2000013    1    1    2    0    0  0.11768274214E+04  0.38777900752E+03  0.45718675721E+03  0.16269035219E+04  0.95000000000E+03 0.  0.
<mgrwt>
<rscale>  0 0.31512804E+04</rscale>
<asrwt>0</asrwt>
<pdfrwt beam="1">  1        2 0.28264149E+00 0.31512804E+04</pdfrwt>
<pdfrwt beam="2">  1       -2 0.20789856E+00 0.31512804E+04</pdfrwt>
<totfact> 0.82192867E-01</totfact>
</mgrwt>
</event>
<event>
 4    1  0.2058093E-008  0.2925530E+04  0.7816531E-02  0.8265322E-01
         -2   -1    0    0    0  501 -0.00000000000E+00  0.00000000000E+00  0.62608124222E+03  0.62608124222E+03  0.00000000000E+00 0. -1.
          2   -1    0    0  501    0  0.00000000000E+00 -0.00000000000E+00 -0.34175770489E+04  0.34175770489E+04  0.00000000000E+00 0.  1.
    2000013    1    1    2    0    0  0.21570732631E+03 -0.10786333234E+04 -0.11677843201E+04  0.18644569492E+04  0.95000000000E+03 0.  0.
   -2000013    1    1    2    0    0 -0.21570732631E+03  0.10786333234E+04 -0.16237114866E+04  0.21792013419E+04  0.95000000000E+03 0.  0.
<mgrwt>
<rscale>  0 0.29255296E+04</rscale>
<asrwt>0</asrwt>
<pdfrwt beam="2">  1        2 0.52578109E+00 0.29255296E+04</pdfrwt>
<pdfrwt beam="1">  1       -2 0.96320190E-01 0.29255296E+04</pdfrwt>
<totfact> 0.72025329E-01</totfact>
</mgrwt>
</event>
<event>
 4    1  0.2058093E-008  0.3377516E+04  0.7816531E-02  0.8143447E-01
         -2   -1    0    0    0  501 -0.00000000000E+00  0.00000000000E+00  0.10189106409E+04  0.10189106409E+04  0.00000000000E+00 0. -1.
          2   -1    0    0  501    0  0.00000000000E+00 -0.00000000000E+00 -0.27989733243E+04  0.27989733243E+04  0.00000000000E+00 0.  1.
    2000013    1    1    2    0    0  0.12030167285E+04  0.43225340108E+03 -0.25529235673E+03  0.16129992062E+04  0.95000000000E+03 0.  0.
   -2000013    1    1    2    0    0 -0.12030167285E+04 -0.43225340108E+03 -0.15247703266E+04  0.22048847590E+04  0.95000000000E+03 0.  0.
<mgrwt>
<rscale>  0 0.33775161E+04</rscale>
<asrwt>0</asrwt>
<pdfrwt beam="2">  1        2 0.43061128E+00 0.33775161E+04</pdfrwt>
<pdfrwt beam="1">  1       -2 0.15675548E+00 0.33775161E+04</pdfrwt>
<totfact> 0.51158872E-01</totfact>
</mgrwt>
</event>
<event>
 4    1  0.2058093E-008  0.2871473E+04  0.7816531E-02  0.8281416E-01
         -2   -1    0    0    0  501 -0.00000000000E+00  0.00000000000E+00  0.57685721984E+03  0.57685721984E+03  0.00000000000E+00 0. -1.
          2   -1    0    0  501    0  0.00000000000E+00 -0.00000000000E+00 -0.35733948670E+04  0.35733948670E+04  0.00000000000E+00 0.  1.
    2000013    1    1    2    0    0 -0.38826732774E+03  0.90436920876E+03 -0.86792282658E+03  0.16200077828E+04  0.95000000000E+03 0.  0.
   -2000013    1    1    2    0    0  0.38826732774E+03 -0.90436920876E+03 -0.21286148206E+04  0.25302443040E+04  0.95000000000E+03 0.  0.
<mgrwt>
<rscale>  0 0.28714725E+04</rscale>
<asrwt>0</asrwt>
<pdfrwt beam="2">  1        2 0.54975307E+00 0.28714725E+04</pdfrwt>
<pdfrwt beam="1">  1       -2 0.88747263E-01 0.28714725E+04</pdfrwt>
<totfact> 0.68092933E-01</totfact>
</mgrwt>
</event>
<event>
 4    1  0.2058093E-008  0.2612456E+04  0.7816531E-02  0.8363982E-01
          1   -1    0    0  501    0  0.00000000000E+00  0.00000000000E+00  0.17565300587E+04  0.17565300587E+04  0.00000000000E+00 0.  1.
         -1   -1    0    0    0  501 -0.00000000000E+00 -0.00000000000E+00 -0.97136506467E+03  0.97136506467E+03  0.00000000000E+00 0. -1.
    2000013    1    1    2    0    0  0.89644270624E+03 -0.79366154403E+01  0.38453353698E+03  0.13616308444E+04  0.95000000000E+03 0.  0.
   -2000013    1    1    2    0    0 -0.89644270624E+03  0.79366154403E+01  0.40063145701E+03  0.13662642789E+04  0.95000000000E+03 0.  0.
<mgrwt>
<rscale>  0 0.26124563E+04</rscale>
<asrwt>0</asrwt>
<pdfrwt beam="1">  1        1 0.27023539E+00 0.26124563E+04</pdfrwt>
<pdfrwt beam="2">  1       -1 0.14944078E+00 0.26124563E+04</pdfrwt>
<totfact> 0.13522383E+00</totfact>
</mgrwt>
</event>
<event>
 4    1  0.2058093E-008  0.2215489E+04  0.7816531E-02  0.8512009E-01
          4   -1    0    0  501    0  0.00000000000E+00  0.00000000000E+00  0.10705889465E+04  0.10705889465E+04  0.00000000000E+00 0.  1.
         -4   -1    0    0    0  501 -0.00000000000E+00 -0.00000000000E+00 -0.11461898180E+04  0.11461898180E+04  0.00000000000E+00 0. -1.
    2000013    1    1    2    0    0  0.36484574397E+03 -0.32249729877E+03 -0.33374484127E+03  0.11184822501E+04  0.95000000000E+03 0.  0.
   -2000013    1    1    2    0    0 -0.36484574397E+03  0.32249729877E+03  0.25814396979E+03  0.10982965145E+04  0.95000000000E+03 0.  0.
<mgrwt>
<rscale>  0 0.22154892E+04</rscale>
<asrwt>0</asrwt>
<pdfrwt beam="1">  1        4 0.16470599E+00 0.22154892E+04</pdfrwt>
<pdfrwt beam="2">  1       -4 0.17633689E+00 0.22154892E+04</pdfrwt>
<totfact> 0.80365722E-02</totfact>
</mgrwt>
</event>
<event>
 4    1  0.2058093E-008  0.2674351E+04  0.7816531E-02  0.8343376E-01
          2   -1    0    0  501    0  0.00000000000E+00  0.00000000000E+00  0.15047608333E+04  0.15047608333E+04  0.00000000000E+00 0.  1.
         -2   -1    0    0    0  501 -0.00000000000E+00 -0.00000000000E+00 -0.11882537334E+04  0.11882537334E+04  0.00000000000E+00 0. -1.
    2000013    1    1    2    0    0 -0.82507511676E+03 -0.44361243925E+03  0.68205008198E+02  0.13359239753E+04  0.95000000000E+03 0.  0.
   -2000013    1    1    2    0    0  0.82507511676E+03  0.44361243925E+03  0.24830209168E+03  0.13570905914E+04  0.95000000000E+03 0.  0.
<mgrwt>
<rscale>  0 0.26743505E+04</rscale>
<asrwt>0</asrwt>
<pdfrwt beam="1">  1        2 0.23150167E+00 0.26743505E+04</pdfrwt>
<pdfrwt beam="2">  1       -2 0.18280827E+00 0.26743505E+04</pdfrwt>
<totfact> 0.19237566E+00</totfact>
</mgrwt>
</event>
<event>
 4    1  0.2058093E-008  0.2353335E+04  0.7816531E-02  0.8457184E-01
          2   -1    0    0  501    0  0.00000000000E+00  0.00000000000E+00  0.11195931145E+04  0.11195931145E+04  0.00000000000E+00 0.  1.
         -2   -1    0    0    0  501 -0.00000000000E+00 -0.00000000000E+00 -0.12366515808E+04  0.12366515808E+04  0.00000000000E+00 0. -1.
    2000013    1    1    2    0    0 -0.59336126383E+03  0.10731016284E+03 -0.40312553944E+03  0.11952419257E+04  0.95000000000E+03 0.  0.
   -2000013    1    1    2    0    0  0.59336126383E+03 -0.10731016284E+03  0.28606707316E+03  0.11610027695E+04  0.95000000000E+03 0.  0.
<mgrwt>
<rscale>  0 0.23533352E+04</rscale>
<asrwt>0</asrwt>
<pdfrwt beam="1">  1        2 0.17224510E+00 0.23533352E+04</pdfrwt>
<pdfrwt beam="2">  1       -2 0.19025409E+00 0.23533352E+04</pdfrwt>
<totfact> 0.29527953E+00</totfact>
</mgrwt>
</event>
<event>
 4    1  0.2058093E-008  0.2307670E+04  0.7816531E-02  0.8474903E-01
         -2   -1    0    0    0  501 -0.00000000000E+00  0.00000000000E+00  0.11991280873E+04  0.11991280873E+04  0.00000000000E+00 0. -1.
          2   -1    0    0  501    0  0.00000000000E+00 -0.00000000000E+00 -0.11102531033E+04  0.11102531033E+04  0.00000000000E+00 0.  1.
    2000013    1    1    2    0    0  0.30646740992E+03 -0.49304107478E+03  0.34768673321E+03  0.11663609387E+04  0.95000000000E+03 0.  0.
   -2000013    1    1    2    0    0 -0.30646740992E+03  0.49304107478E+03 -0.25881174917E+03  0.11430202519E+04  0.95000000000E+03 0.  0.
<mgrwt>
<rscale>  0 0.23076704E+04</rscale>
<asrwt>0</asrwt>
<pdfrwt beam="2">  1        2 0.17080817E+00 0.23076704E+04</pdfrwt>
<pdfrwt beam="1">  1       -2 0.18448124E+00 0.23076704E+04</pdfrwt>
<totfact> 0.32858962E+00</totfact>
</mgrwt>
</event>
<event>
 4    1  0.2058093E-008  0.2131244E+04  0.7816531E-02  0.8547604E-01
         -2   -1    0    0    0  501 -0.00000000000E+00  0.00000000000E+00  0.77198453743E+03  0.77198453743E+03  0.00000000000E+00 0. -1.
          2   -1    0    0  501    0  0.00000000000E+00 -0.00000000000E+00 -0.14709495867E+04  0.14709495867E+04  0.00000000000E+00 0.  1.
    2000013    1    1    2    0    0 -0.39998504708E+03 -0.19591318455E+03 -0.54546845334E+03  0.11825421123E+04  0.95000000000E+03 0.  0.
   -2000013    1    1    2    0    0  0.39998504708E+03  0.19591318455E+03 -0.15349659590E+03  0.10603920118E+04  0.95000000000E+03 0.  0.
<mgrwt>
<rscale>  0 0.21312441E+04</rscale>
<asrwt>0</asrwt>
<pdfrwt beam="2">  1        2 0.22629994E+00 0.21312441E+04</pdfrwt>
<pdfrwt beam="1">  1       -2 0.11876685E+00 0.21312441E+04</pdfrwt>
<totfact> 0.66034330E+00</totfact>
</mgrwt>
</event>
<event>
 4    1  0.2058093E-008  0.2497529E+04  0.7816531E-02  0.8403866E-01
          2   -1    0    0  501    0  0.00000000000E+00  0.00000000000E+00  0.14353672611E+04  0.14353672611E+04  0.00000000000E+00 0.  1.
         -2   -1    0    0    0  501 -0.00000000000E+00 -0.00000000000E+00 -0.10864205075E+04  0.10864205075E+04  0.00000000000E+00 0. -1.
    2000013    1    1    2    0    0 -0.70933694212E+02 -0.79202394026E+03  0.16173922705E+02  0.12389895507E+04  0.95000000000E+03 0.  0.
   -2000013    1    1    2    0    0  0.70933694212E+02  0.79202394026E+03  0.33277283085E+03  0.12827982179E+04  0.95000000000E+03 0.  0.
<mgrwt>
<rscale>  0 0.24975287E+04</rscale>
<asrwt>0</asrwt>
<pdfrwt beam="1">  1        2 0.22082573E+00 0.24975287E+04</pdfrwt>
<pdfrwt beam="2">  1       -2 0.16714162E+00 0.24975287E+04</pdfrwt>
<totfact> 0.27532254E+00</totfact>
</mgrwt>
</event>
<event>
 4    1  0.2058093E-008  0.2183862E+04  0.7816531E-02  0.8525175E-01
          2   -1    0    0  501    0  0.00000000000E+00  0.00000000000E+00  0.21058195601E+04  0.21058195601E+04  0.00000000000E+00 0.  1.
         -2   -1    0    0    0  501 -0.00000000000E+00 -0.00000000000E+00 -0.56619893203E+03  0.56619893203E+03  0.00000000000E+00 0. -1.
    2000013    1    1    2    0    0  0.23627645456E+03  0.30658330696E+03  0.12276014365E+04  0.15997891030E+04  0.95000000000E+03 0.  0.
   -2000013    1    1    2    0    0 -0.23627645456E+03 -0.30658330696E+03  0.31201919158E+03  0.10722293892E+04  0.95000000000E+03 0.  0.
<mgrwt>
<rscale>  0 0.21838615E+04</rscale>
<asrwt>0</asrwt>
<pdfrwt beam="1">  1        2 0.32397223E+00 0.21838615E+04</pdfrwt>
<pdfrwt beam="2">  1       -2 0.87107529E-01 0.21838615E+04</pdfrwt>
<totfact> 0.60806270E+00</totfact>
</mgrwt>
</event>
<event>
 4    1  0.2058093E-008  0.2003884E+04  0.7816531E-02  0.8604807E-01
          2   -1    0    0  501    0  0.00000000000E+00  0.00000000000E+00  0.21815086019E+04  0.21815086019E+04  0.00000000000E+00 0.  1.
         -2   -1    0    0    0  501 -0.00000000000E+00 -0.00000000000E+00 -0.46018057284E+03  0.46018057284E+03  0.00000000000E+00 0. -1.
    2000013    1    1    2    0    0 -0.23218425317E+03  0.99568386500E+02  0.11161680990E+04  0.14873313741E+04  0.95000000000E+03 0.  0.
   -2000013    1    1    2    0    0  0.23218425317E+03 -0.99568386500E+02  0.60515992998E+03  0.11543578006E+04  0.95000000000E+03 0.  0.
<mgrwt>
<rscale>  0 0.20038841E+04</rscale>
<asrwt>0</asrwt>
<pdfrwt beam="1">  1        2 0.33561670E+00 0.20038841E+04</pdfrwt>
<pdfrwt beam="2">  1       -2 0.70797013E-01 0.20038841E+04</pdfrwt>
<totfact> 0.89080090E+00</totfact>
</mgrwt>
</event>
<event>
 4    1  0.2058093E-008  0.1993476E+04  0.7816531E-02  0.8609677E-01
          1   -1    0    0  501    0  0.00000000000E+00  0.00000000000E+00  0.19867058293E+04  0.19867058293E+04  0.00000000000E+00 0.  1.
         -1   -1    0    0    0  501 -0.00000000000E+00 -0.00000000000E+00 -0.50006741788E+03  0.50006741788E+03  0.00000000000E+00 0. -1.
    2000013    1    1    2    0    0  0.25674594287E+03  0.31389754096E+02  0.54973008511E+03  0.11276555158E+04  0.95000000000E+03 0.  0.
   -2000013    1    1    2    0    0 -0.25674594287E+03 -0.31389754096E+02  0.93690832634E+03  0.13591177314E+04  0.95000000000E+03 0.  0.
<mgrwt>
<rscale>  0 0.19934762E+04</rscale>
<asrwt>0</asrwt>
<pdfrwt beam="1">  1        1 0.30564705E+00 0.19934762E+04</pdfrwt>
<pdfrwt beam="2">  1       -1 0.76933450E-01 0.19934762E+04</pdfrwt>
<totfact> 0.47856563E+00</totfact>
</mgrwt>
</event>
<event>
 4    1  0.2058093E-008  0.2238894E+04  0.7816531E-02  0.8502412E-01
         -2   -1    0    0    0  501 -0.00000000000E+00  0.00000000000E+00  0.63428148872E+03  0.63428148872E+03  0.00000000000E+00 0. -1.
          2   -1    0    0  501    0  0.00000000000E+00 -0.00000000000E+00 -0.19757189785E+04  0.19757189785E+04  0.00000000000E+00 0.  1.
    2000013    1    1    2    0    0 -0.14136560430E+03 -0.28868829615E+03 -0.12504829009E+04  0.16029761857E+04  0.95000000000E+03 0.  0.
   -2000013    1    1    2    0    0  0.14136560430E+03  0.28868829615E+03 -0.90954588914E+02  0.10070242816E+04  0.95000000000E+03 0.  0.
<mgrwt>
<rscale>  0 0.22388943E+04</rscale>
<asrwt>0</asrwt>
<pdfrwt beam="2">  1        2 0.30395676E+00 0.22388943E+04</pdfrwt>
<pdfrwt beam="1">  1       -2 0.97581770E-01 0.22388943E+04</pdfrwt>
<totfact> 0.54955672E+00</totfact>
</mgrwt>
</event>
<event>
 4    1  0.2058093E-008  0.2097376E+04  0.7816531E-02  0.8562400E-01
         -2   -1    0    0    0  501 -0.00000000000E+00  0.00000000000E+00  0.29348078726E+03  0.29348078726E+03  0.00000000000E+00 0. -1.
          2   -1    0    0  501    0  0.00000000000E+00 -0.00000000000E+00 -0.37472514494E+04  0.37472514494E+04  0.00000000000E+00 0.  1.
    2000013    1    1    2    0    0  0.10394187318E+03  0.93699608412E+02 -0.91483669250E+03  0.13262766316E+04  0.95000000000E+03 0.  0.
   -2000013    1    1    2    0    0 -0.10394187318E+03 -0.93699608412E+02 -0.25389339696E+04  0.27144556050E+04  0.95000000000E+03 0.  0.
<mgrwt>
<rscale>  0 0.20973758E+04</rscale>
<asrwt>0</asrwt>
<pdfrwt beam="2">  1        2 0.57650020E+00 0.20973758E+04</pdfrwt>
<pdfrwt beam="1">  1       -2 0.45150892E-01 0.20973758E+04</pdfrwt>
<totfact> 0.23231578E+00</totfact>
</mgrwt>
</event>
<event>
 4    1  0.2058093E-008  0.3893144E+04  0.7816531E-02  0.8026457E-01
         -2   -1    0    0    0  501 -0.00000000000E+00  0.00000000000E+00  0.10078419672E+04  0.10078419672E+04  0.00000000000E+00 0. -1.
          2   -1    0    0  501    0  0.00000000000E+00 -0.00000000000E+00 -0.37596600905E+04  0.37596600905E+04  0.00000000000E+00 0.  1.
    2000013    1    1    2    0    0 -0.13704523895E+04 -0.10030342170E+04 -0.13155947333E+04  0.23489373969E+04  0.95000000000E+03 0.  0.
   -2000013    1    1    2    0    0  0.13704523895E+04  0.10030342170E+04 -0.14362233901E+04  0.24185646608E+04  0.95000000000E+03 0.  0.
<mgrwt>
<rscale>  0 0.38931443E+04</rscale>
<asrwt>0</asrwt>
<pdfrwt beam="2">  1        2 0.57840923E+00 0.38931443E+04</pdfrwt>
<pdfrwt beam="1">  1       -2 0.15505261E+00 0.38931443E+04</pdfrwt>
<totfact> 0.11468713E-01</totfact>
</mgrwt>
</event>
<event>
 4    1  0.2058093E-008  0.3211039E+04  0.7816531E-02  0.8185908E-01
          2   -1    0    0  501    0  0.00000000000E+00  0.00000000000E+00  0.17883811258E+04  0.17883811258E+04  0.00000000000E+00 0.  1.
         -2   -1    0    0    0  501 -0.00000000000E+00 -0.00000000000E+00 -0.14413550992E+04  0.14413550992E+04  0.00000000000E+00 0. -1.
    2000013    1    1    2    0    0  0.49516881962E+03  0.10856339656E+04  0.67782964188E+03  0.16690555085E+04  0.95000000000E+03 0.  0.
   -2000013    1    1    2    0    0 -0.49516881962E+03 -0.10856339656E+04 -0.33080361527E+03  0.15606807165E+04  0.95000000000E+03 0.  0.
<mgrwt>
<rscale>  0 0.32110386E+04</rscale>
<asrwt>0</asrwt>
<pdfrwt beam="1">  1        2 0.27513556E+00 0.32110386E+04</pdfrwt>
<pdfrwt beam="2">  1       -2 0.22174694E+00 0.32110386E+04</pdfrwt>
<totfact> 0.70996746E-01</totfact>
</mgrwt>
</event>
<event>
 4    1  0.2058093E-008  0.2268753E+04  0.7816531E-02  0.8490344E-01
         -2   -1    0    0    0  501 -0.00000000000E+00  0.00000000000E+00  0.72433636239E+03  0.72433636239E+03  0.00000000000E+00 0. -1.
          2   -1    0    0  501    0  0.00000000000E+00 -0.00000000000E+00 -0.17765372833E+04  0.17765372833E+04  0.00000000000E+00 0.  1.
    2000013    1    1    2    0    0  0.61698199697E+03 -0.13576004927E+01 -0.59262317981E+03  0.12784251487E+04  0.95000000000E+03 0.  0.
   -2000013    1    1    2    0    0 -0.61698199697E+03  0.13576004927E+01 -0.45957774114E+03  0.12224484970E+04  0.95000000000E+03 0.  0.
<mgrwt>
<rscale>  0 0.22687534E+04</rscale>
<asrwt>0</asrwt>
<pdfrwt beam="2">  1        2 0.27331343E+00 0.22687534E+04</pdfrwt>
<pdfrwt beam="1">  1       -2 0.11143636E+00 0.22687534E+04</pdfrwt>
<totfact> 0.51456124E+00</totfact>
</mgrwt>
</event>
<event>
 4    1  0.2058093E-008  0.2225635E+04  0.7816531E-02  0.8507833E-01
         -2   -1    0    0    0  501 -0.00000000000E+00  0.00000000000E+00  0.87086970393E+03  0.87086970393E+03  0.00000000000E+00 0. -1.
          2   -1    0    0  501    0  0.00000000000E+00 -0.00000000000E+00 -0.14219840285E+04  0.14219840285E+04  0.00000000000E+00 0.  1.
    2000013    1    1    2    0    0 -0.19887267382E+03 -0.31387188292E+03 -0.73373297262E+03  0.12565548036E+04  0.95000000000E+03 0.  0.
   -2000013    1    1    2    0    0  0.19887267382E+03  0.31387188292E+03  0.18261864807E+03  0.10362989288E+04  0.95000000000E+03 0.  0.
<mgrwt>
<rscale>  0 0.22256350E+04</rscale>
<asrwt>0</asrwt>
<pdfrwt beam="2">  1        2 0.21876677E+00 0.22256350E+04</pdfrwt>
<pdfrwt beam="1">  1       -2 0.13397996E+00 0.22256350E+04</pdfrwt>
<totfact> 0.51584769E+00</totfact>
</mgrwt>
</event>
<event>
 4    1  0.2058093E-008  0.2209180E+04  0.7816531E-02  0.8514617E-01
         -2   -1    0    0    0  501 -0.00000000000E+00  0.00000000000E+00  0.71968399756E+03  0.71968399756E+03  0.00000000000E+00 0. -1.
          2   -1    0    0  501    0  0.00000000000E+00 -0.00000000000E+00 -0.16953531323E+04  0.16953531323E+04  0.00000000000E+00 0.  1.
    2000013    1    1    2    0    0  0.27430441232E+02  0.56204566620E+03 -0.52189488120E+03  0.12212788490E+04  0.95000000000E+03 0.  0.
   -2000013    1    1    2    0    0 -0.27430441232E+02 -0.56204566620E+03 -0.45377425358E+03  0.11937582809E+04  0.95000000000E+03 0.  0.
<mgrwt>
<rscale>  0 0.22091795E+04</rscale>
<asrwt>0</asrwt>
<pdfrwt beam="2">  1        2 0.26082356E+00 0.22091795E+04</pdfrwt>
<pdfrwt beam="1">  1       -2 0.11072061E+00 0.22091795E+04</pdfrwt>
<totfact> 0.58276585E+00</totfact>
</mgrwt>
</event>
<event>
 4    1  0.2058093E-008  0.1946117E+04  0.7816531E-02  0.8632235E-01
         -2   -1    0    0    0  501 -0.00000000000E+00  0.00000000000E+00  0.20006350490E+04  0.20006350490E+04  0.00000000000E+00 0.  1.
          2   -1    0    0  501    0  0.00000000000E+00 -0.00000000000E+00 -0.47327138288E+03  0.47327138288E+03  0.00000000000E+00 0. -1.
    2000013    1    1    2    0    0 -0.20008519927E+03 -0.62973036009E+02  0.74011738668E+03  0.12224047760E+04  0.95000000000E+03 0.  0.
   -2000013    1    1    2    0    0  0.20008519927E+03  0.62973036009E+02  0.78724627942E+03  0.12515016559E+04  0.95000000000E+03 0.  0.
<mgrwt>
<rscale>  0 0.19461175E+04</rscale>
<asrwt>0</asrwt>
<pdfrwt beam="2">  1        2 0.72810983E-01 0.19461175E+04</pdfrwt>
<pdfrwt beam="1">  1       -2 0.30779000E+00 0.19461175E+04</pdfrwt>
<totfact> 0.17461324E+00</totfact>
</mgrwt>
</event>
<event>
 4    1  0.2058093E-008  0.2999025E+04  0.7816531E-02  0.8244009E-01
         -2   -1    0    0    0  501 -0.00000000000E+00  0.00000000000E+00  0.83909895794E+03  0.83909895794E+03  0.00000000000E+00 0. -1.
          2   -1    0    0  501    0  0.00000000000E+00 -0.00000000000E+00 -0.26797059501E+04  0.26797059501E+04  0.00000000000E+00 0.  1.
    2000013    1    1    2    0    0 -0.84213362044E+03  0.52313773450E+03 -0.21321493772E+03  0.13895404757E+04  0.95000000000E+03 0.  0.
   -2000013    1    1    2    0    0  0.84213362044E+03 -0.52313773450E+03 -0.16273920544E+04  0.21292644323E+04  0.95000000000E+03 0.  0.
<mgrwt>
<rscale>  0 0.29990255E+04</rscale>
<asrwt>0</asrwt>
<pdfrwt beam="2">  1        2 0.41226246E+00 0.29990255E+04</pdfrwt>
<pdfrwt beam="1">  1       -2 0.12909214E+00 0.29990255E+04</pdfrwt>
<totfact> 0.10329769E+00</totfact>
</mgrwt>
</event>
<event>
 4    1  0.2058093E-008  0.2764640E+04  0.7816531E-02  0.8314331E-01
         -2   -1    0    0    0  501 -0.00000000000E+00  0.00000000000E+00  0.73215922345E+03  0.73215922345E+03  0.00000000000E+00 0. -1.
          2   -1    0    0  501    0  0.00000000000E+00 -0.00000000000E+00 -0.26098274764E+04  0.26098274764E+04  0.00000000000E+00 0.  1.
    2000013    1    1    2    0    0  0.98526593409E+03  0.18038190761E+03 -0.85316326046E+03  0.16228598653E+04  0.95000000000E+03 0.  0.
   -2000013    1    1    2    0    0 -0.98526593409E+03 -0.18038190761E+03 -0.10245049925E+04  0.17191268345E+04  0.95000000000E+03 0.  0.
<mgrwt>
<rscale>  0 0.27646405E+04</rscale>
<asrwt>0</asrwt>
<pdfrwt beam="2">  1        2 0.40151192E+00 0.27646405E+04</pdfrwt>
<pdfrwt beam="1">  1       -2 0.11263988E+00 0.27646405E+04</pdfrwt>
<totfact> 0.16249542E+00</totfact>
</mgrwt>
</event>
<event>
 4    1  0.2058093E-008  0.2193510E+04  0.7816531E-02  0.8521134E-01
         -1   -1    0    0    0  501 -0.00000000000E+00  0.00000000000E+00  0.15740414883E+04  0.15740414883E+04  0.00000000000E+00 0. -1.
          1   -1    0    0  501    0  0.00000000000E+00 -0.00000000000E+00 -0.76419313057E+03  0.76419313057E+03  0.00000000000E+00 0.  1.
    2000013    1    1    2    0    0 -0.52815967379E+03 -0.95387735500E+02  0.28660425759E+03  0.11281371643E+04  0.95000000000E+03 0.  0.
   -2000013    1    1    2    0    0  0.52815967379E+03  0.95387735500E+02  0.52324410012E+03  0.12100974545E+04  0.95000000000E+03 0.  0.
<mgrwt>
<rscale>  0 0.21935101E+04</rscale>
<asrwt>0</asrwt>
<pdfrwt beam="2">  1        1 0.11756817E+00 0.21935101E+04</pdfrwt>
<pdfrwt beam="1">  1       -1 0.24216023E+00 0.21935101E+04</pdfrwt>
<totfact> 0.17022405E+00</totfact>
</mgrwt>
</event>
<event>
 4    1  0.2058093E-008  0.2762350E+04  0.7816531E-02  0.8315053E-01
         -1   -1    0    0    0  501 -0.00000000000E+00  0.00000000000E+00  0.67777934795E+03  0.67777934795E+03  0.00000000000E+00 0. -1.
          1   -1    0    0  501    0  0.00000000000E+00 -0.00000000000E+00 -0.28145501387E+04  0.28145501387E+04  0.00000000000E+00 0.  1.
    2000013    1    1    2    0    0 -0.92215597478E+03  0.39165093551E+03 -0.10213885526E+04  0.17174098732E+04  0.95000000000E+03 0.  0.
   -2000013    1    1    2    0    0  0.92215597478E+03 -0.39165093551E+03 -0.11153822382E+04  0.17749196135E+04  0.95000000000E+03 0.  0.
<mgrwt>
<rscale>  0 0.27623497E+04</rscale>
<asrwt>0</asrwt>
<pdfrwt beam="2">  1        1 0.43300772E+00 0.27623497E+04</pdfrwt>
<pdfrwt beam="1">  1       -1 0.10427374E+00 0.27623497E+04</pdfrwt>
<totfact> 0.61113289E-01</totfact>
</mgrwt>
</event>
<event>
 4    1  0.2058093E-008  0.2323503E+04  0.7816531E-02  0.8468711E-01
          2   -1    0    0  501    0  0.00000000000E+00  0.00000000000E+00  0.25727439416E+04  0.25727439416E+04  0.00000000000E+00 0.  1.
         -2   -1    0    0    0  501 -0.00000000000E+00 -0.00000000000E+00 -0.52460208716E+03  0.52460208716E+03  0.00000000000E+00 0. -1.
    2000013    1    1    2    0    0  0.40062367773E+03 -0.50138857896E+03  0.12744466892E+04  0.17142357486E+04  0.95000000000E+03 0.  0.
   -2000013    1    1    2    0    0 -0.40062367773E+03  0.50138857896E+03  0.77369516523E+03  0.13831102801E+04  0.95000000000E+03 0.  0.
<mgrwt>
<rscale>  0 0.23235033E+04</rscale>
<asrwt>0</asrwt>
<pdfrwt beam="1">  1        2 0.39580675E+00 0.23235033E+04</pdfrwt>
<pdfrwt beam="2">  1       -2 0.80708015E-01 0.23235033E+04</pdfrwt>
<totfact> 0.38716548E+00</totfact>
</mgrwt>
</event>
<event>
 4    1  0.2058093E-008  0.2473344E+04  0.7816531E-02  0.8412544E-01
         -1   -1    0    0    0  501 -0.00000000000E+00  0.00000000000E+00  0.10285277413E+04  0.10285277413E+04  0.00000000000E+00 0. -1.
          1   -1    0    0  501    0  0.00000000000E+00 -0.00000000000E+00 -0.14869387979E+04  0.14869387979E+04  0.00000000000E+00 0.  1.
    2000013    1    1    2    0    0 -0.34383465295E+03  0.25010327346E+03  0.45006420792E+03  0.11339451959E+04  0.95000000000E+03 0.  0.
   -2000013    1    1    2    0    0  0.34383465295E+03 -0.25010327346E+03 -0.90847526449E+03  0.13815213434E+04  0.95000000000E+03 0.  0.
<mgrwt>
<rscale>  0 0.24733441E+04</rscale>
<asrwt>0</asrwt>
<pdfrwt beam="2">  1        1 0.22875981E+00 0.24733441E+04</pdfrwt>
<pdfrwt beam="1">  1       -1 0.15823504E+00 0.24733441E+04</pdfrwt>
<totfact> 0.17928995E+00</totfact>
</mgrwt>
</event>
<event>
 4    1  0.2058093E-008  0.2265479E+04  0.7816531E-02  0.8491658E-01
          2   -1    0    0  501    0  0.00000000000E+00  0.00000000000E+00  0.63504234523E+03  0.63504234523E+03  0.00000000000E+00 0.  1.
         -2   -1    0    0    0  501 -0.00000000000E+00 -0.00000000000E+00 -0.20204931149E+04  0.20204931149E+04  0.00000000000E+00 0. -1.
    2000013    1    1    2    0    0  0.92697397862E+02 -0.53666259322E+03 -0.35299882743E+03  0.11505249753E+04  0.95000000000E+03 0.  0.
   -2000013    1    1    2    0    0 -0.92697397862E+02  0.53666259322E+03 -0.10324519423E+04  0.15050104849E+04  0.95000000000E+03 0.  0.
<mgrwt>
<rscale>  0 0.22654789E+04</rscale>
<asrwt>0</asrwt>
<pdfrwt beam="1">  1        2 0.97698822E-01 0.22654789E+04</pdfrwt>
<pdfrwt beam="2">  1       -2 0.31084510E+00 0.22654789E+04</pdfrwt>
<totfact> 0.11478562E+00</totfact>
</mgrwt>
</event>
<event>
 4    1  0.2058093E-008  0.2515210E+04  0.7816531E-02  0.8397587E-01
         -2   -1    0    0    0  501 -0.00000000000E+00  0.00000000000E+00  0.16479975021E+04  0.16479975021E+04  0.00000000000E+00 0. -1.
          2   -1    0    0  501    0  0.00000000000E+00 -0.00000000000E+00 -0.95969206388E+03  0.95969206388E+03  0.00000000000E+00 0.  1.
    2000013    1    1    2    0    0  0.66043457435E+03 -0.45565223995E+03  0.14942420871E+03  0.12524457613E+04  0.95000000000E+03 0.  0.
   -2000013    1    1    2    0    0 -0.66043457435E+03  0.45565223995E+03  0.53888122955E+03  0.13552438048E+04  0.95000000000E+03 0.  0.
<mgrwt>
<rscale>  0 0.25152098E+04</rscale>
<asrwt>0</asrwt>
<pdfrwt beam="2">  1        2 0.14764493E+00 0.25152098E+04</pdfrwt>
<pdfrwt beam="1">  1       -2 0.25353808E+00 0.25152098E+04</pdfrwt>
<totfact> 0.14564853E+00</totfact>
</mgrwt>
</event>
<event>
 4    1  0.2058093E-008  0.1980189E+04  0.7816531E-02  0.8615939E-01
          2   -1    0    0  501    0  0.00000000000E+00  0.00000000000E+00  0.18194826493E+04  0.18194826493E+04  0.00000000000E+00 0.  1.
         -2   -1    0    0    0  501 -0.00000000000E+00 -0.00000000000E+00 -0.53877271160E+03  0.53877271160E+03  0.00000000000E+00 0. -1.
    2000013    1    1    2    0    0  0.17573516094E+02  0.23451691324E+03  0.81891651133E+03  0.12761000210E+04  0.95000000000E+03 0.  0.
   -2000013    1    1    2    0    0 -0.17573516094E+02 -0.23451691324E+03  0.46179342640E+03  0.10821553399E+04  0.95000000000E+03 0.  0.
<mgrwt>
<rscale>  0 0.19801895E+04</rscale>
<asrwt>0</asrwt>
<pdfrwt beam="1">  1        2 0.27992040E+00 0.19801895E+04</pdfrwt>
<pdfrwt beam="2">  1       -2 0.82888110E-01 0.19801895E+04</pdfrwt>
<totfact> 0.99916290E+00</totfact>
</mgrwt>
</event>
<event>
 4    1  0.2058093E-008  0.2048901E+04  0.7816531E-02  0.8584093E-01
         -1   -1    0    0    0  501 -0.00000000000E+00  0.00000000000E+00  0.38749793153E+03  0.38749793153E+03  0.00000000000E+00 0. -1.
          1   -1    0    0  501    0  0.00000000000E+00 -0.00000000000E+00 -0.27083992269E+04  0.27083992269E+04  0.00000000000E+00 0.  1.
    2000013    1    1    2    0    0 -0.14185995531E+03  0.25479042879E+03 -0.78434522578E+03  0.12659936188E+04  0.95000000000E+03 0.  0.
   -2000013    1    1    2    0    0  0.14185995531E+03 -0.25479042879E+03 -0.15365560696E+04  0.18299035397E+04  0.95000000000E+03 0.  0.
<mgrwt>
<rscale>  0 0.20489013E+04</rscale>
<asrwt>0</asrwt>
<pdfrwt beam="2">  1        1 0.41667679E+00 0.20489013E+04</pdfrwt>
<pdfrwt beam="1">  1       -1 0.59615069E-01 0.20489013E+04</pdfrwt>
<totfact> 0.25529929E+00</totfact>
</mgrwt>
</event>
<event>
 4    1  0.2058093E-008  0.3451566E+04  0.7816531E-02  0.8125365E-01
          2   -1    0    0  501    0  0.00000000000E+00  0.00000000000E+00  0.30039236042E+04  0.30039236042E+04  0.00000000000E+00 0.  1.
         -2   -1    0    0    0  501 -0.00000000000E+00 -0.00000000000E+00 -0.99147918658E+03  0.99147918658E+03  0.00000000000E+00 0. -1.
    2000013    1    1    2    0    0 -0.38585112305E+03 -0.12968921501E+04  0.43323782214E+03  0.17090948917E+04  0.95000000000E+03 0.  0.
   -2000013    1    1    2    0    0  0.38585112305E+03  0.12968921501E+04  0.15792065955E+04  0.22863078991E+04  0.95000000000E+03 0.  0.
<mgrwt>
<rscale>  0 0.34515664E+04</rscale>
<asrwt>0</asrwt>
<pdfrwt beam="1">  1        2 0.46214209E+00 0.34515664E+04</pdfrwt>
<pdfrwt beam="2">  1       -2 0.15253526E+00 0.34515664E+04</pdfrwt>
<totfact> 0.40897346E-01</totfact>
</mgrwt>
</event>
<event>
 4    1  0.2058093E-008  0.2903767E+04  0.7816531E-02  0.8271757E-01
         -2   -1    0    0    0  501 -0.00000000000E+00  0.00000000000E+00  0.11845220823E+04  0.11845220823E+04  0.00000000000E+00 0. -1.
          2   -1    0    0  501    0  0.00000000000E+00 -0.00000000000E+00 -0.17795922610E+04  0.17795922610E+04  0.00000000000E+00 0.  1.
    2000013    1    1    2    0    0  0.39132643774E+03 -0.68013313143E+03 -0.10814459516E+04  0.16394336838E+04  0.95000000000E+03 0.  0.
   -2000013    1    1    2    0    0 -0.39132643774E+03  0.68013313143E+03  0.48637577281E+03  0.13246806595E+04  0.95000000000E+03 0.  0.
<mgrwt>
<rscale>  0 0.29037674E+04</rscale>
<asrwt>0</asrwt>
<pdfrwt beam="2">  1        2 0.27378342E+00 0.29037674E+04</pdfrwt>
<pdfrwt beam="1">  1       -2 0.18223417E+00 0.29037674E+04</pdfrwt>
<totfact> 0.13375695E+00</totfact>
</mgrwt>
</event>
<event>
 4    1  0.2058093E-008  0.3180809E+04  0.7816531E-02  0.8193904E-01
         -2   -1    0    0    0  501 -0.00000000000E+00  0.00000000000E+00  0.19742050094E+04  0.19742050094E+04  0.00000000000E+00 0. -1.
          2   -1    0    0  501    0  0.00000000000E+00 -0.00000000000E+00 -0.12812178212E+04  0.12812178212E+04  0.00000000000E+00 0.  1.
    2000013    1    1    2    0    0 -0.65408738583E+03 -0.10731310772E+04  0.56942420687E+03  0.16751670199E+04  0.95000000000E+03 0.  0.
   -2000013    1    1    2    0    0  0.65408738583E+03  0.10731310772E+04  0.12356298131E+03  0.15802558108E+04  0.95000000000E+03 0.  0.
<mgrwt>
<rscale>  0 0.31808091E+04</rscale>
<asrwt>0</asrwt>
<pdfrwt beam="2">  1        2 0.19711043E+00 0.31808091E+04</pdfrwt>
<pdfrwt beam="1">  1       -2 0.30372385E+00 0.31808091E+04</pdfrwt>
<totfact> 0.43118140E-01</totfact>
</mgrwt>
</event>
<event>
 4    1  0.2058093E-008  0.2296145E+04  0.7816531E-02  0.8479442E-01
          2   -1    0    0  501    0  0.00000000000E+00  0.00000000000E+00  0.13004549866E+04  0.13004549866E+04  0.00000000000E+00 0.  1.
         -2   -1    0    0    0  501 -0.00000000000E+00 -0.00000000000E+00 -0.10135460205E+04  0.10135460205E+04  0.00000000000E+00 0. -1.
    2000013    1    1    2    0    0  0.57534403995E+02 -0.64057560514E+03  0.18765513237E+03  0.11624808653E+04  0.95000000000E+03 0.  0.
   -2000013    1    1    2    0    0 -0.57534403995E+02  0.64057560514E+03  0.99253833721E+02  0.11515201418E+04  0.95000000000E+03 0.  0.
<mgrwt>
<rscale>  0 0.22961454E+04</rscale>
<asrwt>0</asrwt>
<pdfrwt beam="1">  1        2 0.20007000E+00 0.22961454E+04</pdfrwt>
<pdfrwt beam="2">  1       -2 0.15593016E+00 0.22961454E+04</pdfrwt>
<totfact> 0.40478975E+00</totfact>
</mgrwt>
</event>
<event>
 4    1  0.2058093E-008  0.3703073E+04  0.7816531E-02  0.8067281E-01
         -2   -1    0    0    0  501 -0.00000000000E+00  0.00000000000E+00  0.16966553979E+04  0.16966553979E+04  0.00000000000E+00 0. -1.
          2   -1    0    0  501    0  0.00000000000E+00 -0.00000000000E+00 -0.20205561669E+04  0.20205561669E+04  0.00000000000E+00 0.  1.
    2000013    1    1    2    0    0  0.49598432200E+03  0.14729461398E+04  0.17115502762E+03  0.18295805044E+04  0.95000000000E+03 0.  0.
   -2000013    1    1    2    0    0 -0.49598432200E+03 -0.14729461398E+04 -0.49505579657E+03  0.18876310604E+04  0.95000000000E+03 0.  0.
<mgrwt>
<rscale>  0 0.37030731E+04</rscale>
<asrwt>0</asrwt>
<pdfrwt beam="2">  1        2 0.31085479E+00 0.37030731E+04</pdfrwt>
<pdfrwt beam="1">  1       -2 0.26102391E+00 0.37030731E+04</pdfrwt>
<totfact> 0.28924611E-01</totfact>
</mgrwt>
</event>
<event>
 4    1  0.2058093E-008  0.2963570E+04  0.7816531E-02  0.8254211E-01
         -2   -1    0    0    0  501 -0.00000000000E+00  0.00000000000E+00  0.17501080081E+04  0.17501080081E+04  0.00000000000E+00 0. -1.
          2   -1    0    0  501    0  0.00000000000E+00 -0.00000000000E+00 -0.12546011078E+04  0.12546011078E+04  0.00000000000E+00 0.  1.
    2000013    1    1    2    0    0  0.24646227410E+03  0.81276437751E+03 -0.51895672494E+03  0.13759163013E+04  0.95000000000E+03 0.  0.
   -2000013    1    1    2    0    0 -0.24646227410E+03 -0.81276437751E+03  0.10144636252E+04  0.16287928145E+04  0.95000000000E+03 0.  0.
<mgrwt>
<rscale>  0 0.29635704E+04</rscale>
<asrwt>0</asrwt>
<pdfrwt beam="2">  1        2 0.19301556E+00 0.29635704E+04</pdfrwt>
<pdfrwt beam="1">  1       -2 0.26924738E+00 0.29635704E+04</pdfrwt>
<totfact> 0.73921306E-01</totfact>
</mgrwt>
</event>
<event>
 4    1  0.2058093E-008  0.2468408E+04  0.7816531E-02  0.8414328E-01
          2   -1    0    0  501    0  0.00000000000E+00  0.00000000000E+00  0.11220171451E+04  0.11220171451E+04  0.00000000000E+00 0.  1.
         -2   -1    0    0    0  501 -0.00000000000E+00 -0.00000000000E+00 -0.13576077285E+04  0.13576077285E+04  0.00000000000E+00 0. -1.
    2000013    1    1    2    0    0 -0.54330384059E+03 -0.47122831152E+03  0.20541824061E+03  0.12091037335E+04  0.95000000000E+03 0.  0.
   -2000013    1    1    2    0    0  0.54330384059E+03  0.47122831152E+03 -0.44100882400E+03  0.12705211402E+04  0.95000000000E+03 0.  0.
<mgrwt>
<rscale>  0 0.24684077E+04</rscale>
<asrwt>0</asrwt>
<pdfrwt beam="1">  1        2 0.17261802E+00 0.24684077E+04</pdfrwt>
<pdfrwt beam="2">  1       -2 0.20886273E+00 0.24684077E+04</pdfrwt>
<totfact> 0.21988004E+00</totfact>
</mgrwt>
</event>
<event>
 4    1  0.2058093E-008  0.2857991E+04  0.7816531E-02  0.8285487E-01
          2   -1    0    0  501    0  0.00000000000E+00  0.00000000000E+00  0.31192351794E+04  0.31192351794E+04  0.00000000000E+00 0.  1.
         -2   -1    0    0    0  501 -0.00000000000E+00 -0.00000000000E+00 -0.65465670110E+03  0.65465670110E+03  0.00000000000E+00 0. -1.
    2000013    1    1    2    0    0 -0.81125648507E+03  0.56510488835E+03  0.70073219036E+03  0.15398072029E+04  0.95000000000E+03 0.  0.
   -2000013    1    1    2    0    0  0.81125648507E+03 -0.56510488835E+03  0.17638462880E+04  0.22340846777E+04  0.95000000000E+03 0.  0.
<mgrwt>
<rscale>  0 0.28579911E+04</rscale>
<asrwt>0</asrwt>
<pdfrwt beam="1">  1        2 0.47988233E+00 0.28579911E+04</pdfrwt>
<pdfrwt beam="2">  1       -2 0.10071642E+00 0.28579911E+04</pdfrwt>
<totfact> 0.10282559E+00</totfact>
</mgrwt>
</event>
<event>
 4    1  0.2058093E-008  0.3608538E+04  0.7816531E-02  0.8088539E-01
          1   -1    0    0  501    0  0.00000000000E+00  0.00000000000E+00  0.25456288359E+04  0.25456288359E+04  0.00000000000E+00 0.  1.
         -1   -1    0    0    0  501 -0.00000000000E+00 -0.00000000000E+00 -0.12788142738E+04  0.12788142738E+04  0.00000000000E+00 0. -1.
    2000013    1    1    2    0    0 -0.92315613259E+03  0.61480046136E+03 -0.48955918639E+03  0.15402483726E+04  0.95000000000E+03 0.  0.
   -2000013    1    1    2    0    0  0.92315613259E+03 -0.61480046136E+03  0.17563737485E+04  0.22841947371E+04  0.95000000000E+03 0.  0.
<mgrwt>
<rscale>  0 0.36085379E+04</rscale>
<asrwt>0</asrwt>
<pdfrwt beam="1">  1        1 0.39163520E+00 0.36085379E+04</pdfrwt>
<pdfrwt beam="2">  1       -1 0.19674066E+00 0.36085379E+04</pdfrwt>
<totfact> 0.16137696E-01</totfact>
</mgrwt>
</event>
<event>
 4    1  0.2058093E-008  0.2360778E+04  0.7816531E-02  0.8454335E-01
         -2   -1    0    0    0  501 -0.00000000000E+00  0.00000000000E+00  0.63594922636E+03  0.63594922636E+03  0.00000000000E+00 0. -1.
          2   -1    0    0  501    0  0.00000000000E+00 -0.00000000000E+00 -0.21909270822E+04  0.21909270822E+04  0.00000000000E+00 0.  1.
    2000013    1    1    2    0    0  0.67048070088E+03  0.15917212430E+03 -0.62631673586E+03  0.13302829733E+04  0.95000000000E+03 0.  0.
   -2000013    1    1    2    0    0 -0.67048070088E+03 -0.15917212430E+03 -0.92866111995E+03  0.14965933353E+04  0.95000000000E+03 0.  0.
<mgrwt>
<rscale>  0 0.23607782E+04</rscale>
<asrwt>0</asrwt>
<pdfrwt beam="2">  1        2 0.33706570E+00 0.23607782E+04</pdfrwt>
<pdfrwt beam="1">  1       -2 0.97838344E-01 0.23607782E+04</pdfrwt>
<totfact> 0.40991594E+00</totfact>
</mgrwt>
</event>
<event>
 4    1  0.2058093E-008  0.2602936E+04  0.7816531E-02  0.8367205E-01
         -2   -1    0    0    0  501 -0.00000000000E+00  0.00000000000E+00  0.15376594863E+04  0.15376594863E+04  0.00000000000E+00 0. -1.
          2   -1    0    0  501    0  0.00000000000E+00 -0.00000000000E+00 -0.11015567240E+04  0.11015567240E+04  0.00000000000E+00 0.  1.
    2000013    1    1    2    0    0  0.23069918381E+03 -0.12007740274E+03 -0.64449861128E+03  0.11770807772E+04  0.95000000000E+03 0.  0.
   -2000013    1    1    2    0    0 -0.23069918381E+03  0.12007740274E+03  0.10806013736E+04  0.14621354331E+04  0.95000000000E+03 0.  0.
<mgrwt>
<rscale>  0 0.26029361E+04</rscale>
<asrwt>0</asrwt>
<pdfrwt beam="2">  1        2 0.16947027E+00 0.26029361E+04</pdfrwt>
<pdfrwt beam="1">  1       -2 0.23656300E+00 0.26029361E+04</pdfrwt>
<totfact> 0.14955908E+00</totfact>
</mgrwt>
</event>
<event>
 4    1  0.2058093E-008  0.2479340E+04  0.7816531E-02  0.8410383E-01
          2   -1    0    0  501    0  0.00000000000E+00  0.00000000000E+00  0.24166836717E+04  0.24166836717E+04  0.00000000000E+00 0.  1.
         -2   -1    0    0    0  501 -0.00000000000E+00 -0.00000000000E+00 -0.63590516787E+03  0.63590516787E+03  0.00000000000E+00 0. -1.
    2000013    1    1    2    0    0  0.67884269003E+03  0.31404146996E+03  0.12271926561E+04  0.17227742910E+04  0.95000000000E+03 0.  0.
   -2000013    1    1    2    0    0 -0.67884269003E+03 -0.31404146996E+03  0.55358584773E+03  0.13298145485E+04  0.95000000000E+03 0.  0.
<mgrwt>
<rscale>  0 0.24793399E+04</rscale>
<asrwt>0</asrwt>
<pdfrwt beam="1">  1        2 0.37179748E+00 0.24793399E+04</pdfrwt>
<pdfrwt beam="2">  1       -2 0.97831566E-01 0.24793399E+04</pdfrwt>
<totfact> 0.30217861E+00</totfact>
</mgrwt>
</event>
<event>
 4    1  0.2058093E-008  0.2568344E+04  0.7816531E-02  0.8379034E-01
          2   -1    0    0  501    0  0.00000000000E+00  0.00000000000E+00  0.11592827173E+04  0.11592827173E+04  0.00000000000E+00 0.  1.
         -2   -1    0    0    0  501 -0.00000000000E+00 -0.00000000000E+00 -0.14225158409E+04  0.14225158409E+04  0.00000000000E+00 0. -1.
    2000013    1    1    2    0    0  0.82642811539E+03 -0.20836499434E+03  0.11249825980E+02  0.12763330127E+04  0.95000000000E+03 0.  0.
   -2000013    1    1    2    0    0 -0.82642811539E+03  0.20836499434E+03 -0.27448294956E+03  0.13054655455E+04  0.95000000000E+03 0.  0.
<mgrwt>
<rscale>  0 0.25683442E+04</rscale>
<asrwt>0</asrwt>
<pdfrwt beam="1">  1        2 0.17835119E+00 0.25683442E+04</pdfrwt>
<pdfrwt beam="2">  1       -2 0.21884859E+00 0.25683442E+04</pdfrwt>
<totfact> 0.17863600E+00</totfact>
</mgrwt>
</event>
<event>
 4    1  0.2058093E-008  0.3712003E+04  0.7816531E-02  0.8065307E-01
          2   -1    0    0  501    0  0.00000000000E+00  0.00000000000E+00  0.32946031784E+04  0.32946031784E+04  0.00000000000E+00 0.  1.
         -2   -1    0    0    0  501 -0.00000000000E+00 -0.00000000000E+00 -0.10455712611E+04  0.10455712611E+04  0.00000000000E+00 0. -1.
    2000013    1    1    2    0    0  0.11264338629E+04  0.10423144178E+04  0.61894216553E+03  0.19081042941E+04  0.95000000000E+03 0.  0.
   -2000013    1    1    2    0    0 -0.11264338629E+04 -0.10423144178E+04  0.16300897518E+04  0.24320701454E+04  0.95000000000E+03 0.  0.
<mgrwt>
<rscale>  0 0.37120034E+04</rscale>
<asrwt>0</asrwt>
<pdfrwt beam="1">  1        2 0.50686202E+00 0.37120034E+04</pdfrwt>
<pdfrwt beam="2">  1       -2 0.16085712E+00 0.37120034E+04</pdfrwt>
<totfact> 0.22488991E-01</totfact>
</mgrwt>
</event>
<event>
 4    1  0.2058093E-008  0.3049171E+04  0.7816531E-02  0.8229827E-01
         -2   -1    0    0    0  501 -0.00000000000E+00  0.00000000000E+00  0.54757499042E+03  0.54757499042E+03  0.00000000000E+00 0. -1.
          2   -1    0    0  501    0  0.00000000000E+00 -0.00000000000E+00 -0.42448279193E+04  0.42448279193E+04  0.00000000000E+00 0.  1.
    2000013    1    1    2    0    0  0.10896099085E+04  0.12491497374E+03 -0.25841584670E+04  0.29636512086E+04  0.95000000000E+03 0.  0.
   -2000013    1    1    2    0    0 -0.10896099085E+04 -0.12491497374E+03 -0.11130944619E+04  0.18287517012E+04  0.95000000000E+03 0.  0.
<mgrwt>
<rscale>  0 0.30491714E+04</rscale>
<asrwt>0</asrwt>
<pdfrwt beam="2">  1        2 0.65305046E+00 0.30491714E+04</pdfrwt>
<pdfrwt beam="1">  1       -2 0.84242305E-01 0.30491714E+04</pdfrwt>
<totfact> 0.22250488E-01</totfact>
</mgrwt>
</event>
<event>
 4    1  0.2058093E-008  0.2150431E+04  0.7816531E-02  0.8539348E-01
         -2   -1    0    0    0  501 -0.00000000000E+00  0.00000000000E+00  0.63474175778E+03  0.63474175778E+03  0.00000000000E+00 0.  1.
          2   -1    0    0  501    0  0.00000000000E+00 -0.00000000000E+00 -0.18213522561E+04  0.18213522561E+04  0.00000000000E+00 0. -1.
    2000013    1    1    2    0    0 -0.19146181743E+03  0.46428400799E+03 -0.63559630156E+03  0.12484790451E+04  0.95000000000E+03 0.  0.
   -2000013    1    1    2    0    0  0.19146181743E+03 -0.46428400799E+03 -0.55101419672E+03  0.12076149687E+04  0.95000000000E+03 0.  0.
<mgrwt>
<rscale>  0 0.21504310E+04</rscale>
<asrwt>0</asrwt>
<pdfrwt beam="2">  1        2 0.28020804E+00 0.21504310E+04</pdfrwt>
<pdfrwt beam="1">  1       -2 0.97652578E-01 0.21504310E+04</pdfrwt>
<totfact> 0.67324390E+00</totfact>
</mgrwt>
</event>
<event>
 4    1  0.2058093E-008  0.3106267E+04  0.7816531E-02  0.8214020E-01
          2   -1    0    0  501    0  0.00000000000E+00  0.00000000000E+00  0.18691612495E+04  0.18691612495E+04  0.00000000000E+00 0.  1.
         -2   -1    0    0    0  501 -0.00000000000E+00 -0.00000000000E+00 -0.12905379008E+04  0.12905379008E+04  0.00000000000E+00 0. -1.
    2000013    1    1    2    0    0  0.57376300362E+03 -0.10854564512E+04  0.24048872366E+03  0.15709088191E+04  0.95000000000E+03 0.  0.
   -2000013    1    1    2    0    0 -0.57376300362E+03  0.10854564512E+04  0.33813462509E+03  0.15887903312E+04  0.95000000000E+03 0.  0.
<mgrwt>
<rscale>  0 0.31062668E+04</rscale>
<asrwt>0</asrwt>
<pdfrwt beam="1">  1        2 0.28756327E+00 0.31062668E+04</pdfrwt>
<pdfrwt beam="2">  1       -2 0.19854429E+00 0.31062668E+04</pdfrwt>
<totfact> 0.91144555E-01</totfact>
</mgrwt>
</event>
<event>
 4    1  0.2058093E-008  0.2642308E+04  0.7816531E-02  0.8353970E-01
         -2   -1    0    0    0  501 -0.00000000000E+00  0.00000000000E+00  0.13981281624E+04  0.13981281624E+04  0.00000000000E+00 0. -1.
          2   -1    0    0  501    0  0.00000000000E+00 -0.00000000000E+00 -0.12484180760E+04  0.12484180760E+04  0.00000000000E+00 0.  1.
    2000013    1    1    2    0    0  0.90992390865E+03  0.78832459058E+02  0.16866631985E+03  0.13285798446E+04  0.95000000000E+03 0.  0.
   -2000013    1    1    2    0    0 -0.90992390865E+03 -0.78832459058E+02 -0.18956233452E+02  0.13179663937E+04  0.95000000000E+03 0.  0.
<mgrwt>
<rscale>  0 0.26423084E+04</rscale>
<asrwt>0</asrwt>
<pdfrwt beam="2">  1        2 0.19206432E+00 0.26423084E+04</pdfrwt>
<pdfrwt beam="1">  1       -2 0.21509664E+00 0.26423084E+04</pdfrwt>
<totfact> 0.16593552E+00</totfact>
</mgrwt>
</event>
<event>
 4    1  0.2058093E-008  0.2724393E+04  0.7816531E-02  0.8327133E-01
         -2   -1    0    0    0  501 -0.00000000000E+00  0.00000000000E+00  0.51920696478E+03  0.51920696478E+03  0.00000000000E+00 0. -1.
          2   -1    0    0  501    0  0.00000000000E+00 -0.00000000000E+00 -0.35738721952E+04  0.35738721952E+04  0.00000000000E+00 0.  1.
    2000013    1    1    2    0    0 -0.27094549685E+03  0.93643424100E+03 -0.16062439362E+04  0.21054311037E+04  0.95000000000E+03 0.  0.
   -2000013    1    1    2    0    0  0.27094549685E+03 -0.93643424100E+03 -0.14484212942E+04  0.19876480563E+04  0.95000000000E+03 0.  0.
<mgrwt>
<rscale>  0 0.27243930E+04</rscale>
<asrwt>0</asrwt>
<pdfrwt beam="2">  1        2 0.54982649E+00 0.27243930E+04</pdfrwt>
<pdfrwt beam="1">  1       -2 0.79877995E-01 0.27243930E+04</pdfrwt>
<totfact> 0.87559223E-01</totfact>
</mgrwt>
</event>
<event>
 4    1  0.2058093E-008  0.2049247E+04  0.7816531E-02  0.8583936E-01
          1   -1    0    0  501    0  0.00000000000E+00  0.00000000000E+00  0.22868537189E+04  0.22868537189E+04  0.00000000000E+00 0.  1.
         -1   -1    0    0    0  501 -0.00000000000E+00 -0.00000000000E+00 -0.45908182652E+03  0.45908182652E+03  0.00000000000E+00 0. -1.
    2000013    1    1    2    0    0 -0.17164341830E+01 -0.24470777865E+03  0.13101831827E+04  0.16367543540E+04  0.95000000000E+03 0.  0.
   -2000013    1    1    2    0    0  0.17164341830E+01  0.24470777865E+03  0.51758870970E+03  0.11091811915E+04  0.95000000000E+03 0.  0.
<mgrwt>
<rscale>  0 0.20492467E+04</rscale>
<asrwt>0</asrwt>
<pdfrwt beam="1">  1        1 0.35182364E+00 0.20492467E+04</pdfrwt>
<pdfrwt beam="2">  1       -1 0.70627974E-01 0.20492467E+04</pdfrwt>
<totfact> 0.35557115E+00</totfact>
</mgrwt>
</event>
<event>
 4    1  0.2058093E-008  0.2495991E+04  0.7816531E-02  0.8404415E-01
         -2   -1    0    0    0  501 -0.00000000000E+00  0.00000000000E+00  0.80467628563E+03  0.80467628563E+03  0.00000000000E+00 0. -1.
          2   -1    0    0  501    0  0.00000000000E+00 -0.00000000000E+00 -0.19355523791E+04  0.19355523791E+04  0.00000000000E+00 0.  1.
    2000013    1    1    2    0    0  0.64586567198E+02 -0.79339548457E+03 -0.40504162816E+03  0.13039196832E+04  0.95000000000E+03 0.  0.
   -2000013    1    1    2    0    0 -0.64586567198E+02  0.79339548457E+03 -0.72583446535E+03  0.14363089816E+04  0.95000000000E+03 0.  0.
<mgrwt>
<rscale>  0 0.24959913E+04</rscale>
<asrwt>0</asrwt>
<pdfrwt beam="2">  1        2 0.29777728E+00 0.24959913E+04</pdfrwt>
<pdfrwt beam="1">  1       -2 0.12379635E+00 0.24959913E+04</pdfrwt>
<totfact> 0.31803543E+00</totfact>
</mgrwt>
</event>
<event>
 4    1  0.2058093E-008  0.2145502E+04  0.7816531E-02  0.8541460E-01
          2   -1    0    0  501    0  0.00000000000E+00  0.00000000000E+00  0.11067464625E+04  0.11067464625E+04  0.00000000000E+00 0.  1.
         -2   -1    0    0    0  501 -0.00000000000E+00 -0.00000000000E+00 -0.10397995170E+04  0.10397995170E+04  0.00000000000E+00 0. -1.
    2000013    1    1    2    0    0  0.44860331828E+03 -0.20793612263E+03  0.95245476602E+02  0.10751995485E+04  0.95000000000E+03 0.  0.
   -2000013    1    1    2    0    0 -0.44860331828E+03  0.20793612263E+03 -0.28298531111E+02  0.10713464310E+04  0.95000000000E+03 0.  0.
<mgrwt>
<rscale>  0 0.21455017E+04</rscale>
<asrwt>0</asrwt>
<pdfrwt beam="1">  1        2 0.17026869E+00 0.21455017E+04</pdfrwt>
<pdfrwt beam="2">  1       -2 0.15996916E+00 0.21455017E+04</pdfrwt>
<totfact> 0.49928909E+00</totfact>
</mgrwt>
</event>
<event>
 4    1  0.2058093E-008  0.1965891E+04  0.7816531E-02  0.8622736E-01
         -2   -1    0    0    0  501 -0.00000000000E+00  0.00000000000E+00  0.11771597431E+04  0.11771597431E+04  0.00000000000E+00 0. -1.
          2   -1    0    0  501    0  0.00000000000E+00 -0.00000000000E+00 -0.82077399345E+03  0.82077399345E+03  0.00000000000E+00 0.  1.
    2000013    1    1    2    0    0 -0.35315828738E+02 -0.22706027725E+03  0.72192691406E+02  0.98005885637E+03  0.95000000000E+03 0.  0.
   -2000013    1    1    2    0    0  0.35315828738E+02  0.22706027725E+03  0.28419305820E+03  0.10178748801E+04  0.95000000000E+03 0.  0.
<mgrwt>
<rscale>  0 0.19658913E+04</rscale>
<asrwt>0</asrwt>
<pdfrwt beam="2">  1        2 0.12627292E+00 0.19658913E+04</pdfrwt>
<pdfrwt beam="1">  1       -2 0.18110150E+00 0.19658913E+04</pdfrwt>
<totfact> 0.55221326E+00</totfact>
</mgrwt>
</event>
<event>
 4    1  0.2058093E-008  0.2210364E+04  0.7816531E-02  0.8514127E-01
          2   -1    0    0  501    0  0.00000000000E+00  0.00000000000E+00  0.63868709792E+03  0.63868709792E+03  0.00000000000E+00 0.  1.
         -2   -1    0    0    0  501 -0.00000000000E+00 -0.00000000000E+00 -0.19124025813E+04  0.19124025813E+04  0.00000000000E+00 0. -1.
    2000013    1    1    2    0    0 -0.48790193631E+03  0.22090686961E+03 -0.84357200643E+03  0.13787537396E+04  0.95000000000E+03 0.  0.
   -2000013    1    1    2    0    0  0.48790193631E+03 -0.22090686961E+03 -0.43014347695E+03  0.11723359396E+04  0.95000000000E+03 0.  0.
<mgrwt>
<rscale>  0 0.22103636E+04</rscale>
<asrwt>0</asrwt>
<pdfrwt beam="1">  1        2 0.98259555E-01 0.22103636E+04</pdfrwt>
<pdfrwt beam="2">  1       -2 0.29421578E+00 0.22103636E+04</pdfrwt>
<totfact> 0.14476140E+00</totfact>
</mgrwt>
</event>
<event>
 4    1  0.2058093E-008  0.3389601E+04  0.7816531E-02  0.8140463E-01
          1   -1    0    0  501    0  0.00000000000E+00  0.00000000000E+00  0.12241003934E+04  0.12241003934E+04  0.00000000000E+00 0. -1.
         -1   -1    0    0    0  501 -0.00000000000E+00 -0.00000000000E+00 -0.23464972913E+04  0.23464972913E+04  0.00000000000E+00 0.  1.
    2000013    1    1    2    0    0 -0.98894601894E+03 -0.98171893075E+03 -0.38473634415E+03  0.17298289921E+04  0.95000000000E+03 0.  0.
   -2000013    1    1    2    0    0  0.98894601894E+03  0.98171893075E+03 -0.73766055370E+03  0.18407686927E+04  0.95000000000E+03 0.  0.
<mgrwt>
<rscale>  0 0.33896007E+04</rscale>
<asrwt>0</asrwt>
<pdfrwt beam="1">  1        1 0.18832314E+00 0.33896007E+04</pdfrwt>
<pdfrwt beam="2">  1       -1 0.36099958E+00 0.33896007E+04</pdfrwt>
<totfact> 0.11086018E-01</totfact>
</mgrwt>
</event>
<event>
 4    1  0.2058093E-008  0.2299227E+04  0.7816531E-02  0.8478226E-01
         -2   -1    0    0    0  501 -0.00000000000E+00  0.00000000000E+00  0.80474486998E+03  0.80474486998E+03  0.00000000000E+00 0. -1.
          2   -1    0    0  501    0  0.00000000000E+00 -0.00000000000E+00 -0.16422729270E+04  0.16422729270E+04  0.00000000000E+00 0.  1.
    2000013    1    1    2    0    0  0.53105487774E+03 -0.36461635705E+03 -0.35023289381E+03  0.12000531034E+04  0.95000000000E+03 0.  0.
   -2000013    1    1    2    0    0 -0.53105487774E+03  0.36461635705E+03 -0.48729516319E+03  0.12469646936E+04  0.95000000000E+03 0.  0.
<mgrwt>
<rscale>  0 0.22992266E+04</rscale>
<asrwt>0</asrwt>
<pdfrwt beam="2">  1        2 0.25265737E+00 0.22992266E+04</pdfrwt>
<pdfrwt beam="1">  1       -2 0.12380690E+00 0.22992266E+04</pdfrwt>
<totfact> 0.47037836E+00</totfact>
</mgrwt>
</event>
<event>
 4    1  0.2058093E-008  0.2831876E+04  0.7816531E-02  0.8293440E-01
         -2   -1    0    0    0  501 -0.00000000000E+00  0.00000000000E+00  0.63701359524E+03  0.63701359524E+03  0.00000000000E+00 0. -1.
          2   -1    0    0  501    0  0.00000000000E+00 -0.00000000000E+00 -0.31473108392E+04  0.31473108392E+04  0.00000000000E+00 0.  1.
    2000013    1    1    2    0    0 -0.75296521792E+03  0.71071437088E+03 -0.10225031120E+04  0.17378389311E+04  0.95000000000E+03 0.  0.
   -2000013    1    1    2    0    0  0.75296521792E+03 -0.71071437088E+03 -0.14877941319E+04  0.20464855033E+04  0.95000000000E+03 0.  0.
<mgrwt>
<rscale>  0 0.28318756E+04</rscale>
<asrwt>0</asrwt>
<pdfrwt beam="2">  1        2 0.48420167E+00 0.28318756E+04</pdfrwt>
<pdfrwt beam="1">  1       -2 0.98002091E-01 0.28318756E+04</pdfrwt>
<totfact> 0.10545054E+00</totfact>
</mgrwt>
</event>
<event>
 4    1  0.2058093E-008  0.3382160E+04  0.7816531E-02  0.8142299E-01
          1   -1    0    0  501    0  0.00000000000E+00  0.00000000000E+00  0.37302641775E+04  0.37302641775E+04  0.00000000000E+00 0.  1.
         -1   -1    0    0    0  501 -0.00000000000E+00 -0.00000000000E+00 -0.76663497868E+03  0.76663497868E+03  0.00000000000E+00 0. -1.
    2000013    1    1    2    0    0 -0.95773096182E+03  0.10149987439E+04  0.13503262043E+04  0.21617936773E+04  0.95000000000E+03 0.  0.
   -2000013    1    1    2    0    0  0.95773096182E+03 -0.10149987439E+04  0.16133029945E+04  0.23351054789E+04  0.95000000000E+03 0.  0.
<mgrwt>
<rscale>  0 0.33821597E+04</rscale>
<asrwt>0</asrwt>
<pdfrwt beam="1">  1        1 0.57388679E+00 0.33821597E+04</pdfrwt>
<pdfrwt beam="2">  1       -1 0.11794384E+00 0.33821597E+04</pdfrwt>
<totfact> 0.86526604E-02</totfact>
</mgrwt>
</event>
<event>
 4    1  0.2058093E-008  0.2407922E+04  0.7816531E-02  0.8436543E-01
          2   -1    0    0  501    0  0.00000000000E+00  0.00000000000E+00  0.40873405848E+04  0.40873405848E+04  0.00000000000E+00 0.  1.
         -2   -1    0    0    0  501 -0.00000000000E+00 -0.00000000000E+00 -0.35463711262E+03  0.35463711262E+03  0.00000000000E+00 0. -1.
    2000013    1    1    2    0    0  0.44137102144E+03  0.58390980440E+03  0.20621338286E+04  0.23855093723E+04  0.95000000000E+03 0.  0.
   -2000013    1    1    2    0    0 -0.44137102144E+03 -0.58390980440E+03  0.16705696436E+04  0.20564683252E+04  0.95000000000E+03 0.  0.
<mgrwt>
<rscale>  0 0.24079225E+04</rscale>
<asrwt>0</asrwt>
<pdfrwt beam="1">  1        2 0.62882160E+00 0.24079225E+04</pdfrwt>
<pdfrwt beam="2">  1       -2 0.54559559E-01 0.24079225E+04</pdfrwt>
<totfact> 0.82797162E-01</totfact>
</mgrwt>
</event>
<event>
 4    1  0.2058093E-008  0.2290178E+04  0.7816531E-02  0.8481804E-01
         -1   -1    0    0    0  501 -0.00000000000E+00  0.00000000000E+00  0.65854115201E+03  0.65854115201E+03  0.00000000000E+00 0. -1.
          1   -1    0    0  501    0  0.00000000000E+00 -0.00000000000E+00 -0.19911117926E+04  0.19911117926E+04  0.00000000000E+00 0.  1.
    2000013    1    1    2    0    0 -0.24016321631E+03  0.13330751731E+03 -0.13342049458E+04  0.16607384207E+04  0.95000000000E+03 0.  0.
   -2000013    1    1    2    0    0  0.24016321631E+03 -0.13330751731E+03  0.16343051880E+01  0.98891452391E+03  0.95000000000E+03 0.  0.
<mgrwt>
<rscale>  0 0.22901782E+04</rscale>
<asrwt>0</asrwt>
<pdfrwt beam="2">  1        1 0.30632489E+00 0.22901782E+04</pdfrwt>
<pdfrwt beam="1">  1       -1 0.10131402E+00 0.22901782E+04</pdfrwt>
<totfact> 0.25278961E+00</totfact>
</mgrwt>
</event>
<event>
 4    1  0.2058093E-008  0.2197604E+04  0.7816531E-02  0.8519426E-01
          2   -1    0    0  501    0  0.00000000000E+00  0.00000000000E+00  0.14600666266E+04  0.14600666266E+04  0.00000000000E+00 0.  1.
         -2   -1    0    0    0  501 -0.00000000000E+00 -0.00000000000E+00 -0.82692523477E+03  0.82692523477E+03  0.00000000000E+00 0. -1.
    2000013    1    1    2    0    0 -0.59711830260E+02  0.36905438139E+03 -0.10628070932E+03  0.10264317943E+04  0.95000000000E+03 0.  0.
   -2000013    1    1    2    0    0  0.59711830260E+02 -0.36905438139E+03  0.73942210115E+03  0.12605600671E+04  0.95000000000E+03 0.  0.
<mgrwt>
<rscale>  0 0.21976041E+04</rscale>
<asrwt>0</asrwt>
<pdfrwt beam="1">  1        2 0.22462563E+00 0.21976041E+04</pdfrwt>
<pdfrwt beam="2">  1       -2 0.12721927E+00 0.21976041E+04</pdfrwt>
<totfact> 0.56089676E+00</totfact>
</mgrwt>
</event>
<event>
 4    1  0.2058093E-008  0.2428172E+04  0.7816531E-02  0.8429031E-01
          2   -1    0    0  501    0  0.00000000000E+00  0.00000000000E+00  0.32583015806E+04  0.32583015806E+04  0.00000000000E+00 0.  1.
         -2   -1    0    0    0  501 -0.00000000000E+00 -0.00000000000E+00 -0.45238438467E+03  0.45238438467E+03  0.00000000000E+00 0. -1.
    2000013    1    1    2    0    0  0.13795915976E+03  0.66993617346E+03  0.18949700734E+04  0.22273883328E+04  0.95000000000E+03 0.  0.
   -2000013    1    1    2    0    0 -0.13795915976E+03 -0.66993617346E+03  0.91094712255E+03  0.14832976324E+04  0.95000000000E+03 0.  0.
<mgrwt>
<rscale>  0 0.24281720E+04</rscale>
<asrwt>0</asrwt>
<pdfrwt beam="1">  1        2 0.50127715E+00 0.24281720E+04</pdfrwt>
<pdfrwt beam="2">  1       -2 0.69597600E-01 0.24281720E+04</pdfrwt>
<totfact> 0.20070698E+00</totfact>
</mgrwt>
</event>
<event>
 4    1  0.2058093E-008  0.3094654E+04  0.7816531E-02  0.8217207E-01
          2   -1    0    0  501    0  0.00000000000E+00  0.00000000000E+00  0.21720987661E+04  0.21720987661E+04  0.00000000000E+00 0. -1.
         -2   -1    0    0    0  501 -0.00000000000E+00 -0.00000000000E+00 -0.11022616117E+04  0.11022616117E+04  0.00000000000E+00 0.  1.
    2000013    1    1    2    0    0 -0.76750622336E+03  0.93191220176E+03  0.33926165051E+03  0.15732528793E+04  0.95000000000E+03 0.  0.
   -2000013    1    1    2    0    0  0.76750622336E+03 -0.93191220176E+03  0.73057550387E+03  0.17011074985E+04  0.95000000000E+03 0.  0.
<mgrwt>
<rscale>  0 0.30946542E+04</rscale>
<asrwt>0</asrwt>
<pdfrwt beam="1">  1        2 0.33416904E+00 0.30946542E+04</pdfrwt>
<pdfrwt beam="2">  1       -2 0.16957871E+00 0.30946542E+04</pdfrwt>
<totfact> 0.97594732E-01</totfact>
</mgrwt>
</event>
<event>
 4    1  0.2058093E-008  0.3209599E+04  0.7816531E-02  0.8186287E-01
         -3   -1    0    0    0  501 -0.00000000000E+00  0.00000000000E+00  0.89511606708E+03  0.89511606708E+03  0.00000000000E+00 0. -1.
          3   -1    0    0  501    0  0.00000000000E+00 -0.00000000000E+00 -0.28771481833E+04  0.28771481833E+04  0.00000000000E+00 0.  1.
    2000013    1    1    2    0    0  0.15616953706E+03 -0.84216476775E+03 -0.21300644823E+04  0.24846136760E+04  0.95000000000E+03 0.  0.
   -2000013    1    1    2    0    0 -0.15616953706E+03  0.84216476775E+03  0.14803236603E+03  0.12876505744E+04  0.95000000000E+03 0.  0.
<mgrwt>
<rscale>  0 0.32095991E+04</rscale>
<asrwt>0</asrwt>
<pdfrwt beam="2">  1        3 0.44263819E+00 0.32095991E+04</pdfrwt>
<pdfrwt beam="1">  1       -3 0.13771016E+00 0.32095991E+04</pdfrwt>
<totfact> 0.58327277E-03</totfact>
</mgrwt>
</event>
<event>
 4    1  0.2058093E-008  0.3481934E+04  0.7816531E-02  0.8118085E-01
         -2   -1    0    0    0  501 -0.00000000000E+00  0.00000000000E+00  0.11158971305E+04  0.11158971305E+04  0.00000000000E+00 0. -1.
          2   -1    0    0  501    0  0.00000000000E+00 -0.00000000000E+00 -0.27161693233E+04  0.27161693233E+04  0.00000000000E+00 0.  1.
    2000013    1    1    2    0    0 -0.99391100881E+03  0.17720941408E+03  0.35895643940E+03  0.14319958084E+04  0.95000000000E+03 0.  0.
   -2000013    1    1    2    0    0  0.99391100881E+03 -0.17720941408E+03 -0.19592286322E+04  0.24000706454E+04  0.95000000000E+03 0.  0.
<mgrwt>
<rscale>  0 0.34819337E+04</rscale>
<asrwt>0</asrwt>
<pdfrwt beam="2">  1        2 0.41787220E+00 0.34819337E+04</pdfrwt>
<pdfrwt beam="1">  1       -2 0.17167648E+00 0.34819337E+04</pdfrwt>
<totfact> 0.44305985E-01</totfact>
</mgrwt>
</event>
<event>
 4    1  0.2058093E-008  0.2459901E+04  0.7816531E-02  0.8417412E-01
         -2   -1    0    0    0  501 -0.00000000000E+00  0.00000000000E+00  0.29245095988E+04  0.29245095988E+04  0.00000000000E+00 0. -1.
          2   -1    0    0  501    0  0.00000000000E+00 -0.00000000000E+00 -0.51727600797E+03  0.51727600797E+03  0.00000000000E+00 0.  1.
    2000013    1    1    2    0    0 -0.77472542477E+03  0.89990474707E+02  0.12658891579E+04  0.17644469755E+04  0.95000000000E+03 0.  0.
   -2000013    1    1    2    0    0  0.77472542477E+03 -0.89990474707E+02  0.11413444330E+04  0.16773386313E+04  0.95000000000E+03 0.  0.
<mgrwt>
<rscale>  0 0.24599013E+04</rscale>
<asrwt>0</asrwt>
<pdfrwt beam="2">  1        2 0.79580926E-01 0.24599013E+04</pdfrwt>
<pdfrwt beam="1">  1       -2 0.44992454E+00 0.24599013E+04</pdfrwt>
<totfact> 0.18388735E-01</totfact>
</mgrwt>
</event>
<event>
 4    1  0.2058093E-008  0.2311442E+04  0.7816531E-02  0.8473423E-01
         -2   -1    0    0    0  501 -0.00000000000E+00  0.00000000000E+00  0.67517578022E+03  0.67517578022E+03  0.00000000000E+00 0. -1.
          2   -1    0    0  501    0  0.00000000000E+00 -0.00000000000E+00 -0.19782857624E+04  0.19782857624E+04  0.00000000000E+00 0.  1.
    2000013    1    1    2    0    0 -0.50124846743E+03 -0.32546617803E+03 -0.96805374900E+03  0.14821627171E+04  0.95000000000E+03 0.  0.
   -2000013    1    1    2    0    0  0.50124846743E+03  0.32546617803E+03 -0.33505623316E+03  0.11712988255E+04  0.95000000000E+03 0.  0.
<mgrwt>
<rscale>  0 0.23114417E+04</rscale>
<asrwt>0</asrwt>
<pdfrwt beam="2">  1        2 0.30435165E+00 0.23114417E+04</pdfrwt>
<pdfrwt beam="1">  1       -2 0.10387320E+00 0.23114417E+04</pdfrwt>
<totfact> 0.46937182E+00</totfact>
</mgrwt>
</event>
<event>
 4    1  0.2058093E-008  0.2690366E+04  0.7816531E-02  0.8338138E-01
         -2   -1    0    0    0  501 -0.00000000000E+00  0.00000000000E+00  0.99121542365E+03  0.99121542365E+03  0.00000000000E+00 0. -1.
          2   -1    0    0  501    0  0.00000000000E+00 -0.00000000000E+00 -0.18255541202E+04  0.18255541202E+04  0.00000000000E+00 0.  1.
    2000013    1    1    2    0    0  0.15235943096E+03 -0.63176136270E+03 -0.11460697650E+04  0.16242880662E+04  0.95000000000E+03 0.  0.
   -2000013    1    1    2    0    0 -0.15235943096E+03  0.63176136270E+03  0.31173106846E+03  0.11924814777E+04  0.95000000000E+03 0.  0.
<mgrwt>
<rscale>  0 0.26903661E+04</rscale>
<asrwt>0</asrwt>
<pdfrwt beam="2">  1        2 0.28085447E+00 0.26903661E+04</pdfrwt>
<pdfrwt beam="1">  1       -2 0.15249468E+00 0.26903661E+04</pdfrwt>
<totfact> 0.21029075E+00</totfact>
</mgrwt>
</event>
<event>
 4    1  0.2058093E-008  0.2555066E+04  0.7816531E-02  0.8383626E-01
         -2   -1    0    0    0  501 -0.00000000000E+00  0.00000000000E+00  0.11537617289E+04  0.11537617289E+04  0.00000000000E+00 0. -1.
          2   -1    0    0  501    0  0.00000000000E+00 -0.00000000000E+00 -0.14145818143E+04  0.14145818143E+04  0.00000000000E+00 0.  1.
    2000013    1    1    2    0    0 -0.50846564824E+03 -0.65804746987E+03  0.65607348910E+02  0.12642658392E+04  0.95000000000E+03 0.  0.
   -2000013    1    1    2    0    0  0.50846564824E+03  0.65804746987E+03 -0.32642743427E+03  0.13040777039E+04  0.95000000000E+03 0.  0.
<mgrwt>
<rscale>  0 0.25550658E+04</rscale>
<asrwt>0</asrwt>
<pdfrwt beam="2">  1        2 0.21762797E+00 0.25550658E+04</pdfrwt>
<pdfrwt beam="1">  1       -2 0.17750181E+00 0.25550658E+04</pdfrwt>
<totfact> 0.23786933E+00</totfact>
</mgrwt>
</event>
<event>
 4    1  0.2058093E-008  0.3746406E+04  0.7816531E-02  0.8057755E-01
          1   -1    0    0  501    0  0.00000000000E+00  0.00000000000E+00  0.30428157767E+04  0.30428157767E+04  0.00000000000E+00 0. -1.
         -1   -1    0    0    0  501 -0.00000000000E+00 -0.00000000000E+00 -0.11531721015E+04  0.11531721015E+04  0.00000000000E+00 0.  1.
    2000013    1    1    2    0    0  0.48522451506E+03 -0.15190695237E+04  0.66286731734E+03  0.19710170289E+04  0.95000000000E+03 0.  0.
   -2000013    1    1    2    0    0 -0.48522451506E+03  0.15190695237E+04  0.12267763579E+04  0.22249708493E+04  0.95000000000E+03 0.  0.
<mgrwt>
<rscale>  0 0.37464064E+04</rscale>
<asrwt>0</asrwt>
<pdfrwt beam="1">  1        1 0.46812550E+00 0.37464064E+04</pdfrwt>
<pdfrwt beam="2">  1       -1 0.17741109E+00 0.37464064E+04</pdfrwt>
<totfact> 0.96491207E-02</totfact>
</mgrwt>
</event>
<event>
 4    1  0.2058093E-008  0.2365738E+04  0.7816531E-02  0.8452443E-01
         -2   -1    0    0    0  501 -0.00000000000E+00  0.00000000000E+00  0.70396610862E+03  0.70396610862E+03  0.00000000000E+00 0. -1.
          2   -1    0    0  501    0  0.00000000000E+00 -0.00000000000E+00 -0.19875660170E+04  0.19875660170E+04  0.00000000000E+00 0.  1.
    2000013    1    1    2    0    0 -0.38046923553E+03 -0.57579127200E+03 -0.47935499566E+03  0.12682955649E+04  0.95000000000E+03 0.  0.
   -2000013    1    1    2    0    0  0.38046923553E+03  0.57579127200E+03 -0.80424491272E+03  0.14232365607E+04  0.95000000000E+03 0.  0.
<mgrwt>
<rscale>  0 0.23657380E+04</rscale>
<asrwt>0</asrwt>
<pdfrwt beam="2">  1        2 0.30577938E+00 0.23657380E+04</pdfrwt>
<pdfrwt beam="1">  1       -2 0.10830248E+00 0.23657380E+04</pdfrwt>
<totfact> 0.41761377E+00</totfact>
</mgrwt>
</event>
<event>
 4    1  0.2058093E-008  0.2385573E+04  0.7816531E-02  0.8444925E-01
         -3   -1    0    0    0  501 -0.00000000000E+00  0.00000000000E+00  0.45266942564E+03  0.45266942564E+03  0.00000000000E+00 0. -1.
          3   -1    0    0  501    0  0.00000000000E+00 -0.00000000000E+00 -0.31429979784E+04  0.31429979784E+04  0.00000000000E+00 0.  1.
    2000013    1    1    2    0    0 -0.33711845768E+03  0.26874282986E+03 -0.47360098206E+03  0.11457178768E+04  0.95000000000E+03 0.  0.
   -2000013    1    1    2    0    0  0.33711845768E+03 -0.26874282986E+03 -0.22167275707E+04  0.24499495272E+04  0.95000000000E+03 0.  0.
<mgrwt>
<rscale>  0 0.23855725E+04</rscale>
<asrwt>0</asrwt>
<pdfrwt beam="2">  1        3 0.48353816E+00 0.23855725E+04</pdfrwt>
<pdfrwt beam="1">  1       -3 0.69641449E-01 0.23855725E+04</pdfrwt>
<totfact> 0.19161833E-02</totfact>
</mgrwt>
</event>
<event>
 4    1  0.2058093E-008  0.3410072E+04  0.7816531E-02  0.8135439E-01
         -2   -1    0    0    0  501 -0.00000000000E+00  0.00000000000E+00  0.14122587349E+04  0.14122587349E+04  0.00000000000E+00 0. -1.
          2   -1    0    0  501    0  0.00000000000E+00 -0.00000000000E+00 -0.20585087350E+04  0.20585087350E+04  0.00000000000E+00 0.  1.
    2000013    1    1    2    0    0 -0.14023544963E+04 -0.19474008910E+03 -0.31174082935E+03  0.17332640250E+04  0.95000000000E+03 0.  0.
   -2000013    1    1    2    0    0  0.14023544963E+04  0.19474008910E+03 -0.33450917072E+03  0.17375034449E+04  0.95000000000E+03 0.  0.
<mgrwt>
<rscale>  0 0.34100715E+04</rscale>
<asrwt>0</asrwt>
<pdfrwt beam="2">  1        2 0.31669365E+00 0.34100715E+04</pdfrwt>
<pdfrwt beam="1">  1       -2 0.21727057E+00 0.34100715E+04</pdfrwt>
<totfact> 0.52775565E-01</totfact>
</mgrwt>
</event>
<event>
 4    1  0.2058093E-008  0.2804355E+04  0.7816531E-02  0.8301918E-01
         -2   -1    0    0    0  501 -0.00000000000E+00  0.00000000000E+00  0.75437966488E+03  0.75437966488E+03  0.00000000000E+00 0. -1.
          2   -1    0    0  501    0  0.00000000000E+00 -0.00000000000E+00 -0.26062487613E+04  0.26062487613E+04  0.00000000000E+00 0.  1.
    2000013    1    1    2    0    0  0.10375478261E+03 -0.94087759093E+03 -0.43535929783E+03  0.14099834801E+04  0.95000000000E+03 0.  0.
   -2000013    1    1    2    0    0 -0.10375478261E+03  0.94087759093E+03 -0.14165097986E+04  0.19506449461E+04  0.95000000000E+03 0.  0.
<mgrwt>
<rscale>  0 0.28043545E+04</rscale>
<asrwt>0</asrwt>
<pdfrwt beam="2">  1        2 0.40096135E+00 0.28043545E+04</pdfrwt>
<pdfrwt beam="1">  1       -2 0.11605841E+00 0.28043545E+04</pdfrwt>
<totfact> 0.15130033E+00</totfact>
</mgrwt>
</event>
<event>
 4    1  0.2058093E-008  0.2960842E+04  0.7816531E-02  0.8255002E-01
         -2   -1    0    0    0  501 -0.00000000000E+00  0.00000000000E+00  0.16507221468E+04  0.16507221468E+04  0.00000000000E+00 0. -1.
          2   -1    0    0  501    0  0.00000000000E+00 -0.00000000000E+00 -0.13276896310E+04  0.13276896310E+04  0.00000000000E+00 0.  1.
    2000013    1    1    2    0    0  0.98298630190E+03 -0.40145736244E+03 -0.24301004710E+03  0.14453317843E+04  0.95000000000E+03 0.  0.
   -2000013    1    1    2    0    0 -0.98298630190E+03  0.40145736244E+03  0.56604256285E+03  0.15330799935E+04  0.95000000000E+03 0.  0.
<mgrwt>
<rscale>  0 0.29608422E+04</rscale>
<asrwt>0</asrwt>
<pdfrwt beam="2">  1        2 0.20425994E+00 0.29608422E+04</pdfrwt>
<pdfrwt beam="1">  1       -2 0.25395725E+00 0.29608422E+04</pdfrwt>
<totfact> 0.83116989E-01</totfact>
</mgrwt>
</event>
<event>
 4    1  0.2058093E-008  0.2311169E+04  0.7816531E-02  0.8473530E-01
          2   -1    0    0  501    0  0.00000000000E+00  0.00000000000E+00  0.23918493112E+04  0.23918493112E+04  0.00000000000E+00 0.  1.
         -2   -1    0    0    0  501 -0.00000000000E+00 -0.00000000000E+00 -0.55830269547E+03  0.55830269547E+03  0.00000000000E+00 0. -1.
    2000013    1    1    2    0    0 -0.14122343490E+03 -0.55557530406E+03  0.13289543623E+04  0.17312503210E+04  0.95000000000E+03 0.  0.
   -2000013    1    1    2    0    0  0.14122343490E+03  0.55557530406E+03  0.50459225347E+03  0.12189016857E+04  0.95000000000E+03 0.  0.
<mgrwt>
<rscale>  0 0.23111693E+04</rscale>
<asrwt>0</asrwt>
<pdfrwt beam="1">  1        2 0.36797681E+00 0.23111693E+04</pdfrwt>
<pdfrwt beam="2">  1       -2 0.85892724E-01 0.23111693E+04</pdfrwt>
<totfact> 0.42819767E+00</totfact>
</mgrwt>
</event>
<event>
 4    1  0.2058093E-008  0.1962545E+04  0.7816531E-02  0.8624335E-01
         -2   -1    0    0    0  501 -0.00000000000E+00  0.00000000000E+00  0.29792967265E+03  0.29792967265E+03  0.00000000000E+00 0. -1.
          2   -1    0    0  501    0  0.00000000000E+00 -0.00000000000E+00 -0.32319569894E+04  0.32319569894E+04  0.00000000000E+00 0.  1.
    2000013    1    1    2    0    0 -0.11417529881E+03 -0.16825374111E+03 -0.12187603417E+04  0.15585961923E+04  0.95000000000E+03 0.  0.
   -2000013    1    1    2    0    0  0.11417529881E+03  0.16825374111E+03 -0.17152669750E+04  0.19712904697E+04  0.95000000000E+03 0.  0.
<mgrwt>
<rscale>  0 0.19625452E+04</rscale>
<asrwt>0</asrwt>
<pdfrwt beam="2">  1        2 0.49722414E+00 0.19625452E+04</pdfrwt>
<pdfrwt beam="1">  1       -2 0.45835335E-01 0.19625452E+04</pdfrwt>
<totfact> 0.52184673E+00</totfact>
</mgrwt>
</event>
<event>
 4    1  0.2058093E-008  0.2381596E+04  0.7816531E-02  0.8446426E-01
         -2   -1    0    0    0  501 -0.00000000000E+00  0.00000000000E+00  0.81525528352E+03  0.81525528352E+03  0.00000000000E+00 0. -1.
          2   -1    0    0  501    0  0.00000000000E+00 -0.00000000000E+00 -0.17393322094E+04  0.17393322094E+04  0.00000000000E+00 0.  1.
    2000013    1    1    2    0    0 -0.25238355790E+03 -0.54819015166E+03 -0.87925126984E+03  0.14282131137E+04  0.95000000000E+03 0.  0.
   -2000013    1    1    2    0    0  0.25238355790E+03  0.54819015166E+03 -0.44825656042E+02  0.11263743792E+04  0.95000000000E+03 0.  0.
<mgrwt>
<rscale>  0 0.23815959E+04</rscale>
<asrwt>0</asrwt>
<pdfrwt beam="2">  1        2 0.26758957E+00 0.23815959E+04</pdfrwt>
<pdfrwt beam="1">  1       -2 0.12542389E+00 0.23815959E+04</pdfrwt>
<totfact> 0.39930459E+00</totfact>
</mgrwt>
</event>
<event>
 4    1  0.2058093E-008  0.2668740E+04  0.7816531E-02  0.8345219E-01
          2   -1    0    0  501    0  0.00000000000E+00  0.00000000000E+00  0.23718433124E+04  0.23718433124E+04  0.00000000000E+00 0.  1.
         -2   -1    0    0    0  501 -0.00000000000E+00 -0.00000000000E+00 -0.75070032127E+03  0.75070032127E+03  0.00000000000E+00 0. -1.
    2000013    1    1    2    0    0 -0.92340985117E+01  0.88197336231E+03  0.11807222130E+04  0.17534443888E+04  0.95000000000E+03 0.  0.
   -2000013    1    1    2    0    0  0.92340985117E+01 -0.88197336231E+03  0.44042077809E+03  0.13690992448E+04  0.95000000000E+03 0.  0.
<mgrwt>
<rscale>  0 0.26687402E+04</rscale>
<asrwt>0</asrwt>
<pdfrwt beam="1">  1        2 0.36489897E+00 0.26687402E+04</pdfrwt>
<pdfrwt beam="2">  1       -2 0.11549236E+00 0.26687402E+04</pdfrwt>
<totfact> 0.21171657E+00</totfact>
</mgrwt>
</event>
<event>
 4    1  0.2058093E-008  0.3835320E+04  0.7816531E-02  0.8038617E-01
         -2   -1    0    0    0  501 -0.00000000000E+00  0.00000000000E+00  0.16115722096E+04  0.16115722096E+04  0.00000000000E+00 0. -1.
          2   -1    0    0  501    0  0.00000000000E+00 -0.00000000000E+00 -0.22818838445E+04  0.22818838445E+04  0.00000000000E+00 0.  1.
    2000013    1    1    2    0    0  0.15714213250E+04 -0.32681237701E+03  0.11741485848E+03  0.18688118042E+04  0.95000000000E+03 0.  0.
   -2000013    1    1    2    0    0 -0.15714213250E+04  0.32681237701E+03 -0.78772649346E+03  0.20246442500E+04  0.95000000000E+03 0.  0.
<mgrwt>
<rscale>  0 0.38353204E+04</rscale>
<asrwt>0</asrwt>
<pdfrwt beam="2">  1        2 0.35105905E+00 0.38353204E+04</pdfrwt>
<pdfrwt beam="1">  1       -2 0.24793419E+00 0.38353204E+04</pdfrwt>
<totfact> 0.24560804E-01</totfact>
</mgrwt>
</event>
<event>
 4    1  0.2058093E-008  0.2158489E+04  0.7816531E-02  0.8535907E-01
         -2   -1    0    0    0  501 -0.00000000000E+00  0.00000000000E+00  0.33145166467E+03  0.33145166467E+03  0.00000000000E+00 0. -1.
          2   -1    0    0  501    0  0.00000000000E+00 -0.00000000000E+00 -0.35141419808E+04  0.35141419808E+04  0.00000000000E+00 0.  1.
    2000013    1    1    2    0    0 -0.42820009296E+02 -0.37289407627E+03 -0.97062542522E+03  0.14090767408E+04  0.95000000000E+03 0.  0.
   -2000013    1    1    2    0    0  0.42820009296E+02  0.37289407627E+03 -0.22120648909E+04  0.24365169047E+04  0.95000000000E+03 0.  0.
<mgrwt>
<rscale>  0 0.21584886E+04</rscale>
<asrwt>0</asrwt>
<pdfrwt beam="2">  1        2 0.54063726E+00 0.21584886E+04</pdfrwt>
<pdfrwt beam="1">  1       -2 0.50992560E-01 0.21584886E+04</pdfrwt>
<totfact> 0.26597863E+00</totfact>
</mgrwt>
</event>
<event>
 4    1  0.2058093E-008  0.3020735E+04  0.7816531E-02  0.8237835E-01
         -2   -1    0    0    0  501 -0.00000000000E+00  0.00000000000E+00  0.71234380256E+03  0.71234380256E+03  0.00000000000E+00 0. -1.
          2   -1    0    0  501    0  0.00000000000E+00 -0.00000000000E+00 -0.32023995692E+04  0.32023995692E+04  0.00000000000E+00 0.  1.
    2000013    1    1    2    0    0  0.80146799638E+03 -0.39709385442E+03 -0.22308716175E+04  0.25844385565E+04  0.95000000000E+03 0.  0.
   -2000013    1    1    2    0    0 -0.80146799638E+03  0.39709385442E+03 -0.25918414916E+03  0.13303048153E+04  0.95000000000E+03 0.  0.
<mgrwt>
<rscale>  0 0.30207347E+04</rscale>
<asrwt>0</asrwt>
<pdfrwt beam="2">  1        2 0.49267686E+00 0.30207347E+04</pdfrwt>
<pdfrwt beam="1">  1       -2 0.10959135E+00 0.30207347E+04</pdfrwt>
<totfact> 0.73148275E-01</totfact>
</mgrwt>
</event>
<event>
 4    1  0.2058093E-008  0.2897866E+04  0.7816531E-02  0.8273513E-01
          2   -1    0    0  501    0  0.00000000000E+00  0.00000000000E+00  0.19717359667E+04  0.19717359667E+04  0.00000000000E+00 0.  1.
         -2   -1    0    0    0  501 -0.00000000000E+00 -0.00000000000E+00 -0.10647503550E+04  0.10647503550E+04  0.00000000000E+00 0. -1.
    2000013    1    1    2    0    0  0.81247437123E+03  0.72814946209E+03  0.36842865902E+03  0.14928348602E+04  0.95000000000E+03 0.  0.
   -2000013    1    1    2    0    0 -0.81247437123E+03 -0.72814946209E+03  0.53855695268E+03  0.15436514614E+04  0.95000000000E+03 0.  0.
<mgrwt>
<rscale>  0 0.28978658E+04</rscale>
<asrwt>0</asrwt>
<pdfrwt beam="1">  1        2 0.30334399E+00 0.28978658E+04</pdfrwt>
<pdfrwt beam="2">  1       -2 0.16380775E+00 0.28978658E+04</pdfrwt>
<totfact> 0.14125129E+00</totfact>
</mgrwt>
</event>
<event>
 4    1  0.2058093E-008  0.2797114E+04  0.7816531E-02  0.8304165E-01
          2   -1    0    0  501    0  0.00000000000E+00  0.00000000000E+00  0.10092337755E+04  0.10092337755E+04  0.00000000000E+00 0.  1.
         -2   -1    0    0    0  501 -0.00000000000E+00 -0.00000000000E+00 -0.19380655291E+04  0.19380655291E+04  0.00000000000E+00 0. -1.
    2000013    1    1    2    0    0 -0.23438704113E+03  0.49304536522E+03  0.45140658927E+03  0.11850311920E+04  0.95000000000E+03 0.  0.
   -2000013    1    1    2    0    0  0.23438704113E+03 -0.49304536522E+03 -0.13802383429E+04  0.17622681125E+04  0.95000000000E+03 0.  0.
<mgrwt>
<rscale>  0 0.27971136E+04</rscale>
<asrwt>0</asrwt>
<pdfrwt beam="1">  1        2 0.15526673E+00 0.27971136E+04</pdfrwt>
<pdfrwt beam="2">  1       -2 0.29816393E+00 0.27971136E+04</pdfrwt>
<totfact> 0.70535426E-01</totfact>
</mgrwt>
</event>
<event>
 4    1  0.2058093E-008  0.2459668E+04  0.7816531E-02  0.8417496E-01
         -1   -1    0    0    0  501 -0.00000000000E+00  0.00000000000E+00  0.19454013354E+04  0.19454013354E+04  0.00000000000E+00 0. -1.
          1   -1    0    0  501    0  0.00000000000E+00 -0.00000000000E+00 -0.77747047701E+03  0.77747047701E+03  0.00000000000E+00 0.  1.
    2000013    1    1    2    0    0  0.43051114911E+03 -0.50324466846E+03  0.10422680326E+04  0.15580172328E+04  0.95000000000E+03 0.  0.
   -2000013    1    1    2    0    0 -0.43051114911E+03  0.50324466846E+03  0.12566282575E+03  0.11648545796E+04  0.95000000000E+03 0.  0.
<mgrwt>
<rscale>  0 0.24596684E+04</rscale>
<asrwt>0</asrwt>
<pdfrwt beam="2">  1        1 0.11961084E+00 0.24596684E+04</pdfrwt>
<pdfrwt beam="1">  1       -1 0.29929251E+00 0.24596684E+04</pdfrwt>
<totfact> 0.68869329E-01</totfact>
</mgrwt>
</event>
<event>
 4    1  0.2058093E-008  0.2584157E+04  0.7816531E-02  0.8373603E-01
          2   -1    0    0  501    0  0.00000000000E+00  0.00000000000E+00  0.45411257750E+04  0.45411257750E+04  0.00000000000E+00 0.  1.
         -2   -1    0    0    0  501 -0.00000000000E+00 -0.00000000000E+00 -0.36763277218E+03  0.36763277218E+03  0.00000000000E+00 0. -1.
    2000013    1    1    2    0    0 -0.80724004464E+03  0.16766361349E+03  0.15257520680E+04  0.19774142080E+04  0.95000000000E+03 0.  0.
   -2000013    1    1    2    0    0  0.80724004464E+03 -0.16766361349E+03  0.26477409348E+04  0.29313443392E+04  0.95000000000E+03 0.  0.
<mgrwt>
<rscale>  0 0.25841569E+04</rscale>
<asrwt>0</asrwt>
<pdfrwt beam="1">  1        2 0.69863470E+00 0.25841569E+04</pdfrwt>
<pdfrwt beam="2">  1       -2 0.56558891E-01 0.25841569E+04</pdfrwt>
<totfact> 0.29251688E-01</totfact>
</mgrwt>
</event>
<event>
 4    1  0.2058093E-008  0.2300319E+04  0.7816531E-02  0.8477795E-01
         -2   -1    0    0    0  501 -0.00000000000E+00  0.00000000000E+00  0.10868439161E+04  0.10868439161E+04  0.00000000000E+00 0.  1.
          2   -1    0    0  501    0  0.00000000000E+00 -0.00000000000E+00 -0.12171636901E+04  0.12171636901E+04  0.00000000000E+00 0. -1.
    2000013    1    1    2    0    0 -0.30391958066E+01  0.43788677526E+03  0.41374159756E+03  0.11249160743E+04  0.95000000000E+03 0.  0.
   -2000013    1    1    2    0    0  0.30391958066E+01 -0.43788677526E+03 -0.54406137157E+03  0.11790915319E+04  0.95000000000E+03 0.  0.
<mgrwt>
<rscale>  0 0.23003191E+04</rscale>
<asrwt>0</asrwt>
<pdfrwt beam="2">  1        2 0.18725595E+00 0.23003191E+04</pdfrwt>
<pdfrwt beam="1">  1       -2 0.16720676E+00 0.23003191E+04</pdfrwt>
<totfact> 0.37430288E+00</totfact>
</mgrwt>
</event>
<event>
 4    1  0.2058093E-008  0.2223826E+04  0.7816531E-02  0.8508576E-01
         -2   -1    0    0    0  501 -0.00000000000E+00  0.00000000000E+00  0.52294572478E+03  0.52294572478E+03  0.00000000000E+00 0. -1.
          2   -1    0    0  501    0  0.00000000000E+00 -0.00000000000E+00 -0.23642042909E+04  0.23642042909E+04  0.00000000000E+00 0.  1.
    2000013    1    1    2    0    0 -0.22988312258E+03  0.49091045334E+03 -0.66093681659E+03  0.12779580583E+04  0.95000000000E+03 0.  0.
   -2000013    1    1    2    0    0  0.22988312258E+03 -0.49091045334E+03 -0.11803217495E+04  0.16091919573E+04  0.95000000000E+03 0.  0.
<mgrwt>
<rscale>  0 0.22238260E+04</rscale>
<asrwt>0</asrwt>
<pdfrwt beam="2">  1        2 0.36372373E+00 0.22238260E+04</pdfrwt>
<pdfrwt beam="1">  1       -2 0.80453189E-01 0.22238260E+04</pdfrwt>
<totfact> 0.51885177E+00</totfact>
</mgrwt>
</event>
<event>
 4    1  0.2058093E-008  0.2048864E+04  0.7816531E-02  0.8584110E-01
          2   -1    0    0  501    0  0.00000000000E+00  0.00000000000E+00  0.17727843734E+04  0.17727843734E+04  0.00000000000E+00 0.  1.
         -2   -1    0    0    0  501 -0.00000000000E+00 -0.00000000000E+00 -0.59198471185E+03  0.59198471185E+03  0.00000000000E+00 0. -1.
    2000013    1    1    2    0    0  0.31881442139E+03  0.18125976528E+03  0.46154648475E+03  0.11180442278E+04  0.95000000000E+03 0.  0.
   -2000013    1    1    2    0    0 -0.31881442139E+03 -0.18125976528E+03  0.71925317680E+03  0.12467248574E+04  0.95000000000E+03 0.  0.
<mgrwt>
<rscale>  0 0.20488643E+04</rscale>
<asrwt>0</asrwt>
<pdfrwt beam="1">  1        2 0.27273606E+00 0.20488643E+04</pdfrwt>
<pdfrwt beam="2">  1       -2 0.91074572E-01 0.20488643E+04</pdfrwt>
<totfact> 0.85006895E+00</totfact>
</mgrwt>
</event>
<event>
 4    1  0.2058093E-008  0.2564096E+04  0.7816531E-02  0.8380500E-01
          2   -1    0    0  501    0  0.00000000000E+00  0.00000000000E+00  0.39544953470E+04  0.39544953470E+04  0.00000000000E+00 0.  1.
         -2   -1    0    0    0  501 -0.00000000000E+00 -0.00000000000E+00 -0.41564002196E+03  0.41564002196E+03  0.00000000000E+00 0. -1.
    2000013    1    1    2    0    0 -0.10457036412E+03 -0.83168304755E+03  0.21039113604E+04  0.24559264372E+04  0.95000000000E+03 0.  0.
   -2000013    1    1    2    0    0  0.10457036412E+03  0.83168304755E+03  0.14349439646E+04  0.19142089317E+04  0.95000000000E+03 0.  0.
<mgrwt>
<rscale>  0 0.25640956E+04</rscale>
<asrwt>0</asrwt>
<pdfrwt beam="1">  1        2 0.60838387E+00 0.25640956E+04</pdfrwt>
<pdfrwt beam="2">  1       -2 0.63944621E-01 0.25640956E+04</pdfrwt>
<totfact> 0.74863793E-01</totfact>
</mgrwt>
</event>
<event>
 4    1  0.2058093E-008  0.2571035E+04  0.7816531E-02  0.8378107E-01
          2   -1    0    0  501    0  0.00000000000E+00  0.00000000000E+00  0.14896122820E+04  0.14896122820E+04  0.00000000000E+00 0.  1.
         -2   -1    0    0    0  501 -0.00000000000E+00 -0.00000000000E+00 -0.11093861998E+04  0.11093861998E+04  0.00000000000E+00 0. -1.
    2000013    1    1    2    0    0  0.77468827787E+03 -0.14381854187E+03 -0.17328203774E+03  0.12463355750E+04  0.95000000000E+03 0.  0.
   -2000013    1    1    2    0    0 -0.77468827787E+03  0.14381854187E+03  0.55350811994E+03  0.13526629069E+04  0.95000000000E+03 0.  0.
<mgrwt>
<rscale>  0 0.25710351E+04</rscale>
<asrwt>0</asrwt>
<pdfrwt beam="1">  1        2 0.22917112E+00 0.25710351E+04</pdfrwt>
<pdfrwt beam="2">  1       -2 0.17067480E+00 0.25710351E+04</pdfrwt>
<totfact> 0.24051917E+00</totfact>
</mgrwt>
</event>
<event>
 4    1  0.2058093E-008  0.4500404E+04  0.7816531E-02  0.7910566E-01
          2   -1    0    0  501    0  0.00000000000E+00  0.00000000000E+00  0.25920299770E+04  0.25920299770E+04  0.00000000000E+00 0.  1.
         -2   -1    0    0    0  501 -0.00000000000E+00 -0.00000000000E+00 -0.19534532040E+04  0.19534532040E+04  0.00000000000E+00 0. -1.
    2000013    1    1    2    0    0 -0.19646126782E+04  0.48321381736E+03  0.56469132363E+02  0.22358191634E+04  0.95000000000E+03 0.  0.
   -2000013    1    1    2    0    0  0.19646126782E+04 -0.48321381736E+03  0.58210764066E+03  0.23096640175E+04  0.95000000000E+03 0.  0.
<mgrwt>
<rscale>  0 0.45004041E+04</rscale>
<asrwt>0</asrwt>
<pdfrwt beam="1">  1        2 0.39877384E+00 0.45004041E+04</pdfrwt>
<pdfrwt beam="2">  1       -2 0.30053126E+00 0.45004041E+04</pdfrwt>
<totfact> 0.73526034E-02</totfact>
</mgrwt>
</event>
<event>
 4    1  0.2058093E-008  0.2250547E+04  0.7816531E-02  0.8497679E-01
         -2   -1    0    0    0  501 -0.00000000000E+00  0.00000000000E+00  0.48810135344E+03  0.48810135344E+03  0.00000000000E+00 0. -1.
          2   -1    0    0  501    0  0.00000000000E+00 -0.00000000000E+00 -0.25942173648E+04  0.25942173648E+04  0.00000000000E+00 0.  1.
    2000013    1    1    2    0    0  0.55750564017E+03  0.10154873728E+03 -0.13357915541E+04  0.17343482236E+04  0.95000000000E+03 0.  0.
   -2000013    1    1    2    0    0 -0.55750564017E+03 -0.10154873728E+03 -0.77032445729E+03  0.13479704946E+04  0.95000000000E+03 0.  0.
<mgrwt>
<rscale>  0 0.22505475E+04</rscale>
<asrwt>0</asrwt>
<pdfrwt beam="2">  1        2 0.39911036E+00 0.22505475E+04</pdfrwt>
<pdfrwt beam="1">  1       -2 0.75092517E-01 0.22505475E+04</pdfrwt>
<totfact> 0.44466031E+00</totfact>
</mgrwt>
</event>
<event>
 4    1  0.2058093E-008  0.2555216E+04  0.7816531E-02  0.8383575E-01
          2   -1    0    0  501    0  0.00000000000E+00  0.00000000000E+00  0.11444372751E+04  0.11444372751E+04  0.00000000000E+00 0.  1.
         -2   -1    0    0    0  501 -0.00000000000E+00 -0.00000000000E+00 -0.14262743810E+04  0.14262743810E+04  0.00000000000E+00 0. -1.
    2000013    1    1    2    0    0  0.19111991659E+03  0.66908245431E+03  0.35765053529E+03  0.12306957620E+04  0.95000000000E+03 0.  0.
   -2000013    1    1    2    0    0 -0.19111991659E+03 -0.66908245431E+03 -0.63948764117E+03  0.13400158941E+04  0.95000000000E+03 0.  0.
<mgrwt>
<rscale>  0 0.25552155E+04</rscale>
<asrwt>0</asrwt>
<pdfrwt beam="1">  1        2 0.17606727E+00 0.25552155E+04</pdfrwt>
<pdfrwt beam="2">  1       -2 0.21942683E+00 0.25552155E+04</pdfrwt>
<totfact> 0.18104128E+00</totfact>
</mgrwt>
</event>
<event>
 4    1  0.2058093E-008  0.2308484E+04  0.7816531E-02  0.8474583E-01
         -1   -1    0    0    0  501 -0.00000000000E+00  0.00000000000E+00  0.81246021789E+03  0.81246021789E+03  0.00000000000E+00 0. -1.
          1   -1    0    0  501    0  0.00000000000E+00 -0.00000000000E+00 -0.16398034793E+04  0.16398034793E+04  0.00000000000E+00 0.  1.
    2000013    1    1    2    0    0  0.25731309250E+03  0.42742667337E+03  0.38106592770E+02  0.10737111814E+04  0.95000000000E+03 0.  0.
   -2000013    1    1    2    0    0 -0.25731309250E+03 -0.42742667337E+03 -0.86544985420E+03  0.13785525158E+04  0.95000000000E+03 0.  0.
<mgrwt>
<rscale>  0 0.23084844E+04</rscale>
<asrwt>0</asrwt>
<pdfrwt beam="2">  1        1 0.25227745E+00 0.23084844E+04</pdfrwt>
<pdfrwt beam="1">  1       -1 0.12499388E+00 0.23084844E+04</pdfrwt>
<totfact> 0.26488600E+00</totfact>
</mgrwt>
</event>
<event>
 4    1  0.2058093E-008  0.2029745E+04  0.7816531E-02  0.8592839E-01
         -2   -1    0    0    0  501 -0.00000000000E+00  0.00000000000E+00  0.84052132759E+03  0.84052132759E+03  0.00000000000E+00 0. -1.
          2   -1    0    0  501    0  0.00000000000E+00 -0.00000000000E+00 -0.12253892091E+04  0.12253892091E+04  0.00000000000E+00 0.  1.
    2000013    1    1    2    0    0 -0.31711566333E+03 -0.15580362384E+03 -0.24461785383E+03  0.10426768471E+04  0.95000000000E+03 0.  0.
   -2000013    1    1    2    0    0  0.31711566333E+03  0.15580362384E+03 -0.14025002766E+03  0.10232336895E+04  0.95000000000E+03 0.  0.
<mgrwt>
<rscale>  0 0.20297446E+04</rscale>
<asrwt>0</asrwt>
<pdfrwt beam="2">  1        2 0.18852142E+00 0.20297446E+04</pdfrwt>
<pdfrwt beam="1">  1       -2 0.12931097E+00 0.20297446E+04</pdfrwt>
<totfact> 0.74637325E+00</totfact>
</mgrwt>
</event>
<event>
 4    1  0.2058093E-008  0.2440808E+04  0.7816531E-02  0.8424382E-01
          2   -1    0    0  501    0  0.00000000000E+00  0.00000000000E+00  0.32629784080E+04  0.32629784080E+04  0.00000000000E+00 0.  1.
         -2   -1    0    0    0  501 -0.00000000000E+00 -0.00000000000E+00 -0.45644980056E+03  0.45644980056E+03  0.00000000000E+00 0. -1.
    2000013    1    1    2    0    0  0.24692598427E+03 -0.71971930924E+03  0.12676713578E+04  0.17574012055E+04  0.95000000000E+03 0.  0.
   -2000013    1    1    2    0    0 -0.24692598427E+03  0.71971930924E+03  0.15388572497E+04  0.19620270030E+04  0.95000000000E+03 0.  0.
<mgrwt>
<rscale>  0 0.24408079E+04</rscale>
<asrwt>0</asrwt>
<pdfrwt beam="1">  1        2 0.50199666E+00 0.24408079E+04</pdfrwt>
<pdfrwt beam="2">  1       -2 0.70223048E-01 0.24408079E+04</pdfrwt>
<totfact> 0.19521026E+00</totfact>
</mgrwt>
</event>
<event>
 4    1  0.2058093E-008  0.2330305E+04  0.7816531E-02  0.8466067E-01
          2   -1    0    0  501    0  0.00000000000E+00  0.00000000000E+00  0.10925792176E+04  0.10925792176E+04  0.00000000000E+00 0.  1.
         -2   -1    0    0    0  501 -0.00000000000E+00 -0.00000000000E+00 -0.12425468406E+04  0.12425468406E+04  0.00000000000E+00 0. -1.
    2000013    1    1    2    0    0  0.45086270083E+03 -0.44175392081E+03  0.16353621973E+03  0.11522446774E+04  0.95000000000E+03 0.  0.
   -2000013    1    1    2    0    0 -0.45086270083E+03  0.44175392081E+03 -0.31350384276E+03  0.11828813808E+04  0.95000000000E+03 0.  0.
<mgrwt>
<rscale>  0 0.23303054E+04</rscale>
<asrwt>0</asrwt>
<pdfrwt beam="1">  1        2 0.16808911E+00 0.23303054E+04</pdfrwt>
<pdfrwt beam="2">  1       -2 0.19116105E+00 0.23303054E+04</pdfrwt>
<totfact> 0.30312157E+00</totfact>
</mgrwt>
</event>
<event>
 4    1  0.2058093E-008  0.2330643E+04  0.7816531E-02  0.8465936E-01
         -2   -1    0    0    0  501 -0.00000000000E+00  0.00000000000E+00  0.79779346729E+03  0.79779346729E+03  0.00000000000E+00 0. -1.
          2   -1    0    0  501    0  0.00000000000E+00 -0.00000000000E+00 -0.17021627440E+04  0.17021627440E+04  0.00000000000E+00 0.  1.
    2000013    1    1    2    0    0  0.42882034182E+03 -0.34744354719E+03 -0.86882243706E+03  0.14006985154E+04  0.95000000000E+03 0.  0.
   -2000013    1    1    2    0    0 -0.42882034182E+03  0.34744354719E+03 -0.35546839629E+02  0.10992576958E+04  0.95000000000E+03 0.  0.
<mgrwt>
<rscale>  0 0.23306431E+04</rscale>
<asrwt>0</asrwt>
<pdfrwt beam="2">  1        2 0.26187119E+00 0.23306431E+04</pdfrwt>
<pdfrwt beam="1">  1       -2 0.12273746E+00 0.23306431E+04</pdfrwt>
<totfact> 0.44399065E+00</totfact>
</mgrwt>
</event>
<event>
 4    1  0.2058093E-008  0.3038732E+04  0.7816531E-02  0.8232757E-01
         -2   -1    0    0    0  501 -0.00000000000E+00  0.00000000000E+00  0.12379638633E+04  0.12379638633E+04  0.00000000000E+00 0. -1.
          2   -1    0    0  501    0  0.00000000000E+00 -0.00000000000E+00 -0.18647332503E+04  0.18647332503E+04  0.00000000000E+00 0.  1.
    2000013    1    1    2    0    0  0.87202512337E+03  0.20188126762E+03  0.48066706692E+03  0.13909438131E+04  0.95000000000E+03 0.  0.
   -2000013    1    1    2    0    0 -0.87202512337E+03 -0.20188126762E+03 -0.11074364539E+04  0.17117533004E+04  0.95000000000E+03 0.  0.
<mgrwt>
<rscale>  0 0.30387316E+04</rscale>
<asrwt>0</asrwt>
<pdfrwt beam="2">  1        2 0.28688204E+00 0.30387316E+04</pdfrwt>
<pdfrwt beam="1">  1       -2 0.19045598E+00 0.30387316E+04</pdfrwt>
<totfact> 0.10433749E+00</totfact>
</mgrwt>
</event>
<event>
 4    1  0.2058093E-008  0.2866552E+04  0.7816531E-02  0.8282899E-01
          2   -1    0    0  501    0  0.00000000000E+00  0.00000000000E+00  0.24473379520E+04  0.24473379520E+04  0.00000000000E+00 0.  1.
         -2   -1    0    0    0  501 -0.00000000000E+00 -0.00000000000E+00 -0.83939382746E+03  0.83939382746E+03  0.00000000000E+00 0. -1.
    2000013    1    1    2    0    0 -0.24782166386E+03  0.81690338353E+03  0.58224452130E+02  0.12785291557E+04  0.95000000000E+03 0.  0.
   -2000013    1    1    2    0    0  0.24782166386E+03 -0.81690338353E+03  0.15497196724E+04  0.20082026238E+04  0.95000000000E+03 0.  0.
<mgrwt>
<rscale>  0 0.28665522E+04</rscale>
<asrwt>0</asrwt>
<pdfrwt beam="1">  1        2 0.37651353E+00 0.28665522E+04</pdfrwt>
<pdfrwt beam="2">  1       -2 0.12913751E+00 0.28665522E+04</pdfrwt>
<totfact> 0.14270329E+00</totfact>
</mgrwt>
</event>
<event>
 4    1  0.2058093E-008  0.2698524E+04  0.7816531E-02  0.8335484E-01
          2   -1    0    0  501    0  0.00000000000E+00  0.00000000000E+00  0.18989990489E+04  0.18989990489E+04  0.00000000000E+00 0.  1.
         -2   -1    0    0    0  501 -0.00000000000E+00 -0.00000000000E+00 -0.95866699874E+03  0.95866699874E+03  0.00000000000E+00 0. -1.
    2000013    1    1    2    0    0  0.19428561914E+03 -0.91130814024E+03  0.23389786132E+03  0.13510875759E+04  0.95000000000E+03 0.  0.
   -2000013    1    1    2    0    0 -0.19428561914E+03  0.91130814024E+03  0.70643418884E+03  0.15065784717E+04  0.95000000000E+03 0.  0.
<mgrwt>
<rscale>  0 0.26985238E+04</rscale>
<asrwt>0</asrwt>
<pdfrwt beam="1">  1        2 0.29215370E+00 0.26985238E+04</pdfrwt>
<pdfrwt beam="2">  1       -2 0.14748723E+00 0.26985238E+04</pdfrwt>
<totfact> 0.20904051E+00</totfact>
</mgrwt>
</event>
<event>
 4    1  0.2058093E-008  0.2633886E+04  0.7816531E-02  0.8356781E-01
         -2   -1    0    0    0  501 -0.00000000000E+00  0.00000000000E+00  0.35929667983E+04  0.35929667983E+04  0.00000000000E+00 0. -1.
          2   -1    0    0  501    0  0.00000000000E+00 -0.00000000000E+00 -0.48270398883E+03  0.48270398883E+03  0.00000000000E+00 0.  1.
    2000013    1    1    2    0    0 -0.77945658339E+03  0.37439696012E+03  0.11063492612E+04  0.16953566990E+04  0.95000000000E+03 0.  0.
   -2000013    1    1    2    0    0  0.77945658339E+03 -0.37439696012E+03  0.20039135482E+04  0.23803140881E+04  0.95000000000E+03 0.  0.
<mgrwt>
<rscale>  0 0.26338864E+04</rscale>
<asrwt>0</asrwt>
<pdfrwt beam="2">  1        2 0.74262154E-01 0.26338864E+04</pdfrwt>
<pdfrwt beam="1">  1       -2 0.55276411E+00 0.26338864E+04</pdfrwt>
<totfact> 0.46263238E-02</totfact>
</mgrwt>
</event>
<event>
 4    1  0.2058093E-008  0.2720466E+04  0.7816531E-02  0.8328395E-01
         -2   -1    0    0    0  501 -0.00000000000E+00  0.00000000000E+00  0.41787525096E+03  0.41787525096E+03  0.00000000000E+00 0. -1.
          2   -1    0    0  501    0  0.00000000000E+00 -0.00000000000E+00 -0.44277164837E+04  0.44277164837E+04  0.00000000000E+00 0.  1.
    2000013    1    1    2    0    0  0.93178302197E+03 -0.26446541145E+03 -0.18306615111E+04  0.22785923554E+04  0.95000000000E+03 0.  0.
   -2000013    1    1    2    0    0 -0.93178302197E+03  0.26446541145E+03 -0.21791797217E+04  0.25669993793E+04  0.95000000000E+03 0.  0.
<mgrwt>
<rscale>  0 0.27204655E+04</rscale>
<asrwt>0</asrwt>
<pdfrwt beam="2">  1        2 0.68118715E+00 0.27204655E+04</pdfrwt>
<pdfrwt beam="1">  1       -2 0.64288500E-01 0.27204655E+04</pdfrwt>
<totfact> 0.28356732E-01</totfact>
</mgrwt>
</event>
<event>
 4    1  0.2058093E-008  0.2395916E+04  0.7816531E-02  0.8441034E-01
         -2   -1    0    0    0  501 -0.00000000000E+00  0.00000000000E+00  0.18045432287E+04  0.18045432287E+04  0.00000000000E+00 0.  1.
          2   -1    0    0  501    0  0.00000000000E+00 -0.00000000000E+00 -0.79527216766E+03  0.79527216766E+03  0.00000000000E+00 0. -1.
    2000013    1    1    2    0    0 -0.48060277006E+03  0.53955572900E+03  0.39342650860E+03  0.12567353838E+04  0.95000000000E+03 0.  0.
   -2000013    1    1    2    0    0  0.48060277006E+03 -0.53955572900E+03  0.61584455244E+03  0.13430800125E+04  0.95000000000E+03 0.  0.
<mgrwt>
<rscale>  0 0.23959157E+04</rscale>
<asrwt>0</asrwt>
<pdfrwt beam="2">  1        2 0.12234956E+00 0.23959157E+04</pdfrwt>
<pdfrwt beam="1">  1       -2 0.27762203E+00 0.23959157E+04</pdfrwt>
<totfact> 0.13599524E+00</totfact>
</mgrwt>
</event>
<event>
 4    1  0.2058093E-008  0.2257496E+04  0.7816531E-02  0.8494871E-01
          2   -1    0    0  501    0  0.00000000000E+00  0.00000000000E+00  0.49429987343E+03  0.49429987343E+03  0.00000000000E+00 0.  1.
         -2   -1    0    0    0  501 -0.00000000000E+00 -0.00000000000E+00 -0.25775274967E+04  0.25775274967E+04  0.00000000000E+00 0. -1.
    2000013    1    1    2    0    0 -0.31913648578E+03  0.44932657812E+03 -0.13960007921E+04  0.17762490484E+04  0.95000000000E+03 0.  0.
   -2000013    1    1    2    0    0  0.31913648578E+03 -0.44932657812E+03 -0.68722683125E+03  0.12955783218E+04  0.95000000000E+03 0.  0.
<mgrwt>
<rscale>  0 0.22574955E+04</rscale>
<asrwt>0</asrwt>
<pdfrwt beam="1">  1        2 0.76046132E-01 0.22574955E+04</pdfrwt>
<pdfrwt beam="2">  1       -2 0.39654270E+00 0.22574955E+04</pdfrwt>
<totfact> 0.44450118E-01</totfact>
</mgrwt>
</event>
<event>
 4    1  0.2058093E-008  0.2681578E+04  0.7816531E-02  0.8341007E-01
         -2   -1    0    0    0  501 -0.00000000000E+00  0.00000000000E+00  0.64401745162E+03  0.64401745162E+03  0.00000000000E+00 0. -1.
          2   -1    0    0  501    0  0.00000000000E+00 -0.00000000000E+00 -0.27914066596E+04  0.27914066596E+04  0.00000000000E+00 0.  1.
    2000013    1    1    2    0    0  0.79137651146E+03 -0.46298836854E+03 -0.77439569803E+03  0.15306285341E+04  0.95000000000E+03 0.  0.
   -2000013    1    1    2    0    0 -0.79137651146E+03  0.46298836854E+03 -0.13729935100E+04  0.19047955772E+04  0.95000000000E+03 0.  0.
<mgrwt>
<rscale>  0 0.26815776E+04</rscale>
<asrwt>0</asrwt>
<pdfrwt beam="2">  1        2 0.42944717E+00 0.26815776E+04</pdfrwt>
<pdfrwt beam="1">  1       -2 0.99079609E-01 0.26815776E+04</pdfrwt>
<totfact> 0.17355037E+00</totfact>
</mgrwt>
</event>
<event>
 4    1  0.2058093E-008  0.2412878E+04  0.7816531E-02  0.8434698E-01
          2   -1    0    0  501    0  0.00000000000E+00  0.00000000000E+00  0.15902614672E+04  0.15902614672E+04  0.00000000000E+00 0.  1.
         -2   -1    0    0    0  501 -0.00000000000E+00 -0.00000000000E+00 -0.91525509163E+03  0.91525509163E+03  0.00000000000E+00 0. -1.
    2000013    1    1    2    0    0  0.64802817487E+03 -0.62058708556E+02  0.71075198274E+03  0.13533145162E+04  0.95000000000E+03 0.  0.
   -2000013    1    1    2    0    0 -0.64802817487E+03  0.62058708556E+02 -0.35745607132E+02  0.11522020427E+04  0.95000000000E+03 0.  0.
<mgrwt>
<rscale>  0 0.24128779E+04</rscale>
<asrwt>0</asrwt>
<pdfrwt beam="1">  1        2 0.24465561E+00 0.24128779E+04</pdfrwt>
<pdfrwt beam="2">  1       -2 0.14080848E+00 0.24128779E+04</pdfrwt>
<totfact> 0.35897921E+00</totfact>
</mgrwt>
</event>
<event>
 4    1  0.2058093E-008  0.2569641E+04  0.7816531E-02  0.8378587E-01
         -2   -1    0    0    0  501 -0.00000000000E+00  0.00000000000E+00  0.13539479796E+04  0.13539479796E+04  0.00000000000E+00 0. -1.
          2   -1    0    0  501    0  0.00000000000E+00 -0.00000000000E+00 -0.12192228002E+04  0.12192228002E+04  0.00000000000E+00 0.  1.
    2000013    1    1    2    0    0 -0.33011162398E+03  0.76997610101E+03  0.28312864115E+03  0.12978823937E+04  0.95000000000E+03 0.  0.
   -2000013    1    1    2    0    0  0.33011162398E+03 -0.76997610101E+03 -0.14840346178E+03  0.12752883862E+04  0.95000000000E+03 0.  0.
<mgrwt>
<rscale>  0 0.25696414E+04</rscale>
<asrwt>0</asrwt>
<pdfrwt beam="2">  1        2 0.18757274E+00 0.25696414E+04</pdfrwt>
<pdfrwt beam="1">  1       -2 0.20829969E+00 0.25696414E+04</pdfrwt>
<totfact> 0.19210166E+00</totfact>
</mgrwt>
</event>
<event>
 4    1  0.2058093E-008  0.2453461E+04  0.7816531E-02  0.8419756E-01
         -2   -1    0    0    0  501 -0.00000000000E+00  0.00000000000E+00  0.95572415131E+03  0.95572415131E+03  0.00000000000E+00 0. -1.
          2   -1    0    0  501    0  0.00000000000E+00 -0.00000000000E+00 -0.15745833317E+04  0.15745833317E+04  0.00000000000E+00 0.  1.
    2000013    1    1    2    0    0 -0.61996677918E+03 -0.44455682960E+03 -0.16220777503E+03  0.12291464292E+04  0.95000000000E+03 0.  0.
   -2000013    1    1    2    0    0  0.61996677918E+03  0.44455682960E+03 -0.45665140536E+03  0.13011610538E+04  0.95000000000E+03 0.  0.
<mgrwt>
<rscale>  0 0.24534607E+04</rscale>
<asrwt>0</asrwt>
<pdfrwt beam="2">  1        2 0.24224359E+00 0.24534607E+04</pdfrwt>
<pdfrwt beam="1">  1       -2 0.14703449E+00 0.24534607E+04</pdfrwt>
<totfact> 0.32594992E+00</totfact>
</mgrwt>
</event>
<event>
 4    1  0.2058093E-008  0.2331551E+04  0.7816531E-02  0.8465584E-01
         -2   -1    0    0    0  501 -0.00000000000E+00  0.00000000000E+00  0.36480531502E+03  0.36480531502E+03  0.00000000000E+00 0. -1.
          2   -1    0    0  501    0  0.00000000000E+00 -0.00000000000E+00 -0.37253625893E+04  0.37253625893E+04  0.00000000000E+00 0.  1.
    2000013    1    1    2    0    0  0.18061243206E+03  0.60353927588E+03 -0.21087356031E+04  0.23971120859E+04  0.95000000000E+03 0.  0.
   -2000013    1    1    2    0    0 -0.18061243206E+03 -0.60353927588E+03 -0.12518216711E+04  0.16930558185E+04  0.95000000000E+03 0.  0.
<mgrwt>
<rscale>  0 0.23315506E+04</rscale>
<asrwt>0</asrwt>
<pdfrwt beam="2">  1        2 0.57313266E+00 0.23315506E+04</pdfrwt>
<pdfrwt beam="1">  1       -2 0.56123899E-01 0.23315506E+04</pdfrwt>
<totfact> 0.15119878E+00</totfact>
</mgrwt>
</event>
<event>
 4    1  0.2058093E-008  0.4476882E+04  0.7816531E-02  0.7914697E-01
          2   -1    0    0  501    0  0.00000000000E+00  0.00000000000E+00  0.40435161995E+04  0.40435161995E+04  0.00000000000E+00 0.  1.
         -2   -1    0    0    0  501 -0.00000000000E+00 -0.00000000000E+00 -0.12391735298E+04  0.12391735298E+04  0.00000000000E+00 0. -1.
    2000013    1    1    2    0    0  0.93091313549E+03  0.17905907143E+04  0.16238840529E+04  0.27590421870E+04  0.95000000000E+03 0.  0.
   -2000013    1    1    2    0    0 -0.93091313549E+03 -0.17905907143E+04  0.11804586167E+04  0.25236475423E+04  0.95000000000E+03 0.  0.
<mgrwt>
<rscale>  0 0.44768821E+04</rscale>
<asrwt>0</asrwt>
<pdfrwt beam="1">  1        2 0.62207941E+00 0.44768821E+04</pdfrwt>
<pdfrwt beam="2">  1       -2 0.19064208E+00 0.44768821E+04</pdfrwt>
<totfact> 0.36564340E-02</totfact>
</mgrwt>
</event>
<event>
 4    1  0.2058093E-008  0.3414701E+04  0.7816531E-02  0.8134308E-01
         -2   -1    0    0    0  501 -0.00000000000E+00  0.00000000000E+00  0.13430571883E+04  0.13430571883E+04  0.00000000000E+00 0. -1.
          2   -1    0    0  501    0  0.00000000000E+00 -0.00000000000E+00 -0.21704553225E+04  0.21704553225E+04  0.00000000000E+00 0.  1.
    2000013    1    1    2    0    0 -0.59233557151E+03  0.11577394069E+04  0.16955823231E+03  0.16194048159E+04  0.95000000000E+03 0.  0.
   -2000013    1    1    2    0    0  0.59233557151E+03 -0.11577394069E+04 -0.99695636645E+03  0.18941076950E+04  0.95000000000E+03 0.  0.
<mgrwt>
<rscale>  0 0.34147009E+04</rscale>
<asrwt>0</asrwt>
<pdfrwt beam="2">  1        2 0.33391620E+00 0.34147009E+04</pdfrwt>
<pdfrwt beam="1">  1       -2 0.20662419E+00 0.34147009E+04</pdfrwt>
<totfact> 0.53453334E-01</totfact>
</mgrwt>
</event>
<event>
 4    1  0.2058093E-008  0.3558134E+04  0.7816531E-02  0.8100150E-01
         -1   -1    0    0    0  501 -0.00000000000E+00  0.00000000000E+00  0.81281956661E+03  0.81281956661E+03  0.00000000000E+00 0.  1.
          1   -1    0    0  501    0  0.00000000000E+00 -0.00000000000E+00 -0.38939500968E+04  0.38939500968E+04  0.00000000000E+00 0. -1.
    2000013    1    1    2    0    0  0.83997136812E+03  0.11868063733E+04 -0.20503532457E+04  0.26871006120E+04  0.95000000000E+03 0.  0.
   -2000013    1    1    2    0    0 -0.83997136812E+03 -0.11868063733E+04 -0.10307772844E+04  0.20196690513E+04  0.95000000000E+03 0.  0.
<mgrwt>
<rscale>  0 0.35581337E+04</rscale>
<asrwt>0</asrwt>
<pdfrwt beam="2">  1        1 0.59906925E+00 0.35581337E+04</pdfrwt>
<pdfrwt beam="1">  1       -1 0.12504916E+00 0.35581337E+04</pdfrwt>
<totfact> 0.53721334E-02</totfact>
</mgrwt>
</event>
<event>
 4    1  0.2058093E-008  0.2661994E+04  0.7816531E-02  0.8347443E-01
          2   -1    0    0  501    0  0.00000000000E+00  0.00000000000E+00  0.25721890771E+04  0.25721890771E+04  0.00000000000E+00 0.  1.
         -2   -1    0    0    0  501 -0.00000000000E+00 -0.00000000000E+00 -0.68873369979E+03  0.68873369979E+03  0.00000000000E+00 0. -1.
    2000013    1    1    2    0    0  0.77513790555E+03 -0.23126361173E+03  0.15093787533E+04  0.19583273096E+04  0.95000000000E+03 0.  0.
   -2000013    1    1    2    0    0 -0.77513790555E+03  0.23126361173E+03  0.37407662402E+03  0.13025954673E+04  0.95000000000E+03 0.  0.
<mgrwt>
<rscale>  0 0.26619942E+04</rscale>
<asrwt>0</asrwt>
<pdfrwt beam="1">  1        2 0.39572139E+00 0.26619942E+04</pdfrwt>
<pdfrwt beam="2">  1       -2 0.10595903E+00 0.26619942E+04</pdfrwt>
<totfact> 0.19993091E+00</totfact>
</mgrwt>
</event>
<event>
 4    1  0.2058093E-008  0.2833875E+04  0.7816531E-02  0.8292828E-01
         -2   -1    0    0    0  501 -0.00000000000E+00  0.00000000000E+00  0.34270704262E+04  0.34270704262E+04  0.00000000000E+00 0. -1.
          2   -1    0    0  501    0  0.00000000000E+00 -0.00000000000E+00 -0.58583913093E+03  0.58583913093E+03  0.00000000000E+00 0.  1.
    2000013    1    1    2    0    0 -0.56227321546E+03 -0.86706540388E+03  0.16939477474E+04  0.21999801259E+04  0.95000000000E+03 0.  0.
   -2000013    1    1    2    0    0  0.56227321546E+03  0.86706540388E+03  0.11472835479E+04  0.18129294312E+04  0.95000000000E+03 0.  0.
<mgrwt>
<rscale>  0 0.28338751E+04</rscale>
<asrwt>0</asrwt>
<pdfrwt beam="2">  1        2 0.90129099E-01 0.28338751E+04</pdfrwt>
<pdfrwt beam="1">  1       -2 0.52724159E+00 0.28338751E+04</pdfrwt>
<totfact> 0.49952337E-02</totfact>
</mgrwt>
</event>
<event>
 4    1  0.2058093E-008  0.3900698E+04  0.7816531E-02  0.8024884E-01
         -2   -1    0    0    0  501 -0.00000000000E+00  0.00000000000E+00  0.26639825182E+04  0.26639825182E+04  0.00000000000E+00 0. -1.
          2   -1    0    0  501    0  0.00000000000E+00 -0.00000000000E+00 -0.14278852357E+04  0.14278852357E+04  0.00000000000E+00 0.  1.
    2000013    1    1    2    0    0  0.14590172665E+04  0.47681267838E+03 -0.15657166663E+03  0.18119316767E+04  0.95000000000E+03 0.  0.
   -2000013    1    1    2    0    0 -0.14590172665E+04 -0.47681267838E+03  0.13926689490E+04  0.22799360772E+04  0.95000000000E+03 0.  0.
<mgrwt>
<rscale>  0 0.39006980E+04</rscale>
<asrwt>0</asrwt>
<pdfrwt beam="2">  1        2 0.21967465E+00 0.39006980E+04</pdfrwt>
<pdfrwt beam="1">  1       -2 0.40984346E+00 0.39006980E+04</pdfrwt>
<totfact> 0.70917458E-02</totfact>
</mgrwt>
</event>
<event>
 4    1  0.2058093E-008  0.2408401E+04  0.7816531E-02  0.8436365E-01
         -2   -1    0    0    0  501 -0.00000000000E+00  0.00000000000E+00  0.16786755464E+04  0.16786755464E+04  0.00000000000E+00 0. -1.
          2   -1    0    0  501    0  0.00000000000E+00 -0.00000000000E+00 -0.86383534404E+03  0.86383534404E+03  0.00000000000E+00 0.  1.
    2000013    1    1    2    0    0  0.57471813280E+03 -0.34537327374E+03  0.76912353476E+02  0.11653322018E+04  0.95000000000E+03 0.  0.
   -2000013    1    1    2    0    0 -0.57471813280E+03  0.34537327374E+03  0.73792784893E+03  0.13771786887E+04  0.95000000000E+03 0.  0.
<mgrwt>
<rscale>  0 0.24084014E+04</rscale>
<asrwt>0</asrwt>
<pdfrwt beam="2">  1        2 0.13289775E+00 0.24084014E+04</pdfrwt>
<pdfrwt beam="1">  1       -2 0.25825778E+00 0.24084014E+04</pdfrwt>
<totfact> 0.15949090E+00</totfact>
</mgrwt>
</event>
<event>
 4    1  0.2058093E-008  0.3424728E+04  0.7816531E-02  0.8131864E-01
         -2   -1    0    0    0  501 -0.00000000000E+00  0.00000000000E+00  0.15186590466E+04  0.15186590466E+04  0.00000000000E+00 0. -1.
          2   -1    0    0  501    0  0.00000000000E+00 -0.00000000000E+00 -0.19307759136E+04  0.19307759136E+04  0.00000000000E+00 0.  1.
    2000013    1    1    2    0    0  0.14180372302E+04 -0.53280273616E+02 -0.33354938523E+03  0.17399492999E+04  0.95000000000E+03 0.  0.
   -2000013    1    1    2    0    0 -0.14180372302E+04  0.53280273616E+02 -0.78567481814E+02  0.17094856603E+04  0.95000000000E+03 0.  0.
<mgrwt>
<rscale>  0 0.34247279E+04</rscale>
<asrwt>0</asrwt>
<pdfrwt beam="2">  1        2 0.29704245E+00 0.34247279E+04</pdfrwt>
<pdfrwt beam="1">  1       -2 0.23363985E+00 0.34247279E+04</pdfrwt>
<totfact> 0.48974585E-01</totfact>
</mgrwt>
</event>
<event>
 4    1  0.2058093E-008  0.2173308E+04  0.7816531E-02  0.8529621E-01
         -1   -1    0    0    0  501 -0.00000000000E+00  0.00000000000E+00  0.10926093270E+04  0.10926093270E+04  0.00000000000E+00 0. -1.
          1   -1    0    0  501    0  0.00000000000E+00 -0.00000000000E+00 -0.10807313963E+04  0.10807313963E+04  0.00000000000E+00 0.  1.
    2000013    1    1    2    0    0 -0.43638327165E+03  0.22058437580E+03 -0.19212806566E+03  0.10855878685E+04  0.95000000000E+03 0.  0.
   -2000013    1    1    2    0    0  0.43638327165E+03 -0.22058437580E+03  0.20400599635E+03  0.10877528548E+04  0.95000000000E+03 0.  0.
<mgrwt>
<rscale>  0 0.21733083E+04</rscale>
<asrwt>0</asrwt>
<pdfrwt beam="2">  1        1 0.16626637E+00 0.21733083E+04</pdfrwt>
<pdfrwt beam="1">  1       -1 0.16809374E+00 0.21733083E+04</pdfrwt>
<totfact> 0.30455376E+00</totfact>
</mgrwt>
</event>
<event>
 4    1  0.2058093E-008  0.2190260E+04  0.7816531E-02  0.8522493E-01
         -2   -1    0    0    0  501 -0.00000000000E+00  0.00000000000E+00  0.15029685296E+04  0.15029685296E+04  0.00000000000E+00 0. -1.
          2   -1    0    0  501    0  0.00000000000E+00 -0.00000000000E+00 -0.79796097301E+03  0.79796097301E+03  0.00000000000E+00 0.  1.
    2000013    1    1    2    0    0  0.73867420664E+02 -0.51090119072E+03  0.16953751738E+03  0.10944036697E+04  0.95000000000E+03 0.  0.
   -2000013    1    1    2    0    0 -0.73867420664E+02  0.51090119072E+03  0.53547003921E+03  0.12065258329E+04  0.95000000000E+03 0.  0.
<mgrwt>
<rscale>  0 0.21902605E+04</rscale>
<asrwt>0</asrwt>
<pdfrwt beam="2">  1        2 0.12276323E+00 0.21902605E+04</pdfrwt>
<pdfrwt beam="1">  1       -2 0.23122593E+00 0.21902605E+04</pdfrwt>
<totfact> 0.26550352E+00</totfact>
</mgrwt>
</event>
<event>
 4    1  0.2058093E-008  0.2393885E+04  0.7816531E-02  0.8441796E-01
         -2   -1    0    0    0  501 -0.00000000000E+00  0.00000000000E+00  0.50004868506E+03  0.50004868506E+03  0.00000000000E+00 0.  1.
          2   -1    0    0  501    0  0.00000000000E+00 -0.00000000000E+00 -0.28650636074E+04  0.28650636074E+04  0.00000000000E+00 0. -1.
    2000013    1    1    2    0    0  0.21106243814E+03 -0.65396753713E+03 -0.15209028952E+04  0.19203818655E+04  0.95000000000E+03 0.  0.
   -2000013    1    1    2    0    0 -0.21106243814E+03  0.65396753713E+03 -0.84411202708E+03  0.14447304270E+04  0.95000000000E+03 0.  0.
<mgrwt>
<rscale>  0 0.23938850E+04</rscale>
<asrwt>0</asrwt>
<pdfrwt beam="2">  1        2 0.44077901E+00 0.23938850E+04</pdfrwt>
<pdfrwt beam="1">  1       -2 0.76930568E-01 0.23938850E+04</pdfrwt>
<totfact> 0.28663551E+00</totfact>
</mgrwt>
</event>
<event>
 4    1  0.2058093E-008  0.2525134E+04  0.7816531E-02  0.8394086E-01
          2   -1    0    0  501    0  0.00000000000E+00  0.00000000000E+00  0.35824112282E+04  0.35824112282E+04  0.00000000000E+00 0.  1.
         -2   -1    0    0    0  501 -0.00000000000E+00 -0.00000000000E+00 -0.44497275956E+03  0.44497275956E+03  0.00000000000E+00 0. -1.
    2000013    1    1    2    0    0  0.63141065298E+03  0.36570056296E+03  0.22050081292E+04  0.25093778441E+04  0.95000000000E+03 0.  0.
   -2000013    1    1    2    0    0 -0.63141065298E+03 -0.36570056296E+03  0.93243033947E+03  0.15180061437E+04  0.95000000000E+03 0.  0.
<mgrwt>
<rscale>  0 0.25251340E+04</rscale>
<asrwt>0</asrwt>
<pdfrwt beam="1">  1        2 0.55114017E+00 0.25251340E+04</pdfrwt>
<pdfrwt beam="2">  1       -2 0.68457350E-01 0.25251340E+04</pdfrwt>
<totfact> 0.12362685E+00</totfact>
</mgrwt>
</event>
<event>
 4    1  0.2058093E-008  0.2135935E+04  0.7816531E-02  0.8545577E-01
          1   -1    0    0  501    0  0.00000000000E+00  0.00000000000E+00  0.52580889149E+03  0.52580889149E+03  0.00000000000E+00 0.  1.
         -1   -1    0    0    0  501 -0.00000000000E+00 -0.00000000000E+00 -0.21691421564E+04  0.21691421564E+04  0.00000000000E+00 0. -1.
    2000013    1    1    2    0    0 -0.36567998024E+03 -0.31501421212E+03 -0.73157567831E+03  0.12925396609E+04  0.95000000000E+03 0.  0.
   -2000013    1    1    2    0    0  0.36567998024E+03  0.31501421212E+03 -0.91175758663E+03  0.14024113871E+04  0.95000000000E+03 0.  0.
<mgrwt>
<rscale>  0 0.21359347E+04</rscale>
<asrwt>0</asrwt>
<pdfrwt beam="1">  1        1 0.80893676E-01 0.21359347E+04</pdfrwt>
<pdfrwt beam="2">  1       -1 0.33371418E+00 0.21359347E+04</pdfrwt>
<totfact> 0.75473349E-01</totfact>
</mgrwt>
</event>
<event>
 4    1  0.2058093E-008  0.3267920E+04  0.7816531E-02  0.8171106E-01
          2   -1    0    0  501    0  0.00000000000E+00  0.00000000000E+00  0.43267698059E+04  0.43267698059E+04  0.00000000000E+00 0.  1.
         -2   -1    0    0    0  501 -0.00000000000E+00 -0.00000000000E+00 -0.61704816513E+03  0.61704816513E+03  0.00000000000E+00 0. -1.
    2000013    1    1    2    0    0  0.44379313728E+03 -0.12530918897E+04  0.18723559255E+04  0.24850368900E+04  0.95000000000E+03 0.  0.
   -2000013    1    1    2    0    0 -0.44379313728E+03  0.12530918897E+04  0.18373657152E+04  0.24587810810E+04  0.95000000000E+03 0.  0.
<mgrwt>
<rscale>  0 0.32679201E+04</rscale>
<asrwt>0</asrwt>
<pdfrwt beam="1">  1        2 0.66565687E+00 0.32679201E+04</pdfrwt>
<pdfrwt beam="2">  1       -2 0.94930490E-01 0.32679201E+04</pdfrwt>
<totfact> 0.13984968E-01</totfact>
</mgrwt>
</event>
<event>
 4    1  0.2058093E-008  0.2464422E+04  0.7816531E-02  0.8415771E-01
         -2   -1    0    0    0  501 -0.00000000000E+00  0.00000000000E+00  0.10027354051E+04  0.10027354051E+04  0.00000000000E+00 0. -1.
          2   -1    0    0  501    0  0.00000000000E+00 -0.00000000000E+00 -0.15142022726E+04  0.15142022726E+04  0.00000000000E+00 0.  1.
    2000013    1    1    2    0    0  0.19915358975E+03 -0.55931725308E+03 -0.77984162201E+03  0.13649728559E+04  0.95000000000E+03 0.  0.
   -2000013    1    1    2    0    0 -0.19915358975E+03  0.55931725308E+03  0.26837475456E+03  0.11519648219E+04  0.95000000000E+03 0.  0.
<mgrwt>
<rscale>  0 0.24644222E+04</rscale>
<asrwt>0</asrwt>
<pdfrwt beam="2">  1        2 0.23295420E+00 0.24644222E+04</pdfrwt>
<pdfrwt beam="1">  1       -2 0.15426698E+00 0.24644222E+04</pdfrwt>
<totfact> 0.30996788E+00</totfact>
</mgrwt>
</event>
<event>
 4    1  0.2058093E-008  0.3209947E+04  0.7816531E-02  0.8186195E-01
         -2   -1    0    0    0  501 -0.00000000000E+00  0.00000000000E+00  0.21054647992E+04  0.21054647992E+04  0.00000000000E+00 0. -1.
          2   -1    0    0  501    0  0.00000000000E+00 -0.00000000000E+00 -0.12234542060E+04  0.12234542060E+04  0.00000000000E+00 0.  1.
    2000013    1    1    2    0    0  0.57254551550E+02  0.12123893245E+04  0.90511158965E+03  0.17874263475E+04  0.95000000000E+03 0.  0.
   -2000013    1    1    2    0    0 -0.57254551550E+02 -0.12123893245E+04 -0.23100996488E+02  0.15414926578E+04  0.95000000000E+03 0.  0.
<mgrwt>
<rscale>  0 0.32099469E+04</rscale>
<asrwt>0</asrwt>
<pdfrwt beam="2">  1        2 0.18822372E+00 0.32099469E+04</pdfrwt>
<pdfrwt beam="1">  1       -2 0.32391766E+00 0.32099469E+04</pdfrwt>
<totfact> 0.34934066E-01</totfact>
</mgrwt>
</event>
<event>
 4    1  0.2058093E-008  0.2179365E+04  0.7816531E-02  0.8527066E-01
         -2   -1    0    0    0  501 -0.00000000000E+00  0.00000000000E+00  0.19283088611E+04  0.19283088611E+04  0.00000000000E+00 0. -1.
          2   -1    0    0  501    0  0.00000000000E+00 -0.00000000000E+00 -0.61577670894E+03  0.61577670894E+03  0.00000000000E+00 0.  1.
    2000013    1    1    2    0    0  0.16548948052E+03  0.47511169400E+03  0.44813082048E+03  0.11646626646E+04  0.95000000000E+03 0.  0.
   -2000013    1    1    2    0    0 -0.16548948052E+03 -0.47511169400E+03  0.86440133168E+03  0.13794229055E+04  0.95000000000E+03 0.  0.
<mgrwt>
<rscale>  0 0.21793648E+04</rscale>
<asrwt>0</asrwt>
<pdfrwt beam="2">  1        2 0.94734879E-01 0.21793648E+04</pdfrwt>
<pdfrwt beam="1">  1       -2 0.29666290E+00 0.21793648E+04</pdfrwt>
<totfact> 0.14665529E+00</totfact>
</mgrwt>
</event>
<event>
 4    1  0.2058093E-008  0.2595480E+04  0.7816531E-02  0.8369738E-01
          2   -1    0    0  501    0  0.00000000000E+00  0.00000000000E+00  0.15754953293E+04  0.15754953293E+04  0.00000000000E+00 0.  1.
         -2   -1    0    0    0  501 -0.00000000000E+00 -0.00000000000E+00 -0.10689522880E+04  0.10689522880E+04  0.00000000000E+00 0. -1.
    2000013    1    1    2    0    0  0.35532380338E+03 -0.66862034302E+03  0.71830471476E+03  0.14113007587E+04  0.95000000000E+03 0.  0.
   -2000013    1    1    2    0    0 -0.35532380338E+03  0.66862034302E+03 -0.21176167342E+03  0.12331468585E+04  0.95000000000E+03 0.  0.
<mgrwt>
<rscale>  0 0.25954802E+04</rscale>
<asrwt>0</asrwt>
<pdfrwt beam="1">  1        2 0.24238390E+00 0.25954802E+04</pdfrwt>
<pdfrwt beam="2">  1       -2 0.16445420E+00 0.25954802E+04</pdfrwt>
<totfact> 0.23800945E+00</totfact>
</mgrwt>
</event>
<event>
 4    1  0.2058093E-008  0.2149932E+04  0.7816531E-02  0.8539561E-01
         -2   -1    0    0    0  501 -0.00000000000E+00  0.00000000000E+00  0.89125846653E+03  0.89125846653E+03  0.00000000000E+00 0.  1.
          2   -1    0    0  501    0  0.00000000000E+00 -0.00000000000E+00 -0.12965399208E+04  0.12965399208E+04  0.00000000000E+00 0. -1.
    2000013    1    1    2    0    0 -0.49271308098E+03  0.25192199355E+02 -0.10266912413E+03  0.10753798288E+04  0.95000000000E+03 0.  0.
   -2000013    1    1    2    0    0  0.49271308098E+03 -0.25192199355E+02 -0.30261233016E+03  0.11124185586E+04  0.95000000000E+03 0.  0.
<mgrwt>
<rscale>  0 0.21499323E+04</rscale>
<asrwt>0</asrwt>
<pdfrwt beam="2">  1        2 0.19946768E+00 0.21499323E+04</pdfrwt>
<pdfrwt beam="1">  1       -2 0.13711669E+00 0.21499323E+04</pdfrwt>
<totfact> 0.57792680E+00</totfact>
</mgrwt>
</event>
<event>
 4    1  0.2058093E-008  0.3225798E+04  0.7816531E-02  0.8182037E-01
          1   -1    0    0  501    0  0.00000000000E+00  0.00000000000E+00  0.13235977234E+04  0.13235977234E+04  0.00000000000E+00 0.  1.
         -1   -1    0    0    0  501 -0.00000000000E+00 -0.00000000000E+00 -0.19654337890E+04  0.19654337890E+04  0.00000000000E+00 0. -1.
    2000013    1    1    2    0    0 -0.95971369303E+03  0.87739283466E+03 -0.22929480745E+03  0.16266359973E+04  0.95000000000E+03 0.  0.
   -2000013    1    1    2    0    0  0.95971369303E+03 -0.87739283466E+03 -0.41254125813E+03  0.16623955151E+04  0.95000000000E+03 0.  0.
<mgrwt>
<rscale>  0 0.32257983E+04</rscale>
<asrwt>0</asrwt>
<pdfrwt beam="1">  1        1 0.20363042E+00 0.32257983E+04</pdfrwt>
<pdfrwt beam="2">  1       -1 0.30237443E+00 0.32257983E+04</pdfrwt>
<totfact> 0.23149947E-01</totfact>
</mgrwt>
</event>
<event>
 4    1  0.2058093E-008  0.1986379E+04  0.7816531E-02  0.8613016E-01
         -2   -1    0    0    0  501 -0.00000000000E+00  0.00000000000E+00  0.61098789901E+03  0.61098789901E+03  0.00000000000E+00 0. -1.
          2   -1    0    0  501    0  0.00000000000E+00 -0.00000000000E+00 -0.16144757430E+04  0.16144757430E+04  0.00000000000E+00 0.  1.
    2000013    1    1    2    0    0 -0.10033094812E+03  0.16554148266E+03 -0.26026789498E+03  0.10038474280E+04  0.95000000000E+03 0.  0.
   -2000013    1    1    2    0    0  0.10033094812E+03 -0.16554148266E+03 -0.74321994905E+03  0.12216162140E+04  0.95000000000E+03 0.  0.
<mgrwt>
<rscale>  0 0.19863788E+04</rscale>
<asrwt>0</asrwt>
<pdfrwt beam="2">  1        2 0.24838088E+00 0.19863788E+04</pdfrwt>
<pdfrwt beam="1">  1       -2 0.93998138E-01 0.19863788E+04</pdfrwt>
<totfact> 0.97266620E+00</totfact>
</mgrwt>
</event>
<event>
 4    1  0.2058093E-008  0.2196436E+04  0.7816531E-02  0.8519913E-01
          2   -1    0    0  501    0  0.00000000000E+00  0.00000000000E+00  0.61409240074E+03  0.61409240074E+03  0.00000000000E+00 0.  1.
         -2   -1    0    0    0  501 -0.00000000000E+00 -0.00000000000E+00 -0.19640081617E+04  0.19640081617E+04  0.00000000000E+00 0. -1.
    2000013    1    1    2    0    0  0.30728413172E+03  0.45716821845E+03 -0.66028959004E+03  0.12813698374E+04  0.95000000000E+03 0.  0.
   -2000013    1    1    2    0    0 -0.30728413172E+03 -0.45716821845E+03 -0.68962617093E+03  0.12967307250E+04  0.95000000000E+03 0.  0.
<mgrwt>
<rscale>  0 0.21964357E+04</rscale>
<asrwt>0</asrwt>
<pdfrwt beam="1">  1        2 0.94475755E-01 0.21964357E+04</pdfrwt>
<pdfrwt beam="2">  1       -2 0.30215510E+00 0.21964357E+04</pdfrwt>
<totfact> 0.13600315E+00</totfact>
</mgrwt>
</event>
<event>
 4    1  0.2058093E-008  0.2621598E+04  0.7816531E-02  0.8360902E-01
          2   -1    0    0  501    0  0.00000000000E+00  0.00000000000E+00  0.25987192046E+04  0.25987192046E+04  0.00000000000E+00 0.  1.
         -2   -1    0    0    0  501 -0.00000000000E+00 -0.00000000000E+00 -0.66116948196E+03  0.66116948196E+03  0.00000000000E+00 0. -1.
    2000013    1    1    2    0    0 -0.81877208101E+02 -0.81288759221E+03  0.14474779650E+04  0.19144666552E+04  0.95000000000E+03 0.  0.
   -2000013    1    1    2    0    0  0.81877208101E+02  0.81288759221E+03  0.49007175766E+03  0.13454220313E+04  0.95000000000E+03 0.  0.
<mgrwt>
<rscale>  0 0.26215979E+04</rscale>
<asrwt>0</asrwt>
<pdfrwt beam="1">  1        2 0.39980295E+00 0.26215979E+04</pdfrwt>
<pdfrwt beam="2">  1       -2 0.10171838E+00 0.26215979E+04</pdfrwt>
<totfact> 0.21345115E+00</totfact>
</mgrwt>
</event>
<event>
 4    1  0.2058093E-008  0.2216446E+04  0.7816531E-02  0.8511614E-01
          2   -1    0    0  501    0  0.00000000000E+00  0.00000000000E+00  0.33851978801E+04  0.33851978801E+04  0.00000000000E+00 0.  1.
         -2   -1    0    0    0  501 -0.00000000000E+00 -0.00000000000E+00 -0.36280242297E+03  0.36280242297E+03  0.00000000000E+00 0. -1.
    2000013    1    1    2    0    0  0.25636556579E+03 -0.40596616876E+03  0.20327435667E+04  0.22945758304E+04  0.95000000000E+03 0.  0.
   -2000013    1    1    2    0    0 -0.25636556579E+03  0.40596616876E+03  0.98965189042E+03  0.14534244727E+04  0.95000000000E+03 0.  0.
<mgrwt>
<rscale>  0 0.22164458E+04</rscale>
<asrwt>0</asrwt>
<pdfrwt beam="1">  1        2 0.52079965E+00 0.22164458E+04</pdfrwt>
<pdfrwt beam="2">  1       -2 0.55815760E-01 0.22164458E+04</pdfrwt>
<totfact> 0.26929792E+00</totfact>
</mgrwt>
</event>
<event>
 4    1  0.2058093E-008  0.2464771E+04  0.7816531E-02  0.8415645E-01
          1   -1    0    0  501    0  0.00000000000E+00  0.00000000000E+00  0.19765244945E+04  0.19765244945E+04  0.00000000000E+00 0.  1.
         -1   -1    0    0    0  501 -0.00000000000E+00 -0.00000000000E+00 -0.76840609061E+03  0.76840609061E+03  0.00000000000E+00 0. -1.
    2000013    1    1    2    0    0 -0.14210155108E+03  0.68119560394E+03  0.10087555329E+04  0.15505831248E+04  0.95000000000E+03 0.  0.
   -2000013    1    1    2    0    0  0.14210155108E+03 -0.68119560394E+03  0.19936287098E+03  0.11943474603E+04  0.95000000000E+03 0.  0.
<mgrwt>
<rscale>  0 0.24647705E+04</rscale>
<asrwt>0</asrwt>
<pdfrwt beam="1">  1        1 0.30408069E+00 0.24647705E+04</pdfrwt>
<pdfrwt beam="2">  1       -1 0.11821632E+00 0.24647705E+04</pdfrwt>
<totfact> 0.17687690E+00</totfact>
</mgrwt>
</event>
<event>
 4    1  0.2058093E-008  0.2204582E+04  0.7816531E-02  0.8516524E-01
          2   -1    0    0  501    0  0.00000000000E+00  0.00000000000E+00  0.20689740557E+04  0.20689740557E+04  0.00000000000E+00 0.  1.
         -2   -1    0    0    0  501 -0.00000000000E+00 -0.00000000000E+00 -0.58726930824E+03  0.58726930824E+03  0.00000000000E+00 0. -1.
    2000013    1    1    2    0    0 -0.75788427979E+02 -0.54648899905E+03  0.63207385076E+03  0.12674428842E+04  0.95000000000E+03 0.  0.
   -2000013    1    1    2    0    0  0.75788427979E+02  0.54648899905E+03  0.84963089667E+03  0.13888004797E+04  0.95000000000E+03 0.  0.
<mgrwt>
<rscale>  0 0.22045816E+04</rscale>
<asrwt>0</asrwt>
<pdfrwt beam="1">  1        2 0.31830370E+00 0.22045816E+04</pdfrwt>
<pdfrwt beam="2">  1       -2 0.90349126E-01 0.22045816E+04</pdfrwt>
<totfact> 0.58515982E+00</totfact>
</mgrwt>
</event>
<event>
 4    1  0.2058093E-008  0.3030209E+04  0.7816531E-02  0.8235157E-01
          2   -1    0    0  501    0  0.00000000000E+00  0.00000000000E+00  0.29041035986E+04  0.29041035986E+04  0.00000000000E+00 0.  1.
         -2   -1    0    0    0  501 -0.00000000000E+00 -0.00000000000E+00 -0.79044781118E+03  0.79044781118E+03  0.00000000000E+00 0. -1.
    2000013    1    1    2    0    0  0.67721360083E+03 -0.78040875283E+03  0.36134145836E+03  0.14493873644E+04  0.95000000000E+03 0.  0.
   -2000013    1    1    2    0    0 -0.67721360083E+03  0.78040875283E+03  0.17523143290E+04  0.22451640453E+04  0.95000000000E+03 0.  0.
<mgrwt>
<rscale>  0 0.30302095E+04</rscale>
<asrwt>0</asrwt>
<pdfrwt beam="1">  1        2 0.44678516E+00 0.30302095E+04</pdfrwt>
<pdfrwt beam="2">  1       -2 0.12160736E+00 0.30302095E+04</pdfrwt>
<totfact> 0.87565207E-01</totfact>
</mgrwt>
</event>
<event>
 4    1  0.2058093E-008  0.2573841E+04  0.7816531E-02  0.8377141E-01
          1   -1    0    0  501    0  0.00000000000E+00  0.00000000000E+00  0.14307692957E+04  0.14307692957E+04  0.00000000000E+00 0.  1.
         -1   -1    0    0    0  501 -0.00000000000E+00 -0.00000000000E+00 -0.11575345199E+04  0.11575345199E+04  0.00000000000E+00 0. -1.
    2000013    1    1    2    0    0 -0.86484681600E+03 -0.43228000683E+02  0.74332504231E+02  0.12875767924E+04  0.95000000000E+03 0.  0.
   -2000013    1    1    2    0    0  0.86484681600E+03  0.43228000683E+02  0.19890227166E+03  0.13007270232E+04  0.95000000000E+03 0.  0.
<mgrwt>
<rscale>  0 0.25738414E+04</rscale>
<asrwt>0</asrwt>
<pdfrwt beam="1">  1        1 0.22011835E+00 0.25738414E+04</pdfrwt>
<pdfrwt beam="2">  1       -1 0.17808223E+00 0.25738414E+04</pdfrwt>
<totfact> 0.13864663E+00</totfact>
</mgrwt>
</event>
<event>
 4    1  0.2058093E-008  0.2232909E+04  0.7816531E-02  0.8504854E-01
          2   -1    0    0  501    0  0.00000000000E+00  0.00000000000E+00  0.74049851559E+03  0.74049851559E+03  0.00000000000E+00 0.  1.
         -2   -1    0    0    0  501 -0.00000000000E+00 -0.00000000000E+00 -0.16832851290E+04  0.16832851290E+04  0.00000000000E+00 0. -1.
    2000013    1    1    2    0    0 -0.34725176772E+03 -0.44994946357E+03 -0.62843917250E+03  0.12729784380E+04  0.95000000000E+03 0.  0.
   -2000013    1    1    2    0    0  0.34725176772E+03  0.44994946357E+03 -0.31434744088E+03  0.11508052066E+04  0.95000000000E+03 0.  0.
<mgrwt>
<rscale>  0 0.22329085E+04</rscale>
<asrwt>0</asrwt>
<pdfrwt beam="1">  1        2 0.11392285E+00 0.22329085E+04</pdfrwt>
<pdfrwt beam="2">  1       -2 0.25896694E+00 0.22329085E+04</pdfrwt>
<totfact> 0.19672622E+00</totfact>
</mgrwt>
</event>
<event>
 4    1  0.2058093E-008  0.2651925E+04  0.7816531E-02  0.8350774E-01
          2   -1    0    0  501    0  0.00000000000E+00  0.00000000000E+00  0.10764364155E+04  0.10764364155E+04  0.00000000000E+00 0.  1.
         -2   -1    0    0    0  501 -0.00000000000E+00 -0.00000000000E+00 -0.16333301118E+04  0.16333301118E+04  0.00000000000E+00 0. -1.
    2000013    1    1    2    0    0  0.52762818873E+03 -0.70293938873E+03 -0.57311271158E+03  0.14154410867E+04  0.95000000000E+03 0.  0.
   -2000013    1    1    2    0    0 -0.52762818873E+03  0.70293938873E+03  0.16219015243E+02  0.12943254406E+04  0.95000000000E+03 0.  0.
<mgrwt>
<rscale>  0 0.26519246E+04</rscale>
<asrwt>0</asrwt>
<pdfrwt beam="1">  1        2 0.16560560E+00 0.26519246E+04</pdfrwt>
<pdfrwt beam="2">  1       -2 0.25128155E+00 0.26519246E+04</pdfrwt>
<totfact> 0.12523029E+00</totfact>
</mgrwt>
</event>
<event>
 4    1  0.2058093E-008  0.3328703E+04  0.7816531E-02  0.8155630E-01
          2   -1    0    0  501    0  0.00000000000E+00  0.00000000000E+00  0.12510671715E+04  0.12510671715E+04  0.00000000000E+00 0.  1.
         -2   -1    0    0    0  501 -0.00000000000E+00 -0.00000000000E+00 -0.22141619402E+04  0.22141619402E+04  0.00000000000E+00 0. -1.
    2000013    1    1    2    0    0 -0.10043870488E+03 -0.13625227889E+04 -0.44847926950E+03  0.17234238999E+04  0.95000000000E+03 0.  0.
   -2000013    1    1    2    0    0  0.10043870488E+03  0.13625227889E+04 -0.51461549913E+03  0.17418052117E+04  0.95000000000E+03 0.  0.
<mgrwt>
<rscale>  0 0.33287026E+04</rscale>
<asrwt>0</asrwt>
<pdfrwt beam="1">  1        2 0.19247187E+00 0.33287026E+04</pdfrwt>
<pdfrwt beam="2">  1       -2 0.34064029E+00 0.33287026E+04</pdfrwt>
<totfact> 0.26210000E-01</totfact>
</mgrwt>
</event>
<event>
 4    1  0.2058093E-008  0.2087819E+04  0.7816531E-02  0.8566628E-01
          2   -1    0    0  501    0  0.00000000000E+00  0.00000000000E+00  0.21167115550E+04  0.21167115550E+04  0.00000000000E+00 0.  1.
         -2   -1    0    0    0  501 -0.00000000000E+00 -0.00000000000E+00 -0.51483036949E+03  0.51483036949E+03  0.00000000000E+00 0. -1.
    2000013    1    1    2    0    0 -0.76451242224E+02  0.42533565083E+03  0.82890341247E+03  0.13327925853E+04  0.95000000000E+03 0.  0.
   -2000013    1    1    2    0    0  0.76451242224E+02 -0.42533565083E+03  0.77297777300E+03  0.12987493391E+04  0.95000000000E+03 0.  0.
<mgrwt>
<rscale>  0 0.20878193E+04</rscale>
<asrwt>0</asrwt>
<pdfrwt beam="1">  1        2 0.32564793E+00 0.20878193E+04</pdfrwt>
<pdfrwt beam="2">  1       -2 0.79204673E-01 0.20878193E+04</pdfrwt>
<totfact> 0.74988437E+00</totfact>
</mgrwt>
</event>
<event>
 4    1  0.2058093E-008  0.2525440E+04  0.7816531E-02  0.8393978E-01
         -2   -1    0    0    0  501 -0.00000000000E+00  0.00000000000E+00  0.85983239904E+03  0.85983239904E+03  0.00000000000E+00 0. -1.
          2   -1    0    0  501    0  0.00000000000E+00 -0.00000000000E+00 -0.18543861823E+04  0.18543861823E+04  0.00000000000E+00 0.  1.
    2000013    1    1    2    0    0  0.75904660076E+03 -0.20378360150E+03 -0.79019694327E+03  0.14644421148E+04  0.95000000000E+03 0.  0.
   -2000013    1    1    2    0    0 -0.75904660076E+03  0.20378360150E+03 -0.20435684000E+03  0.12497764666E+04  0.95000000000E+03 0.  0.
<mgrwt>
<rscale>  0 0.25254396E+04</rscale>
<asrwt>0</asrwt>
<pdfrwt beam="2">  1        2 0.28529018E+00 0.25254396E+04</pdfrwt>
<pdfrwt beam="1">  1       -2 0.13228191E+00 0.25254396E+04</pdfrwt>
<totfact> 0.29771174E+00</totfact>
</mgrwt>
</event>
<event>
 4    1  0.2058093E-008  0.2120619E+04  0.7816531E-02  0.8552215E-01
         -2   -1    0    0    0  501 -0.00000000000E+00  0.00000000000E+00  0.87896253931E+03  0.87896253931E+03  0.00000000000E+00 0. -1.
          2   -1    0    0  501    0  0.00000000000E+00 -0.00000000000E+00 -0.12790716277E+04  0.12790716277E+04  0.00000000000E+00 0.  1.
    2000013    1    1    2    0    0 -0.42201125437E+03 -0.16142211755E+03 -0.33508111329E+03  0.11040516072E+04  0.95000000000E+03 0.  0.
   -2000013    1    1    2    0    0  0.42201125437E+03  0.16142211755E+03 -0.65027975084E+02  0.10539825598E+04  0.95000000000E+03 0.  0.
<mgrwt>
<rscale>  0 0.21206188E+04</rscale>
<asrwt>0</asrwt>
<pdfrwt beam="2">  1        2 0.19678025E+00 0.21206188E+04</pdfrwt>
<pdfrwt beam="1">  1       -2 0.13522501E+00 0.21206188E+04</pdfrwt>
<totfact> 0.61464846E+00</totfact>
</mgrwt>
</event>
<event>
 4    1  0.2058093E-008  0.3372848E+04  0.7816531E-02  0.8144603E-01
          2   -1    0    0  501    0  0.00000000000E+00  0.00000000000E+00  0.91353103816E+03  0.91353103816E+03  0.00000000000E+00 0.  1.
         -2   -1    0    0    0  501 -0.00000000000E+00 -0.00000000000E+00 -0.31132232984E+04  0.31132232984E+04  0.00000000000E+00 0. -1.
    2000013    1    1    2    0    0  0.77770620862E+03 -0.10532680727E+04 -0.16690691535E+04  0.23243262290E+04  0.95000000000E+03 0.  0.
   -2000013    1    1    2    0    0 -0.77770620862E+03  0.10532680727E+04 -0.53062310673E+03  0.17024281075E+04  0.95000000000E+03 0.  0.
<mgrwt>
<rscale>  0 0.33728481E+04</rscale>
<asrwt>0</asrwt>
<pdfrwt beam="1">  1        2 0.14054324E+00 0.33728481E+04</pdfrwt>
<pdfrwt beam="2">  1       -2 0.47895743E+00 0.33728481E+04</pdfrwt>
<totfact> 0.53379829E-02</totfact>
</mgrwt>
</event>
<event>
 4    1  0.2058093E-008  0.2086745E+04  0.7816531E-02  0.8567105E-01
         -2   -1    0    0    0  501 -0.00000000000E+00  0.00000000000E+00  0.37822604344E+03  0.37822604344E+03  0.00000000000E+00 0. -1.
          2   -1    0    0  501    0  0.00000000000E+00 -0.00000000000E+00 -0.28782423275E+04  0.28782423275E+04  0.00000000000E+00 0.  1.
    2000013    1    1    2    0    0 -0.37568795005E+03  0.17106257145E+03 -0.10543326382E+04  0.14780125680E+04  0.95000000000E+03 0.  0.
   -2000013    1    1    2    0    0  0.37568795005E+03 -0.17106257145E+03 -0.14456836459E+04  0.17784558030E+04  0.95000000000E+03 0.  0.
<mgrwt>
<rscale>  0 0.20867450E+04</rscale>
<asrwt>0</asrwt>
<pdfrwt beam="2">  1        2 0.44280653E+00 0.20867450E+04</pdfrwt>
<pdfrwt beam="1">  1       -2 0.58188620E-01 0.20867450E+04</pdfrwt>
<totfact> 0.52886895E+00</totfact>
</mgrwt>
</event>
<event>
 4    1  0.2058093E-008  0.2695222E+04  0.7816531E-02  0.8336557E-01
          2   -1    0    0  501    0  0.00000000000E+00  0.00000000000E+00  0.32212959672E+04  0.32212959672E+04  0.00000000000E+00 0.  1.
         -2   -1    0    0    0  501 -0.00000000000E+00 -0.00000000000E+00 -0.56376552444E+03  0.56376552444E+03  0.00000000000E+00 0. -1.
    2000013    1    1    2    0    0 -0.20460388435E+03 -0.85503157677E+03  0.18553792725E+04  0.22622718651E+04  0.95000000000E+03 0.  0.
   -2000013    1    1    2    0    0  0.20460388435E+03  0.85503157677E+03  0.80215117025E+03  0.15227896265E+04  0.95000000000E+03 0.  0.
<mgrwt>
<rscale>  0 0.26952222E+04</rscale>
<asrwt>0</asrwt>
<pdfrwt beam="1">  1        2 0.49558398E+00 0.26952222E+04</pdfrwt>
<pdfrwt beam="2">  1       -2 0.86733160E-01 0.26952222E+04</pdfrwt>
<totfact> 0.12679518E+00</totfact>
</mgrwt>
</event>
<event>
 4    1  0.2058093E-008  0.3048485E+04  0.7816531E-02  0.8230020E-01
         -1   -1    0    0    0  501 -0.00000000000E+00  0.00000000000E+00  0.14742418755E+04  0.14742418755E+04  0.00000000000E+00 0.  1.
          1   -1    0    0  501    0  0.00000000000E+00 -0.00000000000E+00 -0.15759392277E+04  0.15759392277E+04  0.00000000000E+00 0. -1.
    2000013    1    1    2    0    0 -0.91695476590E+03 -0.26840765685E+03  0.66226576038E+03  0.15013143076E+04  0.95000000000E+03 0.  0.
   -2000013    1    1    2    0    0  0.91695476590E+03  0.26840765685E+03 -0.76396311264E+03  0.15488667956E+04  0.95000000000E+03 0.  0.
<mgrwt>
<rscale>  0 0.30484853E+04</rscale>
<asrwt>0</asrwt>
<pdfrwt beam="2">  1        1 0.24245219E+00 0.30484853E+04</pdfrwt>
<pdfrwt beam="1">  1       -1 0.22680644E+00 0.30484853E+04</pdfrwt>
<totfact> 0.48699739E-01</totfact>
</mgrwt>
</event>
<event>
 4    1  0.2058093E-008  0.3333355E+04  0.7816531E-02  0.8154460E-01
          2   -1    0    0  501    0  0.00000000000E+00  0.00000000000E+00  0.16867323959E+04  0.16867323959E+04  0.00000000000E+00 0.  1.
         -2   -1    0    0    0  501 -0.00000000000E+00 -0.00000000000E+00 -0.16468613265E+04  0.16468613265E+04  0.00000000000E+00 0. -1.
    2000013    1    1    2    0    0  0.93954976825E+03 -0.29015450524E+03  0.97308867497E+03  0.16781969412E+04  0.95000000000E+03 0.  0.
   -2000013    1    1    2    0    0 -0.93954976825E+03  0.29015450524E+03 -0.93321760564E+03  0.16553967813E+04  0.95000000000E+03 0.  0.
<mgrwt>
<rscale>  0 0.33333553E+04</rscale>
<asrwt>0</asrwt>
<pdfrwt beam="1">  1        2 0.25949729E+00 0.33333553E+04</pdfrwt>
<pdfrwt beam="2">  1       -2 0.25336328E+00 0.33333553E+04</pdfrwt>
<totfact> 0.50912356E-01</totfact>
</mgrwt>
</event>
<event>
 4    1  0.2058093E-008  0.5729965E+04  0.7816531E-02  0.7724815E-01
          2   -1    0    0  501    0  0.00000000000E+00  0.00000000000E+00  0.33534101684E+04  0.33534101684E+04  0.00000000000E+00 0.  1.
         -2   -1    0    0    0  501 -0.00000000000E+00 -0.00000000000E+00 -0.24476945879E+04  0.24476945879E+04  0.00000000000E+00 0. -1.
    2000013    1    1    2    0    0 -0.10514607784E+04  0.22655855740E+04 -0.59301007006E+03  0.27372629951E+04  0.95000000000E+03 0.  0.
   -2000013    1    1    2    0    0  0.10514607784E+04 -0.22655855740E+04  0.14987256506E+04  0.30638417611E+04  0.95000000000E+03 0.  0.
<mgrwt>
<rscale>  0 0.57299647E+04</rscale>
<asrwt>0</asrwt>
<pdfrwt beam="1">  1        2 0.51590926E+00 0.57299647E+04</pdfrwt>
<pdfrwt beam="2">  1       -2 0.37656840E+00 0.57299647E+04</pdfrwt>
<totfact> 0.74184218E-03</totfact>
</mgrwt>
</event>
<event>
 4    1  0.2058093E-008  0.2989320E+04  0.7816531E-02  0.8246787E-01
         -2   -1    0    0    0  501 -0.00000000000E+00  0.00000000000E+00  0.95843680217E+03  0.95843680217E+03  0.00000000000E+00 0. -1.
          2   -1    0    0  501    0  0.00000000000E+00 -0.00000000000E+00 -0.23308881673E+04  0.23308881673E+04  0.00000000000E+00 0.  1.
    2000013    1    1    2    0    0  0.48299598751E+03  0.10465022708E+04 -0.62538793303E+03  0.16192782940E+04  0.95000000000E+03 0.  0.
   -2000013    1    1    2    0    0 -0.48299598751E+03 -0.10465022708E+04 -0.74706343214E+03  0.16700466755E+04  0.95000000000E+03 0.  0.
<mgrwt>
<rscale>  0 0.29893203E+04</rscale>
<asrwt>0</asrwt>
<pdfrwt beam="2">  1        2 0.35859818E+00 0.29893203E+04</pdfrwt>
<pdfrwt beam="1">  1       -2 0.14745182E+00 0.29893203E+04</pdfrwt>
<totfact> 0.11694079E+00</totfact>
</mgrwt>
</event>
<event>
 4    1  0.2058093E-008  0.3215269E+04  0.7816531E-02  0.8184796E-01
         -2   -1    0    0    0  501 -0.00000000000E+00  0.00000000000E+00  0.57091401613E+03  0.57091401613E+03  0.00000000000E+00 0. -1.
          2   -1    0    0  501    0  0.00000000000E+00 -0.00000000000E+00 -0.45269312043E+04  0.45269312043E+04  0.00000000000E+00 0.  1.
    2000013    1    1    2    0    0  0.88030336441E+03 -0.75054205730E+03 -0.29075849511E+04  0.32702901463E+04  0.95000000000E+03 0.  0.
   -2000013    1    1    2    0    0 -0.88030336441E+03  0.75054205730E+03 -0.10484322371E+04  0.18275550741E+04  0.95000000000E+03 0.  0.
<mgrwt>
<rscale>  0 0.32152689E+04</rscale>
<asrwt>0</asrwt>
<pdfrwt beam="2">  1        2 0.69645096E+00 0.32152689E+04</pdfrwt>
<pdfrwt beam="1">  1       -2 0.87832924E-01 0.32152689E+04</pdfrwt>
<totfact> 0.10852663E-01</totfact>
</mgrwt>
</event>
<event>
 4    1  0.2058093E-008  0.3122883E+04  0.7816531E-02  0.8209486E-01
          2   -1    0    0  501    0  0.00000000000E+00  0.00000000000E+00  0.19889072113E+04  0.19889072113E+04  0.00000000000E+00 0.  1.
         -2   -1    0    0    0  501 -0.00000000000E+00 -0.00000000000E+00 -0.12258486654E+04  0.12258486654E+04  0.00000000000E+00 0. -1.
    2000013    1    1    2    0    0  0.10609525715E+04 -0.25728121320E+03 -0.22205226106E+03  0.14641110573E+04  0.95000000000E+03 0.  0.
   -2000013    1    1    2    0    0 -0.10609525715E+04  0.25728121320E+03  0.98511080692E+03  0.17506448193E+04  0.95000000000E+03 0.  0.
<mgrwt>
<rscale>  0 0.31228828E+04</rscale>
<asrwt>0</asrwt>
<pdfrwt beam="1">  1        2 0.30598572E+00 0.31228828E+04</pdfrwt>
<pdfrwt beam="2">  1       -2 0.18859210E+00 0.31228828E+04</pdfrwt>
<totfact> 0.90985532E-01</totfact>
</mgrwt>
</event>
<event>
 4    1  0.2058093E-008  0.3465450E+04  0.7816531E-02  0.8122027E-01
          2   -1    0    0  501    0  0.00000000000E+00  0.00000000000E+00  0.36915483904E+04  0.36915483904E+04  0.00000000000E+00 0.  1.
         -2   -1    0    0    0  501 -0.00000000000E+00 -0.00000000000E+00 -0.81330009240E+03  0.81330009240E+03  0.00000000000E+00 0. -1.
    2000013    1    1    2    0    0  0.82845903092E+03  0.87007122797E+03  0.24923642639E+04  0.29253628718E+04  0.95000000000E+03 0.  0.
   -2000013    1    1    2    0    0 -0.82845903092E+03 -0.87007122797E+03  0.38588403411E+03  0.15794856110E+04  0.95000000000E+03 0.  0.
<mgrwt>
<rscale>  0 0.34654504E+04</rscale>
<asrwt>0</asrwt>
<pdfrwt beam="1">  1        2 0.56793051E+00 0.34654504E+04</pdfrwt>
<pdfrwt beam="2">  1       -2 0.12512309E+00 0.34654504E+04</pdfrwt>
<totfact> 0.23292962E-01</totfact>
</mgrwt>
</event>
<event>
 4    1  0.2058093E-008  0.2597915E+04  0.7816531E-02  0.8368910E-01
         -2   -1    0    0    0  501 -0.00000000000E+00  0.00000000000E+00  0.10762345749E+04  0.10762345749E+04  0.00000000000E+00 0. -1.
          2   -1    0    0  501    0  0.00000000000E+00 -0.00000000000E+00 -0.15677718740E+04  0.15677718740E+04  0.00000000000E+00 0.  1.
    2000013    1    1    2    0    0  0.28519271920E+02 -0.82162305437E+03 -0.58164272316E+03  0.13844443108E+04  0.95000000000E+03 0.  0.
   -2000013    1    1    2    0    0 -0.28519271920E+02  0.82162305437E+03  0.90105424011E+02  0.12595621381E+04  0.95000000000E+03 0.  0.
<mgrwt>
<rscale>  0 0.25979148E+04</rscale>
<asrwt>0</asrwt>
<pdfrwt beam="2">  1        2 0.24119567E+00 0.25979148E+04</pdfrwt>
<pdfrwt beam="1">  1       -2 0.16557455E+00 0.25979148E+04</pdfrwt>
<totfact> 0.23589246E+00</totfact>
</mgrwt>
</event>
<event>
 4    1  0.2058093E-008  0.2467311E+04  0.7816531E-02  0.8414725E-01
          1   -1    0    0  501    0  0.00000000000E+00  0.00000000000E+00  0.78230644937E+03  0.78230644937E+03  0.00000000000E+00 0. -1.
         -1   -1    0    0    0  501 -0.00000000000E+00 -0.00000000000E+00 -0.19454086001E+04  0.19454086001E+04  0.00000000000E+00 0.  1.
    2000013    1    1    2    0    0 -0.40794775989E+02  0.77090979686E+03 -0.75080935217E+03  0.14360295303E+04  0.95000000000E+03 0.  0.
   -2000013    1    1    2    0    0  0.40794775989E+02 -0.77090979686E+03 -0.41229279857E+03  0.12916855192E+04  0.95000000000E+03 0.  0.
<mgrwt>
<rscale>  0 0.24673108E+04</rscale>
<asrwt>0</asrwt>
<pdfrwt beam="1">  1        1 0.12035484E+00 0.24673108E+04</pdfrwt>
<pdfrwt beam="2">  1       -1 0.29929363E+00 0.24673108E+04</pdfrwt>
<totfact> 0.68146537E-01</totfact>
</mgrwt>
</event>
<event>
 4    1  0.2058093E-008  0.2164171E+04  0.7816531E-02  0.8533491E-01
         -2   -1    0    0    0  501 -0.00000000000E+00  0.00000000000E+00  0.13011500588E+04  0.13011500588E+04  0.00000000000E+00 0. -1.
          2   -1    0    0  501    0  0.00000000000E+00 -0.00000000000E+00 -0.89990316556E+03  0.89990316556E+03  0.00000000000E+00 0.  1.
    2000013    1    1    2    0    0 -0.40245977787E+03 -0.29496288504E+03  0.58848786016E+02  0.10746814207E+04  0.95000000000E+03 0.  0.
   -2000013    1    1    2    0    0  0.40245977787E+03  0.29496288504E+03  0.34239810726E+03  0.11263718037E+04  0.95000000000E+03 0.  0.
<mgrwt>
<rscale>  0 0.21641710E+04</rscale>
<asrwt>0</asrwt>
<pdfrwt beam="2">  1        2 0.13844664E+00 0.21641710E+04</pdfrwt>
<pdfrwt beam="1">  1       -2 0.20017693E+00 0.21641710E+04</pdfrwt>
<totfact> 0.35647453E+00</totfact>
</mgrwt>
</event>
<event>
 4    1  0.2058093E-008  0.2100175E+04  0.7816531E-02  0.8561166E-01
         -2   -1    0    0    0  501 -0.00000000000E+00  0.00000000000E+00  0.17998129963E+04  0.17998129963E+04  0.00000000000E+00 0. -1.
          2   -1    0    0  501    0  0.00000000000E+00 -0.00000000000E+00 -0.61266586095E+03  0.61266586095E+03  0.00000000000E+00 0.  1.
    2000013    1    1    2    0    0  0.38498555657E+03 -0.22192438162E+03  0.65347897345E+03  0.12357180417E+04  0.95000000000E+03 0.  0.
   -2000013    1    1    2    0    0 -0.38498555657E+03  0.22192438162E+03  0.53366816191E+03  0.11767608155E+04  0.95000000000E+03 0.  0.
<mgrwt>
<rscale>  0 0.21001752E+04</rscale>
<asrwt>0</asrwt>
<pdfrwt beam="2">  1        2 0.94256287E-01 0.21001752E+04</pdfrwt>
<pdfrwt beam="1">  1       -2 0.27689430E+00 0.21001752E+04</pdfrwt>
<totfact> 0.19606729E+00</totfact>
</mgrwt>
</event>
<event>
 4    1  0.2058093E-008  0.2350045E+04  0.7816531E-02  0.8458446E-01
          1   -1    0    0  501    0  0.00000000000E+00  0.00000000000E+00  0.10538036802E+04  0.10538036802E+04  0.00000000000E+00 0.  1.
         -1   -1    0    0    0  501 -0.00000000000E+00 -0.00000000000E+00 -0.13101851045E+04  0.13101851045E+04  0.00000000000E+00 0. -1.
    2000013    1    1    2    0    0  0.47634442113E+03 -0.30758496938E+03  0.26996754609E+03  0.11388129771E+04  0.95000000000E+03 0.  0.
   -2000013    1    1    2    0    0 -0.47634442113E+03  0.30758496938E+03 -0.52634897040E+03  0.12251758076E+04  0.95000000000E+03 0.  0.
<mgrwt>
<rscale>  0 0.23500450E+04</rscale>
<asrwt>0</asrwt>
<pdfrwt beam="1">  1        1 0.16212364E+00 0.23500450E+04</pdfrwt>
<pdfrwt beam="2">  1       -1 0.20156694E+00 0.23500450E+04</pdfrwt>
<totfact> 0.18162397E+00</totfact>
</mgrwt>
</event>
<event>
 4    1  0.2058093E-008  0.2274071E+04  0.7816531E-02  0.8488215E-01
          2   -1    0    0  501    0  0.00000000000E+00  0.00000000000E+00  0.11438512960E+04  0.11438512960E+04  0.00000000000E+00 0.  1.
         -2   -1    0    0    0  501 -0.00000000000E+00 -0.00000000000E+00 -0.11302605950E+04  0.11302605950E+04  0.00000000000E+00 0. -1.
    2000013    1    1    2    0    0 -0.27010418450E+03  0.54006613506E+03  0.16718008926E+03  0.11380144476E+04  0.95000000000E+03 0.  0.
   -2000013    1    1    2    0    0  0.27010418450E+03 -0.54006613506E+03 -0.15358938818E+03  0.11360974434E+04  0.95000000000E+03 0.  0.
<mgrwt>
<rscale>  0 0.22740713E+04</rscale>
<asrwt>0</asrwt>
<pdfrwt beam="1">  1        2 0.17597712E+00 0.22740713E+04</pdfrwt>
<pdfrwt beam="2">  1       -2 0.17388625E+00 0.22740713E+04</pdfrwt>
<totfact> 0.37219344E+00</totfact>
</mgrwt>
</event>
<event>
 4    1  0.2058093E-008  0.2264697E+04  0.7816531E-02  0.8491972E-01
         -2   -1    0    0    0  501 -0.00000000000E+00  0.00000000000E+00  0.52044517300E+03  0.52044517300E+03  0.00000000000E+00 0. -1.
          2   -1    0    0  501    0  0.00000000000E+00 -0.00000000000E+00 -0.24636844017E+04  0.24636844017E+04  0.00000000000E+00 0.  1.
    2000013    1    1    2    0    0  0.20218905585E+03 -0.41040505046E+03 -0.42769042665E+03  0.11378628304E+04  0.95000000000E+03 0.  0.
   -2000013    1    1    2    0    0 -0.20218905585E+03  0.41040505046E+03 -0.15155488021E+04  0.18462667443E+04  0.95000000000E+03 0.  0.
<mgrwt>
<rscale>  0 0.22646966E+04</rscale>
<asrwt>0</asrwt>
<pdfrwt beam="2">  1        2 0.37902837E+00 0.22646966E+04</pdfrwt>
<pdfrwt beam="1">  1       -2 0.80068488E-01 0.22646966E+04</pdfrwt>
<totfact> 0.45831865E+00</totfact>
</mgrwt>
</event>
<event>
 4    1  0.2058093E-008  0.2277357E+04  0.7816531E-02  0.8486903E-01
         -2   -1    0    0    0  501 -0.00000000000E+00  0.00000000000E+00  0.50647288667E+03  0.50647288667E+03  0.00000000000E+00 0. -1.
          2   -1    0    0  501    0  0.00000000000E+00 -0.00000000000E+00 -0.25600355626E+04  0.25600355626E+04  0.00000000000E+00 0.  1.
    2000013    1    1    2    0    0 -0.93573726165E+02  0.56067717203E+03 -0.66805629578E+03  0.12930251923E+04  0.95000000000E+03 0.  0.
   -2000013    1    1    2    0    0  0.93573726165E+02 -0.56067717203E+03 -0.13855063801E+04  0.17734832570E+04  0.95000000000E+03 0.  0.
<mgrwt>
<rscale>  0 0.22773569E+04</rscale>
<asrwt>0</asrwt>
<pdfrwt beam="2">  1        2 0.39385162E+00 0.22773569E+04</pdfrwt>
<pdfrwt beam="1">  1       -2 0.77918907E-01 0.22773569E+04</pdfrwt>
<totfact> 0.42786159E+00</totfact>
</mgrwt>
</event>
<event>
 4    1  0.2058093E-008  0.3024399E+04  0.7816531E-02  0.8236798E-01
         -2   -1    0    0    0  501 -0.00000000000E+00  0.00000000000E+00  0.67115075910E+03  0.67115075910E+03  0.00000000000E+00 0. -1.
          2   -1    0    0  501    0  0.00000000000E+00 -0.00000000000E+00 -0.34072035304E+04  0.34072035304E+04  0.00000000000E+00 0.  1.
    2000013    1    1    2    0    0 -0.12330813572E+03 -0.10831212646E+04 -0.19648592707E+04  0.24395754803E+04  0.95000000000E+03 0.  0.
   -2000013    1    1    2    0    0  0.12330813572E+03  0.10831212646E+04 -0.77119350057E+03  0.16387788092E+04  0.95000000000E+03 0.  0.
<mgrwt>
<rscale>  0 0.30243989E+04</rscale>
<asrwt>0</asrwt>
<pdfrwt beam="2">  1        2 0.52418515E+00 0.30243989E+04</pdfrwt>
<pdfrwt beam="1">  1       -2 0.10325396E+00 0.30243989E+04</pdfrwt>
<totfact> 0.61574254E-01</totfact>
</mgrwt>
</event>
<event>
 4    1  0.2058093E-008  0.2122884E+04  0.7816531E-02  0.8551229E-01
         -2   -1    0    0    0  501 -0.00000000000E+00  0.00000000000E+00  0.34956967844E+03  0.34956967844E+03  0.00000000000E+00 0. -1.
          2   -1    0    0  501    0  0.00000000000E+00 -0.00000000000E+00 -0.32229886989E+04  0.32229886989E+04  0.00000000000E+00 0.  1.
    2000013    1    1    2    0    0  0.35667588768E+03  0.21112445067E+03 -0.10515987518E+04  0.14765334935E+04  0.95000000000E+03 0.  0.
   -2000013    1    1    2    0    0 -0.35667588768E+03 -0.21112445067E+03 -0.18218202686E+04  0.20960248838E+04  0.95000000000E+03 0.  0.
<mgrwt>
<rscale>  0 0.21228840E+04</rscale>
<asrwt>0</asrwt>
<pdfrwt beam="2">  1        2 0.49584443E+00 0.21228840E+04</pdfrwt>
<pdfrwt beam="1">  1       -2 0.53779949E-01 0.21228840E+04</pdfrwt>
<totfact> 0.37629481E+00</totfact>
</mgrwt>
</event>
<event>
 4    1  0.2058093E-008  0.2218075E+04  0.7816531E-02  0.8510942E-01
          2   -1    0    0  501    0  0.00000000000E+00  0.00000000000E+00  0.20536413096E+04  0.20536413096E+04  0.00000000000E+00 0.  1.
         -2   -1    0    0    0  501 -0.00000000000E+00 -0.00000000000E+00 -0.59891884938E+03  0.59891884938E+03  0.00000000000E+00 0. -1.
    2000013    1    1    2    0    0  0.32858169475E+03  0.45863989609E+03  0.61298068145E+03  0.12635512654E+04  0.95000000000E+03 0.  0.
   -2000013    1    1    2    0    0 -0.32858169475E+03 -0.45863989609E+03  0.84174177879E+03  0.13890088936E+04  0.95000000000E+03 0.  0.
<mgrwt>
<rscale>  0 0.22180753E+04</rscale>
<asrwt>0</asrwt>
<pdfrwt beam="1">  1        2 0.31594481E+00 0.22180753E+04</pdfrwt>
<pdfrwt beam="2">  1       -2 0.92141362E-01 0.22180753E+04</pdfrwt>
<totfact> 0.56962167E+00</totfact>
</mgrwt>
</event>
<event>
 4    1  0.2058093E-008  0.2835761E+04  0.7816531E-02  0.8292251E-01
         -2   -1    0    0    0  501 -0.00000000000E+00  0.00000000000E+00  0.12960477502E+04  0.12960477502E+04  0.00000000000E+00 0. -1.
          2   -1    0    0  501    0  0.00000000000E+00 -0.00000000000E+00 -0.15511656847E+04  0.15511656847E+04  0.00000000000E+00 0.  1.
    2000013    1    1    2    0    0 -0.16074272127E+03  0.10394652007E+04 -0.87919526698E+02  0.14200549177E+04  0.95000000000E+03 0.  0.
   -2000013    1    1    2    0    0  0.16074272127E+03 -0.10394652007E+04 -0.16719840779E+03  0.14271585173E+04  0.95000000000E+03 0.  0.
<mgrwt>
<rscale>  0 0.28357608E+04</rscale>
<asrwt>0</asrwt>
<pdfrwt beam="2">  1        2 0.23864087E+00 0.28357608E+04</pdfrwt>
<pdfrwt beam="1">  1       -2 0.19939196E+00 0.28357608E+04</pdfrwt>
<totfact> 0.13834883E+00</totfact>
</mgrwt>
</event>
<event>
 4    1  0.2058093E-008  0.2633574E+04  0.7816531E-02  0.8356886E-01
          2   -1    0    0  501    0  0.00000000000E+00  0.00000000000E+00  0.10967889946E+04  0.10967889946E+04  0.00000000000E+00 0.  1.
         -2   -1    0    0    0  501 -0.00000000000E+00 -0.00000000000E+00 -0.15809125252E+04  0.15809125252E+04  0.00000000000E+00 0. -1.
    2000013    1    1    2    0    0 -0.61995312507E+03 -0.65524979600E+03 -0.10666405385E+03  0.13143711016E+04  0.95000000000E+03 0.  0.
   -2000013    1    1    2    0    0  0.61995312507E+03  0.65524979600E+03 -0.37745947679E+03  0.13633304182E+04  0.95000000000E+03 0.  0.
<mgrwt>
<rscale>  0 0.26335736E+04</rscale>
<asrwt>0</asrwt>
<pdfrwt beam="1">  1        2 0.16873677E+00 0.26335736E+04</pdfrwt>
<pdfrwt beam="2">  1       -2 0.24321731E+00 0.26335736E+04</pdfrwt>
<totfact> 0.13659335E+00</totfact>
</mgrwt>
</event>
<event>
 4    1  0.2058093E-008  0.2015432E+04  0.7816531E-02  0.8599439E-01
          2   -1    0    0  501    0  0.00000000000E+00  0.00000000000E+00  0.20121103918E+04  0.20121103918E+04  0.00000000000E+00 0.  1.
         -2   -1    0    0    0  501 -0.00000000000E+00 -0.00000000000E+00 -0.50468994911E+03  0.50468994911E+03  0.00000000000E+00 0. -1.
    2000013    1    1    2    0    0 -0.11732595601E+02 -0.25723694565E+03  0.10235225170E+04  0.14200024094E+04  0.95000000000E+03 0.  0.
   -2000013    1    1    2    0    0  0.11732595601E+02  0.25723694565E+03  0.48389792572E+03  0.10967979315E+04  0.95000000000E+03 0.  0.
<mgrwt>
<rscale>  0 0.20154324E+04</rscale>
<asrwt>0</asrwt>
<pdfrwt beam="1">  1        2 0.30955544E+00 0.20154324E+04</pdfrwt>
<pdfrwt beam="2">  1       -2 0.77644609E-01 0.20154324E+04</pdfrwt>
<totfact> 0.90219693E+00</totfact>
</mgrwt>
</event>
<event>
 4    1  0.2058093E-008  0.2610508E+04  0.7816531E-02  0.8364640E-01
          1   -1    0    0  501    0  0.00000000000E+00  0.00000000000E+00  0.10743749613E+04  0.10743749613E+04  0.00000000000E+00 0.  1.
         -1   -1    0    0    0  501 -0.00000000000E+00 -0.00000000000E+00 -0.15857485351E+04  0.15857485351E+04  0.00000000000E+00 0. -1.
    2000013    1    1    2    0    0  0.60216778220E+03  0.51846627926E+03 -0.67555580639E+03  0.14107760163E+04  0.95000000000E+03 0.  0.
   -2000013    1    1    2    0    0 -0.60216778220E+03 -0.51846627926E+03  0.16418223256E+03  0.12493474801E+04  0.95000000000E+03 0.  0.
<mgrwt>
<rscale>  0 0.26105084E+04</rscale>
<asrwt>0</asrwt>
<pdfrwt beam="1">  1        1 0.16528846E+00 0.26105084E+04</pdfrwt>
<pdfrwt beam="2">  1       -1 0.24396131E+00 0.26105084E+04</pdfrwt>
<totfact> 0.89083206E-01</totfact>
</mgrwt>
</event>
<event>
 4    1  0.2058093E-008  0.3223625E+04  0.7816531E-02  0.8182606E-01
         -2   -1    0    0    0  501 -0.00000000000E+00  0.00000000000E+00  0.12962283640E+04  0.12962283640E+04  0.00000000000E+00 0. -1.
          2   -1    0    0  501    0  0.00000000000E+00 -0.00000000000E+00 -0.20042301464E+04  0.20042301464E+04  0.00000000000E+00 0.  1.
    2000013    1    1    2    0    0  0.12789401453E+04  0.71018114213E+02 -0.59347419972E+03  0.17016001568E+04  0.95000000000E+03 0.  0.
   -2000013    1    1    2    0    0 -0.12789401453E+04 -0.71018114213E+02 -0.11452758276E+03  0.15988583536E+04  0.95000000000E+03 0.  0.
<mgrwt>
<rscale>  0 0.32236253E+04</rscale>
<asrwt>0</asrwt>
<pdfrwt beam="2">  1        2 0.30834310E+00 0.32236253E+04</pdfrwt>
<pdfrwt beam="1">  1       -2 0.19941975E+00 0.32236253E+04</pdfrwt>
<totfact> 0.74937562E-01</totfact>
</mgrwt>
</event>
<event>
 4    1  0.2058093E-008  0.2567091E+04  0.7816531E-02  0.8379466E-01
         -2   -1    0    0    0  501 -0.00000000000E+00  0.00000000000E+00  0.11059864590E+04  0.11059864590E+04  0.00000000000E+00 0. -1.
          2   -1    0    0  501    0  0.00000000000E+00 -0.00000000000E+00 -0.14896106506E+04  0.14896106506E+04  0.00000000000E+00 0.  1.
    2000013    1    1    2    0    0  0.63520538049E+03 -0.42800632619E+03 -0.59411720268E+03  0.13572584651E+04  0.95000000000E+03 0.  0.
   -2000013    1    1    2    0    0 -0.63520538049E+03  0.42800632619E+03  0.21049301113E+03  0.12383386445E+04  0.95000000000E+03 0.  0.
<mgrwt>
<rscale>  0 0.25670911E+04</rscale>
<asrwt>0</asrwt>
<pdfrwt beam="2">  1        2 0.22917087E+00 0.25670911E+04</pdfrwt>
<pdfrwt beam="1">  1       -2 0.17015176E+00 0.25670911E+04</pdfrwt>
<totfact> 0.24266713E+00</totfact>
</mgrwt>
</event>
<event>
 4    1  0.2058093E-008  0.2476625E+04  0.7816531E-02  0.8411361E-01
          2   -1    0    0  501    0  0.00000000000E+00  0.00000000000E+00  0.10095058334E+04  0.10095058334E+04  0.00000000000E+00 0.  1.
         -2   -1    0    0    0  501 -0.00000000000E+00 -0.00000000000E+00 -0.15189789660E+04  0.15189789660E+04  0.00000000000E+00 0. -1.
    2000013    1    1    2    0    0 -0.72234059886E+03  0.76685110229E+02 -0.58280877164E+03  0.13303468011E+04  0.95000000000E+03 0.  0.
   -2000013    1    1    2    0    0  0.72234059886E+03 -0.76685110229E+02  0.73335639089E+02  0.11981379983E+04  0.95000000000E+03 0.  0.
<mgrwt>
<rscale>  0 0.24766252E+04</rscale>
<asrwt>0</asrwt>
<pdfrwt beam="1">  1        2 0.15530859E+00 0.24766252E+04</pdfrwt>
<pdfrwt beam="2">  1       -2 0.23368907E+00 0.24766252E+04</pdfrwt>
<totfact> 0.17991723E+00</totfact>
</mgrwt>
</event>
<event>
 4    1  0.2058093E-008  0.2790401E+04  0.7816531E-02  0.8306255E-01
         -2   -1    0    0    0  501 -0.00000000000E+00  0.00000000000E+00  0.50109281364E+03  0.50109281364E+03  0.00000000000E+00 0. -1.
          2   -1    0    0  501    0  0.00000000000E+00 -0.00000000000E+00 -0.38846796346E+04  0.38846796346E+04  0.00000000000E+00 0.  1.
    2000013    1    1    2    0    0 -0.21956842647E+03 -0.90900186573E+03 -0.23390552330E+04  0.26922433153E+04  0.95000000000E+03 0.  0.
   -2000013    1    1    2    0    0  0.21956842647E+03  0.90900186573E+03 -0.10445315879E+04  0.16935291329E+04  0.95000000000E+03 0.  0.
<mgrwt>
<rscale>  0 0.27904014E+04</rscale>
<asrwt>0</asrwt>
<pdfrwt beam="2">  1        2 0.59764305E+00 0.27904014E+04</pdfrwt>
<pdfrwt beam="1">  1       -2 0.77091199E-01 0.27904014E+04</pdfrwt>
<totfact> 0.55301706E-01</totfact>
</mgrwt>
</event>
<event>
 4    1  0.2058093E-008  0.2571163E+04  0.7816531E-02  0.8378063E-01
         -2   -1    0    0    0  501 -0.00000000000E+00  0.00000000000E+00  0.73143143785E+03  0.73143143785E+03  0.00000000000E+00 0. -1.
          2   -1    0    0  501    0  0.00000000000E+00 -0.00000000000E+00 -0.22595690024E+04  0.22595690024E+04  0.00000000000E+00 0.  1.
    2000013    1    1    2    0    0 -0.83983926549E+03 -0.18873484821E+03 -0.87606480335E+03  0.15527203143E+04  0.95000000000E+03 0.  0.
   -2000013    1    1    2    0    0  0.83983926549E+03  0.18873484821E+03 -0.65207276121E+03  0.14382801259E+04  0.95000000000E+03 0.  0.
<mgrwt>
<rscale>  0 0.25711630E+04</rscale>
<asrwt>0</asrwt>
<pdfrwt beam="2">  1        2 0.34762600E+00 0.25711630E+04</pdfrwt>
<pdfrwt beam="1">  1       -2 0.11252791E+00 0.25711630E+04</pdfrwt>
<totfact> 0.26343178E+00</totfact>
</mgrwt>
</event>
<event>
 4    1  0.2058093E-008  0.3339861E+04  0.7816531E-02  0.8152826E-01
          2   -1    0    0  501    0  0.00000000000E+00  0.00000000000E+00  0.10573331003E+04  0.10573331003E+04  0.00000000000E+00 0.  1.
         -2   -1    0    0    0  501 -0.00000000000E+00 -0.00000000000E+00 -0.26374539542E+04  0.26374539542E+04  0.00000000000E+00 0. -1.
    2000013    1    1    2    0    0  0.85300712870E+03 -0.77843823501E+03 -0.16124141978E+04  0.21990831709E+04  0.95000000000E+03 0.  0.
   -2000013    1    1    2    0    0 -0.85300712870E+03  0.77843823501E+03  0.32293343811E+02  0.14957038836E+04  0.95000000000E+03 0.  0.
<mgrwt>
<rscale>  0 0.33398607E+04</rscale>
<asrwt>0</asrwt>
<pdfrwt beam="1">  1        2 0.16266663E+00 0.33398607E+04</pdfrwt>
<pdfrwt beam="2">  1       -2 0.40576214E+00 0.33398607E+04</pdfrwt>
<totfact> 0.13107258E-01</totfact>
</mgrwt>
</event>
<event>
 4    1  0.2058093E-008  0.2053179E+04  0.7816531E-02  0.8582154E-01
          1   -1    0    0  501    0  0.00000000000E+00  0.00000000000E+00  0.13642643926E+04  0.13642643926E+04  0.00000000000E+00 0.  1.
         -1   -1    0    0    0  501 -0.00000000000E+00 -0.00000000000E+00 -0.77249398403E+03  0.77249398403E+03  0.00000000000E+00 0. -1.
    2000013    1    1    2    0    0 -0.69393248517E+02  0.37738691406E+03  0.22884450779E+03  0.10498124188E+04  0.95000000000E+03 0.  0.
   -2000013    1    1    2    0    0  0.69393248517E+02 -0.37738691406E+03  0.36292590076E+03  0.10869459579E+04  0.95000000000E+03 0.  0.
<mgrwt>
<rscale>  0 0.20531790E+04</rscale>
<asrwt>0</asrwt>
<pdfrwt beam="1">  1        1 0.20988683E+00 0.20531790E+04</pdfrwt>
<pdfrwt beam="2">  1       -1 0.11884523E+00 0.20531790E+04</pdfrwt>
<totfact> 0.47661899E+00</totfact>
</mgrwt>
</event>
<event>
 4    1  0.2058093E-008  0.2969104E+04  0.7816531E-02  0.8252609E-01
          2   -1    0    0  501    0  0.00000000000E+00  0.00000000000E+00  0.24898277006E+04  0.24898277006E+04  0.00000000000E+00 0.  1.
         -2   -1    0    0    0  501 -0.00000000000E+00 -0.00000000000E+00 -0.88515927906E+03  0.88515927906E+03  0.00000000000E+00 0. -1.
    2000013    1    1    2    0    0  0.37109193924E+03 -0.10525073302E+04  0.10711184882E+04  0.18152894324E+04  0.95000000000E+03 0.  0.
   -2000013    1    1    2    0    0 -0.37109193924E+03  0.10525073302E+04  0.53354993329E+03  0.15596975472E+04  0.95000000000E+03 0.  0.
<mgrwt>
<rscale>  0 0.29691036E+04</rscale>
<asrwt>0</asrwt>
<pdfrwt beam="1">  1        2 0.38305041E+00 0.29691036E+04</pdfrwt>
<pdfrwt beam="2">  1       -2 0.13617835E+00 0.29691036E+04</pdfrwt>
<totfact> 0.11681749E+00</totfact>
</mgrwt>
</event>
