<event>
 4    1  0.1323225E-008  0.1988375E+04  0.7816531E-02  0.8612075E-01
         -1   -1    0    0    0  501 -0.00000000000E+00  0.00000000000E+00  0.12655141735E+04  0.12655141735E+04  0.00000000000E+00 0. -1.
          1   -1    0    0  501    0  0.00000000000E+00 -0.00000000000E+00 -0.78103329686E+03  0.78103329686E+03  0.00000000000E+00 0.  1.
    2000013    1    1    2    0    0  0.22707944132E+03 -0.66824980245E+02  0.42015017547E+03  0.10653904545E+04  0.95000000000E+03 0.  0.
   -2000013    1    1    2    0    0 -0.22707944132E+03  0.66824980245E+02  0.64330701197E+02  0.98115701586E+03  0.95000000000E+03 0.  0.
<mgrwt>
<rscale>  0 0.19883749E+04</rscale>
<asrwt>0</asrwt>
<pdfrwt beam="2">  1        1 0.12015897E+00 0.19883749E+04</pdfrwt>
<pdfrwt beam="1">  1       -1 0.19469449E+00 0.19883749E+04</pdfrwt>
<totfact> 0.34945635E+00</totfact>
</mgrwt>
</event>
<event>
 4    1  0.1323225E-008  0.2352230E+04  0.7816531E-02  0.8457608E-01
          3   -1    0    0  501    0  0.00000000000E+00  0.00000000000E+00  0.68891536486E+03  0.68891536486E+03  0.00000000000E+00 0.  1.
         -3   -1    0    0    0  501 -0.00000000000E+00 -0.00000000000E+00 -0.20078615531E+04  0.20078615531E+04  0.00000000000E+00 0. -1.
    2000013    1    1    2    0    0  0.51098007467E+03 -0.45588154642E+03 -0.78410756732E+03  0.14093449891E+04  0.95000000000E+03 0.  0.
   -2000013    1    1    2    0    0 -0.51098007467E+03  0.45588154642E+03 -0.53483862091E+03  0.12874319289E+04  0.95000000000E+03 0.  0.
<mgrwt>
<rscale>  0 0.23522302E+04</rscale>
<asrwt>0</asrwt>
<pdfrwt beam="1">  1        3 0.10598698E+00 0.23522302E+04</pdfrwt>
<pdfrwt beam="2">  1       -3 0.30890178E+00 0.23522302E+04</pdfrwt>
<totfact> 0.60856942E-02</totfact>
</mgrwt>
</event>
<event>
 4    1  0.1323225E-008  0.2220984E+04  0.7816531E-02  0.8509745E-01
          2   -1    0    0  501    0  0.00000000000E+00  0.00000000000E+00  0.14006151317E+04  0.14006151317E+04  0.00000000000E+00 0.  1.
         -2   -1    0    0    0  501 -0.00000000000E+00 -0.00000000000E+00 -0.88046469519E+03  0.88046469519E+03  0.00000000000E+00 0. -1.
    2000013    1    1    2    0    0  0.45637322564E+03  0.24978721234E+03  0.84522111494E+01  0.10831627820E+04  0.95000000000E+03 0.  0.
   -2000013    1    1    2    0    0 -0.45637322564E+03 -0.24978721234E+03  0.51169822539E+03  0.11979170449E+04  0.95000000000E+03 0.  0.
<mgrwt>
<rscale>  0 0.22209837E+04</rscale>
<asrwt>0</asrwt>
<pdfrwt beam="1">  1        2 0.21547925E+00 0.22209837E+04</pdfrwt>
<pdfrwt beam="2">  1       -2 0.13545611E+00 0.22209837E+04</pdfrwt>
<totfact> 0.51611294E+00</totfact>
</mgrwt>
</event>
<event>
 4    1  0.1323225E-008  0.2196563E+04  0.7816531E-02  0.8519860E-01
          2   -1    0    0  501    0  0.00000000000E+00  0.00000000000E+00  0.22578861203E+04  0.22578861203E+04  0.00000000000E+00 0.  1.
         -2   -1    0    0    0  501 -0.00000000000E+00 -0.00000000000E+00 -0.53422650725E+03  0.53422650725E+03  0.00000000000E+00 0. -1.
    2000013    1    1    2    0    0  0.38604659020E+03  0.38413375933E+03  0.96917728660E+03  0.14623253153E+04  0.95000000000E+03 0.  0.
   -2000013    1    1    2    0    0 -0.38604659020E+03 -0.38413375933E+03  0.75448232641E+03  0.13297873122E+04  0.95000000000E+03 0.  0.
<mgrwt>
<rscale>  0 0.21965633E+04</rscale>
<asrwt>0</asrwt>
<pdfrwt beam="1">  1        2 0.34736709E+00 0.21965633E+04</pdfrwt>
<pdfrwt beam="2">  1       -2 0.82188694E-01 0.21965633E+04</pdfrwt>
<totfact> 0.56949413E+00</totfact>
</mgrwt>
</event>
<event>
 4    1  0.1323225E-008  0.2373759E+04  0.7816531E-02  0.8449394E-01
         -2   -1    0    0    0  501 -0.00000000000E+00  0.00000000000E+00  0.51273941482E+03  0.51273941482E+03  0.00000000000E+00 0. -1.
          2   -1    0    0  501    0  0.00000000000E+00 -0.00000000000E+00 -0.27473651714E+04  0.27473651714E+04  0.00000000000E+00 0.  1.
    2000013    1    1    2    0    0 -0.97902214414E+02 -0.65030430862E+03 -0.74446278739E+03  0.13744836773E+04  0.95000000000E+03 0.  0.
   -2000013    1    1    2    0    0  0.97902214414E+02  0.65030430862E+03 -0.14901629692E+04  0.18856209089E+04  0.95000000000E+03 0.  0.
<mgrwt>
<rscale>  0 0.23737585E+04</rscale>
<asrwt>0</asrwt>
<pdfrwt beam="2">  1        2 0.42267157E+00 0.23737585E+04</pdfrwt>
<pdfrwt beam="1">  1       -2 0.78882986E-01 0.23737585E+04</pdfrwt>
<totfact> 0.31988422E+00</totfact>
</mgrwt>
</event>
<event>
 4    1  0.1323225E-008  0.3095874E+04  0.7816531E-02  0.8216871E-01
          2   -1    0    0  501    0  0.00000000000E+00  0.00000000000E+00  0.70439651606E+03  0.70439651606E+03  0.00000000000E+00 0.  1.
         -2   -1    0    0    0  501 -0.00000000000E+00 -0.00000000000E+00 -0.34016474892E+04  0.34016474892E+04  0.00000000000E+00 0. -1.
    2000013    1    1    2    0    0  0.10710610715E+04  0.69441209574E+02 -0.57343461189E+03  0.15438008792E+04  0.95000000000E+03 0.  0.
   -2000013    1    1    2    0    0 -0.10710610715E+04 -0.69441209574E+02 -0.21238163612E+04  0.25622431260E+04  0.95000000000E+03 0.  0.
<mgrwt>
<rscale>  0 0.30958738E+04</rscale>
<asrwt>0</asrwt>
<pdfrwt beam="1">  1        2 0.10836869E+00 0.30958738E+04</pdfrwt>
<pdfrwt beam="2">  1       -2 0.52333038E+00 0.30958738E+04</pdfrwt>
<totfact> 0.41065671E-02</totfact>
</mgrwt>
</event>
<event>
 4    1  0.1323225E-008  0.2287649E+04  0.7816531E-02  0.8482807E-01
          1   -1    0    0  501    0  0.00000000000E+00  0.00000000000E+00  0.69920060109E+03  0.69920060109E+03  0.00000000000E+00 0.  1.
         -1   -1    0    0    0  501 -0.00000000000E+00 -0.00000000000E+00 -0.18711866201E+04  0.18711866201E+04  0.00000000000E+00 0. -1.
    2000013    1    1    2    0    0 -0.20378129542E+02  0.56107506213E+03 -0.92421942107E+03  0.14394103070E+04  0.95000000000E+03 0.  0.
   -2000013    1    1    2    0    0  0.20378129542E+02 -0.56107506213E+03 -0.24776659796E+03  0.11309769143E+04  0.95000000000E+03 0.  0.
<mgrwt>
<rscale>  0 0.22876493E+04</rscale>
<asrwt>0</asrwt>
<pdfrwt beam="1">  1        1 0.10756933E+00 0.22876493E+04</pdfrwt>
<pdfrwt beam="2">  1       -1 0.28787486E+00 0.22876493E+04</pdfrwt>
<totfact> 0.97746891E-01</totfact>
</mgrwt>
</event>
<event>
 4    1  0.1323225E-008  0.3579970E+04  0.7816531E-02  0.8095095E-01
          2   -1    0    0  501    0  0.00000000000E+00  0.00000000000E+00  0.39305492475E+04  0.39305492475E+04  0.00000000000E+00 0.  1.
         -2   -1    0    0    0  501 -0.00000000000E+00 -0.00000000000E+00 -0.81516489205E+03  0.81516489205E+03  0.00000000000E+00 0. -1.
    2000013    1    1    2    0    0  0.14373252392E+04  0.26594985835E+03  0.20960228448E+04  0.27262510773E+04  0.95000000000E+03 0.  0.
   -2000013    1    1    2    0    0 -0.14373252392E+04 -0.26594985835E+03  0.10193615107E+04  0.20194630623E+04  0.95000000000E+03 0.  0.
<mgrwt>
<rscale>  0 0.35799697E+04</rscale>
<asrwt>0</asrwt>
<pdfrwt beam="1">  1        2 0.60469987E+00 0.35799697E+04</pdfrwt>
<pdfrwt beam="2">  1       -2 0.12540999E+00 0.35799697E+04</pdfrwt>
<totfact> 0.15057165E-01</totfact>
</mgrwt>
</event>
<event>
 4    1  0.1323225E-008  0.2695781E+04  0.7816531E-02  0.8336375E-01
         -2   -1    0    0    0  501 -0.00000000000E+00  0.00000000000E+00  0.10848641417E+04  0.10848641417E+04  0.00000000000E+00 0.  1.
          2   -1    0    0  501    0  0.00000000000E+00 -0.00000000000E+00 -0.16746874059E+04  0.16746874059E+04  0.00000000000E+00 0. -1.
    2000013    1    1    2    0    0 -0.75368359286E+03  0.56073190886E+03 -0.11222682534E+03  0.13407289406E+04  0.95000000000E+03 0.  0.
   -2000013    1    1    2    0    0  0.75368359286E+03 -0.56073190886E+03 -0.47759643887E+03  0.14188226070E+04  0.95000000000E+03 0.  0.
<mgrwt>
<rscale>  0 0.26957806E+04</rscale>
<asrwt>0</asrwt>
<pdfrwt beam="2">  1        2 0.25764422E+00 0.26957806E+04</pdfrwt>
<pdfrwt beam="1">  1       -2 0.16690218E+00 0.26957806E+04</pdfrwt>
<totfact> 0.19945053E+00</totfact>
</mgrwt>
</event>
<event>
 4    1  0.1323225E-008  0.2144571E+04  0.7816531E-02  0.8541860E-01
          2   -1    0    0  501    0  0.00000000000E+00  0.00000000000E+00  0.97448146284E+03  0.97448146284E+03  0.00000000000E+00 0.  1.
         -2   -1    0    0    0  501 -0.00000000000E+00 -0.00000000000E+00 -0.11799054578E+04  0.11799054578E+04  0.00000000000E+00 0. -1.
    2000013    1    1    2    0    0 -0.47432402738E+03  0.14651379548E+03 -0.13193848315E+03  0.10799802491E+04  0.95000000000E+03 0.  0.
   -2000013    1    1    2    0    0  0.47432402738E+03 -0.14651379548E+03 -0.73485511758E+02  0.10744066714E+04  0.95000000000E+03 0.  0.
<mgrwt>
<rscale>  0 0.21445708E+04</rscale>
<asrwt>0</asrwt>
<pdfrwt beam="1">  1        2 0.14992023E+00 0.21445708E+04</pdfrwt>
<pdfrwt beam="2">  1       -2 0.18152392E+00 0.21445708E+04</pdfrwt>
<totfact> 0.42511422E+00</totfact>
</mgrwt>
</event>
<event>
 4    1  0.1323225E-008  0.2192592E+04  0.7816531E-02  0.8521518E-01
          2   -1    0    0  501    0  0.00000000000E+00  0.00000000000E+00  0.20194920675E+04  0.20194920675E+04  0.00000000000E+00 0.  1.
         -2   -1    0    0    0  501 -0.00000000000E+00 -0.00000000000E+00 -0.59513204681E+03  0.59513204681E+03  0.00000000000E+00 0. -1.
    2000013    1    1    2    0    0 -0.22405824687E+03  0.23026754024E+03  0.12403013701E+04  0.15950149613E+04  0.95000000000E+03 0.  0.
   -2000013    1    1    2    0    0  0.22405824687E+03 -0.23026754024E+03  0.18405865061E+03  0.10196091530E+04  0.95000000000E+03 0.  0.
<mgrwt>
<rscale>  0 0.21925916E+04</rscale>
<asrwt>0</asrwt>
<pdfrwt beam="1">  1        2 0.31069108E+00 0.21925916E+04</pdfrwt>
<pdfrwt beam="2">  1       -2 0.91558778E-01 0.21925916E+04</pdfrwt>
<totfact> 0.60524234E+00</totfact>
</mgrwt>
</event>
<event>
 4    1  0.1323225E-008  0.3837041E+04  0.7816531E-02  0.8038252E-01
          2   -1    0    0  501    0  0.00000000000E+00  0.00000000000E+00  0.24503458144E+04  0.24503458144E+04  0.00000000000E+00 0.  1.
         -2   -1    0    0    0  501 -0.00000000000E+00 -0.00000000000E+00 -0.15021227274E+04  0.15021227274E+04  0.00000000000E+00 0. -1.
    2000013    1    1    2    0    0  0.25983941168E+03 -0.89225853940E+03 -0.95119603964E+03  0.16342936477E+04  0.95000000000E+03 0.  0.
   -2000013    1    1    2    0    0 -0.25983941168E+03  0.89225853940E+03  0.18994191266E+04  0.23181748941E+04  0.95000000000E+03 0.  0.
<mgrwt>
<rscale>  0 0.38370406E+04</rscale>
<asrwt>0</asrwt>
<pdfrwt beam="1">  1        2 0.37697628E+00 0.38370406E+04</pdfrwt>
<pdfrwt beam="2">  1       -2 0.23109580E+00 0.38370406E+04</pdfrwt>
<totfact> 0.25020546E-01</totfact>
</mgrwt>
</event>
<event>
 4    1  0.1323225E-008  0.2507194E+04  0.7816531E-02  0.8400427E-01
         -2   -1    0    0    0  501 -0.00000000000E+00  0.00000000000E+00  0.94061898063E+03  0.94061898063E+03  0.00000000000E+00 0. -1.
          2   -1    0    0  501    0  0.00000000000E+00 -0.00000000000E+00 -0.16707141923E+04  0.16707141923E+04  0.00000000000E+00 0.  1.
    2000013    1    1    2    0    0 -0.15692657615E+03 -0.68259724911E+03 -0.80501560263E+03  0.14286759868E+04  0.95000000000E+03 0.  0.
   -2000013    1    1    2    0    0  0.15692657615E+03  0.68259724911E+03  0.74920391008E+02  0.11826571861E+04  0.95000000000E+03 0.  0.
<mgrwt>
<rscale>  0 0.25071940E+04</rscale>
<asrwt>0</asrwt>
<pdfrwt beam="2">  1        2 0.25703295E+00 0.25071940E+04</pdfrwt>
<pdfrwt beam="1">  1       -2 0.14471062E+00 0.25071940E+04</pdfrwt>
<totfact> 0.29901312E+00</totfact>
</mgrwt>
</event>
<event>
 4    1  0.1323225E-008  0.2115072E+04  0.7816531E-02  0.8554633E-01
          1   -1    0    0  501    0  0.00000000000E+00  0.00000000000E+00  0.11396534144E+04  0.11396534144E+04  0.00000000000E+00 0.  1.
         -1   -1    0    0    0  501 -0.00000000000E+00 -0.00000000000E+00 -0.98133518435E+03  0.98133518435E+03  0.00000000000E+00 0. -1.
    2000013    1    1    2    0    0 -0.43523638262E+03  0.16245925064E+03  0.71503848407E+02  0.10599228827E+04  0.95000000000E+03 0.  0.
   -2000013    1    1    2    0    0  0.43523638262E+03 -0.16245925064E+03  0.86814381597E+02  0.10610657160E+04  0.95000000000E+03 0.  0.
<mgrwt>
<rscale>  0 0.21150716E+04</rscale>
<asrwt>0</asrwt>
<pdfrwt beam="1">  1        1 0.17533129E+00 0.21150716E+04</pdfrwt>
<pdfrwt beam="2">  1       -1 0.15097464E+00 0.21150716E+04</pdfrwt>
<totfact> 0.37287375E+00</totfact>
</mgrwt>
</event>
<event>
 4    1  0.1323225E-008  0.2643944E+04  0.7816531E-02  0.8353426E-01
          2   -1    0    0  501    0  0.00000000000E+00  0.00000000000E+00  0.89874821372E+03  0.89874821372E+03  0.00000000000E+00 0.  1.
         -2   -1    0    0    0  501 -0.00000000000E+00 -0.00000000000E+00 -0.19444929836E+04  0.19444929836E+04  0.00000000000E+00 0. -1.
    2000013    1    1    2    0    0  0.91487821840E+03  0.81966745299E+02 -0.56294945984E+03  0.14363609561E+04  0.95000000000E+03 0.  0.
   -2000013    1    1    2    0    0 -0.91487821840E+03 -0.81966745299E+02 -0.48279531009E+03  0.14068802413E+04  0.95000000000E+03 0.  0.
<mgrwt>
<rscale>  0 0.26439437E+04</rscale>
<asrwt>0</asrwt>
<pdfrwt beam="1">  1        2 0.13826896E+00 0.26439437E+04</pdfrwt>
<pdfrwt beam="2">  1       -2 0.29915277E+00 0.26439437E+04</pdfrwt>
<totfact> 0.83292047E-01</totfact>
</mgrwt>
</event>
<event>
 4    1  0.1323225E-008  0.2151193E+04  0.7816531E-02  0.8539022E-01
         -2   -1    0    0    0  501 -0.00000000000E+00  0.00000000000E+00  0.48137220837E+03  0.48137220837E+03  0.00000000000E+00 0. -1.
          2   -1    0    0  501    0  0.00000000000E+00 -0.00000000000E+00 -0.24033539739E+04  0.24033539739E+04  0.00000000000E+00 0.  1.
    2000013    1    1    2    0    0 -0.14919607908E+03  0.10850155250E+03 -0.33147436666E+03  0.10229405225E+04  0.95000000000E+03 0.  0.
   -2000013    1    1    2    0    0  0.14919607908E+03 -0.10850155250E+03 -0.15905073989E+04  0.18617856597E+04  0.95000000000E+03 0.  0.
<mgrwt>
<rscale>  0 0.21511930E+04</rscale>
<asrwt>0</asrwt>
<pdfrwt beam="2">  1        2 0.36974676E+00 0.21511930E+04</pdfrwt>
<pdfrwt beam="1">  1       -2 0.74057264E-01 0.21511930E+04</pdfrwt>
<totfact> 0.59652295E+00</totfact>
</mgrwt>
</event>
<event>
 4    1  0.1323225E-008  0.2780743E+04  0.7816531E-02  0.8309272E-01
         -2   -1    0    0    0  501 -0.00000000000E+00  0.00000000000E+00  0.12599093509E+04  0.12599093509E+04  0.00000000000E+00 0. -1.
          2   -1    0    0  501    0  0.00000000000E+00 -0.00000000000E+00 -0.15343431253E+04  0.15343431253E+04  0.00000000000E+00 0.  1.
    2000013    1    1    2    0    0  0.77955167191E+03  0.62873426064E+03 -0.30423407784E+03  0.14135296084E+04  0.95000000000E+03 0.  0.
   -2000013    1    1    2    0    0 -0.77955167191E+03 -0.62873426064E+03  0.29800303410E+02  0.13807228678E+04  0.95000000000E+03 0.  0.
<mgrwt>
<rscale>  0 0.27807432E+04</rscale>
<asrwt>0</asrwt>
<pdfrwt beam="2">  1        2 0.23605279E+00 0.27807432E+04</pdfrwt>
<pdfrwt beam="1">  1       -2 0.19383221E+00 0.27807432E+04</pdfrwt>
<totfact> 0.15460915E+00</totfact>
</mgrwt>
</event>
<event>
 4    1  0.1323225E-008  0.2942893E+04  0.7816531E-02  0.8260229E-01
         -1   -1    0    0    0  501 -0.00000000000E+00  0.00000000000E+00  0.73055363149E+03  0.73055363149E+03  0.00000000000E+00 0.  1.
          1   -1    0    0  501    0  0.00000000000E+00 -0.00000000000E+00 -0.29637172545E+04  0.29637172545E+04  0.00000000000E+00 0. -1.
    2000013    1    1    2    0    0 -0.83496443151E+03 -0.52679200911E+03 -0.17902324104E+04  0.22543530127E+04  0.95000000000E+03 0.  0.
   -2000013    1    1    2    0    0  0.83496443151E+03  0.52679200911E+03 -0.44293121265E+03  0.14399178733E+04  0.95000000000E+03 0.  0.
<mgrwt>
<rscale>  0 0.29428927E+04</rscale>
<asrwt>0</asrwt>
<pdfrwt beam="2">  1        1 0.45595650E+00 0.29428927E+04</pdfrwt>
<pdfrwt beam="1">  1       -1 0.11239287E+00 0.29428927E+04</pdfrwt>
<totfact> 0.39367840E-01</totfact>
</mgrwt>
</event>
<event>
 4    1  0.1323225E-008  0.2335346E+04  0.7816531E-02  0.8464114E-01
         -1   -1    0    0    0  501 -0.00000000000E+00  0.00000000000E+00  0.72397297889E+03  0.72397297889E+03  0.00000000000E+00 0.  1.
          1   -1    0    0  501    0  0.00000000000E+00 -0.00000000000E+00 -0.18833027893E+04  0.18833027893E+04  0.00000000000E+00 0. -1.
    2000013    1    1    2    0    0  0.24683742013E+03  0.55071657028E+03 -0.92691727669E+03  0.14580442691E+04  0.95000000000E+03 0.  0.
   -2000013    1    1    2    0    0 -0.24683742013E+03 -0.55071657028E+03 -0.23241253374E+03  0.11492314991E+04  0.95000000000E+03 0.  0.
<mgrwt>
<rscale>  0 0.23353461E+04</rscale>
<asrwt>0</asrwt>
<pdfrwt beam="2">  1        1 0.28973889E+00 0.23353461E+04</pdfrwt>
<pdfrwt beam="1">  1       -1 0.11138046E+00 0.23353461E+04</pdfrwt>
<totfact> 0.23874078E+00</totfact>
</mgrwt>
</event>
<event>
 4    1  0.1323225E-008  0.2279158E+04  0.7816531E-02  0.8486184E-01
         -2   -1    0    0    0  501 -0.00000000000E+00  0.00000000000E+00  0.12885130022E+04  0.12885130022E+04  0.00000000000E+00 0. -1.
          2   -1    0    0  501    0  0.00000000000E+00 -0.00000000000E+00 -0.10078596205E+04  0.10078596205E+04  0.00000000000E+00 0.  1.
    2000013    1    1    2    0    0  0.36132181670E+03  0.92870202947E-01 -0.37891690764E+03  0.10847264571E+04  0.95000000000E+03 0.  0.
   -2000013    1    1    2    0    0 -0.36132181670E+03 -0.92870202947E-01  0.65957028936E+03  0.12116461655E+04  0.95000000000E+03 0.  0.
<mgrwt>
<rscale>  0 0.22791579E+04</rscale>
<asrwt>0</asrwt>
<pdfrwt beam="2">  1        2 0.15505533E+00 0.22791579E+04</pdfrwt>
<pdfrwt beam="1">  1       -2 0.19823277E+00 0.22791579E+04</pdfrwt>
<totfact> 0.30882134E+00</totfact>
</mgrwt>
</event>
<event>
 4    1  0.1323225E-008  0.4076265E+04  0.7816531E-02  0.7989336E-01
          2   -1    0    0  501    0  0.00000000000E+00  0.00000000000E+00  0.13799618054E+04  0.13799618054E+04  0.00000000000E+00 0. -1.
         -2   -1    0    0    0  501 -0.00000000000E+00 -0.00000000000E+00 -0.30102169710E+04  0.30102169710E+04  0.00000000000E+00 0.  1.
    2000013    1    1    2    0    0  0.20124065992E+02 -0.18030670335E+04 -0.80935366910E+03  0.21929452950E+04  0.95000000000E+03 0.  0.
   -2000013    1    1    2    0    0 -0.20124065992E+02  0.18030670335E+04 -0.82090149649E+03  0.21972334815E+04  0.95000000000E+03 0.  0.
<mgrwt>
<rscale>  0 0.40762652E+04</rscale>
<asrwt>0</asrwt>
<pdfrwt beam="1">  1        2 0.21230182E+00 0.40762652E+04</pdfrwt>
<pdfrwt beam="2">  1       -2 0.46311030E+00 0.40762652E+04</pdfrwt>
<totfact> 0.33156324E-02</totfact>
</mgrwt>
</event>
<event>
 4    1  0.1323225E-008  0.2347928E+04  0.7816531E-02  0.8459260E-01
          2   -1    0    0  501    0  0.00000000000E+00  0.00000000000E+00  0.16674135331E+04  0.16674135331E+04  0.00000000000E+00 0.  1.
         -2   -1    0    0    0  501 -0.00000000000E+00 -0.00000000000E+00 -0.82654438912E+03  0.82654438912E+03  0.00000000000E+00 0. -1.
    2000013    1    1    2    0    0 -0.66649315251E+03  0.17395253095E+03  0.38335353733E+03  0.12344766259E+04  0.95000000000E+03 0.  0.
   -2000013    1    1    2    0    0  0.66649315251E+03 -0.17395253095E+03  0.45751560662E+03  0.12594812963E+04  0.95000000000E+03 0.  0.
<mgrwt>
<rscale>  0 0.23479279E+04</rscale>
<asrwt>0</asrwt>
<pdfrwt beam="1">  1        2 0.25652516E+00 0.23479279E+04</pdfrwt>
<pdfrwt beam="2">  1       -2 0.12716068E+00 0.23479279E+04</pdfrwt>
<totfact> 0.42413850E+00</totfact>
</mgrwt>
</event>
<event>
 4    1  0.1323225E-008  0.2037124E+04  0.7816531E-02  0.8589458E-01
         -1   -1    0    0    0  501 -0.00000000000E+00  0.00000000000E+00  0.93510567179E+03  0.93510567179E+03  0.00000000000E+00 0. -1.
          1   -1    0    0  501    0  0.00000000000E+00 -0.00000000000E+00 -0.11094663747E+04  0.11094663747E+04  0.00000000000E+00 0.  1.
    2000013    1    1    2    0    0  0.69905375416E+02  0.31864537736E+03  0.82394977853E+02  0.10078246724E+04  0.95000000000E+03 0.  0.
   -2000013    1    1    2    0    0 -0.69905375416E+02 -0.31864537736E+03 -0.25675568079E+03  0.10367473741E+04  0.95000000000E+03 0.  0.
<mgrwt>
<rscale>  0 0.20371238E+04</rscale>
<asrwt>0</asrwt>
<pdfrwt beam="2">  1        1 0.17068713E+00 0.20371238E+04</pdfrwt>
<pdfrwt beam="1">  1       -1 0.14386241E+00 0.20371238E+04</pdfrwt>
<totfact> 0.45000905E+00</totfact>
</mgrwt>
</event>
<event>
 4    1  0.1323225E-008  0.2347195E+04  0.7816531E-02  0.8459542E-01
         -1   -1    0    0    0  501 -0.00000000000E+00  0.00000000000E+00  0.10694087341E+04  0.10694087341E+04  0.00000000000E+00 0. -1.
          1   -1    0    0  501    0  0.00000000000E+00 -0.00000000000E+00 -0.12879375042E+04  0.12879375042E+04  0.00000000000E+00 0.  1.
    2000013    1    1    2    0    0  0.27068947392E+02 -0.47822915584E+03 -0.60678107040E+03  0.12247935013E+04  0.95000000000E+03 0.  0.
   -2000013    1    1    2    0    0 -0.27068947392E+02  0.47822915584E+03  0.38825230024E+03  0.11325527370E+04  0.95000000000E+03 0.  0.
<mgrwt>
<rscale>  0 0.23471954E+04</rscale>
<asrwt>0</asrwt>
<pdfrwt beam="2">  1        1 0.19814423E+00 0.23471954E+04</pdfrwt>
<pdfrwt beam="1">  1       -1 0.16452442E+00 0.23471954E+04</pdfrwt>
<totfact> 0.22445316E+00</totfact>
</mgrwt>
</event>
<event>
 4    1  0.1323225E-008  0.3173283E+04  0.7816531E-02  0.8195909E-01
          2   -1    0    0  501    0  0.00000000000E+00  0.00000000000E+00  0.18511346945E+04  0.18511346945E+04  0.00000000000E+00 0. -1.
         -2   -1    0    0    0  501 -0.00000000000E+00 -0.00000000000E+00 -0.13599393658E+04  0.13599393658E+04  0.00000000000E+00 0.  1.
    2000013    1    1    2    0    0 -0.64144923165E+03  0.16116593512E+03 -0.85245175042E+03  0.14375693243E+04  0.95000000000E+03 0.  0.
   -2000013    1    1    2    0    0  0.64144923165E+03 -0.16116593512E+03  0.13436470791E+04  0.17735047360E+04  0.95000000000E+03 0.  0.
<mgrwt>
<rscale>  0 0.31732828E+04</rscale>
<asrwt>0</asrwt>
<pdfrwt beam="1">  1        2 0.28478995E+00 0.31732828E+04</pdfrwt>
<pdfrwt beam="2">  1       -2 0.20922144E+00 0.31732828E+04</pdfrwt>
<totfact> 0.79024097E-01</totfact>
</mgrwt>
</event>
<event>
 4    1  0.1323225E-008  0.4499196E+04  0.7816531E-02  0.7910777E-01
          2   -1    0    0  501    0  0.00000000000E+00  0.00000000000E+00  0.24298099852E+04  0.24298099852E+04  0.00000000000E+00 0.  1.
         -2   -1    0    0    0  501 -0.00000000000E+00 -0.00000000000E+00 -0.20827522115E+04  0.20827522115E+04  0.00000000000E+00 0. -1.
    2000013    1    1    2    0    0 -0.22240871582E+01  0.20390983361E+04  0.18986066535E+03  0.22575371632E+04  0.95000000000E+03 0.  0.
   -2000013    1    1    2    0    0  0.22240871582E+01 -0.20390983361E+04  0.15719710835E+03  0.22550250335E+04  0.95000000000E+03 0.  0.
<mgrwt>
<rscale>  0 0.44991964E+04</rscale>
<asrwt>0</asrwt>
<pdfrwt beam="1">  1        2 0.37381692E+00 0.44991964E+04</pdfrwt>
<pdfrwt beam="2">  1       -2 0.32042342E+00 0.44991964E+04</pdfrwt>
<totfact> 0.68926609E-02</totfact>
</mgrwt>
</event>
<event>
 4    1  0.1323225E-008  0.2540308E+04  0.7816531E-02  0.8388765E-01
         -2   -1    0    0    0  501 -0.00000000000E+00  0.00000000000E+00  0.14716563339E+04  0.14716563339E+04  0.00000000000E+00 0. -1.
          2   -1    0    0  501    0  0.00000000000E+00 -0.00000000000E+00 -0.10962419193E+04  0.10962419193E+04  0.00000000000E+00 0.  1.
    2000013    1    1    2    0    0 -0.14961000311E+03 -0.57665059542E+03 -0.41533069177E+03  0.11957878766E+04  0.95000000000E+03 0.  0.
   -2000013    1    1    2    0    0  0.14961000311E+03  0.57665059542E+03  0.79074510644E+03  0.13721103766E+04  0.95000000000E+03 0.  0.
<mgrwt>
<rscale>  0 0.25403081E+04</rscale>
<asrwt>0</asrwt>
<pdfrwt beam="2">  1        2 0.16865260E+00 0.25403081E+04</pdfrwt>
<pdfrwt beam="1">  1       -2 0.22640867E+00 0.25403081E+04</pdfrwt>
<totfact> 0.17530895E+00</totfact>
</mgrwt>
</event>
<event>
 4    1  0.1323225E-008  0.3042589E+04  0.7816531E-02  0.8231673E-01
          2   -1    0    0  501    0  0.00000000000E+00  0.00000000000E+00  0.11900442193E+04  0.11900442193E+04  0.00000000000E+00 0.  1.
         -2   -1    0    0    0  501 -0.00000000000E+00 -0.00000000000E+00 -0.19447487451E+04  0.19447487451E+04  0.00000000000E+00 0. -1.
    2000013    1    1    2    0    0  0.10307816941E+04  0.51480502408E+03 -0.67649896526E+03  0.16394163485E+04  0.95000000000E+03 0.  0.
   -2000013    1    1    2    0    0 -0.10307816941E+04 -0.51480502408E+03 -0.78205560523E+02  0.14953766159E+04  0.95000000000E+03 0.  0.
<mgrwt>
<rscale>  0 0.30425890E+04</rscale>
<asrwt>0</asrwt>
<pdfrwt beam="1">  1        2 0.18308373E+00 0.30425890E+04</pdfrwt>
<pdfrwt beam="2">  1       -2 0.29919211E+00 0.30425890E+04</pdfrwt>
<totfact> 0.52655834E-01</totfact>
</mgrwt>
</event>
<event>
 4    1  0.1323225E-008  0.2172873E+04  0.7816531E-02  0.8529804E-01
         -2   -1    0    0    0  501 -0.00000000000E+00  0.00000000000E+00  0.45278912713E+03  0.45278912713E+03  0.00000000000E+00 0. -1.
          2   -1    0    0  501    0  0.00000000000E+00 -0.00000000000E+00 -0.26068306102E+04  0.26068306102E+04  0.00000000000E+00 0.  1.
    2000013    1    1    2    0    0  0.30883135579E+03 -0.42712643444E+03 -0.10848302005E+04  0.15353079044E+04  0.95000000000E+03 0.  0.
   -2000013    1    1    2    0    0 -0.30883135579E+03  0.42712643444E+03 -0.10692112826E+04  0.15243118330E+04  0.95000000000E+03 0.  0.
<mgrwt>
<rscale>  0 0.21728733E+04</rscale>
<asrwt>0</asrwt>
<pdfrwt beam="2">  1        2 0.40105087E+00 0.21728733E+04</pdfrwt>
<pdfrwt beam="1">  1       -2 0.69659864E-01 0.21728733E+04</pdfrwt>
<totfact> 0.51913005E+00</totfact>
</mgrwt>
</event>
<event>
 4    1  0.1323225E-008  0.2460602E+04  0.7816531E-02  0.8417157E-01
         -1   -1    0    0    0  501 -0.00000000000E+00  0.00000000000E+00  0.69046679504E+03  0.69046679504E+03  0.00000000000E+00 0.  1.
          1   -1    0    0  501    0  0.00000000000E+00 -0.00000000000E+00 -0.21921986503E+04  0.21921986503E+04  0.00000000000E+00 0. -1.
    2000013    1    1    2    0    0  0.26168629559E+03  0.12847462150E+03 -0.16006522112E+04  0.18840310366E+04  0.95000000000E+03 0.  0.
   -2000013    1    1    2    0    0 -0.26168629559E+03 -0.12847462150E+03  0.98920355853E+02  0.99863440882E+03  0.95000000000E+03 0.  0.
<mgrwt>
<rscale>  0 0.24606019E+04</rscale>
<asrwt>0</asrwt>
<pdfrwt beam="2">  1        1 0.33726133E+00 0.24606019E+04</pdfrwt>
<pdfrwt beam="1">  1       -1 0.10622566E+00 0.24606019E+04</pdfrwt>
<totfact> 0.16285386E+00</totfact>
</mgrwt>
</event>
<event>
 4    1  0.1323225E-008  0.2583639E+04  0.7816531E-02  0.8373780E-01
         -2   -1    0    0    0  501 -0.00000000000E+00  0.00000000000E+00  0.46784353952E+03  0.46784353952E+03  0.00000000000E+00 0. -1.
          2   -1    0    0  501    0  0.00000000000E+00 -0.00000000000E+00 -0.35670000453E+04  0.35670000453E+04  0.00000000000E+00 0.  1.
    2000013    1    1    2    0    0  0.66727988925E+03 -0.56434278727E+03 -0.16284813872E+04  0.20780271559E+04  0.95000000000E+03 0.  0.
   -2000013    1    1    2    0    0 -0.66727988925E+03  0.56434278727E+03 -0.14706751185E+04  0.19568164289E+04  0.95000000000E+03 0.  0.
<mgrwt>
<rscale>  0 0.25836392E+04</rscale>
<asrwt>0</asrwt>
<pdfrwt beam="2">  1        2 0.54876922E+00 0.25836392E+04</pdfrwt>
<pdfrwt beam="1">  1       -2 0.71975931E-01 0.25836392E+04</pdfrwt>
<totfact> 0.11303634E+00</totfact>
</mgrwt>
</event>
<event>
 4    1  0.1323225E-008  0.2291954E+04  0.7816531E-02  0.8481100E-01
          2   -1    0    0  501    0  0.00000000000E+00  0.00000000000E+00  0.21941212807E+04  0.21941212807E+04  0.00000000000E+00 0.  1.
         -2   -1    0    0    0  501 -0.00000000000E+00 -0.00000000000E+00 -0.59853723082E+03  0.59853723082E+03  0.00000000000E+00 0. -1.
    2000013    1    1    2    0    0  0.26321039663E+03 -0.43940761947E+03  0.12671838073E+04  0.16645160169E+04  0.95000000000E+03 0.  0.
   -2000013    1    1    2    0    0 -0.26321039663E+03  0.43940761947E+03  0.32840024261E+03  0.11281424947E+04  0.95000000000E+03 0.  0.
<mgrwt>
<rscale>  0 0.22919540E+04</rscale>
<asrwt>0</asrwt>
<pdfrwt beam="1">  1        2 0.33755712E+00 0.22919540E+04</pdfrwt>
<pdfrwt beam="2">  1       -2 0.92082652E-01 0.22919540E+04</pdfrwt>
<totfact> 0.47306310E+00</totfact>
</mgrwt>
</event>
<event>
 4    1  0.1323225E-008  0.2290414E+04  0.7816531E-02  0.8481710E-01
         -1   -1    0    0    0  501 -0.00000000000E+00  0.00000000000E+00  0.23599324072E+04  0.23599324072E+04  0.00000000000E+00 0. -1.
          1   -1    0    0  501    0  0.00000000000E+00 -0.00000000000E+00 -0.55573572259E+03  0.55573572259E+03  0.00000000000E+00 0.  1.
    2000013    1    1    2    0    0  0.29515159340E+03 -0.19029442294E+03  0.15824888234E+04  0.18788553182E+04  0.95000000000E+03 0.  0.
   -2000013    1    1    2    0    0 -0.29515159340E+03  0.19029442294E+03  0.22170786114E+03  0.10368128115E+04  0.95000000000E+03 0.  0.
<mgrwt>
<rscale>  0 0.22904137E+04</rscale>
<asrwt>0</asrwt>
<pdfrwt beam="2">  1        1 0.85497805E-01 0.22904137E+04</pdfrwt>
<pdfrwt beam="1">  1       -1 0.36306652E+00 0.22904137E+04</pdfrwt>
<totfact> 0.44005532E-01</totfact>
</mgrwt>
</event>
<event>
 4    1  0.1323225E-008  0.3009889E+04  0.7816531E-02  0.8240913E-01
         -2   -1    0    0    0  501 -0.00000000000E+00  0.00000000000E+00  0.10270006744E+04  0.10270006744E+04  0.00000000000E+00 0. -1.
          2   -1    0    0  501    0  0.00000000000E+00 -0.00000000000E+00 -0.22053124641E+04  0.22053124641E+04  0.00000000000E+00 0.  1.
    2000013    1    1    2    0    0 -0.91564698460E+03  0.68615518764E+03 -0.34160193479E+03  0.15259129149E+04  0.95000000000E+03 0.  0.
   -2000013    1    1    2    0    0  0.91564698460E+03 -0.68615518764E+03 -0.83670985491E+03  0.17064002236E+04  0.95000000000E+03 0.  0.
<mgrwt>
<rscale>  0 0.30098886E+04</rscale>
<asrwt>0</asrwt>
<pdfrwt beam="2">  1        2 0.33927883E+00 0.30098886E+04</pdfrwt>
<pdfrwt beam="1">  1       -2 0.15800011E+00 0.30098886E+04</pdfrwt>
<totfact> 0.11433297E+00</totfact>
</mgrwt>
</event>
<event>
 4    1  0.1323225E-008  0.3127121E+04  0.7816531E-02  0.8208334E-01
         -2   -1    0    0    0  501 -0.00000000000E+00  0.00000000000E+00  0.76311938585E+03  0.76311938585E+03  0.00000000000E+00 0. -1.
          2   -1    0    0  501    0  0.00000000000E+00 -0.00000000000E+00 -0.32035904858E+04  0.32035904858E+04  0.00000000000E+00 0.  1.
    2000013    1    1    2    0    0  0.54863395219E+03  0.66983004193E+03 -0.23495091470E+04  0.26781270937E+04  0.95000000000E+03 0.  0.
   -2000013    1    1    2    0    0 -0.54863395219E+03 -0.66983004193E+03 -0.90961952964E+02  0.12885827779E+04  0.95000000000E+03 0.  0.
<mgrwt>
<rscale>  0 0.31271214E+04</rscale>
<asrwt>0</asrwt>
<pdfrwt beam="2">  1        2 0.49286007E+00 0.31271214E+04</pdfrwt>
<pdfrwt beam="1">  1       -2 0.11740298E+00 0.31271214E+04</pdfrwt>
<totfact> 0.61190537E-01</totfact>
</mgrwt>
</event>
<event>
 4    1  0.1323225E-008  0.3004847E+04  0.7816531E-02  0.8242348E-01
         -2   -1    0    0    0  501 -0.00000000000E+00  0.00000000000E+00  0.10513968356E+04  0.10513968356E+04  0.00000000000E+00 0. -1.
          2   -1    0    0  501    0  0.00000000000E+00 -0.00000000000E+00 -0.21469308952E+04  0.21469308952E+04  0.00000000000E+00 0.  1.
    2000013    1    1    2    0    0 -0.88055397737E+03  0.47707344197E+03  0.83553246513E+02  0.13829155871E+04  0.95000000000E+03 0.  0.
   -2000013    1    1    2    0    0  0.88055397737E+03 -0.47707344197E+03 -0.11790873061E+04  0.18154121437E+04  0.95000000000E+03 0.  0.
<mgrwt>
<rscale>  0 0.30048470E+04</rscale>
<asrwt>0</asrwt>
<pdfrwt beam="2">  1        2 0.33029706E+00 0.30048470E+04</pdfrwt>
<pdfrwt beam="1">  1       -2 0.16175336E+00 0.30048470E+04</pdfrwt>
<totfact> 0.11571570E+00</totfact>
</mgrwt>
</event>
<event>
 4    1  0.1323225E-008  0.2497763E+04  0.7816531E-02  0.8403783E-01
          2   -1    0    0  501    0  0.00000000000E+00  0.00000000000E+00  0.36920130641E+04  0.36920130641E+04  0.00000000000E+00 0.  1.
         -2   -1    0    0    0  501 -0.00000000000E+00 -0.00000000000E+00 -0.42245371234E+03  0.42245371234E+03  0.00000000000E+00 0. -1.
    2000013    1    1    2    0    0  0.39219352300E+03 -0.67578760073E+03  0.19907557021E+04  0.23401095928E+04  0.95000000000E+03 0.  0.
   -2000013    1    1    2    0    0 -0.39219352300E+03  0.67578760073E+03  0.12788036496E+04  0.17743571836E+04  0.95000000000E+03 0.  0.
<mgrwt>
<rscale>  0 0.24977627E+04</rscale>
<asrwt>0</asrwt>
<pdfrwt beam="1">  1        2 0.56800199E+00 0.24977627E+04</pdfrwt>
<pdfrwt beam="2">  1       -2 0.64992881E-01 0.24977627E+04</pdfrwt>
<totfact> 0.11548844E+00</totfact>
</mgrwt>
</event>
<event>
 4    1  0.1323225E-008  0.2574828E+04  0.7816531E-02  0.8376802E-01
         -2   -1    0    0    0  501 -0.00000000000E+00  0.00000000000E+00  0.10014179177E+04  0.10014179177E+04  0.00000000000E+00 0. -1.
          2   -1    0    0  501    0  0.00000000000E+00 -0.00000000000E+00 -0.16550879098E+04  0.16550879098E+04  0.00000000000E+00 0.  1.
    2000013    1    1    2    0    0 -0.31060795789E+03  0.76091070059E+03 -0.35984083912E+02  0.12566850250E+04  0.95000000000E+03 0.  0.
   -2000013    1    1    2    0    0  0.31060795789E+03 -0.76091070059E+03 -0.61768590825E+03  0.13998208025E+04  0.95000000000E+03 0.  0.
<mgrwt>
<rscale>  0 0.25748279E+04</rscale>
<asrwt>0</asrwt>
<pdfrwt beam="2">  1        2 0.25462891E+00 0.25748279E+04</pdfrwt>
<pdfrwt beam="1">  1       -2 0.15406429E+00 0.25748279E+04</pdfrwt>
<totfact> 0.25697405E+00</totfact>
</mgrwt>
</event>
<event>
 4    1  0.1323225E-008  0.3366893E+04  0.7816531E-02  0.8146080E-01
         -2   -1    0    0    0  501 -0.00000000000E+00  0.00000000000E+00  0.80866145628E+03  0.80866145628E+03  0.00000000000E+00 0. -1.
          2   -1    0    0  501    0  0.00000000000E+00 -0.00000000000E+00 -0.35045465668E+04  0.35045465668E+04  0.00000000000E+00 0.  1.
    2000013    1    1    2    0    0 -0.45546346699E+03  0.99982430487E+03 -0.24382756067E+04  0.28380950556E+04  0.95000000000E+03 0.  0.
   -2000013    1    1    2    0    0  0.45546346699E+03 -0.99982430487E+03 -0.25760950382E+03  0.14751129675E+04  0.95000000000E+03 0.  0.
<mgrwt>
<rscale>  0 0.33668928E+04</rscale>
<asrwt>0</asrwt>
<pdfrwt beam="2">  1        2 0.53916101E+00 0.33668928E+04</pdfrwt>
<pdfrwt beam="1">  1       -2 0.12440945E+00 0.33668928E+04</pdfrwt>
<totfact> 0.32479171E-01</totfact>
</mgrwt>
</event>
<event>
 4    1  0.1323225E-008  0.2030564E+04  0.7816531E-02  0.8592463E-01
          2   -1    0    0  501    0  0.00000000000E+00  0.00000000000E+00  0.26013518314E+04  0.26013518314E+04  0.00000000000E+00 0.  1.
         -2   -1    0    0    0  501 -0.00000000000E+00 -0.00000000000E+00 -0.39625456583E+03  0.39625456583E+03  0.00000000000E+00 0. -1.
    2000013    1    1    2    0    0  0.48725014153E+02 -0.24214693650E+03  0.14854858887E+04  0.17804992534E+04  0.95000000000E+03 0.  0.
   -2000013    1    1    2    0    0 -0.48725014153E+02  0.24214693650E+03  0.71961137692E+03  0.12171071439E+04  0.95000000000E+03 0.  0.
<mgrwt>
<rscale>  0 0.20305640E+04</rscale>
<asrwt>0</asrwt>
<pdfrwt beam="1">  1        2 0.40020796E+00 0.20305640E+04</pdfrwt>
<pdfrwt beam="2">  1       -2 0.60962243E-01 0.20305640E+04</pdfrwt>
<totfact> 0.70544458E+00</totfact>
</mgrwt>
</event>
<event>
 4    1  0.1323225E-008  0.2733354E+04  0.7816531E-02  0.8324263E-01
         -2   -1    0    0    0  501 -0.00000000000E+00  0.00000000000E+00  0.52232648137E+03  0.52232648137E+03  0.00000000000E+00 0.  1.
          2   -1    0    0  501    0  0.00000000000E+00 -0.00000000000E+00 -0.35759365476E+04  0.35759365476E+04  0.00000000000E+00 0. -1.
    2000013    1    1    2    0    0  0.42113999907E+03  0.58254735401E+03 -0.52258984973E+03  0.13008921821E+04  0.95000000000E+03 0.  0.
   -2000013    1    1    2    0    0 -0.42113999907E+03 -0.58254735401E+03 -0.25310202165E+04  0.27973708469E+04  0.95000000000E+03 0.  0.
<mgrwt>
<rscale>  0 0.27333542E+04</rscale>
<asrwt>0</asrwt>
<pdfrwt beam="2">  1        2 0.55014408E+00 0.27333542E+04</pdfrwt>
<pdfrwt beam="1">  1       -2 0.80357921E-01 0.27333542E+04</pdfrwt>
<totfact> 0.86027166E-01</totfact>
</mgrwt>
</event>
<event>
 4    1  0.1323225E-008  0.2368323E+04  0.7816531E-02  0.8451459E-01
          2   -1    0    0  501    0  0.00000000000E+00  0.00000000000E+00  0.37299697941E+04  0.37299697941E+04  0.00000000000E+00 0.  1.
         -2   -1    0    0    0  501 -0.00000000000E+00 -0.00000000000E+00 -0.37593820027E+03  0.37593820027E+03  0.00000000000E+00 0. -1.
    2000013    1    1    2    0    0 -0.63049249795E+03 -0.98397959443E+02  0.22043935136E+04  0.24837579816E+04  0.95000000000E+03 0.  0.
   -2000013    1    1    2    0    0  0.63049249795E+03  0.98397959443E+02  0.11496380802E+04  0.16221500127E+04  0.95000000000E+03 0.  0.
<mgrwt>
<rscale>  0 0.23683227E+04</rscale>
<asrwt>0</asrwt>
<pdfrwt beam="1">  1        2 0.57384148E+00 0.23683227E+04</pdfrwt>
<pdfrwt beam="2">  1       -2 0.57836649E-01 0.23683227E+04</pdfrwt>
<totfact> 0.14038093E+00</totfact>
</mgrwt>
</event>
<event>
 4    1  0.1323225E-008  0.2836477E+04  0.7816531E-02  0.8292032E-01
         -2   -1    0    0    0  501 -0.00000000000E+00  0.00000000000E+00  0.99589636502E+03  0.99589636502E+03  0.00000000000E+00 0. -1.
          2   -1    0    0  501    0  0.00000000000E+00 -0.00000000000E+00 -0.20196884561E+04  0.20196884561E+04  0.00000000000E+00 0.  1.
    2000013    1    1    2    0    0  0.87091687848E+03  0.27029525747E+02 -0.11405674438E+04  0.17212265680E+04  0.95000000000E+03 0.  0.
   -2000013    1    1    2    0    0 -0.87091687848E+03 -0.27029525747E+02  0.11677535271E+03  0.12943582531E+04  0.95000000000E+03 0.  0.
<mgrwt>
<rscale>  0 0.28364770E+04</rscale>
<asrwt>0</asrwt>
<pdfrwt beam="2">  1        2 0.31072130E+00 0.28364770E+04</pdfrwt>
<pdfrwt beam="1">  1       -2 0.15321483E+00 0.28364770E+04</pdfrwt>
<totfact> 0.16005502E+00</totfact>
</mgrwt>
</event>
<event>
 4    1  0.1323225E-008  0.2113317E+04  0.7816531E-02  0.8555400E-01
          2   -1    0    0  501    0  0.00000000000E+00  0.00000000000E+00  0.21115212324E+04  0.21115212324E+04  0.00000000000E+00 0.  1.
         -2   -1    0    0    0  501 -0.00000000000E+00 -0.00000000000E+00 -0.52877843471E+03  0.52877843471E+03  0.00000000000E+00 0. -1.
    2000013    1    1    2    0    0 -0.42461068689E+03  0.80709332727E+02  0.99749228662E+03  0.14437101834E+04  0.95000000000E+03 0.  0.
   -2000013    1    1    2    0    0  0.42461068689E+03 -0.80709332727E+02  0.58525051109E+03  0.11965894837E+04  0.95000000000E+03 0.  0.
<mgrwt>
<rscale>  0 0.21133167E+04</rscale>
<asrwt>0</asrwt>
<pdfrwt beam="1">  1        2 0.32484942E+00 0.21133167E+04</pdfrwt>
<pdfrwt beam="2">  1       -2 0.81350530E-01 0.21133167E+04</pdfrwt>
<totfact> 0.70931298E+00</totfact>
</mgrwt>
</event>
<event>
 4    1  0.1323225E-008  0.4067639E+04  0.7816531E-02  0.7991039E-01
          2   -1    0    0  501    0  0.00000000000E+00  0.00000000000E+00  0.18810772956E+04  0.18810772956E+04  0.00000000000E+00 0.  1.
         -2   -1    0    0    0  501 -0.00000000000E+00 -0.00000000000E+00 -0.21989643812E+04  0.21989643812E+04  0.00000000000E+00 0. -1.
    2000013    1    1    2    0    0  0.56365545389E+03 -0.16824554982E+04 -0.45233839509E+03  0.20628800251E+04  0.95000000000E+03 0.  0.
   -2000013    1    1    2    0    0 -0.56365545389E+03  0.16824554982E+04  0.13445130946E+03  0.20171616517E+04  0.95000000000E+03 0.  0.
<mgrwt>
<rscale>  0 0.40676391E+04</rscale>
<asrwt>0</asrwt>
<pdfrwt beam="1">  1        2 0.28939651E+00 0.40676391E+04</pdfrwt>
<pdfrwt beam="2">  1       -2 0.33830221E+00 0.40676391E+04</pdfrwt>
<totfact> 0.11245040E-01</totfact>
</mgrwt>
</event>
<event>
 4    1  0.1323225E-008  0.2350573E+04  0.7816531E-02  0.8458244E-01
          2   -1    0    0  501    0  0.00000000000E+00  0.00000000000E+00  0.17637278246E+04  0.17637278246E+04  0.00000000000E+00 0.  1.
         -2   -1    0    0    0  501 -0.00000000000E+00 -0.00000000000E+00 -0.78316981789E+03  0.78316981789E+03  0.00000000000E+00 0. -1.
    2000013    1    1    2    0    0 -0.48612349969E+03 -0.43260870047E+03  0.74515335832E+03  0.13715756895E+04  0.95000000000E+03 0.  0.
   -2000013    1    1    2    0    0  0.48612349969E+03  0.43260870047E+03  0.23540464840E+03  0.11753219530E+04  0.95000000000E+03 0.  0.
<mgrwt>
<rscale>  0 0.23505730E+04</rscale>
<asrwt>0</asrwt>
<pdfrwt beam="1">  1        2 0.27134274E+00 0.23505730E+04</pdfrwt>
<pdfrwt beam="2">  1       -2 0.12048766E+00 0.23505730E+04</pdfrwt>
<totfact> 0.42901856E+00</totfact>
</mgrwt>
</event>
<event>
 4    1  0.1323225E-008  0.2532819E+04  0.7816531E-02  0.8391386E-01
          2   -1    0    0  501    0  0.00000000000E+00  0.00000000000E+00  0.10583922044E+04  0.10583922044E+04  0.00000000000E+00 0.  1.
         -2   -1    0    0    0  501 -0.00000000000E+00 -0.00000000000E+00 -0.15153105778E+04  0.15153105778E+04  0.00000000000E+00 0. -1.
    2000013    1    1    2    0    0 -0.29763094082E+03 -0.66144625883E+03  0.19686325166E+03  0.12113424248E+04  0.95000000000E+03 0.  0.
   -2000013    1    1    2    0    0  0.29763094082E+03  0.66144625883E+03 -0.65378162508E+03  0.13623603574E+04  0.95000000000E+03 0.  0.
<mgrwt>
<rscale>  0 0.25328189E+04</rscale>
<asrwt>0</asrwt>
<pdfrwt beam="1">  1        2 0.16282957E+00 0.25328189E+04</pdfrwt>
<pdfrwt beam="2">  1       -2 0.23312470E+00 0.25328189E+04</pdfrwt>
<totfact> 0.16811216E+00</totfact>
</mgrwt>
</event>
<event>
 4    1  0.1323225E-008  0.2717629E+04  0.7816531E-02  0.8329308E-01
         -2   -1    0    0    0  501 -0.00000000000E+00  0.00000000000E+00  0.77296757537E+03  0.77296757537E+03  0.00000000000E+00 0. -1.
          2   -1    0    0  501    0  0.00000000000E+00 -0.00000000000E+00 -0.23886860031E+04  0.23886860031E+04  0.00000000000E+00 0.  1.
    2000013    1    1    2    0    0 -0.32064713474E+03  0.89461667125E+03 -0.10426307038E+04  0.17008034448E+04  0.95000000000E+03 0.  0.
   -2000013    1    1    2    0    0  0.32064713474E+03 -0.89461667125E+03 -0.57308772390E+03  0.14608501336E+04  0.95000000000E+03 0.  0.
<mgrwt>
<rscale>  0 0.27176290E+04</rscale>
<asrwt>0</asrwt>
<pdfrwt beam="2">  1        2 0.36749015E+00 0.27176290E+04</pdfrwt>
<pdfrwt beam="1">  1       -2 0.11891809E+00 0.27176290E+04</pdfrwt>
<totfact> 0.19195153E+00</totfact>
</mgrwt>
</event>
<event>
 4    1  0.1323225E-008  0.3497577E+04  0.7816531E-02  0.8114364E-01
          2   -1    0    0  501    0  0.00000000000E+00  0.00000000000E+00  0.25930777152E+04  0.25930777152E+04  0.00000000000E+00 0.  1.
         -2   -1    0    0    0  501 -0.00000000000E+00 -0.00000000000E+00 -0.11793945027E+04  0.11793945027E+04  0.00000000000E+00 0. -1.
    2000013    1    1    2    0    0  0.12807382358E+04  0.21887239680E+03  0.14443725090E+04  0.21626158927E+04  0.95000000000E+03 0.  0.
   -2000013    1    1    2    0    0 -0.12807382358E+04 -0.21887239680E+03 -0.30689296433E+02  0.16098563252E+04  0.95000000000E+03 0.  0.
<mgrwt>
<rscale>  0 0.34975772E+04</rscale>
<asrwt>0</asrwt>
<pdfrwt beam="1">  1        2 0.39893503E+00 0.34975772E+04</pdfrwt>
<pdfrwt beam="2">  1       -2 0.18144531E+00 0.34975772E+04</pdfrwt>
<totfact> 0.44731467E-01</totfact>
</mgrwt>
</event>
<event>
 4    1  0.1323225E-008  0.3282607E+04  0.7816531E-02  0.8167335E-01
          2   -1    0    0  501    0  0.00000000000E+00  0.00000000000E+00  0.18190570465E+04  0.18190570465E+04  0.00000000000E+00 0.  1.
         -2   -1    0    0    0  501 -0.00000000000E+00 -0.00000000000E+00 -0.14809193949E+04  0.14809193949E+04  0.00000000000E+00 0. -1.
    2000013    1    1    2    0    0 -0.12814137666E+04 -0.64584250435E+01  0.55752506857E+03  0.16897920448E+04  0.95000000000E+03 0.  0.
   -2000013    1    1    2    0    0  0.12814137666E+04  0.64584250435E+01 -0.21938741696E+03  0.16101843966E+04  0.95000000000E+03 0.  0.
<mgrwt>
<rscale>  0 0.32826068E+04</rscale>
<asrwt>0</asrwt>
<pdfrwt beam="1">  1        2 0.27985493E+00 0.32826068E+04</pdfrwt>
<pdfrwt beam="2">  1       -2 0.22783375E+00 0.32826068E+04</pdfrwt>
<totfact> 0.62137002E-01</totfact>
</mgrwt>
</event>
<event>
 4    1  0.1323225E-008  0.2740069E+04  0.7816531E-02  0.8322120E-01
          2   -1    0    0  501    0  0.00000000000E+00  0.00000000000E+00  0.34040566341E+04  0.34040566341E+04  0.00000000000E+00 0.  1.
         -2   -1    0    0    0  501 -0.00000000000E+00 -0.00000000000E+00 -0.55139944567E+03  0.55139944567E+03  0.00000000000E+00 0. -1.
    2000013    1    1    2    0    0  0.17756359469E+03  0.89012701849E+03  0.19866086667E+04  0.23817995158E+04  0.95000000000E+03 0.  0.
   -2000013    1    1    2    0    0 -0.17756359469E+03 -0.89012701849E+03  0.86604852178E+03  0.15736565640E+04  0.95000000000E+03 0.  0.
<mgrwt>
<rscale>  0 0.27400693E+04</rscale>
<asrwt>0</asrwt>
<pdfrwt beam="1">  1        2 0.52370101E+00 0.27400693E+04</pdfrwt>
<pdfrwt beam="2">  1       -2 0.84830686E-01 0.27400693E+04</pdfrwt>
<totfact> 0.10025920E+00</totfact>
</mgrwt>
</event>
<event>
 4    1  0.1323225E-008  0.2206005E+04  0.7816531E-02  0.8515933E-01
          2   -1    0    0  501    0  0.00000000000E+00  0.00000000000E+00  0.15486961464E+04  0.15486961464E+04  0.00000000000E+00 0.  1.
         -2   -1    0    0    0  501 -0.00000000000E+00 -0.00000000000E+00 -0.78557361437E+03  0.78557361437E+03  0.00000000000E+00 0. -1.
    2000013    1    1    2    0    0 -0.19929811637E+03  0.38550124281E+03  0.75684262477E+03  0.12898223545E+04  0.95000000000E+03 0.  0.
   -2000013    1    1    2    0    0  0.19929811637E+03 -0.38550124281E+03  0.62799072926E+01  0.10444474063E+04  0.95000000000E+03 0.  0.
<mgrwt>
<rscale>  0 0.22060053E+04</rscale>
<asrwt>0</asrwt>
<pdfrwt beam="1">  1        2 0.23826095E+00 0.22060053E+04</pdfrwt>
<pdfrwt beam="2">  1       -2 0.12085748E+00 0.22060053E+04</pdfrwt>
<totfact> 0.56800799E+00</totfact>
</mgrwt>
</event>
<event>
 4    1  0.1323225E-008  0.2967236E+04  0.7816531E-02  0.8253149E-01
         -2   -1    0    0    0  501 -0.00000000000E+00  0.00000000000E+00  0.10293418796E+04  0.10293418796E+04  0.00000000000E+00 0. -1.
          2   -1    0    0  501    0  0.00000000000E+00 -0.00000000000E+00 -0.21383783606E+04  0.21383783606E+04  0.00000000000E+00 0.  1.
    2000013    1    1    2    0    0  0.31786545460E+03 -0.43781470487E+03  0.51619362183E+03  0.12089979397E+04  0.95000000000E+03 0.  0.
   -2000013    1    1    2    0    0 -0.31786545460E+03  0.43781470487E+03 -0.16252301029E+04  0.19587223005E+04  0.95000000000E+03 0.  0.
<mgrwt>
<rscale>  0 0.29672360E+04</rscale>
<asrwt>0</asrwt>
<pdfrwt beam="2">  1        2 0.32898129E+00 0.29672360E+04</pdfrwt>
<pdfrwt beam="1">  1       -2 0.15836029E+00 0.29672360E+04</pdfrwt>
<totfact> 0.12434470E+00</totfact>
</mgrwt>
</event>
<event>
 4    1  0.1323225E-008  0.2057100E+04  0.7816531E-02  0.8580380E-01
         -2   -1    0    0    0  501 -0.00000000000E+00  0.00000000000E+00  0.58018874109E+03  0.58018874109E+03  0.00000000000E+00 0. -1.
          2   -1    0    0  501    0  0.00000000000E+00 -0.00000000000E+00 -0.18233976322E+04  0.18233976322E+04  0.00000000000E+00 0.  1.
    2000013    1    1    2    0    0  0.28990010882E+03  0.19997789123E+03 -0.82859072965E+03  0.13088528670E+04  0.95000000000E+03 0.  0.
   -2000013    1    1    2    0    0 -0.28990010882E+03 -0.19997789123E+03 -0.41461816144E+03  0.10947335063E+04  0.95000000000E+03 0.  0.
<mgrwt>
<rscale>  0 0.20570997E+04</rscale>
<asrwt>0</asrwt>
<pdfrwt beam="2">  1        2 0.28052271E+00 0.20570997E+04</pdfrwt>
<pdfrwt beam="1">  1       -2 0.89259807E-01 0.20570997E+04</pdfrwt>
<totfact> 0.83415874E+00</totfact>
</mgrwt>
</event>
<event>
 4    1  0.1323225E-008  0.2404451E+04  0.7816531E-02  0.8437839E-01
          2   -1    0    0  501    0  0.00000000000E+00  0.00000000000E+00  0.80019542410E+03  0.80019542410E+03  0.00000000000E+00 0.  1.
         -2   -1    0    0    0  501 -0.00000000000E+00 -0.00000000000E+00 -0.18062417924E+04  0.18062417924E+04  0.00000000000E+00 0. -1.
    2000013    1    1    2    0    0  0.69662990130E+03  0.17833518145E+03 -0.67697056596E+03  0.13703597351E+04  0.95000000000E+03 0.  0.
   -2000013    1    1    2    0    0 -0.69662990130E+03 -0.17833518145E+03 -0.32907580229E+03  0.12360774814E+04  0.95000000000E+03 0.  0.
<mgrwt>
<rscale>  0 0.24044512E+04</rscale>
<asrwt>0</asrwt>
<pdfrwt beam="1">  1        2 0.12310699E+00 0.24044512E+04</pdfrwt>
<pdfrwt beam="2">  1       -2 0.27788335E+00 0.24044512E+04</pdfrwt>
<totfact> 0.13429379E+00</totfact>
</mgrwt>
</event>
<event>
 4    1  0.1323225E-008  0.2481454E+04  0.7816531E-02  0.8409623E-01
         -2   -1    0    0    0  501 -0.00000000000E+00  0.00000000000E+00  0.35358510795E+03  0.35358510795E+03  0.00000000000E+00 0. -1.
          2   -1    0    0  501    0  0.00000000000E+00 -0.00000000000E+00 -0.43536983316E+04  0.43536983316E+04  0.00000000000E+00 0.  1.
    2000013    1    1    2    0    0  0.22696425935E+03 -0.76222559355E+03 -0.18741924030E+04  0.22466859580E+04  0.95000000000E+03 0.  0.
   -2000013    1    1    2    0    0 -0.22696425935E+03  0.76222559355E+03 -0.21259208206E+04  0.24605974815E+04  0.95000000000E+03 0.  0.
<mgrwt>
<rscale>  0 0.24814535E+04</rscale>
<asrwt>0</asrwt>
<pdfrwt beam="2">  1        2 0.66979976E+00 0.24814535E+04</pdfrwt>
<pdfrwt beam="1">  1       -2 0.54397707E-01 0.24814535E+04</pdfrwt>
<totfact> 0.48415291E-01</totfact>
</mgrwt>
</event>
<event>
 4    1  0.1323225E-008  0.4965076E+04  0.7816531E-02  0.7833917E-01
         -2   -1    0    0    0  501 -0.00000000000E+00  0.00000000000E+00  0.15730648205E+04  0.15730648205E+04  0.00000000000E+00 0. -1.
          2   -1    0    0  501    0  0.00000000000E+00 -0.00000000000E+00 -0.39178268725E+04  0.39178268725E+04  0.00000000000E+00 0.  1.
    2000013    1    1    2    0    0 -0.12810073427E+04 -0.63396657014E+03  0.81135155934E+03  0.18983373717E+04  0.95000000000E+03 0.  0.
   -2000013    1    1    2    0    0  0.12810073427E+04  0.63396657014E+03 -0.31561136113E+04  0.35925543213E+04  0.95000000000E+03 0.  0.
<mgrwt>
<rscale>  0 0.49650763E+04</rscale>
<asrwt>0</asrwt>
<pdfrwt beam="2">  1        2 0.60274260E+00 0.49650763E+04</pdfrwt>
<pdfrwt beam="1">  1       -2 0.24200997E+00 0.49650763E+04</pdfrwt>
<totfact> 0.20830244E-02</totfact>
</mgrwt>
</event>
<event>
 4    1  0.1323225E-008  0.2683387E+04  0.7816531E-02  0.8340416E-01
          2   -1    0    0  501    0  0.00000000000E+00  0.00000000000E+00  0.88395728794E+03  0.88395728794E+03  0.00000000000E+00 0.  1.
         -2   -1    0    0    0  501 -0.00000000000E+00 -0.00000000000E+00 -0.20364571630E+04  0.20364571630E+04  0.00000000000E+00 0. -1.
    2000013    1    1    2    0    0  0.67692334821E+03 -0.18652114751E+03  0.11603996139E+03  0.11870048991E+04  0.95000000000E+03 0.  0.
   -2000013    1    1    2    0    0 -0.67692334821E+03  0.18652114751E+03 -0.12685398365E+04  0.17334095519E+04  0.95000000000E+03 0.  0.
<mgrwt>
<rscale>  0 0.26833868E+04</rscale>
<asrwt>0</asrwt>
<pdfrwt beam="1">  1        2 0.13599343E+00 0.26833868E+04</pdfrwt>
<pdfrwt beam="2">  1       -2 0.31330110E+00 0.26833868E+04</pdfrwt>
<totfact> 0.69566120E-01</totfact>
</mgrwt>
</event>
<event>
 4    1  0.1323225E-008  0.3023661E+04  0.7816531E-02  0.8237006E-01
         -2   -1    0    0    0  501 -0.00000000000E+00  0.00000000000E+00  0.23972448945E+04  0.23972448945E+04  0.00000000000E+00 0. -1.
          2   -1    0    0  501    0  0.00000000000E+00 -0.00000000000E+00 -0.95344113628E+03  0.95344113628E+03  0.00000000000E+00 0.  1.
    2000013    1    1    2    0    0  0.29893702467E+03  0.11347314252E+04  0.80882776743E+03  0.17127992029E+04  0.95000000000E+03 0.  0.
   -2000013    1    1    2    0    0 -0.29893702467E+03 -0.11347314252E+04  0.63497599079E+03  0.16378868279E+04  0.95000000000E+03 0.  0.
<mgrwt>
<rscale>  0 0.30236613E+04</rscale>
<asrwt>0</asrwt>
<pdfrwt beam="2">  1        2 0.14668325E+00 0.30236613E+04</pdfrwt>
<pdfrwt beam="1">  1       -2 0.36880691E+00 0.30236613E+04</pdfrwt>
<totfact> 0.27253754E-01</totfact>
</mgrwt>
</event>
<event>
 4    1  0.1323225E-008  0.2707290E+04  0.7816531E-02  0.8332643E-01
         -4   -1    0    0    0  501 -0.00000000000E+00  0.00000000000E+00  0.93052367363E+03  0.93052367363E+03  0.00000000000E+00 0.  1.
          4   -1    0    0  501    0  0.00000000000E+00 -0.00000000000E+00 -0.19691651844E+04  0.19691651844E+04  0.00000000000E+00 0. -1.
    2000013    1    1    2    0    0  0.33159133288E+03 -0.64208899859E+03 -0.12031479130E+04  0.16947849405E+04  0.95000000000E+03 0.  0.
   -2000013    1    1    2    0    0 -0.33159133288E+03  0.64208899859E+03  0.16450640215E+03  0.12049039175E+04  0.95000000000E+03 0.  0.
<mgrwt>
<rscale>  0 0.27072900E+04</rscale>
<asrwt>0</asrwt>
<pdfrwt beam="2">  1        4 0.30294849E+00 0.27072900E+04</pdfrwt>
<pdfrwt beam="1">  1       -4 0.14315749E+00 0.27072900E+04</pdfrwt>
<totfact> 0.17423397E-02</totfact>
</mgrwt>
</event>
<event>
 4    1  0.1323225E-008  0.1959546E+04  0.7816531E-02  0.8625771E-01
          1   -1    0    0  501    0  0.00000000000E+00  0.00000000000E+00  0.48652197185E+03  0.48652197185E+03  0.00000000000E+00 0. -1.
         -1   -1    0    0    0  501 -0.00000000000E+00 -0.00000000000E+00 -0.19730971625E+04  0.19730971625E+04  0.00000000000E+00 0.  1.
    2000013    1    1    2    0    0 -0.18766732314E+03  0.97693390752E+02 -0.88469727372E+03  0.13152765066E+04  0.95000000000E+03 0.  0.
   -2000013    1    1    2    0    0  0.18766732314E+03 -0.97693390752E+02 -0.60187791697E+03  0.11443426278E+04  0.95000000000E+03 0.  0.
<mgrwt>
<rscale>  0 0.19595460E+04</rscale>
<asrwt>0</asrwt>
<pdfrwt beam="1">  1        1 0.74849534E-01 0.19595460E+04</pdfrwt>
<pdfrwt beam="2">  1       -1 0.30355341E+00 0.19595460E+04</pdfrwt>
<totfact> 0.13428703E+00</totfact>
</mgrwt>
</event>
<event>
 4    1  0.1323225E-008  0.2919714E+04  0.7816531E-02  0.8267036E-01
         -2   -1    0    0    0  501 -0.00000000000E+00  0.00000000000E+00  0.18019101681E+04  0.18019101681E+04  0.00000000000E+00 0. -1.
          2   -1    0    0  501    0  0.00000000000E+00 -0.00000000000E+00 -0.11827354564E+04  0.11827354564E+04  0.00000000000E+00 0.  1.
    2000013    1    1    2    0    0 -0.83538241420E+02 -0.59273289639E+03  0.12632722142E+04  0.16901679240E+04  0.95000000000E+03 0.  0.
   -2000013    1    1    2    0    0  0.83538241420E+02  0.59273289639E+03 -0.64409750248E+03  0.12944777004E+04  0.95000000000E+03 0.  0.
<mgrwt>
<rscale>  0 0.29197144E+04</rscale>
<asrwt>0</asrwt>
<pdfrwt beam="2">  1        2 0.18195930E+00 0.29197144E+04</pdfrwt>
<pdfrwt beam="1">  1       -2 0.27721695E+00 0.29197144E+04</pdfrwt>
<totfact> 0.73194082E-01</totfact>
</mgrwt>
</event>
<event>
 4    1  0.1323225E-008  0.2349857E+04  0.7816531E-02  0.8458519E-01
          2   -1    0    0  501    0  0.00000000000E+00  0.00000000000E+00  0.12065702953E+04  0.12065702953E+04  0.00000000000E+00 0.  1.
         -2   -1    0    0    0  501 -0.00000000000E+00 -0.00000000000E+00 -0.11441166408E+04  0.11441166408E+04  0.00000000000E+00 0. -1.
    2000013    1    1    2    0    0 -0.65064280164E+03  0.22343514024E+03  0.99791790954E+02  0.11771651196E+04  0.95000000000E+03 0.  0.
   -2000013    1    1    2    0    0  0.65064280164E+03 -0.22343514024E+03 -0.37338136446E+02  0.11735218164E+04  0.95000000000E+03 0.  0.
<mgrwt>
<rscale>  0 0.23498571E+04</rscale>
<asrwt>0</asrwt>
<pdfrwt beam="1">  1        2 0.18562620E+00 0.23498571E+04</pdfrwt>
<pdfrwt beam="2">  1       -2 0.17601795E+00 0.23498571E+04</pdfrwt>
<totfact> 0.32757088E+00</totfact>
</mgrwt>
</event>
<event>
 4    1  0.1323225E-008  0.2980046E+04  0.7816531E-02  0.8249452E-01
         -2   -1    0    0    0  501 -0.00000000000E+00  0.00000000000E+00  0.24325815561E+04  0.24325815561E+04  0.00000000000E+00 0. -1.
          2   -1    0    0  501    0  0.00000000000E+00 -0.00000000000E+00 -0.91268013605E+03  0.91268013605E+03  0.00000000000E+00 0.  1.
    2000013    1    1    2    0    0  0.78095678110E+03 -0.76084259235E+03  0.11629676635E+04  0.18557394027E+04  0.95000000000E+03 0.  0.
   -2000013    1    1    2    0    0 -0.78095678110E+03  0.76084259235E+03  0.35693375656E+03  0.14895222895E+04  0.95000000000E+03 0.  0.
<mgrwt>
<rscale>  0 0.29800462E+04</rscale>
<asrwt>0</asrwt>
<pdfrwt beam="2">  1        2 0.14041233E+00 0.29800462E+04</pdfrwt>
<pdfrwt beam="1">  1       -2 0.37424331E+00 0.29800462E+04</pdfrwt>
<totfact> 0.26868643E-01</totfact>
</mgrwt>
</event>
<event>
 4    1  0.1323225E-008  0.2087264E+04  0.7816531E-02  0.8566874E-01
         -2   -1    0    0    0  501 -0.00000000000E+00  0.00000000000E+00  0.37963703288E+03  0.37963703288E+03  0.00000000000E+00 0. -1.
          2   -1    0    0  501    0  0.00000000000E+00 -0.00000000000E+00 -0.28689718713E+04  0.28689718713E+04  0.00000000000E+00 0.  1.
    2000013    1    1    2    0    0  0.88037946103E+02  0.36257841981E+03 -0.90562250624E+03  0.13645020756E+04  0.95000000000E+03 0.  0.
   -2000013    1    1    2    0    0 -0.88037946103E+02 -0.36257841981E+03 -0.15837123322E+04  0.18841068286E+04  0.95000000000E+03 0.  0.
<mgrwt>
<rscale>  0 0.20872642E+04</rscale>
<asrwt>0</asrwt>
<pdfrwt beam="2">  1        2 0.44138030E+00 0.20872642E+04</pdfrwt>
<pdfrwt beam="1">  1       -2 0.58405696E-01 0.20872642E+04</pdfrwt>
<totfact> 0.53161153E+00</totfact>
</mgrwt>
</event>
<event>
 4    1  0.1323225E-008  0.3272058E+04  0.7816531E-02  0.8170042E-01
         -2   -1    0    0    0  501 -0.00000000000E+00  0.00000000000E+00  0.84139080148E+03  0.84139080148E+03  0.00000000000E+00 0. -1.
          2   -1    0    0  501    0  0.00000000000E+00 -0.00000000000E+00 -0.31811511874E+04  0.31811511874E+04  0.00000000000E+00 0.  1.
    2000013    1    1    2    0    0  0.60134025173E+03  0.11157455007E+04 -0.66660237796E+03  0.17185333430E+04  0.95000000000E+03 0.  0.
   -2000013    1    1    2    0    0 -0.60134025173E+03 -0.11157455007E+04 -0.16731580080E+04  0.23040086459E+04  0.95000000000E+03 0.  0.
<mgrwt>
<rscale>  0 0.32720583E+04</rscale>
<asrwt>0</asrwt>
<pdfrwt beam="2">  1        2 0.48940788E+00 0.32720583E+04</pdfrwt>
<pdfrwt beam="1">  1       -2 0.12944474E+00 0.32720583E+04</pdfrwt>
<totfact> 0.48978884E-01</totfact>
</mgrwt>
</event>
<event>
 4    1  0.1323225E-008  0.2914811E+04  0.7816531E-02  0.8268484E-01
          2   -1    0    0  501    0  0.00000000000E+00  0.00000000000E+00  0.15746223096E+04  0.15746223096E+04  0.00000000000E+00 0.  1.
         -2   -1    0    0    0  501 -0.00000000000E+00 -0.00000000000E+00 -0.13489146098E+04  0.13489146098E+04  0.00000000000E+00 0. -1.
    2000013    1    1    2    0    0 -0.62579252212E+03  0.90594623708E+03  0.20893295615E+03  0.14691861167E+04  0.95000000000E+03 0.  0.
   -2000013    1    1    2    0    0  0.62579252212E+03 -0.90594623708E+03  0.16774743637E+02  0.14543508027E+04  0.95000000000E+03 0.  0.
<mgrwt>
<rscale>  0 0.29148112E+04</rscale>
<asrwt>0</asrwt>
<pdfrwt beam="1">  1        2 0.24224959E+00 0.29148112E+04</pdfrwt>
<pdfrwt beam="2">  1       -2 0.20752532E+00 0.29148112E+04</pdfrwt>
<totfact> 0.11801492E+00</totfact>
</mgrwt>
</event>
<event>
 4    1  0.1323225E-008  0.2682578E+04  0.7816531E-02  0.8340680E-01
          2   -1    0    0  501    0  0.00000000000E+00  0.00000000000E+00  0.16499511616E+04  0.16499511616E+04  0.00000000000E+00 0.  1.
         -2   -1    0    0    0  501 -0.00000000000E+00 -0.00000000000E+00 -0.10903694053E+04  0.10903694053E+04  0.00000000000E+00 0. -1.
    2000013    1    1    2    0    0 -0.32386323698E+03  0.87459246873E+03  0.44688715417E+03  0.14042818489E+04  0.95000000000E+03 0.  0.
   -2000013    1    1    2    0    0  0.32386323698E+03 -0.87459246873E+03  0.11269460219E+03  0.13360387180E+04  0.95000000000E+03 0.  0.
<mgrwt>
<rscale>  0 0.26825781E+04</rscale>
<asrwt>0</asrwt>
<pdfrwt beam="1">  1        2 0.25383864E+00 0.26825781E+04</pdfrwt>
<pdfrwt beam="2">  1       -2 0.16774914E+00 0.26825781E+04</pdfrwt>
<totfact> 0.20324014E+00</totfact>
</mgrwt>
</event>
<event>
 4    1  0.1323225E-008  0.2253668E+04  0.7816531E-02  0.8496416E-01
          2   -1    0    0  501    0  0.00000000000E+00  0.00000000000E+00  0.14651172466E+04  0.14651172466E+04  0.00000000000E+00 0.  1.
         -2   -1    0    0    0  501 -0.00000000000E+00 -0.00000000000E+00 -0.86665771697E+03  0.86665771697E+03  0.00000000000E+00 0. -1.
    2000013    1    1    2    0    0 -0.23268254833E+03  0.54001348136E+03  0.45093836994E+03  0.12048241124E+04  0.95000000000E+03 0.  0.
   -2000013    1    1    2    0    0  0.23268254833E+03 -0.54001348136E+03  0.14752115966E+03  0.11269508511E+04  0.95000000000E+03 0.  0.
<mgrwt>
<rscale>  0 0.22536683E+04</rscale>
<asrwt>0</asrwt>
<pdfrwt beam="1">  1        2 0.22540265E+00 0.22536683E+04</pdfrwt>
<pdfrwt beam="2">  1       -2 0.13333196E+00 0.22536683E+04</pdfrwt>
<totfact> 0.49242886E+00</totfact>
</mgrwt>
</event>
<event>
 4    1  0.1323225E-008  0.4943451E+04  0.7816531E-02  0.7837290E-01
          2   -1    0    0  501    0  0.00000000000E+00  0.00000000000E+00  0.36115252646E+04  0.36115252646E+04  0.00000000000E+00 0.  1.
         -2   -1    0    0    0  501 -0.00000000000E+00 -0.00000000000E+00 -0.16916472007E+04  0.16916472007E+04  0.00000000000E+00 0. -1.
    2000013    1    1    2    0    0 -0.11343142490E+04 -0.19518300001E+04  0.60314520658E+03  0.25224181464E+04  0.95000000000E+03 0.  0.
   -2000013    1    1    2    0    0  0.11343142490E+04  0.19518300001E+04  0.13167328573E+04  0.27807543190E+04  0.95000000000E+03 0.  0.
<mgrwt>
<rscale>  0 0.49434509E+04</rscale>
<asrwt>0</asrwt>
<pdfrwt beam="1">  1        2 0.55561927E+00 0.49434509E+04</pdfrwt>
<pdfrwt beam="2">  1       -2 0.26025342E+00 0.49434509E+04</pdfrwt>
<totfact> 0.27469578E-02</totfact>
</mgrwt>
</event>
<event>
 4    1  0.1323225E-008  0.3018966E+04  0.7816531E-02  0.8238336E-01
         -2   -1    0    0    0  501 -0.00000000000E+00  0.00000000000E+00  0.73677288043E+03  0.73677288043E+03  0.00000000000E+00 0. -1.
          2   -1    0    0  501    0  0.00000000000E+00 -0.00000000000E+00 -0.30925925467E+04  0.30925925467E+04  0.00000000000E+00 0.  1.
    2000013    1    1    2    0    0 -0.58295367526E+03  0.97367797620E+03 -0.80130059867E+03  0.16829932972E+04  0.95000000000E+03 0.  0.
   -2000013    1    1    2    0    0  0.58295367526E+03 -0.97367797620E+03 -0.15545190676E+04  0.21463721300E+04  0.95000000000E+03 0.  0.
<mgrwt>
<rscale>  0 0.30189656E+04</rscale>
<asrwt>0</asrwt>
<pdfrwt beam="2">  1        2 0.47578348E+00 0.30189656E+04</pdfrwt>
<pdfrwt beam="1">  1       -2 0.11334967E+00 0.30189656E+04</pdfrwt>
<totfact> 0.79369462E-01</totfact>
</mgrwt>
</event>
<event>
 4    1  0.1323225E-008  0.2675388E+04  0.7816531E-02  0.8343035E-01
          2   -1    0    0  501    0  0.00000000000E+00  0.00000000000E+00  0.21562083140E+04  0.21562083140E+04  0.00000000000E+00 0.  1.
         -2   -1    0    0    0  501 -0.00000000000E+00 -0.00000000000E+00 -0.82989423007E+03  0.82989423007E+03  0.00000000000E+00 0. -1.
    2000013    1    1    2    0    0  0.43802641971E+03 -0.27652085967E+03 -0.21469396299E+03  0.11031429771E+04  0.95000000000E+03 0.  0.
   -2000013    1    1    2    0    0 -0.43802641971E+03  0.27652085967E+03  0.15410080469E+04  0.18829595670E+04  0.95000000000E+03 0.  0.
<mgrwt>
<rscale>  0 0.26753877E+04</rscale>
<asrwt>0</asrwt>
<pdfrwt beam="1">  1        2 0.33172435E+00 0.26753877E+04</pdfrwt>
<pdfrwt beam="2">  1       -2 0.12767604E+00 0.26753877E+04</pdfrwt>
<totfact> 0.21836906E+00</totfact>
</mgrwt>
</event>
<event>
 4    1  0.1323225E-008  0.2044373E+04  0.7816531E-02  0.8586151E-01
          1   -1    0    0  501    0  0.00000000000E+00  0.00000000000E+00  0.14758646351E+04  0.14758646351E+04  0.00000000000E+00 0.  1.
         -1   -1    0    0    0  501 -0.00000000000E+00 -0.00000000000E+00 -0.70796825058E+03  0.70796825058E+03  0.00000000000E+00 0. -1.
    2000013    1    1    2    0    0 -0.28335997065E+03 -0.24505684352E+03  0.33594289409E+03  0.10750364448E+04  0.95000000000E+03 0.  0.
   -2000013    1    1    2    0    0  0.28335997065E+03  0.24505684352E+03  0.43195349047E+03  0.11087964409E+04  0.95000000000E+03 0.  0.
<mgrwt>
<rscale>  0 0.20443731E+04</rscale>
<asrwt>0</asrwt>
<pdfrwt beam="1">  1        1 0.22705610E+00 0.20443731E+04</pdfrwt>
<pdfrwt beam="2">  1       -1 0.10891819E+00 0.20443731E+04</pdfrwt>
<totfact> 0.49085468E+00</totfact>
</mgrwt>
</event>
<event>
 4    1  0.1323225E-008  0.2023872E+04  0.7816531E-02  0.8595540E-01
          2   -1    0    0  501    0  0.00000000000E+00  0.00000000000E+00  0.14526392082E+04  0.14526392082E+04  0.00000000000E+00 0.  1.
         -2   -1    0    0    0  501 -0.00000000000E+00 -0.00000000000E+00 -0.70493394250E+03  0.70493394250E+03  0.00000000000E+00 0. -1.
    2000013    1    1    2    0    0 -0.16153531569E+03 -0.25466287637E+03  0.56023930494E+03  0.11433787289E+04  0.95000000000E+03 0.  0.
   -2000013    1    1    2    0    0  0.16153531569E+03  0.25466287637E+03  0.18746596075E+03  0.10141944218E+04  0.95000000000E+03 0.  0.
<mgrwt>
<rscale>  0 0.20238722E+04</rscale>
<asrwt>0</asrwt>
<pdfrwt beam="1">  1        2 0.22348295E+00 0.20238722E+04</pdfrwt>
<pdfrwt beam="2">  1       -2 0.10845138E+00 0.20238722E+04</pdfrwt>
<totfact> 0.85152161E+00</totfact>
</mgrwt>
</event>
<event>
 4    1  0.1323225E-008  0.2687627E+04  0.7816531E-02  0.8339031E-01
         -2   -1    0    0    0  501 -0.00000000000E+00  0.00000000000E+00  0.15547990775E+04  0.15547990775E+04  0.00000000000E+00 0. -1.
          2   -1    0    0  501    0  0.00000000000E+00 -0.00000000000E+00 -0.11614585149E+04  0.11614585149E+04  0.00000000000E+00 0.  1.
    2000013    1    1    2    0    0 -0.52418013045E+03 -0.69772089292E+03 -0.18384467841E+03  0.13030265229E+04  0.95000000000E+03 0.  0.
   -2000013    1    1    2    0    0  0.52418013045E+03  0.69772089292E+03  0.57718524098E+03  0.14132310696E+04  0.95000000000E+03 0.  0.
<mgrwt>
<rscale>  0 0.26876269E+04</rscale>
<asrwt>0</asrwt>
<pdfrwt beam="2">  1        2 0.17868593E+00 0.26876269E+04</pdfrwt>
<pdfrwt beam="1">  1       -2 0.23919986E+00 0.26876269E+04</pdfrwt>
<totfact> 0.13146189E+00</totfact>
</mgrwt>
</event>
<event>
 4    1  0.1323225E-008  0.2785714E+04  0.7816531E-02  0.8307717E-01
         -2   -1    0    0    0  501 -0.00000000000E+00  0.00000000000E+00  0.11885590188E+04  0.11885590188E+04  0.00000000000E+00 0. -1.
          2   -1    0    0  501    0  0.00000000000E+00 -0.00000000000E+00 -0.16322708843E+04  0.16322708843E+04  0.00000000000E+00 0.  1.
    2000013    1    1    2    0    0  0.42254711051E+03 -0.88384427695E+03 -0.50434121725E+03  0.14548494183E+04  0.95000000000E+03 0.  0.
   -2000013    1    1    2    0    0 -0.42254711051E+03  0.88384427695E+03  0.60629351720E+02  0.13659804848E+04  0.95000000000E+03 0.  0.
<mgrwt>
<rscale>  0 0.27857138E+04</rscale>
<asrwt>0</asrwt>
<pdfrwt beam="2">  1        2 0.25111859E+00 0.27857138E+04</pdfrwt>
<pdfrwt beam="1">  1       -2 0.18285524E+00 0.27857138E+04</pdfrwt>
<totfact> 0.16153769E+00</totfact>
</mgrwt>
</event>
<event>
 4    1  0.1323225E-008  0.3035976E+04  0.7816531E-02  0.8233532E-01
         -4   -1    0    0    0  501 -0.00000000000E+00  0.00000000000E+00  0.18170184855E+04  0.18170184855E+04  0.00000000000E+00 0. -1.
          4   -1    0    0  501    0  0.00000000000E+00 -0.00000000000E+00 -0.12681691947E+04  0.12681691947E+04  0.00000000000E+00 0.  1.
    2000013    1    1    2    0    0  0.11026280280E+04 -0.31140124331E+03 -0.28786787669E+02  0.14886530763E+04  0.95000000000E+03 0.  0.
   -2000013    1    1    2    0    0 -0.11026280280E+04  0.31140124331E+03  0.57763607843E+03  0.15965346039E+04  0.95000000000E+03 0.  0.
<mgrwt>
<rscale>  0 0.30359755E+04</rscale>
<asrwt>0</asrwt>
<pdfrwt beam="2">  1        4 0.19510295E+00 0.30359755E+04</pdfrwt>
<pdfrwt beam="1">  1       -4 0.27954131E+00 0.30359755E+04</pdfrwt>
<totfact> 0.99435926E-03</totfact>
</mgrwt>
</event>
<event>
 4    1  0.1323225E-008  0.2077195E+04  0.7816531E-02  0.8571356E-01
          2   -1    0    0  501    0  0.00000000000E+00  0.00000000000E+00  0.30823438504E+04  0.30823438504E+04  0.00000000000E+00 0.  1.
         -2   -1    0    0    0  501 -0.00000000000E+00 -0.00000000000E+00 -0.34995605688E+03  0.34995605688E+03  0.00000000000E+00 0. -1.
    2000013    1    1    2    0    0 -0.35981483651E+03 -0.12797721301E+03  0.16540104962E+04  0.19452752004E+04  0.95000000000E+03 0.  0.
   -2000013    1    1    2    0    0  0.35981483651E+03  0.12797721301E+03  0.10783772974E+04  0.14870247070E+04  0.95000000000E+03 0.  0.
<mgrwt>
<rscale>  0 0.20771951E+04</rscale>
<asrwt>0</asrwt>
<pdfrwt beam="1">  1        2 0.47420673E+00 0.20771951E+04</pdfrwt>
<pdfrwt beam="2">  1       -2 0.53839395E-01 0.20771951E+04</pdfrwt>
<totfact> 0.46446116E+00</totfact>
</mgrwt>
</event>
<event>
 4    1  0.1323225E-008  0.2432718E+04  0.7816531E-02  0.8427355E-01
         -2   -1    0    0    0  501 -0.00000000000E+00  0.00000000000E+00  0.59964879737E+03  0.59964879737E+03  0.00000000000E+00 0. -1.
          2   -1    0    0  501    0  0.00000000000E+00 -0.00000000000E+00 -0.24673266638E+04  0.24673266638E+04  0.00000000000E+00 0.  1.
    2000013    1    1    2    0    0  0.74180604541E+03  0.13962367020E+03 -0.10412481595E+04  0.15988960904E+04  0.95000000000E+03 0.  0.
   -2000013    1    1    2    0    0 -0.74180604541E+03 -0.13962367020E+03 -0.82642970692E+03  0.14680793707E+04  0.95000000000E+03 0.  0.
<mgrwt>
<rscale>  0 0.24327182E+04</rscale>
<asrwt>0</asrwt>
<pdfrwt beam="2">  1        2 0.37958871E+00 0.24327182E+04</pdfrwt>
<pdfrwt beam="1">  1       -2 0.92253662E-01 0.24327182E+04</pdfrwt>
<totfact> 0.32538502E+00</totfact>
</mgrwt>
</event>
<event>
 4    1  0.1323225E-008  0.3431339E+04  0.7816531E-02  0.8130257E-01
         -2   -1    0    0    0  501 -0.00000000000E+00  0.00000000000E+00  0.21305175560E+04  0.21305175560E+04  0.00000000000E+00 0. -1.
          2   -1    0    0  501    0  0.00000000000E+00 -0.00000000000E+00 -0.13815992060E+04  0.13815992060E+04  0.00000000000E+00 0.  1.
    2000013    1    1    2    0    0 -0.12692975014E+04  0.33398307810E+03  0.95197641982E+03  0.18792072657E+04  0.95000000000E+03 0.  0.
   -2000013    1    1    2    0    0  0.12692975014E+04 -0.33398307810E+03 -0.20305806981E+03  0.16329094964E+04  0.95000000000E+03 0.  0.
<mgrwt>
<rscale>  0 0.34313387E+04</rscale>
<asrwt>0</asrwt>
<pdfrwt beam="2">  1        2 0.21255372E+00 0.34313387E+04</pdfrwt>
<pdfrwt beam="1">  1       -2 0.32777193E+00 0.34313387E+04</pdfrwt>
<totfact> 0.26249937E-01</totfact>
</mgrwt>
</event>
<event>
 4    1  0.1323225E-008  0.2729141E+04  0.7816531E-02  0.8325611E-01
          2   -1    0    0  501    0  0.00000000000E+00  0.00000000000E+00  0.40116484453E+04  0.40116484453E+04  0.00000000000E+00 0.  1.
         -2   -1    0    0    0  501 -0.00000000000E+00 -0.00000000000E+00 -0.46416136912E+03  0.46416136912E+03  0.00000000000E+00 0. -1.
    2000013    1    1    2    0    0  0.72338942421E+03  0.62798733956E+03  0.14380750217E+04  0.19718570246E+04  0.95000000000E+03 0.  0.
   -2000013    1    1    2    0    0 -0.72338942421E+03 -0.62798733956E+03  0.21094120545E+04  0.25039527898E+04  0.95000000000E+03 0.  0.
<mgrwt>
<rscale>  0 0.27291407E+04</rscale>
<asrwt>0</asrwt>
<pdfrwt beam="1">  1        2 0.61717666E+00 0.27291407E+04</pdfrwt>
<pdfrwt beam="2">  1       -2 0.71409444E-01 0.27291407E+04</pdfrwt>
<totfact> 0.52200615E-01</totfact>
</mgrwt>
</event>
<event>
 4    1  0.1323225E-008  0.2333185E+04  0.7816531E-02  0.8464950E-01
         -2   -1    0    0    0  501 -0.00000000000E+00  0.00000000000E+00  0.11400144028E+04  0.11400144028E+04  0.00000000000E+00 0. -1.
          2   -1    0    0  501    0  0.00000000000E+00 -0.00000000000E+00 -0.11937903928E+04  0.11937903928E+04  0.00000000000E+00 0.  1.
    2000013    1    1    2    0    0  0.47777360506E+03 -0.42339542809E+03  0.19879757930E+03  0.11617021063E+04  0.95000000000E+03 0.  0.
   -2000013    1    1    2    0    0 -0.47777360506E+03  0.42339542809E+03 -0.25257356929E+03  0.11721026892E+04  0.95000000000E+03 0.  0.
<mgrwt>
<rscale>  0 0.23331852E+04</rscale>
<asrwt>0</asrwt>
<pdfrwt beam="2">  1        2 0.18366006E+00 0.23331852E+04</pdfrwt>
<pdfrwt beam="1">  1       -2 0.17538683E+00 0.23331852E+04</pdfrwt>
<totfact> 0.33726171E+00</totfact>
</mgrwt>
</event>
<event>
 4    1  0.1323225E-008  0.2547497E+04  0.7816531E-02  0.8386257E-01
         -2   -1    0    0    0  501 -0.00000000000E+00  0.00000000000E+00  0.19080920692E+04  0.19080920692E+04  0.00000000000E+00 0. -1.
          2   -1    0    0  501    0  0.00000000000E+00 -0.00000000000E+00 -0.85029159892E+03  0.85029159892E+03  0.00000000000E+00 0.  1.
    2000013    1    1    2    0    0  0.59834325068E+03  0.47215054818E+03  0.93258177928E+03  0.15339979012E+04  0.95000000000E+03 0.  0.
   -2000013    1    1    2    0    0 -0.59834325068E+03 -0.47215054818E+03  0.12521869104E+03  0.12243857670E+04  0.95000000000E+03 0.  0.
<mgrwt>
<rscale>  0 0.25474965E+04</rscale>
<asrwt>0</asrwt>
<pdfrwt beam="2">  1        2 0.13081409E+00 0.25474965E+04</pdfrwt>
<pdfrwt beam="1">  1       -2 0.29355263E+00 0.25474965E+04</pdfrwt>
<totfact> 0.98102818E-01</totfact>
</mgrwt>
</event>
<event>
 4    1  0.1323225E-008  0.2241220E+04  0.7816531E-02  0.8501465E-01
          2   -1    0    0  501    0  0.00000000000E+00  0.00000000000E+00  0.20254339202E+04  0.20254339202E+04  0.00000000000E+00 0.  1.
         -2   -1    0    0    0  501 -0.00000000000E+00 -0.00000000000E+00 -0.61999909517E+03  0.61999909517E+03  0.00000000000E+00 0. -1.
    2000013    1    1    2    0    0  0.20392169016E+03 -0.54385930650E+03  0.85155528635E+03  0.14017893589E+04  0.95000000000E+03 0.  0.
   -2000013    1    1    2    0    0 -0.20392169016E+03  0.54385930650E+03  0.55387953873E+03  0.12436436565E+04  0.95000000000E+03 0.  0.
<mgrwt>
<rscale>  0 0.22412204E+04</rscale>
<asrwt>0</asrwt>
<pdfrwt beam="1">  1        2 0.31160522E+00 0.22412204E+04</pdfrwt>
<pdfrwt beam="2">  1       -2 0.95384477E-01 0.22412204E+04</pdfrwt>
<totfact> 0.54383759E+00</totfact>
</mgrwt>
</event>
<event>
 4    1  0.1323225E-008  0.2898070E+04  0.7816531E-02  0.8273452E-01
         -2   -1    0    0    0  501 -0.00000000000E+00  0.00000000000E+00  0.71456289705E+03  0.71456289705E+03  0.00000000000E+00 0. -1.
          2   -1    0    0  501    0  0.00000000000E+00 -0.00000000000E+00 -0.29384429341E+04  0.29384429341E+04  0.00000000000E+00 0.  1.
    2000013    1    1    2    0    0  0.58723401342E+03  0.70093602578E+03 -0.18693368729E+04  0.22875916251E+04  0.95000000000E+03 0.  0.
   -2000013    1    1    2    0    0 -0.58723401342E+03 -0.70093602578E+03 -0.35454316409E+03  0.13654142060E+04  0.95000000000E+03 0.  0.
<mgrwt>
<rscale>  0 0.28980699E+04</rscale>
<asrwt>0</asrwt>
<pdfrwt beam="2">  1        2 0.45206814E+00 0.28980699E+04</pdfrwt>
<pdfrwt beam="1">  1       -2 0.10993275E+00 0.28980699E+04</pdfrwt>
<totfact> 0.10798157E+00</totfact>
</mgrwt>
</event>
<event>
 4    1  0.1323225E-008  0.2176204E+04  0.7816531E-02  0.8528398E-01
         -2   -1    0    0    0  501 -0.00000000000E+00  0.00000000000E+00  0.47927642803E+03  0.47927642803E+03  0.00000000000E+00 0. -1.
          2   -1    0    0  501    0  0.00000000000E+00 -0.00000000000E+00 -0.24703197342E+04  0.24703197342E+04  0.00000000000E+00 0.  1.
    2000013    1    1    2    0    0 -0.26287571421E+02  0.52903888536E+03 -0.10360211544E+04  0.15021361493E+04  0.95000000000E+03 0.  0.
   -2000013    1    1    2    0    0  0.26287571421E+02 -0.52903888536E+03 -0.95502215168E+03  0.14474600129E+04  0.95000000000E+03 0.  0.
<mgrwt>
<rscale>  0 0.21762041E+04</rscale>
<asrwt>0</asrwt>
<pdfrwt beam="2">  1        2 0.38004920E+00 0.21762041E+04</pdfrwt>
<pdfrwt beam="1">  1       -2 0.73734833E-01 0.21762041E+04</pdfrwt>
<totfact> 0.55003016E+00</totfact>
</mgrwt>
</event>
<event>
 4    1  0.1323225E-008  0.2850793E+04  0.7816531E-02  0.8287670E-01
         -2   -1    0    0    0  501 -0.00000000000E+00  0.00000000000E+00  0.58872081815E+03  0.58872081815E+03  0.00000000000E+00 0. -1.
          2   -1    0    0  501    0  0.00000000000E+00 -0.00000000000E+00 -0.34511347188E+04  0.34511347188E+04  0.00000000000E+00 0.  1.
    2000013    1    1    2    0    0 -0.82531409964E+03 -0.37905261712E+03 -0.22130945801E+04  0.25739292668E+04  0.95000000000E+03 0.  0.
   -2000013    1    1    2    0    0  0.82531409964E+03  0.37905261712E+03 -0.64931932049E+03  0.14659262702E+04  0.95000000000E+03 0.  0.
<mgrwt>
<rscale>  0 0.28507928E+04</rscale>
<asrwt>0</asrwt>
<pdfrwt beam="2">  1        2 0.53094380E+00 0.28507928E+04</pdfrwt>
<pdfrwt beam="1">  1       -2 0.90572434E-01 0.28507928E+04</pdfrwt>
<totfact> 0.79317190E-01</totfact>
</mgrwt>
</event>
<event>
 4    1  0.1323225E-008  0.4436868E+04  0.7816531E-02  0.7921784E-01
          2   -1    0    0  501    0  0.00000000000E+00  0.00000000000E+00  0.26352745308E+04  0.26352745308E+04  0.00000000000E+00 0.  1.
         -2   -1    0    0    0  501 -0.00000000000E+00 -0.00000000000E+00 -0.18675279903E+04  0.18675279903E+04  0.00000000000E+00 0. -1.
    2000013    1    1    2    0    0 -0.15956597372E+04  0.73723317136E+03 -0.59445776475E+03  0.20845917538E+04  0.95000000000E+03 0.  0.
   -2000013    1    1    2    0    0  0.15956597372E+04 -0.73723317136E+03  0.13622043052E+04  0.24182107673E+04  0.95000000000E+03 0.  0.
<mgrwt>
<rscale>  0 0.44368678E+04</rscale>
<asrwt>0</asrwt>
<pdfrwt beam="1">  1        2 0.40542685E+00 0.44368678E+04</pdfrwt>
<pdfrwt beam="2">  1       -2 0.28731200E+00 0.44368678E+04</pdfrwt>
<totfact> 0.83950349E-02</totfact>
</mgrwt>
</event>
<event>
 4    1  0.1323225E-008  0.2880663E+04  0.7816531E-02  0.8278654E-01
          2   -1    0    0  501    0  0.00000000000E+00  0.00000000000E+00  0.13333761658E+04  0.13333761658E+04  0.00000000000E+00 0.  1.
         -2   -1    0    0    0  501 -0.00000000000E+00 -0.00000000000E+00 -0.15558662970E+04  0.15558662970E+04  0.00000000000E+00 0. -1.
    2000013    1    1    2    0    0 -0.57994017822E+03  0.10927202292E+03  0.79908356713E+03  0.13745201099E+04  0.95000000000E+03 0.  0.
   -2000013    1    1    2    0    0  0.57994017822E+03 -0.10927202292E+03 -0.10215736983E+04  0.15147223529E+04  0.95000000000E+03 0.  0.
<mgrwt>
<rscale>  0 0.28806631E+04</rscale>
<asrwt>0</asrwt>
<pdfrwt beam="1">  1        2 0.20513480E+00 0.28806631E+04</pdfrwt>
<pdfrwt beam="2">  1       -2 0.23936404E+00 0.28806631E+04</pdfrwt>
<totfact> 0.10215097E+00</totfact>
</mgrwt>
</event>
<event>
 4    1  0.1323225E-008  0.1975728E+04  0.7816531E-02  0.8618053E-01
          2   -1    0    0  501    0  0.00000000000E+00  0.00000000000E+00  0.21760555802E+04  0.21760555802E+04  0.00000000000E+00 0.  1.
         -2   -1    0    0    0  501 -0.00000000000E+00 -0.00000000000E+00 -0.44846058497E+03  0.44846058497E+03  0.00000000000E+00 0. -1.
    2000013    1    1    2    0    0  0.13662432925E+03 -0.20208318910E+03  0.70734544437E+03  0.12092730876E+04  0.95000000000E+03 0.  0.
   -2000013    1    1    2    0    0 -0.13662432925E+03  0.20208318910E+03  0.10202495509E+04  0.14152430776E+04  0.95000000000E+03 0.  0.
<mgrwt>
<rscale>  0 0.19757279E+04</rscale>
<asrwt>0</asrwt>
<pdfrwt beam="1">  1        2 0.33477778E+00 0.19757279E+04</pdfrwt>
<pdfrwt beam="2">  1       -2 0.68993937E-01 0.19757279E+04</pdfrwt>
<totfact> 0.95133285E+00</totfact>
</mgrwt>
</event>
<event>
 4    1  0.1323225E-008  0.2172048E+04  0.7816531E-02  0.8530153E-01
         -2   -1    0    0    0  501 -0.00000000000E+00  0.00000000000E+00  0.44893543269E+03  0.44893543269E+03  0.00000000000E+00 0. -1.
          2   -1    0    0  501    0  0.00000000000E+00 -0.00000000000E+00 -0.26272108051E+04  0.26272108051E+04  0.00000000000E+00 0.  1.
    2000013    1    1    2    0    0  0.18772068705E+03 -0.48632296224E+03 -0.98702141083E+03  0.14657627180E+04  0.95000000000E+03 0.  0.
   -2000013    1    1    2    0    0 -0.18772068705E+03  0.48632296224E+03 -0.11912539616E+04  0.16103835199E+04  0.95000000000E+03 0.  0.
<mgrwt>
<rscale>  0 0.21720479E+04</rscale>
<asrwt>0</asrwt>
<pdfrwt beam="2">  1        2 0.40418629E+00 0.21720479E+04</pdfrwt>
<pdfrwt beam="1">  1       -2 0.69066988E-01 0.21720479E+04</pdfrwt>
<totfact> 0.51453936E+00</totfact>
</mgrwt>
</event>
<event>
 4    1  0.1323225E-008  0.2217988E+04  0.7816531E-02  0.8510978E-01
         -4   -1    0    0    0  501 -0.00000000000E+00  0.00000000000E+00  0.12979760379E+04  0.12979760379E+04  0.00000000000E+00 0. -1.
          4   -1    0    0  501    0  0.00000000000E+00 -0.00000000000E+00 -0.94752742070E+03  0.94752742070E+03  0.00000000000E+00 0.  1.
    2000013    1    1    2    0    0 -0.41170096929E+03  0.14095719635E+03  0.55131799266E+03  0.11814474801E+04  0.95000000000E+03 0.  0.
   -2000013    1    1    2    0    0  0.41170096929E+03 -0.14095719635E+03 -0.20086937544E+03  0.10640559785E+04  0.95000000000E+03 0.  0.
<mgrwt>
<rscale>  0 0.22179882E+04</rscale>
<asrwt>0</asrwt>
<pdfrwt beam="2">  1        4 0.14577345E+00 0.22179882E+04</pdfrwt>
<pdfrwt beam="1">  1       -4 0.19968862E+00 0.22179882E+04</pdfrwt>
<totfact> 0.77495042E-02</totfact>
</mgrwt>
</event>
<event>
 4    1  0.1323225E-008  0.2894111E+04  0.7816531E-02  0.8274632E-01
          2   -1    0    0  501    0  0.00000000000E+00  0.00000000000E+00  0.12725775457E+04  0.12725775457E+04  0.00000000000E+00 0. -1.
         -2   -1    0    0    0  501 -0.00000000000E+00 -0.00000000000E+00 -0.16454549506E+04  0.16454549506E+04  0.00000000000E+00 0.  1.
    2000013    1    1    2    0    0 -0.10091263642E+04 -0.35549063305E+03  0.31587921360E+02  0.14311559684E+04  0.95000000000E+03 0.  0.
   -2000013    1    1    2    0    0  0.10091263642E+04  0.35549063305E+03 -0.40446532625E+03  0.14868765279E+04  0.95000000000E+03 0.  0.
<mgrwt>
<rscale>  0 0.28941106E+04</rscale>
<asrwt>0</asrwt>
<pdfrwt beam="1">  1        2 0.19578116E+00 0.28941106E+04</pdfrwt>
<pdfrwt beam="2">  1       -2 0.25314691E+00 0.28941106E+04</pdfrwt>
<totfact> 0.91037794E-01</totfact>
</mgrwt>
</event>
<event>
 4    1  0.1323225E-008  0.2216943E+04  0.7816531E-02  0.8511409E-01
         -2   -1    0    0    0  501 -0.00000000000E+00  0.00000000000E+00  0.49266037977E+03  0.49266037977E+03  0.00000000000E+00 0. -1.
          2   -1    0    0  501    0  0.00000000000E+00 -0.00000000000E+00 -0.24940286807E+04  0.24940286807E+04  0.00000000000E+00 0.  1.
    2000013    1    1    2    0    0 -0.37903405142E+02 -0.43515145663E+03 -0.14964423643E+04  0.18255501110E+04  0.95000000000E+03 0.  0.
   -2000013    1    1    2    0    0  0.37903405142E+02  0.43515145663E+03 -0.50492593663E+03  0.11611389494E+04  0.95000000000E+03 0.  0.
<mgrwt>
<rscale>  0 0.22169430E+04</rscale>
<asrwt>0</asrwt>
<pdfrwt beam="2">  1        2 0.38369672E+00 0.22169430E+04</pdfrwt>
<pdfrwt beam="1">  1       -2 0.75793905E-01 0.22169430E+04</pdfrwt>
<totfact> 0.49964497E+00</totfact>
</mgrwt>
</event>
<event>
 4    1  0.1323225E-008  0.2536310E+04  0.7816531E-02  0.8390163E-01
         -2   -1    0    0    0  501 -0.00000000000E+00  0.00000000000E+00  0.64376690081E+03  0.64376690081E+03  0.00000000000E+00 0. -1.
          2   -1    0    0  501    0  0.00000000000E+00 -0.00000000000E+00 -0.24981365802E+04  0.24981365802E+04  0.00000000000E+00 0.  1.
    2000013    1    1    2    0    0 -0.42599259058E+03  0.65326180259E+03 -0.13139844261E+04  0.17992431025E+04  0.95000000000E+03 0.  0.
   -2000013    1    1    2    0    0  0.42599259058E+03 -0.65326180259E+03 -0.54038525327E+03  0.13426603785E+04  0.95000000000E+03 0.  0.
<mgrwt>
<rscale>  0 0.25363104E+04</rscale>
<asrwt>0</asrwt>
<pdfrwt beam="2">  1        2 0.38432871E+00 0.25363104E+04</pdfrwt>
<pdfrwt beam="1">  1       -2 0.99041061E-01 0.25363104E+04</pdfrwt>
<totfact> 0.26218902E+00</totfact>
</mgrwt>
</event>
<event>
 4    1  0.1323225E-008  0.2075083E+04  0.7816531E-02  0.8572299E-01
         -2   -1    0    0    0  501 -0.00000000000E+00  0.00000000000E+00  0.27166355543E+04  0.27166355543E+04  0.00000000000E+00 0. -1.
          2   -1    0    0  501    0  0.00000000000E+00 -0.00000000000E+00 -0.39625952720E+03  0.39625952720E+03  0.00000000000E+00 0.  1.
    2000013    1    1    2    0    0 -0.34798472642E+03  0.22443664605E+03  0.10847694658E+04  0.15002299730E+04  0.95000000000E+03 0.  0.
   -2000013    1    1    2    0    0  0.34798472642E+03 -0.22443664605E+03  0.12356065613E+04  0.16126651085E+04  0.95000000000E+03 0.  0.
<mgrwt>
<rscale>  0 0.20750833E+04</rscale>
<asrwt>0</asrwt>
<pdfrwt beam="2">  1        2 0.60963006E-01 0.20750833E+04</pdfrwt>
<pdfrwt beam="1">  1       -2 0.41794392E+00 0.20750833E+04</pdfrwt>
<totfact> 0.42074579E-01</totfact>
</mgrwt>
</event>
<event>
 4    1  0.1323225E-008  0.2086234E+04  0.7816531E-02  0.8567332E-01
         -2   -1    0    0    0  501 -0.00000000000E+00  0.00000000000E+00  0.55830530772E+03  0.55830530772E+03  0.00000000000E+00 0. -1.
          2   -1    0    0  501    0  0.00000000000E+00 -0.00000000000E+00 -0.19489206225E+04  0.19489206225E+04  0.00000000000E+00 0.  1.
    2000013    1    1    2    0    0 -0.31258945261E+03  0.29637458049E+03 -0.68745725493E+03  0.12492587943E+04  0.95000000000E+03 0.  0.
   -2000013    1    1    2    0    0  0.31258945261E+03 -0.29637458049E+03 -0.70315805985E+03  0.12579671359E+04  0.95000000000E+03 0.  0.
<mgrwt>
<rscale>  0 0.20862337E+04</rscale>
<asrwt>0</asrwt>
<pdfrwt beam="2">  1        2 0.29983394E+00 0.20862337E+04</pdfrwt>
<pdfrwt beam="1">  1       -2 0.85893125E-01 0.20862337E+04</pdfrwt>
<totfact> 0.77415588E+00</totfact>
</mgrwt>
</event>
<event>
 4    1  0.1323225E-008  0.2106225E+04  0.7816531E-02  0.8558506E-01
          2   -1    0    0  501    0  0.00000000000E+00  0.00000000000E+00  0.11405233060E+04  0.11405233060E+04  0.00000000000E+00 0.  1.
         -2   -1    0    0    0  501 -0.00000000000E+00 -0.00000000000E+00 -0.97240102510E+03  0.97240102510E+03  0.00000000000E+00 0. -1.
    2000013    1    1    2    0    0 -0.19219139117E+03 -0.34971405451E+03 -0.13413603482E+03  0.10391005373E+04  0.95000000000E+03 0.  0.
   -2000013    1    1    2    0    0  0.19219139117E+03  0.34971405451E+03  0.30225831575E+03  0.10738237938E+04  0.95000000000E+03 0.  0.
<mgrwt>
<rscale>  0 0.21062251E+04</rscale>
<asrwt>0</asrwt>
<pdfrwt beam="1">  1        2 0.17546512E+00 0.21062251E+04</pdfrwt>
<pdfrwt beam="2">  1       -2 0.14960016E+00 0.21062251E+04</pdfrwt>
<totfact> 0.57183653E+00</totfact>
</mgrwt>
</event>
<event>
 4    1  0.1323225E-008  0.1932536E+04  0.7816531E-02  0.8638829E-01
          2   -1    0    0  501    0  0.00000000000E+00  0.00000000000E+00  0.18816682597E+04  0.18816682597E+04  0.00000000000E+00 0.  1.
         -2   -1    0    0    0  501 -0.00000000000E+00 -0.00000000000E+00 -0.49619470451E+03  0.49619470451E+03  0.00000000000E+00 0. -1.
    2000013    1    1    2    0    0  0.14174353621E+03  0.59868134067E+02  0.79928436270E+03  0.12510119568E+04  0.95000000000E+03 0.  0.
   -2000013    1    1    2    0    0 -0.14174353621E+03 -0.59868134067E+02  0.58618919246E+03  0.11268510074E+04  0.95000000000E+03 0.  0.
<mgrwt>
<rscale>  0 0.19325360E+04</rscale>
<asrwt>0</asrwt>
<pdfrwt beam="1">  1        2 0.28948742E+00 0.19325360E+04</pdfrwt>
<pdfrwt beam="2">  1       -2 0.76337648E-01 0.19325360E+04</pdfrwt>
<totfact> 0.11147080E+01</totfact>
</mgrwt>
</event>
<event>
 4    1  0.1323225E-008  0.2722438E+04  0.7816531E-02  0.8327761E-01
          2   -1    0    0  501    0  0.00000000000E+00  0.00000000000E+00  0.23788976219E+04  0.23788976219E+04  0.00000000000E+00 0.  1.
         -2   -1    0    0    0  501 -0.00000000000E+00 -0.00000000000E+00 -0.77889739509E+03  0.77889739509E+03  0.00000000000E+00 0. -1.
    2000013    1    1    2    0    0 -0.52859679422E+03 -0.78203322252E+03  0.10827591447E+04  0.17221666288E+04  0.95000000000E+03 0.  0.
   -2000013    1    1    2    0    0  0.52859679422E+03  0.78203322252E+03  0.51724108213E+03  0.14356283882E+04  0.95000000000E+03 0.  0.
<mgrwt>
<rscale>  0 0.27224380E+04</rscale>
<asrwt>0</asrwt>
<pdfrwt beam="1">  1        2 0.36598424E+00 0.27224380E+04</pdfrwt>
<pdfrwt beam="2">  1       -2 0.11983037E+00 0.27224380E+04</pdfrwt>
<totfact> 0.19071290E+00</totfact>
</mgrwt>
</event>
<event>
 4    1  0.1323225E-008  0.2806592E+04  0.7816531E-02  0.8301225E-01
         -2   -1    0    0    0  501 -0.00000000000E+00  0.00000000000E+00  0.84875780857E+03  0.84875780857E+03  0.00000000000E+00 0. -1.
          2   -1    0    0  501    0  0.00000000000E+00 -0.00000000000E+00 -0.23201438685E+04  0.23201438685E+04  0.00000000000E+00 0.  1.
    2000013    1    1    2    0    0  0.62623694891E+03 -0.79524255328E+03 -0.50386647038E+03  0.14768090109E+04  0.95000000000E+03 0.  0.
   -2000013    1    1    2    0    0 -0.62623694891E+03  0.79524255328E+03 -0.96751958954E+03  0.16920926662E+04  0.95000000000E+03 0.  0.
<mgrwt>
<rscale>  0 0.28065924E+04</rscale>
<asrwt>0</asrwt>
<pdfrwt beam="2">  1        2 0.35694521E+00 0.28065924E+04</pdfrwt>
<pdfrwt beam="1">  1       -2 0.13057812E+00 0.28065924E+04</pdfrwt>
<totfact> 0.16489584E+00</totfact>
</mgrwt>
</event>
<event>
 4    1  0.1323225E-008  0.2426872E+04  0.7816531E-02  0.8429511E-01
         -2   -1    0    0    0  501 -0.00000000000E+00  0.00000000000E+00  0.10950656516E+04  0.10950656516E+04  0.00000000000E+00 0. -1.
          2   -1    0    0  501    0  0.00000000000E+00 -0.00000000000E+00 -0.13446018869E+04  0.13446018869E+04  0.00000000000E+00 0.  1.
    2000013    1    1    2    0    0 -0.60995992168E+03  0.30733175365E+03 -0.44805879479E+03  0.12529008726E+04  0.95000000000E+03 0.  0.
   -2000013    1    1    2    0    0  0.60995992168E+03 -0.30733175365E+03  0.19852255944E+03  0.11867666660E+04  0.95000000000E+03 0.  0.
<mgrwt>
<rscale>  0 0.24268723E+04</rscale>
<asrwt>0</asrwt>
<pdfrwt beam="2">  1        2 0.20686183E+00 0.24268723E+04</pdfrwt>
<pdfrwt beam="1">  1       -2 0.16847164E+00 0.24268723E+04</pdfrwt>
<totfact> 0.30543012E+00</totfact>
</mgrwt>
</event>
<event>
 4    1  0.1323225E-008  0.3702648E+04  0.7816531E-02  0.8067375E-01
          2   -1    0    0  501    0  0.00000000000E+00  0.00000000000E+00  0.15227139660E+04  0.15227139660E+04  0.00000000000E+00 0.  1.
         -2   -1    0    0    0  501 -0.00000000000E+00 -0.00000000000E+00 -0.22508498174E+04  0.22508498174E+04  0.00000000000E+00 0. -1.
    2000013    1    1    2    0    0  0.11720797892E+04  0.53856600357E+03  0.58164655101E+03  0.17042995871E+04  0.95000000000E+03 0.  0.
   -2000013    1    1    2    0    0 -0.11720797892E+04 -0.53856600357E+03 -0.13097824024E+04  0.20692641963E+04  0.95000000000E+03 0.  0.
<mgrwt>
<rscale>  0 0.37026479E+04</rscale>
<asrwt>0</asrwt>
<pdfrwt beam="1">  1        2 0.23426369E+00 0.37026479E+04</pdfrwt>
<pdfrwt beam="2">  1       -2 0.34628459E+00 0.37026479E+04</pdfrwt>
<totfact> 0.16349697E-01</totfact>
</mgrwt>
</event>
<event>
 4    1  0.1323225E-008  0.3291433E+04  0.7816531E-02  0.8165079E-01
         -2   -1    0    0    0  501 -0.00000000000E+00  0.00000000000E+00  0.10446406907E+04  0.10446406907E+04  0.00000000000E+00 0. -1.
          2   -1    0    0  501    0  0.00000000000E+00 -0.00000000000E+00 -0.25926448643E+04  0.25926448643E+04  0.00000000000E+00 0.  1.
    2000013    1    1    2    0    0 -0.42400265976E+03 -0.10428153740E+04  0.37036996538E+02  0.14734700197E+04  0.95000000000E+03 0.  0.
   -2000013    1    1    2    0    0  0.42400265976E+03  0.10428153740E+04 -0.15850411701E+04  0.21638155353E+04  0.95000000000E+03 0.  0.
<mgrwt>
<rscale>  0 0.32914327E+04</rscale>
<asrwt>0</asrwt>
<pdfrwt beam="2">  1        2 0.39886844E+00 0.32914327E+04</pdfrwt>
<pdfrwt beam="1">  1       -2 0.16071395E+00 0.32914327E+04</pdfrwt>
<totfact> 0.63911913E-01</totfact>
</mgrwt>
</event>
<event>
 4    1  0.1323225E-008  0.2664170E+04  0.7816531E-02  0.8346725E-01
          2   -1    0    0  501    0  0.00000000000E+00  0.00000000000E+00  0.18358792410E+04  0.18358792410E+04  0.00000000000E+00 0.  1.
         -2   -1    0    0    0  501 -0.00000000000E+00 -0.00000000000E+00 -0.96653992472E+03  0.96653992472E+03  0.00000000000E+00 0. -1.
    2000013    1    1    2    0    0 -0.73364853103E+03 -0.51317837515E+03  0.71368561030E+03  0.14877632077E+04  0.95000000000E+03 0.  0.
   -2000013    1    1    2    0    0  0.73364853103E+03  0.51317837515E+03  0.15565370597E+03  0.13146559580E+04  0.95000000000E+03 0.  0.
<mgrwt>
<rscale>  0 0.26641701E+04</rscale>
<asrwt>0</asrwt>
<pdfrwt beam="1">  1        2 0.28244296E+00 0.26641701E+04</pdfrwt>
<pdfrwt beam="2">  1       -2 0.14869845E+00 0.26641701E+04</pdfrwt>
<totfact> 0.22238899E+00</totfact>
</mgrwt>
</event>
<event>
 4    1  0.1323225E-008  0.3375320E+04  0.7816531E-02  0.8143990E-01
         -2   -1    0    0    0  501 -0.00000000000E+00  0.00000000000E+00  0.12002890933E+04  0.12002890933E+04  0.00000000000E+00 0. -1.
          2   -1    0    0  501    0  0.00000000000E+00 -0.00000000000E+00 -0.23729254977E+04  0.23729254977E+04  0.00000000000E+00 0.  1.
    2000013    1    1    2    0    0 -0.48714735878E+03 -0.10723076899E+04 -0.13774910319E+04  0.20462497095E+04  0.95000000000E+03 0.  0.
   -2000013    1    1    2    0    0  0.48714735878E+03  0.10723076899E+04  0.20485462745E+03  0.15269648815E+04  0.95000000000E+03 0.  0.
<mgrwt>
<rscale>  0 0.33753202E+04</rscale>
<asrwt>0</asrwt>
<pdfrwt beam="2">  1        2 0.36506546E+00 0.33753202E+04</pdfrwt>
<pdfrwt beam="1">  1       -2 0.18465986E+00 0.33753202E+04</pdfrwt>
<totfact> 0.57606068E-01</totfact>
</mgrwt>
</event>
<event>
 4    1  0.1323225E-008  0.2289219E+04  0.7816531E-02  0.8482184E-01
          2   -1    0    0  501    0  0.00000000000E+00  0.00000000000E+00  0.43502460916E+04  0.43502460916E+04  0.00000000000E+00 0.  1.
         -2   -1    0    0    0  501 -0.00000000000E+00 -0.00000000000E+00 -0.30116240382E+03  0.30116240382E+03  0.00000000000E+00 0. -1.
    2000013    1    1    2    0    0 -0.48169933709E+03 -0.38961365539E+03  0.23379880596E+04  0.25985613748E+04  0.95000000000E+03 0.  0.
   -2000013    1    1    2    0    0  0.48169933709E+03  0.38961365539E+03  0.17110956282E+04  0.20528471207E+04  0.95000000000E+03 0.  0.
<mgrwt>
<rscale>  0 0.22892187E+04</rscale>
<asrwt>0</asrwt>
<pdfrwt beam="1">  1        2 0.66926858E+00 0.22892187E+04</pdfrwt>
<pdfrwt beam="2">  1       -2 0.46332681E-01 0.22892187E+04</pdfrwt>
<totfact> 0.69002700E-01</totfact>
</mgrwt>
</event>
<event>
 4    1  0.1323225E-008  0.2486119E+04  0.7816531E-02  0.8407947E-01
         -2   -1    0    0    0  501 -0.00000000000E+00  0.00000000000E+00  0.58343506767E+03  0.58343506767E+03  0.00000000000E+00 0. -1.
          2   -1    0    0  501    0  0.00000000000E+00 -0.00000000000E+00 -0.26484468325E+04  0.26484468325E+04  0.00000000000E+00 0.  1.
    2000013    1    1    2    0    0  0.18998702175E+03 -0.60093552063E+03 -0.16765862294E+04  0.20274762522E+04  0.95000000000E+03 0.  0.
   -2000013    1    1    2    0    0 -0.18998702175E+03  0.60093552063E+03 -0.38842553542E+03  0.12044056480E+04  0.95000000000E+03 0.  0.
<mgrwt>
<rscale>  0 0.24861189E+04</rscale>
<asrwt>0</asrwt>
<pdfrwt beam="2">  1        2 0.40745336E+00 0.24861189E+04</pdfrwt>
<pdfrwt beam="1">  1       -2 0.89759240E-01 0.24861189E+04</pdfrwt>
<totfact> 0.27051902E+00</totfact>
</mgrwt>
</event>
<event>
 4    1  0.1323225E-008  0.2215377E+04  0.7816531E-02  0.8512055E-01
         -1   -1    0    0    0  501 -0.00000000000E+00  0.00000000000E+00  0.72421932269E+03  0.72421932269E+03  0.00000000000E+00 0.  1.
          1   -1    0    0  501    0  0.00000000000E+00 -0.00000000000E+00 -0.16942016631E+04  0.16942016631E+04  0.00000000000E+00 0. -1.
    2000013    1    1    2    0    0  0.14699598540E+03 -0.51884733147E+03 -0.28469988628E+03  0.11288774948E+04  0.95000000000E+03 0.  0.
   -2000013    1    1    2    0    0 -0.14699598540E+03  0.51884733147E+03 -0.68528245412E+03  0.12895434909E+04  0.95000000000E+03 0.  0.
<mgrwt>
<rscale>  0 0.22153768E+04</rscale>
<asrwt>0</asrwt>
<pdfrwt beam="2">  1        1 0.26064641E+00 0.22153768E+04</pdfrwt>
<pdfrwt beam="1">  1       -1 0.11141836E+00 0.22153768E+04</pdfrwt>
<totfact> 0.32417407E+00</totfact>
</mgrwt>
</event>
<event>
 4    1  0.1323225E-008  0.2031717E+04  0.7816531E-02  0.8591934E-01
          2   -1    0    0  501    0  0.00000000000E+00  0.00000000000E+00  0.32462713012E+04  0.32462713012E+04  0.00000000000E+00 0.  1.
         -2   -1    0    0    0  501 -0.00000000000E+00 -0.00000000000E+00 -0.31789351993E+03  0.31789351993E+03  0.00000000000E+00 0. -1.
    2000013    1    1    2    0    0 -0.17336833163E+03 -0.14849559216E+03  0.97626078666E+03  0.13811924713E+04  0.95000000000E+03 0.  0.
   -2000013    1    1    2    0    0  0.17336833163E+03  0.14849559216E+03  0.19521169946E+04  0.21829723498E+04  0.95000000000E+03 0.  0.
<mgrwt>
<rscale>  0 0.20317171E+04</rscale>
<asrwt>0</asrwt>
<pdfrwt beam="1">  1        2 0.49942633E+00 0.20317171E+04</pdfrwt>
<pdfrwt beam="2">  1       -2 0.48906698E-01 0.20317171E+04</pdfrwt>
<totfact> 0.44515180E+00</totfact>
</mgrwt>
</event>
<event>
 4    1  0.1323225E-008  0.4466364E+04  0.7816531E-02  0.7916552E-01
         -2   -1    0    0    0  501 -0.00000000000E+00  0.00000000000E+00  0.14063248182E+04  0.14063248182E+04  0.00000000000E+00 0. -1.
          2   -1    0    0  501    0  0.00000000000E+00 -0.00000000000E+00 -0.35461947326E+04  0.35461947326E+04  0.00000000000E+00 0.  1.
    2000013    1    1    2    0    0  0.19234176596E+04 -0.60583588270E+03 -0.92104735203E+03  0.24119288619E+04  0.95000000000E+03 0.  0.
   -2000013    1    1    2    0    0 -0.19234176596E+04  0.60583588270E+03 -0.12188225623E+04  0.25405906889E+04  0.95000000000E+03 0.  0.
<mgrwt>
<rscale>  0 0.44663639E+04</rscale>
<asrwt>0</asrwt>
<pdfrwt beam="2">  1        2 0.54556842E+00 0.44663639E+04</pdfrwt>
<pdfrwt beam="1">  1       -2 0.21635767E+00 0.44663639E+04</pdfrwt>
<totfact> 0.59617393E-02</totfact>
</mgrwt>
</event>
<event>
 4    1  0.1323225E-008  0.2063134E+04  0.7816531E-02  0.8577659E-01
          2   -1    0    0  501    0  0.00000000000E+00  0.00000000000E+00  0.30669743747E+04  0.30669743747E+04  0.00000000000E+00 0.  1.
         -2   -1    0    0    0  501 -0.00000000000E+00 -0.00000000000E+00 -0.34696409399E+03  0.34696409399E+03  0.00000000000E+00 0. -1.
    2000013    1    1    2    0    0 -0.31302853381E+03  0.11921243378E+03  0.99210468418E+03  0.14138494162E+04  0.95000000000E+03 0.  0.
   -2000013    1    1    2    0    0  0.31302853381E+03 -0.11921243378E+03  0.17279055965E+04  0.20000890525E+04  0.95000000000E+03 0.  0.
<mgrwt>
<rscale>  0 0.20631335E+04</rscale>
<asrwt>0</asrwt>
<pdfrwt beam="1">  1        2 0.47184219E+00 0.20631335E+04</pdfrwt>
<pdfrwt beam="2">  1       -2 0.53379093E-01 0.20631335E+04</pdfrwt>
<totfact> 0.48412738E+00</totfact>
</mgrwt>
</event>
<event>
 4    1  0.1323225E-008  0.3088741E+04  0.7816531E-02  0.8218835E-01
         -1   -1    0    0    0  501 -0.00000000000E+00  0.00000000000E+00  0.16092161392E+04  0.16092161392E+04  0.00000000000E+00 0. -1.
          1   -1    0    0  501    0  0.00000000000E+00 -0.00000000000E+00 -0.14821379789E+04  0.14821379789E+04  0.00000000000E+00 0.  1.
    2000013    1    1    2    0    0  0.25890601477E+03 -0.55035503955E+03 -0.99217904141E+03  0.15022790168E+04  0.95000000000E+03 0.  0.
   -2000013    1    1    2    0    0 -0.25890601477E+03  0.55035503955E+03  0.11192572017E+04  0.15890751013E+04  0.95000000000E+03 0.  0.
<mgrwt>
<rscale>  0 0.30887411E+04</rscale>
<asrwt>0</asrwt>
<pdfrwt beam="2">  1        1 0.22802123E+00 0.30887411E+04</pdfrwt>
<pdfrwt beam="1">  1       -1 0.24757171E+00 0.30887411E+04</pdfrwt>
<totfact> 0.41115284E-01</totfact>
</mgrwt>
</event>
<event>
 4    1  0.1323225E-008  0.2930430E+04  0.7816531E-02  0.8263881E-01
         -2   -1    0    0    0  501 -0.00000000000E+00  0.00000000000E+00  0.15528705305E+04  0.15528705305E+04  0.00000000000E+00 0. -1.
          2   -1    0    0  501    0  0.00000000000E+00 -0.00000000000E+00 -0.13825069970E+04  0.13825069970E+04  0.00000000000E+00 0.  1.
    2000013    1    1    2    0    0 -0.85104556175E+03 -0.14032496641E+03 -0.62339139714E+03  0.14265645721E+04  0.95000000000E+03 0.  0.
   -2000013    1    1    2    0    0  0.85104556175E+03  0.14032496641E+03  0.79375493063E+03  0.15088129554E+04  0.95000000000E+03 0.  0.
<mgrwt>
<rscale>  0 0.29304296E+04</rscale>
<asrwt>0</asrwt>
<pdfrwt beam="2">  1        2 0.21269338E+00 0.29304296E+04</pdfrwt>
<pdfrwt beam="1">  1       -2 0.23890316E+00 0.29304296E+04</pdfrwt>
<totfact> 0.95933934E-01</totfact>
</mgrwt>
</event>
<event>
 4    1  0.1323225E-008  0.3541735E+04  0.7816531E-02  0.8103970E-01
          2   -1    0    0  501    0  0.00000000000E+00  0.00000000000E+00  0.20687610787E+04  0.20687610787E+04  0.00000000000E+00 0.  1.
         -2   -1    0    0    0  501 -0.00000000000E+00 -0.00000000000E+00 -0.15158693936E+04  0.15158693936E+04  0.00000000000E+00 0. -1.
    2000013    1    1    2    0    0 -0.87587158812E+03 -0.11857395545E+04  0.52506761833E+03  0.18306625396E+04  0.95000000000E+03 0.  0.
   -2000013    1    1    2    0    0  0.87587158812E+03  0.11857395545E+04  0.27824066804E+02  0.17539679326E+04  0.95000000000E+03 0.  0.
<mgrwt>
<rscale>  0 0.35417349E+04</rscale>
<asrwt>0</asrwt>
<pdfrwt beam="1">  1        2 0.31827094E+00 0.35417349E+04</pdfrwt>
<pdfrwt beam="2">  1       -2 0.23321067E+00 0.35417349E+04</pdfrwt>
<totfact> 0.40896132E-01</totfact>
</mgrwt>
</event>
<event>
 4    1  0.1323225E-008  0.2378685E+04  0.7816531E-02  0.8447527E-01
          2   -1    0    0  501    0  0.00000000000E+00  0.00000000000E+00  0.24895550176E+04  0.24895550176E+04  0.00000000000E+00 0.  1.
         -2   -1    0    0    0  501 -0.00000000000E+00 -0.00000000000E+00 -0.56818826711E+03  0.56818826711E+03  0.00000000000E+00 0. -1.
    2000013    1    1    2    0    0 -0.55150470101E+03 -0.36758614252E+02  0.37649516825E+03  0.11617905330E+04  0.95000000000E+03 0.  0.
   -2000013    1    1    2    0    0  0.55150470101E+03  0.36758614252E+02  0.15448715823E+04  0.18959527517E+04  0.95000000000E+03 0.  0.
<mgrwt>
<rscale>  0 0.23786853E+04</rscale>
<asrwt>0</asrwt>
<pdfrwt beam="1">  1        2 0.38300846E+00 0.23786853E+04</pdfrwt>
<pdfrwt beam="2">  1       -2 0.87413581E-01 0.23786853E+04</pdfrwt>
<totfact> 0.35934116E+00</totfact>
</mgrwt>
</event>
<event>
 4    1  0.1323225E-008  0.2590700E+04  0.7816531E-02  0.8371367E-01
          2   -1    0    0  501    0  0.00000000000E+00  0.00000000000E+00  0.16894157471E+04  0.16894157471E+04  0.00000000000E+00 0.  1.
         -2   -1    0    0    0  501 -0.00000000000E+00 -0.00000000000E+00 -0.99320195420E+03  0.99320195420E+03  0.00000000000E+00 0. -1.
    2000013    1    1    2    0    0  0.77170046875E+02  0.71269119641E+03 -0.18145491998E+03  0.12038728527E+04  0.95000000000E+03 0.  0.
   -2000013    1    1    2    0    0 -0.77170046875E+02 -0.71269119641E+03  0.87766871290E+03  0.14787448486E+04  0.95000000000E+03 0.  0.
<mgrwt>
<rscale>  0 0.25906995E+04</rscale>
<asrwt>0</asrwt>
<pdfrwt beam="1">  1        2 0.25991012E+00 0.25906995E+04</pdfrwt>
<pdfrwt beam="2">  1       -2 0.15280030E+00 0.25906995E+04</pdfrwt>
<totfact> 0.25104186E+00</totfact>
</mgrwt>
</event>
<event>
 4    1  0.1323225E-008  0.2696240E+04  0.7816531E-02  0.8336226E-01
         -2   -1    0    0    0  501 -0.00000000000E+00  0.00000000000E+00  0.92714576392E+03  0.92714576392E+03  0.00000000000E+00 0. -1.
          2   -1    0    0  501    0  0.00000000000E+00 -0.00000000000E+00 -0.19602394604E+04  0.19602394604E+04  0.00000000000E+00 0.  1.
    2000013    1    1    2    0    0  0.84273159244E+03  0.44308597256E+03 -0.61473085505E+03  0.14788224167E+04  0.95000000000E+03 0.  0.
   -2000013    1    1    2    0    0 -0.84273159244E+03 -0.44308597256E+03 -0.41836284144E+03  0.14085628076E+04  0.95000000000E+03 0.  0.
<mgrwt>
<rscale>  0 0.26962401E+04</rscale>
<asrwt>0</asrwt>
<pdfrwt beam="2">  1        2 0.30157530E+00 0.26962401E+04</pdfrwt>
<pdfrwt beam="1">  1       -2 0.14263781E+00 0.26962401E+04</pdfrwt>
<totfact> 0.21107232E+00</totfact>
</mgrwt>
</event>
<event>
 4    1  0.1323225E-008  0.2472713E+04  0.7816531E-02  0.8412772E-01
          2   -1    0    0  501    0  0.00000000000E+00  0.00000000000E+00  0.26060682321E+04  0.26060682321E+04  0.00000000000E+00 0.  1.
         -2   -1    0    0    0  501 -0.00000000000E+00 -0.00000000000E+00 -0.58654519452E+03  0.58654519452E+03  0.00000000000E+00 0. -1.
    2000013    1    1    2    0    0 -0.30826435640E+03  0.70709448465E+03  0.78218665801E+03  0.14523517107E+04  0.95000000000E+03 0.  0.
   -2000013    1    1    2    0    0  0.30826435640E+03 -0.70709448465E+03  0.12373363796E+04  0.17402617159E+04  0.95000000000E+03 0.  0.
<mgrwt>
<rscale>  0 0.24727125E+04</rscale>
<asrwt>0</asrwt>
<pdfrwt beam="1">  1        2 0.40093357E+00 0.24727125E+04</pdfrwt>
<pdfrwt beam="2">  1       -2 0.90237724E-01 0.24727125E+04</pdfrwt>
<totfact> 0.28336228E+00</totfact>
</mgrwt>
</event>
<event>
 4    1  0.1323225E-008  0.2114147E+04  0.7816531E-02  0.8555037E-01
         -2   -1    0    0    0  501 -0.00000000000E+00  0.00000000000E+00  0.54601170840E+03  0.54601170840E+03  0.00000000000E+00 0. -1.
          2   -1    0    0  501    0  0.00000000000E+00 -0.00000000000E+00 -0.20464840328E+04  0.20464840328E+04  0.00000000000E+00 0.  1.
    2000013    1    1    2    0    0 -0.65713252832E+01  0.20165592219E+03 -0.23843422627E+03  0.10000295863E+04  0.95000000000E+03 0.  0.
   -2000013    1    1    2    0    0  0.65713252832E+01 -0.20165592219E+03 -0.12620380981E+04  0.15924661548E+04  0.95000000000E+03 0.  0.
<mgrwt>
<rscale>  0 0.21141469E+04</rscale>
<asrwt>0</asrwt>
<pdfrwt beam="2">  1        2 0.31484370E+00 0.21141469E+04</pdfrwt>
<pdfrwt beam="1">  1       -2 0.84001801E-01 0.21141469E+04</pdfrwt>
<totfact> 0.71707836E+00</totfact>
</mgrwt>
</event>
<event>
 4    1  0.1323225E-008  0.3485289E+04  0.7816531E-02  0.8117285E-01
         -2   -1    0    0    0  501 -0.00000000000E+00  0.00000000000E+00  0.12760244624E+04  0.12760244624E+04  0.00000000000E+00 0. -1.
          2   -1    0    0  501    0  0.00000000000E+00 -0.00000000000E+00 -0.23798992005E+04  0.23798992005E+04  0.00000000000E+00 0.  1.
    2000013    1    1    2    0    0  0.11002376745E+04 -0.95088993324E+03 -0.40510192857E+03  0.17836261318E+04  0.95000000000E+03 0.  0.
   -2000013    1    1    2    0    0 -0.11002376745E+04  0.95088993324E+03 -0.69877280946E+03  0.18722975311E+04  0.95000000000E+03 0.  0.
<mgrwt>
<rscale>  0 0.34852889E+04</rscale>
<asrwt>0</asrwt>
<pdfrwt beam="2">  1        2 0.36613834E+00 0.34852889E+04</pdfrwt>
<pdfrwt beam="1">  1       -2 0.19631146E+00 0.34852889E+04</pdfrwt>
<totfact> 0.47241813E-01</totfact>
</mgrwt>
</event>
<event>
 4    1  0.1323225E-008  0.2164183E+04  0.7816531E-02  0.8533485E-01
         -2   -1    0    0    0  501 -0.00000000000E+00  0.00000000000E+00  0.98541877310E+03  0.98541877310E+03  0.00000000000E+00 0. -1.
          2   -1    0    0  501    0  0.00000000000E+00 -0.00000000000E+00 -0.11882483900E+04  0.11882483900E+04  0.00000000000E+00 0.  1.
    2000013    1    1    2    0    0  0.47544267455E+03  0.17157854377E+03 -0.21565566852E+03  0.10974936450E+04  0.95000000000E+03 0.  0.
   -2000013    1    1    2    0    0 -0.47544267455E+03 -0.17157854377E+03  0.12826051615E+02  0.10761735181E+04  0.95000000000E+03 0.  0.
<mgrwt>
<rscale>  0 0.21641832E+04</rscale>
<asrwt>0</asrwt>
<pdfrwt beam="2">  1        2 0.18280744E+00 0.21641832E+04</pdfrwt>
<pdfrwt beam="1">  1       -2 0.15160289E+00 0.21641832E+04</pdfrwt>
<totfact> 0.51405962E+00</totfact>
</mgrwt>
</event>
<event>
 4    1  0.1323225E-008  0.2820044E+04  0.7816531E-02  0.8297072E-01
         -2   -1    0    0    0  501 -0.00000000000E+00  0.00000000000E+00  0.82598912979E+03  0.82598912979E+03  0.00000000000E+00 0. -1.
          2   -1    0    0  501    0  0.00000000000E+00 -0.00000000000E+00 -0.24070081714E+04  0.24070081714E+04  0.00000000000E+00 0.  1.
    2000013    1    1    2    0    0 -0.65371416321E+03  0.91877690859E+02  0.13368971624E+03  0.11645413936E+04  0.95000000000E+03 0.  0.
   -2000013    1    1    2    0    0  0.65371416321E+03 -0.91877690859E+02 -0.17147087578E+04  0.20684559075E+04  0.95000000000E+03 0.  0.
<mgrwt>
<rscale>  0 0.28200444E+04</rscale>
<asrwt>0</asrwt>
<pdfrwt beam="2">  1        2 0.37030894E+00 0.28200444E+04</pdfrwt>
<pdfrwt beam="1">  1       -2 0.12707525E+00 0.28200444E+04</pdfrwt>
<totfact> 0.15738167E+00</totfact>
</mgrwt>
</event>
<event>
 4    1  0.1323225E-008  0.2425226E+04  0.7816531E-02  0.8430119E-01
         -2   -1    0    0    0  501 -0.00000000000E+00  0.00000000000E+00  0.12591898714E+04  0.12591898714E+04  0.00000000000E+00 0. -1.
          2   -1    0    0  501    0  0.00000000000E+00 -0.00000000000E+00 -0.11677586387E+04  0.11677586387E+04  0.00000000000E+00 0.  1.
    2000013    1    1    2    0    0 -0.21305272230E+03  0.60858732516E+03 -0.34463822265E+03  0.11987683260E+04  0.95000000000E+03 0.  0.
   -2000013    1    1    2    0    0  0.21305272230E+03 -0.60858732516E+03  0.43606945538E+03  0.12281801842E+04  0.95000000000E+03 0.  0.
<mgrwt>
<rscale>  0 0.24252256E+04</rscale>
<asrwt>0</asrwt>
<pdfrwt beam="2">  1        2 0.17965517E+00 0.24252256E+04</pdfrwt>
<pdfrwt beam="1">  1       -2 0.19372152E+00 0.24252256E+04</pdfrwt>
<totfact> 0.26011324E+00</totfact>
</mgrwt>
</event>
<event>
 4    1  0.1323225E-008  0.2269111E+04  0.7816531E-02  0.8490201E-01
         -2   -1    0    0    0  501 -0.00000000000E+00  0.00000000000E+00  0.85624671602E+03  0.85624671602E+03  0.00000000000E+00 0. -1.
          2   -1    0    0  501    0  0.00000000000E+00 -0.00000000000E+00 -0.15033244357E+04  0.15033244357E+04  0.00000000000E+00 0.  1.
    2000013    1    1    2    0    0  0.15337007173E+03  0.51274792973E+03 -0.64953932397E+03  0.12691864133E+04  0.95000000000E+03 0.  0.
   -2000013    1    1    2    0    0 -0.15337007173E+03 -0.51274792973E+03  0.24616042607E+01  0.10903847384E+04  0.95000000000E+03 0.  0.
<mgrwt>
<rscale>  0 0.22691114E+04</rscale>
<asrwt>0</asrwt>
<pdfrwt beam="2">  1        2 0.23128068E+00 0.22691114E+04</pdfrwt>
<pdfrwt beam="1">  1       -2 0.13173026E+00 0.22691114E+04</pdfrwt>
<totfact> 0.48252597E+00</totfact>
</mgrwt>
</event>
<event>
 4    1  0.1323225E-008  0.3292837E+04  0.7816531E-02  0.8164720E-01
          2   -1    0    0  501    0  0.00000000000E+00  0.00000000000E+00  0.20466331959E+04  0.20466331959E+04  0.00000000000E+00 0.  1.
         -2   -1    0    0    0  501 -0.00000000000E+00 -0.00000000000E+00 -0.13244650535E+04  0.13244650535E+04  0.00000000000E+00 0. -1.
    2000013    1    1    2    0    0  0.25750680086E+03 -0.12121382810E+04  0.89560929978E+03  0.18000569387E+04  0.95000000000E+03 0.  0.
   -2000013    1    1    2    0    0 -0.25750680086E+03  0.12121382810E+04 -0.17344115744E+03  0.15710413107E+04  0.95000000000E+03 0.  0.
<mgrwt>
<rscale>  0 0.32928372E+04</rscale>
<asrwt>0</asrwt>
<pdfrwt beam="1">  1        2 0.31486665E+00 0.32928372E+04</pdfrwt>
<pdfrwt beam="2">  1       -2 0.20376385E+00 0.32928372E+04</pdfrwt>
<totfact> 0.66095075E-01</totfact>
</mgrwt>
</event>
<event>
 4    1  0.1323225E-008  0.3337219E+04  0.7816531E-02  0.8153489E-01
          2   -1    0    0  501    0  0.00000000000E+00  0.00000000000E+00  0.13872051875E+04  0.13872051875E+04  0.00000000000E+00 0.  1.
         -2   -1    0    0    0  501 -0.00000000000E+00 -0.00000000000E+00 -0.20070981881E+04  0.20070981881E+04  0.00000000000E+00 0. -1.
    2000013    1    1    2    0    0  0.40013905556E+03 -0.13012749923E+04 -0.48113822332E+03  0.17284159972E+04  0.95000000000E+03 0.  0.
   -2000013    1    1    2    0    0 -0.40013905556E+03  0.13012749923E+04 -0.13875477724E+03  0.16658873784E+04  0.95000000000E+03 0.  0.
<mgrwt>
<rscale>  0 0.33372186E+04</rscale>
<asrwt>0</asrwt>
<pdfrwt beam="1">  1        2 0.21341618E+00 0.33372186E+04</pdfrwt>
<pdfrwt beam="2">  1       -2 0.30878434E+00 0.33372186E+04</pdfrwt>
<totfact> 0.34399118E-01</totfact>
</mgrwt>
</event>
<event>
 4    1  0.1323225E-008  0.2688262E+04  0.7816531E-02  0.8338824E-01
         -2   -1    0    0    0  501 -0.00000000000E+00  0.00000000000E+00  0.10223181911E+04  0.10223181911E+04  0.00000000000E+00 0. -1.
          2   -1    0    0  501    0  0.00000000000E+00 -0.00000000000E+00 -0.17672458142E+04  0.17672458142E+04  0.00000000000E+00 0.  1.
    2000013    1    1    2    0    0 -0.47376082211E+03 -0.62181532877E+03  0.18930911928E+03  0.12447656656E+04  0.95000000000E+03 0.  0.
   -2000013    1    1    2    0    0  0.47376082211E+03  0.62181532877E+03 -0.93423674232E+03  0.15447983397E+04  0.95000000000E+03 0.  0.
<mgrwt>
<rscale>  0 0.26882616E+04</rscale>
<asrwt>0</asrwt>
<pdfrwt beam="2">  1        2 0.27188397E+00 0.26882616E+04</pdfrwt>
<pdfrwt beam="1">  1       -2 0.15727972E+00 0.26882616E+04</pdfrwt>
<totfact> 0.20855539E+00</totfact>
</mgrwt>
</event>
<event>
 4    1  0.1323225E-008  0.2954855E+04  0.7816531E-02  0.8256741E-01
         -2   -1    0    0    0  501 -0.00000000000E+00  0.00000000000E+00  0.13433244408E+04  0.13433244408E+04  0.00000000000E+00 0. -1.
          2   -1    0    0  501    0  0.00000000000E+00 -0.00000000000E+00 -0.16249176905E+04  0.16249176905E+04  0.00000000000E+00 0.  1.
    2000013    1    1    2    0    0  0.11005583105E+03  0.11259184312E+04 -0.11862746911E+03  0.14820179068E+04  0.95000000000E+03 0.  0.
   -2000013    1    1    2    0    0 -0.11005583105E+03 -0.11259184312E+04 -0.16296578059E+03  0.14862242244E+04  0.95000000000E+03 0.  0.
<mgrwt>
<rscale>  0 0.29548547E+04</rscale>
<asrwt>0</asrwt>
<pdfrwt beam="2">  1        2 0.24998734E+00 0.29548547E+04</pdfrwt>
<pdfrwt beam="1">  1       -2 0.20666530E+00 0.29548547E+04</pdfrwt>
<totfact> 0.11166422E+00</totfact>
</mgrwt>
</event>
<event>
 4    1  0.1323225E-008  0.2782744E+04  0.7816531E-02  0.8308646E-01
          2   -1    0    0  501    0  0.00000000000E+00  0.00000000000E+00  0.57109160054E+03  0.57109160054E+03  0.00000000000E+00 0.  1.
         -2   -1    0    0    0  501 -0.00000000000E+00 -0.00000000000E+00 -0.33898524389E+04  0.33898524389E+04  0.00000000000E+00 0. -1.
    2000013    1    1    2    0    0  0.72817535996E+03 -0.70931521490E+03 -0.14193264787E+04  0.19875500200E+04  0.95000000000E+03 0.  0.
   -2000013    1    1    2    0    0 -0.72817535996E+03  0.70931521490E+03 -0.13994343597E+04  0.19733940195E+04  0.95000000000E+03 0.  0.
<mgrwt>
<rscale>  0 0.27827442E+04</rscale>
<asrwt>0</asrwt>
<pdfrwt beam="1">  1        2 0.87860246E-01 0.27827442E+04</pdfrwt>
<pdfrwt beam="2">  1       -2 0.52151576E+00 0.27827442E+04</pdfrwt>
<totfact> 0.55824665E-02</totfact>
</mgrwt>
</event>
<event>
 4    1  0.1323225E-008  0.2125781E+04  0.7816531E-02  0.8549971E-01
         -1   -1    0    0    0  501 -0.00000000000E+00  0.00000000000E+00  0.10678658910E+04  0.10678658910E+04  0.00000000000E+00 0. -1.
          1   -1    0    0  501    0  0.00000000000E+00 -0.00000000000E+00 -0.10579387149E+04  0.10579387149E+04  0.00000000000E+00 0.  1.
    2000013    1    1    2    0    0 -0.84247829974E+02 -0.43422173542E+03  0.18270256809E+03  0.10637323163E+04  0.95000000000E+03 0.  0.
   -2000013    1    1    2    0    0  0.84247829974E+02  0.43422173542E+03 -0.17277539200E+03  0.10620722897E+04  0.95000000000E+03 0.  0.
<mgrwt>
<rscale>  0 0.21257814E+04</rscale>
<asrwt>0</asrwt>
<pdfrwt beam="2">  1        1 0.16275980E+00 0.21257814E+04</pdfrwt>
<pdfrwt beam="1">  1       -1 0.16428706E+00 0.21257814E+04</pdfrwt>
<totfact> 0.33974924E+00</totfact>
</mgrwt>
</event>
<event>
 4    1  0.1323225E-008  0.2187878E+04  0.7816531E-02  0.8523491E-01
         -2   -1    0    0    0  501 -0.00000000000E+00  0.00000000000E+00  0.86144359528E+03  0.86144359528E+03  0.00000000000E+00 0. -1.
          2   -1    0    0  501    0  0.00000000000E+00 -0.00000000000E+00 -0.13891821125E+04  0.13891821125E+04  0.00000000000E+00 0.  1.
    2000013    1    1    2    0    0 -0.23530964061E+03 -0.42011030158E+03 -0.52070725819E+03  0.11855375748E+04  0.95000000000E+03 0.  0.
   -2000013    1    1    2    0    0  0.23530964061E+03  0.42011030158E+03 -0.70312590211E+01  0.10650881330E+04  0.95000000000E+03 0.  0.
<mgrwt>
<rscale>  0 0.21878775E+04</rscale>
<asrwt>0</asrwt>
<pdfrwt beam="2">  1        2 0.21372032E+00 0.21878775E+04</pdfrwt>
<pdfrwt beam="1">  1       -2 0.13252978E+00 0.21878775E+04</pdfrwt>
<totfact> 0.55551704E+00</totfact>
</mgrwt>
</event>
<event>
 4    1  0.1323225E-008  0.2390067E+04  0.7816531E-02  0.8443232E-01
         -2   -1    0    0    0  501 -0.00000000000E+00  0.00000000000E+00  0.98415114485E+03  0.98415114485E+03  0.00000000000E+00 0. -1.
          2   -1    0    0  501    0  0.00000000000E+00 -0.00000000000E+00 -0.14511029601E+04  0.14511029601E+04  0.00000000000E+00 0.  1.
    2000013    1    1    2    0    0 -0.64311888855E+03 -0.33465888879E+03 -0.23600535388E+03  0.12181120653E+04  0.95000000000E+03 0.  0.
   -2000013    1    1    2    0    0  0.64311888855E+03  0.33465888879E+03 -0.23094646142E+03  0.12171420397E+04  0.95000000000E+03 0.  0.
<mgrwt>
<rscale>  0 0.23900666E+04</rscale>
<asrwt>0</asrwt>
<pdfrwt beam="2">  1        2 0.22324661E+00 0.23900666E+04</pdfrwt>
<pdfrwt beam="1">  1       -2 0.15140787E+00 0.23900666E+04</pdfrwt>
<totfact> 0.35595623E+00</totfact>
</mgrwt>
</event>
<event>
 4    1  0.1323225E-008  0.3694267E+04  0.7816531E-02  0.8069233E-01
          2   -1    0    0  501    0  0.00000000000E+00  0.00000000000E+00  0.21967492407E+04  0.21967492407E+04  0.00000000000E+00 0.  1.
         -2   -1    0    0    0  501 -0.00000000000E+00 -0.00000000000E+00 -0.15531597617E+04  0.15531597617E+04  0.00000000000E+00 0. -1.
    2000013    1    1    2    0    0 -0.69178895068E+03  0.10354245801E+04 -0.67209863286E+03  0.17043745438E+04  0.95000000000E+03 0.  0.
   -2000013    1    1    2    0    0  0.69178895068E+03 -0.10354245801E+04  0.13156881119E+04  0.20455344586E+04  0.95000000000E+03 0.  0.
<mgrwt>
<rscale>  0 0.36942672E+04</rscale>
<asrwt>0</asrwt>
<pdfrwt beam="1">  1        2 0.33796142E+00 0.36942672E+04</pdfrwt>
<pdfrwt beam="2">  1       -2 0.23894765E+00 0.36942672E+04</pdfrwt>
<totfact> 0.31539350E-01</totfact>
</mgrwt>
</event>
<event>
 4    1  0.1323225E-008  0.2382472E+04  0.7816531E-02  0.8446095E-01
          4   -1    0    0  501    0  0.00000000000E+00  0.00000000000E+00  0.10479876312E+04  0.10479876312E+04  0.00000000000E+00 0.  1.
         -4   -1    0    0    0  501 -0.00000000000E+00 -0.00000000000E+00 -0.13540650096E+04  0.13540650096E+04  0.00000000000E+00 0. -1.
    2000013    1    1    2    0    0 -0.63648756552E+03 -0.18537385600E+03  0.12684593302E+03  0.11653625094E+04  0.95000000000E+03 0.  0.
   -2000013    1    1    2    0    0  0.63648756552E+03  0.18537385600E+03 -0.43292331143E+03  0.12366901314E+04  0.95000000000E+03 0.  0.
<mgrwt>
<rscale>  0 0.23824721E+04</rscale>
<asrwt>0</asrwt>
<pdfrwt beam="1">  1        4 0.16122887E+00 0.23824721E+04</pdfrwt>
<pdfrwt beam="2">  1       -4 0.20831769E+00 0.23824721E+04</pdfrwt>
<totfact> 0.51109282E-02</totfact>
</mgrwt>
</event>
<event>
 4    1  0.1323225E-008  0.2716793E+04  0.7816531E-02  0.8329577E-01
          2   -1    0    0  501    0  0.00000000000E+00  0.00000000000E+00  0.93321775429E+03  0.93321775429E+03  0.00000000000E+00 0.  1.
         -2   -1    0    0    0  501 -0.00000000000E+00 -0.00000000000E+00 -0.19772892794E+04  0.19772892794E+04  0.00000000000E+00 0. -1.
    2000013    1    1    2    0    0 -0.94005924801E+03 -0.22361870496E+03 -0.42026347252E+03  0.14187452560E+04  0.95000000000E+03 0.  0.
   -2000013    1    1    2    0    0  0.94005924801E+03  0.22361870496E+03 -0.62380805256E+03  0.14917617777E+04  0.95000000000E+03 0.  0.
<mgrwt>
<rscale>  0 0.27167933E+04</rscale>
<asrwt>0</asrwt>
<pdfrwt beam="1">  1        2 0.14357196E+00 0.27167933E+04</pdfrwt>
<pdfrwt beam="2">  1       -2 0.30419835E+00 0.27167933E+04</pdfrwt>
<totfact> 0.73100384E-01</totfact>
</mgrwt>
</event>
<event>
 4    1  0.1323225E-008  0.2063253E+04  0.7816531E-02  0.8577606E-01
         -1   -1    0    0    0  501 -0.00000000000E+00  0.00000000000E+00  0.64138709033E+03  0.64138709033E+03  0.00000000000E+00 0. -1.
          1   -1    0    0  501    0  0.00000000000E+00 -0.00000000000E+00 -0.16592992374E+04  0.16592992374E+04  0.00000000000E+00 0.  1.
    2000013    1    1    2    0    0 -0.29324303770E+03 -0.73806105256E+02 -0.80463934080E+03  0.12811648173E+04  0.95000000000E+03 0.  0.
   -2000013    1    1    2    0    0  0.29324303770E+03  0.73806105256E+02 -0.21327280626E+03  0.10195215104E+04  0.95000000000E+03 0.  0.
<mgrwt>
<rscale>  0 0.20632529E+04</rscale>
<asrwt>0</asrwt>
<pdfrwt beam="2">  1        1 0.25527681E+00 0.20632529E+04</pdfrwt>
<pdfrwt beam="1">  1       -1 0.98674937E-01 0.20632529E+04</pdfrwt>
<totfact> 0.46061088E+00</totfact>
</mgrwt>
</event>
<event>
 4    1  0.1323225E-008  0.2317693E+04  0.7816531E-02  0.8470978E-01
         -2   -1    0    0    0  501 -0.00000000000E+00  0.00000000000E+00  0.93844995182E+03  0.93844995182E+03  0.00000000000E+00 0. -1.
          2   -1    0    0  501    0  0.00000000000E+00 -0.00000000000E+00 -0.14310032804E+04  0.14310032804E+04  0.00000000000E+00 0.  1.
    2000013    1    1    2    0    0  0.18534860541E+03  0.31405949323E+03  0.32057664265E+03  0.10668912103E+04  0.95000000000E+03 0.  0.
   -2000013    1    1    2    0    0 -0.18534860541E+03 -0.31405949323E+03 -0.81312997122E+03  0.13025620219E+04  0.95000000000E+03 0.  0.
<mgrwt>
<rscale>  0 0.23176928E+04</rscale>
<asrwt>0</asrwt>
<pdfrwt beam="2">  1        2 0.22015435E+00 0.23176928E+04</pdfrwt>
<pdfrwt beam="1">  1       -2 0.14437692E+00 0.23176928E+04</pdfrwt>
<totfact> 0.41685965E+00</totfact>
</mgrwt>
</event>
<event>
 4    1  0.1323225E-008  0.2388897E+04  0.7816531E-02  0.8443672E-01
         -1   -1    0    0    0  501 -0.00000000000E+00  0.00000000000E+00  0.13858409433E+04  0.13858409433E+04  0.00000000000E+00 0. -1.
          1   -1    0    0  501    0  0.00000000000E+00 -0.00000000000E+00 -0.10294884002E+04  0.10294884002E+04  0.00000000000E+00 0.  1.
    2000013    1    1    2    0    0 -0.89866656873E+02 -0.67142425823E+03  0.43658317088E+03  0.12457894749E+04  0.95000000000E+03 0.  0.
   -2000013    1    1    2    0    0  0.89866656873E+02  0.67142425823E+03 -0.80230627806E+02  0.11695398686E+04  0.95000000000E+03 0.  0.
<mgrwt>
<rscale>  0 0.23888970E+04</rscale>
<asrwt>0</asrwt>
<pdfrwt beam="2">  1        1 0.15838283E+00 0.23888970E+04</pdfrwt>
<pdfrwt beam="1">  1       -1 0.21320630E+00 0.23888970E+04</pdfrwt>
<totfact> 0.15741405E+00</totfact>
</mgrwt>
</event>
<event>
 4    1  0.1323225E-008  0.2541085E+04  0.7816531E-02  0.8388493E-01
          2   -1    0    0  501    0  0.00000000000E+00  0.00000000000E+00  0.13964477980E+04  0.13964477980E+04  0.00000000000E+00 0.  1.
         -2   -1    0    0    0  501 -0.00000000000E+00 -0.00000000000E+00 -0.11559885881E+04  0.11559885881E+04  0.00000000000E+00 0. -1.
    2000013    1    1    2    0    0 -0.37503842717E+03 -0.41543437012E+03 -0.51388940401E+03  0.12164792877E+04  0.95000000000E+03 0.  0.
   -2000013    1    1    2    0    0  0.37503842717E+03  0.41543437012E+03  0.75434861393E+03  0.13359570985E+04  0.95000000000E+03 0.  0.
<mgrwt>
<rscale>  0 0.25410846E+04</rscale>
<asrwt>0</asrwt>
<pdfrwt beam="1">  1        2 0.21483812E+00 0.25410846E+04</pdfrwt>
<pdfrwt beam="2">  1       -2 0.17784440E+00 0.25410846E+04</pdfrwt>
<totfact> 0.24256721E+00</totfact>
</mgrwt>
</event>
<event>
 4    1  0.1323225E-008  0.2926682E+04  0.7816531E-02  0.8264983E-01
         -2   -1    0    0    0  501 -0.00000000000E+00  0.00000000000E+00  0.82646582700E+03  0.82646582700E+03  0.00000000000E+00 0. -1.
          2   -1    0    0  501    0  0.00000000000E+00 -0.00000000000E+00 -0.25909933426E+04  0.25909933426E+04  0.00000000000E+00 0.  1.
    2000013    1    1    2    0    0  0.10021076985E+04 -0.45219215229E+03 -0.67944202684E+03  0.16040071851E+04  0.95000000000E+03 0.  0.
   -2000013    1    1    2    0    0 -0.10021076985E+04  0.45219215229E+03 -0.10850854887E+04  0.18134519844E+04  0.95000000000E+03 0.  0.
<mgrwt>
<rscale>  0 0.29266824E+04</rscale>
<asrwt>0</asrwt>
<pdfrwt beam="2">  1        2 0.39861436E+00 0.29266824E+04</pdfrwt>
<pdfrwt beam="1">  1       -2 0.12714859E+00 0.29266824E+04</pdfrwt>
<totfact> 0.12182507E+00</totfact>
</mgrwt>
</event>
<event>
 4    1  0.1323225E-008  0.3230292E+04  0.7816531E-02  0.8180863E-01
         -2   -1    0    0    0  501 -0.00000000000E+00  0.00000000000E+00  0.13483446872E+04  0.13483446872E+04  0.00000000000E+00 0. -1.
          2   -1    0    0  501    0  0.00000000000E+00 -0.00000000000E+00 -0.19347401046E+04  0.19347401046E+04  0.00000000000E+00 0.  1.
    2000013    1    1    2    0    0 -0.26327653674E+03  0.93418224348E+03  0.59526607820E+03  0.14828528931E+04  0.95000000000E+03 0.  0.
   -2000013    1    1    2    0    0  0.26327653674E+03 -0.93418224348E+03 -0.11816614956E+04  0.18002318987E+04  0.95000000000E+03 0.  0.
<mgrwt>
<rscale>  0 0.32302920E+04</rscale>
<asrwt>0</asrwt>
<pdfrwt beam="2">  1        2 0.29765233E+00 0.32302920E+04</pdfrwt>
<pdfrwt beam="1">  1       -2 0.20743764E+00 0.32302920E+04</pdfrwt>
<totfact> 0.72579138E-01</totfact>
</mgrwt>
</event>
<event>
 4    1  0.1323225E-008  0.3184369E+04  0.7816531E-02  0.8192958E-01
         -2   -1    0    0    0  501 -0.00000000000E+00  0.00000000000E+00  0.16106193251E+04  0.16106193251E+04  0.00000000000E+00 0. -1.
          2   -1    0    0  501    0  0.00000000000E+00 -0.00000000000E+00 -0.15739602728E+04  0.15739602728E+04  0.00000000000E+00 0.  1.
    2000013    1    1    2    0    0  0.34699326564E+03  0.77499187940E+03 -0.93647668397E+03  0.15812986180E+04  0.95000000000E+03 0.  0.
   -2000013    1    1    2    0    0 -0.34699326564E+03 -0.77499187940E+03  0.97313573621E+03  0.16032809799E+04  0.95000000000E+03 0.  0.
<mgrwt>
<rscale>  0 0.31843686E+04</rscale>
<asrwt>0</asrwt>
<pdfrwt beam="2">  1        2 0.24214773E+00 0.31843686E+04</pdfrwt>
<pdfrwt beam="1">  1       -2 0.24778759E+00 0.31843686E+04</pdfrwt>
<totfact> 0.64482996E-01</totfact>
</mgrwt>
</event>
<event>
 4    1  0.1323225E-008  0.3278039E+04  0.7816531E-02  0.8168506E-01
         -2   -1    0    0    0  501 -0.00000000000E+00  0.00000000000E+00  0.13843435500E+04  0.13843435500E+04  0.00000000000E+00 0. -1.
          2   -1    0    0  501    0  0.00000000000E+00 -0.00000000000E+00 -0.19405477714E+04  0.19405477714E+04  0.00000000000E+00 0.  1.
    2000013    1    1    2    0    0 -0.86187656968E+02 -0.68621173608E+03  0.88084446982E+03  0.14685713598E+04  0.95000000000E+03 0.  0.
   -2000013    1    1    2    0    0  0.86187656968E+02  0.68621173608E+03 -0.14370486912E+04  0.18563199616E+04  0.95000000000E+03 0.  0.
<mgrwt>
<rscale>  0 0.32780389E+04</rscale>
<asrwt>0</asrwt>
<pdfrwt beam="2">  1        2 0.29854581E+00 0.32780389E+04</pdfrwt>
<pdfrwt beam="1">  1       -2 0.21297593E+00 0.32780389E+04</pdfrwt>
<totfact> 0.66103663E-01</totfact>
</mgrwt>
</event>
<event>
 4    1  0.1323225E-008  0.2281390E+04  0.7816531E-02  0.8485295E-01
         -2   -1    0    0    0  501 -0.00000000000E+00  0.00000000000E+00  0.66719488997E+03  0.66719488997E+03  0.00000000000E+00 0. -1.
          2   -1    0    0  501    0  0.00000000000E+00 -0.00000000000E+00 -0.19502323745E+04  0.19502323745E+04  0.00000000000E+00 0.  1.
    2000013    1    1    2    0    0  0.34361737281E+03 -0.52965761086E+03 -0.63158347987E+03  0.13038434629E+04  0.95000000000E+03 0.  0.
   -2000013    1    1    2    0    0 -0.34361737281E+03  0.52965761086E+03 -0.65145400469E+03  0.13135838016E+04  0.95000000000E+03 0.  0.
<mgrwt>
<rscale>  0 0.22813900E+04</rscale>
<asrwt>0</asrwt>
<pdfrwt beam="2">  1        2 0.30003575E+00 0.22813900E+04</pdfrwt>
<pdfrwt beam="1">  1       -2 0.10264537E+00 0.22813900E+04</pdfrwt>
<totfact> 0.50181932E+00</totfact>
</mgrwt>
</event>
<event>
 4    1  0.1323225E-008  0.3582774E+04  0.7816531E-02  0.8094449E-01
          2   -1    0    0  501    0  0.00000000000E+00  0.00000000000E+00  0.17236595153E+04  0.17236595153E+04  0.00000000000E+00 0.  1.
         -2   -1    0    0    0  501 -0.00000000000E+00 -0.00000000000E+00 -0.18617752852E+04  0.18617752852E+04  0.00000000000E+00 0. -1.
    2000013    1    1    2    0    0  0.10934593284E+04  0.93699204731E+03 -0.55207495161E+03  0.18113238672E+04  0.95000000000E+03 0.  0.
   -2000013    1    1    2    0    0 -0.10934593284E+04 -0.93699204731E+03  0.41395918166E+03  0.17741109333E+04  0.95000000000E+03 0.  0.
<mgrwt>
<rscale>  0 0.35827736E+04</rscale>
<asrwt>0</asrwt>
<pdfrwt beam="1">  1        2 0.26517839E+00 0.35827736E+04</pdfrwt>
<pdfrwt beam="2">  1       -2 0.28642697E+00 0.35827736E+04</pdfrwt>
<totfact> 0.29876568E-01</totfact>
</mgrwt>
</event>
<event>
 4    1  0.1323225E-008  0.2246512E+04  0.7816531E-02  0.8499315E-01
          2   -1    0    0  501    0  0.00000000000E+00  0.00000000000E+00  0.81951161397E+03  0.81951161397E+03  0.00000000000E+00 0.  1.
         -2   -1    0    0    0  501 -0.00000000000E+00 -0.00000000000E+00 -0.15395799300E+04  0.15395799300E+04  0.00000000000E+00 0. -1.
    2000013    1    1    2    0    0  0.36818876465E+03  0.45228668898E+03 -0.21499144403E+03  0.11352742120E+04  0.95000000000E+03 0.  0.
   -2000013    1    1    2    0    0 -0.36818876465E+03 -0.45228668898E+03 -0.50507687202E+03  0.12238173320E+04  0.95000000000E+03 0.  0.
<mgrwt>
<rscale>  0 0.22465116E+04</rscale>
<asrwt>0</asrwt>
<pdfrwt beam="1">  1        2 0.12607871E+00 0.22465116E+04</pdfrwt>
<pdfrwt beam="2">  1       -2 0.23685845E+00 0.22465116E+04</pdfrwt>
<totfact> 0.23522418E+00</totfact>
</mgrwt>
</event>
<event>
 4    1  0.1323225E-008  0.2485985E+04  0.7816531E-02  0.8407995E-01
         -2   -1    0    0    0  501 -0.00000000000E+00  0.00000000000E+00  0.14531258903E+04  0.14531258903E+04  0.00000000000E+00 0. -1.
          2   -1    0    0  501    0  0.00000000000E+00 -0.00000000000E+00 -0.10632462485E+04  0.10632462485E+04  0.00000000000E+00 0.  1.
    2000013    1    1    2    0    0  0.12981443318E+03 -0.67078841703E+03 -0.22937587743E+03  0.11924437851E+04  0.95000000000E+03 0.  0.
   -2000013    1    1    2    0    0 -0.12981443318E+03  0.67078841703E+03  0.61925551924E+03  0.13239283536E+04  0.95000000000E+03 0.  0.
<mgrwt>
<rscale>  0 0.24859852E+04</rscale>
<asrwt>0</asrwt>
<pdfrwt beam="2">  1        2 0.16357635E+00 0.24859852E+04</pdfrwt>
<pdfrwt beam="1">  1       -2 0.22355783E+00 0.24859852E+04</pdfrwt>
<totfact> 0.19240443E+00</totfact>
</mgrwt>
</event>
<event>
 4    1  0.1323225E-008  0.2327292E+04  0.7816531E-02  0.8467238E-01
         -2   -1    0    0    0  501 -0.00000000000E+00  0.00000000000E+00  0.15625549015E+04  0.15625549015E+04  0.00000000000E+00 0. -1.
          2   -1    0    0  501    0  0.00000000000E+00 -0.00000000000E+00 -0.86657532678E+03  0.86657532678E+03  0.00000000000E+00 0.  1.
    2000013    1    1    2    0    0 -0.50291887454E+03 -0.41144065492E+03  0.52683747622E+03  0.12658074629E+04  0.95000000000E+03 0.  0.
   -2000013    1    1    2    0    0  0.50291887454E+03  0.41144065492E+03  0.16914209850E+03  0.11633227653E+04  0.95000000000E+03 0.  0.
<mgrwt>
<rscale>  0 0.23272916E+04</rscale>
<asrwt>0</asrwt>
<pdfrwt beam="2">  1        2 0.13331928E+00 0.23272916E+04</pdfrwt>
<pdfrwt beam="1">  1       -2 0.24039306E+00 0.23272916E+04</pdfrwt>
<totfact> 0.20590340E+00</totfact>
</mgrwt>
</event>
<event>
 4    1  0.1323225E-008  0.2795690E+04  0.7816531E-02  0.8304608E-01
          2   -1    0    0  501    0  0.00000000000E+00  0.00000000000E+00  0.28361643658E+04  0.28361643658E+04  0.00000000000E+00 0. -1.
         -2   -1    0    0    0  501 -0.00000000000E+00 -0.00000000000E+00 -0.68894806631E+03  0.68894806631E+03  0.00000000000E+00 0.  1.
    2000013    1    1    2    0    0 -0.68485552311E+02  0.83193786794E+03  0.18245210602E+04  0.22199522486E+04  0.95000000000E+03 0.  0.
   -2000013    1    1    2    0    0  0.68485552311E+02 -0.83193786794E+03  0.32269523923E+03  0.13051601834E+04  0.95000000000E+03 0.  0.
<mgrwt>
<rscale>  0 0.27956895E+04</rscale>
<asrwt>0</asrwt>
<pdfrwt beam="1">  1        2 0.43633297E+00 0.27956895E+04</pdfrwt>
<pdfrwt beam="2">  1       -2 0.10599201E+00 0.27956895E+04</pdfrwt>
<totfact> 0.13746622E+00</totfact>
</mgrwt>
</event>
<event>
 4    1  0.1323225E-008  0.2579512E+04  0.7816531E-02  0.8375194E-01
         -2   -1    0    0    0  501 -0.00000000000E+00  0.00000000000E+00  0.85333557137E+03  0.85333557137E+03  0.00000000000E+00 0. -1.
          2   -1    0    0  501    0  0.00000000000E+00 -0.00000000000E+00 -0.19493751235E+04  0.19493751235E+04  0.00000000000E+00 0.  1.
    2000013    1    1    2    0    0 -0.55293653596E+02 -0.79393265892E+03 -0.93611643536E+03  0.15531260205E+04  0.95000000000E+03 0.  0.
   -2000013    1    1    2    0    0  0.55293653596E+02  0.79393265892E+03 -0.15992311673E+03  0.12495846743E+04  0.95000000000E+03 0.  0.
<mgrwt>
<rscale>  0 0.25795125E+04</rscale>
<asrwt>0</asrwt>
<pdfrwt beam="2">  1        2 0.29990386E+00 0.25795125E+04</pdfrwt>
<pdfrwt beam="1">  1       -2 0.13128240E+00 0.25795125E+04</pdfrwt>
<totfact> 0.26759076E+00</totfact>
</mgrwt>
</event>
<event>
 4    1  0.1323225E-008  0.3482347E+04  0.7816531E-02  0.8117986E-01
         -2   -1    0    0    0  501 -0.00000000000E+00  0.00000000000E+00  0.14831684499E+04  0.14831684499E+04  0.00000000000E+00 0. -1.
          2   -1    0    0  501    0  0.00000000000E+00 -0.00000000000E+00 -0.20440595942E+04  0.20440595942E+04  0.00000000000E+00 0.  1.
    2000013    1    1    2    0    0  0.13207128439E+04 -0.16143264175E+01 -0.90884430535E+03  0.18635404459E+04  0.95000000000E+03 0.  0.
   -2000013    1    1    2    0    0 -0.13207128439E+04  0.16143264175E+01  0.34795316111E+03  0.16636875982E+04  0.95000000000E+03 0.  0.
<mgrwt>
<rscale>  0 0.34823467E+04</rscale>
<asrwt>0</asrwt>
<pdfrwt beam="2">  1        2 0.31447071E+00 0.34823467E+04</pdfrwt>
<pdfrwt beam="1">  1       -2 0.22817976E+00 0.34823467E+04</pdfrwt>
<totfact> 0.45609118E-01</totfact>
</mgrwt>
</event>
<event>
 4    1  0.1323225E-008  0.2321327E+04  0.7816531E-02  0.8469559E-01
          2   -1    0    0  501    0  0.00000000000E+00  0.00000000000E+00  0.33318058925E+04  0.33318058925E+04  0.00000000000E+00 0.  1.
         -2   -1    0    0    0  501 -0.00000000000E+00 -0.00000000000E+00 -0.40432725039E+03  0.40432725039E+03  0.00000000000E+00 0. -1.
    2000013    1    1    2    0    0 -0.39947609798E+03 -0.21391149915E+03  0.67640728954E+03  0.12511459162E+04  0.95000000000E+03 0.  0.
   -2000013    1    1    2    0    0  0.39947609798E+03  0.21391149915E+03  0.22510713526E+04  0.24849872267E+04  0.95000000000E+03 0.  0.
<mgrwt>
<rscale>  0 0.23213271E+04</rscale>
<asrwt>0</asrwt>
<pdfrwt beam="1">  1        2 0.51258551E+00 0.23213271E+04</pdfrwt>
<pdfrwt beam="2">  1       -2 0.62204194E-01 0.23213271E+04</pdfrwt>
<totfact> 0.23065107E+00</totfact>
</mgrwt>
</event>
<event>
 4    1  0.1323225E-008  0.2019955E+04  0.7816531E-02  0.8597348E-01
         -1   -1    0    0    0  501 -0.00000000000E+00  0.00000000000E+00  0.14300418251E+04  0.14300418251E+04  0.00000000000E+00 0. -1.
          1   -1    0    0  501    0  0.00000000000E+00 -0.00000000000E+00 -0.71330383020E+03  0.71330383020E+03  0.00000000000E+00 0.  1.
    2000013    1    1    2    0    0  0.13530691766E+03  0.30472068099E+03  0.44320051973E+03  0.11000406157E+04  0.95000000000E+03 0.  0.
   -2000013    1    1    2    0    0 -0.13530691766E+03 -0.30472068099E+03  0.27353747515E+03  0.10433050396E+04  0.95000000000E+03 0.  0.
<mgrwt>
<rscale>  0 0.20199548E+04</rscale>
<asrwt>0</asrwt>
<pdfrwt beam="2">  1        1 0.10973905E+00 0.20199548E+04</pdfrwt>
<pdfrwt beam="1">  1       -1 0.22000643E+00 0.20199548E+04</pdfrwt>
<totfact> 0.26971271E+00</totfact>
</mgrwt>
</event>
<event>
 4    1  0.1323225E-008  0.4145170E+04  0.7816531E-02  0.7975885E-01
          1   -1    0    0  501    0  0.00000000000E+00  0.00000000000E+00  0.30279438970E+04  0.30279438970E+04  0.00000000000E+00 0.  1.
         -1   -1    0    0    0  501 -0.00000000000E+00 -0.00000000000E+00 -0.14186551094E+04  0.14186551094E+04  0.00000000000E+00 0. -1.
    2000013    1    1    2    0    0  0.97579285986E+03 -0.15124515030E+04  0.38446350400E+03  0.20712299342E+04  0.95000000000E+03 0.  0.
   -2000013    1    1    2    0    0 -0.97579285986E+03  0.15124515030E+04  0.12248252836E+04  0.23753690723E+04  0.95000000000E+03 0.  0.
<mgrwt>
<rscale>  0 0.41451698E+04</rscale>
<asrwt>0</asrwt>
<pdfrwt beam="1">  1        1 0.46583752E+00 0.41451698E+04</pdfrwt>
<pdfrwt beam="2">  1       -1 0.21825463E+00 0.41451698E+04</pdfrwt>
<totfact> 0.49841568E-02</totfact>
</mgrwt>
</event>
<event>
 4    1  0.1323225E-008  0.2581313E+04  0.7816531E-02  0.8374577E-01
          2   -1    0    0  501    0  0.00000000000E+00  0.00000000000E+00  0.12888767960E+04  0.12888767960E+04  0.00000000000E+00 0.  1.
         -2   -1    0    0    0  501 -0.00000000000E+00 -0.00000000000E+00 -0.12924383930E+04  0.12924383930E+04  0.00000000000E+00 0. -1.
    2000013    1    1    2    0    0 -0.46370883053E+03  0.58478759684E+03 -0.45597440791E+03  0.12912842730E+04  0.95000000000E+03 0.  0.
   -2000013    1    1    2    0    0  0.46370883053E+03 -0.58478759684E+03  0.45241281088E+03  0.12900309161E+04  0.95000000000E+03 0.  0.
<mgrwt>
<rscale>  0 0.25813127E+04</rscale>
<asrwt>0</asrwt>
<pdfrwt beam="1">  1        2 0.19828874E+00 0.25813127E+04</pdfrwt>
<pdfrwt beam="2">  1       -2 0.19883668E+00 0.25813127E+04</pdfrwt>
<totfact> 0.20124822E+00</totfact>
</mgrwt>
</event>
<event>
 4    1  0.1323225E-008  0.2213809E+04  0.7816531E-02  0.8512702E-01
          1   -1    0    0  501    0  0.00000000000E+00  0.00000000000E+00  0.29695411931E+04  0.29695411931E+04  0.00000000000E+00 0. -1.
         -1   -1    0    0    0  501 -0.00000000000E+00 -0.00000000000E+00 -0.41260159157E+03  0.41260159157E+03  0.00000000000E+00 0.  1.
    2000013    1    1    2    0    0  0.39263750762E+03  0.17289555411E+03  0.70953924252E+03  0.12609532195E+04  0.95000000000E+03 0.  0.
   -2000013    1    1    2    0    0 -0.39263750762E+03 -0.17289555411E+03  0.18474003590E+04  0.21211895652E+04  0.95000000000E+03 0.  0.
<mgrwt>
<rscale>  0 0.22138089E+04</rscale>
<asrwt>0</asrwt>
<pdfrwt beam="1">  1        1 0.45685248E+00 0.22138089E+04</pdfrwt>
<pdfrwt beam="2">  1       -1 0.63477170E-01 0.22138089E+04</pdfrwt>
<totfact> 0.14430738E+00</totfact>
</mgrwt>
</event>
<event>
 4    1  0.1323225E-008  0.2389362E+04  0.7816531E-02  0.8443497E-01
          1   -1    0    0  501    0  0.00000000000E+00  0.00000000000E+00  0.16329688813E+04  0.16329688813E+04  0.00000000000E+00 0.  1.
         -1   -1    0    0    0  501 -0.00000000000E+00 -0.00000000000E+00 -0.87402960883E+03  0.87402960883E+03  0.00000000000E+00 0. -1.
    2000013    1    1    2    0    0  0.62894466300E+03 -0.19410195906E+03  0.62059331214E+02  0.11574101780E+04  0.95000000000E+03 0.  0.
   -2000013    1    1    2    0    0 -0.62894466300E+03  0.19410195906E+03  0.69687994125E+03  0.13495883121E+04  0.95000000000E+03 0.  0.
<mgrwt>
<rscale>  0 0.23893624E+04</rscale>
<asrwt>0</asrwt>
<pdfrwt beam="1">  1        1 0.25122598E+00 0.23893624E+04</pdfrwt>
<pdfrwt beam="2">  1       -1 0.13446609E+00 0.23893624E+04</pdfrwt>
<totfact> 0.22107933E+00</totfact>
</mgrwt>
</event>
<event>
 4    1  0.1323225E-008  0.2043305E+04  0.7816531E-02  0.8586637E-01
          2   -1    0    0  501    0  0.00000000000E+00  0.00000000000E+00  0.27738855246E+04  0.27738855246E+04  0.00000000000E+00 0.  1.
         -2   -1    0    0    0  501 -0.00000000000E+00 -0.00000000000E+00 -0.37628597264E+03  0.37628597264E+03  0.00000000000E+00 0. -1.
    2000013    1    1    2    0    0  0.12808317308E+03  0.34316783137E+03  0.13287495143E+04  0.16739906605E+04  0.95000000000E+03 0.  0.
   -2000013    1    1    2    0    0 -0.12808317308E+03 -0.34316783137E+03  0.10688500376E+04  0.14761808367E+04  0.95000000000E+03 0.  0.
<mgrwt>
<rscale>  0 0.20433054E+04</rscale>
<asrwt>0</asrwt>
<pdfrwt beam="1">  1        2 0.42675161E+00 0.20433054E+04</pdfrwt>
<pdfrwt beam="2">  1       -2 0.57890151E-01 0.20433054E+04</pdfrwt>
<totfact> 0.62084161E+00</totfact>
</mgrwt>
</event>
<event>
 4    1  0.1323225E-008  0.2029545E+04  0.7816531E-02  0.8592931E-01
          1   -1    0    0  501    0  0.00000000000E+00  0.00000000000E+00  0.71153155973E+03  0.71153155973E+03  0.00000000000E+00 0. -1.
         -1   -1    0    0    0  501 -0.00000000000E+00 -0.00000000000E+00 -0.14472488734E+04  0.14472488734E+04  0.00000000000E+00 0.  1.
    2000013    1    1    2    0    0  0.26861308901E+03 -0.14551702937E+03 -0.17191372488E+03  0.10126117352E+04  0.95000000000E+03 0.  0.
   -2000013    1    1    2    0    0 -0.26861308901E+03  0.14551702937E+03 -0.56380358881E+03  0.11461686980E+04  0.95000000000E+03 0.  0.
<mgrwt>
<rscale>  0 0.20295450E+04</rscale>
<asrwt>0</asrwt>
<pdfrwt beam="1">  1        1 0.10946639E+00 0.20295450E+04</pdfrwt>
<pdfrwt beam="2">  1       -1 0.22265367E+00 0.20295450E+04</pdfrwt>
<totfact> 0.25970598E+00</totfact>
</mgrwt>
</event>
<event>
 4    1  0.1323225E-008  0.3005016E+04  0.7816531E-02  0.8242300E-01
          2   -1    0    0  501    0  0.00000000000E+00  0.00000000000E+00  0.17443021502E+04  0.17443021502E+04  0.00000000000E+00 0.  1.
         -2   -1    0    0    0  501 -0.00000000000E+00 -0.00000000000E+00 -0.12942308957E+04  0.12942308957E+04  0.00000000000E+00 0. -1.
    2000013    1    1    2    0    0 -0.70930814202E+03  0.89599597049E+03  0.44909899797E+03  0.15524550652E+04  0.95000000000E+03 0.  0.
   -2000013    1    1    2    0    0  0.70930814202E+03 -0.89599597049E+03  0.97225646243E+00  0.14860779807E+04  0.95000000000E+03 0.  0.
<mgrwt>
<rscale>  0 0.30050156E+04</rscale>
<asrwt>0</asrwt>
<pdfrwt beam="1">  1        2 0.26835418E+00 0.30050156E+04</pdfrwt>
<pdfrwt beam="2">  1       -2 0.19911245E+00 0.30050156E+04</pdfrwt>
<totfact> 0.10688906E+00</totfact>
</mgrwt>
</event>
<event>
 4    1  0.1323225E-008  0.2514217E+04  0.7816531E-02  0.8397938E-01
          1   -1    0    0  501    0  0.00000000000E+00  0.00000000000E+00  0.84727762040E+03  0.84727762040E+03  0.00000000000E+00 0.  1.
         -1   -1    0    0    0  501 -0.00000000000E+00 -0.00000000000E+00 -0.18651753373E+04  0.18651753373E+04  0.00000000000E+00 0. -1.
    2000013    1    1    2    0    0 -0.42393687518E+03 -0.66472444547E+03 -0.25310018170E+03  0.12602145708E+04  0.95000000000E+03 0.  0.
   -2000013    1    1    2    0    0  0.42393687518E+03  0.66472444547E+03 -0.76479753525E+03  0.14522383869E+04  0.95000000000E+03 0.  0.
<mgrwt>
<rscale>  0 0.25142166E+04</rscale>
<asrwt>0</asrwt>
<pdfrwt beam="1">  1        1 0.13035040E+00 0.25142166E+04</pdfrwt>
<pdfrwt beam="2">  1       -1 0.28695005E+00 0.25142166E+04</pdfrwt>
<totfact> 0.71687713E-01</totfact>
</mgrwt>
</event>
<event>
 4    1  0.1323225E-008  0.2204226E+04  0.7816531E-02  0.8516671E-01
          2   -1    0    0  501    0  0.00000000000E+00  0.00000000000E+00  0.72069469542E+03  0.72069469542E+03  0.00000000000E+00 0.  1.
         -2   -1    0    0    0  501 -0.00000000000E+00 -0.00000000000E+00 -0.16853913197E+04  0.16853913197E+04  0.00000000000E+00 0. -1.
    2000013    1    1    2    0    0 -0.38926257473E+03  0.91667786260E+02 -0.90823791080E+03  0.13737992713E+04  0.95000000000E+03 0.  0.
   -2000013    1    1    2    0    0  0.38926257473E+03 -0.91667786260E+02 -0.56458713431E+02  0.10322867438E+04  0.95000000000E+03 0.  0.
<mgrwt>
<rscale>  0 0.22042256E+04</rscale>
<asrwt>0</asrwt>
<pdfrwt beam="1">  1        2 0.11087611E+00 0.22042256E+04</pdfrwt>
<pdfrwt beam="2">  1       -2 0.25929097E+00 0.22042256E+04</pdfrwt>
<totfact> 0.20326254E+00</totfact>
</mgrwt>
</event>
<event>
 4    1  0.1323225E-008  0.2331933E+04  0.7816531E-02  0.8465436E-01
         -2   -1    0    0    0  501 -0.00000000000E+00  0.00000000000E+00  0.11396491808E+04  0.11396491808E+04  0.00000000000E+00 0. -1.
          2   -1    0    0  501    0  0.00000000000E+00 -0.00000000000E+00 -0.11928911951E+04  0.11928911951E+04  0.00000000000E+00 0.  1.
    2000013    1    1    2    0    0  0.30300022542E+03  0.35509380281E+03 -0.51570316333E+03  0.11774338614E+04  0.95000000000E+03 0.  0.
   -2000013    1    1    2    0    0 -0.30300022542E+03 -0.35509380281E+03  0.46246114897E+03  0.11551065144E+04  0.95000000000E+03 0.  0.
<mgrwt>
<rscale>  0 0.23319327E+04</rscale>
<asrwt>0</asrwt>
<pdfrwt beam="2">  1        2 0.18352172E+00 0.23319327E+04</pdfrwt>
<pdfrwt beam="1">  1       -2 0.17533064E+00 0.23319327E+04</pdfrwt>
<totfact> 0.33802187E+00</totfact>
</mgrwt>
</event>
<event>
 4    1  0.1323225E-008  0.2753028E+04  0.7816531E-02  0.8318002E-01
         -2   -1    0    0    0  501 -0.00000000000E+00  0.00000000000E+00  0.58647395226E+03  0.58647395226E+03  0.00000000000E+00 0. -1.
          2   -1    0    0  501    0  0.00000000000E+00 -0.00000000000E+00 -0.32308175515E+04  0.32308175515E+04  0.00000000000E+00 0.  1.
    2000013    1    1    2    0    0  0.11761623762E+03 -0.94022050467E+03 -0.89605592986E+03  0.16134634815E+04  0.95000000000E+03 0.  0.
   -2000013    1    1    2    0    0 -0.11761623762E+03  0.94022050467E+03 -0.17482876694E+04  0.22038280223E+04  0.95000000000E+03 0.  0.
<mgrwt>
<rscale>  0 0.27530277E+04</rscale>
<asrwt>0</asrwt>
<pdfrwt beam="2">  1        2 0.49704884E+00 0.27530277E+04</pdfrwt>
<pdfrwt beam="1">  1       -2 0.90226764E-01 0.27530277E+04</pdfrwt>
<totfact> 0.11357661E+00</totfact>
</mgrwt>
</event>
<event>
 4    1  0.1323225E-008  0.2348169E+04  0.7816531E-02  0.8459167E-01
          2   -1    0    0  501    0  0.00000000000E+00  0.00000000000E+00  0.26140006687E+04  0.26140006687E+04  0.00000000000E+00 0.  1.
         -2   -1    0    0    0  501 -0.00000000000E+00 -0.00000000000E+00 -0.52734261048E+03  0.52734261048E+03  0.00000000000E+00 0. -1.
    2000013    1    1    2    0    0  0.50766799223E+03 -0.44260553559E+03  0.12433154275E+04  0.17035139280E+04  0.95000000000E+03 0.  0.
   -2000013    1    1    2    0    0 -0.50766799223E+03  0.44260553559E+03  0.84334263071E+03  0.14378293512E+04  0.95000000000E+03 0.  0.
<mgrwt>
<rscale>  0 0.23481686E+04</rscale>
<asrwt>0</asrwt>
<pdfrwt beam="1">  1        2 0.40215394E+00 0.23481686E+04</pdfrwt>
<pdfrwt beam="2">  1       -2 0.81129634E-01 0.23481686E+04</pdfrwt>
<totfact> 0.36115458E+00</totfact>
</mgrwt>
</event>
<event>
 4    1  0.1323225E-008  0.3622953E+04  0.7816531E-02  0.8085254E-01
          2   -1    0    0  501    0  0.00000000000E+00  0.00000000000E+00  0.26618140159E+04  0.26618140159E+04  0.00000000000E+00 0. -1.
         -2   -1    0    0    0  501 -0.00000000000E+00 -0.00000000000E+00 -0.12327860097E+04  0.12327860097E+04  0.00000000000E+00 0.  1.
    2000013    1    1    2    0    0  0.69787744348E+02  0.15299633054E+04  0.91064704344E+03  0.20192662239E+04  0.95000000000E+03 0.  0.
   -2000013    1    1    2    0    0 -0.69787744348E+02 -0.15299633054E+04  0.51838096282E+03  0.18753338017E+04  0.95000000000E+03 0.  0.
<mgrwt>
<rscale>  0 0.36229530E+04</rscale>
<asrwt>0</asrwt>
<pdfrwt beam="1">  1        2 0.40950985E+00 0.36229530E+04</pdfrwt>
<pdfrwt beam="2">  1       -2 0.18965939E+00 0.36229530E+04</pdfrwt>
<totfact> 0.35459741E-01</totfact>
</mgrwt>
</event>
<event>
 4    1  0.1323225E-008  0.2849477E+04  0.7816531E-02  0.8288070E-01
         -2   -1    0    0    0  501 -0.00000000000E+00  0.00000000000E+00  0.15690357383E+04  0.15690357383E+04  0.00000000000E+00 0. -1.
          2   -1    0    0  501    0  0.00000000000E+00 -0.00000000000E+00 -0.12937112054E+04  0.12937112054E+04  0.00000000000E+00 0.  1.
    2000013    1    1    2    0    0 -0.88928421904E+03  0.41092740809E+03  0.54907072720E+03  0.14709406584E+04  0.95000000000E+03 0.  0.
   -2000013    1    1    2    0    0  0.88928421904E+03 -0.41092740809E+03 -0.27374619427E+03  0.13918062853E+04  0.95000000000E+03 0.  0.
<mgrwt>
<rscale>  0 0.28494765E+04</rscale>
<asrwt>0</asrwt>
<pdfrwt beam="2">  1        2 0.19903249E+00 0.28494765E+04</pdfrwt>
<pdfrwt beam="1">  1       -2 0.24139011E+00 0.28494765E+04</pdfrwt>
<totfact> 0.10492868E+00</totfact>
</mgrwt>
</event>
<event>
 4    1  0.1323225E-008  0.2265289E+04  0.7816531E-02  0.8491734E-01
         -2   -1    0    0    0  501 -0.00000000000E+00  0.00000000000E+00  0.86538044241E+03  0.86538044241E+03  0.00000000000E+00 0. -1.
          2   -1    0    0  501    0  0.00000000000E+00 -0.00000000000E+00 -0.14824498380E+04  0.14824498380E+04  0.00000000000E+00 0.  1.
    2000013    1    1    2    0    0  0.48357801110E+03 -0.37812096953E+03 -0.24669543965E+03  0.11576622134E+04  0.95000000000E+03 0.  0.
   -2000013    1    1    2    0    0 -0.48357801110E+03  0.37812096953E+03 -0.37037395592E+03  0.11901680670E+04  0.95000000000E+03 0.  0.
<mgrwt>
<rscale>  0 0.22652886E+04</rscale>
<asrwt>0</asrwt>
<pdfrwt beam="2">  1        2 0.22806921E+00 0.22652886E+04</pdfrwt>
<pdfrwt beam="1">  1       -2 0.13313545E+00 0.22652886E+04</pdfrwt>
<totfact> 0.48276506E+00</totfact>
</mgrwt>
</event>
<event>
 4    1  0.1323225E-008  0.2867943E+04  0.7816531E-02  0.8282480E-01
         -2   -1    0    0    0  501 -0.00000000000E+00  0.00000000000E+00  0.81156251646E+03  0.81156251646E+03  0.00000000000E+00 0. -1.
          2   -1    0    0  501    0  0.00000000000E+00 -0.00000000000E+00 -0.25337232064E+04  0.25337232064E+04  0.00000000000E+00 0.  1.
    2000013    1    1    2    0    0 -0.16275536638E+03 -0.88798309196E+03 -0.18216428744E+03  0.13231353327E+04  0.95000000000E+03 0.  0.
   -2000013    1    1    2    0    0  0.16275536638E+03  0.88798309196E+03 -0.15399964025E+04  0.20221503902E+04  0.95000000000E+03 0.  0.
<mgrwt>
<rscale>  0 0.28679434E+04</rscale>
<asrwt>0</asrwt>
<pdfrwt beam="2">  1        2 0.38980356E+00 0.28679434E+04</pdfrwt>
<pdfrwt beam="1">  1       -2 0.12485577E+00 0.28679434E+04</pdfrwt>
<totfact> 0.13842685E+00</totfact>
</mgrwt>
</event>
<event>
 4    1  0.1323225E-008  0.2096816E+04  0.7816531E-02  0.8562647E-01
         -2   -1    0    0    0  501 -0.00000000000E+00  0.00000000000E+00  0.16736068374E+04  0.16736068374E+04  0.00000000000E+00 0. -1.
          2   -1    0    0  501    0  0.00000000000E+00 -0.00000000000E+00 -0.65676064673E+03  0.65676064673E+03  0.00000000000E+00 0.  1.
    2000013    1    1    2    0    0 -0.12413886806E+02 -0.41867997363E+03  0.34655703222E+03  0.10945541565E+04  0.95000000000E+03 0.  0.
   -2000013    1    1    2    0    0  0.12413886806E+02  0.41867997363E+03  0.67028915849E+03  0.12358133277E+04  0.95000000000E+03 0.  0.
<mgrwt>
<rscale>  0 0.20968158E+04</rscale>
<asrwt>0</asrwt>
<pdfrwt beam="2">  1        2 0.10104010E+00 0.20968158E+04</pdfrwt>
<pdfrwt beam="1">  1       -2 0.25747797E+00 0.20968158E+04</pdfrwt>
<totfact> 0.23653105E+00</totfact>
</mgrwt>
</event>
<event>
 4    1  0.1323225E-008  0.2818058E+04  0.7816531E-02  0.8297684E-01
          1   -1    0    0  501    0  0.00000000000E+00  0.00000000000E+00  0.14824103504E+04  0.14824103504E+04  0.00000000000E+00 0.  1.
         -1   -1    0    0    0  501 -0.00000000000E+00 -0.00000000000E+00 -0.13392804006E+04  0.13392804006E+04  0.00000000000E+00 0. -1.
    2000013    1    1    2    0    0 -0.36702419019E+03  0.84613074066E+03 -0.41094739389E+03  0.13863699892E+04  0.95000000000E+03 0.  0.
   -2000013    1    1    2    0    0  0.36702419019E+03 -0.84613074066E+03  0.55407734370E+03  0.14353207618E+04  0.95000000000E+03 0.  0.
<mgrwt>
<rscale>  0 0.28180583E+04</rscale>
<asrwt>0</asrwt>
<pdfrwt beam="1">  1        1 0.22806313E+00 0.28180583E+04</pdfrwt>
<pdfrwt beam="2">  1       -1 0.20604314E+00 0.28180583E+04</pdfrwt>
<totfact> 0.79558282E-01</totfact>
</mgrwt>
</event>
<event>
 4    1  0.1323225E-008  0.2093594E+04  0.7816531E-02  0.8564070E-01
         -2   -1    0    0    0  501 -0.00000000000E+00  0.00000000000E+00  0.23253672008E+03  0.23253672008E+03  0.00000000000E+00 0. -1.
          2   -1    0    0  501    0  0.00000000000E+00 -0.00000000000E+00 -0.47123065050E+04  0.47123065050E+04  0.00000000000E+00 0.  1.
    2000013    1    1    2    0    0  0.29133437739E+03 -0.32922849408E+03 -0.22496740420E+04  0.24812900709E+04  0.95000000000E+03 0.  0.
   -2000013    1    1    2    0    0 -0.29133437739E+03  0.32922849408E+03 -0.22300957429E+04  0.24635531541E+04  0.95000000000E+03 0.  0.
<mgrwt>
<rscale>  0 0.20935943E+04</rscale>
<asrwt>0</asrwt>
<pdfrwt beam="2">  1        2 0.72497025E+00 0.20935943E+04</pdfrwt>
<pdfrwt beam="1">  1       -2 0.35774879E-01 0.20935943E+04</pdfrwt>
<totfact> 0.51277965E-01</totfact>
</mgrwt>
</event>
<event>
 4    1  0.1323225E-008  0.3289262E+04  0.7816531E-02  0.8165633E-01
         -2   -1    0    0    0  501 -0.00000000000E+00  0.00000000000E+00  0.16044131438E+04  0.16044131438E+04  0.00000000000E+00 0. -1.
          2   -1    0    0  501    0  0.00000000000E+00 -0.00000000000E+00 -0.16858571460E+04  0.16858571460E+04  0.00000000000E+00 0.  1.
    2000013    1    1    2    0    0  0.98100399214E+03 -0.80559342097E+03  0.39640366405E+03  0.16343149811E+04  0.95000000000E+03 0.  0.
   -2000013    1    1    2    0    0 -0.98100399214E+03  0.80559342097E+03 -0.47784766628E+03  0.16559553088E+04  0.95000000000E+03 0.  0.
<mgrwt>
<rscale>  0 0.32892621E+04</rscale>
<asrwt>0</asrwt>
<pdfrwt beam="2">  1        2 0.25936264E+00 0.32892621E+04</pdfrwt>
<pdfrwt beam="1">  1       -2 0.24683279E+00 0.32892621E+04</pdfrwt>
<totfact> 0.56113993E-01</totfact>
</mgrwt>
</event>
<event>
 4    1  0.1323225E-008  0.3402840E+04  0.7816531E-02  0.8137210E-01
         -2   -1    0    0    0  501 -0.00000000000E+00  0.00000000000E+00  0.13839256508E+04  0.13839256508E+04  0.00000000000E+00 0. -1.
          2   -1    0    0  501    0  0.00000000000E+00 -0.00000000000E+00 -0.20917524679E+04  0.20917524679E+04  0.00000000000E+00 0.  1.
    2000013    1    1    2    0    0  0.11787538520E+04  0.11387259225E+03 -0.11384045949E+04  0.18976018108E+04  0.95000000000E+03 0.  0.
   -2000013    1    1    2    0    0 -0.11787538520E+04 -0.11387259225E+03  0.43057777780E+03  0.15780763079E+04  0.95000000000E+03 0.  0.
<mgrwt>
<rscale>  0 0.34028399E+04</rscale>
<asrwt>0</asrwt>
<pdfrwt beam="2">  1        2 0.32180807E+00 0.34028399E+04</pdfrwt>
<pdfrwt beam="1">  1       -2 0.21291164E+00 0.34028399E+04</pdfrwt>
<totfact> 0.53948672E-01</totfact>
</mgrwt>
</event>
<event>
 4    1  0.1323225E-008  0.2425792E+04  0.7816531E-02  0.8429910E-01
          2   -1    0    0  501    0  0.00000000000E+00  0.00000000000E+00  0.12213972822E+04  0.12213972822E+04  0.00000000000E+00 0.  1.
         -2   -1    0    0    0  501 -0.00000000000E+00 -0.00000000000E+00 -0.12044539114E+04  0.12044539114E+04  0.00000000000E+00 0. -1.
    2000013    1    1    2    0    0  0.72727418058E+03 -0.14571729428E+03 -0.12738254063E+03  0.12119767222E+04  0.95000000000E+03 0.  0.
   -2000013    1    1    2    0    0 -0.72727418058E+03  0.14571729428E+03  0.14432591148E+03  0.12138744714E+04  0.95000000000E+03 0.  0.
<mgrwt>
<rscale>  0 0.24257920E+04</rscale>
<asrwt>0</asrwt>
<pdfrwt beam="1">  1        2 0.18790727E+00 0.24257920E+04</pdfrwt>
<pdfrwt beam="2">  1       -2 0.18530060E+00 0.24257920E+04</pdfrwt>
<totfact> 0.27522503E+00</totfact>
</mgrwt>
</event>
<event>
 4    1  0.1323225E-008  0.3661752E+04  0.7816531E-02  0.8076491E-01
          2   -1    0    0  501    0  0.00000000000E+00  0.00000000000E+00  0.39368095275E+04  0.39368095275E+04  0.00000000000E+00 0.  1.
         -2   -1    0    0    0  501 -0.00000000000E+00 -0.00000000000E+00 -0.85147782853E+03  0.85147782853E+03  0.00000000000E+00 0. -1.
    2000013    1    1    2    0    0  0.82050299921E+03 -0.12563163096E+04  0.21246068603E+04  0.27691172153E+04  0.95000000000E+03 0.  0.
   -2000013    1    1    2    0    0 -0.82050299921E+03  0.12563163096E+04  0.96072483869E+03  0.20191701407E+04  0.95000000000E+03 0.  0.
<mgrwt>
<rscale>  0 0.36617515E+04</rscale>
<asrwt>0</asrwt>
<pdfrwt beam="1">  1        2 0.60566299E+00 0.36617515E+04</pdfrwt>
<pdfrwt beam="2">  1       -2 0.13099659E+00 0.36617515E+04</pdfrwt>
<totfact> 0.13242687E-01</totfact>
</mgrwt>
</event>
<event>
 4    1  0.1323225E-008  0.2634806E+04  0.7816531E-02  0.8356474E-01
         -2   -1    0    0    0  501 -0.00000000000E+00  0.00000000000E+00  0.73685810007E+03  0.73685810007E+03  0.00000000000E+00 0. -1.
          2   -1    0    0  501    0  0.00000000000E+00 -0.00000000000E+00 -0.23553392685E+04  0.23553392685E+04  0.00000000000E+00 0.  1.
    2000013    1    1    2    0    0 -0.83232526326E+03  0.33974749675E+03 -0.62420984383E+03  0.14492520949E+04  0.95000000000E+03 0.  0.
   -2000013    1    1    2    0    0  0.83232526326E+03 -0.33974749675E+03 -0.99427132461E+03  0.16429452737E+04  0.95000000000E+03 0.  0.
<mgrwt>
<rscale>  0 0.26348061E+04</rscale>
<asrwt>0</asrwt>
<pdfrwt beam="2">  1        2 0.36235990E+00 0.26348061E+04</pdfrwt>
<pdfrwt beam="1">  1       -2 0.11336278E+00 0.26348061E+04</pdfrwt>
<totfact> 0.22705825E+00</totfact>
</mgrwt>
</event>
<event>
 4    1  0.1323225E-008  0.3414717E+04  0.7816531E-02  0.8134304E-01
          2   -1    0    0  501    0  0.00000000000E+00  0.00000000000E+00  0.20853381569E+04  0.20853381569E+04  0.00000000000E+00 0. -1.
         -2   -1    0    0    0  501 -0.00000000000E+00 -0.00000000000E+00 -0.13978897364E+04  0.13978897364E+04  0.00000000000E+00 0.  1.
    2000013    1    1    2    0    0  0.93754562353E+03  0.74887183898E+03 -0.42827716227E+03  0.15892520741E+04  0.95000000000E+03 0.  0.
   -2000013    1    1    2    0    0 -0.93754562353E+03 -0.74887183898E+03  0.11157255828E+04  0.18939758191E+04  0.95000000000E+03 0.  0.
<mgrwt>
<rscale>  0 0.34147169E+04</rscale>
<asrwt>0</asrwt>
<pdfrwt beam="1">  1        2 0.32082125E+00 0.34147169E+04</pdfrwt>
<pdfrwt beam="2">  1       -2 0.21505996E+00 0.34147169E+04</pdfrwt>
<totfact> 0.52648775E-01</totfact>
</mgrwt>
</event>
<event>
 4    1  0.1323225E-008  0.2487051E+04  0.7816531E-02  0.8407613E-01
          2   -1    0    0  501    0  0.00000000000E+00  0.00000000000E+00  0.84676958905E+03  0.84676958905E+03  0.00000000000E+00 0.  1.
         -2   -1    0    0    0  501 -0.00000000000E+00 -0.00000000000E+00 -0.18261817686E+04  0.18261817686E+04  0.00000000000E+00 0. -1.
    2000013    1    1    2    0    0 -0.46094652487E+03  0.44291229154E+03 -0.10109444191E+04  0.15274657493E+04  0.95000000000E+03 0.  0.
   -2000013    1    1    2    0    0  0.46094652487E+03 -0.44291229154E+03  0.31532239555E+02  0.11454856083E+04  0.95000000000E+03 0.  0.
<mgrwt>
<rscale>  0 0.24870506E+04</rscale>
<asrwt>0</asrwt>
<pdfrwt beam="1">  1        2 0.13027225E+00 0.24870506E+04</pdfrwt>
<pdfrwt beam="2">  1       -2 0.28095104E+00 0.24870506E+04</pdfrwt>
<totfact> 0.11837069E+00</totfact>
</mgrwt>
</event>
<event>
 4    1  0.1323225E-008  0.2272786E+04  0.7816531E-02  0.8488729E-01
          2   -1    0    0  501    0  0.00000000000E+00  0.00000000000E+00  0.21128518021E+04  0.21128518021E+04  0.00000000000E+00 0. -1.
         -2   -1    0    0    0  501 -0.00000000000E+00 -0.00000000000E+00 -0.61120641025E+03  0.61120641025E+03  0.00000000000E+00 0.  1.
    2000013    1    1    2    0    0 -0.61614398905E+03  0.48007284030E+02  0.85074545267E+03  0.14171118304E+04  0.95000000000E+03 0.  0.
   -2000013    1    1    2    0    0  0.61614398905E+03 -0.48007284030E+02  0.65089993922E+03  0.13069463820E+04  0.95000000000E+03 0.  0.
<mgrwt>
<rscale>  0 0.22727856E+04</rscale>
<asrwt>0</asrwt>
<pdfrwt beam="1">  1        2 0.32505412E+00 0.22727856E+04</pdfrwt>
<pdfrwt beam="2">  1       -2 0.94031756E-01 0.22727856E+04</pdfrwt>
<totfact> 0.50122481E+00</totfact>
</mgrwt>
</event>
<event>
 4    1  0.1323225E-008  0.2228388E+04  0.7816531E-02  0.8506704E-01
         -1   -1    0    0    0  501 -0.00000000000E+00  0.00000000000E+00  0.70268622185E+03  0.70268622185E+03  0.00000000000E+00 0. -1.
          1   -1    0    0  501    0  0.00000000000E+00 -0.00000000000E+00 -0.17666901082E+04  0.17666901082E+04  0.00000000000E+00 0.  1.
    2000013    1    1    2    0    0 -0.48904800215E+03 -0.14887935405E+03 -0.84068688777E+03  0.13676942106E+04  0.95000000000E+03 0.  0.
   -2000013    1    1    2    0    0  0.48904800215E+03  0.14887935405E+03 -0.22331699860E+03  0.11016821195E+04  0.95000000000E+03 0.  0.
<mgrwt>
<rscale>  0 0.22283885E+04</rscale>
<asrwt>0</asrwt>
<pdfrwt beam="2">  1        1 0.27179847E+00 0.22283885E+04</pdfrwt>
<pdfrwt beam="1">  1       -1 0.10810557E+00 0.22283885E+04</pdfrwt>
<totfact> 0.31036274E+00</totfact>
</mgrwt>
</event>
<event>
 4    1  0.1323225E-008  0.2315899E+04  0.7816531E-02  0.8471679E-01
         -1   -1    0    0    0  501 -0.00000000000E+00  0.00000000000E+00  0.54080940782E+03  0.54080940782E+03  0.00000000000E+00 0. -1.
          1   -1    0    0  501    0  0.00000000000E+00 -0.00000000000E+00 -0.24793329494E+04  0.24793329494E+04  0.00000000000E+00 0.  1.
    2000013    1    1    2    0    0  0.39639067597E+03  0.52611431887E+03 -0.88251531611E+03  0.14543916693E+04  0.95000000000E+03 0.  0.
   -2000013    1    1    2    0    0 -0.39639067597E+03 -0.52611431887E+03 -0.10560082255E+04  0.15657506879E+04  0.95000000000E+03 0.  0.
<mgrwt>
<rscale>  0 0.23158986E+04</rscale>
<asrwt>0</asrwt>
<pdfrwt beam="2">  1        1 0.38143584E+00 0.23158986E+04</pdfrwt>
<pdfrwt beam="1">  1       -1 0.83201447E-01 0.23158986E+04</pdfrwt>
<totfact> 0.18121365E+00</totfact>
</mgrwt>
</event>
<event>
 4    1  0.1323225E-008  0.2845644E+04  0.7816531E-02  0.8289236E-01
          2   -1    0    0  501    0  0.00000000000E+00  0.00000000000E+00  0.28038203917E+04  0.28038203917E+04  0.00000000000E+00 0.  1.
         -2   -1    0    0    0  501 -0.00000000000E+00 -0.00000000000E+00 -0.72202269481E+03  0.72202269481E+03  0.00000000000E+00 0. -1.
    2000013    1    1    2    0    0 -0.89245135537E+03  0.54466621840E+03  0.83066014031E+03  0.16387882657E+04  0.95000000000E+03 0.  0.
   -2000013    1    1    2    0    0  0.89245135537E+03 -0.54466621840E+03  0.12511375566E+04  0.18870548208E+04  0.95000000000E+03 0.  0.
<mgrwt>
<rscale>  0 0.28456437E+04</rscale>
<asrwt>0</asrwt>
<pdfrwt beam="1">  1        2 0.43135698E+00 0.28456437E+04</pdfrwt>
<pdfrwt beam="2">  1       -2 0.11108042E+00 0.28456437E+04</pdfrwt>
<totfact> 0.12788828E+00</totfact>
</mgrwt>
</event>
<event>
 4    1  0.1323225E-008  0.3125377E+04  0.7816531E-02  0.8208808E-01
         -1   -1    0    0    0  501 -0.00000000000E+00  0.00000000000E+00  0.13604987584E+04  0.13604987584E+04  0.00000000000E+00 0.  1.
          1   -1    0    0  501    0  0.00000000000E+00 -0.00000000000E+00 -0.17949266159E+04  0.17949266159E+04  0.00000000000E+00 0. -1.
    2000013    1    1    2    0    0  0.76619678773E+03 -0.93419129457E+03 -0.50228392192E+03  0.16169601203E+04  0.95000000000E+03 0.  0.
   -2000013    1    1    2    0    0 -0.76619678773E+03  0.93419129457E+03  0.67856064364E+02  0.15384652540E+04  0.95000000000E+03 0.  0.
<mgrwt>
<rscale>  0 0.31253771E+04</rscale>
<asrwt>0</asrwt>
<pdfrwt beam="2">  1        1 0.27614256E+00 0.31253771E+04</pdfrwt>
<pdfrwt beam="1">  1       -1 0.20930750E+00 0.31253771E+04</pdfrwt>
<totfact> 0.44938783E-01</totfact>
</mgrwt>
</event>
<event>
 4    1  0.1323225E-008  0.2202356E+04  0.7816531E-02  0.8517448E-01
         -2   -1    0    0    0  501 -0.00000000000E+00  0.00000000000E+00  0.63268445828E+03  0.63268445828E+03  0.00000000000E+00 0. -1.
          2   -1    0    0  501    0  0.00000000000E+00 -0.00000000000E+00 -0.19165838321E+04  0.19165838321E+04  0.00000000000E+00 0.  1.
    2000013    1    1    2    0    0  0.11564821126E+03 -0.51767302730E+03 -0.44574109338E+03  0.11758167350E+04  0.95000000000E+03 0.  0.
   -2000013    1    1    2    0    0 -0.11564821126E+03  0.51767302730E+03 -0.83815828047E+03  0.13734515554E+04  0.95000000000E+03 0.  0.
<mgrwt>
<rscale>  0 0.22023558E+04</rscale>
<asrwt>0</asrwt>
<pdfrwt beam="2">  1        2 0.29485905E+00 0.22023558E+04</pdfrwt>
<pdfrwt beam="1">  1       -2 0.97336071E-01 0.22023558E+04</pdfrwt>
<totfact> 0.59808158E+00</totfact>
</mgrwt>
</event>
<event>
 4    1  0.1323225E-008  0.2334892E+04  0.7816531E-02  0.8464290E-01
          2   -1    0    0  501    0  0.00000000000E+00  0.00000000000E+00  0.18129819629E+04  0.18129819629E+04  0.00000000000E+00 0.  1.
         -2   -1    0    0    0  501 -0.00000000000E+00 -0.00000000000E+00 -0.75176135821E+03  0.75176135821E+03  0.00000000000E+00 0. -1.
    2000013    1    1    2    0    0  0.32066070246E+02  0.62837335543E+03  0.80968481047E+03  0.13978450554E+04  0.95000000000E+03 0.  0.
   -2000013    1    1    2    0    0 -0.32066070246E+02 -0.62837335543E+03  0.25153579422E+03  0.11668982657E+04  0.95000000000E+03 0.  0.
<mgrwt>
<rscale>  0 0.23348917E+04</rscale>
<asrwt>0</asrwt>
<pdfrwt beam="1">  1        2 0.27892030E+00 0.23348917E+04</pdfrwt>
<pdfrwt beam="2">  1       -2 0.11565559E+00 0.23348917E+04</pdfrwt>
<totfact> 0.44618078E+00</totfact>
</mgrwt>
</event>
<event>
 4    1  0.1323225E-008  0.2746321E+04  0.7816531E-02  0.8320130E-01
          2   -1    0    0  501    0  0.00000000000E+00  0.00000000000E+00  0.10922044272E+04  0.10922044272E+04  0.00000000000E+00 0.  1.
         -2   -1    0    0    0  501 -0.00000000000E+00 -0.00000000000E+00 -0.17263893542E+04  0.17263893542E+04  0.00000000000E+00 0. -1.
    2000013    1    1    2    0    0 -0.88539247318E+03 -0.44516986158E+03 -0.34912369850E+03  0.14165039337E+04  0.95000000000E+03 0.  0.
   -2000013    1    1    2    0    0  0.88539247318E+03  0.44516986158E+03 -0.28506122850E+03  0.14020898478E+04  0.95000000000E+03 0.  0.
<mgrwt>
<rscale>  0 0.27463212E+04</rscale>
<asrwt>0</asrwt>
<pdfrwt beam="1">  1        2 0.16803145E+00 0.27463212E+04</pdfrwt>
<pdfrwt beam="2">  1       -2 0.26559836E+00 0.27463212E+04</pdfrwt>
<totfact> 0.99274970E-01</totfact>
</mgrwt>
</event>
<event>
 4    1  0.1323225E-008  0.2530240E+04  0.7816531E-02  0.8392291E-01
          2   -1    0    0  501    0  0.00000000000E+00  0.00000000000E+00  0.15087574817E+04  0.15087574817E+04  0.00000000000E+00 0.  1.
         -2   -1    0    0    0  501 -0.00000000000E+00 -0.00000000000E+00 -0.10608254683E+04  0.10608254683E+04  0.00000000000E+00 0. -1.
    2000013    1    1    2    0    0  0.43051264950E+03  0.35577557388E+03 -0.40707419069E+03  0.11747879796E+04  0.95000000000E+03 0.  0.
   -2000013    1    1    2    0    0 -0.43051264950E+03 -0.35577557388E+03  0.85500620404E+03  0.13947949703E+04  0.95000000000E+03 0.  0.
<mgrwt>
<rscale>  0 0.25302398E+04</rscale>
<asrwt>0</asrwt>
<pdfrwt beam="1">  1        2 0.23211653E+00 0.25302398E+04</pdfrwt>
<pdfrwt beam="2">  1       -2 0.16320392E+00 0.25302398E+04</pdfrwt>
<totfact> 0.26643951E+00</totfact>
</mgrwt>
</event>
<event>
 4    1  0.1323225E-008  0.2305462E+04  0.7816531E-02  0.8475771E-01
         -2   -1    0    0    0  501 -0.00000000000E+00  0.00000000000E+00  0.84536646326E+03  0.84536646326E+03  0.00000000000E+00 0. -1.
          2   -1    0    0  501    0  0.00000000000E+00 -0.00000000000E+00 -0.15718495935E+04  0.15718495935E+04  0.00000000000E+00 0.  1.
    2000013    1    1    2    0    0 -0.26900096724E+03  0.42195792053E+03 -0.80294957259E+03  0.13407602408E+04  0.95000000000E+03 0.  0.
   -2000013    1    1    2    0    0  0.26900096724E+03 -0.42195792053E+03  0.76466442328E+02  0.10764558160E+04  0.95000000000E+03 0.  0.
<mgrwt>
<rscale>  0 0.23054622E+04</rscale>
<asrwt>0</asrwt>
<pdfrwt beam="2">  1        2 0.24182301E+00 0.23054622E+04</pdfrwt>
<pdfrwt beam="1">  1       -2 0.13005638E+00 0.23054622E+04</pdfrwt>
<totfact> 0.45472032E+00</totfact>
</mgrwt>
</event>
<event>
 4    1  0.1323225E-008  0.2205585E+04  0.7816531E-02  0.8516107E-01
         -2   -1    0    0    0  501 -0.00000000000E+00  0.00000000000E+00  0.66518317690E+03  0.66518317690E+03  0.00000000000E+00 0. -1.
          2   -1    0    0  501    0  0.00000000000E+00 -0.00000000000E+00 -0.18282953331E+04  0.18282953331E+04  0.00000000000E+00 0.  1.
    2000013    1    1    2    0    0 -0.66310025719E+01 -0.55767353061E+03 -0.63928574763E+03  0.12736679332E+04  0.95000000000E+03 0.  0.
   -2000013    1    1    2    0    0  0.66310025719E+01  0.55767353061E+03 -0.52382640856E+03  0.12198105768E+04  0.95000000000E+03 0.  0.
<mgrwt>
<rscale>  0 0.22055850E+04</rscale>
<asrwt>0</asrwt>
<pdfrwt beam="2">  1        2 0.28127621E+00 0.22055850E+04</pdfrwt>
<pdfrwt beam="1">  1       -2 0.10233587E+00 0.22055850E+04</pdfrwt>
<totfact> 0.59442058E+00</totfact>
</mgrwt>
</event>
<event>
 4    1  0.1323225E-008  0.2216520E+04  0.7816531E-02  0.8511583E-01
         -2   -1    0    0    0  501 -0.00000000000E+00  0.00000000000E+00  0.62171806388E+03  0.62171806388E+03  0.00000000000E+00 0. -1.
          2   -1    0    0  501    0  0.00000000000E+00 -0.00000000000E+00 -0.19755586902E+04  0.19755586902E+04  0.00000000000E+00 0.  1.
    2000013    1    1    2    0    0 -0.53796558472E+03 -0.25304575485E+02 -0.89830086192E+03  0.14140338505E+04  0.95000000000E+03 0.  0.
   -2000013    1    1    2    0    0  0.53796558472E+03  0.25304575485E+02 -0.45553976440E+03  0.11832429036E+04  0.95000000000E+03 0.  0.
<mgrwt>
<rscale>  0 0.22165203E+04</rscale>
<asrwt>0</asrwt>
<pdfrwt beam="2">  1        2 0.30393211E+00 0.22165203E+04</pdfrwt>
<pdfrwt beam="1">  1       -2 0.95648932E-01 0.22165203E+04</pdfrwt>
<totfact> 0.57716109E+00</totfact>
</mgrwt>
</event>
<event>
 4    1  0.1323225E-008  0.2971884E+04  0.7816531E-02  0.8251805E-01
         -2   -1    0    0    0  501 -0.00000000000E+00  0.00000000000E+00  0.10696949399E+04  0.10696949399E+04  0.00000000000E+00 0.  1.
          2   -1    0    0  501    0  0.00000000000E+00 -0.00000000000E+00 -0.20641625934E+04  0.20641625934E+04  0.00000000000E+00 0. -1.
    2000013    1    1    2    0    0 -0.12256783147E+03 -0.11233498983E+04 -0.31894375023E+03  0.15103519401E+04  0.95000000000E+03 0.  0.
   -2000013    1    1    2    0    0  0.12256783147E+03  0.11233498983E+04 -0.67552390323E+03  0.16235055932E+04  0.95000000000E+03 0.  0.
<mgrwt>
<rscale>  0 0.29718844E+04</rscale>
<asrwt>0</asrwt>
<pdfrwt beam="2">  1        2 0.31756348E+00 0.29718844E+04</pdfrwt>
<pdfrwt beam="1">  1       -2 0.16456845E+00 0.29718844E+04</pdfrwt>
<totfact> 0.12311734E+00</totfact>
</mgrwt>
</event>
<event>
 4    1  0.1323225E-008  0.2402021E+04  0.7816531E-02  0.8438747E-01
          2   -1    0    0  501    0  0.00000000000E+00  0.00000000000E+00  0.10457741388E+04  0.10457741388E+04  0.00000000000E+00 0.  1.
         -2   -1    0    0    0  501 -0.00000000000E+00 -0.00000000000E+00 -0.13792908289E+04  0.13792908289E+04  0.00000000000E+00 0. -1.
    2000013    1    1    2    0    0  0.81364590379E+02 -0.49322684496E+03 -0.71047268418E+03  0.12873089575E+04  0.95000000000E+03 0.  0.
   -2000013    1    1    2    0    0 -0.81364590379E+02  0.49322684496E+03  0.37695599407E+03  0.11377560101E+04  0.95000000000E+03 0.  0.
<mgrwt>
<rscale>  0 0.24020214E+04</rscale>
<asrwt>0</asrwt>
<pdfrwt beam="1">  1        2 0.16088833E+00 0.24020214E+04</pdfrwt>
<pdfrwt beam="2">  1       -2 0.21219859E+00 0.24020214E+04</pdfrwt>
<totfact> 0.23466810E+00</totfact>
</mgrwt>
</event>
<event>
 4    1  0.1323225E-008  0.2248349E+04  0.7816531E-02  0.8498570E-01
          2   -1    0    0  501    0  0.00000000000E+00  0.00000000000E+00  0.87756756848E+03  0.87756756848E+03  0.00000000000E+00 0.  1.
         -2   -1    0    0    0  501 -0.00000000000E+00 -0.00000000000E+00 -0.14400803435E+04  0.14400803435E+04  0.00000000000E+00 0. -1.
    2000013    1    1    2    0    0 -0.22534641847E+02  0.29971562860E+03  0.25529682576E+03  0.10285979474E+04  0.95000000000E+03 0.  0.
   -2000013    1    1    2    0    0  0.22534641847E+02 -0.29971562860E+03 -0.81780960079E+03  0.12890499646E+04  0.95000000000E+03 0.  0.
<mgrwt>
<rscale>  0 0.22483486E+04</rscale>
<asrwt>0</asrwt>
<pdfrwt beam="1">  1        2 0.13501039E+00 0.22483486E+04</pdfrwt>
<pdfrwt beam="2">  1       -2 0.22155082E+00 0.22483486E+04</pdfrwt>
<totfact> 0.26711269E+00</totfact>
</mgrwt>
</event>
<event>
 4    1  0.1323225E-008  0.2194632E+04  0.7816531E-02  0.8520666E-01
         -2   -1    0    0    0  501 -0.00000000000E+00  0.00000000000E+00  0.39905477646E+03  0.39905477646E+03  0.00000000000E+00 0. -1.
          2   -1    0    0  501    0  0.00000000000E+00 -0.00000000000E+00 -0.30173852417E+04  0.30173852417E+04  0.00000000000E+00 0.  1.
    2000013    1    1    2    0    0  0.22476580836E+03 -0.26630310159E+03 -0.64839973325E+03  0.12018149710E+04  0.95000000000E+03 0.  0.
   -2000013    1    1    2    0    0 -0.22476580836E+03  0.26630310159E+03 -0.19699307320E+04  0.22146250471E+04  0.95000000000E+03 0.  0.
<mgrwt>
<rscale>  0 0.21946316E+04</rscale>
<asrwt>0</asrwt>
<pdfrwt beam="2">  1        2 0.46421312E+00 0.21946316E+04</pdfrwt>
<pdfrwt beam="1">  1       -2 0.61393041E-01 0.21946316E+04</pdfrwt>
<totfact> 0.38351290E+00</totfact>
</mgrwt>
</event>
<event>
 4    1  0.1323225E-008  0.2928228E+04  0.7816531E-02  0.8264528E-01
         -2   -1    0    0    0  501 -0.00000000000E+00  0.00000000000E+00  0.78021336563E+03  0.78021336563E+03  0.00000000000E+00 0. -1.
          2   -1    0    0  501    0  0.00000000000E+00 -0.00000000000E+00 -0.27474919650E+04  0.27474919650E+04  0.00000000000E+00 0.  1.
    2000013    1    1    2    0    0  0.96190111711E+03 -0.44958032731E+03 -0.57731742136E+03  0.15372610822E+04  0.95000000000E+03 0.  0.
   -2000013    1    1    2    0    0 -0.96190111711E+03  0.44958032731E+03 -0.13899611780E+04  0.19904442484E+04  0.95000000000E+03 0.  0.
<mgrwt>
<rscale>  0 0.29282281E+04</rscale>
<asrwt>0</asrwt>
<pdfrwt beam="2">  1        2 0.42269107E+00 0.29282281E+04</pdfrwt>
<pdfrwt beam="1">  1       -2 0.12003283E+00 0.29282281E+04</pdfrwt>
<totfact> 0.11360602E+00</totfact>
</mgrwt>
</event>
<event>
 4    1  0.1323225E-008  0.2657196E+04  0.7816531E-02  0.8349028E-01
          2   -1    0    0  501    0  0.00000000000E+00  0.00000000000E+00  0.25951187569E+04  0.25951187569E+04  0.00000000000E+00 0. -1.
         -2   -1    0    0    0  501 -0.00000000000E+00 -0.00000000000E+00 -0.68018957325E+03  0.68018957325E+03  0.00000000000E+00 0.  1.
    2000013    1    1    2    0    0 -0.71304347161E+03 -0.57231124681E+03  0.11588819717E+04  0.17554140765E+04  0.95000000000E+03 0.  0.
   -2000013    1    1    2    0    0  0.71304347161E+03  0.57231124681E+03  0.75604721198E+03  0.15198942537E+04  0.95000000000E+03 0.  0.
<mgrwt>
<rscale>  0 0.26571961E+04</rscale>
<asrwt>0</asrwt>
<pdfrwt beam="1">  1        2 0.39924903E+00 0.26571961E+04</pdfrwt>
<pdfrwt beam="2">  1       -2 0.10464455E+00 0.26571961E+04</pdfrwt>
<totfact> 0.19981984E+00</totfact>
</mgrwt>
</event>
<event>
 4    1  0.1323225E-008  0.3273022E+04  0.7816531E-02  0.8169794E-01
          2   -1    0    0  501    0  0.00000000000E+00  0.00000000000E+00  0.16323278660E+04  0.16323278660E+04  0.00000000000E+00 0.  1.
         -2   -1    0    0    0  501 -0.00000000000E+00 -0.00000000000E+00 -0.16407048873E+04  0.16407048873E+04  0.00000000000E+00 0. -1.
    2000013    1    1    2    0    0 -0.54438967488E+03  0.88954345444E+03  0.82528429716E+03  0.16343934185E+04  0.95000000000E+03 0.  0.
   -2000013    1    1    2    0    0  0.54438967488E+03 -0.88954345444E+03 -0.83366131844E+03  0.16386393347E+04  0.95000000000E+03 0.  0.
<mgrwt>
<rscale>  0 0.32730220E+04</rscale>
<asrwt>0</asrwt>
<pdfrwt beam="1">  1        2 0.25112736E+00 0.32730220E+04</pdfrwt>
<pdfrwt beam="2">  1       -2 0.25241614E+00 0.32730220E+04</pdfrwt>
<totfact> 0.55605897E-01</totfact>
</mgrwt>
</event>
<event>
 4    1  0.1323225E-008  0.2840437E+04  0.7816531E-02  0.8290823E-01
          2   -1    0    0  501    0  0.00000000000E+00  0.00000000000E+00  0.16178590131E+04  0.16178590131E+04  0.00000000000E+00 0.  1.
         -2   -1    0    0    0  501 -0.00000000000E+00 -0.00000000000E+00 -0.12467224376E+04  0.12467224376E+04  0.00000000000E+00 0. -1.
    2000013    1    1    2    0    0  0.20099617208E+03  0.95616814828E+03  0.58879703641E+03  0.14845332395E+04  0.95000000000E+03 0.  0.
   -2000013    1    1    2    0    0 -0.20099617208E+03 -0.95616814828E+03 -0.21766046096E+03  0.13800482112E+04  0.95000000000E+03 0.  0.
<mgrwt>
<rscale>  0 0.28404374E+04</rscale>
<asrwt>0</asrwt>
<pdfrwt beam="1">  1        2 0.24890139E+00 0.28404374E+04</pdfrwt>
<pdfrwt beam="2">  1       -2 0.19180345E+00 0.28404374E+04</pdfrwt>
<totfact> 0.14250269E+00</totfact>
</mgrwt>
</event>
<event>
 4    1  0.1323225E-008  0.2363032E+04  0.7816531E-02  0.8453475E-01
          1   -1    0    0  501    0  0.00000000000E+00  0.00000000000E+00  0.32993446609E+04  0.32993446609E+04  0.00000000000E+00 0.  1.
         -1   -1    0    0    0  501 -0.00000000000E+00 -0.00000000000E+00 -0.42310819213E+03  0.42310819213E+03  0.00000000000E+00 0. -1.
    2000013    1    1    2    0    0 -0.14516492092E+03  0.61380763314E+03  0.19253050545E+04  0.22376622216E+04  0.95000000000E+03 0.  0.
   -2000013    1    1    2    0    0  0.14516492092E+03 -0.61380763314E+03  0.95093141425E+03  0.14847906315E+04  0.95000000000E+03 0.  0.
<mgrwt>
<rscale>  0 0.23630317E+04</rscale>
<asrwt>0</asrwt>
<pdfrwt beam="1">  1        1 0.50759147E+00 0.23630317E+04</pdfrwt>
<pdfrwt beam="2">  1       -1 0.65093570E-01 0.23630317E+04</pdfrwt>
<totfact> 0.76987649E-01</totfact>
</mgrwt>
</event>
<event>
 4    1  0.1323225E-008  0.2610609E+04  0.7816531E-02  0.8364607E-01
         -2   -1    0    0    0  501 -0.00000000000E+00  0.00000000000E+00  0.98803978585E+03  0.98803978585E+03  0.00000000000E+00 0. -1.
          2   -1    0    0  501    0  0.00000000000E+00 -0.00000000000E+00 -0.17244443373E+04  0.17244443373E+04  0.00000000000E+00 0.  1.
    2000013    1    1    2    0    0  0.33590570607E+03  0.77161341220E+03 -0.51172851265E+02  0.12701726505E+04  0.95000000000E+03 0.  0.
   -2000013    1    1    2    0    0 -0.33590570607E+03 -0.77161341220E+03 -0.68523170015E+03  0.14423114727E+04  0.95000000000E+03 0.  0.
<mgrwt>
<rscale>  0 0.26106088E+04</rscale>
<asrwt>0</asrwt>
<pdfrwt beam="2">  1        2 0.26529913E+00 0.26106088E+04</pdfrwt>
<pdfrwt beam="1">  1       -2 0.15200612E+00 0.26106088E+04</pdfrwt>
<totfact> 0.24297962E+00</totfact>
</mgrwt>
</event>
<event>
 4    1  0.1323225E-008  0.2507893E+04  0.7816531E-02  0.8400179E-01
         -2   -1    0    0    0  501 -0.00000000000E+00  0.00000000000E+00  0.77710893566E+03  0.77710893566E+03  0.00000000000E+00 0. -1.
          2   -1    0    0  501    0  0.00000000000E+00 -0.00000000000E+00 -0.20233739981E+04  0.20233739981E+04  0.00000000000E+00 0.  1.
    2000013    1    1    2    0    0  0.61639143288E+03 -0.44291598958E+03 -0.28118959232E+03  0.12480707348E+04  0.95000000000E+03 0.  0.
   -2000013    1    1    2    0    0 -0.61639143288E+03  0.44291598958E+03 -0.96507547017E+03  0.15524121990E+04  0.95000000000E+03 0.  0.
<mgrwt>
<rscale>  0 0.25078932E+04</rscale>
<asrwt>0</asrwt>
<pdfrwt beam="2">  1        2 0.31128831E+00 0.25078932E+04</pdfrwt>
<pdfrwt beam="1">  1       -2 0.11955522E+00 0.25078932E+04</pdfrwt>
<totfact> 0.30971808E+00</totfact>
</mgrwt>
</event>
<event>
 4    1  0.1323225E-008  0.2295035E+04  0.7816531E-02  0.8479881E-01
          2   -1    0    0  501    0  0.00000000000E+00  0.00000000000E+00  0.85015372283E+03  0.85015372283E+03  0.00000000000E+00 0.  1.
         -2   -1    0    0    0  501 -0.00000000000E+00 -0.00000000000E+00 -0.15488927802E+04  0.15488927802E+04  0.00000000000E+00 0. -1.
    2000013    1    1    2    0    0 -0.26913546558E+02  0.31791496568E+03  0.23498464303E+03  0.10293260158E+04  0.95000000000E+03 0.  0.
   -2000013    1    1    2    0    0  0.26913546558E+02 -0.31791496568E+03 -0.93372370037E+03  0.13697204872E+04  0.95000000000E+03 0.  0.
<mgrwt>
<rscale>  0 0.22950355E+04</rscale>
<asrwt>0</asrwt>
<pdfrwt beam="1">  1        2 0.13079288E+00 0.22950355E+04</pdfrwt>
<pdfrwt beam="2">  1       -2 0.23829119E+00 0.22950355E+04</pdfrwt>
<totfact> 0.21839533E+00</totfact>
</mgrwt>
</event>
<event>
 4    1  0.1323225E-008  0.3198901E+04  0.7816531E-02  0.8189107E-01
          2   -1    0    0  501    0  0.00000000000E+00  0.00000000000E+00  0.14289058362E+04  0.14289058362E+04  0.00000000000E+00 0.  1.
         -2   -1    0    0    0  501 -0.00000000000E+00 -0.00000000000E+00 -0.17903503195E+04  0.17903503195E+04  0.00000000000E+00 0. -1.
    2000013    1    1    2    0    0  0.56368733272E+02  0.10258865886E+04 -0.96032657318E+03  0.16971587592E+04  0.95000000000E+03 0.  0.
   -2000013    1    1    2    0    0 -0.56368733272E+02 -0.10258865886E+04  0.59888208985E+03  0.15220973965E+04  0.95000000000E+03 0.  0.
<mgrwt>
<rscale>  0 0.31989011E+04</rscale>
<asrwt>0</asrwt>
<pdfrwt beam="1">  1        2 0.21983167E+00 0.31989011E+04</pdfrwt>
<pdfrwt beam="2">  1       -2 0.27543851E+00 0.31989011E+04</pdfrwt>
<totfact> 0.52670819E-01</totfact>
</mgrwt>
</event>
<event>
 4    1  0.1323225E-008  0.2141892E+04  0.7816531E-02  0.8543011E-01
          1   -1    0    0  501    0  0.00000000000E+00  0.00000000000E+00  0.19456165058E+04  0.19456165058E+04  0.00000000000E+00 0.  1.
         -1   -1    0    0    0  501 -0.00000000000E+00 -0.00000000000E+00 -0.58949184494E+03  0.58949184494E+03  0.00000000000E+00 0. -1.
    2000013    1    1    2    0    0 -0.20585658061E+03 -0.43828607706E+03  0.79614488771E+03  0.13307209698E+04  0.95000000000E+03 0.  0.
   -2000013    1    1    2    0    0  0.20585658061E+03  0.43828607706E+03  0.55997977314E+03  0.12043873810E+04  0.95000000000E+03 0.  0.
<mgrwt>
<rscale>  0 0.21418917E+04</rscale>
<asrwt>0</asrwt>
<pdfrwt beam="1">  1        1 0.29932561E+00 0.21418917E+04</pdfrwt>
<pdfrwt beam="2">  1       -1 0.90691054E-01 0.21418917E+04</pdfrwt>
<totfact> 0.35303435E+00</totfact>
</mgrwt>
</event>
<event>
 4    1  0.1323225E-008  0.3391246E+04  0.7816531E-02  0.8140058E-01
          2   -1    0    0  501    0  0.00000000000E+00  0.00000000000E+00  0.30875925395E+04  0.30875925395E+04  0.00000000000E+00 0.  1.
         -2   -1    0    0    0  501 -0.00000000000E+00 -0.00000000000E+00 -0.93119060252E+03  0.93119060252E+03  0.00000000000E+00 0. -1.
    2000013    1    1    2    0    0  0.48239309998E+03  0.57120933860E+03 -0.33078558127E+03  0.12533564187E+04  0.95000000000E+03 0.  0.
   -2000013    1    1    2    0    0 -0.48239309998E+03 -0.57120933860E+03  0.24871875183E+04  0.27654267234E+04  0.95000000000E+03 0.  0.
<mgrwt>
<rscale>  0 0.33912459E+04</rscale>
<asrwt>0</asrwt>
<pdfrwt beam="1">  1        2 0.47501423E+00 0.33912459E+04</pdfrwt>
<pdfrwt beam="2">  1       -2 0.14326009E+00 0.33912459E+04</pdfrwt>
<totfact> 0.42935590E-01</totfact>
</mgrwt>
</event>
<event>
 4    1  0.1323225E-008  0.2409263E+04  0.7816531E-02  0.8436044E-01
         -2   -1    0    0    0  501 -0.00000000000E+00  0.00000000000E+00  0.13048139578E+04  0.13048139578E+04  0.00000000000E+00 0. -1.
          2   -1    0    0  501    0  0.00000000000E+00 -0.00000000000E+00 -0.11121411471E+04  0.11121411471E+04  0.00000000000E+00 0.  1.
    2000013    1    1    2    0    0 -0.71141359964E+03 -0.81508489233E+02 -0.93700026758E+02  0.11933283867E+04  0.95000000000E+03 0.  0.
   -2000013    1    1    2    0    0  0.71141359964E+03  0.81508489233E+02  0.28637283744E+03  0.12236267182E+04  0.95000000000E+03 0.  0.
<mgrwt>
<rscale>  0 0.24092632E+04</rscale>
<asrwt>0</asrwt>
<pdfrwt beam="2">  1        2 0.17109864E+00 0.24092632E+04</pdfrwt>
<pdfrwt beam="1">  1       -2 0.20074061E+00 0.24092632E+04</pdfrwt>
<totfact> 0.25303286E+00</totfact>
</mgrwt>
</event>
<event>
 4    1  0.1323225E-008  0.2159610E+04  0.7816531E-02  0.8535430E-01
         -2   -1    0    0    0  501 -0.00000000000E+00  0.00000000000E+00  0.89750352717E+03  0.89750352717E+03  0.00000000000E+00 0. -1.
          2   -1    0    0  501    0  0.00000000000E+00 -0.00000000000E+00 -0.12991358752E+04  0.12991358752E+04  0.00000000000E+00 0.  1.
    2000013    1    1    2    0    0  0.66351007284E+01 -0.41381080722E+03 -0.50965973573E+03  0.11547884893E+04  0.95000000000E+03 0.  0.
   -2000013    1    1    2    0    0 -0.66351007284E+01  0.41381080722E+03  0.10802738765E+03  0.10418509131E+04  0.95000000000E+03 0.  0.
<mgrwt>
<rscale>  0 0.21596102E+04</rscale>
<asrwt>0</asrwt>
<pdfrwt beam="2">  1        2 0.19986706E+00 0.21596102E+04</pdfrwt>
<pdfrwt beam="1">  1       -2 0.13807747E+00 0.21596102E+04</pdfrwt>
<totfact> 0.56515078E+00</totfact>
</mgrwt>
</event>
<event>
 4    1  0.1323225E-008  0.2700136E+04  0.7816531E-02  0.8334961E-01
          2   -1    0    0  501    0  0.00000000000E+00  0.00000000000E+00  0.87379452531E+03  0.87379452531E+03  0.00000000000E+00 0.  1.
         -2   -1    0    0    0  501 -0.00000000000E+00 -0.00000000000E+00 -0.20859404316E+04  0.20859404316E+04  0.00000000000E+00 0. -1.
    2000013    1    1    2    0    0 -0.42412130523E+03  0.41800165593E+03  0.21828128999E+03  0.11422569709E+04  0.95000000000E+03 0.  0.
   -2000013    1    1    2    0    0  0.42412130523E+03 -0.41800165593E+03 -0.14304271962E+04  0.18174779860E+04  0.95000000000E+03 0.  0.
<mgrwt>
<rscale>  0 0.27001358E+04</rscale>
<asrwt>0</asrwt>
<pdfrwt beam="1">  1        2 0.13442993E+00 0.27001358E+04</pdfrwt>
<pdfrwt beam="2">  1       -2 0.32091391E+00 0.27001358E+04</pdfrwt>
<totfact> 0.63359413E-01</totfact>
</mgrwt>
</event>
<event>
 4    1  0.1323225E-008  0.2298217E+04  0.7816531E-02  0.8478624E-01
         -2   -1    0    0    0  501 -0.00000000000E+00  0.00000000000E+00  0.45358887355E+03  0.45358887355E+03  0.00000000000E+00 0. -1.
          2   -1    0    0  501    0  0.00000000000E+00 -0.00000000000E+00 -0.29111178823E+04  0.29111178823E+04  0.00000000000E+00 0.  1.
    2000013    1    1    2    0    0 -0.36854531949E+03  0.52239284517E+03 -0.13694257569E+04  0.17850901492E+04  0.95000000000E+03 0.  0.
   -2000013    1    1    2    0    0  0.36854531949E+03 -0.52239284517E+03 -0.10881032518E+04  0.15796166066E+04  0.95000000000E+03 0.  0.
<mgrwt>
<rscale>  0 0.22982173E+04</rscale>
<asrwt>0</asrwt>
<pdfrwt beam="2">  1        2 0.44786428E+00 0.22982173E+04</pdfrwt>
<pdfrwt beam="1">  1       -2 0.69782905E-01 0.22982173E+04</pdfrwt>
<totfact> 0.33580964E+00</totfact>
</mgrwt>
</event>
<event>
 4    1  0.1323225E-008  0.2569557E+04  0.7816531E-02  0.8378616E-01
          2   -1    0    0  501    0  0.00000000000E+00  0.00000000000E+00  0.35489567579E+04  0.35489567579E+04  0.00000000000E+00 0.  1.
         -2   -1    0    0    0  501 -0.00000000000E+00 -0.00000000000E+00 -0.46511010919E+03  0.46511010919E+03  0.00000000000E+00 0. -1.
    2000013    1    1    2    0    0 -0.57304638266E+03  0.14230618330E+03  0.25293320542E+04  0.27656199752E+04  0.95000000000E+03 0.  0.
   -2000013    1    1    2    0    0  0.57304638266E+03 -0.14230618330E+03  0.55451459449E+03  0.12484468919E+04  0.95000000000E+03 0.  0.
<mgrwt>
<rscale>  0 0.25695569E+04</rscale>
<asrwt>0</asrwt>
<pdfrwt beam="1">  1        2 0.54599333E+00 0.25695569E+04</pdfrwt>
<pdfrwt beam="2">  1       -2 0.71555404E-01 0.25695569E+04</pdfrwt>
<totfact> 0.11807696E+00</totfact>
</mgrwt>
</event>
<event>
 4    1  0.1323225E-008  0.2060739E+04  0.7816531E-02  0.8578738E-01
         -2   -1    0    0    0  501 -0.00000000000E+00  0.00000000000E+00  0.12171993385E+04  0.12171993385E+04  0.00000000000E+00 0.  1.
          2   -1    0    0  501    0  0.00000000000E+00 -0.00000000000E+00 -0.87221613196E+03  0.87221613196E+03  0.00000000000E+00 0. -1.
    2000013    1    1    2    0    0  0.21512000038E+03 -0.38788003662E+02 -0.16588869372E+03  0.98883779382E+03  0.95000000000E+03 0.  0.
   -2000013    1    1    2    0    0 -0.21512000038E+03  0.38788003662E+02  0.51087190022E+03  0.11005776766E+04  0.95000000000E+03 0.  0.
<mgrwt>
<rscale>  0 0.20607386E+04</rscale>
<asrwt>0</asrwt>
<pdfrwt beam="2">  1        2 0.13418710E+00 0.20607386E+04</pdfrwt>
<pdfrwt beam="1">  1       -2 0.18726144E+00 0.20607386E+04</pdfrwt>
<totfact> 0.45782459E+00</totfact>
</mgrwt>
</event>
<event>
 4    1  0.1323225E-008  0.2575505E+04  0.7816531E-02  0.8376569E-01
         -2   -1    0    0    0  501 -0.00000000000E+00  0.00000000000E+00  0.47332722571E+03  0.47332722571E+03  0.00000000000E+00 0. -1.
          2   -1    0    0  501    0  0.00000000000E+00 -0.00000000000E+00 -0.35035105849E+04  0.35035105849E+04  0.00000000000E+00 0.  1.
    2000013    1    1    2    0    0 -0.38996915241E+03 -0.75320607732E+03 -0.12204491944E+04  0.17639137084E+04  0.95000000000E+03 0.  0.
   -2000013    1    1    2    0    0  0.38996915241E+03  0.75320607732E+03 -0.18097341648E+04  0.22129241022E+04  0.95000000000E+03 0.  0.
<mgrwt>
<rscale>  0 0.25755053E+04</rscale>
<asrwt>0</asrwt>
<pdfrwt beam="2">  1        2 0.53900165E+00 0.25755053E+04</pdfrwt>
<pdfrwt beam="1">  1       -2 0.72819571E-01 0.25755053E+04</pdfrwt>
<totfact> 0.12223578E+00</totfact>
</mgrwt>
</event>
<event>
 4    1  0.1323225E-008  0.2512942E+04  0.7816531E-02  0.8398389E-01
          2   -1    0    0  501    0  0.00000000000E+00  0.00000000000E+00  0.27603424263E+04  0.27603424263E+04  0.00000000000E+00 0.  1.
         -2   -1    0    0    0  501 -0.00000000000E+00 -0.00000000000E+00 -0.57192898571E+03  0.57192898571E+03  0.00000000000E+00 0. -1.
    2000013    1    1    2    0    0 -0.65662243051E+03 -0.33195675405E+03  0.60721901401E+03  0.13463146860E+04  0.95000000000E+03 0.  0.
   -2000013    1    1    2    0    0  0.65662243051E+03  0.33195675405E+03  0.15811944265E+04  0.19859567260E+04  0.95000000000E+03 0.  0.
<mgrwt>
<rscale>  0 0.25129424E+04</rscale>
<asrwt>0</asrwt>
<pdfrwt beam="1">  1        2 0.42466806E+00 0.25129424E+04</pdfrwt>
<pdfrwt beam="2">  1       -2 0.87989076E-01 0.25129424E+04</pdfrwt>
<totfact> 0.24233231E+00</totfact>
</mgrwt>
</event>
<event>
 4    1  0.1323225E-008  0.2148533E+04  0.7816531E-02  0.8540161E-01
         -2   -1    0    0    0  501 -0.00000000000E+00  0.00000000000E+00  0.97547297734E+03  0.97547297734E+03  0.00000000000E+00 0. -1.
          2   -1    0    0  501    0  0.00000000000E+00 -0.00000000000E+00 -0.11830652054E+04  0.11830652054E+04  0.00000000000E+00 0.  1.
    2000013    1    1    2    0    0  0.35343920246E+03 -0.35385172067E+03 -0.14162552608E+03  0.10829072443E+04  0.95000000000E+03 0.  0.
   -2000013    1    1    2    0    0 -0.35343920246E+03  0.35385172067E+03 -0.65966701996E+02  0.10756309385E+04  0.95000000000E+03 0.  0.
<mgrwt>
<rscale>  0 0.21485327E+04</rscale>
<asrwt>0</asrwt>
<pdfrwt beam="2">  1        2 0.18201003E+00 0.21485327E+04</pdfrwt>
<pdfrwt beam="1">  1       -2 0.15007277E+00 0.21485327E+04</pdfrwt>
<totfact> 0.53259499E+00</totfact>
</mgrwt>
</event>
<event>
 4    1  0.1323225E-008  0.2530272E+04  0.7816531E-02  0.8392280E-01
         -2   -1    0    0    0  501 -0.00000000000E+00  0.00000000000E+00  0.11189247939E+04  0.11189247939E+04  0.00000000000E+00 0. -1.
          2   -1    0    0  501    0  0.00000000000E+00 -0.00000000000E+00 -0.14304529396E+04  0.14304529396E+04  0.00000000000E+00 0.  1.
    2000013    1    1    2    0    0  0.62106842805E+02 -0.60910655723E+03  0.41703649622E+03  0.12046939434E+04  0.95000000000E+03 0.  0.
   -2000013    1    1    2    0    0 -0.62106842805E+02  0.60910655723E+03 -0.72856464192E+03  0.13446837901E+04  0.95000000000E+03 0.  0.
<mgrwt>
<rscale>  0 0.25302721E+04</rscale>
<asrwt>0</asrwt>
<pdfrwt beam="2">  1        2 0.22006968E+00 0.25302721E+04</pdfrwt>
<pdfrwt beam="1">  1       -2 0.17214228E+00 0.25302721E+04</pdfrwt>
<totfact> 0.25457360E+00</totfact>
</mgrwt>
</event>
<event>
 4    1  0.1323225E-008  0.2144713E+04  0.7816531E-02  0.8541799E-01
         -2   -1    0    0    0  501 -0.00000000000E+00  0.00000000000E+00  0.71663164887E+03  0.71663164887E+03  0.00000000000E+00 0. -1.
          2   -1    0    0  501    0  0.00000000000E+00 -0.00000000000E+00 -0.16046570249E+04  0.16046570249E+04  0.00000000000E+00 0.  1.
    2000013    1    1    2    0    0  0.32096090466E+03 -0.14692761802E+03 -0.64664770466E+02  0.10155221119E+04  0.95000000000E+03 0.  0.
   -2000013    1    1    2    0    0 -0.32096090466E+03  0.14692761802E+03 -0.82336060558E+03  0.13057665619E+04  0.95000000000E+03 0.  0.
<mgrwt>
<rscale>  0 0.21447126E+04</rscale>
<asrwt>0</asrwt>
<pdfrwt beam="2">  1        2 0.24687031E+00 0.21447126E+04</pdfrwt>
<pdfrwt beam="1">  1       -2 0.11025102E+00 0.21447126E+04</pdfrwt>
<totfact> 0.66512270E+00</totfact>
</mgrwt>
</event>
<event>
 4    1  0.1323225E-008  0.2528913E+04  0.7816531E-02  0.8392757E-01
          2   -1    0    0  501    0  0.00000000000E+00  0.00000000000E+00  0.15130450664E+04  0.15130450664E+04  0.00000000000E+00 0.  1.
         -2   -1    0    0    0  501 -0.00000000000E+00 -0.00000000000E+00 -0.10567101148E+04  0.10567101148E+04  0.00000000000E+00 0. -1.
    2000013    1    1    2    0    0 -0.47051815664E+03  0.12678312876E+03  0.91652107206E+03  0.14071148400E+04  0.95000000000E+03 0.  0.
   -2000013    1    1    2    0    0  0.47051815664E+03 -0.12678312876E+03 -0.46018612046E+03  0.11626403412E+04  0.95000000000E+03 0.  0.
<mgrwt>
<rscale>  0 0.25289128E+04</rscale>
<asrwt>0</asrwt>
<pdfrwt beam="1">  1        2 0.23277616E+00 0.25289128E+04</pdfrwt>
<pdfrwt beam="2">  1       -2 0.16257079E+00 0.25289128E+04</pdfrwt>
<totfact> 0.26782855E+00</totfact>
</mgrwt>
</event>
<event>
 4    1  0.1323225E-008  0.2668161E+04  0.7816531E-02  0.8345410E-01
         -1   -1    0    0    0  501 -0.00000000000E+00  0.00000000000E+00  0.99406628701E+03  0.99406628701E+03  0.00000000000E+00 0. -1.
          1   -1    0    0  501    0  0.00000000000E+00 -0.00000000000E+00 -0.17903945146E+04  0.17903945146E+04  0.00000000000E+00 0.  1.
    2000013    1    1    2    0    0  0.66698828770E+03  0.65437727878E+03 -0.33062995158E+03  0.13729162989E+04  0.95000000000E+03 0.  0.
   -2000013    1    1    2    0    0 -0.66698828770E+03 -0.65437727878E+03 -0.46569827605E+03  0.14115445027E+04  0.95000000000E+03 0.  0.
<mgrwt>
<rscale>  0 0.26681610E+04</rscale>
<asrwt>0</asrwt>
<pdfrwt beam="2">  1        1 0.27544531E+00 0.26681610E+04</pdfrwt>
<pdfrwt beam="1">  1       -1 0.15293328E+00 0.26681610E+04</pdfrwt>
<totfact> 0.11987272E+00</totfact>
</mgrwt>
</event>
<event>
 4    1  0.1323225E-008  0.2609225E+04  0.7816531E-02  0.8365074E-01
         -2   -1    0    0    0  501 -0.00000000000E+00  0.00000000000E+00  0.10260009761E+04  0.10260009761E+04  0.00000000000E+00 0. -1.
          2   -1    0    0  501    0  0.00000000000E+00 -0.00000000000E+00 -0.16588815802E+04  0.16588815802E+04  0.00000000000E+00 0.  1.
    2000013    1    1    2    0    0  0.79183119752E+03 -0.92025737522E+02  0.10033326407E+03  0.12441993995E+04  0.95000000000E+03 0.  0.
   -2000013    1    1    2    0    0 -0.79183119752E+03  0.92025737522E+02 -0.73321386815E+03  0.14406831568E+04  0.95000000000E+03 0.  0.
<mgrwt>
<rscale>  0 0.26092253E+04</rscale>
<asrwt>0</asrwt>
<pdfrwt beam="2">  1        2 0.25521255E+00 0.26092253E+04</pdfrwt>
<pdfrwt beam="1">  1       -2 0.15784631E+00 0.26092253E+04</pdfrwt>
<totfact> 0.23885401E+00</totfact>
</mgrwt>
</event>
<event>
 4    1  0.1323225E-008  0.1968636E+04  0.7816531E-02  0.8621426E-01
         -2   -1    0    0    0  501 -0.00000000000E+00  0.00000000000E+00  0.87132022335E+03  0.87132022335E+03  0.00000000000E+00 0. -1.
          2   -1    0    0  501    0  0.00000000000E+00 -0.00000000000E+00 -0.11119697157E+04  0.11119697157E+04  0.00000000000E+00 0.  1.
    2000013    1    1    2    0    0 -0.13733838922E+03 -0.40225873107E+02  0.95516999056E+02  0.96545504874E+03  0.95000000000E+03 0.  0.
   -2000013    1    1    2    0    0  0.13733838922E+03  0.40225873107E+02 -0.33616649142E+03  0.10178348903E+04  0.95000000000E+03 0.  0.
<mgrwt>
<rscale>  0 0.19686358E+04</rscale>
<asrwt>0</asrwt>
<pdfrwt beam="2">  1        2 0.17107226E+00 0.19686358E+04</pdfrwt>
<pdfrwt beam="1">  1       -2 0.13404927E+00 0.19686358E+04</pdfrwt>
<totfact> 0.80145807E+00</totfact>
</mgrwt>
</event>
<event>
 4    1  0.1323225E-008  0.2431373E+04  0.7816531E-02  0.8427850E-01
         -2   -1    0    0    0  501 -0.00000000000E+00  0.00000000000E+00  0.54309159961E+03  0.54309159961E+03  0.00000000000E+00 0. -1.
          2   -1    0    0  501    0  0.00000000000E+00 -0.00000000000E+00 -0.27212607301E+04  0.27212607301E+04  0.00000000000E+00 0.  1.
    2000013    1    1    2    0    0  0.53123164052E+03  0.46876980670E+03 -0.72523937359E+03  0.13893971126E+04  0.95000000000E+03 0.  0.
   -2000013    1    1    2    0    0 -0.53123164052E+03 -0.46876980670E+03 -0.14529297569E+04  0.18749552170E+04  0.95000000000E+03 0.  0.
<mgrwt>
<rscale>  0 0.24313731E+04</rscale>
<asrwt>0</asrwt>
<pdfrwt beam="2">  1        2 0.41865550E+00 0.24313731E+04</pdfrwt>
<pdfrwt beam="1">  1       -2 0.83552553E-01 0.24313731E+04</pdfrwt>
<totfact> 0.28982137E+00</totfact>
</mgrwt>
</event>
<event>
 4    1  0.1323225E-008  0.2316212E+04  0.7816531E-02  0.8471556E-01
         -2   -1    0    0    0  501 -0.00000000000E+00  0.00000000000E+00  0.11251169201E+04  0.11251169201E+04  0.00000000000E+00 0. -1.
          2   -1    0    0  501    0  0.00000000000E+00 -0.00000000000E+00 -0.11920627319E+04  0.11920627319E+04  0.00000000000E+00 0.  1.
    2000013    1    1    2    0    0  0.29950428135E+02 -0.64729910720E+03  0.10375867430E+03  0.11546250581E+04  0.95000000000E+03 0.  0.
   -2000013    1    1    2    0    0 -0.29950428135E+02  0.64729910720E+03 -0.17070448610E+03  0.11625545939E+04  0.95000000000E+03 0.  0.
<mgrwt>
<rscale>  0 0.23162124E+04</rscale>
<asrwt>0</asrwt>
<pdfrwt beam="2">  1        2 0.18339426E+00 0.23162124E+04</pdfrwt>
<pdfrwt beam="1">  1       -2 0.17309491E+00 0.23162124E+04</pdfrwt>
<totfact> 0.35135050E+00</totfact>
</mgrwt>
</event>
<event>
 4    1  0.1323225E-008  0.3223054E+04  0.7816531E-02  0.8182755E-01
         -2   -1    0    0    0  501 -0.00000000000E+00  0.00000000000E+00  0.81381617568E+03  0.81381617568E+03  0.00000000000E+00 0. -1.
          2   -1    0    0  501    0  0.00000000000E+00 -0.00000000000E+00 -0.31911610688E+04  0.31911610688E+04  0.00000000000E+00 0.  1.
    2000013    1    1    2    0    0  0.11948280527E+04 -0.31590710197E+03 -0.68071185691E+03  0.17009644337E+04  0.95000000000E+03 0.  0.
   -2000013    1    1    2    0    0 -0.11948280527E+04  0.31590710197E+03 -0.16966330362E+04  0.23040128108E+04  0.95000000000E+03 0.  0.
<mgrwt>
<rscale>  0 0.32230535E+04</rscale>
<asrwt>0</asrwt>
<pdfrwt beam="2">  1        2 0.49094785E+00 0.32230535E+04</pdfrwt>
<pdfrwt beam="1">  1       -2 0.12520249E+00 0.32230535E+04</pdfrwt>
<totfact> 0.52691161E-01</totfact>
</mgrwt>
</event>
<event>
 4    1  0.1323225E-008  0.2304509E+04  0.7816531E-02  0.8476146E-01
         -2   -1    0    0    0  501 -0.00000000000E+00  0.00000000000E+00  0.13301588827E+04  0.13301588827E+04  0.00000000000E+00 0. -1.
          2   -1    0    0  501    0  0.00000000000E+00 -0.00000000000E+00 -0.99814387924E+03  0.99814387924E+03  0.00000000000E+00 0.  1.
    2000013    1    1    2    0    0  0.41264891431E+03  0.38371297858E+03  0.49753450567E+03  0.12114269936E+04  0.95000000000E+03 0.  0.
   -2000013    1    1    2    0    0 -0.41264891431E+03 -0.38371297858E+03 -0.16551950220E+03  0.11168757684E+04  0.95000000000E+03 0.  0.
<mgrwt>
<rscale>  0 0.23045086E+04</rscale>
<asrwt>0</asrwt>
<pdfrwt beam="2">  1        2 0.15356060E+00 0.23045086E+04</pdfrwt>
<pdfrwt beam="1">  1       -2 0.20463983E+00 0.23045086E+04</pdfrwt>
<totfact> 0.28384170E+00</totfact>
</mgrwt>
</event>
<event>
 4    1  0.1323225E-008  0.2018635E+04  0.7816531E-02  0.8597957E-01
          2   -1    0    0  501    0  0.00000000000E+00  0.00000000000E+00  0.16205245386E+04  0.16205245386E+04  0.00000000000E+00 0. -1.
         -2   -1    0    0    0  501 -0.00000000000E+00 -0.00000000000E+00 -0.62863727730E+03  0.62863727730E+03  0.00000000000E+00 0.  1.
    2000013    1    1    2    0    0 -0.12411508899E+03 -0.29552436135E+03  0.36656725542E+03  0.10675255295E+04  0.95000000000E+03 0.  0.
   -2000013    1    1    2    0    0  0.12411508899E+03  0.29552436135E+03  0.62532000587E+03  0.11816362863E+04  0.95000000000E+03 0.  0.
<mgrwt>
<rscale>  0 0.20186353E+04</rscale>
<asrwt>0</asrwt>
<pdfrwt beam="1">  1        2 0.24931147E+00 0.20186353E+04</pdfrwt>
<pdfrwt beam="2">  1       -2 0.96713428E-01 0.20186353E+04</pdfrwt>
<totfact> 0.90053238E+00</totfact>
</mgrwt>
</event>
<event>
 4    1  0.1323225E-008  0.2247651E+04  0.7816531E-02  0.8498852E-01
         -2   -1    0    0    0  501 -0.00000000000E+00  0.00000000000E+00  0.65642076032E+03  0.65642076032E+03  0.00000000000E+00 0. -1.
          2   -1    0    0  501    0  0.00000000000E+00 -0.00000000000E+00 -0.19240463175E+04  0.19240463175E+04  0.00000000000E+00 0.  1.
    2000013    1    1    2    0    0  0.30858110677E+03  0.51242148768E+03 -0.57431351445E+03  0.12610051917E+04  0.95000000000E+03 0.  0.
   -2000013    1    1    2    0    0 -0.30858110677E+03 -0.51242148768E+03 -0.69331204276E+03  0.13194618862E+04  0.95000000000E+03 0.  0.
<mgrwt>
<rscale>  0 0.22476512E+04</rscale>
<asrwt>0</asrwt>
<pdfrwt beam="2">  1        2 0.29600712E+00 0.22476512E+04</pdfrwt>
<pdfrwt beam="1">  1       -2 0.10098781E+00 0.22476512E+04</pdfrwt>
<totfact> 0.54096782E+00</totfact>
</mgrwt>
</event>
<event>
 4    1  0.1323225E-008  0.2580889E+04  0.7816531E-02  0.8374722E-01
         -2   -1    0    0    0  501 -0.00000000000E+00  0.00000000000E+00  0.15138733642E+04  0.15138733642E+04  0.00000000000E+00 0. -1.
          2   -1    0    0  501    0  0.00000000000E+00 -0.00000000000E+00 -0.10999905560E+04  0.10999905560E+04  0.00000000000E+00 0.  1.
    2000013    1    1    2    0    0 -0.25352935668E+03 -0.75741566838E+03  0.56471226488E+03  0.13635818903E+04  0.95000000000E+03 0.  0.
   -2000013    1    1    2    0    0  0.25352935668E+03  0.75741566838E+03 -0.15082945668E+03  0.12502820299E+04  0.95000000000E+03 0.  0.
<mgrwt>
<rscale>  0 0.25808885E+04</rscale>
<asrwt>0</asrwt>
<pdfrwt beam="2">  1        2 0.16922932E+00 0.25808885E+04</pdfrwt>
<pdfrwt beam="1">  1       -2 0.23290359E+00 0.25808885E+04</pdfrwt>
<totfact> 0.15825761E+00</totfact>
</mgrwt>
</event>
<event>
 4    1  0.1323225E-008  0.2435446E+04  0.7816531E-02  0.8426351E-01
          2   -1    0    0  501    0  0.00000000000E+00  0.00000000000E+00  0.21789801597E+04  0.21789801597E+04  0.00000000000E+00 0.  1.
         -2   -1    0    0    0  501 -0.00000000000E+00 -0.00000000000E+00 -0.68052423827E+03  0.68052423827E+03  0.00000000000E+00 0. -1.
    2000013    1    1    2    0    0 -0.18111602800E+03 -0.70728960878E+03  0.10045475683E+04  0.15635464251E+04  0.95000000000E+03 0.  0.
   -2000013    1    1    2    0    0  0.18111602800E+03  0.70728960878E+03  0.49390835309E+03  0.12959579729E+04  0.95000000000E+03 0.  0.
<mgrwt>
<rscale>  0 0.24354456E+04</rscale>
<asrwt>0</asrwt>
<pdfrwt beam="1">  1        2 0.33522771E+00 0.24354456E+04</pdfrwt>
<pdfrwt beam="2">  1       -2 0.10469604E+00 0.24354456E+04</pdfrwt>
<totfact> 0.35213890E+00</totfact>
</mgrwt>
</event>
<event>
 4    1  0.1323225E-008  0.2833361E+04  0.7816531E-02  0.8292985E-01
          2   -1    0    0  501    0  0.00000000000E+00  0.00000000000E+00  0.27962432828E+04  0.27962432828E+04  0.00000000000E+00 0.  1.
         -2   -1    0    0    0  501 -0.00000000000E+00 -0.00000000000E+00 -0.71774274910E+03  0.71774274910E+03  0.00000000000E+00 0. -1.
    2000013    1    1    2    0    0 -0.59489889320E+03 -0.43627161482E+03  0.11095223992E+03  0.12079105987E+04  0.95000000000E+03 0.  0.
   -2000013    1    1    2    0    0  0.59489889320E+03  0.43627161482E+03  0.19675482937E+04  0.23060754331E+04  0.95000000000E+03 0.  0.
<mgrwt>
<rscale>  0 0.28333608E+04</rscale>
<asrwt>0</asrwt>
<pdfrwt beam="1">  1        2 0.43019127E+00 0.28333608E+04</pdfrwt>
<pdfrwt beam="2">  1       -2 0.11042196E+00 0.28333608E+04</pdfrwt>
<totfact> 0.13125809E+00</totfact>
</mgrwt>
</event>
<event>
 4    1  0.1323225E-008  0.2646169E+04  0.7816531E-02  0.8352686E-01
         -2   -1    0    0    0  501 -0.00000000000E+00  0.00000000000E+00  0.10286722400E+04  0.10286722400E+04  0.00000000000E+00 0. -1.
          2   -1    0    0  501    0  0.00000000000E+00 -0.00000000000E+00 -0.17017592821E+04  0.17017592821E+04  0.00000000000E+00 0.  1.
    2000013    1    1    2    0    0  0.63160631382E+03 -0.58516065655E+03 -0.67361529774E+03  0.14483083577E+04  0.95000000000E+03 0.  0.
   -2000013    1    1    2    0    0 -0.63160631382E+03  0.58516065655E+03  0.52825569391E+00  0.12821231644E+04  0.95000000000E+03 0.  0.
<mgrwt>
<rscale>  0 0.26461690E+04</rscale>
<asrwt>0</asrwt>
<pdfrwt beam="2">  1        2 0.26180912E+00 0.26461690E+04</pdfrwt>
<pdfrwt beam="1">  1       -2 0.15825727E+00 0.26461690E+04</pdfrwt>
<totfact> 0.22379432E+00</totfact>
</mgrwt>
</event>
<event>
 4    1  0.1323225E-008  0.2894657E+04  0.7816531E-02  0.8274469E-01
         -1   -1    0    0    0  501 -0.00000000000E+00  0.00000000000E+00  0.16694287187E+04  0.16694287187E+04  0.00000000000E+00 0. -1.
          1   -1    0    0  501    0  0.00000000000E+00 -0.00000000000E+00 -0.12547766919E+04  0.12547766919E+04  0.00000000000E+00 0.  1.
    2000013    1    1    2    0    0 -0.35038653503E+02  0.77416657488E+03 -0.56974553688E+03  0.13519140393E+04  0.95000000000E+03 0.  0.
   -2000013    1    1    2    0    0  0.35038653503E+02 -0.77416657488E+03  0.98439756368E+03  0.15722913713E+04  0.95000000000E+03 0.  0.
<mgrwt>
<rscale>  0 0.28946573E+04</rscale>
<asrwt>0</asrwt>
<pdfrwt beam="2">  1        1 0.19304257E+00 0.28946573E+04</pdfrwt>
<pdfrwt beam="1">  1       -1 0.25683519E+00 0.28946573E+04</pdfrwt>
<totfact> 0.52670278E-01</totfact>
</mgrwt>
</event>
<event>
 4    1  0.1323225E-008  0.2880862E+04  0.7816531E-02  0.8278595E-01
          2   -1    0    0  501    0  0.00000000000E+00  0.00000000000E+00  0.16228368633E+04  0.16228368633E+04  0.00000000000E+00 0.  1.
         -2   -1    0    0    0  501 -0.00000000000E+00 -0.00000000000E+00 -0.12785270902E+04  0.12785270902E+04  0.00000000000E+00 0. -1.
    2000013    1    1    2    0    0 -0.10496413861E+04 -0.63042404030E+02  0.43209932412E+03  0.14815300233E+04  0.95000000000E+03 0.  0.
   -2000013    1    1    2    0    0  0.10496413861E+04  0.63042404030E+02 -0.87789551009E+02  0.14198339302E+04  0.95000000000E+03 0.  0.
<mgrwt>
<rscale>  0 0.28808616E+04</rscale>
<asrwt>0</asrwt>
<pdfrwt beam="1">  1        2 0.24966721E+00 0.28808616E+04</pdfrwt>
<pdfrwt beam="2">  1       -2 0.19669648E+00 0.28808616E+04</pdfrwt>
<totfact> 0.13091692E+00</totfact>
</mgrwt>
</event>
<event>
 4    1  0.1323225E-008  0.2794089E+04  0.7816531E-02  0.8305106E-01
         -2   -1    0    0    0  501 -0.00000000000E+00  0.00000000000E+00  0.98582697630E+03  0.98582697630E+03  0.00000000000E+00 0. -1.
          2   -1    0    0  501    0  0.00000000000E+00 -0.00000000000E+00 -0.19797924443E+04  0.19797924443E+04  0.00000000000E+00 0.  1.
    2000013    1    1    2    0    0 -0.42133273127E+03  0.93188369145E+03 -0.55799482524E+03  0.15032586969E+04  0.95000000000E+03 0.  0.
   -2000013    1    1    2    0    0  0.42133273127E+03 -0.93188369145E+03 -0.43597064276E+03  0.14623607237E+04  0.95000000000E+03 0.  0.
<mgrwt>
<rscale>  0 0.27940886E+04</rscale>
<asrwt>0</asrwt>
<pdfrwt beam="2">  1        2 0.30458345E+00 0.27940886E+04</pdfrwt>
<pdfrwt beam="1">  1       -2 0.15166569E+00 0.27940886E+04</pdfrwt>
<totfact> 0.17368419E+00</totfact>
</mgrwt>
</event>
<event>
 4    1  0.1323225E-008  0.2533184E+04  0.7816531E-02  0.8391258E-01
         -2   -1    0    0    0  501 -0.00000000000E+00  0.00000000000E+00  0.33870516275E+04  0.33870516275E+04  0.00000000000E+00 0. -1.
          2   -1    0    0  501    0  0.00000000000E+00 -0.00000000000E+00 -0.47364361092E+03  0.47364361092E+03  0.00000000000E+00 0.  1.
    2000013    1    1    2    0    0 -0.31959320165E+03 -0.76395265463E+03  0.12639742957E+04  0.17849074187E+04  0.95000000000E+03 0.  0.
   -2000013    1    1    2    0    0  0.31959320165E+03  0.76395265463E+03  0.16494337208E+04  0.20757878197E+04  0.95000000000E+03 0.  0.
<mgrwt>
<rscale>  0 0.25331841E+04</rscale>
<asrwt>0</asrwt>
<pdfrwt beam="2">  1        2 0.72868250E-01 0.25331841E+04</pdfrwt>
<pdfrwt beam="1">  1       -2 0.52108485E+00 0.25331841E+04</pdfrwt>
<totfact> 0.71338003E-02</totfact>
</mgrwt>
</event>
<event>
 4    1  0.1323225E-008  0.3355449E+04  0.7816531E-02  0.8148928E-01
          2   -1    0    0  501    0  0.00000000000E+00  0.00000000000E+00  0.33486986753E+04  0.33486986753E+04  0.00000000000E+00 0.  1.
         -2   -1    0    0    0  501 -0.00000000000E+00 -0.00000000000E+00 -0.84055312669E+03  0.84055312669E+03  0.00000000000E+00 0. -1.
    2000013    1    1    2    0    0  0.10328373288E+04  0.91333546657E+03  0.13869332320E+04  0.21741707413E+04  0.95000000000E+03 0.  0.
   -2000013    1    1    2    0    0 -0.10328373288E+04 -0.91333546657E+03  0.11212123166E+04  0.20150810607E+04  0.95000000000E+03 0.  0.
<mgrwt>
<rscale>  0 0.33554488E+04</rscale>
<asrwt>0</asrwt>
<pdfrwt beam="1">  1        2 0.51518440E+00 0.33554488E+04</pdfrwt>
<pdfrwt beam="2">  1       -2 0.12931587E+00 0.33554488E+04</pdfrwt>
<totfact> 0.37758783E-01</totfact>
</mgrwt>
</event>
<event>
 4    1  0.1323225E-008  0.1988643E+04  0.7816531E-02  0.8611949E-01
          2   -1    0    0  501    0  0.00000000000E+00  0.00000000000E+00  0.27806206974E+04  0.27806206974E+04  0.00000000000E+00 0.  1.
         -2   -1    0    0    0  501 -0.00000000000E+00 -0.00000000000E+00 -0.35555934198E+03  0.35555934198E+03  0.00000000000E+00 0. -1.
    2000013    1    1    2    0    0  0.11415710948E+03  0.25933256103E+03  0.13335676448E+04  0.16616822459E+04  0.95000000000E+03 0.  0.
   -2000013    1    1    2    0    0 -0.11415710948E+03 -0.25933256103E+03  0.10914937106E+04  0.14744977935E+04  0.95000000000E+03 0.  0.
<mgrwt>
<rscale>  0 0.19886434E+04</rscale>
<asrwt>0</asrwt>
<pdfrwt beam="1">  1        2 0.42778779E+00 0.19886434E+04</pdfrwt>
<pdfrwt beam="2">  1       -2 0.54701439E-01 0.19886434E+04</pdfrwt>
<totfact> 0.69567357E+00</totfact>
</mgrwt>
</event>
<event>
 4    1  0.1323225E-008  0.2823849E+04  0.7816531E-02  0.8295902E-01
          2   -1    0    0  501    0  0.00000000000E+00  0.00000000000E+00  0.16916437207E+04  0.16916437207E+04  0.00000000000E+00 0.  1.
         -2   -1    0    0    0  501 -0.00000000000E+00 -0.00000000000E+00 -0.11784582411E+04  0.11784582411E+04  0.00000000000E+00 0. -1.
    2000013    1    1    2    0    0 -0.64770123552E+03  0.63561554359E+03 -0.26909002772E+03  0.13410568417E+04  0.95000000000E+03 0.  0.
   -2000013    1    1    2    0    0  0.64770123552E+03 -0.63561554359E+03  0.78227550734E+03  0.15290451200E+04  0.95000000000E+03 0.  0.
<mgrwt>
<rscale>  0 0.28238495E+04</rscale>
<asrwt>0</asrwt>
<pdfrwt beam="1">  1        2 0.26025288E+00 0.28238495E+04</pdfrwt>
<pdfrwt beam="2">  1       -2 0.18130127E+00 0.28238495E+04</pdfrwt>
<totfact> 0.15292619E+00</totfact>
</mgrwt>
</event>
<event>
 4    1  0.1323225E-008  0.2541993E+04  0.7816531E-02  0.8388176E-01
          2   -1    0    0  501    0  0.00000000000E+00  0.00000000000E+00  0.16457824652E+04  0.16457824652E+04  0.00000000000E+00 0.  1.
         -2   -1    0    0    0  501 -0.00000000000E+00 -0.00000000000E+00 -0.98155878741E+03  0.98155878741E+03  0.00000000000E+00 0. -1.
    2000013    1    1    2    0    0  0.52886604312E+03  0.28593402505E+03  0.94487005017E+03  0.14685833207E+04  0.95000000000E+03 0.  0.
   -2000013    1    1    2    0    0 -0.52886604312E+03 -0.28593402505E+03 -0.28064637242E+03  0.11587579318E+04  0.95000000000E+03 0.  0.
<mgrwt>
<rscale>  0 0.25419931E+04</rscale>
<asrwt>0</asrwt>
<pdfrwt beam="1">  1        2 0.25319730E+00 0.25419931E+04</pdfrwt>
<pdfrwt beam="2">  1       -2 0.15100904E+00 0.25419931E+04</pdfrwt>
<totfact> 0.27508321E+00</totfact>
</mgrwt>
</event>
<event>
 4    1  0.1323225E-008  0.2514856E+04  0.7816531E-02  0.8397712E-01
          2   -1    0    0  501    0  0.00000000000E+00  0.00000000000E+00  0.15314471163E+04  0.15314471163E+04  0.00000000000E+00 0.  1.
         -2   -1    0    0    0  501 -0.00000000000E+00 -0.00000000000E+00 -0.10324387793E+04  0.10324387793E+04  0.00000000000E+00 0. -1.
    2000013    1    1    2    0    0  0.36203874935E+03 -0.72345075339E+03  0.90998458168E+02  0.12510930293E+04  0.95000000000E+03 0.  0.
   -2000013    1    1    2    0    0 -0.36203874935E+03  0.72345075339E+03  0.40800987876E+03  0.13127928663E+04  0.95000000000E+03 0.  0.
<mgrwt>
<rscale>  0 0.25148562E+04</rscale>
<asrwt>0</asrwt>
<pdfrwt beam="1">  1        2 0.23560725E+00 0.25148562E+04</pdfrwt>
<pdfrwt beam="2">  1       -2 0.15883674E+00 0.25148562E+04</pdfrwt>
<totfact> 0.27895546E+00</totfact>
</mgrwt>
</event>
<event>
 4    1  0.1323225E-008  0.4585438E+04  0.7816531E-02  0.7895847E-01
          2   -1    0    0  501    0  0.00000000000E+00  0.00000000000E+00  0.22470594579E+04  0.22470594579E+04  0.00000000000E+00 0.  1.
         -2   -1    0    0    0  501 -0.00000000000E+00 -0.00000000000E+00 -0.23393066674E+04  0.23393066674E+04  0.00000000000E+00 0. -1.
    2000013    1    1    2    0    0  0.17387016982E+04  0.11332511032E+04  0.17006710138E+03  0.22888347423E+04  0.95000000000E+03 0.  0.
   -2000013    1    1    2    0    0 -0.17387016982E+04 -0.11332511032E+04 -0.26231431081E+03  0.22975313830E+04  0.95000000000E+03 0.  0.
<mgrwt>
<rscale>  0 0.45854383E+04</rscale>
<asrwt>0</asrwt>
<pdfrwt beam="1">  1        2 0.34570146E+00 0.45854383E+04</pdfrwt>
<pdfrwt beam="2">  1       -2 0.35989333E+00 0.45854383E+04</pdfrwt>
<totfact> 0.49234165E-02</totfact>
</mgrwt>
</event>
<event>
 4    1  0.1323225E-008  0.2016223E+04  0.7816531E-02  0.8599073E-01
         -2   -1    0    0    0  501 -0.00000000000E+00  0.00000000000E+00  0.79697279710E+03  0.79697279710E+03  0.00000000000E+00 0. -1.
          2   -1    0    0  501    0  0.00000000000E+00 -0.00000000000E+00 -0.12751858316E+04  0.12751858316E+04  0.00000000000E+00 0.  1.
    2000013    1    1    2    0    0 -0.30338473936E+03 -0.84513377120E+02 -0.11490851839E+03  0.10074168842E+04  0.95000000000E+03 0.  0.
   -2000013    1    1    2    0    0  0.30338473936E+03  0.84513377120E+02 -0.36330451607E+03  0.10647417445E+04  0.95000000000E+03 0.  0.
<mgrwt>
<rscale>  0 0.20162226E+04</rscale>
<asrwt>0</asrwt>
<pdfrwt beam="2">  1        2 0.19618244E+00 0.20162226E+04</pdfrwt>
<pdfrwt beam="1">  1       -2 0.12261120E+00 0.20162226E+04</pdfrwt>
<totfact> 0.79829684E+00</totfact>
</mgrwt>
</event>
<event>
 4    1  0.1323225E-008  0.2503937E+04  0.7816531E-02  0.8401584E-01
          2   -1    0    0  501    0  0.00000000000E+00  0.00000000000E+00  0.22217718115E+04  0.22217718115E+04  0.00000000000E+00 0.  1.
         -2   -1    0    0    0  501 -0.00000000000E+00 -0.00000000000E+00 -0.70548440644E+03  0.70548440644E+03  0.00000000000E+00 0. -1.
    2000013    1    1    2    0    0 -0.61005585295E+03  0.12341821143E+03  0.13740129146E+04  0.17826417723E+04  0.95000000000E+03 0.  0.
   -2000013    1    1    2    0    0  0.61005585295E+03 -0.12341821143E+03  0.14227449043E+03  0.11446144457E+04  0.95000000000E+03 0.  0.
<mgrwt>
<rscale>  0 0.25039372E+04</rscale>
<asrwt>0</asrwt>
<pdfrwt beam="1">  1        2 0.34181105E+00 0.25039372E+04</pdfrwt>
<pdfrwt beam="2">  1       -2 0.10853606E+00 0.25039372E+04</pdfrwt>
<totfact> 0.30372241E+00</totfact>
</mgrwt>
</event>
<event>
 4    1  0.1323225E-008  0.2172334E+04  0.7816531E-02  0.8530032E-01
         -2   -1    0    0    0  501 -0.00000000000E+00  0.00000000000E+00  0.99077016599E+03  0.99077016599E+03  0.00000000000E+00 0. -1.
          2   -1    0    0  501    0  0.00000000000E+00 -0.00000000000E+00 -0.11907491537E+04  0.11907491537E+04  0.00000000000E+00 0.  1.
    2000013    1    1    2    0    0  0.20630932550E+03 -0.48030097922E+03 -0.16355142112E+03  0.10965863558E+04  0.95000000000E+03 0.  0.
   -2000013    1    1    2    0    0 -0.20630932550E+03  0.48030097922E+03 -0.36427566567E+02  0.10849329638E+04  0.95000000000E+03 0.  0.
<mgrwt>
<rscale>  0 0.21723340E+04</rscale>
<asrwt>0</asrwt>
<pdfrwt beam="2">  1        2 0.18319218E+00 0.21723340E+04</pdfrwt>
<pdfrwt beam="1">  1       -2 0.15242618E+00 0.21723340E+04</pdfrwt>
<totfact> 0.50460790E+00</totfact>
</mgrwt>
</event>
<event>
 4    1  0.1323225E-008  0.2535697E+04  0.7816531E-02  0.8390377E-01
         -2   -1    0    0    0  501 -0.00000000000E+00  0.00000000000E+00  0.16452840332E+04  0.16452840332E+04  0.00000000000E+00 0. -1.
          2   -1    0    0  501    0  0.00000000000E+00 -0.00000000000E+00 -0.97699851989E+03  0.97699851989E+03  0.00000000000E+00 0.  1.
    2000013    1    1    2    0    0 -0.42169659288E+02 -0.83378035433E+03  0.24180727432E+03  0.12876096914E+04  0.95000000000E+03 0.  0.
   -2000013    1    1    2    0    0  0.42169659288E+02  0.83378035433E+03  0.42647823897E+03  0.13346728617E+04  0.95000000000E+03 0.  0.
<mgrwt>
<rscale>  0 0.25356972E+04</rscale>
<asrwt>0</asrwt>
<pdfrwt beam="2">  1        2 0.15030746E+00 0.25356972E+04</pdfrwt>
<pdfrwt beam="1">  1       -2 0.25312062E+00 0.25356972E+04</pdfrwt>
<totfact> 0.14250573E+00</totfact>
</mgrwt>
</event>
<event>
 4    1  0.1323225E-008  0.2551967E+04  0.7816531E-02  0.8384702E-01
          2   -1    0    0  501    0  0.00000000000E+00  0.00000000000E+00  0.13760721726E+04  0.13760721726E+04  0.00000000000E+00 0.  1.
         -2   -1    0    0    0  501 -0.00000000000E+00 -0.00000000000E+00 -0.11831747827E+04  0.11831747827E+04  0.00000000000E+00 0. -1.
    2000013    1    1    2    0    0  0.77373642324E+03  0.35467525353E+03  0.62126721136E+02  0.12770365373E+04  0.95000000000E+03 0.  0.
   -2000013    1    1    2    0    0 -0.77373642324E+03 -0.35467525353E+03  0.13077066873E+03  0.12822104180E+04  0.95000000000E+03 0.  0.
<mgrwt>
<rscale>  0 0.25519670E+04</rscale>
<asrwt>0</asrwt>
<pdfrwt beam="1">  1        2 0.21170341E+00 0.25519670E+04</pdfrwt>
<pdfrwt beam="2">  1       -2 0.18202689E+00 0.25519670E+04</pdfrwt>
<totfact> 0.23292121E+00</totfact>
</mgrwt>
</event>
<event>
 4    1  0.1323225E-008  0.2379876E+04  0.7816531E-02  0.8447076E-01
          2   -1    0    0  501    0  0.00000000000E+00  0.00000000000E+00  0.82681399008E+03  0.82681399008E+03  0.00000000000E+00 0.  1.
         -2   -1    0    0    0  501 -0.00000000000E+00 -0.00000000000E+00 -0.17125401350E+04  0.17125401350E+04  0.00000000000E+00 0. -1.
    2000013    1    1    2    0    0  0.56172373146E+03  0.42488103893E+03 -0.58359005934E+03  0.13187626038E+04  0.95000000000E+03 0.  0.
   -2000013    1    1    2    0    0 -0.56172373146E+03 -0.42488103893E+03 -0.30213608560E+03  0.12205915213E+04  0.95000000000E+03 0.  0.
<mgrwt>
<rscale>  0 0.23798757E+04</rscale>
<asrwt>0</asrwt>
<pdfrwt beam="1">  1        2 0.12720215E+00 0.23798757E+04</pdfrwt>
<pdfrwt beam="2">  1       -2 0.26346771E+00 0.23798757E+04</pdfrwt>
<totfact> 0.15770508E+00</totfact>
</mgrwt>
</event>
<event>
 4    1  0.1323225E-008  0.2099619E+04  0.7816531E-02  0.8561411E-01
          2   -1    0    0  501    0  0.00000000000E+00  0.00000000000E+00  0.98661604017E+03  0.98661604017E+03  0.00000000000E+00 0. -1.
         -2   -1    0    0    0  501 -0.00000000000E+00 -0.00000000000E+00 -0.11170502776E+04  0.11170502776E+04  0.00000000000E+00 0.  1.
    2000013    1    1    2    0    0  0.37921590700E+03 -0.22184332051E+03  0.16059905132E+02  0.10467937158E+04  0.95000000000E+03 0.  0.
   -2000013    1    1    2    0    0 -0.37921590700E+03  0.22184332051E+03 -0.14649414261E+03  0.10568726020E+04  0.95000000000E+03 0.  0.
<mgrwt>
<rscale>  0 0.20996187E+04</rscale>
<asrwt>0</asrwt>
<pdfrwt beam="1">  1        2 0.15178708E+00 0.20996187E+04</pdfrwt>
<pdfrwt beam="2">  1       -2 0.17185389E+00 0.20996187E+04</pdfrwt>
<totfact> 0.48952769E+00</totfact>
</mgrwt>
</event>
<event>
 4    1  0.1323225E-008  0.2562693E+04  0.7816531E-02  0.8380985E-01
         -2   -1    0    0    0  501 -0.00000000000E+00  0.00000000000E+00  0.47556256463E+03  0.47556256463E+03  0.00000000000E+00 0. -1.
          2   -1    0    0  501    0  0.00000000000E+00 -0.00000000000E+00 -0.34524350188E+04  0.34524350188E+04  0.00000000000E+00 0.  1.
    2000013    1    1    2    0    0  0.85618162784E+03  0.37998200024E+02 -0.13816036330E+04  0.18830346364E+04  0.95000000000E+03 0.  0.
   -2000013    1    1    2    0    0 -0.85618162784E+03 -0.37998200024E+02 -0.15952688211E+04  0.20449629470E+04  0.95000000000E+03 0.  0.
<mgrwt>
<rscale>  0 0.25626930E+04</rscale>
<asrwt>0</asrwt>
<pdfrwt beam="2">  1        2 0.53114384E+00 0.25626930E+04</pdfrwt>
<pdfrwt beam="1">  1       -2 0.73163473E-01 0.25626930E+04</pdfrwt>
<totfact> 0.13143299E+00</totfact>
</mgrwt>
</event>
<event>
 4    1  0.1323225E-008  0.2630516E+04  0.7816531E-02  0.8357909E-01
         -2   -1    0    0    0  501 -0.00000000000E+00  0.00000000000E+00  0.43530691363E+03  0.43530691363E+03  0.00000000000E+00 0. -1.
          2   -1    0    0  501    0  0.00000000000E+00 -0.00000000000E+00 -0.39739858022E+04  0.39739858022E+04  0.00000000000E+00 0.  1.
    2000013    1    1    2    0    0 -0.47161998521E+03 -0.77669536600E+03 -0.18389049655E+04  0.22604761830E+04  0.95000000000E+03 0.  0.
   -2000013    1    1    2    0    0  0.47161998521E+03  0.77669536600E+03 -0.16997739231E+04  0.21488165328E+04  0.95000000000E+03 0.  0.
<mgrwt>
<rscale>  0 0.26305159E+04</rscale>
<asrwt>0</asrwt>
<pdfrwt beam="2">  1        2 0.61138245E+00 0.26305159E+04</pdfrwt>
<pdfrwt beam="1">  1       -2 0.66970292E-01 0.26305159E+04</pdfrwt>
<totfact> 0.64976183E-01</totfact>
</mgrwt>
</event>
<event>
 4    1  0.1323225E-008  0.2629944E+04  0.7816531E-02  0.8358101E-01
         -2   -1    0    0    0  501 -0.00000000000E+00  0.00000000000E+00  0.40615649390E+03  0.40615649390E+03  0.00000000000E+00 0. -1.
          2   -1    0    0  501    0  0.00000000000E+00 -0.00000000000E+00 -0.42573517862E+04  0.42573517862E+04  0.00000000000E+00 0.  1.
    2000013    1    1    2    0    0  0.82171018434E+03 -0.28164305877E+03 -0.14493903352E+04  0.19384949789E+04  0.95000000000E+03 0.  0.
   -2000013    1    1    2    0    0 -0.82171018434E+03  0.28164305877E+03 -0.24018049571E+04  0.27250133012E+04  0.95000000000E+03 0.  0.
<mgrwt>
<rscale>  0 0.26299438E+04</rscale>
<asrwt>0</asrwt>
<pdfrwt beam="2">  1        2 0.65497719E+00 0.26299438E+04</pdfrwt>
<pdfrwt beam="1">  1       -2 0.62485615E-01 0.26299438E+04</pdfrwt>
<totfact> 0.43541645E-01</totfact>
</mgrwt>
</event>
<event>
 4    1  0.1323225E-008  0.2255022E+04  0.7816531E-02  0.8495869E-01
         -2   -1    0    0    0  501 -0.00000000000E+00  0.00000000000E+00  0.51627727316E+03  0.51627727316E+03  0.00000000000E+00 0. -1.
          2   -1    0    0  501    0  0.00000000000E+00 -0.00000000000E+00 -0.24624001566E+04  0.24624001566E+04  0.00000000000E+00 0.  1.
    2000013    1    1    2    0    0 -0.46855435792E+03  0.23860276869E+03 -0.13743801809E+04  0.17515408500E+04  0.95000000000E+03 0.  0.
   -2000013    1    1    2    0    0  0.46855435792E+03 -0.23860276869E+03 -0.57174270257E+03  0.12271365798E+04  0.95000000000E+03 0.  0.
<mgrwt>
<rscale>  0 0.22550222E+04</rscale>
<asrwt>0</asrwt>
<pdfrwt beam="2">  1        2 0.37883079E+00 0.22550222E+04</pdfrwt>
<pdfrwt beam="1">  1       -2 0.79427274E-01 0.22550222E+04</pdfrwt>
<totfact> 0.46785384E+00</totfact>
</mgrwt>
</event>
<event>
 4    1  0.1323225E-008  0.2217993E+04  0.7816531E-02  0.8510976E-01
         -2   -1    0    0    0  501 -0.00000000000E+00  0.00000000000E+00  0.52184458683E+03  0.52184458683E+03  0.00000000000E+00 0. -1.
          2   -1    0    0  501    0  0.00000000000E+00 -0.00000000000E+00 -0.23567801564E+04  0.23567801564E+04  0.00000000000E+00 0.  1.
    2000013    1    1    2    0    0  0.42468210087E+03 -0.15801788587E+03 -0.13708777128E+04  0.17283316356E+04  0.95000000000E+03 0.  0.
   -2000013    1    1    2    0    0 -0.42468210087E+03  0.15801788587E+03 -0.46405785674E+03  0.11502931076E+04  0.95000000000E+03 0.  0.
<mgrwt>
<rscale>  0 0.22179928E+04</rscale>
<asrwt>0</asrwt>
<pdfrwt beam="2">  1        2 0.36258157E+00 0.22179928E+04</pdfrwt>
<pdfrwt beam="1">  1       -2 0.80283781E-01 0.22179928E+04</pdfrwt>
<totfact> 0.52668902E+00</totfact>
</mgrwt>
</event>
<event>
 4    1  0.1323225E-008  0.2741359E+04  0.7816531E-02  0.8321709E-01
         -2   -1    0    0    0  501 -0.00000000000E+00  0.00000000000E+00  0.69765757359E+03  0.69765757359E+03  0.00000000000E+00 0. -1.
          2   -1    0    0  501    0  0.00000000000E+00 -0.00000000000E+00 -0.26929585405E+04  0.26929585405E+04  0.00000000000E+00 0.  1.
    2000013    1    1    2    0    0 -0.72477920355E+03  0.34839364834E+02 -0.18271104762E+04  0.21834265198E+04  0.95000000000E+03 0.  0.
   -2000013    1    1    2    0    0  0.72477920355E+03 -0.34839364834E+02 -0.16819049068E+03  0.12071895942E+04  0.95000000000E+03 0.  0.
<mgrwt>
<rscale>  0 0.27413595E+04</rscale>
<asrwt>0</asrwt>
<pdfrwt beam="2">  1        2 0.41430130E+00 0.27413595E+04</pdfrwt>
<pdfrwt beam="1">  1       -2 0.10733194E+00 0.27413595E+04</pdfrwt>
<totfact> 0.16339940E+00</totfact>
</mgrwt>
</event>
<event>
 4    1  0.1323225E-008  0.3721502E+04  0.7816531E-02  0.8063213E-01
         -2   -1    0    0    0  501 -0.00000000000E+00  0.00000000000E+00  0.10024610303E+04  0.10024610303E+04  0.00000000000E+00 0. -1.
          2   -1    0    0  501    0  0.00000000000E+00 -0.00000000000E+00 -0.34538936087E+04  0.34538936087E+04  0.00000000000E+00 0.  1.
    2000013    1    1    2    0    0  0.56119752852E+03 -0.13265675088E+04 -0.39163502086E+03  0.17693507314E+04  0.95000000000E+03 0.  0.
   -2000013    1    1    2    0    0 -0.56119752852E+03  0.13265675088E+04 -0.20597975575E+04  0.26870039075E+04  0.95000000000E+03 0.  0.
<mgrwt>
<rscale>  0 0.37215017E+04</rscale>
<asrwt>0</asrwt>
<pdfrwt beam="2">  1        2 0.53136824E+00 0.37215017E+04</pdfrwt>
<pdfrwt beam="1">  1       -2 0.15422478E+00 0.37215017E+04</pdfrwt>
<totfact> 0.19623160E-01</totfact>
</mgrwt>
</event>
<event>
 4    1  0.1323225E-008  0.3278584E+04  0.7816531E-02  0.8168366E-01
          2   -1    0    0  501    0  0.00000000000E+00  0.00000000000E+00  0.14740189123E+04  0.14740189123E+04  0.00000000000E+00 0.  1.
         -2   -1    0    0    0  501 -0.00000000000E+00 -0.00000000000E+00 -0.18230959785E+04  0.18230959785E+04  0.00000000000E+00 0. -1.
    2000013    1    1    2    0    0  0.10180393101E+04  0.71720889486E+03  0.31191581789E+03  0.15970548247E+04  0.95000000000E+03 0.  0.
   -2000013    1    1    2    0    0 -0.10180393101E+04 -0.71720889486E+03 -0.66099288400E+03  0.17000600661E+04  0.95000000000E+03 0.  0.
<mgrwt>
<rscale>  0 0.32785838E+04</rscale>
<asrwt>0</asrwt>
<pdfrwt beam="1">  1        2 0.22677214E+00 0.32785838E+04</pdfrwt>
<pdfrwt beam="2">  1       -2 0.28047630E+00 0.32785838E+04</pdfrwt>
<totfact> 0.45955667E-01</totfact>
</mgrwt>
</event>
<event>
 4    1  0.1323225E-008  0.3938435E+04  0.7816531E-02  0.8017083E-01
          2   -1    0    0  501    0  0.00000000000E+00  0.00000000000E+00  0.31031537055E+04  0.31031537055E+04  0.00000000000E+00 0.  1.
         -2   -1    0    0    0  501 -0.00000000000E+00 -0.00000000000E+00 -0.12496377070E+04  0.12496377070E+04  0.00000000000E+00 0. -1.
    2000013    1    1    2    0    0 -0.78447832255E+03 -0.13490384720E+04  0.11459390046E+03  0.18305580568E+04  0.95000000000E+03 0.  0.
   -2000013    1    1    2    0    0  0.78447832255E+03  0.13490384720E+04  0.17389220980E+04  0.25222333557E+04  0.95000000000E+03 0.  0.
<mgrwt>
<rscale>  0 0.39384352E+04</rscale>
<asrwt>0</asrwt>
<pdfrwt beam="1">  1        2 0.47740826E+00 0.39384352E+04</pdfrwt>
<pdfrwt beam="2">  1       -2 0.19225196E+00 0.39384352E+04</pdfrwt>
<totfact> 0.17763825E-01</totfact>
</mgrwt>
</event>
<event>
 4    1  0.1323225E-008  0.3232435E+04  0.7816531E-02  0.8180303E-01
         -2   -1    0    0    0  501 -0.00000000000E+00  0.00000000000E+00  0.19660723247E+04  0.19660723247E+04  0.00000000000E+00 0. -1.
          2   -1    0    0  501    0  0.00000000000E+00 -0.00000000000E+00 -0.13286178063E+04  0.13286178063E+04  0.00000000000E+00 0.  1.
    2000013    1    1    2    0    0 -0.15373604747E+03 -0.10532017169E+04  0.10928212350E+04  0.17971162679E+04  0.95000000000E+03 0.  0.
   -2000013    1    1    2    0    0  0.15373604747E+03  0.10532017169E+04 -0.45536671660E+03  0.14975738630E+04  0.95000000000E+03 0.  0.
<mgrwt>
<rscale>  0 0.32324348E+04</rscale>
<asrwt>0</asrwt>
<pdfrwt beam="2">  1        2 0.20440274E+00 0.32324348E+04</pdfrwt>
<pdfrwt beam="1">  1       -2 0.30247267E+00 0.32324348E+04</pdfrwt>
<totfact> 0.41004938E-01</totfact>
</mgrwt>
</event>
<event>
 4    1  0.1323225E-008  0.2348031E+04  0.7816531E-02  0.8459220E-01
          2   -1    0    0  501    0  0.00000000000E+00  0.00000000000E+00  0.42609863367E+03  0.42609863367E+03  0.00000000000E+00 0.  1.
         -2   -1    0    0    0  501 -0.00000000000E+00 -0.00000000000E+00 -0.32347249045E+04  0.32347249045E+04  0.00000000000E+00 0. -1.
    2000013    1    1    2    0    0  0.30300816555E+03  0.58619425909E+03 -0.10910371960E+04  0.15900628355E+04  0.95000000000E+03 0.  0.
   -2000013    1    1    2    0    0 -0.30300816555E+03 -0.58619425909E+03 -0.17175890749E+04  0.20707607027E+04  0.95000000000E+03 0.  0.
<mgrwt>
<rscale>  0 0.23480305E+04</rscale>
<asrwt>0</asrwt>
<pdfrwt beam="1">  1        2 0.65553638E-01 0.23480305E+04</pdfrwt>
<pdfrwt beam="2">  1       -2 0.49764997E+00 0.23480305E+04</pdfrwt>
<totfact> 0.11359589E-01</totfact>
</mgrwt>
</event>
<event>
 4    1  0.1323225E-008  0.2339662E+04  0.7816531E-02  0.8462445E-01
          2   -1    0    0  501    0  0.00000000000E+00  0.00000000000E+00  0.15802577280E+04  0.15802577280E+04  0.00000000000E+00 0.  1.
         -2   -1    0    0    0  501 -0.00000000000E+00 -0.00000000000E+00 -0.86600077867E+03  0.86600077867E+03  0.00000000000E+00 0. -1.
    2000013    1    1    2    0    0  0.55386168472E+03 -0.33403562820E+03  0.12886589195E+03  0.11564812946E+04  0.95000000000E+03 0.  0.
   -2000013    1    1    2    0    0 -0.55386168472E+03  0.33403562820E+03  0.58539105742E+03  0.12897772121E+04  0.95000000000E+03 0.  0.
<mgrwt>
<rscale>  0 0.23396619E+04</rscale>
<asrwt>0</asrwt>
<pdfrwt beam="1">  1        2 0.24311657E+00 0.23396619E+04</pdfrwt>
<pdfrwt beam="2">  1       -2 0.13323089E+00 0.23396619E+04</pdfrwt>
<totfact> 0.42188271E+00</totfact>
</mgrwt>
</event>
<event>
 4    1  0.1323225E-008  0.2860637E+04  0.7816531E-02  0.8284686E-01
         -2   -1    0    0    0  501 -0.00000000000E+00  0.00000000000E+00  0.49544330604E+03  0.49544330604E+03  0.00000000000E+00 0. -1.
          2   -1    0    0  501    0  0.00000000000E+00 -0.00000000000E+00 -0.41292543907E+04  0.41292543907E+04  0.00000000000E+00 0.  1.
    2000013    1    1    2    0    0  0.78089863407E+03  0.60780650673E+03 -0.11620456348E+04  0.17977990666E+04  0.95000000000E+03 0.  0.
   -2000013    1    1    2    0    0 -0.78089863407E+03 -0.60780650673E+03 -0.24717654498E+04  0.28268986301E+04  0.95000000000E+03 0.  0.
<mgrwt>
<rscale>  0 0.28606373E+04</rscale>
<asrwt>0</asrwt>
<pdfrwt beam="2">  1        2 0.63526992E+00 0.28606373E+04</pdfrwt>
<pdfrwt beam="1">  1       -2 0.76222045E-01 0.28606373E+04</pdfrwt>
<totfact> 0.35680177E-01</totfact>
</mgrwt>
</event>
<event>
 4    1  0.1323225E-008  0.2621302E+04  0.7816531E-02  0.8361001E-01
         -2   -1    0    0    0  501 -0.00000000000E+00  0.00000000000E+00  0.57111367007E+03  0.57111367007E+03  0.00000000000E+00 0. -1.
          2   -1    0    0  501    0  0.00000000000E+00 -0.00000000000E+00 -0.30078175071E+04  0.30078175071E+04  0.00000000000E+00 0.  1.
    2000013    1    1    2    0    0  0.81673255947E+03 -0.23300148764E+03 -0.16368725913E+04  0.20744140491E+04  0.95000000000E+03 0.  0.
   -2000013    1    1    2    0    0 -0.81673255947E+03  0.23300148764E+03 -0.79983124563E+03  0.15045171280E+04  0.95000000000E+03 0.  0.
<mgrwt>
<rscale>  0 0.26213017E+04</rscale>
<asrwt>0</asrwt>
<pdfrwt beam="2">  1        2 0.46274117E+00 0.26213017E+04</pdfrwt>
<pdfrwt beam="1">  1       -2 0.87863638E-01 0.26213017E+04</pdfrwt>
<totfact> 0.16977167E+00</totfact>
</mgrwt>
</event>
<event>
 4    1  0.1323225E-008  0.2377129E+04  0.7816531E-02  0.8448116E-01
          2   -1    0    0  501    0  0.00000000000E+00  0.00000000000E+00  0.19193249776E+04  0.19193249776E+04  0.00000000000E+00 0.  1.
         -2   -1    0    0    0  501 -0.00000000000E+00 -0.00000000000E+00 -0.73603231843E+03  0.73603231843E+03  0.00000000000E+00 0. -1.
    2000013    1    1    2    0    0  0.53943334456E+03  0.43950276820E+03  0.41140998888E+03  0.12473608922E+04  0.95000000000E+03 0.  0.
   -2000013    1    1    2    0    0 -0.53943334456E+03 -0.43950276820E+03  0.77188267027E+03  0.14079964038E+04  0.95000000000E+03 0.  0.
<mgrwt>
<rscale>  0 0.23771287E+04</rscale>
<asrwt>0</asrwt>
<pdfrwt beam="1">  1        2 0.29528076E+00 0.23771287E+04</pdfrwt>
<pdfrwt beam="2">  1       -2 0.11323574E+00 0.23771287E+04</pdfrwt>
<totfact> 0.40867187E+00</totfact>
</mgrwt>
</event>
<event>
 4    1  0.1323225E-008  0.2682015E+04  0.7816531E-02  0.8340864E-01
          2   -1    0    0  501    0  0.00000000000E+00  0.00000000000E+00  0.12937337379E+04  0.12937337379E+04  0.00000000000E+00 0.  1.
         -2   -1    0    0    0  501 -0.00000000000E+00 -0.00000000000E+00 -0.13900085842E+04  0.13900085842E+04  0.00000000000E+00 0. -1.
    2000013    1    1    2    0    0 -0.82008637462E+03  0.40488591515E+03 -0.29186510120E+03  0.13506144910E+04  0.95000000000E+03 0.  0.
   -2000013    1    1    2    0    0  0.82008637462E+03 -0.40488591515E+03  0.19559025487E+03  0.13331278311E+04  0.95000000000E+03 0.  0.
<mgrwt>
<rscale>  0 0.26820149E+04</rscale>
<asrwt>0</asrwt>
<pdfrwt beam="1">  1        2 0.19903596E+00 0.26820149E+04</pdfrwt>
<pdfrwt beam="2">  1       -2 0.21384747E+00 0.26820149E+04</pdfrwt>
<totfact> 0.15844690E+00</totfact>
</mgrwt>
</event>
<event>
 4    1  0.1323225E-008  0.3116281E+04  0.7816531E-02  0.8211284E-01
         -2   -1    0    0    0  501 -0.00000000000E+00  0.00000000000E+00  0.59405690808E+03  0.59405690808E+03  0.00000000000E+00 0. -1.
          2   -1    0    0  501    0  0.00000000000E+00 -0.00000000000E+00 -0.40868158750E+04  0.40868158750E+04  0.00000000000E+00 0.  1.
    2000013    1    1    2    0    0  0.52479179437E+03 -0.86732240370E+03 -0.28060011063E+04  0.31311015295E+04  0.95000000000E+03 0.  0.
   -2000013    1    1    2    0    0 -0.52479179437E+03  0.86732240370E+03 -0.68675786066E+03  0.15497712536E+04  0.95000000000E+03 0.  0.
<mgrwt>
<rscale>  0 0.31162806E+04</rscale>
<asrwt>0</asrwt>
<pdfrwt beam="2">  1        2 0.62874091E+00 0.31162806E+04</pdfrwt>
<pdfrwt beam="1">  1       -2 0.91393370E-01 0.31162806E+04</pdfrwt>
<totfact> 0.25068736E-01</totfact>
</mgrwt>
</event>
<event>
 4    1  0.1323225E-008  0.2752875E+04  0.7816531E-02  0.8318050E-01
         -2   -1    0    0    0  501 -0.00000000000E+00  0.00000000000E+00  0.15007333723E+04  0.15007333723E+04  0.00000000000E+00 0. -1.
          2   -1    0    0  501    0  0.00000000000E+00 -0.00000000000E+00 -0.12624361482E+04  0.12624361482E+04  0.00000000000E+00 0.  1.
    2000013    1    1    2    0    0 -0.70388736160E+02  0.98926382832E+03  0.21159385515E+03  0.13895572877E+04  0.95000000000E+03 0.  0.
   -2000013    1    1    2    0    0  0.70388736160E+02 -0.98926382832E+03  0.26703369016E+02  0.13736122328E+04  0.95000000000E+03 0.  0.
<mgrwt>
<rscale>  0 0.27528749E+04</rscale>
<asrwt>0</asrwt>
<pdfrwt beam="2">  1        2 0.19422095E+00 0.27528749E+04</pdfrwt>
<pdfrwt beam="1">  1       -2 0.23088206E+00 0.27528749E+04</pdfrwt>
<totfact> 0.12824669E+00</totfact>
</mgrwt>
</event>
<event>
 4    1  0.1323225E-008  0.2750108E+04  0.7816531E-02  0.8318927E-01
          2   -1    0    0  501    0  0.00000000000E+00  0.00000000000E+00  0.25593058956E+04  0.25593058956E+04  0.00000000000E+00 0.  1.
         -2   -1    0    0    0  501 -0.00000000000E+00 -0.00000000000E+00 -0.73878366669E+03  0.73878366669E+03  0.00000000000E+00 0. -1.
    2000013    1    1    2    0    0  0.49700420872E+03 -0.84704475984E+03  0.10951779649E+04  0.17511175813E+04  0.95000000000E+03 0.  0.
   -2000013    1    1    2    0    0 -0.49700420872E+03  0.84704475984E+03  0.72534426395E+03  0.15469719810E+04  0.95000000000E+03 0.  0.
<mgrwt>
<rscale>  0 0.27501079E+04</rscale>
<asrwt>0</asrwt>
<pdfrwt beam="1">  1        2 0.39373936E+00 0.27501079E+04</pdfrwt>
<pdfrwt beam="2">  1       -2 0.11365903E+00 0.27501079E+04</pdfrwt>
<totfact> 0.17039891E+00</totfact>
</mgrwt>
</event>
<event>
 4    1  0.1323225E-008  0.2214086E+04  0.7816531E-02  0.8512588E-01
         -2   -1    0    0    0  501 -0.00000000000E+00  0.00000000000E+00  0.63492671834E+03  0.63492671834E+03  0.00000000000E+00 0. -1.
          2   -1    0    0  501    0  0.00000000000E+00 -0.00000000000E+00 -0.19302136336E+04  0.19302136336E+04  0.00000000000E+00 0.  1.
    2000013    1    1    2    0    0 -0.18856452626E+03 -0.50508060343E+03 -0.85612287907E+03  0.13878434280E+04  0.95000000000E+03 0.  0.
   -2000013    1    1    2    0    0  0.18856452626E+03  0.50508060343E+03 -0.43916403622E+03  0.11772969240E+04  0.95000000000E+03 0.  0.
<mgrwt>
<rscale>  0 0.22140860E+04</rscale>
<asrwt>0</asrwt>
<pdfrwt beam="2">  1        2 0.29695595E+00 0.22140860E+04</pdfrwt>
<pdfrwt beam="1">  1       -2 0.97681033E-01 0.22140860E+04</pdfrwt>
<totfact> 0.58230800E+00</totfact>
</mgrwt>
</event>
<event>
 4    1  0.1323225E-008  0.3702394E+04  0.7816531E-02  0.8067431E-01
         -2   -1    0    0    0  501 -0.00000000000E+00  0.00000000000E+00  0.17223512326E+04  0.17223512326E+04  0.00000000000E+00 0. -1.
          2   -1    0    0  501    0  0.00000000000E+00 -0.00000000000E+00 -0.19896816532E+04  0.19896816532E+04  0.00000000000E+00 0.  1.
    2000013    1    1    2    0    0  0.72128759425E+03  0.39975405481E+01 -0.15530339455E+04  0.19582354837E+04  0.95000000000E+03 0.  0.
   -2000013    1    1    2    0    0 -0.72128759425E+03 -0.39975405481E+01  0.12857035248E+04  0.17537974021E+04  0.95000000000E+03 0.  0.
<mgrwt>
<rscale>  0 0.37023942E+04</rscale>
<asrwt>0</asrwt>
<pdfrwt beam="2">  1        2 0.30610487E+00 0.37023942E+04</pdfrwt>
<pdfrwt beam="1">  1       -2 0.26497712E+00 0.37023942E+04</pdfrwt>
<totfact> 0.28464985E-01</totfact>
</mgrwt>
</event>
<event>
 4    1  0.1323225E-008  0.2619065E+04  0.7816531E-02  0.8361754E-01
         -2   -1    0    0    0  501 -0.00000000000E+00  0.00000000000E+00  0.63572477130E+03  0.63572477130E+03  0.00000000000E+00 0. -1.
          2   -1    0    0  501    0  0.00000000000E+00 -0.00000000000E+00 -0.26975115902E+04  0.26975115902E+04  0.00000000000E+00 0.  1.
    2000013    1    1    2    0    0  0.13853526366E+03 -0.56975262519E+03 -0.19020670949E+04  0.22054861838E+04  0.95000000000E+03 0.  0.
   -2000013    1    1    2    0    0 -0.13853526366E+03  0.56975262519E+03 -0.15971972398E+03  0.11277501777E+04  0.95000000000E+03 0.  0.
<mgrwt>
<rscale>  0 0.26190647E+04</rscale>
<asrwt>0</asrwt>
<pdfrwt beam="2">  1        2 0.41500178E+00 0.26190647E+04</pdfrwt>
<pdfrwt beam="1">  1       -2 0.97803811E-01 0.26190647E+04</pdfrwt>
<totfact> 0.20480432E+00</totfact>
</mgrwt>
</event>
<event>
 4    1  0.1323225E-008  0.2105551E+04  0.7816531E-02  0.8558802E-01
          2   -1    0    0  501    0  0.00000000000E+00  0.00000000000E+00  0.22502401708E+04  0.22502401708E+04  0.00000000000E+00 0.  1.
         -2   -1    0    0    0  501 -0.00000000000E+00 -0.00000000000E+00 -0.49254109313E+03  0.49254109313E+03  0.00000000000E+00 0. -1.
    2000013    1    1    2    0    0  0.11790132384E+03  0.42567312673E+03  0.74386765384E+03  0.12848880961E+04  0.95000000000E+03 0.  0.
   -2000013    1    1    2    0    0 -0.11790132384E+03 -0.42567312673E+03  0.10138314238E+04  0.14578931679E+04  0.95000000000E+03 0.  0.
<mgrwt>
<rscale>  0 0.21055505E+04</rscale>
<asrwt>0</asrwt>
<pdfrwt beam="1">  1        2 0.34619079E+00 0.21055505E+04</pdfrwt>
<pdfrwt beam="2">  1       -2 0.75775554E-01 0.21055505E+04</pdfrwt>
<totfact> 0.69545085E+00</totfact>
</mgrwt>
</event>
<event>
 4    1  0.1323225E-008  0.2641747E+04  0.7816531E-02  0.8354158E-01
         -2   -1    0    0    0  501 -0.00000000000E+00  0.00000000000E+00  0.16961297621E+04  0.16961297621E+04  0.00000000000E+00 0. -1.
          2   -1    0    0  501    0  0.00000000000E+00 -0.00000000000E+00 -0.10286396888E+04  0.10286396888E+04  0.00000000000E+00 0.  1.
    2000013    1    1    2    0    0  0.42918669403E+03  0.49075798177E+03  0.99992389140E+03  0.15255793665E+04  0.95000000000E+03 0.  0.
   -2000013    1    1    2    0    0 -0.42918669403E+03 -0.49075798177E+03 -0.33243381813E+03  0.11991900844E+04  0.95000000000E+03 0.  0.
<mgrwt>
<rscale>  0 0.26417467E+04</rscale>
<asrwt>0</asrwt>
<pdfrwt beam="2">  1        2 0.15825226E+00 0.26417467E+04</pdfrwt>
<pdfrwt beam="1">  1       -2 0.26094304E+00 0.26417467E+04</pdfrwt>
<totfact> 0.11719182E+00</totfact>
</mgrwt>
</event>
<event>
 4    1  0.1323225E-008  0.2355284E+04  0.7816531E-02  0.8456437E-01
          2   -1    0    0  501    0  0.00000000000E+00  0.00000000000E+00  0.33643364377E+04  0.33643364377E+04  0.00000000000E+00 0.  1.
         -2   -1    0    0    0  501 -0.00000000000E+00 -0.00000000000E+00 -0.41221835714E+03  0.41221835714E+03  0.00000000000E+00 0. -1.
    2000013    1    1    2    0    0 -0.52122198912E+03 -0.56682658597E+02  0.22098946386E+04  0.24619138083E+04  0.95000000000E+03 0.  0.
   -2000013    1    1    2    0    0  0.52122198912E+03  0.56682658597E+02  0.74222344195E+03  0.13146409865E+04  0.95000000000E+03 0.  0.
<mgrwt>
<rscale>  0 0.23552845E+04</rscale>
<asrwt>0</asrwt>
<pdfrwt beam="1">  1        2 0.51759020E+00 0.23552845E+04</pdfrwt>
<pdfrwt beam="2">  1       -2 0.63418211E-01 0.23552845E+04</pdfrwt>
<totfact> 0.20980302E+00</totfact>
</mgrwt>
</event>
<event>
 4    1  0.1323225E-008  0.1986972E+04  0.7816531E-02  0.8612736E-01
         -1   -1    0    0    0  501 -0.00000000000E+00  0.00000000000E+00  0.56584610129E+03  0.56584610129E+03  0.00000000000E+00 0. -1.
          1   -1    0    0  501    0  0.00000000000E+00 -0.00000000000E+00 -0.17443155867E+04  0.17443155867E+04  0.00000000000E+00 0.  1.
    2000013    1    1    2    0    0 -0.25793012004E+03  0.12319628608E+03 -0.65085436223E+03  0.11865145058E+04  0.95000000000E+03 0.  0.
   -2000013    1    1    2    0    0  0.25793012004E+03 -0.12319628608E+03 -0.52761512316E+03  0.11236471821E+04  0.95000000000E+03 0.  0.
<mgrwt>
<rscale>  0 0.19869717E+04</rscale>
<asrwt>0</asrwt>
<pdfrwt beam="2">  1        1 0.26835624E+00 0.19869717E+04</pdfrwt>
<pdfrwt beam="1">  1       -1 0.87053248E-01 0.19869717E+04</pdfrwt>
<totfact> 0.53652290E+00</totfact>
</mgrwt>
</event>
<event>
 4    1  0.1323225E-008  0.2177376E+04  0.7816531E-02  0.8527904E-01
          1   -1    0    0  501    0  0.00000000000E+00  0.00000000000E+00  0.94188687995E+03  0.94188687995E+03  0.00000000000E+00 0.  1.
         -1   -1    0    0    0  501 -0.00000000000E+00 -0.00000000000E+00 -0.12583688904E+04  0.12583688904E+04  0.00000000000E+00 0. -1.
    2000013    1    1    2    0    0 -0.50626460940E+03 -0.18490018117E+02 -0.32147924248E+03  0.11236078670E+04  0.95000000000E+03 0.  0.
   -2000013    1    1    2    0    0  0.50626460940E+03  0.18490018117E+02  0.49972319853E+01  0.10766479034E+04  0.95000000000E+03 0.  0.
<mgrwt>
<rscale>  0 0.21773756E+04</rscale>
<asrwt>0</asrwt>
<pdfrwt beam="1">  1        1 0.14490567E+00 0.21773756E+04</pdfrwt>
<pdfrwt beam="2">  1       -1 0.19359521E+00 0.21773756E+04</pdfrwt>
<totfact> 0.25627157E+00</totfact>
</mgrwt>
</event>
<event>
 4    1  0.1323225E-008  0.2332083E+04  0.7816531E-02  0.8465378E-01
          1   -1    0    0  501    0  0.00000000000E+00  0.00000000000E+00  0.35282088868E+04  0.35282088868E+04  0.00000000000E+00 0.  1.
         -1   -1    0    0    0  501 -0.00000000000E+00 -0.00000000000E+00 -0.38536619437E+03  0.38536619437E+03  0.00000000000E+00 0. -1.
    2000013    1    1    2    0    0 -0.57276078989E+03 -0.33792992393E+03  0.17762711815E+04  0.21212946203E+04  0.95000000000E+03 0.  0.
   -2000013    1    1    2    0    0  0.57276078989E+03  0.33792992393E+03  0.13665715109E+04  0.17922804609E+04  0.95000000000E+03 0.  0.
<mgrwt>
<rscale>  0 0.23320827E+04</rscale>
<asrwt>0</asrwt>
<pdfrwt beam="1">  1        1 0.54280135E+00 0.23320827E+04</pdfrwt>
<pdfrwt beam="2">  1       -1 0.59287109E-01 0.23320827E+04</pdfrwt>
<totfact> 0.61830069E-01</totfact>
</mgrwt>
</event>
<event>
 4    1  0.1323225E-008  0.2361063E+04  0.7816531E-02  0.8454227E-01
         -2   -1    0    0    0  501 -0.00000000000E+00  0.00000000000E+00  0.55372314574E+03  0.55372314574E+03  0.00000000000E+00 0. -1.
          2   -1    0    0  501    0  0.00000000000E+00 -0.00000000000E+00 -0.25168791583E+04  0.25168791583E+04  0.00000000000E+00 0.  1.
    2000013    1    1    2    0    0  0.17677965572E+03  0.52423247256E+03 -0.42207822396E+03  0.11775910831E+04  0.95000000000E+03 0.  0.
   -2000013    1    1    2    0    0 -0.17677965572E+03 -0.52423247256E+03 -0.15410777886E+04  0.18930112209E+04  0.95000000000E+03 0.  0.
<mgrwt>
<rscale>  0 0.23610627E+04</rscale>
<asrwt>0</asrwt>
<pdfrwt beam="2">  1        2 0.38721218E+00 0.23610627E+04</pdfrwt>
<pdfrwt beam="1">  1       -2 0.85188176E-01 0.23610627E+04</pdfrwt>
<totfact> 0.36804937E+00</totfact>
</mgrwt>
</event>
<event>
 4    1  0.1323225E-008  0.3091289E+04  0.7816531E-02  0.8218133E-01
         -2   -1    0    0    0  501 -0.00000000000E+00  0.00000000000E+00  0.15766083847E+04  0.15766083847E+04  0.00000000000E+00 0. -1.
          2   -1    0    0  501    0  0.00000000000E+00 -0.00000000000E+00 -0.15152890303E+04  0.15152890303E+04  0.00000000000E+00 0.  1.
    2000013    1    1    2    0    0  0.55123379720E+03 -0.87345262442E+03 -0.61734060093E+03  0.15330973889E+04  0.95000000000E+03 0.  0.
   -2000013    1    1    2    0    0 -0.55123379720E+03  0.87345262442E+03  0.67865995531E+03  0.15588000260E+04  0.95000000000E+03 0.  0.
<mgrwt>
<rscale>  0 0.30912893E+04</rscale>
<asrwt>0</asrwt>
<pdfrwt beam="2">  1        2 0.23312139E+00 0.30912893E+04</pdfrwt>
<pdfrwt beam="1">  1       -2 0.24255514E+00 0.30912893E+04</pdfrwt>
<totfact> 0.75520252E-01</totfact>
</mgrwt>
</event>
<event>
 4    1  0.1323225E-008  0.2206919E+04  0.7816531E-02  0.8515554E-01
          2   -1    0    0  501    0  0.00000000000E+00  0.00000000000E+00  0.15151295844E+04  0.15151295844E+04  0.00000000000E+00 0.  1.
         -2   -1    0    0    0  501 -0.00000000000E+00 -0.00000000000E+00 -0.80364281934E+03  0.80364281934E+03  0.00000000000E+00 0. -1.
    2000013    1    1    2    0    0  0.25420563227E+03  0.36594205549E+03  0.71450034845E+03  0.12694663601E+04  0.95000000000E+03 0.  0.
   -2000013    1    1    2    0    0 -0.25420563227E+03 -0.36594205549E+03 -0.30135834414E+01  0.10493060436E+04  0.95000000000E+03 0.  0.
<mgrwt>
<rscale>  0 0.22069191E+04</rscale>
<asrwt>0</asrwt>
<pdfrwt beam="1">  1        2 0.23309686E+00 0.22069191E+04</pdfrwt>
<pdfrwt beam="2">  1       -2 0.12363736E+00 0.22069191E+04</pdfrwt>
<totfact> 0.56047290E+00</totfact>
</mgrwt>
</event>
<event>
 4    1  0.1323225E-008  0.2169692E+04  0.7816531E-02  0.8531150E-01
          2   -1    0    0  501    0  0.00000000000E+00  0.00000000000E+00  0.32799627068E+04  0.32799627068E+04  0.00000000000E+00 0.  1.
         -2   -1    0    0    0  501 -0.00000000000E+00 -0.00000000000E+00 -0.35881231349E+03  0.35881231349E+03  0.00000000000E+00 0. -1.
    2000013    1    1    2    0    0  0.49568689944E+03  0.16855496902E+03  0.14883728321E+04  0.18417030073E+04  0.95000000000E+03 0.  0.
   -2000013    1    1    2    0    0 -0.49568689944E+03 -0.16855496902E+03  0.14327775612E+04  0.17970720130E+04  0.95000000000E+03 0.  0.
<mgrwt>
<rscale>  0 0.21696922E+04</rscale>
<asrwt>0</asrwt>
<pdfrwt beam="1">  1        2 0.50460963E+00 0.21696922E+04</pdfrwt>
<pdfrwt beam="2">  1       -2 0.55201897E-01 0.21696922E+04</pdfrwt>
<totfact> 0.32557596E+00</totfact>
</mgrwt>
</event>
<event>
 4    1  0.1323225E-008  0.2562555E+04  0.7816531E-02  0.8381033E-01
         -2   -1    0    0    0  501 -0.00000000000E+00  0.00000000000E+00  0.15230597026E+04  0.15230597026E+04  0.00000000000E+00 0. -1.
          2   -1    0    0  501    0  0.00000000000E+00 -0.00000000000E+00 -0.10778779778E+04  0.10778779778E+04  0.00000000000E+00 0.  1.
    2000013    1    1    2    0    0 -0.23257635228E+03 -0.76553793024E+03 -0.96816855256E+02  0.12457983728E+04  0.95000000000E+03 0.  0.
   -2000013    1    1    2    0    0  0.23257635228E+03  0.76553793024E+03  0.54199858002E+03  0.13551393076E+04  0.95000000000E+03 0.  0.
<mgrwt>
<rscale>  0 0.25625554E+04</rscale>
<asrwt>0</asrwt>
<pdfrwt beam="2">  1        2 0.16582738E+00 0.25625554E+04</pdfrwt>
<pdfrwt beam="1">  1       -2 0.23431688E+00 0.25625554E+04</pdfrwt>
<totfact> 0.16029530E+00</totfact>
</mgrwt>
</event>
<event>
 4    1  0.1323225E-008  0.2053028E+04  0.7816531E-02  0.8582222E-01
         -2   -1    0    0    0  501 -0.00000000000E+00  0.00000000000E+00  0.66822540013E+03  0.66822540013E+03  0.00000000000E+00 0. -1.
          2   -1    0    0  501    0  0.00000000000E+00 -0.00000000000E+00 -0.15769088592E+04  0.15769088592E+04  0.00000000000E+00 0.  1.
    2000013    1    1    2    0    0  0.27672994075E+03 -0.20737574799E+03 -0.64888205572E+03  0.12013043258E+04  0.95000000000E+03 0.  0.
   -2000013    1    1    2    0    0 -0.27672994075E+03  0.20737574799E+03 -0.25980140337E+03  0.10438299335E+04  0.95000000000E+03 0.  0.
<mgrwt>
<rscale>  0 0.20530276E+04</rscale>
<asrwt>0</asrwt>
<pdfrwt beam="2">  1        2 0.24260136E+00 0.20530276E+04</pdfrwt>
<pdfrwt beam="1">  1       -2 0.10280391E+00 0.20530276E+04</pdfrwt>
<totfact> 0.82197131E+00</totfact>
</mgrwt>
</event>
<event>
 4    1  0.1323225E-008  0.3072532E+04  0.7816531E-02  0.8223317E-01
         -2   -1    0    0    0  501 -0.00000000000E+00  0.00000000000E+00  0.16952373809E+04  0.16952373809E+04  0.00000000000E+00 0. -1.
          2   -1    0    0  501    0  0.00000000000E+00 -0.00000000000E+00 -0.13922019313E+04  0.13922019313E+04  0.00000000000E+00 0.  1.
    2000013    1    1    2    0    0  0.11297834035E+04 -0.41485012430E+01 -0.27620584845E+03  0.15017381329E+04  0.95000000000E+03 0.  0.
   -2000013    1    1    2    0    0 -0.11297834035E+04  0.41485012430E+01  0.57924129808E+03  0.15857011794E+04  0.95000000000E+03 0.  0.
<mgrwt>
<rscale>  0 0.30725317E+04</rscale>
<asrwt>0</asrwt>
<pdfrwt beam="2">  1        2 0.21418491E+00 0.30725317E+04</pdfrwt>
<pdfrwt beam="1">  1       -2 0.26080575E+00 0.30725317E+04</pdfrwt>
<totfact> 0.68628218E-01</totfact>
</mgrwt>
</event>
<event>
 4    1  0.1323225E-008  0.2642445E+04  0.7816531E-02  0.8353925E-01
         -2   -1    0    0    0  501 -0.00000000000E+00  0.00000000000E+00  0.46896009539E+03  0.46896009539E+03  0.00000000000E+00 0. -1.
          2   -1    0    0  501    0  0.00000000000E+00 -0.00000000000E+00 -0.37223411671E+04  0.37223411671E+04  0.00000000000E+00 0.  1.
    2000013    1    1    2    0    0  0.89873730044E+03 -0.51538915930E+01 -0.13283680525E+04  0.18640860980E+04  0.95000000000E+03 0.  0.
   -2000013    1    1    2    0    0 -0.89873730044E+03  0.51538915930E+01 -0.19250130192E+04  0.23272151645E+04  0.95000000000E+03 0.  0.
<mgrwt>
<rscale>  0 0.26424454E+04</rscale>
<asrwt>0</asrwt>
<pdfrwt beam="2">  1        2 0.57266784E+00 0.26424454E+04</pdfrwt>
<pdfrwt beam="1">  1       -2 0.72147711E-01 0.26424454E+04</pdfrwt>
<totfact> 0.86248348E-01</totfact>
</mgrwt>
</event>
<event>
 4    1  0.1323225E-008  0.2114926E+04  0.7816531E-02  0.8554697E-01
         -2   -1    0    0    0  501 -0.00000000000E+00  0.00000000000E+00  0.46949655429E+03  0.46949655429E+03  0.00000000000E+00 0. -1.
          2   -1    0    0  501    0  0.00000000000E+00 -0.00000000000E+00 -0.23817592769E+04  0.23817592769E+04  0.00000000000E+00 0.  1.
    2000013    1    1    2    0    0  0.25914902074E+03  0.37912835264E+03 -0.10498381061E+04  0.14884745788E+04  0.95000000000E+03 0.  0.
   -2000013    1    1    2    0    0 -0.25914902074E+03 -0.37912835264E+03 -0.86242461652E+03  0.13627812524E+04  0.95000000000E+03 0.  0.
<mgrwt>
<rscale>  0 0.21149258E+04</rscale>
<asrwt>0</asrwt>
<pdfrwt beam="2">  1        2 0.36642451E+00 0.21149258E+04</pdfrwt>
<pdfrwt beam="1">  1       -2 0.72230238E-01 0.21149258E+04</pdfrwt>
<totfact> 0.65050126E+00</totfact>
</mgrwt>
</event>
<event>
 4    1  0.1323225E-008  0.3683064E+04  0.7816531E-02  0.8071726E-01
          2   -1    0    0  501    0  0.00000000000E+00  0.00000000000E+00  0.13406115653E+04  0.13406115653E+04  0.00000000000E+00 0.  1.
         -2   -1    0    0    0  501 -0.00000000000E+00 -0.00000000000E+00 -0.25296210217E+04  0.25296210217E+04  0.00000000000E+00 0. -1.
    2000013    1    1    2    0    0 -0.14237358782E+04  0.65453430016E+03 -0.40274771561E+03  0.18762048725E+04  0.95000000000E+03 0.  0.
   -2000013    1    1    2    0    0  0.14237358782E+04 -0.65453430016E+03 -0.78626174077E+03  0.19940277145E+04  0.95000000000E+03 0.  0.
<mgrwt>
<rscale>  0 0.36830635E+04</rscale>
<asrwt>0</asrwt>
<pdfrwt beam="1">  1        2 0.20624794E+00 0.36830635E+04</pdfrwt>
<pdfrwt beam="2">  1       -2 0.38917246E+00 0.36830635E+04</pdfrwt>
<totfact> 0.11060007E-01</totfact>
</mgrwt>
</event>
<event>
 4    1  0.1323225E-008  0.2553594E+04  0.7816531E-02  0.8384137E-01
          2   -1    0    0  501    0  0.00000000000E+00  0.00000000000E+00  0.78497570952E+03  0.78497570952E+03  0.00000000000E+00 0.  1.
         -2   -1    0    0    0  501 -0.00000000000E+00 -0.00000000000E+00 -0.20767656456E+04  0.20767656456E+04  0.00000000000E+00 0. -1.
    2000013    1    1    2    0    0  0.60716516999E+03 -0.47139037640E+03 -0.10604711528E+04  0.16180103512E+04  0.95000000000E+03 0.  0.
   -2000013    1    1    2    0    0 -0.60716516999E+03  0.47139037640E+03 -0.23131878328E+03  0.12437310039E+04  0.95000000000E+03 0.  0.
<mgrwt>
<rscale>  0 0.25535940E+04</rscale>
<asrwt>0</asrwt>
<pdfrwt beam="1">  1        2 0.12076549E+00 0.25535940E+04</pdfrwt>
<pdfrwt beam="2">  1       -2 0.31950241E+00 0.25535940E+04</pdfrwt>
<totfact> 0.75657020E-01</totfact>
</mgrwt>
</event>
<event>
 4    1  0.1323225E-008  0.3876010E+04  0.7816531E-02  0.8030037E-01
          2   -1    0    0  501    0  0.00000000000E+00  0.00000000000E+00  0.20506122949E+04  0.20506122949E+04  0.00000000000E+00 0.  1.
         -2   -1    0    0    0  501 -0.00000000000E+00 -0.00000000000E+00 -0.18315817207E+04  0.18315817207E+04  0.00000000000E+00 0. -1.
    2000013    1    1    2    0    0  0.41031577310E+03  0.16153073495E+04 -0.16621853256E+03  0.19255403054E+04  0.95000000000E+03 0.  0.
   -2000013    1    1    2    0    0 -0.41031577310E+03 -0.16153073495E+04  0.38524910676E+03  0.19566537101E+04  0.95000000000E+03 0.  0.
<mgrwt>
<rscale>  0 0.38760103E+04</rscale>
<asrwt>0</asrwt>
<pdfrwt beam="1">  1        2 0.31547881E+00 0.38760103E+04</pdfrwt>
<pdfrwt beam="2">  1       -2 0.28178180E+00 0.38760103E+04</pdfrwt>
<totfact> 0.20492412E-01</totfact>
</mgrwt>
</event>
<event>
 4    1  0.1323225E-008  0.2604978E+04  0.7816531E-02  0.8366512E-01
         -2   -1    0    0    0  501 -0.00000000000E+00  0.00000000000E+00  0.86347892086E+03  0.86347892086E+03  0.00000000000E+00 0. -1.
          2   -1    0    0  501    0  0.00000000000E+00 -0.00000000000E+00 -0.19647001291E+04  0.19647001291E+04  0.00000000000E+00 0.  1.
    2000013    1    1    2    0    0 -0.80059144943E+03  0.37881945488E+03 -0.65657622893E+03  0.14553498523E+04  0.95000000000E+03 0.  0.
   -2000013    1    1    2    0    0  0.80059144943E+03 -0.37881945488E+03 -0.44464497933E+03  0.13728291977E+04  0.95000000000E+03 0.  0.
<mgrwt>
<rscale>  0 0.26049777E+04</rscale>
<asrwt>0</asrwt>
<pdfrwt beam="2">  1        2 0.30226155E+00 0.26049777E+04</pdfrwt>
<pdfrwt beam="1">  1       -2 0.13284291E+00 0.26049777E+04</pdfrwt>
<totfact> 0.25408770E+00</totfact>
</mgrwt>
</event>
<event>
 4    1  0.1323225E-008  0.2624980E+04  0.7816531E-02  0.8359765E-01
          2   -1    0    0  501    0  0.00000000000E+00  0.00000000000E+00  0.21314960852E+04  0.21314960852E+04  0.00000000000E+00 0.  1.
         -2   -1    0    0    0  501 -0.00000000000E+00 -0.00000000000E+00 -0.80817889740E+03  0.80817889740E+03  0.00000000000E+00 0. -1.
    2000013    1    1    2    0    0  0.78284863349E+03 -0.10927588329E+03  0.11566133525E+04  0.16926451633E+04  0.95000000000E+03 0.  0.
   -2000013    1    1    2    0    0 -0.78284863349E+03  0.10927588329E+03  0.16670383532E+03  0.12470298193E+04  0.95000000000E+03 0.  0.
<mgrwt>
<rscale>  0 0.26249801E+04</rscale>
<asrwt>0</asrwt>
<pdfrwt beam="1">  1        2 0.32792247E+00 0.26249801E+04</pdfrwt>
<pdfrwt beam="2">  1       -2 0.12433522E+00 0.26249801E+04</pdfrwt>
<totfact> 0.24201325E+00</totfact>
</mgrwt>
</event>
<event>
 4    1  0.1323225E-008  0.2491194E+04  0.7816531E-02  0.8406129E-01
          2   -1    0    0  501    0  0.00000000000E+00  0.00000000000E+00  0.13368564369E+04  0.13368564369E+04  0.00000000000E+00 0. -1.
         -2   -1    0    0    0  501 -0.00000000000E+00 -0.00000000000E+00 -0.11605675941E+04  0.11605675941E+04  0.00000000000E+00 0.  1.
    2000013    1    1    2    0    0  0.50520781381E+03 -0.62523762759E+03  0.34576421772E+02  0.12449307431E+04  0.95000000000E+03 0.  0.
   -2000013    1    1    2    0    0 -0.50520781381E+03  0.62523762759E+03  0.14171242097E+03  0.12524932879E+04  0.95000000000E+03 0.  0.
<mgrwt>
<rscale>  0 0.24911943E+04</rscale>
<asrwt>0</asrwt>
<pdfrwt beam="1">  1        2 0.20567022E+00 0.24911943E+04</pdfrwt>
<pdfrwt beam="2">  1       -2 0.17854886E+00 0.24911943E+04</pdfrwt>
<totfact> 0.26064631E+00</totfact>
</mgrwt>
</event>
<event>
 4    1  0.1323225E-008  0.2357589E+04  0.7816531E-02  0.8455555E-01
         -3   -1    0    0    0  501 -0.00000000000E+00  0.00000000000E+00  0.18362445469E+04  0.18362445469E+04  0.00000000000E+00 0. -1.
          3   -1    0    0  501    0  0.00000000000E+00 -0.00000000000E+00 -0.75673804842E+03  0.75673804842E+03  0.00000000000E+00 0.  1.
    2000013    1    1    2    0    0  0.16492935698E+03  0.50646289850E+03  0.10357209418E+04  0.15029717994E+04  0.95000000000E+03 0.  0.
   -2000013    1    1    2    0    0 -0.16492935698E+03 -0.50646289850E+03  0.43785556674E+02  0.10900107960E+04  0.95000000000E+03 0.  0.
<mgrwt>
<rscale>  0 0.23575887E+04</rscale>
<asrwt>0</asrwt>
<pdfrwt beam="2">  1        3 0.11642124E+00 0.23575887E+04</pdfrwt>
<pdfrwt beam="1">  1       -3 0.28249916E+00 0.23575887E+04</pdfrwt>
<totfact> 0.68371371E-02</totfact>
</mgrwt>
</event>
<event>
 4    1  0.1323225E-008  0.2554196E+04  0.7816531E-02  0.8383928E-01
         -2   -1    0    0    0  501 -0.00000000000E+00  0.00000000000E+00  0.12460888328E+04  0.12460888328E+04  0.00000000000E+00 0. -1.
          2   -1    0    0  501    0  0.00000000000E+00 -0.00000000000E+00 -0.13088790096E+04  0.13088790096E+04  0.00000000000E+00 0.  1.
    2000013    1    1    2    0    0 -0.49742246112E+03  0.67647843282E+03  0.12171108496E+03  0.12737212266E+04  0.95000000000E+03 0.  0.
   -2000013    1    1    2    0    0  0.49742246112E+03 -0.67647843282E+03 -0.18450126184E+03  0.12812466158E+04  0.95000000000E+03 0.  0.
<mgrwt>
<rscale>  0 0.25541962E+04</rscale>
<asrwt>0</asrwt>
<pdfrwt beam="2">  1        2 0.20136600E+00 0.25541962E+04</pdfrwt>
<pdfrwt beam="1">  1       -2 0.19170598E+00 0.25541962E+04</pdfrwt>
<totfact> 0.21898940E+00</totfact>
</mgrwt>
</event>
<event>
 4    1  0.1323225E-008  0.3737342E+04  0.7816531E-02  0.8059737E-01
         -2   -1    0    0    0  501 -0.00000000000E+00  0.00000000000E+00  0.99954477777E+03  0.99954477777E+03  0.00000000000E+00 0. -1.
          2   -1    0    0  501    0  0.00000000000E+00 -0.00000000000E+00 -0.34935207033E+04  0.34935207033E+04  0.00000000000E+00 0.  1.
    2000013    1    1    2    0    0 -0.10310204496E+03  0.13443669207E+04 -0.19104194549E+03  0.16604064184E+04  0.95000000000E+03 0.  0.
   -2000013    1    1    2    0    0  0.10310204496E+03 -0.13443669207E+04 -0.23029339801E+04  0.28326590627E+04  0.95000000000E+03 0.  0.
<mgrwt>
<rscale>  0 0.37373415E+04</rscale>
<asrwt>0</asrwt>
<pdfrwt beam="2">  1        2 0.53746472E+00 0.37373415E+04</pdfrwt>
<pdfrwt beam="1">  1       -2 0.15377612E+00 0.37373415E+04</pdfrwt>
<totfact> 0.18533789E-01</totfact>
</mgrwt>
</event>
<event>
 4    1  0.1323225E-008  0.2582913E+04  0.7816531E-02  0.8374029E-01
          2   -1    0    0  501    0  0.00000000000E+00  0.00000000000E+00  0.16643849726E+04  0.16643849726E+04  0.00000000000E+00 0.  1.
         -2   -1    0    0    0  501 -0.00000000000E+00 -0.00000000000E+00 -0.10020877784E+04  0.10020877784E+04  0.00000000000E+00 0. -1.
    2000013    1    1    2    0    0 -0.29552022108E+02  0.71580548803E+03  0.84949676925E+03  0.14619834403E+04  0.95000000000E+03 0.  0.
   -2000013    1    1    2    0    0  0.29552022108E+02 -0.71580548803E+03 -0.18719957499E+03  0.12044893107E+04  0.95000000000E+03 0.  0.
<mgrwt>
<rscale>  0 0.25829130E+04</rscale>
<asrwt>0</asrwt>
<pdfrwt beam="1">  1        2 0.25605923E+00 0.25829130E+04</pdfrwt>
<pdfrwt beam="2">  1       -2 0.15416735E+00 0.25829130E+04</pdfrwt>
<totfact> 0.25330065E+00</totfact>
</mgrwt>
</event>
<event>
 4    1  0.1323225E-008  0.3502816E+04  0.7816531E-02  0.8113123E-01
          2   -1    0    0  501    0  0.00000000000E+00  0.00000000000E+00  0.21489475578E+04  0.21489475578E+04  0.00000000000E+00 0.  1.
         -2   -1    0    0    0  501 -0.00000000000E+00 -0.00000000000E+00 -0.14274102036E+04  0.14274102036E+04  0.00000000000E+00 0. -1.
    2000013    1    1    2    0    0  0.14362918280E+04 -0.31702778723E+03  0.32137310636E+03  0.17802307453E+04  0.95000000000E+03 0.  0.
   -2000013    1    1    2    0    0 -0.14362918280E+04  0.31702778723E+03  0.40016424789E+03  0.17961270162E+04  0.95000000000E+03 0.  0.
<mgrwt>
<rscale>  0 0.35028158E+04</rscale>
<asrwt>0</asrwt>
<pdfrwt beam="1">  1        2 0.33060732E+00 0.35028158E+04</pdfrwt>
<pdfrwt beam="2">  1       -2 0.21960157E+00 0.35028158E+04</pdfrwt>
<totfact> 0.45054403E-01</totfact>
</mgrwt>
</event>
<event>
 4    1  0.1323225E-008  0.5378510E+04  0.7816531E-02  0.7772631E-01
         -2   -1    0    0    0  501 -0.00000000000E+00  0.00000000000E+00  0.23183056869E+04  0.23183056869E+04  0.00000000000E+00 0. -1.
          2   -1    0    0  501    0  0.00000000000E+00 -0.00000000000E+00 -0.31195596441E+04  0.31195596441E+04  0.00000000000E+00 0.  1.
    2000013    1    1    2    0    0  0.60353294831E+03 -0.23269995704E+04 -0.11507130991E+04  0.28294557174E+04  0.95000000000E+03 0.  0.
   -2000013    1    1    2    0    0 -0.60353294831E+03  0.23269995704E+04  0.34945914187E+03  0.26084096136E+04  0.95000000000E+03 0.  0.
<mgrwt>
<rscale>  0 0.53785102E+04</rscale>
<asrwt>0</asrwt>
<pdfrwt beam="2">  1        2 0.47993225E+00 0.53785102E+04</pdfrwt>
<pdfrwt beam="1">  1       -2 0.35666241E+00 0.53785102E+04</pdfrwt>
<totfact> 0.14577672E-02</totfact>
</mgrwt>
</event>
<event>
 4    1  0.1323225E-008  0.2579376E+04  0.7816531E-02  0.8375241E-01
         -2   -1    0    0    0  501 -0.00000000000E+00  0.00000000000E+00  0.76751693081E+03  0.76751693081E+03  0.00000000000E+00 0. -1.
          2   -1    0    0  501    0  0.00000000000E+00 -0.00000000000E+00 -0.21671120104E+04  0.21671120104E+04  0.00000000000E+00 0.  1.
    2000013    1    1    2    0    0  0.73724784548E+03  0.91163599629E+01 -0.12300053475E+04  0.17201833183E+04  0.95000000000E+03 0.  0.
   -2000013    1    1    2    0    0 -0.73724784548E+03 -0.91163599629E+01 -0.16958973205E+03  0.12144456229E+04  0.95000000000E+03 0.  0.
<mgrwt>
<rscale>  0 0.25793760E+04</rscale>
<asrwt>0</asrwt>
<pdfrwt beam="2">  1        2 0.33340184E+00 0.25793760E+04</pdfrwt>
<pdfrwt beam="1">  1       -2 0.11807953E+00 0.25793760E+04</pdfrwt>
<totfact> 0.26385649E+00</totfact>
</mgrwt>
</event>
<event>
 4    1  0.1323225E-008  0.2652165E+04  0.7816531E-02  0.8350695E-01
         -2   -1    0    0    0  501 -0.00000000000E+00  0.00000000000E+00  0.11042579912E+04  0.11042579912E+04  0.00000000000E+00 0. -1.
          2   -1    0    0  501    0  0.00000000000E+00 -0.00000000000E+00 -0.15924669542E+04  0.15924669542E+04  0.00000000000E+00 0.  1.
    2000013    1    1    2    0    0  0.48277496417E+03 -0.67405701986E+03  0.17336630356E+03  0.12727845094E+04  0.95000000000E+03 0.  0.
   -2000013    1    1    2    0    0 -0.48277496417E+03  0.67405701986E+03 -0.66157526654E+03  0.14239404360E+04  0.95000000000E+03 0.  0.
<mgrwt>
<rscale>  0 0.26521647E+04</rscale>
<asrwt>0</asrwt>
<pdfrwt beam="2">  1        2 0.24499492E+00 0.26521647E+04</pdfrwt>
<pdfrwt beam="1">  1       -2 0.16988585E+00 0.26521647E+04</pdfrwt>
<totfact> 0.21181706E+00</totfact>
</mgrwt>
</event>
<event>
 4    1  0.1323225E-008  0.2154836E+04  0.7816531E-02  0.8537465E-01
          2   -1    0    0  501    0  0.00000000000E+00  0.00000000000E+00  0.79741048922E+03  0.79741048922E+03  0.00000000000E+00 0.  1.
         -2   -1    0    0    0  501 -0.00000000000E+00 -0.00000000000E+00 -0.14557496822E+04  0.14557496822E+04  0.00000000000E+00 0. -1.
    2000013    1    1    2    0    0  0.49450328892E+03 -0.11713141061E+03 -0.32000638781E+03  0.11239027353E+04  0.95000000000E+03 0.  0.
   -2000013    1    1    2    0    0 -0.49450328892E+03  0.11713141061E+03 -0.33833280519E+03  0.11292574362E+04  0.95000000000E+03 0.  0.
<mgrwt>
<rscale>  0 0.21548365E+04</rscale>
<asrwt>0</asrwt>
<pdfrwt beam="1">  1        2 0.12267854E+00 0.21548365E+04</pdfrwt>
<pdfrwt beam="2">  1       -2 0.22396149E+00 0.21548365E+04</pdfrwt>
<totfact> 0.29600150E+00</totfact>
</mgrwt>
</event>
<event>
 4    1  0.1323225E-008  0.3033692E+04  0.7816531E-02  0.8234175E-01
          2   -1    0    0  501    0  0.00000000000E+00  0.00000000000E+00  0.30482662044E+04  0.30482662044E+04  0.00000000000E+00 0.  1.
         -2   -1    0    0    0  501 -0.00000000000E+00 -0.00000000000E+00 -0.75479679570E+03  0.75479679570E+03  0.00000000000E+00 0. -1.
    2000013    1    1    2    0    0 -0.40684187929E+03  0.10752061843E+04  0.79947620109E+03  0.16921143134E+04  0.95000000000E+03 0.  0.
   -2000013    1    1    2    0    0  0.40684187929E+03 -0.10752061843E+04  0.14939932076E+04  0.21109486867E+04  0.95000000000E+03 0.  0.
<mgrwt>
<rscale>  0 0.30336919E+04</rscale>
<asrwt>0</asrwt>
<pdfrwt beam="1">  1        2 0.46896403E+00 0.30336919E+04</pdfrwt>
<pdfrwt beam="2">  1       -2 0.11612259E+00 0.30336919E+04</pdfrwt>
<totfact> 0.79741920E-01</totfact>
</mgrwt>
</event>
<event>
 4    1  0.1323225E-008  0.3253214E+04  0.7816531E-02  0.8174903E-01
         -1   -1    0    0    0  501 -0.00000000000E+00  0.00000000000E+00  0.16174795943E+04  0.16174795943E+04  0.00000000000E+00 0. -1.
          1   -1    0    0  501    0  0.00000000000E+00 -0.00000000000E+00 -0.16357854777E+04  0.16357854777E+04  0.00000000000E+00 0.  1.
    2000013    1    1    2    0    0 -0.13865916165E+03  0.46762182160E+03  0.12178355535E+04  0.16197283619E+04  0.95000000000E+03 0.  0.
   -2000013    1    1    2    0    0  0.13865916165E+03 -0.46762182160E+03 -0.12361414368E+04  0.16335367100E+04  0.95000000000E+03 0.  0.
<mgrwt>
<rscale>  0 0.32532136E+04</rscale>
<asrwt>0</asrwt>
<pdfrwt beam="2">  1        1 0.25165930E+00 0.32532136E+04</pdfrwt>
<pdfrwt beam="1">  1       -1 0.24884301E+00 0.32532136E+04</pdfrwt>
<totfact> 0.31159566E-01</totfact>
</mgrwt>
</event>
<event>
 4    1  0.1323225E-008  0.4035809E+04  0.7816531E-02  0.7997361E-01
         -2   -1    0    0    0  501 -0.00000000000E+00  0.00000000000E+00  0.10427871160E+04  0.10427871160E+04  0.00000000000E+00 0. -1.
          2   -1    0    0  501    0  0.00000000000E+00 -0.00000000000E+00 -0.39048616899E+04  0.39048616899E+04  0.00000000000E+00 0.  1.
    2000013    1    1    2    0    0 -0.89536932035E+03 -0.15374349971E+04 -0.13530492755E+04  0.24287105492E+04  0.95000000000E+03 0.  0.
   -2000013    1    1    2    0    0  0.89536932035E+03  0.15374349971E+04 -0.15090252984E+04  0.25189382567E+04  0.95000000000E+03 0.  0.
<mgrwt>
<rscale>  0 0.40358094E+04</rscale>
<asrwt>0</asrwt>
<pdfrwt beam="2">  1        2 0.60074795E+00 0.40358094E+04</pdfrwt>
<pdfrwt beam="1">  1       -2 0.16042879E+00 0.40358094E+04</pdfrwt>
<totfact> 0.79886194E-02</totfact>
</mgrwt>
</event>
<event>
 4    1  0.1323225E-008  0.2133827E+04  0.7816531E-02  0.8546487E-01
          2   -1    0    0  501    0  0.00000000000E+00  0.00000000000E+00  0.14585220436E+04  0.14585220436E+04  0.00000000000E+00 0.  1.
         -2   -1    0    0    0  501 -0.00000000000E+00 -0.00000000000E+00 -0.78045095808E+03  0.78045095808E+03  0.00000000000E+00 0. -1.
    2000013    1    1    2    0    0 -0.42785186355E+03  0.18730296129E+03  0.19957537502E+03  0.10772511066E+04  0.95000000000E+03 0.  0.
   -2000013    1    1    2    0    0  0.42785186355E+03 -0.18730296129E+03  0.47849571050E+03  0.11617218950E+04  0.95000000000E+03 0.  0.
<mgrwt>
<rscale>  0 0.21338275E+04</rscale>
<asrwt>0</asrwt>
<pdfrwt beam="1">  1        2 0.22438801E+00 0.21338275E+04</pdfrwt>
<pdfrwt beam="2">  1       -2 0.12006938E+00 0.21338275E+04</pdfrwt>
<totfact> 0.65307635E+00</totfact>
</mgrwt>
</event>
<event>
 4    1  0.1323225E-008  0.3003397E+04  0.7816531E-02  0.8242761E-01
         -2   -1    0    0    0  501 -0.00000000000E+00  0.00000000000E+00  0.22064189979E+04  0.22064189979E+04  0.00000000000E+00 0. -1.
          2   -1    0    0  501    0  0.00000000000E+00 -0.00000000000E+00 -0.10220629128E+04  0.10220629128E+04  0.00000000000E+00 0.  1.
    2000013    1    1    2    0    0  0.10641846178E+04  0.67332821891E+02  0.10912764439E+04  0.17973332709E+04  0.95000000000E+03 0.  0.
   -2000013    1    1    2    0    0 -0.10641846178E+04 -0.67332821891E+02  0.93079641171E+02  0.14311486398E+04  0.95000000000E+03 0.  0.
<mgrwt>
<rscale>  0 0.30033974E+04</rscale>
<asrwt>0</asrwt>
<pdfrwt beam="2">  1        2 0.15724045E+00 0.30033974E+04</pdfrwt>
<pdfrwt beam="1">  1       -2 0.33944908E+00 0.30033974E+04</pdfrwt>
<totfact> 0.37809760E-01</totfact>
</mgrwt>
</event>
<event>
 4    1  0.1323225E-008  0.2254722E+04  0.7816531E-02  0.8495991E-01
         -2   -1    0    0    0  501 -0.00000000000E+00  0.00000000000E+00  0.14298457403E+04  0.14298457403E+04  0.00000000000E+00 0. -1.
          2   -1    0    0  501    0  0.00000000000E+00 -0.00000000000E+00 -0.88886720591E+03  0.88886720591E+03  0.00000000000E+00 0.  1.
    2000013    1    1    2    0    0 -0.49594944018E+03 -0.23394962306E+03  0.53815431596E+03  0.12218053614E+04  0.95000000000E+03 0.  0.
   -2000013    1    1    2    0    0  0.49594944018E+03  0.23394962306E+03  0.28242183920E+01  0.10969075848E+04  0.95000000000E+03 0.  0.
<mgrwt>
<rscale>  0 0.22547221E+04</rscale>
<asrwt>0</asrwt>
<pdfrwt beam="2">  1        2 0.13674880E+00 0.22547221E+04</pdfrwt>
<pdfrwt beam="1">  1       -2 0.21997627E+00 0.22547221E+04</pdfrwt>
<totfact> 0.26835379E+00</totfact>
</mgrwt>
</event>
<event>
 4    1  0.1323225E-008  0.2993135E+04  0.7816531E-02  0.8245694E-01
         -1   -1    0    0    0  501 -0.00000000000E+00  0.00000000000E+00  0.17796541074E+04  0.17796541074E+04  0.00000000000E+00 0. -1.
          1   -1    0    0  501    0  0.00000000000E+00 -0.00000000000E+00 -0.12585110988E+04  0.12585110988E+04  0.00000000000E+00 0.  1.
    2000013    1    1    2    0    0 -0.19330548323E+03 -0.11397820744E+04  0.23287995964E+03  0.15143326129E+04  0.95000000000E+03 0.  0.
   -2000013    1    1    2    0    0  0.19330548323E+03  0.11397820744E+04  0.28826304891E+03  0.15238325933E+04  0.95000000000E+03 0.  0.
<mgrwt>
<rscale>  0 0.29931351E+04</rscale>
<asrwt>0</asrwt>
<pdfrwt beam="2">  1        1 0.19361709E+00 0.29931351E+04</pdfrwt>
<pdfrwt beam="1">  1       -1 0.27379294E+00 0.29931351E+04</pdfrwt>
<totfact> 0.40279174E-01</totfact>
</mgrwt>
</event>
<event>
 4    1  0.1323225E-008  0.2502079E+04  0.7816531E-02  0.8402245E-01
         -2   -1    0    0    0  501 -0.00000000000E+00  0.00000000000E+00  0.58488013294E+03  0.58488013294E+03  0.00000000000E+00 0. -1.
          2   -1    0    0  501    0  0.00000000000E+00 -0.00000000000E+00 -0.26759323808E+04  0.26759323808E+04  0.00000000000E+00 0.  1.
    2000013    1    1    2    0    0  0.72737173268E+03 -0.32823422327E+03 -0.83622563853E+03  0.14961887118E+04  0.95000000000E+03 0.  0.
   -2000013    1    1    2    0    0 -0.72737173268E+03  0.32823422327E+03 -0.12548266093E+04  0.17646238019E+04  0.95000000000E+03 0.  0.
<mgrwt>
<rscale>  0 0.25020789E+04</rscale>
<asrwt>0</asrwt>
<pdfrwt beam="2">  1        2 0.41168190E+00 0.25020789E+04</pdfrwt>
<pdfrwt beam="1">  1       -2 0.89981560E-01 0.25020789E+04</pdfrwt>
<totfact> 0.25873143E+00</totfact>
</mgrwt>
</event>
<event>
 4    1  0.1323225E-008  0.3235870E+04  0.7816531E-02  0.8179408E-01
         -1   -1    0    0    0  501 -0.00000000000E+00  0.00000000000E+00  0.21751738313E+04  0.21751738313E+04  0.00000000000E+00 0. -1.
          1   -1    0    0  501    0  0.00000000000E+00 -0.00000000000E+00 -0.12034501851E+04  0.12034501851E+04  0.00000000000E+00 0.  1.
    2000013    1    1    2    0    0  0.44743038696E+03  0.40909861268E+03  0.16979623154E+04  0.20379233672E+04  0.95000000000E+03 0.  0.
   -2000013    1    1    2    0    0 -0.44743038696E+03 -0.40909861268E+03 -0.72623866923E+03  0.13407006492E+04  0.95000000000E+03 0.  0.
<mgrwt>
<rscale>  0 0.32358698E+04</rscale>
<asrwt>0</asrwt>
<pdfrwt beam="2">  1        1 0.18514618E+00 0.32358698E+04</pdfrwt>
<pdfrwt beam="1">  1       -1 0.33464213E+00 0.32358698E+04</pdfrwt>
<totfact> 0.17384192E-01</totfact>
</mgrwt>
</event>
<event>
 4    1  0.1323225E-008  0.2242719E+04  0.7816531E-02  0.8500855E-01
         -2   -1    0    0    0  501 -0.00000000000E+00  0.00000000000E+00  0.99162165500E+03  0.99162165500E+03  0.00000000000E+00 0. -1.
          2   -1    0    0  501    0  0.00000000000E+00 -0.00000000000E+00 -0.12680719753E+04  0.12680719753E+04  0.00000000000E+00 0.  1.
    2000013    1    1    2    0    0 -0.41670320584E+03 -0.23174165575E+03  0.22169248492E+03  0.10858145858E+04  0.95000000000E+03 0.  0.
   -2000013    1    1    2    0    0  0.41670320584E+03  0.23174165575E+03 -0.49814280519E+03  0.11738790445E+04  0.95000000000E+03 0.  0.
<mgrwt>
<rscale>  0 0.22427194E+04</rscale>
<asrwt>0</asrwt>
<pdfrwt beam="2">  1        2 0.19508800E+00 0.22427194E+04</pdfrwt>
<pdfrwt beam="1">  1       -2 0.15255718E+00 0.22427194E+04</pdfrwt>
<totfact> 0.45035248E+00</totfact>
</mgrwt>
</event>
<event>
 4    1  0.1323225E-008  0.2413638E+04  0.7816531E-02  0.8434415E-01
         -2   -1    0    0    0  501 -0.00000000000E+00  0.00000000000E+00  0.78419355214E+03  0.78419355214E+03  0.00000000000E+00 0. -1.
          2   -1    0    0  501    0  0.00000000000E+00 -0.00000000000E+00 -0.18572101742E+04  0.18572101742E+04  0.00000000000E+00 0.  1.
    2000013    1    1    2    0    0 -0.68976276850E+03 -0.12975921498E+03 -0.80746529635E+03  0.14307726358E+04  0.95000000000E+03 0.  0.
   -2000013    1    1    2    0    0  0.68976276850E+03  0.12975921498E+03 -0.26555132569E+03  0.12106310905E+04  0.95000000000E+03 0.  0.
<mgrwt>
<rscale>  0 0.24136381E+04</rscale>
<asrwt>0</asrwt>
<pdfrwt beam="2">  1        2 0.28572464E+00 0.24136381E+04</pdfrwt>
<pdfrwt beam="1">  1       -2 0.12064516E+00 0.24136381E+04</pdfrwt>
<totfact> 0.37748894E+00</totfact>
</mgrwt>
</event>
<event>
 4    1  0.1323225E-008  0.2448174E+04  0.7816531E-02  0.8421685E-01
         -1   -1    0    0    0  501 -0.00000000000E+00  0.00000000000E+00  0.10784247819E+04  0.10784247819E+04  0.00000000000E+00 0. -1.
          1   -1    0    0  501    0  0.00000000000E+00 -0.00000000000E+00 -0.13894234699E+04  0.13894234699E+04  0.00000000000E+00 0.  1.
    2000013    1    1    2    0    0  0.28548462024E+03  0.70075600477E+03 -0.15359959835E+01  0.12145216367E+04  0.95000000000E+03 0.  0.
   -2000013    1    1    2    0    0 -0.28548462024E+03 -0.70075600477E+03 -0.30946269204E+03  0.12533266152E+04  0.95000000000E+03 0.  0.
<mgrwt>
<rscale>  0 0.24481738E+04</rscale>
<asrwt>0</asrwt>
<pdfrwt beam="2">  1        1 0.21375746E+00 0.24481738E+04</pdfrwt>
<pdfrwt beam="1">  1       -1 0.16591151E+00 0.24481738E+04</pdfrwt>
<totfact> 0.18402046E+00</totfact>
</mgrwt>
</event>
<event>
 4    1  0.1323225E-008  0.2331729E+04  0.7816531E-02  0.8465515E-01
          2   -1    0    0  501    0  0.00000000000E+00  0.00000000000E+00  0.17248292364E+04  0.17248292364E+04  0.00000000000E+00 0.  1.
         -2   -1    0    0    0  501 -0.00000000000E+00 -0.00000000000E+00 -0.78804331988E+03  0.78804331988E+03  0.00000000000E+00 0. -1.
    2000013    1    1    2    0    0  0.61157045455E+02 -0.19421099830E+03 -0.22609377704E+03  0.99753520844E+03  0.95000000000E+03 0.  0.
   -2000013    1    1    2    0    0 -0.61157045455E+02  0.19421099830E+03  0.11628796936E+04  0.15153373478E+04  0.95000000000E+03 0.  0.
<mgrwt>
<rscale>  0 0.23317291E+04</rscale>
<asrwt>0</asrwt>
<pdfrwt beam="1">  1        2 0.26535834E+00 0.23317291E+04</pdfrwt>
<pdfrwt beam="2">  1       -2 0.12123743E+00 0.23317291E+04</pdfrwt>
<totfact> 0.44469041E+00</totfact>
</mgrwt>
</event>
<event>
 4    1  0.1323225E-008  0.2538660E+04  0.7816531E-02  0.8389341E-01
         -2   -1    0    0    0  501 -0.00000000000E+00  0.00000000000E+00  0.20277896598E+04  0.20277896598E+04  0.00000000000E+00 0. -1.
          2   -1    0    0  501    0  0.00000000000E+00 -0.00000000000E+00 -0.79455911845E+03  0.79455911845E+03  0.00000000000E+00 0.  1.
    2000013    1    1    2    0    0  0.22251121048E+03  0.33096749357E+03 -0.20761482713E+03  0.10510255168E+04  0.95000000000E+03 0.  0.
   -2000013    1    1    2    0    0 -0.22251121048E+03 -0.33096749357E+03  0.14408453685E+04  0.17713232614E+04  0.95000000000E+03 0.  0.
<mgrwt>
<rscale>  0 0.25386601E+04</rscale>
<asrwt>0</asrwt>
<pdfrwt beam="2">  1        2 0.12223987E+00 0.25386601E+04</pdfrwt>
<pdfrwt beam="1">  1       -2 0.31196764E+00 0.25386601E+04</pdfrwt>
<totfact> 0.82953785E-01</totfact>
</mgrwt>
</event>
<event>
 4    1  0.1323225E-008  0.3629216E+04  0.7816531E-02  0.8083832E-01
          2   -1    0    0  501    0  0.00000000000E+00  0.00000000000E+00  0.19053537615E+04  0.19053537615E+04  0.00000000000E+00 0.  1.
         -2   -1    0    0    0  501 -0.00000000000E+00 -0.00000000000E+00 -0.17281839060E+04  0.17281839060E+04  0.00000000000E+00 0. -1.
    2000013    1    1    2    0    0 -0.13681854706E+04  0.69940960871E+03 -0.82488164812E+02  0.18084273776E+04  0.95000000000E+03 0.  0.
   -2000013    1    1    2    0    0  0.13681854706E+04 -0.69940960871E+03  0.25965802027E+03  0.18251102899E+04  0.95000000000E+03 0.  0.
<mgrwt>
<rscale>  0 0.36292157E+04</rscale>
<asrwt>0</asrwt>
<pdfrwt beam="1">  1        2 0.29313135E+00 0.36292157E+04</pdfrwt>
<pdfrwt beam="2">  1       -2 0.26587445E+00 0.36292157E+04</pdfrwt>
<totfact> 0.31498221E-01</totfact>
</mgrwt>
</event>
<event>
 4    1  0.1323225E-008  0.2406385E+04  0.7816531E-02  0.8437117E-01
          2   -1    0    0  501    0  0.00000000000E+00  0.00000000000E+00  0.24525673743E+04  0.24525673743E+04  0.00000000000E+00 0.  1.
         -2   -1    0    0    0  501 -0.00000000000E+00 -0.00000000000E+00 -0.59026826142E+03  0.59026826142E+03  0.00000000000E+00 0. -1.
    2000013    1    1    2    0    0 -0.38175750204E+03 -0.55780355492E+03  0.55542739346E+03  0.12914655186E+04  0.95000000000E+03 0.  0.
   -2000013    1    1    2    0    0  0.38175750204E+03  0.55780355492E+03  0.13068717195E+04  0.17513701172E+04  0.95000000000E+03 0.  0.
<mgrwt>
<rscale>  0 0.24063854E+04</rscale>
<asrwt>0</asrwt>
<pdfrwt beam="1">  1        2 0.37731805E+00 0.24063854E+04</pdfrwt>
<pdfrwt beam="2">  1       -2 0.90810503E-01 0.24063854E+04</pdfrwt>
<totfact> 0.34493595E+00</totfact>
</mgrwt>
</event>
<event>
 4    1  0.1323225E-008  0.2599565E+04  0.7816531E-02  0.8368349E-01
          2   -1    0    0  501    0  0.00000000000E+00  0.00000000000E+00  0.93348829088E+03  0.93348829088E+03  0.00000000000E+00 0.  1.
         -2   -1    0    0    0  501 -0.00000000000E+00 -0.00000000000E+00 -0.18098086192E+04  0.18098086192E+04  0.00000000000E+00 0. -1.
    2000013    1    1    2    0    0  0.45875474441E+03 -0.69427273392E+03 -0.11381560021E+03  0.12680396427E+04  0.95000000000E+03 0.  0.
   -2000013    1    1    2    0    0 -0.45875474441E+03  0.69427273392E+03 -0.76250472812E+03  0.14752572674E+04  0.95000000000E+03 0.  0.
<mgrwt>
<rscale>  0 0.25995655E+04</rscale>
<asrwt>0</asrwt>
<pdfrwt beam="1">  1        2 0.14361358E+00 0.25995655E+04</pdfrwt>
<pdfrwt beam="2">  1       -2 0.27843209E+00 0.25995655E+04</pdfrwt>
<totfact> 0.10602747E+00</totfact>
</mgrwt>
</event>
<event>
 4    1  0.1323225E-008  0.3220389E+04  0.7816531E-02  0.8183453E-01
          2   -1    0    0  501    0  0.00000000000E+00  0.00000000000E+00  0.22007642721E+04  0.22007642721E+04  0.00000000000E+00 0.  1.
         -2   -1    0    0    0  501 -0.00000000000E+00 -0.00000000000E+00 -0.11781025198E+04  0.11781025198E+04  0.00000000000E+00 0. -1.
    2000013    1    1    2    0    0  0.12358245915E+04  0.21338917492E+03  0.87087290248E+03  0.17982538678E+04  0.95000000000E+03 0.  0.
   -2000013    1    1    2    0    0 -0.12358245915E+04 -0.21338917492E+03  0.15178884975E+03  0.15806129241E+04  0.95000000000E+03 0.  0.
<mgrwt>
<rscale>  0 0.32203888E+04</rscale>
<asrwt>0</asrwt>
<pdfrwt beam="1">  1        2 0.33857912E+00 0.32203888E+04</pdfrwt>
<pdfrwt beam="2">  1       -2 0.18124654E+00 0.32203888E+04</pdfrwt>
<totfact> 0.77093293E-01</totfact>
</mgrwt>
</event>
<event>
 4    1  0.1323225E-008  0.3208938E+04  0.7816531E-02  0.8186461E-01
          2   -1    0    0  501    0  0.00000000000E+00  0.00000000000E+00  0.16023900129E+04  0.16023900129E+04  0.00000000000E+00 0.  1.
         -2   -1    0    0    0  501 -0.00000000000E+00 -0.00000000000E+00 -0.16065509572E+04  0.16065509572E+04  0.00000000000E+00 0. -1.
    2000013    1    1    2    0    0 -0.59635859765E+03 -0.10101992267E+04 -0.54584112862E+03  0.16051755644E+04  0.95000000000E+03 0.  0.
   -2000013    1    1    2    0    0  0.59635859765E+03  0.10101992267E+04  0.54168018430E+03  0.16037654058E+04  0.95000000000E+03 0.  0.
<mgrwt>
<rscale>  0 0.32089383E+04</rscale>
<asrwt>0</asrwt>
<pdfrwt beam="1">  1        2 0.24652154E+00 0.32089383E+04</pdfrwt>
<pdfrwt beam="2">  1       -2 0.24716168E+00 0.32089383E+04</pdfrwt>
<totfact> 0.62588257E-01</totfact>
</mgrwt>
</event>
<event>
 4    1  0.1323225E-008  0.2324313E+04  0.7816531E-02  0.8468396E-01
          2   -1    0    0  501    0  0.00000000000E+00  0.00000000000E+00  0.97631423149E+03  0.97631423149E+03  0.00000000000E+00 0.  1.
         -2   -1    0    0    0  501 -0.00000000000E+00 -0.00000000000E+00 -0.13833738661E+04  0.13833738661E+04  0.00000000000E+00 0. -1.
    2000013    1    1    2    0    0  0.19684424181E+03 -0.59962686030E+03  0.23042930342E+02  0.11407589595E+04  0.95000000000E+03 0.  0.
   -2000013    1    1    2    0    0 -0.19684424181E+03  0.59962686030E+03 -0.43010256491E+03  0.12189291380E+04  0.95000000000E+03 0.  0.
<mgrwt>
<rscale>  0 0.23243129E+04</rscale>
<asrwt>0</asrwt>
<pdfrwt beam="1">  1        2 0.15020219E+00 0.23243129E+04</pdfrwt>
<pdfrwt beam="2">  1       -2 0.21282675E+00 0.23243129E+04</pdfrwt>
<totfact> 0.25920653E+00</totfact>
</mgrwt>
</event>
<event>
 4    1  0.1323225E-008  0.2235966E+04  0.7816531E-02  0.8503605E-01
          2   -1    0    0  501    0  0.00000000000E+00  0.00000000000E+00  0.78126400180E+03  0.78126400180E+03  0.00000000000E+00 0.  1.
         -2   -1    0    0    0  501 -0.00000000000E+00 -0.00000000000E+00 -0.15998260782E+04  0.15998260782E+04  0.00000000000E+00 0. -1.
    2000013    1    1    2    0    0 -0.57769707762E+02  0.51850469030E+03 -0.70130967262E+03  0.12909375314E+04  0.95000000000E+03 0.  0.
   -2000013    1    1    2    0    0  0.57769707762E+02 -0.51850469030E+03 -0.11725240373E+03  0.10901525486E+04  0.95000000000E+03 0.  0.
<mgrwt>
<rscale>  0 0.22359665E+04</rscale>
<asrwt>0</asrwt>
<pdfrwt beam="1">  1        2 0.12019446E+00 0.22359665E+04</pdfrwt>
<pdfrwt beam="2">  1       -2 0.24612709E+00 0.22359665E+04</pdfrwt>
<totfact> 0.21988854E+00</totfact>
</mgrwt>
</event>
<event>
 4    1  0.1323225E-008  0.2975912E+04  0.7816531E-02  0.8250643E-01
         -2   -1    0    0    0  501 -0.00000000000E+00  0.00000000000E+00  0.10564948334E+04  0.10564948334E+04  0.00000000000E+00 0. -1.
          2   -1    0    0  501    0  0.00000000000E+00 -0.00000000000E+00 -0.20956210133E+04  0.20956210133E+04  0.00000000000E+00 0.  1.
    2000013    1    1    2    0    0  0.25734859537E+03 -0.11108656473E+04 -0.40715705405E+03  0.15390021613E+04  0.95000000000E+03 0.  0.
   -2000013    1    1    2    0    0 -0.25734859537E+03  0.11108656473E+04 -0.63196912583E+03  0.16131136854E+04  0.95000000000E+03 0.  0.
<mgrwt>
<rscale>  0 0.29759118E+04</rscale>
<asrwt>0</asrwt>
<pdfrwt beam="2">  1        2 0.32240323E+00 0.29759118E+04</pdfrwt>
<pdfrwt beam="1">  1       -2 0.16253767E+00 0.29759118E+04</pdfrwt>
<totfact> 0.12229563E+00</totfact>
</mgrwt>
</event>
<event>
 4    1  0.1323225E-008  0.2130914E+04  0.7816531E-02  0.8547746E-01
          2   -1    0    0  501    0  0.00000000000E+00  0.00000000000E+00  0.19644493811E+04  0.19644493811E+04  0.00000000000E+00 0. -1.
         -2   -1    0    0    0  501 -0.00000000000E+00 -0.00000000000E+00 -0.57787110501E+03  0.57787110501E+03  0.00000000000E+00 0.  1.
    2000013    1    1    2    0    0 -0.28830611193E+03  0.37939536987E+03  0.60371163476E+03  0.12223047896E+04  0.95000000000E+03 0.  0.
   -2000013    1    1    2    0    0  0.28830611193E+03 -0.37939536987E+03  0.78286664137E+03  0.13200156965E+04  0.95000000000E+03 0.  0.
<mgrwt>
<rscale>  0 0.21309139E+04</rscale>
<asrwt>0</asrwt>
<pdfrwt beam="1">  1        2 0.30222298E+00 0.21309139E+04</pdfrwt>
<pdfrwt beam="2">  1       -2 0.88903247E-01 0.21309139E+04</pdfrwt>
<totfact> 0.69871070E+00</totfact>
</mgrwt>
</event>
<event>
 4    1  0.1323225E-008  0.2408808E+04  0.7816531E-02  0.8436213E-01
          2   -1    0    0  501    0  0.00000000000E+00  0.00000000000E+00  0.36813608788E+04  0.36813608788E+04  0.00000000000E+00 0.  1.
         -2   -1    0    0    0  501 -0.00000000000E+00 -0.00000000000E+00 -0.39403594817E+03  0.39403594817E+03  0.00000000000E+00 0. -1.
    2000013    1    1    2    0    0  0.73272424374E+03  0.10563715756E+03  0.16323765116E+04  0.20285948590E+04  0.95000000000E+03 0.  0.
   -2000013    1    1    2    0    0 -0.73272424374E+03 -0.10563715756E+03  0.16549484191E+04  0.20468019680E+04  0.95000000000E+03 0.  0.
<mgrwt>
<rscale>  0 0.24088076E+04</rscale>
<asrwt>0</asrwt>
<pdfrwt beam="1">  1        2 0.56636319E+00 0.24088076E+04</pdfrwt>
<pdfrwt beam="2">  1       -2 0.60620918E-01 0.24088076E+04</pdfrwt>
<totfact> 0.13755601E+00</totfact>
</mgrwt>
</event>
<event>
 4    1  0.1323225E-008  0.2891505E+04  0.7816531E-02  0.8275409E-01
          2   -1    0    0  501    0  0.00000000000E+00  0.00000000000E+00  0.17008628413E+04  0.17008628413E+04  0.00000000000E+00 0.  1.
         -2   -1    0    0    0  501 -0.00000000000E+00 -0.00000000000E+00 -0.12289061054E+04  0.12289061054E+04  0.00000000000E+00 0. -1.
    2000013    1    1    2    0    0 -0.96529729172E+03  0.46331061058E+03  0.30201854164E+02  0.14317359167E+04  0.95000000000E+03 0.  0.
   -2000013    1    1    2    0    0  0.96529729172E+03 -0.46331061058E+03  0.44175488171E+03  0.14980330299E+04  0.95000000000E+03 0.  0.
<mgrwt>
<rscale>  0 0.28915053E+04</rscale>
<asrwt>0</asrwt>
<pdfrwt beam="1">  1        2 0.26167121E+00 0.28915053E+04</pdfrwt>
<pdfrwt beam="2">  1       -2 0.18906248E+00 0.28915053E+04</pdfrwt>
<totfact> 0.13307401E+00</totfact>
</mgrwt>
</event>
<event>
 4    1  0.1323225E-008  0.2645732E+04  0.7816531E-02  0.8352831E-01
          2   -1    0    0  501    0  0.00000000000E+00  0.00000000000E+00  0.37615726905E+04  0.37615726905E+04  0.00000000000E+00 0.  1.
         -2   -1    0    0    0  501 -0.00000000000E+00 -0.00000000000E+00 -0.46522420321E+03  0.46522420321E+03  0.00000000000E+00 0. -1.
    2000013    1    1    2    0    0 -0.49453325247E+03 -0.60897429274E+03  0.87857016402E+03  0.15132079699E+04  0.95000000000E+03 0.  0.
   -2000013    1    1    2    0    0  0.49453325247E+03  0.60897429274E+03  0.24177783233E+04  0.27135889239E+04  0.95000000000E+03 0.  0.
<mgrwt>
<rscale>  0 0.26457322E+04</rscale>
<asrwt>0</asrwt>
<pdfrwt beam="1">  1        2 0.57870347E+00 0.26457322E+04</pdfrwt>
<pdfrwt beam="2">  1       -2 0.71572957E-01 0.26457322E+04</pdfrwt>
<totfact> 0.82027424E-01</totfact>
</mgrwt>
</event>
<event>
 4    1  0.1323225E-008  0.2679662E+04  0.7816531E-02  0.8341634E-01
          2   -1    0    0  501    0  0.00000000000E+00  0.00000000000E+00  0.57872084279E+03  0.57872084279E+03  0.00000000000E+00 0.  1.
         -2   -1    0    0    0  501 -0.00000000000E+00 -0.00000000000E+00 -0.31019224563E+04  0.31019224563E+04  0.00000000000E+00 0. -1.
    2000013    1    1    2    0    0  0.12905045909E+03 -0.86446687031E+03 -0.17543392207E+04  0.21781099817E+04  0.95000000000E+03 0.  0.
   -2000013    1    1    2    0    0 -0.12905045909E+03  0.86446687031E+03 -0.76886239273E+03  0.15025333174E+04  0.95000000000E+03 0.  0.
<mgrwt>
<rscale>  0 0.26796621E+04</rscale>
<asrwt>0</asrwt>
<pdfrwt beam="1">  1        2 0.89033977E-01 0.26796621E+04</pdfrwt>
<pdfrwt beam="2">  1       -2 0.47721883E+00 0.26796621E+04</pdfrwt>
<totfact> 0.10451464E-01</totfact>
</mgrwt>
</event>
<event>
 4    1  0.1323225E-008  0.2954038E+04  0.7816531E-02  0.8256979E-01
         -2   -1    0    0    0  501 -0.00000000000E+00  0.00000000000E+00  0.11772712512E+04  0.11772712512E+04  0.00000000000E+00 0. -1.
          2   -1    0    0  501    0  0.00000000000E+00 -0.00000000000E+00 -0.18530866332E+04  0.18530866332E+04  0.00000000000E+00 0.  1.
    2000013    1    1    2    0    0  0.69583808560E+03 -0.51656647956E+03  0.40753967382E+03  0.13489329690E+04  0.95000000000E+03 0.  0.
   -2000013    1    1    2    0    0 -0.69583808560E+03  0.51656647956E+03 -0.10833550557E+04  0.16814249154E+04  0.95000000000E+03 0.  0.
<mgrwt>
<rscale>  0 0.29540383E+04</rscale>
<asrwt>0</asrwt>
<pdfrwt beam="2">  1        2 0.28509025E+00 0.29540383E+04</pdfrwt>
<pdfrwt beam="1">  1       -2 0.18111865E+00 0.29540383E+04</pdfrwt>
<totfact> 0.12342272E+00</totfact>
</mgrwt>
</event>
<event>
 4    1  0.1323225E-008  0.3778780E+04  0.7816531E-02  0.8050724E-01
          2   -1    0    0  501    0  0.00000000000E+00  0.00000000000E+00  0.19294357092E+04  0.19294357092E+04  0.00000000000E+00 0.  1.
         -2   -1    0    0    0  501 -0.00000000000E+00 -0.00000000000E+00 -0.18501749655E+04  0.18501749655E+04  0.00000000000E+00 0. -1.
    2000013    1    1    2    0    0 -0.15259789485E+03  0.15462283580E+04 -0.46365561598E+03  0.18792511229E+04  0.95000000000E+03 0.  0.
   -2000013    1    1    2    0    0  0.15259789485E+03 -0.15462283580E+04  0.54291635966E+03  0.19003595518E+04  0.95000000000E+03 0.  0.
<mgrwt>
<rscale>  0 0.37787795E+04</rscale>
<asrwt>0</asrwt>
<pdfrwt beam="1">  1        2 0.29683626E+00 0.37787795E+04</pdfrwt>
<pdfrwt beam="2">  1       -2 0.28464230E+00 0.37787795E+04</pdfrwt>
<totfact> 0.23174991E-01</totfact>
</mgrwt>
</event>
<event>
 4    1  0.1323225E-008  0.2059364E+04  0.7816531E-02  0.8579358E-01
          2   -1    0    0  501    0  0.00000000000E+00  0.00000000000E+00  0.28472631635E+04  0.28472631635E+04  0.00000000000E+00 0.  1.
         -2   -1    0    0    0  501 -0.00000000000E+00 -0.00000000000E+00 -0.37237346378E+03  0.37237346378E+03  0.00000000000E+00 0. -1.
    2000013    1    1    2    0    0  0.30034170050E+03  0.94422523732E+02  0.85890355849E+03  0.13188389109E+04  0.95000000000E+03 0.  0.
   -2000013    1    1    2    0    0 -0.30034170050E+03 -0.94422523732E+02  0.16159861412E+04  0.19007977164E+04  0.95000000000E+03 0.  0.
<mgrwt>
<rscale>  0 0.20593642E+04</rscale>
<asrwt>0</asrwt>
<pdfrwt beam="1">  1        2 0.43804047E+00 0.20593642E+04</pdfrwt>
<pdfrwt beam="2">  1       -2 0.57288227E-01 0.20593642E+04</pdfrwt>
<totfact> 0.57215183E+00</totfact>
</mgrwt>
</event>
<event>
 4    1  0.1323225E-008  0.2532286E+04  0.7816531E-02  0.8391573E-01
          2   -1    0    0  501    0  0.00000000000E+00  0.00000000000E+00  0.24072677953E+04  0.24072677953E+04  0.00000000000E+00 0. -1.
         -2   -1    0    0    0  501 -0.00000000000E+00 -0.00000000000E+00 -0.66594936314E+03  0.66594936314E+03  0.00000000000E+00 0.  1.
    2000013    1    1    2    0    0 -0.73543147409E+03  0.36581960112E+03  0.67521458116E+03  0.14258675129E+04  0.95000000000E+03 0.  0.
   -2000013    1    1    2    0    0  0.73543147409E+03 -0.36581960112E+03  0.10661038510E+04  0.16473496456E+04  0.95000000000E+03 0.  0.
<mgrwt>
<rscale>  0 0.25322863E+04</rscale>
<asrwt>0</asrwt>
<pdfrwt beam="1">  1        2 0.37034889E+00 0.25322863E+04</pdfrwt>
<pdfrwt beam="2">  1       -2 0.10245375E+00 0.25322863E+04</pdfrwt>
<totfact> 0.27301318E+00</totfact>
</mgrwt>
</event>
<event>
 4    1  0.1323225E-008  0.2319108E+04  0.7816531E-02  0.8470425E-01
         -3   -1    0    0    0  501 -0.00000000000E+00  0.00000000000E+00  0.22764029710E+04  0.22764029710E+04  0.00000000000E+00 0. -1.
          3   -1    0    0  501    0  0.00000000000E+00 -0.00000000000E+00 -0.59065344449E+03  0.59065344449E+03  0.00000000000E+00 0.  1.
    2000013    1    1    2    0    0  0.36328284641E+03 -0.50904967298E+03  0.56379595719E+03  0.12694376225E+04  0.95000000000E+03 0.  0.
   -2000013    1    1    2    0    0 -0.36328284641E+03  0.50904967298E+03  0.11219535693E+04  0.15976187930E+04  0.95000000000E+03 0.  0.
<mgrwt>
<rscale>  0 0.23191078E+04</rscale>
<asrwt>0</asrwt>
<pdfrwt beam="2">  1        3 0.90869762E-01 0.23191078E+04</pdfrwt>
<pdfrwt beam="1">  1       -3 0.35021584E+00 0.23191078E+04</pdfrwt>
<totfact> 0.51459750E-02</totfact>
</mgrwt>
</event>
<event>
 4    1  0.1323225E-008  0.2194322E+04  0.7816531E-02  0.8520795E-01
          2   -1    0    0  501    0  0.00000000000E+00  0.00000000000E+00  0.32174072262E+04  0.32174072262E+04  0.00000000000E+00 0.  1.
         -2   -1    0    0    0  501 -0.00000000000E+00 -0.00000000000E+00 -0.37414048340E+03  0.37414048340E+03  0.00000000000E+00 0. -1.
    2000013    1    1    2    0    0  0.28173006040E+03 -0.42611241795E+03  0.17502839516E+04  0.20559517336E+04  0.95000000000E+03 0.  0.
   -2000013    1    1    2    0    0 -0.28173006040E+03  0.42611241795E+03  0.10929827912E+04  0.15355959760E+04  0.95000000000E+03 0.  0.
<mgrwt>
<rscale>  0 0.21943220E+04</rscale>
<asrwt>0</asrwt>
<pdfrwt beam="1">  1        2 0.49498571E+00 0.21943220E+04</pdfrwt>
<pdfrwt beam="2">  1       -2 0.57560076E-01 0.21943220E+04</pdfrwt>
<totfact> 0.32723506E+00</totfact>
</mgrwt>
</event>
<event>
 4    1  0.1323225E-008  0.2217438E+04  0.7816531E-02  0.8511205E-01
         -2   -1    0    0    0  501 -0.00000000000E+00  0.00000000000E+00  0.10506601608E+04  0.10506601608E+04  0.00000000000E+00 0. -1.
          2   -1    0    0  501    0  0.00000000000E+00 -0.00000000000E+00 -0.11699862604E+04  0.11699862604E+04  0.00000000000E+00 0.  1.
    2000013    1    1    2    0    0 -0.24085395725E+03  0.45757505814E+03  0.18435399913E+03  0.10972109914E+04  0.95000000000E+03 0.  0.
   -2000013    1    1    2    0    0  0.24085395725E+03 -0.45757505814E+03 -0.30368009875E+03  0.11234354298E+04  0.95000000000E+03 0.  0.
<mgrwt>
<rscale>  0 0.22174381E+04</rscale>
<asrwt>0</asrwt>
<pdfrwt beam="2">  1        2 0.17999789E+00 0.22174381E+04</pdfrwt>
<pdfrwt beam="1">  1       -2 0.16164003E+00 0.22174381E+04</pdfrwt>
<totfact> 0.44148699E+00</totfact>
</mgrwt>
</event>
<event>
 4    1  0.1323225E-008  0.2715295E+04  0.7816531E-02  0.8330059E-01
          2   -1    0    0  501    0  0.00000000000E+00  0.00000000000E+00  0.11053658697E+04  0.11053658697E+04  0.00000000000E+00 0.  1.
         -2   -1    0    0    0  501 -0.00000000000E+00 -0.00000000000E+00 -0.16675087587E+04  0.16675087587E+04  0.00000000000E+00 0. -1.
    2000013    1    1    2    0    0 -0.59137855186E+03 -0.74051537468E+03 -0.49188461889E+03  0.14291753182E+04  0.95000000000E+03 0.  0.
   -2000013    1    1    2    0    0  0.59137855186E+03  0.74051537468E+03 -0.70258270084E+02  0.13436993102E+04  0.95000000000E+03 0.  0.
<mgrwt>
<rscale>  0 0.27152954E+04</rscale>
<asrwt>0</asrwt>
<pdfrwt beam="1">  1        2 0.17005629E+00 0.27152954E+04</pdfrwt>
<pdfrwt beam="2">  1       -2 0.25653981E+00 0.27152954E+04</pdfrwt>
<totfact> 0.11097590E+00</totfact>
</mgrwt>
</event>
<event>
 4    1  0.1323225E-008  0.3095932E+04  0.7816531E-02  0.8216855E-01
         -1   -1    0    0    0  501 -0.00000000000E+00  0.00000000000E+00  0.14256162051E+04  0.14256162051E+04  0.00000000000E+00 0. -1.
          1   -1    0    0  501    0  0.00000000000E+00 -0.00000000000E+00 -0.16808164626E+04  0.16808164626E+04  0.00000000000E+00 0.  1.
    2000013    1    1    2    0    0  0.10018988032E+04  0.59094777266E+03  0.24874358971E+03  0.15222988719E+04  0.95000000000E+03 0.  0.
   -2000013    1    1    2    0    0 -0.10018988032E+04 -0.59094777266E+03 -0.50394384720E+03  0.15841337958E+04  0.95000000000E+03 0.  0.
<mgrwt>
<rscale>  0 0.30959323E+04</rscale>
<asrwt>0</asrwt>
<pdfrwt beam="2">  1        1 0.25858715E+00 0.30959323E+04</pdfrwt>
<pdfrwt beam="1">  1       -1 0.21932557E+00 0.30959323E+04</pdfrwt>
<totfact> 0.46110691E-01</totfact>
</mgrwt>
</event>
<event>
 4    1  0.1323225E-008  0.2795075E+04  0.7816531E-02  0.8304799E-01
          2   -1    0    0  501    0  0.00000000000E+00  0.00000000000E+00  0.24194085346E+04  0.24194085346E+04  0.00000000000E+00 0.  1.
         -2   -1    0    0    0  501 -0.00000000000E+00 -0.00000000000E+00 -0.80726815522E+03  0.80726815522E+03  0.00000000000E+00 0. -1.
    2000013    1    1    2    0    0 -0.62010425073E+03  0.35865980778E+03  0.16523794367E+04  0.20361787599E+04  0.95000000000E+03 0.  0.
   -2000013    1    1    2    0    0  0.62010425073E+03 -0.35865980778E+03 -0.40239057273E+02  0.11904979300E+04  0.95000000000E+03 0.  0.
<mgrwt>
<rscale>  0 0.27950753E+04</rscale>
<asrwt>0</asrwt>
<pdfrwt beam="1">  1        2 0.37221670E+00 0.27950753E+04</pdfrwt>
<pdfrwt beam="2">  1       -2 0.12419510E+00 0.27950753E+04</pdfrwt>
<totfact> 0.16434447E+00</totfact>
</mgrwt>
</event>
<event>
 4    1  0.1323225E-008  0.3493503E+04  0.7816531E-02  0.8115331E-01
          2   -1    0    0  501    0  0.00000000000E+00  0.00000000000E+00  0.20212858378E+04  0.20212858378E+04  0.00000000000E+00 0.  1.
         -2   -1    0    0    0  501 -0.00000000000E+00 -0.00000000000E+00 -0.15095047440E+04  0.15095047440E+04  0.00000000000E+00 0. -1.
    2000013    1    1    2    0    0 -0.26970920565E+03  0.14331231392E+04  0.10579423149E+03  0.17436391276E+04  0.95000000000E+03 0.  0.
   -2000013    1    1    2    0    0  0.26970920565E+03 -0.14331231392E+04  0.40598686231E+03  0.17871514542E+04  0.95000000000E+03 0.  0.
<mgrwt>
<rscale>  0 0.34935029E+04</rscale>
<asrwt>0</asrwt>
<pdfrwt beam="1">  1        2 0.31096705E+00 0.34935029E+04</pdfrwt>
<pdfrwt beam="2">  1       -2 0.23223150E+00 0.34935029E+04</pdfrwt>
<totfact> 0.44257027E-01</totfact>
</mgrwt>
</event>
<event>
 4    1  0.1323225E-008  0.2747135E+04  0.7816531E-02  0.8319871E-01
         -2   -1    0    0    0  501 -0.00000000000E+00  0.00000000000E+00  0.10162130310E+04  0.10162130310E+04  0.00000000000E+00 0.  1.
          2   -1    0    0  501    0  0.00000000000E+00 -0.00000000000E+00 -0.18565867748E+04  0.18565867748E+04  0.00000000000E+00 0. -1.
    2000013    1    1    2    0    0 -0.57903710120E+03 -0.52629375498E+03 -0.10579351666E+04  0.16229589945E+04  0.95000000000E+03 0.  0.
   -2000013    1    1    2    0    0  0.57903710120E+03  0.52629375498E+03  0.21756142273E+03  0.12498408114E+04  0.95000000000E+03 0.  0.
<mgrwt>
<rscale>  0 0.27471350E+04</rscale>
<asrwt>0</asrwt>
<pdfrwt beam="2">  1        2 0.28562873E+00 0.27471350E+04</pdfrwt>
<pdfrwt beam="1">  1       -2 0.15634047E+00 0.27471350E+04</pdfrwt>
<totfact> 0.18817426E+00</totfact>
</mgrwt>
</event>
<event>
 4    1  0.1323225E-008  0.2148071E+04  0.7816531E-02  0.8540359E-01
         -2   -1    0    0    0  501 -0.00000000000E+00  0.00000000000E+00  0.99277870260E+03  0.99277870260E+03  0.00000000000E+00 0. -1.
          2   -1    0    0  501    0  0.00000000000E+00 -0.00000000000E+00 -0.11619426779E+04  0.11619426779E+04  0.00000000000E+00 0.  1.
    2000013    1    1    2    0    0  0.14284168705E+03  0.40742973760E+03  0.17046731713E+03  0.10573371481E+04  0.95000000000E+03 0.  0.
   -2000013    1    1    2    0    0 -0.14284168705E+03 -0.40742973760E+03 -0.33963129244E+03  0.10973842324E+04  0.95000000000E+03 0.  0.
<mgrwt>
<rscale>  0 0.21480707E+04</rscale>
<asrwt>0</asrwt>
<pdfrwt beam="2">  1        2 0.17876041E+00 0.21480707E+04</pdfrwt>
<pdfrwt beam="1">  1       -2 0.15273518E+00 0.21480707E+04</pdfrwt>
<totfact> 0.52338512E+00</totfact>
</mgrwt>
</event>
<event>
 4    1  0.1323225E-008  0.3036733E+04  0.7816531E-02  0.8233319E-01
          2   -1    0    0  501    0  0.00000000000E+00  0.00000000000E+00  0.25208552042E+04  0.25208552042E+04  0.00000000000E+00 0.  1.
         -2   -1    0    0    0  501 -0.00000000000E+00 -0.00000000000E+00 -0.91454543012E+03  0.91454543012E+03  0.00000000000E+00 0. -1.
    2000013    1    1    2    0    0  0.57543210865E+03 -0.99557172081E+03  0.48187992776E+03  0.15674799609E+04  0.95000000000E+03 0.  0.
   -2000013    1    1    2    0    0 -0.57543210865E+03  0.99557172081E+03  0.11244298463E+04  0.18679206734E+04  0.95000000000E+03 0.  0.
<mgrwt>
<rscale>  0 0.30367329E+04</rscale>
<asrwt>0</asrwt>
<pdfrwt beam="1">  1        2 0.38782388E+00 0.30367329E+04</pdfrwt>
<pdfrwt beam="2">  1       -2 0.14069930E+00 0.30367329E+04</pdfrwt>
<totfact> 0.10240854E+00</totfact>
</mgrwt>
</event>
<event>
 4    1  0.1323225E-008  0.2703372E+04  0.7816531E-02  0.8333912E-01
          2   -1    0    0  501    0  0.00000000000E+00  0.00000000000E+00  0.10857763947E+04  0.10857763947E+04  0.00000000000E+00 0.  1.
         -2   -1    0    0    0  501 -0.00000000000E+00 -0.00000000000E+00 -0.16827177380E+04  0.16827177380E+04  0.00000000000E+00 0. -1.
    2000013    1    1    2    0    0 -0.28886917890E+03 -0.86979005692E+03 -0.64720304287E+00  0.13200305165E+04  0.95000000000E+03 0.  0.
   -2000013    1    1    2    0    0  0.28886917890E+03  0.86979005692E+03 -0.59629414021E+03  0.14484636161E+04  0.95000000000E+03 0.  0.
<mgrwt>
<rscale>  0 0.27033721E+04</rscale>
<asrwt>0</asrwt>
<pdfrwt beam="1">  1        2 0.16704252E+00 0.27033721E+04</pdfrwt>
<pdfrwt beam="2">  1       -2 0.25887965E+00 0.27033721E+04</pdfrwt>
<totfact> 0.11051920E+00</totfact>
</mgrwt>
</event>
<event>
 4    1  0.1323225E-008  0.2567417E+04  0.7816531E-02  0.8379354E-01
         -2   -1    0    0    0  501 -0.00000000000E+00  0.00000000000E+00  0.19146308368E+04  0.19146308368E+04  0.00000000000E+00 0. -1.
          2   -1    0    0  501    0  0.00000000000E+00 -0.00000000000E+00 -0.86069217423E+03  0.86069217423E+03  0.00000000000E+00 0.  1.
    2000013    1    1    2    0    0 -0.20290137118E+03  0.80877101064E+03  0.76899332331E+03  0.14795709667E+04  0.95000000000E+03 0.  0.
   -2000013    1    1    2    0    0  0.20290137118E+03 -0.80877101064E+03  0.28494533924E+03  0.12957520444E+04  0.95000000000E+03 0.  0.
<mgrwt>
<rscale>  0 0.25674172E+04</rscale>
<asrwt>0</asrwt>
<pdfrwt beam="2">  1        2 0.13241418E+00 0.25674172E+04</pdfrwt>
<pdfrwt beam="1">  1       -2 0.29455859E+00 0.25674172E+04</pdfrwt>
<totfact> 0.94966728E-01</totfact>
</mgrwt>
</event>
<event>
 4    1  0.1323225E-008  0.2409184E+04  0.7816531E-02  0.8436073E-01
         -2   -1    0    0    0  501 -0.00000000000E+00  0.00000000000E+00  0.59521478985E+03  0.59521478985E+03  0.00000000000E+00 0. -1.
          2   -1    0    0  501    0  0.00000000000E+00 -0.00000000000E+00 -0.24378457807E+04  0.24378457807E+04  0.00000000000E+00 0.  1.
    2000013    1    1    2    0    0 -0.18435037768E+03  0.71531599100E+03 -0.85375467081E+03  0.14754860442E+04  0.95000000000E+03 0.  0.
   -2000013    1    1    2    0    0  0.18435037768E+03 -0.71531599100E+03 -0.98887632001E+03  0.15575745263E+04  0.95000000000E+03 0.  0.
<mgrwt>
<rscale>  0 0.24091840E+04</rscale>
<asrwt>0</asrwt>
<pdfrwt beam="2">  1        2 0.37505321E+00 0.24091840E+04</pdfrwt>
<pdfrwt beam="1">  1       -2 0.91571504E-01 0.24091840E+04</pdfrwt>
<totfact> 0.34492529E+00</totfact>
</mgrwt>
</event>
<event>
 4    1  0.1323225E-008  0.2609634E+04  0.7816531E-02  0.8364936E-01
          2   -1    0    0  501    0  0.00000000000E+00  0.00000000000E+00  0.26777043891E+04  0.26777043891E+04  0.00000000000E+00 0.  1.
         -2   -1    0    0    0  501 -0.00000000000E+00 -0.00000000000E+00 -0.63582366000E+03  0.63582366000E+03  0.00000000000E+00 0. -1.
    2000013    1    1    2    0    0  0.33630098605E+02  0.89211610627E+03  0.95086703721E+03  0.16135830481E+04  0.95000000000E+03 0.  0.
   -2000013    1    1    2    0    0 -0.33630098605E+02 -0.89211610627E+03  0.10910136919E+04  0.16999450010E+04  0.95000000000E+03 0.  0.
<mgrwt>
<rscale>  0 0.26096343E+04</rscale>
<asrwt>0</asrwt>
<pdfrwt beam="1">  1        2 0.41195452E+00 0.26096343E+04</pdfrwt>
<pdfrwt beam="2">  1       -2 0.97819026E-01 0.26096343E+04</pdfrwt>
<totfact> 0.21052713E+00</totfact>
</mgrwt>
</event>
<event>
 4    1  0.1323225E-008  0.2369111E+04  0.7816531E-02  0.8451159E-01
         -2   -1    0    0    0  501 -0.00000000000E+00  0.00000000000E+00  0.12380204988E+04  0.12380204988E+04  0.00000000000E+00 0. -1.
          2   -1    0    0  501    0  0.00000000000E+00 -0.00000000000E+00 -0.11333991976E+04  0.11333991976E+04  0.00000000000E+00 0.  1.
    2000013    1    1    2    0    0 -0.46265411033E+03  0.44512195618E+03 -0.24545037077E+03  0.11725733522E+04  0.95000000000E+03 0.  0.
   -2000013    1    1    2    0    0  0.46265411033E+03 -0.44512195618E+03  0.35007167190E+03  0.11988463443E+04  0.95000000000E+03 0.  0.
<mgrwt>
<rscale>  0 0.23691108E+04</rscale>
<asrwt>0</asrwt>
<pdfrwt beam="2">  1        2 0.17436911E+00 0.23691108E+04</pdfrwt>
<pdfrwt beam="1">  1       -2 0.19046469E+00 0.23691108E+04</pdfrwt>
<totfact> 0.28827826E+00</totfact>
</mgrwt>
</event>
<event>
 4    1  0.1323225E-008  0.2368872E+04  0.7816531E-02  0.8451250E-01
         -2   -1    0    0    0  501 -0.00000000000E+00  0.00000000000E+00  0.67192383486E+03  0.67192383486E+03  0.00000000000E+00 0. -1.
          2   -1    0    0  501    0  0.00000000000E+00 -0.00000000000E+00 -0.20878681313E+04  0.20878681313E+04  0.00000000000E+00 0.  1.
    2000013    1    1    2    0    0 -0.30854486492E+03 -0.55624342299E+03 -0.34741341080E+03  0.11949070078E+04  0.95000000000E+03 0.  0.
   -2000013    1    1    2    0    0  0.30854486492E+03  0.55624342299E+03 -0.10685308856E+04  0.15648849583E+04  0.95000000000E+03 0.  0.
<mgrwt>
<rscale>  0 0.23688718E+04</rscale>
<asrwt>0</asrwt>
<pdfrwt beam="2">  1        2 0.32121048E+00 0.23688718E+04</pdfrwt>
<pdfrwt beam="1">  1       -2 0.10337290E+00 0.23688718E+04</pdfrwt>
<totfact> 0.41058366E+00</totfact>
</mgrwt>
</event>
<event>
 4    1  0.1323225E-008  0.3976963E+04  0.7816531E-02  0.8009210E-01
          2   -1    0    0  501    0  0.00000000000E+00  0.00000000000E+00  0.32564814536E+04  0.32564814536E+04  0.00000000000E+00 0.  1.
         -2   -1    0    0    0  501 -0.00000000000E+00 -0.00000000000E+00 -0.12142122031E+04  0.12142122031E+04  0.00000000000E+00 0. -1.
    2000013    1    1    2    0    0 -0.34639953383E+03 -0.14268670143E+04 -0.42725614155E+02  0.17493620527E+04  0.95000000000E+03 0.  0.
   -2000013    1    1    2    0    0  0.34639953383E+03  0.14268670143E+04  0.20849948647E+04  0.27213316040E+04  0.95000000000E+03 0.  0.
<mgrwt>
<rscale>  0 0.39769634E+04</rscale>
<asrwt>0</asrwt>
<pdfrwt beam="1">  1        2 0.50099714E+00 0.39769634E+04</pdfrwt>
<pdfrwt beam="2">  1       -2 0.18680188E+00 0.39769634E+04</pdfrwt>
<totfact> 0.15309832E-01</totfact>
</mgrwt>
</event>
<event>
 4    1  0.1323225E-008  0.2564367E+04  0.7816531E-02  0.8380406E-01
          2   -1    0    0  501    0  0.00000000000E+00  0.00000000000E+00  0.11613954400E+04  0.11613954400E+04  0.00000000000E+00 0.  1.
         -2   -1    0    0    0  501 -0.00000000000E+00 -0.00000000000E+00 -0.14155342901E+04  0.14155342901E+04  0.00000000000E+00 0. -1.
    2000013    1    1    2    0    0  0.83093276666E+03  0.65464280009E+02 -0.34436989603E+03  0.13098952095E+04  0.95000000000E+03 0.  0.
   -2000013    1    1    2    0    0 -0.83093276666E+03 -0.65464280009E+02  0.90231045946E+02  0.12670345206E+04  0.95000000000E+03 0.  0.
<mgrwt>
<rscale>  0 0.25643674E+04</rscale>
<asrwt>0</asrwt>
<pdfrwt beam="1">  1        2 0.17867622E+00 0.25643674E+04</pdfrwt>
<pdfrwt beam="2">  1       -2 0.21777451E+00 0.25643674E+04</pdfrwt>
<totfact> 0.18099241E+00</totfact>
</mgrwt>
</event>
<event>
 4    1  0.1323225E-008  0.3214315E+04  0.7816531E-02  0.8185047E-01
          2   -1    0    0  501    0  0.00000000000E+00  0.00000000000E+00  0.93920390657E+03  0.93920390657E+03  0.00000000000E+00 0.  1.
         -2   -1    0    0    0  501 -0.00000000000E+00 -0.00000000000E+00 -0.27501542661E+04  0.27501542661E+04  0.00000000000E+00 0. -1.
    2000013    1    1    2    0    0 -0.10596798948E+04 -0.43442090708E+03 -0.20842307725E+03  0.15025256015E+04  0.95000000000E+03 0.  0.
   -2000013    1    1    2    0    0  0.10596798948E+04  0.43442090708E+03 -0.16025272823E+04  0.21868325712E+04  0.95000000000E+03 0.  0.
<mgrwt>
<rscale>  0 0.32143152E+04</rscale>
<asrwt>0</asrwt>
<pdfrwt beam="1">  1        2 0.14449291E+00 0.32143152E+04</pdfrwt>
<pdfrwt beam="2">  1       -2 0.42310065E+00 0.32143152E+04</pdfrwt>
<totfact> 0.12127409E-01</totfact>
</mgrwt>
</event>
<event>
 4    1  0.1323225E-008  0.2269666E+04  0.7816531E-02  0.8489978E-01
          1   -1    0    0  501    0  0.00000000000E+00  0.00000000000E+00  0.12556846370E+04  0.12556846370E+04  0.00000000000E+00 0.  1.
         -1   -1    0    0    0  501 -0.00000000000E+00 -0.00000000000E+00 -0.10256124955E+04  0.10256124955E+04  0.00000000000E+00 0. -1.
    2000013    1    1    2    0    0  0.24489527077E+03 -0.57026889044E+03  0.12796875065E+03  0.11419528459E+04  0.95000000000E+03 0.  0.
   -2000013    1    1    2    0    0 -0.24489527077E+03  0.57026889044E+03  0.10210339094E+03  0.11393442866E+04  0.95000000000E+03 0.  0.
<mgrwt>
<rscale>  0 0.22696659E+04</rscale>
<asrwt>0</asrwt>
<pdfrwt beam="1">  1        1 0.19318225E+00 0.22696659E+04</pdfrwt>
<pdfrwt beam="2">  1       -1 0.15778654E+00 0.22696659E+04</pdfrwt>
<totfact> 0.26802247E+00</totfact>
</mgrwt>
</event>
<event>
 4    1  0.1323225E-008  0.2325141E+04  0.7816531E-02  0.8468074E-01
          2   -1    0    0  501    0  0.00000000000E+00  0.00000000000E+00  0.10862458326E+04  0.10862458326E+04  0.00000000000E+00 0.  1.
         -2   -1    0    0    0  501 -0.00000000000E+00 -0.00000000000E+00 -0.12442585988E+04  0.12442585988E+04  0.00000000000E+00 0. -1.
    2000013    1    1    2    0    0 -0.56802686649E+03 -0.26078598509E+03  0.16322616879E+03  0.11488283741E+04  0.95000000000E+03 0.  0.
   -2000013    1    1    2    0    0  0.56802686649E+03  0.26078598509E+03 -0.32123893500E+03  0.11816760573E+04  0.95000000000E+03 0.  0.
<mgrwt>
<rscale>  0 0.23251415E+04</rscale>
<asrwt>0</asrwt>
<pdfrwt beam="1">  1        2 0.16711474E+00 0.23251415E+04</pdfrwt>
<pdfrwt beam="2">  1       -2 0.19142440E+00 0.23251415E+04</pdfrwt>
<totfact> 0.30476379E+00</totfact>
</mgrwt>
</event>
<event>
 4    1  0.1323225E-008  0.2752334E+04  0.7816531E-02  0.8318222E-01
          2   -1    0    0  501    0  0.00000000000E+00  0.00000000000E+00  0.13960140646E+04  0.13960140646E+04  0.00000000000E+00 0.  1.
         -2   -1    0    0    0  501 -0.00000000000E+00 -0.00000000000E+00 -0.13566016802E+04  0.13566016802E+04  0.00000000000E+00 0. -1.
    2000013    1    1    2    0    0 -0.84268675975E+03  0.42943498216E+03  0.33086450491E+03  0.13807630860E+04  0.95000000000E+03 0.  0.
   -2000013    1    1    2    0    0  0.84268675975E+03 -0.42943498216E+03 -0.29145212058E+03  0.13718526588E+04  0.95000000000E+03 0.  0.
<mgrwt>
<rscale>  0 0.27523336E+04</rscale>
<asrwt>0</asrwt>
<pdfrwt beam="1">  1        2 0.21477139E+00 0.27523336E+04</pdfrwt>
<pdfrwt beam="2">  1       -2 0.20870795E+00 0.27523336E+04</pdfrwt>
<totfact> 0.14833998E+00</totfact>
</mgrwt>
</event>
<event>
 4    1  0.1323225E-008  0.3036383E+04  0.7816531E-02  0.8233417E-01
          2   -1    0    0  501    0  0.00000000000E+00  0.00000000000E+00  0.54545353366E+04  0.54545353366E+04  0.00000000000E+00 0.  1.
         -2   -1    0    0    0  501 -0.00000000000E+00 -0.00000000000E+00 -0.42256677953E+03  0.42256677953E+03  0.00000000000E+00 0. -1.
    2000013    1    1    2    0    0 -0.70916634602E+03  0.72008652430E+03  0.37106560724E+04  0.39614277725E+04  0.95000000000E+03 0.  0.
   -2000013    1    1    2    0    0  0.70916634602E+03 -0.72008652430E+03  0.13213124846E+04  0.19156743436E+04  0.95000000000E+03 0.  0.
<mgrwt>
<rscale>  0 0.30363830E+04</rscale>
<asrwt>0</asrwt>
<pdfrwt beam="1">  1        2 0.83915923E+00 0.30363830E+04</pdfrwt>
<pdfrwt beam="2">  1       -2 0.65010278E-01 0.30363830E+04</pdfrwt>
<totfact> 0.13461993E-02</totfact>
</mgrwt>
</event>
<event>
 4    1  0.1323225E-008  0.3006684E+04  0.7816531E-02  0.8241825E-01
          2   -1    0    0  501    0  0.00000000000E+00  0.00000000000E+00  0.37635424710E+04  0.37635424710E+04  0.00000000000E+00 0.  1.
         -2   -1    0    0    0  501 -0.00000000000E+00 -0.00000000000E+00 -0.60050784496E+03  0.60050784496E+03  0.00000000000E+00 0. -1.
    2000013    1    1    2    0    0 -0.91865809275E+03 -0.43479569176E+03  0.24084065754E+04  0.27813489923E+04  0.95000000000E+03 0.  0.
   -2000013    1    1    2    0    0  0.91865809275E+03  0.43479569176E+03  0.75462805070E+03  0.15827013236E+04  0.95000000000E+03 0.  0.
<mgrwt>
<rscale>  0 0.30066837E+04</rscale>
<asrwt>0</asrwt>
<pdfrwt beam="1">  1        2 0.57900652E+00 0.30066837E+04</pdfrwt>
<pdfrwt beam="2">  1       -2 0.92385825E-01 0.30066837E+04</pdfrwt>
<totfact> 0.44501113E-01</totfact>
</mgrwt>
</event>
<event>
 4    1  0.1323225E-008  0.2139791E+04  0.7816531E-02  0.8543915E-01
          2   -1    0    0  501    0  0.00000000000E+00  0.00000000000E+00  0.17969171778E+04  0.17969171778E+04  0.00000000000E+00 0.  1.
         -2   -1    0    0    0  501 -0.00000000000E+00 -0.00000000000E+00 -0.63702249939E+03  0.63702249939E+03  0.00000000000E+00 0. -1.
    2000013    1    1    2    0    0  0.25646918596E+03  0.41997720325E+03  0.58495441204E+03  0.12193559606E+04  0.95000000000E+03 0.  0.
   -2000013    1    1    2    0    0 -0.25646918596E+03 -0.41997720325E+03  0.57494026634E+03  0.12145837165E+04  0.95000000000E+03 0.  0.
<mgrwt>
<rscale>  0 0.21397913E+04</rscale>
<asrwt>0</asrwt>
<pdfrwt beam="1">  1        2 0.27644879E+00 0.21397913E+04</pdfrwt>
<pdfrwt beam="2">  1       -2 0.98003463E-01 0.21397913E+04</pdfrwt>
<totfact> 0.68936790E+00</totfact>
</mgrwt>
</event>
<event>
 4    1  0.1323225E-008  0.2192679E+04  0.7816531E-02  0.8521482E-01
          1   -1    0    0  501    0  0.00000000000E+00  0.00000000000E+00  0.11730303685E+04  0.11730303685E+04  0.00000000000E+00 0.  1.
         -1   -1    0    0    0  501 -0.00000000000E+00 -0.00000000000E+00 -0.10246621892E+04  0.10246621892E+04  0.00000000000E+00 0. -1.
    2000013    1    1    2    0    0  0.44733120894E+03  0.27901753785E+03  0.22116138656E+03  0.11087688469E+04  0.95000000000E+03 0.  0.
   -2000013    1    1    2    0    0 -0.44733120894E+03 -0.27901753785E+03 -0.72793207219E+02  0.10889237108E+04  0.95000000000E+03 0.  0.
<mgrwt>
<rscale>  0 0.21926786E+04</rscale>
<asrwt>0</asrwt>
<pdfrwt beam="1">  1        1 0.18046621E+00 0.21926786E+04</pdfrwt>
<pdfrwt beam="2">  1       -1 0.15764034E+00 0.21926786E+04</pdfrwt>
<totfact> 0.31081303E+00</totfact>
</mgrwt>
</event>
<event>
 4    1  0.1323225E-008  0.2378823E+04  0.7816531E-02  0.8447475E-01
         -2   -1    0    0    0  501 -0.00000000000E+00  0.00000000000E+00  0.18664927618E+04  0.18664927618E+04  0.00000000000E+00 0. -1.
          2   -1    0    0  501    0  0.00000000000E+00 -0.00000000000E+00 -0.75794542954E+03  0.75794542954E+03  0.00000000000E+00 0.  1.
    2000013    1    1    2    0    0 -0.49689643976E+03 -0.37313089875E+03  0.16255452102E+03  0.11467592213E+04  0.95000000000E+03 0.  0.
   -2000013    1    1    2    0    0  0.49689643976E+03  0.37313089875E+03  0.94599281121E+03  0.14776789700E+04  0.95000000000E+03 0.  0.
<mgrwt>
<rscale>  0 0.23788230E+04</rscale>
<asrwt>0</asrwt>
<pdfrwt beam="2">  1        2 0.11660699E+00 0.23788230E+04</pdfrwt>
<pdfrwt beam="1">  1       -2 0.28715273E+00 0.23788230E+04</pdfrwt>
<totfact> 0.12691629E+00</totfact>
</mgrwt>
</event>
<event>
 4    1  0.1323225E-008  0.3510471E+04  0.7816531E-02  0.8111313E-01
         -2   -1    0    0    0  501 -0.00000000000E+00  0.00000000000E+00  0.26486557217E+04  0.26486557217E+04  0.00000000000E+00 0. -1.
          2   -1    0    0  501    0  0.00000000000E+00 -0.00000000000E+00 -0.11631756499E+04  0.11631756499E+04  0.00000000000E+00 0.  1.
    2000013    1    1    2    0    0 -0.10575142453E+04  0.87182096479E+03  0.14805347270E+03  0.16741648678E+04  0.95000000000E+03 0.  0.
   -2000013    1    1    2    0    0  0.10575142453E+04 -0.87182096479E+03  0.13374265991E+04  0.21376665039E+04  0.95000000000E+03 0.  0.
<mgrwt>
<rscale>  0 0.35104711E+04</rscale>
<asrwt>0</asrwt>
<pdfrwt beam="2">  1        2 0.17895010E+00 0.35104711E+04</pdfrwt>
<pdfrwt beam="1">  1       -2 0.40748549E+00 0.35104711E+04</pdfrwt>
<totfact> 0.10838812E-01</totfact>
</mgrwt>
</event>
<event>
 4    1  0.1323225E-008  0.2547892E+04  0.7816531E-02  0.8386120E-01
          2   -1    0    0  501    0  0.00000000000E+00  0.00000000000E+00  0.15422886240E+04  0.15422886240E+04  0.00000000000E+00 0. -1.
         -2   -1    0    0    0  501 -0.00000000000E+00 -0.00000000000E+00 -0.10522926484E+04  0.10522926484E+04  0.00000000000E+00 0.  1.
    2000013    1    1    2    0    0  0.70528073749E+03 -0.46610265467E+03  0.32232615499E+03  0.13118943378E+04  0.95000000000E+03 0.  0.
   -2000013    1    1    2    0    0 -0.70528073749E+03  0.46610265467E+03  0.16766982059E+03  0.12826869346E+04  0.95000000000E+03 0.  0.
<mgrwt>
<rscale>  0 0.25478924E+04</rscale>
<asrwt>0</asrwt>
<pdfrwt beam="1">  1        2 0.23727517E+00 0.25478924E+04</pdfrwt>
<pdfrwt beam="2">  1       -2 0.16189118E+00 0.25478924E+04</pdfrwt>
<totfact> 0.26042484E+00</totfact>
</mgrwt>
</event>
<event>
 4    1  0.1323225E-008  0.3281530E+04  0.7816531E-02  0.8167611E-01
          1   -1    0    0  501    0  0.00000000000E+00  0.00000000000E+00  0.21695372477E+04  0.21695372477E+04  0.00000000000E+00 0.  1.
         -1   -1    0    0    0  501 -0.00000000000E+00 -0.00000000000E+00 -0.12408682559E+04  0.12408682559E+04  0.00000000000E+00 0. -1.
    2000013    1    1    2    0    0  0.11323151398E+04  0.36918933277E+03  0.10974996114E+04  0.18776165041E+04  0.95000000000E+03 0.  0.
   -2000013    1    1    2    0    0 -0.11323151398E+04 -0.36918933277E+03 -0.16883061966E+03  0.15327889996E+04  0.95000000000E+03 0.  0.
<mgrwt>
<rscale>  0 0.32815301E+04</rscale>
<asrwt>0</asrwt>
<pdfrwt beam="1">  1        1 0.33377496E+00 0.32815301E+04</pdfrwt>
<pdfrwt beam="2">  1       -1 0.19090281E+00 0.32815301E+04</pdfrwt>
<totfact> 0.33065898E-01</totfact>
</mgrwt>
</event>
<event>
 4    1  0.1323225E-008  0.3031118E+04  0.7816531E-02  0.8234900E-01
         -2   -1    0    0    0  501 -0.00000000000E+00  0.00000000000E+00  0.13537764009E+04  0.13537764009E+04  0.00000000000E+00 0. -1.
          2   -1    0    0  501    0  0.00000000000E+00 -0.00000000000E+00 -0.16966755351E+04  0.16966755351E+04  0.00000000000E+00 0.  1.
    2000013    1    1    2    0    0  0.27262902775E+03 -0.63665495652E+03 -0.11339826378E+04  0.16334236264E+04  0.95000000000E+03 0.  0.
   -2000013    1    1    2    0    0 -0.27262902775E+03  0.63665495652E+03  0.79108350366E+03  0.14170283096E+04  0.95000000000E+03 0.  0.
<mgrwt>
<rscale>  0 0.30311181E+04</rscale>
<asrwt>0</asrwt>
<pdfrwt beam="2">  1        2 0.26102701E+00 0.30311181E+04</pdfrwt>
<pdfrwt beam="1">  1       -2 0.20827329E+00 0.30311181E+04</pdfrwt>
<totfact> 0.98803450E-01</totfact>
</mgrwt>
</event>
<event>
 4    1  0.1323225E-008  0.2149830E+04  0.7816531E-02  0.8539605E-01
          2   -1    0    0  501    0  0.00000000000E+00  0.00000000000E+00  0.16605481277E+04  0.16605481277E+04  0.00000000000E+00 0.  1.
         -2   -1    0    0    0  501 -0.00000000000E+00 -0.00000000000E+00 -0.69582003648E+03  0.69582003648E+03  0.00000000000E+00 0. -1.
    2000013    1    1    2    0    0  0.34116455122E+03  0.31156288428E+03  0.70014324478E+03  0.12673457480E+04  0.95000000000E+03 0.  0.
   -2000013    1    1    2    0    0 -0.34116455122E+03 -0.31156288428E+03  0.26458484642E+03  0.10890224161E+04  0.95000000000E+03 0.  0.
<mgrwt>
<rscale>  0 0.21498304E+04</rscale>
<asrwt>0</asrwt>
<pdfrwt beam="1">  1        2 0.25546894E+00 0.21498304E+04</pdfrwt>
<pdfrwt beam="2">  1       -2 0.10704924E+00 0.21498304E+04</pdfrwt>
<totfact> 0.66440502E+00</totfact>
</mgrwt>
</event>
<event>
 4    1  0.1323225E-008  0.2517808E+04  0.7816531E-02  0.8396669E-01
          2   -1    0    0  501    0  0.00000000000E+00  0.00000000000E+00  0.11839159560E+04  0.11839159560E+04  0.00000000000E+00 0.  1.
         -2   -1    0    0    0  501 -0.00000000000E+00 -0.00000000000E+00 -0.13386412609E+04  0.13386412609E+04  0.00000000000E+00 0. -1.
    2000013    1    1    2    0    0 -0.39162359406E+03  0.72715028603E+03 -0.92296145752E+02  0.12621945795E+04  0.95000000000E+03 0.  0.
   -2000013    1    1    2    0    0  0.39162359406E+03 -0.72715028603E+03 -0.62429159148E+02  0.12603626374E+04  0.95000000000E+03 0.  0.
<mgrwt>
<rscale>  0 0.25178076E+04</rscale>
<asrwt>0</asrwt>
<pdfrwt beam="1">  1        2 0.18214092E+00 0.25178076E+04</pdfrwt>
<pdfrwt beam="2">  1       -2 0.20594481E+00 0.25178076E+04</pdfrwt>
<totfact> 0.20976737E+00</totfact>
</mgrwt>
</event>
<event>
 4    1  0.1323225E-008  0.3875844E+04  0.7816531E-02  0.8030072E-01
         -2   -1    0    0    0  501 -0.00000000000E+00  0.00000000000E+00  0.12632759609E+04  0.12632759609E+04  0.00000000000E+00 0. -1.
          2   -1    0    0  501    0  0.00000000000E+00 -0.00000000000E+00 -0.29728588070E+04  0.29728588070E+04  0.00000000000E+00 0.  1.
    2000013    1    1    2    0    0 -0.33581706253E+03  0.15939153462E+04 -0.36637018123E+03  0.19209545388E+04  0.95000000000E+03 0.  0.
   -2000013    1    1    2    0    0  0.33581706253E+03 -0.15939153462E+04 -0.13432126649E+04  0.23151802291E+04  0.95000000000E+03 0.  0.
<mgrwt>
<rscale>  0 0.38758437E+04</rscale>
<asrwt>0</asrwt>
<pdfrwt beam="2">  1        2 0.45736289E+00 0.38758437E+04</pdfrwt>
<pdfrwt beam="1">  1       -2 0.19435015E+00 0.38758437E+04</pdfrwt>
<totfact> 0.20901500E-01</totfact>
</mgrwt>
</event>
<event>
 4    1  0.1323225E-008  0.2250963E+04  0.7816531E-02  0.8497511E-01
         -1   -1    0    0    0  501 -0.00000000000E+00  0.00000000000E+00  0.63790847202E+03  0.63790847202E+03  0.00000000000E+00 0. -1.
          1   -1    0    0  501    0  0.00000000000E+00 -0.00000000000E+00 -0.19857214394E+04  0.19857214394E+04  0.00000000000E+00 0.  1.
    2000013    1    1    2    0    0 -0.12496404782E+03 -0.33579963522E+03 -0.12399304081E+04  0.16025931565E+04  0.95000000000E+03 0.  0.
   -2000013    1    1    2    0    0  0.12496404782E+03  0.33579963522E+03 -0.10788255922E+03  0.10210367549E+04  0.95000000000E+03 0.  0.
<mgrwt>
<rscale>  0 0.22509629E+04</rscale>
<asrwt>0</asrwt>
<pdfrwt beam="2">  1        1 0.30549560E+00 0.22509629E+04</pdfrwt>
<pdfrwt beam="1">  1       -1 0.98139766E-01 0.22509629E+04</pdfrwt>
<totfact> 0.27512720E+00</totfact>
</mgrwt>
</event>
<event>
 4    1  0.1323225E-008  0.3663585E+04  0.7816531E-02  0.8076080E-01
         -2   -1    0    0    0  501 -0.00000000000E+00  0.00000000000E+00  0.20069336858E+04  0.20069336858E+04  0.00000000000E+00 0. -1.
          2   -1    0    0  501    0  0.00000000000E+00 -0.00000000000E+00 -0.16719353454E+04  0.16719353454E+04  0.00000000000E+00 0.  1.
    2000013    1    1    2    0    0  0.54905057929E+03  0.14511167297E+04 -0.47325722751E+02  0.18198725301E+04  0.95000000000E+03 0.  0.
   -2000013    1    1    2    0    0 -0.54905057929E+03 -0.14511167297E+04  0.38232406321E+03  0.18589965011E+04  0.95000000000E+03 0.  0.
<mgrwt>
<rscale>  0 0.36635848E+04</rscale>
<asrwt>0</asrwt>
<pdfrwt beam="2">  1        2 0.25722082E+00 0.36635848E+04</pdfrwt>
<pdfrwt beam="1">  1       -2 0.30875903E+00 0.36635848E+04</pdfrwt>
<totfact> 0.23147401E-01</totfact>
</mgrwt>
</event>
<event>
 4    1  0.1323225E-008  0.2460520E+04  0.7816531E-02  0.8417187E-01
         -2   -1    0    0    0  501 -0.00000000000E+00  0.00000000000E+00  0.85761028808E+03  0.85761028808E+03  0.00000000000E+00 0. -1.
          2   -1    0    0  501    0  0.00000000000E+00 -0.00000000000E+00 -0.17648339590E+04  0.17648339590E+04  0.00000000000E+00 0.  1.
    2000013    1    1    2    0    0 -0.27168255867E+03  0.44881060745E+03 -0.10712270794E+04  0.15248835462E+04  0.95000000000E+03 0.  0.
   -2000013    1    1    2    0    0  0.27168255867E+03 -0.44881060745E+03  0.16400340844E+03  0.10975607008E+04  0.95000000000E+03 0.  0.
<mgrwt>
<rscale>  0 0.24605201E+04</rscale>
<asrwt>0</asrwt>
<pdfrwt beam="2">  1        2 0.27151291E+00 0.24605201E+04</pdfrwt>
<pdfrwt beam="1">  1       -2 0.13194005E+00 0.24605201E+04</pdfrwt>
<totfact> 0.33783577E+00</totfact>
</mgrwt>
</event>
<event>
 4    1  0.1323225E-008  0.2474220E+04  0.7816531E-02  0.8412228E-01
         -2   -1    0    0    0  501 -0.00000000000E+00  0.00000000000E+00  0.15324295772E+04  0.15324295772E+04  0.00000000000E+00 0. -1.
          2   -1    0    0  501    0  0.00000000000E+00 -0.00000000000E+00 -0.99870239060E+03  0.99870239060E+03  0.00000000000E+00 0.  1.
    2000013    1    1    2    0    0 -0.26589497732E+03  0.74229813329E+03  0.18608902039E+03  0.12485334522E+04  0.95000000000E+03 0.  0.
   -2000013    1    1    2    0    0  0.26589497732E+03 -0.74229813329E+03  0.34763816616E+03  0.12825985156E+04  0.95000000000E+03 0.  0.
<mgrwt>
<rscale>  0 0.24742199E+04</rscale>
<asrwt>0</asrwt>
<pdfrwt beam="2">  1        2 0.15364652E+00 0.24742199E+04</pdfrwt>
<pdfrwt beam="1">  1       -2 0.23575840E+00 0.24742199E+04</pdfrwt>
<totfact> 0.17750346E+00</totfact>
</mgrwt>
</event>
<event>
 4    1  0.1323225E-008  0.2321664E+04  0.7816531E-02  0.8469428E-01
         -2   -1    0    0    0  501 -0.00000000000E+00  0.00000000000E+00  0.38718587886E+03  0.38718587886E+03  0.00000000000E+00 0. -1.
          2   -1    0    0  501    0  0.00000000000E+00 -0.00000000000E+00 -0.34803210476E+04  0.34803210476E+04  0.00000000000E+00 0.  1.
    2000013    1    1    2    0    0 -0.43058260457E+03 -0.50286158937E+03 -0.14096039600E+04  0.18242133870E+04  0.95000000000E+03 0.  0.
   -2000013    1    1    2    0    0  0.43058260457E+03  0.50286158937E+03 -0.16835312088E+04  0.20432935394E+04  0.95000000000E+03 0.  0.
<mgrwt>
<rscale>  0 0.23216642E+04</rscale>
<asrwt>0</asrwt>
<pdfrwt beam="2">  1        2 0.53543401E+00 0.23216642E+04</pdfrwt>
<pdfrwt beam="1">  1       -2 0.59567057E-01 0.23216642E+04</pdfrwt>
<totfact> 0.20021090E+00</totfact>
</mgrwt>
</event>
<event>
 4    1  0.1323225E-008  0.2799203E+04  0.7816531E-02  0.8303516E-01
          2   -1    0    0  501    0  0.00000000000E+00  0.00000000000E+00  0.16723143951E+04  0.16723143951E+04  0.00000000000E+00 0.  1.
         -2   -1    0    0    0  501 -0.00000000000E+00 -0.00000000000E+00 -0.11713612212E+04  0.11713612212E+04  0.00000000000E+00 0. -1.
    2000013    1    1    2    0    0  0.67455448977E+03  0.47564754150E+02  0.10367880957E+04  0.15603575619E+04  0.95000000000E+03 0.  0.
   -2000013    1    1    2    0    0 -0.67455448977E+03 -0.47564754150E+02 -0.53583492179E+03  0.12833180545E+04  0.95000000000E+03 0.  0.
<mgrwt>
<rscale>  0 0.27992029E+04</rscale>
<asrwt>0</asrwt>
<pdfrwt beam="1">  1        2 0.25727914E+00 0.27992029E+04</pdfrwt>
<pdfrwt beam="2">  1       -2 0.18020942E+00 0.27992029E+04</pdfrwt>
<totfact> 0.15983117E+00</totfact>
</mgrwt>
</event>
<event>
 4    1  0.1323225E-008  0.2820393E+04  0.7816531E-02  0.8296965E-01
         -2   -1    0    0    0  501 -0.00000000000E+00  0.00000000000E+00  0.50993559664E+03  0.50993559664E+03  0.00000000000E+00 0. -1.
          2   -1    0    0  501    0  0.00000000000E+00 -0.00000000000E+00 -0.38998139108E+04  0.38998139108E+04  0.00000000000E+00 0.  1.
    2000013    1    1    2    0    0 -0.55614797081E+03  0.81877895093E+03 -0.11848029827E+04  0.18127210606E+04  0.95000000000E+03 0.  0.
   -2000013    1    1    2    0    0  0.55614797081E+03 -0.81877895093E+03 -0.22050753315E+04  0.25970284468E+04  0.95000000000E+03 0.  0.
<mgrwt>
<rscale>  0 0.28203928E+04</rscale>
<asrwt>0</asrwt>
<pdfrwt beam="2">  1        2 0.59997137E+00 0.28203928E+04</pdfrwt>
<pdfrwt beam="1">  1       -2 0.78451630E-01 0.28203928E+04</pdfrwt>
<totfact> 0.51613396E-01</totfact>
</mgrwt>
</event>
<event>
 4    1  0.1323225E-008  0.2578986E+04  0.7816531E-02  0.8375374E-01
          2   -1    0    0  501    0  0.00000000000E+00  0.00000000000E+00  0.14872709442E+04  0.14872709442E+04  0.00000000000E+00 0.  1.
         -2   -1    0    0    0  501 -0.00000000000E+00 -0.00000000000E+00 -0.11180158471E+04  0.11180158471E+04  0.00000000000E+00 0. -1.
    2000013    1    1    2    0    0 -0.59274161388E+03  0.63300193167E+03  0.27643014226E+03  0.13156548521E+04  0.95000000000E+03 0.  0.
   -2000013    1    1    2    0    0  0.59274161388E+03 -0.63300193167E+03  0.92824954906E+02  0.12896319392E+04  0.95000000000E+03 0.  0.
<mgrwt>
<rscale>  0 0.25789862E+04</rscale>
<asrwt>0</asrwt>
<pdfrwt beam="1">  1        2 0.22881091E+00 0.25789862E+04</pdfrwt>
<pdfrwt beam="2">  1       -2 0.17200244E+00 0.25789862E+04</pdfrwt>
<totfact> 0.23592847E+00</totfact>
</mgrwt>
</event>
<event>
 4    1  0.1323225E-008  0.2818976E+04  0.7816531E-02  0.8297401E-01
         -2   -1    0    0    0  501 -0.00000000000E+00  0.00000000000E+00  0.48438311889E+03  0.48438311889E+03  0.00000000000E+00 0. -1.
          2   -1    0    0  501    0  0.00000000000E+00 -0.00000000000E+00 -0.41014141670E+04  0.41014141670E+04  0.00000000000E+00 0.  1.
    2000013    1    1    2    0    0  0.16650132442E+03  0.54478746897E+03 -0.32263560100E+04  0.34112152059E+04  0.95000000000E+03 0.  0.
   -2000013    1    1    2    0    0 -0.16650132442E+03 -0.54478746897E+03 -0.39067503815E+03  0.11745820801E+04  0.95000000000E+03 0.  0.
<mgrwt>
<rscale>  0 0.28189755E+04</rscale>
<asrwt>0</asrwt>
<pdfrwt beam="2">  1        2 0.63098680E+00 0.28189755E+04</pdfrwt>
<pdfrwt beam="1">  1       -2 0.74520480E-01 0.28189755E+04</pdfrwt>
<totfact> 0.39744490E-01</totfact>
</mgrwt>
</event>
<event>
 4    1  0.1323225E-008  0.2572088E+04  0.7816531E-02  0.8377744E-01
          2   -1    0    0  501    0  0.00000000000E+00  0.00000000000E+00  0.24923311128E+04  0.24923311128E+04  0.00000000000E+00 0.  1.
         -2   -1    0    0    0  501 -0.00000000000E+00 -0.00000000000E+00 -0.66359949477E+03  0.66359949477E+03  0.00000000000E+00 0. -1.
    2000013    1    1    2    0    0 -0.63093890452E+03  0.56620598823E+03  0.11363683663E+04  0.17066066290E+04  0.95000000000E+03 0.  0.
   -2000013    1    1    2    0    0  0.63093890452E+03 -0.56620598823E+03  0.69236325173E+03  0.14493239785E+04  0.95000000000E+03 0.  0.
<mgrwt>
<rscale>  0 0.25720884E+04</rscale>
<asrwt>0</asrwt>
<pdfrwt beam="1">  1        2 0.38343555E+00 0.25720884E+04</pdfrwt>
<pdfrwt beam="2">  1       -2 0.10209223E+00 0.25720884E+04</pdfrwt>
<totfact> 0.24511049E+00</totfact>
</mgrwt>
</event>
<event>
 4    1  0.1323225E-008  0.2437332E+04  0.7816531E-02  0.8425658E-01
         -1   -1    0    0    0  501 -0.00000000000E+00  0.00000000000E+00  0.13177024297E+04  0.13177024297E+04  0.00000000000E+00 0.  1.
          1   -1    0    0  501    0  0.00000000000E+00 -0.00000000000E+00 -0.11270728779E+04  0.11270728779E+04  0.00000000000E+00 0. -1.
    2000013    1    1    2    0    0  0.10988572640E+02 -0.30297827817E+03 -0.60734585855E+03  0.11675982090E+04  0.95000000000E+03 0.  0.
   -2000013    1    1    2    0    0 -0.10988572640E+02  0.30297827817E+03  0.79797541028E+03  0.12771770986E+04  0.95000000000E+03 0.  0.
<mgrwt>
<rscale>  0 0.24373319E+04</rscale>
<asrwt>0</asrwt>
<pdfrwt beam="2">  1        1 0.17339583E+00 0.24373319E+04</pdfrwt>
<pdfrwt beam="1">  1       -1 0.20272345E+00 0.24373319E+04</pdfrwt>
<totfact> 0.15577814E+00</totfact>
</mgrwt>
</event>
<event>
 4    1  0.1323225E-008  0.2603921E+04  0.7816531E-02  0.8366871E-01
          1   -1    0    0  501    0  0.00000000000E+00  0.00000000000E+00  0.30469498511E+04  0.30469498511E+04  0.00000000000E+00 0.  1.
         -1   -1    0    0    0  501 -0.00000000000E+00 -0.00000000000E+00 -0.55632706675E+03  0.55632706675E+03  0.00000000000E+00 0. -1.
    2000013    1    1    2    0    0 -0.80911924324E+03  0.32716059738E+03  0.14885304474E+04  0.19697540200E+04  0.95000000000E+03 0.  0.
   -2000013    1    1    2    0    0  0.80911924324E+03 -0.32716059738E+03  0.10020923369E+04  0.16335228979E+04  0.95000000000E+03 0.  0.
<mgrwt>
<rscale>  0 0.26039206E+04</rscale>
<asrwt>0</asrwt>
<pdfrwt beam="1">  1        1 0.46876151E+00 0.26039206E+04</pdfrwt>
<pdfrwt beam="2">  1       -1 0.85588781E-01 0.26039206E+04</pdfrwt>
<totfact> 0.65559377E-01</totfact>
</mgrwt>
</event>
<event>
 4    1  0.1323225E-008  0.2153565E+04  0.7816531E-02  0.8538008E-01
         -2   -1    0    0    0  501 -0.00000000000E+00  0.00000000000E+00  0.31284013629E+03  0.31284013629E+03  0.00000000000E+00 0. -1.
          2   -1    0    0  501    0  0.00000000000E+00 -0.00000000000E+00 -0.37062406950E+04  0.37062406950E+04  0.00000000000E+00 0.  1.
    2000013    1    1    2    0    0 -0.34368892537E+03  0.37072095345E+03 -0.16267536337E+04  0.19504828857E+04  0.95000000000E+03 0.  0.
   -2000013    1    1    2    0    0  0.34368892537E+03 -0.37072095345E+03 -0.17666469250E+04  0.20685979456E+04  0.95000000000E+03 0.  0.
<mgrwt>
<rscale>  0 0.21535653E+04</rscale>
<asrwt>0</asrwt>
<pdfrwt beam="2">  1        2 0.57019088E+00 0.21535653E+04</pdfrwt>
<pdfrwt beam="1">  1       -2 0.48129251E-01 0.21535653E+04</pdfrwt>
<totfact> 0.21789116E+00</totfact>
</mgrwt>
</event>
<event>
 4    1  0.1323225E-008  0.2904550E+04  0.7816531E-02  0.8271525E-01
          2   -1    0    0  501    0  0.00000000000E+00  0.00000000000E+00  0.12650199301E+04  0.12650199301E+04  0.00000000000E+00 0.  1.
         -2   -1    0    0    0  501 -0.00000000000E+00 -0.00000000000E+00 -0.16672490826E+04  0.16672490826E+04  0.00000000000E+00 0. -1.
    2000013    1    1    2    0    0  0.43677839998E+03 -0.96989784889E+03 -0.47782169924E+03  0.15040913484E+04  0.95000000000E+03 0.  0.
   -2000013    1    1    2    0    0 -0.43677839998E+03  0.96989784889E+03  0.75592546766E+02  0.14281776644E+04  0.95000000000E+03 0.  0.
<mgrwt>
<rscale>  0 0.29045504E+04</rscale>
<asrwt>0</asrwt>
<pdfrwt beam="1">  1        2 0.19461845E+00 0.29045504E+04</pdfrwt>
<pdfrwt beam="2">  1       -2 0.25649986E+00 0.29045504E+04</pdfrwt>
<totfact> 0.87642379E-01</totfact>
</mgrwt>
</event>
<event>
 4    1  0.1323225E-008  0.2131798E+04  0.7816531E-02  0.8547364E-01
          2   -1    0    0  501    0  0.00000000000E+00  0.00000000000E+00  0.12242844221E+04  0.12242844221E+04  0.00000000000E+00 0.  1.
         -2   -1    0    0    0  501 -0.00000000000E+00 -0.00000000000E+00 -0.92800356348E+03  0.92800356348E+03  0.00000000000E+00 0. -1.
    2000013    1    1    2    0    0 -0.68289571577E+02 -0.30019671458E+03 -0.22807886485E+03  0.10243541876E+04  0.95000000000E+03 0.  0.
   -2000013    1    1    2    0    0  0.68289571577E+02  0.30019671458E+03  0.52435972345E+03  0.11279337980E+04  0.95000000000E+03 0.  0.
<mgrwt>
<rscale>  0 0.21317977E+04</rscale>
<asrwt>0</asrwt>
<pdfrwt beam="1">  1        2 0.18835145E+00 0.21317977E+04</pdfrwt>
<pdfrwt beam="2">  1       -2 0.14276978E+00 0.21317977E+04</pdfrwt>
<totfact> 0.57471010E+00</totfact>
</mgrwt>
</event>
<event>
 4    1  0.1323225E-008  0.2520541E+04  0.7816531E-02  0.8395704E-01
          2   -1    0    0  501    0  0.00000000000E+00  0.00000000000E+00  0.21736049092E+04  0.21736049092E+04  0.00000000000E+00 0.  1.
         -2   -1    0    0    0  501 -0.00000000000E+00 -0.00000000000E+00 -0.73071299180E+03  0.73071299180E+03  0.00000000000E+00 0. -1.
    2000013    1    1    2    0    0  0.64980540941E+03  0.33644536527E+03  0.27467393852E+03  0.12301984907E+04  0.95000000000E+03 0.  0.
   -2000013    1    1    2    0    0 -0.64980540941E+03 -0.33644536527E+03  0.11682179789E+04  0.16741194103E+04  0.95000000000E+03 0.  0.
<mgrwt>
<rscale>  0 0.25205407E+04</rscale>
<asrwt>0</asrwt>
<pdfrwt beam="1">  1        2 0.33440075E+00 0.25205407E+04</pdfrwt>
<pdfrwt beam="2">  1       -2 0.11241738E+00 0.25205407E+04</pdfrwt>
<totfact> 0.29647846E+00</totfact>
</mgrwt>
</event>
<event>
 4    1  0.1323225E-008  0.3925302E+04  0.7816531E-02  0.8019787E-01
          2   -1    0    0  501    0  0.00000000000E+00  0.00000000000E+00  0.14911980648E+04  0.14911980648E+04  0.00000000000E+00 0.  1.
         -2   -1    0    0    0  501 -0.00000000000E+00 -0.00000000000E+00 -0.25831573349E+04  0.25831573349E+04  0.00000000000E+00 0. -1.
    2000013    1    1    2    0    0  0.15508582190E+04 -0.71014581809E+03 -0.75365434214E+03  0.20928361536E+04  0.95000000000E+03 0.  0.
   -2000013    1    1    2    0    0 -0.15508582190E+04  0.71014581809E+03 -0.33830492799E+03  0.19815192461E+04  0.95000000000E+03 0.  0.
<mgrwt>
<rscale>  0 0.39253021E+04</rscale>
<asrwt>0</asrwt>
<pdfrwt beam="1">  1        2 0.22941509E+00 0.39253021E+04</pdfrwt>
<pdfrwt beam="2">  1       -2 0.39740882E+00 0.39253021E+04</pdfrwt>
<totfact> 0.78603223E-02</totfact>
</mgrwt>
</event>
<event>
 4    1  0.1323225E-008  0.3050827E+04  0.7816531E-02  0.8229364E-01
         -2   -1    0    0    0  501 -0.00000000000E+00  0.00000000000E+00  0.26473863371E+04  0.26473863371E+04  0.00000000000E+00 0. -1.
          2   -1    0    0  501    0  0.00000000000E+00 -0.00000000000E+00 -0.87893717705E+03  0.87893717705E+03  0.00000000000E+00 0.  1.
    2000013    1    1    2    0    0  0.94947278758E+03  0.71901252432E+03  0.79537606934E+03  0.17186042814E+04  0.95000000000E+03 0.  0.
   -2000013    1    1    2    0    0 -0.94947278758E+03 -0.71901252432E+03  0.97307309073E+03  0.18077192327E+04  0.95000000000E+03 0.  0.
<mgrwt>
<rscale>  0 0.30508270E+04</rscale>
<asrwt>0</asrwt>
<pdfrwt beam="2">  1        2 0.13522111E+00 0.30508270E+04</pdfrwt>
<pdfrwt beam="1">  1       -2 0.40729020E+00 0.30508270E+04</pdfrwt>
<totfact> 0.17163403E-01</totfact>
</mgrwt>
</event>
<event>
 4    1  0.1323225E-008  0.4329193E+04  0.7816531E-02  0.7941242E-01
         -2   -1    0    0    0  501 -0.00000000000E+00  0.00000000000E+00  0.14428964804E+04  0.14428964804E+04  0.00000000000E+00 0. -1.
          2   -1    0    0  501    0  0.00000000000E+00 -0.00000000000E+00 -0.32472729122E+04  0.32472729122E+04  0.00000000000E+00 0.  1.
    2000013    1    1    2    0    0  0.33085827278E+03  0.13921558947E+04 -0.23293822674E+04  0.28941470210E+04  0.95000000000E+03 0.  0.
   -2000013    1    1    2    0    0 -0.33085827278E+03 -0.13921558947E+04  0.52500583567E+03  0.17960223716E+04  0.95000000000E+03 0.  0.
<mgrwt>
<rscale>  0 0.43291933E+04</rscale>
<asrwt>0</asrwt>
<pdfrwt beam="2">  1        2 0.49958044E+00 0.43291933E+04</pdfrwt>
<pdfrwt beam="1">  1       -2 0.22198408E+00 0.43291933E+04</pdfrwt>
<totfact> 0.88957887E-02</totfact>
</mgrwt>
</event>
<event>
 4    1  0.1323225E-008  0.2570702E+04  0.7816531E-02  0.8378222E-01
          2   -1    0    0  501    0  0.00000000000E+00  0.00000000000E+00  0.43811192190E+03  0.43811192190E+03  0.00000000000E+00 0.  1.
         -2   -1    0    0    0  501 -0.00000000000E+00 -0.00000000000E+00 -0.37710172382E+04  0.37710172382E+04  0.00000000000E+00 0. -1.
    2000013    1    1    2    0    0  0.58406204772E+03 -0.50903530660E+03 -0.10336185557E+04  0.16034689700E+04  0.95000000000E+03 0.  0.
   -2000013    1    1    2    0    0 -0.58406204772E+03  0.50903530660E+03 -0.22992867607E+04  0.26056601902E+04  0.95000000000E+03 0.  0.
<mgrwt>
<rscale>  0 0.25707023E+04</rscale>
<asrwt>0</asrwt>
<pdfrwt beam="1">  1        2 0.67401836E-01 0.25707023E+04</pdfrwt>
<pdfrwt beam="2">  1       -2 0.58015649E+00 0.25707023E+04</pdfrwt>
<totfact> 0.38435171E-02</totfact>
</mgrwt>
</event>
<event>
 4    1  0.1323225E-008  0.2383413E+04  0.7816531E-02  0.8445740E-01
          2   -1    0    0  501    0  0.00000000000E+00  0.00000000000E+00  0.78527724942E+03  0.78527724942E+03  0.00000000000E+00 0.  1.
         -2   -1    0    0    0  501 -0.00000000000E+00 -0.00000000000E+00 -0.18084874594E+04  0.18084874594E+04  0.00000000000E+00 0. -1.
    2000013    1    1    2    0    0 -0.34983465370E+03  0.51588641780E+03 -0.12052713151E+03  0.11426066123E+04  0.95000000000E+03 0.  0.
   -2000013    1    1    2    0    0  0.34983465370E+03 -0.51588641780E+03 -0.90268307849E+03  0.14511580966E+04  0.95000000000E+03 0.  0.
<mgrwt>
<rscale>  0 0.23834127E+04</rscale>
<asrwt>0</asrwt>
<pdfrwt beam="1">  1        2 0.12081189E+00 0.23834127E+04</pdfrwt>
<pdfrwt beam="2">  1       -2 0.27822883E+00 0.23834127E+04</pdfrwt>
<totfact> 0.13726450E+00</totfact>
</mgrwt>
</event>
<event>
 4    1  0.1323225E-008  0.2030729E+04  0.7816531E-02  0.8592387E-01
         -2   -1    0    0    0  501 -0.00000000000E+00  0.00000000000E+00  0.22362540296E+03  0.22362540296E+03  0.00000000000E+00 0. -1.
          2   -1    0    0  501    0  0.00000000000E+00 -0.00000000000E+00 -0.46102325050E+04  0.46102325050E+04  0.00000000000E+00 0.  1.
    2000013    1    1    2    0    0 -0.27490289826E+03 -0.14073373031E+03 -0.26262896764E+04  0.28098532080E+04  0.95000000000E+03 0.  0.
   -2000013    1    1    2    0    0  0.27490289826E+03  0.14073373031E+03 -0.17603174257E+04  0.20240047000E+04  0.95000000000E+03 0.  0.
<mgrwt>
<rscale>  0 0.20307290E+04</rscale>
<asrwt>0</asrwt>
<pdfrwt beam="2">  1        2 0.70926652E+00 0.20307290E+04</pdfrwt>
<pdfrwt beam="1">  1       -2 0.34403909E-01 0.20307290E+04</pdfrwt>
<totfact> 0.71211734E-01</totfact>
</mgrwt>
</event>
<event>
 4    1  0.1323225E-008  0.2641519E+04  0.7816531E-02  0.8354233E-01
          2   -1    0    0  501    0  0.00000000000E+00  0.00000000000E+00  0.18641421522E+04  0.18641421522E+04  0.00000000000E+00 0. -1.
         -2   -1    0    0    0  501 -0.00000000000E+00 -0.00000000000E+00 -0.93576875167E+03  0.93576875167E+03  0.00000000000E+00 0.  1.
    2000013    1    1    2    0    0  0.68586479657E+03 -0.59843474983E+02  0.11071167384E+04  0.16131333588E+04  0.95000000000E+03 0.  0.
   -2000013    1    1    2    0    0 -0.68586479657E+03  0.59843474983E+02 -0.17874333790E+03  0.11867775451E+04  0.95000000000E+03 0.  0.
<mgrwt>
<rscale>  0 0.26415192E+04</rscale>
<asrwt>0</asrwt>
<pdfrwt beam="1">  1        2 0.28679110E+00 0.26415192E+04</pdfrwt>
<pdfrwt beam="2">  1       -2 0.14396442E+00 0.26415192E+04</pdfrwt>
<totfact> 0.23401852E+00</totfact>
</mgrwt>
</event>
<event>
 4    1  0.1323225E-008  0.2916214E+04  0.7816531E-02  0.8268070E-01
          2   -1    0    0  501    0  0.00000000000E+00  0.00000000000E+00  0.12447524330E+04  0.12447524330E+04  0.00000000000E+00 0.  1.
         -2   -1    0    0    0  501 -0.00000000000E+00 -0.00000000000E+00 -0.17080309743E+04  0.17080309743E+04  0.00000000000E+00 0. -1.
    2000013    1    1    2    0    0  0.85433969375E+03 -0.62103980949E+03  0.10109834438E+03  0.14241866565E+04  0.95000000000E+03 0.  0.
   -2000013    1    1    2    0    0 -0.85433969375E+03  0.62103980949E+03 -0.56437688566E+03  0.15285967507E+04  0.95000000000E+03 0.  0.
<mgrwt>
<rscale>  0 0.29162138E+04</rscale>
<asrwt>0</asrwt>
<pdfrwt beam="1">  1        2 0.19150037E+00 0.29162138E+04</pdfrwt>
<pdfrwt beam="2">  1       -2 0.26277400E+00 0.29162138E+04</pdfrwt>
<totfact> 0.82383780E-01</totfact>
</mgrwt>
</event>
<event>
 4    1  0.1323225E-008  0.2063967E+04  0.7816531E-02  0.8577284E-01
         -2   -1    0    0    0  501 -0.00000000000E+00  0.00000000000E+00  0.28675242020E+04  0.28675242020E+04  0.00000000000E+00 0. -1.
          2   -1    0    0  501    0  0.00000000000E+00 -0.00000000000E+00 -0.37139703692E+03  0.37139703692E+03  0.00000000000E+00 0.  1.
    2000013    1    1    2    0    0  0.33343214542E+03 -0.22381400515E+03  0.13028822778E+04  0.16617075357E+04  0.95000000000E+03 0.  0.
   -2000013    1    1    2    0    0 -0.33343214542E+03  0.22381400515E+03  0.11932448873E+04  0.15772137032E+04  0.95000000000E+03 0.  0.
<mgrwt>
<rscale>  0 0.20639670E+04</rscale>
<asrwt>0</asrwt>
<pdfrwt beam="2">  1        2 0.57138007E-01 0.20639670E+04</pdfrwt>
<pdfrwt beam="1">  1       -2 0.44115756E+00 0.20639670E+04</pdfrwt>
<totfact> 0.31783694E-01</totfact>
</mgrwt>
</event>
<event>
 4    1  0.1323225E-008  0.2442622E+04  0.7816531E-02  0.8423717E-01
         -1   -1    0    0    0  501 -0.00000000000E+00  0.00000000000E+00  0.15581392163E+04  0.15581392163E+04  0.00000000000E+00 0. -1.
          1   -1    0    0  501    0  0.00000000000E+00 -0.00000000000E+00 -0.95729636404E+03  0.95729636404E+03  0.00000000000E+00 0.  1.
    2000013    1    1    2    0    0  0.54812583694E+03 -0.40085140361E+03 -0.67981622578E+02  0.11697201725E+04  0.95000000000E+03 0.  0.
   -2000013    1    1    2    0    0 -0.54812583694E+03  0.40085140361E+03  0.66882447488E+03  0.13457154079E+04  0.95000000000E+03 0.  0.
<mgrwt>
<rscale>  0 0.24426224E+04</rscale>
<asrwt>0</asrwt>
<pdfrwt beam="2">  1        1 0.14727636E+00 0.24426224E+04</pdfrwt>
<pdfrwt beam="1">  1       -1 0.23971372E+00 0.24426224E+04</pdfrwt>
<totfact> 0.11888352E+00</totfact>
</mgrwt>
</event>
<event>
 4    1  0.1323225E-008  0.2281362E+04  0.7816531E-02  0.8485306E-01
         -2   -1    0    0    0  501 -0.00000000000E+00  0.00000000000E+00  0.16911314433E+04  0.16911314433E+04  0.00000000000E+00 0. -1.
          2   -1    0    0  501    0  0.00000000000E+00 -0.00000000000E+00 -0.76939827292E+03  0.76939827292E+03  0.00000000000E+00 0.  1.
    2000013    1    1    2    0    0 -0.50983496861E+03  0.17044489882E+03  0.10369314916E+03  0.10964649689E+04  0.95000000000E+03 0.  0.
   -2000013    1    1    2    0    0  0.50983496861E+03 -0.17044489882E+03  0.81804002126E+03  0.13640647474E+04  0.95000000000E+03 0.  0.
<mgrwt>
<rscale>  0 0.22813624E+04</rscale>
<asrwt>0</asrwt>
<pdfrwt beam="2">  1        2 0.11836897E+00 0.22813624E+04</pdfrwt>
<pdfrwt beam="1">  1       -2 0.26017407E+00 0.22813624E+04</pdfrwt>
<totfact> 0.18327445E+00</totfact>
</mgrwt>
</event>
<event>
 4    1  0.1323225E-008  0.2595143E+04  0.7816531E-02  0.8369853E-01
          2   -1    0    0  501    0  0.00000000000E+00  0.00000000000E+00  0.10528158952E+04  0.10528158952E+04  0.00000000000E+00 0.  1.
         -2   -1    0    0    0  501 -0.00000000000E+00 -0.00000000000E+00 -0.15992272919E+04  0.15992272919E+04  0.00000000000E+00 0. -1.
    2000013    1    1    2    0    0  0.53795113998E+03  0.60543192815E+03 -0.63487593460E+03  0.14005380041E+04  0.95000000000E+03 0.  0.
   -2000013    1    1    2    0    0 -0.53795113998E+03 -0.60543192815E+03  0.88464537932E+02  0.12515051830E+04  0.95000000000E+03 0.  0.
<mgrwt>
<rscale>  0 0.25951431E+04</rscale>
<asrwt>0</asrwt>
<pdfrwt beam="1">  1        2 0.16197168E+00 0.25951431E+04</pdfrwt>
<pdfrwt beam="2">  1       -2 0.24603497E+00 0.25951431E+04</pdfrwt>
<totfact> 0.14023161E+00</totfact>
</mgrwt>
</event>
<event>
 4    1  0.1323225E-008  0.2749479E+04  0.7816531E-02  0.8319127E-01
         -2   -1    0    0    0  501 -0.00000000000E+00  0.00000000000E+00  0.12227944146E+04  0.12227944146E+04  0.00000000000E+00 0. -1.
          2   -1    0    0  501    0  0.00000000000E+00 -0.00000000000E+00 -0.15455654523E+04  0.15455654523E+04  0.00000000000E+00 0.  1.
    2000013    1    1    2    0    0 -0.48213489489E+03  0.85825833646E+03 -0.29776815358E+03  0.14000811770E+04  0.95000000000E+03 0.  0.
   -2000013    1    1    2    0    0  0.48213489489E+03 -0.85825833646E+03 -0.25002884206E+02  0.13682786899E+04  0.95000000000E+03 0.  0.
<mgrwt>
<rscale>  0 0.27494791E+04</rscale>
<asrwt>0</asrwt>
<pdfrwt beam="2">  1        2 0.23777930E+00 0.27494791E+04</pdfrwt>
<pdfrwt beam="1">  1       -2 0.18812222E+00 0.27494791E+04</pdfrwt>
<totfact> 0.16685019E+00</totfact>
</mgrwt>
</event>
<event>
 4    1  0.1323225E-008  0.2487117E+04  0.7816531E-02  0.8407589E-01
          2   -1    0    0  501    0  0.00000000000E+00  0.00000000000E+00  0.71665804858E+03  0.71665804858E+03  0.00000000000E+00 0.  1.
         -2   -1    0    0    0  501 -0.00000000000E+00 -0.00000000000E+00 -0.21578467369E+04  0.21578467369E+04  0.00000000000E+00 0. -1.
    2000013    1    1    2    0    0  0.74852034335E+03  0.25999153186E+03 -0.86706093842E+03  0.15106862586E+04  0.95000000000E+03 0.  0.
   -2000013    1    1    2    0    0 -0.74852034335E+03 -0.25999153186E+03 -0.57412774994E+03  0.13638185269E+04  0.95000000000E+03 0.  0.
<mgrwt>
<rscale>  0 0.24871174E+04</rscale>
<asrwt>0</asrwt>
<pdfrwt beam="1">  1        2 0.11025509E+00 0.24871174E+04</pdfrwt>
<pdfrwt beam="2">  1       -2 0.33197642E+00 0.24871174E+04</pdfrwt>
<totfact> 0.71671194E-01</totfact>
</mgrwt>
</event>
<event>
 4    1  0.1323225E-008  0.2309044E+04  0.7816531E-02  0.8474364E-01
         -2   -1    0    0    0  501 -0.00000000000E+00  0.00000000000E+00  0.11080674215E+04  0.11080674215E+04  0.00000000000E+00 0. -1.
          2   -1    0    0  501    0  0.00000000000E+00 -0.00000000000E+00 -0.12029245607E+04  0.12029245607E+04  0.00000000000E+00 0.  1.
    2000013    1    1    2    0    0  0.47794489905E+03 -0.44900565970E+03 -0.67043756445E+02  0.11563011175E+04  0.95000000000E+03 0.  0.
   -2000013    1    1    2    0    0 -0.47794489905E+03  0.44900565970E+03 -0.27813382764E+02  0.11546908648E+04  0.95000000000E+03 0.  0.
<mgrwt>
<rscale>  0 0.23090444E+04</rscale>
<asrwt>0</asrwt>
<pdfrwt beam="2">  1        2 0.18506532E+00 0.23090444E+04</pdfrwt>
<pdfrwt beam="1">  1       -2 0.17047191E+00 0.23090444E+04</pdfrwt>
<totfact> 0.36145660E+00</totfact>
</mgrwt>
</event>
<event>
 4    1  0.1323225E-008  0.3124460E+04  0.7816531E-02  0.8209057E-01
          2   -1    0    0  501    0  0.00000000000E+00  0.00000000000E+00  0.40100734227E+04  0.40100734227E+04  0.00000000000E+00 0.  1.
         -2   -1    0    0    0  501 -0.00000000000E+00 -0.00000000000E+00 -0.60860797065E+03  0.60860797065E+03  0.00000000000E+00 0. -1.
    2000013    1    1    2    0    0 -0.84820970621E+03 -0.54404750403E+03  0.27693792327E+04  0.30963541023E+04  0.95000000000E+03 0.  0.
   -2000013    1    1    2    0    0  0.84820970621E+03  0.54404750403E+03  0.63208621933E+03  0.15223272910E+04  0.95000000000E+03 0.  0.
<mgrwt>
<rscale>  0 0.31244600E+04</rscale>
<asrwt>0</asrwt>
<pdfrwt beam="1">  1        2 0.61693436E+00 0.31244600E+04</pdfrwt>
<pdfrwt beam="2">  1       -2 0.93631998E-01 0.31244600E+04</pdfrwt>
<totfact> 0.27391329E-01</totfact>
</mgrwt>
</event>
<event>
 4    1  0.1323225E-008  0.2302147E+04  0.7816531E-02  0.8477075E-01
         -2   -1    0    0    0  501 -0.00000000000E+00  0.00000000000E+00  0.88533533930E+03  0.88533533930E+03  0.00000000000E+00 0. -1.
          2   -1    0    0  501    0  0.00000000000E+00 -0.00000000000E+00 -0.14965745242E+04  0.14965745242E+04  0.00000000000E+00 0.  1.
    2000013    1    1    2    0    0 -0.27267987067E+03  0.52446610752E+03 -0.58526406569E+03  0.12627165305E+04  0.95000000000E+03 0.  0.
   -2000013    1    1    2    0    0  0.27267987067E+03 -0.52446610752E+03 -0.25975119194E+02  0.11191933330E+04  0.95000000000E+03 0.  0.
<mgrwt>
<rscale>  0 0.23021471E+04</rscale>
<asrwt>0</asrwt>
<pdfrwt beam="2">  1        2 0.23024223E+00 0.23021471E+04</pdfrwt>
<pdfrwt beam="1">  1       -2 0.13620544E+00 0.23021471E+04</pdfrwt>
<totfact> 0.44578803E+00</totfact>
</mgrwt>
</event>
<event>
 4    1  0.1323225E-008  0.3562798E+04  0.7816531E-02  0.8099067E-01
         -2   -1    0    0    0  501 -0.00000000000E+00  0.00000000000E+00  0.66067695917E+03  0.66067695917E+03  0.00000000000E+00 0. -1.
          2   -1    0    0  501    0  0.00000000000E+00 -0.00000000000E+00 -0.48032281243E+04  0.48032281243E+04  0.00000000000E+00 0.  1.
    2000013    1    1    2    0    0  0.13358861861E+04  0.68049656596E+03 -0.23049403574E+04  0.29091094049E+04  0.95000000000E+03 0.  0.
   -2000013    1    1    2    0    0 -0.13358861861E+04 -0.68049656596E+03 -0.18376108077E+04  0.25547956786E+04  0.95000000000E+03 0.  0.
<mgrwt>
<rscale>  0 0.35627979E+04</rscale>
<asrwt>0</asrwt>
<pdfrwt beam="2">  1        2 0.73895816E+00 0.35627979E+04</pdfrwt>
<pdfrwt beam="1">  1       -2 0.10164261E+00 0.35627979E+04</pdfrwt>
<totfact> 0.38080888E-02</totfact>
</mgrwt>
</event>
<event>
 4    1  0.1323225E-008  0.2314333E+04  0.7816531E-02  0.8472291E-01
         -2   -1    0    0    0  501 -0.00000000000E+00  0.00000000000E+00  0.50068121107E+03  0.50068121107E+03  0.00000000000E+00 0. -1.
          2   -1    0    0  501    0  0.00000000000E+00 -0.00000000000E+00 -0.26744252427E+04  0.26744252427E+04  0.00000000000E+00 0.  1.
    2000013    1    1    2    0    0 -0.32386957408E+01  0.57092041347E+03 -0.15430755605E+04  0.18998796786E+04  0.95000000000E+03 0.  0.
   -2000013    1    1    2    0    0  0.32386957408E+01 -0.57092041347E+03 -0.63066847110E+03  0.12752267752E+04  0.95000000000E+03 0.  0.
<mgrwt>
<rscale>  0 0.23143331E+04</rscale>
<asrwt>0</asrwt>
<pdfrwt beam="2">  1        2 0.41145003E+00 0.23143331E+04</pdfrwt>
<pdfrwt beam="1">  1       -2 0.77027880E-01 0.23143331E+04</pdfrwt>
<totfact> 0.37480156E+00</totfact>
</mgrwt>
</event>
<event>
 4    1  0.1323225E-008  0.2051799E+04  0.7816531E-02  0.8582779E-01
          2   -1    0    0  501    0  0.00000000000E+00  0.00000000000E+00  0.23240246954E+04  0.23240246954E+04  0.00000000000E+00 0.  1.
         -2   -1    0    0    0  501 -0.00000000000E+00 -0.00000000000E+00 -0.45286504715E+03  0.45286504715E+03  0.00000000000E+00 0. -1.
    2000013    1    1    2    0    0  0.13457715749E+03 -0.26847999639E+03  0.60468418057E+03  0.11654765026E+04  0.95000000000E+03 0.  0.
   -2000013    1    1    2    0    0 -0.13457715749E+03  0.26847999639E+03  0.12664754677E+04  0.16114132400E+04  0.95000000000E+03 0.  0.
<mgrwt>
<rscale>  0 0.20517988E+04</rscale>
<asrwt>0</asrwt>
<pdfrwt beam="1">  1        2 0.35754225E+00 0.20517988E+04</pdfrwt>
<pdfrwt beam="2">  1       -2 0.69671547E-01 0.20517988E+04</pdfrwt>
<totfact> 0.76345421E+00</totfact>
</mgrwt>
</event>
<event>
 4    1  0.1323225E-008  0.2375873E+04  0.7816531E-02  0.8448592E-01
          2   -1    0    0  501    0  0.00000000000E+00  0.00000000000E+00  0.17736155435E+04  0.17736155435E+04  0.00000000000E+00 0.  1.
         -2   -1    0    0    0  501 -0.00000000000E+00 -0.00000000000E+00 -0.79565899312E+03  0.79565899312E+03  0.00000000000E+00 0. -1.
    2000013    1    1    2    0    0 -0.49643589480E+03 -0.11514609129E+03 -0.50625147475E+02  0.10792451647E+04  0.95000000000E+03 0.  0.
   -2000013    1    1    2    0    0  0.49643589480E+03  0.11514609129E+03  0.10285816979E+04  0.14900293719E+04  0.95000000000E+03 0.  0.
<mgrwt>
<rscale>  0 0.23758730E+04</rscale>
<asrwt>0</asrwt>
<pdfrwt beam="1">  1        2 0.27286393E+00 0.23758730E+04</pdfrwt>
<pdfrwt beam="2">  1       -2 0.12240908E+00 0.23758730E+04</pdfrwt>
<totfact> 0.40638779E+00</totfact>
</mgrwt>
</event>
<event>
 4    1  0.1323225E-008  0.3066314E+04  0.7816531E-02  0.8225044E-01
         -2   -1    0    0    0  501 -0.00000000000E+00  0.00000000000E+00  0.13077773855E+04  0.13077773855E+04  0.00000000000E+00 0. -1.
          2   -1    0    0  501    0  0.00000000000E+00 -0.00000000000E+00 -0.17973784616E+04  0.17973784616E+04  0.00000000000E+00 0.  1.
    2000013    1    1    2    0    0 -0.49106255968E+03  0.10183012527E+04 -0.66232288641E+03  0.16184101719E+04  0.95000000000E+03 0.  0.
   -2000013    1    1    2    0    0  0.49106255968E+03 -0.10183012527E+04  0.17272181031E+03  0.14867456751E+04  0.95000000000E+03 0.  0.
<mgrwt>
<rscale>  0 0.30663143E+04</rscale>
<asrwt>0</asrwt>
<pdfrwt beam="2">  1        2 0.27651977E+00 0.30663143E+04</pdfrwt>
<pdfrwt beam="1">  1       -2 0.20119652E+00 0.30663143E+04</pdfrwt>
<totfact> 0.96287263E-01</totfact>
</mgrwt>
</event>
<event>
 4    1  0.1323225E-008  0.2781410E+04  0.7816531E-02  0.8309063E-01
          1   -1    0    0  501    0  0.00000000000E+00  0.00000000000E+00  0.25481813498E+04  0.25481813498E+04  0.00000000000E+00 0.  1.
         -1   -1    0    0    0  501 -0.00000000000E+00 -0.00000000000E+00 -0.75899630674E+03  0.75899630674E+03  0.00000000000E+00 0. -1.
    2000013    1    1    2    0    0  0.94475470122E+03  0.37279357731E+03  0.88879953770E+03  0.16504548206E+04  0.95000000000E+03 0.  0.
   -2000013    1    1    2    0    0 -0.94475470122E+03 -0.37279357731E+03  0.90038550537E+03  0.16567228359E+04  0.95000000000E+03 0.  0.
<mgrwt>
<rscale>  0 0.27814099E+04</rscale>
<asrwt>0</asrwt>
<pdfrwt beam="1">  1        1 0.39202790E+00 0.27814099E+04</pdfrwt>
<pdfrwt beam="2">  1       -1 0.11676866E+00 0.27814099E+04</pdfrwt>
<totfact> 0.71915330E-01</totfact>
</mgrwt>
</event>
<event>
 4    1  0.1323225E-008  0.2608173E+04  0.7816531E-02  0.8365430E-01
         -2   -1    0    0    0  501 -0.00000000000E+00  0.00000000000E+00  0.22628567302E+04  0.22628567302E+04  0.00000000000E+00 0. -1.
          2   -1    0    0  501    0  0.00000000000E+00 -0.00000000000E+00 -0.75154614937E+03  0.75154614937E+03  0.00000000000E+00 0.  1.
    2000013    1    1    2    0    0  0.72625600899E+03  0.44610910250E+03  0.10650866798E+04  0.16623389418E+04  0.95000000000E+03 0.  0.
   -2000013    1    1    2    0    0 -0.72625600899E+03 -0.44610910250E+03  0.44622390102E+03  0.13520639378E+04  0.95000000000E+03 0.  0.
<mgrwt>
<rscale>  0 0.26081727E+04</rscale>
<asrwt>0</asrwt>
<pdfrwt beam="2">  1        2 0.11562249E+00 0.26081727E+04</pdfrwt>
<pdfrwt beam="1">  1       -2 0.34813180E+00 0.26081727E+04</pdfrwt>
<totfact> 0.52862676E-01</totfact>
</mgrwt>
</event>
<event>
 4    1  0.1323225E-008  0.2150866E+04  0.7816531E-02  0.8539162E-01
         -2   -1    0    0    0  501 -0.00000000000E+00  0.00000000000E+00  0.69104632470E+03  0.69104632470E+03  0.00000000000E+00 0. -1.
          2   -1    0    0  501    0  0.00000000000E+00 -0.00000000000E+00 -0.16736301020E+04  0.16736301020E+04  0.00000000000E+00 0.  1.
    2000013    1    1    2    0    0 -0.26872558696E+03 -0.42297761463E+03 -0.43175693283E+03  0.11575999104E+04  0.95000000000E+03 0.  0.
   -2000013    1    1    2    0    0  0.26872558696E+03  0.42297761463E+03 -0.55082684449E+03  0.12070765163E+04  0.95000000000E+03 0.  0.
<mgrwt>
<rscale>  0 0.21508658E+04</rscale>
<asrwt>0</asrwt>
<pdfrwt beam="2">  1        2 0.25748155E+00 0.21508658E+04</pdfrwt>
<pdfrwt beam="1">  1       -2 0.10631482E+00 0.21508658E+04</pdfrwt>
<totfact> 0.66420860E+00</totfact>
</mgrwt>
</event>
<event>
 4    1  0.1323225E-008  0.2389270E+04  0.7816531E-02  0.8443532E-01
         -1   -1    0    0    0  501 -0.00000000000E+00  0.00000000000E+00  0.80931219021E+03  0.80931219021E+03  0.00000000000E+00 0.  1.
          1   -1    0    0  501    0  0.00000000000E+00 -0.00000000000E+00 -0.17634143594E+04  0.17634143594E+04  0.00000000000E+00 0. -1.
    2000013    1    1    2    0    0 -0.66657775951E+03  0.27472050050E+03 -0.40201947784E+03  0.12585376130E+04  0.95000000000E+03 0.  0.
   -2000013    1    1    2    0    0  0.66657775951E+03 -0.27472050050E+03 -0.55208269131E+03  0.13141889365E+04  0.95000000000E+03 0.  0.
<mgrwt>
<rscale>  0 0.23892700E+04</rscale>
<asrwt>0</asrwt>
<pdfrwt beam="2">  1        1 0.27129452E+00 0.23892700E+04</pdfrwt>
<pdfrwt beam="1">  1       -1 0.12450957E+00 0.23892700E+04</pdfrwt>
<totfact> 0.21867755E+00</totfact>
</mgrwt>
</event>
<event>
 4    1  0.1323225E-008  0.2854910E+04  0.7816531E-02  0.8286421E-01
         -2   -1    0    0    0  501 -0.00000000000E+00  0.00000000000E+00  0.13425995104E+04  0.13425995104E+04  0.00000000000E+00 0. -1.
          2   -1    0    0  501    0  0.00000000000E+00 -0.00000000000E+00 -0.15176739912E+04  0.15176739912E+04  0.00000000000E+00 0.  1.
    2000013    1    1    2    0    0  0.62404862247E+03 -0.36558998280E+03 -0.87133394812E+03  0.14781121635E+04  0.95000000000E+03 0.  0.
   -2000013    1    1    2    0    0 -0.62404862247E+03  0.36558998280E+03  0.69625946727E+03  0.13821613381E+04  0.95000000000E+03 0.  0.
<mgrwt>
<rscale>  0 0.28549104E+04</rscale>
<asrwt>0</asrwt>
<pdfrwt beam="2">  1        2 0.23348831E+00 0.28549104E+04</pdfrwt>
<pdfrwt beam="1">  1       -2 0.20655377E+00 0.28549104E+04</pdfrwt>
<totfact> 0.12953620E+00</totfact>
</mgrwt>
</event>
<event>
 4    1  0.1323225E-008  0.2737214E+04  0.7816531E-02  0.8323030E-01
         -2   -1    0    0    0  501 -0.00000000000E+00  0.00000000000E+00  0.87832826687E+03  0.87832826687E+03  0.00000000000E+00 0. -1.
          2   -1    0    0  501    0  0.00000000000E+00 -0.00000000000E+00 -0.21325567029E+04  0.21325567029E+04  0.00000000000E+00 0.  1.
    2000013    1    1    2    0    0  0.26079651426E+03  0.89188777722E+03 -0.26712229412E+03  0.13554825521E+04  0.95000000000E+03 0.  0.
   -2000013    1    1    2    0    0 -0.26079651426E+03 -0.89188777722E+03 -0.98710614187E+03  0.16554024176E+04  0.95000000000E+03 0.  0.
<mgrwt>
<rscale>  0 0.27372138E+04</rscale>
<asrwt>0</asrwt>
<pdfrwt beam="2">  1        2 0.32808565E+00 0.27372138E+04</pdfrwt>
<pdfrwt beam="1">  1       -2 0.13512742E+00 0.27372138E+04</pdfrwt>
<totfact> 0.19394602E+00</totfact>
</mgrwt>
</event>
<event>
 4    1  0.1323225E-008  0.3076835E+04  0.7816531E-02  0.8222124E-01
         -1   -1    0    0    0  501 -0.00000000000E+00  0.00000000000E+00  0.13947792926E+04  0.13947792926E+04  0.00000000000E+00 0. -1.
          1   -1    0    0  501    0  0.00000000000E+00 -0.00000000000E+00 -0.16968478515E+04  0.16968478515E+04  0.00000000000E+00 0.  1.
    2000013    1    1    2    0    0 -0.24899932141E+03  0.29844821287E+03 -0.13024737727E+04  0.16583153881E+04  0.95000000000E+03 0.  0.
   -2000013    1    1    2    0    0  0.24899932141E+03 -0.29844821287E+03  0.10004052139E+04  0.14333117560E+04  0.95000000000E+03 0.  0.
<mgrwt>
<rscale>  0 0.30768349E+04</rscale>
<asrwt>0</asrwt>
<pdfrwt beam="2">  1        1 0.26105352E+00 0.30768349E+04</pdfrwt>
<pdfrwt beam="1">  1       -1 0.21458143E+00 0.30768349E+04</pdfrwt>
<totfact> 0.48472938E-01</totfact>
</mgrwt>
</event>
<event>
 4    1  0.1323225E-008  0.2318118E+04  0.7816531E-02  0.8470811E-01
          2   -1    0    0  501    0  0.00000000000E+00  0.00000000000E+00  0.34370799628E+04  0.34370799628E+04  0.00000000000E+00 0.  1.
         -2   -1    0    0    0  501 -0.00000000000E+00 -0.00000000000E+00 -0.39086033914E+03  0.39086033914E+03  0.00000000000E+00 0. -1.
    2000013    1    1    2    0    0  0.57153091897E+03 -0.55328998996E+02  0.20737909385E+04  0.23521942408E+04  0.95000000000E+03 0.  0.
   -2000013    1    1    2    0    0 -0.57153091897E+03  0.55328998996E+02  0.97242868516E+03  0.14757460612E+04  0.95000000000E+03 0.  0.
<mgrwt>
<rscale>  0 0.23181184E+04</rscale>
<asrwt>0</asrwt>
<pdfrwt beam="1">  1        2 0.52878151E+00 0.23181184E+04</pdfrwt>
<pdfrwt beam="2">  1       -2 0.60132362E-01 0.23181184E+04</pdfrwt>
<totfact> 0.21030175E+00</totfact>
</mgrwt>
</event>
<event>
 4    1  0.1323225E-008  0.3254165E+04  0.7816531E-02  0.8174657E-01
         -2   -1    0    0    0  501 -0.00000000000E+00  0.00000000000E+00  0.25691148527E+04  0.25691148527E+04  0.00000000000E+00 0. -1.
          2   -1    0    0  501    0  0.00000000000E+00 -0.00000000000E+00 -0.10304704928E+04  0.10304704928E+04  0.00000000000E+00 0.  1.
    2000013    1    1    2    0    0 -0.99232791633E+03 -0.74701196233E+03  0.27197953251E+03  0.15872033365E+04  0.95000000000E+03 0.  0.
   -2000013    1    1    2    0    0  0.99232791633E+03  0.74701196233E+03  0.12666648274E+04  0.20123820090E+04  0.95000000000E+03 0.  0.
<mgrwt>
<rscale>  0 0.32541647E+04</rscale>
<asrwt>0</asrwt>
<pdfrwt beam="2">  1        2 0.15853392E+00 0.32541647E+04</pdfrwt>
<pdfrwt beam="1">  1       -2 0.39524844E+00 0.32541647E+04</pdfrwt>
<totfact> 0.16082399E-01</totfact>
</mgrwt>
</event>
<event>
 4    1  0.1323225E-008  0.2804711E+04  0.7816531E-02  0.8301807E-01
         -1   -1    0    0    0  501 -0.00000000000E+00  0.00000000000E+00  0.94959389272E+03  0.94959389272E+03  0.00000000000E+00 0. -1.
          1   -1    0    0  501    0  0.00000000000E+00 -0.00000000000E+00 -0.20709910848E+04  0.20709910848E+04  0.00000000000E+00 0.  1.
    2000013    1    1    2    0    0  0.32588860406E+03  0.95976744855E+03 -0.76713844804E+03  0.15869336268E+04  0.95000000000E+03 0.  0.
   -2000013    1    1    2    0    0 -0.32588860406E+03 -0.95976744855E+03 -0.35425874402E+03  0.14336513507E+04  0.95000000000E+03 0.  0.
<mgrwt>
<rscale>  0 0.28047107E+04</rscale>
<asrwt>0</asrwt>
<pdfrwt beam="2">  1        1 0.31861401E+00 0.28047107E+04</pdfrwt>
<pdfrwt beam="1">  1       -1 0.14609137E+00 0.28047107E+04</pdfrwt>
<totfact> 0.86421622E-01</totfact>
</mgrwt>
</event>
<event>
 4    1  0.1323225E-008  0.3573119E+04  0.7816531E-02  0.8096677E-01
          2   -1    0    0  501    0  0.00000000000E+00  0.00000000000E+00  0.37317868525E+04  0.37317868525E+04  0.00000000000E+00 0.  1.
         -2   -1    0    0    0  501 -0.00000000000E+00 -0.00000000000E+00 -0.85529953210E+03  0.85529953210E+03  0.00000000000E+00 0. -1.
    2000013    1    1    2    0    0 -0.27920872726E+03  0.14480989285E+04  0.18723566509E+04  0.25657683934E+04  0.95000000000E+03 0.  0.
   -2000013    1    1    2    0    0  0.27920872726E+03 -0.14480989285E+04  0.10041306695E+04  0.20213179912E+04  0.95000000000E+03 0.  0.
<mgrwt>
<rscale>  0 0.35731194E+04</rscale>
<asrwt>0</asrwt>
<pdfrwt beam="1">  1        2 0.57412104E+00 0.35731194E+04</pdfrwt>
<pdfrwt beam="2">  1       -2 0.13158455E+00 0.35731194E+04</pdfrwt>
<totfact> 0.18975850E-01</totfact>
</mgrwt>
</event>
<event>
 4    1  0.1323225E-008  0.2186609E+04  0.7816531E-02  0.8524022E-01
          1   -1    0    0  501    0  0.00000000000E+00  0.00000000000E+00  0.12692849744E+04  0.12692849744E+04  0.00000000000E+00 0.  1.
         -1   -1    0    0    0  501 -0.00000000000E+00 -0.00000000000E+00 -0.94172289793E+03  0.94172289793E+03  0.00000000000E+00 0. -1.
    2000013    1    1    2    0    0  0.49933677350E+03  0.33772924354E+02 -0.44274216545E+02  0.10746804316E+04  0.95000000000E+03 0.  0.
   -2000013    1    1    2    0    0 -0.49933677350E+03 -0.33772924354E+02  0.37183629303E+03  0.11363274407E+04  0.95000000000E+03 0.  0.
<mgrwt>
<rscale>  0 0.21866090E+04</rscale>
<asrwt>0</asrwt>
<pdfrwt beam="1">  1        1 0.19527461E+00 0.21866090E+04</pdfrwt>
<pdfrwt beam="2">  1       -1 0.14488045E+00 0.21866090E+04</pdfrwt>
<totfact> 0.33266169E+00</totfact>
</mgrwt>
</event>
<event>
 4    1  0.1323225E-008  0.3144922E+04  0.7816531E-02  0.8203516E-01
          2   -1    0    0  501    0  0.00000000000E+00  0.00000000000E+00  0.36381086880E+04  0.36381086880E+04  0.00000000000E+00 0.  1.
         -2   -1    0    0    0  501 -0.00000000000E+00 -0.00000000000E+00 -0.67964824411E+03  0.67964824411E+03  0.00000000000E+00 0. -1.
    2000013    1    1    2    0    0 -0.12525097911E+04 -0.26114248040E+02  0.14436543616E+04  0.21345024353E+04  0.95000000000E+03 0.  0.
   -2000013    1    1    2    0    0  0.12525097911E+04  0.26114248040E+02  0.15148060823E+04  0.21832544968E+04  0.95000000000E+03 0.  0.
<mgrwt>
<rscale>  0 0.31449224E+04</rscale>
<asrwt>0</asrwt>
<pdfrwt beam="1">  1        2 0.55970902E+00 0.31449224E+04</pdfrwt>
<pdfrwt beam="2">  1       -2 0.10456127E+00 0.31449224E+04</pdfrwt>
<totfact> 0.40646319E-01</totfact>
</mgrwt>
</event>
<event>
 4    1  0.1323225E-008  0.3186902E+04  0.7816531E-02  0.8192285E-01
         -1   -1    0    0    0  501 -0.00000000000E+00  0.00000000000E+00  0.71007220656E+03  0.71007220656E+03  0.00000000000E+00 0. -1.
          1   -1    0    0  501    0  0.00000000000E+00 -0.00000000000E+00 -0.35758139518E+04  0.35758139518E+04  0.00000000000E+00 0.  1.
    2000013    1    1    2    0    0 -0.33614051091E+03  0.10895198105E+04 -0.22130453044E+04  0.26646037941E+04  0.95000000000E+03 0.  0.
   -2000013    1    1    2    0    0  0.33614051091E+03 -0.10895198105E+04 -0.65269644092E+03  0.16212823642E+04  0.95000000000E+03 0.  0.
<mgrwt>
<rscale>  0 0.31869020E+04</rscale>
<asrwt>0</asrwt>
<pdfrwt beam="2">  1        1 0.55012523E+00 0.31869020E+04</pdfrwt>
<pdfrwt beam="1">  1       -1 0.10924188E+00 0.31869020E+04</pdfrwt>
<totfact> 0.14115619E-01</totfact>
</mgrwt>
</event>
<event>
 4    1  0.1323225E-008  0.2673296E+04  0.7816531E-02  0.8343722E-01
          2   -1    0    0  501    0  0.00000000000E+00  0.00000000000E+00  0.22798553979E+04  0.22798553979E+04  0.00000000000E+00 0.  1.
         -2   -1    0    0    0  501 -0.00000000000E+00 -0.00000000000E+00 -0.78365835712E+03  0.78365835712E+03  0.00000000000E+00 0. -1.
    2000013    1    1    2    0    0  0.70946027342E+03 -0.59837242324E+03  0.57527251888E+03  0.14473499603E+04  0.95000000000E+03 0.  0.
   -2000013    1    1    2    0    0 -0.70946027342E+03  0.59837242324E+03  0.92092452189E+03  0.16161637948E+04  0.95000000000E+03 0.  0.
<mgrwt>
<rscale>  0 0.26732959E+04</rscale>
<asrwt>0</asrwt>
<pdfrwt beam="1">  1        2 0.35074698E+00 0.26732959E+04</pdfrwt>
<pdfrwt beam="2">  1       -2 0.12056283E+00 0.26732959E+04</pdfrwt>
<totfact> 0.21475845E+00</totfact>
</mgrwt>
</event>
<event>
 4    1  0.1323225E-008  0.2181604E+04  0.7816531E-02  0.8526124E-01
          2   -1    0    0  501    0  0.00000000000E+00  0.00000000000E+00  0.36686380151E+04  0.36686380151E+04  0.00000000000E+00 0. -1.
         -2   -1    0    0    0  501 -0.00000000000E+00 -0.00000000000E+00 -0.32432980016E+03  0.32432980016E+03  0.00000000000E+00 0.  1.
    2000013    1    1    2    0    0  0.43819824674E+03  0.79348095696E+01  0.22370825106E+04  0.24696394117E+04  0.95000000000E+03 0.  0.
   -2000013    1    1    2    0    0 -0.43819824674E+03 -0.79348095696E+01  0.11072257043E+04  0.15233284035E+04  0.95000000000E+03 0.  0.
<mgrwt>
<rscale>  0 0.21816037E+04</rscale>
<asrwt>0</asrwt>
<pdfrwt beam="1">  1        2 0.56440582E+00 0.21816037E+04</pdfrwt>
<pdfrwt beam="2">  1       -2 0.49896895E-01 0.21816037E+04</pdfrwt>
<totfact> 0.21517528E+00</totfact>
</mgrwt>
</event>
<event>
 4    1  0.1323225E-008  0.2443312E+04  0.7816531E-02  0.8423464E-01
          2   -1    0    0  501    0  0.00000000000E+00  0.00000000000E+00  0.15074025264E+04  0.15074025264E+04  0.00000000000E+00 0. -1.
         -2   -1    0    0    0  501 -0.00000000000E+00 -0.00000000000E+00 -0.99007626092E+03  0.99007626092E+03  0.00000000000E+00 0.  1.
    2000013    1    1    2    0    0 -0.67976826635E+03  0.11158623331E+03  0.60591059763E+03  0.13206680263E+04  0.95000000000E+03 0.  0.
   -2000013    1    1    2    0    0  0.67976826635E+03 -0.11158623331E+03 -0.88584332124E+02  0.11768107610E+04  0.95000000000E+03 0.  0.
<mgrwt>
<rscale>  0 0.24433121E+04</rscale>
<asrwt>0</asrwt>
<pdfrwt beam="1">  1        2 0.23190808E+00 0.24433121E+04</pdfrwt>
<pdfrwt beam="2">  1       -2 0.15231943E+00 0.24433121E+04</pdfrwt>
<totfact> 0.32407984E+00</totfact>
</mgrwt>
</event>
<event>
 4    1  0.1323225E-008  0.2285709E+04  0.7816531E-02  0.8483577E-01
         -2   -1    0    0    0  501 -0.00000000000E+00  0.00000000000E+00  0.16316898477E+04  0.16316898477E+04  0.00000000000E+00 0. -1.
          2   -1    0    0  501    0  0.00000000000E+00 -0.00000000000E+00 -0.80046871132E+03  0.80046871132E+03  0.00000000000E+00 0.  1.
    2000013    1    1    2    0    0 -0.54911339829E+03 -0.29328623367E+03  0.55051845839E+03  0.12621857677E+04  0.95000000000E+03 0.  0.
   -2000013    1    1    2    0    0  0.54911339829E+03  0.29328623367E+03  0.28070267796E+03  0.11699727913E+04  0.95000000000E+03 0.  0.
<mgrwt>
<rscale>  0 0.22857092E+04</rscale>
<asrwt>0</asrwt>
<pdfrwt beam="2">  1        2 0.12314903E+00 0.22857092E+04</pdfrwt>
<pdfrwt beam="1">  1       -2 0.25102921E+00 0.22857092E+04</pdfrwt>
<totfact> 0.19782096E+00</totfact>
</mgrwt>
</event>
<event>
 4    1  0.1323225E-008  0.2100477E+04  0.7816531E-02  0.8561033E-01
         -2   -1    0    0    0  501 -0.00000000000E+00  0.00000000000E+00  0.47647932031E+03  0.47647932031E+03  0.00000000000E+00 0. -1.
          2   -1    0    0  501    0  0.00000000000E+00 -0.00000000000E+00 -0.23148977987E+04  0.23148977987E+04  0.00000000000E+00 0.  1.
    2000013    1    1    2    0    0  0.51571733455E+02  0.34608939079E+03 -0.12905087399E+04  0.16402287395E+04  0.95000000000E+03 0.  0.
   -2000013    1    1    2    0    0 -0.51571733455E+02 -0.34608939079E+03 -0.54790973848E+03  0.11511483795E+04  0.95000000000E+03 0.  0.
<mgrwt>
<rscale>  0 0.21004770E+04</rscale>
<asrwt>0</asrwt>
<pdfrwt beam="2">  1        2 0.35613812E+00 0.21004770E+04</pdfrwt>
<pdfrwt beam="1">  1       -2 0.73304511E-01 0.21004770E+04</pdfrwt>
<totfact> 0.68823263E+00</totfact>
</mgrwt>
</event>
<event>
 4    1  0.1323225E-008  0.2404800E+04  0.7816531E-02  0.8437709E-01
          2   -1    0    0  501    0  0.00000000000E+00  0.00000000000E+00  0.55641949221E+03  0.55641949221E+03  0.00000000000E+00 0.  1.
         -2   -1    0    0    0  501 -0.00000000000E+00 -0.00000000000E+00 -0.25983378814E+04  0.25983378814E+04  0.00000000000E+00 0. -1.
    2000013    1    1    2    0    0  0.50634805047E+03  0.44861074742E+03 -0.14048339446E+04  0.18258418231E+04  0.95000000000E+03 0.  0.
   -2000013    1    1    2    0    0 -0.50634805047E+03 -0.44861074742E+03 -0.63708444456E+03  0.13289155505E+04  0.95000000000E+03 0.  0.
<mgrwt>
<rscale>  0 0.24048001E+04</rscale>
<asrwt>0</asrwt>
<pdfrwt beam="1">  1        2 0.85602999E-01 0.24048001E+04</pdfrwt>
<pdfrwt beam="2">  1       -2 0.39974429E+00 0.24048001E+04</pdfrwt>
<totfact> 0.36390694E-01</totfact>
</mgrwt>
</event>
<event>
 4    1  0.1323225E-008  0.2722355E+04  0.7816531E-02  0.8327788E-01
          2   -1    0    0  501    0  0.00000000000E+00  0.00000000000E+00  0.15703560973E+04  0.15703560973E+04  0.00000000000E+00 0.  1.
         -2   -1    0    0    0  501 -0.00000000000E+00 -0.00000000000E+00 -0.11798623771E+04  0.11798623771E+04  0.00000000000E+00 0. -1.
    2000013    1    1    2    0    0 -0.89959042173E+03  0.32008610334E+03  0.39369066286E+03  0.14032855655E+04  0.95000000000E+03 0.  0.
   -2000013    1    1    2    0    0  0.89959042173E+03 -0.32008610334E+03 -0.31969427232E+01  0.13469329088E+04  0.95000000000E+03 0.  0.
<mgrwt>
<rscale>  0 0.27223549E+04</rscale>
<asrwt>0</asrwt>
<pdfrwt beam="1">  1        2 0.24159325E+00 0.27223549E+04</pdfrwt>
<pdfrwt beam="2">  1       -2 0.18151729E+00 0.27223549E+04</pdfrwt>
<totfact> 0.17963153E+00</totfact>
</mgrwt>
</event>
<event>
 4    1  0.1323225E-008  0.2557879E+04  0.7816531E-02  0.8382651E-01
         -2   -1    0    0    0  501 -0.00000000000E+00  0.00000000000E+00  0.82241040211E+03  0.82241040211E+03  0.00000000000E+00 0. -1.
          2   -1    0    0  501    0  0.00000000000E+00 -0.00000000000E+00 -0.19888927715E+04  0.19888927715E+04  0.00000000000E+00 0.  1.
    2000013    1    1    2    0    0  0.61949289093E+03  0.36591647134E+03 -0.73004957254E+02  0.11939413845E+04  0.95000000000E+03 0.  0.
   -2000013    1    1    2    0    0 -0.61949289093E+03 -0.36591647134E+03 -0.10934774121E+04  0.16173617891E+04  0.95000000000E+03 0.  0.
<mgrwt>
<rscale>  0 0.25578789E+04</rscale>
<asrwt>0</asrwt>
<pdfrwt beam="2">  1        2 0.30598350E+00 0.25578789E+04</pdfrwt>
<pdfrwt beam="1">  1       -2 0.12652468E+00 0.25578789E+04</pdfrwt>
<totfact> 0.27977627E+00</totfact>
</mgrwt>
</event>
<event>
 4    1  0.1323225E-008  0.2416216E+04  0.7816531E-02  0.8433457E-01
         -2   -1    0    0    0  501 -0.00000000000E+00  0.00000000000E+00  0.54436224420E+03  0.54436224420E+03  0.00000000000E+00 0. -1.
          2   -1    0    0  501    0  0.00000000000E+00 -0.00000000000E+00 -0.26811646781E+04  0.26811646781E+04  0.00000000000E+00 0.  1.
    2000013    1    1    2    0    0  0.45194897013E+03  0.31982358862E+03 -0.40028608865E+03  0.11701597977E+04  0.95000000000E+03 0.  0.
   -2000013    1    1    2    0    0 -0.45194897013E+03 -0.31982358862E+03 -0.17365163452E+04  0.20553671246E+04  0.95000000000E+03 0.  0.
<mgrwt>
<rscale>  0 0.24162159E+04</rscale>
<asrwt>0</asrwt>
<pdfrwt beam="2">  1        2 0.41248687E+00 0.24162159E+04</pdfrwt>
<pdfrwt beam="1">  1       -2 0.83748039E-01 0.24162159E+04</pdfrwt>
<totfact> 0.30497820E+00</totfact>
</mgrwt>
</event>
<event>
 4    1  0.1323225E-008  0.2580785E+04  0.7816531E-02  0.8374757E-01
         -2   -1    0    0    0  501 -0.00000000000E+00  0.00000000000E+00  0.66861563574E+03  0.66861563574E+03  0.00000000000E+00 0. -1.
          2   -1    0    0  501    0  0.00000000000E+00 -0.00000000000E+00 -0.24903892652E+04  0.24903892652E+04  0.00000000000E+00 0.  1.
    2000013    1    1    2    0    0 -0.50061406162E+03 -0.71027713420E+03 -0.10169289042E+04  0.16406561012E+04  0.95000000000E+03 0.  0.
   -2000013    1    1    2    0    0  0.50061406162E+03  0.71027713420E+03 -0.80484472526E+03  0.15183487998E+04  0.95000000000E+03 0.  0.
<mgrwt>
<rscale>  0 0.25807853E+04</rscale>
<asrwt>0</asrwt>
<pdfrwt beam="2">  1        2 0.38313681E+00 0.25807853E+04</pdfrwt>
<pdfrwt beam="1">  1       -2 0.10286395E+00 0.25807853E+04</pdfrwt>
<totfact> 0.24118785E+00</totfact>
</mgrwt>
</event>
<event>
 4    1  0.1323225E-008  0.2220139E+04  0.7816531E-02  0.8510092E-01
          2   -1    0    0  501    0  0.00000000000E+00  0.00000000000E+00  0.36967166195E+04  0.36967166195E+04  0.00000000000E+00 0. -1.
         -2   -1    0    0    0  501 -0.00000000000E+00 -0.00000000000E+00 -0.33333759658E+03  0.33333759658E+03  0.00000000000E+00 0.  1.
    2000013    1    1    2    0    0 -0.42071617599E+03 -0.14894837375E+03  0.23376040142E+04  0.25624363887E+04  0.95000000000E+03 0.  0.
   -2000013    1    1    2    0    0  0.42071617599E+03  0.14894837375E+03  0.10257750087E+04  0.14676178274E+04  0.95000000000E+03 0.  0.
<mgrwt>
<rscale>  0 0.22201393E+04</rscale>
<asrwt>0</asrwt>
<pdfrwt beam="1">  1        2 0.56872561E+00 0.22201393E+04</pdfrwt>
<pdfrwt beam="2">  1       -2 0.51282710E-01 0.22201393E+04</pdfrwt>
<totfact> 0.19332419E+00</totfact>
</mgrwt>
</event>
<event>
 4    1  0.1323225E-008  0.2371343E+04  0.7816531E-02  0.8450311E-01
          1   -1    0    0  501    0  0.00000000000E+00  0.00000000000E+00  0.21112258354E+04  0.21112258354E+04  0.00000000000E+00 0.  1.
         -1   -1    0    0    0  501 -0.00000000000E+00 -0.00000000000E+00 -0.66587697316E+03  0.66587697316E+03  0.00000000000E+00 0. -1.
    2000013    1    1    2    0    0  0.68316309918E+03  0.14486610128E+03  0.86903346193E+03  0.14647242626E+04  0.95000000000E+03 0.  0.
   -2000013    1    1    2    0    0 -0.68316309918E+03 -0.14486610128E+03  0.57631540032E+03  0.13123785460E+04  0.95000000000E+03 0.  0.
<mgrwt>
<rscale>  0 0.23713428E+04</rscale>
<asrwt>0</asrwt>
<pdfrwt beam="1">  1        1 0.32480397E+00 0.23713428E+04</pdfrwt>
<pdfrwt beam="2">  1       -1 0.10244261E+00 0.23713428E+04</pdfrwt>
<totfact> 0.20275955E+00</totfact>
</mgrwt>
</event>
<event>
 4    1  0.1323225E-008  0.3494223E+04  0.7816531E-02  0.8115160E-01
         -2   -1    0    0    0  501 -0.00000000000E+00  0.00000000000E+00  0.13173967526E+04  0.13173967526E+04  0.00000000000E+00 0. -1.
          2   -1    0    0  501    0  0.00000000000E+00 -0.00000000000E+00 -0.23169931540E+04  0.23169931540E+04  0.00000000000E+00 0.  1.
    2000013    1    1    2    0    0 -0.64383875649E+02  0.13104400919E+04  0.18105994883E+03  0.16299328891E+04  0.95000000000E+03 0.  0.
   -2000013    1    1    2    0    0  0.64383875649E+02 -0.13104400919E+04 -0.11806563503E+04  0.20044570176E+04  0.95000000000E+03 0.  0.
<mgrwt>
<rscale>  0 0.34942234E+04</rscale>
<asrwt>0</asrwt>
<pdfrwt beam="2">  1        2 0.35646048E+00 0.34942234E+04</pdfrwt>
<pdfrwt beam="1">  1       -2 0.20267643E+00 0.34942234E+04</pdfrwt>
<totfact> 0.46560944E-01</totfact>
</mgrwt>
</event>
<event>
 4    1  0.1323225E-008  0.2545393E+04  0.7816531E-02  0.8386990E-01
          2   -1    0    0  501    0  0.00000000000E+00  0.00000000000E+00  0.12286871788E+04  0.12286871788E+04  0.00000000000E+00 0.  1.
         -2   -1    0    0    0  501 -0.00000000000E+00 -0.00000000000E+00 -0.13182819369E+04  0.13182819369E+04  0.00000000000E+00 0. -1.
    2000013    1    1    2    0    0 -0.25273491606E+02  0.83794335921E+03  0.75561321942E+02  0.12692506986E+04  0.95000000000E+03 0.  0.
   -2000013    1    1    2    0    0  0.25273491606E+02 -0.83794335921E+03 -0.16515608003E+03  0.12777184171E+04  0.95000000000E+03 0.  0.
<mgrwt>
<rscale>  0 0.25453928E+04</rscale>
<asrwt>0</asrwt>
<pdfrwt beam="1">  1        2 0.18902880E+00 0.25453928E+04</pdfrwt>
<pdfrwt beam="2">  1       -2 0.20281261E+00 0.25453928E+04</pdfrwt>
<totfact> 0.20625256E+00</totfact>
</mgrwt>
</event>
<event>
 4    1  0.1323225E-008  0.2346967E+04  0.7816531E-02  0.8459630E-01
         -2   -1    0    0    0  501 -0.00000000000E+00  0.00000000000E+00  0.89639518505E+03  0.89639518505E+03  0.00000000000E+00 0. -1.
          2   -1    0    0  501    0  0.00000000000E+00 -0.00000000000E+00 -0.15362230972E+04  0.15362230972E+04  0.00000000000E+00 0.  1.
    2000013    1    1    2    0    0  0.22148311637E+03 -0.58645244869E+03 -0.61596292675E+03  0.12941760207E+04  0.95000000000E+03 0.  0.
   -2000013    1    1    2    0    0 -0.22148311637E+03  0.58645244869E+03 -0.23864985412E+02  0.11384422616E+04  0.95000000000E+03 0.  0.
<mgrwt>
<rscale>  0 0.23469665E+04</rscale>
<asrwt>0</asrwt>
<pdfrwt beam="2">  1        2 0.23634202E+00 0.23469665E+04</pdfrwt>
<pdfrwt beam="1">  1       -2 0.13790695E+00 0.23469665E+04</pdfrwt>
<totfact> 0.40856075E+00</totfact>
</mgrwt>
</event>
<event>
 4    1  0.1323225E-008  0.2058281E+04  0.7816531E-02  0.8579847E-01
          2   -1    0    0  501    0  0.00000000000E+00  0.00000000000E+00  0.22358060619E+04  0.22358060619E+04  0.00000000000E+00 0.  1.
         -2   -1    0    0    0  501 -0.00000000000E+00 -0.00000000000E+00 -0.47371290782E+03  0.47371290782E+03  0.00000000000E+00 0. -1.
    2000013    1    1    2    0    0  0.13538829260E+03  0.27745278242E+03  0.55506793443E+03  0.11427643887E+04  0.95000000000E+03 0.  0.
   -2000013    1    1    2    0    0 -0.13538829260E+03 -0.27745278242E+03  0.12070252196E+04  0.15667545810E+04  0.95000000000E+03 0.  0.
<mgrwt>
<rscale>  0 0.20582810E+04</rscale>
<asrwt>0</asrwt>
<pdfrwt beam="1">  1        2 0.34397016E+00 0.20582810E+04</pdfrwt>
<pdfrwt beam="2">  1       -2 0.72878911E-01 0.20582810E+04</pdfrwt>
<totfact> 0.77553316E+00</totfact>
</mgrwt>
</event>
<event>
 4    1  0.1323225E-008  0.2063921E+04  0.7816531E-02  0.8577305E-01
         -1   -1    0    0    0  501 -0.00000000000E+00  0.00000000000E+00  0.52131876684E+03  0.52131876684E+03  0.00000000000E+00 0. -1.
          1   -1    0    0  501    0  0.00000000000E+00 -0.00000000000E+00 -0.20427860214E+04  0.20427860214E+04  0.00000000000E+00 0.  1.
    2000013    1    1    2    0    0 -0.25152732477E+03 -0.28166071911E+03 -0.58572617578E+03  0.11782079226E+04  0.95000000000E+03 0.  0.
   -2000013    1    1    2    0    0  0.25152732477E+03  0.28166071911E+03 -0.93574107879E+03  0.13858968657E+04  0.95000000000E+03 0.  0.
<mgrwt>
<rscale>  0 0.20639212E+04</rscale>
<asrwt>0</asrwt>
<pdfrwt beam="2">  1        1 0.31427477E+00 0.20639212E+04</pdfrwt>
<pdfrwt beam="1">  1       -1 0.80202887E-01 0.20639212E+04</pdfrwt>
<totfact> 0.39889703E+00</totfact>
</mgrwt>
</event>
<event>
 4    1  0.1323225E-008  0.2092567E+04  0.7816531E-02  0.8564525E-01
          2   -1    0    0  501    0  0.00000000000E+00  0.00000000000E+00  0.16322661808E+04  0.16322661808E+04  0.00000000000E+00 0.  1.
         -2   -1    0    0    0  501 -0.00000000000E+00 -0.00000000000E+00 -0.67066808175E+03  0.67066808175E+03  0.00000000000E+00 0. -1.
    2000013    1    1    2    0    0  0.11382240455E+03 -0.31735154157E+03  0.17237286327E+03  0.10226827195E+04  0.95000000000E+03 0.  0.
   -2000013    1    1    2    0    0 -0.11382240455E+03  0.31735154157E+03  0.78922523573E+03  0.12802515430E+04  0.95000000000E+03 0.  0.
<mgrwt>
<rscale>  0 0.20925667E+04</rscale>
<asrwt>0</asrwt>
<pdfrwt beam="1">  1        2 0.25111787E+00 0.20925667E+04</pdfrwt>
<pdfrwt beam="2">  1       -2 0.10317971E+00 0.20925667E+04</pdfrwt>
<totfact> 0.75626094E+00</totfact>
</mgrwt>
</event>
<event>
 4    1  0.1323225E-008  0.2717251E+04  0.7816531E-02  0.8329429E-01
         -2   -1    0    0    0  501 -0.00000000000E+00  0.00000000000E+00  0.16759576554E+04  0.16759576554E+04  0.00000000000E+00 0. -1.
          2   -1    0    0  501    0  0.00000000000E+00 -0.00000000000E+00 -0.11013783102E+04  0.11013783102E+04  0.00000000000E+00 0.  1.
    2000013    1    1    2    0    0 -0.50886314450E+03 -0.73968526786E+03 -0.91426634711E+02  0.13103185967E+04  0.95000000000E+03 0.  0.
   -2000013    1    1    2    0    0  0.50886314450E+03  0.73968526786E+03  0.66600597989E+03  0.14670173689E+04  0.95000000000E+03 0.  0.
<mgrwt>
<rscale>  0 0.27172511E+04</rscale>
<asrwt>0</asrwt>
<pdfrwt beam="2">  1        2 0.16944282E+00 0.27172511E+04</pdfrwt>
<pdfrwt beam="1">  1       -2 0.25783964E+00 0.27172511E+04</pdfrwt>
<totfact> 0.10956036E+00</totfact>
</mgrwt>
</event>
<event>
 4    1  0.1323225E-008  0.3447076E+04  0.7816531E-02  0.8126448E-01
          2   -1    0    0  501    0  0.00000000000E+00  0.00000000000E+00  0.23830226556E+04  0.23830226556E+04  0.00000000000E+00 0.  1.
         -2   -1    0    0    0  501 -0.00000000000E+00 -0.00000000000E+00 -0.12465610918E+04  0.12465610918E+04  0.00000000000E+00 0. -1.
    2000013    1    1    2    0    0 -0.13500781903E+04  0.20721116266E+03  0.94480426702E+02  0.16664555610E+04  0.95000000000E+03 0.  0.
   -2000013    1    1    2    0    0  0.13500781903E+04 -0.20721116266E+03  0.10419811371E+04  0.19631281863E+04  0.95000000000E+03 0.  0.
<mgrwt>
<rscale>  0 0.34470760E+04</rscale>
<asrwt>0</asrwt>
<pdfrwt beam="1">  1        2 0.36661887E+00 0.34470760E+04</pdfrwt>
<pdfrwt beam="2">  1       -2 0.19177863E+00 0.34470760E+04</pdfrwt>
<totfact> 0.50594759E-01</totfact>
</mgrwt>
</event>
<event>
 4    1  0.1323225E-008  0.2520929E+04  0.7816531E-02  0.8395567E-01
          2   -1    0    0  501    0  0.00000000000E+00  0.00000000000E+00  0.17040446919E+04  0.17040446919E+04  0.00000000000E+00 0.  1.
         -2   -1    0    0    0  501 -0.00000000000E+00 -0.00000000000E+00 -0.93235277191E+03  0.93235277191E+03  0.00000000000E+00 0. -1.
    2000013    1    1    2    0    0 -0.62284526967E+03 -0.49845877586E+03  0.61939861081E+03  0.13865612212E+04  0.95000000000E+03 0.  0.
   -2000013    1    1    2    0    0  0.62284526967E+03  0.49845877586E+03  0.15229330916E+03  0.12498362426E+04  0.95000000000E+03 0.  0.
<mgrwt>
<rscale>  0 0.25209290E+04</rscale>
<asrwt>0</asrwt>
<pdfrwt beam="1">  1        2 0.26216072E+00 0.25209290E+04</pdfrwt>
<pdfrwt beam="2">  1       -2 0.14343889E+00 0.25209290E+04</pdfrwt>
<totfact> 0.29287653E+00</totfact>
</mgrwt>
</event>
<event>
 4    1  0.1323225E-008  0.2790788E+04  0.7816531E-02  0.8306134E-01
          2   -1    0    0  501    0  0.00000000000E+00  0.00000000000E+00  0.88968458289E+03  0.88968458289E+03  0.00000000000E+00 0.  1.
         -2   -1    0    0    0  501 -0.00000000000E+00 -0.00000000000E+00 -0.21885559371E+04  0.21885559371E+04  0.00000000000E+00 0. -1.
    2000013    1    1    2    0    0  0.52693368214E+03 -0.50066903562E+03  0.14311132913E+03  0.12047030510E+04  0.95000000000E+03 0.  0.
   -2000013    1    1    2    0    0 -0.52693368214E+03  0.50066903562E+03 -0.14419826834E+04  0.18735374690E+04  0.95000000000E+03 0.  0.
<mgrwt>
<rscale>  0 0.27907880E+04</rscale>
<asrwt>0</asrwt>
<pdfrwt beam="1">  1        2 0.13687455E+00 0.27907880E+04</pdfrwt>
<pdfrwt beam="2">  1       -2 0.33670091E+00 0.27907880E+04</pdfrwt>
<totfact> 0.48928613E-01</totfact>
</mgrwt>
</event>
<event>
 4    1  0.1323225E-008  0.3972003E+04  0.7816531E-02  0.8010218E-01
          2   -1    0    0  501    0  0.00000000000E+00  0.00000000000E+00  0.16817338566E+04  0.16817338566E+04  0.00000000000E+00 0.  1.
         -2   -1    0    0    0  501 -0.00000000000E+00 -0.00000000000E+00 -0.23453191278E+04  0.23453191278E+04  0.00000000000E+00 0. -1.
    2000013    1    1    2    0    0 -0.27637835425E+03  0.17037584936E+04 -0.58530733303E+03  0.20553011150E+04  0.95000000000E+03 0.  0.
   -2000013    1    1    2    0    0  0.27637835425E+03 -0.17037584936E+04 -0.78277938136E+02  0.19717518695E+04  0.95000000000E+03 0.  0.
<mgrwt>
<rscale>  0 0.39720033E+04</rscale>
<asrwt>0</asrwt>
<pdfrwt beam="1">  1        2 0.25872829E+00 0.39720033E+04</pdfrwt>
<pdfrwt beam="2">  1       -2 0.36081833E+00 0.39720033E+04</pdfrwt>
<totfact> 0.10543598E-01</totfact>
</mgrwt>
</event>
<event>
 4    1  0.1323225E-008  0.2160236E+04  0.7816531E-02  0.8535163E-01
          2   -1    0    0  501    0  0.00000000000E+00  0.00000000000E+00  0.48413816741E+03  0.48413816741E+03  0.00000000000E+00 0.  1.
         -2   -1    0    0    0  501 -0.00000000000E+00 -0.00000000000E+00 -0.24097558135E+04  0.24097558135E+04  0.00000000000E+00 0. -1.
    2000013    1    1    2    0    0 -0.32577803280E+03  0.36888706447E+03 -0.76435619349E+03  0.13148951987E+04  0.95000000000E+03 0.  0.
   -2000013    1    1    2    0    0  0.32577803280E+03 -0.36888706447E+03 -0.11612614526E+04  0.15789987822E+04  0.95000000000E+03 0.  0.
<mgrwt>
<rscale>  0 0.21602359E+04</rscale>
<asrwt>0</asrwt>
<pdfrwt beam="1">  1        2 0.74482794E-01 0.21602359E+04</pdfrwt>
<pdfrwt beam="2">  1       -2 0.37073167E+00 0.21602359E+04</pdfrwt>
<totfact> 0.67455384E-01</totfact>
</mgrwt>
</event>
<event>
 4    1  0.1323225E-008  0.2621667E+04  0.7816531E-02  0.8360878E-01
         -2   -1    0    0    0  501 -0.00000000000E+00  0.00000000000E+00  0.10582153183E+04  0.10582153183E+04  0.00000000000E+00 0. -1.
          2   -1    0    0  501    0  0.00000000000E+00 -0.00000000000E+00 -0.16237569568E+04  0.16237569568E+04  0.00000000000E+00 0.  1.
    2000013    1    1    2    0    0 -0.19285541784E+03  0.83956956208E+03 -0.50218854395E+01  0.12824178263E+04  0.95000000000E+03 0.  0.
   -2000013    1    1    2    0    0  0.19285541784E+03 -0.83956956208E+03 -0.56051975301E+03  0.13995544488E+04  0.95000000000E+03 0.  0.
<mgrwt>
<rscale>  0 0.26216670E+04</rscale>
<asrwt>0</asrwt>
<pdfrwt beam="2">  1        2 0.24980876E+00 0.26216670E+04</pdfrwt>
<pdfrwt beam="1">  1       -2 0.16280236E+00 0.26216670E+04</pdfrwt>
<totfact> 0.22944431E+00</totfact>
</mgrwt>
</event>
<event>
 4    1  0.1323225E-008  0.2201189E+04  0.7816531E-02  0.8517933E-01
          1   -1    0    0  501    0  0.00000000000E+00  0.00000000000E+00  0.25753083045E+04  0.25753083045E+04  0.00000000000E+00 0.  1.
         -1   -1    0    0    0  501 -0.00000000000E+00 -0.00000000000E+00 -0.47035474883E+03  0.47035474883E+03  0.00000000000E+00 0. -1.
    2000013    1    1    2    0    0 -0.13263537404E+03 -0.34365880337E+03  0.16281709028E+04  0.19207118484E+04  0.95000000000E+03 0.  0.
   -2000013    1    1    2    0    0  0.13263537404E+03  0.34365880337E+03  0.47678265287E+03  0.11249512050E+04  0.95000000000E+03 0.  0.
<mgrwt>
<rscale>  0 0.22011892E+04</rscale>
<asrwt>0</asrwt>
<pdfrwt beam="1">  1        1 0.39620127E+00 0.22011892E+04</pdfrwt>
<pdfrwt beam="2">  1       -1 0.72362270E-01 0.22011892E+04</pdfrwt>
<totfact> 0.21088431E+00</totfact>
</mgrwt>
</event>
<event>
 4    1  0.1323225E-008  0.2236588E+04  0.7816531E-02  0.8503352E-01
          2   -1    0    0  501    0  0.00000000000E+00  0.00000000000E+00  0.41682738631E+04  0.41682738631E+04  0.00000000000E+00 0.  1.
         -2   -1    0    0    0  501 -0.00000000000E+00 -0.00000000000E+00 -0.30002377560E+03  0.30002377560E+03  0.00000000000E+00 0. -1.
    2000013    1    1    2    0    0 -0.82398116943E+02  0.50511677999E+03  0.25205073874E+04  0.27417858963E+04  0.95000000000E+03 0.  0.
   -2000013    1    1    2    0    0  0.82398116943E+02 -0.50511677999E+03  0.13477427002E+04  0.17265117425E+04  0.95000000000E+03 0.  0.
<mgrwt>
<rscale>  0 0.22365878E+04</rscale>
<asrwt>0</asrwt>
<pdfrwt beam="1">  1        2 0.64127286E+00 0.22365878E+04</pdfrwt>
<pdfrwt beam="2">  1       -2 0.46157507E-01 0.22365878E+04</pdfrwt>
<totfact> 0.10125067E+00</totfact>
</mgrwt>
</event>
<event>
 4    1  0.1323225E-008  0.2270867E+04  0.7816531E-02  0.8489497E-01
         -2   -1    0    0    0  501 -0.00000000000E+00  0.00000000000E+00  0.54336309643E+03  0.54336309643E+03  0.00000000000E+00 0. -1.
          2   -1    0    0  501    0  0.00000000000E+00 -0.00000000000E+00 -0.23726474601E+04  0.23726474601E+04  0.00000000000E+00 0.  1.
    2000013    1    1    2    0    0  0.15500659232E+03  0.59351089877E+03 -0.10457636415E+04  0.15402609599E+04  0.95000000000E+03 0.  0.
   -2000013    1    1    2    0    0 -0.15500659232E+03 -0.59351089877E+03 -0.78352072213E+03  0.13757495966E+04  0.95000000000E+03 0.  0.
<mgrwt>
<rscale>  0 0.22708669E+04</rscale>
<asrwt>0</asrwt>
<pdfrwt beam="2">  1        2 0.36502269E+00 0.22708669E+04</pdfrwt>
<pdfrwt beam="1">  1       -2 0.83594322E-01 0.22708669E+04</pdfrwt>
<totfact> 0.46870735E+00</totfact>
</mgrwt>
</event>
<event>
 4    1  0.1323225E-008  0.2437738E+04  0.7816531E-02  0.8425509E-01
         -2   -1    0    0    0  501 -0.00000000000E+00  0.00000000000E+00  0.98942185939E+03  0.98942185939E+03  0.00000000000E+00 0. -1.
          2   -1    0    0  501    0  0.00000000000E+00 -0.00000000000E+00 -0.15015246622E+04  0.15015246622E+04  0.00000000000E+00 0.  1.
    2000013    1    1    2    0    0  0.59704886540E+03 -0.41256145732E+03 -0.13236768821E+02  0.11955540623E+04  0.95000000000E+03 0.  0.
   -2000013    1    1    2    0    0 -0.59704886540E+03  0.41256145732E+03 -0.49886603395E+03  0.12953924593E+04  0.95000000000E+03 0.  0.
<mgrwt>
<rscale>  0 0.24377377E+04</rscale>
<asrwt>0</asrwt>
<pdfrwt beam="2">  1        2 0.23100379E+00 0.24377377E+04</pdfrwt>
<pdfrwt beam="1">  1       -2 0.15221875E+00 0.24377377E+04</pdfrwt>
<totfact> 0.32729321E+00</totfact>
</mgrwt>
</event>
<event>
 4    1  0.1323225E-008  0.2275394E+04  0.7816531E-02  0.8487687E-01
          2   -1    0    0  501    0  0.00000000000E+00  0.00000000000E+00  0.48286444918E+04  0.48286444918E+04  0.00000000000E+00 0.  1.
         -2   -1    0    0    0  501 -0.00000000000E+00 -0.00000000000E+00 -0.26805752141E+03  0.26805752141E+03  0.00000000000E+00 0. -1.
    2000013    1    1    2    0    0  0.42167232196E+03  0.36672336207E+03  0.29120976489E+04  0.31136965633E+04  0.95000000000E+03 0.  0.
   -2000013    1    1    2    0    0 -0.42167232196E+03 -0.36672336207E+03  0.16484893215E+04  0.19830054499E+04  0.95000000000E+03 0.  0.
<mgrwt>
<rscale>  0 0.22753940E+04</rscale>
<asrwt>0</asrwt>
<pdfrwt beam="1">  1        2 0.74286832E+00 0.22753940E+04</pdfrwt>
<pdfrwt beam="2">  1       -2 0.41239622E-01 0.22753940E+04</pdfrwt>
<totfact> 0.28318459E-01</totfact>
</mgrwt>
</event>
<event>
 4    1  0.1323225E-008  0.4487839E+04  0.7816531E-02  0.7912769E-01
          2   -1    0    0  501    0  0.00000000000E+00  0.00000000000E+00  0.30717368731E+04  0.30717368731E+04  0.00000000000E+00 0. -1.
         -2   -1    0    0    0  501 -0.00000000000E+00 -0.00000000000E+00 -0.16391945356E+04  0.16391945356E+04  0.00000000000E+00 0.  1.
    2000013    1    1    2    0    0 -0.15827340141E+04  0.10327623905E+04  0.15025240628E+04  0.25945565467E+04  0.95000000000E+03 0.  0.
   -2000013    1    1    2    0    0  0.15827340141E+04 -0.10327623905E+04 -0.69981725320E+02  0.21163748620E+04  0.95000000000E+03 0.  0.
<mgrwt>
<rscale>  0 0.44878388E+04</rscale>
<asrwt>0</asrwt>
<pdfrwt beam="1">  1        2 0.47257490E+00 0.44878388E+04</pdfrwt>
<pdfrwt beam="2">  1       -2 0.25218378E+00 0.44878388E+04</pdfrwt>
<totfact> 0.74075384E-02</totfact>
</mgrwt>
</event>
<event>
 4    1  0.1323225E-008  0.4129172E+04  0.7816531E-02  0.7978984E-01
          1   -1    0    0  501    0  0.00000000000E+00  0.00000000000E+00  0.29729732839E+04  0.29729732839E+04  0.00000000000E+00 0.  1.
         -1   -1    0    0    0  501 -0.00000000000E+00 -0.00000000000E+00 -0.14337551296E+04  0.14337551296E+04  0.00000000000E+00 0. -1.
    2000013    1    1    2    0    0 -0.75793646677E+03 -0.15982915125E+04  0.25666407939E+03  0.20241985812E+04  0.95000000000E+03 0.  0.
   -2000013    1    1    2    0    0  0.75793646677E+03  0.15982915125E+04  0.12825540749E+04  0.23825298323E+04  0.95000000000E+03 0.  0.
<mgrwt>
<rscale>  0 0.41291722E+04</rscale>
<asrwt>0</asrwt>
<pdfrwt beam="1">  1        1 0.45738050E+00 0.41291722E+04</pdfrwt>
<pdfrwt beam="2">  1       -1 0.22057771E+00 0.41291722E+04</pdfrwt>
<totfact> 0.52814521E-02</totfact>
</mgrwt>
</event>
<event>
 4    1  0.1323225E-008  0.2323255E+04  0.7816531E-02  0.8468808E-01
         -2   -1    0    0    0  501 -0.00000000000E+00  0.00000000000E+00  0.70155013819E+03  0.70155013819E+03  0.00000000000E+00 0. -1.
          2   -1    0    0  501    0  0.00000000000E+00 -0.00000000000E+00 -0.19234235984E+04  0.19234235984E+04  0.00000000000E+00 0.  1.
    2000013    1    1    2    0    0  0.31153015526E+03 -0.57447277012E+03 -0.45191757572E+03  0.12384665908E+04  0.95000000000E+03 0.  0.
   -2000013    1    1    2    0    0 -0.31153015526E+03  0.57447277012E+03 -0.76995588445E+03  0.13865071458E+04  0.95000000000E+03 0.  0.
<mgrwt>
<rscale>  0 0.23232547E+04</rscale>
<asrwt>0</asrwt>
<pdfrwt beam="2">  1        2 0.29591132E+00 0.23232547E+04</pdfrwt>
<pdfrwt beam="1">  1       -2 0.10793079E+00 0.23232547E+04</pdfrwt>
<totfact> 0.45872925E+00</totfact>
</mgrwt>
</event>
<event>
 4    1  0.1323225E-008  0.2974367E+04  0.7816531E-02  0.8251088E-01
          2   -1    0    0  501    0  0.00000000000E+00  0.00000000000E+00  0.16433526648E+04  0.16433526648E+04  0.00000000000E+00 0.  1.
         -2   -1    0    0    0  501 -0.00000000000E+00 -0.00000000000E+00 -0.13458556275E+04  0.13458556275E+04  0.00000000000E+00 0. -1.
    2000013    1    1    2    0    0  0.31490751452E+02  0.11437634182E+04  0.15416126954E+03  0.14951428431E+04  0.95000000000E+03 0.  0.
   -2000013    1    1    2    0    0 -0.31490751452E+02 -0.11437634182E+04  0.14333576778E+03  0.14940654492E+04  0.95000000000E+03 0.  0.
<mgrwt>
<rscale>  0 0.29743675E+04</rscale>
<asrwt>0</asrwt>
<pdfrwt beam="1">  1        2 0.25282349E+00 0.29743675E+04</pdfrwt>
<pdfrwt beam="2">  1       -2 0.20705471E+00 0.29743675E+04</pdfrwt>
<totfact> 0.10824298E+00</totfact>
</mgrwt>
</event>
<event>
 4    1  0.1323225E-008  0.2248729E+04  0.7816531E-02  0.8498415E-01
          2   -1    0    0  501    0  0.00000000000E+00  0.00000000000E+00  0.15881361727E+04  0.15881361727E+04  0.00000000000E+00 0.  1.
         -2   -1    0    0    0  501 -0.00000000000E+00 -0.00000000000E+00 -0.79602455183E+03  0.79602455183E+03  0.00000000000E+00 0. -1.
    2000013    1    1    2    0    0 -0.48760998598E+03 -0.25578367741E+03  0.13960690326E+03  0.11068779858E+04  0.95000000000E+03 0.  0.
   -2000013    1    1    2    0    0  0.48760998598E+03  0.25578367741E+03  0.65250471759E+03  0.12772827387E+04  0.95000000000E+03 0.  0.
<mgrwt>
<rscale>  0 0.22487289E+04</rscale>
<asrwt>0</asrwt>
<pdfrwt beam="1">  1        2 0.24432864E+00 0.22487289E+04</pdfrwt>
<pdfrwt beam="2">  1       -2 0.12246532E+00 0.22487289E+04</pdfrwt>
<totfact> 0.52043495E+00</totfact>
</mgrwt>
</event>
<event>
 4    1  0.1323225E-008  0.2151872E+04  0.7816531E-02  0.8538731E-01
          1   -1    0    0  501    0  0.00000000000E+00  0.00000000000E+00  0.24896513560E+04  0.24896513560E+04  0.00000000000E+00 0. -1.
         -1   -1    0    0    0  501 -0.00000000000E+00 -0.00000000000E+00 -0.46497994868E+03  0.46497994868E+03  0.00000000000E+00 0.  1.
    2000013    1    1    2    0    0 -0.13307748101E+02 -0.50415259231E+03  0.97371833785E+03  0.14508529677E+04  0.95000000000E+03 0.  0.
   -2000013    1    1    2    0    0  0.13307748101E+02  0.50415259231E+03  0.10509530695E+04  0.15037783370E+04  0.95000000000E+03 0.  0.
<mgrwt>
<rscale>  0 0.21518717E+04</rscale>
<asrwt>0</asrwt>
<pdfrwt beam="1">  1        1 0.38302328E+00 0.21518717E+04</pdfrwt>
<pdfrwt beam="2">  1       -1 0.71535378E-01 0.21518717E+04</pdfrwt>
<totfact> 0.24881591E+00</totfact>
</mgrwt>
</event>
<event>
 4    1  0.1323225E-008  0.2448268E+04  0.7816531E-02  0.8421650E-01
          2   -1    0    0  501    0  0.00000000000E+00  0.00000000000E+00  0.98126951343E+03  0.98126951343E+03  0.00000000000E+00 0.  1.
         -2   -1    0    0    0  501 -0.00000000000E+00 -0.00000000000E+00 -0.15271080755E+04  0.15271080755E+04  0.00000000000E+00 0. -1.
    2000013    1    1    2    0    0 -0.43060495832E+03 -0.63939923889E+03 -0.23002760942E+03  0.12448553000E+04  0.95000000000E+03 0.  0.
   -2000013    1    1    2    0    0  0.43060495832E+03  0.63939923889E+03 -0.31581095264E+03  0.12635222889E+04  0.95000000000E+03 0.  0.
<mgrwt>
<rscale>  0 0.24482684E+04</rscale>
<asrwt>0</asrwt>
<pdfrwt beam="1">  1        2 0.15096454E+00 0.24482684E+04</pdfrwt>
<pdfrwt beam="2">  1       -2 0.23493970E+00 0.24482684E+04</pdfrwt>
<totfact> 0.18471197E+00</totfact>
</mgrwt>
</event>
<event>
 4    1  0.1323225E-008  0.2029619E+04  0.7816531E-02  0.8592897E-01
         -2   -1    0    0    0  501 -0.00000000000E+00  0.00000000000E+00  0.68385840473E+03  0.68385840473E+03  0.00000000000E+00 0. -1.
          2   -1    0    0  501    0  0.00000000000E+00 -0.00000000000E+00 -0.15059227416E+04  0.15059227416E+04  0.00000000000E+00 0.  1.
    2000013    1    1    2    0    0  0.21077582407E+03  0.28385960168E+03 -0.46316946702E+03  0.11144634030E+04  0.95000000000E+03 0.  0.
   -2000013    1    1    2    0    0 -0.21077582407E+03 -0.28385960168E+03 -0.35889486985E+03  0.10753177433E+04  0.95000000000E+03 0.  0.
<mgrwt>
<rscale>  0 0.20296186E+04</rscale>
<asrwt>0</asrwt>
<pdfrwt beam="2">  1        2 0.23168042E+00 0.20296186E+04</pdfrwt>
<pdfrwt beam="1">  1       -2 0.10520899E+00 0.20296186E+04</pdfrwt>
<totfact> 0.85421042E+00</totfact>
</mgrwt>
</event>
<event>
 4    1  0.1323225E-008  0.2827982E+04  0.7816531E-02  0.8294633E-01
         -1   -1    0    0    0  501 -0.00000000000E+00  0.00000000000E+00  0.18284592240E+04  0.18284592240E+04  0.00000000000E+00 0. -1.
          1   -1    0    0  501    0  0.00000000000E+00 -0.00000000000E+00 -0.10934725782E+04  0.10934725782E+04  0.00000000000E+00 0.  1.
    2000013    1    1    2    0    0 -0.73693374931E+03 -0.65035192244E+03 -0.62431634386E+01  0.13669557239E+04  0.95000000000E+03 0.  0.
   -2000013    1    1    2    0    0  0.73693374931E+03  0.65035192244E+03  0.74122980928E+03  0.15549760783E+04  0.95000000000E+03 0.  0.
<mgrwt>
<rscale>  0 0.28279816E+04</rscale>
<asrwt>0</asrwt>
<pdfrwt beam="2">  1        1 0.16822655E+00 0.28279816E+04</pdfrwt>
<pdfrwt beam="1">  1       -1 0.28130142E+00 0.28279816E+04</pdfrwt>
<totfact> 0.48341206E-01</totfact>
</mgrwt>
</event>
<event>
 4    1  0.1323225E-008  0.3131697E+04  0.7816531E-02  0.8207092E-01
          2   -1    0    0  501    0  0.00000000000E+00  0.00000000000E+00  0.18605587769E+04  0.18605587769E+04  0.00000000000E+00 0.  1.
         -2   -1    0    0    0  501 -0.00000000000E+00 -0.00000000000E+00 -0.13178203569E+04  0.13178203569E+04  0.00000000000E+00 0. -1.
    2000013    1    1    2    0    0  0.10119111714E+04  0.47396858241E+03 -0.28523239745E+03  0.14941445568E+04  0.95000000000E+03 0.  0.
   -2000013    1    1    2    0    0 -0.10119111714E+04 -0.47396858241E+03  0.82797081741E+03  0.16842345770E+04  0.95000000000E+03 0.  0.
<mgrwt>
<rscale>  0 0.31316975E+04</rscale>
<asrwt>0</asrwt>
<pdfrwt beam="1">  1        2 0.28623981E+00 0.31316975E+04</pdfrwt>
<pdfrwt beam="2">  1       -2 0.20274159E+00 0.31316975E+04</pdfrwt>
<totfact> 0.86307854E-01</totfact>
</mgrwt>
</event>
<event>
 4    1  0.1323225E-008  0.2127388E+04  0.7816531E-02  0.8549274E-01
         -2   -1    0    0    0  501 -0.00000000000E+00  0.00000000000E+00  0.80965397803E+03  0.80965397803E+03  0.00000000000E+00 0. -1.
          2   -1    0    0  501    0  0.00000000000E+00 -0.00000000000E+00 -0.13974424913E+04  0.13974424913E+04  0.00000000000E+00 0.  1.
    2000013    1    1    2    0    0 -0.35556256181E+02 -0.33701904843E+03  0.56546922143E+02  0.10102196003E+04  0.95000000000E+03 0.  0.
   -2000013    1    1    2    0    0  0.35556256181E+02  0.33701904843E+03 -0.64433543539E+03  0.11968768690E+04  0.95000000000E+03 0.  0.
<mgrwt>
<rscale>  0 0.21273879E+04</rscale>
<asrwt>0</asrwt>
<pdfrwt beam="2">  1        2 0.21499115E+00 0.21273879E+04</pdfrwt>
<pdfrwt beam="1">  1       -2 0.12456215E+00 0.21273879E+04</pdfrwt>
<totfact> 0.64591960E+00</totfact>
</mgrwt>
</event>
<event>
 4    1  0.1323225E-008  0.2578257E+04  0.7816531E-02  0.8375624E-01
         -2   -1    0    0    0  501 -0.00000000000E+00  0.00000000000E+00  0.23162936410E+04  0.23162936410E+04  0.00000000000E+00 0. -1.
          2   -1    0    0  501    0  0.00000000000E+00 -0.00000000000E+00 -0.71746207264E+03  0.71746207264E+03  0.00000000000E+00 0.  1.
    2000013    1    1    2    0    0  0.28143218527E+03  0.78299921995E+03  0.49470397313E+03  0.13562904830E+04  0.95000000000E+03 0.  0.
   -2000013    1    1    2    0    0 -0.28143218527E+03 -0.78299921995E+03  0.11041275953E+04  0.16774652306E+04  0.95000000000E+03 0.  0.
<mgrwt>
<rscale>  0 0.25782574E+04</rscale>
<asrwt>0</asrwt>
<pdfrwt beam="2">  1        2 0.11037878E+00 0.25782574E+04</pdfrwt>
<pdfrwt beam="1">  1       -2 0.35635287E+00 0.25782574E+04</pdfrwt>
<totfact> 0.49923960E-01</totfact>
</mgrwt>
</event>
<event>
 4    1  0.1323225E-008  0.2439017E+04  0.7816531E-02  0.8425039E-01
          1   -1    0    0  501    0  0.00000000000E+00  0.00000000000E+00  0.28506699087E+04  0.28506699087E+04  0.00000000000E+00 0.  1.
         -1   -1    0    0    0  501 -0.00000000000E+00 -0.00000000000E+00 -0.52170233573E+03  0.52170233573E+03  0.00000000000E+00 0. -1.
    2000013    1    1    2    0    0  0.63596719337E+03 -0.23359444768E+03  0.67430487142E+03  0.13476675023E+04  0.95000000000E+03 0.  0.
   -2000013    1    1    2    0    0 -0.63596719337E+03  0.23359444768E+03  0.16546627015E+04  0.20247047421E+04  0.95000000000E+03 0.  0.
<mgrwt>
<rscale>  0 0.24390171E+04</rscale>
<asrwt>0</asrwt>
<pdfrwt beam="1">  1        1 0.43856459E+00 0.24390171E+04</pdfrwt>
<pdfrwt beam="2">  1       -1 0.80261899E-01 0.24390171E+04</pdfrwt>
<totfact> 0.10605852E+00</totfact>
</mgrwt>
</event>
<event>
 4    1  0.1323225E-008  0.3415929E+04  0.7816531E-02  0.8134008E-01
         -2   -1    0    0    0  501 -0.00000000000E+00  0.00000000000E+00  0.16288748784E+04  0.16288748784E+04  0.00000000000E+00 0. -1.
          2   -1    0    0  501    0  0.00000000000E+00 -0.00000000000E+00 -0.17908945070E+04  0.17908945070E+04  0.00000000000E+00 0.  1.
    2000013    1    1    2    0    0  0.92100429091E+03  0.10109774618E+04  0.29931032566E+03  0.16918661304E+04  0.95000000000E+03 0.  0.
   -2000013    1    1    2    0    0 -0.92100429091E+03 -0.10109774618E+04 -0.46132995426E+03  0.17279032550E+04  0.95000000000E+03 0.  0.
<mgrwt>
<rscale>  0 0.34159292E+04</rscale>
<asrwt>0</asrwt>
<pdfrwt beam="2">  1        2 0.27552223E+00 0.34159292E+04</pdfrwt>
<pdfrwt beam="1">  1       -2 0.25059614E+00 0.34159292E+04</pdfrwt>
<totfact> 0.46026373E-01</totfact>
</mgrwt>
</event>
<event>
 4    1  0.1323225E-008  0.2129101E+04  0.7816531E-02  0.8548531E-01
         -2   -1    0    0    0  501 -0.00000000000E+00  0.00000000000E+00  0.32002710087E+03  0.32002710087E+03  0.00000000000E+00 0. -1.
          2   -1    0    0  501    0  0.00000000000E+00 -0.00000000000E+00 -0.35411629328E+04  0.35411629328E+04  0.00000000000E+00 0.  1.
    2000013    1    1    2    0    0 -0.23828385546E+03  0.33200354027E+03 -0.20685070114E+04  0.23126233595E+04  0.95000000000E+03 0.  0.
   -2000013    1    1    2    0    0  0.23828385546E+03 -0.33200354027E+03 -0.11526288205E+04  0.15485666742E+04  0.95000000000E+03 0.  0.
<mgrwt>
<rscale>  0 0.21291013E+04</rscale>
<asrwt>0</asrwt>
<pdfrwt beam="2">  1        2 0.54479430E+00 0.21291013E+04</pdfrwt>
<pdfrwt beam="1">  1       -2 0.49234939E-01 0.21291013E+04</pdfrwt>
<totfact> 0.27426702E+00</totfact>
</mgrwt>
</event>
<event>
 4    1  0.1323225E-008  0.2780295E+04  0.7816531E-02  0.8309412E-01
         -2   -1    0    0    0  501 -0.00000000000E+00  0.00000000000E+00  0.14780981469E+04  0.14780981469E+04  0.00000000000E+00 0. -1.
          2   -1    0    0  501    0  0.00000000000E+00 -0.00000000000E+00 -0.13074301680E+04  0.13074301680E+04  0.00000000000E+00 0.  1.
    2000013    1    1    2    0    0  0.95364452860E+03 -0.34722463744E+03  0.82632111832E+02  0.13925986147E+04  0.95000000000E+03 0.  0.
   -2000013    1    1    2    0    0 -0.95364452860E+03  0.34722463744E+03  0.88035867056E+02  0.13929297002E+04  0.95000000000E+03 0.  0.
<mgrwt>
<rscale>  0 0.27802950E+04</rscale>
<asrwt>0</asrwt>
<pdfrwt beam="2">  1        2 0.20114310E+00 0.27802950E+04</pdfrwt>
<pdfrwt beam="1">  1       -2 0.22739972E+00 0.27802950E+04</pdfrwt>
<totfact> 0.12663093E+00</totfact>
</mgrwt>
</event>
<event>
 4    1  0.1323225E-008  0.2724604E+04  0.7816531E-02  0.8327066E-01
          2   -1    0    0  501    0  0.00000000000E+00  0.00000000000E+00  0.98706810142E+03  0.98706810142E+03  0.00000000000E+00 0.  1.
         -2   -1    0    0    0  501 -0.00000000000E+00 -0.00000000000E+00 -0.18801806432E+04  0.18801806432E+04  0.00000000000E+00 0. -1.
    2000013    1    1    2    0    0 -0.42747964487E+02  0.87260469961E+03  0.12275067335E+02  0.12907040821E+04  0.95000000000E+03 0.  0.
   -2000013    1    1    2    0    0  0.42747964487E+02 -0.87260469961E+03 -0.90538760915E+03  0.15765446626E+04  0.95000000000E+03 0.  0.
<mgrwt>
<rscale>  0 0.27246037E+04</rscale>
<asrwt>0</asrwt>
<pdfrwt beam="1">  1        2 0.15185663E+00 0.27246037E+04</pdfrwt>
<pdfrwt beam="2">  1       -2 0.28925856E+00 0.27246037E+04</pdfrwt>
<totfact> 0.83120994E-01</totfact>
</mgrwt>
</event>
<event>
 4    1  0.1323225E-008  0.2725794E+04  0.7816531E-02  0.8326684E-01
          2   -1    0    0  501    0  0.00000000000E+00  0.00000000000E+00  0.24285897995E+04  0.24285897995E+04  0.00000000000E+00 0.  1.
         -2   -1    0    0    0  501 -0.00000000000E+00 -0.00000000000E+00 -0.76484256242E+03  0.76484256242E+03  0.00000000000E+00 0. -1.
    2000013    1    1    2    0    0  0.26250964510E+03  0.83115671117E+03  0.13495601572E+04  0.18664258384E+04  0.95000000000E+03 0.  0.
   -2000013    1    1    2    0    0 -0.26250964510E+03 -0.83115671117E+03  0.31418707985E+03  0.13270065235E+04  0.95000000000E+03 0.  0.
<mgrwt>
<rscale>  0 0.27257944E+04</rscale>
<asrwt>0</asrwt>
<pdfrwt beam="1">  1        2 0.37362920E+00 0.27257944E+04</pdfrwt>
<pdfrwt beam="2">  1       -2 0.11766809E+00 0.27257944E+04</pdfrwt>
<totfact> 0.18677155E+00</totfact>
</mgrwt>
</event>
<event>
 4    1  0.1323225E-008  0.3303350E+04  0.7816531E-02  0.8162044E-01
          2   -1    0    0  501    0  0.00000000000E+00  0.00000000000E+00  0.19473495210E+04  0.19473495210E+04  0.00000000000E+00 0.  1.
         -2   -1    0    0    0  501 -0.00000000000E+00 -0.00000000000E+00 -0.14008938821E+04  0.14008938821E+04  0.00000000000E+00 0. -1.
    2000013    1    1    2    0    0  0.36003959807E+03  0.49131286687E+03 -0.94919453717E+03  0.14746142257E+04  0.95000000000E+03 0.  0.
   -2000013    1    1    2    0    0 -0.36003959807E+03 -0.49131286687E+03  0.14956501760E+04  0.18736291774E+04  0.95000000000E+03 0.  0.
<mgrwt>
<rscale>  0 0.33033498E+04</rscale>
<asrwt>0</asrwt>
<pdfrwt beam="1">  1        2 0.29959223E+00 0.33033498E+04</pdfrwt>
<pdfrwt beam="2">  1       -2 0.21552214E+00 0.33033498E+04</pdfrwt>
<totfact> 0.62987170E-01</totfact>
</mgrwt>
</event>
<event>
 4    1  0.1323225E-008  0.2561479E+04  0.7816531E-02  0.8381405E-01
          2   -1    0    0  501    0  0.00000000000E+00  0.00000000000E+00  0.17543078372E+04  0.17543078372E+04  0.00000000000E+00 0.  1.
         -2   -1    0    0    0  501 -0.00000000000E+00 -0.00000000000E+00 -0.93500872745E+03  0.93500872745E+03  0.00000000000E+00 0. -1.
    2000013    1    1    2    0    0 -0.79618791198E+03  0.15157257971E+03  0.11101821015E+03  0.12536803744E+04  0.95000000000E+03 0.  0.
   -2000013    1    1    2    0    0  0.79618791198E+03 -0.15157257971E+03  0.70828089959E+03  0.14356361903E+04  0.95000000000E+03 0.  0.
<mgrwt>
<rscale>  0 0.25614786E+04</rscale>
<asrwt>0</asrwt>
<pdfrwt beam="1">  1        2 0.26989351E+00 0.25614786E+04</pdfrwt>
<pdfrwt beam="2">  1       -2 0.14384750E+00 0.25614786E+04</pdfrwt>
<totfact> 0.27166919E+00</totfact>
</mgrwt>
</event>
<event>
 4    1  0.1323225E-008  0.2168858E+04  0.7816531E-02  0.8531503E-01
          2   -1    0    0  501    0  0.00000000000E+00  0.00000000000E+00  0.11865664257E+04  0.11865664257E+04  0.00000000000E+00 0. -1.
         -2   -1    0    0    0  501 -0.00000000000E+00 -0.00000000000E+00 -0.99108313690E+03  0.99108313690E+03  0.00000000000E+00 0.  1.
    2000013    1    1    2    0    0 -0.42162051958E+03  0.11394661407E+03  0.38655027987E+03  0.11147505606E+04  0.95000000000E+03 0.  0.
   -2000013    1    1    2    0    0  0.42162051958E+03 -0.11394661407E+03 -0.19106699110E+03  0.10628990020E+04  0.95000000000E+03 0.  0.
<mgrwt>
<rscale>  0 0.21688577E+04</rscale>
<asrwt>0</asrwt>
<pdfrwt beam="1">  1        2 0.18254868E+00 0.21688577E+04</pdfrwt>
<pdfrwt beam="2">  1       -2 0.15247433E+00 0.21688577E+04</pdfrwt>
<totfact> 0.50725017E+00</totfact>
</mgrwt>
</event>
<event>
 4    1  0.1323225E-008  0.2367317E+04  0.7816531E-02  0.8451842E-01
         -2   -1    0    0    0  501 -0.00000000000E+00  0.00000000000E+00  0.63626979622E+03  0.63626979622E+03  0.00000000000E+00 0. -1.
          2   -1    0    0  501    0  0.00000000000E+00 -0.00000000000E+00 -0.22019699389E+04  0.22019699389E+04  0.00000000000E+00 0.  1.
    2000013    1    1    2    0    0 -0.69351963936E+03 -0.36450648399E+02 -0.63002179838E+03  0.13348129481E+04  0.95000000000E+03 0.  0.
   -2000013    1    1    2    0    0  0.69351963936E+03  0.36450648399E+02 -0.93567834430E+03  0.15034267870E+04  0.95000000000E+03 0.  0.
<mgrwt>
<rscale>  0 0.23673166E+04</rscale>
<asrwt>0</asrwt>
<pdfrwt beam="2">  1        2 0.33876461E+00 0.23673166E+04</pdfrwt>
<pdfrwt beam="1">  1       -2 0.97887660E-01 0.23673166E+04</pdfrwt>
<totfact> 0.40339492E+00</totfact>
</mgrwt>
</event>
<event>
 4    1  0.1323225E-008  0.2097598E+04  0.7816531E-02  0.8562302E-01
         -2   -1    0    0    0  501 -0.00000000000E+00  0.00000000000E+00  0.54220957278E+03  0.54220957278E+03  0.00000000000E+00 0. -1.
          2   -1    0    0  501    0  0.00000000000E+00 -0.00000000000E+00 -0.20286975150E+04  0.20286975150E+04  0.00000000000E+00 0.  1.
    2000013    1    1    2    0    0  0.17256902428E+03 -0.23605574643E+03 -0.11533802907E+04  0.15225926831E+04  0.95000000000E+03 0.  0.
   -2000013    1    1    2    0    0 -0.17256902428E+03  0.23605574643E+03 -0.33310765147E+03  0.10483144047E+04  0.95000000000E+03 0.  0.
<mgrwt>
<rscale>  0 0.20975979E+04</rscale>
<asrwt>0</asrwt>
<pdfrwt beam="2">  1        2 0.31210731E+00 0.20975979E+04</pdfrwt>
<pdfrwt beam="1">  1       -2 0.83416857E-01 0.20975979E+04</pdfrwt>
<totfact> 0.74638638E+00</totfact>
</mgrwt>
</event>
<event>
 4    1  0.1323225E-008  0.2588451E+04  0.7816531E-02  0.8372135E-01
          2   -1    0    0  501    0  0.00000000000E+00  0.00000000000E+00  0.80176521900E+03  0.80176521900E+03  0.00000000000E+00 0.  1.
         -2   -1    0    0    0  501 -0.00000000000E+00 -0.00000000000E+00 -0.20891652611E+04  0.20891652611E+04  0.00000000000E+00 0. -1.
    2000013    1    1    2    0    0 -0.70040068457E+03 -0.52910532005E+03 -0.69372829765E+03  0.14677440205E+04  0.95000000000E+03 0.  0.
   -2000013    1    1    2    0    0  0.70040068457E+03  0.52910532005E+03 -0.59367174442E+03  0.14231864596E+04  0.95000000000E+03 0.  0.
<mgrwt>
<rscale>  0 0.25884513E+04</rscale>
<asrwt>0</asrwt>
<pdfrwt beam="1">  1        2 0.12334850E+00 0.25884513E+04</pdfrwt>
<pdfrwt beam="2">  1       -2 0.32141003E+00 0.25884513E+04</pdfrwt>
<totfact> 0.71380406E-01</totfact>
</mgrwt>
</event>
<event>
 4    1  0.1323225E-008  0.2690590E+04  0.7816531E-02  0.8338065E-01
         -2   -1    0    0    0  501 -0.00000000000E+00  0.00000000000E+00  0.13050342633E+04  0.13050342633E+04  0.00000000000E+00 0. -1.
          2   -1    0    0  501    0  0.00000000000E+00 -0.00000000000E+00 -0.13867980365E+04  0.13867980365E+04  0.00000000000E+00 0.  1.
    2000013    1    1    2    0    0 -0.43467958046E+03  0.58926074583E+03 -0.65037932995E+03  0.13644294914E+04  0.95000000000E+03 0.  0.
   -2000013    1    1    2    0    0  0.43467958046E+03 -0.58926074583E+03  0.56861555683E+03  0.13274028084E+04  0.95000000000E+03 0.  0.
<mgrwt>
<rscale>  0 0.26905902E+04</rscale>
<asrwt>0</asrwt>
<pdfrwt beam="2">  1        2 0.21335355E+00 0.26905902E+04</pdfrwt>
<pdfrwt beam="1">  1       -2 0.20077450E+00 0.26905902E+04</pdfrwt>
<totfact> 0.16995813E+00</totfact>
</mgrwt>
</event>
<event>
 4    1  0.1323225E-008  0.3181744E+04  0.7816531E-02  0.8193655E-01
         -2   -1    0    0    0  501 -0.00000000000E+00  0.00000000000E+00  0.20665023568E+04  0.20665023568E+04  0.00000000000E+00 0. -1.
          2   -1    0    0  501    0  0.00000000000E+00 -0.00000000000E+00 -0.12247137541E+04  0.12247137541E+04  0.00000000000E+00 0.  1.
    2000013    1    1    2    0    0 -0.79905617398E+03 -0.57017049753E+03  0.12642930783E+04  0.18613226892E+04  0.95000000000E+03 0.  0.
   -2000013    1    1    2    0    0  0.79905617398E+03  0.57017049753E+03 -0.42250447564E+03  0.14298934217E+04  0.95000000000E+03 0.  0.
<mgrwt>
<rscale>  0 0.31817441E+04</rscale>
<asrwt>0</asrwt>
<pdfrwt beam="2">  1        2 0.18841750E+00 0.31817441E+04</pdfrwt>
<pdfrwt beam="1">  1       -2 0.31792344E+00 0.31817441E+04</pdfrwt>
<totfact> 0.38071109E-01</totfact>
</mgrwt>
</event>
<event>
 4    1  0.1323225E-008  0.2624561E+04  0.7816531E-02  0.8359906E-01
         -2   -1    0    0    0  501 -0.00000000000E+00  0.00000000000E+00  0.97137400447E+03  0.97137400447E+03  0.00000000000E+00 0. -1.
          2   -1    0    0  501    0  0.00000000000E+00 -0.00000000000E+00 -0.17728289789E+04  0.17728289789E+04  0.00000000000E+00 0.  1.
    2000013    1    1    2    0    0 -0.26177366669E+03  0.86647906080E+03 -0.41786262530E+03  0.13771058743E+04  0.95000000000E+03 0.  0.
   -2000013    1    1    2    0    0  0.26177366669E+03 -0.86647906080E+03 -0.38359234915E+03  0.13670971091E+04  0.95000000000E+03 0.  0.
<mgrwt>
<rscale>  0 0.26245609E+04</rscale>
<asrwt>0</asrwt>
<pdfrwt beam="2">  1        2 0.27274292E+00 0.26245609E+04</pdfrwt>
<pdfrwt beam="1">  1       -2 0.14944216E+00 0.26245609E+04</pdfrwt>
<totfact> 0.23867621E+00</totfact>
</mgrwt>
</event>
<event>
 4    1  0.1323225E-008  0.2987813E+04  0.7816531E-02  0.8247220E-01
          1   -1    0    0  501    0  0.00000000000E+00  0.00000000000E+00  0.13770861231E+04  0.13770861231E+04  0.00000000000E+00 0.  1.
         -1   -1    0    0    0  501 -0.00000000000E+00 -0.00000000000E+00 -0.16206368759E+04  0.16206368759E+04  0.00000000000E+00 0. -1.
    2000013    1    1    2    0    0 -0.95670295071E+03  0.55011302339E+03 -0.45657616929E+03  0.15260624734E+04  0.95000000000E+03 0.  0.
   -2000013    1    1    2    0    0  0.95670295071E+03 -0.55011302339E+03  0.21302541646E+03  0.14716605255E+04  0.95000000000E+03 0.  0.
<mgrwt>
<rscale>  0 0.29878129E+04</rscale>
<asrwt>0</asrwt>
<pdfrwt beam="1">  1        1 0.21185941E+00 0.29878129E+04</pdfrwt>
<pdfrwt beam="2">  1       -1 0.24932875E+00 0.29878129E+04</pdfrwt>
<totfact> 0.47842077E-01</totfact>
</mgrwt>
</event>
<event>
 4    1  0.1323225E-008  0.2208826E+04  0.7816531E-02  0.8514763E-01
         -2   -1    0    0    0  501 -0.00000000000E+00  0.00000000000E+00  0.11824988011E+04  0.11824988011E+04  0.00000000000E+00 0. -1.
          2   -1    0    0  501    0  0.00000000000E+00 -0.00000000000E+00 -0.10314838286E+04  0.10314838286E+04  0.00000000000E+00 0.  1.
    2000013    1    1    2    0    0  0.30703592379E+03  0.28858439236E+03  0.45011297269E+03  0.11325430227E+04  0.95000000000E+03 0.  0.
   -2000013    1    1    2    0    0 -0.30703592379E+03 -0.28858439236E+03 -0.29909800024E+03  0.10814396071E+04  0.95000000000E+03 0.  0.
<mgrwt>
<rscale>  0 0.22088263E+04</rscale>
<asrwt>0</asrwt>
<pdfrwt beam="2">  1        2 0.15868982E+00 0.22088263E+04</pdfrwt>
<pdfrwt beam="1">  1       -2 0.18192289E+00 0.22088263E+04</pdfrwt>
<totfact> 0.38624453E+00</totfact>
</mgrwt>
</event>
<event>
 4    1  0.1323225E-008  0.2325529E+04  0.7816531E-02  0.8467923E-01
          2   -1    0    0  501    0  0.00000000000E+00  0.00000000000E+00  0.19338048018E+04  0.19338048018E+04  0.00000000000E+00 0.  1.
         -2   -1    0    0    0  501 -0.00000000000E+00 -0.00000000000E+00 -0.69915098086E+03  0.69915098086E+03  0.00000000000E+00 0. -1.
    2000013    1    1    2    0    0  0.58929354957E+03 -0.31397382795E+03  0.68596333921E+03  0.13486630991E+04  0.95000000000E+03 0.  0.
   -2000013    1    1    2    0    0 -0.58929354957E+03  0.31397382795E+03  0.54869048169E+03  0.12842926835E+04  0.95000000000E+03 0.  0.
<mgrwt>
<rscale>  0 0.23255292E+04</rscale>
<asrwt>0</asrwt>
<pdfrwt beam="1">  1        2 0.29750843E+00 0.23255292E+04</pdfrwt>
<pdfrwt beam="2">  1       -2 0.10756169E+00 0.23255292E+04</pdfrwt>
<totfact> 0.45635077E+00</totfact>
</mgrwt>
</event>
<event>
 4    1  0.1323225E-008  0.2897673E+04  0.7816531E-02  0.8273570E-01
         -2   -1    0    0    0  501 -0.00000000000E+00  0.00000000000E+00  0.10435590087E+04  0.10435590087E+04  0.00000000000E+00 0. -1.
          2   -1    0    0  501    0  0.00000000000E+00 -0.00000000000E+00 -0.20115085494E+04  0.20115085494E+04  0.00000000000E+00 0.  1.
    2000013    1    1    2    0    0  0.10749707552E+04  0.58495926992E+02 -0.68853400197E+03  0.15923451165E+04  0.95000000000E+03 0.  0.
   -2000013    1    1    2    0    0 -0.10749707552E+04 -0.58495926992E+02 -0.27941553872E+03  0.14627224417E+04  0.95000000000E+03 0.  0.
<mgrwt>
<rscale>  0 0.28976735E+04</rscale>
<asrwt>0</asrwt>
<pdfrwt beam="2">  1        2 0.30946285E+00 0.28976735E+04</pdfrwt>
<pdfrwt beam="1">  1       -2 0.16054754E+00 0.28976735E+04</pdfrwt>
<totfact> 0.14183183E+00</totfact>
</mgrwt>
</event>
<event>
 4    1  0.1323225E-008  0.1951462E+04  0.7816531E-02  0.8629656E-01
          2   -1    0    0  501    0  0.00000000000E+00  0.00000000000E+00  0.58820216696E+03  0.58820216696E+03  0.00000000000E+00 0.  1.
         -2   -1    0    0    0  501 -0.00000000000E+00 -0.00000000000E+00 -0.16185776864E+04  0.16185776864E+04  0.00000000000E+00 0. -1.
    2000013    1    1    2    0    0  0.14511640434E+03  0.15431221928E+03 -0.59254765229E+03  0.11395103124E+04  0.95000000000E+03 0.  0.
   -2000013    1    1    2    0    0 -0.14511640434E+03 -0.15431221928E+03 -0.43782786716E+03  0.10672695410E+04  0.95000000000E+03 0.  0.
<mgrwt>
<rscale>  0 0.19514619E+04</rscale>
<asrwt>0</asrwt>
<pdfrwt beam="1">  1        2 0.90492641E-01 0.19514619E+04</pdfrwt>
<pdfrwt beam="2">  1       -2 0.24901195E+00 0.19514619E+04</pdfrwt>
<totfact> 0.30872758E+00</totfact>
</mgrwt>
</event>
<event>
 4    1  0.1323225E-008  0.3618069E+04  0.7816531E-02  0.8086365E-01
         -2   -1    0    0    0  501 -0.00000000000E+00  0.00000000000E+00  0.11979824876E+04  0.11979824876E+04  0.00000000000E+00 0. -1.
          2   -1    0    0  501    0  0.00000000000E+00 -0.00000000000E+00 -0.27317642259E+04  0.27317642259E+04  0.00000000000E+00 0.  1.
    2000013    1    1    2    0    0  0.13372391932E+04  0.59707732964E+03 -0.25123431681E+03  0.17636123949E+04  0.95000000000E+03 0.  0.
   -2000013    1    1    2    0    0 -0.13372391932E+04 -0.59707732964E+03 -0.12825474215E+04  0.21661343185E+04  0.95000000000E+03 0.  0.
<mgrwt>
<rscale>  0 0.36180689E+04</rscale>
<asrwt>0</asrwt>
<pdfrwt beam="2">  1        2 0.42027141E+00 0.36180689E+04</pdfrwt>
<pdfrwt beam="1">  1       -2 0.18430500E+00 0.36180689E+04</pdfrwt>
<totfact> 0.35031194E-01</totfact>
</mgrwt>
</event>
<event>
 4    1  0.1323225E-008  0.2125176E+04  0.7816531E-02  0.8550233E-01
          2   -1    0    0  501    0  0.00000000000E+00  0.00000000000E+00  0.15830050681E+04  0.15830050681E+04  0.00000000000E+00 0.  1.
         -2   -1    0    0    0  501 -0.00000000000E+00 -0.00000000000E+00 -0.71325969657E+03  0.71325969657E+03  0.00000000000E+00 0. -1.
    2000013    1    1    2    0    0  0.62583187188E+01 -0.46909144677E+03  0.34770754798E+03  0.11151172543E+04  0.95000000000E+03 0.  0.
   -2000013    1    1    2    0    0 -0.62583187188E+01  0.46909144677E+03  0.52203782359E+03  0.11811475104E+04  0.95000000000E+03 0.  0.
<mgrwt>
<rscale>  0 0.21251764E+04</rscale>
<asrwt>0</asrwt>
<pdfrwt beam="1">  1        2 0.24353924E+00 0.21251764E+04</pdfrwt>
<pdfrwt beam="2">  1       -2 0.10973226E+00 0.21251764E+04</pdfrwt>
<totfact> 0.69293512E+00</totfact>
</mgrwt>
</event>
<event>
 4    1  0.1323225E-008  0.3488675E+04  0.7816531E-02  0.8116479E-01
         -2   -1    0    0    0  501 -0.00000000000E+00  0.00000000000E+00  0.24397338924E+04  0.24397338924E+04  0.00000000000E+00 0. -1.
          2   -1    0    0  501    0  0.00000000000E+00 -0.00000000000E+00 -0.12471499689E+04  0.12471499689E+04  0.00000000000E+00 0.  1.
    2000013    1    1    2    0    0 -0.86067231451E+03  0.11175680462E+04  0.18630927056E+03  0.17108262083E+04  0.95000000000E+03 0.  0.
   -2000013    1    1    2    0    0  0.86067231451E+03 -0.11175680462E+04  0.10062746529E+04  0.19760576530E+04  0.95000000000E+03 0.  0.
<mgrwt>
<rscale>  0 0.34886754E+04</rscale>
<asrwt>0</asrwt>
<pdfrwt beam="2">  1        2 0.19186923E+00 0.34886754E+04</pdfrwt>
<pdfrwt beam="1">  1       -2 0.37534367E+00 0.34886754E+04</pdfrwt>
<totfact> 0.15657768E-01</totfact>
</mgrwt>
</event>
<event>
 4    1  0.1323225E-008  0.2335549E+04  0.7816531E-02  0.8464035E-01
          2   -1    0    0  501    0  0.00000000000E+00  0.00000000000E+00  0.13532706797E+04  0.13532706797E+04  0.00000000000E+00 0.  1.
         -2   -1    0    0    0  501 -0.00000000000E+00 -0.00000000000E+00 -0.10077050427E+04  0.10077050427E+04  0.00000000000E+00 0. -1.
    2000013    1    1    2    0    0 -0.10866877781E+03  0.66285284198E+03  0.71618894027E+02  0.11656809424E+04  0.95000000000E+03 0.  0.
   -2000013    1    1    2    0    0  0.10866877781E+03 -0.66285284198E+03  0.27394674297E+03  0.11952947801E+04  0.95000000000E+03 0.  0.
<mgrwt>
<rscale>  0 0.23355493E+04</rscale>
<asrwt>0</asrwt>
<pdfrwt beam="1">  1        2 0.20819549E+00 0.23355493E+04</pdfrwt>
<pdfrwt beam="2">  1       -2 0.15503155E+00 0.23355493E+04</pdfrwt>
<totfact> 0.38189028E+00</totfact>
</mgrwt>
</event>
<event>
 4    1  0.1323225E-008  0.2228513E+04  0.7816531E-02  0.8506653E-01
         -1   -1    0    0    0  501 -0.00000000000E+00  0.00000000000E+00  0.85900110016E+03  0.85900110016E+03  0.00000000000E+00 0. -1.
          1   -1    0    0  501    0  0.00000000000E+00 -0.00000000000E+00 -0.14453617215E+04  0.14453617215E+04  0.00000000000E+00 0.  1.
    2000013    1    1    2    0    0 -0.68767642952E+01  0.51655362773E+03 -0.15348879932E+02  0.10814853343E+04  0.95000000000E+03 0.  0.
   -2000013    1    1    2    0    0  0.68767642952E+01 -0.51655362773E+03 -0.57101174138E+03  0.12228774873E+04  0.95000000000E+03 0.  0.
<mgrwt>
<rscale>  0 0.22285128E+04</rscale>
<asrwt>0</asrwt>
<pdfrwt beam="2">  1        1 0.22236334E+00 0.22285128E+04</pdfrwt>
<pdfrwt beam="1">  1       -1 0.13215402E+00 0.22285128E+04</pdfrwt>
<totfact> 0.31589970E+00</totfact>
</mgrwt>
</event>
<event>
 4    1  0.1323225E-008  0.2495941E+04  0.7816531E-02  0.8404433E-01
          2   -1    0    0  501    0  0.00000000000E+00  0.00000000000E+00  0.13374955195E+04  0.13374955195E+04  0.00000000000E+00 0. -1.
         -2   -1    0    0    0  501 -0.00000000000E+00 -0.00000000000E+00 -0.11644381412E+04  0.11644381412E+04  0.00000000000E+00 0.  1.
    2000013    1    1    2    0    0  0.57637768085E+03 -0.32192689070E+03 -0.38265769546E+03  0.12185134656E+04  0.95000000000E+03 0.  0.
   -2000013    1    1    2    0    0 -0.57637768085E+03  0.32192689070E+03  0.55571507376E+03  0.12834201951E+04  0.95000000000E+03 0.  0.
<mgrwt>
<rscale>  0 0.24959413E+04</rscale>
<asrwt>0</asrwt>
<pdfrwt beam="1">  1        2 0.20576854E+00 0.24959413E+04</pdfrwt>
<pdfrwt beam="2">  1       -2 0.17914433E+00 0.24959413E+04</pdfrwt>
<totfact> 0.25785678E+00</totfact>
</mgrwt>
</event>
<event>
 4    1  0.1323225E-008  0.2095847E+04  0.7816531E-02  0.8563075E-01
         -2   -1    0    0    0  501 -0.00000000000E+00  0.00000000000E+00  0.12635253408E+04  0.12635253408E+04  0.00000000000E+00 0. -1.
          2   -1    0    0  501    0  0.00000000000E+00 -0.00000000000E+00 -0.86911101037E+03  0.86911101037E+03  0.00000000000E+00 0.  1.
    2000013    1    1    2    0    0  0.38231459852E+03  0.14667070268E+03  0.36737616507E+03  0.10977895946E+04  0.95000000000E+03 0.  0.
   -2000013    1    1    2    0    0 -0.38231459852E+03 -0.14667070268E+03  0.27038165351E+02  0.10348467566E+04  0.95000000000E+03 0.  0.
<mgrwt>
<rscale>  0 0.20958471E+04</rscale>
<asrwt>0</asrwt>
<pdfrwt beam="2">  1        2 0.13370939E+00 0.20958471E+04</pdfrwt>
<pdfrwt beam="1">  1       -2 0.19438851E+00 0.20958471E+04</pdfrwt>
<totfact> 0.41094092E+00</totfact>
</mgrwt>
</event>
<event>
 4    1  0.1323225E-008  0.3027427E+04  0.7816531E-02  0.8235942E-01
         -2   -1    0    0    0  501 -0.00000000000E+00  0.00000000000E+00  0.13309963250E+04  0.13309963250E+04  0.00000000000E+00 0.  1.
          2   -1    0    0  501    0  0.00000000000E+00 -0.00000000000E+00 -0.17215143529E+04  0.17215143529E+04  0.00000000000E+00 0. -1.
    2000013    1    1    2    0    0  0.10252912575E+04 -0.39216248223E+03  0.23703054635E+03  0.14709510716E+04  0.95000000000E+03 0.  0.
   -2000013    1    1    2    0    0 -0.10252912575E+04  0.39216248223E+03 -0.62754857430E+03  0.15815596063E+04  0.95000000000E+03 0.  0.
<mgrwt>
<rscale>  0 0.30274275E+04</rscale>
<asrwt>0</asrwt>
<pdfrwt beam="2">  1        2 0.26484836E+00 0.30274275E+04</pdfrwt>
<pdfrwt beam="1">  1       -2 0.20476867E+00 0.30274275E+04</pdfrwt>
<totfact> 0.10087635E+00</totfact>
</mgrwt>
</event>
<event>
 4    1  0.1323225E-008  0.2260744E+04  0.7816531E-02  0.8493562E-01
          2   -1    0    0  501    0  0.00000000000E+00  0.00000000000E+00  0.22850282788E+04  0.22850282788E+04  0.00000000000E+00 0.  1.
         -2   -1    0    0    0  501 -0.00000000000E+00 -0.00000000000E+00 -0.55917924793E+03  0.55917924793E+03  0.00000000000E+00 0. -1.
    2000013    1    1    2    0    0 -0.70580035521E+02 -0.30971937343E+03  0.20398005412E+03  0.10222599934E+04  0.95000000000E+03 0.  0.
   -2000013    1    1    2    0    0  0.70580035521E+02  0.30971937343E+03  0.15218689767E+04  0.18219475333E+04  0.95000000000E+03 0.  0.
<mgrwt>
<rscale>  0 0.22607436E+04</rscale>
<asrwt>0</asrwt>
<pdfrwt beam="1">  1        2 0.35154281E+00 0.22607436E+04</pdfrwt>
<pdfrwt beam="2">  1       -2 0.86027578E-01 0.22607436E+04</pdfrwt>
<totfact> 0.49287850E+00</totfact>
</mgrwt>
</event>
<event>
 4    1  0.1323225E-008  0.2723344E+04  0.7816531E-02  0.8327470E-01
         -2   -1    0    0    0  501 -0.00000000000E+00  0.00000000000E+00  0.67998265189E+03  0.67998265189E+03  0.00000000000E+00 0. -1.
          2   -1    0    0  501    0  0.00000000000E+00 -0.00000000000E+00 -0.27267619450E+04  0.27267619450E+04  0.00000000000E+00 0.  1.
    2000013    1    1    2    0    0 -0.93436219840E+03 -0.23233674728E+03 -0.12197426076E+04  0.18213415689E+04  0.95000000000E+03 0.  0.
   -2000013    1    1    2    0    0  0.93436219840E+03  0.23233674728E+03 -0.82703668557E+03  0.15854030280E+04  0.95000000000E+03 0.  0.
<mgrwt>
<rscale>  0 0.27233441E+04</rscale>
<asrwt>0</asrwt>
<pdfrwt beam="2">  1        2 0.41950183E+00 0.27233441E+04</pdfrwt>
<pdfrwt beam="1">  1       -2 0.10461272E+00 0.27233441E+04</pdfrwt>
<totfact> 0.16616161E+00</totfact>
</mgrwt>
</event>
<event>
 4    1  0.1323225E-008  0.3189134E+04  0.7816531E-02  0.8191693E-01
          2   -1    0    0  501    0  0.00000000000E+00  0.00000000000E+00  0.29944729865E+04  0.29944729865E+04  0.00000000000E+00 0.  1.
         -2   -1    0    0    0  501 -0.00000000000E+00 -0.00000000000E+00 -0.84911246366E+03  0.84911246366E+03  0.00000000000E+00 0. -1.
    2000013    1    1    2    0    0  0.15659825510E+03 -0.12599411954E+04  0.87040007300E+03  0.18088867064E+04  0.95000000000E+03 0.  0.
   -2000013    1    1    2    0    0 -0.15659825510E+03  0.12599411954E+04  0.12749604499E+04  0.20346987438E+04  0.95000000000E+03 0.  0.
<mgrwt>
<rscale>  0 0.31891343E+04</rscale>
<asrwt>0</asrwt>
<pdfrwt beam="1">  1        2 0.46068815E+00 0.31891343E+04</pdfrwt>
<pdfrwt beam="2">  1       -2 0.13063269E+00 0.31891343E+04</pdfrwt>
<totfact> 0.63412200E-01</totfact>
</mgrwt>
</event>
<event>
 4    1  0.1323225E-008  0.2368826E+04  0.7816531E-02  0.8451268E-01
         -2   -1    0    0    0  501 -0.00000000000E+00  0.00000000000E+00  0.76184123354E+03  0.76184123354E+03  0.00000000000E+00 0. -1.
          2   -1    0    0  501    0  0.00000000000E+00 -0.00000000000E+00 -0.18413733269E+04  0.18413733269E+04  0.00000000000E+00 0.  1.
    2000013    1    1    2    0    0  0.12361393890E+03 -0.61451604685E+03 -0.89995215623E+03  0.14509735564E+04  0.95000000000E+03 0.  0.
   -2000013    1    1    2    0    0 -0.12361393890E+03  0.61451604685E+03 -0.17957993715E+03  0.11522410041E+04  0.95000000000E+03 0.  0.
<mgrwt>
<rscale>  0 0.23688260E+04</rscale>
<asrwt>0</asrwt>
<pdfrwt beam="2">  1        2 0.28328820E+00 0.23688260E+04</pdfrwt>
<pdfrwt beam="1">  1       -2 0.11720635E+00 0.23688260E+04</pdfrwt>
<totfact> 0.41531034E+00</totfact>
</mgrwt>
</event>
<event>
 4    1  0.1323225E-008  0.2195589E+04  0.7816531E-02  0.8520266E-01
          2   -1    0    0  501    0  0.00000000000E+00  0.00000000000E+00  0.18534034932E+04  0.18534034932E+04  0.00000000000E+00 0.  1.
         -2   -1    0    0    0  501 -0.00000000000E+00 -0.00000000000E+00 -0.65023745316E+03  0.65023745316E+03  0.00000000000E+00 0. -1.
    2000013    1    1    2    0    0 -0.48949711419E+03  0.19816717458E+03  0.42575879393E+03  0.11673252351E+04  0.95000000000E+03 0.  0.
   -2000013    1    1    2    0    0  0.48949711419E+03 -0.19816717458E+03  0.77740724614E+03  0.13363157113E+04  0.95000000000E+03 0.  0.
<mgrwt>
<rscale>  0 0.21955886E+04</rscale>
<asrwt>0</asrwt>
<pdfrwt beam="1">  1        2 0.28513900E+00 0.21955886E+04</pdfrwt>
<pdfrwt beam="2">  1       -2 0.10003653E+00 0.21955886E+04</pdfrwt>
<totfact> 0.60818427E+00</totfact>
</mgrwt>
</event>
<event>
 4    1  0.1323225E-008  0.2362876E+04  0.7816531E-02  0.8453534E-01
          2   -1    0    0  501    0  0.00000000000E+00  0.00000000000E+00  0.90687908764E+03  0.90687908764E+03  0.00000000000E+00 0.  1.
         -2   -1    0    0    0  501 -0.00000000000E+00 -0.00000000000E+00 -0.15391202330E+04  0.15391202330E+04  0.00000000000E+00 0. -1.
    2000013    1    1    2    0    0  0.21612327228E+03 -0.66166685241E+03 -0.21910239014E+03  0.11979224306E+04  0.95000000000E+03 0.  0.
   -2000013    1    1    2    0    0 -0.21612327228E+03  0.66166685241E+03 -0.41313875523E+03  0.12480768900E+04  0.95000000000E+03 0.  0.
<mgrwt>
<rscale>  0 0.23628762E+04</rscale>
<asrwt>0</asrwt>
<pdfrwt beam="1">  1        2 0.13951986E+00 0.23628762E+04</pdfrwt>
<pdfrwt beam="2">  1       -2 0.23678773E+00 0.23628762E+04</pdfrwt>
<totfact> 0.20288050E+00</totfact>
</mgrwt>
</event>
<event>
 4    1  0.1323225E-008  0.2165808E+04  0.7816531E-02  0.8532796E-01
         -2   -1    0    0    0  501 -0.00000000000E+00  0.00000000000E+00  0.71587386925E+03  0.71587386925E+03  0.00000000000E+00 0. -1.
          2   -1    0    0  501    0  0.00000000000E+00 -0.00000000000E+00 -0.16381116531E+04  0.16381116531E+04  0.00000000000E+00 0.  1.
    2000013    1    1    2    0    0  0.11498866717E+03 -0.28675953473E+03 -0.67956870302E+01  0.99899930215E+03  0.95000000000E+03 0.  0.
   -2000013    1    1    2    0    0 -0.11498866717E+03  0.28675953473E+03 -0.91544209687E+03  0.13549862202E+04  0.95000000000E+03 0.  0.
<mgrwt>
<rscale>  0 0.21658082E+04</rscale>
<asrwt>0</asrwt>
<pdfrwt beam="2">  1        2 0.25201718E+00 0.21658082E+04</pdfrwt>
<pdfrwt beam="1">  1       -2 0.11013444E+00 0.21658082E+04</pdfrwt>
<totfact> 0.63761263E+00</totfact>
</mgrwt>
</event>
<event>
 4    1  0.1323225E-008  0.2180846E+04  0.7816531E-02  0.8526443E-01
         -2   -1    0    0    0  501 -0.00000000000E+00  0.00000000000E+00  0.76524279274E+03  0.76524279274E+03  0.00000000000E+00 0. -1.
          2   -1    0    0  501    0  0.00000000000E+00 -0.00000000000E+00 -0.15537849329E+04  0.15537849329E+04  0.00000000000E+00 0.  1.
    2000013    1    1    2    0    0 -0.29318685770E+03  0.69007633103E+02 -0.86480351965E+03  0.13195096493E+04  0.95000000000E+03 0.  0.
   -2000013    1    1    2    0    0  0.29318685770E+03 -0.69007633103E+02  0.76261379500E+02  0.99951807635E+03  0.95000000000E+03 0.  0.
<mgrwt>
<rscale>  0 0.21808464E+04</rscale>
<asrwt>0</asrwt>
<pdfrwt beam="2">  1        2 0.23904383E+00 0.21808464E+04</pdfrwt>
<pdfrwt beam="1">  1       -2 0.11772966E+00 0.21808464E+04</pdfrwt>
<totfact> 0.60343057E+00</totfact>
</mgrwt>
</event>
<event>
 4    1  0.1323225E-008  0.2707403E+04  0.7816531E-02  0.8332607E-01
          2   -1    0    0  501    0  0.00000000000E+00  0.00000000000E+00  0.25441063872E+04  0.25441063872E+04  0.00000000000E+00 0.  1.
         -2   -1    0    0    0  501 -0.00000000000E+00 -0.00000000000E+00 -0.72029540637E+03  0.72029540637E+03  0.00000000000E+00 0. -1.
    2000013    1    1    2    0    0 -0.66722225236E+03 -0.57551598759E+03  0.43935103883E+03  0.13681862159E+04  0.95000000000E+03 0.  0.
   -2000013    1    1    2    0    0  0.66722225236E+03  0.57551598759E+03  0.13844599420E+04  0.18962155777E+04  0.95000000000E+03 0.  0.
<mgrwt>
<rscale>  0 0.27074033E+04</rscale>
<asrwt>0</asrwt>
<pdfrwt beam="1">  1        2 0.39140098E+00 0.27074033E+04</pdfrwt>
<pdfrwt beam="2">  1       -2 0.11081468E+00 0.27074033E+04</pdfrwt>
<totfact> 0.18562502E+00</totfact>
</mgrwt>
</event>
<event>
 4    1  0.1323225E-008  0.2049113E+04  0.7816531E-02  0.8583997E-01
         -1   -1    0    0    0  501 -0.00000000000E+00  0.00000000000E+00  0.35522608749E+03  0.35522608749E+03  0.00000000000E+00 0.  1.
          1   -1    0    0  501    0  0.00000000000E+00 -0.00000000000E+00 -0.29550657151E+04  0.29550657151E+04  0.00000000000E+00 0. -1.
    2000013    1    1    2    0    0  0.20712783045E+03 -0.16495500877E+03 -0.17484995950E+04  0.20074518492E+04  0.95000000000E+03 0.  0.
   -2000013    1    1    2    0    0 -0.20712783045E+03  0.16495500877E+03 -0.85134003259E+03  0.13028399534E+04  0.95000000000E+03 0.  0.
<mgrwt>
<rscale>  0 0.20491134E+04</rscale>
<asrwt>0</asrwt>
<pdfrwt beam="2">  1        1 0.45462549E+00 0.20491134E+04</pdfrwt>
<pdfrwt beam="1">  1       -1 0.54650168E-01 0.20491134E+04</pdfrwt>
<totfact> 0.20169831E+00</totfact>
</mgrwt>
</event>
<event>
 4    1  0.1323225E-008  0.2164354E+04  0.7816531E-02  0.8533413E-01
         -2   -1    0    0    0  501 -0.00000000000E+00  0.00000000000E+00  0.47798680968E+03  0.47798680968E+03  0.00000000000E+00 0. -1.
          2   -1    0    0  501    0  0.00000000000E+00 -0.00000000000E+00 -0.24500823327E+04  0.24500823327E+04  0.00000000000E+00 0.  1.
    2000013    1    1    2    0    0 -0.40033676571E+03 -0.29414144024E+03 -0.78621635816E+03  0.13294453260E+04  0.95000000000E+03 0.  0.
   -2000013    1    1    2    0    0  0.40033676571E+03  0.29414144024E+03 -0.11858791649E+04  0.15986238165E+04  0.95000000000E+03 0.  0.
<mgrwt>
<rscale>  0 0.21643540E+04</rscale>
<asrwt>0</asrwt>
<pdfrwt beam="2">  1        2 0.37693575E+00 0.21643540E+04</pdfrwt>
<pdfrwt beam="1">  1       -2 0.73536431E-01 0.21643540E+04</pdfrwt>
<totfact> 0.56895350E+00</totfact>
</mgrwt>
</event>
<event>
 4    1  0.1323225E-008  0.1959053E+04  0.7816531E-02  0.8626008E-01
         -2   -1    0    0    0  501 -0.00000000000E+00  0.00000000000E+00  0.65962288281E+03  0.65962288281E+03  0.00000000000E+00 0. -1.
          2   -1    0    0  501    0  0.00000000000E+00 -0.00000000000E+00 -0.14545770483E+04  0.14545770483E+04  0.00000000000E+00 0.  1.
    2000013    1    1    2    0    0  0.39772008197E+02  0.22295903669E+03 -0.31614444185E+03  0.10265183159E+04  0.95000000000E+03 0.  0.
   -2000013    1    1    2    0    0 -0.39772008197E+02 -0.22295903669E+03 -0.47880972361E+03  0.10876816152E+04  0.95000000000E+03 0.  0.
<mgrwt>
<rscale>  0 0.19590531E+04</rscale>
<asrwt>0</asrwt>
<pdfrwt beam="2">  1        2 0.22378108E+00 0.19590531E+04</pdfrwt>
<pdfrwt beam="1">  1       -2 0.10148044E+00 0.19590531E+04</pdfrwt>
<totfact> 0.10015269E+01</totfact>
</mgrwt>
</event>
<event>
 4    1  0.1323225E-008  0.3148496E+04  0.7816531E-02  0.8202553E-01
         -2   -1    0    0    0  501 -0.00000000000E+00  0.00000000000E+00  0.10036089615E+04  0.10036089615E+04  0.00000000000E+00 0. -1.
          2   -1    0    0  501    0  0.00000000000E+00 -0.00000000000E+00 -0.24693448860E+04  0.24693448860E+04  0.00000000000E+00 0.  1.
    2000013    1    1    2    0    0 -0.98067209123E+03  0.78358492045E+03 -0.73925980820E+03  0.17391745577E+04  0.95000000000E+03 0.  0.
   -2000013    1    1    2    0    0  0.98067209123E+03 -0.78358492045E+03 -0.72647611631E+03  0.17337792898E+04  0.95000000000E+03 0.  0.
<mgrwt>
<rscale>  0 0.31484959E+04</rscale>
<asrwt>0</asrwt>
<pdfrwt beam="2">  1        2 0.37989921E+00 0.31484959E+04</pdfrwt>
<pdfrwt beam="1">  1       -2 0.15440138E+00 0.31484959E+04</pdfrwt>
<totfact> 0.85047949E-01</totfact>
</mgrwt>
</event>
<event>
 4    1  0.1323225E-008  0.2914275E+04  0.7816531E-02  0.8268643E-01
          2   -1    0    0  501    0  0.00000000000E+00  0.00000000000E+00  0.28645541331E+04  0.28645541331E+04  0.00000000000E+00 0.  1.
         -2   -1    0    0    0  501 -0.00000000000E+00 -0.00000000000E+00 -0.74121468203E+03  0.74121468203E+03  0.00000000000E+00 0. -1.
    2000013    1    1    2    0    0 -0.58462792303E+03  0.67910075207E+03  0.26194192974E+03  0.13319464007E+04  0.95000000000E+03 0.  0.
   -2000013    1    1    2    0    0  0.58462792303E+03 -0.67910075207E+03  0.18613975213E+04  0.22738224144E+04  0.95000000000E+03 0.  0.
<mgrwt>
<rscale>  0 0.29142749E+04</rscale>
<asrwt>0</asrwt>
<pdfrwt beam="1">  1        2 0.44070063E+00 0.29142749E+04</pdfrwt>
<pdfrwt beam="2">  1       -2 0.11403303E+00 0.29142749E+04</pdfrwt>
<totfact> 0.10955752E+00</totfact>
</mgrwt>
</event>
<event>
 4    1  0.1323225E-008  0.3172585E+04  0.7816531E-02  0.8196095E-01
         -2   -1    0    0    0  501 -0.00000000000E+00  0.00000000000E+00  0.23381678849E+04  0.23381678849E+04  0.00000000000E+00 0. -1.
          2   -1    0    0  501    0  0.00000000000E+00 -0.00000000000E+00 -0.10761945390E+04  0.10761945390E+04  0.00000000000E+00 0.  1.
    2000013    1    1    2    0    0 -0.60562631365E+03 -0.41496560457E+03 -0.48476890786E+03  0.12947897817E+04  0.95000000000E+03 0.  0.
   -2000013    1    1    2    0    0  0.60562631365E+03  0.41496560457E+03  0.17467422537E+04  0.21195726422E+04  0.95000000000E+03 0.  0.
<mgrwt>
<rscale>  0 0.31725848E+04</rscale>
<asrwt>0</asrwt>
<pdfrwt beam="2">  1        2 0.16556839E+00 0.31725848E+04</pdfrwt>
<pdfrwt beam="1">  1       -2 0.35971814E+00 0.31725848E+04</pdfrwt>
<totfact> 0.25675227E-01</totfact>
</mgrwt>
</event>
<event>
 4    1  0.1323225E-008  0.2221277E+04  0.7816531E-02  0.8509624E-01
          4   -1    0    0  501    0  0.00000000000E+00  0.00000000000E+00  0.76891119491E+03  0.76891119491E+03  0.00000000000E+00 0.  1.
         -4   -1    0    0    0  501 -0.00000000000E+00 -0.00000000000E+00 -0.16042398000E+04  0.16042398000E+04  0.00000000000E+00 0. -1.
    2000013    1    1    2    0    0 -0.21593490364E+03 -0.98521224966E+02  0.14227251863E+03  0.98948258395E+03  0.95000000000E+03 0.  0.
   -2000013    1    1    2    0    0  0.21593490364E+03  0.98521224966E+02 -0.97760112374E+03  0.13836684110E+04  0.95000000000E+03 0.  0.
<mgrwt>
<rscale>  0 0.22212771E+04</rscale>
<asrwt>0</asrwt>
<pdfrwt beam="1">  1        4 0.11829403E+00 0.22212771E+04</pdfrwt>
<pdfrwt beam="2">  1       -4 0.24680612E+00 0.22212771E+04</pdfrwt>
<totfact> 0.66158261E-02</totfact>
</mgrwt>
</event>
<event>
 4    1  0.1323225E-008  0.2967081E+04  0.7816531E-02  0.8253194E-01
          1   -1    0    0  501    0  0.00000000000E+00  0.00000000000E+00  0.15845554026E+04  0.15845554026E+04  0.00000000000E+00 0.  1.
         -1   -1    0    0    0  501 -0.00000000000E+00 -0.00000000000E+00 -0.13889653536E+04  0.13889653536E+04  0.00000000000E+00 0. -1.
    2000013    1    1    2    0    0 -0.69007884316E+03  0.84511363150E+03  0.42709102950E+03  0.15084205672E+04  0.95000000000E+03 0.  0.
   -2000013    1    1    2    0    0  0.69007884316E+03 -0.84511363150E+03 -0.23150098049E+03  0.14651001890E+04  0.95000000000E+03 0.  0.
<mgrwt>
<rscale>  0 0.29670811E+04</rscale>
<asrwt>0</asrwt>
<pdfrwt beam="1">  1        1 0.24377776E+00 0.29670811E+04</pdfrwt>
<pdfrwt beam="2">  1       -1 0.21368698E+00 0.29670811E+04</pdfrwt>
<totfact> 0.59234077E-01</totfact>
</mgrwt>
</event>
<event>
 4    1  0.1323225E-008  0.3008717E+04  0.7816531E-02  0.8241246E-01
          2   -1    0    0  501    0  0.00000000000E+00  0.00000000000E+00  0.31210644305E+04  0.31210644305E+04  0.00000000000E+00 0.  1.
         -2   -1    0    0    0  501 -0.00000000000E+00 -0.00000000000E+00 -0.72510341351E+03  0.72510341351E+03  0.00000000000E+00 0. -1.
    2000013    1    1    2    0    0  0.77349224612E+03 -0.27972875032E+02  0.23135279562E+04  0.26180115242E+04  0.95000000000E+03 0.  0.
   -2000013    1    1    2    0    0 -0.77349224612E+03  0.27972875032E+02  0.82433060825E+02  0.12281563199E+04  0.95000000000E+03 0.  0.
<mgrwt>
<rscale>  0 0.30087170E+04</rscale>
<asrwt>0</asrwt>
<pdfrwt beam="1">  1        2 0.48016375E+00 0.30087170E+04</pdfrwt>
<pdfrwt beam="2">  1       -2 0.11155437E+00 0.30087170E+04</pdfrwt>
<totfact> 0.79186254E-01</totfact>
</mgrwt>
</event>
<event>
 4    1  0.1323225E-008  0.2166283E+04  0.7816531E-02  0.8532594E-01
          4   -1    0    0  501    0  0.00000000000E+00  0.00000000000E+00  0.92468660593E+03  0.92468660593E+03  0.00000000000E+00 0.  1.
         -4   -1    0    0    0  501 -0.00000000000E+00 -0.00000000000E+00 -0.12687497627E+04  0.12687497627E+04  0.00000000000E+00 0. -1.
    2000013    1    1    2    0    0  0.39359185757E+03  0.33974564216E+03 -0.19108929738E+03  0.10997075844E+04  0.95000000000E+03 0.  0.
   -2000013    1    1    2    0    0 -0.39359185757E+03 -0.33974564216E+03 -0.15297385939E+03  0.10937287842E+04  0.95000000000E+03 0.  0.
<mgrwt>
<rscale>  0 0.21662834E+04</rscale>
<asrwt>0</asrwt>
<pdfrwt beam="1">  1        4 0.14225948E+00 0.21662834E+04</pdfrwt>
<pdfrwt beam="2">  1       -4 0.19519227E+00 0.21662834E+04</pdfrwt>
<totfact> 0.88938705E-02</totfact>
</mgrwt>
</event>
<event>
 4    1  0.1323225E-008  0.2171381E+04  0.7816531E-02  0.8530435E-01
          2   -1    0    0  501    0  0.00000000000E+00  0.00000000000E+00  0.85898273501E+03  0.85898273501E+03  0.00000000000E+00 0.  1.
         -2   -1    0    0    0  501 -0.00000000000E+00 -0.00000000000E+00 -0.13722321684E+04  0.13722321684E+04  0.00000000000E+00 0. -1.
    2000013    1    1    2    0    0 -0.79547924941E+02  0.51719447287E+03 -0.20622474710E+03  0.11040138774E+04  0.95000000000E+03 0.  0.
   -2000013    1    1    2    0    0  0.79547924941E+02 -0.51719447287E+03 -0.30702468633E+03  0.11272010261E+04  0.95000000000E+03 0.  0.
<mgrwt>
<rscale>  0 0.21713809E+04</rscale>
<asrwt>0</asrwt>
<pdfrwt beam="1">  1        2 0.13215119E+00 0.21713809E+04</pdfrwt>
<pdfrwt beam="2">  1       -2 0.21111264E+00 0.21713809E+04</pdfrwt>
<totfact> 0.32271832E+00</totfact>
</mgrwt>
</event>
<event>
 4    1  0.1323225E-008  0.2120191E+04  0.7816531E-02  0.8552401E-01
          2   -1    0    0  501    0  0.00000000000E+00  0.00000000000E+00  0.30928375764E+04  0.30928375764E+04  0.00000000000E+00 0.  1.
         -2   -1    0    0    0  501 -0.00000000000E+00 -0.00000000000E+00 -0.36335660076E+03  0.36335660076E+03  0.00000000000E+00 0. -1.
    2000013    1    1    2    0    0  0.14384682937E+03  0.44576131340E+03  0.12935372601E+04  0.16718653361E+04  0.95000000000E+03 0.  0.
   -2000013    1    1    2    0    0 -0.14384682937E+03 -0.44576131340E+03  0.14359437156E+04  0.17843288411E+04  0.95000000000E+03 0.  0.
<mgrwt>
<rscale>  0 0.21201915E+04</rscale>
<asrwt>0</asrwt>
<pdfrwt beam="1">  1        2 0.47582115E+00 0.21201915E+04</pdfrwt>
<pdfrwt beam="2">  1       -2 0.55901017E-01 0.21201915E+04</pdfrwt>
<totfact> 0.42138121E+00</totfact>
</mgrwt>
</event>
<event>
 4    1  0.1323225E-008  0.2291583E+04  0.7816531E-02  0.8481247E-01
         -2   -1    0    0    0  501 -0.00000000000E+00  0.00000000000E+00  0.45908650367E+03  0.45908650367E+03  0.00000000000E+00 0. -1.
          2   -1    0    0  501    0  0.00000000000E+00 -0.00000000000E+00 -0.28596747083E+04  0.28596747083E+04  0.00000000000E+00 0.  1.
    2000013    1    1    2    0    0 -0.35222559386E+03 -0.11705235887E+02 -0.42560341237E+03  0.10990168998E+04  0.95000000000E+03 0.  0.
   -2000013    1    1    2    0    0  0.35222559386E+03  0.11705235887E+02 -0.19749847923E+04  0.22197443121E+04  0.95000000000E+03 0.  0.
<mgrwt>
<rscale>  0 0.22915829E+04</rscale>
<asrwt>0</asrwt>
<pdfrwt beam="2">  1        2 0.43994995E+00 0.22915829E+04</pdfrwt>
<pdfrwt beam="1">  1       -2 0.70628694E-01 0.22915829E+04</pdfrwt>
<totfact> 0.35192327E+00</totfact>
</mgrwt>
</event>
<event>
 4    1  0.1323225E-008  0.2423759E+04  0.7816531E-02  0.8430662E-01
          2   -1    0    0  501    0  0.00000000000E+00  0.00000000000E+00  0.18364790096E+04  0.18364790096E+04  0.00000000000E+00 0.  1.
         -2   -1    0    0    0  501 -0.00000000000E+00 -0.00000000000E+00 -0.79971096222E+03  0.79971096222E+03  0.00000000000E+00 0. -1.
    2000013    1    1    2    0    0 -0.48594889333E+03  0.56378466116E+03  0.39848169885E+03  0.12709394696E+04  0.95000000000E+03 0.  0.
   -2000013    1    1    2    0    0  0.48594889333E+03 -0.56378466116E+03  0.63828634855E+03  0.13652505022E+04  0.95000000000E+03 0.  0.
<mgrwt>
<rscale>  0 0.24237594E+04</rscale>
<asrwt>0</asrwt>
<pdfrwt beam="1">  1        2 0.28253523E+00 0.24237594E+04</pdfrwt>
<pdfrwt beam="2">  1       -2 0.12303246E+00 0.24237594E+04</pdfrwt>
<totfact> 0.36881357E+00</totfact>
</mgrwt>
</event>
<event>
 4    1  0.1323225E-008  0.3257183E+04  0.7816531E-02  0.8173877E-01
          2   -1    0    0  501    0  0.00000000000E+00  0.00000000000E+00  0.19830526334E+04  0.19830526334E+04  0.00000000000E+00 0.  1.
         -2   -1    0    0    0  501 -0.00000000000E+00 -0.00000000000E+00 -0.13374882867E+04  0.13374882867E+04  0.00000000000E+00 0. -1.
    2000013    1    1    2    0    0  0.19278025061E+03  0.73582715845E+03  0.14260551223E+04  0.18747637302E+04  0.95000000000E+03 0.  0.
   -2000013    1    1    2    0    0 -0.19278025061E+03 -0.73582715845E+03 -0.78049077561E+03  0.14457771899E+04  0.95000000000E+03 0.  0.
<mgrwt>
<rscale>  0 0.32571826E+04</rscale>
<asrwt>0</asrwt>
<pdfrwt beam="1">  1        2 0.30508502E+00 0.32571826E+04</pdfrwt>
<pdfrwt beam="2">  1       -2 0.20576743E+00 0.32571826E+04</pdfrwt>
<totfact> 0.69793819E-01</totfact>
</mgrwt>
</event>
<event>
 4    1  0.1323225E-008  0.2758320E+04  0.7816531E-02  0.8316326E-01
         -2   -1    0    0    0  501 -0.00000000000E+00  0.00000000000E+00  0.18182949135E+04  0.18182949135E+04  0.00000000000E+00 0. -1.
          2   -1    0    0  501    0  0.00000000000E+00 -0.00000000000E+00 -0.10460802952E+04  0.10460802952E+04  0.00000000000E+00 0.  1.
    2000013    1    1    2    0    0 -0.61264091391E+03  0.22868975913E+03  0.11714623049E+04  0.16439135704E+04  0.95000000000E+03 0.  0.
   -2000013    1    1    2    0    0  0.61264091391E+03 -0.22868975913E+03 -0.39924768653E+03  0.12204616383E+04  0.95000000000E+03 0.  0.
<mgrwt>
<rscale>  0 0.27583201E+04</rscale>
<asrwt>0</asrwt>
<pdfrwt beam="2">  1        2 0.16093543E+00 0.27583201E+04</pdfrwt>
<pdfrwt beam="1">  1       -2 0.27973768E+00 0.27583201E+04</pdfrwt>
<totfact> 0.86879863E-01</totfact>
</mgrwt>
</event>
<event>
 4    1  0.1323225E-008  0.2143291E+04  0.7816531E-02  0.8542409E-01
          2   -1    0    0  501    0  0.00000000000E+00  0.00000000000E+00  0.96163897984E+03  0.96163897984E+03  0.00000000000E+00 0.  1.
         -2   -1    0    0    0  501 -0.00000000000E+00 -0.00000000000E+00 -0.11942365249E+04  0.11942365249E+04  0.00000000000E+00 0. -1.
    2000013    1    1    2    0    0  0.25598412678E+03 -0.22838849736E+03 -0.47650078060E+03  0.11167999699E+04  0.95000000000E+03 0.  0.
   -2000013    1    1    2    0    0 -0.25598412678E+03  0.22838849736E+03  0.24390323549E+03  0.10390755349E+04  0.95000000000E+03 0.  0.
<mgrwt>
<rscale>  0 0.21432913E+04</rscale>
<asrwt>0</asrwt>
<pdfrwt beam="1">  1        2 0.14794446E+00 0.21432913E+04</pdfrwt>
<pdfrwt beam="2">  1       -2 0.18372870E+00 0.21432913E+04</pdfrwt>
<totfact> 0.41860963E+00</totfact>
</mgrwt>
</event>
<event>
 4    1  0.1323225E-008  0.2689893E+04  0.7816531E-02  0.8338292E-01
         -2   -1    0    0    0  501 -0.00000000000E+00  0.00000000000E+00  0.11486520007E+04  0.11486520007E+04  0.00000000000E+00 0. -1.
          2   -1    0    0  501    0  0.00000000000E+00 -0.00000000000E+00 -0.15747863291E+04  0.15747863291E+04  0.00000000000E+00 0.  1.
    2000013    1    1    2    0    0 -0.55291017340E+03  0.77023654567E+03 -0.12592717770E+03  0.13480844373E+04  0.95000000000E+03 0.  0.
   -2000013    1    1    2    0    0  0.55291017340E+03 -0.77023654567E+03 -0.30020715068E+03  0.13753538924E+04  0.95000000000E+03 0.  0.
<mgrwt>
<rscale>  0 0.26898933E+04</rscale>
<asrwt>0</asrwt>
<pdfrwt beam="2">  1        2 0.24227482E+00 0.26898933E+04</pdfrwt>
<pdfrwt beam="1">  1       -2 0.17671569E+00 0.26898933E+04</pdfrwt>
<totfact> 0.19335251E+00</totfact>
</mgrwt>
</event>
<event>
 4    1  0.1323225E-008  0.2413285E+04  0.7816531E-02  0.8434547E-01
          2   -1    0    0  501    0  0.00000000000E+00  0.00000000000E+00  0.91951803827E+03  0.91951803827E+03  0.00000000000E+00 0.  1.
         -2   -1    0    0    0  501 -0.00000000000E+00 -0.00000000000E+00 -0.15834226319E+04  0.15834226319E+04  0.00000000000E+00 0. -1.
    2000013    1    1    2    0    0  0.64767798107E+03 -0.18567017118E+03 -0.65914919426E+03  0.13382592574E+04  0.95000000000E+03 0.  0.
   -2000013    1    1    2    0    0 -0.64767798107E+03  0.18567017118E+03 -0.47553994113E+01  0.11646814129E+04  0.95000000000E+03 0.  0.
<mgrwt>
<rscale>  0 0.24132846E+04</rscale>
<asrwt>0</asrwt>
<pdfrwt beam="1">  1        2 0.14146432E+00 0.24132846E+04</pdfrwt>
<pdfrwt beam="2">  1       -2 0.24360348E+00 0.24132846E+04</pdfrwt>
<totfact> 0.17977967E+00</totfact>
</mgrwt>
</event>
<event>
 4    1  0.1323225E-008  0.3061430E+04  0.7816531E-02  0.8226404E-01
          1   -1    0    0  501    0  0.00000000000E+00  0.00000000000E+00  0.13779478511E+04  0.13779478511E+04  0.00000000000E+00 0.  1.
         -1   -1    0    0    0  501 -0.00000000000E+00 -0.00000000000E+00 -0.17004185287E+04  0.17004185287E+04  0.00000000000E+00 0. -1.
    2000013    1    1    2    0    0  0.11421065764E+04 -0.18371339033E+03  0.16058213867E+03  0.15054715756E+04  0.95000000000E+03 0.  0.
   -2000013    1    1    2    0    0 -0.11421065764E+04  0.18371339033E+03 -0.48305281625E+03  0.15728948041E+04  0.95000000000E+03 0.  0.
<mgrwt>
<rscale>  0 0.30614298E+04</rscale>
<asrwt>0</asrwt>
<pdfrwt beam="1">  1        1 0.21199198E+00 0.30614298E+04</pdfrwt>
<pdfrwt beam="2">  1       -1 0.26160285E+00 0.30614298E+04</pdfrwt>
<totfact> 0.39488123E-01</totfact>
</mgrwt>
</event>
<event>
 4    1  0.1323225E-008  0.2071234E+04  0.7816531E-02  0.8574022E-01
         -2   -1    0    0    0  501 -0.00000000000E+00  0.00000000000E+00  0.58770882382E+03  0.58770882382E+03  0.00000000000E+00 0. -1.
          2   -1    0    0  501    0  0.00000000000E+00 -0.00000000000E+00 -0.18248872311E+04  0.18248872311E+04  0.00000000000E+00 0.  1.
    2000013    1    1    2    0    0 -0.31598032120E+03  0.17471898294E+03 -0.38670096620E+03  0.10873858210E+04  0.95000000000E+03 0.  0.
   -2000013    1    1    2    0    0  0.31598032120E+03 -0.17471898294E+03 -0.85047744106E+03  0.13252102339E+04  0.95000000000E+03 0.  0.
<mgrwt>
<rscale>  0 0.20712338E+04</rscale>
<asrwt>0</asrwt>
<pdfrwt beam="2">  1        2 0.28075188E+00 0.20712338E+04</pdfrwt>
<pdfrwt beam="1">  1       -2 0.90416741E-01 0.20712338E+04</pdfrwt>
<totfact> 0.80725851E+00</totfact>
</mgrwt>
</event>
<event>
 4    1  0.1323225E-008  0.3784704E+04  0.7816531E-02  0.8049445E-01
         -2   -1    0    0    0  501 -0.00000000000E+00  0.00000000000E+00  0.14076834084E+04  0.14076834084E+04  0.00000000000E+00 0. -1.
          2   -1    0    0  501    0  0.00000000000E+00 -0.00000000000E+00 -0.25438929489E+04  0.25438929489E+04  0.00000000000E+00 0.  1.
    2000013    1    1    2    0    0  0.45864721917E+02  0.14086012198E+04 -0.14367955765E+04  0.22255656580E+04  0.95000000000E+03 0.  0.
   -2000013    1    1    2    0    0 -0.45864721917E+02 -0.14086012198E+04  0.30058603602E+03  0.17260106994E+04  0.95000000000E+03 0.  0.
<mgrwt>
<rscale>  0 0.37847039E+04</rscale>
<asrwt>0</asrwt>
<pdfrwt beam="2">  1        2 0.39136815E+00 0.37847039E+04</pdfrwt>
<pdfrwt beam="1">  1       -2 0.21656668E+00 0.37847039E+04</pdfrwt>
<totfact> 0.27384867E-01</totfact>
</mgrwt>
</event>
<event>
 4    1  0.1323225E-008  0.2978456E+04  0.7816531E-02  0.8249910E-01
         -2   -1    0    0    0  501 -0.00000000000E+00  0.00000000000E+00  0.97748958058E+03  0.97748958058E+03  0.00000000000E+00 0. -1.
          2   -1    0    0  501    0  0.00000000000E+00 -0.00000000000E+00 -0.22688731955E+04  0.22688731955E+04  0.00000000000E+00 0.  1.
    2000013    1    1    2    0    0 -0.90301246153E+03 -0.69372134091E+03 -0.49696636836E+03  0.15640193016E+04  0.95000000000E+03 0.  0.
   -2000013    1    1    2    0    0  0.90301246153E+03  0.69372134091E+03 -0.79441724658E+03  0.16823434745E+04  0.95000000000E+03 0.  0.
<mgrwt>
<rscale>  0 0.29784559E+04</rscale>
<asrwt>0</asrwt>
<pdfrwt beam="2">  1        2 0.34905741E+00 0.29784559E+04</pdfrwt>
<pdfrwt beam="1">  1       -2 0.15038301E+00 0.29784559E+04</pdfrwt>
<totfact> 0.12048731E+00</totfact>
</mgrwt>
</event>
<event>
 4    1  0.1323225E-008  0.2834056E+04  0.7816531E-02  0.8292773E-01
         -2   -1    0    0    0  501 -0.00000000000E+00  0.00000000000E+00  0.13816240229E+04  0.13816240229E+04  0.00000000000E+00 0. -1.
          2   -1    0    0  501    0  0.00000000000E+00 -0.00000000000E+00 -0.14533387366E+04  0.14533387366E+04  0.00000000000E+00 0.  1.
    2000013    1    1    2    0    0  0.76860932514E+03  0.69980136747E+03  0.12226114966E+03  0.14134815306E+04  0.95000000000E+03 0.  0.
   -2000013    1    1    2    0    0 -0.76860932514E+03 -0.69980136747E+03 -0.19397586334E+03  0.14214812289E+04  0.95000000000E+03 0.  0.
<mgrwt>
<rscale>  0 0.28340555E+04</rscale>
<asrwt>0</asrwt>
<pdfrwt beam="2">  1        2 0.22359058E+00 0.28340555E+04</pdfrwt>
<pdfrwt beam="1">  1       -2 0.21255754E+00 0.28340555E+04</pdfrwt>
<totfact> 0.12907790E+00</totfact>
</mgrwt>
</event>
<event>
 4    1  0.1323225E-008  0.2125277E+04  0.7816531E-02  0.8550190E-01
          1   -1    0    0  501    0  0.00000000000E+00  0.00000000000E+00  0.76598280883E+03  0.76598280883E+03  0.00000000000E+00 0.  1.
         -1   -1    0    0    0  501 -0.00000000000E+00 -0.00000000000E+00 -0.14741847824E+04  0.14741847824E+04  0.00000000000E+00 0. -1.
    2000013    1    1    2    0    0 -0.44785677399E+03  0.49393070696E+02 -0.19188254627E+03  0.10688003916E+04  0.95000000000E+03 0.  0.
   -2000013    1    1    2    0    0  0.44785677399E+03 -0.49393070696E+02 -0.51631942731E+03  0.11713671997E+04  0.95000000000E+03 0.  0.
<mgrwt>
<rscale>  0 0.21252766E+04</rscale>
<asrwt>0</asrwt>
<pdfrwt beam="1">  1        1 0.11784351E+00 0.21252766E+04</pdfrwt>
<pdfrwt beam="2">  1       -1 0.22679766E+00 0.21252766E+04</pdfrwt>
<totfact> 0.21552542E+00</totfact>
</mgrwt>
</event>
<event>
 4    1  0.1323225E-008  0.3995248E+04  0.7816531E-02  0.8005506E-01
         -2   -1    0    0    0  501 -0.00000000000E+00  0.00000000000E+00  0.36173188316E+04  0.36173188316E+04  0.00000000000E+00 0.  1.
          2   -1    0    0  501    0  0.00000000000E+00 -0.00000000000E+00 -0.11031656751E+04  0.11031656751E+04  0.00000000000E+00 0. -1.
    2000013    1    1    2    0    0  0.13350710323E+04 -0.36173128634E+03  0.25376759523E+04  0.30422957489E+04  0.95000000000E+03 0.  0.
   -2000013    1    1    2    0    0 -0.13350710323E+04  0.36173128634E+03 -0.23522795838E+02  0.16781887578E+04  0.95000000000E+03 0.  0.
<mgrwt>
<rscale>  0 0.39952482E+04</rscale>
<asrwt>0</asrwt>
<pdfrwt beam="2">  1        2 0.16971780E+00 0.39952482E+04</pdfrwt>
<pdfrwt beam="1">  1       -2 0.55651058E+00 0.39952482E+04</pdfrwt>
<totfact> 0.13552082E-02</totfact>
</mgrwt>
</event>
<event>
 4    1  0.1323225E-008  0.4150058E+04  0.7816531E-02  0.7974941E-01
         -2   -1    0    0    0  501 -0.00000000000E+00  0.00000000000E+00  0.14860970780E+04  0.14860970780E+04  0.00000000000E+00 0. -1.
          2   -1    0    0  501    0  0.00000000000E+00 -0.00000000000E+00 -0.28973514809E+04  0.28973514809E+04  0.00000000000E+00 0.  1.
    2000013    1    1    2    0    0  0.13620581030E+04  0.64310364932E+03  0.41938315475E+03  0.18295263896E+04  0.95000000000E+03 0.  0.
   -2000013    1    1    2    0    0 -0.13620581030E+04 -0.64310364932E+03 -0.18306375577E+04  0.25539221694E+04  0.95000000000E+03 0.  0.
<mgrwt>
<rscale>  0 0.41500581E+04</rscale>
<asrwt>0</asrwt>
<pdfrwt beam="2">  1        2 0.44574638E+00 0.41500581E+04</pdfrwt>
<pdfrwt beam="1">  1       -2 0.22863032E+00 0.41500581E+04</pdfrwt>
<totfact> 0.13701175E-01</totfact>
</mgrwt>
</event>
<event>
 4    1  0.1323225E-008  0.2287965E+04  0.7816531E-02  0.8482681E-01
          1   -1    0    0  501    0  0.00000000000E+00  0.00000000000E+00  0.58420362974E+03  0.58420362974E+03  0.00000000000E+00 0.  1.
         -1   -1    0    0    0  501 -0.00000000000E+00 -0.00000000000E+00 -0.22401368040E+04  0.22401368040E+04  0.00000000000E+00 0. -1.
    2000013    1    1    2    0    0  0.13944039261E+03 -0.57917893400E+03 -0.54836213979E+03  0.12482359140E+04  0.95000000000E+03 0.  0.
   -2000013    1    1    2    0    0 -0.13944039261E+03  0.57917893400E+03 -0.11075710345E+04  0.15761045197E+04  0.95000000000E+03 0.  0.
<mgrwt>
<rscale>  0 0.22879651E+04</rscale>
<asrwt>0</asrwt>
<pdfrwt beam="1">  1        1 0.89877483E-01 0.22879651E+04</pdfrwt>
<pdfrwt beam="2">  1       -1 0.34463642E+00 0.22879651E+04</pdfrwt>
<totfact> 0.54340010E-01</totfact>
</mgrwt>
</event>
<event>
 4    1  0.1323225E-008  0.1956734E+04  0.7816531E-02  0.8627120E-01
          2   -1    0    0  501    0  0.00000000000E+00  0.00000000000E+00  0.11604626612E+04  0.11604626612E+04  0.00000000000E+00 0.  1.
         -2   -1    0    0    0  501 -0.00000000000E+00 -0.00000000000E+00 -0.82484546177E+03  0.82484546177E+03  0.00000000000E+00 0. -1.
    2000013    1    1    2    0    0 -0.27118221910E+02  0.22951737822E+03  0.20423177667E+03  0.99881141536E+03  0.95000000000E+03 0.  0.
   -2000013    1    1    2    0    0  0.27118221910E+02 -0.22951737822E+03  0.13138542279E+03  0.98649670764E+03  0.95000000000E+03 0.  0.
<mgrwt>
<rscale>  0 0.19567344E+04</rscale>
<asrwt>0</asrwt>
<pdfrwt beam="1">  1        2 0.17853272E+00 0.19567344E+04</pdfrwt>
<pdfrwt beam="2">  1       -2 0.12689930E+00 0.19567344E+04</pdfrwt>
<totfact> 0.86120804E+00</totfact>
</mgrwt>
</event>
<event>
 4    1  0.1323225E-008  0.2604328E+04  0.7816531E-02  0.8366733E-01
          2   -1    0    0  501    0  0.00000000000E+00  0.00000000000E+00  0.19689477858E+04  0.19689477858E+04  0.00000000000E+00 0.  1.
         -2   -1    0    0    0  501 -0.00000000000E+00 -0.00000000000E+00 -0.86118639571E+03  0.86118639571E+03  0.00000000000E+00 0. -1.
    2000013    1    1    2    0    0 -0.55267327082E+03  0.62391781946E+03  0.89478356084E+03  0.15485021183E+04  0.95000000000E+03 0.  0.
   -2000013    1    1    2    0    0  0.55267327082E+03 -0.62391781946E+03  0.21297782930E+03  0.12816320632E+04  0.95000000000E+03 0.  0.
<mgrwt>
<rscale>  0 0.26043280E+04</rscale>
<asrwt>0</asrwt>
<pdfrwt beam="1">  1        2 0.30291504E+00 0.26043280E+04</pdfrwt>
<pdfrwt beam="2">  1       -2 0.13249022E+00 0.26043280E+04</pdfrwt>
<totfact> 0.25443938E+00</totfact>
</mgrwt>
</event>
<event>
 4    1  0.1323225E-008  0.2701428E+04  0.7816531E-02  0.8334542E-01
          2   -1    0    0  501    0  0.00000000000E+00  0.00000000000E+00  0.11270197741E+04  0.11270197741E+04  0.00000000000E+00 0. -1.
         -2   -1    0    0    0  501 -0.00000000000E+00 -0.00000000000E+00 -0.16188078178E+04  0.16188078178E+04  0.00000000000E+00 0.  1.
    2000013    1    1    2    0    0 -0.65147580806E+03 -0.25323389556E+03 -0.91503007586E+03  0.14927585786E+04  0.95000000000E+03 0.  0.
   -2000013    1    1    2    0    0  0.65147580806E+03  0.25323389556E+03  0.42324203218E+03  0.12530690133E+04  0.95000000000E+03 0.  0.
<mgrwt>
<rscale>  0 0.27014281E+04</rscale>
<asrwt>0</asrwt>
<pdfrwt beam="1">  1        2 0.17338766E+00 0.27014281E+04</pdfrwt>
<pdfrwt beam="2">  1       -2 0.24904736E+00 0.27014281E+04</pdfrwt>
<totfact> 0.11979980E+00</totfact>
</mgrwt>
</event>
<event>
 4    1  0.1323225E-008  0.2292620E+04  0.7816531E-02  0.8480837E-01
         -2   -1    0    0    0  501 -0.00000000000E+00  0.00000000000E+00  0.11501033641E+04  0.11501033641E+04  0.00000000000E+00 0.  1.
          2   -1    0    0  501    0  0.00000000000E+00 -0.00000000000E+00 -0.11425292375E+04  0.11425292375E+04  0.00000000000E+00 0. -1.
    2000013    1    1    2    0    0  0.29968336169E+03 -0.13096825490E+03 -0.54808904844E+03  0.11444930782E+04  0.95000000000E+03 0.  0.
   -2000013    1    1    2    0    0 -0.29968336169E+03  0.13096825490E+03  0.55566317507E+03  0.11481395234E+04  0.95000000000E+03 0.  0.
<mgrwt>
<rscale>  0 0.22926201E+04</rscale>
<asrwt>0</asrwt>
<pdfrwt beam="2">  1        2 0.17577373E+00 0.22926201E+04</pdfrwt>
<pdfrwt beam="1">  1       -2 0.17693898E+00 0.22926201E+04</pdfrwt>
<totfact> 0.35439907E+00</totfact>
</mgrwt>
</event>
<event>
 4    1  0.1323225E-008  0.2845642E+04  0.7816531E-02  0.8289237E-01
          2   -1    0    0  501    0  0.00000000000E+00  0.00000000000E+00  0.30056216915E+04  0.30056216915E+04  0.00000000000E+00 0.  1.
         -2   -1    0    0    0  501 -0.00000000000E+00 -0.00000000000E+00 -0.67354460494E+03  0.67354460494E+03  0.00000000000E+00 0. -1.
    2000013    1    1    2    0    0 -0.15040183319E+03  0.97828650296E+03  0.67839443907E+03  0.15304849585E+04  0.95000000000E+03 0.  0.
   -2000013    1    1    2    0    0  0.15040183319E+03 -0.97828650296E+03  0.16536826475E+04  0.21486813379E+04  0.95000000000E+03 0.  0.
<mgrwt>
<rscale>  0 0.28456425E+04</rscale>
<asrwt>0</asrwt>
<pdfrwt beam="1">  1        2 0.46240333E+00 0.28456425E+04</pdfrwt>
<pdfrwt beam="2">  1       -2 0.10362225E+00 0.28456425E+04</pdfrwt>
<totfact> 0.11354862E+00</totfact>
</mgrwt>
</event>
<event>
 4    1  0.1323225E-008  0.2620660E+04  0.7816531E-02  0.8361217E-01
         -2   -1    0    0    0  501 -0.00000000000E+00  0.00000000000E+00  0.19417062259E+04  0.19417062259E+04  0.00000000000E+00 0.  1.
          2   -1    0    0  501    0  0.00000000000E+00 -0.00000000000E+00 -0.88425575248E+03  0.88425575248E+03  0.00000000000E+00 0. -1.
    2000013    1    1    2    0    0  0.72988519165E+03  0.53078475806E+03  0.52849017826E+03  0.14128930324E+04  0.95000000000E+03 0.  0.
   -2000013    1    1    2    0    0 -0.72988519165E+03 -0.53078475806E+03  0.52896029518E+03  0.14130689460E+04  0.95000000000E+03 0.  0.
<mgrwt>
<rscale>  0 0.26206601E+04</rscale>
<asrwt>0</asrwt>
<pdfrwt beam="2">  1        2 0.13603935E+00 0.26206601E+04</pdfrwt>
<pdfrwt beam="1">  1       -2 0.29872403E+00 0.26206601E+04</pdfrwt>
<totfact> 0.85889540E-01</totfact>
</mgrwt>
</event>
<event>
 4    1  0.1323225E-008  0.2004963E+04  0.7816531E-02  0.8604304E-01
         -2   -1    0    0    0  501 -0.00000000000E+00  0.00000000000E+00  0.75162800277E+03  0.75162800277E+03  0.00000000000E+00 0. -1.
          2   -1    0    0  501    0  0.00000000000E+00 -0.00000000000E+00 -0.13370562383E+04  0.13370562383E+04  0.00000000000E+00 0.  1.
    2000013    1    1    2    0    0  0.20740113454E+03 -0.21577455382E+03 -0.41101214795E+03  0.10774993617E+04  0.95000000000E+03 0.  0.
   -2000013    1    1    2    0    0 -0.20740113454E+03  0.21577455382E+03 -0.17441608759E+03  0.10111848794E+04  0.95000000000E+03 0.  0.
<mgrwt>
<rscale>  0 0.20049628E+04</rscale>
<asrwt>0</asrwt>
<pdfrwt beam="2">  1        2 0.20570096E+00 0.20049628E+04</pdfrwt>
<pdfrwt beam="1">  1       -2 0.11563508E+00 0.20049628E+04</pdfrwt>
<totfact> 0.85005629E+00</totfact>
</mgrwt>
</event>
<event>
 4    1  0.1323225E-008  0.3032723E+04  0.7816531E-02  0.8234448E-01
         -2   -1    0    0    0  501 -0.00000000000E+00  0.00000000000E+00  0.94392301519E+03  0.94392301519E+03  0.00000000000E+00 0. -1.
          2   -1    0    0  501    0  0.00000000000E+00 -0.00000000000E+00 -0.24359537384E+04  0.24359537384E+04  0.00000000000E+00 0.  1.
    2000013    1    1    2    0    0  0.45132669564E+03 -0.85390398558E+03  0.13137774413E+02  0.13548137894E+04  0.95000000000E+03 0.  0.
   -2000013    1    1    2    0    0 -0.45132669564E+03  0.85390398558E+03 -0.15051684976E+04  0.20250629642E+04  0.95000000000E+03 0.  0.
<mgrwt>
<rscale>  0 0.30327234E+04</rscale>
<asrwt>0</asrwt>
<pdfrwt beam="2">  1        2 0.37476211E+00 0.30327234E+04</pdfrwt>
<pdfrwt beam="1">  1       -2 0.14521893E+00 0.30327234E+04</pdfrwt>
<totfact> 0.10560879E+00</totfact>
</mgrwt>
</event>
<event>
 4    1  0.1323225E-008  0.2421044E+04  0.7816531E-02  0.8431667E-01
          2   -1    0    0  501    0  0.00000000000E+00  0.00000000000E+00  0.45328832052E+04  0.45328832052E+04  0.00000000000E+00 0.  1.
         -2   -1    0    0    0  501 -0.00000000000E+00 -0.00000000000E+00 -0.32327414531E+03  0.32327414531E+03  0.00000000000E+00 0. -1.
    2000013    1    1    2    0    0 -0.51108502593E+03  0.54866446416E+03  0.20547256523E+04  0.23846672942E+04  0.95000000000E+03 0.  0.
   -2000013    1    1    2    0    0  0.51108502593E+03 -0.54866446416E+03  0.21548834076E+04  0.24714900563E+04  0.95000000000E+03 0.  0.
<mgrwt>
<rscale>  0 0.24210444E+04</rscale>
<asrwt>0</asrwt>
<pdfrwt beam="1">  1        2 0.69736660E+00 0.24210444E+04</pdfrwt>
<pdfrwt beam="2">  1       -2 0.49734487E-01 0.24210444E+04</pdfrwt>
<totfact> 0.39521297E-01</totfact>
</mgrwt>
</event>
<event>
 4    1  0.1323225E-008  0.3921800E+04  0.7816531E-02  0.8020510E-01
          2   -1    0    0  501    0  0.00000000000E+00  0.00000000000E+00  0.18580663102E+04  0.18580663102E+04  0.00000000000E+00 0.  1.
         -2   -1    0    0    0  501 -0.00000000000E+00 -0.00000000000E+00 -0.20694252493E+04  0.20694252493E+04  0.00000000000E+00 0. -1.
    2000013    1    1    2    0    0  0.12105007656E+04  0.88581483226E+03 -0.93914279309E+03  0.20085988167E+04  0.95000000000E+03 0.  0.
   -2000013    1    1    2    0    0 -0.12105007656E+04 -0.88581483226E+03  0.72778385403E+03  0.19188927429E+04  0.95000000000E+03 0.  0.
<mgrwt>
<rscale>  0 0.39218003E+04</rscale>
<asrwt>0</asrwt>
<pdfrwt beam="1">  1        2 0.28585635E+00 0.39218003E+04</pdfrwt>
<pdfrwt beam="2">  1       -2 0.31837312E+00 0.39218003E+04</pdfrwt>
<totfact> 0.15584077E-01</totfact>
</mgrwt>
</event>
<event>
 4    1  0.1323225E-008  0.2195504E+04  0.7816531E-02  0.8520302E-01
         -2   -1    0    0    0  501 -0.00000000000E+00  0.00000000000E+00  0.65163492143E+03  0.65163492143E+03  0.00000000000E+00 0. -1.
          2   -1    0    0  501    0  0.00000000000E+00 -0.00000000000E+00 -0.18492865997E+04  0.18492865997E+04  0.00000000000E+00 0.  1.
    2000013    1    1    2    0    0  0.33526715789E+03 -0.42820367583E+03 -0.69274044434E+03  0.12954349765E+04  0.95000000000E+03 0.  0.
   -2000013    1    1    2    0    0 -0.33526715789E+03  0.42820367583E+03 -0.50491123396E+03  0.12054865446E+04  0.95000000000E+03 0.  0.
<mgrwt>
<rscale>  0 0.21955043E+04</rscale>
<asrwt>0</asrwt>
<pdfrwt beam="2">  1        2 0.28450563E+00 0.21955043E+04</pdfrwt>
<pdfrwt beam="1">  1       -2 0.10025153E+00 0.21955043E+04</pdfrwt>
<totfact> 0.60828411E+00</totfact>
</mgrwt>
</event>
<event>
 4    1  0.1323225E-008  0.3174662E+04  0.7816531E-02  0.8195541E-01
          2   -1    0    0  501    0  0.00000000000E+00  0.00000000000E+00  0.17895523891E+04  0.17895523891E+04  0.00000000000E+00 0.  1.
         -2   -1    0    0    0  501 -0.00000000000E+00 -0.00000000000E+00 -0.14079610002E+04  0.14079610002E+04  0.00000000000E+00 0. -1.
    2000013    1    1    2    0    0 -0.11625496010E+04 -0.13743425585E+03  0.69107026440E+03  0.16584594839E+04  0.95000000000E+03 0.  0.
   -2000013    1    1    2    0    0  0.11625496010E+04  0.13743425585E+03 -0.30947887542E+03  0.15390539054E+04  0.95000000000E+03 0.  0.
<mgrwt>
<rscale>  0 0.31746622E+04</rscale>
<asrwt>0</asrwt>
<pdfrwt beam="1">  1        2 0.27531575E+00 0.31746622E+04</pdfrwt>
<pdfrwt beam="2">  1       -2 0.21660938E+00 0.31746622E+04</pdfrwt>
<totfact> 0.76648987E-01</totfact>
</mgrwt>
</event>
<event>
 4    1  0.1323225E-008  0.3072777E+04  0.7816531E-02  0.8223249E-01
         -2   -1    0    0    0  501 -0.00000000000E+00  0.00000000000E+00  0.15688179262E+04  0.15688179262E+04  0.00000000000E+00 0. -1.
          2   -1    0    0  501    0  0.00000000000E+00 -0.00000000000E+00 -0.15046296133E+04  0.15046296133E+04  0.00000000000E+00 0.  1.
    2000013    1    1    2    0    0  0.96813976917E+03 -0.54050750093E+03 -0.44607596839E+03  0.15267372861E+04  0.95000000000E+03 0.  0.
   -2000013    1    1    2    0    0 -0.96813976917E+03  0.54050750093E+03  0.51026428127E+03  0.15467102534E+04  0.95000000000E+03 0.  0.
<mgrwt>
<rscale>  0 0.30727772E+04</rscale>
<asrwt>0</asrwt>
<pdfrwt beam="2">  1        2 0.23148148E+00 0.30727772E+04</pdfrwt>
<pdfrwt beam="1">  1       -2 0.24135660E+00 0.30727772E+04</pdfrwt>
<totfact> 0.78010897E-01</totfact>
</mgrwt>
</event>
<event>
 4    1  0.1323225E-008  0.2175460E+04  0.7816531E-02  0.8528712E-01
         -1   -1    0    0    0  501 -0.00000000000E+00  0.00000000000E+00  0.70433972855E+03  0.70433972855E+03  0.00000000000E+00 0.  1.
          1   -1    0    0  501    0  0.00000000000E+00 -0.00000000000E+00 -0.16798101443E+04  0.16798101443E+04  0.00000000000E+00 0. -1.
    2000013    1    1    2    0    0 -0.45963307238E+03  0.24391800682E+03 -0.59677030317E+03  0.12366864397E+04  0.95000000000E+03 0.  0.
   -2000013    1    1    2    0    0  0.45963307238E+03 -0.24391800682E+03 -0.37870011259E+03  0.11474634332E+04  0.95000000000E+03 0.  0.
<mgrwt>
<rscale>  0 0.21754604E+04</rscale>
<asrwt>0</asrwt>
<pdfrwt beam="2">  1        1 0.25843233E+00 0.21754604E+04</pdfrwt>
<pdfrwt beam="1">  1       -1 0.10835996E+00 0.21754604E+04</pdfrwt>
<totfact> 0.35541601E+00</totfact>
</mgrwt>
</event>
<event>
 4    1  0.1323225E-008  0.2173652E+04  0.7816531E-02  0.8529475E-01
          2   -1    0    0  501    0  0.00000000000E+00  0.00000000000E+00  0.46143799021E+04  0.46143799021E+04  0.00000000000E+00 0.  1.
         -2   -1    0    0    0  501 -0.00000000000E+00 -0.00000000000E+00 -0.25598048368E+03  0.25598048368E+03  0.00000000000E+00 0. -1.
    2000013    1    1    2    0    0  0.22347691887E+03  0.28250706648E+03  0.13144802101E+04  0.16613579983E+04  0.95000000000E+03 0.  0.
   -2000013    1    1    2    0    0 -0.22347691887E+03 -0.28250706648E+03  0.30439192083E+04  0.32090023875E+04  0.95000000000E+03 0.  0.
<mgrwt>
<rscale>  0 0.21736524E+04</rscale>
<asrwt>0</asrwt>
<pdfrwt beam="1">  1        2 0.70990454E+00 0.21736524E+04</pdfrwt>
<pdfrwt beam="2">  1       -2 0.39381616E-01 0.21736524E+04</pdfrwt>
<totfact> 0.53475365E-01</totfact>
</mgrwt>
</event>
<event>
 4    1  0.1323225E-008  0.2856309E+04  0.7816531E-02  0.8285997E-01
          2   -1    0    0  501    0  0.00000000000E+00  0.00000000000E+00  0.30569850525E+04  0.30569850525E+04  0.00000000000E+00 0.  1.
         -2   -1    0    0    0  501 -0.00000000000E+00 -0.00000000000E+00 -0.66720169955E+03  0.66720169955E+03  0.00000000000E+00 0. -1.
    2000013    1    1    2    0    0 -0.58047103393E+03 -0.37733572598E+03  0.13741185813E+03  0.11835163244E+04  0.95000000000E+03 0.  0.
   -2000013    1    1    2    0    0  0.58047103393E+03  0.37733572598E+03  0.22523714948E+04  0.25406704277E+04  0.95000000000E+03 0.  0.
<mgrwt>
<rscale>  0 0.28563092E+04</rscale>
<asrwt>0</asrwt>
<pdfrwt beam="1">  1        2 0.47030538E+00 0.28563092E+04</pdfrwt>
<pdfrwt beam="2">  1       -2 0.10264642E+00 0.28563092E+04</pdfrwt>
<totfact> 0.10770003E+00</totfact>
</mgrwt>
</event>
<event>
 4    1  0.1323225E-008  0.3904293E+04  0.7816531E-02  0.8024137E-01
          2   -1    0    0  501    0  0.00000000000E+00  0.00000000000E+00  0.42759023198E+04  0.42759023198E+04  0.00000000000E+00 0.  1.
         -2   -1    0    0    0  501 -0.00000000000E+00 -0.00000000000E+00 -0.89124480585E+03  0.89124480585E+03  0.00000000000E+00 0. -1.
    2000013    1    1    2    0    0  0.93832464122E+03  0.10055542764E+04  0.30268411728E+04  0.34577246883E+04  0.95000000000E+03 0.  0.
   -2000013    1    1    2    0    0 -0.93832464122E+03 -0.10055542764E+04  0.35781634112E+03  0.17094224373E+04  0.95000000000E+03 0.  0.
<mgrwt>
<rscale>  0 0.39042929E+04</rscale>
<asrwt>0</asrwt>
<pdfrwt beam="1">  1        2 0.65783111E+00 0.39042929E+04</pdfrwt>
<pdfrwt beam="2">  1       -2 0.13711459E+00 0.39042929E+04</pdfrwt>
<totfact> 0.59774998E-02</totfact>
</mgrwt>
</event>
<event>
 4    1  0.1323225E-008  0.5587341E+04  0.7816531E-02  0.7743784E-01
         -2   -1    0    0    0  501 -0.00000000000E+00  0.00000000000E+00  0.23441169911E+04  0.23441169911E+04  0.00000000000E+00 0. -1.
          2   -1    0    0  501    0  0.00000000000E+00 -0.00000000000E+00 -0.33294391667E+04  0.33294391667E+04  0.00000000000E+00 0.  1.
    2000013    1    1    2    0    0 -0.17398856630E+04  0.19245375108E+04 -0.91262250806E+03  0.29097124588E+04  0.95000000000E+03 0.  0.
   -2000013    1    1    2    0    0  0.17398856630E+04 -0.19245375108E+04 -0.72699667519E+02  0.27638436990E+04  0.95000000000E+03 0.  0.
<mgrwt>
<rscale>  0 0.55873410E+04</rscale>
<asrwt>0</asrwt>
<pdfrwt beam="2">  1        2 0.51222141E+00 0.55873410E+04</pdfrwt>
<pdfrwt beam="1">  1       -2 0.36063338E+00 0.55873410E+04</pdfrwt>
<totfact> 0.98448525E-03</totfact>
</mgrwt>
</event>
<event>
 4    1  0.1323225E-008  0.2900210E+04  0.7816531E-02  0.8272815E-01
         -2   -1    0    0    0  501 -0.00000000000E+00  0.00000000000E+00  0.97591388477E+03  0.97591388477E+03  0.00000000000E+00 0. -1.
          2   -1    0    0  501    0  0.00000000000E+00 -0.00000000000E+00 -0.21547036623E+04  0.21547036623E+04  0.00000000000E+00 0.  1.
    2000013    1    1    2    0    0  0.52709228499E+03  0.94678582461E+03 -0.76370284466E+03  0.16309419700E+04  0.95000000000E+03 0.  0.
   -2000013    1    1    2    0    0 -0.52709228499E+03 -0.94678582461E+03 -0.41508693285E+03  0.14996755770E+04  0.95000000000E+03 0.  0.
<mgrwt>
<rscale>  0 0.29002105E+04</rscale>
<asrwt>0</asrwt>
<pdfrwt beam="2">  1        2 0.33149287E+00 0.29002105E+04</pdfrwt>
<pdfrwt beam="1">  1       -2 0.15014060E+00 0.29002105E+04</pdfrwt>
<totfact> 0.14123779E+00</totfact>
</mgrwt>
</event>
<event>
 4    1  0.1323225E-008  0.2883928E+04  0.7816531E-02  0.8277675E-01
         -1   -1    0    0    0  501 -0.00000000000E+00  0.00000000000E+00  0.81683223695E+03  0.81683223695E+03  0.00000000000E+00 0. -1.
          1   -1    0    0  501    0  0.00000000000E+00 -0.00000000000E+00 -0.25455169807E+04  0.25455169807E+04  0.00000000000E+00 0.  1.
    2000013    1    1    2    0    0  0.94369413943E+03  0.18583179684E+03 -0.27945452460E+03  0.13804661955E+04  0.95000000000E+03 0.  0.
   -2000013    1    1    2    0    0 -0.94369413943E+03 -0.18583179684E+03 -0.14492302192E+04  0.19818830222E+04  0.95000000000E+03 0.  0.
<mgrwt>
<rscale>  0 0.28839281E+04</rscale>
<asrwt>0</asrwt>
<pdfrwt beam="2">  1        1 0.39161800E+00 0.28839281E+04</pdfrwt>
<pdfrwt beam="1">  1       -1 0.12566650E+00 0.28839281E+04</pdfrwt>
<totfact> 0.59758855E-01</totfact>
</mgrwt>
</event>
<event>
 4    1  0.1323225E-008  0.2568847E+04  0.7816531E-02  0.8378861E-01
          2   -1    0    0  501    0  0.00000000000E+00  0.00000000000E+00  0.86791711791E+03  0.86791711791E+03  0.00000000000E+00 0.  1.
         -2   -1    0    0    0  501 -0.00000000000E+00 -0.00000000000E+00 -0.19008086163E+04  0.19008086163E+04  0.00000000000E+00 0. -1.
    2000013    1    1    2    0    0 -0.25178300240E+03  0.56394123882E+03  0.13544572734E+03  0.11411704282E+04  0.95000000000E+03 0.  0.
   -2000013    1    1    2    0    0  0.25178300240E+03 -0.56394123882E+03 -0.11683372258E+04  0.16275553061E+04  0.95000000000E+03 0.  0.
<mgrwt>
<rscale>  0 0.25688475E+04</rscale>
<asrwt>0</asrwt>
<pdfrwt beam="1">  1        2 0.13352571E+00 0.25688475E+04</pdfrwt>
<pdfrwt beam="2">  1       -2 0.29243209E+00 0.25688475E+04</pdfrwt>
<totfact> 0.96718898E-01</totfact>
</mgrwt>
</event>
<event>
 4    1  0.1323225E-008  0.2331220E+04  0.7816531E-02  0.8465712E-01
          2   -1    0    0  501    0  0.00000000000E+00  0.00000000000E+00  0.18379650810E+04  0.18379650810E+04  0.00000000000E+00 0.  1.
         -2   -1    0    0    0  501 -0.00000000000E+00 -0.00000000000E+00 -0.73921219622E+03  0.73921219622E+03  0.00000000000E+00 0. -1.
    2000013    1    1    2    0    0 -0.12215753943E+03  0.64756986778E+03  0.71289048322E+03  0.13583011592E+04  0.95000000000E+03 0.  0.
   -2000013    1    1    2    0    0  0.12215753943E+03 -0.64756986778E+03  0.38586240157E+03  0.12188761180E+04  0.95000000000E+03 0.  0.
<mgrwt>
<rscale>  0 0.23312196E+04</rscale>
<asrwt>0</asrwt>
<pdfrwt beam="1">  1        2 0.28276386E+00 0.23312196E+04</pdfrwt>
<pdfrwt beam="2">  1       -2 0.11372495E+00 0.23312196E+04</pdfrwt>
<totfact> 0.45042537E+00</totfact>
</mgrwt>
</event>
<event>
 4    1  0.1323225E-008  0.2441904E+04  0.7816531E-02  0.8423980E-01
         -2   -1    0    0    0  501 -0.00000000000E+00  0.00000000000E+00  0.34739672254E+03  0.34739672254E+03  0.00000000000E+00 0. -1.
          2   -1    0    0  501    0  0.00000000000E+00 -0.00000000000E+00 -0.42911294334E+04  0.42911294334E+04  0.00000000000E+00 0.  1.
    2000013    1    1    2    0    0  0.41725793320E+03 -0.31747330944E+03 -0.30351592299E+04  0.32232879232E+04  0.95000000000E+03 0.  0.
   -2000013    1    1    2    0    0 -0.41725793320E+03  0.31747330944E+03 -0.90857348087E+03  0.14152382327E+04  0.95000000000E+03 0.  0.
<mgrwt>
<rscale>  0 0.24419044E+04</rscale>
<asrwt>0</asrwt>
<pdfrwt beam="2">  1        2 0.66017380E+00 0.24419044E+04</pdfrwt>
<pdfrwt beam="1">  1       -2 0.53445647E-01 0.24419044E+04</pdfrwt>
<totfact> 0.57453148E-01</totfact>
</mgrwt>
</event>
<event>
 4    1  0.1323225E-008  0.2594761E+04  0.7816531E-02  0.8369983E-01
          2   -1    0    0  501    0  0.00000000000E+00  0.00000000000E+00  0.19967915994E+04  0.19967915994E+04  0.00000000000E+00 0.  1.
         -2   -1    0    0    0  501 -0.00000000000E+00 -0.00000000000E+00 -0.84295006769E+03  0.84295006769E+03  0.00000000000E+00 0. -1.
    2000013    1    1    2    0    0 -0.59905375768E+03 -0.58991397027E+03  0.87429478793E+03  0.15406996051E+04  0.95000000000E+03 0.  0.
   -2000013    1    1    2    0    0  0.59905375768E+03  0.58991397027E+03  0.27954674379E+03  0.12990420620E+04  0.95000000000E+03 0.  0.
<mgrwt>
<rscale>  0 0.25947606E+04</rscale>
<asrwt>0</asrwt>
<pdfrwt beam="1">  1        2 0.30719871E+00 0.25947606E+04</pdfrwt>
<pdfrwt beam="2">  1       -2 0.12968463E+00 0.25947606E+04</pdfrwt>
<totfact> 0.25943845E+00</totfact>
</mgrwt>
</event>
<event>
 4    1  0.1323225E-008  0.2285341E+04  0.7816531E-02  0.8483723E-01
          2   -1    0    0  501    0  0.00000000000E+00  0.00000000000E+00  0.27510898049E+04  0.27510898049E+04  0.00000000000E+00 0.  1.
         -2   -1    0    0    0  501 -0.00000000000E+00 -0.00000000000E+00 -0.47461048264E+03  0.47461048264E+03  0.00000000000E+00 0. -1.
    2000013    1    1    2    0    0 -0.75032204211E+02 -0.56785311829E+03  0.75141055271E+03  0.13398525346E+04  0.95000000000E+03 0.  0.
   -2000013    1    1    2    0    0  0.75032204211E+02  0.56785311829E+03  0.15250687696E+04  0.18858477530E+04  0.95000000000E+03 0.  0.
<mgrwt>
<rscale>  0 0.22853412E+04</rscale>
<asrwt>0</asrwt>
<pdfrwt beam="1">  1        2 0.42324458E+00 0.22853412E+04</pdfrwt>
<pdfrwt beam="2">  1       -2 0.73016999E-01 0.22853412E+04</pdfrwt>
<totfact> 0.38076183E+00</totfact>
</mgrwt>
</event>
<event>
 4    1  0.1323225E-008  0.2503850E+04  0.7816531E-02  0.8401615E-01
          2   -1    0    0  501    0  0.00000000000E+00  0.00000000000E+00  0.12387127108E+04  0.12387127108E+04  0.00000000000E+00 0.  1.
         -2   -1    0    0    0  501 -0.00000000000E+00 -0.00000000000E+00 -0.12652777285E+04  0.12652777285E+04  0.00000000000E+00 0. -1.
    2000013    1    1    2    0    0 -0.33454573743E+02 -0.51860637360E+03 -0.64160428953E+03  0.12586611314E+04  0.95000000000E+03 0.  0.
   -2000013    1    1    2    0    0  0.33454573743E+02  0.51860637360E+03  0.61503927181E+03  0.12453293079E+04  0.95000000000E+03 0.  0.
<mgrwt>
<rscale>  0 0.25038495E+04</rscale>
<asrwt>0</asrwt>
<pdfrwt beam="1">  1        2 0.19057119E+00 0.25038495E+04</pdfrwt>
<pdfrwt beam="2">  1       -2 0.19465811E+00 0.25038495E+04</pdfrwt>
<totfact> 0.23104715E+00</totfact>
</mgrwt>
</event>
<event>
 4    1  0.1323225E-008  0.3197142E+04  0.7816531E-02  0.8189572E-01
         -2   -1    0    0    0  501 -0.00000000000E+00  0.00000000000E+00  0.77838413656E+03  0.77838413656E+03  0.00000000000E+00 0. -1.
          2   -1    0    0  501    0  0.00000000000E+00 -0.00000000000E+00 -0.32829915172E+04  0.32829915172E+04  0.00000000000E+00 0.  1.
    2000013    1    1    2    0    0  0.60190879439E+03 -0.75602153737E+03 -0.17510553689E+03  0.13663911266E+04  0.95000000000E+03 0.  0.
   -2000013    1    1    2    0    0 -0.60190879439E+03  0.75602153737E+03 -0.23295018437E+04  0.26949845272E+04  0.95000000000E+03 0.  0.
<mgrwt>
<rscale>  0 0.31971415E+04</rscale>
<asrwt>0</asrwt>
<pdfrwt beam="2">  1        2 0.50507561E+00 0.31971415E+04</pdfrwt>
<pdfrwt beam="1">  1       -2 0.11975141E+00 0.31971415E+04</pdfrwt>
<totfact> 0.51344941E-01</totfact>
</mgrwt>
</event>
<event>
 4    1  0.1323225E-008  0.3249811E+04  0.7816531E-02  0.8175785E-01
          2   -1    0    0  501    0  0.00000000000E+00  0.00000000000E+00  0.26487057645E+04  0.26487057645E+04  0.00000000000E+00 0.  1.
         -2   -1    0    0    0  501 -0.00000000000E+00 -0.00000000000E+00 -0.99683304368E+03  0.99683304368E+03  0.00000000000E+00 0. -1.
    2000013    1    1    2    0    0 -0.11211502754E+04  0.66975884318E+03  0.10274262282E+04  0.19140688343E+04  0.95000000000E+03 0.  0.
   -2000013    1    1    2    0    0  0.11211502754E+04 -0.66975884318E+03  0.62444649256E+03  0.17314699738E+04  0.95000000000E+03 0.  0.
<mgrwt>
<rscale>  0 0.32498107E+04</rscale>
<asrwt>0</asrwt>
<pdfrwt beam="1">  1        2 0.40749319E+00 0.32498107E+04</pdfrwt>
<pdfrwt beam="2">  1       -2 0.15335893E+00 0.32498107E+04</pdfrwt>
<totfact> 0.67452510E-01</totfact>
</mgrwt>
</event>
<event>
 4    1  0.1323225E-008  0.2868325E+04  0.7816531E-02  0.8282365E-01
         -2   -1    0    0    0  501 -0.00000000000E+00  0.00000000000E+00  0.14384907731E+04  0.14384907731E+04  0.00000000000E+00 0. -1.
          2   -1    0    0  501    0  0.00000000000E+00 -0.00000000000E+00 -0.14298467908E+04  0.14298467908E+04  0.00000000000E+00 0.  1.
    2000013    1    1    2    0    0  0.75585426471E+03 -0.66698606292E+03  0.37598930521E+03  0.14352888334E+04  0.95000000000E+03 0.  0.
   -2000013    1    1    2    0    0 -0.75585426471E+03  0.66698606292E+03 -0.36734532290E+03  0.14330487305E+04  0.95000000000E+03 0.  0.
<mgrwt>
<rscale>  0 0.28683245E+04</rscale>
<asrwt>0</asrwt>
<pdfrwt beam="2">  1        2 0.21997643E+00 0.28683245E+04</pdfrwt>
<pdfrwt beam="1">  1       -2 0.22130627E+00 0.28683245E+04</pdfrwt>
<totfact> 0.11674975E+00</totfact>
</mgrwt>
</event>
<event>
 4    1  0.1323225E-008  0.2136049E+04  0.7816531E-02  0.8545528E-01
          2   -1    0    0  501    0  0.00000000000E+00  0.00000000000E+00  0.34682319553E+04  0.34682319553E+04  0.00000000000E+00 0.  1.
         -2   -1    0    0    0  501 -0.00000000000E+00 -0.00000000000E+00 -0.32889284967E+03  0.32889284967E+03  0.00000000000E+00 0. -1.
    2000013    1    1    2    0    0  0.45634647054E+03 -0.11127935386E+03  0.18051077363E+04  0.20932150237E+04  0.95000000000E+03 0.  0.
   -2000013    1    1    2    0    0 -0.45634647054E+03  0.11127935386E+03  0.13342313693E+04  0.17039097812E+04  0.95000000000E+03 0.  0.
<mgrwt>
<rscale>  0 0.21360493E+04</rscale>
<asrwt>0</asrwt>
<pdfrwt beam="1">  1        2 0.53357412E+00 0.21360493E+04</pdfrwt>
<pdfrwt beam="2">  1       -2 0.50598902E-01 0.21360493E+04</pdfrwt>
<totfact> 0.29148044E+00</totfact>
</mgrwt>
</event>
<event>
 4    1  0.1323225E-008  0.2240760E+04  0.7816531E-02  0.8501652E-01
          2   -1    0    0  501    0  0.00000000000E+00  0.00000000000E+00  0.23400984621E+04  0.23400984621E+04  0.00000000000E+00 0.  1.
         -2   -1    0    0    0  501 -0.00000000000E+00 -0.00000000000E+00 -0.53640950863E+03  0.53640950863E+03  0.00000000000E+00 0. -1.
    2000013    1    1    2    0    0 -0.57508926923E+03 -0.14817005793E+03  0.91251037008E+03  0.14449419397E+04  0.95000000000E+03 0.  0.
   -2000013    1    1    2    0    0  0.57508926923E+03  0.14817005793E+03  0.89117858339E+03  0.14315660310E+04  0.95000000000E+03 0.  0.
<mgrwt>
<rscale>  0 0.22407598E+04</rscale>
<asrwt>0</asrwt>
<pdfrwt beam="1">  1        2 0.36001514E+00 0.22407598E+04</pdfrwt>
<pdfrwt beam="2">  1       -2 0.82524541E-01 0.22407598E+04</pdfrwt>
<totfact> 0.50493661E+00</totfact>
</mgrwt>
</event>
<event>
 4    1  0.1323225E-008  0.3627015E+04  0.7816531E-02  0.8084331E-01
         -2   -1    0    0    0  501 -0.00000000000E+00  0.00000000000E+00  0.18430937558E+04  0.18430937558E+04  0.00000000000E+00 0. -1.
          2   -1    0    0  501    0  0.00000000000E+00 -0.00000000000E+00 -0.17843962414E+04  0.17843962414E+04  0.00000000000E+00 0.  1.
    2000013    1    1    2    0    0  0.59830780203E+03  0.12844943815E+04 -0.58588342305E+03  0.18037897404E+04  0.95000000000E+03 0.  0.
   -2000013    1    1    2    0    0 -0.59830780203E+03 -0.12844943815E+04  0.64458093749E+03  0.18237002569E+04  0.95000000000E+03 0.  0.
<mgrwt>
<rscale>  0 0.36270151E+04</rscale>
<asrwt>0</asrwt>
<pdfrwt beam="2">  1        2 0.27452250E+00 0.36270151E+04</pdfrwt>
<pdfrwt beam="1">  1       -2 0.28355289E+00 0.36270151E+04</pdfrwt>
<totfact> 0.28679390E-01</totfact>
</mgrwt>
</event>
<event>
 4    1  0.1323225E-008  0.2821398E+04  0.7816531E-02  0.8296656E-01
          2   -1    0    0  501    0  0.00000000000E+00  0.00000000000E+00  0.32511501500E+04  0.32511501500E+04  0.00000000000E+00 0.  1.
         -2   -1    0    0    0  501 -0.00000000000E+00 -0.00000000000E+00 -0.61211314447E+03  0.61211314447E+03  0.00000000000E+00 0. -1.
    2000013    1    1    2    0    0 -0.66079683308E+03 -0.79341702546E+03  0.15198665902E+04  0.20684915960E+04  0.95000000000E+03 0.  0.
   -2000013    1    1    2    0    0  0.66079683308E+03  0.79341702546E+03  0.11191704153E+04  0.17947716984E+04  0.95000000000E+03 0.  0.
<mgrwt>
<rscale>  0 0.28213981E+04</rscale>
<asrwt>0</asrwt>
<pdfrwt beam="1">  1        2 0.50017694E+00 0.28213981E+04</pdfrwt>
<pdfrwt beam="2">  1       -2 0.94171254E-01 0.28213981E+04</pdfrwt>
<totfact> 0.99138188E-01</totfact>
</mgrwt>
</event>
<event>
 4    1  0.1323225E-008  0.2365621E+04  0.7816531E-02  0.8452488E-01
         -1   -1    0    0    0  501 -0.00000000000E+00  0.00000000000E+00  0.42904298820E+03  0.42904298820E+03  0.00000000000E+00 0. -1.
          1   -1    0    0  501    0  0.00000000000E+00 -0.00000000000E+00 -0.32608412907E+04  0.32608412907E+04  0.00000000000E+00 0.  1.
    2000013    1    1    2    0    0  0.63794074664E+03 -0.23744415230E+03 -0.11317210749E+04  0.16268499356E+04  0.95000000000E+03 0.  0.
   -2000013    1    1    2    0    0 -0.63794074664E+03  0.23744415230E+03 -0.17000772277E+04  0.20630343433E+04  0.95000000000E+03 0.  0.
<mgrwt>
<rscale>  0 0.23656213E+04</rscale>
<asrwt>0</asrwt>
<pdfrwt beam="2">  1        1 0.50166790E+00 0.23656213E+04</pdfrwt>
<pdfrwt beam="1">  1       -1 0.66006613E-01 0.23656213E+04</pdfrwt>
<totfact> 0.80037102E-01</totfact>
</mgrwt>
</event>
<event>
 4    1  0.1323225E-008  0.3710934E+04  0.7816531E-02  0.8065543E-01
          2   -1    0    0  501    0  0.00000000000E+00  0.00000000000E+00  0.19022361079E+04  0.19022361079E+04  0.00000000000E+00 0.  1.
         -2   -1    0    0    0  501 -0.00000000000E+00 -0.00000000000E+00 -0.18098479106E+04  0.18098479106E+04  0.00000000000E+00 0. -1.
    2000013    1    1    2    0    0 -0.19067766233E+02 -0.15869469107E+04  0.19284774012E+03  0.18596919982E+04  0.95000000000E+03 0.  0.
   -2000013    1    1    2    0    0  0.19067766233E+02  0.15869469107E+04 -0.10045954287E+03  0.18523920203E+04  0.95000000000E+03 0.  0.
<mgrwt>
<rscale>  0 0.37109341E+04</rscale>
<asrwt>0</asrwt>
<pdfrwt beam="1">  1        2 0.29265171E+00 0.37109341E+04</pdfrwt>
<pdfrwt beam="2">  1       -2 0.27843814E+00 0.37109341E+04</pdfrwt>
<totfact> 0.26326270E-01</totfact>
</mgrwt>
</event>
<event>
 4    1  0.1323225E-008  0.2985473E+04  0.7816531E-02  0.8247891E-01
         -2   -1    0    0    0  501 -0.00000000000E+00  0.00000000000E+00  0.19048342390E+04  0.19048342390E+04  0.00000000000E+00 0. -1.
          2   -1    0    0  501    0  0.00000000000E+00 -0.00000000000E+00 -0.11697928837E+04  0.11697928837E+04  0.00000000000E+00 0.  1.
    2000013    1    1    2    0    0 -0.35678993660E+03 -0.86229135580E+03 -0.32709571497E+03  0.13712538233E+04  0.95000000000E+03 0.  0.
   -2000013    1    1    2    0    0  0.35678993660E+03  0.86229135580E+03  0.10621370702E+04  0.17033732994E+04  0.95000000000E+03 0.  0.
<mgrwt>
<rscale>  0 0.29854725E+04</rscale>
<asrwt>0</asrwt>
<pdfrwt beam="2">  1        2 0.17996814E+00 0.29854725E+04</pdfrwt>
<pdfrwt beam="1">  1       -2 0.29305142E+00 0.29854725E+04</pdfrwt>
<totfact> 0.59326098E-01</totfact>
</mgrwt>
</event>
<event>
 4    1  0.1323225E-008  0.2809548E+04  0.7816531E-02  0.8300310E-01
          2   -1    0    0  501    0  0.00000000000E+00  0.00000000000E+00  0.26363870019E+04  0.26363870019E+04  0.00000000000E+00 0.  1.
         -2   -1    0    0    0  501 -0.00000000000E+00 -0.00000000000E+00 -0.74852036239E+03  0.74852036239E+03  0.00000000000E+00 0. -1.
    2000013    1    1    2    0    0 -0.72388100835E+03  0.73379981445E+03  0.10545080717E+04  0.17541246122E+04  0.95000000000E+03 0.  0.
   -2000013    1    1    2    0    0  0.72388100835E+03 -0.73379981445E+03  0.83335856786E+03  0.16307827521E+04  0.95000000000E+03 0.  0.
<mgrwt>
<rscale>  0 0.28095475E+04</rscale>
<asrwt>0</asrwt>
<pdfrwt beam="1">  1        2 0.40559800E+00 0.28095475E+04</pdfrwt>
<pdfrwt beam="2">  1       -2 0.11515698E+00 0.28095475E+04</pdfrwt>
<totfact> 0.14796784E+00</totfact>
</mgrwt>
</event>
<event>
 4    1  0.1323225E-008  0.2153478E+04  0.7816531E-02  0.8538045E-01
         -4   -1    0    0    0  501 -0.00000000000E+00  0.00000000000E+00  0.53832603874E+03  0.53832603874E+03  0.00000000000E+00 0. -1.
          4   -1    0    0  501    0  0.00000000000E+00 -0.00000000000E+00 -0.21536522947E+04  0.21536522947E+04  0.00000000000E+00 0.  1.
    2000013    1    1    2    0    0  0.21162459919E+03  0.44066363043E+03 -0.97489910780E+03  0.14463394057E+04  0.95000000000E+03 0.  0.
   -2000013    1    1    2    0    0 -0.21162459919E+03 -0.44066363043E+03 -0.64042714817E+03  0.12456389277E+04  0.95000000000E+03 0.  0.
<mgrwt>
<rscale>  0 0.21534782E+04</rscale>
<asrwt>0</asrwt>
<pdfrwt beam="2">  1        4 0.33133112E+00 0.21534782E+04</pdfrwt>
<pdfrwt beam="1">  1       -4 0.82819392E-01 0.21534782E+04</pdfrwt>
<totfact> 0.46130814E-02</totfact>
</mgrwt>
</event>
<event>
 4    1  0.1323225E-008  0.2085700E+04  0.7816531E-02  0.8567569E-01
         -2   -1    0    0    0  501 -0.00000000000E+00  0.00000000000E+00  0.10954415687E+04  0.10954415687E+04  0.00000000000E+00 0. -1.
          2   -1    0    0  501    0  0.00000000000E+00 -0.00000000000E+00 -0.99278298141E+03  0.99278298141E+03  0.00000000000E+00 0.  1.
    2000013    1    1    2    0    0  0.42070521925E+03 -0.88602097998E+02  0.37436859030E+02  0.10434293132E+04  0.95000000000E+03 0.  0.
   -2000013    1    1    2    0    0 -0.42070521925E+03  0.88602097998E+02  0.65221728305E+02  0.10447952369E+04  0.95000000000E+03 0.  0.
<mgrwt>
<rscale>  0 0.20856996E+04</rscale>
<asrwt>0</asrwt>
<pdfrwt beam="2">  1        2 0.15273584E+00 0.20856996E+04</pdfrwt>
<pdfrwt beam="1">  1       -2 0.16852947E+00 0.20856996E+04</pdfrwt>
<totfact> 0.51279819E+00</totfact>
</mgrwt>
</event>
<event>
 4    1  0.1323225E-008  0.2279375E+04  0.7816531E-02  0.8486098E-01
         -2   -1    0    0    0  501 -0.00000000000E+00  0.00000000000E+00  0.61971175425E+03  0.61971175425E+03  0.00000000000E+00 0. -1.
          2   -1    0    0  501    0  0.00000000000E+00 -0.00000000000E+00 -0.20959537969E+04  0.20959537969E+04  0.00000000000E+00 0.  1.
    2000013    1    1    2    0    0  0.46213135525E+03  0.28779229780E+03 -0.11148724779E+04  0.15626357343E+04  0.95000000000E+03 0.  0.
   -2000013    1    1    2    0    0 -0.46213135525E+03 -0.28779229780E+03 -0.36136956474E+03  0.11530298168E+04  0.95000000000E+03 0.  0.
<mgrwt>
<rscale>  0 0.22793747E+04</rscale>
<asrwt>0</asrwt>
<pdfrwt beam="2">  1        2 0.32245443E+00 0.22793747E+04</pdfrwt>
<pdfrwt beam="1">  1       -2 0.95340270E-01 0.22793747E+04</pdfrwt>
<totfact> 0.49570825E+00</totfact>
</mgrwt>
</event>
<event>
 4    1  0.1323225E-008  0.2579640E+04  0.7816531E-02  0.8375150E-01
         -2   -1    0    0    0  501 -0.00000000000E+00  0.00000000000E+00  0.79229493643E+03  0.79229493643E+03  0.00000000000E+00 0. -1.
          2   -1    0    0  501    0  0.00000000000E+00 -0.00000000000E+00 -0.20997686377E+04  0.20997686377E+04  0.00000000000E+00 0.  1.
    2000013    1    1    2    0    0 -0.65790041328E+03  0.33081733176E+03 -0.11782239975E+04  0.16831473046E+04  0.95000000000E+03 0.  0.
   -2000013    1    1    2    0    0  0.65790041328E+03 -0.33081733176E+03 -0.12924970378E+03  0.12089162695E+04  0.95000000000E+03 0.  0.
<mgrwt>
<rscale>  0 0.25796403E+04</rscale>
<asrwt>0</asrwt>
<pdfrwt beam="2">  1        2 0.32304133E+00 0.25796403E+04</pdfrwt>
<pdfrwt beam="1">  1       -2 0.12189153E+00 0.25796403E+04</pdfrwt>
<totfact> 0.26595434E+00</totfact>
</mgrwt>
</event>
<event>
 4    1  0.1323225E-008  0.2866617E+04  0.7816531E-02  0.8282880E-01
         -2   -1    0    0    0  501 -0.00000000000E+00  0.00000000000E+00  0.92132401764E+03  0.92132401764E+03  0.00000000000E+00 0. -1.
          2   -1    0    0  501    0  0.00000000000E+00 -0.00000000000E+00 -0.22298048782E+04  0.22298048782E+04  0.00000000000E+00 0.  1.
    2000013    1    1    2    0    0 -0.26653444295E+03 -0.10147476560E+04 -0.90277643375E+03  0.16787670189E+04  0.95000000000E+03 0.  0.
   -2000013    1    1    2    0    0  0.26653444295E+03  0.10147476560E+04 -0.40570442679E+03  0.14723618769E+04  0.95000000000E+03 0.  0.
<mgrwt>
<rscale>  0 0.28666167E+04</rscale>
<asrwt>0</asrwt>
<pdfrwt beam="2">  1        2 0.34304690E+00 0.28666167E+04</pdfrwt>
<pdfrwt beam="1">  1       -2 0.14174216E+00 0.28666167E+04</pdfrwt>
<totfact> 0.14951046E+00</totfact>
</mgrwt>
</event>
<event>
 4    1  0.1323225E-008  0.2514959E+04  0.7816531E-02  0.8397676E-01
          2   -1    0    0  501    0  0.00000000000E+00  0.00000000000E+00  0.22735908364E+04  0.22735908364E+04  0.00000000000E+00 0.  1.
         -2   -1    0    0    0  501 -0.00000000000E+00 -0.00000000000E+00 -0.69548753872E+03  0.69548753872E+03  0.00000000000E+00 0. -1.
    2000013    1    1    2    0    0  0.45601183538E+03 -0.30492625133E+03  0.15147188459E+04  0.18702406248E+04  0.95000000000E+03 0.  0.
   -2000013    1    1    2    0    0 -0.45601183538E+03  0.30492625133E+03  0.63384451830E+02  0.10988377503E+04  0.95000000000E+03 0.  0.
<mgrwt>
<rscale>  0 0.25149585E+04</rscale>
<asrwt>0</asrwt>
<pdfrwt beam="1">  1        2 0.34978320E+00 0.25149585E+04</pdfrwt>
<pdfrwt beam="2">  1       -2 0.10699808E+00 0.25149585E+04</pdfrwt>
<totfact> 0.29360047E+00</totfact>
</mgrwt>
</event>
<event>
 4    1  0.1323225E-008  0.2928256E+04  0.7816531E-02  0.8264520E-01
         -1   -1    0    0    0  501 -0.00000000000E+00  0.00000000000E+00  0.11196580360E+04  0.11196580360E+04  0.00000000000E+00 0. -1.
          1   -1    0    0  501    0  0.00000000000E+00 -0.00000000000E+00 -0.19145761448E+04  0.19145761448E+04  0.00000000000E+00 0.  1.
    2000013    1    1    2    0    0  0.28256776674E+03 -0.10659174629E+04 -0.56177299462E+03  0.15601645676E+04  0.95000000000E+03 0.  0.
   -2000013    1    1    2    0    0 -0.28256776674E+03  0.10659174629E+04 -0.23314511418E+03  0.14740696133E+04  0.95000000000E+03 0.  0.
<mgrwt>
<rscale>  0 0.29282558E+04</rscale>
<asrwt>0</asrwt>
<pdfrwt beam="2">  1        1 0.29455018E+00 0.29282558E+04</pdfrwt>
<pdfrwt beam="1">  1       -1 0.17225508E+00 0.29282558E+04</pdfrwt>
<totfact> 0.69074678E-01</totfact>
</mgrwt>
</event>
<event>
 4    1  0.1323225E-008  0.2395263E+04  0.7816531E-02  0.8441279E-01
          2   -1    0    0  501    0  0.00000000000E+00  0.00000000000E+00  0.97044744724E+03  0.97044744724E+03  0.00000000000E+00 0.  1.
         -2   -1    0    0    0  501 -0.00000000000E+00 -0.00000000000E+00 -0.14779995330E+04  0.14779995330E+04  0.00000000000E+00 0. -1.
    2000013    1    1    2    0    0 -0.32855616697E+03 -0.53107778441E+03  0.13118670034E+03  0.11444224387E+04  0.95000000000E+03 0.  0.
   -2000013    1    1    2    0    0  0.32855616697E+03  0.53107778441E+03 -0.63873878605E+03  0.13040245415E+04  0.95000000000E+03 0.  0.
<mgrwt>
<rscale>  0 0.23952627E+04</rscale>
<asrwt>0</asrwt>
<pdfrwt beam="1">  1        2 0.14929961E+00 0.23952627E+04</pdfrwt>
<pdfrwt beam="2">  1       -2 0.22738454E+00 0.23952627E+04</pdfrwt>
<totfact> 0.21021249E+00</totfact>
</mgrwt>
</event>
<event>
 4    1  0.1323225E-008  0.2404416E+04  0.7816531E-02  0.8437852E-01
          1   -1    0    0  501    0  0.00000000000E+00  0.00000000000E+00  0.37283644977E+04  0.37283644977E+04  0.00000000000E+00 0.  1.
         -1   -1    0    0    0  501 -0.00000000000E+00 -0.00000000000E+00 -0.38765102595E+03  0.38765102595E+03  0.00000000000E+00 0. -1.
    2000013    1    1    2    0    0 -0.15675335404E+03  0.69963871593E+03  0.13801560281E+04  0.18224699198E+04  0.95000000000E+03 0.  0.
   -2000013    1    1    2    0    0  0.15675335404E+03 -0.69963871593E+03  0.19605574436E+04  0.22935456038E+04  0.95000000000E+03 0.  0.
<mgrwt>
<rscale>  0 0.24044162E+04</rscale>
<asrwt>0</asrwt>
<pdfrwt beam="1">  1        1 0.57359451E+00 0.24044162E+04</pdfrwt>
<pdfrwt beam="2">  1       -1 0.59638622E-01 0.24044162E+04</pdfrwt>
<totfact> 0.41841667E-01</totfact>
</mgrwt>
</event>
<event>
 4    1  0.1323225E-008  0.2295585E+04  0.7816531E-02  0.8479664E-01
          2   -1    0    0  501    0  0.00000000000E+00  0.00000000000E+00  0.30506158035E+04  0.30506158035E+04  0.00000000000E+00 0.  1.
         -2   -1    0    0    0  501 -0.00000000000E+00 -0.00000000000E+00 -0.43185614545E+03  0.43185614545E+03  0.00000000000E+00 0. -1.
    2000013    1    1    2    0    0  0.60823051206E+03 -0.17320822772E+03  0.14950642186E+04  0.18808674764E+04  0.95000000000E+03 0.  0.
   -2000013    1    1    2    0    0 -0.60823051206E+03  0.17320822772E+03  0.11236954395E+04  0.16016044726E+04  0.95000000000E+03 0.  0.
<mgrwt>
<rscale>  0 0.22955846E+04</rscale>
<asrwt>0</asrwt>
<pdfrwt beam="1">  1        2 0.46932549E+00 0.22955846E+04</pdfrwt>
<pdfrwt beam="2">  1       -2 0.66439409E-01 0.22955846E+04</pdfrwt>
<totfact> 0.30583664E+00</totfact>
</mgrwt>
</event>
<event>
 4    1  0.1323225E-008  0.2928344E+04  0.7816531E-02  0.8264494E-01
         -2   -1    0    0    0  501 -0.00000000000E+00  0.00000000000E+00  0.93647766899E+03  0.93647766899E+03  0.00000000000E+00 0. -1.
          2   -1    0    0  501    0  0.00000000000E+00 -0.00000000000E+00 -0.22892163788E+04  0.22892163788E+04  0.00000000000E+00 0.  1.
    2000013    1    1    2    0    0  0.23688286079E+03 -0.68449014576E+03  0.25614935589E+03  0.12217826083E+04  0.95000000000E+03 0.  0.
   -2000013    1    1    2    0    0 -0.23688286079E+03  0.68449014576E+03 -0.16088880657E+04  0.20039114395E+04  0.95000000000E+03 0.  0.
<mgrwt>
<rscale>  0 0.29283443E+04</rscale>
<asrwt>0</asrwt>
<pdfrwt beam="2">  1        2 0.35218713E+00 0.29283443E+04</pdfrwt>
<pdfrwt beam="1">  1       -2 0.14407349E+00 0.29283443E+04</pdfrwt>
<totfact> 0.13192156E+00</totfact>
</mgrwt>
</event>
<event>
 4    1  0.1323225E-008  0.2807243E+04  0.7816531E-02  0.8301023E-01
          2   -1    0    0  501    0  0.00000000000E+00  0.00000000000E+00  0.13034137495E+04  0.13034137495E+04  0.00000000000E+00 0.  1.
         -2   -1    0    0    0  501 -0.00000000000E+00 -0.00000000000E+00 -0.15115329571E+04  0.15115329571E+04  0.00000000000E+00 0. -1.
    2000013    1    1    2    0    0  0.40957597604E+03 -0.89066803858E+03  0.22334956061E+03  0.13832668077E+04  0.95000000000E+03 0.  0.
   -2000013    1    1    2    0    0 -0.40957597604E+03  0.89066803858E+03 -0.43146876822E+03  0.14316798989E+04  0.95000000000E+03 0.  0.
<mgrwt>
<rscale>  0 0.28072427E+04</rscale>
<asrwt>0</asrwt>
<pdfrwt beam="1">  1        2 0.20052519E+00 0.28072427E+04</pdfrwt>
<pdfrwt beam="2">  1       -2 0.23254353E+00 0.28072427E+04</pdfrwt>
<totfact> 0.11795494E+00</totfact>
</mgrwt>
</event>
<event>
 4    1  0.1323225E-008  0.2752355E+04  0.7816531E-02  0.8318215E-01
          2   -1    0    0  501    0  0.00000000000E+00  0.00000000000E+00  0.17470233208E+04  0.17470233208E+04  0.00000000000E+00 0.  1.
         -2   -1    0    0    0  501 -0.00000000000E+00 -0.00000000000E+00 -0.10840520139E+04  0.10840520139E+04  0.00000000000E+00 0. -1.
    2000013    1    1    2    0    0 -0.34919596413E+03  0.65375640579E+03  0.10153537538E+04  0.15756835040E+04  0.95000000000E+03 0.  0.
   -2000013    1    1    2    0    0  0.34919596413E+03 -0.65375640579E+03 -0.35238244691E+03  0.12553918306E+04  0.95000000000E+03 0.  0.
<mgrwt>
<rscale>  0 0.27523547E+04</rscale>
<asrwt>0</asrwt>
<pdfrwt beam="1">  1        2 0.26877282E+00 0.27523547E+04</pdfrwt>
<pdfrwt beam="2">  1       -2 0.16677723E+00 0.27523547E+04</pdfrwt>
<totfact> 0.18132933E+00</totfact>
</mgrwt>
</event>
<event>
 4    1  0.1323225E-008  0.2498249E+04  0.7816531E-02  0.8403610E-01
          2   -1    0    0  501    0  0.00000000000E+00  0.00000000000E+00  0.35911906751E+04  0.35911906751E+04  0.00000000000E+00 0.  1.
         -2   -1    0    0    0  501 -0.00000000000E+00 -0.00000000000E+00 -0.43448312211E+03  0.43448312211E+03  0.00000000000E+00 0. -1.
    2000013    1    1    2    0    0  0.80711355469E+03  0.70928844427E+02  0.15191791263E+04  0.19664354576E+04  0.95000000000E+03 0.  0.
   -2000013    1    1    2    0    0 -0.80711355469E+03 -0.70928844427E+02  0.16375284268E+04  0.20592383397E+04  0.95000000000E+03 0.  0.
<mgrwt>
<rscale>  0 0.24982488E+04</rscale>
<asrwt>0</asrwt>
<pdfrwt beam="1">  1        2 0.55249085E+00 0.24982488E+04</pdfrwt>
<pdfrwt beam="2">  1       -2 0.66843560E-01 0.24982488E+04</pdfrwt>
<totfact> 0.12863670E+00</totfact>
</mgrwt>
</event>
<event>
 4    1  0.1323225E-008  0.2085380E+04  0.7816531E-02  0.8567711E-01
          2   -1    0    0  501    0  0.00000000000E+00  0.00000000000E+00  0.10038681671E+04  0.10038681671E+04  0.00000000000E+00 0.  1.
         -2   -1    0    0    0  501 -0.00000000000E+00 -0.00000000000E+00 -0.10830134399E+04  0.10830134399E+04  0.00000000000E+00 0. -1.
    2000013    1    1    2    0    0 -0.34950422778E+03 -0.90594185822E+02 -0.27285460949E+03  0.10522880545E+04  0.95000000000E+03 0.  0.
   -2000013    1    1    2    0    0  0.34950422778E+03  0.90594185822E+02  0.19370933674E+03  0.10345935525E+04  0.95000000000E+03 0.  0.
<mgrwt>
<rscale>  0 0.20853803E+04</rscale>
<asrwt>0</asrwt>
<pdfrwt beam="1">  1        2 0.15444126E+00 0.20853803E+04</pdfrwt>
<pdfrwt beam="2">  1       -2 0.16661745E+00 0.20853803E+04</pdfrwt>
<totfact> 0.52067072E+00</totfact>
</mgrwt>
</event>
<event>
 4    1  0.1323225E-008  0.2544038E+04  0.7816531E-02  0.8387463E-01
          2   -1    0    0  501    0  0.00000000000E+00  0.00000000000E+00  0.10564921107E+04  0.10564921107E+04  0.00000000000E+00 0.  1.
         -2   -1    0    0    0  501 -0.00000000000E+00 -0.00000000000E+00 -0.15315133180E+04  0.15315133180E+04  0.00000000000E+00 0. -1.
    2000013    1    1    2    0    0 -0.61968452973E+03  0.31264588445E+03 -0.72937008557E+03  0.13842821559E+04  0.95000000000E+03 0.  0.
   -2000013    1    1    2    0    0  0.61968452973E+03 -0.31264588445E+03  0.25434887832E+03  0.12037232727E+04  0.95000000000E+03 0.  0.
<mgrwt>
<rscale>  0 0.25440375E+04</rscale>
<asrwt>0</asrwt>
<pdfrwt beam="1">  1        2 0.16253725E+00 0.25440375E+04</pdfrwt>
<pdfrwt beam="2">  1       -2 0.23561743E+00 0.25440375E+04</pdfrwt>
<totfact> 0.16250163E+00</totfact>
</mgrwt>
</event>
<event>
 4    1  0.1323225E-008  0.3340749E+04  0.7816531E-02  0.8152604E-01
         -2   -1    0    0    0  501 -0.00000000000E+00  0.00000000000E+00  0.85631848219E+03  0.85631848219E+03  0.00000000000E+00 0. -1.
          2   -1    0    0  501    0  0.00000000000E+00 -0.00000000000E+00 -0.32583089302E+04  0.32583089302E+04  0.00000000000E+00 0.  1.
    2000013    1    1    2    0    0 -0.25463361943E+03  0.12901747736E+04 -0.71102059885E+03  0.17712818857E+04  0.95000000000E+03 0.  0.
   -2000013    1    1    2    0    0  0.25463361943E+03 -0.12901747736E+04 -0.16909698492E+04  0.23433455267E+04  0.95000000000E+03 0.  0.
<mgrwt>
<rscale>  0 0.33407485E+04</rscale>
<asrwt>0</asrwt>
<pdfrwt beam="2">  1        2 0.50127830E+00 0.33407485E+04</pdfrwt>
<pdfrwt beam="1">  1       -2 0.13174131E+00 0.33407485E+04</pdfrwt>
<totfact> 0.41450964E-01</totfact>
</mgrwt>
</event>
<event>
 4    1  0.1323225E-008  0.2263851E+04  0.7816531E-02  0.8492312E-01
          2   -1    0    0  501    0  0.00000000000E+00  0.00000000000E+00  0.22664147973E+04  0.22664147973E+04  0.00000000000E+00 0.  1.
         -2   -1    0    0    0  501 -0.00000000000E+00 -0.00000000000E+00 -0.56532263517E+03  0.56532263517E+03  0.00000000000E+00 0. -1.
    2000013    1    1    2    0    0 -0.18630857281E+02 -0.54852140179E+03  0.50225071995E+03  0.12066393922E+04  0.95000000000E+03 0.  0.
   -2000013    1    1    2    0    0  0.18630857281E+02  0.54852140179E+03  0.11988414422E+04  0.16250980403E+04  0.95000000000E+03 0.  0.
<mgrwt>
<rscale>  0 0.22638512E+04</rscale>
<asrwt>0</asrwt>
<pdfrwt beam="1">  1        2 0.34867920E+00 0.22638512E+04</pdfrwt>
<pdfrwt beam="2">  1       -2 0.86972714E-01 0.22638512E+04</pdfrwt>
<totfact> 0.49239312E+00</totfact>
</mgrwt>
</event>
<event>
 4    1  0.1323225E-008  0.2238970E+04  0.7816531E-02  0.8502381E-01
          2   -1    0    0  501    0  0.00000000000E+00  0.00000000000E+00  0.25744537914E+04  0.25744537914E+04  0.00000000000E+00 0.  1.
         -2   -1    0    0    0  501 -0.00000000000E+00 -0.00000000000E+00 -0.48680082496E+03  0.48680082496E+03  0.00000000000E+00 0. -1.
    2000013    1    1    2    0    0 -0.55866010637E+03 -0.13247096886E+03  0.12424163344E+04  0.16660576281E+04  0.95000000000E+03 0.  0.
   -2000013    1    1    2    0    0  0.55866010637E+03  0.13247096886E+03  0.84523663208E+03  0.13951969883E+04  0.95000000000E+03 0.  0.
<mgrwt>
<rscale>  0 0.22389696E+04</rscale>
<asrwt>0</asrwt>
<pdfrwt beam="1">  1        2 0.39606981E+00 0.22389696E+04</pdfrwt>
<pdfrwt beam="2">  1       -2 0.74892436E-01 0.22389696E+04</pdfrwt>
<totfact> 0.45982817E+00</totfact>
</mgrwt>
</event>
<event>
 4    1  0.1323225E-008  0.2618217E+04  0.7816531E-02  0.8362040E-01
          1   -1    0    0  501    0  0.00000000000E+00  0.00000000000E+00  0.17163540590E+04  0.17163540590E+04  0.00000000000E+00 0. -1.
         -1   -1    0    0    0  501 -0.00000000000E+00 -0.00000000000E+00 -0.99849158327E+03  0.99849158327E+03  0.00000000000E+00 0.  1.
    2000013    1    1    2    0    0 -0.85854661184E+03 -0.27176332744E+03  0.37711382652E+03  0.13622306813E+04  0.95000000000E+03 0.  0.
   -2000013    1    1    2    0    0  0.85854661184E+03  0.27176332744E+03  0.34074864924E+03  0.13526149610E+04  0.95000000000E+03 0.  0.
<mgrwt>
<rscale>  0 0.26182170E+04</rscale>
<asrwt>0</asrwt>
<pdfrwt beam="1">  1        1 0.26405447E+00 0.26182170E+04</pdfrwt>
<pdfrwt beam="2">  1       -1 0.15361409E+00 0.26182170E+04</pdfrwt>
<totfact> 0.13359343E+00</totfact>
</mgrwt>
</event>
<event>
 4    1  0.1323225E-008  0.2204155E+04  0.7816531E-02  0.8516701E-01
         -1   -1    0    0    0  501 -0.00000000000E+00  0.00000000000E+00  0.78636309948E+03  0.78636309948E+03  0.00000000000E+00 0. -1.
          1   -1    0    0  501    0  0.00000000000E+00 -0.00000000000E+00 -0.15445475216E+04  0.15445475216E+04  0.00000000000E+00 0.  1.
    2000013    1    1    2    0    0  0.39489646956E+03 -0.32517777094E+03 -0.14170270534E+03  0.10882386967E+04  0.95000000000E+03 0.  0.
   -2000013    1    1    2    0    0 -0.39489646956E+03  0.32517777094E+03 -0.61648171677E+03  0.12426719243E+04  0.95000000000E+03 0.  0.
<mgrwt>
<rscale>  0 0.22041553E+04</rscale>
<asrwt>0</asrwt>
<pdfrwt beam="2">  1        1 0.23762269E+00 0.22041553E+04</pdfrwt>
<pdfrwt beam="1">  1       -1 0.12097894E+00 0.22041553E+04</pdfrwt>
<totfact> 0.33699352E+00</totfact>
</mgrwt>
</event>
<event>
 4    1  0.1323225E-008  0.2666554E+04  0.7816531E-02  0.8345939E-01
          2   -1    0    0  501    0  0.00000000000E+00  0.00000000000E+00  0.16654798988E+04  0.16654798988E+04  0.00000000000E+00 0.  1.
         -2   -1    0    0    0  501 -0.00000000000E+00 -0.00000000000E+00 -0.10673365569E+04  0.10673365569E+04  0.00000000000E+00 0. -1.
    2000013    1    1    2    0    0 -0.34061821526E+03  0.68296001229E+03 -0.25536377553E+03  0.12450565468E+04  0.95000000000E+03 0.  0.
   -2000013    1    1    2    0    0  0.34061821526E+03 -0.68296001229E+03  0.85350711748E+03  0.14877599089E+04  0.95000000000E+03 0.  0.
<mgrwt>
<rscale>  0 0.26665540E+04</rscale>
<asrwt>0</asrwt>
<pdfrwt beam="1">  1        2 0.25622768E+00 0.26665540E+04</pdfrwt>
<pdfrwt beam="2">  1       -2 0.16420562E+00 0.26665540E+04</pdfrwt>
<totfact> 0.21160890E+00</totfact>
</mgrwt>
</event>
<event>
 4    1  0.1323225E-008  0.2161044E+04  0.7816531E-02  0.8534820E-01
          2   -1    0    0  501    0  0.00000000000E+00  0.00000000000E+00  0.15267416905E+04  0.15267416905E+04  0.00000000000E+00 0.  1.
         -2   -1    0    0    0  501 -0.00000000000E+00 -0.00000000000E+00 -0.76471829653E+03  0.76471829653E+03  0.00000000000E+00 0. -1.
    2000013    1    1    2    0    0 -0.47848015116E+03  0.18034975652E+03  0.31776284465E+03  0.11246966325E+04  0.95000000000E+03 0.  0.
   -2000013    1    1    2    0    0  0.47848015116E+03 -0.18034975652E+03  0.44426054927E+03  0.11667633545E+04  0.95000000000E+03 0.  0.
<mgrwt>
<rscale>  0 0.21610435E+04</rscale>
<asrwt>0</asrwt>
<pdfrwt beam="1">  1        2 0.23488334E+00 0.21610435E+04</pdfrwt>
<pdfrwt beam="2">  1       -2 0.11764897E+00 0.21610435E+04</pdfrwt>
<totfact> 0.62702861E+00</totfact>
</mgrwt>
</event>
<event>
 4    1  0.1323225E-008  0.2148468E+04  0.7816531E-02  0.8540188E-01
          2   -1    0    0  501    0  0.00000000000E+00  0.00000000000E+00  0.18303975956E+04  0.18303975956E+04  0.00000000000E+00 0.  1.
         -2   -1    0    0    0  501 -0.00000000000E+00 -0.00000000000E+00 -0.63045231540E+03  0.63045231540E+03  0.00000000000E+00 0. -1.
    2000013    1    1    2    0    0  0.18196383135E+03 -0.33935062133E+03  0.96794440093E+03  0.14098531992E+04  0.95000000000E+03 0.  0.
   -2000013    1    1    2    0    0 -0.18196383135E+03  0.33935062133E+03  0.23200087925E+03  0.10509967117E+04  0.95000000000E+03 0.  0.
<mgrwt>
<rscale>  0 0.21484677E+04</rscale>
<asrwt>0</asrwt>
<pdfrwt beam="1">  1        2 0.28159963E+00 0.21484677E+04</pdfrwt>
<pdfrwt beam="2">  1       -2 0.96992665E-01 0.21484677E+04</pdfrwt>
<totfact> 0.67631165E+00</totfact>
</mgrwt>
</event>
<event>
 4    1  0.1323225E-008  0.2336049E+04  0.7816531E-02  0.8463842E-01
          2   -1    0    0  501    0  0.00000000000E+00  0.00000000000E+00  0.33095099011E+04  0.33095099011E+04  0.00000000000E+00 0.  1.
         -2   -1    0    0    0  501 -0.00000000000E+00 -0.00000000000E+00 -0.41223065465E+03  0.41223065465E+03  0.00000000000E+00 0. -1.
    2000013    1    1    2    0    0 -0.26027333193E+02 -0.63601270353E+03  0.10696380015E+04  0.15658272687E+04  0.95000000000E+03 0.  0.
   -2000013    1    1    2    0    0  0.26027333193E+02  0.63601270353E+03  0.18276412450E+04  0.21559132871E+04  0.95000000000E+03 0.  0.
<mgrwt>
<rscale>  0 0.23360492E+04</rscale>
<asrwt>0</asrwt>
<pdfrwt beam="1">  1        2 0.50915535E+00 0.23360492E+04</pdfrwt>
<pdfrwt beam="2">  1       -2 0.63420103E-01 0.23360492E+04</pdfrwt>
<totfact> 0.22874330E+00</totfact>
</mgrwt>
</event>
<event>
 4    1  0.1323225E-008  0.2195986E+04  0.7816531E-02  0.8520101E-01
         -2   -1    0    0    0  501 -0.00000000000E+00  0.00000000000E+00  0.11725837709E+04  0.11725837709E+04  0.00000000000E+00 0. -1.
          2   -1    0    0  501    0  0.00000000000E+00 -0.00000000000E+00 -0.10281471308E+04  0.10281471308E+04  0.00000000000E+00 0.  1.
    2000013    1    1    2    0    0 -0.39679660983E+03  0.37894473088E+03  0.11750424232E+03  0.11033376209E+04  0.95000000000E+03 0.  0.
   -2000013    1    1    2    0    0  0.39679660983E+03 -0.37894473088E+03  0.26932397788E+02  0.10973932808E+04  0.95000000000E+03 0.  0.
<mgrwt>
<rscale>  0 0.21959860E+04</rscale>
<asrwt>0</asrwt>
<pdfrwt beam="2">  1        2 0.15817648E+00 0.21959860E+04</pdfrwt>
<pdfrwt beam="1">  1       -2 0.18039750E+00 0.21959860E+04</pdfrwt>
<totfact> 0.39806131E+00</totfact>
</mgrwt>
</event>
<event>
 4    1  0.1323225E-008  0.2852916E+04  0.7816531E-02  0.8287026E-01
          2   -1    0    0  501    0  0.00000000000E+00  0.00000000000E+00  0.33591133781E+04  0.33591133781E+04  0.00000000000E+00 0.  1.
         -2   -1    0    0    0  501 -0.00000000000E+00 -0.00000000000E+00 -0.60574993679E+03  0.60574993679E+03  0.00000000000E+00 0. -1.
    2000013    1    1    2    0    0 -0.55259798389E+03  0.88553162047E+03  0.16640356143E+04  0.21819819679E+04  0.95000000000E+03 0.  0.
   -2000013    1    1    2    0    0  0.55259798389E+03 -0.88553162047E+03  0.10893278270E+04  0.17828813470E+04  0.95000000000E+03 0.  0.
<mgrwt>
<rscale>  0 0.28529162E+04</rscale>
<asrwt>0</asrwt>
<pdfrwt beam="1">  1        2 0.51678666E+00 0.28529162E+04</pdfrwt>
<pdfrwt beam="2">  1       -2 0.93192301E-01 0.28529162E+04</pdfrwt>
<totfact> 0.85804175E-01</totfact>
</mgrwt>
</event>
<event>
 4    1  0.1323225E-008  0.2239922E+04  0.7816531E-02  0.8501993E-01
         -2   -1    0    0    0  501 -0.00000000000E+00  0.00000000000E+00  0.70533857724E+03  0.70533857724E+03  0.00000000000E+00 0. -1.
          2   -1    0    0  501    0  0.00000000000E+00 -0.00000000000E+00 -0.17783125515E+04  0.17783125515E+04  0.00000000000E+00 0.  1.
    2000013    1    1    2    0    0 -0.21974935692E+03  0.34148884378E+03 -0.57116033014E+02  0.10347302313E+04  0.95000000000E+03 0.  0.
   -2000013    1    1    2    0    0  0.21974935692E+03 -0.34148884378E+03 -0.10158579412E+04  0.14489208974E+04  0.95000000000E+03 0.  0.
<mgrwt>
<rscale>  0 0.22399218E+04</rscale>
<asrwt>0</asrwt>
<pdfrwt beam="2">  1        2 0.27358655E+00 0.22399218E+04</pdfrwt>
<pdfrwt beam="1">  1       -2 0.10851363E+00 0.22399218E+04</pdfrwt>
<totfact> 0.54883403E+00</totfact>
</mgrwt>
</event>
<event>
 4    1  0.1323225E-008  0.2051560E+04  0.7816531E-02  0.8582887E-01
          2   -1    0    0  501    0  0.00000000000E+00  0.00000000000E+00  0.20573128831E+04  0.20573128831E+04  0.00000000000E+00 0.  1.
         -2   -1    0    0    0  501 -0.00000000000E+00 -0.00000000000E+00 -0.51145600238E+03  0.51145600238E+03  0.00000000000E+00 0. -1.
    2000013    1    1    2    0    0 -0.36341808241E+03  0.94989511941E+02  0.88924159389E+03  0.13543804201E+04  0.95000000000E+03 0.  0.
   -2000013    1    1    2    0    0  0.36341808241E+03 -0.94989511941E+02  0.65661528683E+03  0.12143884654E+04  0.95000000000E+03 0.  0.
<mgrwt>
<rscale>  0 0.20515604E+04</rscale>
<asrwt>0</asrwt>
<pdfrwt beam="1">  1        2 0.31650967E+00 0.20515604E+04</pdfrwt>
<pdfrwt beam="2">  1       -2 0.78685540E-01 0.20515604E+04</pdfrwt>
<totfact> 0.82390903E+00</totfact>
</mgrwt>
</event>
<event>
 4    1  0.1323225E-008  0.2813669E+04  0.7816531E-02  0.8299037E-01
         -2   -1    0    0    0  501 -0.00000000000E+00  0.00000000000E+00  0.11595662228E+04  0.11595662228E+04  0.00000000000E+00 0. -1.
          2   -1    0    0  501    0  0.00000000000E+00 -0.00000000000E+00 -0.17068305202E+04  0.17068305202E+04  0.00000000000E+00 0.  1.
    2000013    1    1    2    0    0  0.92535360498E+03  0.11984650171E+03 -0.73605540623E+03  0.15214861285E+04  0.95000000000E+03 0.  0.
   -2000013    1    1    2    0    0 -0.92535360498E+03 -0.11984650171E+03  0.18879110885E+03  0.13449106145E+04  0.95000000000E+03 0.  0.
<mgrwt>
<rscale>  0 0.28136688E+04</rscale>
<asrwt>0</asrwt>
<pdfrwt beam="2">  1        2 0.26258931E+00 0.28136688E+04</pdfrwt>
<pdfrwt beam="1">  1       -2 0.17839480E+00 0.28136688E+04</pdfrwt>
<totfact> 0.15721684E+00</totfact>
</mgrwt>
</event>
<event>
 4    1  0.1323225E-008  0.3990066E+04  0.7816531E-02  0.8006553E-01
          2   -1    0    0  501    0  0.00000000000E+00  0.00000000000E+00  0.22549657506E+04  0.22549657506E+04  0.00000000000E+00 0.  1.
         -2   -1    0    0    0  501 -0.00000000000E+00 -0.00000000000E+00 -0.17650634504E+04  0.17650634504E+04  0.00000000000E+00 0. -1.
    2000013    1    1    2    0    0  0.32157192973E+03  0.17237971215E+04  0.19190019944E+03  0.20035495274E+04  0.95000000000E+03 0.  0.
   -2000013    1    1    2    0    0 -0.32157192973E+03 -0.17237971215E+04  0.29800210072E+03  0.20164796736E+04  0.95000000000E+03 0.  0.
<mgrwt>
<rscale>  0 0.39900665E+04</rscale>
<asrwt>0</asrwt>
<pdfrwt beam="1">  1        2 0.34691781E+00 0.39900665E+04</pdfrwt>
<pdfrwt beam="2">  1       -2 0.27154822E+00 0.39900665E+04</pdfrwt>
<totfact> 0.18002756E-01</totfact>
</mgrwt>
</event>
<event>
 4    1  0.1323225E-008  0.2327257E+04  0.7816531E-02  0.8467251E-01
         -1   -1    0    0    0  501 -0.00000000000E+00  0.00000000000E+00  0.55906092087E+03  0.55906092087E+03  0.00000000000E+00 0. -1.
          1   -1    0    0  501    0  0.00000000000E+00 -0.00000000000E+00 -0.24219741503E+04  0.24219741503E+04  0.00000000000E+00 0.  1.
    2000013    1    1    2    0    0 -0.49779314900E+03 -0.44972245555E+03 -0.88213208274E+03  0.14596935698E+04  0.95000000000E+03 0.  0.
   -2000013    1    1    2    0    0  0.49779314900E+03  0.44972245555E+03 -0.98078114672E+03  0.15213415014E+04  0.95000000000E+03 0.  0.
<mgrwt>
<rscale>  0 0.23272568E+04</rscale>
<asrwt>0</asrwt>
<pdfrwt beam="2">  1        1 0.37261141E+00 0.23272568E+04</pdfrwt>
<pdfrwt beam="1">  1       -1 0.86009372E-01 0.23272568E+04</pdfrwt>
<totfact> 0.18457421E+00</totfact>
</mgrwt>
</event>
<event>
 4    1  0.1323225E-008  0.3132901E+04  0.7816531E-02  0.8206766E-01
          2   -1    0    0  501    0  0.00000000000E+00  0.00000000000E+00  0.16748160495E+04  0.16748160495E+04  0.00000000000E+00 0.  1.
         -2   -1    0    0    0  501 -0.00000000000E+00 -0.00000000000E+00 -0.14650967224E+04  0.14650967224E+04  0.00000000000E+00 0. -1.
    2000013    1    1    2    0    0  0.98661108913E+03 -0.35672869999E+03 -0.56791810391E+03  0.15250205833E+04  0.95000000000E+03 0.  0.
   -2000013    1    1    2    0    0 -0.98661108913E+03  0.35672869999E+03  0.77763743102E+03  0.16148921886E+04  0.95000000000E+03 0.  0.
<mgrwt>
<rscale>  0 0.31329012E+04</rscale>
<asrwt>0</asrwt>
<pdfrwt beam="1">  1        2 0.25766401E+00 0.31329012E+04</pdfrwt>
<pdfrwt beam="2">  1       -2 0.22539950E+00 0.31329012E+04</pdfrwt>
<totfact> 0.78371153E-01</totfact>
</mgrwt>
</event>
<event>
 4    1  0.1323225E-008  0.2679063E+04  0.7816531E-02  0.8341830E-01
         -2   -1    0    0    0  501 -0.00000000000E+00  0.00000000000E+00  0.87366455947E+03  0.87366455947E+03  0.00000000000E+00 0. -1.
          2   -1    0    0  501    0  0.00000000000E+00 -0.00000000000E+00 -0.20538146121E+04  0.20538146121E+04  0.00000000000E+00 0.  1.
    2000013    1    1    2    0    0  0.69571833169E+03 -0.61892348792E+03 -0.76200047897E+03  0.15330476219E+04  0.95000000000E+03 0.  0.
   -2000013    1    1    2    0    0 -0.69571833169E+03  0.61892348792E+03 -0.41814957371E+03  0.13944315498E+04  0.95000000000E+03 0.  0.
<mgrwt>
<rscale>  0 0.26790633E+04</rscale>
<asrwt>0</asrwt>
<pdfrwt beam="2">  1        2 0.31597148E+00 0.26790633E+04</pdfrwt>
<pdfrwt beam="1">  1       -2 0.13440993E+00 0.26790633E+04</pdfrwt>
<totfact> 0.21862142E+00</totfact>
</mgrwt>
</event>
<event>
 4    1  0.1323225E-008  0.2690016E+04  0.7816531E-02  0.8338252E-01
         -2   -1    0    0    0  501 -0.00000000000E+00  0.00000000000E+00  0.82773176876E+03  0.82773176876E+03  0.00000000000E+00 0. -1.
          2   -1    0    0  501    0  0.00000000000E+00 -0.00000000000E+00 -0.21855468483E+04  0.21855468483E+04  0.00000000000E+00 0.  1.
    2000013    1    1    2    0    0 -0.36351612367E+03  0.57210782193E+03 -0.14279120597E+04  0.18441486334E+04  0.95000000000E+03 0.  0.
   -2000013    1    1    2    0    0  0.36351612367E+03 -0.57210782193E+03  0.70096980087E+02  0.11691299837E+04  0.95000000000E+03 0.  0.
<mgrwt>
<rscale>  0 0.26900160E+04</rscale>
<asrwt>0</asrwt>
<pdfrwt beam="2">  1        2 0.33623797E+00 0.26900160E+04</pdfrwt>
<pdfrwt beam="1">  1       -2 0.12734335E+00 0.26900160E+04</pdfrwt>
<totfact> 0.21136819E+00</totfact>
</mgrwt>
</event>
<event>
 4    1  0.1323225E-008  0.2216558E+04  0.7816531E-02  0.8511568E-01
         -2   -1    0    0    0  501 -0.00000000000E+00  0.00000000000E+00  0.49388104050E+03  0.49388104050E+03  0.00000000000E+00 0. -1.
          2   -1    0    0  501    0  0.00000000000E+00 -0.00000000000E+00 -0.24870006978E+04  0.24870006978E+04  0.00000000000E+00 0.  1.
    2000013    1    1    2    0    0 -0.43217497607E+03 -0.35593391913E+02 -0.14956698371E+04  0.18241629206E+04  0.95000000000E+03 0.  0.
   -2000013    1    1    2    0    0  0.43217497607E+03  0.35593391913E+02 -0.49744982022E+03  0.11567188177E+04  0.95000000000E+03 0.  0.
<mgrwt>
<rscale>  0 0.22165581E+04</rscale>
<asrwt>0</asrwt>
<pdfrwt beam="2">  1        2 0.38261548E+00 0.22165581E+04</pdfrwt>
<pdfrwt beam="1">  1       -2 0.75981701E-01 0.22165581E+04</pdfrwt>
<totfact> 0.50159474E+00</totfact>
</mgrwt>
</event>
<event>
 4    1  0.1323225E-008  0.2437279E+04  0.7816531E-02  0.8425677E-01
          2   -1    0    0  501    0  0.00000000000E+00  0.00000000000E+00  0.16113009835E+04  0.16113009835E+04  0.00000000000E+00 0.  1.
         -2   -1    0    0    0  501 -0.00000000000E+00 -0.00000000000E+00 -0.92166625503E+03  0.92166625503E+03  0.00000000000E+00 0. -1.
    2000013    1    1    2    0    0  0.42460312007E+03 -0.62958114457E+03  0.26484483114E+03  0.12447100111E+04  0.95000000000E+03 0.  0.
   -2000013    1    1    2    0    0 -0.42460312007E+03  0.62958114457E+03  0.42478989737E+03  0.12882572274E+04  0.95000000000E+03 0.  0.
<mgrwt>
<rscale>  0 0.24372786E+04</rscale>
<asrwt>0</asrwt>
<pdfrwt beam="1">  1        2 0.24789246E+00 0.24372786E+04</pdfrwt>
<pdfrwt beam="2">  1       -2 0.14179481E+00 0.24372786E+04</pdfrwt>
<totfact> 0.34238267E+00</totfact>
</mgrwt>
</event>
<event>
 4    1  0.1323225E-008  0.2123867E+04  0.7816531E-02  0.8550802E-01
         -2   -1    0    0    0  501 -0.00000000000E+00  0.00000000000E+00  0.11925564706E+04  0.11925564706E+04  0.00000000000E+00 0. -1.
          2   -1    0    0  501    0  0.00000000000E+00 -0.00000000000E+00 -0.94561756311E+03  0.94561756311E+03  0.00000000000E+00 0.  1.
    2000013    1    1    2    0    0  0.26946209705E+03 -0.26777506637E+03 -0.16285645179E+03  0.10360190789E+04  0.95000000000E+03 0.  0.
   -2000013    1    1    2    0    0 -0.26946209705E+03  0.26777506637E+03  0.40979535924E+03  0.11021549548E+04  0.95000000000E+03 0.  0.
<mgrwt>
<rscale>  0 0.21238666E+04</rscale>
<asrwt>0</asrwt>
<pdfrwt beam="2">  1        2 0.14547963E+00 0.21238666E+04</pdfrwt>
<pdfrwt beam="1">  1       -2 0.18347023E+00 0.21238666E+04</pdfrwt>
<totfact> 0.43132275E+00</totfact>
</mgrwt>
</event>
<event>
 4    1  0.1323225E-008  0.2757969E+04  0.7816531E-02  0.8316437E-01
         -3   -1    0    0    0  501 -0.00000000000E+00  0.00000000000E+00  0.14321175779E+04  0.14321175779E+04  0.00000000000E+00 0.  1.
          3   -1    0    0  501    0  0.00000000000E+00 -0.00000000000E+00 -0.13278230161E+04  0.13278230161E+04  0.00000000000E+00 0. -1.
    2000013    1    1    2    0    0  0.38517621998E+03  0.81860040847E+03  0.47745850842E+03  0.13960422545E+04  0.95000000000E+03 0.  0.
   -2000013    1    1    2    0    0 -0.38517621998E+03 -0.81860040847E+03 -0.37316394667E+03  0.13638983394E+04  0.95000000000E+03 0.  0.
<mgrwt>
<rscale>  0 0.27579693E+04</rscale>
<asrwt>0</asrwt>
<pdfrwt beam="2">  1        3 0.20428046E+00 0.27579693E+04</pdfrwt>
<pdfrwt beam="1">  1       -3 0.22032578E+00 0.27579693E+04</pdfrwt>
<totfact> 0.34430265E-02</totfact>
</mgrwt>
</event>
<event>
 4    1  0.1323225E-008  0.2385777E+04  0.7816531E-02  0.8444848E-01
          2   -1    0    0  501    0  0.00000000000E+00  0.00000000000E+00  0.19028369228E+04  0.19028369228E+04  0.00000000000E+00 0.  1.
         -2   -1    0    0    0  501 -0.00000000000E+00 -0.00000000000E+00 -0.74782210670E+03  0.74782210670E+03  0.00000000000E+00 0. -1.
    2000013    1    1    2    0    0 -0.56068445697E+03 -0.30430533814E+03  0.20318138446E+03  0.11622183418E+04  0.95000000000E+03 0.  0.
   -2000013    1    1    2    0    0  0.56068445697E+03  0.30430533814E+03  0.95183343163E+03  0.14884406877E+04  0.95000000000E+03 0.  0.
<mgrwt>
<rscale>  0 0.23857775E+04</rscale>
<asrwt>0</asrwt>
<pdfrwt beam="1">  1        2 0.29274414E+00 0.23857775E+04</pdfrwt>
<pdfrwt beam="2">  1       -2 0.11504956E+00 0.23857775E+04</pdfrwt>
<totfact> 0.40122484E+00</totfact>
</mgrwt>
</event>
<event>
 4    1  0.1323225E-008  0.2253090E+04  0.7816531E-02  0.8496650E-01
          2   -1    0    0  501    0  0.00000000000E+00  0.00000000000E+00  0.33647166823E+04  0.33647166823E+04  0.00000000000E+00 0.  1.
         -2   -1    0    0    0  501 -0.00000000000E+00 -0.00000000000E+00 -0.37717994516E+03  0.37717994516E+03  0.00000000000E+00 0. -1.
    2000013    1    1    2    0    0 -0.53221888135E+03  0.24485477222E+03  0.12397559957E+04  0.16681443960E+04  0.95000000000E+03 0.  0.
   -2000013    1    1    2    0    0  0.53221888135E+03 -0.24485477222E+03  0.17477807414E+04  0.20737522314E+04  0.95000000000E+03 0.  0.
<mgrwt>
<rscale>  0 0.22530900E+04</rscale>
<asrwt>0</asrwt>
<pdfrwt beam="1">  1        2 0.51764870E+00 0.22530900E+04</pdfrwt>
<pdfrwt beam="2">  1       -2 0.58027686E-01 0.22530900E+04</pdfrwt>
<totfact> 0.25546189E+00</totfact>
</mgrwt>
</event>
<event>
 4    1  0.1323225E-008  0.2130178E+04  0.7816531E-02  0.8548065E-01
         -2   -1    0    0    0  501 -0.00000000000E+00  0.00000000000E+00  0.86843495936E+03  0.86843495936E+03  0.00000000000E+00 0. -1.
          2   -1    0    0  501    0  0.00000000000E+00 -0.00000000000E+00 -0.13062744335E+04  0.13062744335E+04  0.00000000000E+00 0.  1.
    2000013    1    1    2    0    0 -0.71051315914E+00 -0.38837430742E+03 -0.50961657388E+03  0.11458813900E+04  0.95000000000E+03 0.  0.
   -2000013    1    1    2    0    0  0.71051315914E+00  0.38837430742E+03  0.71777099732E+02  0.10288280029E+04  0.95000000000E+03 0.  0.
<mgrwt>
<rscale>  0 0.21301778E+04</rscale>
<asrwt>0</asrwt>
<pdfrwt beam="2">  1        2 0.20096530E+00 0.21301778E+04</pdfrwt>
<pdfrwt beam="1">  1       -2 0.13360538E+00 0.21301778E+04</pdfrwt>
<totfact> 0.61059381E+00</totfact>
</mgrwt>
</event>
<event>
 4    1  0.1323225E-008  0.2911770E+04  0.7816531E-02  0.8269384E-01
          2   -1    0    0  501    0  0.00000000000E+00  0.00000000000E+00  0.20984979532E+04  0.20984979532E+04  0.00000000000E+00 0.  1.
         -2   -1    0    0    0  501 -0.00000000000E+00 -0.00000000000E+00 -0.10100565045E+04  0.10100565045E+04  0.00000000000E+00 0. -1.
    2000013    1    1    2    0    0 -0.18093944322E+03  0.41078307295E+03  0.16201083958E+04  0.19309927575E+04  0.95000000000E+03 0.  0.
   -2000013    1    1    2    0    0  0.18093944322E+03 -0.41078307295E+03 -0.53166694719E+03  0.11775617002E+04  0.95000000000E+03 0.  0.
<mgrwt>
<rscale>  0 0.29117703E+04</rscale>
<asrwt>0</asrwt>
<pdfrwt beam="1">  1        2 0.32284584E+00 0.29117703E+04</pdfrwt>
<pdfrwt beam="2">  1       -2 0.15539331E+00 0.29117703E+04</pdfrwt>
<totfact> 0.13840985E+00</totfact>
</mgrwt>
</event>
<event>
 4    1  0.1323225E-008  0.2848455E+04  0.7816531E-02  0.8288381E-01
         -2   -1    0    0    0  501 -0.00000000000E+00  0.00000000000E+00  0.16064358543E+04  0.16064358543E+04  0.00000000000E+00 0. -1.
          2   -1    0    0  501    0  0.00000000000E+00 -0.00000000000E+00 -0.12626856534E+04  0.12626856534E+04  0.00000000000E+00 0.  1.
    2000013    1    1    2    0    0 -0.53449562361E+03  0.45324635923E+03  0.97440279317E+03  0.15307118073E+04  0.95000000000E+03 0.  0.
   -2000013    1    1    2    0    0  0.53449562361E+03 -0.45324635923E+03 -0.63065259232E+03  0.13384097004E+04  0.95000000000E+03 0.  0.
<mgrwt>
<rscale>  0 0.28484547E+04</rscale>
<asrwt>0</asrwt>
<pdfrwt beam="2">  1        2 0.19425933E+00 0.28484547E+04</pdfrwt>
<pdfrwt beam="1">  1       -2 0.24714398E+00 0.28484547E+04</pdfrwt>
<totfact> 0.10083563E+00</totfact>
</mgrwt>
</event>
<event>
 4    1  0.1323225E-008  0.2038280E+04  0.7816531E-02  0.8588930E-01
         -1   -1    0    0    0  501 -0.00000000000E+00  0.00000000000E+00  0.49917646724E+03  0.49917646724E+03  0.00000000000E+00 0. -1.
          1   -1    0    0  501    0  0.00000000000E+00 -0.00000000000E+00 -0.20807200275E+04  0.20807200275E+04  0.00000000000E+00 0.  1.
    2000013    1    1    2    0    0  0.34238859632E+03  0.37958069699E+02 -0.95809483495E+03  0.13925216259E+04  0.95000000000E+03 0.  0.
   -2000013    1    1    2    0    0 -0.34238859632E+03 -0.37958069699E+02 -0.62344872528E+03  0.11873748688E+04  0.95000000000E+03 0.  0.
<mgrwt>
<rscale>  0 0.20382801E+04</rscale>
<asrwt>0</asrwt>
<pdfrwt beam="2">  1        1 0.32011077E+00 0.20382801E+04</pdfrwt>
<pdfrwt beam="1">  1       -1 0.76796379E-01 0.20382801E+04</pdfrwt>
<totfact> 0.41309505E+00</totfact>
</mgrwt>
</event>
<event>
 4    1  0.1323225E-008  0.2747002E+04  0.7816531E-02  0.8319914E-01
          2   -1    0    0  501    0  0.00000000000E+00  0.00000000000E+00  0.19673672504E+04  0.19673672504E+04  0.00000000000E+00 0.  1.
         -2   -1    0    0    0  501 -0.00000000000E+00 -0.00000000000E+00 -0.95889829902E+03  0.95889829902E+03  0.00000000000E+00 0. -1.
    2000013    1    1    2    0    0 -0.64685006277E+03  0.63527795103E+03  0.75460538393E+02  0.13153658699E+04  0.95000000000E+03 0.  0.
   -2000013    1    1    2    0    0  0.64685006277E+03 -0.63527795103E+03  0.93300841294E+03  0.16108996795E+04  0.95000000000E+03 0.  0.
<mgrwt>
<rscale>  0 0.27470021E+04</rscale>
<asrwt>0</asrwt>
<pdfrwt beam="1">  1        2 0.30267188E+00 0.27470021E+04</pdfrwt>
<pdfrwt beam="2">  1       -2 0.14752282E+00 0.27470021E+04</pdfrwt>
<totfact> 0.19065003E+00</totfact>
</mgrwt>
</event>
<event>
 4    1  0.1323225E-008  0.2393004E+04  0.7816531E-02  0.8442128E-01
         -1   -1    0    0    0  501 -0.00000000000E+00  0.00000000000E+00  0.66843162559E+03  0.66843162559E+03  0.00000000000E+00 0. -1.
          1   -1    0    0  501    0  0.00000000000E+00 -0.00000000000E+00 -0.21417545211E+04  0.21417545211E+04  0.00000000000E+00 0.  1.
    2000013    1    1    2    0    0 -0.40709312787E+03 -0.52226222147E+03 -0.38312281456E+03  0.12197400271E+04  0.95000000000E+03 0.  0.
   -2000013    1    1    2    0    0  0.40709312787E+03  0.52226222147E+03 -0.10902000810E+04  0.15904461196E+04  0.95000000000E+03 0.  0.
<mgrwt>
<rscale>  0 0.23930035E+04</rscale>
<asrwt>0</asrwt>
<pdfrwt beam="2">  1        1 0.32950070E+00 0.23930035E+04</pdfrwt>
<pdfrwt beam="1">  1       -1 0.10283563E+00 0.23930035E+04</pdfrwt>
<totfact> 0.19122117E+00</totfact>
</mgrwt>
</event>
<event>
 4    1  0.1323225E-008  0.3647684E+04  0.7816531E-02  0.8079656E-01
         -2   -1    0    0    0  501 -0.00000000000E+00  0.00000000000E+00  0.16673779159E+04  0.16673779159E+04  0.00000000000E+00 0. -1.
          2   -1    0    0  501    0  0.00000000000E+00 -0.00000000000E+00 -0.19949882486E+04  0.19949882486E+04  0.00000000000E+00 0.  1.
    2000013    1    1    2    0    0  0.90916825820E+03 -0.10315454702E+04  0.56935756929E+03  0.17655993375E+04  0.95000000000E+03 0.  0.
   -2000013    1    1    2    0    0 -0.90916825820E+03  0.10315454702E+04 -0.89696790193E+03  0.18967668270E+04  0.95000000000E+03 0.  0.
<mgrwt>
<rscale>  0 0.36476838E+04</rscale>
<asrwt>0</asrwt>
<pdfrwt beam="2">  1        2 0.30692127E+00 0.36476838E+04</pdfrwt>
<pdfrwt beam="1">  1       -2 0.25651968E+00 0.36476838E+04</pdfrwt>
<totfact> 0.31993086E-01</totfact>
</mgrwt>
</event>
<event>
 4    1  0.1323225E-008  0.2296372E+04  0.7816531E-02  0.8479353E-01
         -2   -1    0    0    0  501 -0.00000000000E+00  0.00000000000E+00  0.55991610773E+03  0.55991610773E+03  0.00000000000E+00 0. -1.
          2   -1    0    0  501    0  0.00000000000E+00 -0.00000000000E+00 -0.23545160853E+04  0.23545160853E+04  0.00000000000E+00 0.  1.
    2000013    1    1    2    0    0 -0.10288146804E+03  0.51058666825E+03 -0.13798228581E+04  0.17543359034E+04  0.95000000000E+03 0.  0.
   -2000013    1    1    2    0    0  0.10288146804E+03 -0.51058666825E+03 -0.41477711940E+03  0.11600962896E+04  0.95000000000E+03 0.  0.
<mgrwt>
<rscale>  0 0.22963723E+04</rscale>
<asrwt>0</asrwt>
<pdfrwt beam="2">  1        2 0.36223324E+00 0.22963723E+04</pdfrwt>
<pdfrwt beam="1">  1       -2 0.86140942E-01 0.22963723E+04</pdfrwt>
<totfact> 0.44735205E+00</totfact>
</mgrwt>
</event>
<event>
 4    1  0.1323225E-008  0.4326056E+04  0.7816531E-02  0.7941818E-01
         -2   -1    0    0    0  501 -0.00000000000E+00  0.00000000000E+00  0.20422760348E+04  0.20422760348E+04  0.00000000000E+00 0. -1.
          2   -1    0    0  501    0  0.00000000000E+00 -0.00000000000E+00 -0.22909198978E+04  0.22909198978E+04  0.00000000000E+00 0.  1.
    2000013    1    1    2    0    0  0.97910926040E+03 -0.75135822220E+03  0.13791538426E+04  0.20803267636E+04  0.95000000000E+03 0.  0.
   -2000013    1    1    2    0    0 -0.97910926040E+03  0.75135822220E+03 -0.16277977056E+04  0.22528691689E+04  0.95000000000E+03 0.  0.
<mgrwt>
<rscale>  0 0.43260563E+04</rscale>
<asrwt>0</asrwt>
<pdfrwt beam="2">  1        2 0.35244922E+00 0.43260563E+04</pdfrwt>
<pdfrwt beam="1">  1       -2 0.31419631E+00 0.43260563E+04</pdfrwt>
<totfact> 0.91665114E-02</totfact>
</mgrwt>
</event>
<event>
 4    1  0.1323225E-008  0.3073756E+04  0.7816531E-02  0.8222977E-01
          1   -1    0    0  501    0  0.00000000000E+00  0.00000000000E+00  0.35562431723E+04  0.35562431723E+04  0.00000000000E+00 0. -1.
         -1   -1    0    0    0  501 -0.00000000000E+00 -0.00000000000E+00 -0.66418239461E+03  0.66418239461E+03  0.00000000000E+00 0.  1.
    2000013    1    1    2    0    0  0.81635007584E+03 -0.27907360781E+01  0.26687857022E+04  0.29481099639E+04  0.95000000000E+03 0.  0.
   -2000013    1    1    2    0    0 -0.81635007584E+03  0.27907360781E+01  0.22327507549E+03  0.12723156031E+04  0.95000000000E+03 0.  0.
<mgrwt>
<rscale>  0 0.30737561E+04</rscale>
<asrwt>0</asrwt>
<pdfrwt beam="1">  1        1 0.54711432E+00 0.30737561E+04</pdfrwt>
<pdfrwt beam="2">  1       -1 0.10218191E+00 0.30737561E+04</pdfrwt>
<totfact> 0.17277043E-01</totfact>
</mgrwt>
</event>
<event>
 4    1  0.1323225E-008  0.2284923E+04  0.7816531E-02  0.8483890E-01
          3   -1    0    0  501    0  0.00000000000E+00  0.00000000000E+00  0.69853660652E+03  0.69853660652E+03  0.00000000000E+00 0. -1.
         -3   -1    0    0    0  501 -0.00000000000E+00 -0.00000000000E+00 -0.18685039385E+04  0.18685039385E+04  0.00000000000E+00 0.  1.
    2000013    1    1    2    0    0  0.55272838524E+03 -0.29416189578E+03 -0.70107946423E+03  0.13364326784E+04  0.95000000000E+03 0.  0.
   -2000013    1    1    2    0    0 -0.55272838524E+03  0.29416189578E+03 -0.46888786772E+03  0.12306078666E+04  0.95000000000E+03 0.  0.
<mgrwt>
<rscale>  0 0.22849231E+04</rscale>
<asrwt>0</asrwt>
<pdfrwt beam="1">  1        3 0.10746717E+00 0.22849231E+04</pdfrwt>
<pdfrwt beam="2">  1       -3 0.28746214E+00 0.22849231E+04</pdfrwt>
<totfact> 0.78128637E-02</totfact>
</mgrwt>
</event>
<event>
 4    1  0.1323225E-008  0.2048562E+04  0.7816531E-02  0.8584247E-01
         -1   -1    0    0    0  501 -0.00000000000E+00  0.00000000000E+00  0.58754546523E+03  0.58754546523E+03  0.00000000000E+00 0. -1.
          1   -1    0    0  501    0  0.00000000000E+00 -0.00000000000E+00 -0.17856509685E+04  0.17856509685E+04  0.00000000000E+00 0.  1.
    2000013    1    1    2    0    0 -0.31430356124E+03 -0.20457872867E+03 -0.68887669887E+03  0.12319457338E+04  0.95000000000E+03 0.  0.
   -2000013    1    1    2    0    0  0.31430356124E+03  0.20457872867E+03 -0.50922880441E+03  0.11412506999E+04  0.95000000000E+03 0.  0.
<mgrwt>
<rscale>  0 0.20485616E+04</rscale>
<asrwt>0</asrwt>
<pdfrwt beam="2">  1        1 0.27471553E+00 0.20485616E+04</pdfrwt>
<pdfrwt beam="1">  1       -1 0.90391612E-01 0.20485616E+04</pdfrwt>
<totfact> 0.46044304E+00</totfact>
</mgrwt>
</event>
<event>
 4    1  0.1323225E-008  0.1979633E+04  0.7816531E-02  0.8616202E-01
          2   -1    0    0  501    0  0.00000000000E+00  0.00000000000E+00  0.13178003841E+04  0.13178003841E+04  0.00000000000E+00 0.  1.
         -2   -1    0    0    0  501 -0.00000000000E+00 -0.00000000000E+00 -0.74346377073E+03  0.74346377073E+03  0.00000000000E+00 0. -1.
    2000013    1    1    2    0    0  0.25534790972E+03 -0.54216153960E+02  0.38646797786E+03  0.10583002619E+04  0.95000000000E+03 0.  0.
   -2000013    1    1    2    0    0 -0.25534790972E+03  0.54216153960E+02  0.18786863549E+03  0.10029638929E+04  0.95000000000E+03 0.  0.
<mgrwt>
<rscale>  0 0.19796331E+04</rscale>
<asrwt>0</asrwt>
<pdfrwt beam="1">  1        2 0.20273852E+00 0.19796331E+04</pdfrwt>
<pdfrwt beam="2">  1       -2 0.11437904E+00 0.19796331E+04</pdfrwt>
<totfact> 0.89765308E+00</totfact>
</mgrwt>
</event>
<event>
 4    1  0.1323225E-008  0.2009998E+04  0.7816531E-02  0.8601961E-01
         -1   -1    0    0    0  501 -0.00000000000E+00  0.00000000000E+00  0.42234220132E+03  0.42234220132E+03  0.00000000000E+00 0.  1.
          1   -1    0    0  501    0  0.00000000000E+00 -0.00000000000E+00 -0.23914798205E+04  0.23914798205E+04  0.00000000000E+00 0. -1.
    2000013    1    1    2    0    0  0.31216899937E+03 -0.72276083085E+02 -0.88708082370E+03  0.13386880533E+04  0.95000000000E+03 0.  0.
   -2000013    1    1    2    0    0 -0.31216899937E+03  0.72276083085E+02 -0.10820567955E+04  0.14751339685E+04  0.95000000000E+03 0.  0.
<mgrwt>
<rscale>  0 0.20099979E+04</rscale>
<asrwt>0</asrwt>
<pdfrwt beam="2">  1        1 0.36791998E+00 0.20099979E+04</pdfrwt>
<pdfrwt beam="1">  1       -1 0.64975722E-01 0.20099979E+04</pdfrwt>
<totfact> 0.35853151E+00</totfact>
</mgrwt>
</event>
<event>
 4    1  0.1323225E-008  0.2428845E+04  0.7816531E-02  0.8428783E-01
          3   -1    0    0  501    0  0.00000000000E+00  0.00000000000E+00  0.51128338121E+03  0.51128338121E+03  0.00000000000E+00 0.  1.
         -3   -1    0    0    0  501 -0.00000000000E+00 -0.00000000000E+00 -0.28845491248E+04  0.28845491248E+04  0.00000000000E+00 0. -1.
    2000013    1    1    2    0    0 -0.74744229216E+03  0.11033594576E+03 -0.11328817043E+04  0.16603508536E+04  0.95000000000E+03 0.  0.
   -2000013    1    1    2    0    0  0.74744229216E+03 -0.11033594576E+03 -0.12403840392E+04  0.17354816524E+04  0.95000000000E+03 0.  0.
<mgrwt>
<rscale>  0 0.24288450E+04</rscale>
<asrwt>0</asrwt>
<pdfrwt beam="1">  1        3 0.78658983E-01 0.24288450E+04</pdfrwt>
<pdfrwt beam="2">  1       -3 0.44377678E+00 0.24288450E+04</pdfrwt>
<totfact> 0.21519144E-02</totfact>
</mgrwt>
</event>
<event>
 4    1  0.1323225E-008  0.2691280E+04  0.7816531E-02  0.8337840E-01
         -1   -1    0    0    0  501 -0.00000000000E+00  0.00000000000E+00  0.21077205492E+04  0.21077205492E+04  0.00000000000E+00 0. -1.
          1   -1    0    0  501    0  0.00000000000E+00 -0.00000000000E+00 -0.85910178011E+03  0.85910178011E+03  0.00000000000E+00 0.  1.
    2000013    1    1    2    0    0 -0.73335062473E+03  0.34705950054E+03  0.73125288349E+02  0.12514394686E+04  0.95000000000E+03 0.  0.
   -2000013    1    1    2    0    0  0.73335062473E+03 -0.34705950054E+03  0.11754934808E+04  0.17153828608E+04  0.95000000000E+03 0.  0.
<mgrwt>
<rscale>  0 0.26912796E+04</rscale>
<asrwt>0</asrwt>
<pdfrwt beam="2">  1        1 0.13216951E+00 0.26912796E+04</pdfrwt>
<pdfrwt beam="1">  1       -1 0.32426470E+00 0.26912796E+04</pdfrwt>
<totfact> 0.39466475E-01</totfact>
</mgrwt>
</event>
<event>
 4    1  0.1323225E-008  0.3237343E+04  0.7816531E-02  0.8179024E-01
          1   -1    0    0  501    0  0.00000000000E+00  0.00000000000E+00  0.18567172537E+04  0.18567172537E+04  0.00000000000E+00 0.  1.
         -1   -1    0    0    0  501 -0.00000000000E+00 -0.00000000000E+00 -0.14111449739E+04  0.14111449739E+04  0.00000000000E+00 0. -1.
    2000013    1    1    2    0    0 -0.19651151571E+03 -0.11824588500E+04  0.75766022990E+03  0.17068610757E+04  0.95000000000E+03 0.  0.
   -2000013    1    1    2    0    0  0.19651151571E+03  0.11824588500E+04 -0.31208795014E+03  0.15610011519E+04  0.95000000000E+03 0.  0.
<mgrwt>
<rscale>  0 0.32373429E+04</rscale>
<asrwt>0</asrwt>
<pdfrwt beam="1">  1        1 0.28564881E+00 0.32373429E+04</pdfrwt>
<pdfrwt beam="2">  1       -1 0.21709922E+00 0.32373429E+04</pdfrwt>
<totfact> 0.35789047E-01</totfact>
</mgrwt>
</event>
<event>
 4    1  0.1323225E-008  0.2815254E+04  0.7816531E-02  0.8298548E-01
          2   -1    0    0  501    0  0.00000000000E+00  0.00000000000E+00  0.20222622669E+04  0.20222622669E+04  0.00000000000E+00 0.  1.
         -2   -1    0    0    0  501 -0.00000000000E+00 -0.00000000000E+00 -0.97980058280E+03  0.97980058280E+03  0.00000000000E+00 0. -1.
    2000013    1    1    2    0    0  0.20476555369E+03 -0.98066927701E+03  0.22866702499E+03  0.13994390916E+04  0.95000000000E+03 0.  0.
   -2000013    1    1    2    0    0 -0.20476555369E+03  0.98066927701E+03  0.81379465915E+03  0.16026237581E+04  0.95000000000E+03 0.  0.
<mgrwt>
<rscale>  0 0.28152540E+04</rscale>
<asrwt>0</asrwt>
<pdfrwt beam="1">  1        2 0.31111727E+00 0.28152540E+04</pdfrwt>
<pdfrwt beam="2">  1       -2 0.15073855E+00 0.28152540E+04</pdfrwt>
<totfact> 0.16689514E+00</totfact>
</mgrwt>
</event>
<event>
 4    1  0.1323225E-008  0.3191567E+04  0.7816531E-02  0.8191048E-01
          2   -1    0    0  501    0  0.00000000000E+00  0.00000000000E+00  0.11808433430E+04  0.11808433430E+04  0.00000000000E+00 0.  1.
         -2   -1    0    0    0  501 -0.00000000000E+00 -0.00000000000E+00 -0.21565308812E+04  0.21565308812E+04  0.00000000000E+00 0. -1.
    2000013    1    1    2    0    0 -0.11216988766E+03  0.78942820824E+03 -0.15378314785E+04  0.19756529645E+04  0.95000000000E+03 0.  0.
   -2000013    1    1    2    0    0  0.11216988766E+03 -0.78942820824E+03  0.56214394022E+03  0.13617212597E+04  0.95000000000E+03 0.  0.
<mgrwt>
<rscale>  0 0.31915671E+04</rscale>
<asrwt>0</asrwt>
<pdfrwt beam="1">  1        2 0.18166821E+00 0.31915671E+04</pdfrwt>
<pdfrwt beam="2">  1       -2 0.33177398E+00 0.31915671E+04</pdfrwt>
<totfact> 0.33157938E-01</totfact>
</mgrwt>
</event>
<event>
 4    1  0.1323225E-008  0.2630539E+04  0.7816531E-02  0.8357901E-01
         -2   -1    0    0    0  501 -0.00000000000E+00  0.00000000000E+00  0.44182072476E+03  0.44182072476E+03  0.00000000000E+00 0. -1.
          2   -1    0    0  501    0  0.00000000000E+00 -0.00000000000E+00 -0.39154654647E+04  0.39154654647E+04  0.00000000000E+00 0.  1.
    2000013    1    1    2    0    0  0.48102362421E+03  0.29513433876E+03 -0.55512271165E+03  0.12365877365E+04  0.95000000000E+03 0.  0.
   -2000013    1    1    2    0    0 -0.48102362421E+03 -0.29513433876E+03 -0.29185220283E+04  0.31206984530E+04  0.95000000000E+03 0.  0.
<mgrwt>
<rscale>  0 0.26305389E+04</rscale>
<asrwt>0</asrwt>
<pdfrwt beam="2">  1        2 0.60237932E+00 0.26305389E+04</pdfrwt>
<pdfrwt beam="1">  1       -2 0.67972418E-01 0.26305389E+04</pdfrwt>
<totfact> 0.70023555E-01</totfact>
</mgrwt>
</event>
<event>
 4    1  0.1323225E-008  0.2897333E+04  0.7816531E-02  0.8273671E-01
          2   -1    0    0  501    0  0.00000000000E+00  0.00000000000E+00  0.13147462855E+04  0.13147462855E+04  0.00000000000E+00 0.  1.
         -2   -1    0    0    0  501 -0.00000000000E+00 -0.00000000000E+00 -0.15962279897E+04  0.15962279897E+04  0.00000000000E+00 0. -1.
    2000013    1    1    2    0    0  0.75217532236E+03 -0.10823742689E+03 -0.93098822825E+03  0.15319014777E+04  0.95000000000E+03 0.  0.
   -2000013    1    1    2    0    0 -0.75217532236E+03  0.10823742689E+03  0.64950652403E+03  0.13790727975E+04  0.95000000000E+03 0.  0.
<mgrwt>
<rscale>  0 0.28973331E+04</rscale>
<asrwt>0</asrwt>
<pdfrwt beam="1">  1        2 0.20226866E+00 0.28973331E+04</pdfrwt>
<pdfrwt beam="2">  1       -2 0.24557354E+00 0.28973331E+04</pdfrwt>
<totfact> 0.95737731E-01</totfact>
</mgrwt>
</event>
<event>
 4    1  0.1323225E-008  0.3012024E+04  0.7816531E-02  0.8240306E-01
         -2   -1    0    0    0  501 -0.00000000000E+00  0.00000000000E+00  0.23643436059E+04  0.23643436059E+04  0.00000000000E+00 0. -1.
          2   -1    0    0  501    0  0.00000000000E+00 -0.00000000000E+00 -0.95928210833E+03  0.95928210833E+03  0.00000000000E+00 0.  1.
    2000013    1    1    2    0    0  0.35431587000E+02  0.10873690227E+04  0.11732094870E+04  0.18607921134E+04  0.95000000000E+03 0.  0.
   -2000013    1    1    2    0    0 -0.35431587000E+02 -0.10873690227E+04  0.23185201054E+03  0.14628336008E+04  0.95000000000E+03 0.  0.
<mgrwt>
<rscale>  0 0.30120242E+04</rscale>
<asrwt>0</asrwt>
<pdfrwt beam="2">  1        2 0.14758186E+00 0.30120242E+04</pdfrwt>
<pdfrwt beam="1">  1       -2 0.36374517E+00 0.30120242E+04</pdfrwt>
<totfact> 0.29131050E-01</totfact>
</mgrwt>
</event>
<event>
 4    1  0.1323225E-008  0.2135173E+04  0.7816531E-02  0.8545906E-01
          2   -1    0    0  501    0  0.00000000000E+00  0.00000000000E+00  0.35954824047E+04  0.35954824047E+04  0.00000000000E+00 0.  1.
         -2   -1    0    0    0  501 -0.00000000000E+00 -0.00000000000E+00 -0.31699244326E+03  0.31699244326E+03  0.00000000000E+00 0. -1.
    2000013    1    1    2    0    0 -0.99333614637E+01 -0.45905476473E+03  0.19370344469E+04  0.22057725171E+04  0.95000000000E+03 0.  0.
   -2000013    1    1    2    0    0  0.99333614637E+01  0.45905476473E+03  0.13414555145E+04  0.17067023309E+04  0.95000000000E+03 0.  0.
<mgrwt>
<rscale>  0 0.21351728E+04</rscale>
<asrwt>0</asrwt>
<pdfrwt beam="1">  1        2 0.55315111E+00 0.21351728E+04</pdfrwt>
<pdfrwt beam="2">  1       -2 0.48768071E-01 0.21351728E+04</pdfrwt>
<totfact> 0.25572692E+00</totfact>
</mgrwt>
</event>
<event>
 4    1  0.1323225E-008  0.3023587E+04  0.7816531E-02  0.8237027E-01
          2   -1    0    0  501    0  0.00000000000E+00  0.00000000000E+00  0.17442890553E+04  0.17442890553E+04  0.00000000000E+00 0.  1.
         -2   -1    0    0    0  501 -0.00000000000E+00 -0.00000000000E+00 -0.13102873155E+04  0.13102873155E+04  0.00000000000E+00 0. -1.
    2000013    1    1    2    0    0 -0.60559730078E+03 -0.10036856962E+04  0.31223664735E+03  0.15408195194E+04  0.95000000000E+03 0.  0.
   -2000013    1    1    2    0    0  0.60559730078E+03  0.10036856962E+04  0.12176509242E+03  0.15137568514E+04  0.95000000000E+03 0.  0.
<mgrwt>
<rscale>  0 0.30235872E+04</rscale>
<asrwt>0</asrwt>
<pdfrwt beam="1">  1        2 0.26835216E+00 0.30235872E+04</pdfrwt>
<pdfrwt beam="2">  1       -2 0.20158266E+00 0.30235872E+04</pdfrwt>
<totfact> 0.10281462E+00</totfact>
</mgrwt>
</event>
<event>
 4    1  0.1323225E-008  0.3242741E+04  0.7816531E-02  0.8177620E-01
         -2   -1    0    0    0  501 -0.00000000000E+00  0.00000000000E+00  0.10864226619E+04  0.10864226619E+04  0.00000000000E+00 0. -1.
          2   -1    0    0  501    0  0.00000000000E+00 -0.00000000000E+00 -0.24197228384E+04  0.24197228384E+04  0.00000000000E+00 0.  1.
    2000013    1    1    2    0    0  0.13010318112E+04 -0.17874396121E+03 -0.71134226683E+03  0.17700680773E+04  0.95000000000E+03 0.  0.
   -2000013    1    1    2    0    0 -0.13010318112E+04  0.17874396121E+03 -0.62195790965E+03  0.17360774231E+04  0.95000000000E+03 0.  0.
<mgrwt>
<rscale>  0 0.32427406E+04</rscale>
<asrwt>0</asrwt>
<pdfrwt beam="2">  1        2 0.37226505E+00 0.32427406E+04</pdfrwt>
<pdfrwt beam="1">  1       -2 0.16714195E+00 0.32427406E+04</pdfrwt>
<totfact> 0.72600721E-01</totfact>
</mgrwt>
</event>
<event>
 4    1  0.1323225E-008  0.2560271E+04  0.7816531E-02  0.8381823E-01
          1   -1    0    0  501    0  0.00000000000E+00  0.00000000000E+00  0.42425942007E+04  0.42425942007E+04  0.00000000000E+00 0.  1.
         -1   -1    0    0    0  501 -0.00000000000E+00 -0.00000000000E+00 -0.38626060906E+03  0.38626060906E+03  0.00000000000E+00 0. -1.
    2000013    1    1    2    0    0 -0.34515695084E+03  0.57881599409E+03  0.96793037344E+03  0.15144472535E+04  0.95000000000E+03 0.  0.
   -2000013    1    1    2    0    0  0.34515695084E+03 -0.57881599409E+03  0.28884032182E+04  0.31144075563E+04  0.95000000000E+03 0.  0.
<mgrwt>
<rscale>  0 0.25602711E+04</rscale>
<asrwt>0</asrwt>
<pdfrwt beam="1">  1        1 0.65270677E+00 0.25602711E+04</pdfrwt>
<pdfrwt beam="2">  1       -1 0.59424712E-01 0.25602711E+04</pdfrwt>
<totfact> 0.14682722E-01</totfact>
</mgrwt>
</event>
<event>
 4    1  0.1323225E-008  0.2362734E+04  0.7816531E-02  0.8453589E-01
          1   -1    0    0  501    0  0.00000000000E+00  0.00000000000E+00  0.86686359857E+03  0.86686359857E+03  0.00000000000E+00 0. -1.
         -1   -1    0    0    0  501 -0.00000000000E+00 -0.00000000000E+00 -0.16099735729E+04  0.16099735729E+04  0.00000000000E+00 0.  1.
    2000013    1    1    2    0    0 -0.11511598147E+03 -0.62921011940E+03 -0.67532567939E+03  0.13295570077E+04  0.95000000000E+03 0.  0.
   -2000013    1    1    2    0    0  0.11511598147E+03  0.62921011940E+03 -0.67784294973E+02  0.11472801638E+04  0.95000000000E+03 0.  0.
<mgrwt>
<rscale>  0 0.23627336E+04</rscale>
<asrwt>0</asrwt>
<pdfrwt beam="1">  1        1 0.13336363E+00 0.23627336E+04</pdfrwt>
<pdfrwt beam="2">  1       -1 0.24768824E+00 0.23627336E+04</pdfrwt>
<totfact> 0.12579692E+00</totfact>
</mgrwt>
</event>
<event>
 4    1  0.1323225E-008  0.2656272E+04  0.7816531E-02  0.8349334E-01
          2   -1    0    0  501    0  0.00000000000E+00  0.00000000000E+00  0.20203472881E+04  0.20203472881E+04  0.00000000000E+00 0.  1.
         -2   -1    0    0    0  501 -0.00000000000E+00 -0.00000000000E+00 -0.87308986382E+03  0.87308986382E+03  0.00000000000E+00 0. -1.
    2000013    1    1    2    0    0 -0.26825325996E+03 -0.74021271023E+02  0.15381264249E+04  0.18291451170E+04  0.95000000000E+03 0.  0.
   -2000013    1    1    2    0    0  0.26825325996E+03  0.74021271023E+02 -0.39086900059E+03  0.10642920350E+04  0.95000000000E+03 0.  0.
<mgrwt>
<rscale>  0 0.26562716E+04</rscale>
<asrwt>0</asrwt>
<pdfrwt beam="1">  1        2 0.31082266E+00 0.26562716E+04</pdfrwt>
<pdfrwt beam="2">  1       -2 0.13432152E+00 0.26562716E+04</pdfrwt>
<totfact> 0.22903671E+00</totfact>
</mgrwt>
</event>
<event>
 4    1  0.1323225E-008  0.2275033E+04  0.7816531E-02  0.8487831E-01
         -2   -1    0    0    0  501 -0.00000000000E+00  0.00000000000E+00  0.71924946062E+03  0.71924946062E+03  0.00000000000E+00 0. -1.
          2   -1    0    0  501    0  0.00000000000E+00 -0.00000000000E+00 -0.17990202127E+04  0.17990202127E+04  0.00000000000E+00 0.  1.
    2000013    1    1    2    0    0 -0.31981994788E+03 -0.38324295238E+03 -0.95742050980E+03  0.14381634094E+04  0.95000000000E+03 0.  0.
   -2000013    1    1    2    0    0  0.31981994788E+03  0.38324295238E+03 -0.12235024234E+03  0.10801062639E+04  0.95000000000E+03 0.  0.
<mgrwt>
<rscale>  0 0.22750335E+04</rscale>
<asrwt>0</asrwt>
<pdfrwt beam="2">  1        2 0.27677234E+00 0.22750335E+04</pdfrwt>
<pdfrwt beam="1">  1       -2 0.11065376E+00 0.22750335E+04</pdfrwt>
<totfact> 0.50834248E+00</totfact>
</mgrwt>
</event>
<event>
 4    1  0.1323225E-008  0.3153742E+04  0.7816531E-02  0.8201142E-01
          2   -1    0    0  501    0  0.00000000000E+00  0.00000000000E+00  0.15233592855E+04  0.15233592855E+04  0.00000000000E+00 0.  1.
         -2   -1    0    0    0  501 -0.00000000000E+00 -0.00000000000E+00 -0.16322625788E+04  0.16322625788E+04  0.00000000000E+00 0. -1.
    2000013    1    1    2    0    0 -0.26801358297E+03 -0.12294798762E+04 -0.78347030679E+02  0.15786355829E+04  0.95000000000E+03 0.  0.
   -2000013    1    1    2    0    0  0.26801358297E+03  0.12294798762E+04 -0.30556262610E+02  0.15769862814E+04  0.95000000000E+03 0.  0.
<mgrwt>
<rscale>  0 0.31537421E+04</rscale>
<asrwt>0</asrwt>
<pdfrwt beam="1">  1        2 0.23436297E+00 0.31537421E+04</pdfrwt>
<pdfrwt beam="2">  1       -2 0.25111732E+00 0.31537421E+04</pdfrwt>
<totfact> 0.65840075E-01</totfact>
</mgrwt>
</event>
<event>
 4    1  0.1323225E-008  0.3024754E+04  0.7816531E-02  0.8236697E-01
          2   -1    0    0  501    0  0.00000000000E+00  0.00000000000E+00  0.15421295056E+04  0.15421295056E+04  0.00000000000E+00 0.  1.
         -2   -1    0    0    0  501 -0.00000000000E+00 -0.00000000000E+00 -0.14831983646E+04  0.14831983646E+04  0.00000000000E+00 0. -1.
    2000013    1    1    2    0    0  0.17019648520E+03  0.11424207797E+04 -0.19572572864E+03  0.15082773758E+04  0.95000000000E+03 0.  0.
   -2000013    1    1    2    0    0 -0.17019648520E+03 -0.11424207797E+04  0.25465686969E+03  0.15170504944E+04  0.95000000000E+03 0.  0.
<mgrwt>
<rscale>  0 0.30247538E+04</rscale>
<asrwt>0</asrwt>
<pdfrwt beam="1">  1        2 0.23725069E+00 0.30247538E+04</pdfrwt>
<pdfrwt beam="2">  1       -2 0.22818436E+00 0.30247538E+04</pdfrwt>
<totfact> 0.90115747E-01</totfact>
</mgrwt>
</event>
<event>
 4    1  0.1323225E-008  0.2534590E+04  0.7816531E-02  0.8390765E-01
          2   -1    0    0  501    0  0.00000000000E+00  0.00000000000E+00  0.18920389610E+04  0.18920389610E+04  0.00000000000E+00 0.  1.
         -2   -1    0    0    0  501 -0.00000000000E+00 -0.00000000000E+00 -0.84883941241E+03  0.84883941241E+03  0.00000000000E+00 0. -1.
    2000013    1    1    2    0    0  0.71629363818E+03  0.43264357854E+03  0.58353418059E+03  0.13940119017E+04  0.95000000000E+03 0.  0.
   -2000013    1    1    2    0    0 -0.71629363818E+03 -0.43264357854E+03  0.45966536803E+03  0.13468664717E+04  0.95000000000E+03 0.  0.
<mgrwt>
<rscale>  0 0.25345905E+04</rscale>
<asrwt>0</asrwt>
<pdfrwt beam="1">  1        2 0.29108292E+00 0.25345905E+04</pdfrwt>
<pdfrwt beam="2">  1       -2 0.13059068E+00 0.25345905E+04</pdfrwt>
<totfact> 0.29292754E+00</totfact>
</mgrwt>
</event>
<event>
 4    1  0.1323225E-008  0.3490320E+04  0.7816531E-02  0.8116088E-01
          2   -1    0    0  501    0  0.00000000000E+00  0.00000000000E+00  0.18705693734E+04  0.18705693734E+04  0.00000000000E+00 0.  1.
         -2   -1    0    0    0  501 -0.00000000000E+00 -0.00000000000E+00 -0.16281583435E+04  0.16281583435E+04  0.00000000000E+00 0. -1.
    2000013    1    1    2    0    0  0.76988766824E+03 -0.68319767767E+03 -0.92226174330E+03  0.16770667284E+04  0.95000000000E+03 0.  0.
   -2000013    1    1    2    0    0 -0.76988766824E+03  0.68319767767E+03  0.11646727732E+04  0.18216609885E+04  0.95000000000E+03 0.  0.
<mgrwt>
<rscale>  0 0.34903198E+04</rscale>
<asrwt>0</asrwt>
<pdfrwt beam="1">  1        2 0.28777990E+00 0.34903198E+04</pdfrwt>
<pdfrwt beam="2">  1       -2 0.25048590E+00 0.34903198E+04</pdfrwt>
<totfact> 0.41383411E-01</totfact>
</mgrwt>
</event>
<event>
 4    1  0.1323225E-008  0.2269096E+04  0.7816531E-02  0.8490207E-01
         -2   -1    0    0    0  501 -0.00000000000E+00  0.00000000000E+00  0.74453812957E+03  0.74453812957E+03  0.00000000000E+00 0.  1.
          2   -1    0    0  501    0  0.00000000000E+00 -0.00000000000E+00 -0.17288557432E+04  0.17288557432E+04  0.00000000000E+00 0. -1.
    2000013    1    1    2    0    0 -0.12751553900E+03  0.21457335615E+03 -0.11110809014E+04  0.14830046215E+04  0.95000000000E+03 0.  0.
   -2000013    1    1    2    0    0  0.12751553900E+03 -0.21457335615E+03  0.12676328782E+03  0.99038925125E+03  0.95000000000E+03 0.  0.
<mgrwt>
<rscale>  0 0.22690959E+04</rscale>
<asrwt>0</asrwt>
<pdfrwt beam="2">  1        2 0.26597781E+00 0.22690959E+04</pdfrwt>
<pdfrwt beam="1">  1       -2 0.11454433E+00 0.22690959E+04</pdfrwt>
<totfact> 0.51148873E+00</totfact>
</mgrwt>
</event>
<event>
 4    1  0.1323225E-008  0.2772429E+04  0.7816531E-02  0.8311879E-01
          2   -1    0    0  501    0  0.00000000000E+00  0.00000000000E+00  0.26998275153E+04  0.26998275153E+04  0.00000000000E+00 0.  1.
         -2   -1    0    0    0  501 -0.00000000000E+00 -0.00000000000E+00 -0.71174580893E+03  0.71174580893E+03  0.00000000000E+00 0. -1.
    2000013    1    1    2    0    0  0.74458014696E+03  0.36589907351E+03  0.17017959889E+04  0.21182283435E+04  0.95000000000E+03 0.  0.
   -2000013    1    1    2    0    0 -0.74458014696E+03 -0.36589907351E+03  0.28628571747E+03  0.12933449808E+04  0.95000000000E+03 0.  0.
<mgrwt>
<rscale>  0 0.27724292E+04</rscale>
<asrwt>0</asrwt>
<pdfrwt beam="1">  1        2 0.41535807E+00 0.27724292E+04</pdfrwt>
<pdfrwt beam="2">  1       -2 0.10949936E+00 0.27724292E+04</pdfrwt>
<totfact> 0.15383677E+00</totfact>
</mgrwt>
</event>
<event>
 4    1  0.1323225E-008  0.1937715E+04  0.7816531E-02  0.8636308E-01
          2   -1    0    0  501    0  0.00000000000E+00  0.00000000000E+00  0.11590819616E+04  0.11590819616E+04  0.00000000000E+00 0.  1.
         -2   -1    0    0    0  501 -0.00000000000E+00 -0.00000000000E+00 -0.80985159984E+03  0.80985159984E+03  0.00000000000E+00 0. -1.
    2000013    1    1    2    0    0 -0.15656852950E+03 -0.37658274009E+02  0.27750130662E+03  0.10027157250E+04  0.95000000000E+03 0.  0.
   -2000013    1    1    2    0    0  0.15656852950E+03  0.37658274009E+02  0.71729055116E+02  0.96621783640E+03  0.95000000000E+03 0.  0.
<mgrwt>
<rscale>  0 0.19377145E+04</rscale>
<asrwt>0</asrwt>
<pdfrwt beam="1">  1        2 0.17832030E+00 0.19377145E+04</pdfrwt>
<pdfrwt beam="2">  1       -2 0.12459255E+00 0.19377145E+04</pdfrwt>
<totfact> 0.90500769E+00</totfact>
</mgrwt>
</event>
<event>
 4    1  0.1323225E-008  0.2231301E+04  0.7816531E-02  0.8505512E-01
          2   -1    0    0  501    0  0.00000000000E+00  0.00000000000E+00  0.18336895237E+04  0.18336895237E+04  0.00000000000E+00 0.  1.
         -2   -1    0    0    0  501 -0.00000000000E+00 -0.00000000000E+00 -0.67878248411E+03  0.67878248411E+03  0.00000000000E+00 0. -1.
    2000013    1    1    2    0    0  0.51029921051E+03 -0.27670717509E+03  0.65868406806E+03  0.12935752187E+04  0.95000000000E+03 0.  0.
   -2000013    1    1    2    0    0 -0.51029921051E+03  0.27670717509E+03  0.49622297154E+03  0.12188967891E+04  0.95000000000E+03 0.  0.
<mgrwt>
<rscale>  0 0.22313013E+04</rscale>
<asrwt>0</asrwt>
<pdfrwt beam="1">  1        2 0.28210608E+00 0.22313013E+04</pdfrwt>
<pdfrwt beam="2">  1       -2 0.10442808E+00 0.22313013E+04</pdfrwt>
<totfact> 0.56122354E+00</totfact>
</mgrwt>
</event>
<event>
 4    1  0.1323225E-008  0.3103673E+04  0.7816531E-02  0.8214731E-01
          2   -1    0    0  501    0  0.00000000000E+00  0.00000000000E+00  0.16511248727E+04  0.16511248727E+04  0.00000000000E+00 0.  1.
         -2   -1    0    0    0  501 -0.00000000000E+00 -0.00000000000E+00 -0.14585184245E+04  0.14585184245E+04  0.00000000000E+00 0. -1.
    2000013    1    1    2    0    0  0.63925287134E+03  0.69683291359E+03 -0.68717018721E+03  0.15062945294E+04  0.95000000000E+03 0.  0.
   -2000013    1    1    2    0    0 -0.63925287134E+03 -0.69683291359E+03  0.87977663547E+03  0.16033487678E+04  0.95000000000E+03 0.  0.
<mgrwt>
<rscale>  0 0.31036727E+04</rscale>
<asrwt>0</asrwt>
<pdfrwt beam="1">  1        2 0.25401921E+00 0.31036727E+04</pdfrwt>
<pdfrwt beam="2">  1       -2 0.22438745E+00 0.31036727E+04</pdfrwt>
<totfact> 0.82182899E-01</totfact>
</mgrwt>
</event>
<event>
 4    1  0.1323225E-008  0.2725484E+04  0.7816531E-02  0.8326783E-01
         -2   -1    0    0    0  501 -0.00000000000E+00  0.00000000000E+00  0.16897071219E+04  0.16897071219E+04  0.00000000000E+00 0. -1.
          2   -1    0    0  501    0  0.00000000000E+00 -0.00000000000E+00 -0.10990459426E+04  0.10990459426E+04  0.00000000000E+00 0.  1.
    2000013    1    1    2    0    0 -0.85544649648E+02  0.82579950784E+03 -0.23170208233E+03  0.12827503924E+04  0.95000000000E+03 0.  0.
   -2000013    1    1    2    0    0  0.85544649648E+02 -0.82579950784E+03  0.82236326167E+03  0.15060026721E+04  0.95000000000E+03 0.  0.
<mgrwt>
<rscale>  0 0.27254840E+04</rscale>
<asrwt>0</asrwt>
<pdfrwt beam="2">  1        2 0.16908399E+00 0.27254840E+04</pdfrwt>
<pdfrwt beam="1">  1       -2 0.25995494E+00 0.27254840E+04</pdfrwt>
<totfact> 0.10662250E+00</totfact>
</mgrwt>
</event>
<event>
 4    1  0.1323225E-008  0.2052432E+04  0.7816531E-02  0.8582492E-01
          2   -1    0    0  501    0  0.00000000000E+00  0.00000000000E+00  0.13692603881E+04  0.13692603881E+04  0.00000000000E+00 0.  1.
         -2   -1    0    0    0  501 -0.00000000000E+00 -0.00000000000E+00 -0.76911573705E+03  0.76911573705E+03  0.00000000000E+00 0. -1.
    2000013    1    1    2    0    0  0.82529134545E+02 -0.16303624385E+03  0.65679491136E+03  0.11693038230E+04  0.95000000000E+03 0.  0.
   -2000013    1    1    2    0    0 -0.82529134545E+02  0.16303624385E+03 -0.56650260302E+02  0.96907230218E+03  0.95000000000E+03 0.  0.
<mgrwt>
<rscale>  0 0.20524324E+04</rscale>
<asrwt>0</asrwt>
<pdfrwt beam="1">  1        2 0.21065544E+00 0.20524324E+04</pdfrwt>
<pdfrwt beam="2">  1       -2 0.11832550E+00 0.20524324E+04</pdfrwt>
<totfact> 0.76678828E+00</totfact>
</mgrwt>
</event>
<event>
 4    1  0.1323225E-008  0.3485209E+04  0.7816531E-02  0.8117304E-01
         -2   -1    0    0    0  501 -0.00000000000E+00  0.00000000000E+00  0.91469110752E+03  0.91469110752E+03  0.00000000000E+00 0. -1.
          2   -1    0    0  501    0  0.00000000000E+00 -0.00000000000E+00 -0.33198864864E+04  0.33198864864E+04  0.00000000000E+00 0.  1.
    2000013    1    1    2    0    0  0.11543577488E+04 -0.78716703539E+03 -0.17209359190E+04  0.24116994405E+04  0.95000000000E+03 0.  0.
   -2000013    1    1    2    0    0 -0.11543577488E+04  0.78716703539E+03 -0.68425945981E+03  0.18228781534E+04  0.95000000000E+03 0.  0.
<mgrwt>
<rscale>  0 0.34852091E+04</rscale>
<asrwt>0</asrwt>
<pdfrwt beam="2">  1        2 0.51075177E+00 0.34852091E+04</pdfrwt>
<pdfrwt beam="1">  1       -2 0.14072171E+00 0.34852091E+04</pdfrwt>
<totfact> 0.31455326E-01</totfact>
</mgrwt>
</event>
<event>
 4    1  0.1323225E-008  0.2295777E+04  0.7816531E-02  0.8479588E-01
          2   -1    0    0  501    0  0.00000000000E+00  0.00000000000E+00  0.72371345670E+03  0.72371345670E+03  0.00000000000E+00 0.  1.
         -2   -1    0    0    0  501 -0.00000000000E+00 -0.00000000000E+00 -0.18206760420E+04  0.18206760420E+04  0.00000000000E+00 0. -1.
    2000013    1    1    2    0    0  0.52213888520E+03  0.25220753175E+03 -0.23715182733E+03  0.11379712842E+04  0.95000000000E+03 0.  0.
   -2000013    1    1    2    0    0 -0.52213888520E+03 -0.25220753175E+03 -0.85981075796E+03  0.14064182145E+04  0.95000000000E+03 0.  0.
<mgrwt>
<rscale>  0 0.22957768E+04</rscale>
<asrwt>0</asrwt>
<pdfrwt beam="1">  1        2 0.11134053E+00 0.22957768E+04</pdfrwt>
<pdfrwt beam="2">  1       -2 0.28010400E+00 0.22957768E+04</pdfrwt>
<totfact> 0.14977593E+00</totfact>
</mgrwt>
</event>
<event>
 4    1  0.1323225E-008  0.2236991E+04  0.7816531E-02  0.8503188E-01
         -2   -1    0    0    0  501 -0.00000000000E+00  0.00000000000E+00  0.98278482249E+03  0.98278482249E+03  0.00000000000E+00 0. -1.
          2   -1    0    0  501    0  0.00000000000E+00 -0.00000000000E+00 -0.12729457286E+04  0.12729457286E+04  0.00000000000E+00 0.  1.
    2000013    1    1    2    0    0  0.46168136289E+03 -0.15017167043E+03 -0.48379697132E+03  0.11714353251E+04  0.95000000000E+03 0.  0.
   -2000013    1    1    2    0    0 -0.46168136289E+03  0.15017167043E+03  0.19363606518E+03  0.10842952260E+04  0.95000000000E+03 0.  0.
<mgrwt>
<rscale>  0 0.22369906E+04</rscale>
<asrwt>0</asrwt>
<pdfrwt beam="2">  1        2 0.19583780E+00 0.22369906E+04</pdfrwt>
<pdfrwt beam="1">  1       -2 0.15119766E+00 0.22369906E+04</pdfrwt>
<totfact> 0.45840519E+00</totfact>
</mgrwt>
</event>
<event>
 4    1  0.1323225E-008  0.3167736E+04  0.7816531E-02  0.8197390E-01
         -2   -1    0    0    0  501 -0.00000000000E+00  0.00000000000E+00  0.17416330118E+04  0.17416330118E+04  0.00000000000E+00 0. -1.
          2   -1    0    0  501    0  0.00000000000E+00 -0.00000000000E+00 -0.14403940105E+04  0.14403940105E+04  0.00000000000E+00 0.  1.
    2000013    1    1    2    0    0  0.15636027429E+02 -0.12144664459E+04 -0.21290335948E+03  0.15565992015E+04  0.95000000000E+03 0.  0.
   -2000013    1    1    2    0    0 -0.15636027429E+02  0.12144664459E+04  0.51414236081E+03  0.16254278208E+04  0.95000000000E+03 0.  0.
<mgrwt>
<rscale>  0 0.31677359E+04</rscale>
<asrwt>0</asrwt>
<pdfrwt beam="2">  1        2 0.22159908E+00 0.31677359E+04</pdfrwt>
<pdfrwt beam="1">  1       -2 0.26794354E+00 0.31677359E+04</pdfrwt>
<totfact> 0.57797996E-01</totfact>
</mgrwt>
</event>
<event>
 4    1  0.1323225E-008  0.2853005E+04  0.7816531E-02  0.8286999E-01
         -2   -1    0    0    0  501 -0.00000000000E+00  0.00000000000E+00  0.11025841670E+04  0.11025841670E+04  0.00000000000E+00 0. -1.
          2   -1    0    0  501    0  0.00000000000E+00 -0.00000000000E+00 -0.18455817053E+04  0.18455817053E+04  0.00000000000E+00 0.  1.
    2000013    1    1    2    0    0  0.10032958119E+04 -0.33356657036E+03 -0.24689477308E+03  0.14426802043E+04  0.95000000000E+03 0.  0.
   -2000013    1    1    2    0    0 -0.10032958119E+04  0.33356657036E+03 -0.49610276524E+03  0.15054856680E+04  0.95000000000E+03 0.  0.
<mgrwt>
<rscale>  0 0.28530048E+04</rscale>
<asrwt>0</asrwt>
<pdfrwt beam="2">  1        2 0.28393564E+00 0.28530048E+04</pdfrwt>
<pdfrwt beam="1">  1       -2 0.16962833E+00 0.28530048E+04</pdfrwt>
<totfact> 0.15125760E+00</totfact>
</mgrwt>
</event>
<event>
 4    1  0.1323225E-008  0.2536380E+04  0.7816531E-02  0.8390138E-01
         -2   -1    0    0    0  501 -0.00000000000E+00  0.00000000000E+00  0.77906927444E+03  0.77906927444E+03  0.00000000000E+00 0. -1.
          2   -1    0    0  501    0  0.00000000000E+00 -0.00000000000E+00 -0.20643945700E+04  0.20643945700E+04  0.00000000000E+00 0.  1.
    2000013    1    1    2    0    0  0.33436303600E+03  0.41222210995E+03 -0.13727209803E+04  0.17517387356E+04  0.95000000000E+03 0.  0.
   -2000013    1    1    2    0    0 -0.33436303600E+03 -0.41222210995E+03  0.87395684724E+02  0.10917251089E+04  0.95000000000E+03 0.  0.
<mgrwt>
<rscale>  0 0.25363804E+04</rscale>
<asrwt>0</asrwt>
<pdfrwt beam="2">  1        2 0.31759917E+00 0.25363804E+04</pdfrwt>
<pdfrwt beam="1">  1       -2 0.11985681E+00 0.25363804E+04</pdfrwt>
<totfact> 0.29130292E+00</totfact>
</mgrwt>
</event>
<event>
 4    1  0.1323225E-008  0.2578368E+04  0.7816531E-02  0.8375586E-01
         -2   -1    0    0    0  501 -0.00000000000E+00  0.00000000000E+00  0.18691795496E+04  0.18691795496E+04  0.00000000000E+00 0. -1.
          2   -1    0    0  501    0  0.00000000000E+00 -0.00000000000E+00 -0.88915754206E+03  0.88915754206E+03  0.00000000000E+00 0.  1.
    2000013    1    1    2    0    0 -0.33347716994E+03 -0.80170999112E+03  0.41031874265E+03  0.13508543235E+04  0.95000000000E+03 0.  0.
   -2000013    1    1    2    0    0  0.33347716994E+03  0.80170999112E+03  0.56970326494E+03  0.14074827682E+04  0.95000000000E+03 0.  0.
<mgrwt>
<rscale>  0 0.25783678E+04</rscale>
<asrwt>0</asrwt>
<pdfrwt beam="2">  1        2 0.13679347E+00 0.25783678E+04</pdfrwt>
<pdfrwt beam="1">  1       -2 0.28756608E+00 0.25783678E+04</pdfrwt>
<totfact> 0.10007111E+00</totfact>
</mgrwt>
</event>
<event>
 4    1  0.1323225E-008  0.2758551E+04  0.7816531E-02  0.8316253E-01
          2   -1    0    0  501    0  0.00000000000E+00  0.00000000000E+00  0.14035686890E+04  0.14035686890E+04  0.00000000000E+00 0.  1.
         -2   -1    0    0    0  501 -0.00000000000E+00 -0.00000000000E+00 -0.13554031662E+04  0.13554031662E+04  0.00000000000E+00 0. -1.
    2000013    1    1    2    0    0 -0.67608739397E+03 -0.23791590083E+03 -0.67330632093E+03  0.13673110626E+04  0.95000000000E+03 0.  0.
   -2000013    1    1    2    0    0  0.67608739397E+03  0.23791590083E+03  0.72147184373E+03  0.13916607925E+04  0.95000000000E+03 0.  0.
<mgrwt>
<rscale>  0 0.27585514E+04</rscale>
<asrwt>0</asrwt>
<pdfrwt beam="1">  1        2 0.21593364E+00 0.27585514E+04</pdfrwt>
<pdfrwt beam="2">  1       -2 0.20852356E+00 0.27585514E+04</pdfrwt>
<totfact> 0.14719690E+00</totfact>
</mgrwt>
</event>
<event>
 4    1  0.1323225E-008  0.2626360E+04  0.7816531E-02  0.8359302E-01
          2   -1    0    0  501    0  0.00000000000E+00  0.00000000000E+00  0.19701591689E+04  0.19701591689E+04  0.00000000000E+00 0.  1.
         -2   -1    0    0    0  501 -0.00000000000E+00 -0.00000000000E+00 -0.87528042324E+03  0.87528042324E+03  0.00000000000E+00 0. -1.
    2000013    1    1    2    0    0 -0.49394596701E+03 -0.25405797960E+03 -0.22885926884E+03  0.11240127403E+04  0.95000000000E+03 0.  0.
   -2000013    1    1    2    0    0  0.49394596701E+03  0.25405797960E+03  0.13237380145E+04  0.17214268518E+04  0.95000000000E+03 0.  0.
<mgrwt>
<rscale>  0 0.26263600E+04</rscale>
<asrwt>0</asrwt>
<pdfrwt beam="1">  1        2 0.30310141E+00 0.26263600E+04</pdfrwt>
<pdfrwt beam="2">  1       -2 0.13465853E+00 0.26263600E+04</pdfrwt>
<totfact> 0.24329836E+00</totfact>
</mgrwt>
</event>
<event>
 4    1  0.1323225E-008  0.2851151E+04  0.7816531E-02  0.8287562E-01
         -2   -1    0    0    0  501 -0.00000000000E+00  0.00000000000E+00  0.13170333158E+04  0.13170333158E+04  0.00000000000E+00 0. -1.
          2   -1    0    0  501    0  0.00000000000E+00 -0.00000000000E+00 -0.15430634752E+04  0.15430634752E+04  0.00000000000E+00 0.  1.
    2000013    1    1    2    0    0  0.85993579582E+03  0.14317411411E+03  0.49698622169E+03  0.13818406943E+04  0.95000000000E+03 0.  0.
   -2000013    1    1    2    0    0 -0.85993579582E+03 -0.14317411411E+03 -0.72301638112E+03  0.14782560966E+04  0.95000000000E+03 0.  0.
<mgrwt>
<rscale>  0 0.28511513E+04</rscale>
<asrwt>0</asrwt>
<pdfrwt beam="2">  1        2 0.23739438E+00 0.28511513E+04</pdfrwt>
<pdfrwt beam="1">  1       -2 0.20262051E+00 0.28511513E+04</pdfrwt>
<totfact> 0.13298800E+00</totfact>
</mgrwt>
</event>
<event>
 4    1  0.1323225E-008  0.2084923E+04  0.7816531E-02  0.8567914E-01
         -2   -1    0    0    0  501 -0.00000000000E+00  0.00000000000E+00  0.85935475633E+03  0.85935475633E+03  0.00000000000E+00 0. -1.
          2   -1    0    0  501    0  0.00000000000E+00 -0.00000000000E+00 -0.12645831252E+04  0.12645831252E+04  0.00000000000E+00 0.  1.
    2000013    1    1    2    0    0 -0.38584727687E+03  0.16869858136E+03 -0.28716240501E+03  0.10780999857E+04  0.95000000000E+03 0.  0.
   -2000013    1    1    2    0    0  0.38584727687E+03 -0.16869858136E+03 -0.11806596386E+03  0.10458378958E+04  0.95000000000E+03 0.  0.
<mgrwt>
<rscale>  0 0.20849226E+04</rscale>
<asrwt>0</asrwt>
<pdfrwt beam="2">  1        2 0.19455125E+00 0.20849226E+04</pdfrwt>
<pdfrwt beam="1">  1       -2 0.13220842E+00 0.20849226E+04</pdfrwt>
<totfact> 0.66589412E+00</totfact>
</mgrwt>
</event>
<event>
 4    1  0.1323225E-008  0.3250614E+04  0.7816531E-02  0.8175577E-01
         -2   -1    0    0    0  501 -0.00000000000E+00  0.00000000000E+00  0.10354848403E+04  0.10354848403E+04  0.00000000000E+00 0. -1.
          2   -1    0    0  501    0  0.00000000000E+00 -0.00000000000E+00 -0.25510980122E+04  0.25510980122E+04  0.00000000000E+00 0.  1.
    2000013    1    1    2    0    0  0.20858781382E+03 -0.84538996581E+03 -0.18505909959E+04  0.22550787358E+04  0.95000000000E+03 0.  0.
   -2000013    1    1    2    0    0 -0.20858781382E+03  0.84538996581E+03  0.33497782397E+03  0.13315041167E+04  0.95000000000E+03 0.  0.
<mgrwt>
<rscale>  0 0.32506143E+04</rscale>
<asrwt>0</asrwt>
<pdfrwt beam="2">  1        2 0.39247661E+00 0.32506143E+04</pdfrwt>
<pdfrwt beam="1">  1       -2 0.15930536E+00 0.32506143E+04</pdfrwt>
<totfact> 0.69467483E-01</totfact>
</mgrwt>
</event>
<event>
 4    1  0.1323225E-008  0.2258011E+04  0.7816531E-02  0.8494663E-01
         -2   -1    0    0    0  501 -0.00000000000E+00  0.00000000000E+00  0.74248056289E+03  0.74248056289E+03  0.00000000000E+00 0. -1.
          2   -1    0    0  501    0  0.00000000000E+00 -0.00000000000E+00 -0.17167498407E+04  0.17167498407E+04  0.00000000000E+00 0.  1.
    2000013    1    1    2    0    0  0.16010675906E+03 -0.54047240851E+03 -0.23309136382E+03  0.11289712939E+04  0.95000000000E+03 0.  0.
   -2000013    1    1    2    0    0 -0.16010675906E+03  0.54047240851E+03 -0.74117791400E+03  0.13302591097E+04  0.95000000000E+03 0.  0.
<mgrwt>
<rscale>  0 0.22580110E+04</rscale>
<asrwt>0</asrwt>
<pdfrwt beam="2">  1        2 0.26411536E+00 0.22580110E+04</pdfrwt>
<pdfrwt beam="1">  1       -2 0.11422778E+00 0.22580110E+04</pdfrwt>
<totfact> 0.52347655E+00</totfact>
</mgrwt>
</event>
<event>
 4    1  0.1323225E-008  0.2283461E+04  0.7816531E-02  0.8484471E-01
         -2   -1    0    0    0  501 -0.00000000000E+00  0.00000000000E+00  0.99843171912E+03  0.99843171912E+03  0.00000000000E+00 0. -1.
          2   -1    0    0  501    0  0.00000000000E+00 -0.00000000000E+00 -0.13055960886E+04  0.13055960886E+04  0.00000000000E+00 0.  1.
    2000013    1    1    2    0    0  0.62645278054E+03  0.88014917925E+02 -0.12401234044E+03  0.11480717628E+04  0.95000000000E+03 0.  0.
   -2000013    1    1    2    0    0 -0.62645278054E+03 -0.88014917925E+02 -0.18315202906E+03  0.11559560449E+04  0.95000000000E+03 0.  0.
<mgrwt>
<rscale>  0 0.22834610E+04</rscale>
<asrwt>0</asrwt>
<pdfrwt beam="2">  1        2 0.20086094E+00 0.22834610E+04</pdfrwt>
<pdfrwt beam="1">  1       -2 0.15360488E+00 0.22834610E+04</pdfrwt>
<totfact> 0.41898930E+00</totfact>
</mgrwt>
</event>
<event>
 4    1  0.1323225E-008  0.2052750E+04  0.7816531E-02  0.8582348E-01
         -2   -1    0    0    0  501 -0.00000000000E+00  0.00000000000E+00  0.13080901233E+04  0.13080901233E+04  0.00000000000E+00 0. -1.
          2   -1    0    0  501    0  0.00000000000E+00 -0.00000000000E+00 -0.80533097764E+03  0.80533097764E+03  0.00000000000E+00 0.  1.
    2000013    1    1    2    0    0  0.36528774587E+03 -0.15095106587E+02  0.11603112818E+03  0.10245126755E+04  0.95000000000E+03 0.  0.
   -2000013    1    1    2    0    0 -0.36528774587E+03  0.15095106587E+02  0.38672801749E+03  0.10889084255E+04  0.95000000000E+03 0.  0.
<mgrwt>
<rscale>  0 0.20527499E+04</rscale>
<asrwt>0</asrwt>
<pdfrwt beam="2">  1        2 0.12389707E+00 0.20527499E+04</pdfrwt>
<pdfrwt beam="1">  1       -2 0.20124463E+00 0.20527499E+04</pdfrwt>
<totfact> 0.41204650E+00</totfact>
</mgrwt>
</event>
<event>
 4    1  0.1323225E-008  0.2015595E+04  0.7816531E-02  0.8599364E-01
          2   -1    0    0  501    0  0.00000000000E+00  0.00000000000E+00  0.61563624685E+03  0.61563624685E+03  0.00000000000E+00 0.  1.
         -2   -1    0    0    0  501 -0.00000000000E+00 -0.00000000000E+00 -0.16497663102E+04  0.16497663102E+04  0.00000000000E+00 0. -1.
    2000013    1    1    2    0    0 -0.19297561589E+03 -0.23108993672E+03 -0.34842277272E+03  0.10557180380E+04  0.95000000000E+03 0.  0.
   -2000013    1    1    2    0    0  0.19297561589E+03  0.23108993672E+03 -0.68570729060E+03  0.12096845190E+04  0.95000000000E+03 0.  0.
<mgrwt>
<rscale>  0 0.20155951E+04</rscale>
<asrwt>0</asrwt>
<pdfrwt beam="1">  1        2 0.94713269E-01 0.20155951E+04</pdfrwt>
<pdfrwt beam="2">  1       -2 0.25381020E+00 0.20155951E+04</pdfrwt>
<totfact> 0.27153675E+00</totfact>
</mgrwt>
</event>
<event>
 4    1  0.1323225E-008  0.2393378E+04  0.7816531E-02  0.8441987E-01
         -2   -1    0    0    0  501 -0.00000000000E+00  0.00000000000E+00  0.19048754456E+04  0.19048754456E+04  0.00000000000E+00 0. -1.
          2   -1    0    0  501    0  0.00000000000E+00 -0.00000000000E+00 -0.75178931753E+03  0.75178931753E+03  0.00000000000E+00 0.  1.
    2000013    1    1    2    0    0  0.58061415095E+03  0.34994353565E+03  0.87020576601E+03  0.14557923429E+04  0.95000000000E+03 0.  0.
   -2000013    1    1    2    0    0 -0.58061415095E+03 -0.34994353565E+03  0.28288036205E+03  0.12008724202E+04  0.95000000000E+03 0.  0.
<mgrwt>
<rscale>  0 0.23933784E+04</rscale>
<asrwt>0</asrwt>
<pdfrwt beam="2">  1        2 0.11565990E+00 0.23933784E+04</pdfrwt>
<pdfrwt beam="1">  1       -2 0.29305776E+00 0.23933784E+04</pdfrwt>
<totfact> 0.11791121E+00</totfact>
</mgrwt>
</event>
<event>
 4    1  0.1323225E-008  0.2376342E+04  0.7816531E-02  0.8448414E-01
          2   -1    0    0  501    0  0.00000000000E+00  0.00000000000E+00  0.11330892998E+04  0.11330892998E+04  0.00000000000E+00 0.  1.
         -2   -1    0    0    0  501 -0.00000000000E+00 -0.00000000000E+00 -0.12459301712E+04  0.12459301712E+04  0.00000000000E+00 0. -1.
    2000013    1    1    2    0    0  0.31871996324E+03 -0.33594485599E+02  0.58190222572E+03  0.11592330243E+04  0.95000000000E+03 0.  0.
   -2000013    1    1    2    0    0 -0.31871996324E+03  0.33594485599E+02 -0.69474309707E+03  0.12197864466E+04  0.95000000000E+03 0.  0.
<mgrwt>
<rscale>  0 0.23763418E+04</rscale>
<asrwt>0</asrwt>
<pdfrwt beam="1">  1        2 0.17432143E+00 0.23763418E+04</pdfrwt>
<pdfrwt beam="2">  1       -2 0.19168157E+00 0.23763418E+04</pdfrwt>
<totfact> 0.28287424E+00</totfact>
</mgrwt>
</event>
<event>
 4    1  0.1323225E-008  0.2581338E+04  0.7816531E-02  0.8374568E-01
         -2   -1    0    0    0  501 -0.00000000000E+00  0.00000000000E+00  0.55795026146E+03  0.55795026146E+03  0.00000000000E+00 0. -1.
          2   -1    0    0  501    0  0.00000000000E+00 -0.00000000000E+00 -0.29856183984E+04  0.29856183984E+04  0.00000000000E+00 0.  1.
    2000013    1    1    2    0    0  0.69343902964E+03  0.33942848558E+03 -0.17752546780E+04  0.21564087174E+04  0.95000000000E+03 0.  0.
   -2000013    1    1    2    0    0 -0.69343902964E+03 -0.33942848558E+03 -0.65241345895E+03  0.13871599425E+04  0.95000000000E+03 0.  0.
<mgrwt>
<rscale>  0 0.25813381E+04</rscale>
<asrwt>0</asrwt>
<pdfrwt beam="2">  1        2 0.45932590E+00 0.25813381E+04</pdfrwt>
<pdfrwt beam="1">  1       -2 0.85838502E-01 0.25813381E+04</pdfrwt>
<totfact> 0.18554336E+00</totfact>
</mgrwt>
</event>
<event>
 4    1  0.1323225E-008  0.2830083E+04  0.7816531E-02  0.8293989E-01
         -1   -1    0    0    0  501 -0.00000000000E+00  0.00000000000E+00  0.69648695440E+03  0.69648695440E+03  0.00000000000E+00 0. -1.
          1   -1    0    0  501    0  0.00000000000E+00 -0.00000000000E+00 -0.28749172267E+04  0.28749172267E+04  0.00000000000E+00 0.  1.
    2000013    1    1    2    0    0  0.58654779128E+03  0.62757528737E+03 -0.32999781811E+03  0.13226063710E+04  0.95000000000E+03 0.  0.
   -2000013    1    1    2    0    0 -0.58654779128E+03 -0.62757528737E+03 -0.18484324542E+04  0.22487978100E+04  0.95000000000E+03 0.  0.
<mgrwt>
<rscale>  0 0.28300829E+04</rscale>
<asrwt>0</asrwt>
<pdfrwt beam="2">  1        1 0.44229496E+00 0.28300829E+04</pdfrwt>
<pdfrwt beam="1">  1       -1 0.10715184E+00 0.28300829E+04</pdfrwt>
<totfact> 0.51601957E-01</totfact>
</mgrwt>
</event>
<event>
 4    1  0.1323225E-008  0.2805024E+04  0.7816531E-02  0.8301710E-01
          2   -1    0    0  501    0  0.00000000000E+00  0.00000000000E+00  0.23915637514E+04  0.23915637514E+04  0.00000000000E+00 0. -1.
         -2   -1    0    0    0  501 -0.00000000000E+00 -0.00000000000E+00 -0.82249084619E+03  0.82249084619E+03  0.00000000000E+00 0.  1.
    2000013    1    1    2    0    0  0.36535175204E+03  0.96490451951E+03  0.78921319053E+03  0.16093104407E+04  0.95000000000E+03 0.  0.
   -2000013    1    1    2    0    0 -0.36535175204E+03 -0.96490451951E+03  0.77985971471E+03  0.16047441569E+04  0.95000000000E+03 0.  0.
<mgrwt>
<rscale>  0 0.28050236E+04</rscale>
<asrwt>0</asrwt>
<pdfrwt beam="1">  1        2 0.36793288E+00 0.28050236E+04</pdfrwt>
<pdfrwt beam="2">  1       -2 0.12653705E+00 0.28050236E+04</pdfrwt>
<totfact> 0.16255215E+00</totfact>
</mgrwt>
</event>
<event>
 4    1  0.1323225E-008  0.2107748E+04  0.7816531E-02  0.8557838E-01
          2   -1    0    0  501    0  0.00000000000E+00  0.00000000000E+00  0.67109318685E+03  0.67109318685E+03  0.00000000000E+00 0.  1.
         -2   -1    0    0    0  501 -0.00000000000E+00 -0.00000000000E+00 -0.16549862697E+04  0.16549862697E+04  0.00000000000E+00 0. -1.
    2000013    1    1    2    0    0  0.13739678608E+03  0.42877816271E+03 -0.41068922507E+03  0.11286692293E+04  0.95000000000E+03 0.  0.
   -2000013    1    1    2    0    0 -0.13739678608E+03 -0.42877816271E+03 -0.57320385774E+03  0.11974102272E+04  0.95000000000E+03 0.  0.
<mgrwt>
<rscale>  0 0.21077476E+04</rscale>
<asrwt>0</asrwt>
<pdfrwt beam="1">  1        2 0.10324511E+00 0.21077476E+04</pdfrwt>
<pdfrwt beam="2">  1       -2 0.25461327E+00 0.21077476E+04</pdfrwt>
<totfact> 0.23952719E+00</totfact>
</mgrwt>
</event>
<event>
 4    1  0.1323225E-008  0.2233271E+04  0.7816531E-02  0.8504706E-01
         -2   -1    0    0    0  501 -0.00000000000E+00  0.00000000000E+00  0.12865347490E+04  0.12865347490E+04  0.00000000000E+00 0.  1.
          2   -1    0    0  501    0  0.00000000000E+00 -0.00000000000E+00 -0.96917295073E+03  0.96917295073E+03  0.00000000000E+00 0. -1.
    2000013    1    1    2    0    0 -0.47654121240E+02  0.35002486921E+03  0.63198917471E+03  0.11944449093E+04  0.95000000000E+03 0.  0.
   -2000013    1    1    2    0    0  0.47654121240E+02 -0.35002486921E+03 -0.31462737646E+03  0.10612627904E+04  0.95000000000E+03 0.  0.
<mgrwt>
<rscale>  0 0.22332709E+04</rscale>
<asrwt>0</asrwt>
<pdfrwt beam="2">  1        2 0.14910353E+00 0.22332709E+04</pdfrwt>
<pdfrwt beam="1">  1       -2 0.19792842E+00 0.22332709E+04</pdfrwt>
<totfact> 0.32987808E+00</totfact>
</mgrwt>
</event>
<event>
 4    1  0.1323225E-008  0.2754846E+04  0.7816531E-02  0.8317426E-01
          1   -1    0    0  501    0  0.00000000000E+00  0.00000000000E+00  0.24441062310E+04  0.24441062310E+04  0.00000000000E+00 0.  1.
         -1   -1    0    0    0  501 -0.00000000000E+00 -0.00000000000E+00 -0.77627292833E+03  0.77627292833E+03  0.00000000000E+00 0. -1.
    2000013    1    1    2    0    0  0.82425908932E+03 -0.56149732513E+03  0.82158903798E+03  0.16038051128E+04  0.95000000000E+03 0.  0.
   -2000013    1    1    2    0    0 -0.82425908932E+03  0.56149732513E+03  0.84624426469E+03  0.16165740465E+04  0.95000000000E+03 0.  0.
<mgrwt>
<rscale>  0 0.27548455E+04</rscale>
<asrwt>0</asrwt>
<pdfrwt beam="1">  1        1 0.37601634E+00 0.27548455E+04</pdfrwt>
<pdfrwt beam="2">  1       -1 0.11942661E+00 0.27548455E+04</pdfrwt>
<totfact> 0.80596650E-01</totfact>
</mgrwt>
</event>
<event>
 4    1  0.1323225E-008  0.2154026E+04  0.7816531E-02  0.8537811E-01
          1   -1    0    0  501    0  0.00000000000E+00  0.00000000000E+00  0.59252183973E+03  0.59252183973E+03  0.00000000000E+00 0.  1.
         -1   -1    0    0    0  501 -0.00000000000E+00 -0.00000000000E+00 -0.19576614500E+04  0.19576614500E+04  0.00000000000E+00 0. -1.
    2000013    1    1    2    0    0 -0.39370410046E+03 -0.28974636941E+03 -0.84360521763E+03  0.13612955743E+04  0.95000000000E+03 0.  0.
   -2000013    1    1    2    0    0  0.39370410046E+03  0.28974636941E+03 -0.52153439267E+03  0.11888877155E+04  0.95000000000E+03 0.  0.
<mgrwt>
<rscale>  0 0.21540262E+04</rscale>
<asrwt>0</asrwt>
<pdfrwt beam="1">  1        1 0.91157206E-01 0.21540262E+04</pdfrwt>
<pdfrwt beam="2">  1       -1 0.30117868E+00 0.21540262E+04</pdfrwt>
<totfact> 0.10363576E+00</totfact>
</mgrwt>
</event>
<event>
 4    1  0.1323225E-008  0.2683252E+04  0.7816531E-02  0.8340460E-01
         -2   -1    0    0    0  501 -0.00000000000E+00  0.00000000000E+00  0.12765547138E+04  0.12765547138E+04  0.00000000000E+00 0.  1.
          2   -1    0    0  501    0  0.00000000000E+00 -0.00000000000E+00 -0.14100141761E+04  0.14100141761E+04  0.00000000000E+00 0. -1.
    2000013    1    1    2    0    0  0.73423564912E+03  0.55506021651E+03  0.15774913837E+03  0.13321331101E+04  0.95000000000E+03 0.  0.
   -2000013    1    1    2    0    0 -0.73423564912E+03 -0.55506021651E+03 -0.29120860062E+03  0.13544357797E+04  0.95000000000E+03 0.  0.
<mgrwt>
<rscale>  0 0.26832519E+04</rscale>
<asrwt>0</asrwt>
<pdfrwt beam="2">  1        2 0.21692526E+00 0.26832519E+04</pdfrwt>
<pdfrwt beam="1">  1       -2 0.19639303E+00 0.26832519E+04</pdfrwt>
<totfact> 0.17627588E+00</totfact>
</mgrwt>
</event>
<event>
 4    1  0.1323225E-008  0.2158386E+04  0.7816531E-02  0.8535951E-01
         -2   -1    0    0    0  501 -0.00000000000E+00  0.00000000000E+00  0.70120971346E+03  0.70120971346E+03  0.00000000000E+00 0. -1.
          2   -1    0    0  501    0  0.00000000000E+00 -0.00000000000E+00 -0.16609254704E+04  0.16609254704E+04  0.00000000000E+00 0.  1.
    2000013    1    1    2    0    0 -0.23164182727E+03  0.37000003730E+03 -0.18701846472E+03  0.10620893888E+04  0.95000000000E+03 0.  0.
   -2000013    1    1    2    0    0  0.23164182727E+03 -0.37000003730E+03 -0.77269729219E+03  0.13000457950E+04  0.95000000000E+03 0.  0.
<mgrwt>
<rscale>  0 0.21583856E+04</rscale>
<asrwt>0</asrwt>
<pdfrwt beam="2">  1        2 0.25552700E+00 0.21583856E+04</pdfrwt>
<pdfrwt beam="1">  1       -2 0.10787842E+00 0.21583856E+04</pdfrwt>
<totfact> 0.65137661E+00</totfact>
</mgrwt>
</event>
<event>
 4    1  0.1323225E-008  0.2288491E+04  0.7816531E-02  0.8482473E-01
          2   -1    0    0  501    0  0.00000000000E+00  0.00000000000E+00  0.22685361541E+04  0.22685361541E+04  0.00000000000E+00 0.  1.
         -2   -1    0    0    0  501 -0.00000000000E+00 -0.00000000000E+00 -0.57715546008E+03  0.57715546008E+03  0.00000000000E+00 0. -1.
    2000013    1    1    2    0    0 -0.57444923553E+03 -0.12834651123E+02  0.11899373961E+04  0.16274543493E+04  0.95000000000E+03 0.  0.
   -2000013    1    1    2    0    0  0.57444923553E+03  0.12834651123E+02  0.50144329789E+03  0.12182372648E+04  0.95000000000E+03 0.  0.
<mgrwt>
<rscale>  0 0.22884912E+04</rscale>
<asrwt>0</asrwt>
<pdfrwt beam="1">  1        2 0.34900556E+00 0.22884912E+04</pdfrwt>
<pdfrwt beam="2">  1       -2 0.88793149E-01 0.22884912E+04</pdfrwt>
<totfact> 0.46727517E+00</totfact>
</mgrwt>
</event>
<event>
 4    1  0.1323225E-008  0.2351725E+04  0.7816531E-02  0.8457801E-01
         -2   -1    0    0    0  501 -0.00000000000E+00  0.00000000000E+00  0.43555613434E+03  0.43555613434E+03  0.00000000000E+00 0. -1.
          2   -1    0    0  501    0  0.00000000000E+00 -0.00000000000E+00 -0.31744542969E+04  0.31744542969E+04  0.00000000000E+00 0.  1.
    2000013    1    1    2    0    0 -0.14459701440E+03  0.38588263060E+03 -0.22245950864E+04  0.24538005215E+04  0.95000000000E+03 0.  0.
   -2000013    1    1    2    0    0  0.14459701440E+03 -0.38588263060E+03 -0.51430307624E+03  0.11562099098E+04  0.95000000000E+03 0.  0.
<mgrwt>
<rscale>  0 0.23517254E+04</rscale>
<asrwt>0</asrwt>
<pdfrwt beam="2">  1        2 0.48837758E+00 0.23517254E+04</pdfrwt>
<pdfrwt beam="1">  1       -2 0.67008637E-01 0.23517254E+04</pdfrwt>
<totfact> 0.24894444E+00</totfact>
</mgrwt>
</event>
<event>
 4    1  0.1323225E-008  0.2461683E+04  0.7816531E-02  0.8416765E-01
         -2   -1    0    0    0  501 -0.00000000000E+00  0.00000000000E+00  0.58560047966E+03  0.58560047966E+03  0.00000000000E+00 0. -1.
          2   -1    0    0  501    0  0.00000000000E+00 -0.00000000000E+00 -0.25870391320E+04  0.25870391320E+04  0.00000000000E+00 0.  1.
    2000013    1    1    2    0    0  0.72659361638E+02 -0.77855304975E+03 -0.10424242455E+04  0.16126290775E+04  0.95000000000E+03 0.  0.
   -2000013    1    1    2    0    0 -0.72659361638E+02  0.77855304975E+03 -0.95901440690E+03  0.15600105342E+04  0.95000000000E+03 0.  0.
<mgrwt>
<rscale>  0 0.24616835E+04</rscale>
<asrwt>0</asrwt>
<pdfrwt beam="2">  1        2 0.39800603E+00 0.24616835E+04</pdfrwt>
<pdfrwt beam="1">  1       -2 0.90092379E-01 0.24616835E+04</pdfrwt>
<totfact> 0.29210035E+00</totfact>
</mgrwt>
</event>
<event>
 4    1  0.1323225E-008  0.2137667E+04  0.7816531E-02  0.8544830E-01
         -2   -1    0    0    0  501 -0.00000000000E+00  0.00000000000E+00  0.45893750394E+03  0.45893750394E+03  0.00000000000E+00 0. -1.
          2   -1    0    0  501    0  0.00000000000E+00 -0.00000000000E+00 -0.24892399441E+04  0.24892399441E+04  0.00000000000E+00 0.  1.
    2000013    1    1    2    0    0  0.37097910838E+03 -0.31065112111E+03 -0.91033581071E+03  0.14019061688E+04  0.95000000000E+03 0.  0.
   -2000013    1    1    2    0    0 -0.37097910838E+03  0.31065112111E+03 -0.11199666295E+04  0.15462712793E+04  0.95000000000E+03 0.  0.
<mgrwt>
<rscale>  0 0.21376675E+04</rscale>
<asrwt>0</asrwt>
<pdfrwt beam="2">  1        2 0.38295999E+00 0.21376675E+04</pdfrwt>
<pdfrwt beam="1">  1       -2 0.70605770E-01 0.21376675E+04</pdfrwt>
<totfact> 0.59197087E+00</totfact>
</mgrwt>
</event>
<event>
 4    1  0.1323225E-008  0.2948475E+04  0.7816531E-02  0.8258599E-01
         -2   -1    0    0    0  501 -0.00000000000E+00  0.00000000000E+00  0.73858881638E+03  0.73858881638E+03  0.00000000000E+00 0. -1.
          2   -1    0    0  501    0  0.00000000000E+00 -0.00000000000E+00 -0.29426057263E+04  0.29426057263E+04  0.00000000000E+00 0.  1.
    2000013    1    1    2    0    0  0.10772559318E+04 -0.17614305641E+03 -0.75027253507E+03  0.16300047840E+04  0.95000000000E+03 0.  0.
   -2000013    1    1    2    0    0 -0.10772559318E+04  0.17614305641E+03 -0.14537443749E+04  0.20511897587E+04  0.95000000000E+03 0.  0.
<mgrwt>
<rscale>  0 0.29484746E+04</rscale>
<asrwt>0</asrwt>
<pdfrwt beam="2">  1        2 0.45270858E+00 0.29484746E+04</pdfrwt>
<pdfrwt beam="1">  1       -2 0.11362905E+00 0.29484746E+04</pdfrwt>
<totfact> 0.98638115E-01</totfact>
</mgrwt>
</event>
<event>
 4    1  0.1323225E-008  0.2872812E+04  0.7816531E-02  0.8281013E-01
          2   -1    0    0  501    0  0.00000000000E+00  0.00000000000E+00  0.26029940138E+04  0.26029940138E+04  0.00000000000E+00 0.  1.
         -2   -1    0    0    0  501 -0.00000000000E+00 -0.00000000000E+00 -0.79264970372E+03  0.79264970372E+03  0.00000000000E+00 0. -1.
    2000013    1    1    2    0    0 -0.20127045854E+03 -0.58794626299E+03  0.19454413397E+04  0.22524281591E+04  0.95000000000E+03 0.  0.
   -2000013    1    1    2    0    0  0.20127045854E+03  0.58794626299E+03 -0.13509702963E+03  0.11432155584E+04  0.95000000000E+03 0.  0.
<mgrwt>
<rscale>  0 0.28728122E+04</rscale>
<asrwt>0</asrwt>
<pdfrwt beam="1">  1        2 0.40046061E+00 0.28728122E+04</pdfrwt>
<pdfrwt beam="2">  1       -2 0.12194611E+00 0.28728122E+04</pdfrwt>
<totfact> 0.13370228E+00</totfact>
</mgrwt>
</event>
<event>
 4    1  0.1323225E-008  0.2177497E+04  0.7816531E-02  0.8527853E-01
         -2   -1    0    0    0  501 -0.00000000000E+00  0.00000000000E+00  0.16980020500E+04  0.16980020500E+04  0.00000000000E+00 0. -1.
          2   -1    0    0  501    0  0.00000000000E+00 -0.00000000000E+00 -0.69809899634E+03  0.69809899634E+03  0.00000000000E+00 0.  1.
    2000013    1    1    2    0    0 -0.47695813402E+03 -0.42100868297E+02  0.75473922402E+03  0.13043745018E+04  0.95000000000E+03 0.  0.
   -2000013    1    1    2    0    0  0.47695813402E+03  0.42100868297E+02  0.24516382968E+03  0.10917265446E+04  0.95000000000E+03 0.  0.
<mgrwt>
<rscale>  0 0.21774972E+04</rscale>
<asrwt>0</asrwt>
<pdfrwt beam="2">  1        2 0.10739985E+00 0.21774972E+04</pdfrwt>
<pdfrwt beam="1">  1       -2 0.26123108E+00 0.21774972E+04</pdfrwt>
<totfact> 0.20643287E+00</totfact>
</mgrwt>
</event>
<event>
 4    1  0.1323225E-008  0.2831403E+04  0.7816531E-02  0.8293585E-01
          2   -1    0    0  501    0  0.00000000000E+00  0.00000000000E+00  0.35853434114E+04  0.35853434114E+04  0.00000000000E+00 0.  1.
         -2   -1    0    0    0  501 -0.00000000000E+00 -0.00000000000E+00 -0.55900090955E+03  0.55900090955E+03  0.00000000000E+00 0. -1.
    2000013    1    1    2    0    0  0.76356831019E+02 -0.62712230333E+03  0.28627598354E+03  0.11762511159E+04  0.95000000000E+03 0.  0.
   -2000013    1    1    2    0    0 -0.76356831019E+02  0.62712230333E+03  0.27400665183E+04  0.29680932050E+04  0.95000000000E+03 0.  0.
<mgrwt>
<rscale>  0 0.28314026E+04</rscale>
<asrwt>0</asrwt>
<pdfrwt beam="1">  1        2 0.55159128E+00 0.28314026E+04</pdfrwt>
<pdfrwt beam="2">  1       -2 0.86000142E-01 0.28314026E+04</pdfrwt>
<totfact> 0.72007265E-01</totfact>
</mgrwt>
</event>
<event>
 4    1  0.1323225E-008  0.2398246E+04  0.7816531E-02  0.8440160E-01
         -2   -1    0    0    0  501 -0.00000000000E+00  0.00000000000E+00  0.15523783680E+04  0.15523783680E+04  0.00000000000E+00 0. -1.
          2   -1    0    0  501    0  0.00000000000E+00 -0.00000000000E+00 -0.92625386036E+03  0.92625386036E+03  0.00000000000E+00 0.  1.
    2000013    1    1    2    0    0  0.59509743589E+03 -0.24840151049E+03  0.67041494205E+03  0.13295865760E+04  0.95000000000E+03 0.  0.
   -2000013    1    1    2    0    0 -0.59509743589E+03  0.24840151049E+03 -0.44290434384E+02  0.11490456524E+04  0.95000000000E+03 0.  0.
<mgrwt>
<rscale>  0 0.23982464E+04</rscale>
<asrwt>0</asrwt>
<pdfrwt beam="2">  1        2 0.14250059E+00 0.23982464E+04</pdfrwt>
<pdfrwt beam="1">  1       -2 0.23882744E+00 0.23982464E+04</pdfrwt>
<totfact> 0.19068619E+00</totfact>
</mgrwt>
</event>
<event>
 4    1  0.1323225E-008  0.2084284E+04  0.7816531E-02  0.8568198E-01
         -2   -1    0    0    0  501 -0.00000000000E+00  0.00000000000E+00  0.53858608132E+03  0.53858608132E+03  0.00000000000E+00 0. -1.
          2   -1    0    0  501    0  0.00000000000E+00 -0.00000000000E+00 -0.20165013404E+04  0.20165013404E+04  0.00000000000E+00 0.  1.
    2000013    1    1    2    0    0 -0.35314782934E+03 -0.23694552782E+03 -0.80269153835E+03  0.13144087181E+04  0.95000000000E+03 0.  0.
   -2000013    1    1    2    0    0  0.35314782934E+03  0.23694552782E+03 -0.67522372071E+03  0.12406787036E+04  0.95000000000E+03 0.  0.
<mgrwt>
<rscale>  0 0.20842836E+04</rscale>
<asrwt>0</asrwt>
<pdfrwt beam="2">  1        2 0.31023098E+00 0.20842836E+04</pdfrwt>
<pdfrwt beam="1">  1       -2 0.82859397E-01 0.20842836E+04</pdfrwt>
<totfact> 0.77061446E+00</totfact>
</mgrwt>
</event>
<event>
 4    1  0.1323225E-008  0.3644134E+04  0.7816531E-02  0.8080456E-01
          2   -1    0    0  501    0  0.00000000000E+00  0.00000000000E+00  0.24102961289E+04  0.24102961289E+04  0.00000000000E+00 0.  1.
         -2   -1    0    0    0  501 -0.00000000000E+00 -0.00000000000E+00 -0.13773943829E+04  0.13773943829E+04  0.00000000000E+00 0. -1.
    2000013    1    1    2    0    0  0.52114307662E+02 -0.15539337471E+04  0.51485493618E+03  0.18934100445E+04  0.95000000000E+03 0.  0.
   -2000013    1    1    2    0    0 -0.52114307662E+02  0.15539337471E+04  0.51804680988E+03  0.18942804672E+04  0.95000000000E+03 0.  0.
<mgrwt>
<rscale>  0 0.36441341E+04</rscale>
<asrwt>0</asrwt>
<pdfrwt beam="1">  1        2 0.37081479E+00 0.36441341E+04</pdfrwt>
<pdfrwt beam="2">  1       -2 0.21190683E+00 0.36441341E+04</pdfrwt>
<totfact> 0.35452792E-01</totfact>
</mgrwt>
</event>
<event>
 4    1  0.1323225E-008  0.3437856E+04  0.7816531E-02  0.8128677E-01
          2   -1    0    0  501    0  0.00000000000E+00  0.00000000000E+00  0.10292519755E+04  0.10292519755E+04  0.00000000000E+00 0.  1.
         -2   -1    0    0    0  501 -0.00000000000E+00 -0.00000000000E+00 -0.28707394631E+04  0.28707394631E+04  0.00000000000E+00 0. -1.
    2000013    1    1    2    0    0  0.99137387646E+03  0.18633728570E+03 -0.20746670648E+04  0.24948521352E+04  0.95000000000E+03 0.  0.
   -2000013    1    1    2    0    0 -0.99137387646E+03 -0.18633728570E+03  0.23317957716E+03  0.14051393035E+04  0.95000000000E+03 0.  0.
<mgrwt>
<rscale>  0 0.34378565E+04</rscale>
<asrwt>0</asrwt>
<pdfrwt beam="1">  1        2 0.15834646E+00 0.34378565E+04</pdfrwt>
<pdfrwt beam="2">  1       -2 0.44165222E+00 0.34378565E+04</pdfrwt>
<totfact> 0.78450819E-02</totfact>
</mgrwt>
</event>
<event>
 4    1  0.1323225E-008  0.2939231E+04  0.7816531E-02  0.8261300E-01
         -2   -1    0    0    0  501 -0.00000000000E+00  0.00000000000E+00  0.20007607152E+04  0.20007607152E+04  0.00000000000E+00 0. -1.
          2   -1    0    0  501    0  0.00000000000E+00 -0.00000000000E+00 -0.10794745324E+04  0.10794745324E+04  0.00000000000E+00 0.  1.
    2000013    1    1    2    0    0 -0.11990910460E+03 -0.87298939820E+03  0.11872909756E+04  0.17574551327E+04  0.95000000000E+03 0.  0.
   -2000013    1    1    2    0    0  0.11990910460E+03  0.87298939820E+03 -0.26600479278E+03  0.13227801150E+04  0.95000000000E+03 0.  0.
<mgrwt>
<rscale>  0 0.29392314E+04</rscale>
<asrwt>0</asrwt>
<pdfrwt beam="2">  1        2 0.16607300E+00 0.29392314E+04</pdfrwt>
<pdfrwt beam="1">  1       -2 0.30780934E+00 0.29392314E+04</pdfrwt>
<totfact> 0.54932457E-01</totfact>
</mgrwt>
</event>
<event>
 4    1  0.1323225E-008  0.2086294E+04  0.7816531E-02  0.8567305E-01
          2   -1    0    0  501    0  0.00000000000E+00  0.00000000000E+00  0.10943981701E+04  0.10943981701E+04  0.00000000000E+00 0.  1.
         -2   -1    0    0    0  501 -0.00000000000E+00 -0.00000000000E+00 -0.99429625026E+03  0.99429625026E+03  0.00000000000E+00 0. -1.
    2000013    1    1    2    0    0 -0.34941712450E+03 -0.25171535489E+03  0.64316915170E+02  0.10450309145E+04  0.95000000000E+03 0.  0.
   -2000013    1    1    2    0    0  0.34941712450E+03  0.25171535489E+03  0.35785004660E+02  0.10436635058E+04  0.95000000000E+03 0.  0.
<mgrwt>
<rscale>  0 0.20862943E+04</rscale>
<asrwt>0</asrwt>
<pdfrwt beam="1">  1        2 0.16836895E+00 0.20862943E+04</pdfrwt>
<pdfrwt beam="2">  1       -2 0.15296865E+00 0.20862943E+04</pdfrwt>
<totfact> 0.57617477E+00</totfact>
</mgrwt>
</event>
<event>
 4    1  0.1323225E-008  0.2548763E+04  0.7816531E-02  0.8385817E-01
         -1   -1    0    0    0  501 -0.00000000000E+00  0.00000000000E+00  0.13576806731E+04  0.13576806731E+04  0.00000000000E+00 0. -1.
          1   -1    0    0  501    0  0.00000000000E+00 -0.00000000000E+00 -0.11961930661E+04  0.11961930661E+04  0.00000000000E+00 0.  1.
    2000013    1    1    2    0    0  0.73386625920E+03  0.12397942864E+03  0.49097606024E+03  0.13028768464E+04  0.95000000000E+03 0.  0.
   -2000013    1    1    2    0    0 -0.73386625920E+03 -0.12397942864E+03 -0.32948845323E+03  0.12509968929E+04  0.95000000000E+03 0.  0.
<mgrwt>
<rscale>  0 0.25487630E+04</rscale>
<asrwt>0</asrwt>
<pdfrwt beam="2">  1        1 0.18402970E+00 0.25487630E+04</pdfrwt>
<pdfrwt beam="1">  1       -1 0.20887395E+00 0.25487630E+04</pdfrwt>
<totfact> 0.12448827E+00</totfact>
</mgrwt>
</event>
<event>
 4    1  0.1323225E-008  0.2923748E+04  0.7816531E-02  0.8265847E-01
          2   -1    0    0  501    0  0.00000000000E+00  0.00000000000E+00  0.27872293465E+04  0.27872293465E+04  0.00000000000E+00 0.  1.
         -2   -1    0    0    0  501 -0.00000000000E+00 -0.00000000000E+00 -0.76673850258E+03  0.76673850258E+03  0.00000000000E+00 0. -1.
    2000013    1    1    2    0    0 -0.88600840610E+02  0.10644448347E+04  0.63819291936E+03  0.15654657829E+04  0.95000000000E+03 0.  0.
   -2000013    1    1    2    0    0  0.88600840610E+02 -0.10644448347E+04  0.13822979246E+04  0.19885020662E+04  0.95000000000E+03 0.  0.
<mgrwt>
<rscale>  0 0.29237483E+04</rscale>
<asrwt>0</asrwt>
<pdfrwt beam="1">  1        2 0.42880451E+00 0.29237483E+04</pdfrwt>
<pdfrwt beam="2">  1       -2 0.11795977E+00 0.29237483E+04</pdfrwt>
<totfact> 0.11229593E+00</totfact>
</mgrwt>
</event>
<event>
 4    1  0.1323225E-008  0.2713757E+04  0.7816531E-02  0.8330555E-01
          1   -1    0    0  501    0  0.00000000000E+00  0.00000000000E+00  0.18161669901E+04  0.18161669901E+04  0.00000000000E+00 0.  1.
         -1   -1    0    0    0  501 -0.00000000000E+00 -0.00000000000E+00 -0.10137389348E+04  0.10137389348E+04  0.00000000000E+00 0. -1.
    2000013    1    1    2    0    0 -0.52696116602E+03  0.77180660697E+03  0.13484916508E+03  0.13394244310E+04  0.95000000000E+03 0.  0.
   -2000013    1    1    2    0    0  0.52696116602E+03 -0.77180660697E+03  0.66757889018E+03  0.14904814939E+04  0.95000000000E+03 0.  0.
<mgrwt>
<rscale>  0 0.27137569E+04</rscale>
<asrwt>0</asrwt>
<pdfrwt beam="1">  1        1 0.27941031E+00 0.27137569E+04</pdfrwt>
<pdfrwt beam="2">  1       -1 0.15595984E+00 0.27137569E+04</pdfrwt>
<totfact> 0.10868800E+00</totfact>
</mgrwt>
</event>
<event>
 4    1  0.1323225E-008  0.2536053E+04  0.7816531E-02  0.8390253E-01
          1   -1    0    0  501    0  0.00000000000E+00  0.00000000000E+00  0.12737698962E+04  0.12737698962E+04  0.00000000000E+00 0. -1.
         -1   -1    0    0    0  501 -0.00000000000E+00 -0.00000000000E+00 -0.12623093574E+04  0.12623093574E+04  0.00000000000E+00 0.  1.
    2000013    1    1    2    0    0 -0.43652457252E+03  0.70846240893E+03  0.11939308533E+03  0.12685532689E+04  0.95000000000E+03 0.  0.
   -2000013    1    1    2    0    0  0.43652457252E+03 -0.70846240893E+03 -0.10793254653E+03  0.12675259847E+04  0.95000000000E+03 0.  0.
<mgrwt>
<rscale>  0 0.25360534E+04</rscale>
<asrwt>0</asrwt>
<pdfrwt beam="1">  1        1 0.19596460E+00 0.25360534E+04</pdfrwt>
<pdfrwt beam="2">  1       -1 0.19420144E+00 0.25360534E+04</pdfrwt>
<totfact> 0.13814706E+00</totfact>
</mgrwt>
</event>
<event>
 4    1  0.1323225E-008  0.2139329E+04  0.7816531E-02  0.8544114E-01
         -2   -1    0    0    0  501 -0.00000000000E+00  0.00000000000E+00  0.69059137876E+03  0.69059137876E+03  0.00000000000E+00 0. -1.
          2   -1    0    0  501    0  0.00000000000E+00 -0.00000000000E+00 -0.16568145703E+04  0.16568145703E+04  0.00000000000E+00 0.  1.
    2000013    1    1    2    0    0  0.44286630990E+03 -0.67920195758E+02 -0.26110048284E+03  0.10823202777E+04  0.95000000000E+03 0.  0.
   -2000013    1    1    2    0    0 -0.44286630990E+03  0.67920195758E+02 -0.70512270865E+03  0.12650856713E+04  0.95000000000E+03 0.  0.
<mgrwt>
<rscale>  0 0.21393287E+04</rscale>
<asrwt>0</asrwt>
<pdfrwt beam="2">  1        2 0.25489455E+00 0.21393287E+04</pdfrwt>
<pdfrwt beam="1">  1       -2 0.10624483E+00 0.21393287E+04</pdfrwt>
<totfact> 0.68042827E+00</totfact>
</mgrwt>
</event>
<event>
 4    1  0.1323225E-008  0.2890974E+04  0.7816531E-02  0.8275568E-01
          2   -1    0    0  501    0  0.00000000000E+00  0.00000000000E+00  0.78977591765E+03  0.78977591765E+03  0.00000000000E+00 0. -1.
         -2   -1    0    0    0  501 -0.00000000000E+00 -0.00000000000E+00 -0.26456024848E+04  0.26456024848E+04  0.00000000000E+00 0.  1.
    2000013    1    1    2    0    0  0.20388621147E+03 -0.10695347137E+04 -0.97330366342E+03  0.17422095489E+04  0.95000000000E+03 0.  0.
   -2000013    1    1    2    0    0 -0.20388621147E+03  0.10695347137E+04 -0.88252290374E+03  0.16931688536E+04  0.95000000000E+03 0.  0.
<mgrwt>
<rscale>  0 0.28909743E+04</rscale>
<asrwt>0</asrwt>
<pdfrwt beam="1">  1        2 0.12150399E+00 0.28909743E+04</pdfrwt>
<pdfrwt beam="2">  1       -2 0.40701576E+00 0.28909743E+04</pdfrwt>
<totfact> 0.20192975E-01</totfact>
</mgrwt>
</event>
<event>
 4    1  0.1323225E-008  0.2981214E+04  0.7816531E-02  0.8249116E-01
         -2   -1    0    0    0  501 -0.00000000000E+00  0.00000000000E+00  0.16134256587E+04  0.16134256587E+04  0.00000000000E+00 0. -1.
          2   -1    0    0  501    0  0.00000000000E+00 -0.00000000000E+00 -0.13771376658E+04  0.13771376658E+04  0.00000000000E+00 0.  1.
    2000013    1    1    2    0    0  0.53288399704E+02 -0.55319967354E+03 -0.89026460627E+03  0.14156060898E+04  0.95000000000E+03 0.  0.
   -2000013    1    1    2    0    0 -0.53288399704E+02  0.55319967354E+03  0.11265525992E+04  0.15749572347E+04  0.95000000000E+03 0.  0.
<mgrwt>
<rscale>  0 0.29812140E+04</rscale>
<asrwt>0</asrwt>
<pdfrwt beam="2">  1        2 0.21186733E+00 0.29812140E+04</pdfrwt>
<pdfrwt beam="1">  1       -2 0.24821933E+00 0.29812140E+04</pdfrwt>
<totfact> 0.84273819E-01</totfact>
</mgrwt>
</event>
<event>
 4    1  0.1323225E-008  0.2222180E+04  0.7816531E-02  0.8509253E-01
         -2   -1    0    0    0  501 -0.00000000000E+00  0.00000000000E+00  0.10391632583E+04  0.10391632583E+04  0.00000000000E+00 0. -1.
          2   -1    0    0  501    0  0.00000000000E+00 -0.00000000000E+00 -0.11879949273E+04  0.11879949273E+04  0.00000000000E+00 0.  1.
    2000013    1    1    2    0    0 -0.51354032946E+03 -0.98133133138E+02 -0.31717098083E+03  0.11298014042E+04  0.95000000000E+03 0.  0.
   -2000013    1    1    2    0    0  0.51354032946E+03  0.98133133138E+02  0.16833931186E+03  0.10973567814E+04  0.95000000000E+03 0.  0.
<mgrwt>
<rscale>  0 0.22221797E+04</rscale>
<asrwt>0</asrwt>
<pdfrwt beam="2">  1        2 0.18276845E+00 0.22221797E+04</pdfrwt>
<pdfrwt beam="1">  1       -2 0.15987127E+00 0.22221797E+04</pdfrwt>
<totfact> 0.44356695E+00</totfact>
</mgrwt>
</event>
<event>
 4    1  0.1323225E-008  0.2013960E+04  0.7816531E-02  0.8600122E-01
         -2   -1    0    0    0  501 -0.00000000000E+00  0.00000000000E+00  0.65111153260E+03  0.65111153260E+03  0.00000000000E+00 0. -1.
          2   -1    0    0  501    0  0.00000000000E+00 -0.00000000000E+00 -0.15573499401E+04  0.15573499401E+04  0.00000000000E+00 0.  1.
    2000013    1    1    2    0    0  0.89787847030E+02  0.23523010196E+03 -0.21258753029E+03  0.10055289734E+04  0.95000000000E+03 0.  0.
   -2000013    1    1    2    0    0 -0.89787847030E+02 -0.23523010196E+03 -0.69365087717E+03  0.12029324992E+04  0.95000000000E+03 0.  0.
<mgrwt>
<rscale>  0 0.20139598E+04</rscale>
<asrwt>0</asrwt>
<pdfrwt beam="2">  1        2 0.23959229E+00 0.20139598E+04</pdfrwt>
<pdfrwt beam="1">  1       -2 0.10017101E+00 0.20139598E+04</pdfrwt>
<totfact> 0.89968755E+00</totfact>
</mgrwt>
</event>
<event>
 4    1  0.1323225E-008  0.2444810E+04  0.7816531E-02  0.8422915E-01
          2   -1    0    0  501    0  0.00000000000E+00  0.00000000000E+00  0.15923557760E+04  0.15923557760E+04  0.00000000000E+00 0.  1.
         -2   -1    0    0    0  501 -0.00000000000E+00 -0.00000000000E+00 -0.93840446282E+03  0.93840446282E+03  0.00000000000E+00 0. -1.
    2000013    1    1    2    0    0  0.62629090956E+03  0.17041212184E+02 -0.13508343792E+03  0.11459835258E+04  0.95000000000E+03 0.  0.
   -2000013    1    1    2    0    0 -0.62629090956E+03 -0.17041212184E+02  0.78903475108E+03  0.13847767129E+04  0.95000000000E+03 0.  0.
<mgrwt>
<rscale>  0 0.24448098E+04</rscale>
<asrwt>0</asrwt>
<pdfrwt beam="1">  1        2 0.24497781E+00 0.24448098E+04</pdfrwt>
<pdfrwt beam="2">  1       -2 0.14436992E+00 0.24448098E+04</pdfrwt>
<totfact> 0.33449698E+00</totfact>
</mgrwt>
</event>
<event>
 4    1  0.1323225E-008  0.2925115E+04  0.7816531E-02  0.8265444E-01
          2   -1    0    0  501    0  0.00000000000E+00  0.00000000000E+00  0.14259435678E+04  0.14259435678E+04  0.00000000000E+00 0.  1.
         -2   -1    0    0    0  501 -0.00000000000E+00 -0.00000000000E+00 -0.15001114470E+04  0.15001114470E+04  0.00000000000E+00 0. -1.
    2000013    1    1    2    0    0 -0.57030490672E+03  0.71737277271E+03  0.59296203399E+03  0.14470574817E+04  0.95000000000E+03 0.  0.
   -2000013    1    1    2    0    0  0.57030490672E+03 -0.71737277271E+03 -0.66712991328E+03  0.14789975331E+04  0.95000000000E+03 0.  0.
<mgrwt>
<rscale>  0 0.29251149E+04</rscale>
<asrwt>0</asrwt>
<pdfrwt beam="1">  1        2 0.21937593E+00 0.29251149E+04</pdfrwt>
<pdfrwt beam="2">  1       -2 0.23078638E+00 0.29251149E+04</pdfrwt>
<totfact> 0.10182523E+00</totfact>
</mgrwt>
</event>
<event>
 4    1  0.1323225E-008  0.2311253E+04  0.7816531E-02  0.8473497E-01
         -2   -1    0    0    0  501 -0.00000000000E+00  0.00000000000E+00  0.25467483866E+04  0.25467483866E+04  0.00000000000E+00 0. -1.
          2   -1    0    0  501    0  0.00000000000E+00 -0.00000000000E+00 -0.52438358271E+03  0.52438358271E+03  0.00000000000E+00 0.  1.
    2000013    1    1    2    0    0 -0.55239661495E+03  0.17384660703E+03  0.14263222988E+04  0.18089389053E+04  0.95000000000E+03 0.  0.
   -2000013    1    1    2    0    0  0.55239661495E+03 -0.17384660703E+03  0.59604250505E+03  0.12621930640E+04  0.95000000000E+03 0.  0.
<mgrwt>
<rscale>  0 0.23112534E+04</rscale>
<asrwt>0</asrwt>
<pdfrwt beam="2">  1        2 0.80674399E-01 0.23112534E+04</pdfrwt>
<pdfrwt beam="1">  1       -2 0.39180744E+00 0.23112534E+04</pdfrwt>
<totfact> 0.44335770E-01</totfact>
</mgrwt>
</event>
<event>
 4    1  0.1323225E-008  0.2029362E+04  0.7816531E-02  0.8593015E-01
         -2   -1    0    0    0  501 -0.00000000000E+00  0.00000000000E+00  0.84343462228E+03  0.84343462228E+03  0.00000000000E+00 0. -1.
          2   -1    0    0  501    0  0.00000000000E+00 -0.00000000000E+00 -0.12206967400E+04  0.12206967400E+04  0.00000000000E+00 0.  1.
    2000013    1    1    2    0    0  0.31282512716E+03 -0.14272938301E+03 -0.92962920500E+02  0.10145803771E+04  0.95000000000E+03 0.  0.
   -2000013    1    1    2    0    0 -0.31282512716E+03  0.14272938301E+03 -0.28429919719E+03  0.10495509852E+04  0.95000000000E+03 0.  0.
<mgrwt>
<rscale>  0 0.20293624E+04</rscale>
<asrwt>0</asrwt>
<pdfrwt beam="2">  1        2 0.18779950E+00 0.20293624E+04</pdfrwt>
<pdfrwt beam="1">  1       -2 0.12975917E+00 0.20293624E+04</pdfrwt>
<totfact> 0.74465301E+00</totfact>
</mgrwt>
</event>
<event>
 4    1  0.1323225E-008  0.2208769E+04  0.7816531E-02  0.8514787E-01
         -2   -1    0    0    0  501 -0.00000000000E+00  0.00000000000E+00  0.54826366134E+03  0.54826366134E+03  0.00000000000E+00 0. -1.
          2   -1    0    0  501    0  0.00000000000E+00 -0.00000000000E+00 -0.22245958166E+04  0.22245958166E+04  0.00000000000E+00 0.  1.
    2000013    1    1    2    0    0 -0.62604091241E+02 -0.40139897167E+03 -0.13278066074E+04  0.16824419138E+04  0.95000000000E+03 0.  0.
   -2000013    1    1    2    0    0  0.62604091241E+02  0.40139897167E+03 -0.34852554790E+03  0.10904175642E+04  0.95000000000E+03 0.  0.
<mgrwt>
<rscale>  0 0.22087689E+04</rscale>
<asrwt>0</asrwt>
<pdfrwt beam="2">  1        2 0.34224550E+00 0.22087689E+04</pdfrwt>
<pdfrwt beam="1">  1       -2 0.84348258E-01 0.22087689E+04</pdfrwt>
<totfact> 0.56012088E+00</totfact>
</mgrwt>
</event>
<event>
 4    1  0.1323225E-008  0.3535556E+04  0.7816531E-02  0.8105415E-01
         -2   -1    0    0    0  501 -0.00000000000E+00  0.00000000000E+00  0.10718820049E+04  0.10718820049E+04  0.00000000000E+00 0. -1.
          2   -1    0    0  501    0  0.00000000000E+00 -0.00000000000E+00 -0.29154698342E+04  0.29154698342E+04  0.00000000000E+00 0.  1.
    2000013    1    1    2    0    0 -0.80114452762E+03 -0.11037233927E+04 -0.16008128146E+04  0.23076263885E+04  0.95000000000E+03 0.  0.
   -2000013    1    1    2    0    0  0.80114452762E+03  0.11037233927E+04 -0.24277501476E+03  0.16797254506E+04  0.95000000000E+03 0.  0.
<mgrwt>
<rscale>  0 0.35355563E+04</rscale>
<asrwt>0</asrwt>
<pdfrwt beam="2">  1        2 0.44853382E+00 0.35355563E+04</pdfrwt>
<pdfrwt beam="1">  1       -2 0.16490493E+00 0.35355563E+04</pdfrwt>
<totfact> 0.37319433E-01</totfact>
</mgrwt>
</event>
<event>
 4    1  0.1323225E-008  0.2058201E+04  0.7816531E-02  0.8579883E-01
          2   -1    0    0  501    0  0.00000000000E+00  0.00000000000E+00  0.17373641269E+04  0.17373641269E+04  0.00000000000E+00 0.  1.
         -2   -1    0    0    0  501 -0.00000000000E+00 -0.00000000000E+00 -0.60957135169E+03  0.60957135169E+03  0.00000000000E+00 0. -1.
    2000013    1    1    2    0    0  0.35237584318E+03 -0.34295159802E+02  0.76531898674E+03  0.12702590461E+04  0.95000000000E+03 0.  0.
   -2000013    1    1    2    0    0 -0.35237584318E+03  0.34295159802E+02  0.36247378846E+03  0.10766764324E+04  0.95000000000E+03 0.  0.
<mgrwt>
<rscale>  0 0.20582006E+04</rscale>
<asrwt>0</asrwt>
<pdfrwt beam="1">  1        2 0.26728679E+00 0.20582006E+04</pdfrwt>
<pdfrwt beam="2">  1       -2 0.93780208E-01 0.20582006E+04</pdfrwt>
<totfact> 0.83036691E+00</totfact>
</mgrwt>
</event>
<event>
 4    1  0.1323225E-008  0.2328875E+04  0.7816531E-02  0.8466622E-01
          2   -1    0    0  501    0  0.00000000000E+00  0.00000000000E+00  0.12136252740E+04  0.12136252740E+04  0.00000000000E+00 0.  1.
         -2   -1    0    0    0  501 -0.00000000000E+00 -0.00000000000E+00 -0.11172436253E+04  0.11172436253E+04  0.00000000000E+00 0. -1.
    2000013    1    1    2    0    0  0.28900363942E+03 -0.56397465189E+03 -0.17965419390E+03  0.11560130367E+04  0.95000000000E+03 0.  0.
   -2000013    1    1    2    0    0 -0.28900363942E+03  0.56397465189E+03  0.27603584253E+03  0.11748558626E+04  0.95000000000E+03 0.  0.
<mgrwt>
<rscale>  0 0.23288754E+04</rscale>
<asrwt>0</asrwt>
<pdfrwt beam="1">  1        2 0.18671158E+00 0.23288754E+04</pdfrwt>
<pdfrwt beam="2">  1       -2 0.17188364E+00 0.23288754E+04</pdfrwt>
<totfact> 0.34749897E+00</totfact>
</mgrwt>
</event>
<event>
 4    1  0.1323225E-008  0.2889708E+04  0.7816531E-02  0.8275946E-01
         -2   -1    0    0    0  501 -0.00000000000E+00  0.00000000000E+00  0.11900364040E+04  0.11900364040E+04  0.00000000000E+00 0. -1.
          2   -1    0    0  501    0  0.00000000000E+00 -0.00000000000E+00 -0.17542344326E+04  0.17542344326E+04  0.00000000000E+00 0.  1.
    2000013    1    1    2    0    0 -0.84501627859E+03 -0.53800487183E+03 -0.71629223606E+03  0.15553380085E+04  0.95000000000E+03 0.  0.
   -2000013    1    1    2    0    0  0.84501627859E+03  0.53800487183E+03  0.15209420743E+03  0.13889328282E+04  0.95000000000E+03 0.  0.
<mgrwt>
<rscale>  0 0.28897078E+04</rscale>
<asrwt>0</asrwt>
<pdfrwt beam="2">  1        2 0.26988222E+00 0.28897078E+04</pdfrwt>
<pdfrwt beam="1">  1       -2 0.18308252E+00 0.28897078E+04</pdfrwt>
<totfact> 0.13648511E+00</totfact>
</mgrwt>
</event>
<event>
 4    1  0.1323225E-008  0.4428815E+04  0.7816531E-02  0.7923219E-01
          2   -1    0    0  501    0  0.00000000000E+00  0.00000000000E+00  0.20503849440E+04  0.20503849440E+04  0.00000000000E+00 0.  1.
         -2   -1    0    0    0  501 -0.00000000000E+00 -0.00000000000E+00 -0.23915507120E+04  0.23915507120E+04  0.00000000000E+00 0. -1.
    2000013    1    1    2    0    0  0.14627877102E+04 -0.95258970221E+03 -0.11501671041E+04  0.22962054336E+04  0.95000000000E+03 0.  0.
   -2000013    1    1    2    0    0 -0.14627877102E+04  0.95258970221E+03  0.80900133615E+03  0.21457302225E+04  0.95000000000E+03 0.  0.
<mgrwt>
<rscale>  0 0.44288145E+04</rscale>
<asrwt>0</asrwt>
<pdfrwt beam="1">  1        2 0.31544384E+00 0.44288145E+04</pdfrwt>
<pdfrwt beam="2">  1       -2 0.36793088E+00 0.44288145E+04</pdfrwt>
<totfact> 0.57123990E-02</totfact>
</mgrwt>
</event>
<event>
 4    1  0.1323225E-008  0.2229651E+04  0.7816531E-02  0.8506187E-01
         -2   -1    0    0    0  501 -0.00000000000E+00  0.00000000000E+00  0.10977073528E+04  0.10977073528E+04  0.00000000000E+00 0. -1.
          2   -1    0    0  501    0  0.00000000000E+00 -0.00000000000E+00 -0.11322108277E+04  0.11322108277E+04  0.00000000000E+00 0.  1.
    2000013    1    1    2    0    0  0.49256022543E+03 -0.29245534611E+03 -0.12767530637E+03  0.11166676717E+04  0.95000000000E+03 0.  0.
   -2000013    1    1    2    0    0 -0.49256022543E+03  0.29245534611E+03  0.93171831483E+02  0.11132505088E+04  0.95000000000E+03 0.  0.
<mgrwt>
<rscale>  0 0.22296512E+04</rscale>
<asrwt>0</asrwt>
<pdfrwt beam="2">  1        2 0.17418628E+00 0.22296512E+04</pdfrwt>
<pdfrwt beam="1">  1       -2 0.16887805E+00 0.22296512E+04</pdfrwt>
<totfact> 0.41204296E+00</totfact>
</mgrwt>
</event>
<event>
 4    1  0.1323225E-008  0.3410896E+04  0.7816531E-02  0.8135237E-01
         -2   -1    0    0    0  501 -0.00000000000E+00  0.00000000000E+00  0.23045831730E+04  0.23045831730E+04  0.00000000000E+00 0. -1.
          2   -1    0    0  501    0  0.00000000000E+00 -0.00000000000E+00 -0.12620734706E+04  0.12620734706E+04  0.00000000000E+00 0.  1.
    2000013    1    1    2    0    0 -0.96642060885E+03 -0.73053670432E+03  0.12885201696E+04  0.20075948040E+04  0.95000000000E+03 0.  0.
   -2000013    1    1    2    0    0  0.96642060885E+03  0.73053670432E+03 -0.24601046722E+03  0.15590618396E+04  0.95000000000E+03 0.  0.
<mgrwt>
<rscale>  0 0.34108962E+04</rscale>
<asrwt>0</asrwt>
<pdfrwt beam="2">  1        2 0.19416515E+00 0.34108962E+04</pdfrwt>
<pdfrwt beam="1">  1       -2 0.35455126E+00 0.34108962E+04</pdfrwt>
<totfact> 0.20961579E-01</totfact>
</mgrwt>
</event>
<event>
 4    1  0.1323225E-008  0.2638541E+04  0.7816531E-02  0.8355226E-01
         -4   -1    0    0    0  501 -0.00000000000E+00  0.00000000000E+00  0.16499235729E+04  0.16499235729E+04  0.00000000000E+00 0. -1.
          4   -1    0    0  501    0  0.00000000000E+00 -0.00000000000E+00 -0.10548818917E+04  0.10548818917E+04  0.00000000000E+00 0.  1.
    2000013    1    1    2    0    0  0.63265832371E+03  0.62416943435E+02 -0.37767231074E+03  0.12038641135E+04  0.95000000000E+03 0.  0.
   -2000013    1    1    2    0    0 -0.63265832371E+03 -0.62416943435E+02  0.97271399191E+03  0.15009413511E+04  0.95000000000E+03 0.  0.
<mgrwt>
<rscale>  0 0.26385409E+04</rscale>
<asrwt>0</asrwt>
<pdfrwt beam="2">  1        4 0.16228952E+00 0.26385409E+04</pdfrwt>
<pdfrwt beam="1">  1       -4 0.25383440E+00 0.26385409E+04</pdfrwt>
<totfact> 0.25266617E-02</totfact>
</mgrwt>
</event>
<event>
 4    1  0.1323225E-008  0.3190973E+04  0.7816531E-02  0.8191205E-01
          2   -1    0    0  501    0  0.00000000000E+00  0.00000000000E+00  0.35470093081E+04  0.35470093081E+04  0.00000000000E+00 0.  1.
         -2   -1    0    0    0  501 -0.00000000000E+00 -0.00000000000E+00 -0.71766848015E+03  0.71766848015E+03  0.00000000000E+00 0. -1.
    2000013    1    1    2    0    0 -0.12048055110E+04 -0.42254966282E+03  0.12624507866E+04  0.20313509115E+04  0.95000000000E+03 0.  0.
   -2000013    1    1    2    0    0  0.12048055110E+04  0.42254966282E+03  0.15668900413E+04  0.22333268768E+04  0.95000000000E+03 0.  0.
<mgrwt>
<rscale>  0 0.31909728E+04</rscale>
<asrwt>0</asrwt>
<pdfrwt beam="1">  1        2 0.54569373E+00 0.31909728E+04</pdfrwt>
<pdfrwt beam="2">  1       -2 0.11041054E+00 0.31909728E+04</pdfrwt>
<totfact> 0.41275782E-01</totfact>
</mgrwt>
</event>
<event>
 4    1  0.1323225E-008  0.2951057E+04  0.7816531E-02  0.8257847E-01
         -2   -1    0    0    0  501 -0.00000000000E+00  0.00000000000E+00  0.12142782794E+04  0.12142782794E+04  0.00000000000E+00 0. -1.
          2   -1    0    0  501    0  0.00000000000E+00 -0.00000000000E+00 -0.17929862977E+04  0.17929862977E+04  0.00000000000E+00 0.  1.
    2000013    1    1    2    0    0  0.22381672596E+03  0.82404548472E+03 -0.10420283602E+04  0.16484744436E+04  0.95000000000E+03 0.  0.
   -2000013    1    1    2    0    0 -0.22381672596E+03 -0.82404548472E+03  0.46332034188E+03  0.13587901335E+04  0.95000000000E+03 0.  0.
<mgrwt>
<rscale>  0 0.29510570E+04</rscale>
<asrwt>0</asrwt>
<pdfrwt beam="2">  1        2 0.27584404E+00 0.29510570E+04</pdfrwt>
<pdfrwt beam="1">  1       -2 0.18681204E+00 0.29510570E+04</pdfrwt>
<totfact> 0.12188896E+00</totfact>
</mgrwt>
</event>
<event>
 4    1  0.1323225E-008  0.2612455E+04  0.7816531E-02  0.8363983E-01
          2   -1    0    0  501    0  0.00000000000E+00  0.00000000000E+00  0.26193869972E+04  0.26193869972E+04  0.00000000000E+00 0.  1.
         -2   -1    0    0    0  501 -0.00000000000E+00 -0.00000000000E+00 -0.65138521778E+03  0.65138521778E+03  0.00000000000E+00 0. -1.
    2000013    1    1    2    0    0  0.21191405678E+03 -0.62453124732E+03  0.17443044780E+04  0.20928556946E+04  0.95000000000E+03 0.  0.
   -2000013    1    1    2    0    0 -0.21191405678E+03  0.62453124732E+03  0.22369730140E+03  0.11779165204E+04  0.95000000000E+03 0.  0.
<mgrwt>
<rscale>  0 0.26124548E+04</rscale>
<asrwt>0</asrwt>
<pdfrwt beam="1">  1        2 0.40298261E+00 0.26124548E+04</pdfrwt>
<pdfrwt beam="2">  1       -2 0.10021311E+00 0.26124548E+04</pdfrwt>
<totfact> 0.21522695E+00</totfact>
</mgrwt>
</event>
<event>
 4    1  0.1323225E-008  0.2048494E+04  0.7816531E-02  0.8584278E-01
         -2   -1    0    0    0  501 -0.00000000000E+00  0.00000000000E+00  0.12525040973E+04  0.12525040973E+04  0.00000000000E+00 0. -1.
          2   -1    0    0  501    0  0.00000000000E+00 -0.00000000000E+00 -0.83758724086E+03  0.83758724086E+03  0.00000000000E+00 0.  1.
    2000013    1    1    2    0    0  0.26068413461E+03  0.18765306607E+03  0.42004379206E+03  0.10872472941E+04  0.95000000000E+03 0.  0.
   -2000013    1    1    2    0    0 -0.26068413461E+03 -0.18765306607E+03 -0.51269356265E+01  0.10028440441E+04  0.95000000000E+03 0.  0.
<mgrwt>
<rscale>  0 0.20484935E+04</rscale>
<asrwt>0</asrwt>
<pdfrwt beam="2">  1        2 0.12885957E+00 0.20484935E+04</pdfrwt>
<pdfrwt beam="1">  1       -2 0.19269294E+00 0.20484935E+04</pdfrwt>
<totfact> 0.44538314E+00</totfact>
</mgrwt>
</event>
<event>
 4    1  0.1323225E-008  0.2416831E+04  0.7816531E-02  0.8433229E-01
         -2   -1    0    0    0  501 -0.00000000000E+00  0.00000000000E+00  0.65298830229E+03  0.65298830229E+03  0.00000000000E+00 0. -1.
          2   -1    0    0  501    0  0.00000000000E+00 -0.00000000000E+00 -0.22362853146E+04  0.22362853146E+04  0.00000000000E+00 0.  1.
    2000013    1    1    2    0    0 -0.64069584205E+03 -0.82582031503E+01 -0.33296909881E+03  0.11932844509E+04  0.95000000000E+03 0.  0.
   -2000013    1    1    2    0    0  0.64069584205E+03  0.82582031503E+01 -0.12503279135E+04  0.16959891660E+04  0.95000000000E+03 0.  0.
<mgrwt>
<rscale>  0 0.24168311E+04</rscale>
<asrwt>0</asrwt>
<pdfrwt beam="2">  1        2 0.34404390E+00 0.24168311E+04</pdfrwt>
<pdfrwt beam="1">  1       -2 0.10045974E+00 0.24168311E+04</pdfrwt>
<totfact> 0.36139236E+00</totfact>
</mgrwt>
</event>
<event>
 4    1  0.1323225E-008  0.2471732E+04  0.7816531E-02  0.8413126E-01
         -1   -1    0    0    0  501 -0.00000000000E+00  0.00000000000E+00  0.33816899149E+03  0.33816899149E+03  0.00000000000E+00 0. -1.
          1   -1    0    0  501    0  0.00000000000E+00 -0.00000000000E+00 -0.45165724386E+04  0.45165724386E+04  0.00000000000E+00 0.  1.
    2000013    1    1    2    0    0  0.16488311392E+03  0.72856047717E+03 -0.15812690400E+04  0.19902006399E+04  0.95000000000E+03 0.  0.
   -2000013    1    1    2    0    0 -0.16488311392E+03 -0.72856047717E+03 -0.25971344071E+04  0.28645407902E+04  0.95000000000E+03 0.  0.
<mgrwt>
<rscale>  0 0.24717320E+04</rscale>
<asrwt>0</asrwt>
<pdfrwt beam="2">  1        1 0.69485724E+00 0.24717320E+04</pdfrwt>
<pdfrwt beam="1">  1       -1 0.52026003E-01 0.24717320E+04</pdfrwt>
<totfact> 0.10317984E-01</totfact>
</mgrwt>
</event>
<event>
 4    1  0.1323225E-008  0.3188596E+04  0.7816531E-02  0.8191835E-01
          2   -1    0    0  501    0  0.00000000000E+00  0.00000000000E+00  0.36423754092E+04  0.36423754092E+04  0.00000000000E+00 0.  1.
         -2   -1    0    0    0  501 -0.00000000000E+00 -0.00000000000E+00 -0.69783755658E+03  0.69783755658E+03  0.00000000000E+00 0. -1.
    2000013    1    1    2    0    0  0.30129414090E+03 -0.65463611974E+03  0.29127671571E+04  0.31473860774E+04  0.95000000000E+03 0.  0.
   -2000013    1    1    2    0    0 -0.30129414090E+03  0.65463611974E+03  0.31770695520E+02  0.11928268884E+04  0.95000000000E+03 0.  0.
<mgrwt>
<rscale>  0 0.31885962E+04</rscale>
<asrwt>0</asrwt>
<pdfrwt beam="1">  1        2 0.56036544E+00 0.31885962E+04</pdfrwt>
<pdfrwt beam="2">  1       -2 0.10735963E+00 0.31885962E+04</pdfrwt>
<totfact> 0.37730651E-01</totfact>
</mgrwt>
</event>
<event>
 4    1  0.1323225E-008  0.3586221E+04  0.7816531E-02  0.8093655E-01
         -2   -1    0    0    0  501 -0.00000000000E+00  0.00000000000E+00  0.10124341281E+04  0.10124341281E+04  0.00000000000E+00 0. -1.
          2   -1    0    0  501    0  0.00000000000E+00 -0.00000000000E+00 -0.31757576204E+04  0.31757576204E+04  0.00000000000E+00 0.  1.
    2000013    1    1    2    0    0 -0.13007600706E+04  0.76187976599E+03 -0.13161301684E+04  0.22152056698E+04  0.95000000000E+03 0.  0.
   -2000013    1    1    2    0    0  0.13007600706E+04 -0.76187976599E+03 -0.84719332383E+03  0.19729860788E+04  0.95000000000E+03 0.  0.
<mgrwt>
<rscale>  0 0.35862211E+04</rscale>
<asrwt>0</asrwt>
<pdfrwt beam="2">  1        2 0.48857809E+00 0.35862211E+04</pdfrwt>
<pdfrwt beam="1">  1       -2 0.15575910E+00 0.35862211E+04</pdfrwt>
<totfact> 0.29699183E-01</totfact>
</mgrwt>
</event>
<event>
 4    1  0.1323225E-008  0.2509801E+04  0.7816531E-02  0.8399502E-01
         -2   -1    0    0    0  501 -0.00000000000E+00  0.00000000000E+00  0.11134570607E+04  0.11134570607E+04  0.00000000000E+00 0. -1.
          2   -1    0    0  501    0  0.00000000000E+00 -0.00000000000E+00 -0.14143112954E+04  0.14143112954E+04  0.00000000000E+00 0.  1.
    2000013    1    1    2    0    0 -0.68520190027E+03  0.60047125823E+02 -0.59990401706E+03  0.13173807844E+04  0.95000000000E+03 0.  0.
   -2000013    1    1    2    0    0  0.68520190027E+03 -0.60047125823E+02  0.29904978238E+03  0.12103875717E+04  0.95000000000E+03 0.  0.
<mgrwt>
<rscale>  0 0.25098007E+04</rscale>
<asrwt>0</asrwt>
<pdfrwt beam="2">  1        2 0.21758635E+00 0.25098007E+04</pdfrwt>
<pdfrwt beam="1">  1       -2 0.17130109E+00 0.25098007E+04</pdfrwt>
<totfact> 0.26406782E+00</totfact>
</mgrwt>
</event>
<event>
 4    1  0.1323225E-008  0.2239861E+04  0.7816531E-02  0.8502018E-01
          2   -1    0    0  501    0  0.00000000000E+00  0.00000000000E+00  0.79424404032E+03  0.79424404032E+03  0.00000000000E+00 0.  1.
         -2   -1    0    0    0  501 -0.00000000000E+00 -0.00000000000E+00 -0.15791671993E+04  0.15791671993E+04  0.00000000000E+00 0. -1.
    2000013    1    1    2    0    0  0.38468685903E+03 -0.44093377134E+03 -0.29006892225E+03  0.11528428123E+04  0.95000000000E+03 0.  0.
   -2000013    1    1    2    0    0 -0.38468685903E+03  0.44093377134E+03 -0.49485423675E+03  0.12205684273E+04  0.95000000000E+03 0.  0.
<mgrwt>
<rscale>  0 0.22398608E+04</rscale>
<asrwt>0</asrwt>
<pdfrwt beam="1">  1        2 0.12219139E+00 0.22398608E+04</pdfrwt>
<pdfrwt beam="2">  1       -2 0.24294880E+00 0.22398608E+04</pdfrwt>
<totfact> 0.22500226E+00</totfact>
</mgrwt>
</event>
<event>
 4    1  0.1323225E-008  0.2684528E+04  0.7816531E-02  0.8340042E-01
          1   -1    0    0  501    0  0.00000000000E+00  0.00000000000E+00  0.20627475879E+04  0.20627475879E+04  0.00000000000E+00 0.  1.
         -1   -1    0    0    0  501 -0.00000000000E+00 -0.00000000000E+00 -0.87343364262E+03  0.87343364262E+03  0.00000000000E+00 0. -1.
    2000013    1    1    2    0    0 -0.75730665433E+03  0.25214967955E+03  0.11545848073E+04  0.16948920045E+04  0.95000000000E+03 0.  0.
   -2000013    1    1    2    0    0  0.75730665433E+03 -0.25214967955E+03  0.34729137936E+02  0.12412892260E+04  0.95000000000E+03 0.  0.
<mgrwt>
<rscale>  0 0.26845284E+04</rscale>
<asrwt>0</asrwt>
<pdfrwt beam="1">  1        1 0.31734578E+00 0.26845284E+04</pdfrwt>
<pdfrwt beam="2">  1       -1 0.13437441E+00 0.26845284E+04</pdfrwt>
<totfact> 0.11008462E+00</totfact>
</mgrwt>
</event>
<event>
 4    1  0.1323225E-008  0.2574058E+04  0.7816531E-02  0.8377067E-01
          2   -1    0    0  501    0  0.00000000000E+00  0.00000000000E+00  0.10524993677E+04  0.10524993677E+04  0.00000000000E+00 0.  1.
         -2   -1    0    0    0  501 -0.00000000000E+00 -0.00000000000E+00 -0.15738196777E+04  0.15738196777E+04  0.00000000000E+00 0. -1.
    2000013    1    1    2    0    0  0.67338961452E+03  0.48383458490E+03 -0.52356337655E+03  0.13653454097E+04  0.95000000000E+03 0.  0.
   -2000013    1    1    2    0    0 -0.67338961452E+03 -0.48383458490E+03  0.22430665398E+01  0.12609736357E+04  0.95000000000E+03 0.  0.
<mgrwt>
<rscale>  0 0.25740584E+04</rscale>
<asrwt>0</asrwt>
<pdfrwt beam="1">  1        2 0.16192298E+00 0.25740584E+04</pdfrwt>
<pdfrwt beam="2">  1       -2 0.24212610E+00 0.25740584E+04</pdfrwt>
<totfact> 0.14856825E+00</totfact>
</mgrwt>
</event>
<event>
 4    1  0.1323225E-008  0.2652791E+04  0.7816531E-02  0.8350487E-01
          2   -1    0    0  501    0  0.00000000000E+00  0.00000000000E+00  0.91660439664E+03  0.91660439664E+03  0.00000000000E+00 0.  1.
         -2   -1    0    0    0  501 -0.00000000000E+00 -0.00000000000E+00 -0.19193933719E+04  0.19193933719E+04  0.00000000000E+00 0. -1.
    2000013    1    1    2    0    0  0.88372921495E+03 -0.19805415138E+03 -0.70597853611E+03  0.14903383729E+04  0.95000000000E+03 0.  0.
   -2000013    1    1    2    0    0 -0.88372921495E+03  0.19805415138E+03 -0.29681043911E+03  0.13456593956E+04  0.95000000000E+03 0.  0.
<mgrwt>
<rscale>  0 0.26527905E+04</rscale>
<asrwt>0</asrwt>
<pdfrwt beam="1">  1        2 0.14101606E+00 0.26527905E+04</pdfrwt>
<pdfrwt beam="2">  1       -2 0.29529129E+00 0.26527905E+04</pdfrwt>
<totfact> 0.85477857E-01</totfact>
</mgrwt>
</event>
<event>
 4    1  0.1323225E-008  0.3182814E+04  0.7816531E-02  0.8193371E-01
          1   -1    0    0  501    0  0.00000000000E+00  0.00000000000E+00  0.23637702489E+04  0.23637702489E+04  0.00000000000E+00 0.  1.
         -1   -1    0    0    0  501 -0.00000000000E+00 -0.00000000000E+00 -0.10714136835E+04  0.10714136835E+04  0.00000000000E+00 0. -1.
    2000013    1    1    2    0    0  0.27379427984E+03 -0.93479704116E+03  0.15370136331E+04  0.20527346941E+04  0.95000000000E+03 0.  0.
   -2000013    1    1    2    0    0 -0.27379427984E+03  0.93479704116E+03 -0.24465706770E+03  0.13824492383E+04  0.95000000000E+03 0.  0.
<mgrwt>
<rscale>  0 0.31828137E+04</rscale>
<asrwt>0</asrwt>
<pdfrwt beam="1">  1        1 0.36365696E+00 0.31828137E+04</pdfrwt>
<pdfrwt beam="2">  1       -1 0.16483287E+00 0.31828137E+04</pdfrwt>
<totfact> 0.37883137E-01</totfact>
</mgrwt>
</event>
<event>
 4    1  0.1323225E-008  0.2796970E+04  0.7816531E-02  0.8304210E-01
         -1   -1    0    0    0  501 -0.00000000000E+00  0.00000000000E+00  0.17104651272E+04  0.17104651272E+04  0.00000000000E+00 0. -1.
          1   -1    0    0  501    0  0.00000000000E+00 -0.00000000000E+00 -0.11434084734E+04  0.11434084734E+04  0.00000000000E+00 0.  1.
    2000013    1    1    2    0    0 -0.38806807868E+03 -0.74568271497E+03 -0.31719461398E+03  0.13075748423E+04  0.95000000000E+03 0.  0.
   -2000013    1    1    2    0    0  0.38806807868E+03  0.74568271497E+03  0.88425126784E+03  0.15462987583E+04  0.95000000000E+03 0.  0.
<mgrwt>
<rscale>  0 0.27969700E+04</rscale>
<asrwt>0</asrwt>
<pdfrwt beam="2">  1        1 0.17590900E+00 0.27969700E+04</pdfrwt>
<pdfrwt beam="1">  1       -1 0.26314848E+00 0.27969700E+04</pdfrwt>
<totfact> 0.58309565E-01</totfact>
</mgrwt>
</event>
<event>
 4    1  0.1323225E-008  0.2314927E+04  0.7816531E-02  0.8472059E-01
          2   -1    0    0  501    0  0.00000000000E+00  0.00000000000E+00  0.16623132644E+04  0.16623132644E+04  0.00000000000E+00 0.  1.
         -2   -1    0    0    0  501 -0.00000000000E+00 -0.00000000000E+00 -0.80593839127E+03  0.80593839127E+03  0.00000000000E+00 0. -1.
    2000013    1    1    2    0    0  0.39391265777E+03 -0.25642728639E+03  0.92407165443E+03  0.14061758630E+04  0.95000000000E+03 0.  0.
   -2000013    1    1    2    0    0 -0.39391265777E+03  0.25642728639E+03 -0.67696781306E+02  0.10620757927E+04  0.95000000000E+03 0.  0.
<mgrwt>
<rscale>  0 0.23149273E+04</rscale>
<asrwt>0</asrwt>
<pdfrwt beam="1">  1        2 0.25574050E+00 0.23149273E+04</pdfrwt>
<pdfrwt beam="2">  1       -2 0.12399052E+00 0.23149273E+04</pdfrwt>
<totfact> 0.45613377E+00</totfact>
</mgrwt>
</event>
<event>
 4    1  0.1323225E-008  0.2334698E+04  0.7816531E-02  0.8464364E-01
         -2   -1    0    0    0  501 -0.00000000000E+00  0.00000000000E+00  0.40085044334E+03  0.40085044334E+03  0.00000000000E+00 0. -1.
          2   -1    0    0  501    0  0.00000000000E+00 -0.00000000000E+00 -0.33995318800E+04  0.33995318800E+04  0.00000000000E+00 0.  1.
    2000013    1    1    2    0    0  0.75715348075E+01 -0.64631822010E+03 -0.11640834086E+04  0.16356572844E+04  0.95000000000E+03 0.  0.
   -2000013    1    1    2    0    0 -0.75715348075E+01  0.64631822010E+03 -0.18345980281E+04  0.21647250390E+04  0.95000000000E+03 0.  0.
<mgrwt>
<rscale>  0 0.23346981E+04</rscale>
<asrwt>0</asrwt>
<pdfrwt beam="2">  1        2 0.52300492E+00 0.23346981E+04</pdfrwt>
<pdfrwt beam="1">  1       -2 0.61669297E-01 0.23346981E+04</pdfrwt>
<totfact> 0.21117317E+00</totfact>
</mgrwt>
</event>
<event>
 4    1  0.1323225E-008  0.2454239E+04  0.7816531E-02  0.8419472E-01
          2   -1    0    0  501    0  0.00000000000E+00  0.00000000000E+00  0.12393459164E+04  0.12393459164E+04  0.00000000000E+00 0.  1.
         -2   -1    0    0    0  501 -0.00000000000E+00 -0.00000000000E+00 -0.12150135293E+04  0.12150135293E+04  0.00000000000E+00 0. -1.
    2000013    1    1    2    0    0  0.74938716361E+03  0.11877760951E+03 -0.15407318393E+03  0.12255316346E+04  0.95000000000E+03 0.  0.
   -2000013    1    1    2    0    0 -0.74938716361E+03 -0.11877760951E+03  0.17840557101E+03  0.12288278111E+04  0.95000000000E+03 0.  0.
<mgrwt>
<rscale>  0 0.24542388E+04</rscale>
<asrwt>0</asrwt>
<pdfrwt beam="1">  1        2 0.19066860E+00 0.24542388E+04</pdfrwt>
<pdfrwt beam="2">  1       -2 0.18692516E+00 0.24542388E+04</pdfrwt>
<totfact> 0.26121159E+00</totfact>
</mgrwt>
</event>
<event>
 4    1  0.1323225E-008  0.2152284E+04  0.7816531E-02  0.8538555E-01
          1   -1    0    0  501    0  0.00000000000E+00  0.00000000000E+00  0.17323383735E+04  0.17323383735E+04  0.00000000000E+00 0.  1.
         -1   -1    0    0    0  501 -0.00000000000E+00 -0.00000000000E+00 -0.66850798093E+03  0.66850798093E+03  0.00000000000E+00 0. -1.
    2000013    1    1    2    0    0  0.21489744186E+03  0.20823043807E+03  0.98645575970E+03  0.14018330113E+04  0.95000000000E+03 0.  0.
   -2000013    1    1    2    0    0 -0.21489744186E+03 -0.20823043807E+03  0.77374632879E+02  0.99901334309E+03  0.95000000000E+03 0.  0.
<mgrwt>
<rscale>  0 0.21522844E+04</rscale>
<asrwt>0</asrwt>
<pdfrwt beam="1">  1        1 0.26651359E+00 0.21522844E+04</pdfrwt>
<pdfrwt beam="2">  1       -1 0.10284738E+00 0.21522844E+04</pdfrwt>
<totfact> 0.37045678E+00</totfact>
</mgrwt>
</event>
<event>
 4    1  0.1323225E-008  0.2164293E+04  0.7816531E-02  0.8533439E-01
          2   -1    0    0  501    0  0.00000000000E+00  0.00000000000E+00  0.10648304473E+04  0.10648304473E+04  0.00000000000E+00 0.  1.
         -2   -1    0    0    0  501 -0.00000000000E+00 -0.00000000000E+00 -0.10997444124E+04  0.10997444124E+04  0.00000000000E+00 0. -1.
    2000013    1    1    2    0    0  0.50183966073E+03  0.12854647919E+03 -0.42608696662E+01  0.10820745803E+04  0.95000000000E+03 0.  0.
   -2000013    1    1    2    0    0 -0.50183966073E+03 -0.12854647919E+03 -0.30653095443E+02  0.10825002793E+04  0.95000000000E+03 0.  0.
<mgrwt>
<rscale>  0 0.21642933E+04</rscale>
<asrwt>0</asrwt>
<pdfrwt beam="1">  1        2 0.16382007E+00 0.21642933E+04</pdfrwt>
<pdfrwt beam="2">  1       -2 0.16919145E+00 0.21642933E+04</pdfrwt>
<totfact> 0.45359455E+00</totfact>
</mgrwt>
</event>
<event>
 4    1  0.1323225E-008  0.3024107E+04  0.7816531E-02  0.8236880E-01
          1   -1    0    0  501    0  0.00000000000E+00  0.00000000000E+00  0.38688191617E+04  0.38688191617E+04  0.00000000000E+00 0.  1.
         -1   -1    0    0    0  501 -0.00000000000E+00 -0.00000000000E+00 -0.59095681633E+03  0.59095681633E+03  0.00000000000E+00 0. -1.
    2000013    1    1    2    0    0 -0.83877239644E+03  0.50591748472E+03  0.67829409735E+03  0.15238354625E+04  0.95000000000E+03 0.  0.
   -2000013    1    1    2    0    0  0.83877239644E+03 -0.50591748472E+03  0.25995682480E+04  0.29359405155E+04  0.95000000000E+03 0.  0.
<mgrwt>
<rscale>  0 0.30241065E+04</rscale>
<asrwt>0</asrwt>
<pdfrwt beam="1">  1        1 0.59520293E+00 0.30241065E+04</pdfrwt>
<pdfrwt beam="2">  1       -1 0.90916436E-01 0.30241065E+04</pdfrwt>
<totfact> 0.12493518E-01</totfact>
</mgrwt>
</event>
<event>
 4    1  0.1323225E-008  0.2825661E+04  0.7816531E-02  0.8295346E-01
         -2   -1    0    0    0  501 -0.00000000000E+00  0.00000000000E+00  0.16143049789E+04  0.16143049789E+04  0.00000000000E+00 0. -1.
          2   -1    0    0  501    0  0.00000000000E+00 -0.00000000000E+00 -0.12365009048E+04  0.12365009048E+04  0.00000000000E+00 0.  1.
    2000013    1    1    2    0    0  0.98787930971E+02  0.10336287079E+04  0.31427454387E+03  0.14420179784E+04  0.95000000000E+03 0.  0.
   -2000013    1    1    2    0    0 -0.98787930971E+02 -0.10336287079E+04  0.63529530200E+02  0.14087879053E+04  0.95000000000E+03 0.  0.
<mgrwt>
<rscale>  0 0.28256607E+04</rscale>
<asrwt>0</asrwt>
<pdfrwt beam="2">  1        2 0.19023091E+00 0.28256607E+04</pdfrwt>
<pdfrwt beam="1">  1       -2 0.24835462E+00 0.28256607E+04</pdfrwt>
<totfact> 0.10290273E+00</totfact>
</mgrwt>
</event>
<event>
 4    1  0.1323225E-008  0.2858607E+04  0.7816531E-02  0.8285301E-01
          2   -1    0    0  501    0  0.00000000000E+00  0.00000000000E+00  0.26009955140E+04  0.26009955140E+04  0.00000000000E+00 0.  1.
         -2   -1    0    0    0  501 -0.00000000000E+00 -0.00000000000E+00 -0.78543327676E+03  0.78543327676E+03  0.00000000000E+00 0. -1.
    2000013    1    1    2    0    0 -0.43455543834E+03  0.86662591227E+03  0.37729177008E+03  0.14088037410E+04  0.95000000000E+03 0.  0.
   -2000013    1    1    2    0    0  0.43455543834E+03 -0.86662591227E+03  0.14382704671E+04  0.19776250498E+04  0.95000000000E+03 0.  0.
<mgrwt>
<rscale>  0 0.28586070E+04</rscale>
<asrwt>0</asrwt>
<pdfrwt beam="1">  1        2 0.40015315E+00 0.28586070E+04</pdfrwt>
<pdfrwt beam="2">  1       -2 0.12083589E+00 0.28586070E+04</pdfrwt>
<totfact> 0.13731875E+00</totfact>
</mgrwt>
</event>
<event>
 4    1  0.1323225E-008  0.2379360E+04  0.7816531E-02  0.8447272E-01
          2   -1    0    0  501    0  0.00000000000E+00  0.00000000000E+00  0.12701463042E+04  0.12701463042E+04  0.00000000000E+00 0.  1.
         -2   -1    0    0    0  501 -0.00000000000E+00 -0.00000000000E+00 -0.11143113153E+04  0.11143113153E+04  0.00000000000E+00 0. -1.
    2000013    1    1    2    0    0  0.38930821585E+03 -0.30572942395E+03 -0.44069199011E+03  0.11583353563E+04  0.95000000000E+03 0.  0.
   -2000013    1    1    2    0    0 -0.38930821585E+03  0.30572942395E+03  0.59652697894E+03  0.12261222632E+04  0.95000000000E+03 0.  0.
<mgrwt>
<rscale>  0 0.23793599E+04</rscale>
<asrwt>0</asrwt>
<pdfrwt beam="1">  1        2 0.19540712E+00 0.23793599E+04</pdfrwt>
<pdfrwt beam="2">  1       -2 0.17143251E+00 0.23793599E+04</pdfrwt>
<totfact> 0.32278347E+00</totfact>
</mgrwt>
</event>
<event>
 4    1  0.1323225E-008  0.2054310E+04  0.7816531E-02  0.8581642E-01
          1   -1    0    0  501    0  0.00000000000E+00  0.00000000000E+00  0.12109712044E+04  0.12109712044E+04  0.00000000000E+00 0.  1.
         -1   -1    0    0    0  501 -0.00000000000E+00 -0.00000000000E+00 -0.87124033766E+03  0.87124033766E+03  0.00000000000E+00 0. -1.
    2000013    1    1    2    0    0  0.94410300873E+02 -0.33385895466E+03 -0.11935875917E+02  0.10114433111E+04  0.95000000000E+03 0.  0.
   -2000013    1    1    2    0    0 -0.94410300873E+02  0.33385895466E+03  0.35166674270E+03  0.10707682310E+04  0.95000000000E+03 0.  0.
<mgrwt>
<rscale>  0 0.20543096E+04</rscale>
<asrwt>0</asrwt>
<pdfrwt beam="1">  1        1 0.18630326E+00 0.20543096E+04</pdfrwt>
<pdfrwt beam="2">  1       -1 0.13403698E+00 0.20543096E+04</pdfrwt>
<totfact> 0.45446787E+00</totfact>
</mgrwt>
</event>
<event>
 4    1  0.1323225E-008  0.2535008E+04  0.7816531E-02  0.8390619E-01
         -2   -1    0    0    0  501 -0.00000000000E+00  0.00000000000E+00  0.83433361220E+03  0.83433361220E+03  0.00000000000E+00 0. -1.
          2   -1    0    0  501    0  0.00000000000E+00 -0.00000000000E+00 -0.19255684147E+04  0.19255684147E+04  0.00000000000E+00 0.  1.
    2000013    1    1    2    0    0 -0.14034640082E+03 -0.79187996333E+03 -0.28501738570E+03  0.12769126433E+04  0.95000000000E+03 0.  0.
   -2000013    1    1    2    0    0  0.14034640082E+03  0.79187996333E+03 -0.80621741675E+03  0.14829893835E+04  0.95000000000E+03 0.  0.
<mgrwt>
<rscale>  0 0.25350080E+04</rscale>
<asrwt>0</asrwt>
<pdfrwt beam="2">  1        2 0.29624129E+00 0.25350080E+04</pdfrwt>
<pdfrwt beam="1">  1       -2 0.12835902E+00 0.25350080E+04</pdfrwt>
<totfact> 0.29313852E+00</totfact>
</mgrwt>
</event>
<event>
 4    1  0.1323225E-008  0.2983786E+04  0.7816531E-02  0.8248376E-01
          2   -1    0    0  501    0  0.00000000000E+00  0.00000000000E+00  0.25121433164E+04  0.25121433164E+04  0.00000000000E+00 0. -1.
         -2   -1    0    0    0  501 -0.00000000000E+00 -0.00000000000E+00 -0.88599458596E+03  0.88599458596E+03  0.00000000000E+00 0.  1.
    2000013    1    1    2    0    0  0.26291120212E+02 -0.83126126505E+03  0.17181402205E+04  0.21321801826E+04  0.95000000000E+03 0.  0.
   -2000013    1    1    2    0    0 -0.26291120212E+02  0.83126126505E+03 -0.91991490140E+02  0.12659577197E+04  0.95000000000E+03 0.  0.
<mgrwt>
<rscale>  0 0.29837864E+04</rscale>
<asrwt>0</asrwt>
<pdfrwt beam="1">  1        2 0.38648359E+00 0.29837864E+04</pdfrwt>
<pdfrwt beam="2">  1       -2 0.13630686E+00 0.29837864E+04</pdfrwt>
<totfact> 0.11297459E+00</totfact>
</mgrwt>
</event>
<event>
 4    1  0.1323225E-008  0.2643774E+04  0.7816531E-02  0.8353482E-01
         -2   -1    0    0    0  501 -0.00000000000E+00  0.00000000000E+00  0.14571859111E+04  0.14571859111E+04  0.00000000000E+00 0. -1.
          2   -1    0    0  501    0  0.00000000000E+00 -0.00000000000E+00 -0.11991503343E+04  0.11991503343E+04  0.00000000000E+00 0.  1.
    2000013    1    1    2    0    0  0.15131913750E+03 -0.85737366982E+03  0.42520298494E+03  0.13569394494E+04  0.95000000000E+03 0.  0.
   -2000013    1    1    2    0    0 -0.15131913750E+03  0.85737366982E+03 -0.16716740815E+03  0.12993967960E+04  0.95000000000E+03 0.  0.
<mgrwt>
<rscale>  0 0.26437738E+04</rscale>
<asrwt>0</asrwt>
<pdfrwt beam="2">  1        2 0.18448467E+00 0.26437738E+04</pdfrwt>
<pdfrwt beam="1">  1       -2 0.22418245E+00 0.26437738E+04</pdfrwt>
<totfact> 0.15542971E+00</totfact>
</mgrwt>
</event>
<event>
 4    1  0.1323225E-008  0.3400104E+04  0.7816531E-02  0.8137881E-01
          1   -1    0    0  501    0  0.00000000000E+00  0.00000000000E+00  0.28494833337E+04  0.28494833337E+04  0.00000000000E+00 0.  1.
         -1   -1    0    0    0  501 -0.00000000000E+00 -0.00000000000E+00 -0.10142808765E+04  0.10142808765E+04  0.00000000000E+00 0. -1.
    2000013    1    1    2    0    0 -0.11376838581E+04 -0.72076310621E+03  0.44378619970E+03  0.17068304565E+04  0.95000000000E+03 0.  0.
   -2000013    1    1    2    0    0  0.11376838581E+04  0.72076310621E+03  0.13914162575E+04  0.21569337537E+04  0.95000000000E+03 0.  0.
<mgrwt>
<rscale>  0 0.34001038E+04</rscale>
<asrwt>0</asrwt>
<pdfrwt beam="1">  1        1 0.43838205E+00 0.34001038E+04</pdfrwt>
<pdfrwt beam="2">  1       -1 0.15604321E+00 0.34001038E+04</pdfrwt>
<totfact> 0.19786054E-01</totfact>
</mgrwt>
</event>
<event>
 4    1  0.1323225E-008  0.3092923E+04  0.7816531E-02  0.8217683E-01
         -2   -1    0    0    0  501 -0.00000000000E+00  0.00000000000E+00  0.18574480936E+04  0.18574480936E+04  0.00000000000E+00 0. -1.
          2   -1    0    0  501    0  0.00000000000E+00 -0.00000000000E+00 -0.12875425042E+04  0.12875425042E+04  0.00000000000E+00 0.  1.
    2000013    1    1    2    0    0  0.93498072343E+02  0.52455010917E+03 -0.83132050499E+03  0.13702147600E+04  0.95000000000E+03 0.  0.
   -2000013    1    1    2    0    0 -0.93498072343E+02 -0.52455010917E+03  0.14012260945E+04  0.17747758378E+04  0.95000000000E+03 0.  0.
<mgrwt>
<rscale>  0 0.30929231E+04</rscale>
<asrwt>0</asrwt>
<pdfrwt beam="2">  1        2 0.19808346E+00 0.30929231E+04</pdfrwt>
<pdfrwt beam="1">  1       -2 0.28576124E+00 0.30929231E+04</pdfrwt>
<totfact> 0.55461643E-01</totfact>
</mgrwt>
</event>
<event>
 4    1  0.1323225E-008  0.2509235E+04  0.7816531E-02  0.8399703E-01
         -2   -1    0    0    0  501 -0.00000000000E+00  0.00000000000E+00  0.80303674870E+03  0.80303674870E+03  0.00000000000E+00 0.  1.
          2   -1    0    0  501    0  0.00000000000E+00 -0.00000000000E+00 -0.19601415206E+04  0.19601415206E+04  0.00000000000E+00 0. -1.
    2000013    1    1    2    0    0  0.76173878773E+03 -0.22017091106E+03 -0.80648939039E+03  0.14770397245E+04  0.95000000000E+03 0.  0.
   -2000013    1    1    2    0    0 -0.76173878773E+03  0.22017091106E+03 -0.35061538151E+03  0.12861385449E+04  0.95000000000E+03 0.  0.
<mgrwt>
<rscale>  0 0.25092355E+04</rscale>
<asrwt>0</asrwt>
<pdfrwt beam="2">  1        2 0.30156023E+00 0.25092355E+04</pdfrwt>
<pdfrwt beam="1">  1       -2 0.12354412E+00 0.25092355E+04</pdfrwt>
<totfact> 0.30942210E+00</totfact>
</mgrwt>
</event>
<event>
 4    1  0.1323225E-008  0.2748115E+04  0.7816531E-02  0.8319560E-01
          2   -1    0    0  501    0  0.00000000000E+00  0.00000000000E+00  0.16371833410E+04  0.16371833410E+04  0.00000000000E+00 0.  1.
         -2   -1    0    0    0  501 -0.00000000000E+00 -0.00000000000E+00 -0.11532211078E+04  0.11532211078E+04  0.00000000000E+00 0. -1.
    2000013    1    1    2    0    0  0.39470554740E+03  0.78310091552E+03 -0.23046906286E+03  0.13132613989E+04  0.95000000000E+03 0.  0.
   -2000013    1    1    2    0    0 -0.39470554740E+03 -0.78310091552E+03  0.71443129607E+03  0.14771430499E+04  0.95000000000E+03 0.  0.
<mgrwt>
<rscale>  0 0.27481153E+04</rscale>
<asrwt>0</asrwt>
<pdfrwt beam="1">  1        2 0.25187436E+00 0.27481153E+04</pdfrwt>
<pdfrwt beam="2">  1       -2 0.17741863E+00 0.27481153E+04</pdfrwt>
<totfact> 0.17557028E+00</totfact>
</mgrwt>
</event>
<event>
 4    1  0.1323225E-008  0.3329951E+04  0.7816531E-02  0.8155316E-01
          2   -1    0    0  501    0  0.00000000000E+00  0.00000000000E+00  0.17970664598E+04  0.17970664598E+04  0.00000000000E+00 0.  1.
         -2   -1    0    0    0  501 -0.00000000000E+00 -0.00000000000E+00 -0.15425939665E+04  0.15425939665E+04  0.00000000000E+00 0. -1.
    2000013    1    1    2    0    0  0.11990011917E+04 -0.15955405076E+03 -0.51226115734E+03  0.16211023552E+04  0.95000000000E+03 0.  0.
   -2000013    1    1    2    0    0 -0.11990011917E+04  0.15955405076E+03  0.76673365065E+03  0.17185580711E+04  0.95000000000E+03 0.  0.
<mgrwt>
<rscale>  0 0.33299513E+04</rscale>
<asrwt>0</asrwt>
<pdfrwt beam="1">  1        2 0.27647176E+00 0.33299513E+04</pdfrwt>
<pdfrwt beam="2">  1       -2 0.23732215E+00 0.33299513E+04</pdfrwt>
<totfact> 0.55543278E-01</totfact>
</mgrwt>
</event>
<event>
 4    1  0.1323225E-008  0.2154235E+04  0.7816531E-02  0.8537722E-01
         -2   -1    0    0    0  501 -0.00000000000E+00  0.00000000000E+00  0.64481781304E+03  0.64481781304E+03  0.00000000000E+00 0. -1.
          2   -1    0    0  501    0  0.00000000000E+00 -0.00000000000E+00 -0.17992394461E+04  0.17992394461E+04  0.00000000000E+00 0.  1.
    2000013    1    1    2    0    0  0.46447228803E+03  0.95626071868E+01 -0.80932178531E+03  0.13316635093E+04  0.95000000000E+03 0.  0.
   -2000013    1    1    2    0    0 -0.46447228803E+03 -0.95626071868E+01 -0.34509984777E+03  0.11123937499E+04  0.95000000000E+03 0.  0.
<mgrwt>
<rscale>  0 0.21542346E+04</rscale>
<asrwt>0</asrwt>
<pdfrwt beam="2">  1        2 0.27680606E+00 0.21542346E+04</pdfrwt>
<pdfrwt beam="1">  1       -2 0.99202743E-01 0.21542346E+04</pdfrwt>
<totfact> 0.66708863E+00</totfact>
</mgrwt>
</event>
<event>
 4    1  0.1323225E-008  0.2540133E+04  0.7816531E-02  0.8388826E-01
         -2   -1    0    0    0  501 -0.00000000000E+00  0.00000000000E+00  0.59836625829E+03  0.59836625829E+03  0.00000000000E+00 0. -1.
          2   -1    0    0  501    0  0.00000000000E+00 -0.00000000000E+00 -0.26957883246E+04  0.26957883246E+04  0.00000000000E+00 0.  1.
    2000013    1    1    2    0    0 -0.64299411769E+03  0.54275325172E+03 -0.11141501844E+04  0.16887430713E+04  0.95000000000E+03 0.  0.
   -2000013    1    1    2    0    0  0.64299411769E+03 -0.54275325172E+03 -0.98327188192E+03  0.16054115115E+04  0.95000000000E+03 0.  0.
<mgrwt>
<rscale>  0 0.25401329E+04</rscale>
<asrwt>0</asrwt>
<pdfrwt beam="2">  1        2 0.41473666E+00 0.25401329E+04</pdfrwt>
<pdfrwt beam="1">  1       -2 0.92056348E-01 0.25401329E+04</pdfrwt>
<totfact> 0.23808693E+00</totfact>
</mgrwt>
</event>
<event>
 4    1  0.1323225E-008  0.2442472E+04  0.7816531E-02  0.8423772E-01
          1   -1    0    0  501    0  0.00000000000E+00  0.00000000000E+00  0.15347646449E+04  0.15347646449E+04  0.00000000000E+00 0. -1.
         -1   -1    0    0    0  501 -0.00000000000E+00 -0.00000000000E+00 -0.97175647596E+03  0.97175647596E+03  0.00000000000E+00 0.  1.
    2000013    1    1    2    0    0 -0.18964051661E+03  0.30922468230E+03 -0.41249440958E+03  0.10973764475E+04  0.95000000000E+03 0.  0.
   -2000013    1    1    2    0    0  0.18964051661E+03 -0.30922468230E+03  0.97550257855E+03  0.14091446734E+04  0.95000000000E+03 0.  0.
<mgrwt>
<rscale>  0 0.24424721E+04</rscale>
<asrwt>0</asrwt>
<pdfrwt beam="1">  1        1 0.23611764E+00 0.24424721E+04</pdfrwt>
<pdfrwt beam="2">  1       -1 0.14950100E+00 0.24424721E+04</pdfrwt>
<totfact> 0.19453622E+00</totfact>
</mgrwt>
</event>
<event>
 4    1  0.1323225E-008  0.2607425E+04  0.7816531E-02  0.8365683E-01
         -2   -1    0    0    0  501 -0.00000000000E+00  0.00000000000E+00  0.10044725733E+04  0.10044725733E+04  0.00000000000E+00 0. -1.
          2   -1    0    0  501    0  0.00000000000E+00 -0.00000000000E+00 -0.16920986869E+04  0.16920986869E+04  0.00000000000E+00 0.  1.
    2000013    1    1    2    0    0  0.45265192077E+03 -0.76950476144E+03 -0.35584628150E+03  0.13513541043E+04  0.95000000000E+03 0.  0.
   -2000013    1    1    2    0    0 -0.45265192077E+03  0.76950476144E+03 -0.33177983210E+03  0.13452171558E+04  0.95000000000E+03 0.  0.
<mgrwt>
<rscale>  0 0.26074253E+04</rscale>
<asrwt>0</asrwt>
<pdfrwt beam="2">  1        2 0.26032287E+00 0.26074253E+04</pdfrwt>
<pdfrwt beam="1">  1       -2 0.15453424E+00 0.26074253E+04</pdfrwt>
<totfact> 0.24240877E+00</totfact>
</mgrwt>
</event>
<event>
 4    1  0.1323225E-008  0.3036223E+04  0.7816531E-02  0.8233462E-01
         -2   -1    0    0    0  501 -0.00000000000E+00  0.00000000000E+00  0.24671669837E+04  0.24671669837E+04  0.00000000000E+00 0. -1.
          2   -1    0    0  501    0  0.00000000000E+00 -0.00000000000E+00 -0.93413305197E+03  0.93413305197E+03  0.00000000000E+00 0.  1.
    2000013    1    1    2    0    0  0.99913837121E+03  0.17068897006E+03  0.14522927346E+04  0.20097428682E+04  0.95000000000E+03 0.  0.
   -2000013    1    1    2    0    0 -0.99913837121E+03 -0.17068897006E+03  0.80741197099E+02  0.13915571674E+04  0.95000000000E+03 0.  0.
<mgrwt>
<rscale>  0 0.30362228E+04</rscale>
<asrwt>0</asrwt>
<pdfrwt beam="2">  1        2 0.14371278E+00 0.30362228E+04</pdfrwt>
<pdfrwt beam="1">  1       -2 0.37956415E+00 0.30362228E+04</pdfrwt>
<totfact> 0.23910080E-01</totfact>
</mgrwt>
</event>
<event>
 4    1  0.1323225E-008  0.1942954E+04  0.7816531E-02  0.8633766E-01
          1   -1    0    0  501    0  0.00000000000E+00  0.00000000000E+00  0.44633409425E+03  0.44633409425E+03  0.00000000000E+00 0. -1.
         -1   -1    0    0    0  501 -0.00000000000E+00 -0.00000000000E+00 -0.21144873131E+04  0.21144873131E+04  0.00000000000E+00 0.  1.
    2000013    1    1    2    0    0  0.76524569421E+02 -0.16230929446E+03 -0.70857201719E+03  0.11986553384E+04  0.95000000000E+03 0.  0.
   -2000013    1    1    2    0    0 -0.76524569421E+02  0.16230929446E+03 -0.95958120171E+03  0.13621660690E+04  0.95000000000E+03 0.  0.
<mgrwt>
<rscale>  0 0.19429542E+04</rscale>
<asrwt>0</asrwt>
<pdfrwt beam="1">  1        1 0.68666784E-01 0.19429542E+04</pdfrwt>
<pdfrwt beam="2">  1       -1 0.32530574E+00 0.19429542E+04</pdfrwt>
<totfact> 0.10920417E+00</totfact>
</mgrwt>
</event>
<event>
 4    1  0.1323225E-008  0.1964587E+04  0.7816531E-02  0.8623359E-01
         -2   -1    0    0    0  501 -0.00000000000E+00  0.00000000000E+00  0.62492976352E+03  0.62492976352E+03  0.00000000000E+00 0. -1.
          2   -1    0    0  501    0  0.00000000000E+00 -0.00000000000E+00 -0.15440137419E+04  0.15440137419E+04  0.00000000000E+00 0.  1.
    2000013    1    1    2    0    0  0.23799868360E+03  0.52111605546E+02 -0.39865900050E+03  0.10586727500E+04  0.95000000000E+03 0.  0.
   -2000013    1    1    2    0    0 -0.23799868360E+03 -0.52111605546E+02 -0.52042497790E+03  0.11102707555E+04  0.95000000000E+03 0.  0.
<mgrwt>
<rscale>  0 0.19645866E+04</rscale>
<asrwt>0</asrwt>
<pdfrwt beam="2">  1        2 0.23754058E+00 0.19645866E+04</pdfrwt>
<pdfrwt beam="1">  1       -2 0.96143040E-01 0.19645866E+04</pdfrwt>
<totfact> 0.10123762E+01</totfact>
</mgrwt>
</event>
<event>
 4    1  0.1323225E-008  0.2691179E+04  0.7816531E-02  0.8337873E-01
          1   -1    0    0  501    0  0.00000000000E+00  0.00000000000E+00  0.13066737224E+04  0.13066737224E+04  0.00000000000E+00 0.  1.
         -1   -1    0    0    0  501 -0.00000000000E+00 -0.00000000000E+00 -0.13856646930E+04  0.13856646930E+04  0.00000000000E+00 0. -1.
    2000013    1    1    2    0    0  0.91504257315E+03 -0.17825179786E+03 -0.23715341702E+03  0.13519683270E+04  0.95000000000E+03 0.  0.
   -2000013    1    1    2    0    0 -0.91504257315E+03  0.17825179786E+03  0.15816244639E+03  0.13403700883E+04  0.95000000000E+03 0.  0.
<mgrwt>
<rscale>  0 0.26911794E+04</rscale>
<asrwt>0</asrwt>
<pdfrwt beam="1">  1        1 0.20102673E+00 0.26911794E+04</pdfrwt>
<pdfrwt beam="2">  1       -1 0.21317918E+00 0.26911794E+04</pdfrwt>
<totfact> 0.95638773E-01</totfact>
</mgrwt>
</event>
<event>
 4    1  0.1323225E-008  0.2343846E+04  0.7816531E-02  0.8460831E-01
          2   -1    0    0  501    0  0.00000000000E+00  0.00000000000E+00  0.12916209157E+04  0.12916209157E+04  0.00000000000E+00 0.  1.
         -2   -1    0    0    0  501 -0.00000000000E+00 -0.00000000000E+00 -0.10633178017E+04  0.10633178017E+04  0.00000000000E+00 0. -1.
    2000013    1    1    2    0    0  0.67743414582E+03 -0.75072733595E+02  0.19421920616E+03  0.11852316387E+04  0.95000000000E+03 0.  0.
   -2000013    1    1    2    0    0 -0.67743414582E+03  0.75072733595E+02  0.34083907855E+02  0.11697070787E+04  0.95000000000E+03 0.  0.
<mgrwt>
<rscale>  0 0.23438460E+04</rscale>
<asrwt>0</asrwt>
<pdfrwt beam="1">  1        2 0.19871091E+00 0.23438460E+04</pdfrwt>
<pdfrwt beam="2">  1       -2 0.16358735E+00 0.23438460E+04</pdfrwt>
<totfact> 0.35807773E+00</totfact>
</mgrwt>
</event>
<event>
 4    1  0.1323225E-008  0.2999157E+04  0.7816531E-02  0.8243972E-01
         -2   -1    0    0    0  501 -0.00000000000E+00  0.00000000000E+00  0.15307835297E+04  0.15307835297E+04  0.00000000000E+00 0. -1.
          2   -1    0    0  501    0  0.00000000000E+00 -0.00000000000E+00 -0.14690097721E+04  0.14690097721E+04  0.00000000000E+00 0.  1.
    2000013    1    1    2    0    0  0.94689294308E+03  0.60213925095E+03  0.32600545546E+03  0.15059739308E+04  0.95000000000E+03 0.  0.
   -2000013    1    1    2    0    0 -0.94689294308E+03 -0.60213925095E+03 -0.26423169781E+03  0.14938193710E+04  0.95000000000E+03 0.  0.
<mgrwt>
<rscale>  0 0.29991572E+04</rscale>
<asrwt>0</asrwt>
<pdfrwt beam="2">  1        2 0.22600150E+00 0.29991572E+04</pdfrwt>
<pdfrwt beam="1">  1       -2 0.23550516E+00 0.29991572E+04</pdfrwt>
<totfact> 0.89384344E-01</totfact>
</mgrwt>
</event>
<event>
 4    1  0.1323225E-008  0.1965023E+04  0.7816531E-02  0.8623151E-01
          2   -1    0    0  501    0  0.00000000000E+00  0.00000000000E+00  0.12092496669E+04  0.12092496669E+04  0.00000000000E+00 0.  1.
         -2   -1    0    0    0  501 -0.00000000000E+00 -0.00000000000E+00 -0.79828720658E+03  0.79828720658E+03  0.00000000000E+00 0. -1.
    2000013    1    1    2    0    0 -0.36303581803E+02 -0.16645746875E+03  0.39331357109E+03  0.10422195566E+04  0.95000000000E+03 0.  0.
   -2000013    1    1    2    0    0  0.36303581803E+02  0.16645746875E+03  0.17648889218E+02  0.96531731687E+03  0.95000000000E+03 0.  0.
<mgrwt>
<rscale>  0 0.19650227E+04</rscale>
<asrwt>0</asrwt>
<pdfrwt beam="1">  1        2 0.18603841E+00 0.19650227E+04</pdfrwt>
<pdfrwt beam="2">  1       -2 0.12281342E+00 0.19650227E+04</pdfrwt>
<totfact> 0.87336081E+00</totfact>
</mgrwt>
</event>
<event>
 4    1  0.1323225E-008  0.2429892E+04  0.7816531E-02  0.8428396E-01
          2   -1    0    0  501    0  0.00000000000E+00  0.00000000000E+00  0.28807582947E+04  0.28807582947E+04  0.00000000000E+00 0.  1.
         -2   -1    0    0    0  501 -0.00000000000E+00 -0.00000000000E+00 -0.51239773603E+03  0.51239773603E+03  0.00000000000E+00 0. -1.
    2000013    1    1    2    0    0 -0.69500034527E+03 -0.22993862878E+03  0.14553048792E+04  0.18858180040E+04  0.95000000000E+03 0.  0.
   -2000013    1    1    2    0    0  0.69500034527E+03  0.22993862878E+03  0.91305567947E+03  0.15073380267E+04  0.95000000000E+03 0.  0.
<mgrwt>
<rscale>  0 0.24298922E+04</rscale>
<asrwt>0</asrwt>
<pdfrwt beam="1">  1        2 0.44319357E+00 0.24298922E+04</pdfrwt>
<pdfrwt beam="2">  1       -2 0.78830423E-01 0.24298922E+04</pdfrwt>
<totfact> 0.26466025E+00</totfact>
</mgrwt>
</event>
<event>
 4    1  0.1323225E-008  0.2521493E+04  0.7816531E-02  0.8395368E-01
         -2   -1    0    0    0  501 -0.00000000000E+00  0.00000000000E+00  0.89704801159E+03  0.89704801159E+03  0.00000000000E+00 0. -1.
          2   -1    0    0  501    0  0.00000000000E+00 -0.00000000000E+00 -0.17719030461E+04  0.17719030461E+04  0.00000000000E+00 0.  1.
    2000013    1    1    2    0    0  0.69856630010E+03  0.37424508847E+02  0.33074592501E+02  0.11802497186E+04  0.95000000000E+03 0.  0.
   -2000013    1    1    2    0    0 -0.69856630010E+03 -0.37424508847E+02 -0.90792962700E+03  0.14887013391E+04  0.95000000000E+03 0.  0.
<mgrwt>
<rscale>  0 0.25214933E+04</rscale>
<asrwt>0</asrwt>
<pdfrwt beam="2">  1        2 0.27260047E+00 0.25214933E+04</pdfrwt>
<pdfrwt beam="1">  1       -2 0.13800739E+00 0.25214933E+04</pdfrwt>
<totfact> 0.29689101E+00</totfact>
</mgrwt>
</event>
<event>
 4    1  0.1323225E-008  0.3232666E+04  0.7816531E-02  0.8180243E-01
          2   -1    0    0  501    0  0.00000000000E+00  0.00000000000E+00  0.18292845043E+04  0.18292845043E+04  0.00000000000E+00 0.  1.
         -2   -1    0    0    0  501 -0.00000000000E+00 -0.00000000000E+00 -0.14281718741E+04  0.14281718741E+04  0.00000000000E+00 0. -1.
    2000013    1    1    2    0    0 -0.12327586276E+04  0.34092855221E+03 -0.73756499056E+02  0.15949501976E+04  0.95000000000E+03 0.  0.
   -2000013    1    1    2    0    0  0.12327586276E+04 -0.34092855221E+03  0.47486912921E+03  0.16625061809E+04  0.95000000000E+03 0.  0.
<mgrwt>
<rscale>  0 0.32326662E+04</rscale>
<asrwt>0</asrwt>
<pdfrwt beam="1">  1        2 0.28142839E+00 0.32326662E+04</pdfrwt>
<pdfrwt beam="2">  1       -2 0.21971875E+00 0.32326662E+04</pdfrwt>
<totfact> 0.69278751E-01</totfact>
</mgrwt>
</event>
<event>
 4    1  0.1323225E-008  0.3017622E+04  0.7816531E-02  0.8238717E-01
          2   -1    0    0  501    0  0.00000000000E+00  0.00000000000E+00  0.24316716699E+04  0.24316716699E+04  0.00000000000E+00 0.  1.
         -2   -1    0    0    0  501 -0.00000000000E+00 -0.00000000000E+00 -0.93619149286E+03  0.93619149286E+03  0.00000000000E+00 0. -1.
    2000013    1    1    2    0    0  0.84438634507E+03 -0.69478198783E+03  0.27647493765E+03  0.14746690142E+04  0.95000000000E+03 0.  0.
   -2000013    1    1    2    0    0 -0.84438634507E+03  0.69478198783E+03  0.12190052394E+04  0.18931941485E+04  0.95000000000E+03 0.  0.
<mgrwt>
<rscale>  0 0.30176218E+04</rscale>
<asrwt>0</asrwt>
<pdfrwt beam="1">  1        2 0.37410333E+00 0.30176218E+04</pdfrwt>
<pdfrwt beam="2">  1       -2 0.14402946E+00 0.30176218E+04</pdfrwt>
<totfact> 0.10866317E+00</totfact>
</mgrwt>
</event>
<event>
 4    1  0.1323225E-008  0.2891735E+04  0.7816531E-02  0.8275341E-01
         -3   -1    0    0    0  501 -0.00000000000E+00  0.00000000000E+00  0.18362376198E+04  0.18362376198E+04  0.00000000000E+00 0. -1.
          3   -1    0    0  501    0  0.00000000000E+00 -0.00000000000E+00 -0.11384870209E+04  0.11384870209E+04  0.00000000000E+00 0.  1.
    2000013    1    1    2    0    0  0.73781670195E+03 -0.67415992187E+03  0.79629147690E+03  0.15923081367E+04  0.95000000000E+03 0.  0.
   -2000013    1    1    2    0    0 -0.73781670195E+03  0.67415992187E+03 -0.98540878086E+02  0.13824165040E+04  0.95000000000E+03 0.  0.
<mgrwt>
<rscale>  0 0.28917349E+04</rscale>
<asrwt>0</asrwt>
<pdfrwt beam="2">  1        3 0.17515185E+00 0.28917349E+04</pdfrwt>
<pdfrwt beam="1">  1       -3 0.28249810E+00 0.28917349E+04</pdfrwt>
<totfact> 0.22883663E-02</totfact>
</mgrwt>
</event>
<event>
 4    1  0.1323225E-008  0.2581695E+04  0.7816531E-02  0.8374446E-01
         -2   -1    0    0    0  501 -0.00000000000E+00  0.00000000000E+00  0.79101415535E+03  0.79101415535E+03  0.00000000000E+00 0. -1.
          2   -1    0    0  501    0  0.00000000000E+00 -0.00000000000E+00 -0.21065198352E+04  0.21065198352E+04  0.00000000000E+00 0.  1.
    2000013    1    1    2    0    0  0.63452947330E+03 -0.10671906534E+03  0.60134070054E+01  0.11474113353E+04  0.95000000000E+03 0.  0.
   -2000013    1    1    2    0    0 -0.63452947330E+03  0.10671906534E+03 -0.13215190868E+04  0.17501226552E+04  0.95000000000E+03 0.  0.
<mgrwt>
<rscale>  0 0.25816948E+04</rscale>
<asrwt>0</asrwt>
<pdfrwt beam="2">  1        2 0.32407996E+00 0.25816948E+04</pdfrwt>
<pdfrwt beam="1">  1       -2 0.12169449E+00 0.25816948E+04</pdfrwt>
<totfact> 0.26467336E+00</totfact>
</mgrwt>
</event>
<event>
 4    1  0.1323225E-008  0.2110354E+04  0.7816531E-02  0.8556696E-01
         -2   -1    0    0    0  501 -0.00000000000E+00  0.00000000000E+00  0.69048927152E+03  0.69048927152E+03  0.00000000000E+00 0.  1.
          2   -1    0    0  501    0  0.00000000000E+00 -0.00000000000E+00 -0.16124776355E+04  0.16124776355E+04  0.00000000000E+00 0. -1.
    2000013    1    1    2    0    0  0.32527144281E+03  0.31946746854E+03 -0.40085010240E+03  0.11274048871E+04  0.95000000000E+03 0.  0.
   -2000013    1    1    2    0    0 -0.32527144281E+03 -0.31946746854E+03 -0.52113826163E+03  0.11755620199E+04  0.95000000000E+03 0.  0.
<mgrwt>
<rscale>  0 0.21103540E+04</rscale>
<asrwt>0</asrwt>
<pdfrwt beam="2">  1        2 0.24807348E+00 0.21103540E+04</pdfrwt>
<pdfrwt beam="1">  1       -2 0.10622912E+00 0.21103540E+04</pdfrwt>
<totfact> 0.72233468E+00</totfact>
</mgrwt>
</event>
<event>
 4    1  0.1323225E-008  0.2705973E+04  0.7816531E-02  0.8333070E-01
         -2   -1    0    0    0  501 -0.00000000000E+00  0.00000000000E+00  0.11368650420E+04  0.11368650420E+04  0.00000000000E+00 0. -1.
          2   -1    0    0  501    0  0.00000000000E+00 -0.00000000000E+00 -0.16101928080E+04  0.16101928080E+04  0.00000000000E+00 0.  1.
    2000013    1    1    2    0    0  0.92368174218E+03  0.19608566941E+03 -0.43043989198E+03  0.14069172155E+04  0.95000000000E+03 0.  0.
   -2000013    1    1    2    0    0 -0.92368174218E+03 -0.19608566941E+03 -0.42887873932E+02  0.13401406345E+04  0.95000000000E+03 0.  0.
<mgrwt>
<rscale>  0 0.27059726E+04</rscale>
<asrwt>0</asrwt>
<pdfrwt beam="2">  1        2 0.24772197E+00 0.27059726E+04</pdfrwt>
<pdfrwt beam="1">  1       -2 0.17490232E+00 0.27059726E+04</pdfrwt>
<totfact> 0.18995480E+00</totfact>
</mgrwt>
</event>
<event>
 4    1  0.1323225E-008  0.2390242E+04  0.7816531E-02  0.8443166E-01
         -2   -1    0    0    0  501 -0.00000000000E+00  0.00000000000E+00  0.24400088945E+04  0.24400088945E+04  0.00000000000E+00 0. -1.
          2   -1    0    0  501    0  0.00000000000E+00 -0.00000000000E+00 -0.58537265287E+03  0.58537265287E+03  0.00000000000E+00 0.  1.
    2000013    1    1    2    0    0  0.32818192517E+03 -0.18993491715E+03  0.14498757572E+03  0.10331021469E+04  0.95000000000E+03 0.  0.
   -2000013    1    1    2    0    0 -0.32818192517E+03  0.18993491715E+03  0.17096486659E+04  0.19922794005E+04  0.95000000000E+03 0.  0.
<mgrwt>
<rscale>  0 0.23902422E+04</rscale>
<asrwt>0</asrwt>
<pdfrwt beam="2">  1        2 0.90057332E-01 0.23902422E+04</pdfrwt>
<pdfrwt beam="1">  1       -2 0.37538598E+00 0.23902422E+04</pdfrwt>
<totfact> 0.49346934E-01</totfact>
</mgrwt>
</event>
<event>
 4    1  0.1323225E-008  0.2411350E+04  0.7816531E-02  0.8435267E-01
         -2   -1    0    0    0  501 -0.00000000000E+00  0.00000000000E+00  0.59315559168E+03  0.59315559168E+03  0.00000000000E+00 0. -1.
          2   -1    0    0  501    0  0.00000000000E+00 -0.00000000000E+00 -0.24507093116E+04  0.24507093116E+04  0.00000000000E+00 0.  1.
    2000013    1    1    2    0    0 -0.53077888518E+03 -0.27880175545E+03 -0.37610050914E+03  0.11846553240E+04  0.95000000000E+03 0.  0.
   -2000013    1    1    2    0    0  0.53077888518E+03  0.27880175545E+03 -0.14814532108E+04  0.18592095793E+04  0.95000000000E+03 0.  0.
<mgrwt>
<rscale>  0 0.24113498E+04</rscale>
<asrwt>0</asrwt>
<pdfrwt beam="2">  1        2 0.37703220E+00 0.24113498E+04</pdfrwt>
<pdfrwt beam="1">  1       -2 0.91254707E-01 0.24113498E+04</pdfrwt>
<totfact> 0.34176256E+00</totfact>
</mgrwt>
</event>
<event>
 4    1  0.1323225E-008  0.2377641E+04  0.7816531E-02  0.8447922E-01
          2   -1    0    0  501    0  0.00000000000E+00  0.00000000000E+00  0.16803054274E+04  0.16803054274E+04  0.00000000000E+00 0.  1.
         -2   -1    0    0    0  501 -0.00000000000E+00 -0.00000000000E+00 -0.84109329993E+03  0.84109329993E+03  0.00000000000E+00 0. -1.
    2000013    1    1    2    0    0 -0.23598767147E+03  0.67190365407E+03  0.35554731962E+03  0.12393783111E+04  0.95000000000E+03 0.  0.
   -2000013    1    1    2    0    0  0.23598767147E+03 -0.67190365407E+03  0.48366480787E+03  0.12820204163E+04  0.95000000000E+03 0.  0.
<mgrwt>
<rscale>  0 0.23776405E+04</rscale>
<asrwt>0</asrwt>
<pdfrwt beam="1">  1        2 0.25850853E+00 0.23776405E+04</pdfrwt>
<pdfrwt beam="2">  1       -2 0.12939897E+00 0.23776405E+04</pdfrwt>
<totfact> 0.39821532E+00</totfact>
</mgrwt>
</event>
<event>
 4    1  0.1323225E-008  0.2132149E+04  0.7816531E-02  0.8547212E-01
          2   -1    0    0  501    0  0.00000000000E+00  0.00000000000E+00  0.81985348113E+03  0.81985348113E+03  0.00000000000E+00 0.  1.
         -2   -1    0    0    0  501 -0.00000000000E+00 -0.00000000000E+00 -0.13862408914E+04  0.13862408914E+04  0.00000000000E+00 0. -1.
    2000013    1    1    2    0    0 -0.21832538753E+02 -0.45157003050E+03 -0.10511344912E+03  0.10573272858E+04  0.95000000000E+03 0.  0.
   -2000013    1    1    2    0    0  0.21832538753E+02  0.45157003050E+03 -0.46127396111E+03  0.11487670867E+04  0.95000000000E+03 0.  0.
<mgrwt>
<rscale>  0 0.21321486E+04</rscale>
<asrwt>0</asrwt>
<pdfrwt beam="1">  1        2 0.12613131E+00 0.21321486E+04</pdfrwt>
<pdfrwt beam="2">  1       -2 0.21326783E+00 0.21321486E+04</pdfrwt>
<totfact> 0.33411794E+00</totfact>
</mgrwt>
</event>
<event>
 4    1  0.1323225E-008  0.2287020E+04  0.7816531E-02  0.8483057E-01
          2   -1    0    0  501    0  0.00000000000E+00  0.00000000000E+00  0.39213946815E+04  0.39213946815E+04  0.00000000000E+00 0.  1.
         -2   -1    0    0    0  501 -0.00000000000E+00 -0.00000000000E+00 -0.33345661281E+03  0.33345661281E+03  0.00000000000E+00 0. -1.
    2000013    1    1    2    0    0 -0.92394571612E+02 -0.59243662198E+03  0.13967016035E+04  0.17924266448E+04  0.95000000000E+03 0.  0.
   -2000013    1    1    2    0    0  0.92394571612E+02  0.59243662198E+03  0.21912364652E+04  0.24624246495E+04  0.95000000000E+03 0.  0.
<mgrwt>
<rscale>  0 0.22870199E+04</rscale>
<asrwt>0</asrwt>
<pdfrwt beam="1">  1        2 0.60329146E+00 0.22870199E+04</pdfrwt>
<pdfrwt beam="2">  1       -2 0.51301020E-01 0.22870199E+04</pdfrwt>
<totfact> 0.12954683E+00</totfact>
</mgrwt>
</event>
<event>
 4    1  0.1323225E-008  0.3121606E+04  0.7816531E-02  0.8209833E-01
         -2   -1    0    0    0  501 -0.00000000000E+00  0.00000000000E+00  0.15624890939E+04  0.15624890939E+04  0.00000000000E+00 0. -1.
          2   -1    0    0  501    0  0.00000000000E+00 -0.00000000000E+00 -0.15591187881E+04  0.15591187881E+04  0.00000000000E+00 0.  1.
    2000013    1    1    2    0    0 -0.79330646576E+03  0.90618540329E+03  0.28995423832E+03  0.15611151764E+04  0.95000000000E+03 0.  0.
   -2000013    1    1    2    0    0  0.79330646576E+03 -0.90618540329E+03 -0.28658393248E+03  0.15604927056E+04  0.95000000000E+03 0.  0.
<mgrwt>
<rscale>  0 0.31216061E+04</rscale>
<asrwt>0</asrwt>
<pdfrwt beam="2">  1        2 0.23986443E+00 0.31216061E+04</pdfrwt>
<pdfrwt beam="1">  1       -2 0.24038294E+00 0.31216061E+04</pdfrwt>
<totfact> 0.73408489E-01</totfact>
</mgrwt>
</event>
<event>
 4    1  0.1323225E-008  0.2367297E+04  0.7816531E-02  0.8451850E-01
         -2   -1    0    0    0  501 -0.00000000000E+00  0.00000000000E+00  0.53968369806E+03  0.53968369806E+03  0.00000000000E+00 0. -1.
          2   -1    0    0  501    0  0.00000000000E+00 -0.00000000000E+00 -0.25960079990E+04  0.25960079990E+04  0.00000000000E+00 0.  1.
    2000013    1    1    2    0    0 -0.33331206985E+03 -0.62034569433E+03 -0.96065389852E+03  0.15235752785E+04  0.95000000000E+03 0.  0.
   -2000013    1    1    2    0    0  0.33331206985E+03  0.62034569433E+03 -0.10956704024E+04  0.16121164186E+04  0.95000000000E+03 0.  0.
<mgrwt>
<rscale>  0 0.23672965E+04</rscale>
<asrwt>0</asrwt>
<pdfrwt beam="2">  1        2 0.39938583E+00 0.23672965E+04</pdfrwt>
<pdfrwt beam="1">  1       -2 0.83028264E-01 0.23672965E+04</pdfrwt>
<totfact> 0.35061796E+00</totfact>
</mgrwt>
</event>
<event>
 4    1  0.1323225E-008  0.2832260E+04  0.7816531E-02  0.8293322E-01
         -2   -1    0    0    0  501 -0.00000000000E+00  0.00000000000E+00  0.10280021219E+04  0.10280021219E+04  0.00000000000E+00 0. -1.
          2   -1    0    0  501    0  0.00000000000E+00 -0.00000000000E+00 -0.19507970538E+04  0.19507970538E+04  0.00000000000E+00 0.  1.
    2000013    1    1    2    0    0  0.53658771753E+01  0.10463348999E+04 -0.55592535816E+03  0.15186831530E+04  0.95000000000E+03 0.  0.
   -2000013    1    1    2    0    0 -0.53658771753E+01 -0.10463348999E+04 -0.36686957376E+03  0.14601160227E+04  0.95000000000E+03 0.  0.
<mgrwt>
<rscale>  0 0.28322595E+04</rscale>
<asrwt>0</asrwt>
<pdfrwt beam="2">  1        2 0.30012262E+00 0.28322595E+04</pdfrwt>
<pdfrwt beam="1">  1       -2 0.15815417E+00 0.28322595E+04</pdfrwt>
<totfact> 0.16055974E+00</totfact>
</mgrwt>
</event>
<event>
 4    1  0.1323225E-008  0.2554107E+04  0.7816531E-02  0.8383959E-01
         -2   -1    0    0    0  501 -0.00000000000E+00  0.00000000000E+00  0.54741987614E+03  0.54741987614E+03  0.00000000000E+00 0. -1.
          2   -1    0    0  501    0  0.00000000000E+00 -0.00000000000E+00 -0.29791857857E+04  0.29791857857E+04  0.00000000000E+00 0.  1.
    2000013    1    1    2    0    0  0.36451253920E+03 -0.68586774876E+03 -0.17042141449E+04  0.21000309073E+04  0.95000000000E+03 0.  0.
   -2000013    1    1    2    0    0 -0.36451253920E+03  0.68586774876E+03 -0.72755176470E+03  0.14265747546E+04  0.95000000000E+03 0.  0.
<mgrwt>
<rscale>  0 0.25541069E+04</rscale>
<asrwt>0</asrwt>
<pdfrwt beam="2">  1        2 0.45833627E+00 0.25541069E+04</pdfrwt>
<pdfrwt beam="1">  1       -2 0.84218443E-01 0.25541069E+04</pdfrwt>
<totfact> 0.19603429E+00</totfact>
</mgrwt>
</event>
<event>
 4    1  0.1323225E-008  0.3012332E+04  0.7816531E-02  0.8240218E-01
         -2   -1    0    0    0  501 -0.00000000000E+00  0.00000000000E+00  0.79518095945E+03  0.79518095945E+03  0.00000000000E+00 0. -1.
          2   -1    0    0  501    0  0.00000000000E+00 -0.00000000000E+00 -0.28528554986E+04  0.28528554986E+04  0.00000000000E+00 0.  1.
    2000013    1    1    2    0    0  0.42202312162E+03  0.58570726411E+03 -0.21419874965E+04  0.24518904848E+04  0.95000000000E+03 0.  0.
   -2000013    1    1    2    0    0 -0.42202312162E+03 -0.58570726411E+03  0.84312957369E+02  0.11961459732E+04  0.95000000000E+03 0.  0.
<mgrwt>
<rscale>  0 0.30123322E+04</rscale>
<asrwt>0</asrwt>
<pdfrwt beam="2">  1        2 0.43890085E+00 0.30123322E+04</pdfrwt>
<pdfrwt beam="1">  1       -2 0.12233553E+00 0.30123322E+04</pdfrwt>
<totfact> 0.92888848E-01</totfact>
</mgrwt>
</event>
<event>
 4    1  0.1323225E-008  0.2854808E+04  0.7816531E-02  0.8286452E-01
         -2   -1    0    0    0  501 -0.00000000000E+00  0.00000000000E+00  0.13711239544E+04  0.13711239544E+04  0.00000000000E+00 0. -1.
          2   -1    0    0  501    0  0.00000000000E+00 -0.00000000000E+00 -0.14859940689E+04  0.14859940689E+04  0.00000000000E+00 0.  1.
    2000013    1    1    2    0    0 -0.90336288423E+03 -0.43898480026E+03 -0.41298287209E+03  0.14428537722E+04  0.95000000000E+03 0.  0.
   -2000013    1    1    2    0    0  0.90336288423E+03  0.43898480026E+03  0.29811275757E+03  0.14142642510E+04  0.95000000000E+03 0.  0.
<mgrwt>
<rscale>  0 0.28548079E+04</rscale>
<asrwt>0</asrwt>
<pdfrwt beam="2">  1        2 0.22861447E+00 0.28548079E+04</pdfrwt>
<pdfrwt beam="1">  1       -2 0.21094215E+00 0.28548079E+04</pdfrwt>
<totfact> 0.12646645E+00</totfact>
</mgrwt>
</event>
<event>
 4    1  0.1323225E-008  0.3664078E+04  0.7816531E-02  0.8075970E-01
         -2   -1    0    0    0  501 -0.00000000000E+00  0.00000000000E+00  0.13001230559E+04  0.13001230559E+04  0.00000000000E+00 0. -1.
          2   -1    0    0  501    0  0.00000000000E+00 -0.00000000000E+00 -0.25815757723E+04  0.25815757723E+04  0.00000000000E+00 0.  1.
    2000013    1    1    2    0    0  0.50378929765E+03  0.49058088623E+03 -0.21236470999E+04  0.24304012564E+04  0.95000000000E+03 0.  0.
   -2000013    1    1    2    0    0 -0.50378929765E+03 -0.49058088623E+03  0.84219438347E+03  0.14512975718E+04  0.95000000000E+03 0.  0.
<mgrwt>
<rscale>  0 0.36640776E+04</rscale>
<asrwt>0</asrwt>
<pdfrwt beam="2">  1        2 0.39716550E+00 0.36640776E+04</pdfrwt>
<pdfrwt beam="1">  1       -2 0.20001893E+00 0.36640776E+04</pdfrwt>
<totfact> 0.33629343E-01</totfact>
</mgrwt>
</event>
<event>
 4    1  0.1323225E-008  0.2462657E+04  0.7816531E-02  0.8416411E-01
         -2   -1    0    0    0  501 -0.00000000000E+00  0.00000000000E+00  0.71534652089E+03  0.71534652089E+03  0.00000000000E+00 0. -1.
          2   -1    0    0  501    0  0.00000000000E+00 -0.00000000000E+00 -0.21194908507E+04  0.21194908507E+04  0.00000000000E+00 0.  1.
    2000013    1    1    2    0    0 -0.28301247564E+03 -0.68134352376E+03 -0.10052048804E+04  0.15675656000E+04  0.95000000000E+03 0.  0.
   -2000013    1    1    2    0    0  0.28301247564E+03  0.68134352376E+03 -0.39893944938E+03  0.12672717716E+04  0.95000000000E+03 0.  0.
<mgrwt>
<rscale>  0 0.24626574E+04</rscale>
<asrwt>0</asrwt>
<pdfrwt beam="2">  1        2 0.32607551E+00 0.24626574E+04</pdfrwt>
<pdfrwt beam="1">  1       -2 0.11005331E+00 0.24626574E+04</pdfrwt>
<totfact> 0.33638423E+00</totfact>
</mgrwt>
</event>
<event>
 4    1  0.1323225E-008  0.2857124E+04  0.7816531E-02  0.8285750E-01
          2   -1    0    0  501    0  0.00000000000E+00  0.00000000000E+00  0.12108907737E+04  0.12108907737E+04  0.00000000000E+00 0.  1.
         -2   -1    0    0    0  501 -0.00000000000E+00 -0.00000000000E+00 -0.16853620993E+04  0.16853620993E+04  0.00000000000E+00 0. -1.
    2000013    1    1    2    0    0 -0.39492059115E+03 -0.44674371937E+03  0.65961089275E+03  0.13012028105E+04  0.95000000000E+03 0.  0.
   -2000013    1    1    2    0    0  0.39492059115E+03  0.44674371937E+03 -0.11340822183E+04  0.15950500626E+04  0.95000000000E+03 0.  0.
<mgrwt>
<rscale>  0 0.28571240E+04</rscale>
<asrwt>0</asrwt>
<pdfrwt beam="1">  1        2 0.18629089E+00 0.28571240E+04</pdfrwt>
<pdfrwt beam="2">  1       -2 0.25928648E+00 0.28571240E+04</pdfrwt>
<totfact> 0.91074506E-01</totfact>
</mgrwt>
</event>
<event>
 4    1  0.1323225E-008  0.2523899E+04  0.7816531E-02  0.8394521E-01
         -1   -1    0    0    0  501 -0.00000000000E+00  0.00000000000E+00  0.13409651132E+04  0.13409651132E+04  0.00000000000E+00 0.  1.
          1   -1    0    0  501    0  0.00000000000E+00 -0.00000000000E+00 -0.11875897760E+04  0.11875897760E+04  0.00000000000E+00 0. -1.
    2000013    1    1    2    0    0 -0.60618310837E+03 -0.50765850293E+03 -0.17842170866E+03  0.12488031961E+04  0.95000000000E+03 0.  0.
   -2000013    1    1    2    0    0  0.60618310837E+03  0.50765850293E+03  0.33179704584E+03  0.12797516931E+04  0.95000000000E+03 0.  0.
<mgrwt>
<rscale>  0 0.25238989E+04</rscale>
<asrwt>0</asrwt>
<pdfrwt beam="2">  1        1 0.18270612E+00 0.25238989E+04</pdfrwt>
<pdfrwt beam="1">  1       -1 0.20630233E+00 0.25238989E+04</pdfrwt>
<totfact> 0.13179545E+00</totfact>
</mgrwt>
</event>
<event>
 4    1  0.1323225E-008  0.3133666E+04  0.7816531E-02  0.8206559E-01
          2   -1    0    0  501    0  0.00000000000E+00  0.00000000000E+00  0.12076332956E+04  0.12076332956E+04  0.00000000000E+00 0.  1.
         -2   -1    0    0    0  501 -0.00000000000E+00 -0.00000000000E+00 -0.20328729751E+04  0.20328729751E+04  0.00000000000E+00 0. -1.
    2000013    1    1    2    0    0  0.50119045333E+03  0.11397303577E+04 -0.36315669305E+03  0.16076566619E+04  0.95000000000E+03 0.  0.
   -2000013    1    1    2    0    0 -0.50119045333E+03 -0.11397303577E+04 -0.46208298644E+03  0.16328496089E+04  0.95000000000E+03 0.  0.
<mgrwt>
<rscale>  0 0.31336656E+04</rscale>
<asrwt>0</asrwt>
<pdfrwt beam="1">  1        2 0.18578974E+00 0.31336656E+04</pdfrwt>
<pdfrwt beam="2">  1       -2 0.31274969E+00 0.31336656E+04</pdfrwt>
<totfact> 0.42111375E-01</totfact>
</mgrwt>
</event>
<event>
 4    1  0.1323225E-008  0.3827324E+04  0.7816531E-02  0.8040317E-01
         -2   -1    0    0    0  501 -0.00000000000E+00  0.00000000000E+00  0.12210541178E+04  0.12210541178E+04  0.00000000000E+00 0. -1.
          2   -1    0    0  501    0  0.00000000000E+00 -0.00000000000E+00 -0.29991319924E+04  0.29991319924E+04  0.00000000000E+00 0.  1.
    2000013    1    1    2    0    0  0.91123405661E+03 -0.89506575997E+03 -0.20601889282E+04  0.26035300345E+04  0.95000000000E+03 0.  0.
   -2000013    1    1    2    0    0 -0.91123405661E+03  0.89506575997E+03  0.28211105354E+03  0.16166560757E+04  0.95000000000E+03 0.  0.
<mgrwt>
<rscale>  0 0.38273241E+04</rscale>
<asrwt>0</asrwt>
<pdfrwt beam="2">  1        2 0.46140492E+00 0.38273241E+04</pdfrwt>
<pdfrwt beam="1">  1       -2 0.18785448E+00 0.38273241E+04</pdfrwt>
<totfact> 0.22335319E-01</totfact>
</mgrwt>
</event>
<event>
 4    1  0.1323225E-008  0.2215940E+04  0.7816531E-02  0.8511823E-01
         -1   -1    0    0    0  501 -0.00000000000E+00  0.00000000000E+00  0.57313046457E+03  0.57313046457E+03  0.00000000000E+00 0. -1.
          1   -1    0    0  501    0  0.00000000000E+00 -0.00000000000E+00 -0.21419166136E+04  0.21419166136E+04  0.00000000000E+00 0.  1.
    2000013    1    1    2    0    0  0.27843116602E+03  0.46306046546E+03 -0.10074691280E+04  0.14864195077E+04  0.95000000000E+03 0.  0.
   -2000013    1    1    2    0    0 -0.27843116602E+03 -0.46306046546E+03 -0.56131702098E+03  0.12286275705E+04  0.95000000000E+03 0.  0.
<mgrwt>
<rscale>  0 0.22159401E+04</rscale>
<asrwt>0</asrwt>
<pdfrwt beam="2">  1        1 0.32952563E+00 0.22159401E+04</pdfrwt>
<pdfrwt beam="1">  1       -1 0.88173917E-01 0.22159401E+04</pdfrwt>
<totfact> 0.27453407E+00</totfact>
</mgrwt>
</event>
<event>
 4    1  0.1323225E-008  0.2471195E+04  0.7816531E-02  0.8413320E-01
         -2   -1    0    0    0  501 -0.00000000000E+00  0.00000000000E+00  0.53498684708E+03  0.53498684708E+03  0.00000000000E+00 0. -1.
          2   -1    0    0  501    0  0.00000000000E+00 -0.00000000000E+00 -0.28537165586E+04  0.28537165586E+04  0.00000000000E+00 0.  1.
    2000013    1    1    2    0    0 -0.25137046108E+03 -0.72602865793E+03 -0.90689968044E+03  0.15216017058E+04  0.95000000000E+03 0.  0.
   -2000013    1    1    2    0    0  0.25137046108E+03  0.72602865793E+03 -0.14118300311E+04  0.18671016998E+04  0.95000000000E+03 0.  0.
<mgrwt>
<rscale>  0 0.24711947E+04</rscale>
<asrwt>0</asrwt>
<pdfrwt beam="2">  1        2 0.43903332E+00 0.24711947E+04</pdfrwt>
<pdfrwt beam="1">  1       -2 0.82305668E-01 0.24711947E+04</pdfrwt>
<totfact> 0.24859025E+00</totfact>
</mgrwt>
</event>
<event>
 4    1  0.1323225E-008  0.2244409E+04  0.7816531E-02  0.8500168E-01
          2   -1    0    0  501    0  0.00000000000E+00  0.00000000000E+00  0.13366448189E+04  0.13366448189E+04  0.00000000000E+00 0.  1.
         -2   -1    0    0    0  501 -0.00000000000E+00 -0.00000000000E+00 -0.94216695638E+03  0.94216695638E+03  0.00000000000E+00 0. -1.
    2000013    1    1    2    0    0 -0.24904800730E+03 -0.44319482693E+03 -0.12125068162E+03  0.10842731632E+04  0.95000000000E+03 0.  0.
   -2000013    1    1    2    0    0  0.24904800730E+03  0.44319482693E+03  0.51572854413E+03  0.11945386121E+04  0.95000000000E+03 0.  0.
<mgrwt>
<rscale>  0 0.22444087E+04</rscale>
<asrwt>0</asrwt>
<pdfrwt beam="1">  1        2 0.20563766E+00 0.22444087E+04</pdfrwt>
<pdfrwt beam="2">  1       -2 0.14494876E+00 0.22444087E+04</pdfrwt>
<totfact> 0.47021899E+00</totfact>
</mgrwt>
</event>
<event>
 4    1  0.1323225E-008  0.2534796E+04  0.7816531E-02  0.8390693E-01
         -2   -1    0    0    0  501 -0.00000000000E+00  0.00000000000E+00  0.51281647706E+03  0.51281647706E+03  0.00000000000E+00 0. -1.
          2   -1    0    0  501    0  0.00000000000E+00 -0.00000000000E+00 -0.31323044551E+04  0.31323044551E+04  0.00000000000E+00 0.  1.
    2000013    1    1    2    0    0  0.68043368010E+03 -0.21670652880E+03 -0.67660803622E+03  0.13675708930E+04  0.95000000000E+03 0.  0.
   -2000013    1    1    2    0    0 -0.68043368010E+03  0.21670652880E+03 -0.19428799418E+04  0.22775500392E+04  0.95000000000E+03 0.  0.
<mgrwt>
<rscale>  0 0.25347957E+04</rscale>
<asrwt>0</asrwt>
<pdfrwt beam="2">  1        2 0.48189299E+00 0.25347957E+04</pdfrwt>
<pdfrwt beam="1">  1       -2 0.78894843E-01 0.25347957E+04</pdfrwt>
<totfact> 0.18201921E+00</totfact>
</mgrwt>
</event>
<event>
 4    1  0.1323225E-008  0.2744244E+04  0.7816531E-02  0.8320790E-01
         -2   -1    0    0    0  501 -0.00000000000E+00  0.00000000000E+00  0.18079842003E+04  0.18079842003E+04  0.00000000000E+00 0. -1.
          2   -1    0    0  501    0  0.00000000000E+00 -0.00000000000E+00 -0.10413358364E+04  0.10413358364E+04  0.00000000000E+00 0.  1.
    2000013    1    1    2    0    0 -0.66411855917E+03 -0.62633154132E+03  0.78123989769E+03  0.15317246613E+04  0.95000000000E+03 0.  0.
   -2000013    1    1    2    0    0  0.66411855917E+03  0.62633154132E+03 -0.14591533741E+02  0.13175953754E+04  0.95000000000E+03 0.  0.
<mgrwt>
<rscale>  0 0.27442440E+04</rscale>
<asrwt>0</asrwt>
<pdfrwt beam="2">  1        2 0.16020551E+00 0.27442440E+04</pdfrwt>
<pdfrwt beam="1">  1       -2 0.27815141E+00 0.27442440E+04</pdfrwt>
<totfact> 0.89555319E-01</totfact>
</mgrwt>
</event>
<event>
 4    1  0.1323225E-008  0.3622502E+04  0.7816531E-02  0.8085357E-01
         -2   -1    0    0    0  501 -0.00000000000E+00  0.00000000000E+00  0.21274898263E+04  0.21274898263E+04  0.00000000000E+00 0. -1.
          2   -1    0    0  501    0  0.00000000000E+00 -0.00000000000E+00 -0.15420192608E+04  0.15420192608E+04  0.00000000000E+00 0.  1.
    2000013    1    1    2    0    0 -0.12681640594E+04 -0.82553182140E+03 -0.84228213578E+01  0.17867047360E+04  0.95000000000E+03 0.  0.
   -2000013    1    1    2    0    0  0.12681640594E+04  0.82553182140E+03  0.59389338683E+03  0.18828043511E+04  0.95000000000E+03 0.  0.
<mgrwt>
<rscale>  0 0.36225021E+04</rscale>
<asrwt>0</asrwt>
<pdfrwt beam="2">  1        2 0.23723373E+00 0.36225021E+04</pdfrwt>
<pdfrwt beam="1">  1       -2 0.32730613E+00 0.36225021E+04</pdfrwt>
<totfact> 0.21091439E-01</totfact>
</mgrwt>
</event>
<event>
 4    1  0.1323225E-008  0.2861853E+04  0.7816531E-02  0.8284319E-01
          2   -1    0    0  501    0  0.00000000000E+00  0.00000000000E+00  0.14771539459E+04  0.14771539459E+04  0.00000000000E+00 0.  1.
         -2   -1    0    0    0  501 -0.00000000000E+00 -0.00000000000E+00 -0.13861459263E+04  0.13861459263E+04  0.00000000000E+00 0. -1.
    2000013    1    1    2    0    0  0.94954497914E+03 -0.44474161683E+03 -0.16819270409E+03  0.14248577328E+04  0.95000000000E+03 0.  0.
   -2000013    1    1    2    0    0 -0.94954497914E+03  0.44474161683E+03  0.25920072365E+03  0.14384421394E+04  0.95000000000E+03 0.  0.
<mgrwt>
<rscale>  0 0.28618532E+04</rscale>
<asrwt>0</asrwt>
<pdfrwt beam="1">  1        2 0.22725445E+00 0.28618532E+04</pdfrwt>
<pdfrwt beam="2">  1       -2 0.21325322E+00 0.28618532E+04</pdfrwt>
<totfact> 0.12356105E+00</totfact>
</mgrwt>
</event>
<event>
 4    1  0.1323225E-008  0.2149285E+04  0.7816531E-02  0.8539838E-01
         -2   -1    0    0    0  501 -0.00000000000E+00  0.00000000000E+00  0.76109450806E+03  0.76109450806E+03  0.00000000000E+00 0.  1.
          2   -1    0    0  501    0  0.00000000000E+00 -0.00000000000E+00 -0.15173625074E+04  0.15173625074E+04  0.00000000000E+00 0. -1.
    2000013    1    1    2    0    0 -0.36000893401E+03  0.31352421508E+03 -0.21236333960E+03  0.10842057249E+04  0.95000000000E+03 0.  0.
   -2000013    1    1    2    0    0  0.36000893401E+03 -0.31352421508E+03 -0.54390465974E+03  0.11942512905E+04  0.95000000000E+03 0.  0.
<mgrwt>
<rscale>  0 0.21492848E+04</rscale>
<asrwt>0</asrwt>
<pdfrwt beam="2">  1        2 0.23344038E+00 0.21492848E+04</pdfrwt>
<pdfrwt beam="1">  1       -2 0.11709146E+00 0.21492848E+04</pdfrwt>
<totfact> 0.64277159E+00</totfact>
</mgrwt>
</event>
<event>
 4    1  0.1323225E-008  0.2038355E+04  0.7816531E-02  0.8588896E-01
         -2   -1    0    0    0  501 -0.00000000000E+00  0.00000000000E+00  0.63380629797E+03  0.63380629797E+03  0.00000000000E+00 0. -1.
          2   -1    0    0  501    0  0.00000000000E+00 -0.00000000000E+00 -0.16388645852E+04  0.16388645852E+04  0.00000000000E+00 0.  1.
    2000013    1    1    2    0    0 -0.32865104380E+03 -0.27559836871E+02 -0.68726062316E+03  0.12180304665E+04  0.95000000000E+03 0.  0.
   -2000013    1    1    2    0    0  0.32865104380E+03  0.27559836871E+02 -0.31779766409E+03  0.10546404167E+04  0.95000000000E+03 0.  0.
<mgrwt>
<rscale>  0 0.20383549E+04</rscale>
<asrwt>0</asrwt>
<pdfrwt beam="2">  1        2 0.25213301E+00 0.20383549E+04</pdfrwt>
<pdfrwt beam="1">  1       -2 0.97508662E-01 0.20383549E+04</pdfrwt>
<totfact> 0.86137786E+00</totfact>
</mgrwt>
</event>
<event>
 4    1  0.1323225E-008  0.2091970E+04  0.7816531E-02  0.8564789E-01
         -2   -1    0    0    0  501 -0.00000000000E+00  0.00000000000E+00  0.33663262964E+03  0.33663262964E+03  0.00000000000E+00 0. -1.
          2   -1    0    0  501    0  0.00000000000E+00 -0.00000000000E+00 -0.32500859300E+04  0.32500859300E+04  0.00000000000E+00 0.  1.
    2000013    1    1    2    0    0  0.38296814995E+02 -0.41926330950E+03 -0.16620152958E+04  0.19601130611E+04  0.95000000000E+03 0.  0.
   -2000013    1    1    2    0    0 -0.38296814995E+02  0.41926330950E+03 -0.12514380046E+04  0.16266054986E+04  0.95000000000E+03 0.  0.
<mgrwt>
<rscale>  0 0.20919703E+04</rscale>
<asrwt>0</asrwt>
<pdfrwt beam="2">  1        2 0.50001324E+00 0.20919703E+04</pdfrwt>
<pdfrwt beam="1">  1       -2 0.51789633E-01 0.20919703E+04</pdfrwt>
<totfact> 0.39153298E+00</totfact>
</mgrwt>
</event>
<event>
 4    1  0.1323225E-008  0.2845030E+04  0.7816531E-02  0.8289423E-01
         -2   -1    0    0    0  501 -0.00000000000E+00  0.00000000000E+00  0.79271766602E+03  0.79271766602E+03  0.00000000000E+00 0. -1.
          2   -1    0    0  501    0  0.00000000000E+00 -0.00000000000E+00 -0.25526731905E+04  0.25526731905E+04  0.00000000000E+00 0.  1.
    2000013    1    1    2    0    0  0.55775629584E+03  0.88013758733E+03 -0.65900495505E+03  0.15564452412E+04  0.95000000000E+03 0.  0.
   -2000013    1    1    2    0    0 -0.55775629584E+03 -0.88013758733E+03 -0.11009505695E+04  0.17889456153E+04  0.95000000000E+03 0.  0.
<mgrwt>
<rscale>  0 0.28450301E+04</rscale>
<asrwt>0</asrwt>
<pdfrwt beam="2">  1        2 0.39271895E+00 0.28450301E+04</pdfrwt>
<pdfrwt beam="1">  1       -2 0.12195657E+00 0.28450301E+04</pdfrwt>
<totfact> 0.14339443E+00</totfact>
</mgrwt>
</event>
<event>
 4    1  0.1323225E-008  0.2052625E+04  0.7816531E-02  0.8582405E-01
          2   -1    0    0  501    0  0.00000000000E+00  0.00000000000E+00  0.17259671618E+04  0.17259671618E+04  0.00000000000E+00 0.  1.
         -2   -1    0    0    0  501 -0.00000000000E+00 -0.00000000000E+00 -0.61027646122E+03  0.61027646122E+03  0.00000000000E+00 0. -1.
    2000013    1    1    2    0    0  0.37236931564E+03  0.10124991830E+03  0.60754430976E+03  0.11918559231E+04  0.95000000000E+03 0.  0.
   -2000013    1    1    2    0    0 -0.37236931564E+03 -0.10124991830E+03  0.50814639085E+03  0.11443876999E+04  0.95000000000E+03 0.  0.
<mgrwt>
<rscale>  0 0.20526248E+04</rscale>
<asrwt>0</asrwt>
<pdfrwt beam="1">  1        2 0.26553341E+00 0.20526248E+04</pdfrwt>
<pdfrwt beam="2">  1       -2 0.93888687E-01 0.20526248E+04</pdfrwt>
<totfact> 0.84068749E+00</totfact>
</mgrwt>
</event>
<event>
 4    1  0.1323225E-008  0.2430984E+04  0.7816531E-02  0.8427994E-01
          2   -1    0    0  501    0  0.00000000000E+00  0.00000000000E+00  0.11821664184E+04  0.11821664184E+04  0.00000000000E+00 0.  1.
         -2   -1    0    0    0  501 -0.00000000000E+00 -0.00000000000E+00 -0.12497569640E+04  0.12497569640E+04  0.00000000000E+00 0. -1.
    2000013    1    1    2    0    0  0.74821186735E+02  0.72116496731E+03  0.18819946073E+03  0.12097917825E+04  0.95000000000E+03 0.  0.
   -2000013    1    1    2    0    0 -0.74821186735E+02 -0.72116496731E+03 -0.25579000640E+03  0.12221315999E+04  0.95000000000E+03 0.  0.
<mgrwt>
<rscale>  0 0.24309839E+04</rscale>
<asrwt>0</asrwt>
<pdfrwt beam="1">  1        2 0.18187176E+00 0.24309839E+04</pdfrwt>
<pdfrwt beam="2">  1       -2 0.19227030E+00 0.24309839E+04</pdfrwt>
<totfact> 0.26060106E+00</totfact>
</mgrwt>
</event>
<event>
 4    1  0.1323225E-008  0.2339540E+04  0.7816531E-02  0.8462492E-01
          3   -1    0    0  501    0  0.00000000000E+00  0.00000000000E+00  0.75789832372E+03  0.75789832372E+03  0.00000000000E+00 0.  1.
         -3   -1    0    0    0  501 -0.00000000000E+00 -0.00000000000E+00 -0.18054686796E+04  0.18054686796E+04  0.00000000000E+00 0. -1.
    2000013    1    1    2    0    0 -0.48504256171E+02  0.59640839308E+03 -0.88353609636E+03  0.14287027920E+04  0.95000000000E+03 0.  0.
   -2000013    1    1    2    0    0  0.48504256171E+02 -0.59640839308E+03 -0.16403425951E+03  0.11346642113E+04  0.95000000000E+03 0.  0.
<mgrwt>
<rscale>  0 0.23395399E+04</rscale>
<asrwt>0</asrwt>
<pdfrwt beam="1">  1        3 0.11659974E+00 0.23395399E+04</pdfrwt>
<pdfrwt beam="2">  1       -3 0.27776441E+00 0.23395399E+04</pdfrwt>
<totfact> 0.72566769E-02</totfact>
</mgrwt>
</event>
<event>
 4    1  0.1323225E-008  0.2165898E+04  0.7816531E-02  0.8532757E-01
          2   -1    0    0  501    0  0.00000000000E+00  0.00000000000E+00  0.22270268294E+04  0.22270268294E+04  0.00000000000E+00 0.  1.
         -2   -1    0    0    0  501 -0.00000000000E+00 -0.00000000000E+00 -0.52661197449E+03  0.52661197449E+03  0.00000000000E+00 0. -1.
    2000013    1    1    2    0    0 -0.46597558209E+03 -0.13196354356E+03  0.10905295538E+04  0.15252220585E+04  0.95000000000E+03 0.  0.
   -2000013    1    1    2    0    0  0.46597558209E+03  0.13196354356E+03  0.60988530113E+03  0.12284167454E+04  0.95000000000E+03 0.  0.
<mgrwt>
<rscale>  0 0.21658984E+04</rscale>
<asrwt>0</asrwt>
<pdfrwt beam="1">  1        2 0.34261951E+00 0.21658984E+04</pdfrwt>
<pdfrwt beam="2">  1       -2 0.81017228E-01 0.21658984E+04</pdfrwt>
<totfact> 0.61392158E+00</totfact>
</mgrwt>
</event>
<event>
 4    1  0.1323225E-008  0.2655325E+04  0.7816531E-02  0.8349648E-01
          2   -1    0    0  501    0  0.00000000000E+00  0.00000000000E+00  0.90047090980E+03  0.90047090980E+03  0.00000000000E+00 0.  1.
         -2   -1    0    0    0  501 -0.00000000000E+00 -0.00000000000E+00 -0.19575169333E+04  0.19575169333E+04  0.00000000000E+00 0. -1.
    2000013    1    1    2    0    0  0.67166103812E+02  0.92360139001E+03 -0.58378611967E+03  0.14494333536E+04  0.95000000000E+03 0.  0.
   -2000013    1    1    2    0    0 -0.67166103812E+02 -0.92360139001E+03 -0.47325990379E+03  0.14085544894E+04  0.95000000000E+03 0.  0.
<mgrwt>
<rscale>  0 0.26553245E+04</rscale>
<asrwt>0</asrwt>
<pdfrwt beam="1">  1        2 0.13853399E+00 0.26553245E+04</pdfrwt>
<pdfrwt beam="2">  1       -2 0.30115645E+00 0.26553245E+04</pdfrwt>
<totfact> 0.80678705E-01</totfact>
</mgrwt>
</event>
<event>
 4    1  0.1323225E-008  0.2269329E+04  0.7816531E-02  0.8490113E-01
          1   -1    0    0  501    0  0.00000000000E+00  0.00000000000E+00  0.23976042733E+04  0.23976042733E+04  0.00000000000E+00 0. -1.
         -1   -1    0    0    0  501 -0.00000000000E+00 -0.00000000000E+00 -0.53697931885E+03  0.53697931885E+03  0.00000000000E+00 0.  1.
    2000013    1    1    2    0    0  0.76755110187E+02 -0.60668985150E+03  0.79468582644E+03  0.13812999260E+04  0.95000000000E+03 0.  0.
   -2000013    1    1    2    0    0 -0.76755110187E+02  0.60668985150E+03  0.10659391280E+04  0.15532836661E+04  0.95000000000E+03 0.  0.
<mgrwt>
<rscale>  0 0.22693293E+04</rscale>
<asrwt>0</asrwt>
<pdfrwt beam="1">  1        1 0.36886219E+00 0.22693293E+04</pdfrwt>
<pdfrwt beam="2">  1       -1 0.82612205E-01 0.22693293E+04</pdfrwt>
<totfact> 0.21041976E+00</totfact>
</mgrwt>
</event>
<event>
 4    1  0.1323225E-008  0.2589495E+04  0.7816531E-02  0.8371778E-01
          2   -1    0    0  501    0  0.00000000000E+00  0.00000000000E+00  0.91526850381E+03  0.91526850381E+03  0.00000000000E+00 0.  1.
         -2   -1    0    0    0  501 -0.00000000000E+00 -0.00000000000E+00 -0.18315623731E+04  0.18315623731E+04  0.00000000000E+00 0. -1.
    2000013    1    1    2    0    0  0.84270278852E+03 -0.18043504176E+02 -0.72523463352E+03  0.14625111389E+04  0.95000000000E+03 0.  0.
   -2000013    1    1    2    0    0 -0.84270278852E+03  0.18043504176E+02 -0.19105923578E+03  0.12843197380E+04  0.95000000000E+03 0.  0.
<mgrwt>
<rscale>  0 0.25894952E+04</rscale>
<asrwt>0</asrwt>
<pdfrwt beam="1">  1        2 0.14081054E+00 0.25894952E+04</pdfrwt>
<pdfrwt beam="2">  1       -2 0.28177882E+00 0.25894952E+04</pdfrwt>
<totfact> 0.10412410E+00</totfact>
</mgrwt>
</event>
<event>
 4    1  0.1323225E-008  0.2819736E+04  0.7816531E-02  0.8297167E-01
          2   -1    0    0  501    0  0.00000000000E+00  0.00000000000E+00  0.14376969500E+04  0.14376969500E+04  0.00000000000E+00 0.  1.
         -2   -1    0    0    0  501 -0.00000000000E+00 -0.00000000000E+00 -0.13825780403E+04  0.13825780403E+04  0.00000000000E+00 0. -1.
    2000013    1    1    2    0    0 -0.46649557406E+03  0.86443053895E+03  0.37456946710E+03  0.14169193918E+04  0.95000000000E+03 0.  0.
   -2000013    1    1    2    0    0  0.46649557406E+03 -0.86443053895E+03 -0.31945055736E+03  0.14033555985E+04  0.95000000000E+03 0.  0.
<mgrwt>
<rscale>  0 0.28197363E+04</rscale>
<asrwt>0</asrwt>
<pdfrwt beam="1">  1        2 0.22118415E+00 0.28197363E+04</pdfrwt>
<pdfrwt beam="2">  1       -2 0.21270431E+00 0.28197363E+04</pdfrwt>
<totfact> 0.13161956E+00</totfact>
</mgrwt>
</event>
<event>
 4    1  0.1323225E-008  0.2379613E+04  0.7816531E-02  0.8447176E-01
         -2   -1    0    0    0  501 -0.00000000000E+00  0.00000000000E+00  0.75234474042E+03  0.75234474042E+03  0.00000000000E+00 0.  1.
          2   -1    0    0  501    0  0.00000000000E+00 -0.00000000000E+00 -0.18816366214E+04  0.18816366214E+04  0.00000000000E+00 0. -1.
    2000013    1    1    2    0    0 -0.65442402320E+03  0.29026986264E+03 -0.53726242237E+03  0.13052502847E+04  0.95000000000E+03 0.  0.
   -2000013    1    1    2    0    0  0.65442402320E+03 -0.29026986264E+03 -0.59202945859E+03  0.13287310771E+04  0.95000000000E+03 0.  0.
<mgrwt>
<rscale>  0 0.23796129E+04</rscale>
<asrwt>0</asrwt>
<pdfrwt beam="2">  1        2 0.28948256E+00 0.23796129E+04</pdfrwt>
<pdfrwt beam="1">  1       -2 0.11574535E+00 0.23796129E+04</pdfrwt>
<totfact> 0.40642304E+00</totfact>
</mgrwt>
</event>
<event>
 4    1  0.1323225E-008  0.2243808E+04  0.7816531E-02  0.8500412E-01
         -2   -1    0    0    0  501 -0.00000000000E+00  0.00000000000E+00  0.86085813784E+03  0.86085813784E+03  0.00000000000E+00 0. -1.
          2   -1    0    0  501    0  0.00000000000E+00 -0.00000000000E+00 -0.14621094893E+04  0.14621094893E+04  0.00000000000E+00 0.  1.
    2000013    1    1    2    0    0 -0.49302411700E+03 -0.16728024266E+03 -0.60266004867E+03  0.12396590635E+04  0.95000000000E+03 0.  0.
   -2000013    1    1    2    0    0  0.49302411700E+03  0.16728024266E+03  0.14086972322E+01  0.10833085636E+04  0.95000000000E+03 0.  0.
<mgrwt>
<rscale>  0 0.22438082E+04</rscale>
<asrwt>0</asrwt>
<pdfrwt beam="2">  1        2 0.22493992E+00 0.22438082E+04</pdfrwt>
<pdfrwt beam="1">  1       -2 0.13243971E+00 0.22438082E+04</pdfrwt>
<totfact> 0.50330261E+00</totfact>
</mgrwt>
</event>
<event>
 4    1  0.1323225E-008  0.1968116E+04  0.7816531E-02  0.8621674E-01
          2   -1    0    0  501    0  0.00000000000E+00  0.00000000000E+00  0.10147226225E+04  0.10147226225E+04  0.00000000000E+00 0.  1.
         -2   -1    0    0    0  501 -0.00000000000E+00 -0.00000000000E+00 -0.95432053500E+03  0.95432053500E+03  0.00000000000E+00 0. -1.
    2000013    1    1    2    0    0  0.13348459112E+03  0.16847185760E+03 -0.11011381615E+03  0.98021730008E+03  0.95000000000E+03 0.  0.
   -2000013    1    1    2    0    0 -0.13348459112E+03 -0.16847185760E+03  0.17051590364E+03  0.98882585740E+03  0.95000000000E+03 0.  0.
<mgrwt>
<rscale>  0 0.19681165E+04</rscale>
<asrwt>0</asrwt>
<pdfrwt beam="1">  1        2 0.15611117E+00 0.19681165E+04</pdfrwt>
<pdfrwt beam="2">  1       -2 0.14681854E+00 0.19681165E+04</pdfrwt>
<totfact> 0.72792112E+00</totfact>
</mgrwt>
</event>
<event>
 4    1  0.1323225E-008  0.2987085E+04  0.7816531E-02  0.8247428E-01
         -1   -1    0    0    0  501 -0.00000000000E+00  0.00000000000E+00  0.11483585130E+04  0.11483585130E+04  0.00000000000E+00 0. -1.
          1   -1    0    0  501    0  0.00000000000E+00 -0.00000000000E+00 -0.19424849059E+04  0.19424849059E+04  0.00000000000E+00 0.  1.
    2000013    1    1    2    0    0  0.98815176288E+03  0.75589559328E+02 -0.10057230160E+04  0.17018038879E+04  0.95000000000E+03 0.  0.
   -2000013    1    1    2    0    0 -0.98815176288E+03 -0.75589559328E+02  0.21159662299E+03  0.13890395310E+04  0.95000000000E+03 0.  0.
<mgrwt>
<rscale>  0 0.29870849E+04</rscale>
<asrwt>0</asrwt>
<pdfrwt beam="2">  1        1 0.29884383E+00 0.29870849E+04</pdfrwt>
<pdfrwt beam="1">  1       -1 0.17667054E+00 0.29870849E+04</pdfrwt>
<totfact> 0.61097938E-01</totfact>
</mgrwt>
</event>
<event>
 4    1  0.1323225E-008  0.2300920E+04  0.7816531E-02  0.8477558E-01
          2   -1    0    0  501    0  0.00000000000E+00  0.00000000000E+00  0.11550522310E+04  0.11550522310E+04  0.00000000000E+00 0.  1.
         -2   -1    0    0    0  501 -0.00000000000E+00 -0.00000000000E+00 -0.11458864979E+04  0.11458864979E+04  0.00000000000E+00 0. -1.
    2000013    1    1    2    0    0 -0.53862024860E+03  0.33399960831E+03  0.14383642331E+03  0.11510240776E+04  0.95000000000E+03 0.  0.
   -2000013    1    1    2    0    0  0.53862024860E+03 -0.33399960831E+03 -0.13467069017E+03  0.11499146513E+04  0.95000000000E+03 0.  0.
<mgrwt>
<rscale>  0 0.23009205E+04</rscale>
<asrwt>0</asrwt>
<pdfrwt beam="1">  1        2 0.17770034E+00 0.23009205E+04</pdfrwt>
<pdfrwt beam="2">  1       -2 0.17629023E+00 0.23009205E+04</pdfrwt>
<totfact> 0.35166326E+00</totfact>
</mgrwt>
</event>
<event>
 4    1  0.1323225E-008  0.2187384E+04  0.7816531E-02  0.8523698E-01
          2   -1    0    0  501    0  0.00000000000E+00  0.00000000000E+00  0.25234365251E+04  0.25234365251E+04  0.00000000000E+00 0.  1.
         -2   -1    0    0    0  501 -0.00000000000E+00 -0.00000000000E+00 -0.47402097305E+03  0.47402097305E+03  0.00000000000E+00 0. -1.
    2000013    1    1    2    0    0 -0.49723419101E+03 -0.63659551682E+01  0.13198225573E+04  0.17005040279E+04  0.95000000000E+03 0.  0.
   -2000013    1    1    2    0    0  0.49723419101E+03  0.63659551682E+01  0.72959299479E+03  0.12969534703E+04  0.95000000000E+03 0.  0.
<mgrwt>
<rscale>  0 0.21873837E+04</rscale>
<asrwt>0</asrwt>
<pdfrwt beam="1">  1        2 0.38822100E+00 0.21873837E+04</pdfrwt>
<pdfrwt beam="2">  1       -2 0.72926305E-01 0.21873837E+04</pdfrwt>
<totfact> 0.52454589E+00</totfact>
</mgrwt>
</event>
<event>
 4    1  0.1323225E-008  0.2137016E+04  0.7816531E-02  0.8545111E-01
          2   -1    0    0  501    0  0.00000000000E+00  0.00000000000E+00  0.13242989258E+04  0.13242989258E+04  0.00000000000E+00 0.  1.
         -2   -1    0    0    0  501 -0.00000000000E+00 -0.00000000000E+00 -0.86212333703E+03  0.86212333703E+03  0.00000000000E+00 0. -1.
    2000013    1    1    2    0    0 -0.47971894863E+03 -0.50178566311E+02  0.31395952682E+03  0.11107289240E+04  0.95000000000E+03 0.  0.
   -2000013    1    1    2    0    0  0.47971894863E+03  0.50178566311E+02  0.14821606200E+03  0.10756933388E+04  0.95000000000E+03 0.  0.
<mgrwt>
<rscale>  0 0.21370157E+04</rscale>
<asrwt>0</asrwt>
<pdfrwt beam="1">  1        2 0.20373830E+00 0.21370157E+04</pdfrwt>
<pdfrwt beam="2">  1       -2 0.13263436E+00 0.21370157E+04</pdfrwt>
<totfact> 0.60686915E+00</totfact>
</mgrwt>
</event>
<event>
 4    1  0.1323225E-008  0.2549945E+04  0.7816531E-02  0.8385405E-01
          2   -1    0    0  501    0  0.00000000000E+00  0.00000000000E+00  0.19844244690E+04  0.19844244690E+04  0.00000000000E+00 0.  1.
         -2   -1    0    0    0  501 -0.00000000000E+00 -0.00000000000E+00 -0.81915653454E+03  0.81915653454E+03  0.00000000000E+00 0. -1.
    2000013    1    1    2    0    0  0.73439716139E+03 -0.30562674437E+03  0.25223096718E+03  0.12644632689E+04  0.95000000000E+03 0.  0.
   -2000013    1    1    2    0    0 -0.73439716139E+03  0.30562674437E+03  0.91303696727E+03  0.15391177347E+04  0.95000000000E+03 0.  0.
<mgrwt>
<rscale>  0 0.25499445E+04</rscale>
<asrwt>0</asrwt>
<pdfrwt beam="1">  1        2 0.30529607E+00 0.25499445E+04</pdfrwt>
<pdfrwt beam="2">  1       -2 0.12602408E+00 0.25499445E+04</pdfrwt>
<totfact> 0.28439114E+00</totfact>
</mgrwt>
</event>
<event>
 4    1  0.1323225E-008  0.2397282E+04  0.7816531E-02  0.8440522E-01
         -1   -1    0    0    0  501 -0.00000000000E+00  0.00000000000E+00  0.57905189840E+03  0.57905189840E+03  0.00000000000E+00 0. -1.
          1   -1    0    0  501    0  0.00000000000E+00 -0.00000000000E+00 -0.24811952850E+04  0.24811952850E+04  0.00000000000E+00 0.  1.
    2000013    1    1    2    0    0 -0.44022034538E+03 -0.55410531054E+03 -0.71772439485E+03  0.13850830136E+04  0.95000000000E+03 0.  0.
   -2000013    1    1    2    0    0  0.44022034538E+03  0.55410531054E+03 -0.11844189917E+04  0.16751641697E+04  0.95000000000E+03 0.  0.
<mgrwt>
<rscale>  0 0.23972825E+04</rscale>
<asrwt>0</asrwt>
<pdfrwt beam="2">  1        1 0.38172235E+00 0.23972825E+04</pdfrwt>
<pdfrwt beam="1">  1       -1 0.89084908E-01 0.23972825E+04</pdfrwt>
<totfact> 0.15456607E+00</totfact>
</mgrwt>
</event>
<event>
 4    1  0.1323225E-008  0.1928808E+04  0.7816531E-02  0.8640648E-01
         -1   -1    0    0    0  501 -0.00000000000E+00  0.00000000000E+00  0.42694755608E+03  0.42694755608E+03  0.00000000000E+00 0. -1.
          1   -1    0    0  501    0  0.00000000000E+00 -0.00000000000E+00 -0.21784296715E+04  0.21784296715E+04  0.00000000000E+00 0.  1.
    2000013    1    1    2    0    0  0.57682183835E+02  0.15009411702E+03 -0.93175726983E+03  0.13403458838E+04  0.95000000000E+03 0.  0.
   -2000013    1    1    2    0    0 -0.57682183835E+02 -0.15009411702E+03 -0.81972484558E+03  0.12650313438E+04  0.95000000000E+03 0.  0.
<mgrwt>
<rscale>  0 0.19288082E+04</rscale>
<asrwt>0</asrwt>
<pdfrwt beam="2">  1        1 0.33514302E+00 0.19288082E+04</pdfrwt>
<pdfrwt beam="1">  1       -1 0.65684241E-01 0.19288082E+04</pdfrwt>
<totfact> 0.49422551E+00</totfact>
</mgrwt>
</event>
<event>
 4    1  0.1323225E-008  0.2360784E+04  0.7816531E-02  0.8454333E-01
          2   -1    0    0  501    0  0.00000000000E+00  0.00000000000E+00  0.14274446999E+04  0.14274446999E+04  0.00000000000E+00 0.  1.
         -2   -1    0    0    0  501 -0.00000000000E+00 -0.00000000000E+00 -0.97609732666E+03  0.97609732666E+03  0.00000000000E+00 0. -1.
    2000013    1    1    2    0    0  0.31101227738E+03  0.62599298266E+03  0.17760516830E+03  0.11927445019E+04  0.95000000000E+03 0.  0.
   -2000013    1    1    2    0    0 -0.31101227738E+03 -0.62599298266E+03  0.27374220499E+03  0.12107975247E+04  0.95000000000E+03 0.  0.
<mgrwt>
<rscale>  0 0.23607837E+04</rscale>
<asrwt>0</asrwt>
<pdfrwt beam="1">  1        2 0.21960688E+00 0.23607837E+04</pdfrwt>
<pdfrwt beam="2">  1       -2 0.15016882E+00 0.23607837E+04</pdfrwt>
<totfact> 0.37618465E+00</totfact>
</mgrwt>
</event>
<event>
 4    1  0.1323225E-008  0.4041812E+04  0.7816531E-02  0.7996164E-01
          1   -1    0    0  501    0  0.00000000000E+00  0.00000000000E+00  0.32403323114E+04  0.32403323114E+04  0.00000000000E+00 0.  1.
         -1   -1    0    0    0  501 -0.00000000000E+00 -0.00000000000E+00 -0.12603834717E+04  0.12603834717E+04  0.00000000000E+00 0. -1.
    2000013    1    1    2    0    0  0.38912235340E+03  0.11322672168E+04 -0.48230619960E+03  0.16026741797E+04  0.95000000000E+03 0.  0.
   -2000013    1    1    2    0    0 -0.38912235340E+03 -0.11322672168E+04  0.24622550393E+04  0.28980416033E+04  0.95000000000E+03 0.  0.
<mgrwt>
<rscale>  0 0.40418121E+04</rscale>
<asrwt>0</asrwt>
<pdfrwt beam="1">  1        1 0.49851266E+00 0.40418121E+04</pdfrwt>
<pdfrwt beam="2">  1       -1 0.19390515E+00 0.40418121E+04</pdfrwt>
<totfact> 0.51244754E-02</totfact>
</mgrwt>
</event>
<event>
 4    1  0.1323225E-008  0.1999411E+04  0.7816531E-02  0.8606896E-01
          2   -1    0    0  501    0  0.00000000000E+00  0.00000000000E+00  0.93880804759E+03  0.93880804759E+03  0.00000000000E+00 0.  1.
         -2   -1    0    0    0  501 -0.00000000000E+00 -0.00000000000E+00 -0.10645529061E+04  0.10645529061E+04  0.00000000000E+00 0. -1.
    2000013    1    1    2    0    0 -0.73701178554E+02 -0.29459845457E+03 -0.13149658906E+03  0.10059878061E+04  0.95000000000E+03 0.  0.
   -2000013    1    1    2    0    0  0.73701178554E+02  0.29459845457E+03  0.57517304986E+01  0.99737314760E+03  0.95000000000E+03 0.  0.
<mgrwt>
<rscale>  0 0.19994107E+04</rscale>
<asrwt>0</asrwt>
<pdfrwt beam="1">  1        2 0.14443201E+00 0.19994107E+04</pdfrwt>
<pdfrwt beam="2">  1       -2 0.16377737E+00 0.19994107E+04</pdfrwt>
<totfact> 0.60618152E+00</totfact>
</mgrwt>
</event>
<event>
 4    1  0.1323225E-008  0.3424173E+04  0.7816531E-02  0.8131999E-01
         -2   -1    0    0    0  501 -0.00000000000E+00  0.00000000000E+00  0.11273722080E+04  0.11273722080E+04  0.00000000000E+00 0. -1.
          2   -1    0    0  501    0  0.00000000000E+00 -0.00000000000E+00 -0.26000642334E+04  0.26000642334E+04  0.00000000000E+00 0.  1.
    2000013    1    1    2    0    0 -0.12726391848E+04 -0.62293771070E+03 -0.89438783529E+03  0.19261597769E+04  0.95000000000E+03 0.  0.
   -2000013    1    1    2    0    0  0.12726391848E+04  0.62293771070E+03 -0.57830419011E+03  0.18012766646E+04  0.95000000000E+03 0.  0.
<mgrwt>
<rscale>  0 0.34241730E+04</rscale>
<asrwt>0</asrwt>
<pdfrwt beam="2">  1        2 0.40000988E+00 0.34241730E+04</pdfrwt>
<pdfrwt beam="1">  1       -2 0.17344188E+00 0.34241730E+04</pdfrwt>
<totfact> 0.50686870E-01</totfact>
</mgrwt>
</event>
<event>
 4    1  0.1323225E-008  0.2272582E+04  0.7816531E-02  0.8488811E-01
          2   -1    0    0  501    0  0.00000000000E+00  0.00000000000E+00  0.22846139027E+04  0.22846139027E+04  0.00000000000E+00 0.  1.
         -2   -1    0    0    0  501 -0.00000000000E+00 -0.00000000000E+00 -0.56515318133E+03  0.56515318133E+03  0.00000000000E+00 0. -1.
    2000013    1    1    2    0    0  0.31584823389E+03 -0.54341334068E+02  0.15302788086E+04  0.18294715957E+04  0.95000000000E+03 0.  0.
   -2000013    1    1    2    0    0 -0.31584823389E+03  0.54341334068E+02  0.18918191279E+03  0.10202954884E+04  0.95000000000E+03 0.  0.
<mgrwt>
<rscale>  0 0.22725816E+04</rscale>
<asrwt>0</asrwt>
<pdfrwt beam="1">  1        2 0.35147906E+00 0.22725816E+04</pdfrwt>
<pdfrwt beam="2">  1       -2 0.86946645E-01 0.22725816E+04</pdfrwt>
<totfact> 0.48083115E+00</totfact>
</mgrwt>
</event>
<event>
 4    1  0.1323225E-008  0.2432534E+04  0.7816531E-02  0.8427423E-01
          1   -1    0    0  501    0  0.00000000000E+00  0.00000000000E+00  0.33937236217E+04  0.33937236217E+04  0.00000000000E+00 0.  1.
         -1   -1    0    0    0  501 -0.00000000000E+00 -0.00000000000E+00 -0.43589464332E+03  0.43589464332E+03  0.00000000000E+00 0. -1.
    2000013    1    1    2    0    0 -0.41429617954E+03  0.74117000871E+02  0.24742006525E+04  0.26835244592E+04  0.95000000000E+03 0.  0.
   -2000013    1    1    2    0    0  0.41429617954E+03 -0.74117000871E+02  0.48362832588E+03  0.11460938058E+04  0.95000000000E+03 0.  0.
<mgrwt>
<rscale>  0 0.24325344E+04</rscale>
<asrwt>0</asrwt>
<pdfrwt beam="1">  1        1 0.52211131E+00 0.24325344E+04</pdfrwt>
<pdfrwt beam="2">  1       -1 0.67060717E-01 0.24325344E+04</pdfrwt>
<totfact> 0.60962234E-01</totfact>
</mgrwt>
</event>
<event>
 4    1  0.1323225E-008  0.3595938E+04  0.7816531E-02  0.8091423E-01
         -2   -1    0    0    0  501 -0.00000000000E+00  0.00000000000E+00  0.15879239066E+04  0.15879239066E+04  0.00000000000E+00 0. -1.
          2   -1    0    0  501    0  0.00000000000E+00 -0.00000000000E+00 -0.20357985791E+04  0.20357985791E+04  0.00000000000E+00 0.  1.
    2000013    1    1    2    0    0 -0.88467697798E+03 -0.12393097556E+04 -0.33271210077E+03  0.18253052807E+04  0.95000000000E+03 0.  0.
   -2000013    1    1    2    0    0  0.88467697798E+03  0.12393097556E+04 -0.11516257171E+03  0.17984172051E+04  0.95000000000E+03 0.  0.
<mgrwt>
<rscale>  0 0.35959384E+04</rscale>
<asrwt>0</asrwt>
<pdfrwt beam="2">  1        2 0.31319978E+00 0.35959384E+04</pdfrwt>
<pdfrwt beam="1">  1       -2 0.24429598E+00 0.35959384E+04</pdfrwt>
<totfact> 0.36255444E-01</totfact>
</mgrwt>
</event>
<event>
 4    1  0.1323225E-008  0.2383959E+04  0.7816531E-02  0.8445534E-01
         -2   -1    0    0    0  501 -0.00000000000E+00  0.00000000000E+00  0.15021254095E+04  0.15021254095E+04  0.00000000000E+00 0. -1.
          2   -1    0    0  501    0  0.00000000000E+00 -0.00000000000E+00 -0.94586946189E+03  0.94586946189E+03  0.00000000000E+00 0.  1.
    2000013    1    1    2    0    0  0.57419142557E+03  0.31712761555E+03 -0.26572841790E+02  0.11547605092E+04  0.95000000000E+03 0.  0.
   -2000013    1    1    2    0    0 -0.57419142557E+03 -0.31712761555E+03  0.58282878940E+03  0.12932343622E+04  0.95000000000E+03 0.  0.
<mgrwt>
<rscale>  0 0.23839585E+04</rscale>
<asrwt>0</asrwt>
<pdfrwt beam="2">  1        2 0.14551838E+00 0.23839585E+04</pdfrwt>
<pdfrwt beam="1">  1       -2 0.23109622E+00 0.23839585E+04</pdfrwt>
<totfact> 0.20698682E+00</totfact>
</mgrwt>
</event>
<event>
 4    1  0.1323225E-008  0.3207276E+04  0.7816531E-02  0.8186898E-01
         -2   -1    0    0    0  501 -0.00000000000E+00  0.00000000000E+00  0.10299494409E+04  0.10299494409E+04  0.00000000000E+00 0. -1.
          2   -1    0    0  501    0  0.00000000000E+00 -0.00000000000E+00 -0.24968748082E+04  0.24968748082E+04  0.00000000000E+00 0.  1.
    2000013    1    1    2    0    0 -0.70368615834E+03  0.79652723454E+03 -0.15411685914E+04  0.20993643019E+04  0.95000000000E+03 0.  0.
   -2000013    1    1    2    0    0  0.70368615834E+03 -0.79652723454E+03  0.74243224072E+02  0.14274599473E+04  0.95000000000E+03 0.  0.
<mgrwt>
<rscale>  0 0.32072760E+04</rscale>
<asrwt>0</asrwt>
<pdfrwt beam="2">  1        2 0.38413459E+00 0.32072760E+04</pdfrwt>
<pdfrwt beam="1">  1       -2 0.15845376E+00 0.32072760E+04</pdfrwt>
<totfact> 0.76071764E-01</totfact>
</mgrwt>
</event>
<event>
 4    1  0.1323225E-008  0.2671868E+04  0.7816531E-02  0.8344191E-01
          2   -1    0    0  501    0  0.00000000000E+00  0.00000000000E+00  0.26530728014E+04  0.26530728014E+04  0.00000000000E+00 0.  1.
         -2   -1    0    0    0  501 -0.00000000000E+00 -0.00000000000E+00 -0.67269883682E+03  0.67269883682E+03  0.00000000000E+00 0. -1.
    2000013    1    1    2    0    0 -0.19816329115E+03 -0.74586662897E+03  0.16565959096E+04  0.20597076797E+04  0.95000000000E+03 0.  0.
   -2000013    1    1    2    0    0  0.19816329115E+03  0.74586662897E+03  0.32377805501E+03  0.12660639585E+04  0.95000000000E+03 0.  0.
<mgrwt>
<rscale>  0 0.26718675E+04</rscale>
<asrwt>0</asrwt>
<pdfrwt beam="1">  1        2 0.40816504E+00 0.26718675E+04</pdfrwt>
<pdfrwt beam="2">  1       -2 0.10349213E+00 0.26718675E+04</pdfrwt>
<totfact> 0.18943653E+00</totfact>
</mgrwt>
</event>
<event>
 4    1  0.1323225E-008  0.2153745E+04  0.7816531E-02  0.8537931E-01
          1   -1    0    0  501    0  0.00000000000E+00  0.00000000000E+00  0.24880255600E+04  0.24880255600E+04  0.00000000000E+00 0. -1.
         -1   -1    0    0    0  501 -0.00000000000E+00 -0.00000000000E+00 -0.46609424485E+03  0.46609424485E+03  0.00000000000E+00 0.  1.
    2000013    1    1    2    0    0 -0.38584573815E+03  0.25972501620E+03  0.73384281544E+03  0.12873846727E+04  0.95000000000E+03 0.  0.
   -2000013    1    1    2    0    0  0.38584573815E+03 -0.25972501620E+03  0.12880884997E+04  0.16667351321E+04  0.95000000000E+03 0.  0.
<mgrwt>
<rscale>  0 0.21537450E+04</rscale>
<asrwt>0</asrwt>
<pdfrwt beam="1">  1        1 0.38277315E+00 0.21537450E+04</pdfrwt>
<pdfrwt beam="2">  1       -1 0.71706808E-01 0.21537450E+04</pdfrwt>
<totfact> 0.24818841E+00</totfact>
</mgrwt>
</event>
<event>
 4    1  0.1323225E-008  0.2767169E+04  0.7816531E-02  0.8313534E-01
         -2   -1    0    0    0  501 -0.00000000000E+00  0.00000000000E+00  0.24082498510E+04  0.24082498510E+04  0.00000000000E+00 0. -1.
          2   -1    0    0  501    0  0.00000000000E+00 -0.00000000000E+00 -0.79489530932E+03  0.79489530932E+03  0.00000000000E+00 0.  1.
    2000013    1    1    2    0    0 -0.37170365284E+03 -0.39206711004E+03 -0.17548874308E+03  0.11068769233E+04  0.95000000000E+03 0.  0.
   -2000013    1    1    2    0    0  0.37170365284E+03  0.39206711004E+03  0.17888432848E+04  0.20962682371E+04  0.95000000000E+03 0.  0.
<mgrwt>
<rscale>  0 0.27671693E+04</rscale>
<asrwt>0</asrwt>
<pdfrwt beam="2">  1        2 0.12229159E+00 0.27671693E+04</pdfrwt>
<pdfrwt beam="1">  1       -2 0.37049997E+00 0.27671693E+04</pdfrwt>
<totfact> 0.34929342E-01</totfact>
</mgrwt>
</event>
<event>
 4    1  0.1323225E-008  0.2589254E+04  0.7816531E-02  0.8371860E-01
          1   -1    0    0  501    0  0.00000000000E+00  0.00000000000E+00  0.16146050538E+04  0.16146050538E+04  0.00000000000E+00 0.  1.
         -1   -1    0    0    0  501 -0.00000000000E+00 -0.00000000000E+00 -0.10380615465E+04  0.10380615465E+04  0.00000000000E+00 0. -1.
    2000013    1    1    2    0    0 -0.59648116817E+03 -0.59633065807E+03  0.32847984312E+02  0.12708182513E+04  0.95000000000E+03 0.  0.
   -2000013    1    1    2    0    0  0.59648116817E+03  0.59633065807E+03  0.54369552299E+03  0.13818483489E+04  0.95000000000E+03 0.  0.
<mgrwt>
<rscale>  0 0.25892543E+04</rscale>
<asrwt>0</asrwt>
<pdfrwt beam="1">  1        1 0.24840078E+00 0.25892543E+04</pdfrwt>
<pdfrwt beam="2">  1       -1 0.15970178E+00 0.25892543E+04</pdfrwt>
<totfact> 0.14121436E+00</totfact>
</mgrwt>
</event>
<event>
 4    1  0.1323225E-008  0.2012985E+04  0.7816531E-02  0.8600574E-01
         -2   -1    0    0    0  501 -0.00000000000E+00  0.00000000000E+00  0.32396558302E+03  0.32396558302E+03  0.00000000000E+00 0. -1.
          2   -1    0    0  501    0  0.00000000000E+00 -0.00000000000E+00 -0.31269582277E+04  0.31269582277E+04  0.00000000000E+00 0.  1.
    2000013    1    1    2    0    0  0.33210189308E+03  0.13029369519E+02 -0.14153615951E+04  0.17367238919E+04  0.95000000000E+03 0.  0.
   -2000013    1    1    2    0    0 -0.33210189308E+03 -0.13029369519E+02 -0.13876310496E+04  0.17141999188E+04  0.95000000000E+03 0.  0.
<mgrwt>
<rscale>  0 0.20129847E+04</rscale>
<asrwt>0</asrwt>
<pdfrwt beam="2">  1        2 0.48107048E+00 0.20129847E+04</pdfrwt>
<pdfrwt beam="1">  1       -2 0.49840860E-01 0.20129847E+04</pdfrwt>
<totfact> 0.51273425E+00</totfact>
</mgrwt>
</event>
<event>
 4    1  0.1323225E-008  0.3226633E+04  0.7816531E-02  0.8181819E-01
          2   -1    0    0  501    0  0.00000000000E+00  0.00000000000E+00  0.27497203058E+04  0.27497203058E+04  0.00000000000E+00 0.  1.
         -2   -1    0    0    0  501 -0.00000000000E+00 -0.00000000000E+00 -0.94656519839E+03  0.94656519839E+03  0.00000000000E+00 0. -1.
    2000013    1    1    2    0    0 -0.80701023474E+03 -0.86333114887E+03  0.27029108430E+03  0.15401829313E+04  0.95000000000E+03 0.  0.
   -2000013    1    1    2    0    0  0.80701023474E+03  0.86333114887E+03  0.15328640231E+04  0.21561025729E+04  0.95000000000E+03 0.  0.
<mgrwt>
<rscale>  0 0.32266326E+04</rscale>
<asrwt>0</asrwt>
<pdfrwt beam="1">  1        2 0.42303389E+00 0.32266326E+04</pdfrwt>
<pdfrwt beam="2">  1       -2 0.14562542E+00 0.32266326E+04</pdfrwt>
<totfact> 0.67472651E-01</totfact>
</mgrwt>
</event>
<event>
 4    1  0.1323225E-008  0.3749044E+04  0.7816531E-02  0.8057179E-01
         -2   -1    0    0    0  501 -0.00000000000E+00  0.00000000000E+00  0.20162328414E+04  0.20162328414E+04  0.00000000000E+00 0. -1.
          2   -1    0    0  501    0  0.00000000000E+00 -0.00000000000E+00 -0.17427716975E+04  0.17427716975E+04  0.00000000000E+00 0.  1.
    2000013    1    1    2    0    0 -0.65059198285E+03  0.13685370176E+04 -0.42616096990E+03  0.18385528736E+04  0.95000000000E+03 0.  0.
   -2000013    1    1    2    0    0  0.65059198285E+03 -0.13685370176E+04  0.69962211381E+03  0.19204516653E+04  0.95000000000E+03 0.  0.
<mgrwt>
<rscale>  0 0.37490444E+04</rscale>
<asrwt>0</asrwt>
<pdfrwt beam="2">  1        2 0.26811872E+00 0.37490444E+04</pdfrwt>
<pdfrwt beam="1">  1       -2 0.31018967E+00 0.37490444E+04</pdfrwt>
<totfact> 0.20570865E-01</totfact>
</mgrwt>
</event>
<event>
 4    1  0.1323225E-008  0.2624543E+04  0.7816531E-02  0.8359912E-01
          2   -1    0    0  501    0  0.00000000000E+00  0.00000000000E+00  0.11980466225E+04  0.11980466225E+04  0.00000000000E+00 0.  1.
         -2   -1    0    0    0  501 -0.00000000000E+00 -0.00000000000E+00 -0.14373873978E+04  0.14373873978E+04  0.00000000000E+00 0. -1.
    2000013    1    1    2    0    0  0.78212118035E+03 -0.35318551707E+03 -0.40914348539E+03  0.13440059307E+04  0.95000000000E+03 0.  0.
   -2000013    1    1    2    0    0 -0.78212118035E+03  0.35318551707E+03  0.16980271003E+03  0.12914280896E+04  0.95000000000E+03 0.  0.
<mgrwt>
<rscale>  0 0.26245435E+04</rscale>
<asrwt>0</asrwt>
<pdfrwt beam="1">  1        2 0.18431487E+00 0.26245435E+04</pdfrwt>
<pdfrwt beam="2">  1       -2 0.22113652E+00 0.26245435E+04</pdfrwt>
<totfact> 0.16297295E+00</totfact>
</mgrwt>
</event>
<event>
 4    1  0.1323225E-008  0.2160291E+04  0.7816531E-02  0.8535140E-01
          2   -1    0    0  501    0  0.00000000000E+00  0.00000000000E+00  0.33569075557E+03  0.33569075557E+03  0.00000000000E+00 0.  1.
         -2   -1    0    0    0  501 -0.00000000000E+00 -0.00000000000E+00 -0.34755634580E+04  0.34755634580E+04  0.00000000000E+00 0. -1.
    2000013    1    1    2    0    0 -0.16609072883E+02 -0.50551386350E+03 -0.14082957936E+04  0.17724607668E+04  0.95000000000E+03 0.  0.
   -2000013    1    1    2    0    0  0.16609072883E+02  0.50551386350E+03 -0.17315769088E+04  0.20387934468E+04  0.95000000000E+03 0.  0.
<mgrwt>
<rscale>  0 0.21602912E+04</rscale>
<asrwt>0</asrwt>
<pdfrwt beam="1">  1        2 0.51644732E-01 0.21602912E+04</pdfrwt>
<pdfrwt beam="2">  1       -2 0.53470207E+00 0.21602912E+04</pdfrwt>
<totfact> 0.90618880E-02</totfact>
</mgrwt>
</event>
<event>
 4    1  0.1323225E-008  0.2041251E+04  0.7816531E-02  0.8587574E-01
          1   -1    0    0  501    0  0.00000000000E+00  0.00000000000E+00  0.57763134727E+03  0.57763134727E+03  0.00000000000E+00 0.  1.
         -1   -1    0    0    0  501 -0.00000000000E+00 -0.00000000000E+00 -0.18033591510E+04  0.18033591510E+04  0.00000000000E+00 0. -1.
    2000013    1    1    2    0    0 -0.23399133298E+03  0.28700849422E+03 -0.66568888720E+03  0.12176894162E+04  0.95000000000E+03 0.  0.
   -2000013    1    1    2    0    0  0.23399133298E+03 -0.28700849422E+03 -0.56003891655E+03  0.11633010821E+04  0.95000000000E+03 0.  0.
<mgrwt>
<rscale>  0 0.20412514E+04</rscale>
<asrwt>0</asrwt>
<pdfrwt beam="1">  1        1 0.88866362E-01 0.20412514E+04</pdfrwt>
<pdfrwt beam="2">  1       -1 0.27743987E+00 0.20412514E+04</pdfrwt>
<totfact> 0.15466041E+00</totfact>
</mgrwt>
</event>
<event>
 4    1  0.1323225E-008  0.2636670E+04  0.7816531E-02  0.8355851E-01
          2   -1    0    0  501    0  0.00000000000E+00  0.00000000000E+00  0.23579917299E+04  0.23579917299E+04  0.00000000000E+00 0.  1.
         -2   -1    0    0    0  501 -0.00000000000E+00 -0.00000000000E+00 -0.73707104982E+03  0.73707104982E+03  0.00000000000E+00 0. -1.
    2000013    1    1    2    0    0 -0.17882359899E+03 -0.77298967807E+03  0.27765978019E+03  0.12684974874E+04  0.95000000000E+03 0.  0.
   -2000013    1    1    2    0    0  0.17882359899E+03  0.77298967807E+03  0.13432608999E+04  0.18265652923E+04  0.95000000000E+03 0.  0.
<mgrwt>
<rscale>  0 0.26366702E+04</rscale>
<asrwt>0</asrwt>
<pdfrwt beam="1">  1        2 0.36276796E+00 0.26366702E+04</pdfrwt>
<pdfrwt beam="2">  1       -2 0.11339555E+00 0.26366702E+04</pdfrwt>
<totfact> 0.22607362E+00</totfact>
</mgrwt>
</event>
<event>
 4    1  0.1323225E-008  0.2744352E+04  0.7816531E-02  0.8320756E-01
         -2   -1    0    0    0  501 -0.00000000000E+00  0.00000000000E+00  0.14510206751E+04  0.14510206751E+04  0.00000000000E+00 0. -1.
          2   -1    0    0  501    0  0.00000000000E+00 -0.00000000000E+00 -0.12976153169E+04  0.12976153169E+04  0.00000000000E+00 0.  1.
    2000013    1    1    2    0    0  0.27988299376E+03  0.94240934480E+03 -0.41365997245E+02  0.13677284120E+04  0.95000000000E+03 0.  0.
   -2000013    1    1    2    0    0 -0.27988299376E+03 -0.94240934480E+03  0.19477135548E+03  0.13809075799E+04  0.95000000000E+03 0.  0.
<mgrwt>
<rscale>  0 0.27443518E+04</rscale>
<asrwt>0</asrwt>
<pdfrwt beam="2">  1        2 0.19963313E+00 0.27443518E+04</pdfrwt>
<pdfrwt beam="1">  1       -2 0.22323395E+00 0.27443518E+04</pdfrwt>
<totfact> 0.13669265E+00</totfact>
</mgrwt>
</event>
<event>
 4    1  0.1323225E-008  0.2898832E+04  0.7816531E-02  0.8273225E-01
         -2   -1    0    0    0  501 -0.00000000000E+00  0.00000000000E+00  0.79540963254E+03  0.79540963254E+03  0.00000000000E+00 0.  1.
          2   -1    0    0  501    0  0.00000000000E+00 -0.00000000000E+00 -0.26411640753E+04  0.26411640753E+04  0.00000000000E+00 0. -1.
    2000013    1    1    2    0    0 -0.34972684021E+03  0.97716449614E+03 -0.13355071592E+04  0.19399068760E+04  0.95000000000E+03 0.  0.
   -2000013    1    1    2    0    0  0.34972684021E+03 -0.97716449614E+03 -0.51024728364E+03  0.14966668319E+04  0.95000000000E+03 0.  0.
<mgrwt>
<rscale>  0 0.28988324E+04</rscale>
<asrwt>0</asrwt>
<pdfrwt beam="2">  1        2 0.40633294E+00 0.28988324E+04</pdfrwt>
<pdfrwt beam="1">  1       -2 0.12237071E+00 0.28988324E+04</pdfrwt>
<totfact> 0.12558234E+00</totfact>
</mgrwt>
</event>
<event>
 4    1  0.1323225E-008  0.3034449E+04  0.7816531E-02  0.8233962E-01
         -2   -1    0    0    0  501 -0.00000000000E+00  0.00000000000E+00  0.56760313872E+03  0.56760313872E+03  0.00000000000E+00 0. -1.
          2   -1    0    0  501    0  0.00000000000E+00 -0.00000000000E+00 -0.40555974525E+04  0.40555974525E+04  0.00000000000E+00 0.  1.
    2000013    1    1    2    0    0 -0.77851415257E+03 -0.71493746015E+03 -0.93456604972E+03  0.17009213853E+04  0.95000000000E+03 0.  0.
   -2000013    1    1    2    0    0  0.77851415257E+03  0.71493746015E+03 -0.25534282640E+04  0.29222792059E+04  0.95000000000E+03 0.  0.
<mgrwt>
<rscale>  0 0.30344488E+04</rscale>
<asrwt>0</asrwt>
<pdfrwt beam="2">  1        2 0.62393807E+00 0.30344488E+04</pdfrwt>
<pdfrwt beam="1">  1       -2 0.87323560E-01 0.30344488E+04</pdfrwt>
<totfact> 0.29771067E-01</totfact>
</mgrwt>
</event>
<event>
 4    1  0.1323225E-008  0.2116979E+04  0.7816531E-02  0.8553801E-01
          1   -1    0    0  501    0  0.00000000000E+00  0.00000000000E+00  0.15151726883E+04  0.15151726883E+04  0.00000000000E+00 0.  1.
         -1   -1    0    0    0  501 -0.00000000000E+00 -0.00000000000E+00 -0.73945359593E+03  0.73945359593E+03  0.00000000000E+00 0. -1.
    2000013    1    1    2    0    0  0.35556835524E+03 -0.18922481219E+03  0.13658460570E+03  0.10408603361E+04  0.95000000000E+03 0.  0.
   -2000013    1    1    2    0    0 -0.35556835524E+03  0.18922481219E+03  0.63913448671E+03  0.12137659482E+04  0.95000000000E+03 0.  0.
<mgrwt>
<rscale>  0 0.21169789E+04</rscale>
<asrwt>0</asrwt>
<pdfrwt beam="1">  1        1 0.23310349E+00 0.21169789E+04</pdfrwt>
<pdfrwt beam="2">  1       -1 0.11376209E+00 0.21169789E+04</pdfrwt>
<totfact> 0.41305532E+00</totfact>
</mgrwt>
</event>
<event>
 4    1  0.1323225E-008  0.2074965E+04  0.7816531E-02  0.8572352E-01
          2   -1    0    0  501    0  0.00000000000E+00  0.00000000000E+00  0.74284363891E+03  0.74284363891E+03  0.00000000000E+00 0.  1.
         -2   -1    0    0    0  501 -0.00000000000E+00 -0.00000000000E+00 -0.14489860349E+04  0.14489860349E+04  0.00000000000E+00 0. -1.
    2000013    1    1    2    0    0  0.34564494782E+03 -0.75172814911E+02 -0.58629744215E+03  0.11710534030E+04  0.95000000000E+03 0.  0.
   -2000013    1    1    2    0    0 -0.34564494782E+03  0.75172814911E+02 -0.11984495385E+03  0.10207762708E+04  0.95000000000E+03 0.  0.
<mgrwt>
<rscale>  0 0.20749651E+04</rscale>
<asrwt>0</asrwt>
<pdfrwt beam="1">  1        2 0.11428364E+00 0.20749651E+04</pdfrwt>
<pdfrwt beam="2">  1       -2 0.22292093E+00 0.20749651E+04</pdfrwt>
<totfact> 0.33195041E+00</totfact>
</mgrwt>
</event>
<event>
 4    1  0.1323225E-008  0.2877677E+04  0.7816531E-02  0.8279550E-01
         -1   -1    0    0    0  501 -0.00000000000E+00  0.00000000000E+00  0.18545022875E+04  0.18545022875E+04  0.00000000000E+00 0. -1.
          1   -1    0    0  501    0  0.00000000000E+00 -0.00000000000E+00 -0.11163406766E+04  0.11163406766E+04  0.00000000000E+00 0.  1.
    2000013    1    1    2    0    0 -0.73687971347E+03 -0.79015185389E+03  0.39035560847E+03  0.14907076056E+04  0.95000000000E+03 0.  0.
   -2000013    1    1    2    0    0  0.73687971347E+03  0.79015185389E+03  0.34780600244E+03  0.14801353586E+04  0.95000000000E+03 0.  0.
<mgrwt>
<rscale>  0 0.28776771E+04</rscale>
<asrwt>0</asrwt>
<pdfrwt beam="2">  1        1 0.17174472E+00 0.28776771E+04</pdfrwt>
<pdfrwt beam="1">  1       -1 0.28530804E+00 0.28776771E+04</pdfrwt>
<totfact> 0.43581961E-01</totfact>
</mgrwt>
</event>
<event>
 4    1  0.1323225E-008  0.2362850E+04  0.7816531E-02  0.8453544E-01
         -2   -1    0    0    0  501 -0.00000000000E+00  0.00000000000E+00  0.79821735819E+03  0.79821735819E+03  0.00000000000E+00 0. -1.
          2   -1    0    0  501    0  0.00000000000E+00 -0.00000000000E+00 -0.17486026640E+04  0.17486026640E+04  0.00000000000E+00 0.  1.
    2000013    1    1    2    0    0  0.40566980018E+03  0.57303571315E+03 -0.45569907710E+03  0.12661356816E+04  0.95000000000E+03 0.  0.
   -2000013    1    1    2    0    0 -0.40566980018E+03 -0.57303571315E+03 -0.49468622866E+03  0.12806843406E+04  0.95000000000E+03 0.  0.
<mgrwt>
<rscale>  0 0.23628500E+04</rscale>
<asrwt>0</asrwt>
<pdfrwt beam="2">  1        2 0.26901579E+00 0.23628500E+04</pdfrwt>
<pdfrwt beam="1">  1       -2 0.12280267E+00 0.23628500E+04</pdfrwt>
<totfact> 0.41669450E+00</totfact>
</mgrwt>
</event>
<event>
 4    1  0.1323225E-008  0.2432471E+04  0.7816531E-02  0.8427446E-01
          2   -1    0    0  501    0  0.00000000000E+00  0.00000000000E+00  0.15020899181E+04  0.15020899181E+04  0.00000000000E+00 0.  1.
         -2   -1    0    0    0  501 -0.00000000000E+00 -0.00000000000E+00 -0.98478082838E+03  0.98478082838E+03  0.00000000000E+00 0. -1.
    2000013    1    1    2    0    0 -0.59791785341E+03  0.24210301079E+03 -0.15106943368E+03  0.11582061997E+04  0.95000000000E+03 0.  0.
   -2000013    1    1    2    0    0  0.59791785341E+03 -0.24210301079E+03  0.66837852341E+03  0.13286645468E+04  0.95000000000E+03 0.  0.
<mgrwt>
<rscale>  0 0.24324715E+04</rscale>
<asrwt>0</asrwt>
<pdfrwt beam="1">  1        2 0.23109076E+00 0.24324715E+04</pdfrwt>
<pdfrwt beam="2">  1       -2 0.15150474E+00 0.24324715E+04</pdfrwt>
<totfact> 0.33131802E+00</totfact>
</mgrwt>
</event>
<event>
 4    1  0.1323225E-008  0.3408490E+04  0.7816531E-02  0.8135826E-01
         -2   -1    0    0    0  501 -0.00000000000E+00  0.00000000000E+00  0.11684050626E+04  0.11684050626E+04  0.00000000000E+00 0. -1.
          2   -1    0    0  501    0  0.00000000000E+00 -0.00000000000E+00 -0.24858253000E+04  0.24858253000E+04  0.00000000000E+00 0.  1.
    2000013    1    1    2    0    0  0.39360292376E+03  0.13328084227E+04 -0.94367272740E+03  0.19298496754E+04  0.95000000000E+03 0.  0.
   -2000013    1    1    2    0    0 -0.39360292376E+03 -0.13328084227E+04 -0.37374751000E+03  0.17243806872E+04  0.95000000000E+03 0.  0.
<mgrwt>
<rscale>  0 0.34084899E+04</rscale>
<asrwt>0</asrwt>
<pdfrwt beam="2">  1        2 0.38243466E+00 0.34084899E+04</pdfrwt>
<pdfrwt beam="1">  1       -2 0.17975463E+00 0.34084899E+04</pdfrwt>
<totfact> 0.53456352E-01</totfact>
</mgrwt>
</event>
<event>
 4    1  0.1323225E-008  0.3489681E+04  0.7816531E-02  0.8116240E-01
         -1   -1    0    0    0  501 -0.00000000000E+00  0.00000000000E+00  0.20396870688E+04  0.20396870688E+04  0.00000000000E+00 0.  1.
          1   -1    0    0  501    0  0.00000000000E+00 -0.00000000000E+00 -0.14926154778E+04  0.14926154778E+04  0.00000000000E+00 0. -1.
    2000013    1    1    2    0    0  0.91619153865E+03  0.10716163533E+04 -0.12394327552E+03  0.17045910007E+04  0.95000000000E+03 0.  0.
   -2000013    1    1    2    0    0 -0.91619153865E+03 -0.10716163533E+04  0.67101486653E+03  0.18277115460E+04  0.95000000000E+03 0.  0.
<mgrwt>
<rscale>  0 0.34896811E+04</rscale>
<asrwt>0</asrwt>
<pdfrwt beam="2">  1        1 0.22963315E+00 0.34896811E+04</pdfrwt>
<pdfrwt beam="1">  1       -1 0.31379801E+00 0.34896811E+04</pdfrwt>
<totfact> 0.14516561E-01</totfact>
</mgrwt>
</event>
<event>
 4    1  0.1323225E-008  0.2855679E+04  0.7816531E-02  0.8286188E-01
          2   -1    0    0  501    0  0.00000000000E+00  0.00000000000E+00  0.24125462971E+04  0.24125462971E+04  0.00000000000E+00 0.  1.
         -2   -1    0    0    0  501 -0.00000000000E+00 -0.00000000000E+00 -0.84505136109E+03  0.84505136109E+03  0.00000000000E+00 0. -1.
    2000013    1    1    2    0    0 -0.66705663254E+03 -0.80389134196E+03  0.10257886828E+04  0.17452645251E+04  0.95000000000E+03 0.  0.
   -2000013    1    1    2    0    0  0.66705663254E+03  0.80389134196E+03  0.54170625311E+03  0.15123331331E+04  0.95000000000E+03 0.  0.
<mgrwt>
<rscale>  0 0.28556789E+04</rscale>
<asrwt>0</asrwt>
<pdfrwt beam="1">  1        2 0.37116097E+00 0.28556789E+04</pdfrwt>
<pdfrwt beam="2">  1       -2 0.13000790E+00 0.28556789E+04</pdfrwt>
<totfact> 0.14704810E+00</totfact>
</mgrwt>
</event>
<event>
 4    1  0.1323225E-008  0.2606057E+04  0.7816531E-02  0.8366147E-01
         -2   -1    0    0    0  501 -0.00000000000E+00  0.00000000000E+00  0.50115694739E+03  0.50115694739E+03  0.00000000000E+00 0.  1.
          2   -1    0    0  501    0  0.00000000000E+00 -0.00000000000E+00 -0.33879260940E+04  0.33879260940E+04  0.00000000000E+00 0. -1.
    2000013    1    1    2    0    0 -0.76112534458E+03  0.39328605465E+03 -0.10736101117E+04  0.16700671791E+04  0.95000000000E+03 0.  0.
   -2000013    1    1    2    0    0  0.76112534458E+03 -0.39328605465E+03 -0.18131590350E+04  0.22190158623E+04  0.95000000000E+03 0.  0.
<mgrwt>
<rscale>  0 0.26060566E+04</rscale>
<asrwt>0</asrwt>
<pdfrwt beam="2">  1        2 0.52121941E+00 0.26060566E+04</pdfrwt>
<pdfrwt beam="1">  1       -2 0.77101067E-01 0.26060566E+04</pdfrwt>
<totfact> 0.12905009E+00</totfact>
</mgrwt>
</event>
<event>
 4    1  0.1323225E-008  0.2170936E+04  0.7816531E-02  0.8530624E-01
         -2   -1    0    0    0  501 -0.00000000000E+00  0.00000000000E+00  0.33558107074E+03  0.33558107074E+03  0.00000000000E+00 0.  1.
          2   -1    0    0  501    0  0.00000000000E+00 -0.00000000000E+00 -0.35110457340E+04  0.35110457340E+04  0.00000000000E+00 0. -1.
    2000013    1    1    2    0    0  0.24356802757E+03  0.39492319256E+03 -0.11520860390E+04  0.15636789802E+04  0.95000000000E+03 0.  0.
   -2000013    1    1    2    0    0 -0.24356802757E+03 -0.39492319256E+03 -0.20233786243E+04  0.22829478245E+04  0.95000000000E+03 0.  0.
<mgrwt>
<rscale>  0 0.21709357E+04</rscale>
<asrwt>0</asrwt>
<pdfrwt beam="2">  1        2 0.54016087E+00 0.21709357E+04</pdfrwt>
<pdfrwt beam="1">  1       -2 0.51627858E-01 0.21709357E+04</pdfrwt>
<totfact> 0.26030056E+00</totfact>
</mgrwt>
</event>
<event>
 4    1  0.1323225E-008  0.2922650E+04  0.7816531E-02  0.8266170E-01
         -2   -1    0    0    0  501 -0.00000000000E+00  0.00000000000E+00  0.14984105569E+04  0.14984105569E+04  0.00000000000E+00 0. -1.
          2   -1    0    0  501    0  0.00000000000E+00 -0.00000000000E+00 -0.14251570989E+04  0.14251570989E+04  0.00000000000E+00 0.  1.
    2000013    1    1    2    0    0 -0.27138626339E+03  0.63760092930E+03 -0.83127758483E+03  0.14400374551E+04  0.95000000000E+03 0.  0.
   -2000013    1    1    2    0    0  0.27138626339E+03 -0.63760092930E+03  0.90453104287E+03  0.14835302007E+04  0.95000000000E+03 0.  0.
<mgrwt>
<rscale>  0 0.29226498E+04</rscale>
<asrwt>0</asrwt>
<pdfrwt beam="2">  1        2 0.21925494E+00 0.29226498E+04</pdfrwt>
<pdfrwt beam="1">  1       -2 0.23052470E+00 0.29226498E+04</pdfrwt>
<totfact> 0.10233636E+00</totfact>
</mgrwt>
</event>
<event>
 4    1  0.1323225E-008  0.2960103E+04  0.7816531E-02  0.8255216E-01
          2   -1    0    0  501    0  0.00000000000E+00  0.00000000000E+00  0.16921131457E+04  0.16921131457E+04  0.00000000000E+00 0.  1.
         -2   -1    0    0    0  501 -0.00000000000E+00 -0.00000000000E+00 -0.12945660689E+04  0.12945660689E+04  0.00000000000E+00 0. -1.
    2000013    1    1    2    0    0 -0.11134363169E+04  0.21967458933E+03  0.20624992946E+03  0.14943347652E+04  0.95000000000E+03 0.  0.
   -2000013    1    1    2    0    0  0.11134363169E+04 -0.21967458933E+03  0.19129714741E+03  0.14923444494E+04  0.95000000000E+03 0.  0.
<mgrwt>
<rscale>  0 0.29601029E+04</rscale>
<asrwt>0</asrwt>
<pdfrwt beam="1">  1        2 0.26032510E+00 0.29601029E+04</pdfrwt>
<pdfrwt beam="2">  1       -2 0.19916401E+00 0.29601029E+04</pdfrwt>
<totfact> 0.11461174E+00</totfact>
</mgrwt>
</event>
<event>
 4    1  0.1323225E-008  0.2304746E+04  0.7816531E-02  0.8476052E-01
          2   -1    0    0  501    0  0.00000000000E+00  0.00000000000E+00  0.30782749550E+04  0.30782749550E+04  0.00000000000E+00 0.  1.
         -2   -1    0    0    0  501 -0.00000000000E+00 -0.00000000000E+00 -0.43139849332E+03  0.43139849332E+03  0.00000000000E+00 0. -1.
    2000013    1    1    2    0    0  0.62743311364E+03  0.70219036425E+02  0.10738650383E+04  0.15666171025E+04  0.95000000000E+03 0.  0.
   -2000013    1    1    2    0    0 -0.62743311364E+03 -0.70219036425E+02  0.15730114233E+04  0.19430563458E+04  0.95000000000E+03 0.  0.
<mgrwt>
<rscale>  0 0.23047457E+04</rscale>
<asrwt>0</asrwt>
<pdfrwt beam="1">  1        2 0.47358075E+00 0.23047457E+04</pdfrwt>
<pdfrwt beam="2">  1       -2 0.66369001E-01 0.23047457E+04</pdfrwt>
<totfact> 0.29417829E+00</totfact>
</mgrwt>
</event>
<event>
 4    1  0.1323225E-008  0.2754325E+04  0.7816531E-02  0.8317591E-01
          2   -1    0    0  501    0  0.00000000000E+00  0.00000000000E+00  0.25678884224E+04  0.25678884224E+04  0.00000000000E+00 0.  1.
         -2   -1    0    0    0  501 -0.00000000000E+00 -0.00000000000E+00 -0.73857436373E+03  0.73857436373E+03  0.00000000000E+00 0. -1.
    2000013    1    1    2    0    0  0.39390000531E+03  0.79709123385E+03  0.37303052103E+03  0.13535743123E+04  0.95000000000E+03 0.  0.
   -2000013    1    1    2    0    0 -0.39390000531E+03 -0.79709123385E+03  0.14562835376E+04  0.19528884738E+04  0.95000000000E+03 0.  0.
<mgrwt>
<rscale>  0 0.27543250E+04</rscale>
<asrwt>0</asrwt>
<pdfrwt beam="1">  1        2 0.39505975E+00 0.27543250E+04</pdfrwt>
<pdfrwt beam="2">  1       -2 0.11362683E+00 0.27543250E+04</pdfrwt>
<totfact> 0.16849853E+00</totfact>
</mgrwt>
</event>
<event>
 4    1  0.1323225E-008  0.1992700E+04  0.7816531E-02  0.8610041E-01
         -3   -1    0    0    0  501 -0.00000000000E+00  0.00000000000E+00  0.13091214149E+04  0.13091214149E+04  0.00000000000E+00 0.  1.
          3   -1    0    0  501    0  0.00000000000E+00 -0.00000000000E+00 -0.75830538119E+03  0.75830538119E+03  0.00000000000E+00 0. -1.
    2000013    1    1    2    0    0 -0.16846988628E+03  0.24510906330E+03  0.23196589455E+03  0.10221392917E+04  0.95000000000E+03 0.  0.
   -2000013    1    1    2    0    0  0.16846988628E+03 -0.24510906330E+03  0.31885013915E+03  0.10452875043E+04  0.95000000000E+03 0.  0.
<mgrwt>
<rscale>  0 0.19927005E+04</rscale>
<asrwt>0</asrwt>
<pdfrwt beam="2">  1        3 0.11666237E+00 0.19927005E+04</pdfrwt>
<pdfrwt beam="1">  1       -3 0.20140329E+00 0.19927005E+04</pdfrwt>
<totfact> 0.21137930E-01</totfact>
</mgrwt>
</event>
<event>
 4    1  0.1323225E-008  0.2619664E+04  0.7816531E-02  0.8361552E-01
         -2   -1    0    0    0  501 -0.00000000000E+00  0.00000000000E+00  0.16778054460E+04  0.16778054460E+04  0.00000000000E+00 0. -1.
          2   -1    0    0  501    0  0.00000000000E+00 -0.00000000000E+00 -0.10225619612E+04  0.10225619612E+04  0.00000000000E+00 0.  1.
    2000013    1    1    2    0    0 -0.72964579056E+03 -0.48165926041E+03  0.99952482631E+02  0.12949398139E+04  0.95000000000E+03 0.  0.
   -2000013    1    1    2    0    0  0.72964579056E+03  0.48165926041E+03  0.55529100225E+03  0.14054275933E+04  0.95000000000E+03 0.  0.
<mgrwt>
<rscale>  0 0.26196641E+04</rscale>
<asrwt>0</asrwt>
<pdfrwt beam="2">  1        2 0.15731723E+00 0.26196641E+04</pdfrwt>
<pdfrwt beam="1">  1       -2 0.25812391E+00 0.26196641E+04</pdfrwt>
<totfact> 0.12325740E+00</totfact>
</mgrwt>
</event>
<event>
 4    1  0.1323225E-008  0.2752324E+04  0.7816531E-02  0.8318225E-01
         -2   -1    0    0    0  501 -0.00000000000E+00  0.00000000000E+00  0.16795121905E+04  0.16795121905E+04  0.00000000000E+00 0. -1.
          2   -1    0    0  501    0  0.00000000000E+00 -0.00000000000E+00 -0.11276024052E+04  0.11276024052E+04  0.00000000000E+00 0.  1.
    2000013    1    1    2    0    0  0.24102826552E+03 -0.93729991173E+03  0.37426934294E+02  0.13566600623E+04  0.95000000000E+03 0.  0.
   -2000013    1    1    2    0    0 -0.24102826552E+03  0.93729991173E+03  0.51448285107E+03  0.14504545334E+04  0.95000000000E+03 0.  0.
<mgrwt>
<rscale>  0 0.27523241E+04</rscale>
<asrwt>0</asrwt>
<pdfrwt beam="2">  1        2 0.17347729E+00 0.27523241E+04</pdfrwt>
<pdfrwt beam="1">  1       -2 0.25838649E+00 0.27523241E+04</pdfrwt>
<totfact> 0.10445717E+00</totfact>
</mgrwt>
</event>
<event>
 4    1  0.1323225E-008  0.2269468E+04  0.7816531E-02  0.8490058E-01
          2   -1    0    0  501    0  0.00000000000E+00  0.00000000000E+00  0.24114775894E+04  0.24114775894E+04  0.00000000000E+00 0.  1.
         -2   -1    0    0    0  501 -0.00000000000E+00 -0.00000000000E+00 -0.53395544699E+03  0.53395544699E+03  0.00000000000E+00 0. -1.
    2000013    1    1    2    0    0 -0.12379030505E+02 -0.61943106764E+03  0.98507648641E+03  0.15022395854E+04  0.95000000000E+03 0.  0.
   -2000013    1    1    2    0    0  0.12379030505E+02  0.61943106764E+03  0.89244565599E+03  0.14431934509E+04  0.95000000000E+03 0.  0.
<mgrwt>
<rscale>  0 0.22694683E+04</rscale>
<asrwt>0</asrwt>
<pdfrwt beam="1">  1        2 0.37099654E+00 0.22694683E+04</pdfrwt>
<pdfrwt beam="2">  1       -2 0.82146994E-01 0.22694683E+04</pdfrwt>
<totfact> 0.46335537E+00</totfact>
</mgrwt>
</event>
<event>
 4    1  0.1323225E-008  0.1943842E+04  0.7816531E-02  0.8633336E-01
          2   -1    0    0  501    0  0.00000000000E+00  0.00000000000E+00  0.16978542198E+04  0.16978542198E+04  0.00000000000E+00 0.  1.
         -2   -1    0    0    0  501 -0.00000000000E+00 -0.00000000000E+00 -0.55636701580E+03  0.55636701580E+03  0.00000000000E+00 0. -1.
    2000013    1    1    2    0    0 -0.19830750014E+03 -0.45287528399E+02  0.60257152580E+03  0.11432275664E+04  0.95000000000E+03 0.  0.
   -2000013    1    1    2    0    0  0.19830750014E+03  0.45287528399E+02  0.53891567823E+03  0.11109936692E+04  0.95000000000E+03 0.  0.
<mgrwt>
<rscale>  0 0.19438416E+04</rscale>
<asrwt>0</asrwt>
<pdfrwt beam="1">  1        2 0.26120834E+00 0.19438416E+04</pdfrwt>
<pdfrwt beam="2">  1       -2 0.85594926E-01 0.19438416E+04</pdfrwt>
<totfact> 0.10883458E+01</totfact>
</mgrwt>
</event>
<event>
 4    1  0.1323225E-008  0.2410914E+04  0.7816531E-02  0.8435429E-01
         -2   -1    0    0    0  501 -0.00000000000E+00  0.00000000000E+00  0.55995142082E+03  0.55995142082E+03  0.00000000000E+00 0. -1.
          2   -1    0    0  501    0  0.00000000000E+00 -0.00000000000E+00 -0.25950946020E+04  0.25950946020E+04  0.00000000000E+00 0.  1.
    2000013    1    1    2    0    0  0.72171758520E+03  0.15148883138E+03 -0.11254997882E+04  0.16471414365E+04  0.95000000000E+03 0.  0.
   -2000013    1    1    2    0    0 -0.72171758520E+03 -0.15148883138E+03 -0.90964339296E+03  0.15079045862E+04  0.95000000000E+03 0.  0.
<mgrwt>
<rscale>  0 0.24109143E+04</rscale>
<asrwt>0</asrwt>
<pdfrwt beam="2">  1        2 0.39924533E+00 0.24109143E+04</pdfrwt>
<pdfrwt beam="1">  1       -2 0.86146371E-01 0.24109143E+04</pdfrwt>
<totfact> 0.32161800E+00</totfact>
</mgrwt>
</event>
<event>
 4    1  0.1323225E-008  0.2494912E+04  0.7816531E-02  0.8404800E-01
         -2   -1    0    0    0  501 -0.00000000000E+00  0.00000000000E+00  0.52709901895E+03  0.52709901895E+03  0.00000000000E+00 0. -1.
          2   -1    0    0  501    0  0.00000000000E+00 -0.00000000000E+00 -0.29522851130E+04  0.29522851130E+04  0.00000000000E+00 0.  1.
    2000013    1    1    2    0    0  0.46871258257E+03  0.40893625941E+03 -0.49234846525E+03  0.12376701340E+04  0.95000000000E+03 0.  0.
   -2000013    1    1    2    0    0 -0.46871258257E+03 -0.40893625941E+03 -0.19328376288E+04  0.22417139979E+04  0.95000000000E+03 0.  0.
<mgrwt>
<rscale>  0 0.24949121E+04</rscale>
<asrwt>0</asrwt>
<pdfrwt beam="2">  1        2 0.45419772E+00 0.24949121E+04</pdfrwt>
<pdfrwt beam="1">  1       -2 0.81092155E-01 0.24949121E+04</pdfrwt>
<totfact> 0.22310061E+00</totfact>
</mgrwt>
</event>
<event>
 4    1  0.1323225E-008  0.2113740E+04  0.7816531E-02  0.8555215E-01
         -2   -1    0    0    0  501 -0.00000000000E+00  0.00000000000E+00  0.11506652533E+04  0.11506652533E+04  0.00000000000E+00 0. -1.
          2   -1    0    0  501    0  0.00000000000E+00 -0.00000000000E+00 -0.97072020384E+03  0.97072020384E+03  0.00000000000E+00 0.  1.
    2000013    1    1    2    0    0  0.19217534792E+03 -0.41414670798E+03  0.16787512606E+03  0.10673007627E+04  0.95000000000E+03 0.  0.
   -2000013    1    1    2    0    0 -0.19217534792E+03  0.41414670798E+03  0.12069923424E+02  0.10540846945E+04  0.95000000000E+03 0.  0.
<mgrwt>
<rscale>  0 0.21137398E+04</rscale>
<asrwt>0</asrwt>
<pdfrwt beam="2">  1        2 0.14934157E+00 0.21137398E+04</pdfrwt>
<pdfrwt beam="1">  1       -2 0.17702542E+00 0.21137398E+04</pdfrwt>
<totfact> 0.46050424E+00</totfact>
</mgrwt>
</event>
<event>
 4    1  0.1323225E-008  0.2247682E+04  0.7816531E-02  0.8498840E-01
          2   -1    0    0  501    0  0.00000000000E+00  0.00000000000E+00  0.26726871007E+04  0.26726871007E+04  0.00000000000E+00 0. -1.
         -2   -1    0    0    0  501 -0.00000000000E+00 -0.00000000000E+00 -0.47256488084E+03  0.47256488084E+03  0.00000000000E+00 0.  1.
    2000013    1    1    2    0    0  0.56461831205E+02 -0.59367246125E+03  0.11978455797E+04  0.16410268012E+04  0.95000000000E+03 0.  0.
   -2000013    1    1    2    0    0 -0.56461831205E+02  0.59367246125E+03  0.10022766402E+04  0.15042251803E+04  0.95000000000E+03 0.  0.
<mgrwt>
<rscale>  0 0.22476815E+04</rscale>
<asrwt>0</asrwt>
<pdfrwt beam="1">  1        2 0.41118262E+00 0.22476815E+04</pdfrwt>
<pdfrwt beam="2">  1       -2 0.72702291E-01 0.22476815E+04</pdfrwt>
<totfact> 0.42946576E+00</totfact>
</mgrwt>
</event>
<event>
 4    1  0.1323225E-008  0.2146166E+04  0.7816531E-02  0.8541175E-01
          1   -1    0    0  501    0  0.00000000000E+00  0.00000000000E+00  0.22111280165E+04  0.22111280165E+04  0.00000000000E+00 0.  1.
         -1   -1    0    0    0  501 -0.00000000000E+00 -0.00000000000E+00 -0.52077796559E+03  0.52077796559E+03  0.00000000000E+00 0. -1.
    2000013    1    1    2    0    0 -0.37870412081E+03 -0.30451777223E+03  0.98952071985E+03  0.14552660031E+04  0.95000000000E+03 0.  0.
   -2000013    1    1    2    0    0  0.37870412081E+03  0.30451777223E+03  0.70082933105E+03  0.12766399790E+04  0.95000000000E+03 0.  0.
<mgrwt>
<rscale>  0 0.21461657E+04</rscale>
<asrwt>0</asrwt>
<pdfrwt beam="1">  1        1 0.34017354E+00 0.21461657E+04</pdfrwt>
<pdfrwt beam="2">  1       -1 0.80119688E-01 0.21461657E+04</pdfrwt>
<totfact> 0.30488492E+00</totfact>
</mgrwt>
</event>
<event>
 4    1  0.1323225E-008  0.2097777E+04  0.7816531E-02  0.8562223E-01
         -1   -1    0    0    0  501 -0.00000000000E+00  0.00000000000E+00  0.11369892103E+04  0.11369892103E+04  0.00000000000E+00 0.  1.
          1   -1    0    0  501    0  0.00000000000E+00 -0.00000000000E+00 -0.96761429470E+03  0.96761429470E+03  0.00000000000E+00 0. -1.
    2000013    1    1    2    0    0 -0.15486248933E+03 -0.36910508440E+03 -0.10945210277E+03  0.10366777304E+04  0.95000000000E+03 0.  0.
   -2000013    1    1    2    0    0  0.15486248933E+03  0.36910508440E+03  0.27882701840E+03  0.10679257746E+04  0.95000000000E+03 0.  0.
<mgrwt>
<rscale>  0 0.20977769E+04</rscale>
<asrwt>0</asrwt>
<pdfrwt beam="2">  1        1 0.14886374E+00 0.20977769E+04</pdfrwt>
<pdfrwt beam="1">  1       -1 0.17492142E+00 0.20977769E+04</pdfrwt>
<totfact> 0.33432377E+00</totfact>
</mgrwt>
</event>
<event>
 4    1  0.1323225E-008  0.2826475E+04  0.7816531E-02  0.8295096E-01
          2   -1    0    0  501    0  0.00000000000E+00  0.00000000000E+00  0.12025785952E+04  0.12025785952E+04  0.00000000000E+00 0.  1.
         -2   -1    0    0    0  501 -0.00000000000E+00 -0.00000000000E+00 -0.16607986302E+04  0.16607986302E+04  0.00000000000E+00 0. -1.
    2000013    1    1    2    0    0 -0.65374750893E+03  0.73994363729E+03  0.12158654928E+03  0.13755674032E+04  0.95000000000E+03 0.  0.
   -2000013    1    1    2    0    0  0.65374750893E+03 -0.73994363729E+03 -0.57980658427E+03  0.14878098222E+04  0.95000000000E+03 0.  0.
<mgrwt>
<rscale>  0 0.28264755E+04</rscale>
<asrwt>0</asrwt>
<pdfrwt beam="1">  1        2 0.18501209E+00 0.28264755E+04</pdfrwt>
<pdfrwt beam="2">  1       -2 0.25550748E+00 0.28264755E+04</pdfrwt>
<totfact> 0.97412085E-01</totfact>
</mgrwt>
</event>
<event>
 4    1  0.1323225E-008  0.2577031E+04  0.7816531E-02  0.8376045E-01
         -2   -1    0    0    0  501 -0.00000000000E+00  0.00000000000E+00  0.29048655612E+04  0.29048655612E+04  0.00000000000E+00 0.  1.
          2   -1    0    0  501    0  0.00000000000E+00 -0.00000000000E+00 -0.57154861082E+03  0.57154861082E+03  0.00000000000E+00 0. -1.
    2000013    1    1    2    0    0 -0.11387399666E+03  0.79665055463E+03  0.16143811149E+04  0.20387117936E+04  0.95000000000E+03 0.  0.
   -2000013    1    1    2    0    0  0.11387399666E+03 -0.79665055463E+03  0.71893583548E+03  0.14377023784E+04  0.95000000000E+03 0.  0.
<mgrwt>
<rscale>  0 0.25770308E+04</rscale>
<asrwt>0</asrwt>
<pdfrwt beam="2">  1        2 0.87930557E-01 0.25770308E+04</pdfrwt>
<pdfrwt beam="1">  1       -2 0.44690239E+00 0.25770308E+04</pdfrwt>
<totfact> 0.16940806E-01</totfact>
</mgrwt>
</event>
<event>
 4    1  0.1323225E-008  0.2895658E+04  0.7816531E-02  0.8274171E-01
          2   -1    0    0  501    0  0.00000000000E+00  0.00000000000E+00  0.23702604281E+04  0.23702604281E+04  0.00000000000E+00 0.  1.
         -2   -1    0    0    0  501 -0.00000000000E+00 -0.00000000000E+00 -0.88437902949E+03  0.88437902949E+03  0.00000000000E+00 0. -1.
    2000013    1    1    2    0    0 -0.26998917576E+03  0.10091524768E+04  0.38322433519E+03  0.14630939025E+04  0.95000000000E+03 0.  0.
   -2000013    1    1    2    0    0  0.26998917576E+03 -0.10091524768E+04  0.11026570634E+04  0.17915455551E+04  0.95000000000E+03 0.  0.
<mgrwt>
<rscale>  0 0.28956579E+04</rscale>
<asrwt>0</asrwt>
<pdfrwt beam="1">  1        2 0.36465545E+00 0.28956579E+04</pdfrwt>
<pdfrwt beam="2">  1       -2 0.13605831E+00 0.28956579E+04</pdfrwt>
<totfact> 0.13801833E+00</totfact>
</mgrwt>
</event>
<event>
 4    1  0.1323225E-008  0.2806360E+04  0.7816531E-02  0.8301296E-01
         -2   -1    0    0    0  501 -0.00000000000E+00  0.00000000000E+00  0.69939789971E+03  0.69939789971E+03  0.00000000000E+00 0. -1.
          2   -1    0    0  501    0  0.00000000000E+00 -0.00000000000E+00 -0.28151562880E+04  0.28151562880E+04  0.00000000000E+00 0.  1.
    2000013    1    1    2    0    0 -0.69141914814E+03  0.76289194208E+03 -0.11576740766E+04  0.18173535213E+04  0.95000000000E+03 0.  0.
   -2000013    1    1    2    0    0  0.69141914814E+03 -0.76289194208E+03 -0.95808431161E+03  0.16972006664E+04  0.95000000000E+03 0.  0.
<mgrwt>
<rscale>  0 0.28063602E+04</rscale>
<asrwt>0</asrwt>
<pdfrwt beam="2">  1        2 0.43310096E+00 0.28063602E+04</pdfrwt>
<pdfrwt beam="1">  1       -2 0.10759968E+00 0.28063602E+04</pdfrwt>
<totfact> 0.13640590E+00</totfact>
</mgrwt>
</event>
<event>
 4    1  0.1323225E-008  0.2453337E+04  0.7816531E-02  0.8419801E-01
          2   -1    0    0  501    0  0.00000000000E+00  0.00000000000E+00  0.28280871978E+04  0.28280871978E+04  0.00000000000E+00 0.  1.
         -2   -1    0    0    0  501 -0.00000000000E+00 -0.00000000000E+00 -0.53206104106E+03  0.53206104106E+03  0.00000000000E+00 0. -1.
    2000013    1    1    2    0    0  0.62550392262E+03 -0.44186379881E+03  0.13197152175E+04  0.17974000749E+04  0.95000000000E+03 0.  0.
   -2000013    1    1    2    0    0 -0.62550392262E+03  0.44186379881E+03  0.97631093922E+03  0.15627481640E+04  0.95000000000E+03 0.  0.
<mgrwt>
<rscale>  0 0.24533365E+04</rscale>
<asrwt>0</asrwt>
<pdfrwt beam="1">  1        2 0.43509033E+00 0.24533365E+04</pdfrwt>
<pdfrwt beam="2">  1       -2 0.81855546E-01 0.24533365E+04</pdfrwt>
<totfact> 0.26130246E+00</totfact>
</mgrwt>
</event>
<event>
 4    1  0.1323225E-008  0.2244936E+04  0.7816531E-02  0.8499954E-01
         -2   -1    0    0    0  501 -0.00000000000E+00  0.00000000000E+00  0.17714423989E+04  0.17714423989E+04  0.00000000000E+00 0. -1.
          2   -1    0    0  501    0  0.00000000000E+00 -0.00000000000E+00 -0.71124771116E+03  0.71124771116E+03  0.00000000000E+00 0.  1.
    2000013    1    1    2    0    0  0.15926920723E+02  0.58974837439E+03  0.63719082040E+03  0.12870776797E+04  0.95000000000E+03 0.  0.
   -2000013    1    1    2    0    0 -0.15926920723E+02 -0.58974837439E+03  0.42300386734E+03  0.11956124304E+04  0.95000000000E+03 0.  0.
<mgrwt>
<rscale>  0 0.22449359E+04</rscale>
<asrwt>0</asrwt>
<pdfrwt beam="2">  1        2 0.10942273E+00 0.22449359E+04</pdfrwt>
<pdfrwt beam="1">  1       -2 0.27252960E+00 0.22449359E+04</pdfrwt>
<totfact> 0.17103427E+00</totfact>
</mgrwt>
</event>
<event>
 4    1  0.1323225E-008  0.2365207E+04  0.7816531E-02  0.8452645E-01
         -2   -1    0    0    0  501 -0.00000000000E+00  0.00000000000E+00  0.87063089326E+03  0.87063089326E+03  0.00000000000E+00 0. -1.
          2   -1    0    0  501    0  0.00000000000E+00 -0.00000000000E+00 -0.16063656647E+04  0.16063656647E+04  0.00000000000E+00 0.  1.
    2000013    1    1    2    0    0  0.54366835232E+03  0.81068460299E+02 -0.82902541382E+03  0.13754746487E+04  0.95000000000E+03 0.  0.
   -2000013    1    1    2    0    0 -0.54366835232E+03 -0.81068460299E+02  0.93290642369E+02  0.11015219092E+04  0.95000000000E+03 0.  0.
<mgrwt>
<rscale>  0 0.23652075E+04</rscale>
<asrwt>0</asrwt>
<pdfrwt beam="2">  1        2 0.24713318E+00 0.23652075E+04</pdfrwt>
<pdfrwt beam="1">  1       -2 0.13394321E+00 0.23652075E+04</pdfrwt>
<totfact> 0.40155757E+00</totfact>
</mgrwt>
</event>
<event>
 4    1  0.1323225E-008  0.2079077E+04  0.7816531E-02  0.8570516E-01
         -2   -1    0    0    0  501 -0.00000000000E+00  0.00000000000E+00  0.35935721653E+03  0.35935721653E+03  0.00000000000E+00 0. -1.
          2   -1    0    0  501    0  0.00000000000E+00 -0.00000000000E+00 -0.30071487686E+04  0.30071487686E+04  0.00000000000E+00 0.  1.
    2000013    1    1    2    0    0 -0.45680977517E+02  0.41861271682E+03 -0.13701857520E+04  0.17196605343E+04  0.95000000000E+03 0.  0.
   -2000013    1    1    2    0    0  0.45680977517E+02 -0.41861271682E+03 -0.12776058001E+04  0.16468454508E+04  0.95000000000E+03 0.  0.
<mgrwt>
<rscale>  0 0.20790773E+04</rscale>
<asrwt>0</asrwt>
<pdfrwt beam="2">  1        2 0.46263828E+00 0.20790773E+04</pdfrwt>
<pdfrwt beam="1">  1       -2 0.55285724E-01 0.20790773E+04</pdfrwt>
<totfact> 0.49020901E+00</totfact>
</mgrwt>
</event>
<event>
 4    1  0.1323225E-008  0.2282096E+04  0.7816531E-02  0.8485014E-01
          2   -1    0    0  501    0  0.00000000000E+00  0.00000000000E+00  0.14022603849E+04  0.14022603849E+04  0.00000000000E+00 0.  1.
         -2   -1    0    0    0  501 -0.00000000000E+00 -0.00000000000E+00 -0.92849408851E+03  0.92849408851E+03  0.00000000000E+00 0. -1.
    2000013    1    1    2    0    0  0.43645351248E+03 -0.40574784649E+03  0.21756070144E+02  0.11216489246E+04  0.95000000000E+03 0.  0.
   -2000013    1    1    2    0    0 -0.43645351248E+03  0.40574784649E+03  0.45201022623E+03  0.12091055488E+04  0.95000000000E+03 0.  0.
<mgrwt>
<rscale>  0 0.22820959E+04</rscale>
<asrwt>0</asrwt>
<pdfrwt beam="1">  1        2 0.21573237E+00 0.22820959E+04</pdfrwt>
<pdfrwt beam="2">  1       -2 0.14284524E+00 0.22820959E+04</pdfrwt>
<totfact> 0.44649580E+00</totfact>
</mgrwt>
</event>
<event>
 4    1  0.1323225E-008  0.2274545E+04  0.7816531E-02  0.8488026E-01
         -2   -1    0    0    0  501 -0.00000000000E+00  0.00000000000E+00  0.11941158995E+04  0.11941158995E+04  0.00000000000E+00 0.  1.
          2   -1    0    0  501    0  0.00000000000E+00 -0.00000000000E+00 -0.10831353320E+04  0.10831353320E+04  0.00000000000E+00 0. -1.
    2000013    1    1    2    0    0  0.57882286811E+03  0.23629319604E+03  0.51156842262E+02  0.11384144279E+04  0.95000000000E+03 0.  0.
   -2000013    1    1    2    0    0 -0.57882286811E+03 -0.23629319604E+03  0.59823725322E+02  0.11388368036E+04  0.95000000000E+03 0.  0.
<mgrwt>
<rscale>  0 0.22745453E+04</rscale>
<asrwt>0</asrwt>
<pdfrwt beam="2">  1        2 0.16663621E+00 0.22745453E+04</pdfrwt>
<pdfrwt beam="1">  1       -2 0.18371014E+00 0.22745453E+04</pdfrwt>
<totfact> 0.34662595E+00</totfact>
</mgrwt>
</event>
<event>
 4    1  0.1323225E-008  0.2747663E+04  0.7816531E-02  0.8319704E-01
          2   -1    0    0  501    0  0.00000000000E+00  0.00000000000E+00  0.25792849369E+04  0.25792849369E+04  0.00000000000E+00 0.  1.
         -2   -1    0    0    0  501 -0.00000000000E+00 -0.00000000000E+00 -0.73175817613E+03  0.73175817613E+03  0.00000000000E+00 0. -1.
    2000013    1    1    2    0    0  0.68247303300E+03  0.14384027918E+03  0.72990461085E+02  0.11807993369E+04  0.95000000000E+03 0.  0.
   -2000013    1    1    2    0    0 -0.68247303300E+03 -0.14384027918E+03  0.17745362997E+04  0.21302437761E+04  0.95000000000E+03 0.  0.
<mgrwt>
<rscale>  0 0.27476629E+04</rscale>
<asrwt>0</asrwt>
<pdfrwt beam="1">  1        2 0.39681306E+00 0.27476629E+04</pdfrwt>
<pdfrwt beam="2">  1       -2 0.11257818E+00 0.27476629E+04</pdfrwt>
<totfact> 0.16981106E+00</totfact>
</mgrwt>
</event>
<event>
 4    1  0.1323225E-008  0.3416449E+04  0.7816531E-02  0.8133881E-01
         -2   -1    0    0    0  501 -0.00000000000E+00  0.00000000000E+00  0.22070812062E+04  0.22070812062E+04  0.00000000000E+00 0. -1.
          2   -1    0    0  501    0  0.00000000000E+00 -0.00000000000E+00 -0.13221221704E+04  0.13221221704E+04  0.00000000000E+00 0.  1.
    2000013    1    1    2    0    0  0.77785240153E+03  0.45118984942E+03 -0.69236971257E+03  0.14800346137E+04  0.95000000000E+03 0.  0.
   -2000013    1    1    2    0    0 -0.77785240153E+03 -0.45118984942E+03  0.15773287483E+04  0.20491687630E+04  0.95000000000E+03 0.  0.
<mgrwt>
<rscale>  0 0.34164490E+04</rscale>
<asrwt>0</asrwt>
<pdfrwt beam="2">  1        2 0.20340341E+00 0.34164490E+04</pdfrwt>
<pdfrwt beam="1">  1       -2 0.33955095E+00 0.34164490E+04</pdfrwt>
<totfact> 0.24019885E-01</totfact>
</mgrwt>
</event>
<event>
 4    1  0.1323225E-008  0.1986812E+04  0.7816531E-02  0.8612812E-01
         -1   -1    0    0    0  501 -0.00000000000E+00  0.00000000000E+00  0.41778781014E+03  0.41778781014E+03  0.00000000000E+00 0. -1.
          1   -1    0    0  501    0  0.00000000000E+00 -0.00000000000E+00 -0.23620965816E+04  0.23620965816E+04  0.00000000000E+00 0.  1.
    2000013    1    1    2    0    0 -0.20022205367E+03  0.19305792783E+03 -0.10891747726E+04  0.14717886803E+04  0.95000000000E+03 0.  0.
   -2000013    1    1    2    0    0  0.20022205367E+03 -0.19305792783E+03 -0.85513399893E+03  0.13080957115E+04  0.95000000000E+03 0.  0.
<mgrwt>
<rscale>  0 0.19868117E+04</rscale>
<asrwt>0</asrwt>
<pdfrwt beam="2">  1        1 0.36339947E+00 0.19868117E+04</pdfrwt>
<pdfrwt beam="1">  1       -1 0.64275048E-01 0.19868117E+04</pdfrwt>
<totfact> 0.38470015E+00</totfact>
</mgrwt>
</event>
<event>
 4    1  0.1323225E-008  0.2289340E+04  0.7816531E-02  0.8482136E-01
         -2   -1    0    0    0  501 -0.00000000000E+00  0.00000000000E+00  0.23066785378E+04  0.23066785378E+04  0.00000000000E+00 0. -1.
          2   -1    0    0  501    0  0.00000000000E+00 -0.00000000000E+00 -0.56803279921E+03  0.56803279921E+03  0.00000000000E+00 0.  1.
    2000013    1    1    2    0    0 -0.49792659067E+03 -0.27823078452E+03  0.50881428756E+03  0.12193175298E+04  0.95000000000E+03 0.  0.
   -2000013    1    1    2    0    0  0.49792659067E+03  0.27823078452E+03  0.12298314510E+04  0.16553938073E+04  0.95000000000E+03 0.  0.
<mgrwt>
<rscale>  0 0.22893397E+04</rscale>
<asrwt>0</asrwt>
<pdfrwt beam="2">  1        2 0.87389663E-01 0.22893397E+04</pdfrwt>
<pdfrwt beam="1">  1       -2 0.35487361E+00 0.22893397E+04</pdfrwt>
<totfact> 0.69748229E-01</totfact>
</mgrwt>
</event>
<event>
 4    1  0.1323225E-008  0.2197208E+04  0.7816531E-02  0.8519591E-01
         -2   -1    0    0    0  501 -0.00000000000E+00  0.00000000000E+00  0.41285050914E+03  0.41285050914E+03  0.00000000000E+00 0. -1.
          2   -1    0    0  501    0  0.00000000000E+00 -0.00000000000E+00 -0.29234092893E+04  0.29234092893E+04  0.00000000000E+00 0.  1.
    2000013    1    1    2    0    0 -0.33180143845E+03 -0.42764254395E+03 -0.14178319130E+04  0.17904518071E+04  0.95000000000E+03 0.  0.
   -2000013    1    1    2    0    0  0.33180143845E+03  0.42764254395E+03 -0.10927268672E+04  0.15458079914E+04  0.95000000000E+03 0.  0.
<mgrwt>
<rscale>  0 0.21972082E+04</rscale>
<asrwt>0</asrwt>
<pdfrwt beam="2">  1        2 0.44975529E+00 0.21972082E+04</pdfrwt>
<pdfrwt beam="1">  1       -2 0.63515461E-01 0.21972082E+04</pdfrwt>
<totfact> 0.40801326E+00</totfact>
</mgrwt>
</event>
<event>
 4    1  0.1323225E-008  0.2477887E+04  0.7816531E-02  0.8410906E-01
          2   -1    0    0  501    0  0.00000000000E+00  0.00000000000E+00  0.16603786299E+04  0.16603786299E+04  0.00000000000E+00 0. -1.
         -2   -1    0    0    0  501 -0.00000000000E+00 -0.00000000000E+00 -0.92447683125E+03  0.92447683125E+03  0.00000000000E+00 0.  1.
    2000013    1    1    2    0    0  0.78493631476E+03 -0.36704693570E+02  0.24014961528E+03  0.12560430289E+04  0.95000000000E+03 0.  0.
   -2000013    1    1    2    0    0 -0.78493631476E+03  0.36704693570E+02  0.49575218335E+03  0.13288124322E+04  0.95000000000E+03 0.  0.
<mgrwt>
<rscale>  0 0.24778875E+04</rscale>
<asrwt>0</asrwt>
<pdfrwt beam="1">  1        2 0.25544287E+00 0.24778875E+04</pdfrwt>
<pdfrwt beam="2">  1       -2 0.14222720E+00 0.24778875E+04</pdfrwt>
<totfact> 0.31782870E+00</totfact>
</mgrwt>
</event>
<event>
 4    1  0.1323225E-008  0.2527897E+04  0.7816531E-02  0.8393114E-01
          2   -1    0    0  501    0  0.00000000000E+00  0.00000000000E+00  0.41026935621E+03  0.41026935621E+03  0.00000000000E+00 0.  1.
         -2   -1    0    0    0  501 -0.00000000000E+00 -0.00000000000E+00 -0.38939433630E+04  0.38939433630E+04  0.00000000000E+00 0. -1.
    2000013    1    1    2    0    0 -0.35418965709E+03 -0.58555882637E+03 -0.25526016305E+04  0.28083099075E+04  0.95000000000E+03 0.  0.
   -2000013    1    1    2    0    0  0.35418965709E+03  0.58555882637E+03 -0.93107237632E+03  0.14959028118E+04  0.95000000000E+03 0.  0.
<mgrwt>
<rscale>  0 0.25278969E+04</rscale>
<asrwt>0</asrwt>
<pdfrwt beam="1">  1        2 0.63118365E-01 0.25278969E+04</pdfrwt>
<pdfrwt beam="2">  1       -2 0.59906819E+00 0.25278969E+04</pdfrwt>
<totfact> 0.34599349E-02</totfact>
</mgrwt>
</event>
<event>
 4    1  0.1323225E-008  0.2168545E+04  0.7816531E-02  0.8531636E-01
         -2   -1    0    0    0  501 -0.00000000000E+00  0.00000000000E+00  0.30848160275E+03  0.30848160275E+03  0.00000000000E+00 0. -1.
          2   -1    0    0  501    0  0.00000000000E+00 -0.00000000000E+00 -0.38110749253E+04  0.38110749253E+04  0.00000000000E+00 0.  1.
    2000013    1    1    2    0    0  0.14942895539E+03  0.43859675048E+03 -0.12920185387E+04  0.16692836867E+04  0.95000000000E+03 0.  0.
   -2000013    1    1    2    0    0 -0.14942895539E+03 -0.43859675048E+03 -0.22105747838E+04  0.24502728413E+04  0.95000000000E+03 0.  0.
<mgrwt>
<rscale>  0 0.21685447E+04</rscale>
<asrwt>0</asrwt>
<pdfrwt beam="2">  1        2 0.58631921E+00 0.21685447E+04</pdfrwt>
<pdfrwt beam="1">  1       -2 0.47458709E-01 0.21685447E+04</pdfrwt>
<totfact> 0.18685173E+00</totfact>
</mgrwt>
</event>
<event>
 4    1  0.1323225E-008  0.2140576E+04  0.7816531E-02  0.8543577E-01
          2   -1    0    0  501    0  0.00000000000E+00  0.00000000000E+00  0.90082896586E+03  0.90082896586E+03  0.00000000000E+00 0.  1.
         -2   -1    0    0    0  501 -0.00000000000E+00 -0.00000000000E+00 -0.12716249836E+04  0.12716249836E+04  0.00000000000E+00 0. -1.
    2000013    1    1    2    0    0 -0.42207995018E+03  0.24949071222E+03 -0.23734144481E+03  0.10950927181E+04  0.95000000000E+03 0.  0.
   -2000013    1    1    2    0    0  0.42207995018E+03 -0.24949071222E+03 -0.13345457296E+03  0.10773612314E+04  0.95000000000E+03 0.  0.
<mgrwt>
<rscale>  0 0.21405762E+04</rscale>
<asrwt>0</asrwt>
<pdfrwt beam="1">  1        2 0.13858907E+00 0.21405762E+04</pdfrwt>
<pdfrwt beam="2">  1       -2 0.19563461E+00 0.21405762E+04</pdfrwt>
<totfact> 0.38215422E+00</totfact>
</mgrwt>
</event>
<event>
 4    1  0.1323225E-008  0.2268887E+04  0.7816531E-02  0.8490291E-01
          2   -1    0    0  501    0  0.00000000000E+00  0.00000000000E+00  0.73466331610E+03  0.73466331610E+03  0.00000000000E+00 0.  1.
         -2   -1    0    0    0  501 -0.00000000000E+00 -0.00000000000E+00 -0.17517708496E+04  0.17517708496E+04  0.00000000000E+00 0. -1.
    2000013    1    1    2    0    0 -0.15796302125E+03  0.54397585466E+03 -0.23218319522E+03  0.11301641839E+04  0.95000000000E+03 0.  0.
   -2000013    1    1    2    0    0  0.15796302125E+03 -0.54397585466E+03 -0.78492433826E+03  0.13562699817E+04  0.95000000000E+03 0.  0.
<mgrwt>
<rscale>  0 0.22688868E+04</rscale>
<asrwt>0</asrwt>
<pdfrwt beam="1">  1        2 0.11302513E+00 0.22688868E+04</pdfrwt>
<pdfrwt beam="2">  1       -2 0.26950321E+00 0.22688868E+04</pdfrwt>
<totfact> 0.17086599E+00</totfact>
</mgrwt>
</event>
<event>
 4    1  0.1323225E-008  0.2567570E+04  0.7816531E-02  0.8379301E-01
          1   -1    0    0  501    0  0.00000000000E+00  0.00000000000E+00  0.18386436473E+04  0.18386436473E+04  0.00000000000E+00 0.  1.
         -1   -1    0    0    0  501 -0.00000000000E+00 -0.00000000000E+00 -0.89636959961E+03  0.89636959961E+03  0.00000000000E+00 0. -1.
    2000013    1    1    2    0    0 -0.85095104566E+03 -0.58061468005E+02  0.32776589506E+03  0.13181120203E+04  0.95000000000E+03 0.  0.
   -2000013    1    1    2    0    0  0.85095104566E+03  0.58061468005E+02  0.61450815259E+03  0.14169012265E+04  0.95000000000E+03 0.  0.
<mgrwt>
<rscale>  0 0.25675703E+04</rscale>
<asrwt>0</asrwt>
<pdfrwt beam="1">  1        1 0.28286825E+00 0.25675703E+04</pdfrwt>
<pdfrwt beam="2">  1       -1 0.13790302E+00 0.25675703E+04</pdfrwt>
<totfact> 0.14766762E+00</totfact>
</mgrwt>
</event>
<event>
 4    1  0.1323225E-008  0.2196022E+04  0.7816531E-02  0.8520086E-01
         -2   -1    0    0    0  501 -0.00000000000E+00  0.00000000000E+00  0.49281529637E+03  0.49281529637E+03  0.00000000000E+00 0. -1.
          2   -1    0    0  501    0  0.00000000000E+00 -0.00000000000E+00 -0.24464099567E+04  0.24464099567E+04  0.00000000000E+00 0.  1.
    2000013    1    1    2    0    0 -0.52241691044E+03 -0.87659833972E+01 -0.74446482171E+03  0.13151897740E+04  0.95000000000E+03 0.  0.
   -2000013    1    1    2    0    0  0.52241691044E+03  0.87659833972E+01 -0.12091298386E+04  0.16240354791E+04  0.95000000000E+03 0.  0.
<mgrwt>
<rscale>  0 0.21960221E+04</rscale>
<asrwt>0</asrwt>
<pdfrwt beam="2">  1        2 0.37637077E+00 0.21960221E+04</pdfrwt>
<pdfrwt beam="1">  1       -2 0.75817737E-01 0.21960221E+04</pdfrwt>
<totfact> 0.53287025E+00</totfact>
</mgrwt>
</event>
<event>
 4    1  0.1323225E-008  0.3179114E+04  0.7816531E-02  0.8194355E-01
          2   -1    0    0  501    0  0.00000000000E+00  0.00000000000E+00  0.29481004224E+04  0.29481004224E+04  0.00000000000E+00 0.  1.
         -2   -1    0    0    0  501 -0.00000000000E+00 -0.00000000000E+00 -0.85705770582E+03  0.85705770582E+03  0.00000000000E+00 0. -1.
    2000013    1    1    2    0    0  0.12741840631E+04 -0.16279727898E+02  0.10689189482E+04  0.19154367058E+04  0.95000000000E+03 0.  0.
   -2000013    1    1    2    0    0 -0.12741840631E+04  0.16279727898E+02  0.10221237683E+04  0.18897214223E+04  0.95000000000E+03 0.  0.
<mgrwt>
<rscale>  0 0.31791145E+04</rscale>
<asrwt>0</asrwt>
<pdfrwt beam="1">  1        2 0.45355391E+00 0.31791145E+04</pdfrwt>
<pdfrwt beam="2">  1       -2 0.13185503E+00 0.31791145E+04</pdfrwt>
<totfact> 0.66254682E-01</totfact>
</mgrwt>
</event>
<event>
 4    1  0.1323225E-008  0.3146440E+04  0.7816531E-02  0.8203107E-01
          2   -1    0    0  501    0  0.00000000000E+00  0.00000000000E+00  0.19986504955E+04  0.19986504955E+04  0.00000000000E+00 0.  1.
         -2   -1    0    0    0  501 -0.00000000000E+00 -0.00000000000E+00 -0.12383459113E+04  0.12383459113E+04  0.00000000000E+00 0. -1.
    2000013    1    1    2    0    0 -0.10964335919E+04 -0.56628179150E+03  0.15084960489E+03  0.15646396684E+04  0.95000000000E+03 0.  0.
   -2000013    1    1    2    0    0  0.10964335919E+04  0.56628179150E+03  0.60945497930E+03  0.16723567384E+04  0.95000000000E+03 0.  0.
<mgrwt>
<rscale>  0 0.31464397E+04</rscale>
<asrwt>0</asrwt>
<pdfrwt beam="1">  1        2 0.30748469E+00 0.31464397E+04</pdfrwt>
<pdfrwt beam="2">  1       -2 0.19051476E+00 0.31464397E+04</pdfrwt>
<totfact> 0.87051973E-01</totfact>
</mgrwt>
</event>
<event>
 4    1  0.1323225E-008  0.2287131E+04  0.7816531E-02  0.8483012E-01
         -2   -1    0    0    0  501 -0.00000000000E+00  0.00000000000E+00  0.67464562625E+03  0.67464562625E+03  0.00000000000E+00 0. -1.
          2   -1    0    0  501    0  0.00000000000E+00 -0.00000000000E+00 -0.19384139067E+04  0.19384139067E+04  0.00000000000E+00 0.  1.
    2000013    1    1    2    0    0 -0.74754439668E+02 -0.62073593086E+03 -0.76870429034E+03  0.13727008444E+04  0.95000000000E+03 0.  0.
   -2000013    1    1    2    0    0  0.74754439668E+02  0.62073593086E+03 -0.49506399012E+03  0.12403586886E+04  0.95000000000E+03 0.  0.
<mgrwt>
<rscale>  0 0.22871314E+04</rscale>
<asrwt>0</asrwt>
<pdfrwt beam="2">  1        2 0.29821752E+00 0.22871314E+04</pdfrwt>
<pdfrwt beam="1">  1       -2 0.10379164E+00 0.22871314E+04</pdfrwt>
<totfact> 0.49586968E+00</totfact>
</mgrwt>
</event>
<event>
 4    1  0.1323225E-008  0.3111938E+04  0.7816531E-02  0.8212469E-01
          2   -1    0    0  501    0  0.00000000000E+00  0.00000000000E+00  0.26295191001E+04  0.26295191001E+04  0.00000000000E+00 0.  1.
         -2   -1    0    0    0  501 -0.00000000000E+00 -0.00000000000E+00 -0.92071575913E+03  0.92071575913E+03  0.00000000000E+00 0. -1.
    2000013    1    1    2    0    0  0.60074961463E+03 -0.94359574983E+03  0.26461017136E+03  0.14912382712E+04  0.95000000000E+03 0.  0.
   -2000013    1    1    2    0    0 -0.60074961463E+03  0.94359574983E+03  0.14441931696E+04  0.20589965881E+04  0.95000000000E+03 0.  0.
<mgrwt>
<rscale>  0 0.31119381E+04</rscale>
<asrwt>0</asrwt>
<pdfrwt beam="1">  1        2 0.40454140E+00 0.31119381E+04</pdfrwt>
<pdfrwt beam="2">  1       -2 0.14164858E+00 0.31119381E+04</pdfrwt>
<totfact> 0.86366992E-01</totfact>
</mgrwt>
</event>
<event>
 4    1  0.1323225E-008  0.2743332E+04  0.7816531E-02  0.8321081E-01
          2   -1    0    0  501    0  0.00000000000E+00  0.00000000000E+00  0.10906972953E+04  0.10906972953E+04  0.00000000000E+00 0.  1.
         -2   -1    0    0    0  501 -0.00000000000E+00 -0.00000000000E+00 -0.17250134763E+04  0.17250134763E+04  0.00000000000E+00 0. -1.
    2000013    1    1    2    0    0 -0.67437561975E+03 -0.42239337983E+03 -0.92069333935E+03  0.15438182759E+04  0.95000000000E+03 0.  0.
   -2000013    1    1    2    0    0  0.67437561975E+03  0.42239337983E+03  0.28637715827E+03  0.12718924957E+04  0.95000000000E+03 0.  0.
<mgrwt>
<rscale>  0 0.27433319E+04</rscale>
<asrwt>0</asrwt>
<pdfrwt beam="1">  1        2 0.16779958E+00 0.27433319E+04</pdfrwt>
<pdfrwt beam="2">  1       -2 0.26538669E+00 0.27433319E+04</pdfrwt>
<totfact> 0.99810082E-01</totfact>
</mgrwt>
</event>
<event>
 4    1  0.1323225E-008  0.2280116E+04  0.7816531E-02  0.8485803E-01
          2   -1    0    0  501    0  0.00000000000E+00  0.00000000000E+00  0.18724632964E+04  0.18724632964E+04  0.00000000000E+00 0.  1.
         -2   -1    0    0    0  501 -0.00000000000E+00 -0.00000000000E+00 -0.69412952099E+03  0.69412952099E+03  0.00000000000E+00 0. -1.
    2000013    1    1    2    0    0 -0.47253230724E+03  0.39826736741E+03  0.44980368950E+03  0.12193141664E+04  0.95000000000E+03 0.  0.
   -2000013    1    1    2    0    0  0.47253230724E+03 -0.39826736741E+03  0.72853008592E+03  0.13472786510E+04  0.95000000000E+03 0.  0.
<mgrwt>
<rscale>  0 0.22801158E+04</rscale>
<asrwt>0</asrwt>
<pdfrwt beam="1">  1        2 0.28807128E+00 0.22801158E+04</pdfrwt>
<pdfrwt beam="2">  1       -2 0.10678916E+00 0.22801158E+04</pdfrwt>
<totfact> 0.50411607E+00</totfact>
</mgrwt>
</event>
<event>
 4    1  0.1323225E-008  0.2377130E+04  0.7816531E-02  0.8448116E-01
         -2   -1    0    0    0  501 -0.00000000000E+00  0.00000000000E+00  0.99293400168E+03  0.99293400168E+03  0.00000000000E+00 0. -1.
          2   -1    0    0  501    0  0.00000000000E+00 -0.00000000000E+00 -0.14227401496E+04  0.14227401496E+04  0.00000000000E+00 0.  1.
    2000013    1    1    2    0    0 -0.89547974611E+02  0.68582864198E+03 -0.39614088251E+03  0.12400836120E+04  0.95000000000E+03 0.  0.
   -2000013    1    1    2    0    0  0.89547974611E+02 -0.68582864198E+03 -0.33665265370E+02  0.11755905393E+04  0.95000000000E+03 0.  0.
<mgrwt>
<rscale>  0 0.23771303E+04</rscale>
<asrwt>0</asrwt>
<pdfrwt beam="2">  1        2 0.21888310E+00 0.23771303E+04</pdfrwt>
<pdfrwt beam="1">  1       -2 0.15275908E+00 0.23771303E+04</pdfrwt>
<totfact> 0.36118858E+00</totfact>
</mgrwt>
</event>
<event>
 4    1  0.1323225E-008  0.3013519E+04  0.7816531E-02  0.8239881E-01
          2   -1    0    0  501    0  0.00000000000E+00  0.00000000000E+00  0.14654813937E+04  0.14654813937E+04  0.00000000000E+00 0.  1.
         -2   -1    0    0    0  501 -0.00000000000E+00 -0.00000000000E+00 -0.15492003579E+04  0.15492003579E+04  0.00000000000E+00 0. -1.
    2000013    1    1    2    0    0  0.10974930202E+04  0.25134305895E+03  0.27474332841E+03  0.14985486843E+04  0.95000000000E+03 0.  0.
   -2000013    1    1    2    0    0 -0.10974930202E+04 -0.25134305895E+03 -0.35846229258E+03  0.15161330673E+04  0.95000000000E+03 0.  0.
<mgrwt>
<rscale>  0 0.30135191E+04</rscale>
<asrwt>0</asrwt>
<pdfrwt beam="1">  1        2 0.22545868E+00 0.30135191E+04</pdfrwt>
<pdfrwt beam="2">  1       -2 0.23833852E+00 0.30135191E+04</pdfrwt>
<totfact> 0.86127197E-01</totfact>
</mgrwt>
</event>
<event>
 4    1  0.1323225E-008  0.4517418E+04  0.7816531E-02  0.7907594E-01
          2   -1    0    0  501    0  0.00000000000E+00  0.00000000000E+00  0.15056384112E+04  0.15056384112E+04  0.00000000000E+00 0.  1.
         -2   -1    0    0    0  501 -0.00000000000E+00 -0.00000000000E+00 -0.33884406901E+04  0.33884406901E+04  0.00000000000E+00 0. -1.
    2000013    1    1    2    0    0  0.89466944102E+03  0.16716299604E+04 -0.17837149891E+04  0.27710863024E+04  0.95000000000E+03 0.  0.
   -2000013    1    1    2    0    0 -0.89466944102E+03 -0.16716299604E+04 -0.99087289687E+02  0.21229927989E+04  0.95000000000E+03 0.  0.
<mgrwt>
<rscale>  0 0.45174180E+04</rscale>
<asrwt>0</asrwt>
<pdfrwt beam="1">  1        2 0.23163668E+00 0.45174180E+04</pdfrwt>
<pdfrwt beam="2">  1       -2 0.52129856E+00 0.45174180E+04</pdfrwt>
<totfact> 0.11764789E-02</totfact>
</mgrwt>
</event>
<event>
 4    1  0.1323225E-008  0.2257572E+04  0.7816531E-02  0.8494840E-01
         -2   -1    0    0    0  501 -0.00000000000E+00  0.00000000000E+00  0.43218771685E+03  0.43218771685E+03  0.00000000000E+00 0. -1.
          2   -1    0    0  501    0  0.00000000000E+00 -0.00000000000E+00 -0.29481579889E+04  0.29481579889E+04  0.00000000000E+00 0.  1.
    2000013    1    1    2    0    0  0.19800086201E+03 -0.55692156613E+03 -0.10344266753E+04  0.15237796818E+04  0.95000000000E+03 0.  0.
   -2000013    1    1    2    0    0 -0.19800086201E+03  0.55692156613E+03 -0.14815435968E+04  0.18565660240E+04  0.95000000000E+03 0.  0.
<mgrwt>
<rscale>  0 0.22575719E+04</rscale>
<asrwt>0</asrwt>
<pdfrwt beam="2">  1        2 0.45356276E+00 0.22575719E+04</pdfrwt>
<pdfrwt beam="1">  1       -2 0.66490420E-01 0.22575719E+04</pdfrwt>
<totfact> 0.35507942E+00</totfact>
</mgrwt>
</event>
<event>
 4    1  0.1323225E-008  0.2251583E+04  0.7816531E-02  0.8497260E-01
         -1   -1    0    0    0  501 -0.00000000000E+00  0.00000000000E+00  0.92979782271E+03  0.92979782271E+03  0.00000000000E+00 0. -1.
          1   -1    0    0  501    0  0.00000000000E+00 -0.00000000000E+00 -0.13630989133E+04  0.13630989133E+04  0.00000000000E+00 0.  1.
    2000013    1    1    2    0    0 -0.29152458833E+03  0.50881616074E+03 -0.68986702381E+02  0.11185435334E+04  0.95000000000E+03 0.  0.
   -2000013    1    1    2    0    0  0.29152458833E+03 -0.50881616074E+03 -0.36431438823E+03  0.11743532026E+04  0.95000000000E+03 0.  0.
<mgrwt>
<rscale>  0 0.22515829E+04</rscale>
<asrwt>0</asrwt>
<pdfrwt beam="2">  1        1 0.20970752E+00 0.22515829E+04</pdfrwt>
<pdfrwt beam="1">  1       -1 0.14304582E+00 0.22515829E+04</pdfrwt>
<totfact> 0.29327904E+00</totfact>
</mgrwt>
</event>
<event>
 4    1  0.1323225E-008  0.3446768E+04  0.7816531E-02  0.8126522E-01
          2   -1    0    0  501    0  0.00000000000E+00  0.00000000000E+00  0.17934669877E+04  0.17934669877E+04  0.00000000000E+00 0.  1.
         -2   -1    0    0    0  501 -0.00000000000E+00 -0.00000000000E+00 -0.16560398080E+04  0.16560398080E+04  0.00000000000E+00 0. -1.
    2000013    1    1    2    0    0  0.11842136370E+04 -0.55404273208E+03 -0.53028300519E+03  0.17008895768E+04  0.95000000000E+03 0.  0.
   -2000013    1    1    2    0    0 -0.11842136370E+04  0.55404273208E+03  0.66771018488E+03  0.17486172188E+04  0.95000000000E+03 0.  0.
<mgrwt>
<rscale>  0 0.34467682E+04</rscale>
<asrwt>0</asrwt>
<pdfrwt beam="1">  1        2 0.27591800E+00 0.34467682E+04</pdfrwt>
<pdfrwt beam="2">  1       -2 0.25477535E+00 0.34467682E+04</pdfrwt>
<totfact> 0.43132245E-01</totfact>
</mgrwt>
</event>
<event>
 4    1  0.1323225E-008  0.2800001E+04  0.7816531E-02  0.8303268E-01
         -2   -1    0    0    0  501 -0.00000000000E+00  0.00000000000E+00  0.14098252728E+04  0.14098252728E+04  0.00000000000E+00 0. -1.
          2   -1    0    0  501    0  0.00000000000E+00 -0.00000000000E+00 -0.13902445080E+04  0.13902445080E+04  0.00000000000E+00 0.  1.
    2000013    1    1    2    0    0  0.92060451047E+03 -0.40485275568E+03  0.22446613300E+03  0.14015361085E+04  0.95000000000E+03 0.  0.
   -2000013    1    1    2    0    0 -0.92060451047E+03  0.40485275568E+03 -0.20488536821E+03  0.13985336723E+04  0.95000000000E+03 0.  0.
<mgrwt>
<rscale>  0 0.28000013E+04</rscale>
<asrwt>0</asrwt>
<pdfrwt beam="2">  1        2 0.21388377E+00 0.28000013E+04</pdfrwt>
<pdfrwt beam="1">  1       -2 0.21689620E+00 0.28000013E+04</pdfrwt>
<totfact> 0.13192972E+00</totfact>
</mgrwt>
</event>
<event>
 4    1  0.1323225E-008  0.2370302E+04  0.7816531E-02  0.8450706E-01
         -2   -1    0    0    0  501 -0.00000000000E+00  0.00000000000E+00  0.51106639630E+03  0.51106639630E+03  0.00000000000E+00 0. -1.
          2   -1    0    0  501    0  0.00000000000E+00 -0.00000000000E+00 -0.27483378463E+04  0.27483378463E+04  0.00000000000E+00 0.  1.
    2000013    1    1    2    0    0  0.17643642162E+03  0.54911193978E+03 -0.16846519450E+04  0.20182184988E+04  0.95000000000E+03 0.  0.
   -2000013    1    1    2    0    0 -0.17643642162E+03 -0.54911193978E+03 -0.55261950505E+03  0.12411857438E+04  0.95000000000E+03 0.  0.
<mgrwt>
<rscale>  0 0.23703022E+04</rscale>
<asrwt>0</asrwt>
<pdfrwt beam="2">  1        2 0.42282121E+00 0.23703022E+04</pdfrwt>
<pdfrwt beam="1">  1       -2 0.78625600E-01 0.23703022E+04</pdfrwt>
<totfact> 0.32189857E+00</totfact>
</mgrwt>
</event>
<event>
 4    1  0.1323225E-008  0.2162309E+04  0.7816531E-02  0.8534282E-01
          2   -1    0    0  501    0  0.00000000000E+00  0.00000000000E+00  0.15852050589E+04  0.15852050589E+04  0.00000000000E+00 0. -1.
         -2   -1    0    0    0  501 -0.00000000000E+00 -0.00000000000E+00 -0.73737796976E+03  0.73737796976E+03  0.00000000000E+00 0.  1.
    2000013    1    1    2    0    0 -0.10680206096E+02 -0.32479612330E+03  0.85461983025E+03  0.13185149384E+04  0.95000000000E+03 0.  0.
   -2000013    1    1    2    0    0  0.10680206096E+02  0.32479612330E+03 -0.67927411225E+01  0.10040680902E+04  0.95000000000E+03 0.  0.
<mgrwt>
<rscale>  0 0.21623092E+04</rscale>
<asrwt>0</asrwt>
<pdfrwt beam="1">  1        2 0.24387770E+00 0.21623092E+04</pdfrwt>
<pdfrwt beam="2">  1       -2 0.11344276E+00 0.21623092E+04</pdfrwt>
<totfact> 0.63540091E+00</totfact>
</mgrwt>
</event>
<event>
 4    1  0.1323225E-008  0.2542154E+04  0.7816531E-02  0.8388120E-01
         -2   -1    0    0    0  501 -0.00000000000E+00  0.00000000000E+00  0.64826688690E+03  0.64826688690E+03  0.00000000000E+00 0. -1.
          2   -1    0    0  501    0  0.00000000000E+00 -0.00000000000E+00 -0.24922392706E+04  0.24922392706E+04  0.00000000000E+00 0.  1.
    2000013    1    1    2    0    0  0.54838242747E+03  0.53050246570E+03 -0.47489055988E+03  0.13077374342E+04  0.95000000000E+03 0.  0.
   -2000013    1    1    2    0    0 -0.54838242747E+03 -0.53050246570E+03 -0.13690818238E+04  0.18327687233E+04  0.95000000000E+03 0.  0.
<mgrwt>
<rscale>  0 0.25421536E+04</rscale>
<asrwt>0</asrwt>
<pdfrwt beam="2">  1        2 0.38342142E+00 0.25421536E+04</pdfrwt>
<pdfrwt beam="1">  1       -2 0.99733369E-01 0.25421536E+04</pdfrwt>
<totfact> 0.25981859E+00</totfact>
</mgrwt>
</event>
<event>
 4    1  0.1323225E-008  0.2438587E+04  0.7816531E-02  0.8425197E-01
         -2   -1    0    0    0  501 -0.00000000000E+00  0.00000000000E+00  0.50791791225E+03  0.50791791225E+03  0.00000000000E+00 0. -1.
          2   -1    0    0  501    0  0.00000000000E+00 -0.00000000000E+00 -0.29270009364E+04  0.29270009364E+04  0.00000000000E+00 0.  1.
    2000013    1    1    2    0    0  0.47043578705E+03  0.12869049966E+03 -0.20384522260E+04  0.23012297913E+04  0.95000000000E+03 0.  0.
   -2000013    1    1    2    0    0 -0.47043578705E+03 -0.12869049966E+03 -0.38063079818E+03  0.11336890574E+04  0.95000000000E+03 0.  0.
<mgrwt>
<rscale>  0 0.24385866E+04</rscale>
<asrwt>0</asrwt>
<pdfrwt beam="2">  1        2 0.45030783E+00 0.24385866E+04</pdfrwt>
<pdfrwt beam="1">  1       -2 0.78141219E-01 0.24385866E+04</pdfrwt>
<totfact> 0.25260539E+00</totfact>
</mgrwt>
</event>
<event>
 4    1  0.1323225E-008  0.2232600E+04  0.7816531E-02  0.8504980E-01
         -1   -1    0    0    0  501 -0.00000000000E+00  0.00000000000E+00  0.10534224233E+04  0.10534224233E+04  0.00000000000E+00 0. -1.
          1   -1    0    0  501    0  0.00000000000E+00 -0.00000000000E+00 -0.11829309647E+04  0.11829309647E+04  0.00000000000E+00 0.  1.
    2000013    1    1    2    0    0 -0.27993366682E+02  0.57571833389E+03  0.42152716987E+02  0.11119856474E+04  0.95000000000E+03 0.  0.
   -2000013    1    1    2    0    0  0.27993366682E+02 -0.57571833389E+03 -0.17166125837E+03  0.11243677406E+04  0.95000000000E+03 0.  0.
<mgrwt>
<rscale>  0 0.22326003E+04</rscale>
<asrwt>0</asrwt>
<pdfrwt beam="2">  1        1 0.18198938E+00 0.22326003E+04</pdfrwt>
<pdfrwt beam="1">  1       -1 0.16206499E+00 0.22326003E+04</pdfrwt>
<totfact> 0.28191879E+00</totfact>
</mgrwt>
</event>
<event>
 4    1  0.1323225E-008  0.2079132E+04  0.7816531E-02  0.8570492E-01
          2   -1    0    0  501    0  0.00000000000E+00  0.00000000000E+00  0.28721044098E+04  0.28721044098E+04  0.00000000000E+00 0. -1.
         -2   -1    0    0    0  501 -0.00000000000E+00 -0.00000000000E+00 -0.37627367379E+03  0.37627367379E+03  0.00000000000E+00 0.  1.
    2000013    1    1    2    0    0  0.89968818262E+02 -0.40054438397E+03  0.14015299127E+04  0.17422159131E+04  0.95000000000E+03 0.  0.
   -2000013    1    1    2    0    0 -0.89968818262E+02  0.40054438397E+03  0.10943008233E+04  0.15061621704E+04  0.95000000000E+03 0.  0.
<mgrwt>
<rscale>  0 0.20791318E+04</rscale>
<asrwt>0</asrwt>
<pdfrwt beam="1">  1        2 0.44186220E+00 0.20791318E+04</pdfrwt>
<pdfrwt beam="2">  1       -2 0.57888259E-01 0.20791318E+04</pdfrwt>
<totfact> 0.53965341E+00</totfact>
</mgrwt>
</event>
<event>
 4    1  0.1323225E-008  0.2180911E+04  0.7816531E-02  0.8526416E-01
         -2   -1    0    0    0  501 -0.00000000000E+00  0.00000000000E+00  0.99115087963E+03  0.99115087963E+03  0.00000000000E+00 0. -1.
          2   -1    0    0  501    0  0.00000000000E+00 -0.00000000000E+00 -0.11997097904E+04  0.11997097904E+04  0.00000000000E+00 0.  1.
    2000013    1    1    2    0    0 -0.10250870222E+03  0.51685862914E+03 -0.92830522261E+01  0.10863871555E+04  0.95000000000E+03 0.  0.
   -2000013    1    1    2    0    0  0.10250870222E+03 -0.51685862914E+03 -0.19927585856E+03  0.11044735146E+04  0.95000000000E+03 0.  0.
<mgrwt>
<rscale>  0 0.21809112E+04</rscale>
<asrwt>0</asrwt>
<pdfrwt beam="2">  1        2 0.18457074E+00 0.21809112E+04</pdfrwt>
<pdfrwt beam="1">  1       -2 0.15248475E+00 0.21809112E+04</pdfrwt>
<totfact> 0.49754880E+00</totfact>
</mgrwt>
</event>
<event>
 4    1  0.1323225E-008  0.2439792E+04  0.7816531E-02  0.8424755E-01
          2   -1    0    0  501    0  0.00000000000E+00  0.00000000000E+00  0.28565406929E+04  0.28565406929E+04  0.00000000000E+00 0.  1.
         -2   -1    0    0    0  501 -0.00000000000E+00 -0.00000000000E+00 -0.52096093046E+03  0.52096093046E+03  0.00000000000E+00 0. -1.
    2000013    1    1    2    0    0 -0.71902191850E+03  0.64174696710E+02  0.81611522634E+03  0.14455638947E+04  0.95000000000E+03 0.  0.
   -2000013    1    1    2    0    0  0.71902191850E+03 -0.64174696710E+02  0.15194645361E+04  0.19319377287E+04  0.95000000000E+03 0.  0.
<mgrwt>
<rscale>  0 0.24397919E+04</rscale>
<asrwt>0</asrwt>
<pdfrwt beam="1">  1        2 0.43946779E+00 0.24397919E+04</pdfrwt>
<pdfrwt beam="2">  1       -2 0.80147837E-01 0.24397919E+04</pdfrwt>
<totfact> 0.26361388E+00</totfact>
</mgrwt>
</event>
<event>
 4    1  0.1323225E-008  0.2989673E+04  0.7816531E-02  0.8246686E-01
          2   -1    0    0  501    0  0.00000000000E+00  0.00000000000E+00  0.23611942954E+04  0.23611942954E+04  0.00000000000E+00 0. -1.
         -2   -1    0    0    0  501 -0.00000000000E+00 -0.00000000000E+00 -0.94635856497E+03  0.94635856497E+03  0.00000000000E+00 0.  1.
    2000013    1    1    2    0    0  0.31356620510E+03  0.11098152325E+04  0.75717584551E+03  0.16750608575E+04  0.95000000000E+03 0.  0.
   -2000013    1    1    2    0    0 -0.31356620510E+03 -0.11098152325E+04  0.65765988495E+03  0.16324920029E+04  0.95000000000E+03 0.  0.
<mgrwt>
<rscale>  0 0.29896732E+04</rscale>
<asrwt>0</asrwt>
<pdfrwt beam="1">  1        2 0.36326066E+00 0.29896732E+04</pdfrwt>
<pdfrwt beam="2">  1       -2 0.14559363E+00 0.29896732E+04</pdfrwt>
<totfact> 0.11619269E+00</totfact>
</mgrwt>
</event>
<event>
 4    1  0.1323225E-008  0.2415679E+04  0.7816531E-02  0.8433657E-01
          2   -1    0    0  501    0  0.00000000000E+00  0.00000000000E+00  0.19553075267E+04  0.19553075267E+04  0.00000000000E+00 0.  1.
         -2   -1    0    0    0  501 -0.00000000000E+00 -0.00000000000E+00 -0.74611097670E+03  0.74611097670E+03  0.00000000000E+00 0. -1.
    2000013    1    1    2    0    0 -0.16241715212E+03  0.71743932278E+03  0.46637397823E+03  0.12888379265E+04  0.95000000000E+03 0.  0.
   -2000013    1    1    2    0    0  0.16241715212E+03 -0.71743932278E+03  0.74282257177E+03  0.14125805769E+04  0.95000000000E+03 0.  0.
<mgrwt>
<rscale>  0 0.24156791E+04</rscale>
<asrwt>0</asrwt>
<pdfrwt beam="1">  1        2 0.30081654E+00 0.24156791E+04</pdfrwt>
<pdfrwt beam="2">  1       -2 0.11478630E+00 0.24156791E+04</pdfrwt>
<totfact> 0.37635299E+00</totfact>
</mgrwt>
</event>
<event>
 4    1  0.1323225E-008  0.2570228E+04  0.7816531E-02  0.8378385E-01
          2   -1    0    0  501    0  0.00000000000E+00  0.00000000000E+00  0.57256495145E+03  0.57256495145E+03  0.00000000000E+00 0.  1.
         -2   -1    0    0    0  501 -0.00000000000E+00 -0.00000000000E+00 -0.28844206908E+04  0.28844206908E+04  0.00000000000E+00 0. -1.
    2000013    1    1    2    0    0  0.23494223424E+03  0.65937838691E+03 -0.47137070687E+03  0.12706958935E+04  0.95000000000E+03 0.  0.
   -2000013    1    1    2    0    0 -0.23494223424E+03 -0.65937838691E+03 -0.18404850324E+04  0.21862897487E+04  0.95000000000E+03 0.  0.
<mgrwt>
<rscale>  0 0.25702282E+04</rscale>
<asrwt>0</asrwt>
<pdfrwt beam="1">  1        2 0.88086918E-01 0.25702282E+04</pdfrwt>
<pdfrwt beam="2">  1       -2 0.44375702E+00 0.25702282E+04</pdfrwt>
<totfact> 0.17746960E-01</totfact>
</mgrwt>
</event>
<event>
 4    1  0.1323225E-008  0.2462578E+04  0.7816531E-02  0.8416440E-01
         -2   -1    0    0    0  501 -0.00000000000E+00  0.00000000000E+00  0.13001634121E+04  0.13001634121E+04  0.00000000000E+00 0. -1.
          2   -1    0    0  501    0  0.00000000000E+00 -0.00000000000E+00 -0.11660634585E+04  0.11660634585E+04  0.00000000000E+00 0.  1.
    2000013    1    1    2    0    0 -0.57504411437E+03 -0.33271331115E+03  0.48263365817E+03  0.12557106071E+04  0.95000000000E+03 0.  0.
   -2000013    1    1    2    0    0  0.57504411437E+03  0.33271331115E+03 -0.34853370452E+03  0.12105162634E+04  0.95000000000E+03 0.  0.
<mgrwt>
<rscale>  0 0.24625784E+04</rscale>
<asrwt>0</asrwt>
<pdfrwt beam="2">  1        2 0.17939438E+00 0.24625784E+04</pdfrwt>
<pdfrwt beam="1">  1       -2 0.20002514E+00 0.24625784E+04</pdfrwt>
<totfact> 0.23611044E+00</totfact>
</mgrwt>
</event>
<event>
 4    1  0.1323225E-008  0.2138170E+04  0.7816531E-02  0.8544613E-01
          2   -1    0    0  501    0  0.00000000000E+00  0.00000000000E+00  0.11719518543E+04  0.11719518543E+04  0.00000000000E+00 0.  1.
         -2   -1    0    0    0  501 -0.00000000000E+00 -0.00000000000E+00 -0.97524691992E+03  0.97524691992E+03  0.00000000000E+00 0. -1.
    2000013    1    1    2    0    0 -0.30413787696E+03  0.18530031473E+03  0.43683124128E+03  0.11046074362E+04  0.95000000000E+03 0.  0.
   -2000013    1    1    2    0    0  0.30413787696E+03 -0.18530031473E+03 -0.24012630688E+03  0.10425913380E+04  0.95000000000E+03 0.  0.
<mgrwt>
<rscale>  0 0.21381697E+04</rscale>
<asrwt>0</asrwt>
<pdfrwt beam="1">  1        2 0.18030029E+00 0.21381697E+04</pdfrwt>
<pdfrwt beam="2">  1       -2 0.15003799E+00 0.21381697E+04</pdfrwt>
<totfact> 0.54165668E+00</totfact>
</mgrwt>
</event>
<event>
 4    1  0.1323225E-008  0.2883935E+04  0.7816531E-02  0.8277673E-01
          1   -1    0    0  501    0  0.00000000000E+00  0.00000000000E+00  0.15122485143E+04  0.15122485143E+04  0.00000000000E+00 0. -1.
         -1   -1    0    0    0  501 -0.00000000000E+00 -0.00000000000E+00 -0.13749530827E+04  0.13749530827E+04  0.00000000000E+00 0.  1.
    2000013    1    1    2    0    0 -0.67527050340E+03  0.60459819823E+03  0.66534416321E+03  0.14719755737E+04  0.95000000000E+03 0.  0.
   -2000013    1    1    2    0    0  0.67527050340E+03 -0.60459819823E+03 -0.52804873161E+03  0.14152260233E+04  0.95000000000E+03 0.  0.
<mgrwt>
<rscale>  0 0.28839353E+04</rscale>
<asrwt>0</asrwt>
<pdfrwt beam="1">  1        1 0.23265362E+00 0.28839353E+04</pdfrwt>
<pdfrwt beam="2">  1       -1 0.21153124E+00 0.28839353E+04</pdfrwt>
<totfact> 0.69212799E-01</totfact>
</mgrwt>
</event>
<event>
 4    1  0.1323225E-008  0.2198567E+04  0.7816531E-02  0.8519025E-01
         -2   -1    0    0    0  501 -0.00000000000E+00  0.00000000000E+00  0.10220284745E+04  0.10220284745E+04  0.00000000000E+00 0. -1.
          2   -1    0    0  501    0  0.00000000000E+00 -0.00000000000E+00 -0.11823778518E+04  0.11823778518E+04  0.00000000000E+00 0.  1.
    2000013    1    1    2    0    0 -0.12240617284E+03 -0.19769920180E+03  0.42301045065E+03  0.10656012795E+04  0.95000000000E+03 0.  0.
   -2000013    1    1    2    0    0  0.12240617284E+03  0.19769920180E+03 -0.58335982796E+03  0.11388050467E+04  0.95000000000E+03 0.  0.
<mgrwt>
<rscale>  0 0.21985667E+04</rscale>
<asrwt>0</asrwt>
<pdfrwt beam="2">  1        2 0.18190428E+00 0.21985667E+04</pdfrwt>
<pdfrwt beam="1">  1       -2 0.15723515E+00 0.21985667E+04</pdfrwt>
<totfact> 0.46859417E+00</totfact>
</mgrwt>
</event>
<event>
 4    1  0.1323225E-008  0.2666427E+04  0.7816531E-02  0.8345981E-01
         -2   -1    0    0    0  501 -0.00000000000E+00  0.00000000000E+00  0.79096147688E+03  0.79096147688E+03  0.00000000000E+00 0. -1.
          2   -1    0    0  501    0  0.00000000000E+00 -0.00000000000E+00 -0.22472115195E+04  0.22472115195E+04  0.00000000000E+00 0.  1.
    2000013    1    1    2    0    0 -0.80451384605E+03 -0.19409242894E+03 -0.12248422136E+04  0.17571718321E+04  0.95000000000E+03 0.  0.
   -2000013    1    1    2    0    0  0.80451384605E+03  0.19409242894E+03 -0.23140782905E+03  0.12810011642E+04  0.95000000000E+03 0.  0.
<mgrwt>
<rscale>  0 0.26664266E+04</rscale>
<asrwt>0</asrwt>
<pdfrwt beam="2">  1        2 0.34572485E+00 0.26664266E+04</pdfrwt>
<pdfrwt beam="1">  1       -2 0.12168638E+00 0.26664266E+04</pdfrwt>
<totfact> 0.21909455E+00</totfact>
</mgrwt>
</event>
<event>
 4    1  0.1323225E-008  0.2447137E+04  0.7816531E-02  0.8422064E-01
          1   -1    0    0  501    0  0.00000000000E+00  0.00000000000E+00  0.11044444912E+04  0.11044444912E+04  0.00000000000E+00 0.  1.
         -1   -1    0    0    0  501 -0.00000000000E+00 -0.00000000000E+00 -0.13555410063E+04  0.13555410063E+04  0.00000000000E+00 0. -1.
    2000013    1    1    2    0    0  0.44760202929E+03 -0.41339943891E+03 -0.60065340297E+03  0.12784878502E+04  0.95000000000E+03 0.  0.
   -2000013    1    1    2    0    0 -0.44760202929E+03  0.41339943891E+03  0.34955688782E+03  0.11814976473E+04  0.95000000000E+03 0.  0.
<mgrwt>
<rscale>  0 0.24471369E+04</rscale>
<asrwt>0</asrwt>
<pdfrwt beam="1">  1        1 0.16991454E+00 0.24471369E+04</pdfrwt>
<pdfrwt beam="2">  1       -1 0.20854477E+00 0.24471369E+04</pdfrwt>
<totfact> 0.14767769E+00</totfact>
</mgrwt>
</event>
<event>
 4    1  0.1323225E-008  0.3136981E+04  0.7816531E-02  0.8205661E-01
          2   -1    0    0  501    0  0.00000000000E+00  0.00000000000E+00  0.30557499945E+04  0.30557499945E+04  0.00000000000E+00 0.  1.
         -2   -1    0    0    0  501 -0.00000000000E+00 -0.00000000000E+00 -0.80509279887E+03  0.80509279887E+03  0.00000000000E+00 0. -1.
    2000013    1    1    2    0    0  0.12490440914E+03  0.12280287337E+04  0.13522900295E+04  0.20627273223E+04  0.95000000000E+03 0.  0.
   -2000013    1    1    2    0    0 -0.12490440914E+03 -0.12280287337E+04  0.89836716606E+03  0.17981154710E+04  0.95000000000E+03 0.  0.
<mgrwt>
<rscale>  0 0.31369809E+04</rscale>
<asrwt>0</asrwt>
<pdfrwt beam="1">  1        2 0.47011538E+00 0.31369809E+04</pdfrwt>
<pdfrwt beam="2">  1       -2 0.12386043E+00 0.31369809E+04</pdfrwt>
<totfact> 0.66635017E-01</totfact>
</mgrwt>
</event>
<event>
 4    1  0.1323225E-008  0.2307709E+04  0.7816531E-02  0.8474888E-01
          2   -1    0    0  501    0  0.00000000000E+00  0.00000000000E+00  0.10239208235E+04  0.10239208235E+04  0.00000000000E+00 0.  1.
         -2   -1    0    0    0  501 -0.00000000000E+00 -0.00000000000E+00 -0.13002759963E+04  0.13002759963E+04  0.00000000000E+00 0. -1.
    2000013    1    1    2    0    0  0.30921316265E+03  0.55655206999E+03  0.16269589883E+02  0.11437340976E+04  0.95000000000E+03 0.  0.
   -2000013    1    1    2    0    0 -0.30921316265E+03 -0.55655206999E+03 -0.29262476272E+03  0.11804627221E+04  0.95000000000E+03 0.  0.
<mgrwt>
<rscale>  0 0.23077085E+04</rscale>
<asrwt>0</asrwt>
<pdfrwt beam="1">  1        2 0.15752628E+00 0.23077085E+04</pdfrwt>
<pdfrwt beam="2">  1       -2 0.20004246E+00 0.23077085E+04</pdfrwt>
<totfact> 0.29276707E+00</totfact>
</mgrwt>
</event>
<event>
 4    1  0.1323225E-008  0.2399383E+04  0.7816531E-02  0.8439734E-01
         -2   -1    0    0    0  501 -0.00000000000E+00  0.00000000000E+00  0.86544315033E+03  0.86544315033E+03  0.00000000000E+00 0. -1.
          2   -1    0    0  501    0  0.00000000000E+00 -0.00000000000E+00 -0.16630325305E+04  0.16630325305E+04  0.00000000000E+00 0.  1.
    2000013    1    1    2    0    0 -0.69377672802E+03 -0.17790661574E+03 -0.56131000171E+03  0.13155021210E+04  0.95000000000E+03 0.  0.
   -2000013    1    1    2    0    0  0.69377672802E+03  0.17790661574E+03 -0.23627937849E+03  0.12129735599E+04  0.95000000000E+03 0.  0.
<mgrwt>
<rscale>  0 0.23993833E+04</rscale>
<asrwt>0</asrwt>
<pdfrwt beam="2">  1        2 0.25585116E+00 0.23993833E+04</pdfrwt>
<pdfrwt beam="1">  1       -2 0.13314510E+00 0.23993833E+04</pdfrwt>
<totfact> 0.37800050E+00</totfact>
</mgrwt>
</event>
<event>
 4    1  0.1323225E-008  0.3175749E+04  0.7816531E-02  0.8195251E-01
          2   -1    0    0  501    0  0.00000000000E+00  0.00000000000E+00  0.12686486938E+04  0.12686486938E+04  0.00000000000E+00 0.  1.
         -2   -1    0    0    0  501 -0.00000000000E+00 -0.00000000000E+00 -0.19874259951E+04  0.19874259951E+04  0.00000000000E+00 0. -1.
    2000013    1    1    2    0    0  0.27749033168E+03 -0.12357396974E+04 -0.23469041685E+03  0.16005102548E+04  0.95000000000E+03 0.  0.
   -2000013    1    1    2    0    0 -0.27749033168E+03  0.12357396974E+04 -0.48408688452E+03  0.16555644342E+04  0.95000000000E+03 0.  0.
<mgrwt>
<rscale>  0 0.31757490E+04</rscale>
<asrwt>0</asrwt>
<pdfrwt beam="1">  1        2 0.19517672E+00 0.31757490E+04</pdfrwt>
<pdfrwt beam="2">  1       -2 0.30575784E+00 0.31757490E+04</pdfrwt>
<totfact> 0.42631930E-01</totfact>
</mgrwt>
</event>
<event>
 4    1  0.1323225E-008  0.4704866E+04  0.7816531E-02  0.7875721E-01
          2   -1    0    0  501    0  0.00000000000E+00  0.00000000000E+00  0.29778003064E+04  0.29778003064E+04  0.00000000000E+00 0.  1.
         -2   -1    0    0    0  501 -0.00000000000E+00 -0.00000000000E+00 -0.18583988577E+04  0.18583988577E+04  0.00000000000E+00 0. -1.
    2000013    1    1    2    0    0  0.12570209556E+04 -0.94456572763E+03  0.20701174618E+04  0.27677052593E+04  0.95000000000E+03 0.  0.
   -2000013    1    1    2    0    0 -0.12570209556E+04  0.94456572763E+03 -0.95071601314E+03  0.20684939048E+04  0.95000000000E+03 0.  0.
<mgrwt>
<rscale>  0 0.47048659E+04</rscale>
<asrwt>0</asrwt>
<pdfrwt beam="1">  1        2 0.45812312E+00 0.47048659E+04</pdfrwt>
<pdfrwt beam="2">  1       -2 0.28590752E+00 0.47048659E+04</pdfrwt>
<totfact> 0.51904943E-02</totfact>
</mgrwt>
</event>
<event>
 4    1  0.1323225E-008  0.2700485E+04  0.7816531E-02  0.8334848E-01
         -2   -1    0    0    0  501 -0.00000000000E+00  0.00000000000E+00  0.13370008079E+04  0.13370008079E+04  0.00000000000E+00 0. -1.
          2   -1    0    0  501    0  0.00000000000E+00 -0.00000000000E+00 -0.13636156806E+04  0.13636156806E+04  0.00000000000E+00 0.  1.
    2000013    1    1    2    0    0  0.78371046113E+03 -0.73941312884E+02 -0.56195586441E+03  0.13557152349E+04  0.95000000000E+03 0.  0.
   -2000013    1    1    2    0    0 -0.78371046113E+03  0.73941312884E+02  0.53534099168E+03  0.13449012536E+04  0.95000000000E+03 0.  0.
<mgrwt>
<rscale>  0 0.27004853E+04</rscale>
<asrwt>0</asrwt>
<pdfrwt beam="2">  1        2 0.20978703E+00 0.27004853E+04</pdfrwt>
<pdfrwt beam="1">  1       -2 0.20569243E+00 0.27004853E+04</pdfrwt>
<totfact> 0.16264316E+00</totfact>
</mgrwt>
</event>
<event>
 4    1  0.1323225E-008  0.2943398E+04  0.7816531E-02  0.8260081E-01
         -2   -1    0    0    0  501 -0.00000000000E+00  0.00000000000E+00  0.84491120385E+03  0.84491120385E+03  0.00000000000E+00 0. -1.
          2   -1    0    0  501    0  0.00000000000E+00 -0.00000000000E+00 -0.25634614494E+04  0.25634614494E+04  0.00000000000E+00 0.  1.
    2000013    1    1    2    0    0 -0.44679528650E+02 -0.11078940241E+04 -0.64584393815E+03  0.15965712704E+04  0.95000000000E+03 0.  0.
   -2000013    1    1    2    0    0  0.44679528650E+02  0.11078940241E+04 -0.10727063074E+04  0.18118013828E+04  0.95000000000E+03 0.  0.
<mgrwt>
<rscale>  0 0.29433976E+04</rscale>
<asrwt>0</asrwt>
<pdfrwt beam="2">  1        2 0.39437868E+00 0.29433976E+04</pdfrwt>
<pdfrwt beam="1">  1       -2 0.12998634E+00 0.29433976E+04</pdfrwt>
<totfact> 0.11941132E+00</totfact>
</mgrwt>
</event>
<event>
 4    1  0.1323225E-008  0.2434359E+04  0.7816531E-02  0.8426751E-01
          2   -1    0    0  501    0  0.00000000000E+00  0.00000000000E+00  0.31456094632E+04  0.31456094632E+04  0.00000000000E+00 0.  1.
         -2   -1    0    0    0  501 -0.00000000000E+00 -0.00000000000E+00 -0.47098229852E+03  0.47098229852E+03  0.00000000000E+00 0. -1.
    2000013    1    1    2    0    0 -0.72143454974E+03 -0.79681796054E+02  0.16767739325E+04  0.20593415984E+04  0.95000000000E+03 0.  0.
   -2000013    1    1    2    0    0  0.72143454974E+03  0.79681796054E+02  0.99785323214E+03  0.15572501633E+04  0.95000000000E+03 0.  0.
<mgrwt>
<rscale>  0 0.24343594E+04</rscale>
<asrwt>0</asrwt>
<pdfrwt beam="1">  1        2 0.48393990E+00 0.24343594E+04</pdfrwt>
<pdfrwt beam="2">  1       -2 0.72458817E-01 0.24343594E+04</pdfrwt>
<totfact> 0.21750432E+00</totfact>
</mgrwt>
</event>
<event>
 4    1  0.1323225E-008  0.2662749E+04  0.7816531E-02  0.8347194E-01
         -2   -1    0    0    0  501 -0.00000000000E+00  0.00000000000E+00  0.54568524898E+03  0.54568524898E+03  0.00000000000E+00 0. -1.
          2   -1    0    0  501    0  0.00000000000E+00 -0.00000000000E+00 -0.32483149067E+04  0.32483149067E+04  0.00000000000E+00 0.  1.
    2000013    1    1    2    0    0  0.80147488331E+02 -0.38396088314E+03 -0.25571466697E+04  0.27559660139E+04  0.95000000000E+03 0.  0.
   -2000013    1    1    2    0    0 -0.80147488331E+02  0.38396088314E+03 -0.14548298806E+03  0.10380341418E+04  0.95000000000E+03 0.  0.
<mgrwt>
<rscale>  0 0.26627486E+04</rscale>
<asrwt>0</asrwt>
<pdfrwt beam="2">  1        2 0.49974077E+00 0.26627486E+04</pdfrwt>
<pdfrwt beam="1">  1       -2 0.83951575E-01 0.26627486E+04</pdfrwt>
<totfact> 0.13147292E+00</totfact>
</mgrwt>
</event>
<event>
 4    1  0.1323225E-008  0.3095012E+04  0.7816531E-02  0.8217108E-01
         -2   -1    0    0    0  501 -0.00000000000E+00  0.00000000000E+00  0.11516597401E+04  0.11516597401E+04  0.00000000000E+00 0. -1.
          2   -1    0    0  501    0  0.00000000000E+00 -0.00000000000E+00 -0.20794118649E+04  0.20794118649E+04  0.00000000000E+00 0.  1.
    2000013    1    1    2    0    0  0.61885509159E+03 -0.10012263751E+04 -0.12264446199E+03  0.15175564381E+04  0.95000000000E+03 0.  0.
   -2000013    1    1    2    0    0 -0.61885509159E+03  0.10012263751E+04 -0.80510766275E+03  0.17135151669E+04  0.95000000000E+03 0.  0.
<mgrwt>
<rscale>  0 0.30950121E+04</rscale>
<asrwt>0</asrwt>
<pdfrwt beam="2">  1        2 0.31990951E+00 0.30950121E+04</pdfrwt>
<pdfrwt beam="1">  1       -2 0.17717842E+00 0.30950121E+04</pdfrwt>
<totfact> 0.97220831E-01</totfact>
</mgrwt>
</event>
<event>
 4    1  0.1323225E-008  0.2947896E+04  0.7816531E-02  0.8258768E-01
         -2   -1    0    0    0  501 -0.00000000000E+00  0.00000000000E+00  0.97786129662E+03  0.97786129662E+03  0.00000000000E+00 0. -1.
          2   -1    0    0  501    0  0.00000000000E+00 -0.00000000000E+00 -0.22217080815E+04  0.22217080815E+04  0.00000000000E+00 0.  1.
    2000013    1    1    2    0    0  0.11231610081E+04  0.86270279860E+02 -0.58610384836E+03  0.15858596825E+04  0.95000000000E+03 0.  0.
   -2000013    1    1    2    0    0 -0.11231610081E+04 -0.86270279860E+02 -0.65774293654E+03  0.16137096957E+04  0.95000000000E+03 0.  0.
<mgrwt>
<rscale>  0 0.29478958E+04</rscale>
<asrwt>0</asrwt>
<pdfrwt beam="2">  1        2 0.34180124E+00 0.29478958E+04</pdfrwt>
<pdfrwt beam="1">  1       -2 0.15044020E+00 0.29478958E+04</pdfrwt>
<totfact> 0.12830701E+00</totfact>
</mgrwt>
</event>
<event>
 4    1  0.1323225E-008  0.2523151E+04  0.7816531E-02  0.8394784E-01
         -1   -1    0    0    0  501 -0.00000000000E+00  0.00000000000E+00  0.17553830539E+04  0.17553830539E+04  0.00000000000E+00 0.  1.
          1   -1    0    0  501    0  0.00000000000E+00 -0.00000000000E+00 -0.90668141769E+03  0.90668141769E+03  0.00000000000E+00 0. -1.
    2000013    1    1    2    0    0 -0.17037404336E+03 -0.80816083627E+03  0.33657208557E+03  0.13030472059E+04  0.95000000000E+03 0.  0.
   -2000013    1    1    2    0    0  0.17037404336E+03  0.80816083627E+03  0.51212955066E+03  0.13590172657E+04  0.95000000000E+03 0.  0.
<mgrwt>
<rscale>  0 0.25231514E+04</rscale>
<asrwt>0</asrwt>
<pdfrwt beam="2">  1        1 0.13948945E+00 0.25231514E+04</pdfrwt>
<pdfrwt beam="1">  1       -1 0.27005893E+00 0.25231514E+04</pdfrwt>
<totfact> 0.82240998E-01</totfact>
</mgrwt>
</event>
<event>
 4    1  0.1323225E-008  0.2160103E+04  0.7816531E-02  0.8535220E-01
          2   -1    0    0  501    0  0.00000000000E+00  0.00000000000E+00  0.10002169607E+04  0.10002169607E+04  0.00000000000E+00 0.  1.
         -2   -1    0    0    0  501 -0.00000000000E+00 -0.00000000000E+00 -0.11662579834E+04  0.11662579834E+04  0.00000000000E+00 0. -1.
    2000013    1    1    2    0    0  0.35870101292E+03  0.35506603653E+03 -0.17959947890E+03  0.10906393904E+04  0.95000000000E+03 0.  0.
   -2000013    1    1    2    0    0 -0.35870101292E+03 -0.35506603653E+03  0.13558456169E+02  0.10758355537E+04  0.95000000000E+03 0.  0.
<mgrwt>
<rscale>  0 0.21601028E+04</rscale>
<asrwt>0</asrwt>
<pdfrwt beam="1">  1        2 0.15387953E+00 0.21601028E+04</pdfrwt>
<pdfrwt beam="2">  1       -2 0.17942431E+00 0.21601028E+04</pdfrwt>
<totfact> 0.42248084E+00</totfact>
</mgrwt>
</event>
<event>
 4    1  0.1323225E-008  0.2150898E+04  0.7816531E-02  0.8539148E-01
         -2   -1    0    0    0  501 -0.00000000000E+00  0.00000000000E+00  0.10369896755E+04  0.10369896755E+04  0.00000000000E+00 0. -1.
          2   -1    0    0  501    0  0.00000000000E+00 -0.00000000000E+00 -0.11153345948E+04  0.11153345948E+04  0.00000000000E+00 0.  1.
    2000013    1    1    2    0    0 -0.65367476386E+02  0.49780411892E+03  0.56747992334E+01  0.10745296883E+04  0.95000000000E+03 0.  0.
   -2000013    1    1    2    0    0  0.65367476386E+02 -0.49780411892E+03 -0.84019718619E+02  0.10777945820E+04  0.95000000000E+03 0.  0.
<mgrwt>
<rscale>  0 0.21508979E+04</rscale>
<asrwt>0</asrwt>
<pdfrwt beam="2">  1        2 0.17158994E+00 0.21508979E+04</pdfrwt>
<pdfrwt beam="1">  1       -2 0.15953687E+00 0.21508979E+04</pdfrwt>
<totfact> 0.49668331E+00</totfact>
</mgrwt>
</event>
<event>
 4    1  0.1323225E-008  0.2828777E+04  0.7816531E-02  0.8294390E-01
         -2   -1    0    0    0  501 -0.00000000000E+00  0.00000000000E+00  0.94584040685E+03  0.94584040685E+03  0.00000000000E+00 0.  1.
          2   -1    0    0  501    0  0.00000000000E+00 -0.00000000000E+00 -0.21150444580E+04  0.21150444580E+04  0.00000000000E+00 0. -1.
    2000013    1    1    2    0    0  0.26171384474E+03  0.98672512765E+03 -0.32883014529E+03  0.14327420837E+04  0.95000000000E+03 0.  0.
   -2000013    1    1    2    0    0 -0.26171384474E+03 -0.98672512765E+03 -0.84037390587E+03  0.16281427811E+04  0.95000000000E+03 0.  0.
<mgrwt>
<rscale>  0 0.28287768E+04</rscale>
<asrwt>0</asrwt>
<pdfrwt beam="2">  1        2 0.32539145E+00 0.28287768E+04</pdfrwt>
<pdfrwt beam="1">  1       -2 0.14551391E+00 0.28287768E+04</pdfrwt>
<totfact> 0.16242053E+00</totfact>
</mgrwt>
</event>
<event>
 4    1  0.1323225E-008  0.3310058E+04  0.7816531E-02  0.8160341E-01
          2   -1    0    0  501    0  0.00000000000E+00  0.00000000000E+00  0.18293345308E+04  0.18293345308E+04  0.00000000000E+00 0.  1.
         -2   -1    0    0    0  501 -0.00000000000E+00 -0.00000000000E+00 -0.14973322183E+04  0.14973322183E+04  0.00000000000E+00 0. -1.
    2000013    1    1    2    0    0 -0.12281065849E+04  0.29918921327E+03  0.65718806657E+03  0.17123539716E+04  0.95000000000E+03 0.  0.
   -2000013    1    1    2    0    0  0.12281065849E+04 -0.29918921327E+03 -0.32518575411E+03  0.16143127776E+04  0.95000000000E+03 0.  0.
<mgrwt>
<rscale>  0 0.33100583E+04</rscale>
<asrwt>0</asrwt>
<pdfrwt beam="1">  1        2 0.28143608E+00 0.33100583E+04</pdfrwt>
<pdfrwt beam="2">  1       -2 0.23035881E+00 0.33100583E+04</pdfrwt>
<totfact> 0.58999665E-01</totfact>
</mgrwt>
</event>
<event>
 4    1  0.1323225E-008  0.3822099E+04  0.7816531E-02  0.8041429E-01
          2   -1    0    0  501    0  0.00000000000E+00  0.00000000000E+00  0.24182116940E+04  0.24182116940E+04  0.00000000000E+00 0.  1.
         -2   -1    0    0    0  501 -0.00000000000E+00 -0.00000000000E+00 -0.15102521921E+04  0.15102521921E+04  0.00000000000E+00 0. -1.
    2000013    1    1    2    0    0 -0.99733274816E+02  0.15571463140E+04 -0.12284952445E+03  0.18309132626E+04  0.95000000000E+03 0.  0.
   -2000013    1    1    2    0    0  0.99733274816E+02 -0.15571463140E+04  0.10308090263E+04  0.20975506235E+04  0.95000000000E+03 0.  0.
<mgrwt>
<rscale>  0 0.38220986E+04</rscale>
<asrwt>0</asrwt>
<pdfrwt beam="1">  1        2 0.37203257E+00 0.38220986E+04</pdfrwt>
<pdfrwt beam="2">  1       -2 0.23234649E+00 0.38220986E+04</pdfrwt>
<totfact> 0.25675184E-01</totfact>
</mgrwt>
</event>
<event>
 4    1  0.1323225E-008  0.2388548E+04  0.7816531E-02  0.8443803E-01
         -2   -1    0    0    0  501 -0.00000000000E+00  0.00000000000E+00  0.10286491282E+04  0.10286491282E+04  0.00000000000E+00 0. -1.
          2   -1    0    0  501    0  0.00000000000E+00 -0.00000000000E+00 -0.13865669154E+04  0.13865669154E+04  0.00000000000E+00 0.  1.
    2000013    1    1    2    0    0  0.55437177807E+03 -0.44827210949E+03 -0.30490837388E+03  0.12262728363E+04  0.95000000000E+03 0.  0.
   -2000013    1    1    2    0    0 -0.55437177807E+03  0.44827210949E+03 -0.53009413319E+02  0.11889432074E+04  0.95000000000E+03 0.  0.
<mgrwt>
<rscale>  0 0.23885484E+04</rscale>
<asrwt>0</asrwt>
<pdfrwt beam="2">  1        2 0.21331799E+00 0.23885484E+04</pdfrwt>
<pdfrwt beam="1">  1       -2 0.15825371E+00 0.23885484E+04</pdfrwt>
<totfact> 0.34412347E+00</totfact>
</mgrwt>
</event>
<event>
 4    1  0.1323225E-008  0.2358960E+04  0.7816531E-02  0.8455030E-01
         -2   -1    0    0    0  501 -0.00000000000E+00  0.00000000000E+00  0.52479117503E+03  0.52479117503E+03  0.00000000000E+00 0. -1.
          2   -1    0    0  501    0  0.00000000000E+00 -0.00000000000E+00 -0.26509085175E+04  0.26509085175E+04  0.00000000000E+00 0.  1.
    2000013    1    1    2    0    0  0.19832180752E+03  0.56304386313E+03 -0.57335063474E+03  0.12599924133E+04  0.95000000000E+03 0.  0.
   -2000013    1    1    2    0    0 -0.19832180752E+03 -0.56304386313E+03 -0.15527667077E+04  0.19157072792E+04  0.95000000000E+03 0.  0.
<mgrwt>
<rscale>  0 0.23589603E+04</rscale>
<asrwt>0</asrwt>
<pdfrwt beam="2">  1        2 0.40783208E+00 0.23589603E+04</pdfrwt>
<pdfrwt beam="1">  1       -2 0.80737103E-01 0.23589603E+04</pdfrwt>
<totfact> 0.34696334E+00</totfact>
</mgrwt>
</event>
<event>
 4    1  0.1323225E-008  0.2685773E+04  0.7816531E-02  0.8339636E-01
         -2   -1    0    0    0  501 -0.00000000000E+00  0.00000000000E+00  0.20998208348E+04  0.20998208348E+04  0.00000000000E+00 0. -1.
          2   -1    0    0  501    0  0.00000000000E+00 -0.00000000000E+00 -0.85880859594E+03  0.85880859594E+03  0.00000000000E+00 0.  1.
    2000013    1    1    2    0    0 -0.83047624101E+03  0.35647274056E+03  0.93993127742E+03  0.16132992307E+04  0.95000000000E+03 0.  0.
   -2000013    1    1    2    0    0  0.83047624101E+03 -0.35647274056E+03  0.30108096143E+03  0.13453302000E+04  0.95000000000E+03 0.  0.
<mgrwt>
<rscale>  0 0.26857730E+04</rscale>
<asrwt>0</asrwt>
<pdfrwt beam="2">  1        2 0.13212440E+00 0.26857730E+04</pdfrwt>
<pdfrwt beam="1">  1       -2 0.32304936E+00 0.26857730E+04</pdfrwt>
<totfact> 0.63019564E-01</totfact>
</mgrwt>
</event>
<event>
 4    1  0.1323225E-008  0.2284030E+04  0.7816531E-02  0.8484244E-01
         -1   -1    0    0    0  501 -0.00000000000E+00  0.00000000000E+00  0.24417963607E+04  0.24417963607E+04  0.00000000000E+00 0. -1.
          1   -1    0    0  501    0  0.00000000000E+00 -0.00000000000E+00 -0.53411442923E+03  0.53411442923E+03  0.00000000000E+00 0.  1.
    2000013    1    1    2    0    0 -0.54015525301E+03 -0.33152440678E+03  0.94765519523E+03  0.14839900602E+04  0.95000000000E+03 0.  0.
   -2000013    1    1    2    0    0  0.54015525301E+03  0.33152440678E+03  0.96002673629E+03  0.14919207298E+04  0.95000000000E+03 0.  0.
<mgrwt>
<rscale>  0 0.22840304E+04</rscale>
<asrwt>0</asrwt>
<pdfrwt beam="2">  1        1 0.82171452E-01 0.22840304E+04</pdfrwt>
<pdfrwt beam="1">  1       -1 0.37566097E+00 0.22840304E+04</pdfrwt>
<totfact> 0.38329847E-01</totfact>
</mgrwt>
</event>
<event>
 4    1  0.1323225E-008  0.2750195E+04  0.7816531E-02  0.8318900E-01
          2   -1    0    0  501    0  0.00000000000E+00  0.00000000000E+00  0.10306702070E+04  0.10306702070E+04  0.00000000000E+00 0.  1.
         -2   -1    0    0    0  501 -0.00000000000E+00 -0.00000000000E+00 -0.18346242314E+04  0.18346242314E+04  0.00000000000E+00 0. -1.
    2000013    1    1    2    0    0 -0.97409504649E+03 -0.10624309965E+03 -0.57706939421E+03  0.14817752331E+04  0.95000000000E+03 0.  0.
   -2000013    1    1    2    0    0  0.97409504649E+03  0.10624309965E+03 -0.22688463018E+03  0.13835192052E+04  0.95000000000E+03 0.  0.
<mgrwt>
<rscale>  0 0.27501946E+04</rscale>
<asrwt>0</asrwt>
<pdfrwt beam="1">  1        2 0.15856465E+00 0.27501946E+04</pdfrwt>
<pdfrwt beam="2">  1       -2 0.28224988E+00 0.27501946E+04</pdfrwt>
<totfact> 0.85829850E-01</totfact>
</mgrwt>
</event>
<event>
 4    1  0.1323225E-008  0.2084164E+04  0.7816531E-02  0.8568252E-01
          2   -1    0    0  501    0  0.00000000000E+00  0.00000000000E+00  0.15607431312E+04  0.15607431312E+04  0.00000000000E+00 0.  1.
         -2   -1    0    0    0  501 -0.00000000000E+00 -0.00000000000E+00 -0.69578048684E+03  0.69578048684E+03  0.00000000000E+00 0. -1.
    2000013    1    1    2    0    0 -0.29806204848E+03 -0.30555657933E+03  0.39452798114E+03  0.11137136687E+04  0.95000000000E+03 0.  0.
   -2000013    1    1    2    0    0  0.29806204848E+03  0.30555657933E+03  0.47043466318E+03  0.11428099493E+04  0.95000000000E+03 0.  0.
<mgrwt>
<rscale>  0 0.20841637E+04</rscale>
<asrwt>0</asrwt>
<pdfrwt beam="1">  1        2 0.24011433E+00 0.20841637E+04</pdfrwt>
<pdfrwt beam="2">  1       -2 0.10704315E+00 0.20841637E+04</pdfrwt>
<totfact> 0.75977569E+00</totfact>
</mgrwt>
</event>
<event>
 4    1  0.1323225E-008  0.2362752E+04  0.7816531E-02  0.8453582E-01
          2   -1    0    0  501    0  0.00000000000E+00  0.00000000000E+00  0.11789827961E+04  0.11789827961E+04  0.00000000000E+00 0.  1.
         -2   -1    0    0    0  501 -0.00000000000E+00 -0.00000000000E+00 -0.11837738392E+04  0.11837738392E+04  0.00000000000E+00 0. -1.
    2000013    1    1    2    0    0  0.37946780862E+03  0.50714964683E+03  0.30084165774E+03  0.11807634332E+04  0.95000000000E+03 0.  0.
   -2000013    1    1    2    0    0 -0.37946780862E+03 -0.50714964683E+03 -0.30563270080E+03  0.11819932021E+04  0.95000000000E+03 0.  0.
<mgrwt>
<rscale>  0 0.23627518E+04</rscale>
<asrwt>0</asrwt>
<pdfrwt beam="1">  1        2 0.18138197E+00 0.23627518E+04</pdfrwt>
<pdfrwt beam="2">  1       -2 0.18211905E+00 0.23627518E+04</pdfrwt>
<totfact> 0.30836257E+00</totfact>
</mgrwt>
</event>
<event>
 4    1  0.1323225E-008  0.2598815E+04  0.7816531E-02  0.8368604E-01
          2   -1    0    0  501    0  0.00000000000E+00  0.00000000000E+00  0.17749469448E+04  0.17749469448E+04  0.00000000000E+00 0.  1.
         -2   -1    0    0    0  501 -0.00000000000E+00 -0.00000000000E+00 -0.95127307870E+03  0.95127307870E+03  0.00000000000E+00 0. -1.
    2000013    1    1    2    0    0 -0.77750532890E+03  0.37658942320E+03  0.20301751463E+03  0.13000193235E+04  0.95000000000E+03 0.  0.
   -2000013    1    1    2    0    0  0.77750532890E+03 -0.37658942320E+03  0.62065635147E+03  0.14262007000E+04  0.95000000000E+03 0.  0.
<mgrwt>
<rscale>  0 0.25988145E+04</rscale>
<asrwt>0</asrwt>
<pdfrwt beam="1">  1        2 0.27306876E+00 0.25988145E+04</pdfrwt>
<pdfrwt beam="2">  1       -2 0.14634970E+00 0.25988145E+04</pdfrwt>
<totfact> 0.25208859E+00</totfact>
</mgrwt>
</event>
<event>
 4    1  0.1323225E-008  0.2132827E+04  0.7816531E-02  0.8546919E-01
         -4   -1    0    0    0  501 -0.00000000000E+00  0.00000000000E+00  0.10217265428E+04  0.10217265428E+04  0.00000000000E+00 0. -1.
          4   -1    0    0  501    0  0.00000000000E+00 -0.00000000000E+00 -0.11130544805E+04  0.11130544805E+04  0.00000000000E+00 0.  1.
    2000013    1    1    2    0    0 -0.31373606272E+03  0.29817883201E+03 -0.26357054914E+03  0.10767127599E+04  0.95000000000E+03 0.  0.
   -2000013    1    1    2    0    0  0.31373606272E+03 -0.29817883201E+03  0.17224261144E+03  0.10580682634E+04  0.95000000000E+03 0.  0.
<mgrwt>
<rscale>  0 0.21328266E+04</rscale>
<asrwt>0</asrwt>
<pdfrwt beam="2">  1        4 0.17123915E+00 0.21328266E+04</pdfrwt>
<pdfrwt beam="1">  1       -4 0.15718870E+00 0.21328266E+04</pdfrwt>
<totfact> 0.10000482E-01</totfact>
</mgrwt>
</event>
<event>
 4    1  0.1323225E-008  0.2063791E+04  0.7816531E-02  0.8577364E-01
          2   -1    0    0  501    0  0.00000000000E+00  0.00000000000E+00  0.11989393718E+04  0.11989393718E+04  0.00000000000E+00 0. -1.
         -2   -1    0    0    0  501 -0.00000000000E+00 -0.00000000000E+00 -0.88812514139E+03  0.88812514139E+03  0.00000000000E+00 0.  1.
    2000013    1    1    2    0    0  0.21664018616E+03  0.30540850208E+03  0.50669836809E+01  0.10211429859E+04  0.95000000000E+03 0.  0.
   -2000013    1    1    2    0    0 -0.21664018616E+03 -0.30540850208E+03  0.30574724674E+03  0.10659215273E+04  0.95000000000E+03 0.  0.
<mgrwt>
<rscale>  0 0.20637909E+04</rscale>
<asrwt>0</asrwt>
<pdfrwt beam="1">  1        2 0.18445221E+00 0.20637909E+04</pdfrwt>
<pdfrwt beam="2">  1       -2 0.13663464E+00 0.20637909E+04</pdfrwt>
<totfact> 0.67074257E+00</totfact>
</mgrwt>
</event>
<event>
 4    1  0.1323225E-008  0.3583042E+04  0.7816531E-02  0.8094387E-01
         -2   -1    0    0    0  501 -0.00000000000E+00  0.00000000000E+00  0.23522661589E+04  0.23522661589E+04  0.00000000000E+00 0. -1.
          2   -1    0    0  501    0  0.00000000000E+00 -0.00000000000E+00 -0.13644488831E+04  0.13644488831E+04  0.00000000000E+00 0.  1.
    2000013    1    1    2    0    0  0.13559048533E+04 -0.50332414632E+02  0.12020450979E+04  0.20465638863E+04  0.95000000000E+03 0.  0.
   -2000013    1    1    2    0    0 -0.13559048533E+04  0.50332414632E+02 -0.21422782210E+03  0.16701511557E+04  0.95000000000E+03 0.  0.
<mgrwt>
<rscale>  0 0.35830417E+04</rscale>
<asrwt>0</asrwt>
<pdfrwt beam="2">  1        2 0.20991521E+00 0.35830417E+04</pdfrwt>
<pdfrwt beam="1">  1       -2 0.36188710E+00 0.35830417E+04</pdfrwt>
<totfact> 0.16184922E-01</totfact>
</mgrwt>
</event>
<event>
 4    1  0.1323225E-008  0.2700715E+04  0.7816531E-02  0.8334773E-01
          2   -1    0    0  501    0  0.00000000000E+00  0.00000000000E+00  0.31110807244E+04  0.31110807244E+04  0.00000000000E+00 0.  1.
         -2   -1    0    0    0  501 -0.00000000000E+00 -0.00000000000E+00 -0.58611970452E+03  0.58611970452E+03  0.00000000000E+00 0. -1.
    2000013    1    1    2    0    0 -0.23326705445E+02  0.73772988013E+03  0.21021142029E+04  0.24220185039E+04  0.95000000000E+03 0.  0.
   -2000013    1    1    2    0    0  0.23326705445E+02 -0.73772988013E+03  0.42284681696E+03  0.12751819250E+04  0.95000000000E+03 0.  0.
<mgrwt>
<rscale>  0 0.27007152E+04</rscale>
<asrwt>0</asrwt>
<pdfrwt beam="1">  1        2 0.47862779E+00 0.27007152E+04</pdfrwt>
<pdfrwt beam="2">  1       -2 0.90172264E-01 0.27007152E+04</pdfrwt>
<totfact> 0.13661434E+00</totfact>
</mgrwt>
</event>
<event>
 4    1  0.1323225E-008  0.2060346E+04  0.7816531E-02  0.8578915E-01
          2   -1    0    0  501    0  0.00000000000E+00  0.00000000000E+00  0.19113709999E+04  0.19113709999E+04  0.00000000000E+00 0.  1.
         -2   -1    0    0    0  501 -0.00000000000E+00 -0.00000000000E+00 -0.55523323064E+03  0.55523323064E+03  0.00000000000E+00 0. -1.
    2000013    1    1    2    0    0  0.30700893509E+03 -0.12611294144E+03  0.41415194339E+03  0.10882007133E+04  0.95000000000E+03 0.  0.
   -2000013    1    1    2    0    0 -0.30700893509E+03  0.12611294144E+03  0.94198582588E+03  0.13784035173E+04  0.95000000000E+03 0.  0.
<mgrwt>
<rscale>  0 0.20603463E+04</rscale>
<asrwt>0</asrwt>
<pdfrwt beam="1">  1        2 0.29405707E+00 0.20603463E+04</pdfrwt>
<pdfrwt beam="2">  1       -2 0.85420498E-01 0.20603463E+04</pdfrwt>
<totfact> 0.82428657E+00</totfact>
</mgrwt>
</event>
<event>
 4    1  0.1323225E-008  0.2162745E+04  0.7816531E-02  0.8534097E-01
         -2   -1    0    0    0  501 -0.00000000000E+00  0.00000000000E+00  0.94671908560E+03  0.94671908560E+03  0.00000000000E+00 0. -1.
          2   -1    0    0  501    0  0.00000000000E+00 -0.00000000000E+00 -0.12351773463E+04  0.12351773463E+04  0.00000000000E+00 0.  1.
    2000013    1    1    2    0    0 -0.38605301464E+03  0.33491754205E+03 -0.68334785402E+02  0.10809145817E+04  0.95000000000E+03 0.  0.
   -2000013    1    1    2    0    0  0.38605301464E+03 -0.33491754205E+03 -0.22012347532E+03  0.11009818502E+04  0.95000000000E+03 0.  0.
<mgrwt>
<rscale>  0 0.21627445E+04</rscale>
<asrwt>0</asrwt>
<pdfrwt beam="2">  1        2 0.19002729E+00 0.21627445E+04</pdfrwt>
<pdfrwt beam="1">  1       -2 0.14564909E+00 0.21627445E+04</pdfrwt>
<totfact> 0.53595959E+00</totfact>
</mgrwt>
</event>
<event>
 4    1  0.1323225E-008  0.2372364E+04  0.7816531E-02  0.8449923E-01
          2   -1    0    0  501    0  0.00000000000E+00  0.00000000000E+00  0.32025017663E+04  0.32025017663E+04  0.00000000000E+00 0.  1.
         -2   -1    0    0    0  501 -0.00000000000E+00 -0.00000000000E+00 -0.43935255285E+03  0.43935255285E+03  0.00000000000E+00 0. -1.
    2000013    1    1    2    0    0 -0.34270669617E+03  0.24868030031E+03  0.22570453784E+04  0.24851647051E+04  0.95000000000E+03 0.  0.
   -2000013    1    1    2    0    0  0.34270669617E+03 -0.24868030031E+03  0.50610383502E+03  0.11566896140E+04  0.95000000000E+03 0.  0.
<mgrwt>
<rscale>  0 0.23723637E+04</rscale>
<asrwt>0</asrwt>
<pdfrwt beam="1">  1        2 0.49269256E+00 0.23723637E+04</pdfrwt>
<pdfrwt beam="2">  1       -2 0.67592703E-01 0.23723637E+04</pdfrwt>
<totfact> 0.23383928E+00</totfact>
</mgrwt>
</event>
<event>
 4    1  0.1323225E-008  0.2315610E+04  0.7816531E-02  0.8471792E-01
          2   -1    0    0  501    0  0.00000000000E+00  0.00000000000E+00  0.84145067988E+03  0.84145067988E+03  0.00000000000E+00 0.  1.
         -2   -1    0    0    0  501 -0.00000000000E+00 -0.00000000000E+00 -0.15930970167E+04  0.15930970167E+04  0.00000000000E+00 0. -1.
    2000013    1    1    2    0    0  0.62950243151E+03  0.47846744445E+02 -0.58464507239E+03  0.12817458730E+04  0.95000000000E+03 0.  0.
   -2000013    1    1    2    0    0 -0.62950243151E+03 -0.47846744445E+02 -0.16700126445E+03  0.11528018236E+04  0.95000000000E+03 0.  0.
<mgrwt>
<rscale>  0 0.23156101E+04</rscale>
<asrwt>0</asrwt>
<pdfrwt beam="1">  1        2 0.12945395E+00 0.23156101E+04</pdfrwt>
<pdfrwt beam="2">  1       -2 0.24509185E+00 0.23156101E+04</pdfrwt>
<totfact> 0.20070612E+00</totfact>
</mgrwt>
</event>
<event>
 4    1  0.1323225E-008  0.2477037E+04  0.7816531E-02  0.8411212E-01
          2   -1    0    0  501    0  0.00000000000E+00  0.00000000000E+00  0.10665273170E+04  0.10665273170E+04  0.00000000000E+00 0.  1.
         -2   -1    0    0    0  501 -0.00000000000E+00 -0.00000000000E+00 -0.14382454823E+04  0.14382454823E+04  0.00000000000E+00 0. -1.
    2000013    1    1    2    0    0 -0.49254407141E+03  0.55119614946E+03  0.10897250564E+03  0.12086322288E+04  0.95000000000E+03 0.  0.
   -2000013    1    1    2    0    0  0.49254407141E+03 -0.55119614946E+03 -0.48069067094E+03  0.12961405705E+04  0.95000000000E+03 0.  0.
<mgrwt>
<rscale>  0 0.24770370E+04</rscale>
<asrwt>0</asrwt>
<pdfrwt beam="1">  1        2 0.16408113E+00 0.24770370E+04</pdfrwt>
<pdfrwt beam="2">  1       -2 0.22126854E+00 0.24770370E+04</pdfrwt>
<totfact> 0.19812489E+00</totfact>
</mgrwt>
</event>
<event>
 4    1  0.1323225E-008  0.2087330E+04  0.7816531E-02  0.8566845E-01
          2   -1    0    0  501    0  0.00000000000E+00  0.00000000000E+00  0.14075329444E+04  0.14075329444E+04  0.00000000000E+00 0.  1.
         -2   -1    0    0    0  501 -0.00000000000E+00 -0.00000000000E+00 -0.77386199391E+03  0.77386199391E+03  0.00000000000E+00 0. -1.
    2000013    1    1    2    0    0 -0.13615031674E+03  0.40821953264E+03  0.27560961477E+03  0.10787218155E+04  0.95000000000E+03 0.  0.
   -2000013    1    1    2    0    0  0.13615031674E+03 -0.40821953264E+03  0.35806133574E+03  0.11026731228E+04  0.95000000000E+03 0.  0.
<mgrwt>
<rscale>  0 0.20873296E+04</rscale>
<asrwt>0</asrwt>
<pdfrwt beam="1">  1        2 0.21654353E+00 0.20873296E+04</pdfrwt>
<pdfrwt beam="2">  1       -2 0.11905569E+00 0.20873296E+04</pdfrwt>
<totfact> 0.71588177E+00</totfact>
</mgrwt>
</event>
<event>
 4    1  0.1323225E-008  0.3073321E+04  0.7816531E-02  0.8223098E-01
         -2   -1    0    0    0  501 -0.00000000000E+00  0.00000000000E+00  0.23443346616E+04  0.23443346616E+04  0.00000000000E+00 0. -1.
          2   -1    0    0  501    0  0.00000000000E+00 -0.00000000000E+00 -0.10072473569E+04  0.10072473569E+04  0.00000000000E+00 0.  1.
    2000013    1    1    2    0    0 -0.47538578763E+03 -0.11102776761E+04  0.68032585339E+03  0.16804914257E+04  0.95000000000E+03 0.  0.
   -2000013    1    1    2    0    0  0.47538578763E+03  0.11102776761E+04  0.65676145132E+03  0.16710905927E+04  0.95000000000E+03 0.  0.
<mgrwt>
<rscale>  0 0.30733206E+04</rscale>
<asrwt>0</asrwt>
<pdfrwt beam="2">  1        2 0.15496113E+00 0.30733206E+04</pdfrwt>
<pdfrwt beam="1">  1       -2 0.36066687E+00 0.30733206E+04</pdfrwt>
<totfact> 0.28225535E-01</totfact>
</mgrwt>
</event>
<event>
 4    1  0.1323225E-008  0.3628252E+04  0.7816531E-02  0.8084051E-01
          2   -1    0    0  501    0  0.00000000000E+00  0.00000000000E+00  0.26636099634E+04  0.26636099634E+04  0.00000000000E+00 0.  1.
         -2   -1    0    0    0  501 -0.00000000000E+00 -0.00000000000E+00 -0.12355610217E+04  0.12355610217E+04  0.00000000000E+00 0. -1.
    2000013    1    1    2    0    0 -0.37203057937E+03 -0.14549986148E+04  0.32191750275E+03  0.18059785712E+04  0.95000000000E+03 0.  0.
   -2000013    1    1    2    0    0  0.37203057937E+03  0.14549986148E+04  0.11061314390E+04  0.20931924139E+04  0.95000000000E+03 0.  0.
<mgrwt>
<rscale>  0 0.36282517E+04</rscale>
<asrwt>0</asrwt>
<pdfrwt beam="1">  1        2 0.40978615E+00 0.36282517E+04</pdfrwt>
<pdfrwt beam="2">  1       -2 0.19008631E+00 0.36282517E+04</pdfrwt>
<totfact> 0.35124834E-01</totfact>
</mgrwt>
</event>
<event>
 4    1  0.1323225E-008  0.2504925E+04  0.7816531E-02  0.8401233E-01
         -2   -1    0    0    0  501 -0.00000000000E+00  0.00000000000E+00  0.15534064931E+04  0.15534064931E+04  0.00000000000E+00 0. -1.
          2   -1    0    0  501    0  0.00000000000E+00 -0.00000000000E+00 -0.10098204978E+04  0.10098204978E+04  0.00000000000E+00 0.  1.
    2000013    1    1    2    0    0 -0.75997332522E+03  0.23158906208E+03  0.80441177381E+02  0.12410333322E+04  0.95000000000E+03 0.  0.
   -2000013    1    1    2    0    0  0.75997332522E+03 -0.23158906208E+03  0.46314481787E+03  0.13221936587E+04  0.95000000000E+03 0.  0.
<mgrwt>
<rscale>  0 0.25049245E+04</rscale>
<asrwt>0</asrwt>
<pdfrwt beam="2">  1        2 0.15535700E+00 0.25049245E+04</pdfrwt>
<pdfrwt beam="1">  1       -2 0.23898561E+00 0.25049245E+04</pdfrwt>
<totfact> 0.16631368E+00</totfact>
</mgrwt>
</event>
<event>
 4    1  0.1323225E-008  0.2587202E+04  0.7816531E-02  0.8372561E-01
         -2   -1    0    0    0  501 -0.00000000000E+00  0.00000000000E+00  0.38563535204E+03  0.38563535204E+03  0.00000000000E+00 0. -1.
          2   -1    0    0  501    0  0.00000000000E+00 -0.00000000000E+00 -0.43393425849E+04  0.43393425849E+04  0.00000000000E+00 0.  1.
    2000013    1    1    2    0    0 -0.71534821182E+02  0.67693179132E+03 -0.29896619899E+04  0.32099739398E+04  0.95000000000E+03 0.  0.
   -2000013    1    1    2    0    0  0.71534821182E+02 -0.67693179132E+03 -0.96404524303E+03  0.15150039971E+04  0.95000000000E+03 0.  0.
<mgrwt>
<rscale>  0 0.25872023E+04</rscale>
<asrwt>0</asrwt>
<pdfrwt beam="2">  1        2 0.66759117E+00 0.25872023E+04</pdfrwt>
<pdfrwt beam="1">  1       -2 0.59328515E-01 0.25872023E+04</pdfrwt>
<totfact> 0.41185693E-01</totfact>
</mgrwt>
</event>
<event>
 4    1  0.1323225E-008  0.2173511E+04  0.7816531E-02  0.8529535E-01
          2   -1    0    0  501    0  0.00000000000E+00  0.00000000000E+00  0.18257130244E+04  0.18257130244E+04  0.00000000000E+00 0.  1.
         -2   -1    0    0    0  501 -0.00000000000E+00 -0.00000000000E+00 -0.64689125909E+03  0.64689125909E+03  0.00000000000E+00 0. -1.
    2000013    1    1    2    0    0 -0.13221428354E+03 -0.49997233538E+03  0.70918349436E+03  0.12934041061E+04  0.95000000000E+03 0.  0.
   -2000013    1    1    2    0    0  0.13221428354E+03  0.49997233538E+03  0.46963827095E+03  0.11792001774E+04  0.95000000000E+03 0.  0.
<mgrwt>
<rscale>  0 0.21735113E+04</rscale>
<asrwt>0</asrwt>
<pdfrwt beam="1">  1        2 0.28087892E+00 0.21735113E+04</pdfrwt>
<pdfrwt beam="2">  1       -2 0.99521733E-01 0.21735113E+04</pdfrwt>
<totfact> 0.63899941E+00</totfact>
</mgrwt>
</event>
<event>
 4    1  0.1323225E-008  0.2417987E+04  0.7816531E-02  0.8432800E-01
         -2   -1    0    0    0  501 -0.00000000000E+00  0.00000000000E+00  0.60093739377E+03  0.60093739377E+03  0.00000000000E+00 0. -1.
          2   -1    0    0  501    0  0.00000000000E+00 -0.00000000000E+00 -0.24323085650E+04  0.24323085650E+04  0.00000000000E+00 0.  1.
    2000013    1    1    2    0    0 -0.45002877808E+03 -0.55624756238E+03 -0.64306849176E+03  0.13520260119E+04  0.95000000000E+03 0.  0.
   -2000013    1    1    2    0    0  0.45002877808E+03  0.55624756238E+03 -0.11883026795E+04  0.16812199469E+04  0.95000000000E+03 0.  0.
<mgrwt>
<rscale>  0 0.24179869E+04</rscale>
<asrwt>0</asrwt>
<pdfrwt beam="2">  1        2 0.37420132E+00 0.24179869E+04</pdfrwt>
<pdfrwt beam="1">  1       -2 0.92451906E-01 0.24179869E+04</pdfrwt>
<totfact> 0.33958610E+00</totfact>
</mgrwt>
</event>
<event>
 4    1  0.1323225E-008  0.2519940E+04  0.7816531E-02  0.8395916E-01
         -2   -1    0    0    0  501 -0.00000000000E+00  0.00000000000E+00  0.78648610817E+03  0.78648610817E+03  0.00000000000E+00 0. -1.
          2   -1    0    0  501    0  0.00000000000E+00 -0.00000000000E+00 -0.20185023823E+04  0.20185023823E+04  0.00000000000E+00 0.  1.
    2000013    1    1    2    0    0 -0.69666812223E+03  0.28918669218E+03 -0.99520174337E+03  0.15690449087E+04  0.95000000000E+03 0.  0.
   -2000013    1    1    2    0    0  0.69666812223E+03 -0.28918669218E+03 -0.23681453080E+03  0.12359435818E+04  0.95000000000E+03 0.  0.
<mgrwt>
<rscale>  0 0.25199397E+04</rscale>
<asrwt>0</asrwt>
<pdfrwt beam="2">  1        2 0.31053883E+00 0.25199397E+04</pdfrwt>
<pdfrwt beam="1">  1       -2 0.12099786E+00 0.25199397E+04</pdfrwt>
<totfact> 0.30219337E+00</totfact>
</mgrwt>
</event>
<event>
 4    1  0.1323225E-008  0.2605141E+04  0.7816531E-02  0.8366457E-01
          1   -1    0    0  501    0  0.00000000000E+00  0.00000000000E+00  0.10725023594E+04  0.10725023594E+04  0.00000000000E+00 0.  1.
         -1   -1    0    0    0  501 -0.00000000000E+00 -0.00000000000E+00 -0.15819920347E+04  0.15819920347E+04  0.00000000000E+00 0. -1.
    2000013    1    1    2    0    0 -0.45220686450E+03  0.54355922141E+03 -0.80746238680E+03  0.14333328928E+04  0.95000000000E+03 0.  0.
   -2000013    1    1    2    0    0  0.45220686450E+03 -0.54355922141E+03  0.29797271144E+03  0.12211615013E+04  0.95000000000E+03 0.  0.
<mgrwt>
<rscale>  0 0.26051412E+04</rscale>
<asrwt>0</asrwt>
<pdfrwt beam="1">  1        1 0.16500036E+00 0.26051412E+04</pdfrwt>
<pdfrwt beam="2">  1       -1 0.24338339E+00 0.26051412E+04</pdfrwt>
<totfact> 0.90201121E-01</totfact>
</mgrwt>
</event>
<event>
 4    1  0.1323225E-008  0.2968425E+04  0.7816531E-02  0.8252805E-01
         -2   -1    0    0    0  501 -0.00000000000E+00  0.00000000000E+00  0.76631569299E+03  0.76631569299E+03  0.00000000000E+00 0.  1.
          2   -1    0    0  501    0  0.00000000000E+00 -0.00000000000E+00 -0.28746461745E+04  0.28746461745E+04  0.00000000000E+00 0. -1.
    2000013    1    1    2    0    0  0.11160834562E+03 -0.11124741073E+04 -0.13293406609E+04  0.19798236424E+04  0.95000000000E+03 0.  0.
   -2000013    1    1    2    0    0 -0.11160834562E+03  0.11124741073E+04 -0.77898982062E+03  0.16611382251E+04  0.95000000000E+03 0.  0.
<mgrwt>
<rscale>  0 0.29684248E+04</rscale>
<asrwt>0</asrwt>
<pdfrwt beam="2">  1        2 0.44225326E+00 0.29684248E+04</pdfrwt>
<pdfrwt beam="1">  1       -2 0.11789472E+00 0.29684248E+04</pdfrwt>
<totfact> 0.99109341E-01</totfact>
</mgrwt>
</event>
<event>
 4    1  0.1323225E-008  0.2039767E+04  0.7816531E-02  0.8588251E-01
          2   -1    0    0  501    0  0.00000000000E+00  0.00000000000E+00  0.10350819378E+04  0.10350819378E+04  0.00000000000E+00 0.  1.
         -2   -1    0    0    0  501 -0.00000000000E+00 -0.00000000000E+00 -0.10049082545E+04  0.10049082545E+04  0.00000000000E+00 0. -1.
    2000013    1    1    2    0    0  0.55296488049E+01  0.35350558065E+03  0.12764075018E+03  0.10216598914E+04  0.95000000000E+03 0.  0.
   -2000013    1    1    2    0    0 -0.55296488049E+01 -0.35350558065E+03 -0.97467066904E+02  0.10183303009E+04  0.95000000000E+03 0.  0.
<mgrwt>
<rscale>  0 0.20397670E+04</rscale>
<asrwt>0</asrwt>
<pdfrwt beam="1">  1        2 0.15924338E+00 0.20397670E+04</pdfrwt>
<pdfrwt beam="2">  1       -2 0.15460127E+00 0.20397670E+04</pdfrwt>
<totfact> 0.61232797E+00</totfact>
</mgrwt>
</event>
<event>
 4    1  0.1323225E-008  0.3376205E+04  0.7816531E-02  0.8143771E-01
          1   -1    0    0  501    0  0.00000000000E+00  0.00000000000E+00  0.27686797118E+04  0.27686797118E+04  0.00000000000E+00 0.  1.
         -1   -1    0    0    0  501 -0.00000000000E+00 -0.00000000000E+00 -0.10292597321E+04  0.10292597321E+04  0.00000000000E+00 0. -1.
    2000013    1    1    2    0    0  0.73388200653E+03  0.10199347872E+04  0.15524322843E+04  0.22116500100E+04  0.95000000000E+03 0.  0.
   -2000013    1    1    2    0    0 -0.73388200653E+03 -0.10199347872E+04  0.18698769550E+03  0.15862894338E+04  0.95000000000E+03 0.  0.
<mgrwt>
<rscale>  0 0.33762053E+04</rscale>
<asrwt>0</asrwt>
<pdfrwt beam="1">  1        1 0.42595072E+00 0.33762053E+04</pdfrwt>
<pdfrwt beam="2">  1       -1 0.15834765E+00 0.33762053E+04</pdfrwt>
<totfact> 0.21744300E-01</totfact>
</mgrwt>
</event>
<event>
 4    1  0.1323225E-008  0.2416801E+04  0.7816531E-02  0.8433240E-01
         -2   -1    0    0    0  501 -0.00000000000E+00  0.00000000000E+00  0.15898464846E+04  0.15898464846E+04  0.00000000000E+00 0. -1.
          2   -1    0    0  501    0  0.00000000000E+00 -0.00000000000E+00 -0.91847325530E+03  0.91847325530E+03  0.00000000000E+00 0.  1.
    2000013    1    1    2    0    0  0.55682396726E+03  0.43674432370E+03  0.58332836110E+03  0.13204433012E+04  0.95000000000E+03 0.  0.
   -2000013    1    1    2    0    0 -0.55682396726E+03 -0.43674432370E+03  0.88044868188E+02  0.11878764387E+04  0.95000000000E+03 0.  0.
<mgrwt>
<rscale>  0 0.24168008E+04</rscale>
<asrwt>0</asrwt>
<pdfrwt beam="2">  1        2 0.14130358E+00 0.24168008E+04</pdfrwt>
<pdfrwt beam="1">  1       -2 0.24459177E+00 0.24168008E+04</pdfrwt>
<totfact> 0.17750771E+00</totfact>
</mgrwt>
</event>
<event>
 4    1  0.1323225E-008  0.2422739E+04  0.7816531E-02  0.8431039E-01
         -2   -1    0    0    0  501 -0.00000000000E+00  0.00000000000E+00  0.79722959420E+03  0.79722959420E+03  0.00000000000E+00 0. -1.
          2   -1    0    0  501    0  0.00000000000E+00 -0.00000000000E+00 -0.18406441399E+04  0.18406441399E+04  0.00000000000E+00 0.  1.
    2000013    1    1    2    0    0 -0.27683395993E+03 -0.37685618511E+03  0.11898209420E+03  0.10655113159E+04  0.95000000000E+03 0.  0.
   -2000013    1    1    2    0    0  0.27683395993E+03  0.37685618511E+03 -0.11623966399E+04  0.15723624182E+04  0.95000000000E+03 0.  0.
<mgrwt>
<rscale>  0 0.24227389E+04</rscale>
<asrwt>0</asrwt>
<pdfrwt beam="2">  1        2 0.28317602E+00 0.24227389E+04</pdfrwt>
<pdfrwt beam="1">  1       -2 0.12265071E+00 0.24227389E+04</pdfrwt>
<totfact> 0.36974893E+00</totfact>
</mgrwt>
</event>
<event>
 4    1  0.1323225E-008  0.3233036E+04  0.7816531E-02  0.8180147E-01
         -2   -1    0    0    0  501 -0.00000000000E+00  0.00000000000E+00  0.98410789182E+03  0.98410789182E+03  0.00000000000E+00 0. -1.
          2   -1    0    0  501    0  0.00000000000E+00 -0.00000000000E+00 -0.26553293200E+04  0.26553293200E+04  0.00000000000E+00 0.  1.
    2000013    1    1    2    0    0 -0.10789186805E+04 -0.27167813237E+03 -0.16096129465E+04  0.21751387000E+04  0.95000000000E+03 0.  0.
   -2000013    1    1    2    0    0  0.10789186805E+04  0.27167813237E+03 -0.61608481660E+02  0.14642985118E+04  0.95000000000E+03 0.  0.
<mgrwt>
<rscale>  0 0.32330361E+04</rscale>
<asrwt>0</asrwt>
<pdfrwt beam="2">  1        2 0.40851219E+00 0.32330361E+04</pdfrwt>
<pdfrwt beam="1">  1       -2 0.15140122E+00 0.32330361E+04</pdfrwt>
<totfact> 0.69270215E-01</totfact>
</mgrwt>
</event>
<event>
 4    1  0.1323225E-008  0.2572073E+04  0.7816531E-02  0.8377750E-01
         -2   -1    0    0    0  501 -0.00000000000E+00  0.00000000000E+00  0.42124022365E+03  0.42124022365E+03  0.00000000000E+00 0. -1.
          2   -1    0    0  501    0  0.00000000000E+00 -0.00000000000E+00 -0.39262402013E+04  0.39262402013E+04  0.00000000000E+00 0.  1.
    2000013    1    1    2    0    0 -0.65483821093E+03  0.23838505365E+03 -0.26238462052E+04  0.28762318100E+04  0.95000000000E+03 0.  0.
   -2000013    1    1    2    0    0  0.65483821093E+03 -0.23838505365E+03 -0.88115377243E+03  0.14712486149E+04  0.95000000000E+03 0.  0.
<mgrwt>
<rscale>  0 0.25720733E+04</rscale>
<asrwt>0</asrwt>
<pdfrwt beam="2">  1        2 0.60403700E+00 0.25720733E+04</pdfrwt>
<pdfrwt beam="1">  1       -2 0.64806184E-01 0.25720733E+04</pdfrwt>
<totfact> 0.76536890E-01</totfact>
</mgrwt>
</event>
<event>
 4    1  0.1323225E-008  0.2096435E+04  0.7816531E-02  0.8562815E-01
         -2   -1    0    0    0  501 -0.00000000000E+00  0.00000000000E+00  0.11616272793E+04  0.11616272793E+04  0.00000000000E+00 0. -1.
          2   -1    0    0  501    0  0.00000000000E+00 -0.00000000000E+00 -0.94588011598E+03  0.94588011598E+03  0.00000000000E+00 0.  1.
    2000013    1    1    2    0    0  0.22027323191E+03 -0.23348282006E+03  0.41481486641E+03  0.10851755145E+04  0.95000000000E+03 0.  0.
   -2000013    1    1    2    0    0 -0.22027323191E+03  0.23348282006E+03 -0.19906770309E+03  0.10223318807E+04  0.95000000000E+03 0.  0.
<mgrwt>
<rscale>  0 0.20964352E+04</rscale>
<asrwt>0</asrwt>
<pdfrwt beam="2">  1        2 0.14552002E+00 0.20964352E+04</pdfrwt>
<pdfrwt beam="1">  1       -2 0.17871189E+00 0.20964352E+04</pdfrwt>
<totfact> 0.46601569E+00</totfact>
</mgrwt>
</event>
<event>
 4    1  0.1323225E-008  0.2137737E+04  0.7816531E-02  0.8544800E-01
         -2   -1    0    0    0  501 -0.00000000000E+00  0.00000000000E+00  0.50877190112E+03  0.50877190112E+03  0.00000000000E+00 0. -1.
          2   -1    0    0  501    0  0.00000000000E+00 -0.00000000000E+00 -0.22455646614E+04  0.22455646614E+04  0.00000000000E+00 0.  1.
    2000013    1    1    2    0    0 -0.33454168845E+03 -0.25524483683E+03 -0.54522724353E+03  0.11733886036E+04  0.95000000000E+03 0.  0.
   -2000013    1    1    2    0    0  0.33454168845E+03  0.25524483683E+03 -0.11915655168E+04  0.15809479589E+04  0.95000000000E+03 0.  0.
<mgrwt>
<rscale>  0 0.21377373E+04</rscale>
<asrwt>0</asrwt>
<pdfrwt beam="2">  1        2 0.34547149E+00 0.21377373E+04</pdfrwt>
<pdfrwt beam="1">  1       -2 0.78272599E-01 0.21377373E+04</pdfrwt>
<totfact> 0.64911321E+00</totfact>
</mgrwt>
</event>
<event>
 4    1  0.1323225E-008  0.2257889E+04  0.7816531E-02  0.8494713E-01
          2   -1    0    0  501    0  0.00000000000E+00  0.00000000000E+00  0.13323677151E+04  0.13323677151E+04  0.00000000000E+00 0.  1.
         -2   -1    0    0    0  501 -0.00000000000E+00 -0.00000000000E+00 -0.95657914138E+03  0.95657914138E+03  0.00000000000E+00 0. -1.
    2000013    1    1    2    0    0 -0.49381078326E+03  0.11011074454E+03  0.53322901127E+03  0.12011688658E+04  0.95000000000E+03 0.  0.
   -2000013    1    1    2    0    0  0.49381078326E+03 -0.11011074454E+03 -0.15744043750E+03  0.10877779907E+04  0.95000000000E+03 0.  0.
<mgrwt>
<rscale>  0 0.22578885E+04</rscale>
<asrwt>0</asrwt>
<pdfrwt beam="1">  1        2 0.20497965E+00 0.22578885E+04</pdfrwt>
<pdfrwt beam="2">  1       -2 0.14716602E+00 0.22578885E+04</pdfrwt>
<totfact> 0.45387992E+00</totfact>
</mgrwt>
</event>
<event>
 4    1  0.1323225E-008  0.2796620E+04  0.7816531E-02  0.8304318E-01
         -2   -1    0    0    0  501 -0.00000000000E+00  0.00000000000E+00  0.68806718531E+03  0.68806718531E+03  0.00000000000E+00 0. -1.
          2   -1    0    0  501    0  0.00000000000E+00 -0.00000000000E+00 -0.28416868912E+04  0.28416868912E+04  0.00000000000E+00 0.  1.
    2000013    1    1    2    0    0 -0.56651860422E+03 -0.85175035302E+03 -0.11773827487E+04  0.18262398883E+04  0.95000000000E+03 0.  0.
   -2000013    1    1    2    0    0  0.56651860422E+03  0.85175035302E+03 -0.97623695721E+03  0.17035141882E+04  0.95000000000E+03 0.  0.
<mgrwt>
<rscale>  0 0.27966205E+04</rscale>
<asrwt>0</asrwt>
<pdfrwt beam="2">  1        2 0.43718260E+00 0.27966205E+04</pdfrwt>
<pdfrwt beam="1">  1       -2 0.10585649E+00 0.27966205E+04</pdfrwt>
<totfact> 0.13681485E+00</totfact>
</mgrwt>
</event>
<event>
 4    1  0.1323225E-008  0.2628181E+04  0.7816531E-02  0.8358691E-01
         -2   -1    0    0    0  501 -0.00000000000E+00  0.00000000000E+00  0.12627210511E+04  0.12627210511E+04  0.00000000000E+00 0. -1.
          2   -1    0    0  501    0  0.00000000000E+00 -0.00000000000E+00 -0.13675492564E+04  0.13675492564E+04  0.00000000000E+00 0.  1.
    2000013    1    1    2    0    0  0.22211073286E+03 -0.86650119206E+03 -0.20802323607E+03  0.13213368837E+04  0.95000000000E+03 0.  0.
   -2000013    1    1    2    0    0 -0.22211073286E+03  0.86650119206E+03  0.10319503076E+03  0.13089334238E+04  0.95000000000E+03 0.  0.
<mgrwt>
<rscale>  0 0.26281805E+04</rscale>
<asrwt>0</asrwt>
<pdfrwt beam="2">  1        2 0.21039219E+00 0.26281805E+04</pdfrwt>
<pdfrwt beam="1">  1       -2 0.19426478E+00 0.26281805E+04</pdfrwt>
<totfact> 0.19350280E+00</totfact>
</mgrwt>
</event>
<event>
 4    1  0.1323225E-008  0.4302922E+04  0.7816531E-02  0.7946078E-01
          2   -1    0    0  501    0  0.00000000000E+00  0.00000000000E+00  0.17426400827E+04  0.17426400827E+04  0.00000000000E+00 0.  1.
         -2   -1    0    0    0  501 -0.00000000000E+00 -0.00000000000E+00 -0.26561907211E+04  0.26561907211E+04  0.00000000000E+00 0. -1.
    2000013    1    1    2    0    0  0.16196743113E+04 -0.12808811607E+03 -0.15223778443E+04  0.24207200873E+04  0.95000000000E+03 0.  0.
   -2000013    1    1    2    0    0 -0.16196743113E+04  0.12808811607E+03  0.60882720589E+03  0.19781107165E+04  0.95000000000E+03 0.  0.
<mgrwt>
<rscale>  0 0.43029220E+04</rscale>
<asrwt>0</asrwt>
<pdfrwt beam="1">  1        2 0.26809847E+00 0.43029220E+04</pdfrwt>
<pdfrwt beam="2">  1       -2 0.40864473E+00 0.43029220E+04</pdfrwt>
<totfact> 0.46563695E-02</totfact>
</mgrwt>
</event>
<event>
 4    1  0.1323225E-008  0.2577600E+04  0.7816531E-02  0.8375850E-01
          2   -1    0    0  501    0  0.00000000000E+00  0.00000000000E+00  0.16864927029E+04  0.16864927029E+04  0.00000000000E+00 0. -1.
         -2   -1    0    0    0  501 -0.00000000000E+00 -0.00000000000E+00 -0.98488709819E+03  0.98488709819E+03  0.00000000000E+00 0.  1.
    2000013    1    1    2    0    0 -0.36010201441E+03  0.58259256955E+03  0.90835105580E+03  0.14821232079E+04  0.95000000000E+03 0.  0.
   -2000013    1    1    2    0    0  0.36010201441E+03 -0.58259256955E+03 -0.20674545108E+03  0.11892565932E+04  0.95000000000E+03 0.  0.
<mgrwt>
<rscale>  0 0.25775996E+04</rscale>
<asrwt>0</asrwt>
<pdfrwt beam="1">  1        2 0.25946042E+00 0.25775996E+04</pdfrwt>
<pdfrwt beam="2">  1       -2 0.15152109E+00 0.25775996E+04</pdfrwt>
<totfact> 0.25797397E+00</totfact>
</mgrwt>
</event>
<event>
 4    1  0.1323225E-008  0.2298012E+04  0.7816531E-02  0.8478705E-01
          2   -1    0    0  501    0  0.00000000000E+00  0.00000000000E+00  0.24066515221E+04  0.24066515221E+04  0.00000000000E+00 0.  1.
         -2   -1    0    0    0  501 -0.00000000000E+00 -0.00000000000E+00 -0.54856915711E+03  0.54856915711E+03  0.00000000000E+00 0. -1.
    2000013    1    1    2    0    0  0.70288392411E+02 -0.64059448861E+03  0.86586987267E+03  0.14378916487E+04  0.95000000000E+03 0.  0.
   -2000013    1    1    2    0    0 -0.70288392411E+02  0.64059448861E+03  0.99221249227E+03  0.15173290305E+04  0.95000000000E+03 0.  0.
<mgrwt>
<rscale>  0 0.22980120E+04</rscale>
<asrwt>0</asrwt>
<pdfrwt beam="1">  1        2 0.37025407E+00 0.22980120E+04</pdfrwt>
<pdfrwt beam="2">  1       -2 0.84395256E-01 0.22980120E+04</pdfrwt>
<totfact> 0.43757006E+00</totfact>
</mgrwt>
</event>
<event>
 4    1  0.1323225E-008  0.3184930E+04  0.7816531E-02  0.8192808E-01
         -2   -1    0    0    0  501 -0.00000000000E+00  0.00000000000E+00  0.12273521953E+04  0.12273521953E+04  0.00000000000E+00 0. -1.
          2   -1    0    0  501    0  0.00000000000E+00 -0.00000000000E+00 -0.20661917301E+04  0.20661917301E+04  0.00000000000E+00 0.  1.
    2000013    1    1    2    0    0  0.91469281035E+03 -0.49700851174E+03 -0.11861664790E+04  0.18420562733E+04  0.95000000000E+03 0.  0.
   -2000013    1    1    2    0    0 -0.91469281035E+03  0.49700851174E+03  0.34732694423E+03  0.14514876521E+04  0.95000000000E+03 0.  0.
<mgrwt>
<rscale>  0 0.31849301E+04</rscale>
<asrwt>0</asrwt>
<pdfrwt beam="2">  1        2 0.31787565E+00 0.31849301E+04</pdfrwt>
<pdfrwt beam="1">  1       -2 0.18882342E+00 0.31849301E+04</pdfrwt>
<totfact> 0.81680480E-01</totfact>
</mgrwt>
</event>
<event>
 4    1  0.1323225E-008  0.2598957E+04  0.7816531E-02  0.8368555E-01
         -2   -1    0    0    0  501 -0.00000000000E+00  0.00000000000E+00  0.31281083347E+04  0.31281083347E+04  0.00000000000E+00 0.  1.
          2   -1    0    0  501    0  0.00000000000E+00 -0.00000000000E+00 -0.53982944880E+03  0.53982944880E+03  0.00000000000E+00 0. -1.
    2000013    1    1    2    0    0 -0.17134536944E+03 -0.86392828087E+03  0.14381601922E+04  0.19355970781E+04  0.95000000000E+03 0.  0.
   -2000013    1    1    2    0    0  0.17134536944E+03  0.86392828087E+03  0.11501186937E+04  0.17323407054E+04  0.95000000000E+03 0.  0.
<mgrwt>
<rscale>  0 0.25989575E+04</rscale>
<asrwt>0</asrwt>
<pdfrwt beam="2">  1        2 0.83050686E-01 0.25989575E+04</pdfrwt>
<pdfrwt beam="1">  1       -2 0.48124743E+00 0.25989575E+04</pdfrwt>
<totfact> 0.10764876E-01</totfact>
</mgrwt>
</event>
<event>
 4    1  0.1323225E-008  0.2842044E+04  0.7816531E-02  0.8290333E-01
          2   -1    0    0  501    0  0.00000000000E+00  0.00000000000E+00  0.11997852777E+04  0.11997852777E+04  0.00000000000E+00 0.  1.
         -2   -1    0    0    0  501 -0.00000000000E+00 -0.00000000000E+00 -0.16830543058E+04  0.16830543058E+04  0.00000000000E+00 0. -1.
    2000013    1    1    2    0    0 -0.24992480286E+03  0.80730731458E+03  0.40197806834E+03  0.13335268556E+04  0.95000000000E+03 0.  0.
   -2000013    1    1    2    0    0  0.24992480286E+03 -0.80730731458E+03 -0.88524709639E+03  0.15493127279E+04  0.95000000000E+03 0.  0.
<mgrwt>
<rscale>  0 0.28420442E+04</rscale>
<asrwt>0</asrwt>
<pdfrwt beam="1">  1        2 0.18458235E+00 0.28420442E+04</pdfrwt>
<pdfrwt beam="2">  1       -2 0.25893143E+00 0.28420442E+04</pdfrwt>
<totfact> 0.93055848E-01</totfact>
</mgrwt>
</event>
<event>
 4    1  0.1323225E-008  0.2180465E+04  0.7816531E-02  0.8526603E-01
         -2   -1    0    0    0  501 -0.00000000000E+00  0.00000000000E+00  0.56346018632E+03  0.56346018632E+03  0.00000000000E+00 0. -1.
          2   -1    0    0  501    0  0.00000000000E+00 -0.00000000000E+00 -0.21094787940E+04  0.21094787940E+04  0.00000000000E+00 0.  1.
    2000013    1    1    2    0    0 -0.33054509138E+03  0.38557628575E+03 -0.97878607837E+03  0.14554900607E+04  0.95000000000E+03 0.  0.
   -2000013    1    1    2    0    0  0.33054509138E+03 -0.38557628575E+03 -0.56723252928E+03  0.12174489196E+04  0.95000000000E+03 0.  0.
<mgrwt>
<rscale>  0 0.21804654E+04</rscale>
<asrwt>0</asrwt>
<pdfrwt beam="2">  1        2 0.32453520E+00 0.21804654E+04</pdfrwt>
<pdfrwt beam="1">  1       -2 0.86686184E-01 0.21804654E+04</pdfrwt>
<totfact> 0.61213431E+00</totfact>
</mgrwt>
</event>
<event>
 4    1  0.1323225E-008  0.2964196E+04  0.7816531E-02  0.8254029E-01
         -2   -1    0    0    0  501 -0.00000000000E+00  0.00000000000E+00  0.19232568235E+04  0.19232568235E+04  0.00000000000E+00 0. -1.
          2   -1    0    0  501    0  0.00000000000E+00 -0.00000000000E+00 -0.11421328061E+04  0.11421328061E+04  0.00000000000E+00 0.  1.
    2000013    1    1    2    0    0  0.37127851813E+03 -0.10682812853E+04  0.26372892613E+03  0.15003751494E+04  0.95000000000E+03 0.  0.
   -2000013    1    1    2    0    0 -0.37127851813E+03  0.10682812853E+04  0.51739509123E+03  0.15650144801E+04  0.95000000000E+03 0.  0.
<mgrwt>
<rscale>  0 0.29641962E+04</rscale>
<asrwt>0</asrwt>
<pdfrwt beam="2">  1        2 0.17571274E+00 0.29641962E+04</pdfrwt>
<pdfrwt beam="1">  1       -2 0.29588567E+00 0.29641962E+04</pdfrwt>
<totfact> 0.59353660E-01</totfact>
</mgrwt>
</event>
<event>
 4    1  0.1323225E-008  0.2339912E+04  0.7816531E-02  0.8462348E-01
          2   -1    0    0  501    0  0.00000000000E+00  0.00000000000E+00  0.25889751557E+04  0.25889751557E+04  0.00000000000E+00 0.  1.
         -2   -1    0    0    0  501 -0.00000000000E+00 -0.00000000000E+00 -0.52870236304E+03  0.52870236304E+03  0.00000000000E+00 0. -1.
    2000013    1    1    2    0    0 -0.56917361746E+01 -0.68195935109E+03  0.98405165313E+03  0.15283843131E+04  0.95000000000E+03 0.  0.
   -2000013    1    1    2    0    0  0.56917361746E+01  0.68195935109E+03  0.10762211395E+04  0.15892932057E+04  0.95000000000E+03 0.  0.
<mgrwt>
<rscale>  0 0.23399122E+04</rscale>
<asrwt>0</asrwt>
<pdfrwt beam="1">  1        2 0.39830386E+00 0.23399122E+04</pdfrwt>
<pdfrwt beam="2">  1       -2 0.81338827E-01 0.23399122E+04</pdfrwt>
<totfact> 0.37167642E+00</totfact>
</mgrwt>
</event>
<event>
 4    1  0.1323225E-008  0.2124792E+04  0.7816531E-02  0.8550400E-01
          2   -1    0    0  501    0  0.00000000000E+00  0.00000000000E+00  0.15244338797E+04  0.15244338797E+04  0.00000000000E+00 0.  1.
         -2   -1    0    0    0  501 -0.00000000000E+00 -0.00000000000E+00 -0.74039629125E+03  0.74039629125E+03  0.00000000000E+00 0. -1.
    2000013    1    1    2    0    0  0.36900835628E+03  0.14878567948E+03  0.11430794022E+03  0.10362773039E+04  0.95000000000E+03 0.  0.
   -2000013    1    1    2    0    0 -0.36900835628E+03 -0.14878567948E+03  0.66972964827E+03  0.12285528671E+04  0.95000000000E+03 0.  0.
<mgrwt>
<rscale>  0 0.21247919E+04</rscale>
<asrwt>0</asrwt>
<pdfrwt beam="1">  1        2 0.23452829E+00 0.21247919E+04</pdfrwt>
<pdfrwt beam="2">  1       -2 0.11390712E+00 0.21247919E+04</pdfrwt>
<totfact> 0.68268852E+00</totfact>
</mgrwt>
</event>
<event>
 4    1  0.1323225E-008  0.2356507E+04  0.7816531E-02  0.8455968E-01
          2   -1    0    0  501    0  0.00000000000E+00  0.00000000000E+00  0.99216898868E+03  0.99216898868E+03  0.00000000000E+00 0.  1.
         -2   -1    0    0    0  501 -0.00000000000E+00 -0.00000000000E+00 -0.13992389556E+04  0.13992389556E+04  0.00000000000E+00 0. -1.
    2000013    1    1    2    0    0  0.59302496780E+03  0.15557703709E+03  0.13288449044E+03  0.11384380153E+04  0.95000000000E+03 0.  0.
   -2000013    1    1    2    0    0 -0.59302496780E+03 -0.15557703709E+03 -0.53995445739E+03  0.12529699290E+04  0.95000000000E+03 0.  0.
<mgrwt>
<rscale>  0 0.23565072E+04</rscale>
<asrwt>0</asrwt>
<pdfrwt beam="1">  1        2 0.15264138E+00 0.23565072E+04</pdfrwt>
<pdfrwt beam="2">  1       -2 0.21526753E+00 0.23565072E+04</pdfrwt>
<totfact> 0.24355891E+00</totfact>
</mgrwt>
</event>
<event>
 4    1  0.1323225E-008  0.5087308E+04  0.7816531E-02  0.7815178E-01
          2   -1    0    0  501    0  0.00000000000E+00  0.00000000000E+00  0.30377206822E+04  0.30377206822E+04  0.00000000000E+00 0.  1.
         -2   -1    0    0    0  501 -0.00000000000E+00 -0.00000000000E+00 -0.21299445915E+04  0.21299445915E+04  0.00000000000E+00 0. -1.
    2000013    1    1    2    0    0  0.12648251159E+04 -0.63490676788E+03 -0.14639994804E+04  0.22469276037E+04  0.95000000000E+03 0.  0.
   -2000013    1    1    2    0    0 -0.12648251159E+04  0.63490676788E+03  0.23717755711E+04  0.29207376700E+04  0.95000000000E+03 0.  0.
<mgrwt>
<rscale>  0 0.50873084E+04</rscale>
<asrwt>0</asrwt>
<pdfrwt beam="1">  1        2 0.46734165E+00 0.50873084E+04</pdfrwt>
<pdfrwt beam="2">  1       -2 0.32768378E+00 0.50873084E+04</pdfrwt>
<totfact> 0.25561471E-02</totfact>
</mgrwt>
</event>
<event>
 4    1  0.1323225E-008  0.2628583E+04  0.7816531E-02  0.8358557E-01
         -2   -1    0    0    0  501 -0.00000000000E+00  0.00000000000E+00  0.15157523326E+04  0.15157523326E+04  0.00000000000E+00 0. -1.
          2   -1    0    0  501    0  0.00000000000E+00 -0.00000000000E+00 -0.11396069584E+04  0.11396069584E+04  0.00000000000E+00 0.  1.
    2000013    1    1    2    0    0 -0.59068388875E+03 -0.68375201385E+03  0.95280388623E+02  0.13145351366E+04  0.95000000000E+03 0.  0.
   -2000013    1    1    2    0    0  0.59068388875E+03  0.68375201385E+03  0.28086498565E+03  0.13408241544E+04  0.95000000000E+03 0.  0.
<mgrwt>
<rscale>  0 0.26285828E+04</rscale>
<asrwt>0</asrwt>
<pdfrwt beam="2">  1        2 0.17532415E+00 0.26285828E+04</pdfrwt>
<pdfrwt beam="1">  1       -2 0.23319267E+00 0.26285828E+04</pdfrwt>
<totfact> 0.14843927E+00</totfact>
</mgrwt>
</event>
<event>
 4    1  0.1323225E-008  0.3017817E+04  0.7816531E-02  0.8238661E-01
         -1   -1    0    0    0  501 -0.00000000000E+00  0.00000000000E+00  0.24792080590E+04  0.24792080590E+04  0.00000000000E+00 0. -1.
          1   -1    0    0  501    0  0.00000000000E+00 -0.00000000000E+00 -0.91835963295E+03  0.91835963295E+03  0.00000000000E+00 0.  1.
    2000013    1    1    2    0    0 -0.50098869358E+03  0.76803678042E+03 -0.41848287475E+02  0.13210304487E+04  0.95000000000E+03 0.  0.
   -2000013    1    1    2    0    0  0.50098869358E+03 -0.76803678042E+03  0.16026967136E+04  0.20765372433E+04  0.95000000000E+03 0.  0.
<mgrwt>
<rscale>  0 0.30178168E+04</rscale>
<asrwt>0</asrwt>
<pdfrwt beam="2">  1        1 0.14128610E+00 0.30178168E+04</pdfrwt>
<pdfrwt beam="1">  1       -1 0.38141662E+00 0.30178168E+04</pdfrwt>
<totfact> 0.14288626E-01</totfact>
</mgrwt>
</event>
<event>
 4    1  0.1323225E-008  0.2208623E+04  0.7816531E-02  0.8514848E-01
          1   -1    0    0  501    0  0.00000000000E+00  0.00000000000E+00  0.21532774289E+04  0.21532774289E+04  0.00000000000E+00 0.  1.
         -1   -1    0    0    0  501 -0.00000000000E+00 -0.00000000000E+00 -0.56634760134E+03  0.56634760134E+03  0.00000000000E+00 0. -1.
    2000013    1    1    2    0    0  0.79030348024E+02  0.53026668647E+03  0.58170218106E+03  0.12362467319E+04  0.95000000000E+03 0.  0.
   -2000013    1    1    2    0    0 -0.79030348024E+02 -0.53026668647E+03  0.10052276465E+04  0.14833782983E+04  0.95000000000E+03 0.  0.
<mgrwt>
<rscale>  0 0.22086227E+04</rscale>
<asrwt>0</asrwt>
<pdfrwt beam="1">  1        1 0.33127345E+00 0.22086227E+04</pdfrwt>
<pdfrwt beam="2">  1       -1 0.87130401E-01 0.22086227E+04</pdfrwt>
<totfact> 0.27699640E+00</totfact>
</mgrwt>
</event>
<event>
 4    1  0.1323225E-008  0.2019214E+04  0.7816531E-02  0.8597690E-01
          1   -1    0    0  501    0  0.00000000000E+00  0.00000000000E+00  0.70396894560E+03  0.70396894560E+03  0.00000000000E+00 0.  1.
         -1   -1    0    0    0  501 -0.00000000000E+00 -0.00000000000E+00 -0.14479427172E+04  0.14479427172E+04  0.00000000000E+00 0. -1.
    2000013    1    1    2    0    0 -0.28566786997E+03 -0.12950610065E+03 -0.22731308435E+03  0.10259382049E+04  0.95000000000E+03 0.  0.
   -2000013    1    1    2    0    0  0.28566786997E+03  0.12950610065E+03 -0.51666068723E+03  0.11259734578E+04  0.95000000000E+03 0.  0.
<mgrwt>
<rscale>  0 0.20192144E+04</rscale>
<asrwt>0</asrwt>
<pdfrwt beam="1">  1        1 0.10830291E+00 0.20192144E+04</pdfrwt>
<pdfrwt beam="2">  1       -1 0.22276042E+00 0.20192144E+04</pdfrwt>
<totfact> 0.26378644E+00</totfact>
</mgrwt>
</event>
<event>
 4    1  0.1323225E-008  0.2171028E+04  0.7816531E-02  0.8530585E-01
          2   -1    0    0  501    0  0.00000000000E+00  0.00000000000E+00  0.81940344535E+03  0.81940344535E+03  0.00000000000E+00 0.  1.
         -2   -1    0    0    0  501 -0.00000000000E+00 -0.00000000000E+00 -0.14380469620E+04  0.14380469620E+04  0.00000000000E+00 0. -1.
    2000013    1    1    2    0    0  0.49093149758E+03  0.18100790577E+03 -0.26209301322E+03  0.11157823913E+04  0.95000000000E+03 0.  0.
   -2000013    1    1    2    0    0 -0.49093149758E+03 -0.18100790577E+03 -0.35655050342E+03  0.11416680160E+04  0.95000000000E+03 0.  0.
<mgrwt>
<rscale>  0 0.21710280E+04</rscale>
<asrwt>0</asrwt>
<pdfrwt beam="1">  1        2 0.12606207E+00 0.21710280E+04</pdfrwt>
<pdfrwt beam="2">  1       -2 0.22123799E+00 0.21710280E+04</pdfrwt>
<totfact> 0.29655015E+00</totfact>
</mgrwt>
</event>
<event>
 4    1  0.1323225E-008  0.3855646E+04  0.7816531E-02  0.8034318E-01
         -1   -1    0    0    0  501 -0.00000000000E+00  0.00000000000E+00  0.35330660024E+04  0.35330660024E+04  0.00000000000E+00 0. -1.
          1   -1    0    0  501    0  0.00000000000E+00 -0.00000000000E+00 -0.10519195292E+04  0.10519195292E+04  0.00000000000E+00 0.  1.
    2000013    1    1    2    0    0  0.15185378757E+04  0.67291105048E+03  0.15200503859E+04  0.24437307007E+04  0.95000000000E+03 0.  0.
   -2000013    1    1    2    0    0 -0.15185378757E+04 -0.67291105048E+03  0.96109608731E+03  0.21412548309E+04  0.95000000000E+03 0.  0.
<mgrwt>
<rscale>  0 0.38556458E+04</rscale>
<asrwt>0</asrwt>
<pdfrwt beam="2">  1        1 0.16183378E+00 0.38556458E+04</pdfrwt>
<pdfrwt beam="1">  1       -1 0.54354861E+00 0.38556458E+04</pdfrwt>
<totfact> 0.88939833E-03</totfact>
</mgrwt>
</event>
<event>
 4    1  0.1323225E-008  0.3243507E+04  0.7816531E-02  0.8177421E-01
         -2   -1    0    0    0  501 -0.00000000000E+00  0.00000000000E+00  0.16169976058E+04  0.16169976058E+04  0.00000000000E+00 0. -1.
          2   -1    0    0  501    0  0.00000000000E+00 -0.00000000000E+00 -0.16265236692E+04  0.16265236692E+04  0.00000000000E+00 0.  1.
    2000013    1    1    2    0    0  0.43245344408E+03  0.37213696672E+03 -0.11888639858E+04  0.16252382841E+04  0.95000000000E+03 0.  0.
   -2000013    1    1    2    0    0 -0.43245344408E+03 -0.37213696672E+03  0.11793379224E+04  0.16182829909E+04  0.95000000000E+03 0.  0.
<mgrwt>
<rscale>  0 0.32435073E+04</rscale>
<asrwt>0</asrwt>
<pdfrwt beam="2">  1        2 0.25023441E+00 0.32435073E+04</pdfrwt>
<pdfrwt beam="1">  1       -2 0.24876886E+00 0.32435073E+04</pdfrwt>
<totfact> 0.59136057E-01</totfact>
</mgrwt>
</event>
<event>
 4    1  0.1323225E-008  0.3953297E+04  0.7816531E-02  0.8014035E-01
          2   -1    0    0  501    0  0.00000000000E+00  0.00000000000E+00  0.17988329919E+04  0.17988329919E+04  0.00000000000E+00 0.  1.
         -2   -1    0    0    0  501 -0.00000000000E+00 -0.00000000000E+00 -0.21720413311E+04  0.21720413311E+04  0.00000000000E+00 0. -1.
    2000013    1    1    2    0    0  0.12352997034E+04  0.12149946335E+04 -0.13676207786E+03  0.19807526808E+04  0.95000000000E+03 0.  0.
   -2000013    1    1    2    0    0 -0.12352997034E+04 -0.12149946335E+04 -0.23644626135E+03  0.19901216423E+04  0.95000000000E+03 0.  0.
<mgrwt>
<rscale>  0 0.39532972E+04</rscale>
<asrwt>0</asrwt>
<pdfrwt beam="1">  1        2 0.27674354E+00 0.39532972E+04</pdfrwt>
<pdfrwt beam="2">  1       -2 0.33416020E+00 0.39532972E+04</pdfrwt>
<totfact> 0.13380354E-01</totfact>
</mgrwt>
</event>
<event>
 4    1  0.1323225E-008  0.2080712E+04  0.7816531E-02  0.8569788E-01
         -2   -1    0    0    0  501 -0.00000000000E+00  0.00000000000E+00  0.62995785004E+03  0.62995785004E+03  0.00000000000E+00 0. -1.
          2   -1    0    0  501    0  0.00000000000E+00 -0.00000000000E+00 -0.17181160225E+04  0.17181160225E+04  0.00000000000E+00 0.  1.
    2000013    1    1    2    0    0 -0.16834115677E+03  0.35309943348E+03 -0.72890003002E+03  0.12596877426E+04  0.95000000000E+03 0.  0.
   -2000013    1    1    2    0    0  0.16834115677E+03 -0.35309943348E+03 -0.35925814241E+03  0.10883861300E+04  0.95000000000E+03 0.  0.
<mgrwt>
<rscale>  0 0.20807121E+04</rscale>
<asrwt>0</asrwt>
<pdfrwt beam="2">  1        2 0.26432554E+00 0.20807121E+04</pdfrwt>
<pdfrwt beam="1">  1       -2 0.96916594E-01 0.20807121E+04</pdfrwt>
<totfact> 0.78657628E+00</totfact>
</mgrwt>
</event>
<event>
 4    1  0.1323225E-008  0.2425213E+04  0.7816531E-02  0.8430124E-01
          2   -1    0    0  501    0  0.00000000000E+00  0.00000000000E+00  0.30635822163E+04  0.30635822163E+04  0.00000000000E+00 0. -1.
         -2   -1    0    0    0  501 -0.00000000000E+00 -0.00000000000E+00 -0.47996586618E+03  0.47996586618E+03  0.00000000000E+00 0.  1.
    2000013    1    1    2    0    0  0.65717643043E+03 -0.36882789982E+03  0.12916503124E+04  0.17716589429E+04  0.95000000000E+03 0.  0.
   -2000013    1    1    2    0    0 -0.65717643043E+03  0.36882789982E+03  0.12919660377E+04  0.17718891396E+04  0.95000000000E+03 0.  0.
<mgrwt>
<rscale>  0 0.24252133E+04</rscale>
<asrwt>0</asrwt>
<pdfrwt beam="1">  1        2 0.47132033E+00 0.24252133E+04</pdfrwt>
<pdfrwt beam="2">  1       -2 0.73840904E-01 0.24252133E+04</pdfrwt>
<totfact> 0.23558114E+00</totfact>
</mgrwt>
</event>
<event>
 4    1  0.1323225E-008  0.2558547E+04  0.7816531E-02  0.8382420E-01
          2   -1    0    0  501    0  0.00000000000E+00  0.00000000000E+00  0.50827620584E+04  0.50827620584E+04  0.00000000000E+00 0.  1.
         -2   -1    0    0    0  501 -0.00000000000E+00 -0.00000000000E+00 -0.32197853868E+03  0.32197853868E+03  0.00000000000E+00 0. -1.
    2000013    1    1    2    0    0 -0.58275319649E+03 -0.57716350789E+03  0.29034947148E+04  0.31631472557E+04  0.95000000000E+03 0.  0.
   -2000013    1    1    2    0    0  0.58275319649E+03  0.57716350789E+03  0.18572888049E+04  0.22415933413E+04  0.95000000000E+03 0.  0.
<mgrwt>
<rscale>  0 0.25585467E+04</rscale>
<asrwt>0</asrwt>
<pdfrwt beam="1">  1        2 0.78196333E+00 0.25585467E+04</pdfrwt>
<pdfrwt beam="2">  1       -2 0.49535164E-01 0.25585467E+04</pdfrwt>
<totfact> 0.92608078E-02</totfact>
</mgrwt>
</event>
<event>
 4    1  0.1323225E-008  0.2828348E+04  0.7816531E-02  0.8294521E-01
         -1   -1    0    0    0  501 -0.00000000000E+00  0.00000000000E+00  0.11099458901E+04  0.11099458901E+04  0.00000000000E+00 0. -1.
          1   -1    0    0  501    0  0.00000000000E+00 -0.00000000000E+00 -0.18017893954E+04  0.18017893954E+04  0.00000000000E+00 0.  1.
    2000013    1    1    2    0    0  0.88907865621E+03 -0.27163234401E+03  0.15116348172E+03  0.13377575959E+04  0.95000000000E+03 0.  0.
   -2000013    1    1    2    0    0 -0.88907865621E+03  0.27163234401E+03 -0.84300698699E+03  0.15739776896E+04  0.95000000000E+03 0.  0.
<mgrwt>
<rscale>  0 0.28283484E+04</rscale>
<asrwt>0</asrwt>
<pdfrwt beam="2">  1        1 0.27719837E+00 0.28283484E+04</pdfrwt>
<pdfrwt beam="1">  1       -1 0.17076091E+00 0.28283484E+04</pdfrwt>
<totfact> 0.85230240E-01</totfact>
</mgrwt>
</event>
<event>
 4    1  0.1323225E-008  0.2668785E+04  0.7816531E-02  0.8345205E-01
          1   -1    0    0  501    0  0.00000000000E+00  0.00000000000E+00  0.18331325576E+04  0.18331325576E+04  0.00000000000E+00 0. -1.
         -1   -1    0    0    0  501 -0.00000000000E+00 -0.00000000000E+00 -0.97134445852E+03  0.97134445852E+03  0.00000000000E+00 0.  1.
    2000013    1    1    2    0    0  0.21157927353E+03 -0.78863112121E+03 -0.52263848888E+02  0.12537688560E+04  0.95000000000E+03 0.  0.
   -2000013    1    1    2    0    0 -0.21157927353E+03  0.78863112121E+03  0.91405194798E+03  0.15507081601E+04  0.95000000000E+03 0.  0.
<mgrwt>
<rscale>  0 0.26687849E+04</rscale>
<asrwt>0</asrwt>
<pdfrwt beam="1">  1        1 0.28202039E+00 0.26687849E+04</pdfrwt>
<pdfrwt beam="2">  1       -1 0.14943761E+00 0.26687849E+04</pdfrwt>
<totfact> 0.11935508E+00</totfact>
</mgrwt>
</event>
<event>
 4    1  0.1323225E-008  0.2186739E+04  0.7816531E-02  0.8523968E-01
         -2   -1    0    0    0  501 -0.00000000000E+00  0.00000000000E+00  0.11743080514E+04  0.11743080514E+04  0.00000000000E+00 0. -1.
          2   -1    0    0  501    0  0.00000000000E+00 -0.00000000000E+00 -0.10180095880E+04  0.10180095880E+04  0.00000000000E+00 0.  1.
    2000013    1    1    2    0    0 -0.21425702253E+03 -0.49272887659E+03  0.12644670644E+02  0.10914887563E+04  0.95000000000E+03 0.  0.
   -2000013    1    1    2    0    0  0.21425702253E+03  0.49272887659E+03  0.14365379274E+03  0.11008288830E+04  0.95000000000E+03 0.  0.
<mgrwt>
<rscale>  0 0.21867390E+04</rscale>
<asrwt>0</asrwt>
<pdfrwt beam="2">  1        2 0.15661686E+00 0.21867390E+04</pdfrwt>
<pdfrwt beam="1">  1       -2 0.18066278E+00 0.21867390E+04</pdfrwt>
<totfact> 0.40262446E+00</totfact>
</mgrwt>
</event>
<event>
 4    1  0.1323225E-008  0.2200475E+04  0.7816531E-02  0.8518230E-01
         -2   -1    0    0    0  501 -0.00000000000E+00  0.00000000000E+00  0.89354526948E+03  0.89354526948E+03  0.00000000000E+00 0. -1.
          2   -1    0    0  501    0  0.00000000000E+00 -0.00000000000E+00 -0.13547415672E+04  0.13547415672E+04  0.00000000000E+00 0.  1.
    2000013    1    1    2    0    0  0.10644522826E+03 -0.15881645297E+03  0.30175014749E+03  0.10149415766E+04  0.95000000000E+03 0.  0.
   -2000013    1    1    2    0    0 -0.10644522826E+03  0.15881645297E+03 -0.76294644522E+03  0.12333452601E+04  0.95000000000E+03 0.  0.
<mgrwt>
<rscale>  0 0.22004753E+04</rscale>
<asrwt>0</asrwt>
<pdfrwt beam="2">  1        2 0.20842178E+00 0.22004753E+04</pdfrwt>
<pdfrwt beam="1">  1       -2 0.13746850E+00 0.22004753E+04</pdfrwt>
<totfact> 0.52892469E+00</totfact>
</mgrwt>
</event>
<event>
 4    1  0.1323225E-008  0.2788949E+04  0.7816531E-02  0.8306707E-01
          2   -1    0    0  501    0  0.00000000000E+00  0.00000000000E+00  0.97426896812E+03  0.97426896812E+03  0.00000000000E+00 0.  1.
         -2   -1    0    0    0  501 -0.00000000000E+00 -0.00000000000E+00 -0.19959167231E+04  0.19959167231E+04  0.00000000000E+00 0. -1.
    2000013    1    1    2    0    0  0.74300694332E+03  0.58693088637E+03 -0.91707369410E+03  0.16248296353E+04  0.95000000000E+03 0.  0.
   -2000013    1    1    2    0    0 -0.74300694332E+03 -0.58693088637E+03 -0.10457406091E+03  0.13453560560E+04  0.95000000000E+03 0.  0.
<mgrwt>
<rscale>  0 0.27889494E+04</rscale>
<asrwt>0</asrwt>
<pdfrwt beam="1">  1        2 0.14988754E+00 0.27889494E+04</pdfrwt>
<pdfrwt beam="2">  1       -2 0.30706411E+00 0.27889494E+04</pdfrwt>
<totfact> 0.65573535E-01</totfact>
</mgrwt>
</event>
<event>
 4    1  0.1323225E-008  0.2873879E+04  0.7816531E-02  0.8280692E-01
         -2   -1    0    0    0  501 -0.00000000000E+00  0.00000000000E+00  0.18175929432E+04  0.18175929432E+04  0.00000000000E+00 0. -1.
          2   -1    0    0  501    0  0.00000000000E+00 -0.00000000000E+00 -0.11360053955E+04  0.11360053955E+04  0.00000000000E+00 0.  1.
    2000013    1    1    2    0    0  0.15314527033E+03 -0.10027444054E+04  0.71608830067E+03  0.15634040651E+04  0.95000000000E+03 0.  0.
   -2000013    1    1    2    0    0 -0.15314527033E+03  0.10027444054E+04 -0.34500752945E+02  0.13901942736E+04  0.95000000000E+03 0.  0.
<mgrwt>
<rscale>  0 0.28738792E+04</rscale>
<asrwt>0</asrwt>
<pdfrwt beam="2">  1        2 0.17477006E+00 0.28738792E+04</pdfrwt>
<pdfrwt beam="1">  1       -2 0.27962968E+00 0.28738792E+04</pdfrwt>
<totfact> 0.75804962E-01</totfact>
</mgrwt>
</event>
<event>
 4    1  0.1323225E-008  0.2695670E+04  0.7816531E-02  0.8336411E-01
          2   -1    0    0  501    0  0.00000000000E+00  0.00000000000E+00  0.30700615464E+04  0.30700615464E+04  0.00000000000E+00 0.  1.
         -2   -1    0    0    0  501 -0.00000000000E+00 -0.00000000000E+00 -0.59173359865E+03  0.59173359865E+03  0.00000000000E+00 0. -1.
    2000013    1    1    2    0    0 -0.27628802922E+03 -0.90995278249E+03  0.11046246691E+04  0.17398404527E+04  0.95000000000E+03 0.  0.
   -2000013    1    1    2    0    0  0.27628802922E+03  0.90995278249E+03  0.13737032787E+04  0.19219546923E+04  0.95000000000E+03 0.  0.
<mgrwt>
<rscale>  0 0.26956695E+04</rscale>
<asrwt>0</asrwt>
<pdfrwt beam="1">  1        2 0.47231715E+00 0.26956695E+04</pdfrwt>
<pdfrwt beam="2">  1       -2 0.91035940E-01 0.26956695E+04</pdfrwt>
<totfact> 0.14199818E+00</totfact>
</mgrwt>
</event>
<event>
 4    1  0.1323225E-008  0.2726522E+04  0.7816531E-02  0.8326450E-01
          2   -1    0    0  501    0  0.00000000000E+00  0.00000000000E+00  0.60351851901E+03  0.60351851901E+03  0.00000000000E+00 0.  1.
         -2   -1    0    0    0  501 -0.00000000000E+00 -0.00000000000E+00 -0.30794101690E+04  0.30794101690E+04  0.00000000000E+00 0. -1.
    2000013    1    1    2    0    0 -0.50513595504E+03 -0.25949633837E+03 -0.16284095595E+03  0.11187125903E+04  0.95000000000E+03 0.  0.
   -2000013    1    1    2    0    0  0.50513595504E+03  0.25949633837E+03 -0.23130506941E+04  0.25642160978E+04  0.95000000000E+03 0.  0.
<mgrwt>
<rscale>  0 0.27265224E+04</rscale>
<asrwt>0</asrwt>
<pdfrwt beam="1">  1        2 0.92849004E-01 0.27265224E+04</pdfrwt>
<pdfrwt beam="2">  1       -2 0.47375541E+00 0.27265224E+04</pdfrwt>
<totfact> 0.10424332E-01</totfact>
</mgrwt>
</event>
<event>
 4    1  0.1323225E-008  0.2715120E+04  0.7816531E-02  0.8330116E-01
          2   -1    0    0  501    0  0.00000000000E+00  0.00000000000E+00  0.18655359295E+04  0.18655359295E+04  0.00000000000E+00 0.  1.
         -2   -1    0    0    0  501 -0.00000000000E+00 -0.00000000000E+00 -0.98790315801E+03  0.98790315801E+03  0.00000000000E+00 0. -1.
    2000013    1    1    2    0    0 -0.55234114857E+03 -0.70342406366E+03  0.83286111372E+03  0.15479159514E+04  0.95000000000E+03 0.  0.
   -2000013    1    1    2    0    0  0.55234114857E+03  0.70342406366E+03  0.44771657791E+02  0.13055231362E+04  0.95000000000E+03 0.  0.
<mgrwt>
<rscale>  0 0.27151198E+04</rscale>
<asrwt>0</asrwt>
<pdfrwt beam="1">  1        2 0.28700553E+00 0.27151198E+04</pdfrwt>
<pdfrwt beam="2">  1       -2 0.15198510E+00 0.27151198E+04</pdfrwt>
<totfact> 0.20119627E+00</totfact>
</mgrwt>
</event>
<event>
 4    1  0.1323225E-008  0.3140492E+04  0.7816531E-02  0.8204712E-01
          2   -1    0    0  501    0  0.00000000000E+00  0.00000000000E+00  0.32054171666E+04  0.32054171666E+04  0.00000000000E+00 0.  1.
         -2   -1    0    0    0  501 -0.00000000000E+00 -0.00000000000E+00 -0.76922036672E+03  0.76922036672E+03  0.00000000000E+00 0. -1.
    2000013    1    1    2    0    0 -0.80450562848E+03  0.14551264855E+03  0.24152669935E+04  0.27211060044E+04  0.95000000000E+03 0.  0.
   -2000013    1    1    2    0    0  0.80450562848E+03 -0.14551264855E+03  0.20929806335E+02  0.12535315289E+04  0.95000000000E+03 0.  0.
<mgrwt>
<rscale>  0 0.31404918E+04</rscale>
<asrwt>0</asrwt>
<pdfrwt beam="1">  1        2 0.49314109E+00 0.31404918E+04</pdfrwt>
<pdfrwt beam="2">  1       -2 0.11834160E+00 0.31404918E+04</pdfrwt>
<totfact> 0.59774040E-01</totfact>
</mgrwt>
</event>
<event>
 4    1  0.1323225E-008  0.2993708E+04  0.7816531E-02  0.8245530E-01
          2   -1    0    0  501    0  0.00000000000E+00  0.00000000000E+00  0.27608100188E+04  0.27608100188E+04  0.00000000000E+00 0.  1.
         -2   -1    0    0    0  501 -0.00000000000E+00 -0.00000000000E+00 -0.81156345474E+03  0.81156345474E+03  0.00000000000E+00 0. -1.
    2000013    1    1    2    0    0  0.10053353219E+04 -0.56012117120E+03  0.11139766986E+04  0.18622241865E+04  0.95000000000E+03 0.  0.
   -2000013    1    1    2    0    0 -0.10053353219E+04  0.56012117120E+03  0.83526986548E+03  0.17101492870E+04  0.95000000000E+03 0.  0.
<mgrwt>
<rscale>  0 0.29937084E+04</rscale>
<asrwt>0</asrwt>
<pdfrwt beam="1">  1        2 0.42474000E+00 0.29937084E+04</pdfrwt>
<pdfrwt beam="2">  1       -2 0.12485592E+00 0.29937084E+04</pdfrwt>
<totfact> 0.10052627E+00</totfact>
</mgrwt>
</event>
<event>
 4    1  0.1323225E-008  0.2497903E+04  0.7816531E-02  0.8403733E-01
          2   -1    0    0  501    0  0.00000000000E+00  0.00000000000E+00  0.52937579957E+03  0.52937579957E+03  0.00000000000E+00 0.  1.
         -2   -1    0    0    0  501 -0.00000000000E+00 -0.00000000000E+00 -0.29466389963E+04  0.29466389963E+04  0.00000000000E+00 0. -1.
    2000013    1    1    2    0    0  0.19195351829E+02 -0.69358893864E+03 -0.17923386564E+04  0.21439244241E+04  0.95000000000E+03 0.  0.
   -2000013    1    1    2    0    0 -0.19195351829E+02  0.69358893864E+03 -0.62492454039E+03  0.13320903718E+04  0.95000000000E+03 0.  0.
<mgrwt>
<rscale>  0 0.24979026E+04</rscale>
<asrwt>0</asrwt>
<pdfrwt beam="1">  1        2 0.81442431E-01 0.24979026E+04</pdfrwt>
<pdfrwt beam="2">  1       -2 0.45332908E+00 0.24979026E+04</pdfrwt>
<totfact> 0.16934951E-01</totfact>
</mgrwt>
</event>
<event>
 4    1  0.1323225E-008  0.2127735E+04  0.7816531E-02  0.8549123E-01
         -2   -1    0    0    0  501 -0.00000000000E+00  0.00000000000E+00  0.83428451153E+03  0.83428451153E+03  0.00000000000E+00 0. -1.
          2   -1    0    0  501    0  0.00000000000E+00 -0.00000000000E+00 -0.13566282203E+04  0.13566282203E+04  0.00000000000E+00 0.  1.
    2000013    1    1    2    0    0 -0.41248286457E+03  0.21557169195E+03 -0.14512845455E+03  0.10677900244E+04  0.95000000000E+03 0.  0.
   -2000013    1    1    2    0    0  0.41248286457E+03 -0.21557169195E+03 -0.37721525425E+03  0.11231227074E+04  0.95000000000E+03 0.  0.
<mgrwt>
<rscale>  0 0.21277349E+04</rscale>
<asrwt>0</asrwt>
<pdfrwt beam="2">  1        2 0.20871203E+00 0.21277349E+04</pdfrwt>
<pdfrwt beam="1">  1       -2 0.12835146E+00 0.21277349E+04</pdfrwt>
<totfact> 0.63221698E+00</totfact>
</mgrwt>
</event>
<event>
 4    1  0.1323225E-008  0.2037041E+04  0.7816531E-02  0.8589496E-01
          2   -1    0    0  501    0  0.00000000000E+00  0.00000000000E+00  0.13517815067E+04  0.13517815067E+04  0.00000000000E+00 0.  1.
         -2   -1    0    0    0  501 -0.00000000000E+00 -0.00000000000E+00 -0.76741981634E+03  0.76741981634E+03  0.00000000000E+00 0. -1.
    2000013    1    1    2    0    0 -0.10530833547E+03  0.35179566400E+03  0.29823633979E+03  0.10612704411E+04  0.95000000000E+03 0.  0.
   -2000013    1    1    2    0    0  0.10530833547E+03 -0.35179566400E+03  0.28612535053E+03  0.10579308819E+04  0.95000000000E+03 0.  0.
<mgrwt>
<rscale>  0 0.20370409E+04</rscale>
<asrwt>0</asrwt>
<pdfrwt beam="1">  1        2 0.20796639E+00 0.20370409E+04</pdfrwt>
<pdfrwt beam="2">  1       -2 0.11806459E+00 0.20370409E+04</pdfrwt>
<totfact> 0.79005841E+00</totfact>
</mgrwt>
</event>
<event>
 4    1  0.1323225E-008  0.2666251E+04  0.7816531E-02  0.8346039E-01
          2   -1    0    0  501    0  0.00000000000E+00  0.00000000000E+00  0.10827795150E+04  0.10827795150E+04  0.00000000000E+00 0.  1.
         -2   -1    0    0    0  501 -0.00000000000E+00 -0.00000000000E+00 -0.16413529353E+04  0.16413529353E+04  0.00000000000E+00 0. -1.
    2000013    1    1    2    0    0 -0.16744633769E+03 -0.55684385041E+03 -0.10277260300E+04  0.15155309771E+04  0.95000000000E+03 0.  0.
   -2000013    1    1    2    0    0  0.16744633769E+03  0.55684385041E+03  0.46915260968E+03  0.12086014732E+04  0.95000000000E+03 0.  0.
<mgrwt>
<rscale>  0 0.26662508E+04</rscale>
<asrwt>0</asrwt>
<pdfrwt beam="1">  1        2 0.16658146E+00 0.26662508E+04</pdfrwt>
<pdfrwt beam="2">  1       -2 0.25251584E+00 0.26662508E+04</pdfrwt>
<totfact> 0.12180330E+00</totfact>
</mgrwt>
</event>
<event>
 4    1  0.1323225E-008  0.2524531E+04  0.7816531E-02  0.8394298E-01
         -2   -1    0    0    0  501 -0.00000000000E+00  0.00000000000E+00  0.61690228314E+03  0.61690228314E+03  0.00000000000E+00 0. -1.
          2   -1    0    0  501    0  0.00000000000E+00 -0.00000000000E+00 -0.25827658769E+04  0.25827658769E+04  0.00000000000E+00 0.  1.
    2000013    1    1    2    0    0  0.58180429393E+03  0.26089061154E+03 -0.16586685518E+04  0.20150040974E+04  0.95000000000E+03 0.  0.
   -2000013    1    1    2    0    0 -0.58180429393E+03 -0.26089061154E+03 -0.30719504195E+03  0.11846640627E+04  0.95000000000E+03 0.  0.
<mgrwt>
<rscale>  0 0.25245310E+04</rscale>
<asrwt>0</asrwt>
<pdfrwt beam="2">  1        2 0.39734860E+00 0.25245310E+04</pdfrwt>
<pdfrwt beam="1">  1       -2 0.94908043E-01 0.25245310E+04</pdfrwt>
<totfact> 0.25894481E+00</totfact>
</mgrwt>
</event>
<event>
 4    1  0.1323225E-008  0.2545653E+04  0.7816531E-02  0.8386900E-01
         -2   -1    0    0    0  501 -0.00000000000E+00  0.00000000000E+00  0.71123599078E+03  0.71123599078E+03  0.00000000000E+00 0. -1.
          2   -1    0    0  501    0  0.00000000000E+00 -0.00000000000E+00 -0.22778477728E+04  0.22778477728E+04  0.00000000000E+00 0.  1.
    2000013    1    1    2    0    0  0.17329081626E+03 -0.82454048225E+03 -0.68033390392E+03  0.14405731272E+04  0.95000000000E+03 0.  0.
   -2000013    1    1    2    0    0 -0.17329081626E+03  0.82454048225E+03 -0.88627787807E+03  0.15485106364E+04  0.95000000000E+03 0.  0.
<mgrwt>
<rscale>  0 0.25456530E+04</rscale>
<asrwt>0</asrwt>
<pdfrwt beam="2">  1        2 0.35043812E+00 0.25456530E+04</pdfrwt>
<pdfrwt beam="1">  1       -2 0.10942092E+00 0.25456530E+04</pdfrwt>
<totfact> 0.27589788E+00</totfact>
</mgrwt>
</event>
<event>
 4    1  0.1323225E-008  0.2238023E+04  0.7816531E-02  0.8502767E-01
          2   -1    0    0  501    0  0.00000000000E+00  0.00000000000E+00  0.20284853236E+04  0.20284853236E+04  0.00000000000E+00 0.  1.
         -2   -1    0    0    0  501 -0.00000000000E+00 -0.00000000000E+00 -0.61730111332E+03  0.61730111332E+03  0.00000000000E+00 0. -1.
    2000013    1    1    2    0    0 -0.31431117270E+03 -0.22513247723E+03  0.12345648791E+04  0.16050316465E+04  0.95000000000E+03 0.  0.
   -2000013    1    1    2    0    0  0.31431117270E+03  0.22513247723E+03  0.17661933115E+03  0.10407547904E+04  0.95000000000E+03 0.  0.
<mgrwt>
<rscale>  0 0.22380226E+04</rscale>
<asrwt>0</asrwt>
<pdfrwt beam="1">  1        2 0.31207466E+00 0.22380226E+04</pdfrwt>
<pdfrwt beam="2">  1       -2 0.94969403E-01 0.22380226E+04</pdfrwt>
<totfact> 0.54741067E+00</totfact>
</mgrwt>
</event>
<event>
 4    1  0.1323225E-008  0.2344858E+04  0.7816531E-02  0.8460441E-01
         -2   -1    0    0    0  501 -0.00000000000E+00  0.00000000000E+00  0.87012609398E+03  0.87012609398E+03  0.00000000000E+00 0. -1.
          2   -1    0    0  501    0  0.00000000000E+00 -0.00000000000E+00 -0.15797589723E+04  0.15797589723E+04  0.00000000000E+00 0.  1.
    2000013    1    1    2    0    0  0.13970735173E+03  0.66896739492E+03 -0.28054084217E+03  0.12034278889E+04  0.95000000000E+03 0.  0.
   -2000013    1    1    2    0    0 -0.13970735173E+03 -0.66896739492E+03 -0.42909203612E+03  0.12464571774E+04  0.95000000000E+03 0.  0.
<mgrwt>
<rscale>  0 0.23448578E+04</rscale>
<asrwt>0</asrwt>
<pdfrwt beam="2">  1        2 0.24303984E+00 0.23448578E+04</pdfrwt>
<pdfrwt beam="1">  1       -2 0.13386555E+00 0.23448578E+04</pdfrwt>
<totfact> 0.41689114E+00</totfact>
</mgrwt>
</event>
<event>
 4    1  0.1323225E-008  0.2348170E+04  0.7816531E-02  0.8459167E-01
         -2   -1    0    0    0  501 -0.00000000000E+00  0.00000000000E+00  0.16065115337E+04  0.16065115337E+04  0.00000000000E+00 0. -1.
          2   -1    0    0  501    0  0.00000000000E+00 -0.00000000000E+00 -0.85805511820E+03  0.85805511820E+03  0.00000000000E+00 0.  1.
    2000013    1    1    2    0    0 -0.47344484022E+03  0.48761179360E+03  0.24977494736E+03  0.11944885107E+04  0.95000000000E+03 0.  0.
   -2000013    1    1    2    0    0  0.47344484022E+03 -0.48761179360E+03  0.49868146813E+03  0.12700781412E+04  0.95000000000E+03 0.  0.
<mgrwt>
<rscale>  0 0.23481699E+04</rscale>
<asrwt>0</asrwt>
<pdfrwt beam="2">  1        2 0.13200848E+00 0.23481699E+04</pdfrwt>
<pdfrwt beam="1">  1       -2 0.24715562E+00 0.23481699E+04</pdfrwt>
<totfact> 0.18927205E+00</totfact>
</mgrwt>
</event>
<event>
 4    1  0.1323225E-008  0.2286517E+04  0.7816531E-02  0.8483256E-01
         -2   -1    0    0    0  501 -0.00000000000E+00  0.00000000000E+00  0.11078823485E+04  0.11078823485E+04  0.00000000000E+00 0. -1.
          2   -1    0    0  501    0  0.00000000000E+00 -0.00000000000E+00 -0.11797644772E+04  0.11797644772E+04  0.00000000000E+00 0.  1.
    2000013    1    1    2    0    0 -0.37617118534E+03  0.51213210242E+03 -0.63453536501E+02  0.11446879061E+04  0.95000000000E+03 0.  0.
   -2000013    1    1    2    0    0  0.37617118534E+03 -0.51213210242E+03 -0.84285921893E+01  0.11429589197E+04  0.95000000000E+03 0.  0.
<mgrwt>
<rscale>  0 0.22865172E+04</rscale>
<asrwt>0</asrwt>
<pdfrwt beam="2">  1        2 0.18150223E+00 0.22865172E+04</pdfrwt>
<pdfrwt beam="1">  1       -2 0.17044344E+00 0.22865172E+04</pdfrwt>
<totfact> 0.37406427E+00</totfact>
</mgrwt>
</event>
<event>
 4    1  0.1323225E-008  0.3879411E+04  0.7816531E-02  0.8029325E-01
         -1   -1    0    0    0  501 -0.00000000000E+00  0.00000000000E+00  0.18857286531E+04  0.18857286531E+04  0.00000000000E+00 0. -1.
          1   -1    0    0  501    0  0.00000000000E+00 -0.00000000000E+00 -0.19952274973E+04  0.19952274973E+04  0.00000000000E+00 0.  1.
    2000013    1    1    2    0    0 -0.82070333348E+03 -0.78989905314E+03 -0.13052325202E+04  0.19757597039E+04  0.95000000000E+03 0.  0.
   -2000013    1    1    2    0    0  0.82070333348E+03  0.78989905314E+03  0.11957336761E+04  0.19051964465E+04  0.95000000000E+03 0.  0.
<mgrwt>
<rscale>  0 0.38794111E+04</rscale>
<asrwt>0</asrwt>
<pdfrwt beam="2">  1        1 0.30695808E+00 0.38794111E+04</pdfrwt>
<pdfrwt beam="1">  1       -1 0.29011210E+00 0.38794111E+04</pdfrwt>
<totfact> 0.90834391E-02</totfact>
</mgrwt>
</event>
<event>
 4    1  0.1323225E-008  0.2777397E+04  0.7816531E-02  0.8310320E-01
          2   -1    0    0  501    0  0.00000000000E+00  0.00000000000E+00  0.12533079807E+04  0.12533079807E+04  0.00000000000E+00 0.  1.
         -2   -1    0    0    0  501 -0.00000000000E+00 -0.00000000000E+00 -0.15387150231E+04  0.15387150231E+04  0.00000000000E+00 0. -1.
    2000013    1    1    2    0    0 -0.22491690690E+02  0.96755617432E+03  0.15772303239E+03  0.13653012054E+04  0.95000000000E+03 0.  0.
   -2000013    1    1    2    0    0  0.22491690690E+02 -0.96755617432E+03 -0.44313007482E+03  0.14267217983E+04  0.95000000000E+03 0.  0.
<mgrwt>
<rscale>  0 0.27773972E+04</rscale>
<asrwt>0</asrwt>
<pdfrwt beam="1">  1        2 0.19281661E+00 0.27773972E+04</pdfrwt>
<pdfrwt beam="2">  1       -2 0.23672539E+00 0.27773972E+04</pdfrwt>
<totfact> 0.11915535E+00</totfact>
</mgrwt>
</event>
<event>
 4    1  0.1323225E-008  0.2155225E+04  0.7816531E-02  0.8537299E-01
          2   -1    0    0  501    0  0.00000000000E+00  0.00000000000E+00  0.17029529466E+04  0.17029529466E+04  0.00000000000E+00 0.  1.
         -2   -1    0    0    0  501 -0.00000000000E+00 -0.00000000000E+00 -0.68190299065E+03  0.68190299065E+03  0.00000000000E+00 0. -1.
    2000013    1    1    2    0    0 -0.31114557175E+03  0.39898139802E+03  0.45248682258E+03  0.11675795679E+04  0.95000000000E+03 0.  0.
   -2000013    1    1    2    0    0  0.31114557175E+03 -0.39898139802E+03  0.56856313341E+03  0.12172763694E+04  0.95000000000E+03 0.  0.
<mgrwt>
<rscale>  0 0.21552250E+04</rscale>
<asrwt>0</asrwt>
<pdfrwt beam="1">  1        2 0.26199276E+00 0.21552250E+04</pdfrwt>
<pdfrwt beam="2">  1       -2 0.10490815E+00 0.21552250E+04</pdfrwt>
<totfact> 0.66027357E+00</totfact>
</mgrwt>
</event>
<event>
 4    1  0.1323225E-008  0.2735997E+04  0.7816531E-02  0.8323419E-01
          2   -1    0    0  501    0  0.00000000000E+00  0.00000000000E+00  0.79472499377E+03  0.79472499377E+03  0.00000000000E+00 0.  1.
         -2   -1    0    0    0  501 -0.00000000000E+00 -0.00000000000E+00 -0.23548021809E+04  0.23548021809E+04  0.00000000000E+00 0. -1.
    2000013    1    1    2    0    0  0.27953355516E+03  0.50020416034E+03  0.14129172592E+03  0.11183946362E+04  0.95000000000E+03 0.  0.
   -2000013    1    1    2    0    0 -0.27953355516E+03 -0.50020416034E+03 -0.17013689130E+04  0.20311325385E+04  0.95000000000E+03 0.  0.
<mgrwt>
<rscale>  0 0.27359972E+04</rscale>
<asrwt>0</asrwt>
<pdfrwt beam="1">  1        2 0.12226538E+00 0.27359972E+04</pdfrwt>
<pdfrwt beam="2">  1       -2 0.36227726E+00 0.27359972E+04</pdfrwt>
<totfact> 0.39535500E-01</totfact>
</mgrwt>
</event>
<event>
 4    1  0.1323225E-008  0.2754513E+04  0.7816531E-02  0.8317531E-01
         -2   -1    0    0    0  501 -0.00000000000E+00  0.00000000000E+00  0.16499456429E+04  0.16499456429E+04  0.00000000000E+00 0. -1.
          2   -1    0    0  501    0  0.00000000000E+00 -0.00000000000E+00 -0.11496354325E+04  0.11496354325E+04  0.00000000000E+00 0.  1.
    2000013    1    1    2    0    0  0.70669443815E+03  0.31045410471E+03 -0.39147183937E+03  0.12851260565E+04  0.95000000000E+03 0.  0.
   -2000013    1    1    2    0    0 -0.70669443815E+03 -0.31045410471E+03  0.89178204982E+03  0.15144550189E+04  0.95000000000E+03 0.  0.
<mgrwt>
<rscale>  0 0.27545134E+04</rscale>
<asrwt>0</asrwt>
<pdfrwt beam="2">  1        2 0.17686699E+00 0.27545134E+04</pdfrwt>
<pdfrwt beam="1">  1       -2 0.25383779E+00 0.27545134E+04</pdfrwt>
<totfact> 0.10797504E+00</totfact>
</mgrwt>
</event>
<event>
 4    1  0.1323225E-008  0.2126421E+04  0.7816531E-02  0.8549693E-01
         -2   -1    0    0    0  501 -0.00000000000E+00  0.00000000000E+00  0.40614532466E+03  0.40614532466E+03  0.00000000000E+00 0. -1.
          2   -1    0    0  501    0  0.00000000000E+00 -0.00000000000E+00 -0.27832807917E+04  0.27832807917E+04  0.00000000000E+00 0.  1.
    2000013    1    1    2    0    0  0.30066795639E+03  0.25817717257E+03 -0.15878346233E+04  0.18922937043E+04  0.95000000000E+03 0.  0.
   -2000013    1    1    2    0    0 -0.30066795639E+03 -0.25817717257E+03 -0.78930084373E+03  0.12971324120E+04  0.95000000000E+03 0.  0.
<mgrwt>
<rscale>  0 0.21264209E+04</rscale>
<asrwt>0</asrwt>
<pdfrwt beam="2">  1        2 0.42819704E+00 0.21264209E+04</pdfrwt>
<pdfrwt beam="1">  1       -2 0.62483897E-01 0.21264209E+04</pdfrwt>
<totfact> 0.51758904E+00</totfact>
</mgrwt>
</event>
<event>
 4    1  0.1323225E-008  0.2692383E+04  0.7816531E-02  0.8337481E-01
          2   -1    0    0  501    0  0.00000000000E+00  0.00000000000E+00  0.42718699858E+04  0.42718699858E+04  0.00000000000E+00 0.  1.
         -2   -1    0    0    0  501 -0.00000000000E+00 -0.00000000000E+00 -0.42422439709E+03  0.42422439709E+03  0.00000000000E+00 0. -1.
    2000013    1    1    2    0    0 -0.54256744904E+03  0.78444328642E+03  0.19222993957E+04  0.23467990270E+04  0.95000000000E+03 0.  0.
   -2000013    1    1    2    0    0  0.54256744904E+03 -0.78444328642E+03  0.19253461931E+04  0.23492953560E+04  0.95000000000E+03 0.  0.
<mgrwt>
<rscale>  0 0.26923829E+04</rscale>
<asrwt>0</asrwt>
<pdfrwt beam="1">  1        2 0.65721074E+00 0.26923829E+04</pdfrwt>
<pdfrwt beam="2">  1       -2 0.65265295E-01 0.26923829E+04</pdfrwt>
<totfact> 0.38274094E-01</totfact>
</mgrwt>
</event>
<event>
 4    1  0.1323225E-008  0.2624606E+04  0.7816531E-02  0.8359891E-01
          2   -1    0    0  501    0  0.00000000000E+00  0.00000000000E+00  0.22402182037E+04  0.22402182037E+04  0.00000000000E+00 0.  1.
         -2   -1    0    0    0  501 -0.00000000000E+00 -0.00000000000E+00 -0.76873736654E+03  0.76873736654E+03  0.00000000000E+00 0. -1.
    2000013    1    1    2    0    0 -0.77549489075E+03 -0.92424483290E+02  0.12607362331E+04  0.17612184590E+04  0.95000000000E+03 0.  0.
   -2000013    1    1    2    0    0  0.77549489075E+03  0.92424483290E+02  0.21074460402E+03  0.12477371113E+04  0.95000000000E+03 0.  0.
<mgrwt>
<rscale>  0 0.26246062E+04</rscale>
<asrwt>0</asrwt>
<pdfrwt beam="1">  1        2 0.34464895E+00 0.26246062E+04</pdfrwt>
<pdfrwt beam="2">  1       -2 0.11826729E+00 0.26246062E+04</pdfrwt>
<totfact> 0.23815892E+00</totfact>
</mgrwt>
</event>
<event>
 4    1  0.1323225E-008  0.2341442E+04  0.7816531E-02  0.8461758E-01
         -2   -1    0    0    0  501 -0.00000000000E+00  0.00000000000E+00  0.56399879554E+03  0.56399879554E+03  0.00000000000E+00 0. -1.
          2   -1    0    0  501    0  0.00000000000E+00 -0.00000000000E+00 -0.24301256318E+04  0.24301256318E+04  0.00000000000E+00 0.  1.
    2000013    1    1    2    0    0  0.26123293130E+03  0.29397023794E+03 -0.21715997563E+03  0.10508661191E+04  0.95000000000E+03 0.  0.
   -2000013    1    1    2    0    0 -0.26123293130E+03 -0.29397023794E+03 -0.16489668606E+04  0.19432583082E+04  0.95000000000E+03 0.  0.
<mgrwt>
<rscale>  0 0.23414422E+04</rscale>
<asrwt>0</asrwt>
<pdfrwt beam="2">  1        2 0.37386548E+00 0.23414422E+04</pdfrwt>
<pdfrwt beam="1">  1       -2 0.86769046E-01 0.23414422E+04</pdfrwt>
<totfact> 0.39674181E+00</totfact>
</mgrwt>
</event>
<event>
 4    1  0.1323225E-008  0.2256415E+04  0.7816531E-02  0.8495307E-01
          2   -1    0    0  501    0  0.00000000000E+00  0.00000000000E+00  0.27336357611E+04  0.27336357611E+04  0.00000000000E+00 0.  1.
         -2   -1    0    0    0  501 -0.00000000000E+00 -0.00000000000E+00 -0.46562625162E+03  0.46562625162E+03  0.00000000000E+00 0. -1.
    2000013    1    1    2    0    0  0.43069662398E+03  0.32516359502E+03  0.73518343461E+03  0.13169000068E+04  0.95000000000E+03 0.  0.
   -2000013    1    1    2    0    0 -0.43069662398E+03 -0.32516359502E+03  0.15328260749E+04  0.18823620059E+04  0.95000000000E+03 0.  0.
<mgrwt>
<rscale>  0 0.22564154E+04</rscale>
<asrwt>0</asrwt>
<pdfrwt beam="1">  1        2 0.42055934E+00 0.22564154E+04</pdfrwt>
<pdfrwt beam="2">  1       -2 0.71634810E-01 0.22564154E+04</pdfrwt>
<totfact> 0.40779535E+00</totfact>
</mgrwt>
</event>
<event>
 4    1  0.1323225E-008  0.2505112E+04  0.7816531E-02  0.8401167E-01
          2   -1    0    0  501    0  0.00000000000E+00  0.00000000000E+00  0.12298683430E+04  0.12298683430E+04  0.00000000000E+00 0.  1.
         -2   -1    0    0    0  501 -0.00000000000E+00 -0.00000000000E+00 -0.12756623376E+04  0.12756623376E+04  0.00000000000E+00 0. -1.
    2000013    1    1    2    0    0 -0.69977306823E+03 -0.36216835622E+03 -0.23635350546E+03  0.12566667199E+04  0.95000000000E+03 0.  0.
   -2000013    1    1    2    0    0  0.69977306823E+03  0.36216835622E+03  0.19055951079E+03  0.12488639607E+04  0.95000000000E+03 0.  0.
<mgrwt>
<rscale>  0 0.25051122E+04</rscale>
<asrwt>0</asrwt>
<pdfrwt beam="1">  1        2 0.18921051E+00 0.25051122E+04</pdfrwt>
<pdfrwt beam="2">  1       -2 0.19625574E+00 0.25051122E+04</pdfrwt>
<totfact> 0.22818315E+00</totfact>
</mgrwt>
</event>
<event>
 4    1  0.1323225E-008  0.3520487E+04  0.7816531E-02  0.8108952E-01
          1   -1    0    0  501    0  0.00000000000E+00  0.00000000000E+00  0.26223050613E+04  0.26223050613E+04  0.00000000000E+00 0. -1.
         -1   -1    0    0    0  501 -0.00000000000E+00 -0.00000000000E+00 -0.11815774461E+04  0.11815774461E+04  0.00000000000E+00 0.  1.
    2000013    1    1    2    0    0 -0.99885317021E+03 -0.97865185780E+03  0.12502375119E+04  0.21026319104E+04  0.95000000000E+03 0.  0.
   -2000013    1    1    2    0    0  0.99885317021E+03  0.97865185780E+03  0.19049010332E+03  0.17012505970E+04  0.95000000000E+03 0.  0.
<mgrwt>
<rscale>  0 0.35204866E+04</rscale>
<asrwt>0</asrwt>
<pdfrwt beam="1">  1        1 0.40343155E+00 0.35204866E+04</pdfrwt>
<pdfrwt beam="2">  1       -1 0.18178115E+00 0.35204866E+04</pdfrwt>
<totfact> 0.18313733E-01</totfact>
</mgrwt>
</event>
<event>
 4    1  0.1323225E-008  0.2290984E+04  0.7816531E-02  0.8481485E-01
         -2   -1    0    0    0  501 -0.00000000000E+00  0.00000000000E+00  0.37075527182E+03  0.37075527182E+03  0.00000000000E+00 0. -1.
          2   -1    0    0  501    0  0.00000000000E+00 -0.00000000000E+00 -0.35391312059E+04  0.35391312059E+04  0.00000000000E+00 0.  1.
    2000013    1    1    2    0    0 -0.59956178873E+03  0.21523733691E+03 -0.14782922729E+04  0.18691306786E+04  0.95000000000E+03 0.  0.
   -2000013    1    1    2    0    0  0.59956178873E+03 -0.21523733691E+03 -0.16900836612E+04  0.20407557991E+04  0.95000000000E+03 0.  0.
<mgrwt>
<rscale>  0 0.22909837E+04</rscale>
<asrwt>0</asrwt>
<pdfrwt beam="2">  1        2 0.54448171E+00 0.22909837E+04</pdfrwt>
<pdfrwt beam="1">  1       -2 0.57039274E-01 0.22909837E+04</pdfrwt>
<totfact> 0.20004807E+00</totfact>
</mgrwt>
</event>
<event>
 4    1  0.1323225E-008  0.2654115E+04  0.7816531E-02  0.8350048E-01
          2   -1    0    0  501    0  0.00000000000E+00  0.00000000000E+00  0.11098838026E+04  0.11098838026E+04  0.00000000000E+00 0.  1.
         -2   -1    0    0    0  501 -0.00000000000E+00 -0.00000000000E+00 -0.15867262485E+04  0.15867262485E+04  0.00000000000E+00 0. -1.
    2000013    1    1    2    0    0 -0.14963866733E+03  0.91157504047E+03 -0.16500799896E+03  0.13353233410E+04  0.95000000000E+03 0.  0.
   -2000013    1    1    2    0    0  0.14963866733E+03 -0.91157504047E+03 -0.31183444694E+03  0.13612867102E+04  0.95000000000E+03 0.  0.
<mgrwt>
<rscale>  0 0.26541151E+04</rscale>
<asrwt>0</asrwt>
<pdfrwt beam="1">  1        2 0.17075136E+00 0.26541151E+04</pdfrwt>
<pdfrwt beam="2">  1       -2 0.24411173E+00 0.26541151E+04</pdfrwt>
<totfact> 0.13215701E+00</totfact>
</mgrwt>
</event>
<event>
 4    1  0.1323225E-008  0.2806752E+04  0.7816531E-02  0.8301175E-01
          1   -1    0    0  501    0  0.00000000000E+00  0.00000000000E+00  0.31215622102E+04  0.31215622102E+04  0.00000000000E+00 0. -1.
         -1   -1    0    0    0  501 -0.00000000000E+00 -0.00000000000E+00 -0.63092270206E+03  0.63092270206E+03  0.00000000000E+00 0.  1.
    2000013    1    1    2    0    0 -0.83507167093E+02 -0.92477666264E+03  0.18503230541E+04  0.22778017314E+04  0.95000000000E+03 0.  0.
   -2000013    1    1    2    0    0  0.83507167093E+02  0.92477666264E+03  0.64031645399E+03  0.14746831809E+04  0.95000000000E+03 0.  0.
<mgrwt>
<rscale>  0 0.28067522E+04</rscale>
<asrwt>0</asrwt>
<pdfrwt beam="1">  1        1 0.48024033E+00 0.28067522E+04</pdfrwt>
<pdfrwt beam="2">  1       -1 0.97065033E-01 0.28067522E+04</pdfrwt>
<totfact> 0.42905050E-01</totfact>
</mgrwt>
</event>
<event>
 4    1  0.1323225E-008  0.2323830E+04  0.7816531E-02  0.8468584E-01
         -2   -1    0    0    0  501 -0.00000000000E+00  0.00000000000E+00  0.65017059064E+03  0.65017059064E+03  0.00000000000E+00 0. -1.
          2   -1    0    0  501    0  0.00000000000E+00 -0.00000000000E+00 -0.20764499858E+04  0.20764499858E+04  0.00000000000E+00 0.  1.
    2000013    1    1    2    0    0  0.55130373859E+03 -0.55886624766E+02 -0.11529235611E+04  0.15933586742E+04  0.95000000000E+03 0.  0.
   -2000013    1    1    2    0    0 -0.55130373859E+03  0.55886624766E+02 -0.27335583409E+03  0.11332619022E+04  0.95000000000E+03 0.  0.
<mgrwt>
<rscale>  0 0.23238302E+04</rscale>
<asrwt>0</asrwt>
<pdfrwt beam="2">  1        2 0.31945385E+00 0.23238302E+04</pdfrwt>
<pdfrwt beam="1">  1       -2 0.10002624E+00 0.23238302E+04</pdfrwt>
<totfact> 0.45236660E+00</totfact>
</mgrwt>
</event>
<event>
 4    1  0.1323225E-008  0.2934283E+04  0.7816531E-02  0.8262750E-01
         -2   -1    0    0    0  501 -0.00000000000E+00  0.00000000000E+00  0.23855451155E+04  0.23855451155E+04  0.00000000000E+00 0. -1.
          2   -1    0    0  501    0  0.00000000000E+00 -0.00000000000E+00 -0.90231126209E+03  0.90231126209E+03  0.00000000000E+00 0.  1.
    2000013    1    1    2    0    0 -0.44989821592E+03 -0.86396340853E+03  0.12670675343E+03  0.13665269033E+04  0.95000000000E+03 0.  0.
   -2000013    1    1    2    0    0  0.44989821592E+03  0.86396340853E+03  0.13565271000E+04  0.19213294743E+04  0.95000000000E+03 0.  0.
<mgrwt>
<rscale>  0 0.29342830E+04</rscale>
<asrwt>0</asrwt>
<pdfrwt beam="2">  1        2 0.13881712E+00 0.29342830E+04</pdfrwt>
<pdfrwt beam="1">  1       -2 0.36700694E+00 0.29342830E+04</pdfrwt>
<totfact> 0.30499356E-01</totfact>
</mgrwt>
</event>
<event>
 4    1  0.1323225E-008  0.2387607E+04  0.7816531E-02  0.8444158E-01
         -2   -1    0    0    0  501 -0.00000000000E+00  0.00000000000E+00  0.70101659075E+03  0.70101659075E+03  0.00000000000E+00 0. -1.
          2   -1    0    0  501    0  0.00000000000E+00 -0.00000000000E+00 -0.20330008469E+04  0.20330008469E+04  0.00000000000E+00 0.  1.
    2000013    1    1    2    0    0  0.39332937669E+03 -0.60426058648E+03 -0.60509259374E+03  0.13373391125E+04  0.95000000000E+03 0.  0.
   -2000013    1    1    2    0    0 -0.39332937669E+03  0.60426058648E+03 -0.72689166240E+03  0.13966783251E+04  0.95000000000E+03 0.  0.
<mgrwt>
<rscale>  0 0.23876074E+04</rscale>
<asrwt>0</asrwt>
<pdfrwt beam="2">  1        2 0.31276935E+00 0.23876074E+04</pdfrwt>
<pdfrwt beam="1">  1       -2 0.10784871E+00 0.23876074E+04</pdfrwt>
<totfact> 0.39727762E+00</totfact>
</mgrwt>
</event>
<event>
 4    1  0.1323225E-008  0.2002994E+04  0.7816531E-02  0.8605222E-01
         -2   -1    0    0    0  501 -0.00000000000E+00  0.00000000000E+00  0.47677888735E+03  0.47677888735E+03  0.00000000000E+00 0. -1.
          2   -1    0    0  501    0  0.00000000000E+00 -0.00000000000E+00 -0.21036918075E+04  0.21036918075E+04  0.00000000000E+00 0.  1.
    2000013    1    1    2    0    0 -0.28658736704E+03 -0.11428172052E+03 -0.90727501313E+03  0.13493852600E+04  0.95000000000E+03 0.  0.
   -2000013    1    1    2    0    0  0.28658736704E+03  0.11428172052E+03 -0.71963790706E+03  0.12310854348E+04  0.95000000000E+03 0.  0.
<mgrwt>
<rscale>  0 0.20029936E+04</rscale>
<asrwt>0</asrwt>
<pdfrwt beam="2">  1        2 0.32364489E+00 0.20029936E+04</pdfrwt>
<pdfrwt beam="1">  1       -2 0.73350599E-01 0.20029936E+04</pdfrwt>
<totfact> 0.91108951E+00</totfact>
</mgrwt>
</event>
<event>
 4    1  0.1323225E-008  0.2556838E+04  0.7816531E-02  0.8383012E-01
          2   -1    0    0  501    0  0.00000000000E+00  0.00000000000E+00  0.28302159606E+04  0.28302159606E+04  0.00000000000E+00 0. -1.
         -2   -1    0    0    0  501 -0.00000000000E+00 -0.00000000000E+00 -0.57746643748E+03  0.57746643748E+03  0.00000000000E+00 0.  1.
    2000013    1    1    2    0    0  0.51816528232E+03  0.56834436727E+03  0.62708448519E+03  0.13737705526E+04  0.95000000000E+03 0.  0.
   -2000013    1    1    2    0    0 -0.51816528232E+03 -0.56834436727E+03  0.16256650379E+04  0.20339118455E+04  0.95000000000E+03 0.  0.
<mgrwt>
<rscale>  0 0.25568377E+04</rscale>
<asrwt>0</asrwt>
<pdfrwt beam="1">  1        2 0.43541783E+00 0.25568377E+04</pdfrwt>
<pdfrwt beam="2">  1       -2 0.88840992E-01 0.25568377E+04</pdfrwt>
<totfact> 0.21424968E+00</totfact>
</mgrwt>
</event>
<event>
 4    1  0.1323225E-008  0.2309644E+04  0.7816531E-02  0.8474128E-01
          2   -1    0    0  501    0  0.00000000000E+00  0.00000000000E+00  0.28042619481E+04  0.28042619481E+04  0.00000000000E+00 0.  1.
         -2   -1    0    0    0  501 -0.00000000000E+00 -0.00000000000E+00 -0.47556691609E+03  0.47556691609E+03  0.00000000000E+00 0. -1.
    2000013    1    1    2    0    0  0.37289586072E+03 -0.18147647972E+03  0.44147080367E+03  0.11266683213E+04  0.95000000000E+03 0.  0.
   -2000013    1    1    2    0    0 -0.37289586072E+03  0.18147647972E+03  0.18872242284E+04  0.21531605430E+04  0.95000000000E+03 0.  0.
<mgrwt>
<rscale>  0 0.23096443E+04</rscale>
<asrwt>0</asrwt>
<pdfrwt beam="1">  1        2 0.43142491E+00 0.23096443E+04</pdfrwt>
<pdfrwt beam="2">  1       -2 0.73164142E-01 0.23096443E+04</pdfrwt>
<totfact> 0.35139200E+00</totfact>
</mgrwt>
</event>
<event>
 4    1  0.1323225E-008  0.3294276E+04  0.7816531E-02  0.8164353E-01
         -2   -1    0    0    0  501 -0.00000000000E+00  0.00000000000E+00  0.16144309835E+04  0.16144309835E+04  0.00000000000E+00 0. -1.
          2   -1    0    0  501    0  0.00000000000E+00 -0.00000000000E+00 -0.16805080104E+04  0.16805080104E+04  0.00000000000E+00 0.  1.
    2000013    1    1    2    0    0  0.13261519742E+04 -0.80459804816E+01 -0.26072525532E+03  0.16520355490E+04  0.95000000000E+03 0.  0.
   -2000013    1    1    2    0    0 -0.13261519742E+04  0.80459804816E+01  0.19464822845E+03  0.16429034449E+04  0.95000000000E+03 0.  0.
<mgrwt>
<rscale>  0 0.32942764E+04</rscale>
<asrwt>0</asrwt>
<pdfrwt beam="2">  1        2 0.25853969E+00 0.32942764E+04</pdfrwt>
<pdfrwt beam="1">  1       -2 0.24837400E+00 0.32942764E+04</pdfrwt>
<totfact> 0.55254959E-01</totfact>
</mgrwt>
</event>
<event>
 4    1  0.1323225E-008  0.2319248E+04  0.7816531E-02  0.8470370E-01
          2   -1    0    0  501    0  0.00000000000E+00  0.00000000000E+00  0.10800822807E+04  0.10800822807E+04  0.00000000000E+00 0.  1.
         -2   -1    0    0    0  501 -0.00000000000E+00 -0.00000000000E+00 -0.12450238662E+04  0.12450238662E+04  0.00000000000E+00 0. -1.
    2000013    1    1    2    0    0 -0.48146607134E+03  0.40815922710E+03  0.12740141361E+03  0.11476648695E+04  0.95000000000E+03 0.  0.
   -2000013    1    1    2    0    0  0.48146607134E+03 -0.40815922710E+03 -0.29234299914E+03  0.11774412774E+04  0.95000000000E+03 0.  0.
<mgrwt>
<rscale>  0 0.23192483E+04</rscale>
<asrwt>0</asrwt>
<pdfrwt beam="1">  1        2 0.16616650E+00 0.23192483E+04</pdfrwt>
<pdfrwt beam="2">  1       -2 0.19154213E+00 0.23192483E+04</pdfrwt>
<totfact> 0.30705376E+00</totfact>
</mgrwt>
</event>
<event>
 4    1  0.1323225E-008  0.2274407E+04  0.7816531E-02  0.8488081E-01
          2   -1    0    0  501    0  0.00000000000E+00  0.00000000000E+00  0.80252088152E+03  0.80252088152E+03  0.00000000000E+00 0.  1.
         -2   -1    0    0    0  501 -0.00000000000E+00 -0.00000000000E+00 -0.16114619628E+04  0.16114619628E+04  0.00000000000E+00 0. -1.
    2000013    1    1    2    0    0 -0.62423144675E+03 -0.27447937369E+01 -0.36992400090E+03  0.11954146559E+04  0.95000000000E+03 0.  0.
   -2000013    1    1    2    0    0  0.62423144675E+03  0.27447937369E+01 -0.43901708034E+03  0.12185681884E+04  0.95000000000E+03 0.  0.
<mgrwt>
<rscale>  0 0.22744071E+04</rscale>
<asrwt>0</asrwt>
<pdfrwt beam="1">  1        2 0.12346475E+00 0.22744071E+04</pdfrwt>
<pdfrwt beam="2">  1       -2 0.24791722E+00 0.22744071E+04</pdfrwt>
<totfact> 0.20622478E+00</totfact>
</mgrwt>
</event>
<event>
 4    1  0.1323225E-008  0.2728741E+04  0.7816531E-02  0.8325739E-01
         -2   -1    0    0    0  501 -0.00000000000E+00  0.00000000000E+00  0.15912343457E+04  0.15912343457E+04  0.00000000000E+00 0. -1.
          2   -1    0    0  501    0  0.00000000000E+00 -0.00000000000E+00 -0.11698505480E+04  0.11698505480E+04  0.00000000000E+00 0.  1.
    2000013    1    1    2    0    0 -0.49368479407E+03  0.81911628691E+03 -0.23511484769E+01  0.13480288184E+04  0.95000000000E+03 0.  0.
   -2000013    1    1    2    0    0  0.49368479407E+03 -0.81911628691E+03  0.42373494613E+03  0.14130560753E+04  0.95000000000E+03 0.  0.
<mgrwt>
<rscale>  0 0.27287406E+04</rscale>
<asrwt>0</asrwt>
<pdfrwt beam="2">  1        2 0.17997701E+00 0.27287406E+04</pdfrwt>
<pdfrwt beam="1">  1       -2 0.24480528E+00 0.27287406E+04</pdfrwt>
<totfact> 0.11956498E+00</totfact>
</mgrwt>
</event>
<event>
 4    1  0.1323225E-008  0.3472458E+04  0.7816531E-02  0.8120348E-01
          2   -1    0    0  501    0  0.00000000000E+00  0.00000000000E+00  0.22465349736E+04  0.22465349736E+04  0.00000000000E+00 0.  1.
         -2   -1    0    0    0  501 -0.00000000000E+00 -0.00000000000E+00 -0.13418402120E+04  0.13418402120E+04  0.00000000000E+00 0. -1.
    2000013    1    1    2    0    0 -0.13742516722E+04 -0.55027277896E+02  0.93748173038E+03  0.19164988011E+04  0.95000000000E+03 0.  0.
   -2000013    1    1    2    0    0  0.13742516722E+04  0.55027277896E+02 -0.32786968783E+02  0.16718763845E+04  0.95000000000E+03 0.  0.
<mgrwt>
<rscale>  0 0.34724579E+04</rscale>
<asrwt>0</asrwt>
<pdfrwt beam="1">  1        2 0.34562076E+00 0.34724579E+04</pdfrwt>
<pdfrwt beam="2">  1       -2 0.20643696E+00 0.34724579E+04</pdfrwt>
<totfact> 0.48336462E-01</totfact>
</mgrwt>
</event>
<event>
 4    1  0.1323225E-008  0.3049172E+04  0.7816531E-02  0.8229827E-01
          2   -1    0    0  501    0  0.00000000000E+00  0.00000000000E+00  0.19118793695E+04  0.19118793695E+04  0.00000000000E+00 0.  1.
         -2   -1    0    0    0  501 -0.00000000000E+00 -0.00000000000E+00 -0.12157476435E+04  0.12157476435E+04  0.00000000000E+00 0. -1.
    2000013    1    1    2    0    0  0.64617876037E+03 -0.62724102821E+03  0.11497671215E+04  0.17422522009E+04  0.95000000000E+03 0.  0.
   -2000013    1    1    2    0    0 -0.64617876037E+03  0.62724102821E+03 -0.45363539553E+03  0.13853748121E+04  0.95000000000E+03 0.  0.
<mgrwt>
<rscale>  0 0.30491722E+04</rscale>
<asrwt>0</asrwt>
<pdfrwt beam="1">  1        2 0.29413529E+00 0.30491722E+04</pdfrwt>
<pdfrwt beam="2">  1       -2 0.18703810E+00 0.30491722E+04</pdfrwt>
<totfact> 0.10349642E+00</totfact>
</mgrwt>
</event>
<event>
 4    1  0.1323225E-008  0.2474805E+04  0.7816531E-02  0.8412017E-01
         -2   -1    0    0    0  501 -0.00000000000E+00  0.00000000000E+00  0.96967802204E+03  0.96967802204E+03  0.00000000000E+00 0. -1.
          2   -1    0    0  501    0  0.00000000000E+00 -0.00000000000E+00 -0.15790446842E+04  0.15790446842E+04  0.00000000000E+00 0.  1.
    2000013    1    1    2    0    0  0.49027900736E+03  0.49398209385E+03  0.86494564608E+02  0.11808357734E+04  0.95000000000E+03 0.  0.
   -2000013    1    1    2    0    0 -0.49027900736E+03 -0.49398209385E+03 -0.69586122681E+03  0.13678869329E+04  0.95000000000E+03 0.  0.
<mgrwt>
<rscale>  0 0.24748050E+04</rscale>
<asrwt>0</asrwt>
<pdfrwt beam="2">  1        2 0.24292995E+00 0.24748050E+04</pdfrwt>
<pdfrwt beam="1">  1       -2 0.14918123E+00 0.24748050E+04</pdfrwt>
<totfact> 0.31134616E+00</totfact>
</mgrwt>
</event>
<event>
 4    1  0.1323225E-008  0.3216411E+04  0.7816531E-02  0.8184496E-01
          2   -1    0    0  501    0  0.00000000000E+00  0.00000000000E+00  0.11326041866E+04  0.11326041866E+04  0.00000000000E+00 0.  1.
         -2   -1    0    0    0  501 -0.00000000000E+00 -0.00000000000E+00 -0.22835211428E+04  0.22835211428E+04  0.00000000000E+00 0. -1.
    2000013    1    1    2    0    0  0.12863696136E+04 -0.68203204176E+02 -0.40946211546E+03  0.16521373078E+04  0.95000000000E+03 0.  0.
   -2000013    1    1    2    0    0 -0.12863696136E+04  0.68203204176E+02 -0.74145484068E+03  0.17639880216E+04  0.95000000000E+03 0.  0.
<mgrwt>
<rscale>  0 0.32164114E+04</rscale>
<asrwt>0</asrwt>
<pdfrwt beam="1">  1        2 0.17424680E+00 0.32164114E+04</pdfrwt>
<pdfrwt beam="2">  1       -2 0.35131094E+00 0.32164114E+04</pdfrwt>
<totfact> 0.26693661E-01</totfact>
</mgrwt>
</event>
<event>
 4    1  0.1323225E-008  0.2397560E+04  0.7816531E-02  0.8440417E-01
         -1   -1    0    0    0  501 -0.00000000000E+00  0.00000000000E+00  0.57555645073E+03  0.57555645073E+03  0.00000000000E+00 0.  1.
          1   -1    0    0  501    0  0.00000000000E+00 -0.00000000000E+00 -0.24968428032E+04  0.24968428032E+04  0.00000000000E+00 0. -1.
    2000013    1    1    2    0    0  0.55682449573E+03  0.42219333788E+03 -0.12363027532E+04  0.17085798873E+04  0.95000000000E+03 0.  0.
   -2000013    1    1    2    0    0 -0.55682449573E+03 -0.42219333788E+03 -0.68498359925E+03  0.13638193666E+04  0.95000000000E+03 0.  0.
<mgrwt>
<rscale>  0 0.23975604E+04</rscale>
<asrwt>0</asrwt>
<pdfrwt beam="2">  1        1 0.38412966E+00 0.23975604E+04</pdfrwt>
<pdfrwt beam="1">  1       -1 0.88547146E-01 0.23975604E+04</pdfrwt>
<totfact> 0.15277012E+00</totfact>
</mgrwt>
</event>
<event>
 4    1  0.1323225E-008  0.4427630E+04  0.7816531E-02  0.7923431E-01
          2   -1    0    0  501    0  0.00000000000E+00  0.00000000000E+00  0.56089959820E+04  0.56089959820E+04  0.00000000000E+00 0.  1.
         -2   -1    0    0    0  501 -0.00000000000E+00 -0.00000000000E+00 -0.87377062499E+03  0.87377062499E+03  0.00000000000E+00 0. -1.
    2000013    1    1    2    0    0 -0.14352977046E+04 -0.13547544686E+04  0.18976263878E+04  0.28980899018E+04  0.95000000000E+03 0.  0.
   -2000013    1    1    2    0    0  0.14352977046E+04  0.13547544686E+04  0.28375989692E+04  0.35846767052E+04  0.95000000000E+03 0.  0.
<mgrwt>
<rscale>  0 0.44276296E+04</rscale>
<asrwt>0</asrwt>
<pdfrwt beam="1">  1        2 0.86292244E+00 0.44276296E+04</pdfrwt>
<pdfrwt beam="2">  1       -2 0.13442625E+00 0.44276296E+04</pdfrwt>
<totfact> 0.10873697E-03</totfact>
</mgrwt>
</event>
<event>
 4    1  0.1323225E-008  0.2066586E+04  0.7816531E-02  0.8576107E-01
          2   -1    0    0  501    0  0.00000000000E+00  0.00000000000E+00  0.58854089487E+03  0.58854089487E+03  0.00000000000E+00 0.  1.
         -2   -1    0    0    0  501 -0.00000000000E+00 -0.00000000000E+00 -0.18141383799E+04  0.18141383799E+04  0.00000000000E+00 0. -1.
    2000013    1    1    2    0    0  0.29519983961E+03 -0.27850491073E+03 -0.58714972785E+03  0.11882561734E+04  0.95000000000E+03 0.  0.
   -2000013    1    1    2    0    0 -0.29519983961E+03  0.27850491073E+03 -0.63844775719E+03  0.12144231014E+04  0.95000000000E+03 0.  0.
<mgrwt>
<rscale>  0 0.20665862E+04</rscale>
<asrwt>0</asrwt>
<pdfrwt beam="1">  1        2 0.90544753E-01 0.20665862E+04</pdfrwt>
<pdfrwt beam="2">  1       -2 0.27909821E+00 0.20665862E+04</pdfrwt>
<totfact> 0.20014352E+00</totfact>
</mgrwt>
</event>
<event>
 4    1  0.1323225E-008  0.3013444E+04  0.7816531E-02  0.8239902E-01
          2   -1    0    0  501    0  0.00000000000E+00  0.00000000000E+00  0.19181967882E+04  0.19181967882E+04  0.00000000000E+00 0.  1.
         -2   -1    0    0    0  501 -0.00000000000E+00 -0.00000000000E+00 -0.11835130995E+04  0.11835130995E+04  0.00000000000E+00 0. -1.
    2000013    1    1    2    0    0  0.65513249591E+02  0.11592754123E+04  0.51107284768E+03  0.15848996571E+04  0.95000000000E+03 0.  0.
   -2000013    1    1    2    0    0 -0.65513249591E+02 -0.11592754123E+04  0.22361084098E+03  0.15168102306E+04  0.95000000000E+03 0.  0.
<mgrwt>
<rscale>  0 0.30134439E+04</rscale>
<asrwt>0</asrwt>
<pdfrwt beam="1">  1        2 0.29510720E+00 0.30134439E+04</pdfrwt>
<pdfrwt beam="2">  1       -2 0.18207894E+00 0.30134439E+04</pdfrwt>
<totfact> 0.11130547E+00</totfact>
</mgrwt>
</event>
<event>
 4    1  0.1323225E-008  0.2523666E+04  0.7816531E-02  0.8394602E-01
         -2   -1    0    0    0  501 -0.00000000000E+00  0.00000000000E+00  0.97785275822E+03  0.97785275822E+03  0.00000000000E+00 0. -1.
          2   -1    0    0  501    0  0.00000000000E+00 -0.00000000000E+00 -0.16282850132E+04  0.16282850132E+04  0.00000000000E+00 0.  1.
    2000013    1    1    2    0    0  0.66473215691E+03  0.49314750701E+03 -0.39570877385E+03  0.13206622346E+04  0.95000000000E+03 0.  0.
   -2000013    1    1    2    0    0 -0.66473215691E+03 -0.49314750701E+03 -0.25472348117E+03  0.12854755369E+04  0.95000000000E+03 0.  0.
<mgrwt>
<rscale>  0 0.25236664E+04</rscale>
<asrwt>0</asrwt>
<pdfrwt beam="2">  1        2 0.25050539E+00 0.25236664E+04</pdfrwt>
<pdfrwt beam="1">  1       -2 0.15043889E+00 0.25236664E+04</pdfrwt>
<totfact> 0.28461577E+00</totfact>
</mgrwt>
</event>
<event>
 4    1  0.1323225E-008  0.2878618E+04  0.7816531E-02  0.8279268E-01
         -2   -1    0    0    0  501 -0.00000000000E+00  0.00000000000E+00  0.61168121532E+03  0.61168121532E+03  0.00000000000E+00 0. -1.
          2   -1    0    0  501    0  0.00000000000E+00 -0.00000000000E+00 -0.33867484824E+04  0.33867484824E+04  0.00000000000E+00 0.  1.
    2000013    1    1    2    0    0  0.46807586630E+03  0.77645536508E+03 -0.56915732511E+03  0.14312295453E+04  0.95000000000E+03 0.  0.
   -2000013    1    1    2    0    0 -0.46807586630E+03 -0.77645536508E+03 -0.22059099419E+04  0.25672001524E+04  0.95000000000E+03 0.  0.
<mgrwt>
<rscale>  0 0.28786180E+04</rscale>
<asrwt>0</asrwt>
<pdfrwt beam="2">  1        2 0.52103824E+00 0.28786180E+04</pdfrwt>
<pdfrwt beam="1">  1       -2 0.94104801E-01 0.28786180E+04</pdfrwt>
<totfact> 0.80156250E-01</totfact>
</mgrwt>
</event>
<event>
 4    1  0.1323225E-008  0.3064703E+04  0.7816531E-02  0.8225492E-01
          2   -1    0    0  501    0  0.00000000000E+00  0.00000000000E+00  0.93872924245E+03  0.93872924245E+03  0.00000000000E+00 0.  1.
         -2   -1    0    0    0  501 -0.00000000000E+00 -0.00000000000E+00 -0.25013610786E+04  0.25013610786E+04  0.00000000000E+00 0. -1.
    2000013    1    1    2    0    0  0.86278499743E+03 -0.80254362366E+03 -0.10496034928E+04  0.18419125147E+04  0.95000000000E+03 0.  0.
   -2000013    1    1    2    0    0 -0.86278499743E+03  0.80254362366E+03 -0.51302834336E+03  0.15981778064E+04  0.95000000000E+03 0.  0.
<mgrwt>
<rscale>  0 0.30647028E+04</rscale>
<asrwt>0</asrwt>
<pdfrwt beam="1">  1        2 0.14441988E+00 0.30647028E+04</pdfrwt>
<pdfrwt beam="2">  1       -2 0.38482478E+00 0.30647028E+04</pdfrwt>
<totfact> 0.21901172E-01</totfact>
</mgrwt>
</event>
<event>
 4    1  0.1323225E-008  0.2408873E+04  0.7816531E-02  0.8436189E-01
         -2   -1    0    0    0  501 -0.00000000000E+00  0.00000000000E+00  0.10238420453E+04  0.10238420453E+04  0.00000000000E+00 0.  1.
          2   -1    0    0  501    0  0.00000000000E+00 -0.00000000000E+00 -0.14168859695E+04  0.14168859695E+04  0.00000000000E+00 0. -1.
    2000013    1    1    2    0    0  0.55991686969E+03 -0.48090558816E+03 -0.13752531982E+03  0.12108634520E+04  0.95000000000E+03 0.  0.
   -2000013    1    1    2    0    0 -0.55991686969E+03  0.48090558816E+03 -0.25551860436E+03  0.12298645628E+04  0.95000000000E+03 0.  0.
<mgrwt>
<rscale>  0 0.24088731E+04</rscale>
<asrwt>0</asrwt>
<pdfrwt beam="2">  1        2 0.21798246E+00 0.24088731E+04</pdfrwt>
<pdfrwt beam="1">  1       -2 0.15751416E+00 0.24088731E+04</pdfrwt>
<totfact> 0.33430503E+00</totfact>
</mgrwt>
</event>
<event>
 4    1  0.1323225E-008  0.2441828E+04  0.7816531E-02  0.8424008E-01
         -2   -1    0    0    0  501 -0.00000000000E+00  0.00000000000E+00  0.91117811476E+03  0.91117811476E+03  0.00000000000E+00 0. -1.
          2   -1    0    0  501    0  0.00000000000E+00 -0.00000000000E+00 -0.16359385880E+04  0.16359385880E+04  0.00000000000E+00 0.  1.
    2000013    1    1    2    0    0 -0.17635819375E+03 -0.70703707585E+03 -0.61170043115E+03  0.13445003000E+04  0.95000000000E+03 0.  0.
   -2000013    1    1    2    0    0  0.17635819375E+03  0.70703707585E+03 -0.11306004208E+03  0.12026164028E+04  0.95000000000E+03 0.  0.
<mgrwt>
<rscale>  0 0.24418284E+04</rscale>
<asrwt>0</asrwt>
<pdfrwt beam="2">  1        2 0.25168286E+00 0.24418284E+04</pdfrwt>
<pdfrwt beam="1">  1       -2 0.14018125E+00 0.24418284E+04</pdfrwt>
<totfact> 0.34160986E+00</totfact>
</mgrwt>
</event>
<event>
 4    1  0.1323225E-008  0.2358836E+04  0.7816531E-02  0.8455078E-01
          2   -1    0    0  501    0  0.00000000000E+00  0.00000000000E+00  0.27773638079E+04  0.27773638079E+04  0.00000000000E+00 0.  1.
         -2   -1    0    0    0  501 -0.00000000000E+00 -0.00000000000E+00 -0.50084413127E+03  0.50084413127E+03  0.00000000000E+00 0. -1.
    2000013    1    1    2    0    0 -0.88161379798E+02  0.23139497324E+03  0.20466233477E+04  0.22699081898E+04  0.95000000000E+03 0.  0.
   -2000013    1    1    2    0    0  0.88161379798E+02 -0.23139497324E+03  0.22989632885E+03  0.10082997494E+04  0.95000000000E+03 0.  0.
<mgrwt>
<rscale>  0 0.23588356E+04</rscale>
<asrwt>0</asrwt>
<pdfrwt beam="1">  1        2 0.42728673E+00 0.23588356E+04</pdfrwt>
<pdfrwt beam="2">  1       -2 0.77052945E-01 0.23588356E+04</pdfrwt>
<totfact> 0.32382738E+00</totfact>
</mgrwt>
</event>
<event>
 4    1  0.1323225E-008  0.2080535E+04  0.7816531E-02  0.8569867E-01
          2   -1    0    0  501    0  0.00000000000E+00  0.00000000000E+00  0.79426108229E+03  0.79426108229E+03  0.00000000000E+00 0.  1.
         -2   -1    0    0    0  501 -0.00000000000E+00 -0.00000000000E+00 -0.13624689578E+04  0.13624689578E+04  0.00000000000E+00 0. -1.
    2000013    1    1    2    0    0 -0.17647145299E+03  0.37463550718E+03 -0.19045073162E+03  0.10536913296E+04  0.95000000000E+03 0.  0.
   -2000013    1    1    2    0    0  0.17647145299E+03 -0.37463550718E+03 -0.37775714385E+03  0.11030387104E+04  0.95000000000E+03 0.  0.
<mgrwt>
<rscale>  0 0.20805346E+04</rscale>
<asrwt>0</asrwt>
<pdfrwt beam="1">  1        2 0.12219401E+00 0.20805346E+04</pdfrwt>
<pdfrwt beam="2">  1       -2 0.20961061E+00 0.20805346E+04</pdfrwt>
<totfact> 0.36953049E+00</totfact>
</mgrwt>
</event>
<event>
 4    1  0.1323225E-008  0.2431040E+04  0.7816531E-02  0.8427973E-01
         -2   -1    0    0    0  501 -0.00000000000E+00  0.00000000000E+00  0.92325727392E+03  0.92325727392E+03  0.00000000000E+00 0. -1.
          2   -1    0    0  501    0  0.00000000000E+00 -0.00000000000E+00 -0.16003003518E+04  0.16003003518E+04  0.00000000000E+00 0.  1.
    2000013    1    1    2    0    0 -0.42623560866E+03 -0.62635308973E+03 -0.30579469951E+03  0.12529985576E+04  0.95000000000E+03 0.  0.
   -2000013    1    1    2    0    0  0.42623560866E+03  0.62635308973E+03 -0.37124837835E+03  0.12705590681E+04  0.95000000000E+03 0.  0.
<mgrwt>
<rscale>  0 0.24310401E+04</rscale>
<asrwt>0</asrwt>
<pdfrwt beam="2">  1        2 0.24620005E+00 0.24310401E+04</pdfrwt>
<pdfrwt beam="1">  1       -2 0.14203958E+00 0.24310401E+04</pdfrwt>
<totfact> 0.34588825E+00</totfact>
</mgrwt>
</event>
<event>
 4    1  0.1323225E-008  0.2073073E+04  0.7816531E-02  0.8573199E-01
          2   -1    0    0  501    0  0.00000000000E+00  0.00000000000E+00  0.90974425156E+03  0.90974425156E+03  0.00000000000E+00 0.  1.
         -2   -1    0    0    0  501 -0.00000000000E+00 -0.00000000000E+00 -0.11809997099E+04  0.11809997099E+04  0.00000000000E+00 0. -1.
    2000013    1    1    2    0    0 -0.35952546116E+03 -0.20337930889E+03 -0.99461250391E+02  0.10406797014E+04  0.95000000000E+03 0.  0.
   -2000013    1    1    2    0    0  0.35952546116E+03  0.20337930889E+03 -0.17179420799E+03  0.10500642601E+04  0.95000000000E+03 0.  0.
<mgrwt>
<rscale>  0 0.20730728E+04</rscale>
<asrwt>0</asrwt>
<pdfrwt beam="1">  1        2 0.13996065E+00 0.20730728E+04</pdfrwt>
<pdfrwt beam="2">  1       -2 0.18169226E+00 0.20730728E+04</pdfrwt>
<totfact> 0.47066957E+00</totfact>
</mgrwt>
</event>
<event>
 4    1  0.1323225E-008  0.2465354E+04  0.7816531E-02  0.8415433E-01
          2   -1    0    0  501    0  0.00000000000E+00  0.00000000000E+00  0.11933057810E+04  0.11933057810E+04  0.00000000000E+00 0.  1.
         -2   -1    0    0    0  501 -0.00000000000E+00 -0.00000000000E+00 -0.12733477237E+04  0.12733477237E+04  0.00000000000E+00 0. -1.
    2000013    1    1    2    0    0  0.50400913871E+03 -0.23837377402E+03 -0.59361706636E+03  0.12512907294E+04  0.95000000000E+03 0.  0.
   -2000013    1    1    2    0    0 -0.50400913871E+03  0.23837377402E+03  0.51357512361E+03  0.12153627753E+04  0.95000000000E+03 0.  0.
<mgrwt>
<rscale>  0 0.24653545E+04</rscale>
<asrwt>0</asrwt>
<pdfrwt beam="1">  1        2 0.18358550E+00 0.24653545E+04</pdfrwt>
<pdfrwt beam="2">  1       -2 0.19589965E+00 0.24653545E+04</pdfrwt>
<totfact> 0.24203000E+00</totfact>
</mgrwt>
</event>
<event>
 4    1  0.1323225E-008  0.3123021E+04  0.7816531E-02  0.8209448E-01
         -1   -1    0    0    0  501 -0.00000000000E+00  0.00000000000E+00  0.15661297115E+04  0.15661297115E+04  0.00000000000E+00 0. -1.
          1   -1    0    0  501    0  0.00000000000E+00 -0.00000000000E+00 -0.15569050427E+04  0.15569050427E+04  0.00000000000E+00 0.  1.
    2000013    1    1    2    0    0  0.10501644962E+04 -0.44657476806E+03  0.48787498587E+03  0.15629448149E+04  0.95000000000E+03 0.  0.
   -2000013    1    1    2    0    0 -0.10501644962E+04  0.44657476806E+03 -0.47865031712E+03  0.15600899393E+04  0.95000000000E+03 0.  0.
<mgrwt>
<rscale>  0 0.31230211E+04</rscale>
<asrwt>0</asrwt>
<pdfrwt beam="2">  1        1 0.23952385E+00 0.31230211E+04</pdfrwt>
<pdfrwt beam="1">  1       -1 0.24094303E+00 0.31230211E+04</pdfrwt>
<totfact> 0.40216843E-01</totfact>
</mgrwt>
</event>
<event>
 4    1  0.1323225E-008  0.2543438E+04  0.7816531E-02  0.8387672E-01
         -2   -1    0    0    0  501 -0.00000000000E+00  0.00000000000E+00  0.20178660223E+04  0.20178660223E+04  0.00000000000E+00 0. -1.
          2   -1    0    0  501    0  0.00000000000E+00 -0.00000000000E+00 -0.80147514647E+03  0.80147514647E+03  0.00000000000E+00 0.  1.
    2000013    1    1    2    0    0  0.84349748153E+03 -0.77981300442E+01  0.54528851401E+03  0.13825297016E+04  0.95000000000E+03 0.  0.
   -2000013    1    1    2    0    0 -0.84349748153E+03  0.77981300442E+01  0.67110236178E+03  0.14368114672E+04  0.95000000000E+03 0.  0.
<mgrwt>
<rscale>  0 0.25434382E+04</rscale>
<asrwt>0</asrwt>
<pdfrwt beam="2">  1        2 0.12330387E+00 0.25434382E+04</pdfrwt>
<pdfrwt beam="1">  1       -2 0.31044093E+00 0.25434382E+04</pdfrwt>
<totfact> 0.83760452E-01</totfact>
</mgrwt>
</event>
<event>
 4    1  0.1323225E-008  0.2582596E+04  0.7816531E-02  0.8374137E-01
         -2   -1    0    0    0  501 -0.00000000000E+00  0.00000000000E+00  0.15970659335E+04  0.15970659335E+04  0.00000000000E+00 0. -1.
          2   -1    0    0  501    0  0.00000000000E+00 -0.00000000000E+00 -0.10440714906E+04  0.10440714906E+04  0.00000000000E+00 0.  1.
    2000013    1    1    2    0    0 -0.50829460408E+03 -0.46892363419E+03 -0.27108201042E+03  0.12059180053E+04  0.95000000000E+03 0.  0.
   -2000013    1    1    2    0    0  0.50829460408E+03  0.46892363419E+03  0.82407645329E+03  0.14352194188E+04  0.95000000000E+03 0.  0.
<mgrwt>
<rscale>  0 0.25825964E+04</rscale>
<asrwt>0</asrwt>
<pdfrwt beam="2">  1        2 0.16062638E+00 0.25825964E+04</pdfrwt>
<pdfrwt beam="1">  1       -2 0.24570245E+00 0.25825964E+04</pdfrwt>
<totfact> 0.14284146E+00</totfact>
</mgrwt>
</event>
<event>
 4    1  0.1323225E-008  0.2128085E+04  0.7816531E-02  0.8548972E-01
          1   -1    0    0  501    0  0.00000000000E+00  0.00000000000E+00  0.15129049397E+04  0.15129049397E+04  0.00000000000E+00 0. -1.
         -1   -1    0    0    0  501 -0.00000000000E+00 -0.00000000000E+00 -0.74835285457E+03  0.74835285457E+03  0.00000000000E+00 0.  1.
    2000013    1    1    2    0    0  0.35164956244E+03 -0.19626691771E+03  0.65835966342E+03  0.12239753119E+04  0.95000000000E+03 0.  0.
   -2000013    1    1    2    0    0 -0.35164956244E+03  0.19626691771E+03  0.10619242170E+03  0.10372824823E+04  0.95000000000E+03 0.  0.
<mgrwt>
<rscale>  0 0.21280853E+04</rscale>
<asrwt>0</asrwt>
<pdfrwt beam="1">  1        1 0.23275461E+00 0.21280853E+04</pdfrwt>
<pdfrwt beam="2">  1       -1 0.11513121E+00 0.21280853E+04</pdfrwt>
<totfact> 0.40243813E+00</totfact>
</mgrwt>
</event>
<event>
 4    1  0.1323225E-008  0.2076371E+04  0.7816531E-02  0.8571724E-01
         -2   -1    0    0    0  501 -0.00000000000E+00  0.00000000000E+00  0.71573934327E+03  0.71573934327E+03  0.00000000000E+00 0. -1.
          2   -1    0    0  501    0  0.00000000000E+00 -0.00000000000E+00 -0.15058966200E+04  0.15058966200E+04  0.00000000000E+00 0.  1.
    2000013    1    1    2    0    0 -0.63607649953E+02  0.40306312622E+03 -0.49558459252E+03  0.11465643921E+04  0.95000000000E+03 0.  0.
   -2000013    1    1    2    0    0  0.63607649953E+02 -0.40306312622E+03 -0.29457268419E+03  0.10750715712E+04  0.95000000000E+03 0.  0.
<mgrwt>
<rscale>  0 0.20763713E+04</rscale>
<asrwt>0</asrwt>
<pdfrwt beam="2">  1        2 0.23167640E+00 0.20763713E+04</pdfrwt>
<pdfrwt beam="1">  1       -2 0.11011375E+00 0.20763713E+04</pdfrwt>
<totfact> 0.76236973E+00</totfact>
</mgrwt>
</event>
<event>
 4    1  0.1323225E-008  0.2942288E+04  0.7816531E-02  0.8260406E-01
         -2   -1    0    0    0  501 -0.00000000000E+00  0.00000000000E+00  0.12131254975E+04  0.12131254975E+04  0.00000000000E+00 0. -1.
          2   -1    0    0  501    0  0.00000000000E+00 -0.00000000000E+00 -0.17840405583E+04  0.17840405583E+04  0.00000000000E+00 0.  1.
    2000013    1    1    2    0    0 -0.76512586382E+03  0.54746192654E+03  0.33969318659E+03  0.13795012177E+04  0.95000000000E+03 0.  0.
   -2000013    1    1    2    0    0  0.76512586382E+03 -0.54746192654E+03 -0.91060824736E+03  0.16176648382E+04  0.95000000000E+03 0.  0.
<mgrwt>
<rscale>  0 0.29422883E+04</rscale>
<asrwt>0</asrwt>
<pdfrwt beam="2">  1        2 0.27446778E+00 0.29422883E+04</pdfrwt>
<pdfrwt beam="1">  1       -2 0.18663469E+00 0.29422883E+04</pdfrwt>
<totfact> 0.12372197E+00</totfact>
</mgrwt>
</event>
<event>
 4    1  0.1323225E-008  0.2453225E+04  0.7816531E-02  0.8419841E-01
          2   -1    0    0  501    0  0.00000000000E+00  0.00000000000E+00  0.37398437053E+04  0.37398437053E+04  0.00000000000E+00 0.  1.
         -2   -1    0    0    0  501 -0.00000000000E+00 -0.00000000000E+00 -0.40231060432E+03  0.40231060432E+03  0.00000000000E+00 0. -1.
    2000013    1    1    2    0    0 -0.20444953710E+02  0.76807353401E+03  0.18515865035E+04  0.22183839906E+04  0.95000000000E+03 0.  0.
   -2000013    1    1    2    0    0  0.20444953710E+02 -0.76807353401E+03  0.14859465974E+04  0.19237703190E+04  0.95000000000E+03 0.  0.
<mgrwt>
<rscale>  0 0.24532255E+04</rscale>
<asrwt>0</asrwt>
<pdfrwt beam="1">  1        2 0.57536055E+00 0.24532255E+04</pdfrwt>
<pdfrwt beam="2">  1       -2 0.61893941E-01 0.24532255E+04</pdfrwt>
<totfact> 0.11865835E+00</totfact>
</mgrwt>
</event>
<event>
 4    1  0.1323225E-008  0.2415651E+04  0.7816531E-02  0.8433667E-01
         -4   -1    0    0    0  501 -0.00000000000E+00  0.00000000000E+00  0.24101501045E+04  0.24101501045E+04  0.00000000000E+00 0. -1.
          4   -1    0    0  501    0  0.00000000000E+00 -0.00000000000E+00 -0.60529106556E+03  0.60529106556E+03  0.00000000000E+00 0.  1.
    2000013    1    1    2    0    0  0.56103019758E+03 -0.46209940999E+03  0.11115012589E+04  0.16328581677E+04  0.95000000000E+03 0.  0.
   -2000013    1    1    2    0    0 -0.56103019758E+03  0.46209940999E+03  0.69335778010E+03  0.13825830024E+04  0.95000000000E+03 0.  0.
<mgrwt>
<rscale>  0 0.24156509E+04</rscale>
<asrwt>0</asrwt>
<pdfrwt beam="2">  1        4 0.93121704E-01 0.24156509E+04</pdfrwt>
<pdfrwt beam="1">  1       -4 0.37079232E+00 0.24156509E+04</pdfrwt>
<totfact> 0.18938385E-02</totfact>
</mgrwt>
</event>
<event>
 4    1  0.1323225E-008  0.2442643E+04  0.7816531E-02  0.8423709E-01
         -2   -1    0    0    0  501 -0.00000000000E+00  0.00000000000E+00  0.67227002525E+03  0.67227002525E+03  0.00000000000E+00 0. -1.
          2   -1    0    0  501    0  0.00000000000E+00 -0.00000000000E+00 -0.22187910351E+04  0.22187910351E+04  0.00000000000E+00 0.  1.
    2000013    1    1    2    0    0 -0.15129437042E+03  0.62500862084E+03 -0.12692364514E+04  0.17108439240E+04  0.95000000000E+03 0.  0.
   -2000013    1    1    2    0    0  0.15129437042E+03 -0.62500862084E+03 -0.27728455846E+03  0.11802171364E+04  0.95000000000E+03 0.  0.
<mgrwt>
<rscale>  0 0.24426434E+04</rscale>
<asrwt>0</asrwt>
<pdfrwt beam="2">  1        2 0.34135247E+00 0.24426434E+04</pdfrwt>
<pdfrwt beam="1">  1       -2 0.10342616E+00 0.24426434E+04</pdfrwt>
<totfact> 0.34415301E+00</totfact>
</mgrwt>
</event>
<event>
 4    1  0.1323225E-008  0.4858075E+04  0.7816531E-02  0.7850781E-01
         -1   -1    0    0    0  501 -0.00000000000E+00  0.00000000000E+00  0.20114996420E+04  0.20114996420E+04  0.00000000000E+00 0. -1.
          1   -1    0    0  501    0  0.00000000000E+00 -0.00000000000E+00 -0.29332454370E+04  0.29332454370E+04  0.00000000000E+00 0.  1.
    2000013    1    1    2    0    0  0.78391487089E+03 -0.69738470876E+03 -0.24701359930E+04  0.28469175929E+04  0.95000000000E+03 0.  0.
   -2000013    1    1    2    0    0 -0.78391487089E+03  0.69738470876E+03  0.15483901980E+04  0.20978274862E+04  0.95000000000E+03 0.  0.
<mgrwt>
<rscale>  0 0.48580746E+04</rscale>
<asrwt>0</asrwt>
<pdfrwt beam="2">  1        1 0.45126853E+00 0.48580746E+04</pdfrwt>
<pdfrwt beam="1">  1       -1 0.30946149E+00 0.48580746E+04</pdfrwt>
<totfact> 0.13989865E-02</totfact>
</mgrwt>
</event>
<event>
 4    1  0.1323225E-008  0.2336476E+04  0.7816531E-02  0.8463677E-01
         -2   -1    0    0    0  501 -0.00000000000E+00  0.00000000000E+00  0.59363540718E+03  0.59363540718E+03  0.00000000000E+00 0. -1.
          2   -1    0    0  501    0  0.00000000000E+00 -0.00000000000E+00 -0.22990197004E+04  0.22990197004E+04  0.00000000000E+00 0.  1.
    2000013    1    1    2    0    0  0.56597843938E+02  0.64749795870E+03 -0.60563348940E+03  0.13006724591E+04  0.95000000000E+03 0.  0.
   -2000013    1    1    2    0    0 -0.56597843938E+02 -0.64749795870E+03 -0.10997508038E+04  0.15919826484E+04  0.95000000000E+03 0.  0.
<mgrwt>
<rscale>  0 0.23364755E+04</rscale>
<asrwt>0</asrwt>
<pdfrwt beam="2">  1        2 0.35369534E+00 0.23364755E+04</pdfrwt>
<pdfrwt beam="1">  1       -2 0.91328524E-01 0.23364755E+04</pdfrwt>
<totfact> 0.41912505E+00</totfact>
</mgrwt>
</event>
<event>
 4    1  0.1323225E-008  0.2695894E+04  0.7816531E-02  0.8336338E-01
          2   -1    0    0  501    0  0.00000000000E+00  0.00000000000E+00  0.13988227829E+04  0.13988227829E+04  0.00000000000E+00 0.  1.
         -2   -1    0    0    0  501 -0.00000000000E+00 -0.00000000000E+00 -0.12989219321E+04  0.12989219321E+04  0.00000000000E+00 0. -1.
    2000013    1    1    2    0    0 -0.83829722601E+03 -0.42696354855E+03 -0.12169421465E+03  0.13425161425E+04  0.95000000000E+03 0.  0.
   -2000013    1    1    2    0    0  0.83829722601E+03  0.42696354855E+03  0.22159506546E+03  0.13552285726E+04  0.95000000000E+03 0.  0.
<mgrwt>
<rscale>  0 0.26958944E+04</rscale>
<asrwt>0</asrwt>
<pdfrwt beam="1">  1        2 0.21520351E+00 0.26958944E+04</pdfrwt>
<pdfrwt beam="2">  1       -2 0.19983414E+00 0.26958944E+04</pdfrwt>
<totfact> 0.16960282E+00</totfact>
</mgrwt>
</event>
<event>
 4    1  0.1323225E-008  0.2233746E+04  0.7816531E-02  0.8504512E-01
         -2   -1    0    0    0  501 -0.00000000000E+00  0.00000000000E+00  0.78230589150E+03  0.78230589150E+03  0.00000000000E+00 0. -1.
          2   -1    0    0  501    0  0.00000000000E+00 -0.00000000000E+00 -0.15945240384E+04  0.15945240384E+04  0.00000000000E+00 0.  1.
    2000013    1    1    2    0    0 -0.29373443164E+03 -0.22816101477E+03  0.77501727993E+02  0.10231538901E+04  0.95000000000E+03 0.  0.
   -2000013    1    1    2    0    0  0.29373443164E+03  0.22816101477E+03 -0.88971987494E+03  0.13536760398E+04  0.95000000000E+03 0.  0.
<mgrwt>
<rscale>  0 0.22337462E+04</rscale>
<asrwt>0</asrwt>
<pdfrwt beam="2">  1        2 0.24531139E+00 0.22337462E+04</pdfrwt>
<pdfrwt beam="1">  1       -2 0.12035475E+00 0.22337462E+04</pdfrwt>
<totfact> 0.53969807E+00</totfact>
</mgrwt>
</event>
<event>
 4    1  0.1323225E-008  0.2458489E+04  0.7816531E-02  0.8417925E-01
          2   -1    0    0  501    0  0.00000000000E+00  0.00000000000E+00  0.19443716569E+04  0.19443716569E+04  0.00000000000E+00 0. -1.
         -2   -1    0    0    0  501 -0.00000000000E+00 -0.00000000000E+00 -0.77713666494E+03  0.77713666494E+03  0.00000000000E+00 0.  1.
    2000013    1    1    2    0    0 -0.11652225830E+03  0.66973327995E+03  0.16002808608E+03  0.11790797646E+04  0.95000000000E+03 0.  0.
   -2000013    1    1    2    0    0  0.11652225830E+03 -0.66973327995E+03  0.10072069059E+04  0.15424285573E+04  0.95000000000E+03 0.  0.
<mgrwt>
<rscale>  0 0.24584894E+04</rscale>
<asrwt>0</asrwt>
<pdfrwt beam="1">  1        2 0.29913410E+00 0.24584894E+04</pdfrwt>
<pdfrwt beam="2">  1       -2 0.11955949E+00 0.24584894E+04</pdfrwt>
<totfact> 0.34407978E+00</totfact>
</mgrwt>
</event>
<event>
 4    1  0.1323225E-008  0.3066590E+04  0.7816531E-02  0.8224967E-01
          2   -1    0    0  501    0  0.00000000000E+00  0.00000000000E+00  0.12625487972E+04  0.12625487972E+04  0.00000000000E+00 0.  1.
         -2   -1    0    0    0  501 -0.00000000000E+00 -0.00000000000E+00 -0.18621007388E+04  0.18621007388E+04  0.00000000000E+00 0. -1.
    2000013    1    1    2    0    0 -0.10256820874E+04 -0.57925681734E+03 -0.48260768868E+02  0.15140644989E+04  0.95000000000E+03 0.  0.
   -2000013    1    1    2    0    0  0.10256820874E+04  0.57925681734E+03 -0.55129117269E+03  0.16105850372E+04  0.95000000000E+03 0.  0.
<mgrwt>
<rscale>  0 0.30665897E+04</rscale>
<asrwt>0</asrwt>
<pdfrwt beam="1">  1        2 0.19423828E+00 0.30665897E+04</pdfrwt>
<pdfrwt beam="2">  1       -2 0.28647704E+00 0.30665897E+04</pdfrwt>
<totfact> 0.56916323E-01</totfact>
</mgrwt>
</event>
<event>
 4    1  0.1323225E-008  0.3356564E+04  0.7816531E-02  0.8148650E-01
          2   -1    0    0  501    0  0.00000000000E+00  0.00000000000E+00  0.25677124760E+04  0.25677124760E+04  0.00000000000E+00 0.  1.
         -2   -1    0    0    0  501 -0.00000000000E+00 -0.00000000000E+00 -0.10969416449E+04  0.10969416449E+04  0.00000000000E+00 0. -1.
    2000013    1    1    2    0    0  0.13103132910E+04 -0.37454390117E+03  0.47489244182E+03  0.17277809137E+04  0.95000000000E+03 0.  0.
   -2000013    1    1    2    0    0 -0.13103132910E+04  0.37454390117E+03  0.99587838925E+03  0.19368732072E+04  0.95000000000E+03 0.  0.
<mgrwt>
<rscale>  0 0.33565642E+04</rscale>
<asrwt>0</asrwt>
<pdfrwt beam="1">  1        2 0.39503269E+00 0.33565642E+04</pdfrwt>
<pdfrwt beam="2">  1       -2 0.16876025E+00 0.33565642E+04</pdfrwt>
<totfact> 0.57473924E-01</totfact>
</mgrwt>
</event>
<event>
 4    1  0.1323225E-008  0.3317030E+04  0.7816531E-02  0.8158576E-01
          2   -1    0    0  501    0  0.00000000000E+00  0.00000000000E+00  0.16614517021E+04  0.16614517021E+04  0.00000000000E+00 0.  1.
         -2   -1    0    0    0  501 -0.00000000000E+00 -0.00000000000E+00 -0.16555832972E+04  0.16555832972E+04  0.00000000000E+00 0. -1.
    2000013    1    1    2    0    0  0.30870916876E+03  0.13120675489E+04  0.17999120277E+03  0.16588307439E+04  0.95000000000E+03 0.  0.
   -2000013    1    1    2    0    0 -0.30870916876E+03 -0.13120675489E+04 -0.17412279793E+03  0.16582042554E+04  0.95000000000E+03 0.  0.
<mgrwt>
<rscale>  0 0.33170298E+04</rscale>
<asrwt>0</asrwt>
<pdfrwt beam="1">  1        2 0.25560795E+00 0.33170298E+04</pdfrwt>
<pdfrwt beam="2">  1       -2 0.25470512E+00 0.33170298E+04</pdfrwt>
<totfact> 0.51671341E-01</totfact>
</mgrwt>
</event>
<event>
 4    1  0.1323225E-008  0.2151164E+04  0.7816531E-02  0.8539034E-01
         -2   -1    0    0    0  501 -0.00000000000E+00  0.00000000000E+00  0.62789778136E+03  0.62789778136E+03  0.00000000000E+00 0. -1.
          2   -1    0    0  501    0  0.00000000000E+00 -0.00000000000E+00 -0.18424598331E+04  0.18424598331E+04  0.00000000000E+00 0.  1.
    2000013    1    1    2    0    0 -0.38861147800E+03 -0.26678826716E+03 -0.81329184647E+03  0.13364649220E+04  0.95000000000E+03 0.  0.
   -2000013    1    1    2    0    0  0.38861147800E+03  0.26678826716E+03 -0.40127020532E+03  0.11338926925E+04  0.95000000000E+03 0.  0.
<mgrwt>
<rscale>  0 0.21511638E+04</rscale>
<asrwt>0</asrwt>
<pdfrwt beam="2">  1        2 0.28345536E+00 0.21511638E+04</pdfrwt>
<pdfrwt beam="1">  1       -2 0.96599658E-01 0.21511638E+04</pdfrwt>
<totfact> 0.67219632E+00</totfact>
</mgrwt>
</event>
<event>
 4    1  0.1323225E-008  0.1945043E+04  0.7816531E-02  0.8632755E-01
          2   -1    0    0  501    0  0.00000000000E+00  0.00000000000E+00  0.11007726731E+04  0.11007726731E+04  0.00000000000E+00 0.  1.
         -2   -1    0    0    0  501 -0.00000000000E+00 -0.00000000000E+00 -0.85921254987E+03  0.85921254987E+03  0.00000000000E+00 0. -1.
    2000013    1    1    2    0    0  0.10301389212E+03  0.79075638768E+02  0.28461098929E+03  0.10001841000E+04  0.95000000000E+03 0.  0.
   -2000013    1    1    2    0    0 -0.10301389212E+03 -0.79075638768E+02 -0.43050866077E+02  0.95980112299E+03  0.95000000000E+03 0.  0.
<mgrwt>
<rscale>  0 0.19450426E+04</rscale>
<asrwt>0</asrwt>
<pdfrwt beam="1">  1        2 0.16934964E+00 0.19450426E+04</pdfrwt>
<pdfrwt beam="2">  1       -2 0.13218655E+00 0.19450426E+04</pdfrwt>
<totfact> 0.84547196E+00</totfact>
</mgrwt>
</event>
<event>
 4    1  0.1323225E-008  0.2075429E+04  0.7816531E-02  0.8572145E-01
          2   -1    0    0  501    0  0.00000000000E+00  0.00000000000E+00  0.25250848770E+04  0.25250848770E+04  0.00000000000E+00 0. -1.
         -2   -1    0    0    0  501 -0.00000000000E+00 -0.00000000000E+00 -0.42646132376E+03  0.42646132376E+03  0.00000000000E+00 0.  1.
    2000013    1    1    2    0    0  0.33806717837E+03  0.22875809710E+03  0.11743577141E+04  0.15646839057E+04  0.95000000000E+03 0.  0.
   -2000013    1    1    2    0    0 -0.33806717837E+03 -0.22875809710E+03  0.92426583912E+03  0.13868622951E+04  0.95000000000E+03 0.  0.
<mgrwt>
<rscale>  0 0.20754287E+04</rscale>
<asrwt>0</asrwt>
<pdfrwt beam="1">  1        2 0.38847459E+00 0.20754287E+04</pdfrwt>
<pdfrwt beam="2">  1       -2 0.65609436E-01 0.20754287E+04</pdfrwt>
<totfact> 0.66536829E+00</totfact>
</mgrwt>
</event>
<event>
 4    1  0.1323225E-008  0.2015185E+04  0.7816531E-02  0.8599554E-01
          2   -1    0    0  501    0  0.00000000000E+00  0.00000000000E+00  0.10967859378E+04  0.10967859378E+04  0.00000000000E+00 0.  1.
         -2   -1    0    0    0  501 -0.00000000000E+00 -0.00000000000E+00 -0.92565239472E+03  0.92565239472E+03  0.00000000000E+00 0. -1.
    2000013    1    1    2    0    0  0.52912946026E+02  0.26382367059E+03 -0.11600391419E+03  0.99416277195E+03  0.95000000000E+03 0.  0.
   -2000013    1    1    2    0    0 -0.52912946026E+02 -0.26382367059E+03  0.28713745723E+03  0.10282755605E+04  0.95000000000E+03 0.  0.
<mgrwt>
<rscale>  0 0.20151849E+04</rscale>
<asrwt>0</asrwt>
<pdfrwt beam="1">  1        2 0.16873630E+00 0.20151849E+04</pdfrwt>
<pdfrwt beam="2">  1       -2 0.14240806E+00 0.20151849E+04</pdfrwt>
<totfact> 0.69769662E+00</totfact>
</mgrwt>
</event>
<event>
 4    1  0.1323225E-008  0.2465069E+04  0.7816531E-02  0.8415537E-01
          2   -1    0    0  501    0  0.00000000000E+00  0.00000000000E+00  0.18503821492E+04  0.18503821492E+04  0.00000000000E+00 0.  1.
         -2   -1    0    0    0  501 -0.00000000000E+00 -0.00000000000E+00 -0.82098796404E+03  0.82098796404E+03  0.00000000000E+00 0. -1.
    2000013    1    1    2    0    0 -0.37100042171E+03 -0.45670632433E+03  0.10782360637E+04  0.15528409412E+04  0.95000000000E+03 0.  0.
   -2000013    1    1    2    0    0  0.37100042171E+03  0.45670632433E+03 -0.48841878542E+02  0.11185291720E+04  0.95000000000E+03 0.  0.
<mgrwt>
<rscale>  0 0.24650691E+04</rscale>
<asrwt>0</asrwt>
<pdfrwt beam="1">  1        2 0.28467418E+00 0.24650691E+04</pdfrwt>
<pdfrwt beam="2">  1       -2 0.12630584E+00 0.24650691E+04</pdfrwt>
<totfact> 0.33805696E+00</totfact>
</mgrwt>
</event>
<event>
 4    1  0.1323225E-008  0.2931251E+04  0.7816531E-02  0.8263640E-01
         -2   -1    0    0    0  501 -0.00000000000E+00  0.00000000000E+00  0.15748711919E+04  0.15748711919E+04  0.00000000000E+00 0. -1.
          2   -1    0    0  501    0  0.00000000000E+00 -0.00000000000E+00 -0.13639576574E+04  0.13639576574E+04  0.00000000000E+00 0.  1.
    2000013    1    1    2    0    0 -0.67898065912E+03 -0.88574424106E+03  0.10561718506E+03  0.14694259375E+04  0.95000000000E+03 0.  0.
   -2000013    1    1    2    0    0  0.67898065912E+03  0.88574424106E+03  0.10529634938E+03  0.14694029118E+04  0.95000000000E+03 0.  0.
<mgrwt>
<rscale>  0 0.29312507E+04</rscale>
<asrwt>0</asrwt>
<pdfrwt beam="2">  1        2 0.20983964E+00 0.29312507E+04</pdfrwt>
<pdfrwt beam="1">  1       -2 0.24228788E+00 0.29312507E+04</pdfrwt>
<totfact> 0.93682471E-01</totfact>
</mgrwt>
</event>
<event>
 4    1  0.1323225E-008  0.2681495E+04  0.7816531E-02  0.8341034E-01
         -2   -1    0    0    0  501 -0.00000000000E+00  0.00000000000E+00  0.68937650801E+03  0.68937650801E+03  0.00000000000E+00 0. -1.
          2   -1    0    0  501    0  0.00000000000E+00 -0.00000000000E+00 -0.26075795064E+04  0.26075795064E+04  0.00000000000E+00 0.  1.
    2000013    1    1    2    0    0  0.80599577458E+03 -0.38959430126E+03 -0.58275713726E+03  0.14295169776E+04  0.95000000000E+03 0.  0.
   -2000013    1    1    2    0    0 -0.80599577458E+03  0.38959430126E+03 -0.13354458611E+04  0.18674390368E+04  0.95000000000E+03 0.  0.
<mgrwt>
<rscale>  0 0.26814951E+04</rscale>
<asrwt>0</asrwt>
<pdfrwt beam="2">  1        2 0.40116608E+00 0.26814951E+04</pdfrwt>
<pdfrwt beam="1">  1       -2 0.10605792E+00 0.26814951E+04</pdfrwt>
<totfact> 0.18985674E+00</totfact>
</mgrwt>
</event>
<event>
 4    1  0.1323225E-008  0.2149412E+04  0.7816531E-02  0.8539784E-01
         -2   -1    0    0    0  501 -0.00000000000E+00  0.00000000000E+00  0.15484419016E+04  0.15484419016E+04  0.00000000000E+00 0. -1.
          2   -1    0    0  501    0  0.00000000000E+00 -0.00000000000E+00 -0.74590640024E+03  0.74590640024E+03  0.00000000000E+00 0.  1.
    2000013    1    1    2    0    0  0.49207332244E+03  0.95112178579E+02  0.36262965145E+03  0.11336590075E+04  0.95000000000E+03 0.  0.
   -2000013    1    1    2    0    0 -0.49207332244E+03 -0.95112178579E+02  0.43990584989E+03  0.11606892943E+04  0.95000000000E+03 0.  0.
<mgrwt>
<rscale>  0 0.21494118E+04</rscale>
<asrwt>0</asrwt>
<pdfrwt beam="2">  1        2 0.11475483E+00 0.21494118E+04</pdfrwt>
<pdfrwt beam="1">  1       -2 0.23822183E+00 0.21494118E+04</pdfrwt>
<totfact> 0.26329756E+00</totfact>
</mgrwt>
</event>
<event>
 4    1  0.1323225E-008  0.2556358E+04  0.7816531E-02  0.8383178E-01
          2   -1    0    0  501    0  0.00000000000E+00  0.00000000000E+00  0.16205903163E+04  0.16205903163E+04  0.00000000000E+00 0.  1.
         -2   -1    0    0    0  501 -0.00000000000E+00 -0.00000000000E+00 -0.10081154477E+04  0.10081154477E+04  0.00000000000E+00 0. -1.
    2000013    1    1    2    0    0 -0.48668866741E+03  0.38853608666E+03  0.90883930969E+03  0.14547560072E+04  0.95000000000E+03 0.  0.
   -2000013    1    1    2    0    0  0.48668866741E+03 -0.38853608666E+03 -0.29636444113E+03  0.11739497568E+04  0.95000000000E+03 0.  0.
<mgrwt>
<rscale>  0 0.25563585E+04</rscale>
<asrwt>0</asrwt>
<pdfrwt beam="1">  1        2 0.24932159E+00 0.25563585E+04</pdfrwt>
<pdfrwt beam="2">  1       -2 0.15509468E+00 0.25563585E+04</pdfrwt>
<totfact> 0.26427842E+00</totfact>
</mgrwt>
</event>
<event>
 4    1  0.1323225E-008  0.2717056E+04  0.7816531E-02  0.8329492E-01
         -2   -1    0    0    0  501 -0.00000000000E+00  0.00000000000E+00  0.51600368909E+03  0.51600368909E+03  0.00000000000E+00 0. -1.
          2   -1    0    0  501    0  0.00000000000E+00 -0.00000000000E+00 -0.35767146041E+04  0.35767146041E+04  0.00000000000E+00 0.  1.
    2000013    1    1    2    0    0  0.40686417453E+03 -0.87584715437E+03 -0.16843470966E+04  0.21615207230E+04  0.95000000000E+03 0.  0.
   -2000013    1    1    2    0    0 -0.40686417453E+03  0.87584715437E+03 -0.13763638184E+04  0.19311975702E+04  0.95000000000E+03 0.  0.
<mgrwt>
<rscale>  0 0.27170557E+04</rscale>
<asrwt>0</asrwt>
<pdfrwt beam="2">  1        2 0.55026376E+00 0.27170557E+04</pdfrwt>
<pdfrwt beam="1">  1       -2 0.79385186E-01 0.27170557E+04</pdfrwt>
<totfact> 0.88428405E-01</totfact>
</mgrwt>
</event>
<event>
 4    1  0.1323225E-008  0.2705072E+04  0.7816531E-02  0.8333361E-01
         -1   -1    0    0    0  501 -0.00000000000E+00  0.00000000000E+00  0.10472912049E+04  0.10472912049E+04  0.00000000000E+00 0. -1.
          1   -1    0    0  501    0  0.00000000000E+00 -0.00000000000E+00 -0.17467484193E+04  0.17467484193E+04  0.00000000000E+00 0.  1.
    2000013    1    1    2    0    0 -0.48870004703E+03 -0.70212584709E+03 -0.80589362414E+03  0.15112157273E+04  0.95000000000E+03 0.  0.
   -2000013    1    1    2    0    0  0.48870004703E+03  0.70212584709E+03  0.10643640972E+03  0.12828238969E+04  0.95000000000E+03 0.  0.
<mgrwt>
<rscale>  0 0.27050725E+04</rscale>
<asrwt>0</asrwt>
<pdfrwt beam="2">  1        1 0.26873052E+00 0.27050725E+04</pdfrwt>
<pdfrwt beam="1">  1       -1 0.16112173E+00 0.27050725E+04</pdfrwt>
<totfact> 0.11076978E+00</totfact>
</mgrwt>
</event>
<event>
 4    1  0.1323225E-008  0.2339387E+04  0.7816531E-02  0.8462551E-01
          2   -1    0    0  501    0  0.00000000000E+00  0.00000000000E+00  0.14642972811E+04  0.14642972811E+04  0.00000000000E+00 0.  1.
         -2   -1    0    0    0  501 -0.00000000000E+00 -0.00000000000E+00 -0.93436147221E+03  0.93436147221E+03  0.00000000000E+00 0. -1.
    2000013    1    1    2    0    0  0.26485113942E+03  0.44808806796E+03 -0.18752261783E+03  0.10993606210E+04  0.95000000000E+03 0.  0.
   -2000013    1    1    2    0    0 -0.26485113942E+03 -0.44808806796E+03  0.71745842673E+03  0.12992981324E+04  0.95000000000E+03 0.  0.
<mgrwt>
<rscale>  0 0.23393871E+04</rscale>
<asrwt>0</asrwt>
<pdfrwt beam="1">  1        2 0.22527651E+00 0.23393871E+04</pdfrwt>
<pdfrwt beam="2">  1       -2 0.14374792E+00 0.23393871E+04</pdfrwt>
<totfact> 0.40294767E+00</totfact>
</mgrwt>
</event>
<event>
 4    1  0.1323225E-008  0.2874661E+04  0.7816531E-02  0.8280457E-01
          2   -1    0    0  501    0  0.00000000000E+00  0.00000000000E+00  0.20142451862E+04  0.20142451862E+04  0.00000000000E+00 0.  1.
         -2   -1    0    0    0  501 -0.00000000000E+00 -0.00000000000E+00 -0.10256538100E+04  0.10256538100E+04  0.00000000000E+00 0. -1.
    2000013    1    1    2    0    0 -0.45737940879E+03  0.57906660053E+03 -0.33762956319E+03  0.12494029668E+04  0.95000000000E+03 0.  0.
   -2000013    1    1    2    0    0  0.45737940879E+03 -0.57906660053E+03  0.13262209394E+04  0.17904960294E+04  0.95000000000E+03 0.  0.
<mgrwt>
<rscale>  0 0.28746605E+04</rscale>
<asrwt>0</asrwt>
<pdfrwt beam="1">  1        2 0.30988387E+00 0.28746605E+04</pdfrwt>
<pdfrwt beam="2">  1       -2 0.15779289E+00 0.28746605E+04</pdfrwt>
<totfact> 0.14842817E+00</totfact>
</mgrwt>
</event>
<event>
 4    1  0.1323225E-008  0.2546194E+04  0.7816531E-02  0.8386711E-01
          2   -1    0    0  501    0  0.00000000000E+00  0.00000000000E+00  0.21241366649E+04  0.21241366649E+04  0.00000000000E+00 0.  1.
         -2   -1    0    0    0  501 -0.00000000000E+00 -0.00000000000E+00 -0.76302831420E+03  0.76302831420E+03  0.00000000000E+00 0. -1.
    2000013    1    1    2    0    0  0.38760616808E+03 -0.52243060915E+03  0.12965357175E+04  0.17339772633E+04  0.95000000000E+03 0.  0.
   -2000013    1    1    2    0    0 -0.38760616808E+03  0.52243060915E+03  0.64572633205E+02  0.11531877158E+04  0.95000000000E+03 0.  0.
<mgrwt>
<rscale>  0 0.25461944E+04</rscale>
<asrwt>0</asrwt>
<pdfrwt beam="1">  1        2 0.32679025E+00 0.25461944E+04</pdfrwt>
<pdfrwt beam="2">  1       -2 0.11738897E+00 0.25461944E+04</pdfrwt>
<totfact> 0.28373908E+00</totfact>
</mgrwt>
</event>
<event>
 4    1  0.1323225E-008  0.2485838E+04  0.7816531E-02  0.8408048E-01
         -2   -1    0    0    0  501 -0.00000000000E+00  0.00000000000E+00  0.72649113193E+03  0.72649113193E+03  0.00000000000E+00 0. -1.
          2   -1    0    0  501    0  0.00000000000E+00 -0.00000000000E+00 -0.21264500972E+04  0.21264500972E+04  0.00000000000E+00 0.  1.
    2000013    1    1    2    0    0  0.40125853668E+03  0.20187459633E+03 -0.14617692071E+04  0.18002863608E+04  0.95000000000E+03 0.  0.
   -2000013    1    1    2    0    0 -0.40125853668E+03 -0.20187459633E+03  0.61810241837E+02  0.10526548684E+04  0.95000000000E+03 0.  0.
<mgrwt>
<rscale>  0 0.24858376E+04</rscale>
<asrwt>0</asrwt>
<pdfrwt beam="2">  1        2 0.32714617E+00 0.24858376E+04</pdfrwt>
<pdfrwt beam="1">  1       -2 0.11176787E+00 0.24858376E+04</pdfrwt>
<totfact> 0.32048995E+00</totfact>
</mgrwt>
</event>
<event>
 4    1  0.1323225E-008  0.2308683E+04  0.7816531E-02  0.8474505E-01
         -1   -1    0    0    0  501 -0.00000000000E+00  0.00000000000E+00  0.61331953276E+03  0.61331953276E+03  0.00000000000E+00 0.  1.
          1   -1    0    0  501    0  0.00000000000E+00 -0.00000000000E+00 -0.21726097357E+04  0.21726097357E+04  0.00000000000E+00 0. -1.
    2000013    1    1    2    0    0  0.45566780813E+03  0.47153405067E+03 -0.78585420834E+03  0.13964398838E+04  0.95000000000E+03 0.  0.
   -2000013    1    1    2    0    0 -0.45566780813E+03 -0.47153405067E+03 -0.77343599460E+03  0.13894893847E+04  0.95000000000E+03 0.  0.
<mgrwt>
<rscale>  0 0.23086827E+04</rscale>
<asrwt>0</asrwt>
<pdfrwt beam="2">  1        1 0.33424765E+00 0.23086827E+04</pdfrwt>
<pdfrwt beam="1">  1       -1 0.94356851E-01 0.23086827E+04</pdfrwt>
<totfact> 0.22328564E+00</totfact>
</mgrwt>
</event>
<event>
 4    1  0.1323225E-008  0.2013558E+04  0.7816531E-02  0.8600308E-01
          2   -1    0    0  501    0  0.00000000000E+00  0.00000000000E+00  0.15054288240E+04  0.15054288240E+04  0.00000000000E+00 0.  1.
         -2   -1    0    0    0  501 -0.00000000000E+00 -0.00000000000E+00 -0.67329885573E+03  0.67329885573E+03  0.00000000000E+00 0. -1.
    2000013    1    1    2    0    0  0.31292010143E+03 -0.72415734721E+02  0.31964608369E+03  0.10525381928E+04  0.95000000000E+03 0.  0.
   -2000013    1    1    2    0    0 -0.31292010143E+03  0.72415734721E+02  0.51248388459E+03  0.11261894869E+04  0.95000000000E+03 0.  0.
<mgrwt>
<rscale>  0 0.20135576E+04</rscale>
<asrwt>0</asrwt>
<pdfrwt beam="1">  1        2 0.23160443E+00 0.20135576E+04</pdfrwt>
<pdfrwt beam="2">  1       -2 0.10358444E+00 0.20135576E+04</pdfrwt>
<totfact> 0.88843464E+00</totfact>
</mgrwt>
</event>
<event>
 4    1  0.1323225E-008  0.3674998E+04  0.7816531E-02  0.8073525E-01
          2   -1    0    0  501    0  0.00000000000E+00  0.00000000000E+00  0.10574721193E+04  0.10574721193E+04  0.00000000000E+00 0.  1.
         -2   -1    0    0    0  501 -0.00000000000E+00 -0.00000000000E+00 -0.31928992585E+04  0.31928992585E+04  0.00000000000E+00 0. -1.
    2000013    1    1    2    0    0 -0.67819070820E+03  0.13415414694E+04 -0.53240315473E+03  0.18562406282E+04  0.95000000000E+03 0.  0.
   -2000013    1    1    2    0    0  0.67819070820E+03 -0.13415414694E+04 -0.16030239845E+04  0.23941307495E+04  0.95000000000E+03 0.  0.
<mgrwt>
<rscale>  0 0.36749977E+04</rscale>
<asrwt>0</asrwt>
<pdfrwt beam="1">  1        2 0.16268802E+00 0.36749977E+04</pdfrwt>
<pdfrwt beam="2">  1       -2 0.49121527E+00 0.36749977E+04</pdfrwt>
<totfact> 0.35105707E-02</totfact>
</mgrwt>
</event>
<event>
 4    1  0.1323225E-008  0.2717026E+04  0.7816531E-02  0.8329502E-01
         -2   -1    0    0    0  501 -0.00000000000E+00  0.00000000000E+00  0.62705535374E+03  0.62705535374E+03  0.00000000000E+00 0. -1.
          2   -1    0    0  501    0  0.00000000000E+00 -0.00000000000E+00 -0.29432133023E+04  0.29432133023E+04  0.00000000000E+00 0.  1.
    2000013    1    1    2    0    0 -0.66158869571E+03 -0.60488202892E+03 -0.16488246746E+04  0.21034982003E+04  0.95000000000E+03 0.  0.
   -2000013    1    1    2    0    0  0.66158869571E+03  0.60488202892E+03 -0.66733327395E+03  0.14667704557E+04  0.95000000000E+03 0.  0.
<mgrwt>
<rscale>  0 0.27170261E+04</rscale>
<asrwt>0</asrwt>
<pdfrwt beam="2">  1        2 0.45280204E+00 0.27170261E+04</pdfrwt>
<pdfrwt beam="1">  1       -2 0.96470055E-01 0.27170261E+04</pdfrwt>
<totfact> 0.14875365E+00</totfact>
</mgrwt>
</event>
<event>
 4    1  0.1323225E-008  0.3418812E+04  0.7816531E-02  0.8133305E-01
          2   -1    0    0  501    0  0.00000000000E+00  0.00000000000E+00  0.33693129025E+04  0.33693129025E+04  0.00000000000E+00 0.  1.
         -2   -1    0    0    0  501 -0.00000000000E+00 -0.00000000000E+00 -0.86725963526E+03  0.86725963526E+03  0.00000000000E+00 0. -1.
    2000013    1    1    2    0    0  0.78029448402E+03  0.10723563570E+04  0.18838188053E+04  0.24920033967E+04  0.95000000000E+03 0.  0.
   -2000013    1    1    2    0    0 -0.78029448402E+03 -0.10723563570E+04  0.61823446202E+03  0.17445691411E+04  0.95000000000E+03 0.  0.
<mgrwt>
<rscale>  0 0.34188121E+04</rscale>
<asrwt>0</asrwt>
<pdfrwt beam="1">  1        2 0.51835582E+00 0.34188121E+04</pdfrwt>
<pdfrwt beam="2">  1       -2 0.13342456E+00 0.34188121E+04</pdfrwt>
<totfact> 0.33595474E-01</totfact>
</mgrwt>
</event>
<event>
 4    1  0.1323225E-008  0.2226421E+04  0.7816531E-02  0.8507511E-01
         -2   -1    0    0    0  501 -0.00000000000E+00  0.00000000000E+00  0.24579034462E+04  0.24579034462E+04  0.00000000000E+00 0. -1.
          2   -1    0    0  501    0  0.00000000000E+00 -0.00000000000E+00 -0.50418490172E+03  0.50418490172E+03  0.00000000000E+00 0.  1.
    2000013    1    1    2    0    0 -0.18653957396E+03 -0.54529322312E+03  0.10670548432E+04  0.15405348910E+04  0.95000000000E+03 0.  0.
   -2000013    1    1    2    0    0  0.18653957396E+03  0.54529322312E+03  0.88666370126E+03  0.14215534569E+04  0.95000000000E+03 0.  0.
<mgrwt>
<rscale>  0 0.22264212E+04</rscale>
<asrwt>0</asrwt>
<pdfrwt beam="2">  1        2 0.77566909E-01 0.22264212E+04</pdfrwt>
<pdfrwt beam="1">  1       -2 0.37813899E+00 0.22264212E+04</pdfrwt>
<totfact> 0.57336637E-01</totfact>
</mgrwt>
</event>
<event>
 4    1  0.1323225E-008  0.2595941E+04  0.7816531E-02  0.8369581E-01
         -2   -1    0    0    0  501 -0.00000000000E+00  0.00000000000E+00  0.11156530811E+04  0.11156530811E+04  0.00000000000E+00 0. -1.
          2   -1    0    0  501    0  0.00000000000E+00 -0.00000000000E+00 -0.15100818505E+04  0.15100818505E+04  0.00000000000E+00 0.  1.
    2000013    1    1    2    0    0 -0.86476859985E+03  0.37206990908E+02 -0.13419286694E+02  0.12852584054E+04  0.95000000000E+03 0.  0.
   -2000013    1    1    2    0    0  0.86476859985E+03 -0.37206990908E+02 -0.38100948271E+03  0.13404765262E+04  0.95000000000E+03 0.  0.
<mgrwt>
<rscale>  0 0.25959410E+04</rscale>
<asrwt>0</asrwt>
<pdfrwt beam="2">  1        2 0.23232028E+00 0.25959410E+04</pdfrwt>
<pdfrwt beam="1">  1       -2 0.17163894E+00 0.25959410E+04</pdfrwt>
<totfact> 0.23006513E+00</totfact>
</mgrwt>
</event>
<event>
 4    1  0.1323225E-008  0.3759822E+04  0.7816531E-02  0.8054832E-01
         -2   -1    0    0    0  501 -0.00000000000E+00  0.00000000000E+00  0.15067450622E+04  0.15067450622E+04  0.00000000000E+00 0. -1.
          2   -1    0    0  501    0  0.00000000000E+00 -0.00000000000E+00 -0.23454963264E+04  0.23454963264E+04  0.00000000000E+00 0.  1.
    2000013    1    1    2    0    0 -0.60571971746E+03  0.14428194494E+04  0.18853617548E+02  0.18307047273E+04  0.95000000000E+03 0.  0.
   -2000013    1    1    2    0    0  0.60571971746E+03 -0.14428194494E+04 -0.85760488174E+03  0.20215366613E+04  0.95000000000E+03 0.  0.
<mgrwt>
<rscale>  0 0.37598218E+04</rscale>
<asrwt>0</asrwt>
<pdfrwt beam="2">  1        2 0.36084559E+00 0.37598218E+04</pdfrwt>
<pdfrwt beam="1">  1       -2 0.23180693E+00 0.37598218E+04</pdfrwt>
<totfact> 0.28623734E-01</totfact>
</mgrwt>
</event>
<event>
 4    1  0.1323225E-008  0.2496999E+04  0.7816531E-02  0.8404055E-01
         -2   -1    0    0    0  501 -0.00000000000E+00  0.00000000000E+00  0.12863048989E+04  0.12863048989E+04  0.00000000000E+00 0. -1.
          2   -1    0    0  501    0  0.00000000000E+00 -0.00000000000E+00 -0.12118052406E+04  0.12118052406E+04  0.00000000000E+00 0.  1.
    2000013    1    1    2    0    0 -0.38845822780E+03 -0.50957447017E+03 -0.45863703604E+03  0.12342665297E+04  0.95000000000E+03 0.  0.
   -2000013    1    1    2    0    0  0.38845822780E+03  0.50957447017E+03  0.53313669435E+03  0.12638436099E+04  0.95000000000E+03 0.  0.
<mgrwt>
<rscale>  0 0.24969990E+04</rscale>
<asrwt>0</asrwt>
<pdfrwt beam="2">  1        2 0.18643158E+00 0.24969990E+04</pdfrwt>
<pdfrwt beam="1">  1       -2 0.19789306E+00 0.24969990E+04</pdfrwt>
<totfact> 0.22828764E+00</totfact>
</mgrwt>
</event>
<event>
 4    1  0.1323225E-008  0.2271091E+04  0.7816531E-02  0.8489408E-01
          2   -1    0    0  501    0  0.00000000000E+00  0.00000000000E+00  0.25392476864E+04  0.25392476864E+04  0.00000000000E+00 0. -1.
         -2   -1    0    0    0  501 -0.00000000000E+00 -0.00000000000E+00 -0.50781304118E+03  0.50781304118E+03  0.00000000000E+00 0.  1.
    2000013    1    1    2    0    0  0.51734946249E+02 -0.45949643505E+03  0.15740041965E+04  0.18957327579E+04  0.95000000000E+03 0.  0.
   -2000013    1    1    2    0    0 -0.51734946249E+02  0.45949643505E+03  0.45743044868E+03  0.11513279697E+04  0.95000000000E+03 0.  0.
<mgrwt>
<rscale>  0 0.22710906E+04</rscale>
<asrwt>0</asrwt>
<pdfrwt beam="1">  1        2 0.39065348E+00 0.22710906E+04</pdfrwt>
<pdfrwt beam="2">  1       -2 0.78125085E-01 0.22710906E+04</pdfrwt>
<totfact> 0.43760806E+00</totfact>
</mgrwt>
</event>
<event>
 4    1  0.1323225E-008  0.4699132E+04  0.7816531E-02  0.7876673E-01
         -2   -1    0    0    0  501 -0.00000000000E+00  0.00000000000E+00  0.18496858181E+04  0.18496858181E+04  0.00000000000E+00 0. -1.
          2   -1    0    0  501    0  0.00000000000E+00 -0.00000000000E+00 -0.29845390272E+04  0.29845390272E+04  0.00000000000E+00 0.  1.
    2000013    1    1    2    0    0  0.19268891822E+03 -0.21392282881E+04 -0.63668838905E+03  0.24333718977E+04  0.95000000000E+03 0.  0.
   -2000013    1    1    2    0    0 -0.19268891822E+03  0.21392282881E+04 -0.49816482010E+03  0.24008529476E+04  0.95000000000E+03 0.  0.
<mgrwt>
<rscale>  0 0.46991316E+04</rscale>
<asrwt>0</asrwt>
<pdfrwt beam="2">  1        2 0.45915985E+00 0.46991316E+04</pdfrwt>
<pdfrwt beam="1">  1       -2 0.28456705E+00 0.46991316E+04</pdfrwt>
<totfact> 0.52405648E-02</totfact>
</mgrwt>
</event>
<event>
 4    1  0.1323225E-008  0.2099687E+04  0.7816531E-02  0.8561381E-01
         -1   -1    0    0    0  501 -0.00000000000E+00  0.00000000000E+00  0.17633825527E+04  0.17633825527E+04  0.00000000000E+00 0. -1.
          1   -1    0    0  501    0  0.00000000000E+00 -0.00000000000E+00 -0.62503247543E+03  0.62503247543E+03  0.00000000000E+00 0.  1.
    2000013    1    1    2    0    0 -0.19301053337E+03  0.15368125444E+00  0.10276046704E+04  0.14127011178E+04  0.95000000000E+03 0.  0.
   -2000013    1    1    2    0    0  0.19301053337E+03 -0.15368125444E+00  0.11074540683E+03  0.97571391030E+03  0.95000000000E+03 0.  0.
<mgrwt>
<rscale>  0 0.20996870E+04</rscale>
<asrwt>0</asrwt>
<pdfrwt beam="2">  1        1 0.96158843E-01 0.20996870E+04</pdfrwt>
<pdfrwt beam="1">  1       -1 0.27128962E+00 0.20996870E+04</pdfrwt>
<totfact> 0.15043551E+00</totfact>
</mgrwt>
</event>
<event>
 4    1  0.1323225E-008  0.3266344E+04  0.7816531E-02  0.8171512E-01
          1   -1    0    0  501    0  0.00000000000E+00  0.00000000000E+00  0.21200646176E+04  0.21200646176E+04  0.00000000000E+00 0.  1.
         -1   -1    0    0    0  501 -0.00000000000E+00 -0.00000000000E+00 -0.12580984300E+04  0.12580984300E+04  0.00000000000E+00 0. -1.
    2000013    1    1    2    0    0  0.96817162412E+03  0.12908052534E+03 -0.50024781117E+03  0.14514702713E+04  0.95000000000E+03 0.  0.
   -2000013    1    1    2    0    0 -0.96817162412E+03 -0.12908052534E+03  0.13622139988E+04  0.19266927763E+04  0.95000000000E+03 0.  0.
<mgrwt>
<rscale>  0 0.32663435E+04</rscale>
<asrwt>0</asrwt>
<pdfrwt beam="1">  1        1 0.32616379E+00 0.32663435E+04</pdfrwt>
<pdfrwt beam="2">  1       -1 0.19355361E+00 0.32663435E+04</pdfrwt>
<totfact> 0.34282065E-01</totfact>
</mgrwt>
</event>
<event>
 4    1  0.1323225E-008  0.3593907E+04  0.7816531E-02  0.8091889E-01
          2   -1    0    0  501    0  0.00000000000E+00  0.00000000000E+00  0.21686244046E+04  0.21686244046E+04  0.00000000000E+00 0.  1.
         -2   -1    0    0    0  501 -0.00000000000E+00 -0.00000000000E+00 -0.14889815589E+04  0.14889815589E+04  0.00000000000E+00 0. -1.
    2000013    1    1    2    0    0  0.12271083820E+04 -0.88916746125E+03  0.51647204836E+03  0.18616275493E+04  0.95000000000E+03 0.  0.
   -2000013    1    1    2    0    0 -0.12271083820E+04  0.88916746125E+03  0.16317079735E+03  0.17959784143E+04  0.95000000000E+03 0.  0.
<mgrwt>
<rscale>  0 0.35939069E+04</rscale>
<asrwt>0</asrwt>
<pdfrwt beam="1">  1        2 0.33363452E+00 0.35939069E+04</pdfrwt>
<pdfrwt beam="2">  1       -2 0.22907409E+00 0.35939069E+04</pdfrwt>
<totfact> 0.38000609E-01</totfact>
</mgrwt>
</event>
<event>
 4    1  0.1323225E-008  0.3285681E+04  0.7816531E-02  0.8166548E-01
         -2   -1    0    0    0  501 -0.00000000000E+00  0.00000000000E+00  0.11127988137E+04  0.11127988137E+04  0.00000000000E+00 0. -1.
          2   -1    0    0  501    0  0.00000000000E+00 -0.00000000000E+00 -0.24253486811E+04  0.24253486811E+04  0.00000000000E+00 0.  1.
    2000013    1    1    2    0    0  0.26255604594E+03  0.10322342273E+04  0.21986524156E+03  0.14440512116E+04  0.95000000000E+03 0.  0.
   -2000013    1    1    2    0    0 -0.26255604594E+03 -0.10322342273E+04 -0.15324151090E+04  0.20940962832E+04  0.95000000000E+03 0.  0.
<mgrwt>
<rscale>  0 0.32856811E+04</rscale>
<asrwt>0</asrwt>
<pdfrwt beam="2">  1        2 0.37313057E+00 0.32856811E+04</pdfrwt>
<pdfrwt beam="1">  1       -2 0.17119982E+00 0.32856811E+04</pdfrwt>
<totfact> 0.67175413E-01</totfact>
</mgrwt>
</event>
<event>
 4    1  0.1323225E-008  0.3077227E+04  0.7816531E-02  0.8222016E-01
          2   -1    0    0  501    0  0.00000000000E+00  0.00000000000E+00  0.33194641854E+04  0.33194641854E+04  0.00000000000E+00 0.  1.
         -2   -1    0    0    0  501 -0.00000000000E+00 -0.00000000000E+00 -0.71316679686E+03  0.71316679686E+03  0.00000000000E+00 0. -1.
    2000013    1    1    2    0    0  0.63363950959E+03 -0.90602404488E+03  0.65787679212E+03  0.15992749831E+04  0.95000000000E+03 0.  0.
   -2000013    1    1    2    0    0 -0.63363950959E+03  0.90602404488E+03  0.19484205964E+04  0.24333559991E+04  0.95000000000E+03 0.  0.
<mgrwt>
<rscale>  0 0.30772271E+04</rscale>
<asrwt>0</asrwt>
<pdfrwt beam="1">  1        2 0.51068679E+00 0.30772271E+04</pdfrwt>
<pdfrwt beam="2">  1       -2 0.10971797E+00 0.30772271E+04</pdfrwt>
<totfact> 0.60731869E-01</totfact>
</mgrwt>
</event>
<event>
 4    1  0.1323225E-008  0.3115319E+04  0.7816531E-02  0.8211546E-01
         -2   -1    0    0    0  501 -0.00000000000E+00  0.00000000000E+00  0.96990247967E+03  0.96990247967E+03  0.00000000000E+00 0.  1.
          2   -1    0    0  501    0  0.00000000000E+00 -0.00000000000E+00 -0.25015956009E+04  0.25015956009E+04  0.00000000000E+00 0. -1.
    2000013    1    1    2    0    0 -0.10839760733E+03 -0.11983396557E+04 -0.45857425428E+03  0.16001744650E+04  0.95000000000E+03 0.  0.
   -2000013    1    1    2    0    0  0.10839760733E+03  0.11983396557E+04 -0.10731188669E+04  0.18713236156E+04  0.95000000000E+03 0.  0.
<mgrwt>
<rscale>  0 0.31153194E+04</rscale>
<asrwt>0</asrwt>
<pdfrwt beam="2">  1        2 0.38486085E+00 0.31153194E+04</pdfrwt>
<pdfrwt beam="1">  1       -2 0.14921577E+00 0.31153194E+04</pdfrwt>
<totfact> 0.89470237E-01</totfact>
</mgrwt>
</event>
<event>
 4    1  0.1323225E-008  0.2988948E+04  0.7816531E-02  0.8246894E-01
          2   -1    0    0  501    0  0.00000000000E+00  0.00000000000E+00  0.21706773796E+04  0.21706773796E+04  0.00000000000E+00 0.  1.
         -2   -1    0    0    0  501 -0.00000000000E+00 -0.00000000000E+00 -0.10289196291E+04  0.10289196291E+04  0.00000000000E+00 0. -1.
    2000013    1    1    2    0    0  0.83042925976E+03  0.52907201070E+03 -0.72674515259E+02  0.13701501863E+04  0.95000000000E+03 0.  0.
   -2000013    1    1    2    0    0 -0.83042925976E+03 -0.52907201070E+03  0.12144322658E+04  0.18294468224E+04  0.95000000000E+03 0.  0.
<mgrwt>
<rscale>  0 0.29889480E+04</rscale>
<asrwt>0</asrwt>
<pdfrwt beam="1">  1        2 0.33395037E+00 0.29889480E+04</pdfrwt>
<pdfrwt beam="2">  1       -2 0.15829533E+00 0.29889480E+04</pdfrwt>
<totfact> 0.11918081E+00</totfact>
</mgrwt>
</event>
<event>
 4    1  0.1323225E-008  0.3107684E+04  0.7816531E-02  0.8213632E-01
          2   -1    0    0  501    0  0.00000000000E+00  0.00000000000E+00  0.13347088740E+04  0.13347088740E+04  0.00000000000E+00 0.  1.
         -2   -1    0    0    0  501 -0.00000000000E+00 -0.00000000000E+00 -0.18089530127E+04  0.18089530127E+04  0.00000000000E+00 0. -1.
    2000013    1    1    2    0    0  0.11480049594E+04  0.40077673887E+03 -0.42196199864E+03  0.15997153839E+04  0.95000000000E+03 0.  0.
   -2000013    1    1    2    0    0 -0.11480049594E+04 -0.40077673887E+03 -0.52282140056E+02  0.15439465028E+04  0.95000000000E+03 0.  0.
<mgrwt>
<rscale>  0 0.31076844E+04</rscale>
<asrwt>0</asrwt>
<pdfrwt beam="1">  1        2 0.20533983E+00 0.31076844E+04</pdfrwt>
<pdfrwt beam="2">  1       -2 0.27830046E+00 0.31076844E+04</pdfrwt>
<totfact> 0.57745747E-01</totfact>
</mgrwt>
</event>
<event>
 4    1  0.1323225E-008  0.2865765E+04  0.7816531E-02  0.8283137E-01
          2   -1    0    0  501    0  0.00000000000E+00  0.00000000000E+00  0.21436967744E+04  0.21436967744E+04  0.00000000000E+00 0.  1.
         -2   -1    0    0    0  501 -0.00000000000E+00 -0.00000000000E+00 -0.95776260447E+03  0.95776260447E+03  0.00000000000E+00 0. -1.
    2000013    1    1    2    0    0 -0.11405962996E+03 -0.41752374018E+03 -0.46924217611E+03  0.11445627517E+04  0.95000000000E+03 0.  0.
   -2000013    1    1    2    0    0  0.11405962996E+03  0.41752374018E+03  0.16551763460E+04  0.19568966271E+04  0.95000000000E+03 0.  0.
<mgrwt>
<rscale>  0 0.28657652E+04</rscale>
<asrwt>0</asrwt>
<pdfrwt beam="1">  1        2 0.32979950E+00 0.28657652E+04</pdfrwt>
<pdfrwt beam="2">  1       -2 0.14734809E+00 0.28657652E+04</pdfrwt>
<totfact> 0.15098537E+00</totfact>
</mgrwt>
</event>
<event>
 4    1  0.1323225E-008  0.2167367E+04  0.7816531E-02  0.8532135E-01
         -1   -1    0    0    0  501 -0.00000000000E+00  0.00000000000E+00  0.40862081073E+03  0.40862081073E+03  0.00000000000E+00 0. -1.
          1   -1    0    0  501    0  0.00000000000E+00 -0.00000000000E+00 -0.28739854215E+04  0.28739854215E+04  0.00000000000E+00 0.  1.
    2000013    1    1    2    0    0 -0.35866311020E+03  0.12485152504E+03 -0.17737915874E+04  0.20476971762E+04  0.95000000000E+03 0.  0.
   -2000013    1    1    2    0    0  0.35866311020E+03 -0.12485152504E+03 -0.69157302330E+03  0.12349090560E+04  0.95000000000E+03 0.  0.
<mgrwt>
<rscale>  0 0.21673673E+04</rscale>
<asrwt>0</asrwt>
<pdfrwt beam="2">  1        1 0.44215160E+00 0.21673673E+04</pdfrwt>
<pdfrwt beam="1">  1       -1 0.62864741E-01 0.21673673E+04</pdfrwt>
<totfact> 0.17322178E+00</totfact>
</mgrwt>
</event>
<event>
 4    1  0.1323225E-008  0.2785208E+04  0.7816531E-02  0.8307875E-01
         -4   -1    0    0    0  501 -0.00000000000E+00  0.00000000000E+00  0.17868267723E+04  0.17868267723E+04  0.00000000000E+00 0. -1.
          4   -1    0    0  501    0  0.00000000000E+00 -0.00000000000E+00 -0.10853579116E+04  0.10853579116E+04  0.00000000000E+00 0.  1.
    2000013    1    1    2    0    0  0.38208710411E+03 -0.65678084053E+03  0.10497631550E+04  0.16068149580E+04  0.95000000000E+03 0.  0.
   -2000013    1    1    2    0    0 -0.38208710411E+03  0.65678084053E+03 -0.34829429433E+03  0.12653697258E+04  0.95000000000E+03 0.  0.
<mgrwt>
<rscale>  0 0.27852085E+04</rscale>
<asrwt>0</asrwt>
<pdfrwt beam="2">  1        4 0.16697814E+00 0.27852085E+04</pdfrwt>
<pdfrwt beam="1">  1       -4 0.27489643E+00 0.27852085E+04</pdfrwt>
<totfact> 0.17053589E-02</totfact>
</mgrwt>
</event>
<event>
 4    1  0.1323225E-008  0.2259516E+04  0.7816531E-02  0.8494056E-01
         -2   -1    0    0    0  501 -0.00000000000E+00  0.00000000000E+00  0.13044828480E+04  0.13044828480E+04  0.00000000000E+00 0. -1.
          2   -1    0    0  501    0  0.00000000000E+00 -0.00000000000E+00 -0.97843636294E+03  0.97843636294E+03  0.00000000000E+00 0.  1.
    2000013    1    1    2    0    0 -0.12621403131E+03 -0.29315204680E+03  0.68994705266E+03  0.12167148556E+04  0.95000000000E+03 0.  0.
   -2000013    1    1    2    0    0  0.12621403131E+03  0.29315204680E+03 -0.36390056763E+03  0.10662043553E+04  0.95000000000E+03 0.  0.
<mgrwt>
<rscale>  0 0.22595163E+04</rscale>
<asrwt>0</asrwt>
<pdfrwt beam="2">  1        2 0.15052867E+00 0.22595163E+04</pdfrwt>
<pdfrwt beam="1">  1       -2 0.20068967E+00 0.22595163E+04</pdfrwt>
<totfact> 0.31132772E+00</totfact>
</mgrwt>
</event>
<event>
 4    1  0.1323225E-008  0.2430015E+04  0.7816531E-02  0.8428351E-01
         -2   -1    0    0    0  501 -0.00000000000E+00  0.00000000000E+00  0.31306979385E+04  0.31306979385E+04  0.00000000000E+00 0. -1.
          2   -1    0    0  501    0  0.00000000000E+00 -0.00000000000E+00 -0.47153812441E+03  0.47153812441E+03  0.00000000000E+00 0.  1.
    2000013    1    1    2    0    0  0.12208958360E+03  0.64894204112E+03  0.77947090233E+03  0.13950292207E+04  0.95000000000E+03 0.  0.
   -2000013    1    1    2    0    0 -0.12208958360E+03 -0.64894204112E+03  0.18796889118E+04  0.22072068422E+04  0.95000000000E+03 0.  0.
<mgrwt>
<rscale>  0 0.24300152E+04</rscale>
<asrwt>0</asrwt>
<pdfrwt beam="2">  1        2 0.72544329E-01 0.24300152E+04</pdfrwt>
<pdfrwt beam="1">  1       -2 0.48164582E+00 0.24300152E+04</pdfrwt>
<totfact> 0.12709096E-01</totfact>
</mgrwt>
</event>
<event>
 4    1  0.1323225E-008  0.2569297E+04  0.7816531E-02  0.8378706E-01
         -2   -1    0    0    0  501 -0.00000000000E+00  0.00000000000E+00  0.20798115202E+04  0.20798115202E+04  0.00000000000E+00 0. -1.
          2   -1    0    0  501    0  0.00000000000E+00 -0.00000000000E+00 -0.79349598783E+03  0.79349598783E+03  0.00000000000E+00 0.  1.
    2000013    1    1    2    0    0 -0.44497468792E+03 -0.73921562409E+03  0.57814199578E+03  0.14075476472E+04  0.95000000000E+03 0.  0.
   -2000013    1    1    2    0    0  0.44497468792E+03  0.73921562409E+03  0.70817353660E+03  0.14657598609E+04  0.95000000000E+03 0.  0.
<mgrwt>
<rscale>  0 0.25692973E+04</rscale>
<asrwt>0</asrwt>
<pdfrwt beam="2">  1        2 0.12207631E+00 0.25692973E+04</pdfrwt>
<pdfrwt beam="1">  1       -2 0.31997100E+00 0.25692973E+04</pdfrwt>
<totfact> 0.73989048E-01</totfact>
</mgrwt>
</event>
<event>
 4    1  0.1323225E-008  0.2114528E+04  0.7816531E-02  0.8554871E-01
         -2   -1    0    0    0  501 -0.00000000000E+00  0.00000000000E+00  0.34562922025E+03  0.34562922025E+03  0.00000000000E+00 0. -1.
          2   -1    0    0  501    0  0.00000000000E+00 -0.00000000000E+00 -0.32341214533E+04  0.32341214533E+04  0.00000000000E+00 0.  1.
    2000013    1    1    2    0    0 -0.26300208920E+03  0.94894764459E+02 -0.81733146224E+03  0.12840194058E+04  0.95000000000E+03 0.  0.
   -2000013    1    1    2    0    0  0.26300208920E+03 -0.94894764459E+02 -0.20711607708E+04  0.22957312677E+04  0.95000000000E+03 0.  0.
<mgrwt>
<rscale>  0 0.21145277E+04</rscale>
<asrwt>0</asrwt>
<pdfrwt beam="2">  1        2 0.49755713E+00 0.21145277E+04</pdfrwt>
<pdfrwt beam="1">  1       -2 0.53173728E-01 0.21145277E+04</pdfrwt>
<totfact> 0.37909946E+00</totfact>
</mgrwt>
</event>
<event>
 4    1  0.1323225E-008  0.2818681E+04  0.7816531E-02  0.8297492E-01
          4   -1    0    0  501    0  0.00000000000E+00  0.00000000000E+00  0.19244547254E+04  0.19244547254E+04  0.00000000000E+00 0. -1.
         -4   -1    0    0    0  501 -0.00000000000E+00 -0.00000000000E+00 -0.10321059615E+04  0.10321059615E+04  0.00000000000E+00 0.  1.
    2000013    1    1    2    0    0  0.44302644119E+03  0.93834259748E+03  0.53381970920E+03  0.15047334448E+04  0.95000000000E+03 0.  0.
   -2000013    1    1    2    0    0 -0.44302644119E+03 -0.93834259748E+03  0.35852905470E+03  0.14518272421E+04  0.95000000000E+03 0.  0.
<mgrwt>
<rscale>  0 0.28186814E+04</rscale>
<asrwt>0</asrwt>
<pdfrwt beam="1">  1        4 0.29606996E+00 0.28186814E+04</pdfrwt>
<pdfrwt beam="2">  1       -4 0.15878553E+00 0.28186814E+04</pdfrwt>
<totfact> 0.14427895E-02</totfact>
</mgrwt>
</event>
<event>
 4    1  0.1323225E-008  0.2298827E+04  0.7816531E-02  0.8478384E-01
         -2   -1    0    0    0  501 -0.00000000000E+00  0.00000000000E+00  0.36462840857E+03  0.36462840857E+03  0.00000000000E+00 0. -1.
          2   -1    0    0  501    0  0.00000000000E+00 -0.00000000000E+00 -0.36232814633E+04  0.36232814633E+04  0.00000000000E+00 0.  1.
    2000013    1    1    2    0    0 -0.64520722771E+03  0.19224729968E+02 -0.17067013668E+04  0.20571804764E+04  0.95000000000E+03 0.  0.
   -2000013    1    1    2    0    0  0.64520722771E+03 -0.19224729968E+02 -0.15519516879E+04  0.19307293955E+04  0.95000000000E+03 0.  0.
<mgrwt>
<rscale>  0 0.22988270E+04</rscale>
<asrwt>0</asrwt>
<pdfrwt beam="2">  1        2 0.55742795E+00 0.22988270E+04</pdfrwt>
<pdfrwt beam="1">  1       -2 0.56096675E-01 0.22988270E+04</pdfrwt>
<totfact> 0.18028248E+00</totfact>
</mgrwt>
</event>
<event>
 4    1  0.1323225E-008  0.2894752E+04  0.7816531E-02  0.8274441E-01
          2   -1    0    0  501    0  0.00000000000E+00  0.00000000000E+00  0.15289336870E+04  0.15289336870E+04  0.00000000000E+00 0.  1.
         -2   -1    0    0    0  501 -0.00000000000E+00 -0.00000000000E+00 -0.13701683776E+04  0.13701683776E+04  0.00000000000E+00 0. -1.
    2000013    1    1    2    0    0  0.81316418435E+02  0.98636215268E+03 -0.38269339313E+03  0.14242460775E+04  0.95000000000E+03 0.  0.
   -2000013    1    1    2    0    0 -0.81316418435E+02 -0.98636215268E+03  0.54145870256E+03  0.14748559871E+04  0.95000000000E+03 0.  0.
<mgrwt>
<rscale>  0 0.28947515E+04</rscale>
<asrwt>0</asrwt>
<pdfrwt beam="1">  1        2 0.23522057E+00 0.28947515E+04</pdfrwt>
<pdfrwt beam="2">  1       -2 0.21079514E+00 0.28947515E+04</pdfrwt>
<totfact> 0.11946809E+00</totfact>
</mgrwt>
</event>
<event>
 4    1  0.1323225E-008  0.3182756E+04  0.7816531E-02  0.8193386E-01
         -2   -1    0    0    0  501 -0.00000000000E+00  0.00000000000E+00  0.14068593370E+04  0.14068593370E+04  0.00000000000E+00 0. -1.
          2   -1    0    0  501    0  0.00000000000E+00 -0.00000000000E+00 -0.18000972105E+04  0.18000972105E+04  0.00000000000E+00 0.  1.
    2000013    1    1    2    0    0 -0.11472932910E+04  0.32666460210E+03 -0.65504198850E+03  0.16596902315E+04  0.95000000000E+03 0.  0.
   -2000013    1    1    2    0    0  0.11472932910E+04 -0.32666460210E+03  0.26180411496E+03  0.15472663160E+04  0.95000000000E+03 0.  0.
<mgrwt>
<rscale>  0 0.31827558E+04</rscale>
<asrwt>0</asrwt>
<pdfrwt beam="2">  1        2 0.27693803E+00 0.31827558E+04</pdfrwt>
<pdfrwt beam="1">  1       -2 0.21643990E+00 0.31827558E+04</pdfrwt>
<totfact> 0.75760463E-01</totfact>
</mgrwt>
</event>
<event>
 4    1  0.1323225E-008  0.2577579E+04  0.7816531E-02  0.8375857E-01
         -2   -1    0    0    0  501 -0.00000000000E+00  0.00000000000E+00  0.73134684219E+03  0.73134684219E+03  0.00000000000E+00 0. -1.
          2   -1    0    0  501    0  0.00000000000E+00 -0.00000000000E+00 -0.22711233160E+04  0.22711233160E+04  0.00000000000E+00 0.  1.
    2000013    1    1    2    0    0 -0.57215077815E+03 -0.20248320434E+03 -0.14974458260E+04  0.18743532118E+04  0.95000000000E+03 0.  0.
   -2000013    1    1    2    0    0  0.57215077815E+03  0.20248320434E+03 -0.42330647874E+02  0.11281169464E+04  0.95000000000E+03 0.  0.
<mgrwt>
<rscale>  0 0.25775794E+04</rscale>
<asrwt>0</asrwt>
<pdfrwt beam="2">  1        2 0.34940358E+00 0.25775794E+04</pdfrwt>
<pdfrwt beam="1">  1       -2 0.11251490E+00 0.25775794E+04</pdfrwt>
<totfact> 0.25942935E+00</totfact>
</mgrwt>
</event>
<event>
 4    1  0.1323225E-008  0.1944178E+04  0.7816531E-02  0.8633173E-01
         -1   -1    0    0    0  501 -0.00000000000E+00  0.00000000000E+00  0.42754971730E+03  0.42754971730E+03  0.00000000000E+00 0.  1.
          1   -1    0    0  501    0  0.00000000000E+00 -0.00000000000E+00 -0.22101693039E+04  0.22101693039E+04  0.00000000000E+00 0. -1.
    2000013    1    1    2    0    0  0.61613002645E+02 -0.18405695629E+03 -0.98515113351E+03  0.13822792341E+04  0.95000000000E+03 0.  0.
   -2000013    1    1    2    0    0 -0.61613002645E+02  0.18405695629E+03 -0.79746845306E+03  0.12554397870E+04  0.95000000000E+03 0.  0.
<mgrwt>
<rscale>  0 0.19441782E+04</rscale>
<asrwt>0</asrwt>
<pdfrwt beam="2">  1        1 0.34002605E+00 0.19441782E+04</pdfrwt>
<pdfrwt beam="1">  1       -1 0.65776879E-01 0.19441782E+04</pdfrwt>
<totfact> 0.46824149E+00</totfact>
</mgrwt>
</event>
<event>
 4    1  0.1323225E-008  0.2005769E+04  0.7816531E-02  0.8603928E-01
         -1   -1    0    0    0  501 -0.00000000000E+00  0.00000000000E+00  0.15219193383E+04  0.15219193383E+04  0.00000000000E+00 0.  1.
          1   -1    0    0  501    0  0.00000000000E+00 -0.00000000000E+00 -0.66086085771E+03  0.66086085771E+03  0.00000000000E+00 0. -1.
    2000013    1    1    2    0    0 -0.17140641883E+03 -0.26800396157E+03  0.48004928161E+03  0.11109246584E+04  0.95000000000E+03 0.  0.
   -2000013    1    1    2    0    0  0.17140641883E+03  0.26800396157E+03  0.38100919898E+03  0.10718555376E+04  0.95000000000E+03 0.  0.
<mgrwt>
<rscale>  0 0.20057686E+04</rscale>
<asrwt>0</asrwt>
<pdfrwt beam="2">  1        1 0.10167090E+00 0.20057686E+04</pdfrwt>
<pdfrwt beam="1">  1       -1 0.23414144E+00 0.20057686E+04</pdfrwt>
<totfact> 0.24411238E+00</totfact>
</mgrwt>
</event>
<event>
 4    1  0.1323225E-008  0.2793670E+04  0.7816531E-02  0.8305236E-01
          2   -1    0    0  501    0  0.00000000000E+00  0.00000000000E+00  0.10884274948E+04  0.10884274948E+04  0.00000000000E+00 0.  1.
         -2   -1    0    0    0  501 -0.00000000000E+00 -0.00000000000E+00 -0.17926302366E+04  0.17926302366E+04  0.00000000000E+00 0. -1.
    2000013    1    1    2    0    0 -0.53886325991E+03 -0.86472771173E+03 -0.24632390181E+03  0.14146742003E+04  0.95000000000E+03 0.  0.
   -2000013    1    1    2    0    0  0.53886325991E+03  0.86472771173E+03 -0.45787884003E+03  0.14663835312E+04  0.95000000000E+03 0.  0.
<mgrwt>
<rscale>  0 0.27936700E+04</rscale>
<asrwt>0</asrwt>
<pdfrwt beam="1">  1        2 0.16745039E+00 0.27936700E+04</pdfrwt>
<pdfrwt beam="2">  1       -2 0.27578926E+00 0.27936700E+04</pdfrwt>
<totfact> 0.86150418E-01</totfact>
</mgrwt>
</event>
<event>
 4    1  0.1323225E-008  0.2629394E+04  0.7816531E-02  0.8358285E-01
         -2   -1    0    0    0  501 -0.00000000000E+00  0.00000000000E+00  0.18621684452E+04  0.18621684452E+04  0.00000000000E+00 0. -1.
          2   -1    0    0  501    0  0.00000000000E+00 -0.00000000000E+00 -0.92818046342E+03  0.92818046342E+03  0.00000000000E+00 0.  1.
    2000013    1    1    2    0    0  0.65096871584E+03  0.53074874560E+03  0.98653676702E+02  0.12718832682E+04  0.95000000000E+03 0.  0.
   -2000013    1    1    2    0    0 -0.65096871584E+03 -0.53074874560E+03  0.83533430510E+03  0.15184656405E+04  0.95000000000E+03 0.  0.
<mgrwt>
<rscale>  0 0.26293941E+04</rscale>
<asrwt>0</asrwt>
<pdfrwt beam="2">  1        2 0.14279699E+00 0.26293941E+04</pdfrwt>
<pdfrwt beam="1">  1       -2 0.28648745E+00 0.26293941E+04</pdfrwt>
<totfact> 0.95222066E-01</totfact>
</mgrwt>
</event>
<event>
 4    1  0.1323225E-008  0.3471345E+04  0.7816531E-02  0.8120615E-01
         -2   -1    0    0    0  501 -0.00000000000E+00  0.00000000000E+00  0.16856787644E+04  0.16856787644E+04  0.00000000000E+00 0. -1.
          2   -1    0    0  501    0  0.00000000000E+00 -0.00000000000E+00 -0.17871490604E+04  0.17871490604E+04  0.00000000000E+00 0.  1.
    2000013    1    1    2    0    0  0.13863557133E+04 -0.38681162469E+03  0.14544507415E+03  0.17306818502E+04  0.95000000000E+03 0.  0.
   -2000013    1    1    2    0    0 -0.13863557133E+04  0.38681162469E+03 -0.24691537018E+03  0.17421459746E+04  0.95000000000E+03 0.  0.
<mgrwt>
<rscale>  0 0.34713451E+04</rscale>
<asrwt>0</asrwt>
<pdfrwt beam="2">  1        2 0.27494601E+00 0.34713451E+04</pdfrwt>
<pdfrwt beam="1">  1       -2 0.25933519E+00 0.34713451E+04</pdfrwt>
<totfact> 0.40689794E-01</totfact>
</mgrwt>
</event>
<event>
 4    1  0.1323225E-008  0.2746789E+04  0.7816531E-02  0.8319981E-01
         -2   -1    0    0    0  501 -0.00000000000E+00  0.00000000000E+00  0.10052121777E+04  0.10052121777E+04  0.00000000000E+00 0. -1.
          2   -1    0    0  501    0  0.00000000000E+00 -0.00000000000E+00 -0.18764322964E+04  0.18764322964E+04  0.00000000000E+00 0.  1.
    2000013    1    1    2    0    0  0.88280306284E+03  0.21026906621E+03 -0.15764307935E+02  0.13138884433E+04  0.95000000000E+03 0.  0.
   -2000013    1    1    2    0    0 -0.88280306284E+03 -0.21026906621E+03 -0.85545581073E+03  0.15677560308E+04  0.95000000000E+03 0.  0.
<mgrwt>
<rscale>  0 0.27467891E+04</rscale>
<asrwt>0</asrwt>
<pdfrwt beam="2">  1        2 0.28868189E+00 0.27467891E+04</pdfrwt>
<pdfrwt beam="1">  1       -2 0.15464803E+00 0.27467891E+04</pdfrwt>
<totfact> 0.18892551E+00</totfact>
</mgrwt>
</event>
<event>
 4    1  0.1323225E-008  0.2456274E+04  0.7816531E-02  0.8418731E-01
          2   -1    0    0  501    0  0.00000000000E+00  0.00000000000E+00  0.80961473632E+03  0.80961473632E+03  0.00000000000E+00 0.  1.
         -2   -1    0    0    0  501 -0.00000000000E+00 -0.00000000000E+00 -0.18630105898E+04  0.18630105898E+04  0.00000000000E+00 0. -1.
    2000013    1    1    2    0    0 -0.74855473665E+03  0.29812339648E+02 -0.75648109881E+03  0.14268800308E+04  0.95000000000E+03 0.  0.
   -2000013    1    1    2    0    0  0.74855473665E+03 -0.29812339648E+02 -0.29691475468E+03  0.12457452954E+04  0.95000000000E+03 0.  0.
<mgrwt>
<rscale>  0 0.24562743E+04</rscale>
<asrwt>0</asrwt>
<pdfrwt beam="1">  1        2 0.12455611E+00 0.24562743E+04</pdfrwt>
<pdfrwt beam="2">  1       -2 0.28661701E+00 0.24562743E+04</pdfrwt>
<totfact> 0.11645080E+00</totfact>
</mgrwt>
</event>
<event>
 4    1  0.1323225E-008  0.3355026E+04  0.7816531E-02  0.8149033E-01
          2   -1    0    0  501    0  0.00000000000E+00  0.00000000000E+00  0.11126503041E+04  0.11126503041E+04  0.00000000000E+00 0.  1.
         -2   -1    0    0    0  501 -0.00000000000E+00 -0.00000000000E+00 -0.25291415046E+04  0.25291415046E+04  0.00000000000E+00 0. -1.
    2000013    1    1    2    0    0 -0.27890555287E+03 -0.13396685829E+04 -0.92274637448E+03  0.19043269391E+04  0.95000000000E+03 0.  0.
   -2000013    1    1    2    0    0  0.27890555287E+03  0.13396685829E+04 -0.49374482607E+03  0.17374648695E+04  0.95000000000E+03 0.  0.
<mgrwt>
<rscale>  0 0.33550261E+04</rscale>
<asrwt>0</asrwt>
<pdfrwt beam="1">  1        2 0.17117697E+00 0.33550261E+04</pdfrwt>
<pdfrwt beam="2">  1       -2 0.38909869E+00 0.33550261E+04</pdfrwt>
<totfact> 0.15541689E-01</totfact>
</mgrwt>
</event>
<event>
 4    1  0.1323225E-008  0.2797926E+04  0.7816531E-02  0.8303913E-01
         -2   -1    0    0    0  501 -0.00000000000E+00  0.00000000000E+00  0.56683154789E+03  0.56683154789E+03  0.00000000000E+00 0. -1.
          2   -1    0    0  501    0  0.00000000000E+00 -0.00000000000E+00 -0.34526966045E+04  0.34526966045E+04  0.00000000000E+00 0.  1.
    2000013    1    1    2    0    0  0.87196224215E+03  0.10169760440E+03 -0.22084404866E+04  0.25593690506E+04  0.95000000000E+03 0.  0.
   -2000013    1    1    2    0    0 -0.87196224215E+03 -0.10169760440E+03 -0.67742457006E+03  0.14601591018E+04  0.95000000000E+03 0.  0.
<mgrwt>
<rscale>  0 0.27979259E+04</rscale>
<asrwt>0</asrwt>
<pdfrwt beam="2">  1        2 0.53118410E+00 0.27979259E+04</pdfrwt>
<pdfrwt beam="1">  1       -2 0.87204852E-01 0.27979259E+04</pdfrwt>
<totfact> 0.86722826E-01</totfact>
</mgrwt>
</event>
<event>
 4    1  0.1323225E-008  0.2334577E+04  0.7816531E-02  0.8464411E-01
          2   -1    0    0  501    0  0.00000000000E+00  0.00000000000E+00  0.10278781114E+04  0.10278781114E+04  0.00000000000E+00 0.  1.
         -2   -1    0    0    0  501 -0.00000000000E+00 -0.00000000000E+00 -0.13256075410E+04  0.13256075410E+04  0.00000000000E+00 0. -1.
    2000013    1    1    2    0    0  0.60510586584E+03 -0.30228209093E+03 -0.98104099343E+02  0.11703213173E+04  0.95000000000E+03 0.  0.
   -2000013    1    1    2    0    0 -0.60510586584E+03  0.30228209093E+03 -0.19962533019E+03  0.11831643351E+04  0.95000000000E+03 0.  0.
<mgrwt>
<rscale>  0 0.23345775E+04</rscale>
<asrwt>0</asrwt>
<pdfrwt beam="1">  1        2 0.15813509E+00 0.23345775E+04</pdfrwt>
<pdfrwt beam="2">  1       -2 0.20393962E+00 0.23345775E+04</pdfrwt>
<totfact> 0.27387695E+00</totfact>
</mgrwt>
</event>
<event>
 4    1  0.1323225E-008  0.3347215E+04  0.7816531E-02  0.8150984E-01
          2   -1    0    0  501    0  0.00000000000E+00  0.00000000000E+00  0.20727162192E+04  0.20727162192E+04  0.00000000000E+00 0.  1.
         -2   -1    0    0    0  501 -0.00000000000E+00 -0.00000000000E+00 -0.13513487317E+04  0.13513487317E+04  0.00000000000E+00 0. -1.
    2000013    1    1    2    0    0  0.92968385083E+03  0.63480799402E+03 -0.45201810788E+03  0.15408158948E+04  0.95000000000E+03 0.  0.
   -2000013    1    1    2    0    0 -0.92968385083E+03 -0.63480799402E+03  0.11733855954E+04  0.18832490561E+04  0.95000000000E+03 0.  0.
<mgrwt>
<rscale>  0 0.33472152E+04</rscale>
<asrwt>0</asrwt>
<pdfrwt beam="1">  1        2 0.31887942E+00 0.33472152E+04</pdfrwt>
<pdfrwt beam="2">  1       -2 0.20789981E+00 0.33472152E+04</pdfrwt>
<totfact> 0.59820858E-01</totfact>
</mgrwt>
</event>
<event>
 4    1  0.1323225E-008  0.2227949E+04  0.7816531E-02  0.8506884E-01
          2   -1    0    0  501    0  0.00000000000E+00  0.00000000000E+00  0.11330402172E+04  0.11330402172E+04  0.00000000000E+00 0.  1.
         -2   -1    0    0    0  501 -0.00000000000E+00 -0.00000000000E+00 -0.10952296681E+04  0.10952296681E+04  0.00000000000E+00 0. -1.
    2000013    1    1    2    0    0 -0.25773272282E+03  0.46843288251E+03  0.24824974074E+03  0.11180265898E+04  0.95000000000E+03 0.  0.
   -2000013    1    1    2    0    0  0.25773272282E+03 -0.46843288251E+03 -0.21043919159E+03  0.11102432955E+04  0.95000000000E+03 0.  0.
<mgrwt>
<rscale>  0 0.22279491E+04</rscale>
<asrwt>0</asrwt>
<pdfrwt beam="1">  1        2 0.17431388E+00 0.22279491E+04</pdfrwt>
<pdfrwt beam="2">  1       -2 0.16849687E+00 0.22279491E+04</pdfrwt>
<totfact> 0.41421321E+00</totfact>
</mgrwt>
</event>
<event>
 4    1  0.1323225E-008  0.2854091E+04  0.7816531E-02  0.8286669E-01
          2   -1    0    0  501    0  0.00000000000E+00  0.00000000000E+00  0.27881996660E+04  0.27881996660E+04  0.00000000000E+00 0.  1.
         -2   -1    0    0    0  501 -0.00000000000E+00 -0.00000000000E+00 -0.73038509090E+03  0.73038509090E+03  0.00000000000E+00 0. -1.
    2000013    1    1    2    0    0 -0.59333633788E+03 -0.10051636181E+03 -0.54158284309E+02  0.11258706269E+04  0.95000000000E+03 0.  0.
   -2000013    1    1    2    0    0  0.59333633788E+03  0.10051636181E+03  0.21119728594E+04  0.23927141299E+04  0.95000000000E+03 0.  0.
<mgrwt>
<rscale>  0 0.28540914E+04</rscale>
<asrwt>0</asrwt>
<pdfrwt beam="1">  1        2 0.42895379E+00 0.28540914E+04</pdfrwt>
<pdfrwt beam="2">  1       -2 0.11236694E+00 0.28540914E+04</pdfrwt>
<totfact> 0.12700783E+00</totfact>
</mgrwt>
</event>
<event>
 4    1  0.1323225E-008  0.2300066E+04  0.7816531E-02  0.8477895E-01
          2   -1    0    0  501    0  0.00000000000E+00  0.00000000000E+00  0.20852169594E+04  0.20852169594E+04  0.00000000000E+00 0.  1.
         -2   -1    0    0    0  501 -0.00000000000E+00 -0.00000000000E+00 -0.63426294762E+03  0.63426294762E+03  0.00000000000E+00 0. -1.
    2000013    1    1    2    0    0 -0.32335619775E+03  0.25908630829E+03  0.13147457588E+04  0.16741389894E+04  0.95000000000E+03 0.  0.
   -2000013    1    1    2    0    0  0.32335619775E+03 -0.25908630829E+03  0.13620825301E+03  0.10453409176E+04  0.95000000000E+03 0.  0.
<mgrwt>
<rscale>  0 0.23000660E+04</rscale>
<asrwt>0</asrwt>
<pdfrwt beam="1">  1        2 0.32080260E+00 0.23000660E+04</pdfrwt>
<pdfrwt beam="2">  1       -2 0.97578916E-01 0.23000660E+04</pdfrwt>
<totfact> 0.47515421E+00</totfact>
</mgrwt>
</event>
<event>
 4    1  0.1323225E-008  0.2345009E+04  0.7816531E-02  0.8460383E-01
          1   -1    0    0  501    0  0.00000000000E+00  0.00000000000E+00  0.76716671399E+03  0.76716671399E+03  0.00000000000E+00 0.  1.
         -1   -1    0    0    0  501 -0.00000000000E+00 -0.00000000000E+00 -0.17920048645E+04  0.17920048645E+04  0.00000000000E+00 0. -1.
    2000013    1    1    2    0    0 -0.67263372691E+03 -0.13441159463E+03 -0.46658494775E+03  0.12612311925E+04  0.95000000000E+03 0.  0.
   -2000013    1    1    2    0    0  0.67263372691E+03  0.13441159463E+03 -0.55825320279E+03  0.12979403861E+04  0.95000000000E+03 0.  0.
<mgrwt>
<rscale>  0 0.23450087E+04</rscale>
<asrwt>0</asrwt>
<pdfrwt beam="1">  1        1 0.11802565E+00 0.23450087E+04</pdfrwt>
<pdfrwt beam="2">  1       -1 0.27569305E+00 0.23450087E+04</pdfrwt>
<totfact> 0.10101061E+00</totfact>
</mgrwt>
</event>
<event>
 4    1  0.1323225E-008  0.2154843E+04  0.7816531E-02  0.8537462E-01
         -2   -1    0    0    0  501 -0.00000000000E+00  0.00000000000E+00  0.50474728343E+03  0.50474728343E+03  0.00000000000E+00 0. -1.
          2   -1    0    0  501    0  0.00000000000E+00 -0.00000000000E+00 -0.22998371834E+04  0.22998371834E+04  0.00000000000E+00 0.  1.
    2000013    1    1    2    0    0  0.35211678764E+03 -0.16274859875E+03 -0.47009063763E+03  0.11286977213E+04  0.95000000000E+03 0.  0.
   -2000013    1    1    2    0    0 -0.35211678764E+03  0.16274859875E+03 -0.13249992623E+04  0.16758867455E+04  0.95000000000E+03 0.  0.
<mgrwt>
<rscale>  0 0.21548425E+04</rscale>
<asrwt>0</asrwt>
<pdfrwt beam="2">  1        2 0.35382110E+00 0.21548425E+04</pdfrwt>
<pdfrwt beam="1">  1       -2 0.77653429E-01 0.21548425E+04</pdfrwt>
<totfact> 0.61475857E+00</totfact>
</mgrwt>
</event>
<event>
 4    1  0.1323225E-008  0.2677646E+04  0.7816531E-02  0.8342295E-01
         -2   -1    0    0    0  501 -0.00000000000E+00  0.00000000000E+00  0.13154886564E+04  0.13154886564E+04  0.00000000000E+00 0. -1.
          2   -1    0    0  501    0  0.00000000000E+00 -0.00000000000E+00 -0.13625715215E+04  0.13625715215E+04  0.00000000000E+00 0.  1.
    2000013    1    1    2    0    0  0.84646369943E+03  0.32648216765E+03  0.23506376993E+03  0.13344835616E+04  0.95000000000E+03 0.  0.
   -2000013    1    1    2    0    0 -0.84646369943E+03 -0.32648216765E+03 -0.28214663510E+03  0.13435766163E+04  0.95000000000E+03 0.  0.
<mgrwt>
<rscale>  0 0.26776463E+04</rscale>
<asrwt>0</asrwt>
<pdfrwt beam="2">  1        2 0.20962639E+00 0.26776463E+04</pdfrwt>
<pdfrwt beam="1">  1       -2 0.20238287E+00 0.26776463E+04</pdfrwt>
<totfact> 0.17147794E+00</totfact>
</mgrwt>
</event>
<event>
 4    1  0.1323225E-008  0.2185240E+04  0.7816531E-02  0.8524597E-01
         -2   -1    0    0    0  501 -0.00000000000E+00  0.00000000000E+00  0.37094427622E+03  0.37094427622E+03  0.00000000000E+00 0. -1.
          2   -1    0    0  501    0  0.00000000000E+00 -0.00000000000E+00 -0.32183238622E+04  0.32183238622E+04  0.00000000000E+00 0.  1.
    2000013    1    1    2    0    0 -0.40961816195E+03  0.31752863297E+03 -0.16711981523E+04  0.19909833590E+04  0.95000000000E+03 0.  0.
   -2000013    1    1    2    0    0  0.40961816195E+03 -0.31752863297E+03 -0.11761814336E+04  0.15982847794E+04  0.95000000000E+03 0.  0.
<mgrwt>
<rscale>  0 0.21852403E+04</rscale>
<asrwt>0</asrwt>
<pdfrwt beam="2">  1        2 0.49512676E+00 0.21852403E+04</pdfrwt>
<pdfrwt beam="1">  1       -2 0.57068349E-01 0.21852403E+04</pdfrwt>
<totfact> 0.33298887E+00</totfact>
</mgrwt>
</event>
<event>
 4    1  0.1323225E-008  0.2965244E+04  0.7816531E-02  0.8253726E-01
         -2   -1    0    0    0  501 -0.00000000000E+00  0.00000000000E+00  0.52315620487E+03  0.52315620487E+03  0.00000000000E+00 0.  1.
          2   -1    0    0  501    0  0.00000000000E+00 -0.00000000000E+00 -0.42017444061E+04  0.42017444061E+04  0.00000000000E+00 0. -1.
    2000013    1    1    2    0    0 -0.25997885160E+03 -0.10549037788E+04 -0.12983316798E+04  0.19412820858E+04  0.95000000000E+03 0.  0.
   -2000013    1    1    2    0    0  0.25997885160E+03  0.10549037788E+04 -0.23802565214E+04  0.27836185251E+04  0.95000000000E+03 0.  0.
<mgrwt>
<rscale>  0 0.29652444E+04</rscale>
<asrwt>0</asrwt>
<pdfrwt beam="2">  1        2 0.64642221E+00 0.29652444E+04</pdfrwt>
<pdfrwt beam="1">  1       -2 0.80485571E-01 0.29652444E+04</pdfrwt>
<totfact> 0.27116109E-01</totfact>
</mgrwt>
</event>
<event>
 4    1  0.1323225E-008  0.2807645E+04  0.7816531E-02  0.8300899E-01
         -2   -1    0    0    0  501 -0.00000000000E+00  0.00000000000E+00  0.83267511715E+03  0.83267511715E+03  0.00000000000E+00 0. -1.
          2   -1    0    0  501    0  0.00000000000E+00 -0.00000000000E+00 -0.23667309980E+04  0.23667309980E+04  0.00000000000E+00 0.  1.
    2000013    1    1    2    0    0  0.43584161678E+02 -0.65964169952E+03 -0.16723594174E+04  0.20337927062E+04  0.95000000000E+03 0.  0.
   -2000013    1    1    2    0    0 -0.43584161678E+02  0.65964169952E+03  0.13830353653E+03  0.11656134089E+04  0.95000000000E+03 0.  0.
<mgrwt>
<rscale>  0 0.28076453E+04</rscale>
<asrwt>0</asrwt>
<pdfrwt beam="2">  1        2 0.36411245E+00 0.28076453E+04</pdfrwt>
<pdfrwt beam="1">  1       -2 0.12810387E+00 0.28076453E+04</pdfrwt>
<totfact> 0.16279214E+00</totfact>
</mgrwt>
</event>
<event>
 4    1  0.1323225E-008  0.2161565E+04  0.7816531E-02  0.8534598E-01
         -2   -1    0    0    0  501 -0.00000000000E+00  0.00000000000E+00  0.38041454727E+03  0.38041454727E+03  0.00000000000E+00 0. -1.
          2   -1    0    0  501    0  0.00000000000E+00 -0.00000000000E+00 -0.30705733227E+04  0.30705733227E+04  0.00000000000E+00 0.  1.
    2000013    1    1    2    0    0  0.49369179337E+03  0.70088240675E+02 -0.15529146095E+04  0.18875083398E+04  0.95000000000E+03 0.  0.
   -2000013    1    1    2    0    0 -0.49369179337E+03 -0.70088240675E+02 -0.11372441659E+04  0.15634795301E+04  0.95000000000E+03 0.  0.
<mgrwt>
<rscale>  0 0.21615650E+04</rscale>
<asrwt>0</asrwt>
<pdfrwt beam="2">  1        2 0.47239590E+00 0.21615650E+04</pdfrwt>
<pdfrwt beam="1">  1       -2 0.58525315E-01 0.21615650E+04</pdfrwt>
<totfact> 0.39396090E+00</totfact>
</mgrwt>
</event>
<event>
 4    1  0.1323225E-008  0.2354544E+04  0.7816531E-02  0.8456720E-01
         -2   -1    0    0    0  501 -0.00000000000E+00  0.00000000000E+00  0.39219935314E+03  0.39219935314E+03  0.00000000000E+00 0. -1.
          2   -1    0    0  501    0  0.00000000000E+00 -0.00000000000E+00 -0.35338400876E+04  0.35338400876E+04  0.00000000000E+00 0.  1.
    2000013    1    1    2    0    0  0.56954826457E+03 -0.39853825249E+03 -0.15443595468E+04  0.19418456103E+04  0.95000000000E+03 0.  0.
   -2000013    1    1    2    0    0 -0.56954826457E+03  0.39853825249E+03 -0.15972811877E+04  0.19841938305E+04  0.95000000000E+03 0.  0.
<mgrwt>
<rscale>  0 0.23545444E+04</rscale>
<asrwt>0</asrwt>
<pdfrwt beam="2">  1        2 0.54366773E+00 0.23545444E+04</pdfrwt>
<pdfrwt beam="1">  1       -2 0.60338360E-01 0.23545444E+04</pdfrwt>
<totfact> 0.17820843E+00</totfact>
</mgrwt>
</event>
<event>
 4    1  0.1323225E-008  0.3290549E+04  0.7816531E-02  0.8165304E-01
          2   -1    0    0  501    0  0.00000000000E+00  0.00000000000E+00  0.18886957566E+04  0.18886957566E+04  0.00000000000E+00 0.  1.
         -2   -1    0    0    0  501 -0.00000000000E+00 -0.00000000000E+00 -0.14332262657E+04  0.14332262657E+04  0.00000000000E+00 0. -1.
    2000013    1    1    2    0    0 -0.55634765769E+03  0.11809819923E+04 -0.91806660055E+02  0.16171486157E+04  0.95000000000E+03 0.  0.
   -2000013    1    1    2    0    0  0.55634765769E+03 -0.11809819923E+04  0.54727615094E+03  0.17047734066E+04  0.95000000000E+03 0.  0.
<mgrwt>
<rscale>  0 0.32905491E+04</rscale>
<asrwt>0</asrwt>
<pdfrwt beam="1">  1        2 0.29056858E+00 0.32905491E+04</pdfrwt>
<pdfrwt beam="2">  1       -2 0.22049635E+00 0.32905491E+04</pdfrwt>
<totfact> 0.63189487E-01</totfact>
</mgrwt>
</event>
<event>
 4    1  0.1323225E-008  0.2041855E+04  0.7816531E-02  0.8587298E-01
         -2   -1    0    0    0  501 -0.00000000000E+00  0.00000000000E+00  0.54372105731E+03  0.54372105731E+03  0.00000000000E+00 0. -1.
          2   -1    0    0  501    0  0.00000000000E+00 -0.00000000000E+00 -0.19169620858E+04  0.19169620858E+04  0.00000000000E+00 0.  1.
    2000013    1    1    2    0    0  0.22848734115E+03 -0.29371233924E+03 -0.73039229514E+03  0.12547694243E+04  0.95000000000E+03 0.  0.
   -2000013    1    1    2    0    0 -0.22848734115E+03  0.29371233924E+03 -0.64284873334E+03  0.12059137188E+04  0.95000000000E+03 0.  0.
<mgrwt>
<rscale>  0 0.20418547E+04</rscale>
<asrwt>0</asrwt>
<pdfrwt beam="2">  1        2 0.29491725E+00 0.20418547E+04</pdfrwt>
<pdfrwt beam="1">  1       -2 0.83649393E-01 0.20418547E+04</pdfrwt>
<totfact> 0.85968566E+00</totfact>
</mgrwt>
</event>
<event>
 4    1  0.1323225E-008  0.2905588E+04  0.7816531E-02  0.8271217E-01
          2   -1    0    0  501    0  0.00000000000E+00  0.00000000000E+00  0.19612189100E+04  0.19612189100E+04  0.00000000000E+00 0.  1.
         -2   -1    0    0    0  501 -0.00000000000E+00 -0.00000000000E+00 -0.10761730568E+04  0.10761730568E+04  0.00000000000E+00 0. -1.
    2000013    1    1    2    0    0 -0.91194445013E+03  0.35724201254E+03  0.96399666738E+03  0.16706448187E+04  0.95000000000E+03 0.  0.
   -2000013    1    1    2    0    0  0.91194445013E+03 -0.35724201254E+03 -0.78950814202E+02  0.13667471480E+04  0.95000000000E+03 0.  0.
<mgrwt>
<rscale>  0 0.29055884E+04</rscale>
<asrwt>0</asrwt>
<pdfrwt beam="1">  1        2 0.30172599E+00 0.29055884E+04</pdfrwt>
<pdfrwt beam="2">  1       -2 0.16556509E+00 0.29055884E+04</pdfrwt>
<totfact> 0.13893221E+00</totfact>
</mgrwt>
</event>
<event>
 4    1  0.1323225E-008  0.2030384E+04  0.7816531E-02  0.8592545E-01
          2   -1    0    0  501    0  0.00000000000E+00  0.00000000000E+00  0.13065273566E+04  0.13065273566E+04  0.00000000000E+00 0.  1.
         -2   -1    0    0    0  501 -0.00000000000E+00 -0.00000000000E+00 -0.78881992289E+03  0.78881992289E+03  0.00000000000E+00 0. -1.
    2000013    1    1    2    0    0 -0.72513988427E+02 -0.33089521222E+03  0.13954820705E+03  0.10181962591E+04  0.95000000000E+03 0.  0.
   -2000013    1    1    2    0    0  0.72513988427E+02  0.33089521222E+03  0.37815922667E+03  0.10771510204E+04  0.95000000000E+03 0.  0.
<mgrwt>
<rscale>  0 0.20303840E+04</rscale>
<asrwt>0</asrwt>
<pdfrwt beam="1">  1        2 0.20100421E+00 0.20303840E+04</pdfrwt>
<pdfrwt beam="2">  1       -2 0.12135691E+00 0.20303840E+04</pdfrwt>
<totfact> 0.78430441E+00</totfact>
</mgrwt>
</event>
<event>
 4    1  0.1323225E-008  0.2163252E+04  0.7816531E-02  0.8533881E-01
         -2   -1    0    0    0  501 -0.00000000000E+00  0.00000000000E+00  0.81401114466E+03  0.81401114466E+03  0.00000000000E+00 0. -1.
          2   -1    0    0  501    0  0.00000000000E+00 -0.00000000000E+00 -0.14372222939E+04  0.14372222939E+04  0.00000000000E+00 0.  1.
    2000013    1    1    2    0    0 -0.29957421960E+03 -0.36264238412E+03 -0.53519426316E+03  0.11875129941E+04  0.95000000000E+03 0.  0.
   -2000013    1    1    2    0    0  0.29957421960E+03  0.36264238412E+03 -0.88016886111E+02  0.10637204445E+04  0.95000000000E+03 0.  0.
<mgrwt>
<rscale>  0 0.21632521E+04</rscale>
<asrwt>0</asrwt>
<pdfrwt beam="2">  1        2 0.22111112E+00 0.21632521E+04</pdfrwt>
<pdfrwt beam="1">  1       -2 0.12523249E+00 0.21632521E+04</pdfrwt>
<totfact> 0.60299538E+00</totfact>
</mgrwt>
</event>
<event>
 4    1  0.1323225E-008  0.2072150E+04  0.7816531E-02  0.8573612E-01
          2   -1    0    0  501    0  0.00000000000E+00  0.00000000000E+00  0.28490116266E+04  0.28490116266E+04  0.00000000000E+00 0.  1.
         -2   -1    0    0    0  501 -0.00000000000E+00 -0.00000000000E+00 -0.37678035360E+03  0.37678035360E+03  0.00000000000E+00 0. -1.
    2000013    1    1    2    0    0 -0.81165229857E+02 -0.39693770760E+03  0.13645277196E+04  0.17113103856E+04  0.95000000000E+03 0.  0.
   -2000013    1    1    2    0    0  0.81165229857E+02  0.39693770760E+03  0.11077035534E+04  0.15144815947E+04  0.95000000000E+03 0.  0.
<mgrwt>
<rscale>  0 0.20721502E+04</rscale>
<asrwt>0</asrwt>
<pdfrwt beam="1">  1        2 0.43830947E+00 0.20721502E+04</pdfrwt>
<pdfrwt beam="2">  1       -2 0.57966210E-01 0.20721502E+04</pdfrwt>
<totfact> 0.55620999E+00</totfact>
</mgrwt>
</event>
<event>
 4    1  0.1323225E-008  0.2440254E+04  0.7816531E-02  0.8424585E-01
         -2   -1    0    0    0  501 -0.00000000000E+00  0.00000000000E+00  0.11628879655E+04  0.11628879655E+04  0.00000000000E+00 0. -1.
          2   -1    0    0  501    0  0.00000000000E+00 -0.00000000000E+00 -0.12801830826E+04  0.12801830826E+04  0.00000000000E+00 0.  1.
    2000013    1    1    2    0    0  0.49536011983E+03 -0.46203849433E+03  0.29862335988E+03  0.12043824682E+04  0.95000000000E+03 0.  0.
   -2000013    1    1    2    0    0 -0.49536011983E+03  0.46203849433E+03 -0.41591847696E+03  0.12386885799E+04  0.95000000000E+03 0.  0.
<mgrwt>
<rscale>  0 0.24402537E+04</rscale>
<asrwt>0</asrwt>
<pdfrwt beam="2">  1        2 0.19695124E+00 0.24402537E+04</pdfrwt>
<pdfrwt beam="1">  1       -2 0.17890584E+00 0.24402537E+04</pdfrwt>
<totfact> 0.28081033E+00</totfact>
</mgrwt>
</event>
<event>
 4    1  0.1323225E-008  0.2971750E+04  0.7816531E-02  0.8251844E-01
          2   -1    0    0  501    0  0.00000000000E+00  0.00000000000E+00  0.23332780807E+04  0.23332780807E+04  0.00000000000E+00 0.  1.
         -2   -1    0    0    0  501 -0.00000000000E+00 -0.00000000000E+00 -0.94623290828E+03  0.94623290828E+03  0.00000000000E+00 0. -1.
    2000013    1    1    2    0    0  0.39972478420E+03 -0.98840784202E+03  0.24039701475E+03  0.14481093501E+04  0.95000000000E+03 0.  0.
   -2000013    1    1    2    0    0 -0.39972478420E+03  0.98840784202E+03  0.11466481577E+04  0.18314016389E+04  0.95000000000E+03 0.  0.
<mgrwt>
<rscale>  0 0.29717500E+04</rscale>
<asrwt>0</asrwt>
<pdfrwt beam="1">  1        2 0.35896586E+00 0.29717500E+04</pdfrwt>
<pdfrwt beam="2">  1       -2 0.14557429E+00 0.29717500E+04</pdfrwt>
<totfact> 0.12075268E+00</totfact>
</mgrwt>
</event>
<event>
 4    1  0.1323225E-008  0.2688894E+04  0.7816531E-02  0.8338617E-01
          2   -1    0    0  501    0  0.00000000000E+00  0.00000000000E+00  0.97072047671E+03  0.97072047671E+03  0.00000000000E+00 0.  1.
         -2   -1    0    0    0  501 -0.00000000000E+00 -0.00000000000E+00 -0.18620582239E+04  0.18620582239E+04  0.00000000000E+00 0. -1.
    2000013    1    1    2    0    0 -0.57932956216E+03  0.54616074143E+03  0.10288932470E+03  0.12437847524E+04  0.95000000000E+03 0.  0.
   -2000013    1    1    2    0    0  0.57932956216E+03 -0.54616074143E+03 -0.99422707187E+03  0.15889939482E+04  0.95000000000E+03 0.  0.
<mgrwt>
<rscale>  0 0.26888942E+04</rscale>
<asrwt>0</asrwt>
<pdfrwt beam="1">  1        2 0.14934161E+00 0.26888942E+04</pdfrwt>
<pdfrwt beam="2">  1       -2 0.28647050E+00 0.26888942E+04</pdfrwt>
<totfact> 0.88845510E-01</totfact>
</mgrwt>
</event>
<event>
 4    1  0.1323225E-008  0.2268601E+04  0.7816531E-02  0.8490405E-01
          2   -1    0    0  501    0  0.00000000000E+00  0.00000000000E+00  0.28180438631E+04  0.28180438631E+04  0.00000000000E+00 0.  1.
         -2   -1    0    0    0  501 -0.00000000000E+00 -0.00000000000E+00 -0.45657099991E+03  0.45657099991E+03  0.00000000000E+00 0. -1.
    2000013    1    1    2    0    0  0.72536937849E+02 -0.57136076582E+03  0.85024475029E+03  0.13989749345E+04  0.95000000000E+03 0.  0.
   -2000013    1    1    2    0    0 -0.72536937849E+02  0.57136076582E+03  0.15112281129E+04  0.18756399284E+04  0.95000000000E+03 0.  0.
<mgrwt>
<rscale>  0 0.22686005E+04</rscale>
<asrwt>0</asrwt>
<pdfrwt beam="1">  1        2 0.43354520E+00 0.22686005E+04</pdfrwt>
<pdfrwt beam="2">  1       -2 0.70241694E-01 0.22686005E+04</pdfrwt>
<totfact> 0.37831290E+00</totfact>
</mgrwt>
</event>
<event>
 4    1  0.1323225E-008  0.2667906E+04  0.7816531E-02  0.8345494E-01
          2   -1    0    0  501    0  0.00000000000E+00  0.00000000000E+00  0.34441406748E+04  0.34441406748E+04  0.00000000000E+00 0. -1.
         -2   -1    0    0    0  501 -0.00000000000E+00 -0.00000000000E+00 -0.51665452385E+03  0.51665452385E+03  0.00000000000E+00 0.  1.
    2000013    1    1    2    0    0  0.53659419522E+03  0.76275684681E+03  0.15897120762E+04  0.20735032729E+04  0.95000000000E+03 0.  0.
   -2000013    1    1    2    0    0 -0.53659419522E+03 -0.76275684681E+03  0.13377740748E+04  0.18872919257E+04  0.95000000000E+03 0.  0.
<mgrwt>
<rscale>  0 0.26679062E+04</rscale>
<asrwt>0</asrwt>
<pdfrwt beam="1">  1        2 0.52986778E+00 0.26679062E+04</pdfrwt>
<pdfrwt beam="2">  1       -2 0.79485314E-01 0.26679062E+04</pdfrwt>
<totfact> 0.10971135E+00</totfact>
</mgrwt>
</event>
<event>
 4    1  0.1323225E-008  0.2418937E+04  0.7816531E-02  0.8432448E-01
         -2   -1    0    0    0  501 -0.00000000000E+00  0.00000000000E+00  0.65327834727E+03  0.65327834727E+03  0.00000000000E+00 0. -1.
          2   -1    0    0  501    0  0.00000000000E+00 -0.00000000000E+00 -0.22391894967E+04  0.22391894967E+04  0.00000000000E+00 0.  1.
    2000013    1    1    2    0    0  0.51826445041E+03 -0.48768250807E+03 -0.51539050483E+03  0.12940477741E+04  0.95000000000E+03 0.  0.
   -2000013    1    1    2    0    0 -0.51826445041E+03  0.48768250807E+03 -0.10705206446E+04  0.15984200699E+04  0.95000000000E+03 0.  0.
<mgrwt>
<rscale>  0 0.24189370E+04</rscale>
<asrwt>0</asrwt>
<pdfrwt beam="2">  1        2 0.34449069E+00 0.24189370E+04</pdfrwt>
<pdfrwt beam="1">  1       -2 0.10050436E+00 0.24189370E+04</pdfrwt>
<totfact> 0.35958763E+00</totfact>
</mgrwt>
</event>
<event>
 4    1  0.1323225E-008  0.2524096E+04  0.7816531E-02  0.8394451E-01
          2   -1    0    0  501    0  0.00000000000E+00  0.00000000000E+00  0.35232424612E+04  0.35232424612E+04  0.00000000000E+00 0.  1.
         -2   -1    0    0    0  501 -0.00000000000E+00 -0.00000000000E+00 -0.45207350813E+03  0.45207350813E+03  0.00000000000E+00 0. -1.
    2000013    1    1    2    0    0 -0.14408493566E+03  0.68199666624E+03  0.82356805609E+03  0.14375827853E+04  0.95000000000E+03 0.  0.
   -2000013    1    1    2    0    0  0.14408493566E+03 -0.68199666624E+03  0.22476008970E+04  0.25377331841E+04  0.95000000000E+03 0.  0.
<mgrwt>
<rscale>  0 0.25240955E+04</rscale>
<asrwt>0</asrwt>
<pdfrwt beam="1">  1        2 0.54203729E+00 0.25240955E+04</pdfrwt>
<pdfrwt beam="2">  1       -2 0.69549773E-01 0.25240955E+04</pdfrwt>
<totfact> 0.13155509E+00</totfact>
</mgrwt>
</event>
<event>
 4    1  0.1323225E-008  0.2340051E+04  0.7816531E-02  0.8462295E-01
         -2   -1    0    0    0  501 -0.00000000000E+00  0.00000000000E+00  0.60489196211E+03  0.60489196211E+03  0.00000000000E+00 0. -1.
          2   -1    0    0  501    0  0.00000000000E+00 -0.00000000000E+00 -0.22631465971E+04  0.22631465971E+04  0.00000000000E+00 0.  1.
    2000013    1    1    2    0    0  0.42716695778E+03  0.51742271907E+03 -0.98541956856E+03  0.15243849928E+04  0.95000000000E+03 0.  0.
   -2000013    1    1    2    0    0 -0.42716695778E+03 -0.51742271907E+03 -0.67283506643E+03  0.13436535665E+04  0.95000000000E+03 0.  0.
<mgrwt>
<rscale>  0 0.23400506E+04</rscale>
<asrwt>0</asrwt>
<pdfrwt beam="2">  1        2 0.34817639E+00 0.23400506E+04</pdfrwt>
<pdfrwt beam="1">  1       -2 0.93060304E-01 0.23400506E+04</pdfrwt>
<totfact> 0.42033933E+00</totfact>
</mgrwt>
</event>
<event>
 4    1  0.1323225E-008  0.4213938E+04  0.7816531E-02  0.7962726E-01
          2   -1    0    0  501    0  0.00000000000E+00  0.00000000000E+00  0.25297854154E+04  0.25297854154E+04  0.00000000000E+00 0.  1.
         -2   -1    0    0    0  501 -0.00000000000E+00 -0.00000000000E+00 -0.17548198907E+04  0.17548198907E+04  0.00000000000E+00 0. -1.
    2000013    1    1    2    0    0  0.12648349631E+04 -0.60652746632E+03  0.16611407526E+04  0.23726718381E+04  0.95000000000E+03 0.  0.
   -2000013    1    1    2    0    0 -0.12648349631E+04  0.60652746632E+03 -0.88617522795E+03  0.19119334680E+04  0.95000000000E+03 0.  0.
<mgrwt>
<rscale>  0 0.42139377E+04</rscale>
<asrwt>0</asrwt>
<pdfrwt beam="1">  1        2 0.38919776E+00 0.42139377E+04</pdfrwt>
<pdfrwt beam="2">  1       -2 0.26997229E+00 0.42139377E+04</pdfrwt>
<totfact> 0.12576028E-01</totfact>
</mgrwt>
</event>
<event>
 4    1  0.1323225E-008  0.3621160E+04  0.7816531E-02  0.8085662E-01
         -2   -1    0    0    0  501 -0.00000000000E+00  0.00000000000E+00  0.15458844754E+04  0.15458844754E+04  0.00000000000E+00 0. -1.
          2   -1    0    0  501    0  0.00000000000E+00 -0.00000000000E+00 -0.21205978302E+04  0.21205978302E+04  0.00000000000E+00 0.  1.
    2000013    1    1    2    0    0  0.13301066180E+04 -0.28030475555E+03  0.44833563876E+03  0.17179229366E+04  0.95000000000E+03 0.  0.
   -2000013    1    1    2    0    0 -0.13301066180E+04  0.28030475555E+03 -0.10230489935E+04  0.19485593690E+04  0.95000000000E+03 0.  0.
<mgrwt>
<rscale>  0 0.36211596E+04</rscale>
<asrwt>0</asrwt>
<pdfrwt beam="2">  1        2 0.32624582E+00 0.36211596E+04</pdfrwt>
<pdfrwt beam="1">  1       -2 0.23782838E+00 0.36211596E+04</pdfrwt>
<totfact> 0.35574702E-01</totfact>
</mgrwt>
</event>
<event>
 4    1  0.1323225E-008  0.3120291E+04  0.7816531E-02  0.8210191E-01
         -2   -1    0    0    0  501 -0.00000000000E+00  0.00000000000E+00  0.12022916700E+04  0.12022916700E+04  0.00000000000E+00 0. -1.
          2   -1    0    0  501    0  0.00000000000E+00 -0.00000000000E+00 -0.20245126520E+04  0.20245126520E+04  0.00000000000E+00 0.  1.
    2000013    1    1    2    0    0 -0.54089045256E+03 -0.10572182505E+04 -0.77125372528E+03  0.17051701439E+04  0.95000000000E+03 0.  0.
   -2000013    1    1    2    0    0  0.54089045256E+03  0.10572182505E+04 -0.50967256634E+02  0.15216341781E+04  0.95000000000E+03 0.  0.
<mgrwt>
<rscale>  0 0.31202915E+04</rscale>
<asrwt>0</asrwt>
<pdfrwt beam="2">  1        2 0.31146348E+00 0.31202915E+04</pdfrwt>
<pdfrwt beam="1">  1       -2 0.18496795E+00 0.31202915E+04</pdfrwt>
<totfact> 0.92001850E-01</totfact>
</mgrwt>
</event>
<event>
 4    1  0.1323225E-008  0.2744602E+04  0.7816531E-02  0.8320677E-01
         -2   -1    0    0    0  501 -0.00000000000E+00  0.00000000000E+00  0.19559075490E+04  0.19559075490E+04  0.00000000000E+00 0. -1.
          2   -1    0    0  501    0  0.00000000000E+00 -0.00000000000E+00 -0.96283174561E+03  0.96283174561E+03  0.00000000000E+00 0.  1.
    2000013    1    1    2    0    0 -0.80569145161E+03 -0.31812542113E+03  0.10069564403E+04  0.16330351409E+04  0.95000000000E+03 0.  0.
   -2000013    1    1    2    0    0  0.80569145161E+03  0.31812542113E+03 -0.13880636914E+02  0.12857041537E+04  0.95000000000E+03 0.  0.
<mgrwt>
<rscale>  0 0.27446019E+04</rscale>
<asrwt>0</asrwt>
<pdfrwt beam="2">  1        2 0.14812796E+00 0.27446019E+04</pdfrwt>
<pdfrwt beam="1">  1       -2 0.30090885E+00 0.27446019E+04</pdfrwt>
<totfact> 0.73036806E-01</totfact>
</mgrwt>
</event>
<event>
 4    1  0.1323225E-008  0.2225223E+04  0.7816531E-02  0.8508003E-01
          2   -1    0    0  501    0  0.00000000000E+00  0.00000000000E+00  0.18580418204E+04  0.18580418204E+04  0.00000000000E+00 0.  1.
         -2   -1    0    0    0  501 -0.00000000000E+00 -0.00000000000E+00 -0.66624129384E+03  0.66624129384E+03  0.00000000000E+00 0. -1.
    2000013    1    1    2    0    0 -0.33905348746E+03 -0.39768055675E+03  0.31276207792E+03  0.11284623210E+04  0.95000000000E+03 0.  0.
   -2000013    1    1    2    0    0  0.33905348746E+03  0.39768055675E+03  0.87903844860E+03  0.13958207932E+04  0.95000000000E+03 0.  0.
<mgrwt>
<rscale>  0 0.22252229E+04</rscale>
<asrwt>0</asrwt>
<pdfrwt beam="1">  1        2 0.28585259E+00 0.22252229E+04</pdfrwt>
<pdfrwt beam="2">  1       -2 0.10249866E+00 0.22252229E+04</pdfrwt>
<totfact> 0.56915136E+00</totfact>
</mgrwt>
</event>
<event>
 4    1  0.1323225E-008  0.2414194E+04  0.7816531E-02  0.8434209E-01
          2   -1    0    0  501    0  0.00000000000E+00  0.00000000000E+00  0.31742210387E+04  0.31742210387E+04  0.00000000000E+00 0.  1.
         -2   -1    0    0    0  501 -0.00000000000E+00 -0.00000000000E+00 -0.45903626802E+03  0.45903626802E+03  0.00000000000E+00 0. -1.
    2000013    1    1    2    0    0  0.64907696245E+03 -0.36042496077E+03  0.12701555009E+04  0.17512858282E+04  0.95000000000E+03 0.  0.
   -2000013    1    1    2    0    0 -0.64907696245E+03  0.36042496077E+03  0.14450292698E+04  0.18819714785E+04  0.95000000000E+03 0.  0.
<mgrwt>
<rscale>  0 0.24141935E+04</rscale>
<asrwt>0</asrwt>
<pdfrwt beam="1">  1        2 0.48834168E+00 0.24141935E+04</pdfrwt>
<pdfrwt beam="2">  1       -2 0.70620966E-01 0.24141935E+04</pdfrwt>
<totfact> 0.22091987E+00</totfact>
</mgrwt>
</event>
<event>
 4    1  0.1323225E-008  0.1944025E+04  0.7816531E-02  0.8633247E-01
         -2   -1    0    0    0  501 -0.00000000000E+00  0.00000000000E+00  0.66959172065E+03  0.66959172065E+03  0.00000000000E+00 0. -1.
          2   -1    0    0  501    0  0.00000000000E+00 -0.00000000000E+00 -0.14110213016E+04  0.14110213016E+04  0.00000000000E+00 0.  1.
    2000013    1    1    2    0    0  0.93916943637E+02  0.84552642126E+02 -0.54440932933E+03  0.11022028214E+04  0.95000000000E+03 0.  0.
   -2000013    1    1    2    0    0 -0.93916943637E+02 -0.84552642126E+02 -0.19702025159E+03  0.97841020085E+03  0.95000000000E+03 0.  0.
<mgrwt>
<rscale>  0 0.19440249E+04</rscale>
<asrwt>0</asrwt>
<pdfrwt beam="2">  1        2 0.21708020E+00 0.19440249E+04</pdfrwt>
<pdfrwt beam="1">  1       -2 0.10301411E+00 0.19440249E+04</pdfrwt>
<totfact> 0.10243918E+01</totfact>
</mgrwt>
</event>
<event>
 4    1  0.1323225E-008  0.2370244E+04  0.7816531E-02  0.8450729E-01
          1   -1    0    0  501    0  0.00000000000E+00  0.00000000000E+00  0.12277360925E+04  0.12277360925E+04  0.00000000000E+00 0.  1.
         -1   -1    0    0    0  501 -0.00000000000E+00 -0.00000000000E+00 -0.11439866572E+04  0.11439866572E+04  0.00000000000E+00 0. -1.
    2000013    1    1    2    0    0  0.10754499612E+03  0.39216155256E+03  0.62245839363E+03  0.12063627403E+04  0.95000000000E+03 0.  0.
   -2000013    1    1    2    0    0 -0.10754499612E+03 -0.39216155256E+03 -0.53870895837E+03  0.11653600093E+04  0.95000000000E+03 0.  0.
<mgrwt>
<rscale>  0 0.23702436E+04</rscale>
<asrwt>0</asrwt>
<pdfrwt beam="1">  1        1 0.18888247E+00 0.23702436E+04</pdfrwt>
<pdfrwt beam="2">  1       -1 0.17599795E+00 0.23702436E+04</pdfrwt>
<totfact> 0.20383663E+00</totfact>
</mgrwt>
</event>
<event>
 4    1  0.1323225E-008  0.2612931E+04  0.7816531E-02  0.8363822E-01
         -1   -1    0    0    0  501 -0.00000000000E+00  0.00000000000E+00  0.66833077620E+03  0.66833077620E+03  0.00000000000E+00 0. -1.
          1   -1    0    0  501    0  0.00000000000E+00 -0.00000000000E+00 -0.25539027298E+04  0.25539027298E+04  0.00000000000E+00 0.  1.
    2000013    1    1    2    0    0 -0.18118489909E+03 -0.57283352460E+03 -0.17639310455E+04  0.20916306911E+04  0.95000000000E+03 0.  0.
   -2000013    1    1    2    0    0  0.18118489909E+03  0.57283352460E+03 -0.12164090809E+03  0.11306028149E+04  0.95000000000E+03 0.  0.
<mgrwt>
<rscale>  0 0.26129308E+04</rscale>
<asrwt>0</asrwt>
<pdfrwt beam="2">  1        1 0.39290812E+00 0.26129308E+04</pdfrwt>
<pdfrwt beam="1">  1       -1 0.10282012E+00 0.26129308E+04</pdfrwt>
<totfact> 0.97685826E-01</totfact>
</mgrwt>
</event>
<event>
 4    1  0.1323225E-008  0.3472059E+04  0.7816531E-02  0.8120444E-01
         -2   -1    0    0    0  501 -0.00000000000E+00  0.00000000000E+00  0.20184755543E+04  0.20184755543E+04  0.00000000000E+00 0. -1.
          2   -1    0    0  501    0  0.00000000000E+00 -0.00000000000E+00 -0.14931064029E+04  0.14931064029E+04  0.00000000000E+00 0.  1.
    2000013    1    1    2    0    0 -0.19505068692E+03  0.11593453054E+04 -0.60095158484E+03  0.16265820345E+04  0.95000000000E+03 0.  0.
   -2000013    1    1    2    0    0  0.19505068692E+03 -0.11593453054E+04  0.11263207363E+04  0.18849999227E+04  0.95000000000E+03 0.  0.
<mgrwt>
<rscale>  0 0.34720592E+04</rscale>
<asrwt>0</asrwt>
<pdfrwt beam="2">  1        2 0.22970868E+00 0.34720592E+04</pdfrwt>
<pdfrwt beam="1">  1       -2 0.31053470E+00 0.34720592E+04</pdfrwt>
<totfact> 0.28885311E-01</totfact>
</mgrwt>
</event>
<event>
 4    1  0.1323225E-008  0.2343654E+04  0.7816531E-02  0.8460905E-01
         -2   -1    0    0    0  501 -0.00000000000E+00  0.00000000000E+00  0.71531091945E+03  0.71531091945E+03  0.00000000000E+00 0. -1.
          2   -1    0    0  501    0  0.00000000000E+00 -0.00000000000E+00 -0.19196950037E+04  0.19196950037E+04  0.00000000000E+00 0.  1.
    2000013    1    1    2    0    0  0.58731302283E+03 -0.34631467226E+03 -0.51650507178E+03  0.12783379554E+04  0.95000000000E+03 0.  0.
   -2000013    1    1    2    0    0 -0.58731302283E+03  0.34631467226E+03 -0.68787901252E+03  0.13566679678E+04  0.95000000000E+03 0.  0.
<mgrwt>
<rscale>  0 0.23436542E+04</rscale>
<asrwt>0</asrwt>
<pdfrwt beam="2">  1        2 0.29533769E+00 0.23436542E+04</pdfrwt>
<pdfrwt beam="1">  1       -2 0.11004784E+00 0.23436542E+04</pdfrwt>
<totfact> 0.43903020E+00</totfact>
</mgrwt>
</event>
<event>
 4    1  0.1323225E-008  0.2305115E+04  0.7816531E-02  0.8475907E-01
          1   -1    0    0  501    0  0.00000000000E+00  0.00000000000E+00  0.76052926474E+03  0.76052926474E+03  0.00000000000E+00 0.  1.
         -1   -1    0    0    0  501 -0.00000000000E+00 -0.00000000000E+00 -0.17466639694E+04  0.17466639694E+04  0.00000000000E+00 0. -1.
    2000013    1    1    2    0    0  0.51129477379E+03 -0.37715775403E+03 -0.65519420437E+03  0.13173647037E+04  0.95000000000E+03 0.  0.
   -2000013    1    1    2    0    0 -0.51129477379E+03  0.37715775403E+03 -0.33094050030E+03  0.11898285304E+04  0.95000000000E+03 0.  0.
<mgrwt>
<rscale>  0 0.23051152E+04</rscale>
<asrwt>0</asrwt>
<pdfrwt beam="1">  1        1 0.11700450E+00 0.23051152E+04</pdfrwt>
<pdfrwt beam="2">  1       -1 0.26871753E+00 0.23051152E+04</pdfrwt>
<totfact> 0.11403134E+00</totfact>
</mgrwt>
</event>
<event>
 4    1  0.1323225E-008  0.2707929E+04  0.7816531E-02  0.8332437E-01
          2   -1    0    0  501    0  0.00000000000E+00  0.00000000000E+00  0.32659022259E+04  0.32659022259E+04  0.00000000000E+00 0.  1.
         -2   -1    0    0    0  501 -0.00000000000E+00 -0.00000000000E+00 -0.56132092105E+03  0.56132092105E+03  0.00000000000E+00 0. -1.
    2000013    1    1    2    0    0  0.95140268118E+03 -0.12396752367E+03  0.14949206350E+04  0.20144038110E+04  0.95000000000E+03 0.  0.
   -2000013    1    1    2    0    0 -0.95140268118E+03  0.12396752367E+03  0.12096606698E+04  0.18128193360E+04  0.95000000000E+03 0.  0.
<mgrwt>
<rscale>  0 0.27079285E+04</rscale>
<asrwt>0</asrwt>
<pdfrwt beam="1">  1        2 0.50244649E+00 0.27079285E+04</pdfrwt>
<pdfrwt beam="2">  1       -2 0.86357066E-01 0.27079285E+04</pdfrwt>
<totfact> 0.11955418E+00</totfact>
</mgrwt>
</event>
<event>
 4    1  0.1323225E-008  0.2110808E+04  0.7816531E-02  0.8556497E-01
         -2   -1    0    0    0  501 -0.00000000000E+00  0.00000000000E+00  0.38467378106E+03  0.38467378106E+03  0.00000000000E+00 0. -1.
          2   -1    0    0  501    0  0.00000000000E+00 -0.00000000000E+00 -0.28956424713E+04  0.28956424713E+04  0.00000000000E+00 0.  1.
    2000013    1    1    2    0    0  0.17539424309E+03 -0.39751877287E+03 -0.14890763489E+04  0.18189647298E+04  0.95000000000E+03 0.  0.
   -2000013    1    1    2    0    0 -0.17539424309E+03  0.39751877287E+03 -0.10218923414E+04  0.14613515226E+04  0.95000000000E+03 0.  0.
<mgrwt>
<rscale>  0 0.21108081E+04</rscale>
<asrwt>0</asrwt>
<pdfrwt beam="2">  1        2 0.44548347E+00 0.21108081E+04</pdfrwt>
<pdfrwt beam="1">  1       -2 0.59180580E-01 0.21108081E+04</pdfrwt>
<totfact> 0.49694180E+00</totfact>
</mgrwt>
</event>
<event>
 4    1  0.1323225E-008  0.2599059E+04  0.7816531E-02  0.8368521E-01
          2   -1    0    0  501    0  0.00000000000E+00  0.00000000000E+00  0.14605961060E+04  0.14605961060E+04  0.00000000000E+00 0.  1.
         -2   -1    0    0    0  501 -0.00000000000E+00 -0.00000000000E+00 -0.11562245917E+04  0.11562245917E+04  0.00000000000E+00 0. -1.
    2000013    1    1    2    0    0  0.63102476198E+03  0.52939614139E+03  0.48279634016E+03  0.13468648153E+04  0.95000000000E+03 0.  0.
   -2000013    1    1    2    0    0 -0.63102476198E+03 -0.52939614139E+03 -0.17842482582E+03  0.12699558824E+04  0.95000000000E+03 0.  0.
<mgrwt>
<rscale>  0 0.25990592E+04</rscale>
<asrwt>0</asrwt>
<pdfrwt beam="1">  1        2 0.22470709E+00 0.25990592E+04</pdfrwt>
<pdfrwt beam="2">  1       -2 0.17788071E+00 0.25990592E+04</pdfrwt>
<totfact> 0.22177266E+00</totfact>
</mgrwt>
</event>
<event>
 4    1  0.1323225E-008  0.3643483E+04  0.7816531E-02  0.8080603E-01
         -2   -1    0    0    0  501 -0.00000000000E+00  0.00000000000E+00  0.71156820536E+03  0.71156820536E+03  0.00000000000E+00 0. -1.
          2   -1    0    0  501    0  0.00000000000E+00 -0.00000000000E+00 -0.46639826476E+04  0.46639826476E+04  0.00000000000E+00 0.  1.
    2000013    1    1    2    0    0  0.14546935524E+04  0.45454591804E+03 -0.24273393776E+04  0.30194737583E+04  0.95000000000E+03 0.  0.
   -2000013    1    1    2    0    0 -0.14546935524E+04 -0.45454591804E+03 -0.15250750646E+04  0.23560770946E+04  0.95000000000E+03 0.  0.
<mgrwt>
<rscale>  0 0.36434828E+04</rscale>
<asrwt>0</asrwt>
<pdfrwt beam="2">  1        2 0.71753581E+00 0.36434828E+04</pdfrwt>
<pdfrwt beam="1">  1       -2 0.10947203E+00 0.36434828E+04</pdfrwt>
<totfact> 0.44959330E-02</totfact>
</mgrwt>
</event>
<event>
 4    1  0.1323225E-008  0.4283503E+04  0.7816531E-02  0.7949676E-01
         -2   -1    0    0    0  501 -0.00000000000E+00  0.00000000000E+00  0.16953021042E+04  0.16953021042E+04  0.00000000000E+00 0. -1.
          2   -1    0    0  501    0  0.00000000000E+00 -0.00000000000E+00 -0.27057708158E+04  0.27057708158E+04  0.00000000000E+00 0.  1.
    2000013    1    1    2    0    0  0.10847791404E+04  0.13688554910E+04  0.31291806385E+03  0.20126919420E+04  0.95000000000E+03 0.  0.
   -2000013    1    1    2    0    0 -0.10847791404E+04 -0.13688554910E+04 -0.13233867754E+04  0.23883809780E+04  0.95000000000E+03 0.  0.
<mgrwt>
<rscale>  0 0.42835028E+04</rscale>
<asrwt>0</asrwt>
<pdfrwt beam="2">  1        2 0.41627243E+00 0.42835028E+04</pdfrwt>
<pdfrwt beam="1">  1       -2 0.26081571E+00 0.42835028E+04</pdfrwt>
<totfact> 0.11202663E-01</totfact>
</mgrwt>
</event>
<event>
 4    1  0.1323225E-008  0.3457538E+04  0.7816531E-02  0.8123927E-01
          1   -1    0    0  501    0  0.00000000000E+00  0.00000000000E+00  0.31452781299E+04  0.31452781299E+04  0.00000000000E+00 0.  1.
         -1   -1    0    0    0  501 -0.00000000000E+00 -0.00000000000E+00 -0.95019966529E+03  0.95019966529E+03  0.00000000000E+00 0. -1.
    2000013    1    1    2    0    0 -0.29404996110E+03 -0.14140991239E+04  0.10983887429E+04  0.20481942150E+04  0.95000000000E+03 0.  0.
   -2000013    1    1    2    0    0  0.29404996110E+03  0.14140991239E+04  0.10966897217E+04  0.20472835802E+04  0.95000000000E+03 0.  0.
<mgrwt>
<rscale>  0 0.34575380E+04</rscale>
<asrwt>0</asrwt>
<pdfrwt beam="1">  1        1 0.48388894E+00 0.34575380E+04</pdfrwt>
<pdfrwt beam="2">  1       -1 0.14618457E+00 0.34575380E+04</pdfrwt>
<totfact> 0.14283940E-01</totfact>
</mgrwt>
</event>
<event>
 4    1  0.1323225E-008  0.4012137E+04  0.7816531E-02  0.8002103E-01
         -1   -1    0    0    0  501 -0.00000000000E+00  0.00000000000E+00  0.10279446145E+04  0.10279446145E+04  0.00000000000E+00 0. -1.
          1   -1    0    0  501    0  0.00000000000E+00 -0.00000000000E+00 -0.39149104973E+04  0.39149104973E+04  0.00000000000E+00 0.  1.
    2000013    1    1    2    0    0 -0.72133694640E+03 -0.15221915747E+04 -0.78646100557E+03  0.20876817510E+04  0.95000000000E+03 0.  0.
   -2000013    1    1    2    0    0  0.72133694640E+03  0.15221915747E+04 -0.21005048772E+04  0.28551733607E+04  0.95000000000E+03 0.  0.
<mgrwt>
<rscale>  0 0.40121372E+04</rscale>
<asrwt>0</asrwt>
<pdfrwt beam="2">  1        1 0.60229394E+00 0.40121372E+04</pdfrwt>
<pdfrwt beam="1">  1       -1 0.15814532E+00 0.40121372E+04</pdfrwt>
<totfact> 0.26784611E-02</totfact>
</mgrwt>
</event>
<event>
 4    1  0.1323225E-008  0.2593256E+04  0.7816531E-02  0.8370496E-01
          2   -1    0    0  501    0  0.00000000000E+00  0.00000000000E+00  0.32639218648E+04  0.32639218648E+04  0.00000000000E+00 0.  1.
         -2   -1    0    0    0  501 -0.00000000000E+00 -0.00000000000E+00 -0.51509923260E+03  0.51509923260E+03  0.00000000000E+00 0. -1.
    2000013    1    1    2    0    0 -0.61545647806E+03 -0.52061697948E+03  0.85118978817E+03  0.15089243756E+04  0.95000000000E+03 0.  0.
   -2000013    1    1    2    0    0  0.61545647806E+03  0.52061697948E+03  0.18976328440E+04  0.22700967218E+04  0.95000000000E+03 0.  0.
<mgrwt>
<rscale>  0 0.25932556E+04</rscale>
<asrwt>0</asrwt>
<pdfrwt beam="1">  1        2 0.50214182E+00 0.25932556E+04</pdfrwt>
<pdfrwt beam="2">  1       -2 0.79246037E-01 0.25932556E+04</pdfrwt>
<totfact> 0.14714838E+00</totfact>
</mgrwt>
</event>
<event>
 4    1  0.1323225E-008  0.3555753E+04  0.7816531E-02  0.8100703E-01
         -2   -1    0    0    0  501 -0.00000000000E+00  0.00000000000E+00  0.93830630259E+03  0.93830630259E+03  0.00000000000E+00 0. -1.
          2   -1    0    0  501    0  0.00000000000E+00 -0.00000000000E+00 -0.33686713561E+04  0.33686713561E+04  0.00000000000E+00 0.  1.
    2000013    1    1    2    0    0 -0.10932449351E+04  0.69972363592E+03 -0.21325130309E+04  0.26711251341E+04  0.95000000000E+03 0.  0.
   -2000013    1    1    2    0    0  0.10932449351E+04 -0.69972363592E+03 -0.29785202254E+03  0.16358525246E+04  0.95000000000E+03 0.  0.
<mgrwt>
<rscale>  0 0.35557534E+04</rscale>
<asrwt>0</asrwt>
<pdfrwt beam="2">  1        2 0.51825712E+00 0.35557534E+04</pdfrwt>
<pdfrwt beam="1">  1       -2 0.14435482E+00 0.35557534E+04</pdfrwt>
<totfact> 0.27119918E-01</totfact>
</mgrwt>
</event>
<event>
 4    1  0.1323225E-008  0.3852621E+04  0.7816531E-02  0.8034956E-01
         -2   -1    0    0    0  501 -0.00000000000E+00  0.00000000000E+00  0.81375994412E+03  0.81375994412E+03  0.00000000000E+00 0.  1.
          2   -1    0    0  501    0  0.00000000000E+00 -0.00000000000E+00 -0.45599091746E+04  0.45599091746E+04  0.00000000000E+00 0. -1.
    2000013    1    1    2    0    0  0.15442025168E+04  0.16651007266E+03 -0.99547003865E+03  0.20750295456E+04  0.95000000000E+03 0.  0.
   -2000013    1    1    2    0    0 -0.15442025168E+04 -0.16651007266E+03 -0.27506791919E+04  0.32986395732E+04  0.95000000000E+03 0.  0.
<mgrwt>
<rscale>  0 0.38526206E+04</rscale>
<asrwt>0</asrwt>
<pdfrwt beam="2">  1        2 0.70152447E+00 0.38526206E+04</pdfrwt>
<pdfrwt beam="1">  1       -2 0.12519384E+00 0.38526206E+04</pdfrwt>
<totfact> 0.40637631E-02</totfact>
</mgrwt>
</event>
<event>
 4    1  0.1323225E-008  0.2052319E+04  0.7816531E-02  0.8582543E-01
         -2   -1    0    0    0  501 -0.00000000000E+00  0.00000000000E+00  0.68845404528E+03  0.68845404528E+03  0.00000000000E+00 0. -1.
          2   -1    0    0  501    0  0.00000000000E+00 -0.00000000000E+00 -0.15295191165E+04  0.15295191165E+04  0.00000000000E+00 0.  1.
    2000013    1    1    2    0    0 -0.25953158069E+03 -0.25621820901E+03 -0.27757054294E+03  0.10547747714E+04  0.95000000000E+03 0.  0.
   -2000013    1    1    2    0    0  0.25953158069E+03  0.25621820901E+03 -0.56349452825E+03  0.11631983904E+04  0.95000000000E+03 0.  0.
<mgrwt>
<rscale>  0 0.20523193E+04</rscale>
<asrwt>0</asrwt>
<pdfrwt beam="2">  1        2 0.23531063E+00 0.20523193E+04</pdfrwt>
<pdfrwt beam="1">  1       -2 0.10591601E+00 0.20523193E+04</pdfrwt>
<totfact> 0.81368242E+00</totfact>
</mgrwt>
</event>
<event>
 4    1  0.1323225E-008  0.3257635E+04  0.7816531E-02  0.8173760E-01
         -2   -1    0    0    0  501 -0.00000000000E+00  0.00000000000E+00  0.98674530656E+03  0.98674530656E+03  0.00000000000E+00 0. -1.
          2   -1    0    0  501    0  0.00000000000E+00 -0.00000000000E+00 -0.26886843544E+04  0.26886843544E+04  0.00000000000E+00 0.  1.
    2000013    1    1    2    0    0 -0.12215020354E+04 -0.50787874091E+03 -0.87715441726E+03  0.18498399686E+04  0.95000000000E+03 0.  0.
   -2000013    1    1    2    0    0  0.12215020354E+04  0.50787874091E+03 -0.82478463060E+03  0.18255896923E+04  0.95000000000E+03 0.  0.
<mgrwt>
<rscale>  0 0.32576351E+04</rscale>
<asrwt>0</asrwt>
<pdfrwt beam="2">  1        2 0.41364375E+00 0.32576351E+04</pdfrwt>
<pdfrwt beam="1">  1       -2 0.15180697E+00 0.32576351E+04</pdfrwt>
<totfact> 0.65578938E-01</totfact>
</mgrwt>
</event>
<event>
 4    1  0.1323225E-008  0.2555778E+04  0.7816531E-02  0.8383379E-01
         -2   -1    0    0    0  501 -0.00000000000E+00  0.00000000000E+00  0.68790159982E+03  0.68790159982E+03  0.00000000000E+00 0. -1.
          2   -1    0    0  501    0  0.00000000000E+00 -0.00000000000E+00 -0.23738873417E+04  0.23738873417E+04  0.00000000000E+00 0.  1.
    2000013    1    1    2    0    0  0.48347746702E+03 -0.65636580173E+03 -0.11506082074E+04  0.17002840274E+04  0.95000000000E+03 0.  0.
   -2000013    1    1    2    0    0 -0.48347746702E+03  0.65636580173E+03 -0.53537753445E+03  0.13615049141E+04  0.95000000000E+03 0.  0.
<mgrwt>
<rscale>  0 0.25557785E+04</rscale>
<asrwt>0</asrwt>
<pdfrwt beam="2">  1        2 0.36521344E+00 0.25557785E+04</pdfrwt>
<pdfrwt beam="1">  1       -2 0.10583101E+00 0.25557785E+04</pdfrwt>
<totfact> 0.26344047E+00</totfact>
</mgrwt>
</event>
<event>
 4    1  0.1323225E-008  0.2106902E+04  0.7816531E-02  0.8558209E-01
         -2   -1    0    0    0  501 -0.00000000000E+00  0.00000000000E+00  0.10684131012E+04  0.10684131012E+04  0.00000000000E+00 0.  1.
          2   -1    0    0  501    0  0.00000000000E+00 -0.00000000000E+00 -0.10386985261E+04  0.10386985261E+04  0.00000000000E+00 0. -1.
    2000013    1    1    2    0    0  0.25171658967E+03  0.35489360519E+03 -0.11912767840E+03  0.10516663522E+04  0.95000000000E+03 0.  0.
   -2000013    1    1    2    0    0 -0.25171658967E+03 -0.35489360519E+03  0.14884225347E+03  0.10554452752E+04  0.95000000000E+03 0.  0.
<mgrwt>
<rscale>  0 0.21069021E+04</rscale>
<asrwt>0</asrwt>
<pdfrwt beam="2">  1        2 0.15979977E+00 0.21069021E+04</pdfrwt>
<pdfrwt beam="1">  1       -2 0.16437125E+00 0.21069021E+04</pdfrwt>
<totfact> 0.51272106E+00</totfact>
</mgrwt>
</event>
<event>
 4    1  0.1323225E-008  0.2651460E+04  0.7816531E-02  0.8350928E-01
         -2   -1    0    0    0  501 -0.00000000000E+00  0.00000000000E+00  0.99245918735E+03  0.99245918735E+03  0.00000000000E+00 0. -1.
          2   -1    0    0  501    0  0.00000000000E+00 -0.00000000000E+00 -0.17709143543E+04  0.17709143543E+04  0.00000000000E+00 0.  1.
    2000013    1    1    2    0    0 -0.53034685783E+03  0.71320831463E+03 -0.12325749421E+03  0.13067617608E+04  0.95000000000E+03 0.  0.
   -2000013    1    1    2    0    0  0.53034685783E+03 -0.71320831463E+03 -0.65519767275E+03  0.14566117808E+04  0.95000000000E+03 0.  0.
<mgrwt>
<rscale>  0 0.26514601E+04</rscale>
<asrwt>0</asrwt>
<pdfrwt beam="2">  1        2 0.27244836E+00 0.26514601E+04</pdfrwt>
<pdfrwt beam="1">  1       -2 0.15268603E+00 0.26514601E+04</pdfrwt>
<totfact> 0.22547852E+00</totfact>
</mgrwt>
</event>
<event>
 4    1  0.1323225E-008  0.2009716E+04  0.7816531E-02  0.8602092E-01
          2   -1    0    0  501    0  0.00000000000E+00  0.00000000000E+00  0.73534338093E+03  0.73534338093E+03  0.00000000000E+00 0.  1.
         -2   -1    0    0    0  501 -0.00000000000E+00 -0.00000000000E+00 -0.13731537494E+04  0.13731537494E+04  0.00000000000E+00 0. -1.
    2000013    1    1    2    0    0  0.14787954773E+03 -0.16896536736E+03 -0.68815325186E+02  0.97859757050E+03  0.95000000000E+03 0.  0.
   -2000013    1    1    2    0    0 -0.14787954773E+03  0.16896536736E+03 -0.56899504327E+03  0.11298995598E+04  0.95000000000E+03 0.  0.
<mgrwt>
<rscale>  0 0.20097159E+04</rscale>
<asrwt>0</asrwt>
<pdfrwt beam="1">  1        2 0.11312975E+00 0.20097159E+04</pdfrwt>
<pdfrwt beam="2">  1       -2 0.21125442E+00 0.20097159E+04</pdfrwt>
<totfact> 0.40119418E+00</totfact>
</mgrwt>
</event>
<event>
 4    1  0.1323225E-008  0.2205914E+04  0.7816531E-02  0.8515971E-01
         -2   -1    0    0    0  501 -0.00000000000E+00  0.00000000000E+00  0.17087851066E+04  0.17087851066E+04  0.00000000000E+00 0.  1.
          2   -1    0    0  501    0  0.00000000000E+00 -0.00000000000E+00 -0.71191733476E+03  0.71191733476E+03  0.00000000000E+00 0. -1.
    2000013    1    1    2    0    0  0.10005459270E+02  0.54672627335E+03  0.63285162898E+03  0.12657056970E+04  0.95000000000E+03 0.  0.
   -2000013    1    1    2    0    0 -0.10005459270E+02 -0.54672627335E+03  0.36401614288E+03  0.11549967444E+04  0.95000000000E+03 0.  0.
<mgrwt>
<rscale>  0 0.22059136E+04</rscale>
<asrwt>0</asrwt>
<pdfrwt beam="2">  1        2 0.10952574E+00 0.22059136E+04</pdfrwt>
<pdfrwt beam="1">  1       -2 0.26289001E+00 0.22059136E+04</pdfrwt>
<totfact> 0.19624594E+00</totfact>
</mgrwt>
</event>
<event>
 4    1  0.1323225E-008  0.1993385E+04  0.7816531E-02  0.8609720E-01
         -2   -1    0    0    0  501 -0.00000000000E+00  0.00000000000E+00  0.14567353885E+04  0.14567353885E+04  0.00000000000E+00 0. -1.
          2   -1    0    0  501    0  0.00000000000E+00 -0.00000000000E+00 -0.68193295669E+03  0.68193295669E+03  0.00000000000E+00 0.  1.
    2000013    1    1    2    0    0  0.16459541834E+03  0.24461817121E+03  0.31983371026E+03  0.10448556377E+04  0.95000000000E+03 0.  0.
   -2000013    1    1    2    0    0 -0.16459541834E+03 -0.24461817121E+03  0.45496872150E+03  0.10938127074E+04  0.95000000000E+03 0.  0.
<mgrwt>
<rscale>  0 0.19933849E+04</rscale>
<asrwt>0</asrwt>
<pdfrwt beam="2">  1        2 0.10491276E+00 0.19933849E+04</pdfrwt>
<pdfrwt beam="1">  1       -2 0.22411314E+00 0.19933849E+04</pdfrwt>
<totfact> 0.36628065E+00</totfact>
</mgrwt>
</event>
<event>
 4    1  0.1323225E-008  0.2777086E+04  0.7816531E-02  0.8310418E-01
          2   -1    0    0  501    0  0.00000000000E+00  0.00000000000E+00  0.98853771889E+03  0.98853771889E+03  0.00000000000E+00 0.  1.
         -2   -1    0    0    0  501 -0.00000000000E+00 -0.00000000000E+00 -0.19504083382E+04  0.19504083382E+04  0.00000000000E+00 0. -1.
    2000013    1    1    2    0    0 -0.62700913451E+03  0.73475532447E+03 -0.15899013974E+03  0.13641054600E+04  0.95000000000E+03 0.  0.
   -2000013    1    1    2    0    0  0.62700913451E+03 -0.73475532447E+03 -0.80288047954E+03  0.15748405970E+04  0.95000000000E+03 0.  0.
<mgrwt>
<rscale>  0 0.27770864E+04</rscale>
<asrwt>0</asrwt>
<pdfrwt beam="1">  1        2 0.15208273E+00 0.27770864E+04</pdfrwt>
<pdfrwt beam="2">  1       -2 0.30006282E+00 0.27770864E+04</pdfrwt>
<totfact> 0.70929489E-01</totfact>
</mgrwt>
</event>
<event>
 4    1  0.1323225E-008  0.2639464E+04  0.7816531E-02  0.8354919E-01
          2   -1    0    0  501    0  0.00000000000E+00  0.00000000000E+00  0.10199925022E+04  0.10199925022E+04  0.00000000000E+00 0.  1.
         -2   -1    0    0    0  501 -0.00000000000E+00 -0.00000000000E+00 -0.17075538493E+04  0.17075538493E+04  0.00000000000E+00 0. -1.
    2000013    1    1    2    0    0 -0.35576683248E+03 -0.19013985563E+03  0.50614387634E+03  0.11495237394E+04  0.95000000000E+03 0.  0.
   -2000013    1    1    2    0    0  0.35576683248E+03  0.19013985563E+03 -0.11937052234E+04  0.15780226121E+04  0.95000000000E+03 0.  0.
<mgrwt>
<rscale>  0 0.26394637E+04</rscale>
<asrwt>0</asrwt>
<pdfrwt beam="1">  1        2 0.15692192E+00 0.26394637E+04</pdfrwt>
<pdfrwt beam="2">  1       -2 0.26270059E+00 0.26394637E+04</pdfrwt>
<totfact> 0.11580744E+00</totfact>
</mgrwt>
</event>
<event>
 4    1  0.1323225E-008  0.3896440E+04  0.7816531E-02  0.8025770E-01
         -2   -1    0    0    0  501 -0.00000000000E+00  0.00000000000E+00  0.15941394494E+04  0.15941394494E+04  0.00000000000E+00 0. -1.
          2   -1    0    0  501    0  0.00000000000E+00 -0.00000000000E+00 -0.23809466873E+04  0.23809466873E+04  0.00000000000E+00 0.  1.
    2000013    1    1    2    0    0 -0.11076858186E+04 -0.12840848760E+04 -0.25953307228E+03  0.19610454501E+04  0.95000000000E+03 0.  0.
   -2000013    1    1    2    0    0  0.11076858186E+04  0.12840848760E+04 -0.52727416566E+03  0.20140406867E+04  0.95000000000E+03 0.  0.
<mgrwt>
<rscale>  0 0.38964399E+04</rscale>
<asrwt>0</asrwt>
<pdfrwt beam="2">  1        2 0.36629949E+00 0.38964399E+04</pdfrwt>
<pdfrwt beam="1">  1       -2 0.24525222E+00 0.38964399E+04</pdfrwt>
<totfact> 0.22293594E-01</totfact>
</mgrwt>
</event>
<event>
 4    1  0.1323225E-008  0.3497212E+04  0.7816531E-02  0.8114451E-01
         -1   -1    0    0    0  501 -0.00000000000E+00  0.00000000000E+00  0.20276954432E+04  0.20276954432E+04  0.00000000000E+00 0. -1.
          1   -1    0    0  501    0  0.00000000000E+00 -0.00000000000E+00 -0.15079302387E+04  0.15079302387E+04  0.00000000000E+00 0.  1.
    2000013    1    1    2    0    0  0.14276027888E+04 -0.23525277466E+03  0.86989792125E+01  0.17308868429E+04  0.95000000000E+03 0.  0.
   -2000013    1    1    2    0    0 -0.14276027888E+04  0.23525277466E+03  0.51106622535E+03  0.18047388391E+04  0.95000000000E+03 0.  0.
<mgrwt>
<rscale>  0 0.34972122E+04</rscale>
<asrwt>0</asrwt>
<pdfrwt beam="2">  1        1 0.23198927E+00 0.34972122E+04</pdfrwt>
<pdfrwt beam="1">  1       -1 0.31195314E+00 0.34972122E+04</pdfrwt>
<totfact> 0.14553876E-01</totfact>
</mgrwt>
</event>
<event>
 4    1  0.1323225E-008  0.2452133E+04  0.7816531E-02  0.8420239E-01
         -2   -1    0    0    0  501 -0.00000000000E+00  0.00000000000E+00  0.13569658073E+04  0.13569658073E+04  0.00000000000E+00 0. -1.
          2   -1    0    0  501    0  0.00000000000E+00 -0.00000000000E+00 -0.11077946969E+04  0.11077946969E+04  0.00000000000E+00 0.  1.
    2000013    1    1    2    0    0  0.87935878062E+02  0.54444237319E+03 -0.42281897012E+03  0.11770412473E+04  0.95000000000E+03 0.  0.
   -2000013    1    1    2    0    0 -0.87935878062E+02 -0.54444237319E+03  0.67199008045E+03  0.12877192569E+04  0.95000000000E+03 0.  0.
<mgrwt>
<rscale>  0 0.24521334E+04</rscale>
<asrwt>0</asrwt>
<pdfrwt beam="2">  1        2 0.17042995E+00 0.24521334E+04</pdfrwt>
<pdfrwt beam="1">  1       -2 0.20876397E+00 0.24521334E+04</pdfrwt>
<totfact> 0.22497835E+00</totfact>
</mgrwt>
</event>
<event>
 4    1  0.1323225E-008  0.2093782E+04  0.7816531E-02  0.8563988E-01
         -2   -1    0    0    0  501 -0.00000000000E+00  0.00000000000E+00  0.36128712213E+03  0.36128712213E+03  0.00000000000E+00 0. -1.
          2   -1    0    0  501    0  0.00000000000E+00 -0.00000000000E+00 -0.30335436919E+04  0.30335436919E+04  0.00000000000E+00 0.  1.
    2000013    1    1    2    0    0 -0.30053915747E+03 -0.31913931324E+03 -0.12775204854E+04  0.16512820101E+04  0.95000000000E+03 0.  0.
   -2000013    1    1    2    0    0  0.30053915747E+03  0.31913931324E+03 -0.13947360844E+04  0.17435488039E+04  0.95000000000E+03 0.  0.
<mgrwt>
<rscale>  0 0.20937815E+04</rscale>
<asrwt>0</asrwt>
<pdfrwt beam="2">  1        2 0.46669906E+00 0.20937815E+04</pdfrwt>
<pdfrwt beam="1">  1       -2 0.55582631E-01 0.20937815E+04</pdfrwt>
<totfact> 0.46601505E+00</totfact>
</mgrwt>
</event>
<event>
 4    1  0.1323225E-008  0.2124217E+04  0.7816531E-02  0.8550650E-01
          2   -1    0    0  501    0  0.00000000000E+00  0.00000000000E+00  0.14420468873E+04  0.14420468873E+04  0.00000000000E+00 0.  1.
         -2   -1    0    0    0  501 -0.00000000000E+00 -0.00000000000E+00 -0.78227278471E+03  0.78227278471E+03  0.00000000000E+00 0. -1.
    2000013    1    1    2    0    0 -0.22088926007E+03 -0.41457091309E+03  0.40328240405E+03  0.11339302468E+04  0.95000000000E+03 0.  0.
   -2000013    1    1    2    0    0  0.22088926007E+03  0.41457091309E+03  0.25649169853E+03  0.10903894252E+04  0.95000000000E+03 0.  0.
<mgrwt>
<rscale>  0 0.21242166E+04</rscale>
<asrwt>0</asrwt>
<pdfrwt beam="1">  1        2 0.22185337E+00 0.21242166E+04</pdfrwt>
<pdfrwt beam="2">  1       -2 0.12034966E+00 0.21242166E+04</pdfrwt>
<totfact> 0.66398318E+00</totfact>
</mgrwt>
</event>
<event>
 4    1  0.1323225E-008  0.2931094E+04  0.7816531E-02  0.8263686E-01
          2   -1    0    0  501    0  0.00000000000E+00  0.00000000000E+00  0.19221763596E+04  0.19221763596E+04  0.00000000000E+00 0.  1.
         -2   -1    0    0    0  501 -0.00000000000E+00 -0.00000000000E+00 -0.11173939484E+04  0.11173939484E+04  0.00000000000E+00 0. -1.
    2000013    1    1    2    0    0  0.10698721801E+04 -0.23755483568E+03  0.18420138312E+03  0.14620153663E+04  0.95000000000E+03 0.  0.
   -2000013    1    1    2    0    0 -0.10698721801E+04  0.23755483568E+03  0.62058102805E+03  0.15775549417E+04  0.95000000000E+03 0.  0.
<mgrwt>
<rscale>  0 0.29310942E+04</rscale>
<asrwt>0</asrwt>
<pdfrwt beam="1">  1        2 0.29571944E+00 0.29310942E+04</pdfrwt>
<pdfrwt beam="2">  1       -2 0.17190676E+00 0.29310942E+04</pdfrwt>
<totfact> 0.13128861E+00</totfact>
</mgrwt>
</event>
<event>
 4    1  0.1323225E-008  0.2989980E+04  0.7816531E-02  0.8246598E-01
         -2   -1    0    0    0  501 -0.00000000000E+00  0.00000000000E+00  0.64581222666E+03  0.64581222666E+03  0.00000000000E+00 0. -1.
          2   -1    0    0  501    0  0.00000000000E+00 -0.00000000000E+00 -0.34607503825E+04  0.34607503825E+04  0.00000000000E+00 0.  1.
    2000013    1    1    2    0    0  0.59431853868E+03  0.95939742714E+03 -0.17406156149E+04  0.22816442903E+04  0.95000000000E+03 0.  0.
   -2000013    1    1    2    0    0 -0.59431853868E+03 -0.95939742714E+03 -0.10743225410E+04  0.18249183189E+04  0.95000000000E+03 0.  0.
<mgrwt>
<rscale>  0 0.29899799E+04</rscale>
<asrwt>0</asrwt>
<pdfrwt beam="2">  1        2 0.53242313E+00 0.29899799E+04</pdfrwt>
<pdfrwt beam="1">  1       -2 0.99355728E-01 0.29899799E+04</pdfrwt>
<totfact> 0.62170274E-01</totfact>
</mgrwt>
</event>
<event>
 4    1  0.1323225E-008  0.2078185E+04  0.7816531E-02  0.8570914E-01
          1   -1    0    0  501    0  0.00000000000E+00  0.00000000000E+00  0.10485468975E+04  0.10485468975E+04  0.00000000000E+00 0.  1.
         -1   -1    0    0    0  501 -0.00000000000E+00 -0.00000000000E+00 -0.10297232307E+04  0.10297232307E+04  0.00000000000E+00 0. -1.
    2000013    1    1    2    0    0 -0.82822793035E+02  0.24116367521E+03  0.34437865299E+03  0.10421689834E+04  0.95000000000E+03 0.  0.
   -2000013    1    1    2    0    0  0.82822793035E+02 -0.24116367521E+03 -0.32555498623E+03  0.10361011448E+04  0.95000000000E+03 0.  0.
<mgrwt>
<rscale>  0 0.20781849E+04</rscale>
<asrwt>0</asrwt>
<pdfrwt beam="1">  1        1 0.16131491E+00 0.20781849E+04</pdfrwt>
<pdfrwt beam="2">  1       -1 0.15841896E+00 0.20781849E+04</pdfrwt>
<totfact> 0.38412488E+00</totfact>
</mgrwt>
</event>
<event>
 4    1  0.1323225E-008  0.3512077E+04  0.7816531E-02  0.8110934E-01
         -2   -1    0    0    0  501 -0.00000000000E+00  0.00000000000E+00  0.15811343155E+04  0.15811343155E+04  0.00000000000E+00 0. -1.
          2   -1    0    0  501    0  0.00000000000E+00 -0.00000000000E+00 -0.19502908911E+04  0.19502908911E+04  0.00000000000E+00 0.  1.
    2000013    1    1    2    0    0 -0.13891488228E+04  0.18084142085E+03 -0.65484460052E+03  0.18148717646E+04  0.95000000000E+03 0.  0.
   -2000013    1    1    2    0    0  0.13891488228E+04 -0.18084142085E+03  0.28568802490E+03  0.17165534419E+04  0.95000000000E+03 0.  0.
<mgrwt>
<rscale>  0 0.35120774E+04</rscale>
<asrwt>0</asrwt>
<pdfrwt beam="2">  1        2 0.30004475E+00 0.35120774E+04</pdfrwt>
<pdfrwt beam="1">  1       -2 0.24325143E+00 0.35120774E+04</pdfrwt>
<totfact> 0.41341111E-01</totfact>
</mgrwt>
</event>
<event>
 4    1  0.1323225E-008  0.2495813E+04  0.7816531E-02  0.8404479E-01
          3   -1    0    0  501    0  0.00000000000E+00  0.00000000000E+00  0.12443904445E+04  0.12443904445E+04  0.00000000000E+00 0.  1.
         -3   -1    0    0    0  501 -0.00000000000E+00 -0.00000000000E+00 -0.12514320668E+04  0.12514320668E+04  0.00000000000E+00 0. -1.
    2000013    1    1    2    0    0  0.21242617223E+03  0.72790634156E+03 -0.28600659891E+03  0.12487082507E+04  0.95000000000E+03 0.  0.
   -2000013    1    1    2    0    0 -0.21242617223E+03 -0.72790634156E+03  0.27896497663E+03  0.12471142606E+04  0.95000000000E+03 0.  0.
<mgrwt>
<rscale>  0 0.24958126E+04</rscale>
<asrwt>0</asrwt>
<pdfrwt beam="1">  1        3 0.19144469E+00 0.24958126E+04</pdfrwt>
<pdfrwt beam="2">  1       -3 0.19252801E+00 0.24958126E+04</pdfrwt>
<totfact> 0.63446130E-02</totfact>
</mgrwt>
</event>
<event>
 4    1  0.1323225E-008  0.2208784E+04  0.7816531E-02  0.8514781E-01
         -1   -1    0    0    0  501 -0.00000000000E+00  0.00000000000E+00  0.13280015977E+04  0.13280015977E+04  0.00000000000E+00 0. -1.
          1   -1    0    0  501    0  0.00000000000E+00 -0.00000000000E+00 -0.91843411384E+03  0.91843411384E+03  0.00000000000E+00 0.  1.
    2000013    1    1    2    0    0  0.17585004515E+02 -0.56291232758E+03  0.20319192907E+03  0.11229276383E+04  0.95000000000E+03 0.  0.
   -2000013    1    1    2    0    0 -0.17585004515E+02  0.56291232758E+03  0.20637555478E+03  0.11235080732E+04  0.95000000000E+03 0.  0.
<mgrwt>
<rscale>  0 0.22087843E+04</rscale>
<asrwt>0</asrwt>
<pdfrwt beam="2">  1        1 0.14129756E+00 0.22087843E+04</pdfrwt>
<pdfrwt beam="1">  1       -1 0.20430794E+00 0.22087843E+04</pdfrwt>
<totfact> 0.22508462E+00</totfact>
</mgrwt>
</event>
<event>
 4    1  0.1323225E-008  0.3562246E+04  0.7816531E-02  0.8099195E-01
          1   -1    0    0  501    0  0.00000000000E+00  0.00000000000E+00  0.14762930355E+04  0.14762930355E+04  0.00000000000E+00 0.  1.
         -1   -1    0    0    0  501 -0.00000000000E+00 -0.00000000000E+00 -0.21488953336E+04  0.21488953336E+04  0.00000000000E+00 0. -1.
    2000013    1    1    2    0    0 -0.12162596601E+04 -0.79692530046E+03  0.65029373479E+02  0.17381329968E+04  0.95000000000E+03 0.  0.
   -2000013    1    1    2    0    0  0.12162596601E+04  0.79692530046E+03 -0.73763167159E+03  0.18870553723E+04  0.95000000000E+03 0.  0.
<mgrwt>
<rscale>  0 0.35622460E+04</rscale>
<asrwt>0</asrwt>
<pdfrwt beam="1">  1        1 0.22712201E+00 0.35622460E+04</pdfrwt>
<pdfrwt beam="2">  1       -1 0.33059928E+00 0.35622460E+04</pdfrwt>
<totfact> 0.11500688E-01</totfact>
</mgrwt>
</event>
<event>
 4    1  0.1323225E-008  0.2140416E+04  0.7816531E-02  0.8543646E-01
          1   -1    0    0  501    0  0.00000000000E+00  0.00000000000E+00  0.18615055596E+04  0.18615055596E+04  0.00000000000E+00 0.  1.
         -1   -1    0    0    0  501 -0.00000000000E+00 -0.00000000000E+00 -0.61527871440E+03  0.61527871440E+03  0.00000000000E+00 0. -1.
    2000013    1    1    2    0    0 -0.32541303943E+03  0.60144165941E+02  0.10456459703E+04  0.14509949904E+04  0.95000000000E+03 0.  0.
   -2000013    1    1    2    0    0  0.32541303943E+03 -0.60144165941E+02  0.20058087483E+03  0.10257892836E+04  0.95000000000E+03 0.  0.
<mgrwt>
<rscale>  0 0.21404156E+04</rscale>
<asrwt>0</asrwt>
<pdfrwt beam="1">  1        1 0.28638547E+00 0.21404156E+04</pdfrwt>
<pdfrwt beam="2">  1       -1 0.94658264E-01 0.21404156E+04</pdfrwt>
<totfact> 0.36600721E+00</totfact>
</mgrwt>
</event>
<event>
 4    1  0.1323225E-008  0.2760323E+04  0.7816531E-02  0.8315693E-01
          2   -1    0    0  501    0  0.00000000000E+00  0.00000000000E+00  0.28137369987E+04  0.28137369987E+04  0.00000000000E+00 0.  1.
         -2   -1    0    0    0  501 -0.00000000000E+00 -0.00000000000E+00 -0.67698063769E+03  0.67698063769E+03  0.00000000000E+00 0. -1.
    2000013    1    1    2    0    0  0.42009505632E+03  0.78316531046E+03  0.16513565103E+04  0.21022145666E+04  0.95000000000E+03 0.  0.
   -2000013    1    1    2    0    0 -0.42009505632E+03 -0.78316531046E+03  0.48539985077E+03  0.13885030698E+04  0.95000000000E+03 0.  0.
<mgrwt>
<rscale>  0 0.27603228E+04</rscale>
<asrwt>0</asrwt>
<pdfrwt beam="1">  1        2 0.43288261E+00 0.27603228E+04</pdfrwt>
<pdfrwt beam="2">  1       -2 0.10415087E+00 0.27603228E+04</pdfrwt>
<totfact> 0.14838491E+00</totfact>
</mgrwt>
</event>
<event>
 4    1  0.1323225E-008  0.2092191E+04  0.7816531E-02  0.8564691E-01
         -2   -1    0    0    0  501 -0.00000000000E+00  0.00000000000E+00  0.12956158849E+04  0.12956158849E+04  0.00000000000E+00 0. -1.
          2   -1    0    0  501    0  0.00000000000E+00 -0.00000000000E+00 -0.84462990367E+03  0.84462990367E+03  0.00000000000E+00 0.  1.
    2000013    1    1    2    0    0 -0.11540437041E+02  0.43303539674E+03  0.29149693031E+03  0.10840310406E+04  0.95000000000E+03 0.  0.
   -2000013    1    1    2    0    0  0.11540437041E+02 -0.43303539674E+03  0.15948905092E+03  0.10562147480E+04  0.95000000000E+03 0.  0.
<mgrwt>
<rscale>  0 0.20921911E+04</rscale>
<asrwt>0</asrwt>
<pdfrwt beam="2">  1        2 0.12994306E+00 0.20921911E+04</pdfrwt>
<pdfrwt beam="1">  1       -2 0.19932552E+00 0.20921911E+04</pdfrwt>
<totfact> 0.39649872E+00</totfact>
</mgrwt>
</event>
<event>
 4    1  0.1323225E-008  0.2248842E+04  0.7816531E-02  0.8498370E-01
          2   -1    0    0  501    0  0.00000000000E+00  0.00000000000E+00  0.76619039096E+03  0.76619039096E+03  0.00000000000E+00 0.  1.
         -2   -1    0    0    0  501 -0.00000000000E+00 -0.00000000000E+00 -0.16501415073E+04  0.16501415073E+04  0.00000000000E+00 0. -1.
    2000013    1    1    2    0    0 -0.27102307689E+02 -0.54774357599E+03 -0.17645763007E+03  0.11110332377E+04  0.95000000000E+03 0.  0.
   -2000013    1    1    2    0    0  0.27102307689E+02  0.54774357599E+03 -0.70749348630E+03  0.13052986606E+04  0.95000000000E+03 0.  0.
<mgrwt>
<rscale>  0 0.22488420E+04</rscale>
<asrwt>0</asrwt>
<pdfrwt beam="1">  1        2 0.11787545E+00 0.22488420E+04</pdfrwt>
<pdfrwt beam="2">  1       -2 0.25386792E+00 0.22488420E+04</pdfrwt>
<totfact> 0.20195888E+00</totfact>
</mgrwt>
</event>
<event>
 4    1  0.1323225E-008  0.2286865E+04  0.7816531E-02  0.8483118E-01
         -2   -1    0    0    0  501 -0.00000000000E+00  0.00000000000E+00  0.11085207362E+04  0.11085207362E+04  0.00000000000E+00 0. -1.
          2   -1    0    0  501    0  0.00000000000E+00 -0.00000000000E+00 -0.11794442082E+04  0.11794442082E+04  0.00000000000E+00 0.  1.
    2000013    1    1    2    0    0 -0.89566724710E+02  0.22633066914E+03 -0.62369900776E+03  0.11622169429E+04  0.95000000000E+03 0.  0.
   -2000013    1    1    2    0    0  0.89566724710E+02 -0.22633066914E+03  0.55277553574E+03  0.11257480015E+04  0.95000000000E+03 0.  0.
<mgrwt>
<rscale>  0 0.22868654E+04</rscale>
<asrwt>0</asrwt>
<pdfrwt beam="2">  1        2 0.18145296E+00 0.22868654E+04</pdfrwt>
<pdfrwt beam="1">  1       -2 0.17054165E+00 0.22868654E+04</pdfrwt>
<totfact> 0.37361850E+00</totfact>
</mgrwt>
</event>
<event>
 4    1  0.1323225E-008  0.3336720E+04  0.7816531E-02  0.8153614E-01
          2   -1    0    0  501    0  0.00000000000E+00  0.00000000000E+00  0.18795762249E+04  0.18795762249E+04  0.00000000000E+00 0.  1.
         -2   -1    0    0    0  501 -0.00000000000E+00 -0.00000000000E+00 -0.14808788787E+04  0.14808788787E+04  0.00000000000E+00 0. -1.
    2000013    1    1    2    0    0  0.10771463048E+04 -0.58337426612E+03  0.82046500135E+03  0.17539191871E+04  0.95000000000E+03 0.  0.
   -2000013    1    1    2    0    0 -0.10771463048E+04  0.58337426612E+03 -0.42176765513E+03  0.16065359166E+04  0.95000000000E+03 0.  0.
<mgrwt>
<rscale>  0 0.33367198E+04</rscale>
<asrwt>0</asrwt>
<pdfrwt beam="1">  1        2 0.28916557E+00 0.33367198E+04</pdfrwt>
<pdfrwt beam="2">  1       -2 0.22782752E+00 0.33367198E+04</pdfrwt>
<totfact> 0.57264325E-01</totfact>
</mgrwt>
</event>
<event>
 4    1  0.1323225E-008  0.2196076E+04  0.7816531E-02  0.8520063E-01
          2   -1    0    0  501    0  0.00000000000E+00  0.00000000000E+00  0.68165994934E+03  0.68165994934E+03  0.00000000000E+00 0.  1.
         -2   -1    0    0    0  501 -0.00000000000E+00 -0.00000000000E+00 -0.17687522903E+04  0.17687522903E+04  0.00000000000E+00 0. -1.
    2000013    1    1    2    0    0  0.43631846766E+03  0.31063598373E+03 -0.40100525075E+03  0.11619697633E+04  0.95000000000E+03 0.  0.
   -2000013    1    1    2    0    0 -0.43631846766E+03 -0.31063598373E+03 -0.68608709024E+03  0.12884424764E+04  0.95000000000E+03 0.  0.
<mgrwt>
<rscale>  0 0.21960761E+04</rscale>
<asrwt>0</asrwt>
<pdfrwt beam="1">  1        2 0.10487076E+00 0.21960761E+04</pdfrwt>
<pdfrwt beam="2">  1       -2 0.27211574E+00 0.21960761E+04</pdfrwt>
<totfact> 0.18227476E+00</totfact>
</mgrwt>
</event>
<event>
 4    1  0.1323225E-008  0.2411279E+04  0.7816531E-02  0.8435293E-01
         -2   -1    0    0    0  501 -0.00000000000E+00  0.00000000000E+00  0.15450651234E+04  0.15450651234E+04  0.00000000000E+00 0. -1.
          2   -1    0    0  501    0  0.00000000000E+00 -0.00000000000E+00 -0.94078017969E+03  0.94078017969E+03  0.00000000000E+00 0.  1.
    2000013    1    1    2    0    0  0.73622429665E+03  0.43759926430E+02  0.38916551157E+03  0.12640771106E+04  0.95000000000E+03 0.  0.
   -2000013    1    1    2    0    0 -0.73622429665E+03 -0.43759926430E+02  0.21511943215E+03  0.12217681925E+04  0.95000000000E+03 0.  0.
<mgrwt>
<rscale>  0 0.24112790E+04</rscale>
<asrwt>0</asrwt>
<pdfrwt beam="2">  1        2 0.14473541E+00 0.24112790E+04</pdfrwt>
<pdfrwt beam="1">  1       -2 0.23770233E+00 0.24112790E+04</pdfrwt>
<totfact> 0.18931180E+00</totfact>
</mgrwt>
</event>
<event>
 4    1  0.1323225E-008  0.2772053E+04  0.7816531E-02  0.8311998E-01
          1   -1    0    0  501    0  0.00000000000E+00  0.00000000000E+00  0.11244063897E+04  0.11244063897E+04  0.00000000000E+00 0. -1.
         -1   -1    0    0    0  501 -0.00000000000E+00 -0.00000000000E+00 -0.17085188093E+04  0.17085188093E+04  0.00000000000E+00 0.  1.
    2000013    1    1    2    0    0  0.89953121022E+03  0.45741217987E+03 -0.30603747976E+03  0.14193453560E+04  0.95000000000E+03 0.  0.
   -2000013    1    1    2    0    0 -0.89953121022E+03 -0.45741217987E+03 -0.27807493986E+03  0.14135798430E+04  0.95000000000E+03 0.  0.
<mgrwt>
<rscale>  0 0.27720530E+04</rscale>
<asrwt>0</asrwt>
<pdfrwt beam="1">  1        1 0.17298560E+00 0.27720530E+04</pdfrwt>
<pdfrwt beam="2">  1       -1 0.26284905E+00 0.27720530E+04</pdfrwt>
<totfact> 0.60643797E-01</totfact>
</mgrwt>
</event>
<event>
 4    1  0.1323225E-008  0.3681614E+04  0.7816531E-02  0.8072049E-01
          2   -1    0    0  501    0  0.00000000000E+00  0.00000000000E+00  0.12485804367E+04  0.12485804367E+04  0.00000000000E+00 0.  1.
         -2   -1    0    0    0  501 -0.00000000000E+00 -0.00000000000E+00 -0.27139385930E+04  0.27139385930E+04  0.00000000000E+00 0. -1.
    2000013    1    1    2    0    0  0.81217981978E+03  0.13140986750E+04 -0.39304011102E+03  0.18556594289E+04  0.95000000000E+03 0.  0.
   -2000013    1    1    2    0    0 -0.81217981978E+03 -0.13140986750E+04 -0.10723180452E+04  0.21068596008E+04  0.95000000000E+03 0.  0.
<mgrwt>
<rscale>  0 0.36816141E+04</rscale>
<asrwt>0</asrwt>
<pdfrwt beam="1">  1        2 0.19208930E+00 0.36816141E+04</pdfrwt>
<pdfrwt beam="2">  1       -2 0.41752901E+00 0.36816141E+04</pdfrwt>
<totfact> 0.81614171E-02</totfact>
</mgrwt>
</event>
<event>
 4    1  0.1323225E-008  0.2369992E+04  0.7816531E-02  0.8450824E-01
         -2   -1    0    0    0  501 -0.00000000000E+00  0.00000000000E+00  0.59882556642E+03  0.59882556642E+03  0.00000000000E+00 0. -1.
          2   -1    0    0  501    0  0.00000000000E+00 -0.00000000000E+00 -0.23449490401E+04  0.23449490401E+04  0.00000000000E+00 0.  1.
    2000013    1    1    2    0    0  0.75425870578E+02  0.57199829662E+03 -0.36267319012E+03  0.11691462510E+04  0.95000000000E+03 0.  0.
   -2000013    1    1    2    0    0 -0.75425870578E+02 -0.57199829662E+03 -0.13834502836E+04  0.17746283556E+04  0.95000000000E+03 0.  0.
<mgrwt>
<rscale>  0 0.23699919E+04</rscale>
<asrwt>0</asrwt>
<pdfrwt beam="2">  1        2 0.36076139E+00 0.23699919E+04</pdfrwt>
<pdfrwt beam="1">  1       -2 0.92127011E-01 0.23699919E+04</pdfrwt>
<totfact> 0.38570111E+00</totfact>
</mgrwt>
</event>
<event>
 4    1  0.1323225E-008  0.3910813E+04  0.7816531E-02  0.8022784E-01
         -2   -1    0    0    0  501 -0.00000000000E+00  0.00000000000E+00  0.18683721260E+04  0.18683721260E+04  0.00000000000E+00 0. -1.
          2   -1    0    0  501    0  0.00000000000E+00 -0.00000000000E+00 -0.20464955761E+04  0.20464955761E+04  0.00000000000E+00 0.  1.
    2000013    1    1    2    0    0  0.73265128992E+03 -0.13639255100E+04  0.63559798675E+03  0.19244623951E+04  0.95000000000E+03 0.  0.
   -2000013    1    1    2    0    0 -0.73265128992E+03  0.13639255100E+04 -0.81372143685E+03  0.19904053070E+04  0.95000000000E+03 0.  0.
<mgrwt>
<rscale>  0 0.39108134E+04</rscale>
<asrwt>0</asrwt>
<pdfrwt beam="2">  1        2 0.31484547E+00 0.39108134E+04</pdfrwt>
<pdfrwt beam="1">  1       -2 0.28744186E+00 0.39108134E+04</pdfrwt>
<totfact> 0.18971272E-01</totfact>
</mgrwt>
</event>
<event>
 4    1  0.1323225E-008  0.3175826E+04  0.7816531E-02  0.8195231E-01
          2   -1    0    0  501    0  0.00000000000E+00  0.00000000000E+00  0.28433921221E+04  0.28433921221E+04  0.00000000000E+00 0.  1.
         -2   -1    0    0    0  501 -0.00000000000E+00 -0.00000000000E+00 -0.88678157113E+03  0.88678157113E+03  0.00000000000E+00 0. -1.
    2000013    1    1    2    0    0  0.11095368141E+04 -0.36107939897E+02  0.17086010498E+04  0.22481533027E+04  0.95000000000E+03 0.  0.
   -2000013    1    1    2    0    0 -0.11095368141E+04  0.36107939897E+02  0.24800950118E+03  0.14820203905E+04  0.95000000000E+03 0.  0.
<mgrwt>
<rscale>  0 0.31758260E+04</rscale>
<asrwt>0</asrwt>
<pdfrwt beam="1">  1        2 0.43744494E+00 0.31758260E+04</pdfrwt>
<pdfrwt beam="2">  1       -2 0.13642793E+00 0.31758260E+04</pdfrwt>
<totfact> 0.70474358E-01</totfact>
</mgrwt>
</event>
<event>
 4    1  0.1323225E-008  0.3061721E+04  0.7816531E-02  0.8226322E-01
         -2   -1    0    0    0  501 -0.00000000000E+00  0.00000000000E+00  0.16114202549E+04  0.16114202549E+04  0.00000000000E+00 0. -1.
          2   -1    0    0  501    0  0.00000000000E+00 -0.00000000000E+00 -0.14543283434E+04  0.14543283434E+04  0.00000000000E+00 0.  1.
    2000013    1    1    2    0    0 -0.37372848344E+03 -0.76350952493E+03  0.92725417211E+03  0.15763629257E+04  0.95000000000E+03 0.  0.
   -2000013    1    1    2    0    0  0.37372848344E+03  0.76350952493E+03 -0.77016226063E+03  0.14893856726E+04  0.95000000000E+03 0.  0.
<mgrwt>
<rscale>  0 0.30617212E+04</rscale>
<asrwt>0</asrwt>
<pdfrwt beam="2">  1        2 0.22374282E+00 0.30617212E+04</pdfrwt>
<pdfrwt beam="1">  1       -2 0.24791081E+00 0.30617212E+04</pdfrwt>
<totfact> 0.75961928E-01</totfact>
</mgrwt>
</event>
<event>
 4    1  0.1323225E-008  0.2798209E+04  0.7816531E-02  0.8303825E-01
         -2   -1    0    0    0  501 -0.00000000000E+00  0.00000000000E+00  0.15903338497E+04  0.15903338497E+04  0.00000000000E+00 0. -1.
          2   -1    0    0  501    0  0.00000000000E+00 -0.00000000000E+00 -0.12308694467E+04  0.12308694467E+04  0.00000000000E+00 0.  1.
    2000013    1    1    2    0    0  0.93648406752E+03 -0.42099671375E+03  0.15207130093E+03  0.14070772268E+04  0.95000000000E+03 0.  0.
   -2000013    1    1    2    0    0 -0.93648406752E+03  0.42099671375E+03  0.20739310208E+03  0.14141260695E+04  0.95000000000E+03 0.  0.
<mgrwt>
<rscale>  0 0.27982090E+04</rscale>
<asrwt>0</asrwt>
<pdfrwt beam="2">  1        2 0.18936453E+00 0.27982090E+04</pdfrwt>
<pdfrwt beam="1">  1       -2 0.24466675E+00 0.27982090E+04</pdfrwt>
<totfact> 0.10951594E+00</totfact>
</mgrwt>
</event>
<event>
 4    1  0.1323225E-008  0.2548178E+04  0.7816531E-02  0.8386020E-01
         -1   -1    0    0    0  501 -0.00000000000E+00  0.00000000000E+00  0.56221893279E+03  0.56221893279E+03  0.00000000000E+00 0. -1.
          1   -1    0    0  501    0  0.00000000000E+00 -0.00000000000E+00 -0.28873132061E+04  0.28873132061E+04  0.00000000000E+00 0.  1.
    2000013    1    1    2    0    0 -0.47629539226E+03  0.44739475157E+03 -0.18962896615E+04  0.22193318465E+04  0.95000000000E+03 0.  0.
   -2000013    1    1    2    0    0  0.47629539226E+03 -0.44739475157E+03 -0.42880461186E+03  0.12302002925E+04  0.95000000000E+03 0.  0.
<mgrwt>
<rscale>  0 0.25481775E+04</rscale>
<asrwt>0</asrwt>
<pdfrwt beam="2">  1        1 0.44420202E+00 0.25481775E+04</pdfrwt>
<pdfrwt beam="1">  1       -1 0.86495222E-01 0.25481775E+04</pdfrwt>
<totfact> 0.84117720E-01</totfact>
</mgrwt>
</event>
<event>
 4    1  0.1323225E-008  0.2500062E+04  0.7816531E-02  0.8402964E-01
          2   -1    0    0  501    0  0.00000000000E+00  0.00000000000E+00  0.12059852277E+04  0.12059852277E+04  0.00000000000E+00 0. -1.
         -2   -1    0    0    0  501 -0.00000000000E+00 -0.00000000000E+00 -0.12956851563E+04  0.12956851563E+04  0.00000000000E+00 0.  1.
    2000013    1    1    2    0    0  0.18884839060E+03  0.77895493154E+03  0.88061170582E+02  0.12460695285E+04  0.95000000000E+03 0.  0.
   -2000013    1    1    2    0    0 -0.18884839060E+03 -0.77895493154E+03 -0.17776109921E+03  0.12556008555E+04  0.95000000000E+03 0.  0.
<mgrwt>
<rscale>  0 0.25000617E+04</rscale>
<asrwt>0</asrwt>
<pdfrwt beam="1">  1        2 0.18553619E+00 0.25000617E+04</pdfrwt>
<pdfrwt beam="2">  1       -2 0.19933618E+00 0.25000617E+04</pdfrwt>
<totfact> 0.22507660E+00</totfact>
</mgrwt>
</event>
<event>
 4    1  0.1323225E-008  0.2652347E+04  0.7816531E-02  0.8350635E-01
          2   -1    0    0  501    0  0.00000000000E+00  0.00000000000E+00  0.29190991533E+04  0.29190991533E+04  0.00000000000E+00 0.  1.
         -2   -1    0    0    0  501 -0.00000000000E+00 -0.00000000000E+00 -0.60249259400E+03  0.60249259400E+03  0.00000000000E+00 0. -1.
    2000013    1    1    2    0    0 -0.50890651840E+03 -0.31220189238E+03  0.21966543205E+03  0.11433323087E+04  0.95000000000E+03 0.  0.
   -2000013    1    1    2    0    0  0.50890651840E+03  0.31220189238E+03  0.20969411272E+04  0.23782594386E+04  0.95000000000E+03 0.  0.
<mgrwt>
<rscale>  0 0.26523466E+04</rscale>
<asrwt>0</asrwt>
<pdfrwt beam="1">  1        2 0.44909217E+00 0.26523466E+04</pdfrwt>
<pdfrwt beam="2">  1       -2 0.92691170E-01 0.26523466E+04</pdfrwt>
<totfact> 0.16994076E+00</totfact>
</mgrwt>
</event>
<event>
 4    1  0.1323225E-008  0.2268820E+04  0.7816531E-02  0.8490317E-01
         -1   -1    0    0    0  501 -0.00000000000E+00  0.00000000000E+00  0.55432761729E+03  0.55432761729E+03  0.00000000000E+00 0. -1.
          1   -1    0    0  501    0  0.00000000000E+00 -0.00000000000E+00 -0.23215268360E+04  0.23215268360E+04  0.00000000000E+00 0.  1.
    2000013    1    1    2    0    0  0.52595639587E+03  0.17830532922E+03 -0.12329565143E+04  0.16526054238E+04  0.95000000000E+03 0.  0.
   -2000013    1    1    2    0    0 -0.52595639587E+03 -0.17830532922E+03 -0.53424270440E+03  0.12232490294E+04  0.95000000000E+03 0.  0.
<mgrwt>
<rscale>  0 0.22688203E+04</rscale>
<asrwt>0</asrwt>
<pdfrwt beam="2">  1        1 0.35715798E+00 0.22688203E+04</pdfrwt>
<pdfrwt beam="1">  1       -1 0.85281171E-01 0.22688203E+04</pdfrwt>
<totfact> 0.22158493E+00</totfact>
</mgrwt>
</event>
<event>
 4    1  0.1323225E-008  0.2201484E+04  0.7816531E-02  0.8517811E-01
         -2   -1    0    0    0  501 -0.00000000000E+00  0.00000000000E+00  0.45985262626E+03  0.45985262626E+03  0.00000000000E+00 0. -1.
          2   -1    0    0  501    0  0.00000000000E+00 -0.00000000000E+00 -0.26348282076E+04  0.26348282076E+04  0.00000000000E+00 0.  1.
    2000013    1    1    2    0    0  0.45017770980E+03  0.91151095745E+02 -0.64705778414E+03  0.12378013850E+04  0.95000000000E+03 0.  0.
   -2000013    1    1    2    0    0 -0.45017770980E+03 -0.91151095745E+02 -0.15279177972E+04  0.18568794489E+04  0.95000000000E+03 0.  0.
<mgrwt>
<rscale>  0 0.22014837E+04</rscale>
<asrwt>0</asrwt>
<pdfrwt beam="2">  1        2 0.40535820E+00 0.22014837E+04</pdfrwt>
<pdfrwt beam="1">  1       -2 0.70746556E-01 0.22014837E+04</pdfrwt>
<totfact> 0.48198753E+00</totfact>
</mgrwt>
</event>
<event>
 4    1  0.1323225E-008  0.3255561E+04  0.7816531E-02  0.8174296E-01
         -2   -1    0    0    0  501 -0.00000000000E+00  0.00000000000E+00  0.22567860484E+04  0.22567860484E+04  0.00000000000E+00 0. -1.
          2   -1    0    0  501    0  0.00000000000E+00 -0.00000000000E+00 -0.11740897626E+04  0.11740897626E+04  0.00000000000E+00 0.  1.
    2000013    1    1    2    0    0 -0.12414699057E+04 -0.45255955949E+03  0.57648603580E+03  0.17265265220E+04  0.95000000000E+03 0.  0.
   -2000013    1    1    2    0    0  0.12414699057E+04  0.45255955949E+03  0.50621024992E+03  0.17043492890E+04  0.95000000000E+03 0.  0.
<mgrwt>
<rscale>  0 0.32555610E+04</rscale>
<asrwt>0</asrwt>
<pdfrwt beam="2">  1        2 0.18062920E+00 0.32555610E+04</pdfrwt>
<pdfrwt beam="1">  1       -2 0.34719785E+00 0.32555610E+04</pdfrwt>
<totfact> 0.26654680E-01</totfact>
</mgrwt>
</event>
<event>
 4    1  0.1323225E-008  0.3930384E+04  0.7816531E-02  0.8018739E-01
         -2   -1    0    0    0  501 -0.00000000000E+00  0.00000000000E+00  0.20039980723E+04  0.20039980723E+04  0.00000000000E+00 0. -1.
          2   -1    0    0  501    0  0.00000000000E+00 -0.00000000000E+00 -0.19271376413E+04  0.19271376413E+04  0.00000000000E+00 0.  1.
    2000013    1    1    2    0    0 -0.34391376926E+02  0.13067950523E+04  0.11569391719E+04  0.19874366211E+04  0.95000000000E+03 0.  0.
   -2000013    1    1    2    0    0  0.34391376926E+02 -0.13067950523E+04 -0.10800787410E+04  0.19436990925E+04  0.95000000000E+03 0.  0.
<mgrwt>
<rscale>  0 0.39303843E+04</rscale>
<asrwt>0</asrwt>
<pdfrwt beam="2">  1        2 0.29648271E+00 0.39303843E+04</pdfrwt>
<pdfrwt beam="1">  1       -2 0.30830740E+00 0.39303843E+04</pdfrwt>
<totfact> 0.16445485E-01</totfact>
</mgrwt>
</event>
<event>
 4    1  0.1323225E-008  0.2658060E+04  0.7816531E-02  0.8348743E-01
         -2   -1    0    0    0  501 -0.00000000000E+00  0.00000000000E+00  0.58701828400E+03  0.58701828400E+03  0.00000000000E+00 0. -1.
          2   -1    0    0  501    0  0.00000000000E+00 -0.00000000000E+00 -0.30089707157E+04  0.30089707157E+04  0.00000000000E+00 0.  1.
    2000013    1    1    2    0    0 -0.68634344371E+03  0.14836632252E+03 -0.20347137135E+04  0.23527940378E+04  0.95000000000E+03 0.  0.
   -2000013    1    1    2    0    0  0.68634344371E+03 -0.14836632252E+03 -0.38723871815E+03  0.12431949619E+04  0.95000000000E+03 0.  0.
<mgrwt>
<rscale>  0 0.26580601E+04</rscale>
<asrwt>0</asrwt>
<pdfrwt beam="2">  1        2 0.46291856E+00 0.26580601E+04</pdfrwt>
<pdfrwt beam="1">  1       -2 0.90310507E-01 0.26580601E+04</pdfrwt>
<totfact> 0.15859912E+00</totfact>
</mgrwt>
</event>
<event>
 4    1  0.1323225E-008  0.3510531E+04  0.7816531E-02  0.8111299E-01
         -2   -1    0    0    0  501 -0.00000000000E+00  0.00000000000E+00  0.75729406981E+03  0.75729406981E+03  0.00000000000E+00 0.  1.
          2   -1    0    0  501    0  0.00000000000E+00 -0.00000000000E+00 -0.40683767047E+04  0.40683767047E+04  0.00000000000E+00 0. -1.
    2000013    1    1    2    0    0  0.11100842224E+04  0.34897771808E+03 -0.40743980527E+03  0.15564638201E+04  0.95000000000E+03 0.  0.
   -2000013    1    1    2    0    0 -0.11100842224E+04 -0.34897771808E+03 -0.29036428296E+04  0.32692069544E+04  0.95000000000E+03 0.  0.
<mgrwt>
<rscale>  0 0.35105313E+04</rscale>
<asrwt>0</asrwt>
<pdfrwt beam="2">  1        2 0.62590411E+00 0.35105313E+04</pdfrwt>
<pdfrwt beam="1">  1       -2 0.11650678E+00 0.35105313E+04</pdfrwt>
<totfact> 0.14059870E-01</totfact>
</mgrwt>
</event>
<event>
 4    1  0.1323225E-008  0.2367594E+04  0.7816531E-02  0.8451737E-01
         -2   -1    0    0    0  501 -0.00000000000E+00  0.00000000000E+00  0.47825062974E+03  0.47825062974E+03  0.00000000000E+00 0. -1.
          2   -1    0    0  501    0  0.00000000000E+00 -0.00000000000E+00 -0.29302104714E+04  0.29302104714E+04  0.00000000000E+00 0.  1.
    2000013    1    1    2    0    0 -0.24606329690E+03  0.66175293151E+03 -0.11967971150E+04  0.16832371856E+04  0.95000000000E+03 0.  0.
   -2000013    1    1    2    0    0  0.24606329690E+03 -0.66175293151E+03 -0.12551627266E+04  0.17252239155E+04  0.95000000000E+03 0.  0.
<mgrwt>
<rscale>  0 0.23675937E+04</rscale>
<asrwt>0</asrwt>
<pdfrwt beam="2">  1        2 0.45080162E+00 0.23675937E+04</pdfrwt>
<pdfrwt beam="1">  1       -2 0.73577018E-01 0.23675937E+04</pdfrwt>
<totfact> 0.28921579E+00</totfact>
</mgrwt>
</event>
<event>
 4    1  0.1323225E-008  0.2212576E+04  0.7816531E-02  0.8513212E-01
         -2   -1    0    0    0  501 -0.00000000000E+00  0.00000000000E+00  0.43846317642E+03  0.43846317642E+03  0.00000000000E+00 0. -1.
          2   -1    0    0  501    0  0.00000000000E+00 -0.00000000000E+00 -0.27912790092E+04  0.27912790092E+04  0.00000000000E+00 0.  1.
    2000013    1    1    2    0    0 -0.48402746786E+03  0.17170191228E+03 -0.82604788565E+03  0.13596393808E+04  0.95000000000E+03 0.  0.
   -2000013    1    1    2    0    0  0.48402746786E+03 -0.17170191228E+03 -0.15267679471E+04  0.18701028048E+04  0.95000000000E+03 0.  0.
<mgrwt>
<rscale>  0 0.22125759E+04</rscale>
<asrwt>0</asrwt>
<pdfrwt beam="2">  1        2 0.42942752E+00 0.22125759E+04</pdfrwt>
<pdfrwt beam="1">  1       -2 0.67455876E-01 0.22125759E+04</pdfrwt>
<totfact> 0.43091743E+00</totfact>
</mgrwt>
</event>
<event>
 4    1  0.1323225E-008  0.2254483E+04  0.7816531E-02  0.8496087E-01
          2   -1    0    0  501    0  0.00000000000E+00  0.00000000000E+00  0.21660155674E+04  0.21660155674E+04  0.00000000000E+00 0.  1.
         -2   -1    0    0    0  501 -0.00000000000E+00 -0.00000000000E+00 -0.58664081938E+03  0.58664081938E+03  0.00000000000E+00 0. -1.
    2000013    1    1    2    0    0 -0.53212803629E+03  0.21602268007E+03  0.10287828474E+04  0.15135125346E+04  0.95000000000E+03 0.  0.
   -2000013    1    1    2    0    0  0.53212803629E+03 -0.21602268007E+03  0.55059190058E+03  0.12391438521E+04  0.95000000000E+03 0.  0.
<mgrwt>
<rscale>  0 0.22544828E+04</rscale>
<asrwt>0</asrwt>
<pdfrwt beam="1">  1        2 0.33323316E+00 0.22544828E+04</pdfrwt>
<pdfrwt beam="2">  1       -2 0.90252435E-01 0.22544828E+04</pdfrwt>
<totfact> 0.51551790E+00</totfact>
</mgrwt>
</event>
<event>
 4    1  0.1323225E-008  0.2986578E+04  0.7816531E-02  0.8247574E-01
         -2   -1    0    0    0  501 -0.00000000000E+00  0.00000000000E+00  0.12594775247E+04  0.12594775247E+04  0.00000000000E+00 0. -1.
          2   -1    0    0  501    0  0.00000000000E+00 -0.00000000000E+00 -0.17705052886E+04  0.17705052886E+04  0.00000000000E+00 0.  1.
    2000013    1    1    2    0    0 -0.59510913194E+03 -0.71325419228E+03 -0.94698012379E+03  0.16316120178E+04  0.95000000000E+03 0.  0.
   -2000013    1    1    2    0    0  0.59510913194E+03  0.71325419228E+03  0.43595235987E+03  0.13983707955E+04  0.95000000000E+03 0.  0.
<mgrwt>
<rscale>  0 0.29865777E+04</rscale>
<asrwt>0</asrwt>
<pdfrwt beam="2">  1        2 0.27238543E+00 0.29865777E+04</pdfrwt>
<pdfrwt beam="1">  1       -2 0.19376577E+00 0.29865777E+04</pdfrwt>
<totfact> 0.11232355E+00</totfact>
</mgrwt>
</event>
<event>
 4    1  0.1323225E-008  0.4165125E+04  0.7816531E-02  0.7972040E-01
          1   -1    0    0  501    0  0.00000000000E+00  0.00000000000E+00  0.30858946338E+04  0.30858946338E+04  0.00000000000E+00 0.  1.
         -1   -1    0    0    0  501 -0.00000000000E+00 -0.00000000000E+00 -0.14054486349E+04  0.14054486349E+04  0.00000000000E+00 0. -1.
    2000013    1    1    2    0    0  0.49177386869E+03 -0.83984453511E+03 -0.86044606645E+03  0.16093625491E+04  0.95000000000E+03 0.  0.
   -2000013    1    1    2    0    0 -0.49177386869E+03  0.83984453511E+03  0.25408920653E+04  0.28819807197E+04  0.95000000000E+03 0.  0.
<mgrwt>
<rscale>  0 0.41651249E+04</rscale>
<asrwt>0</asrwt>
<pdfrwt beam="1">  1        1 0.47475302E+00 0.41651249E+04</pdfrwt>
<pdfrwt beam="2">  1       -1 0.21622287E+00 0.41651249E+04</pdfrwt>
<totfact> 0.46545835E-02</totfact>
</mgrwt>
</event>
<event>
 4    1  0.1323225E-008  0.2819727E+04  0.7816531E-02  0.8297170E-01
         -1   -1    0    0    0  501 -0.00000000000E+00  0.00000000000E+00  0.92626309022E+03  0.92626309022E+03  0.00000000000E+00 0. -1.
          1   -1    0    0  501    0  0.00000000000E+00 -0.00000000000E+00 -0.21459504838E+04  0.21459504838E+04  0.00000000000E+00 0.  1.
    2000013    1    1    2    0    0 -0.81819426099E+03 -0.28521891971E+03 -0.12399190322E+04  0.17862505108E+04  0.95000000000E+03 0.  0.
   -2000013    1    1    2    0    0  0.81819426099E+03  0.28521891971E+03  0.20231638582E+02  0.12859630633E+04  0.95000000000E+03 0.  0.
<mgrwt>
<rscale>  0 0.28197267E+04</rscale>
<asrwt>0</asrwt>
<pdfrwt beam="2">  1        1 0.33014622E+00 0.28197267E+04</pdfrwt>
<pdfrwt beam="1">  1       -1 0.14250202E+00 0.28197267E+04</pdfrwt>
<totfact> 0.81983518E-01</totfact>
</mgrwt>
</event>
<event>
 4    1  0.1323225E-008  0.2154006E+04  0.7816531E-02  0.8537819E-01
          2   -1    0    0  501    0  0.00000000000E+00  0.00000000000E+00  0.14538784446E+04  0.14538784446E+04  0.00000000000E+00 0.  1.
         -2   -1    0    0    0  501 -0.00000000000E+00 -0.00000000000E+00 -0.79782156287E+03  0.79782156287E+03  0.00000000000E+00 0. -1.
    2000013    1    1    2    0    0 -0.27164133789E+03 -0.38116636200E+03  0.53276522850E+03  0.11855022567E+04  0.95000000000E+03 0.  0.
   -2000013    1    1    2    0    0  0.27164133789E+03  0.38116636200E+03  0.12329165322E+03  0.10661977508E+04  0.95000000000E+03 0.  0.
<mgrwt>
<rscale>  0 0.21540061E+04</rscale>
<asrwt>0</asrwt>
<pdfrwt beam="1">  1        2 0.22367361E+00 0.21540061E+04</pdfrwt>
<pdfrwt beam="2">  1       -2 0.12274178E+00 0.21540061E+04</pdfrwt>
<totfact> 0.62092057E+00</totfact>
</mgrwt>
</event>
<event>
 4    1  0.1323225E-008  0.2174221E+04  0.7816531E-02  0.8529235E-01
         -3   -1    0    0    0  501 -0.00000000000E+00  0.00000000000E+00  0.58412714294E+03  0.58412714294E+03  0.00000000000E+00 0. -1.
          3   -1    0    0  501    0  0.00000000000E+00 -0.00000000000E+00 -0.20232064150E+04  0.20232064150E+04  0.00000000000E+00 0.  1.
    2000013    1    1    2    0    0  0.85918187007E+02 -0.51891222167E+03 -0.78136498068E+03  0.13377903654E+04  0.95000000000E+03 0.  0.
   -2000013    1    1    2    0    0 -0.85918187007E+02  0.51891222167E+03 -0.65771429134E+03  0.12695431925E+04  0.95000000000E+03 0.  0.
<mgrwt>
<rscale>  0 0.21742215E+04</rscale>
<asrwt>0</asrwt>
<pdfrwt beam="2">  1        3 0.31126253E+00 0.21742215E+04</pdfrwt>
<pdfrwt beam="1">  1       -3 0.89865714E-01 0.21742215E+04</pdfrwt>
<totfact> 0.89769161E-02</totfact>
</mgrwt>
</event>
<event>
 4    1  0.1323225E-008  0.2305328E+04  0.7816531E-02  0.8475823E-01
         -2   -1    0    0    0  501 -0.00000000000E+00  0.00000000000E+00  0.73619400093E+03  0.73619400093E+03  0.00000000000E+00 0.  1.
          2   -1    0    0  501    0  0.00000000000E+00 -0.00000000000E+00 -0.18047347001E+04  0.18047347001E+04  0.00000000000E+00 0. -1.
    2000013    1    1    2    0    0 -0.60463253971E+03  0.20955695721E+03 -0.67645062929E+03  0.13302556447E+04  0.95000000000E+03 0.  0.
   -2000013    1    1    2    0    0  0.60463253971E+03 -0.20955695721E+03 -0.39209006987E+03  0.12106730563E+04  0.95000000000E+03 0.  0.
<mgrwt>
<rscale>  0 0.23053285E+04</rscale>
<asrwt>0</asrwt>
<pdfrwt beam="2">  1        2 0.27765149E+00 0.23053285E+04</pdfrwt>
<pdfrwt beam="1">  1       -2 0.11326062E+00 0.23053285E+04</pdfrwt>
<totfact> 0.47568998E+00</totfact>
</mgrwt>
</event>
<event>
 4    1  0.1323225E-008  0.3731655E+04  0.7816531E-02  0.8060983E-01
          2   -1    0    0  501    0  0.00000000000E+00  0.00000000000E+00  0.29797039668E+04  0.29797039668E+04  0.00000000000E+00 0.  1.
         -2   -1    0    0    0  501 -0.00000000000E+00 -0.00000000000E+00 -0.11683414668E+04  0.11683414668E+04  0.00000000000E+00 0. -1.
    2000013    1    1    2    0    0 -0.14791762361E+04  0.54015176437E+03  0.55577881217E+03  0.19212278246E+04  0.95000000000E+03 0.  0.
   -2000013    1    1    2    0    0  0.14791762361E+04 -0.54015176437E+03  0.12555836878E+04  0.22268176089E+04  0.95000000000E+03 0.  0.
<mgrwt>
<rscale>  0 0.37316547E+04</rscale>
<asrwt>0</asrwt>
<pdfrwt beam="1">  1        2 0.45841599E+00 0.37316547E+04</pdfrwt>
<pdfrwt beam="2">  1       -2 0.17974484E+00 0.37316547E+04</pdfrwt>
<totfact> 0.26302872E-01</totfact>
</mgrwt>
</event>
<event>
 4    1  0.1323225E-008  0.2764560E+04  0.7816531E-02  0.8314356E-01
         -2   -1    0    0    0  501 -0.00000000000E+00  0.00000000000E+00  0.10947785803E+04  0.10947785803E+04  0.00000000000E+00 0. -1.
          2   -1    0    0  501    0  0.00000000000E+00 -0.00000000000E+00 -0.17452830286E+04  0.17452830286E+04  0.00000000000E+00 0.  1.
    2000013    1    1    2    0    0 -0.16615440503E+03  0.95628800333E+03 -0.61122658380E+02  0.13595330121E+04  0.95000000000E+03 0.  0.
   -2000013    1    1    2    0    0  0.16615440503E+03 -0.95628800333E+03 -0.58938178998E+03  0.14805285968E+04  0.95000000000E+03 0.  0.
<mgrwt>
<rscale>  0 0.27645603E+04</rscale>
<asrwt>0</asrwt>
<pdfrwt beam="2">  1        2 0.26850508E+00 0.27645603E+04</pdfrwt>
<pdfrwt beam="1">  1       -2 0.16842748E+00 0.27645603E+04</pdfrwt>
<totfact> 0.17666365E+00</totfact>
</mgrwt>
</event>
<event>
 4    1  0.1323225E-008  0.2175918E+04  0.7816531E-02  0.8528519E-01
         -2   -1    0    0    0  501 -0.00000000000E+00  0.00000000000E+00  0.11118312422E+04  0.11118312422E+04  0.00000000000E+00 0. -1.
          2   -1    0    0  501    0  0.00000000000E+00 -0.00000000000E+00 -0.10645990394E+04  0.10645990394E+04  0.00000000000E+00 0.  1.
    2000013    1    1    2    0    0  0.20357112758E+03 -0.33588859038E+03  0.37991922090E+03  0.10959475186E+04  0.95000000000E+03 0.  0.
   -2000013    1    1    2    0    0 -0.20357112758E+03  0.33588859038E+03 -0.33268701814E+03  0.10804827630E+04  0.95000000000E+03 0.  0.
<mgrwt>
<rscale>  0 0.21759177E+04</rscale>
<asrwt>0</asrwt>
<pdfrwt beam="2">  1        2 0.16378447E+00 0.21759177E+04</pdfrwt>
<pdfrwt beam="1">  1       -2 0.17105096E+00 0.21759177E+04</pdfrwt>
<totfact> 0.43970492E+00</totfact>
</mgrwt>
</event>
<event>
 4    1  0.1323225E-008  0.2419630E+04  0.7816531E-02  0.8432191E-01
         -2   -1    0    0    0  501 -0.00000000000E+00  0.00000000000E+00  0.61161626550E+03  0.61161626550E+03  0.00000000000E+00 0.  1.
          2   -1    0    0  501    0  0.00000000000E+00 -0.00000000000E+00 -0.23930891334E+04  0.23930891334E+04  0.00000000000E+00 0. -1.
    2000013    1    1    2    0    0  0.31392987654E+02  0.32766952695E+03 -0.17263507510E+04  0.19977837106E+04  0.95000000000E+03 0.  0.
   -2000013    1    1    2    0    0 -0.31392987654E+02 -0.32766952695E+03 -0.55122116805E+02  0.10069216883E+04  0.95000000000E+03 0.  0.
<mgrwt>
<rscale>  0 0.24196299E+04</rscale>
<asrwt>0</asrwt>
<pdfrwt beam="2">  1        2 0.36816756E+00 0.24196299E+04</pdfrwt>
<pdfrwt beam="1">  1       -2 0.94094809E-01 0.24196299E+04</pdfrwt>
<totfact> 0.34323804E+00</totfact>
</mgrwt>
</event>
<event>
 4    1  0.1323225E-008  0.3373937E+04  0.7816531E-02  0.8144333E-01
          1   -1    0    0  501    0  0.00000000000E+00  0.00000000000E+00  0.26467386591E+04  0.26467386591E+04  0.00000000000E+00 0.  1.
         -1   -1    0    0    0  501 -0.00000000000E+00 -0.00000000000E+00 -0.10752336902E+04  0.10752336902E+04  0.00000000000E+00 0. -1.
    2000013    1    1    2    0    0  0.32554867968E+03 -0.12367766846E+04  0.13977436309E+04  0.21193833462E+04  0.95000000000E+03 0.  0.
   -2000013    1    1    2    0    0 -0.32554867968E+03  0.12367766846E+04  0.17376133806E+03  0.16025890031E+04  0.95000000000E+03 0.  0.
<mgrwt>
<rscale>  0 0.33739369E+04</rscale>
<asrwt>0</asrwt>
<pdfrwt beam="1">  1        1 0.40719056E+00 0.33739369E+04</pdfrwt>
<pdfrwt beam="2">  1       -1 0.16542057E+00 0.33739369E+04</pdfrwt>
<totfact> 0.23461722E-01</totfact>
</mgrwt>
</event>
<event>
 4    1  0.1323225E-008  0.3485083E+04  0.7816531E-02  0.8117334E-01
          2   -1    0    0  501    0  0.00000000000E+00  0.00000000000E+00  0.18357428399E+04  0.18357428399E+04  0.00000000000E+00 0.  1.
         -2   -1    0    0    0  501 -0.00000000000E+00 -0.00000000000E+00 -0.16540719660E+04  0.16540719660E+04  0.00000000000E+00 0. -1.
    2000013    1    1    2    0    0  0.82629468552E+03  0.11734878752E+04 -0.18177318535E+03  0.17307160921E+04  0.95000000000E+03 0.  0.
   -2000013    1    1    2    0    0 -0.82629468552E+03 -0.11734878752E+04  0.36344405929E+03  0.17590987138E+04  0.95000000000E+03 0.  0.
<mgrwt>
<rscale>  0 0.34850829E+04</rscale>
<asrwt>0</asrwt>
<pdfrwt beam="1">  1        2 0.28242198E+00 0.34850829E+04</pdfrwt>
<pdfrwt beam="2">  1       -2 0.25447261E+00 0.34850829E+04</pdfrwt>
<totfact> 0.40910647E-01</totfact>
</mgrwt>
</event>
<event>
 4    1  0.1323225E-008  0.2735869E+04  0.7816531E-02  0.8323460E-01
         -2   -1    0    0    0  501 -0.00000000000E+00  0.00000000000E+00  0.64034151487E+03  0.64034151487E+03  0.00000000000E+00 0. -1.
          2   -1    0    0  501    0  0.00000000000E+00 -0.00000000000E+00 -0.29222609936E+04  0.29222609936E+04  0.00000000000E+00 0.  1.
    2000013    1    1    2    0    0 -0.81328925838E+03  0.30081109657E+03 -0.53461444864E+03  0.13929247440E+04  0.95000000000E+03 0.  0.
   -2000013    1    1    2    0    0  0.81328925838E+03 -0.30081109657E+03 -0.17473050300E+04  0.21696777645E+04  0.95000000000E+03 0.  0.
<mgrwt>
<rscale>  0 0.27358692E+04</rscale>
<asrwt>0</asrwt>
<pdfrwt beam="2">  1        2 0.44957861E+00 0.27358692E+04</pdfrwt>
<pdfrwt beam="1">  1       -2 0.98514080E-01 0.27358692E+04</pdfrwt>
<totfact> 0.14565961E+00</totfact>
</mgrwt>
</event>
<event>
 4    1  0.1323225E-008  0.2883070E+04  0.7816531E-02  0.8277933E-01
          2   -1    0    0  501    0  0.00000000000E+00  0.00000000000E+00  0.86860839648E+03  0.86860839648E+03  0.00000000000E+00 0.  1.
         -2   -1    0    0    0  501 -0.00000000000E+00 -0.00000000000E+00 -0.23923587127E+04  0.23923587127E+04  0.00000000000E+00 0. -1.
    2000013    1    1    2    0    0  0.41774139608E+02  0.97671776294E+03 -0.12921552239E+04  0.18782672307E+04  0.95000000000E+03 0.  0.
   -2000013    1    1    2    0    0 -0.41774139608E+02 -0.97671776294E+03 -0.23159509230E+03  0.13826998785E+04  0.95000000000E+03 0.  0.
<mgrwt>
<rscale>  0 0.28830698E+04</rscale>
<asrwt>0</asrwt>
<pdfrwt beam="1">  1        2 0.13363206E+00 0.28830698E+04</pdfrwt>
<pdfrwt beam="2">  1       -2 0.36805518E+00 0.28830698E+04</pdfrwt>
<totfact> 0.31803545E-01</totfact>
</mgrwt>
</event>
<event>
 4    1  0.1323225E-008  0.2518776E+04  0.7816531E-02  0.8396327E-01
         -2   -1    0    0    0  501 -0.00000000000E+00  0.00000000000E+00  0.16217242114E+04  0.16217242114E+04  0.00000000000E+00 0. -1.
          2   -1    0    0  501    0  0.00000000000E+00 -0.00000000000E+00 -0.97800769291E+03  0.97800769291E+03  0.00000000000E+00 0.  1.
    2000013    1    1    2    0    0 -0.18208646860E+03  0.79681432750E+03  0.45031811929E+03  0.13316737450E+04  0.95000000000E+03 0.  0.
   -2000013    1    1    2    0    0  0.18208646860E+03 -0.79681432750E+03  0.19339839919E+03  0.12680581593E+04  0.95000000000E+03 0.  0.
<mgrwt>
<rscale>  0 0.25187765E+04</rscale>
<asrwt>0</asrwt>
<pdfrwt beam="2">  1        2 0.15046272E+00 0.25187765E+04</pdfrwt>
<pdfrwt beam="1">  1       -2 0.24949603E+00 0.25187765E+04</pdfrwt>
<totfact> 0.14999207E+00</totfact>
</mgrwt>
</event>
<event>
 4    1  0.1323225E-008  0.2451820E+04  0.7816531E-02  0.8420354E-01
          2   -1    0    0  501    0  0.00000000000E+00  0.00000000000E+00  0.82530069054E+03  0.82530069054E+03  0.00000000000E+00 0.  1.
         -2   -1    0    0    0  501 -0.00000000000E+00 -0.00000000000E+00 -0.18209796827E+04  0.18209796827E+04  0.00000000000E+00 0. -1.
    2000013    1    1    2    0    0 -0.59744220948E+03  0.13440716374E+03  0.14525175389E+02  0.11303598808E+04  0.95000000000E+03 0.  0.
   -2000013    1    1    2    0    0  0.59744220948E+03 -0.13440716374E+03 -0.10102041675E+04  0.15159204924E+04  0.95000000000E+03 0.  0.
<mgrwt>
<rscale>  0 0.24518204E+04</rscale>
<asrwt>0</asrwt>
<pdfrwt beam="1">  1        2 0.12696934E+00 0.24518204E+04</pdfrwt>
<pdfrwt beam="2">  1       -2 0.28015072E+00 0.24518204E+04</pdfrwt>
<totfact> 0.12431782E+00</totfact>
</mgrwt>
</event>
<event>
 4    1  0.1323225E-008  0.2141964E+04  0.7816531E-02  0.8542980E-01
          2   -1    0    0  501    0  0.00000000000E+00  0.00000000000E+00  0.25100594800E+04  0.25100594800E+04  0.00000000000E+00 0.  1.
         -2   -1    0    0    0  501 -0.00000000000E+00 -0.00000000000E+00 -0.45696218046E+03  0.45696218046E+03  0.00000000000E+00 0. -1.
    2000013    1    1    2    0    0 -0.32853917007E+03  0.33927490612E+03  0.12294528847E+04  0.16239149743E+04  0.95000000000E+03 0.  0.
   -2000013    1    1    2    0    0  0.32853917007E+03 -0.33927490612E+03  0.82364441484E+03  0.13431066861E+04  0.95000000000E+03 0.  0.
<mgrwt>
<rscale>  0 0.21419638E+04</rscale>
<asrwt>0</asrwt>
<pdfrwt beam="1">  1        2 0.38616299E+00 0.21419638E+04</pdfrwt>
<pdfrwt beam="2">  1       -2 0.70301876E-01 0.21419638E+04</pdfrwt>
<totfact> 0.58100896E+00</totfact>
</mgrwt>
</event>
<event>
 4    1  0.1323225E-008  0.2835493E+04  0.7816531E-02  0.8292333E-01
          2   -1    0    0  501    0  0.00000000000E+00  0.00000000000E+00  0.17861494792E+04  0.17861494792E+04  0.00000000000E+00 0.  1.
         -2   -1    0    0    0  501 -0.00000000000E+00 -0.00000000000E+00 -0.11253287015E+04  0.11253287015E+04  0.00000000000E+00 0. -1.
    2000013    1    1    2    0    0  0.39574260746E+03 -0.67196079710E+03 -0.39518177227E+03  0.12910507958E+04  0.95000000000E+03 0.  0.
   -2000013    1    1    2    0    0 -0.39574260746E+03  0.67196079710E+03  0.10560025500E+04  0.16204273849E+04  0.95000000000E+03 0.  0.
<mgrwt>
<rscale>  0 0.28354931E+04</rscale>
<asrwt>0</asrwt>
<pdfrwt beam="1">  1        2 0.27479223E+00 0.28354931E+04</pdfrwt>
<pdfrwt beam="2">  1       -2 0.17312749E+00 0.28354931E+04</pdfrwt>
<totfact> 0.15436284E+00</totfact>
</mgrwt>
</event>
<event>
 4    1  0.1323225E-008  0.2158732E+04  0.7816531E-02  0.8535804E-01
         -2   -1    0    0    0  501 -0.00000000000E+00  0.00000000000E+00  0.76997067865E+03  0.76997067865E+03  0.00000000000E+00 0. -1.
          2   -1    0    0  501    0  0.00000000000E+00 -0.00000000000E+00 -0.15130854521E+04  0.15130854521E+04  0.00000000000E+00 0.  1.
    2000013    1    1    2    0    0  0.49347743557E+03 -0.13027587916E+03 -0.41932080720E+03  0.11570746404E+04  0.95000000000E+03 0.  0.
   -2000013    1    1    2    0    0 -0.49347743557E+03  0.13027587916E+03 -0.32379396630E+03  0.11259814904E+04  0.95000000000E+03 0.  0.
<mgrwt>
<rscale>  0 0.21587324E+04</rscale>
<asrwt>0</asrwt>
<pdfrwt beam="2">  1        2 0.23278237E+00 0.21587324E+04</pdfrwt>
<pdfrwt beam="1">  1       -2 0.11845703E+00 0.21587324E+04</pdfrwt>
<totfact> 0.62771590E+00</totfact>
</mgrwt>
</event>
<event>
 4    1  0.1323225E-008  0.2714629E+04  0.7816531E-02  0.8330274E-01
          2   -1    0    0  501    0  0.00000000000E+00  0.00000000000E+00  0.15375536559E+04  0.15375536559E+04  0.00000000000E+00 0.  1.
         -2   -1    0    0    0  501 -0.00000000000E+00 -0.00000000000E+00 -0.11982037701E+04  0.11982037701E+04  0.00000000000E+00 0. -1.
    2000013    1    1    2    0    0  0.11628660774E+03 -0.90908860484E+03 -0.14875571488E+03  0.13283798136E+04  0.95000000000E+03 0.  0.
   -2000013    1    1    2    0    0 -0.11628660774E+03  0.90908860484E+03  0.48810560068E+03  0.14073776124E+04  0.95000000000E+03 0.  0.
<mgrwt>
<rscale>  0 0.27146290E+04</rscale>
<asrwt>0</asrwt>
<pdfrwt beam="1">  1        2 0.23654672E+00 0.27146290E+04</pdfrwt>
<pdfrwt beam="2">  1       -2 0.18433904E+00 0.27146290E+04</pdfrwt>
<totfact> 0.17937148E+00</totfact>
</mgrwt>
</event>
<event>
 4    1  0.1323225E-008  0.2260287E+04  0.7816531E-02  0.8493746E-01
          2   -1    0    0  501    0  0.00000000000E+00  0.00000000000E+00  0.19386396565E+04  0.19386396565E+04  0.00000000000E+00 0.  1.
         -2   -1    0    0    0  501 -0.00000000000E+00 -0.00000000000E+00 -0.65882516739E+03  0.65882516739E+03  0.00000000000E+00 0. -1.
    2000013    1    1    2    0    0  0.49753764541E+03 -0.34730506440E+03  0.54683062448E+03  0.12528719999E+04  0.95000000000E+03 0.  0.
   -2000013    1    1    2    0    0 -0.49753764541E+03  0.34730506440E+03  0.73298386460E+03  0.13445928239E+04  0.95000000000E+03 0.  0.
<mgrwt>
<rscale>  0 0.22602872E+04</rscale>
<asrwt>0</asrwt>
<pdfrwt beam="1">  1        2 0.29825225E+00 0.22602872E+04</pdfrwt>
<pdfrwt beam="2">  1       -2 0.10135772E+00 0.22602872E+04</pdfrwt>
<totfact> 0.52581158E+00</totfact>
</mgrwt>
</event>
<event>
 4    1  0.1323225E-008  0.2748299E+04  0.7816531E-02  0.8319502E-01
         -2   -1    0    0    0  501 -0.00000000000E+00  0.00000000000E+00  0.71083672221E+03  0.71083672221E+03  0.00000000000E+00 0. -1.
          2   -1    0    0  501    0  0.00000000000E+00 -0.00000000000E+00 -0.26564280617E+04  0.26564280617E+04  0.00000000000E+00 0.  1.
    2000013    1    1    2    0    0 -0.59537781962E+03  0.76357664543E+03 -0.70363068759E+03  0.15281100046E+04  0.95000000000E+03 0.  0.
   -2000013    1    1    2    0    0  0.59537781962E+03 -0.76357664543E+03 -0.12419606519E+04  0.18391547793E+04  0.95000000000E+03 0.  0.
<mgrwt>
<rscale>  0 0.27482988E+04</rscale>
<asrwt>0</asrwt>
<pdfrwt beam="2">  1        2 0.40868125E+00 0.27482988E+04</pdfrwt>
<pdfrwt beam="1">  1       -2 0.10935949E+00 0.27482988E+04</pdfrwt>
<totfact> 0.16408223E+00</totfact>
</mgrwt>
</event>
<event>
 4    1  0.1323225E-008  0.2918928E+04  0.7816531E-02  0.8267268E-01
          2   -1    0    0  501    0  0.00000000000E+00  0.00000000000E+00  0.13392621992E+04  0.13392621992E+04  0.00000000000E+00 0.  1.
         -2   -1    0    0    0  501 -0.00000000000E+00 -0.00000000000E+00 -0.15904544767E+04  0.15904544767E+04  0.00000000000E+00 0. -1.
    2000013    1    1    2    0    0  0.83101262016E+03  0.23926592376E+03 -0.82076371151E+03  0.15244616188E+04  0.95000000000E+03 0.  0.
   -2000013    1    1    2    0    0 -0.83101262016E+03 -0.23926592376E+03  0.56957143397E+03  0.14052550571E+04  0.95000000000E+03 0.  0.
<mgrwt>
<rscale>  0 0.29189283E+04</rscale>
<asrwt>0</asrwt>
<pdfrwt beam="1">  1        2 0.20604034E+00 0.29189283E+04</pdfrwt>
<pdfrwt beam="2">  1       -2 0.24468530E+00 0.29189283E+04</pdfrwt>
<totfact> 0.93661160E-01</totfact>
</mgrwt>
</event>
<event>
 4    1  0.1323225E-008  0.2885814E+04  0.7816531E-02  0.8277111E-01
         -1   -1    0    0    0  501 -0.00000000000E+00  0.00000000000E+00  0.12441154814E+04  0.12441154814E+04  0.00000000000E+00 0. -1.
          1   -1    0    0  501    0  0.00000000000E+00 -0.00000000000E+00 -0.16734620990E+04  0.16734620990E+04  0.00000000000E+00 0.  1.
    2000013    1    1    2    0    0  0.59927771905E+03 -0.60318353184E+03 -0.89776988159E+03  0.15593123221E+04  0.95000000000E+03 0.  0.
   -2000013    1    1    2    0    0 -0.59927771905E+03  0.60318353184E+03  0.46842326402E+03  0.13582652583E+04  0.95000000000E+03 0.  0.
<mgrwt>
<rscale>  0 0.28858136E+04</rscale>
<asrwt>0</asrwt>
<pdfrwt beam="2">  1        1 0.25745571E+00 0.28858136E+04</pdfrwt>
<pdfrwt beam="1">  1       -1 0.19140238E+00 0.28858136E+04</pdfrwt>
<totfact> 0.73773605E-01</totfact>
</mgrwt>
</event>
<event>
 4    1  0.1323225E-008  0.2323496E+04  0.7816531E-02  0.8468714E-01
         -2   -1    0    0    0  501 -0.00000000000E+00  0.00000000000E+00  0.61905464155E+03  0.61905464155E+03  0.00000000000E+00 0. -1.
          2   -1    0    0  501    0  0.00000000000E+00 -0.00000000000E+00 -0.21801918220E+04  0.21801918220E+04  0.00000000000E+00 0.  1.
    2000013    1    1    2    0    0  0.35036040242E+03 -0.53234317030E+03 -0.10245614017E+04  0.15356977985E+04  0.95000000000E+03 0.  0.
   -2000013    1    1    2    0    0 -0.35036040242E+03  0.53234317030E+03 -0.53657577873E+03  0.12635486650E+04  0.95000000000E+03 0.  0.
<mgrwt>
<rscale>  0 0.23234955E+04</rscale>
<asrwt>0</asrwt>
<pdfrwt beam="2">  1        2 0.33541412E+00 0.23234955E+04</pdfrwt>
<pdfrwt beam="1">  1       -2 0.95239177E-01 0.23234955E+04</pdfrwt>
<totfact> 0.44413302E+00</totfact>
</mgrwt>
</event>
<event>
 4    1  0.1323225E-008  0.2501905E+04  0.7816531E-02  0.8402307E-01
          2   -1    0    0  501    0  0.00000000000E+00  0.00000000000E+00  0.20936430891E+04  0.20936430891E+04  0.00000000000E+00 0.  1.
         -2   -1    0    0    0  501 -0.00000000000E+00 -0.00000000000E+00 -0.74744451758E+03  0.74744451758E+03  0.00000000000E+00 0. -1.
    2000013    1    1    2    0    0 -0.30770138027E+03  0.56108461592E+03  0.10204658810E+03  0.11499606914E+04  0.95000000000E+03 0.  0.
   -2000013    1    1    2    0    0  0.30770138027E+03 -0.56108461592E+03  0.12441519834E+04  0.16911269152E+04  0.95000000000E+03 0.  0.
<mgrwt>
<rscale>  0 0.25019049E+04</rscale>
<asrwt>0</asrwt>
<pdfrwt beam="1">  1        2 0.32209893E+00 0.25019049E+04</pdfrwt>
<pdfrwt beam="2">  1       -2 0.11499147E+00 0.25019049E+04</pdfrwt>
<totfact> 0.31153839E+00</totfact>
</mgrwt>
</event>
<event>
 4    1  0.1323225E-008  0.2877741E+04  0.7816531E-02  0.8279531E-01
          2   -1    0    0  501    0  0.00000000000E+00  0.00000000000E+00  0.13089745899E+04  0.13089745899E+04  0.00000000000E+00 0.  1.
         -2   -1    0    0    0  501 -0.00000000000E+00 -0.00000000000E+00 -0.15816569981E+04  0.15816569981E+04  0.00000000000E+00 0. -1.
    2000013    1    1    2    0    0  0.13901548455E+03  0.10472614654E+04  0.92201429730E+02  0.14237566455E+04  0.95000000000E+03 0.  0.
   -2000013    1    1    2    0    0 -0.13901548455E+03 -0.10472614654E+04 -0.36488383796E+03  0.14668749426E+04  0.95000000000E+03 0.  0.
<mgrwt>
<rscale>  0 0.28777414E+04</rscale>
<asrwt>0</asrwt>
<pdfrwt beam="1">  1        2 0.20138071E+00 0.28777414E+04</pdfrwt>
<pdfrwt beam="2">  1       -2 0.24333185E+00 0.28777414E+04</pdfrwt>
<totfact> 0.99764441E-01</totfact>
</mgrwt>
</event>
<event>
 4    1  0.1323225E-008  0.3220822E+04  0.7816531E-02  0.8183340E-01
          1   -1    0    0  501    0  0.00000000000E+00  0.00000000000E+00  0.95305315278E+03  0.95305315278E+03  0.00000000000E+00 0.  1.
         -1   -1    0    0    0  501 -0.00000000000E+00 -0.00000000000E+00 -0.27211735126E+04  0.27211735126E+04  0.00000000000E+00 0. -1.
    2000013    1    1    2    0    0  0.37935054123E+03 -0.87998105957E+03  0.11868488559E+03  0.13545698950E+04  0.95000000000E+03 0.  0.
   -2000013    1    1    2    0    0 -0.37935054123E+03  0.87998105957E+03 -0.18868052454E+04  0.23196567704E+04  0.95000000000E+03 0.  0.
<mgrwt>
<rscale>  0 0.32208216E+04</rscale>
<asrwt>0</asrwt>
<pdfrwt beam="1">  1        1 0.14662356E+00 0.32208216E+04</pdfrwt>
<pdfrwt beam="2">  1       -1 0.41864208E+00 0.32208216E+04</pdfrwt>
<totfact> 0.73261024E-02</totfact>
</mgrwt>
</event>
<event>
 4    1  0.1323225E-008  0.2599016E+04  0.7816531E-02  0.8368535E-01
         -2   -1    0    0    0  501 -0.00000000000E+00  0.00000000000E+00  0.78608530240E+03  0.78608530240E+03  0.00000000000E+00 0. -1.
          2   -1    0    0  501    0  0.00000000000E+00 -0.00000000000E+00 -0.21482670651E+04  0.21482670651E+04  0.00000000000E+00 0.  1.
    2000013    1    1    2    0    0 -0.64346182783E+03  0.15241428987E+03 -0.13480260297E+04  0.17767800698E+04  0.95000000000E+03 0.  0.
   -2000013    1    1    2    0    0  0.64346182783E+03 -0.15241428987E+03 -0.14155732992E+02  0.11575722977E+04  0.95000000000E+03 0.  0.
<mgrwt>
<rscale>  0 0.25990161E+04</rscale>
<asrwt>0</asrwt>
<pdfrwt beam="2">  1        2 0.33050263E+00 0.25990161E+04</pdfrwt>
<pdfrwt beam="1">  1       -2 0.12093620E+00 0.25990161E+04</pdfrwt>
<totfact> 0.25437078E+00</totfact>
</mgrwt>
</event>
<event>
 4    1  0.1323225E-008  0.3071335E+04  0.7816531E-02  0.8223649E-01
         -1   -1    0    0    0  501 -0.00000000000E+00  0.00000000000E+00  0.66014232027E+03  0.66014232027E+03  0.00000000000E+00 0. -1.
          1   -1    0    0  501    0  0.00000000000E+00 -0.00000000000E+00 -0.35723723717E+04  0.35723723717E+04  0.00000000000E+00 0.  1.
    2000013    1    1    2    0    0  0.10887309765E+04  0.51103143091E+02 -0.74293540161E+03  0.16255459641E+04  0.95000000000E+03 0.  0.
   -2000013    1    1    2    0    0 -0.10887309765E+04 -0.51103143091E+02 -0.21692946498E+04  0.26069687279E+04  0.95000000000E+03 0.  0.
<mgrwt>
<rscale>  0 0.30713347E+04</rscale>
<asrwt>0</asrwt>
<pdfrwt beam="2">  1        1 0.54959575E+00 0.30713347E+04</pdfrwt>
<pdfrwt beam="1">  1       -1 0.10156036E+00 0.30713347E+04</pdfrwt>
<totfact> 0.17013723E-01</totfact>
</mgrwt>
</event>
<event>
 4    1  0.1323225E-008  0.2649190E+04  0.7816531E-02  0.8351682E-01
         -2   -1    0    0    0  501 -0.00000000000E+00  0.00000000000E+00  0.17817274376E+04  0.17817274376E+04  0.00000000000E+00 0. -1.
          2   -1    0    0  501    0  0.00000000000E+00 -0.00000000000E+00 -0.98474729193E+03  0.98474729193E+03  0.00000000000E+00 0.  1.
    2000013    1    1    2    0    0 -0.54952320482E+03 -0.18249015343E+03  0.11491850828E+04  0.15995014109E+04  0.95000000000E+03 0.  0.
   -2000013    1    1    2    0    0  0.54952320482E+03  0.18249015343E+03 -0.35220493716E+03  0.11669733187E+04  0.95000000000E+03 0.  0.
<mgrwt>
<rscale>  0 0.26491895E+04</rscale>
<asrwt>0</asrwt>
<pdfrwt beam="2">  1        2 0.15149958E+00 0.26491895E+04</pdfrwt>
<pdfrwt beam="1">  1       -2 0.27411191E+00 0.26491895E+04</pdfrwt>
<totfact> 0.10383413E+00</totfact>
</mgrwt>
</event>
<event>
 4    1  0.1323225E-008  0.3027142E+04  0.7816531E-02  0.8236022E-01
          2   -1    0    0  501    0  0.00000000000E+00  0.00000000000E+00  0.19756606037E+04  0.19756606037E+04  0.00000000000E+00 0.  1.
         -2   -1    0    0    0  501 -0.00000000000E+00 -0.00000000000E+00 -0.11595603104E+04  0.11595603104E+04  0.00000000000E+00 0. -1.
    2000013    1    1    2    0    0 -0.89409791012E+03 -0.31668498675E+03 -0.31597762161E+03  0.13791455003E+04  0.95000000000E+03 0.  0.
   -2000013    1    1    2    0    0  0.89409791012E+03  0.31668498675E+03  0.11320779149E+04  0.17560754138E+04  0.95000000000E+03 0.  0.
<mgrwt>
<rscale>  0 0.30271423E+04</rscale>
<asrwt>0</asrwt>
<pdfrwt beam="1">  1        2 0.30394779E+00 0.30271423E+04</pdfrwt>
<pdfrwt beam="2">  1       -2 0.17839389E+00 0.30271423E+04</pdfrwt>
<totfact> 0.10953457E+00</totfact>
</mgrwt>
</event>
<event>
 4    1  0.1323225E-008  0.3231567E+04  0.7816531E-02  0.8180530E-01
         -2   -1    0    0    0  501 -0.00000000000E+00  0.00000000000E+00  0.12629363264E+04  0.12629363264E+04  0.00000000000E+00 0. -1.
          2   -1    0    0  501    0  0.00000000000E+00 -0.00000000000E+00 -0.20672117174E+04  0.20672117174E+04  0.00000000000E+00 0.  1.
    2000013    1    1    2    0    0  0.11868676902E+04 -0.49356871084E+03 -0.64598193404E+03  0.17239656741E+04  0.95000000000E+03 0.  0.
   -2000013    1    1    2    0    0 -0.11868676902E+04  0.49356871084E+03 -0.15829345692E+03  0.16061823697E+04  0.95000000000E+03 0.  0.
<mgrwt>
<rscale>  0 0.32315673E+04</rscale>
<asrwt>0</asrwt>
<pdfrwt beam="2">  1        2 0.31803257E+00 0.32315673E+04</pdfrwt>
<pdfrwt beam="1">  1       -2 0.19429790E+00 0.32315673E+04</pdfrwt>
<totfact> 0.74681423E-01</totfact>
</mgrwt>
</event>
<event>
 4    1  0.1323225E-008  0.2005153E+04  0.7816531E-02  0.8604215E-01
          2   -1    0    0  501    0  0.00000000000E+00  0.00000000000E+00  0.83462951543E+03  0.83462951543E+03  0.00000000000E+00 0.  1.
         -2   -1    0    0    0  501 -0.00000000000E+00 -0.00000000000E+00 -0.12043182616E+04  0.12043182616E+04  0.00000000000E+00 0. -1.
    2000013    1    1    2    0    0  0.28292837935E+03  0.11393057324E+03 -0.85053097706E+02  0.10013803837E+04  0.95000000000E+03 0.  0.
   -2000013    1    1    2    0    0 -0.28292837935E+03 -0.11393057324E+03 -0.28463564843E+03  0.10375673933E+04  0.95000000000E+03 0.  0.
<mgrwt>
<rscale>  0 0.20051529E+04</rscale>
<asrwt>0</asrwt>
<pdfrwt beam="1">  1        2 0.12840454E+00 0.20051529E+04</pdfrwt>
<pdfrwt beam="2">  1       -2 0.18527973E+00 0.20051529E+04</pdfrwt>
<totfact> 0.50384117E+00</totfact>
</mgrwt>
</event>
<event>
 4    1  0.1323225E-008  0.2480047E+04  0.7816531E-02  0.8410128E-01
         -2   -1    0    0    0  501 -0.00000000000E+00  0.00000000000E+00  0.77006587781E+03  0.77006587781E+03  0.00000000000E+00 0. -1.
          2   -1    0    0  501    0  0.00000000000E+00 -0.00000000000E+00 -0.19967883353E+04  0.19967883353E+04  0.00000000000E+00 0.  1.
    2000013    1    1    2    0    0 -0.52486225055E+03 -0.53089065685E+03 -0.30211147148E+03  0.12454302922E+04  0.95000000000E+03 0.  0.
   -2000013    1    1    2    0    0  0.52486225055E+03  0.53089065685E+03 -0.92461098600E+03  0.15214239209E+04  0.95000000000E+03 0.  0.
<mgrwt>
<rscale>  0 0.24800472E+04</rscale>
<asrwt>0</asrwt>
<pdfrwt beam="2">  1        2 0.30719821E+00 0.24800472E+04</pdfrwt>
<pdfrwt beam="1">  1       -2 0.11847167E+00 0.24800472E+04</pdfrwt>
<totfact> 0.32853830E+00</totfact>
</mgrwt>
</event>
<event>
 4    1  0.1323225E-008  0.1923160E+04  0.7816531E-02  0.8643413E-01
          2   -1    0    0  501    0  0.00000000000E+00  0.00000000000E+00  0.23792641017E+04  0.23792641017E+04  0.00000000000E+00 0.  1.
         -2   -1    0    0    0  501 -0.00000000000E+00 -0.00000000000E+00 -0.38862275370E+03  0.38862275370E+03  0.00000000000E+00 0. -1.
    2000013    1    1    2    0    0  0.14467955703E+03  0.33869530189E+02  0.10061721611E+04  0.13917477275E+04  0.95000000000E+03 0.  0.
   -2000013    1    1    2    0    0 -0.14467955703E+03 -0.33869530189E+02  0.98446918689E+03  0.13761391279E+04  0.95000000000E+03 0.  0.
<mgrwt>
<rscale>  0 0.19231601E+04</rscale>
<asrwt>0</asrwt>
<pdfrwt beam="1">  1        2 0.36604062E+00 0.19231601E+04</pdfrwt>
<pdfrwt beam="2">  1       -2 0.59788118E-01 0.19231601E+04</pdfrwt>
<totfact> 0.99709229E+00</totfact>
</mgrwt>
</event>
<event>
 4    1  0.1323225E-008  0.2842802E+04  0.7816531E-02  0.8290102E-01
          2   -1    0    0  501    0  0.00000000000E+00  0.00000000000E+00  0.14945865460E+04  0.14945865460E+04  0.00000000000E+00 0.  1.
         -2   -1    0    0    0  501 -0.00000000000E+00 -0.00000000000E+00 -0.13517995603E+04  0.13517995603E+04  0.00000000000E+00 0. -1.
    2000013    1    1    2    0    0  0.11176448518E+03 -0.97209391799E+03  0.47242749112E+03  0.14433106457E+04  0.95000000000E+03 0.  0.
   -2000013    1    1    2    0    0 -0.11176448518E+03  0.97209391799E+03 -0.32964050542E+03  0.14030754607E+04  0.95000000000E+03 0.  0.
<mgrwt>
<rscale>  0 0.28428024E+04</rscale>
<asrwt>0</asrwt>
<pdfrwt beam="1">  1        2 0.22993639E+00 0.28428024E+04</pdfrwt>
<pdfrwt beam="2">  1       -2 0.20796916E+00 0.28428024E+04</pdfrwt>
<totfact> 0.13082898E+00</totfact>
</mgrwt>
</event>
<event>
 4    1  0.1323225E-008  0.2532492E+04  0.7816531E-02  0.8391501E-01
          1   -1    0    0  501    0  0.00000000000E+00  0.00000000000E+00  0.16921352165E+04  0.16921352165E+04  0.00000000000E+00 0.  1.
         -1   -1    0    0    0  501 -0.00000000000E+00 -0.00000000000E+00 -0.94754809824E+03  0.94754809824E+03  0.00000000000E+00 0. -1.
    2000013    1    1    2    0    0  0.44924406750E+03  0.62988411023E+03  0.70568365618E+03  0.14138824729E+04  0.95000000000E+03 0.  0.
   -2000013    1    1    2    0    0 -0.44924406750E+03 -0.62988411023E+03  0.38903462057E+02  0.12258008418E+04  0.95000000000E+03 0.  0.
<mgrwt>
<rscale>  0 0.25324925E+04</rscale>
<asrwt>0</asrwt>
<pdfrwt beam="1">  1        1 0.26032849E+00 0.25324925E+04</pdfrwt>
<pdfrwt beam="2">  1       -1 0.14577663E+00 0.25324925E+04</pdfrwt>
<totfact> 0.16102198E+00</totfact>
</mgrwt>
</event>
<event>
 4    1  0.1323225E-008  0.2433871E+04  0.7816531E-02  0.8426930E-01
         -1   -1    0    0    0  501 -0.00000000000E+00  0.00000000000E+00  0.52557737758E+03  0.52557737758E+03  0.00000000000E+00 0.  1.
          1   -1    0    0  501    0  0.00000000000E+00 -0.00000000000E+00 -0.28177248123E+04  0.28177248123E+04  0.00000000000E+00 0. -1.
    2000013    1    1    2    0    0 -0.13008077584E+03  0.72931390504E+03 -0.90969054302E+03  0.15095882433E+04  0.95000000000E+03 0.  0.
   -2000013    1    1    2    0    0  0.13008077584E+03 -0.72931390504E+03 -0.13824568917E+04  0.18337139465E+04  0.95000000000E+03 0.  0.
<mgrwt>
<rscale>  0 0.24338713E+04</rscale>
<asrwt>0</asrwt>
<pdfrwt beam="2">  1        1 0.43349614E+00 0.24338713E+04</pdfrwt>
<pdfrwt beam="1">  1       -1 0.80858056E-01 0.24338713E+04</pdfrwt>
<totfact> 0.11026948E+00</totfact>
</mgrwt>
</event>
<event>
 4    1  0.1323225E-008  0.3055604E+04  0.7816531E-02  0.8228029E-01
          2   -1    0    0  501    0  0.00000000000E+00  0.00000000000E+00  0.12092700362E+04  0.12092700362E+04  0.00000000000E+00 0.  1.
         -2   -1    0    0    0  501 -0.00000000000E+00 -0.00000000000E+00 -0.19302375700E+04  0.19302375700E+04  0.00000000000E+00 0. -1.
    2000013    1    1    2    0    0 -0.13226369074E+03  0.11625100396E+04 -0.10309516818E+03  0.15106461829E+04  0.95000000000E+03 0.  0.
   -2000013    1    1    2    0    0  0.13226369074E+03 -0.11625100396E+04 -0.61787236563E+03  0.16288614233E+04  0.95000000000E+03 0.  0.
<mgrwt>
<rscale>  0 0.30556037E+04</rscale>
<asrwt>0</asrwt>
<pdfrwt beam="1">  1        2 0.18604154E+00 0.30556037E+04</pdfrwt>
<pdfrwt beam="2">  1       -2 0.29695963E+00 0.30556037E+04</pdfrwt>
<totfact> 0.52861088E-01</totfact>
</mgrwt>
</event>
<event>
 4    1  0.1323225E-008  0.3060667E+04  0.7816531E-02  0.8226616E-01
         -2   -1    0    0    0  501 -0.00000000000E+00  0.00000000000E+00  0.81969331015E+03  0.81969331015E+03  0.00000000000E+00 0. -1.
          2   -1    0    0  501    0  0.00000000000E+00 -0.00000000000E+00 -0.28570687133E+04  0.28570687133E+04  0.00000000000E+00 0.  1.
    2000013    1    1    2    0    0  0.91842151375E+03 -0.17393232760E+03 -0.19221934074E+04  0.23390335669E+04  0.95000000000E+03 0.  0.
   -2000013    1    1    2    0    0 -0.91842151375E+03  0.17393232760E+03 -0.11518199581E+03  0.13377284566E+04  0.95000000000E+03 0.  0.
<mgrwt>
<rscale>  0 0.30606667E+04</rscale>
<asrwt>0</asrwt>
<pdfrwt beam="2">  1        2 0.43954902E+00 0.30606667E+04</pdfrwt>
<pdfrwt beam="1">  1       -2 0.12610667E+00 0.30606667E+04</pdfrwt>
<totfact> 0.85227803E-01</totfact>
</mgrwt>
</event>
<event>
 4    1  0.1323225E-008  0.2516214E+04  0.7816531E-02  0.8397232E-01
          1   -1    0    0  501    0  0.00000000000E+00  0.00000000000E+00  0.15724927054E+04  0.15724927054E+04  0.00000000000E+00 0.  1.
         -1   -1    0    0    0  501 -0.00000000000E+00 -0.00000000000E+00 -0.10065759575E+04  0.10065759575E+04  0.00000000000E+00 0. -1.
    2000013    1    1    2    0    0 -0.72873197491E+03  0.22445148294E+03 -0.39388556362E+02  0.12188027805E+04  0.95000000000E+03 0.  0.
   -2000013    1    1    2    0    0  0.72873197491E+03 -0.22445148294E+03  0.60530530427E+03  0.13602658824E+04  0.95000000000E+03 0.  0.
<mgrwt>
<rscale>  0 0.25162141E+04</rscale>
<asrwt>0</asrwt>
<pdfrwt beam="1">  1        1 0.24192195E+00 0.25162141E+04</pdfrwt>
<pdfrwt beam="2">  1       -1 0.15485784E+00 0.25162141E+04</pdfrwt>
<totfact> 0.16544017E+00</totfact>
</mgrwt>
</event>
<event>
 4    1  0.1323225E-008  0.2151020E+04  0.7816531E-02  0.8539096E-01
         -1   -1    0    0    0  501 -0.00000000000E+00  0.00000000000E+00  0.52820665933E+03  0.52820665933E+03  0.00000000000E+00 0. -1.
          1   -1    0    0  501    0  0.00000000000E+00 -0.00000000000E+00 -0.21899034818E+04  0.21899034818E+04  0.00000000000E+00 0.  1.
    2000013    1    1    2    0    0  0.28240292018E+03 -0.24258815292E+03 -0.12605246452E+04  0.16217345043E+04  0.95000000000E+03 0.  0.
   -2000013    1    1    2    0    0 -0.28240292018E+03  0.24258815292E+03 -0.40117217730E+03  0.10963756369E+04  0.95000000000E+03 0.  0.
<mgrwt>
<rscale>  0 0.21510199E+04</rscale>
<asrwt>0</asrwt>
<pdfrwt beam="2">  1        1 0.33690822E+00 0.21510199E+04</pdfrwt>
<pdfrwt beam="1">  1       -1 0.81262565E-01 0.21510199E+04</pdfrwt>
<totfact> 0.30568598E+00</totfact>
</mgrwt>
</event>
<event>
 4    1  0.1323225E-008  0.2902736E+04  0.7816531E-02  0.8272064E-01
         -2   -1    0    0    0  501 -0.00000000000E+00  0.00000000000E+00  0.13660044614E+04  0.13660044614E+04  0.00000000000E+00 0. -1.
          2   -1    0    0  501    0  0.00000000000E+00 -0.00000000000E+00 -0.15420657124E+04  0.15420657124E+04  0.00000000000E+00 0.  1.
    2000013    1    1    2    0    0 -0.69433993090E+03  0.75400062333E+03  0.30428033864E+03  0.14302836796E+04  0.95000000000E+03 0.  0.
   -2000013    1    1    2    0    0  0.69433993090E+03 -0.75400062333E+03 -0.48034158971E+03  0.14777864942E+04  0.95000000000E+03 0.  0.
<mgrwt>
<rscale>  0 0.29027357E+04</rscale>
<asrwt>0</asrwt>
<pdfrwt beam="2">  1        2 0.23724088E+00 0.29027357E+04</pdfrwt>
<pdfrwt beam="1">  1       -2 0.21015453E+00 0.29027357E+04</pdfrwt>
<totfact> 0.11849536E+00</totfact>
</mgrwt>
</event>
<event>
 4    1  0.1323225E-008  0.2545633E+04  0.7816531E-02  0.8386907E-01
          4   -1    0    0  501    0  0.00000000000E+00  0.00000000000E+00  0.65675543435E+03  0.65675543435E+03  0.00000000000E+00 0.  1.
         -4   -1    0    0    0  501 -0.00000000000E+00 -0.00000000000E+00 -0.24667649041E+04  0.24667649041E+04  0.00000000000E+00 0. -1.
    2000013    1    1    2    0    0  0.45531413196E+03  0.71328867682E+03 -0.95204203673E+03  0.15890172230E+04  0.95000000000E+03 0.  0.
   -2000013    1    1    2    0    0 -0.45531413196E+03 -0.71328867682E+03 -0.85796743299E+03  0.15345031154E+04  0.95000000000E+03 0.  0.
<mgrwt>
<rscale>  0 0.25456325E+04</rscale>
<asrwt>0</asrwt>
<pdfrwt beam="1">  1        4 0.10103930E+00 0.25456325E+04</pdfrwt>
<pdfrwt beam="2">  1       -4 0.37950229E+00 0.25456325E+04</pdfrwt>
<totfact> 0.13469157E-02</totfact>
</mgrwt>
</event>
<event>
 4    1  0.1323225E-008  0.2766954E+04  0.7816531E-02  0.8313602E-01
          2   -1    0    0  501    0  0.00000000000E+00  0.00000000000E+00  0.76987844367E+03  0.76987844367E+03  0.00000000000E+00 0.  1.
         -2   -1    0    0    0  501 -0.00000000000E+00 -0.00000000000E+00 -0.24861170947E+04  0.24861170947E+04  0.00000000000E+00 0. -1.
    2000013    1    1    2    0    0  0.66166057771E+03  0.75743434011E+03 -0.85512846564E+03  0.16264212838E+04  0.95000000000E+03 0.  0.
   -2000013    1    1    2    0    0 -0.66166057771E+03 -0.75743434011E+03 -0.86111018537E+03  0.16295742545E+04  0.95000000000E+03 0.  0.
<mgrwt>
<rscale>  0 0.27669535E+04</rscale>
<asrwt>0</asrwt>
<pdfrwt beam="1">  1        2 0.11844284E+00 0.27669535E+04</pdfrwt>
<pdfrwt beam="2">  1       -2 0.38247956E+00 0.27669535E+04</pdfrwt>
<totfact> 0.30506638E-01</totfact>
</mgrwt>
</event>
<event>
 4    1  0.1323225E-008  0.3468800E+04  0.7816531E-02  0.8121224E-01
          2   -1    0    0  501    0  0.00000000000E+00  0.00000000000E+00  0.32467835824E+04  0.32467835824E+04  0.00000000000E+00 0.  1.
         -2   -1    0    0    0  501 -0.00000000000E+00 -0.00000000000E+00 -0.92649933750E+03  0.92649933750E+03  0.00000000000E+00 0. -1.
    2000013    1    1    2    0    0  0.14412268485E+04  0.16521859282E+03  0.12020059964E+04  0.21099171613E+04  0.95000000000E+03 0.  0.
   -2000013    1    1    2    0    0 -0.14412268485E+04 -0.16521859282E+03  0.11182782485E+04  0.20633657585E+04  0.95000000000E+03 0.  0.
<mgrwt>
<rscale>  0 0.34687997E+04</rscale>
<asrwt>0</asrwt>
<pdfrwt beam="1">  1        2 0.49950516E+00 0.34687997E+04</pdfrwt>
<pdfrwt beam="2">  1       -2 0.14253836E+00 0.34687997E+04</pdfrwt>
<totfact> 0.34074188E-01</totfact>
</mgrwt>
</event>
<event>
 4    1  0.1323225E-008  0.2516580E+04  0.7816531E-02  0.8397102E-01
          2   -1    0    0  501    0  0.00000000000E+00  0.00000000000E+00  0.30617159084E+04  0.30617159084E+04  0.00000000000E+00 0.  1.
         -2   -1    0    0    0  501 -0.00000000000E+00 -0.00000000000E+00 -0.51712633274E+03  0.51712633274E+03  0.00000000000E+00 0. -1.
    2000013    1    1    2    0    0  0.28911522084E+03  0.50359881540E+03  0.43870014459E+03  0.11967277028E+04  0.95000000000E+03 0.  0.
   -2000013    1    1    2    0    0 -0.28911522084E+03 -0.50359881540E+03  0.21058894311E+04  0.23821145383E+04  0.95000000000E+03 0.  0.
<mgrwt>
<rscale>  0 0.25165802E+04</rscale>
<asrwt>0</asrwt>
<pdfrwt beam="1">  1        2 0.47103320E+00 0.25165802E+04</pdfrwt>
<pdfrwt beam="2">  1       -2 0.79557899E-01 0.25165802E+04</pdfrwt>
<totfact> 0.19847740E+00</totfact>
</mgrwt>
</event>
<event>
 4    1  0.1323225E-008  0.3029485E+04  0.7816531E-02  0.8235361E-01
          2   -1    0    0  501    0  0.00000000000E+00  0.00000000000E+00  0.28093345010E+04  0.28093345010E+04  0.00000000000E+00 0.  1.
         -2   -1    0    0    0  501 -0.00000000000E+00 -0.00000000000E+00 -0.81672181595E+03  0.81672181595E+03  0.00000000000E+00 0. -1.
    2000013    1    1    2    0    0  0.10463024388E+04 -0.50632509712E+03  0.12381641458E+04  0.19459353405E+04  0.95000000000E+03 0.  0.
   -2000013    1    1    2    0    0 -0.10463024388E+04  0.50632509712E+03  0.75444853926E+03  0.16801209765E+04  0.95000000000E+03 0.  0.
<mgrwt>
<rscale>  0 0.30294850E+04</rscale>
<asrwt>0</asrwt>
<pdfrwt beam="1">  1        2 0.43220530E+00 0.30294850E+04</pdfrwt>
<pdfrwt beam="2">  1       -2 0.12564951E+00 0.30294850E+04</pdfrwt>
<totfact> 0.92204318E-01</totfact>
</mgrwt>
</event>
<event>
 4    1  0.1323225E-008  0.1991887E+04  0.7816531E-02  0.8610423E-01
         -2   -1    0    0    0  501 -0.00000000000E+00  0.00000000000E+00  0.90225513845E+03  0.90225513845E+03  0.00000000000E+00 0. -1.
          2   -1    0    0  501    0  0.00000000000E+00 -0.00000000000E+00 -0.10993601548E+04  0.10993601548E+04  0.00000000000E+00 0.  1.
    2000013    1    1    2    0    0 -0.13061827046E+03 -0.26808838036E+03 -0.76747765569E+02  0.99866046872E+03  0.95000000000E+03 0.  0.
   -2000013    1    1    2    0    0  0.13061827046E+03  0.26808838036E+03 -0.12035725080E+03  0.10029548245E+04  0.95000000000E+03 0.  0.
<mgrwt>
<rscale>  0 0.19918869E+04</rscale>
<asrwt>0</asrwt>
<pdfrwt beam="2">  1        2 0.16913233E+00 0.19918869E+04</pdfrwt>
<pdfrwt beam="1">  1       -2 0.13880848E+00 0.19918869E+04</pdfrwt>
<totfact> 0.74448538E+00</totfact>
</mgrwt>
</event>
<event>
 4    1  0.1323225E-008  0.2569773E+04  0.7816531E-02  0.8378542E-01
         -2   -1    0    0    0  501 -0.00000000000E+00  0.00000000000E+00  0.78861646153E+03  0.78861646153E+03  0.00000000000E+00 0. -1.
          2   -1    0    0  501    0  0.00000000000E+00 -0.00000000000E+00 -0.20934556458E+04  0.20934556458E+04  0.00000000000E+00 0.  1.
    2000013    1    1    2    0    0  0.34863168355E+03 -0.76144892789E+03 -0.89578095246E+03  0.15512163084E+04  0.95000000000E+03 0.  0.
   -2000013    1    1    2    0    0 -0.34863168355E+03  0.76144892789E+03 -0.40905823178E+03  0.13308557989E+04  0.95000000000E+03 0.  0.
<mgrwt>
<rscale>  0 0.25697732E+04</rscale>
<asrwt>0</asrwt>
<pdfrwt beam="2">  1        2 0.32207009E+00 0.25697732E+04</pdfrwt>
<pdfrwt beam="1">  1       -2 0.12132561E+00 0.25697732E+04</pdfrwt>
<totfact> 0.27147846E+00</totfact>
</mgrwt>
</event>
<event>
 4    1  0.1323225E-008  0.2962201E+04  0.7816531E-02  0.8254608E-01
          2   -1    0    0  501    0  0.00000000000E+00  0.00000000000E+00  0.18079313297E+04  0.18079313297E+04  0.00000000000E+00 0.  1.
         -2   -1    0    0    0  501 -0.00000000000E+00 -0.00000000000E+00 -0.12133525918E+04  0.12133525918E+04  0.00000000000E+00 0. -1.
    2000013    1    1    2    0    0 -0.95785387230E+03 -0.27359398632E+03  0.85483732557E+03  0.16203655647E+04  0.95000000000E+03 0.  0.
   -2000013    1    1    2    0    0  0.95785387230E+03  0.27359398632E+03 -0.26025858770E+03  0.14009183568E+04  0.95000000000E+03 0.  0.
<mgrwt>
<rscale>  0 0.29622006E+04</rscale>
<asrwt>0</asrwt>
<pdfrwt beam="1">  1        2 0.27814328E+00 0.29622006E+04</pdfrwt>
<pdfrwt beam="2">  1       -2 0.18666963E+00 0.29622006E+04</pdfrwt>
<totfact> 0.11973858E+00</totfact>
</mgrwt>
</event>
<event>
 4    1  0.1323225E-008  0.2622448E+04  0.7816531E-02  0.8360616E-01
          2   -1    0    0  501    0  0.00000000000E+00  0.00000000000E+00  0.10546566640E+04  0.10546566640E+04  0.00000000000E+00 0.  1.
         -2   -1    0    0    0  501 -0.00000000000E+00 -0.00000000000E+00 -0.16302072188E+04  0.16302072188E+04  0.00000000000E+00 0. -1.
    2000013    1    1    2    0    0 -0.74697346478E+03  0.41577559740E+03  0.12409935669E+02  0.12780816527E+04  0.95000000000E+03 0.  0.
   -2000013    1    1    2    0    0  0.74697346478E+03 -0.41577559740E+03 -0.58796049049E+03  0.14067822301E+04  0.95000000000E+03 0.  0.
<mgrwt>
<rscale>  0 0.26224484E+04</rscale>
<asrwt>0</asrwt>
<pdfrwt beam="1">  1        2 0.16225487E+00 0.26224484E+04</pdfrwt>
<pdfrwt beam="2">  1       -2 0.25080111E+00 0.26224484E+04</pdfrwt>
<totfact> 0.13042252E+00</totfact>
</mgrwt>
</event>
<event>
 4    1  0.1323225E-008  0.2634335E+04  0.7816531E-02  0.8356631E-01
          2   -1    0    0  501    0  0.00000000000E+00  0.00000000000E+00  0.27584342059E+04  0.27584342059E+04  0.00000000000E+00 0.  1.
         -2   -1    0    0    0  501 -0.00000000000E+00 -0.00000000000E+00 -0.62895471111E+03  0.62895471111E+03  0.00000000000E+00 0. -1.
    2000013    1    1    2    0    0  0.10383511133E+03 -0.83068728583E+03  0.59825901437E+03  0.14004416966E+04  0.95000000000E+03 0.  0.
   -2000013    1    1    2    0    0 -0.10383511133E+03  0.83068728583E+03  0.15312204804E+04  0.19869472205E+04  0.95000000000E+03 0.  0.
<mgrwt>
<rscale>  0 0.26343350E+04</rscale>
<asrwt>0</asrwt>
<pdfrwt beam="1">  1        2 0.42437449E+00 0.26343350E+04</pdfrwt>
<pdfrwt beam="2">  1       -2 0.96762265E-01 0.26343350E+04</pdfrwt>
<totfact> 0.19286279E+00</totfact>
</mgrwt>
</event>
<event>
 4    1  0.1323225E-008  0.3164759E+04  0.7816531E-02  0.8198187E-01
         -2   -1    0    0    0  501 -0.00000000000E+00  0.00000000000E+00  0.13059982879E+04  0.13059982879E+04  0.00000000000E+00 0. -1.
          2   -1    0    0  501    0  0.00000000000E+00 -0.00000000000E+00 -0.19172497014E+04  0.19172497014E+04  0.00000000000E+00 0.  1.
    2000013    1    1    2    0    0  0.10639981363E+04 -0.60999442184E+03  0.11970027613E+02  0.15513956653E+04  0.95000000000E+03 0.  0.
   -2000013    1    1    2    0    0 -0.10639981363E+04  0.60999442184E+03 -0.62322144109E+03  0.16718523241E+04  0.95000000000E+03 0.  0.
<mgrwt>
<rscale>  0 0.31647590E+04</rscale>
<asrwt>0</asrwt>
<pdfrwt beam="2">  1        2 0.29496149E+00 0.31647590E+04</pdfrwt>
<pdfrwt beam="1">  1       -2 0.20092281E+00 0.31647590E+04</pdfrwt>
<totfact> 0.82280347E-01</totfact>
</mgrwt>
</event>
<event>
 4    1  0.1323225E-008  0.2261558E+04  0.7816531E-02  0.8493234E-01
         -2   -1    0    0    0  501 -0.00000000000E+00  0.00000000000E+00  0.98506462034E+03  0.98506462034E+03  0.00000000000E+00 0. -1.
          2   -1    0    0  501    0  0.00000000000E+00 -0.00000000000E+00 -0.12980483217E+04  0.12980483217E+04  0.00000000000E+00 0.  1.
    2000013    1    1    2    0    0 -0.44084051368E+03  0.35021194842E+03 -0.40206469423E+03  0.11752211646E+04  0.95000000000E+03 0.  0.
   -2000013    1    1    2    0    0  0.44084051368E+03 -0.35021194842E+03  0.89080992848E+02  0.11078917775E+04  0.95000000000E+03 0.  0.
<mgrwt>
<rscale>  0 0.22615583E+04</rscale>
<asrwt>0</asrwt>
<pdfrwt beam="2">  1        2 0.19969974E+00 0.22615583E+04</pdfrwt>
<pdfrwt beam="1">  1       -2 0.15154840E+00 0.22615583E+04</pdfrwt>
<totfact> 0.43954360E+00</totfact>
</mgrwt>
</event>
<event>
 4    1  0.1323225E-008  0.2862626E+04  0.7816531E-02  0.8284085E-01
         -2   -1    0    0    0  501 -0.00000000000E+00  0.00000000000E+00  0.67221352153E+03  0.67221352153E+03  0.00000000000E+00 0. -1.
          2   -1    0    0  501    0  0.00000000000E+00 -0.00000000000E+00 -0.30476281889E+04  0.30476281889E+04  0.00000000000E+00 0.  1.
    2000013    1    1    2    0    0  0.10251044865E+03 -0.10502454429E+04 -0.95296667593E+03  0.17100202829E+04  0.95000000000E+03 0.  0.
   -2000013    1    1    2    0    0 -0.10251044865E+03  0.10502454429E+04 -0.14224479914E+04  0.20098214276E+04  0.95000000000E+03 0.  0.
<mgrwt>
<rscale>  0 0.28626260E+04</rscale>
<asrwt>0</asrwt>
<pdfrwt beam="2">  1        2 0.46886588E+00 0.28626260E+04</pdfrwt>
<pdfrwt beam="1">  1       -2 0.10341746E+00 0.28626260E+04</pdfrwt>
<totfact> 0.10718604E+00</totfact>
</mgrwt>
</event>
<event>
 4    1  0.1323225E-008  0.2363075E+04  0.7816531E-02  0.8453459E-01
          2   -1    0    0  501    0  0.00000000000E+00  0.00000000000E+00  0.28614344233E+04  0.28614344233E+04  0.00000000000E+00 0.  1.
         -2   -1    0    0    0  501 -0.00000000000E+00 -0.00000000000E+00 -0.48787778426E+03  0.48787778426E+03  0.00000000000E+00 0. -1.
    2000013    1    1    2    0    0 -0.63025179632E+03 -0.39843894821E+02  0.75055237218E+03  0.13655159194E+04  0.95000000000E+03 0.  0.
   -2000013    1    1    2    0    0  0.63025179632E+03  0.39843894821E+02  0.16230042669E+04  0.19837962882E+04  0.95000000000E+03 0.  0.
<mgrwt>
<rscale>  0 0.23630745E+04</rscale>
<asrwt>0</asrwt>
<pdfrwt beam="1">  1        2 0.44022067E+00 0.23630745E+04</pdfrwt>
<pdfrwt beam="2">  1       -2 0.75058123E-01 0.23630745E+04</pdfrwt>
<totfact> 0.30513841E+00</totfact>
</mgrwt>
</event>
<event>
 4    1  0.1323225E-008  0.2485483E+04  0.7816531E-02  0.8408175E-01
         -2   -1    0    0    0  501 -0.00000000000E+00  0.00000000000E+00  0.14140986934E+04  0.14140986934E+04  0.00000000000E+00 0. -1.
          2   -1    0    0  501    0  0.00000000000E+00 -0.00000000000E+00 -0.10921493990E+04  0.10921493990E+04  0.00000000000E+00 0.  1.
    2000013    1    1    2    0    0  0.79155216840E+03 -0.42033555548E+02  0.27850475158E+03  0.12682218070E+04  0.95000000000E+03 0.  0.
   -2000013    1    1    2    0    0 -0.79155216840E+03  0.42033555548E+02  0.43444542816E+02  0.12380262854E+04  0.95000000000E+03 0.  0.
<mgrwt>
<rscale>  0 0.24854835E+04</rscale>
<asrwt>0</asrwt>
<pdfrwt beam="2">  1        2 0.16802298E+00 0.24854835E+04</pdfrwt>
<pdfrwt beam="1">  1       -2 0.21755365E+00 0.24854835E+04</pdfrwt>
<totfact> 0.20149476E+00</totfact>
</mgrwt>
</event>
<event>
 4    1  0.1323225E-008  0.2093795E+04  0.7816531E-02  0.8563982E-01
         -2   -1    0    0    0  501 -0.00000000000E+00  0.00000000000E+00  0.51360165503E+03  0.51360165503E+03  0.00000000000E+00 0. -1.
          2   -1    0    0  501    0  0.00000000000E+00 -0.00000000000E+00 -0.21339381049E+04  0.21339381049E+04  0.00000000000E+00 0.  1.
    2000013    1    1    2    0    0  0.27972567012E+03 -0.15002431419E+03 -0.42509541496E+03  0.10880991946E+04  0.95000000000E+03 0.  0.
   -2000013    1    1    2    0    0 -0.27972567012E+03  0.15002431419E+03 -0.11952410349E+04  0.15594405654E+04  0.95000000000E+03 0.  0.
<mgrwt>
<rscale>  0 0.20937948E+04</rscale>
<asrwt>0</asrwt>
<pdfrwt beam="2">  1        2 0.32829817E+00 0.20937948E+04</pdfrwt>
<pdfrwt beam="1">  1       -2 0.79015639E-01 0.20937948E+04</pdfrwt>
<totfact> 0.73699781E+00</totfact>
</mgrwt>
</event>
<event>
 4    1  0.1323225E-008  0.2360434E+04  0.7816531E-02  0.8454467E-01
         -1   -1    0    0    0  501 -0.00000000000E+00  0.00000000000E+00  0.65340555535E+03  0.65340555535E+03  0.00000000000E+00 0. -1.
          1   -1    0    0  501    0  0.00000000000E+00 -0.00000000000E+00 -0.21317726155E+04  0.21317726155E+04  0.00000000000E+00 0.  1.
    2000013    1    1    2    0    0 -0.19796967407E+03 -0.59824382821E+03 -0.10996449085E+04  0.15839212716E+04  0.95000000000E+03 0.  0.
   -2000013    1    1    2    0    0  0.19796967407E+03  0.59824382821E+03 -0.37872215165E+03  0.12012568992E+04  0.95000000000E+03 0.  0.
<mgrwt>
<rscale>  0 0.23604339E+04</rscale>
<asrwt>0</asrwt>
<pdfrwt beam="2">  1        1 0.32796501E+00 0.23604339E+04</pdfrwt>
<pdfrwt beam="1">  1       -1 0.10052393E+00 0.23604339E+04</pdfrwt>
<totfact> 0.20528209E+00</totfact>
</mgrwt>
</event>
<event>
 4    1  0.1323225E-008  0.2583172E+04  0.7816531E-02  0.8373940E-01
         -2   -1    0    0    0  501 -0.00000000000E+00  0.00000000000E+00  0.10501736459E+04  0.10501736459E+04  0.00000000000E+00 0. -1.
          2   -1    0    0  501    0  0.00000000000E+00 -0.00000000000E+00 -0.15884934236E+04  0.15884934236E+04  0.00000000000E+00 0.  1.
    2000013    1    1    2    0    0 -0.30827185496E+03  0.78437650133E+03 -0.28696745437E+02  0.12702761651E+04  0.95000000000E+03 0.  0.
   -2000013    1    1    2    0    0  0.30827185496E+03 -0.78437650133E+03 -0.50962303226E+03  0.13683909045E+04  0.95000000000E+03 0.  0.
<mgrwt>
<rscale>  0 0.25831716E+04</rscale>
<asrwt>0</asrwt>
<pdfrwt beam="2">  1        2 0.24438360E+00 0.25831716E+04</pdfrwt>
<pdfrwt beam="1">  1       -2 0.16156518E+00 0.25831716E+04</pdfrwt>
<totfact> 0.24596235E+00</totfact>
</mgrwt>
</event>
<event>
 4    1  0.1323225E-008  0.2444497E+04  0.7816531E-02  0.8423030E-01
         -2   -1    0    0    0  501 -0.00000000000E+00  0.00000000000E+00  0.66992414117E+03  0.66992414117E+03  0.00000000000E+00 0. -1.
          2   -1    0    0  501    0  0.00000000000E+00 -0.00000000000E+00 -0.22299419307E+04  0.22299419307E+04  0.00000000000E+00 0.  1.
    2000013    1    1    2    0    0  0.27327251091E+03 -0.67309351592E+03 -0.48070050120E+03  0.12889164900E+04  0.95000000000E+03 0.  0.
   -2000013    1    1    2    0    0 -0.27327251091E+03  0.67309351592E+03 -0.10793172883E+04  0.16109495819E+04  0.95000000000E+03 0.  0.
<mgrwt>
<rscale>  0 0.24444974E+04</rscale>
<asrwt>0</asrwt>
<pdfrwt beam="2">  1        2 0.34306799E+00 0.24444974E+04</pdfrwt>
<pdfrwt beam="1">  1       -2 0.10306525E+00 0.24444974E+04</pdfrwt>
<totfact> 0.34200288E+00</totfact>
</mgrwt>
</event>
<event>
 4    1  0.1323225E-008  0.3504812E+04  0.7816531E-02  0.8112651E-01
          1   -1    0    0  501    0  0.00000000000E+00  0.00000000000E+00  0.63751296175E+03  0.63751296175E+03  0.00000000000E+00 0.  1.
         -1   -1    0    0    0  501 -0.00000000000E+00 -0.00000000000E+00 -0.48170412147E+04  0.48170412147E+04  0.00000000000E+00 0. -1.
    2000013    1    1    2    0    0 -0.13167096934E+04  0.46169468422E+03 -0.28222857788E+04  0.32885685967E+04  0.95000000000E+03 0.  0.
   -2000013    1    1    2    0    0  0.13167096934E+04 -0.46169468422E+03 -0.13572424741E+04  0.21659855797E+04  0.95000000000E+03 0.  0.
<mgrwt>
<rscale>  0 0.35048117E+04</rscale>
<asrwt>0</asrwt>
<pdfrwt beam="1">  1        1 0.98078917E-01 0.35048117E+04</pdfrwt>
<pdfrwt beam="2">  1       -1 0.74108327E+00 0.35048117E+04</pdfrwt>
<totfact> 0.35539694E-03</totfact>
</mgrwt>
</event>
<event>
 4    1  0.1323225E-008  0.2211127E+04  0.7816531E-02  0.8513811E-01
         -1   -1    0    0    0  501 -0.00000000000E+00  0.00000000000E+00  0.72466419742E+03  0.72466419742E+03  0.00000000000E+00 0. -1.
          1   -1    0    0  501    0  0.00000000000E+00 -0.00000000000E+00 -0.16866713312E+04  0.16866713312E+04  0.00000000000E+00 0.  1.
    2000013    1    1    2    0    0 -0.48679242146E+03 -0.22677447174E+03 -0.67417743099E+03  0.12827348639E+04  0.95000000000E+03 0.  0.
   -2000013    1    1    2    0    0  0.48679242146E+03  0.22677447174E+03 -0.28782970281E+03  0.11286006647E+04  0.95000000000E+03 0.  0.
<mgrwt>
<rscale>  0 0.22111267E+04</rscale>
<asrwt>0</asrwt>
<pdfrwt beam="2">  1        1 0.25948789E+00 0.22111267E+04</pdfrwt>
<pdfrwt beam="1">  1       -1 0.11148680E+00 0.22111267E+04</pdfrwt>
<totfact> 0.32768056E+00</totfact>
</mgrwt>
</event>
<event>
 4    1  0.1323225E-008  0.2654043E+04  0.7816531E-02  0.8350072E-01
          2   -1    0    0  501    0  0.00000000000E+00  0.00000000000E+00  0.22598287478E+04  0.22598287478E+04  0.00000000000E+00 0.  1.
         -2   -1    0    0    0  501 -0.00000000000E+00 -0.00000000000E+00 -0.77925649385E+03  0.77925649385E+03  0.00000000000E+00 0. -1.
    2000013    1    1    2    0    0  0.51301125743E+02 -0.91744326032E+03  0.87650842219E+03  0.15859069820E+04  0.95000000000E+03 0.  0.
   -2000013    1    1    2    0    0 -0.51301125743E+02  0.91744326032E+03  0.60406383172E+03  0.14531782596E+04  0.95000000000E+03 0.  0.
<mgrwt>
<rscale>  0 0.26540431E+04</rscale>
<asrwt>0</asrwt>
<pdfrwt beam="1">  1        2 0.34766596E+00 0.26540431E+04</pdfrwt>
<pdfrwt beam="2">  1       -2 0.11988562E+00 0.26540431E+04</pdfrwt>
<totfact> 0.22391020E+00</totfact>
</mgrwt>
</event>
<event>
 4    1  0.1323225E-008  0.2729715E+04  0.7816531E-02  0.8325427E-01
         -2   -1    0    0    0  501 -0.00000000000E+00  0.00000000000E+00  0.14128327487E+04  0.14128327487E+04  0.00000000000E+00 0. -1.
          2   -1    0    0  501    0  0.00000000000E+00 -0.00000000000E+00 -0.13185114613E+04  0.13185114613E+04  0.00000000000E+00 0.  1.
    2000013    1    1    2    0    0 -0.34267740731E+03 -0.78670271973E+03  0.52073708933E+03  0.13820260819E+04  0.95000000000E+03 0.  0.
   -2000013    1    1    2    0    0  0.34267740731E+03  0.78670271973E+03 -0.42641580194E+03  0.13493181281E+04  0.95000000000E+03 0.  0.
<mgrwt>
<rscale>  0 0.27297151E+04</rscale>
<asrwt>0</asrwt>
<pdfrwt beam="2">  1        2 0.20284792E+00 0.27297151E+04</pdfrwt>
<pdfrwt beam="1">  1       -2 0.21735888E+00 0.27297151E+04</pdfrwt>
<totfact> 0.14498408E+00</totfact>
</mgrwt>
</event>
<event>
 4    1  0.1323225E-008  0.2449388E+04  0.7816531E-02  0.8421242E-01
          2   -1    0    0  501    0  0.00000000000E+00  0.00000000000E+00  0.11169810431E+04  0.11169810431E+04  0.00000000000E+00 0.  1.
         -2   -1    0    0    0  501 -0.00000000000E+00 -0.00000000000E+00 -0.13427935241E+04  0.13427935241E+04  0.00000000000E+00 0. -1.
    2000013    1    1    2    0    0  0.12294004591E+03  0.66140215338E+03  0.26924373881E+03  0.11948051114E+04  0.95000000000E+03 0.  0.
   -2000013    1    1    2    0    0 -0.12294004591E+03 -0.66140215338E+03 -0.49505621978E+03  0.12649694558E+04  0.95000000000E+03 0.  0.
<mgrwt>
<rscale>  0 0.24493876E+04</rscale>
<asrwt>0</asrwt>
<pdfrwt beam="1">  1        2 0.17184324E+00 0.24493876E+04</pdfrwt>
<pdfrwt beam="2">  1       -2 0.20658362E+00 0.24493876E+04</pdfrwt>
<totfact> 0.22944768E+00</totfact>
</mgrwt>
</event>
<event>
 4    1  0.1323225E-008  0.2241152E+04  0.7816531E-02  0.8501492E-01
         -2   -1    0    0    0  501 -0.00000000000E+00  0.00000000000E+00  0.19935769431E+04  0.19935769431E+04  0.00000000000E+00 0. -1.
          2   -1    0    0  501    0  0.00000000000E+00 -0.00000000000E+00 -0.62986831327E+03  0.62986831327E+03  0.00000000000E+00 0.  1.
    2000013    1    1    2    0    0  0.53595536392E+03  0.24550334780E+03  0.59370343570E+03  0.12659003971E+04  0.95000000000E+03 0.  0.
   -2000013    1    1    2    0    0 -0.53595536392E+03 -0.24550334780E+03  0.77000519416E+03  0.13575448593E+04  0.95000000000E+03 0.  0.
<mgrwt>
<rscale>  0 0.22411523E+04</rscale>
<asrwt>0</asrwt>
<pdfrwt beam="2">  1        2 0.96902818E-01 0.22411523E+04</pdfrwt>
<pdfrwt beam="1">  1       -2 0.30670414E+00 0.22411523E+04</pdfrwt>
<totfact> 0.12318528E+00</totfact>
</mgrwt>
</event>
<event>
 4    1  0.1323225E-008  0.2576746E+04  0.7816531E-02  0.8376143E-01
          1   -1    0    0  501    0  0.00000000000E+00  0.00000000000E+00  0.25986177357E+04  0.25986177357E+04  0.00000000000E+00 0.  1.
         -1   -1    0    0    0  501 -0.00000000000E+00 -0.00000000000E+00 -0.63876441709E+03  0.63876441709E+03  0.00000000000E+00 0. -1.
    2000013    1    1    2    0    0 -0.65222906292E+03  0.49993857267E+03  0.13398389541E+04  0.18365755497E+04  0.95000000000E+03 0.  0.
   -2000013    1    1    2    0    0  0.65222906292E+03 -0.49993857267E+03  0.62001436452E+03  0.14008066031E+04  0.95000000000E+03 0.  0.
<mgrwt>
<rscale>  0 0.25767457E+04</rscale>
<asrwt>0</asrwt>
<pdfrwt beam="1">  1        1 0.39978734E+00 0.25767457E+04</pdfrwt>
<pdfrwt beam="2">  1       -1 0.98271450E-01 0.25767457E+04</pdfrwt>
<totfact> 0.10118267E+00</totfact>
</mgrwt>
</event>
<event>
 4    1  0.1323225E-008  0.2103811E+04  0.7816531E-02  0.8559567E-01
          2   -1    0    0  501    0  0.00000000000E+00  0.00000000000E+00  0.16724243470E+04  0.16724243470E+04  0.00000000000E+00 0.  1.
         -2   -1    0    0    0  501 -0.00000000000E+00 -0.00000000000E+00 -0.66161727707E+03  0.66161727707E+03  0.00000000000E+00 0. -1.
    2000013    1    1    2    0    0 -0.77541366688E+02  0.39133130990E+03  0.74036290829E+03  0.12687750366E+04  0.95000000000E+03 0.  0.
   -2000013    1    1    2    0    0  0.77541366688E+02 -0.39133130990E+03  0.27044416160E+03  0.10652665874E+04  0.95000000000E+03 0.  0.
<mgrwt>
<rscale>  0 0.21038107E+04</rscale>
<asrwt>0</asrwt>
<pdfrwt beam="1">  1        2 0.25729605E+00 0.21038107E+04</pdfrwt>
<pdfrwt beam="2">  1       -2 0.10178727E+00 0.21038107E+04</pdfrwt>
<totfact> 0.74124736E+00</totfact>
</mgrwt>
</event>
<event>
 4    1  0.1323225E-008  0.3932079E+04  0.7816531E-02  0.8018390E-01
          2   -1    0    0  501    0  0.00000000000E+00  0.00000000000E+00  0.22835910611E+04  0.22835910611E+04  0.00000000000E+00 0.  1.
         -2   -1    0    0    0  501 -0.00000000000E+00 -0.00000000000E+00 -0.16926456511E+04  0.16926456511E+04  0.00000000000E+00 0. -1.
    2000013    1    1    2    0    0  0.13678056968E+04 -0.98613672600E+03 -0.54027556398E+02  0.19361758813E+04  0.95000000000E+03 0.  0.
   -2000013    1    1    2    0    0 -0.13678056968E+04  0.98613672600E+03  0.64497296634E+03  0.20400608309E+04  0.95000000000E+03 0.  0.
<mgrwt>
<rscale>  0 0.39320786E+04</rscale>
<asrwt>0</asrwt>
<pdfrwt beam="1">  1        2 0.35132170E+00 0.39320786E+04</pdfrwt>
<pdfrwt beam="2">  1       -2 0.26040702E+00 0.39320786E+04</pdfrwt>
<totfact> 0.20382642E-01</totfact>
</mgrwt>
</event>
<event>
 4    1  0.1323225E-008  0.3733293E+04  0.7816531E-02  0.8060623E-01
         -2   -1    0    0    0  501 -0.00000000000E+00  0.00000000000E+00  0.22380770384E+04  0.22380770384E+04  0.00000000000E+00 0. -1.
          2   -1    0    0  501    0  0.00000000000E+00 -0.00000000000E+00 -0.15568587420E+04  0.15568587420E+04  0.00000000000E+00 0.  1.
    2000013    1    1    2    0    0  0.23728758491E+02 -0.11427915524E+04 -0.80734441519E+03  0.16914019602E+04  0.95000000000E+03 0.  0.
   -2000013    1    1    2    0    0 -0.23728758491E+02  0.11427915524E+04  0.14885627116E+04  0.21035338201E+04  0.95000000000E+03 0.  0.
<mgrwt>
<rscale>  0 0.37332933E+04</rscale>
<asrwt>0</asrwt>
<pdfrwt beam="2">  1        2 0.23951673E+00 0.37332933E+04</pdfrwt>
<pdfrwt beam="1">  1       -2 0.34431954E+00 0.37332933E+04</pdfrwt>
<totfact> 0.16053353E-01</totfact>
</mgrwt>
</event>
<event>
 4    1  0.1323225E-008  0.3051250E+04  0.7816531E-02  0.8229246E-01
          2   -1    0    0  501    0  0.00000000000E+00  0.00000000000E+00  0.20256949940E+04  0.20256949940E+04  0.00000000000E+00 0.  1.
         -2   -1    0    0    0  501 -0.00000000000E+00 -0.00000000000E+00 -0.11490040172E+04  0.11490040172E+04  0.00000000000E+00 0. -1.
    2000013    1    1    2    0    0  0.28215643439E+03  0.11576048638E+04  0.36209747311E+03  0.15662936680E+04  0.95000000000E+03 0.  0.
   -2000013    1    1    2    0    0 -0.28215643439E+03 -0.11576048638E+04  0.51459350365E+03  0.16084053433E+04  0.95000000000E+03 0.  0.
<mgrwt>
<rscale>  0 0.30512500E+04</rscale>
<asrwt>0</asrwt>
<pdfrwt beam="1">  1        2 0.31164538E+00 0.30512500E+04</pdfrwt>
<pdfrwt beam="2">  1       -2 0.17676985E+00 0.30512500E+04</pdfrwt>
<totfact> 0.10523247E+00</totfact>
</mgrwt>
</event>
<event>
 4    1  0.1323225E-008  0.2727744E+04  0.7816531E-02  0.8326059E-01
          2   -1    0    0  501    0  0.00000000000E+00  0.00000000000E+00  0.20972016156E+04  0.20972016156E+04  0.00000000000E+00 0.  1.
         -2   -1    0    0    0  501 -0.00000000000E+00 -0.00000000000E+00 -0.88696583558E+03  0.88696583558E+03  0.00000000000E+00 0. -1.
    2000013    1    1    2    0    0 -0.13860889532E+03 -0.96827706840E+03  0.63744713027E+03  0.15051949212E+04  0.95000000000E+03 0.  0.
   -2000013    1    1    2    0    0  0.13860889532E+03  0.96827706840E+03  0.57278864975E+03  0.14789725299E+04  0.95000000000E+03 0.  0.
<mgrwt>
<rscale>  0 0.27277435E+04</rscale>
<asrwt>0</asrwt>
<pdfrwt beam="1">  1        2 0.32264640E+00 0.27277435E+04</pdfrwt>
<pdfrwt beam="2">  1       -2 0.13645628E+00 0.27277435E+04</pdfrwt>
<totfact> 0.19811983E+00</totfact>
</mgrwt>
</event>
<event>
 4    1  0.1323225E-008  0.2791860E+04  0.7816531E-02  0.8305800E-01
         -2   -1    0    0    0  501 -0.00000000000E+00  0.00000000000E+00  0.53933416107E+03  0.53933416107E+03  0.00000000000E+00 0. -1.
          2   -1    0    0  501    0  0.00000000000E+00 -0.00000000000E+00 -0.36130102824E+04  0.36130102824E+04  0.00000000000E+00 0.  1.
    2000013    1    1    2    0    0  0.11700976370E+03  0.91768088355E+03 -0.88804196107E+03  0.15959160421E+04  0.95000000000E+03 0.  0.
   -2000013    1    1    2    0    0 -0.11700976370E+03 -0.91768088355E+03 -0.21856341602E+04  0.25564284014E+04  0.95000000000E+03 0.  0.
<mgrwt>
<rscale>  0 0.27918595E+04</rscale>
<asrwt>0</asrwt>
<pdfrwt beam="2">  1        2 0.55584775E+00 0.27918595E+04</pdfrwt>
<pdfrwt beam="1">  1       -2 0.82974484E-01 0.27918595E+04</pdfrwt>
<totfact> 0.74882919E-01</totfact>
</mgrwt>
</event>
<event>
 4    1  0.1323225E-008  0.2477596E+04  0.7816531E-02  0.8411011E-01
          2   -1    0    0  501    0  0.00000000000E+00  0.00000000000E+00  0.16060761960E+04  0.16060761960E+04  0.00000000000E+00 0.  1.
         -2   -1    0    0    0  501 -0.00000000000E+00 -0.00000000000E+00 -0.95550884743E+03  0.95550884743E+03  0.00000000000E+00 0. -1.
    2000013    1    1    2    0    0  0.21152622105E+03  0.62948835353E+03  0.77727765966E+03  0.13955857156E+04  0.95000000000E+03 0.  0.
   -2000013    1    1    2    0    0 -0.21152622105E+03 -0.62948835353E+03 -0.12671031112E+03  0.11659993278E+04  0.95000000000E+03 0.  0.
<mgrwt>
<rscale>  0 0.24775956E+04</rscale>
<asrwt>0</asrwt>
<pdfrwt beam="1">  1        2 0.24708865E+00 0.24775956E+04</pdfrwt>
<pdfrwt beam="2">  1       -2 0.14700136E+00 0.24775956E+04</pdfrwt>
<totfact> 0.31253477E+00</totfact>
</mgrwt>
</event>
<event>
 4    1  0.1323225E-008  0.2216875E+04  0.7816531E-02  0.8511437E-01
          2   -1    0    0  501    0  0.00000000000E+00  0.00000000000E+00  0.48635885208E+03  0.48635885208E+03  0.00000000000E+00 0.  1.
         -2   -1    0    0    0  501 -0.00000000000E+00 -0.00000000000E+00 -0.25261882766E+04  0.25261882766E+04  0.00000000000E+00 0. -1.
    2000013    1    1    2    0    0 -0.33400296504E+03  0.12130573238E+03 -0.41240030962E+03  0.10949187535E+04  0.95000000000E+03 0.  0.
   -2000013    1    1    2    0    0  0.33400296504E+03 -0.12130573238E+03 -0.16274291149E+04  0.19176283752E+04  0.95000000000E+03 0.  0.
<mgrwt>
<rscale>  0 0.22168753E+04</rscale>
<asrwt>0</asrwt>
<pdfrwt beam="1">  1        2 0.74824439E-01 0.22168753E+04</pdfrwt>
<pdfrwt beam="2">  1       -2 0.38864435E+00 0.22168753E+04</pdfrwt>
<totfact> 0.51168371E-01</totfact>
</mgrwt>
</event>
<event>
 4    1  0.1323225E-008  0.2430480E+04  0.7816531E-02  0.8428180E-01
         -2   -1    0    0    0  501 -0.00000000000E+00  0.00000000000E+00  0.78276784956E+03  0.78276784956E+03  0.00000000000E+00 0. -1.
          2   -1    0    0  501    0  0.00000000000E+00 -0.00000000000E+00 -0.18866496224E+04  0.18866496224E+04  0.00000000000E+00 0.  1.
    2000013    1    1    2    0    0  0.69340517263E+03  0.25031367907E+03 -0.74482150374E+03  0.14144704818E+04  0.95000000000E+03 0.  0.
   -2000013    1    1    2    0    0 -0.69340517263E+03 -0.25031367907E+03 -0.35906026910E+03  0.12549469902E+04  0.95000000000E+03 0.  0.
<mgrwt>
<rscale>  0 0.24304803E+04</rscale>
<asrwt>0</asrwt>
<pdfrwt beam="2">  1        2 0.29025379E+00 0.24304803E+04</pdfrwt>
<pdfrwt beam="1">  1       -2 0.12042582E+00 0.24304803E+04</pdfrwt>
<totfact> 0.36469205E+00</totfact>
</mgrwt>
</event>
<event>
 4    1  0.1323225E-008  0.2227982E+04  0.7816531E-02  0.8506871E-01
          2   -1    0    0  501    0  0.00000000000E+00  0.00000000000E+00  0.71714674795E+03  0.71714674795E+03  0.00000000000E+00 0.  1.
         -2   -1    0    0    0  501 -0.00000000000E+00 -0.00000000000E+00 -0.17304346704E+04  0.17304346704E+04  0.00000000000E+00 0. -1.
    2000013    1    1    2    0    0 -0.37301450503E+03  0.15908346729E+03 -0.96492868148E+03  0.14135185640E+04  0.95000000000E+03 0.  0.
   -2000013    1    1    2    0    0  0.37301450503E+03 -0.15908346729E+03 -0.48359240986E+02  0.10340628543E+04  0.95000000000E+03 0.  0.
<mgrwt>
<rscale>  0 0.22279817E+04</rscale>
<asrwt>0</asrwt>
<pdfrwt beam="1">  1        2 0.11033027E+00 0.22279817E+04</pdfrwt>
<pdfrwt beam="2">  1       -2 0.26622072E+00 0.22279817E+04</pdfrwt>
<totfact> 0.18518759E+00</totfact>
</mgrwt>
</event>
<event>
 4    1  0.1323225E-008  0.3009553E+04  0.7816531E-02  0.8241008E-01
          2   -1    0    0  501    0  0.00000000000E+00  0.00000000000E+00  0.19386165917E+04  0.19386165917E+04  0.00000000000E+00 0.  1.
         -2   -1    0    0    0  501 -0.00000000000E+00 -0.00000000000E+00 -0.11680247068E+04  0.11680247068E+04  0.00000000000E+00 0. -1.
    2000013    1    1    2    0    0  0.11453805419E+04 -0.98483015429E+01  0.61578947693E+03  0.16104937922E+04  0.95000000000E+03 0.  0.
   -2000013    1    1    2    0    0 -0.11453805419E+04  0.98483015429E+01  0.15480240795E+03  0.14961475062E+04  0.95000000000E+03 0.  0.
<mgrwt>
<rscale>  0 0.30095528E+04</rscale>
<asrwt>0</asrwt>
<pdfrwt beam="1">  1        2 0.29824871E+00 0.30095528E+04</pdfrwt>
<pdfrwt beam="2">  1       -2 0.17969611E+00 0.30095528E+04</pdfrwt>
<totfact> 0.11265307E+00</totfact>
</mgrwt>
</event>
<event>
 4    1  0.1323225E-008  0.3023619E+04  0.7816531E-02  0.8237018E-01
         -2   -1    0    0    0  501 -0.00000000000E+00  0.00000000000E+00  0.54164771650E+03  0.54164771650E+03  0.00000000000E+00 0. -1.
          2   -1    0    0  501    0  0.00000000000E+00 -0.00000000000E+00 -0.42196570528E+04  0.42196570528E+04  0.00000000000E+00 0.  1.
    2000013    1    1    2    0    0  0.17451955955E+02 -0.11374632145E+04 -0.13693824187E+04  0.20178789220E+04  0.95000000000E+03 0.  0.
   -2000013    1    1    2    0    0 -0.17451955955E+02  0.11374632145E+04 -0.23086269176E+04  0.27434258473E+04  0.95000000000E+03 0.  0.
<mgrwt>
<rscale>  0 0.30236188E+04</rscale>
<asrwt>0</asrwt>
<pdfrwt beam="2">  1        2 0.64917805E+00 0.30236188E+04</pdfrwt>
<pdfrwt beam="1">  1       -2 0.83330413E-01 0.30236188E+04</pdfrwt>
<totfact> 0.24054802E-01</totfact>
</mgrwt>
</event>
<event>
 4    1  0.1323225E-008  0.2420189E+04  0.7816531E-02  0.8431984E-01
          2   -1    0    0  501    0  0.00000000000E+00  0.00000000000E+00  0.11226028427E+04  0.11226028427E+04  0.00000000000E+00 0.  1.
         -2   -1    0    0    0  501 -0.00000000000E+00 -0.00000000000E+00 -0.13044046618E+04  0.13044046618E+04  0.00000000000E+00 0. -1.
    2000013    1    1    2    0    0 -0.12482995254E+03 -0.60611469117E+03  0.33322193305E+03  0.11817336386E+04  0.95000000000E+03 0.  0.
   -2000013    1    1    2    0    0  0.12482995254E+03  0.60611469117E+03 -0.51502375214E+03  0.12452738659E+04  0.95000000000E+03 0.  0.
<mgrwt>
<rscale>  0 0.24201887E+04</rscale>
<asrwt>0</asrwt>
<pdfrwt beam="1">  1        2 0.17270813E+00 0.24201887E+04</pdfrwt>
<pdfrwt beam="2">  1       -2 0.20067764E+00 0.24201887E+04</pdfrwt>
<totfact> 0.24933294E+00</totfact>
</mgrwt>
</event>
<event>
 4    1  0.1323225E-008  0.2511612E+04  0.7816531E-02  0.8398860E-01
          2   -1    0    0  501    0  0.00000000000E+00  0.00000000000E+00  0.19707465132E+04  0.19707465132E+04  0.00000000000E+00 0.  1.
         -2   -1    0    0    0  501 -0.00000000000E+00 -0.00000000000E+00 -0.80022909410E+03  0.80022909410E+03  0.00000000000E+00 0. -1.
    2000013    1    1    2    0    0  0.57082043128E+03 -0.58330270248E+03  0.48371815377E+03  0.13425949723E+04  0.95000000000E+03 0.  0.
   -2000013    1    1    2    0    0 -0.57082043128E+03  0.58330270248E+03  0.68679926535E+03  0.14283806350E+04  0.95000000000E+03 0.  0.
<mgrwt>
<rscale>  0 0.25116120E+04</rscale>
<asrwt>0</asrwt>
<pdfrwt beam="1">  1        2 0.30319177E+00 0.25116120E+04</pdfrwt>
<pdfrwt beam="2">  1       -2 0.12311217E+00 0.25116120E+04</pdfrwt>
<totfact> 0.30787669E+00</totfact>
</mgrwt>
</event>
<event>
 4    1  0.1323225E-008  0.2780589E+04  0.7816531E-02  0.8309320E-01
         -2   -1    0    0    0  501 -0.00000000000E+00  0.00000000000E+00  0.77528543162E+03  0.77528543162E+03  0.00000000000E+00 0. -1.
          2   -1    0    0  501    0  0.00000000000E+00 -0.00000000000E+00 -0.24931703762E+04  0.24931703762E+04  0.00000000000E+00 0.  1.
    2000013    1    1    2    0    0 -0.62665657954E+03 -0.62723917828E+03 -0.14399205650E+04  0.19395872471E+04  0.95000000000E+03 0.  0.
   -2000013    1    1    2    0    0  0.62665657954E+03  0.62723917828E+03 -0.27796437957E+03  0.13288685608E+04  0.95000000000E+03 0.  0.
<mgrwt>
<rscale>  0 0.27805889E+04</rscale>
<asrwt>0</asrwt>
<pdfrwt beam="2">  1        2 0.38356467E+00 0.27805889E+04</pdfrwt>
<pdfrwt beam="1">  1       -2 0.11927468E+00 0.27805889E+04</pdfrwt>
<totfact> 0.16501028E+00</totfact>
</mgrwt>
</event>
<event>
 4    1  0.1323225E-008  0.2438794E+04  0.7816531E-02  0.8425121E-01
         -2   -1    0    0    0  501 -0.00000000000E+00  0.00000000000E+00  0.10576824856E+04  0.10576824856E+04  0.00000000000E+00 0. -1.
          2   -1    0    0  501    0  0.00000000000E+00 -0.00000000000E+00 -0.14058364690E+04  0.14058364690E+04  0.00000000000E+00 0.  1.
    2000013    1    1    2    0    0  0.16335315529E+03  0.66563787758E+03  0.16798659549E+03  0.11834177342E+04  0.95000000000E+03 0.  0.
   -2000013    1    1    2    0    0 -0.16335315529E+03 -0.66563787758E+03 -0.51614057886E+03  0.12801012204E+04  0.95000000000E+03 0.  0.
<mgrwt>
<rscale>  0 0.24387936E+04</rscale>
<asrwt>0</asrwt>
<pdfrwt beam="2">  1        2 0.21628253E+00 0.24387936E+04</pdfrwt>
<pdfrwt beam="1">  1       -2 0.16272038E+00 0.24387936E+04</pdfrwt>
<totfact> 0.30966382E+00</totfact>
</mgrwt>
</event>
<event>
 4    1  0.1323225E-008  0.2110804E+04  0.7816531E-02  0.8556499E-01
          2   -1    0    0  501    0  0.00000000000E+00  0.00000000000E+00  0.20755081179E+04  0.20755081179E+04  0.00000000000E+00 0.  1.
         -2   -1    0    0    0  501 -0.00000000000E+00 -0.00000000000E+00 -0.53667479473E+03  0.53667479473E+03  0.00000000000E+00 0. -1.
    2000013    1    1    2    0    0  0.20440274358E+03 -0.40990356171E+03  0.81847472813E+03  0.13349914951E+04  0.95000000000E+03 0.  0.
   -2000013    1    1    2    0    0 -0.20440274358E+03  0.40990356171E+03  0.72035859506E+03  0.12771914175E+04  0.95000000000E+03 0.  0.
<mgrwt>
<rscale>  0 0.21108035E+04</rscale>
<asrwt>0</asrwt>
<pdfrwt beam="1">  1        2 0.31930894E+00 0.21108035E+04</pdfrwt>
<pdfrwt beam="2">  1       -2 0.82565354E-01 0.21108035E+04</pdfrwt>
<totfact> 0.71860313E+00</totfact>
</mgrwt>
</event>
<event>
 4    1  0.1323225E-008  0.2540446E+04  0.7816531E-02  0.8388717E-01
         -2   -1    0    0    0  501 -0.00000000000E+00  0.00000000000E+00  0.59102164604E+03  0.59102164604E+03  0.00000000000E+00 0. -1.
          2   -1    0    0  501    0  0.00000000000E+00 -0.00000000000E+00 -0.27299609562E+04  0.27299609562E+04  0.00000000000E+00 0.  1.
    2000013    1    1    2    0    0  0.65352547072E+03 -0.28026280464E+02 -0.17649984681E+04  0.21084592966E+04  0.95000000000E+03 0.  0.
   -2000013    1    1    2    0    0 -0.65352547072E+03  0.28026280464E+02 -0.37394084209E+03  0.12125233056E+04  0.95000000000E+03 0.  0.
<mgrwt>
<rscale>  0 0.25404456E+04</rscale>
<asrwt>0</asrwt>
<pdfrwt beam="2">  1        2 0.41999399E+00 0.25404456E+04</pdfrwt>
<pdfrwt beam="1">  1       -2 0.90926407E-01 0.25404456E+04</pdfrwt>
<totfact> 0.23375059E+00</totfact>
</mgrwt>
</event>
<event>
 4    1  0.1323225E-008  0.3068653E+04  0.7816531E-02  0.8224394E-01
          2   -1    0    0  501    0  0.00000000000E+00  0.00000000000E+00  0.30144878245E+04  0.30144878245E+04  0.00000000000E+00 0.  1.
         -2   -1    0    0    0  501 -0.00000000000E+00 -0.00000000000E+00 -0.78094764704E+03  0.78094764704E+03  0.00000000000E+00 0. -1.
    2000013    1    1    2    0    0  0.11204632584E+04 -0.43204946247E+03  0.99588494982E+03  0.18265791756E+04  0.95000000000E+03 0.  0.
   -2000013    1    1    2    0    0 -0.11204632584E+04  0.43204946247E+03  0.12376552276E+04  0.19688562959E+04  0.95000000000E+03 0.  0.
<mgrwt>
<rscale>  0 0.30686526E+04</rscale>
<asrwt>0</asrwt>
<pdfrwt beam="1">  1        2 0.46376735E+00 0.30686526E+04</pdfrwt>
<pdfrwt beam="2">  1       -2 0.12014579E+00 0.30686526E+04</pdfrwt>
<totfact> 0.76783986E-01</totfact>
</mgrwt>
</event>
<event>
 4    1  0.1323225E-008  0.2875569E+04  0.7816531E-02  0.8280184E-01
          2   -1    0    0  501    0  0.00000000000E+00  0.00000000000E+00  0.67827770612E+03  0.67827770612E+03  0.00000000000E+00 0.  1.
         -2   -1    0    0    0  501 -0.00000000000E+00 -0.00000000000E+00 -0.30477540124E+04  0.30477540124E+04  0.00000000000E+00 0. -1.
    2000013    1    1    2    0    0 -0.75515179776E+03 -0.75288156135E+03 -0.14001560424E+04  0.20000054565E+04  0.95000000000E+03 0.  0.
   -2000013    1    1    2    0    0  0.75515179776E+03  0.75288156135E+03 -0.96932026386E+03  0.17260262620E+04  0.95000000000E+03 0.  0.
<mgrwt>
<rscale>  0 0.28755685E+04</rscale>
<asrwt>0</asrwt>
<pdfrwt beam="1">  1        2 0.10435042E+00 0.28755685E+04</pdfrwt>
<pdfrwt beam="2">  1       -2 0.46888524E+00 0.28755685E+04</pdfrwt>
<totfact> 0.95941936E-02</totfact>
</mgrwt>
</event>
<event>
 4    1  0.1323225E-008  0.2100316E+04  0.7816531E-02  0.8561104E-01
          2   -1    0    0  501    0  0.00000000000E+00  0.00000000000E+00  0.67273082950E+03  0.67273082950E+03  0.00000000000E+00 0.  1.
         -2   -1    0    0    0  501 -0.00000000000E+00 -0.00000000000E+00 -0.16393358743E+04  0.16393358743E+04  0.00000000000E+00 0. -1.
    2000013    1    1    2    0    0  0.61680372447E+02  0.44330612212E+03 -0.48039080481E+03  0.11548160510E+04  0.95000000000E+03 0.  0.
   -2000013    1    1    2    0    0 -0.61680372447E+02 -0.44330612212E+03 -0.48621423998E+03  0.11572506528E+04  0.95000000000E+03 0.  0.
<mgrwt>
<rscale>  0 0.21003160E+04</rscale>
<asrwt>0</asrwt>
<pdfrwt beam="1">  1        2 0.10349705E+00 0.21003160E+04</pdfrwt>
<pdfrwt beam="2">  1       -2 0.25220552E+00 0.21003160E+04</pdfrwt>
<totfact> 0.24721119E+00</totfact>
</mgrwt>
</event>
<event>
 4    1  0.1323225E-008  0.2746992E+04  0.7816531E-02  0.8319917E-01
         -1   -1    0    0    0  501 -0.00000000000E+00  0.00000000000E+00  0.22855212773E+04  0.22855212773E+04  0.00000000000E+00 0. -1.
          1   -1    0    0  501    0  0.00000000000E+00 -0.00000000000E+00 -0.82540961302E+03  0.82540961302E+03  0.00000000000E+00 0.  1.
    2000013    1    1    2    0    0 -0.71353671296E+03 -0.63307338168E+02 -0.47038414567E+02  0.11907371970E+04  0.95000000000E+03 0.  0.
   -2000013    1    1    2    0    0  0.71353671296E+03  0.63307338168E+02  0.15071500789E+04  0.19201936934E+04  0.95000000000E+03 0.  0.
<mgrwt>
<rscale>  0 0.27469920E+04</rscale>
<asrwt>0</asrwt>
<pdfrwt beam="2">  1        1 0.12698610E+00 0.27469920E+04</pdfrwt>
<pdfrwt beam="1">  1       -1 0.35161866E+00 0.27469920E+04</pdfrwt>
<totfact> 0.27703673E-01</totfact>
</mgrwt>
</event>
<event>
 4    1  0.1323225E-008  0.2518411E+04  0.7816531E-02  0.8396456E-01
         -2   -1    0    0    0  501 -0.00000000000E+00  0.00000000000E+00  0.66135859596E+03  0.66135859596E+03  0.00000000000E+00 0. -1.
          2   -1    0    0  501    0  0.00000000000E+00 -0.00000000000E+00 -0.23974864308E+04  0.23974864308E+04  0.00000000000E+00 0.  1.
    2000013    1    1    2    0    0 -0.59257790520E+03  0.52773096158E+03 -0.11488681232E+04  0.16888003156E+04  0.95000000000E+03 0.  0.
   -2000013    1    1    2    0    0  0.59257790520E+03 -0.52773096158E+03 -0.58725971161E+03  0.13700447111E+04  0.95000000000E+03 0.  0.
<mgrwt>
<rscale>  0 0.25184108E+04</rscale>
<asrwt>0</asrwt>
<pdfrwt beam="2">  1        2 0.36884407E+00 0.25184108E+04</pdfrwt>
<pdfrwt beam="1">  1       -2 0.10174748E+00 0.25184108E+04</pdfrwt>
<totfact> 0.28149409E+00</totfact>
</mgrwt>
</event>
<event>
 4    1  0.1323225E-008  0.2372025E+04  0.7816531E-02  0.8450052E-01
          2   -1    0    0  501    0  0.00000000000E+00  0.00000000000E+00  0.11323002244E+04  0.11323002244E+04  0.00000000000E+00 0.  1.
         -2   -1    0    0    0  501 -0.00000000000E+00 -0.00000000000E+00 -0.12422731452E+04  0.12422731452E+04  0.00000000000E+00 0. -1.
    2000013    1    1    2    0    0  0.35569453044E+03  0.57786018975E+03 -0.26422093047E+03  0.11969768995E+04  0.95000000000E+03 0.  0.
   -2000013    1    1    2    0    0 -0.35569453044E+03 -0.57786018975E+03  0.15424800966E+03  0.11775964701E+04  0.95000000000E+03 0.  0.
<mgrwt>
<rscale>  0 0.23720254E+04</rscale>
<asrwt>0</asrwt>
<pdfrwt beam="1">  1        2 0.17420004E+00 0.23720254E+04</pdfrwt>
<pdfrwt beam="2">  1       -2 0.19111894E+00 0.23720254E+04</pdfrwt>
<totfact> 0.28575501E+00</totfact>
</mgrwt>
</event>
<event>
 4    1  0.1323225E-008  0.2336279E+04  0.7816531E-02  0.8463753E-01
          2   -1    0    0  501    0  0.00000000000E+00  0.00000000000E+00  0.15826170965E+04  0.15826170965E+04  0.00000000000E+00 0.  1.
         -2   -1    0    0    0  501 -0.00000000000E+00 -0.00000000000E+00 -0.86221068530E+03  0.86221068530E+03  0.00000000000E+00 0. -1.
    2000013    1    1    2    0    0  0.49378340843E+03 -0.46597526216E+03  0.39482153600E+03  0.12326147187E+04  0.95000000000E+03 0.  0.
   -2000013    1    1    2    0    0 -0.49378340843E+03  0.46597526216E+03  0.32558487516E+03  0.12122130631E+04  0.95000000000E+03 0.  0.
<mgrwt>
<rscale>  0 0.23362786E+04</rscale>
<asrwt>0</asrwt>
<pdfrwt beam="1">  1        2 0.24347955E+00 0.23362786E+04</pdfrwt>
<pdfrwt beam="2">  1       -2 0.13264780E+00 0.23362786E+04</pdfrwt>
<totfact> 0.42544343E+00</totfact>
</mgrwt>
</event>
<event>
 4    1  0.1323225E-008  0.3200175E+04  0.7816531E-02  0.8188771E-01
         -2   -1    0    0    0  501 -0.00000000000E+00  0.00000000000E+00  0.84993415866E+03  0.84993415866E+03  0.00000000000E+00 0. -1.
          2   -1    0    0  501    0  0.00000000000E+00 -0.00000000000E+00 -0.30123266946E+04  0.30123266946E+04  0.00000000000E+00 0.  1.
    2000013    1    1    2    0    0  0.49005271206E+03 -0.11876392111E+04 -0.97921008923E+03  0.18740306708E+04  0.95000000000E+03 0.  0.
   -2000013    1    1    2    0    0 -0.49005271206E+03  0.11876392111E+04 -0.11831824467E+04  0.19882301825E+04  0.95000000000E+03 0.  0.
<mgrwt>
<rscale>  0 0.32001746E+04</rscale>
<asrwt>0</asrwt>
<pdfrwt beam="2">  1        2 0.46343488E+00 0.32001746E+04</pdfrwt>
<pdfrwt beam="1">  1       -2 0.13075910E+00 0.32001746E+04</pdfrwt>
<totfact> 0.61587620E-01</totfact>
</mgrwt>
</event>
<event>
 4    1  0.1323225E-008  0.2189445E+04  0.7816531E-02  0.8522834E-01
          2   -1    0    0  501    0  0.00000000000E+00  0.00000000000E+00  0.21549121505E+04  0.21549121505E+04  0.00000000000E+00 0.  1.
         -2   -1    0    0    0  501 -0.00000000000E+00 -0.00000000000E+00 -0.55613258018E+03  0.55613258018E+03  0.00000000000E+00 0. -1.
    2000013    1    1    2    0    0  0.46999287047E+03  0.15537550124E+03  0.10786987410E+04  0.15202387374E+04  0.95000000000E+03 0.  0.
   -2000013    1    1    2    0    0 -0.46999287047E+03 -0.15537550124E+03  0.52008082924E+03  0.11908059933E+04  0.95000000000E+03 0.  0.
<mgrwt>
<rscale>  0 0.21894445E+04</rscale>
<asrwt>0</asrwt>
<pdfrwt beam="1">  1        2 0.33152494E+00 0.21894445E+04</pdfrwt>
<pdfrwt beam="2">  1       -2 0.85558860E-01 0.21894445E+04</pdfrwt>
<totfact> 0.59438222E+00</totfact>
</mgrwt>
</event>
<event>
 4    1  0.1323225E-008  0.2714727E+04  0.7816531E-02  0.8330242E-01
         -2   -1    0    0    0  501 -0.00000000000E+00  0.00000000000E+00  0.14011763805E+04  0.14011763805E+04  0.00000000000E+00 0. -1.
          2   -1    0    0  501    0  0.00000000000E+00 -0.00000000000E+00 -0.13149202361E+04  0.13149202361E+04  0.00000000000E+00 0.  1.
    2000013    1    1    2    0    0 -0.69929026049E+03 -0.21271666520E+03 -0.59412343481E+03  0.13378108625E+04  0.95000000000E+03 0.  0.
   -2000013    1    1    2    0    0  0.69929026049E+03  0.21271666520E+03  0.68037957916E+03  0.13782857540E+04  0.95000000000E+03 0.  0.
<mgrwt>
<rscale>  0 0.27147266E+04</rscale>
<asrwt>0</asrwt>
<pdfrwt beam="2">  1        2 0.20229542E+00 0.27147266E+04</pdfrwt>
<pdfrwt beam="1">  1       -2 0.21556560E+00 0.27147266E+04</pdfrwt>
<totfact> 0.14975361E+00</totfact>
</mgrwt>
</event>
<event>
 4    1  0.1323225E-008  0.2338498E+04  0.7816531E-02  0.8462895E-01
          2   -1    0    0  501    0  0.00000000000E+00  0.00000000000E+00  0.24710152629E+04  0.24710152629E+04  0.00000000000E+00 0.  1.
         -2   -1    0    0    0  501 -0.00000000000E+00 -0.00000000000E+00 -0.55327172736E+03  0.55327172736E+03  0.00000000000E+00 0. -1.
    2000013    1    1    2    0    0 -0.25582986727E+03 -0.56545360174E+02  0.17726981649E+04  0.20282024264E+04  0.95000000000E+03 0.  0.
   -2000013    1    1    2    0    0  0.25582986727E+03  0.56545360174E+02  0.14504537064E+03  0.99608456383E+03  0.95000000000E+03 0.  0.
<mgrwt>
<rscale>  0 0.23384977E+04</rscale>
<asrwt>0</asrwt>
<pdfrwt beam="1">  1        2 0.38015619E+00 0.23384977E+04</pdfrwt>
<pdfrwt beam="2">  1       -2 0.85118728E-01 0.23384977E+04</pdfrwt>
<totfact> 0.39273435E+00</totfact>
</mgrwt>
</event>
<event>
 4    1  0.1323225E-008  0.2622259E+04  0.7816531E-02  0.8360679E-01
         -1   -1    0    0    0  501 -0.00000000000E+00  0.00000000000E+00  0.13440010078E+04  0.13440010078E+04  0.00000000000E+00 0. -1.
          1   -1    0    0  501    0  0.00000000000E+00 -0.00000000000E+00 -0.12790619469E+04  0.12790619469E+04  0.00000000000E+00 0.  1.
    2000013    1    1    2    0    0 -0.82599494735E+03 -0.14476839686E+03  0.36922539205E+03  0.13198685283E+04  0.95000000000E+03 0.  0.
   -2000013    1    1    2    0    0  0.82599494735E+03  0.14476839686E+03 -0.30428633120E+03  0.13031944264E+04  0.95000000000E+03 0.  0.
<mgrwt>
<rscale>  0 0.26222590E+04</rscale>
<asrwt>0</asrwt>
<pdfrwt beam="2">  1        1 0.19677876E+00 0.26222590E+04</pdfrwt>
<pdfrwt beam="1">  1       -1 0.20676938E+00 0.26222590E+04</pdfrwt>
<totfact> 0.11131896E+00</totfact>
</mgrwt>
</event>
<event>
 4    1  0.1323225E-008  0.3004329E+04  0.7816531E-02  0.8242496E-01
          2   -1    0    0  501    0  0.00000000000E+00  0.00000000000E+00  0.12417511791E+04  0.12417511791E+04  0.00000000000E+00 0.  1.
         -2   -1    0    0    0  501 -0.00000000000E+00 -0.00000000000E+00 -0.18171900489E+04  0.18171900489E+04  0.00000000000E+00 0. -1.
    2000013    1    1    2    0    0 -0.33782326241E+03  0.99100728217E+03  0.22922814791E+03  0.14322239817E+04  0.95000000000E+03 0.  0.
   -2000013    1    1    2    0    0  0.33782326241E+03 -0.99100728217E+03 -0.80466701766E+03  0.16267172463E+04  0.95000000000E+03 0.  0.
<mgrwt>
<rscale>  0 0.30043288E+04</rscale>
<asrwt>0</asrwt>
<pdfrwt beam="1">  1        2 0.19103864E+00 0.30043288E+04</pdfrwt>
<pdfrwt beam="2">  1       -2 0.27956770E+00 0.30043288E+04</pdfrwt>
<totfact> 0.64849945E-01</totfact>
</mgrwt>
</event>
<event>
 4    1  0.1323225E-008  0.1986016E+04  0.7816531E-02  0.8613187E-01
         -2   -1    0    0    0  501 -0.00000000000E+00  0.00000000000E+00  0.19851328600E+04  0.19851328600E+04  0.00000000000E+00 0. -1.
          2   -1    0    0  501    0  0.00000000000E+00 -0.00000000000E+00 -0.49672482315E+03  0.49672482315E+03  0.00000000000E+00 0.  1.
    2000013    1    1    2    0    0 -0.26993469341E+02 -0.23145339499E+03  0.53042172034E+03  0.11127203255E+04  0.95000000000E+03 0.  0.
   -2000013    1    1    2    0    0  0.26993469341E+02  0.23145339499E+03  0.95798631655E+03  0.13691373577E+04  0.95000000000E+03 0.  0.
<mgrwt>
<rscale>  0 0.19860159E+04</rscale>
<asrwt>0</asrwt>
<pdfrwt beam="2">  1        2 0.76419205E-01 0.19860159E+04</pdfrwt>
<pdfrwt beam="1">  1       -2 0.30540505E+00 0.19860159E+04</pdfrwt>
<totfact> 0.17017529E+00</totfact>
</mgrwt>
</event>
<event>
 4    1  0.1323225E-008  0.3144288E+04  0.7816531E-02  0.8203688E-01
         -2   -1    0    0    0  501 -0.00000000000E+00  0.00000000000E+00  0.12106721689E+04  0.12106721689E+04  0.00000000000E+00 0. -1.
          2   -1    0    0  501    0  0.00000000000E+00 -0.00000000000E+00 -0.20415404091E+04  0.20415404091E+04  0.00000000000E+00 0.  1.
    2000013    1    1    2    0    0 -0.58130277077E+03  0.11095776903E+04 -0.42348544128E+03  0.16281632231E+04  0.95000000000E+03 0.  0.
   -2000013    1    1    2    0    0  0.58130277077E+03 -0.11095776903E+04 -0.40738279898E+03  0.16240493549E+04  0.95000000000E+03 0.  0.
<mgrwt>
<rscale>  0 0.31442876E+04</rscale>
<asrwt>0</asrwt>
<pdfrwt beam="2">  1        2 0.31408314E+00 0.31442876E+04</pdfrwt>
<pdfrwt beam="1">  1       -2 0.18625726E+00 0.31442876E+04</pdfrwt>
<totfact> 0.88039960E-01</totfact>
</mgrwt>
</event>
<event>
 4    1  0.1323225E-008  0.2322185E+04  0.7816531E-02  0.8469225E-01
          2   -1    0    0  501    0  0.00000000000E+00  0.00000000000E+00  0.12466875366E+04  0.12466875366E+04  0.00000000000E+00 0.  1.
         -2   -1    0    0    0  501 -0.00000000000E+00 -0.00000000000E+00 -0.10813744603E+04  0.10813744603E+04  0.00000000000E+00 0. -1.
    2000013    1    1    2    0    0  0.87133301817E+02 -0.45754725438E+03  0.56208676283E+03  0.11980748020E+04  0.95000000000E+03 0.  0.
   -2000013    1    1    2    0    0 -0.87133301817E+02  0.45754725438E+03 -0.39677368658E+03  0.11299871949E+04  0.95000000000E+03 0.  0.
<mgrwt>
<rscale>  0 0.23221852E+04</rscale>
<asrwt>0</asrwt>
<pdfrwt beam="1">  1        2 0.19179808E+00 0.23221852E+04</pdfrwt>
<pdfrwt beam="2">  1       -2 0.16636530E+00 0.23221852E+04</pdfrwt>
<totfact> 0.36391417E+00</totfact>
</mgrwt>
</event>
<event>
 4    1  0.1323225E-008  0.2467097E+04  0.7816531E-02  0.8414802E-01
         -2   -1    0    0    0  501 -0.00000000000E+00  0.00000000000E+00  0.23355044358E+04  0.23355044358E+04  0.00000000000E+00 0. -1.
          2   -1    0    0  501    0  0.00000000000E+00 -0.00000000000E+00 -0.65152595457E+03  0.65152595457E+03  0.00000000000E+00 0.  1.
    2000013    1    1    2    0    0  0.50500495531E+03  0.60317364626E+03  0.82125382195E+03  0.14818253246E+04  0.95000000000E+03 0.  0.
   -2000013    1    1    2    0    0 -0.50500495531E+03 -0.60317364626E+03  0.86272465928E+03  0.15052050658E+04  0.95000000000E+03 0.  0.
<mgrwt>
<rscale>  0 0.24670969E+04</rscale>
<asrwt>0</asrwt>
<pdfrwt beam="2">  1        2 0.10023476E+00 0.24670969E+04</pdfrwt>
<pdfrwt beam="1">  1       -2 0.35930837E+00 0.24670969E+04</pdfrwt>
<totfact> 0.54496875E-01</totfact>
</mgrwt>
</event>
<event>
 4    1  0.1323225E-008  0.3010930E+04  0.7816531E-02  0.8240617E-01
         -1   -1    0    0    0  501 -0.00000000000E+00  0.00000000000E+00  0.10632922295E+04  0.10632922295E+04  0.00000000000E+00 0. -1.
          1   -1    0    0  501    0  0.00000000000E+00 -0.00000000000E+00 -0.21315163494E+04  0.21315163494E+04  0.00000000000E+00 0.  1.
    2000013    1    1    2    0    0  0.69838057462E+03  0.10684056734E+02 -0.15272621453E+04  0.19294764151E+04  0.95000000000E+03 0.  0.
   -2000013    1    1    2    0    0 -0.69838057462E+03 -0.10684056734E+02  0.45903802537E+03  0.12653321638E+04  0.95000000000E+03 0.  0.
<mgrwt>
<rscale>  0 0.30109299E+04</rscale>
<asrwt>0</asrwt>
<pdfrwt beam="2">  1        1 0.32792559E+00 0.30109299E+04</pdfrwt>
<pdfrwt beam="1">  1       -1 0.16358342E+00 0.30109299E+04</pdfrwt>
<totfact> 0.56631697E-01</totfact>
</mgrwt>
</event>
<event>
 4    1  0.1323225E-008  0.2018967E+04  0.7816531E-02  0.8597804E-01
         -2   -1    0    0    0  501 -0.00000000000E+00  0.00000000000E+00  0.74891164940E+03  0.74891164940E+03  0.00000000000E+00 0. -1.
          2   -1    0    0  501    0  0.00000000000E+00 -0.00000000000E+00 -0.13607165781E+04  0.13607165781E+04  0.00000000000E+00 0.  1.
    2000013    1    1    2    0    0 -0.11118154007E+03  0.30064362179E+03 -0.42868913616E+03  0.10904229902E+04  0.95000000000E+03 0.  0.
   -2000013    1    1    2    0    0  0.11118154007E+03 -0.30064362179E+03 -0.18311579253E+03  0.10192052373E+04  0.95000000000E+03 0.  0.
<mgrwt>
<rscale>  0 0.20189666E+04</rscale>
<asrwt>0</asrwt>
<pdfrwt beam="2">  1        2 0.20934101E+00 0.20189666E+04</pdfrwt>
<pdfrwt beam="1">  1       -2 0.11521718E+00 0.20189666E+04</pdfrwt>
<totfact> 0.83007856E+00</totfact>
</mgrwt>
</event>
<event>
 4    1  0.1323225E-008  0.2689912E+04  0.7816531E-02  0.8338286E-01
          2   -1    0    0  501    0  0.00000000000E+00  0.00000000000E+00  0.81829679752E+03  0.81829679752E+03  0.00000000000E+00 0.  1.
         -2   -1    0    0    0  501 -0.00000000000E+00 -0.00000000000E+00 -0.22105757011E+04  0.22105757011E+04  0.00000000000E+00 0. -1.
    2000013    1    1    2    0    0  0.99458588334E+02  0.92951783141E+03 -0.49310857317E+03  0.14211092409E+04  0.95000000000E+03 0.  0.
   -2000013    1    1    2    0    0 -0.99458588334E+02 -0.92951783141E+03 -0.89917033038E+03  0.16077632577E+04  0.95000000000E+03 0.  0.
<mgrwt>
<rscale>  0 0.26899123E+04</rscale>
<asrwt>0</asrwt>
<pdfrwt beam="1">  1        2 0.12589182E+00 0.26899123E+04</pdfrwt>
<pdfrwt beam="2">  1       -2 0.34008856E+00 0.26899123E+04</pdfrwt>
<totfact> 0.52697999E-01</totfact>
</mgrwt>
</event>
<event>
 4    1  0.1323225E-008  0.2690330E+04  0.7816531E-02  0.8338149E-01
         -2   -1    0    0    0  501 -0.00000000000E+00  0.00000000000E+00  0.35268684098E+04  0.35268684098E+04  0.00000000000E+00 0. -1.
          2   -1    0    0  501    0  0.00000000000E+00 -0.00000000000E+00 -0.51305257279E+03  0.51305257279E+03  0.00000000000E+00 0.  1.
    2000013    1    1    2    0    0 -0.11052479488E+03 -0.90421388874E+03  0.10898114885E+04  0.17088029633E+04  0.95000000000E+03 0.  0.
   -2000013    1    1    2    0    0  0.11052479488E+03  0.90421388874E+03  0.19240043486E+04  0.23311180194E+04  0.95000000000E+03 0.  0.
<mgrwt>
<rscale>  0 0.26903300E+04</rscale>
<asrwt>0</asrwt>
<pdfrwt beam="2">  1        2 0.78931167E-01 0.26903300E+04</pdfrwt>
<pdfrwt beam="1">  1       -2 0.54259513E+00 0.26903300E+04</pdfrwt>
<totfact> 0.48544531E-02</totfact>
</mgrwt>
</event>
<event>
 4    1  0.1323225E-008  0.2295033E+04  0.7816531E-02  0.8479882E-01
         -2   -1    0    0    0  501 -0.00000000000E+00  0.00000000000E+00  0.23105326260E+04  0.23105326260E+04  0.00000000000E+00 0.  1.
          2   -1    0    0  501    0  0.00000000000E+00 -0.00000000000E+00 -0.56990918515E+03  0.56990918515E+03  0.00000000000E+00 0. -1.
    2000013    1    1    2    0    0 -0.28890792917E+03 -0.31748579405E+03  0.26836051998E+03  0.10764675516E+04  0.95000000000E+03 0.  0.
   -2000013    1    1    2    0    0  0.28890792917E+03  0.31748579405E+03  0.14722629209E+04  0.18039742596E+04  0.95000000000E+03 0.  0.
<mgrwt>
<rscale>  0 0.22950327E+04</rscale>
<asrwt>0</asrwt>
<pdfrwt beam="2">  1        2 0.87678337E-01 0.22950327E+04</pdfrwt>
<pdfrwt beam="1">  1       -2 0.35546655E+00 0.22950327E+04</pdfrwt>
<totfact> 0.68842668E-01</totfact>
</mgrwt>
</event>
<event>
 4    1  0.1323225E-008  0.3350017E+04  0.7816531E-02  0.8150284E-01
         -1   -1    0    0    0  501 -0.00000000000E+00  0.00000000000E+00  0.17687925756E+04  0.17687925756E+04  0.00000000000E+00 0. -1.
          1   -1    0    0  501    0  0.00000000000E+00 -0.00000000000E+00 -0.15861969401E+04  0.15861969401E+04  0.00000000000E+00 0.  1.
    2000013    1    1    2    0    0  0.39368808894E+03  0.12409449403E+04 -0.36568939221E+03  0.16526231838E+04  0.95000000000E+03 0.  0.
   -2000013    1    1    2    0    0 -0.39368808894E+03 -0.12409449403E+04  0.54828502770E+03  0.17023663318E+04  0.95000000000E+03 0.  0.
<mgrwt>
<rscale>  0 0.33500169E+04</rscale>
<asrwt>0</asrwt>
<pdfrwt beam="2">  1        1 0.24403030E+00 0.33500169E+04</pdfrwt>
<pdfrwt beam="1">  1       -1 0.27212194E+00 0.33500169E+04</pdfrwt>
<totfact> 0.23585522E-01</totfact>
</mgrwt>
</event>
<event>
 4    1  0.1323225E-008  0.3273140E+04  0.7816531E-02  0.8169764E-01
          2   -1    0    0  501    0  0.00000000000E+00  0.00000000000E+00  0.20191999015E+04  0.20191999015E+04  0.00000000000E+00 0.  1.
         -2   -1    0    0    0  501 -0.00000000000E+00 -0.00000000000E+00 -0.13264467680E+04  0.13264467680E+04  0.00000000000E+00 0. -1.
    2000013    1    1    2    0    0  0.13038563554E+04  0.25633003866E+03  0.44917630060E+03  0.16941091563E+04  0.95000000000E+03 0.  0.
   -2000013    1    1    2    0    0 -0.13038563554E+04 -0.25633003866E+03  0.24357683289E+03  0.16515375133E+04  0.95000000000E+03 0.  0.
<mgrwt>
<rscale>  0 0.32731399E+04</rscale>
<asrwt>0</asrwt>
<pdfrwt beam="1">  1        2 0.31064614E+00 0.32731399E+04</pdfrwt>
<pdfrwt beam="2">  1       -2 0.20406873E+00 0.32731399E+04</pdfrwt>
<totfact> 0.68260877E-01</totfact>
</mgrwt>
</event>
<event>
 4    1  0.1323225E-008  0.3223560E+04  0.7816531E-02  0.8182623E-01
         -1   -1    0    0    0  501 -0.00000000000E+00  0.00000000000E+00  0.18616315595E+04  0.18616315595E+04  0.00000000000E+00 0. -1.
          1   -1    0    0  501    0  0.00000000000E+00 -0.00000000000E+00 -0.13954608970E+04  0.13954608970E+04  0.00000000000E+00 0.  1.
    2000013    1    1    2    0    0 -0.45110603296E+03  0.90487034013E+03 -0.59584323210E+03  0.15099060046E+04  0.95000000000E+03 0.  0.
   -2000013    1    1    2    0    0  0.45110603296E+03 -0.90487034013E+03  0.10620138946E+04  0.17471864519E+04  0.95000000000E+03 0.  0.
<mgrwt>
<rscale>  0 0.32235596E+04</rscale>
<asrwt>0</asrwt>
<pdfrwt beam="2">  1        1 0.21468629E+00 0.32235596E+04</pdfrwt>
<pdfrwt beam="1">  1       -1 0.28640486E+00 0.32235596E+04</pdfrwt>
<totfact> 0.26139423E-01</totfact>
</mgrwt>
</event>
<event>
 4    1  0.1323225E-008  0.4626839E+04  0.7816531E-02  0.7888800E-01
          2   -1    0    0  501    0  0.00000000000E+00  0.00000000000E+00  0.32707055404E+04  0.32707055404E+04  0.00000000000E+00 0.  1.
         -2   -1    0    0    0  501 -0.00000000000E+00 -0.00000000000E+00 -0.16363163238E+04  0.16363163238E+04  0.00000000000E+00 0. -1.
    2000013    1    1    2    0    0  0.64712147320E+03  0.13582443716E+04 -0.75078472038E+03  0.19312616784E+04  0.95000000000E+03 0.  0.
   -2000013    1    1    2    0    0 -0.64712147320E+03 -0.13582443716E+04  0.23851739370E+04  0.29757601858E+04  0.95000000000E+03 0.  0.
<mgrwt>
<rscale>  0 0.46268386E+04</rscale>
<asrwt>0</asrwt>
<pdfrwt beam="1">  1        2 0.50318547E+00 0.46268386E+04</pdfrwt>
<pdfrwt beam="2">  1       -2 0.25174097E+00 0.46268386E+04</pdfrwt>
<totfact> 0.54715804E-02</totfact>
</mgrwt>
</event>
<event>
 4    1  0.1323225E-008  0.2261632E+04  0.7816531E-02  0.8493205E-01
         -2   -1    0    0    0  501 -0.00000000000E+00  0.00000000000E+00  0.60381278267E+03  0.60381278267E+03  0.00000000000E+00 0. -1.
          2   -1    0    0  501    0  0.00000000000E+00 -0.00000000000E+00 -0.21177833848E+04  0.21177833848E+04  0.00000000000E+00 0.  1.
    2000013    1    1    2    0    0  0.44679290581E+03 -0.40345734885E+03 -0.61540069858E+03  0.12820373446E+04  0.95000000000E+03 0.  0.
   -2000013    1    1    2    0    0 -0.44679290581E+03  0.40345734885E+03 -0.89856990352E+03  0.14395588229E+04  0.95000000000E+03 0.  0.
<mgrwt>
<rscale>  0 0.22616319E+04</rscale>
<asrwt>0</asrwt>
<pdfrwt beam="2">  1        2 0.32581283E+00 0.22616319E+04</pdfrwt>
<pdfrwt beam="1">  1       -2 0.92894275E-01 0.22616319E+04</pdfrwt>
<totfact> 0.51283965E+00</totfact>
</mgrwt>
</event>
<event>
 4    1  0.1323225E-008  0.2045576E+04  0.7816531E-02  0.8585604E-01
          2   -1    0    0  501    0  0.00000000000E+00  0.00000000000E+00  0.71905155849E+03  0.71905155849E+03  0.00000000000E+00 0.  1.
         -2   -1    0    0    0  501 -0.00000000000E+00 -0.00000000000E+00 -0.14548265555E+04  0.14548265555E+04  0.00000000000E+00 0. -1.
    2000013    1    1    2    0    0 -0.31804623634E+03  0.46524693325E+02 -0.58116743086E+03  0.11591261960E+04  0.95000000000E+03 0.  0.
   -2000013    1    1    2    0    0  0.31804623634E+03 -0.46524693325E+02 -0.15460756613E+03  0.10147519180E+04  0.95000000000E+03 0.  0.
<mgrwt>
<rscale>  0 0.20455760E+04</rscale>
<asrwt>0</asrwt>
<pdfrwt beam="1">  1        2 0.11062332E+00 0.20455760E+04</pdfrwt>
<pdfrwt beam="2">  1       -2 0.22381947E+00 0.20455760E+04</pdfrwt>
<totfact> 0.34248205E+00</totfact>
</mgrwt>
</event>
<event>
 4    1  0.1323225E-008  0.2035444E+04  0.7816531E-02  0.8590227E-01
         -1   -1    0    0    0  501 -0.00000000000E+00  0.00000000000E+00  0.79219924818E+03  0.79219924818E+03  0.00000000000E+00 0. -1.
          1   -1    0    0  501    0  0.00000000000E+00 -0.00000000000E+00 -0.13074459221E+04  0.13074459221E+04  0.00000000000E+00 0.  1.
    2000013    1    1    2    0    0  0.33561206825E+03  0.69782642902E+02 -0.38709148601E+03  0.10815936835E+04  0.95000000000E+03 0.  0.
   -2000013    1    1    2    0    0 -0.33561206825E+03 -0.69782642902E+02 -0.12815518793E+03  0.10180514868E+04  0.95000000000E+03 0.  0.
<mgrwt>
<rscale>  0 0.20354436E+04</rscale>
<asrwt>0</asrwt>
<pdfrwt beam="2">  1        1 0.20114552E+00 0.20354436E+04</pdfrwt>
<pdfrwt beam="1">  1       -1 0.12187681E+00 0.20354436E+04</pdfrwt>
<totfact> 0.49244465E+00</totfact>
</mgrwt>
</event>
<event>
 4    1  0.1323225E-008  0.3566670E+04  0.7816531E-02  0.8098169E-01
          2   -1    0    0  501    0  0.00000000000E+00  0.00000000000E+00  0.25486898164E+04  0.25486898164E+04  0.00000000000E+00 0.  1.
         -2   -1    0    0    0  501 -0.00000000000E+00 -0.00000000000E+00 -0.12478112996E+04  0.12478112996E+04  0.00000000000E+00 0. -1.
    2000013    1    1    2    0    0  0.84818760370E+03  0.12425525273E+04  0.77828252612E+03  0.19420563032E+04  0.95000000000E+03 0.  0.
   -2000013    1    1    2    0    0 -0.84818760370E+03 -0.12425525273E+04  0.52259599073E+03  0.18544448128E+04  0.95000000000E+03 0.  0.
<mgrwt>
<rscale>  0 0.35666701E+04</rscale>
<asrwt>0</asrwt>
<pdfrwt beam="1">  1        2 0.39210613E+00 0.35666701E+04</pdfrwt>
<pdfrwt beam="2">  1       -2 0.19197097E+00 0.35666701E+04</pdfrwt>
<totfact> 0.40069354E-01</totfact>
</mgrwt>
</event>
<event>
 4    1  0.1323225E-008  0.2432548E+04  0.7816531E-02  0.8427418E-01
         -2   -1    0    0    0  501 -0.00000000000E+00  0.00000000000E+00  0.54161637899E+03  0.54161637899E+03  0.00000000000E+00 0. -1.
          2   -1    0    0  501    0  0.00000000000E+00 -0.00000000000E+00 -0.27313107145E+04  0.27313107145E+04  0.00000000000E+00 0.  1.
    2000013    1    1    2    0    0  0.19157907972E+03  0.68536491744E+03 -0.14518287495E+04  0.18752957985E+04  0.95000000000E+03 0.  0.
   -2000013    1    1    2    0    0 -0.19157907972E+03 -0.68536491744E+03 -0.73786558599E+03  0.13976312950E+04  0.95000000000E+03 0.  0.
<mgrwt>
<rscale>  0 0.24325481E+04</rscale>
<asrwt>0</asrwt>
<pdfrwt beam="2">  1        2 0.42020165E+00 0.24325481E+04</pdfrwt>
<pdfrwt beam="1">  1       -2 0.83325597E-01 0.24325481E+04</pdfrwt>
<totfact> 0.28757933E+00</totfact>
</mgrwt>
</event>
<event>
 4    1  0.1323225E-008  0.2875796E+04  0.7816531E-02  0.8280115E-01
          2   -1    0    0  501    0  0.00000000000E+00  0.00000000000E+00  0.13606753108E+04  0.13606753108E+04  0.00000000000E+00 0.  1.
         -2   -1    0    0    0  501 -0.00000000000E+00 -0.00000000000E+00 -0.15195037626E+04  0.15195037626E+04  0.00000000000E+00 0. -1.
    2000013    1    1    2    0    0  0.88358403784E+03 -0.55708110364E+03 -0.35184190525E+03  0.14551126535E+04  0.95000000000E+03 0.  0.
   -2000013    1    1    2    0    0 -0.88358403784E+03  0.55708110364E+03  0.19301345351E+03  0.14250664199E+04  0.95000000000E+03 0.  0.
<mgrwt>
<rscale>  0 0.28757964E+04</rscale>
<asrwt>0</asrwt>
<pdfrwt beam="1">  1        2 0.20933466E+00 0.28757964E+04</pdfrwt>
<pdfrwt beam="2">  1       -2 0.23376981E+00 0.28757964E+04</pdfrwt>
<totfact> 0.10676104E+00</totfact>
</mgrwt>
</event>
<event>
 4    1  0.1323225E-008  0.2107353E+04  0.7816531E-02  0.8558011E-01
         -2   -1    0    0    0  501 -0.00000000000E+00  0.00000000000E+00  0.78630617151E+03  0.78630617151E+03  0.00000000000E+00 0. -1.
          2   -1    0    0  501    0  0.00000000000E+00 -0.00000000000E+00 -0.14119620846E+04  0.14119620846E+04  0.00000000000E+00 0.  1.
    2000013    1    1    2    0    0 -0.39478244959E+03  0.19842998368E+03 -0.42948674979E+03  0.11323367473E+04  0.95000000000E+03 0.  0.
   -2000013    1    1    2    0    0  0.39478244959E+03 -0.19842998368E+03 -0.19616916329E+03  0.10659315088E+04  0.95000000000E+03 0.  0.
<mgrwt>
<rscale>  0 0.21073533E+04</rscale>
<asrwt>0</asrwt>
<pdfrwt beam="2">  1        2 0.21722493E+00 0.21073533E+04</pdfrwt>
<pdfrwt beam="1">  1       -2 0.12097018E+00 0.21073533E+04</pdfrwt>
<totfact> 0.68290712E+00</totfact>
</mgrwt>
</event>
<event>
 4    1  0.1323225E-008  0.3147397E+04  0.7816531E-02  0.8202849E-01
          2   -1    0    0  501    0  0.00000000000E+00  0.00000000000E+00  0.89921859400E+03  0.89921859400E+03  0.00000000000E+00 0.  1.
         -2   -1    0    0    0  501 -0.00000000000E+00 -0.00000000000E+00 -0.27540870674E+04  0.27540870674E+04  0.00000000000E+00 0. -1.
    2000013    1    1    2    0    0  0.27612358313E+03  0.97890045886E+03 -0.74835392880E+02  0.13937685165E+04  0.95000000000E+03 0.  0.
   -2000013    1    1    2    0    0 -0.27612358313E+03 -0.97890045886E+03 -0.17800330805E+04  0.22595371449E+04  0.95000000000E+03 0.  0.
<mgrwt>
<rscale>  0 0.31473966E+04</rscale>
<asrwt>0</asrwt>
<pdfrwt beam="1">  1        2 0.13834132E+00 0.31473966E+04</pdfrwt>
<pdfrwt beam="2">  1       -2 0.42370570E+00 0.31473966E+04</pdfrwt>
<totfact> 0.12852186E-01</totfact>
</mgrwt>
</event>
<event>
 4    1  0.1323225E-008  0.4789701E+04  0.7816531E-02  0.7861793E-01
          2   -1    0    0  501    0  0.00000000000E+00  0.00000000000E+00  0.34762481679E+04  0.34762481679E+04  0.00000000000E+00 0.  1.
         -2   -1    0    0    0  501 -0.00000000000E+00 -0.00000000000E+00 -0.16498561834E+04  0.16498561834E+04  0.00000000000E+00 0. -1.
    2000013    1    1    2    0    0  0.35241894863E+03 -0.19201569356E+04 -0.16853957211E+03  0.21776380232E+04  0.95000000000E+03 0.  0.
   -2000013    1    1    2    0    0 -0.35241894863E+03  0.19201569356E+04  0.19949315566E+04  0.29484663282E+04  0.95000000000E+03 0.  0.
<mgrwt>
<rscale>  0 0.47897013E+04</rscale>
<asrwt>0</asrwt>
<pdfrwt beam="1">  1        2 0.53480741E+00 0.47897013E+04</pdfrwt>
<pdfrwt beam="2">  1       -2 0.25382403E+00 0.47897013E+04</pdfrwt>
<totfact> 0.37991882E-02</totfact>
</mgrwt>
</event>
<event>
 4    1  0.1323225E-008  0.2529331E+04  0.7816531E-02  0.8392610E-01
          2   -1    0    0  501    0  0.00000000000E+00  0.00000000000E+00  0.96539708037E+03  0.96539708037E+03  0.00000000000E+00 0.  1.
         -2   -1    0    0    0  501 -0.00000000000E+00 -0.00000000000E+00 -0.16567062298E+04  0.16567062298E+04  0.00000000000E+00 0. -1.
    2000013    1    1    2    0    0 -0.52844156215E+03  0.63384049953E+03 -0.47627232832E+03  0.13454886080E+04  0.95000000000E+03 0.  0.
   -2000013    1    1    2    0    0  0.52844156215E+03 -0.63384049953E+03 -0.21503682111E+03  0.12766147022E+04  0.95000000000E+03 0.  0.
<mgrwt>
<rscale>  0 0.25293314E+04</rscale>
<asrwt>0</asrwt>
<pdfrwt beam="1">  1        2 0.14852263E+00 0.25293314E+04</pdfrwt>
<pdfrwt beam="2">  1       -2 0.25487788E+00 0.25293314E+04</pdfrwt>
<totfact> 0.14152734E+00</totfact>
</mgrwt>
</event>
<event>
 4    1  0.1323225E-008  0.2612904E+04  0.7816531E-02  0.8363831E-01
         -2   -1    0    0    0  501 -0.00000000000E+00  0.00000000000E+00  0.11475913697E+04  0.11475913697E+04  0.00000000000E+00 0. -1.
          2   -1    0    0  501    0  0.00000000000E+00 -0.00000000000E+00 -0.14873038961E+04  0.14873038961E+04  0.00000000000E+00 0.  1.
    2000013    1    1    2    0    0  0.43733063199E+03  0.77576689873E+03 -0.62922508734E+02  0.13036608474E+04  0.95000000000E+03 0.  0.
   -2000013    1    1    2    0    0 -0.43733063199E+03 -0.77576689873E+03 -0.27679001772E+03  0.13312344184E+04  0.95000000000E+03 0.  0.
<mgrwt>
<rscale>  0 0.26129042E+04</rscale>
<asrwt>0</asrwt>
<pdfrwt beam="2">  1        2 0.22881598E+00 0.26129042E+04</pdfrwt>
<pdfrwt beam="1">  1       -2 0.17655252E+00 0.26129042E+04</pdfrwt>
<totfact> 0.21854250E+00</totfact>
</mgrwt>
</event>
<event>
 4    1  0.1323225E-008  0.2500189E+04  0.7816531E-02  0.8402918E-01
          2   -1    0    0  501    0  0.00000000000E+00  0.00000000000E+00  0.97448808931E+03  0.97448808931E+03  0.00000000000E+00 0.  1.
         -2   -1    0    0    0  501 -0.00000000000E+00 -0.00000000000E+00 -0.16036486399E+04  0.16036486399E+04  0.00000000000E+00 0. -1.
    2000013    1    1    2    0    0 -0.44290252341E+03 -0.46877357025E+03 -0.82428328540E+03  0.14134547181E+04  0.95000000000E+03 0.  0.
   -2000013    1    1    2    0    0  0.44290252341E+03  0.46877357025E+03  0.19512273483E+03  0.11646820111E+04  0.95000000000E+03 0.  0.
<mgrwt>
<rscale>  0 0.25001892E+04</rscale>
<asrwt>0</asrwt>
<pdfrwt beam="1">  1        2 0.14992124E+00 0.25001892E+04</pdfrwt>
<pdfrwt beam="2">  1       -2 0.24671518E+00 0.25001892E+04</pdfrwt>
<totfact> 0.15709257E+00</totfact>
</mgrwt>
</event>
<event>
 4    1  0.1323225E-008  0.3011049E+04  0.7816531E-02  0.8240583E-01
          2   -1    0    0  501    0  0.00000000000E+00  0.00000000000E+00  0.23929840300E+04  0.23929840300E+04  0.00000000000E+00 0.  1.
         -2   -1    0    0    0  501 -0.00000000000E+00 -0.00000000000E+00 -0.94718755999E+03  0.94718755999E+03  0.00000000000E+00 0. -1.
    2000013    1    1    2    0    0 -0.10428745520E+04  0.52398421644E+03  0.77198311161E+03  0.16913322308E+04  0.95000000000E+03 0.  0.
   -2000013    1    1    2    0    0  0.10428745520E+04 -0.52398421644E+03  0.67381335837E+03  0.16488393592E+04  0.95000000000E+03 0.  0.
<mgrwt>
<rscale>  0 0.30110495E+04</rscale>
<asrwt>0</asrwt>
<pdfrwt beam="1">  1        2 0.36815139E+00 0.30110495E+04</pdfrwt>
<pdfrwt beam="2">  1       -2 0.14572116E+00 0.30110495E+04</pdfrwt>
<totfact> 0.11097433E+00</totfact>
</mgrwt>
</event>
<event>
 4    1  0.1323225E-008  0.4252358E+04  0.7816531E-02  0.7955487E-01
         -2   -1    0    0    0  501 -0.00000000000E+00  0.00000000000E+00  0.20950728829E+04  0.20950728829E+04  0.00000000000E+00 0. -1.
          2   -1    0    0  501    0  0.00000000000E+00 -0.00000000000E+00 -0.21577464612E+04  0.21577464612E+04  0.00000000000E+00 0.  1.
    2000013    1    1    2    0    0 -0.25015003037E+03  0.65990584848E+03  0.17352313789E+04  0.21003758485E+04  0.95000000000E+03 0.  0.
   -2000013    1    1    2    0    0  0.25015003037E+03 -0.65990584848E+03 -0.17979049573E+04  0.21524434956E+04  0.95000000000E+03 0.  0.
<mgrwt>
<rscale>  0 0.42523575E+04</rscale>
<asrwt>0</asrwt>
<pdfrwt beam="2">  1        2 0.33196099E+00 0.42523575E+04</pdfrwt>
<pdfrwt beam="1">  1       -2 0.32231891E+00 0.42523575E+04</pdfrwt>
<totfact> 0.97666894E-02</totfact>
</mgrwt>
</event>
<event>
 4    1  0.1323225E-008  0.2727698E+04  0.7816531E-02  0.8326074E-01
          2   -1    0    0  501    0  0.00000000000E+00  0.00000000000E+00  0.19627405950E+04  0.19627405950E+04  0.00000000000E+00 0.  1.
         -2   -1    0    0    0  501 -0.00000000000E+00 -0.00000000000E+00 -0.94769737052E+03  0.94769737052E+03  0.00000000000E+00 0. -1.
    2000013    1    1    2    0    0 -0.94085072298E+03  0.17875994471E+03  0.29298173677E+03  0.13803961384E+04  0.95000000000E+03 0.  0.
   -2000013    1    1    2    0    0  0.94085072298E+03 -0.17875994471E+03  0.72206148772E+03  0.15300418271E+04  0.95000000000E+03 0.  0.
<mgrwt>
<rscale>  0 0.27276980E+04</rscale>
<asrwt>0</asrwt>
<pdfrwt beam="1">  1        2 0.30196009E+00 0.27276980E+04</pdfrwt>
<pdfrwt beam="2">  1       -2 0.14579960E+00 0.27276980E+04</pdfrwt>
<totfact> 0.19812831E+00</totfact>
</mgrwt>
</event>
<event>
 4    1  0.1323225E-008  0.2640708E+04  0.7816531E-02  0.8354504E-01
          2   -1    0    0  501    0  0.00000000000E+00  0.00000000000E+00  0.13006229880E+04  0.13006229880E+04  0.00000000000E+00 0.  1.
         -2   -1    0    0    0  501 -0.00000000000E+00 -0.00000000000E+00 -0.13403846901E+04  0.13403846901E+04  0.00000000000E+00 0. -1.
    2000013    1    1    2    0    0 -0.87588909215E+03  0.23555486648E+03 -0.15468241887E+03  0.13225333446E+04  0.95000000000E+03 0.  0.
   -2000013    1    1    2    0    0  0.87588909215E+03 -0.23555486648E+03  0.11492071681E+03  0.13184743335E+04  0.95000000000E+03 0.  0.
<mgrwt>
<rscale>  0 0.26407083E+04</rscale>
<asrwt>0</asrwt>
<pdfrwt beam="1">  1        2 0.20009585E+00 0.26407083E+04</pdfrwt>
<pdfrwt beam="2">  1       -2 0.20621303E+00 0.26407083E+04</pdfrwt>
<totfact> 0.17641233E+00</totfact>
</mgrwt>
</event>
<event>
 4    1  0.1323225E-008  0.2571084E+04  0.7816531E-02  0.8378090E-01
         -2   -1    0    0    0  501 -0.00000000000E+00  0.00000000000E+00  0.11101669830E+04  0.11101669830E+04  0.00000000000E+00 0. -1.
          2   -1    0    0  501    0  0.00000000000E+00 -0.00000000000E+00 -0.14886208786E+04  0.14886208786E+04  0.00000000000E+00 0.  1.
    2000013    1    1    2    0    0  0.39188758520E+03 -0.76969573879E+03 -0.25402970653E+03  0.13088309675E+04  0.95000000000E+03 0.  0.
   -2000013    1    1    2    0    0 -0.39188758520E+03  0.76969573879E+03 -0.12442418902E+03  0.12899568941E+04  0.95000000000E+03 0.  0.
<mgrwt>
<rscale>  0 0.25710836E+04</rscale>
<asrwt>0</asrwt>
<pdfrwt beam="2">  1        2 0.22901860E+00 0.25710836E+04</pdfrwt>
<pdfrwt beam="1">  1       -2 0.17079492E+00 0.25710836E+04</pdfrwt>
<totfact> 0.24035647E+00</totfact>
</mgrwt>
</event>
<event>
 4    1  0.1323225E-008  0.1986756E+04  0.7816531E-02  0.8612838E-01
          2   -1    0    0  501    0  0.00000000000E+00  0.00000000000E+00  0.29326809098E+04  0.29326809098E+04  0.00000000000E+00 0.  1.
         -2   -1    0    0    0  501 -0.00000000000E+00 -0.00000000000E+00 -0.33648381754E+03  0.33648381754E+03  0.00000000000E+00 0. -1.
    2000013    1    1    2    0    0  0.72620100595E+02 -0.27955364256E+03  0.12494037663E+04  0.15959115544E+04  0.95000000000E+03 0.  0.
   -2000013    1    1    2    0    0 -0.72620100595E+02  0.27955364256E+03  0.13467933260E+04  0.16732531730E+04  0.95000000000E+03 0.  0.
<mgrwt>
<rscale>  0 0.19867558E+04</rscale>
<asrwt>0</asrwt>
<pdfrwt beam="1">  1        2 0.45118166E+00 0.19867558E+04</pdfrwt>
<pdfrwt beam="2">  1       -2 0.51766743E-01 0.19867558E+04</pdfrwt>
<totfact> 0.62995599E+00</totfact>
</mgrwt>
</event>
<event>
 4    1  0.1323225E-008  0.2216719E+04  0.7816531E-02  0.8511501E-01
          1   -1    0    0  501    0  0.00000000000E+00  0.00000000000E+00  0.25639857065E+04  0.25639857065E+04  0.00000000000E+00 0.  1.
         -1   -1    0    0    0  501 -0.00000000000E+00 -0.00000000000E+00 -0.47912149601E+03  0.47912149601E+03  0.00000000000E+00 0. -1.
    2000013    1    1    2    0    0  0.51290432655E+02 -0.47594352858E+03  0.14695636207E+04  0.18141858191E+04  0.95000000000E+03 0.  0.
   -2000013    1    1    2    0    0 -0.51290432655E+02  0.47594352858E+03  0.61530058979E+03  0.12289213834E+04  0.95000000000E+03 0.  0.
<mgrwt>
<rscale>  0 0.22167189E+04</rscale>
<asrwt>0</asrwt>
<pdfrwt beam="1">  1        1 0.39445933E+00 0.22167189E+04</pdfrwt>
<pdfrwt beam="2">  1       -1 0.73711001E-01 0.22167189E+04</pdfrwt>
<totfact> 0.20637493E+00</totfact>
</mgrwt>
</event>
<event>
 4    1  0.1323225E-008  0.2574858E+04  0.7816531E-02  0.8376792E-01
          1   -1    0    0  501    0  0.00000000000E+00  0.00000000000E+00  0.13445986842E+04  0.13445986842E+04  0.00000000000E+00 0.  1.
         -1   -1    0    0    0  501 -0.00000000000E+00 -0.00000000000E+00 -0.12326898943E+04  0.12326898943E+04  0.00000000000E+00 0. -1.
    2000013    1    1    2    0    0  0.51020915063E+03  0.66895531865E+03  0.27331974340E+03  0.12980825389E+04  0.95000000000E+03 0.  0.
   -2000013    1    1    2    0    0 -0.51020915063E+03 -0.66895531865E+03 -0.16141095360E+03  0.12792060396E+04  0.95000000000E+03 0.  0.
<mgrwt>
<rscale>  0 0.25748578E+04</rscale>
<asrwt>0</asrwt>
<pdfrwt beam="1">  1        1 0.20686134E+00 0.25748578E+04</pdfrwt>
<pdfrwt beam="2">  1       -1 0.18964460E+00 0.25748578E+04</pdfrwt>
<totfact> 0.13188809E+00</totfact>
</mgrwt>
</event>
<event>
 4    1  0.1323225E-008  0.2105002E+04  0.7816531E-02  0.8559043E-01
         -2   -1    0    0    0  501 -0.00000000000E+00  0.00000000000E+00  0.12204012546E+04  0.12204012546E+04  0.00000000000E+00 0. -1.
          2   -1    0    0  501    0  0.00000000000E+00 -0.00000000000E+00 -0.90770016858E+03  0.90770016858E+03  0.00000000000E+00 0.  1.
    2000013    1    1    2    0    0  0.30175839282E+03  0.16008492926E+03 -0.14452767507E+03  0.10198399684E+04  0.95000000000E+03 0.  0.
   -2000013    1    1    2    0    0 -0.30175839282E+03 -0.16008492926E+03  0.45722876104E+03  0.11082614548E+04  0.95000000000E+03 0.  0.
<mgrwt>
<rscale>  0 0.21050021E+04</rscale>
<asrwt>0</asrwt>
<pdfrwt beam="2">  1        2 0.13964618E+00 0.21050021E+04</pdfrwt>
<pdfrwt beam="1">  1       -2 0.18775404E+00 0.21050021E+04</pdfrwt>
<totfact> 0.42818765E+00</totfact>
</mgrwt>
</event>
<event>
 4    1  0.1323225E-008  0.2473526E+04  0.7816531E-02  0.8412478E-01
          2   -1    0    0  501    0  0.00000000000E+00  0.00000000000E+00  0.77291595713E+03  0.77291595713E+03  0.00000000000E+00 0.  1.
         -2   -1    0    0    0  501 -0.00000000000E+00 -0.00000000000E+00 -0.19789771718E+04  0.19789771718E+04  0.00000000000E+00 0. -1.
    2000013    1    1    2    0    0 -0.79141228656E+03 -0.27364801824E+02 -0.60402268189E+03  0.13763813570E+04  0.95000000000E+03 0.  0.
   -2000013    1    1    2    0    0  0.79141228656E+03  0.27364801824E+02 -0.60203853276E+03  0.13755117719E+04  0.95000000000E+03 0.  0.
<mgrwt>
<rscale>  0 0.24735263E+04</rscale>
<asrwt>0</asrwt>
<pdfrwt beam="1">  1        2 0.11891015E+00 0.24735263E+04</pdfrwt>
<pdfrwt beam="2">  1       -2 0.30445802E+00 0.24735263E+04</pdfrwt>
<totfact> 0.96200981E-01</totfact>
</mgrwt>
</event>
<event>
 4    1  0.1323225E-008  0.1922451E+04  0.7816531E-02  0.8643761E-01
         -2   -1    0    0    0  501 -0.00000000000E+00  0.00000000000E+00  0.12095726621E+04  0.12095726621E+04  0.00000000000E+00 0. -1.
          2   -1    0    0  501    0  0.00000000000E+00 -0.00000000000E+00 -0.76386885302E+03  0.76386885302E+03  0.00000000000E+00 0.  1.
    2000013    1    1    2    0    0 -0.13325158875E+03  0.44686360671E+02  0.18050205317E+03  0.97715599979E+03  0.95000000000E+03 0.  0.
   -2000013    1    1    2    0    0  0.13325158875E+03 -0.44686360671E+02  0.26520175592E+03  0.99628551534E+03  0.95000000000E+03 0.  0.
<mgrwt>
<rscale>  0 0.19224514E+04</rscale>
<asrwt>0</asrwt>
<pdfrwt beam="2">  1        2 0.11751829E+00 0.19224514E+04</pdfrwt>
<pdfrwt beam="1">  1       -2 0.18608810E+00 0.19224514E+04</pdfrwt>
<totfact> 0.56351032E+00</totfact>
</mgrwt>
</event>
<event>
 4    1  0.1323225E-008  0.2985308E+04  0.7816531E-02  0.8247939E-01
          2   -1    0    0  501    0  0.00000000000E+00  0.00000000000E+00  0.23510233811E+04  0.23510233811E+04  0.00000000000E+00 0.  1.
         -2   -1    0    0    0  501 -0.00000000000E+00 -0.00000000000E+00 -0.94767901113E+03  0.94767901113E+03  0.00000000000E+00 0. -1.
    2000013    1    1    2    0    0  0.95805217701E+03 -0.44546259866E+03  0.19625495701E+03  0.14343350058E+04  0.95000000000E+03 0.  0.
   -2000013    1    1    2    0    0 -0.95805217701E+03  0.44546259866E+03  0.12070894129E+04  0.18643673864E+04  0.95000000000E+03 0.  0.
<mgrwt>
<rscale>  0 0.29853077E+04</rscale>
<asrwt>0</asrwt>
<pdfrwt beam="1">  1        2 0.36169590E+00 0.29853077E+04</pdfrwt>
<pdfrwt beam="2">  1       -2 0.14579677E+00 0.29853077E+04</pdfrwt>
<totfact> 0.11736793E+00</totfact>
</mgrwt>
</event>
<event>
 4    1  0.1323225E-008  0.1949585E+04  0.7816531E-02  0.8630561E-01
          2   -1    0    0  501    0  0.00000000000E+00  0.00000000000E+00  0.22765839975E+04  0.22765839975E+04  0.00000000000E+00 0.  1.
         -2   -1    0    0    0  501 -0.00000000000E+00 -0.00000000000E+00 -0.41738862432E+03  0.41738862432E+03  0.00000000000E+00 0. -1.
    2000013    1    1    2    0    0  0.19389168044E+03  0.32276630796E+02  0.10613024584E+04  0.14378799230E+04  0.95000000000E+03 0.  0.
   -2000013    1    1    2    0    0 -0.19389168044E+03 -0.32276630796E+02  0.79789291472E+03  0.12560926988E+04  0.95000000000E+03 0.  0.
<mgrwt>
<rscale>  0 0.19495848E+04</rscale>
<asrwt>0</asrwt>
<pdfrwt beam="1">  1        2 0.35024368E+00 0.19495848E+04</pdfrwt>
<pdfrwt beam="2">  1       -2 0.64213636E-01 0.19495848E+04</pdfrwt>
<totfact> 0.97738076E+00</totfact>
</mgrwt>
</event>
<event>
 4    1  0.1323225E-008  0.2351693E+04  0.7816531E-02  0.8457814E-01
         -2   -1    0    0    0  501 -0.00000000000E+00  0.00000000000E+00  0.17106882298E+04  0.17106882298E+04  0.00000000000E+00 0. -1.
          2   -1    0    0  501    0  0.00000000000E+00 -0.00000000000E+00 -0.80822173872E+03  0.80822173872E+03  0.00000000000E+00 0.  1.
    2000013    1    1    2    0    0  0.44926654884E+03 -0.49427682418E+03  0.64863470011E+03  0.13301793056E+04  0.95000000000E+03 0.  0.
   -2000013    1    1    2    0    0 -0.44926654884E+03  0.49427682418E+03  0.25383179093E+03  0.11887306629E+04  0.95000000000E+03 0.  0.
<mgrwt>
<rscale>  0 0.23516934E+04</rscale>
<asrwt>0</asrwt>
<pdfrwt beam="2">  1        2 0.12434181E+00 0.23516934E+04</pdfrwt>
<pdfrwt beam="1">  1       -2 0.26318280E+00 0.23516934E+04</pdfrwt>
<totfact> 0.16363456E+00</totfact>
</mgrwt>
</event>
<event>
 4    1  0.1323225E-008  0.3371717E+04  0.7816531E-02  0.8144883E-01
          2   -1    0    0  501    0  0.00000000000E+00  0.00000000000E+00  0.11361133907E+04  0.11361133907E+04  0.00000000000E+00 0.  1.
         -2   -1    0    0    0  501 -0.00000000000E+00 -0.00000000000E+00 -0.25016159235E+04  0.25016159235E+04  0.00000000000E+00 0. -1.
    2000013    1    1    2    0    0  0.12669194971E+04 -0.21147718218E+03 -0.12635654514E+04  0.20368861678E+04  0.95000000000E+03 0.  0.
   -2000013    1    1    2    0    0 -0.12669194971E+04  0.21147718218E+03 -0.10193708142E+03  0.16008431464E+04  0.95000000000E+03 0.  0.
<mgrwt>
<rscale>  0 0.33717173E+04</rscale>
<asrwt>0</asrwt>
<pdfrwt beam="1">  1        2 0.17478668E+00 0.33717173E+04</pdfrwt>
<pdfrwt beam="2">  1       -2 0.38486398E+00 0.33717173E+04</pdfrwt>
<totfact> 0.15996161E-01</totfact>
</mgrwt>
</event>
<event>
 4    1  0.1323225E-008  0.3238032E+04  0.7816531E-02  0.8178845E-01
         -2   -1    0    0    0  501 -0.00000000000E+00  0.00000000000E+00  0.87534508880E+03  0.87534508880E+03  0.00000000000E+00 0. -1.
          2   -1    0    0  501    0  0.00000000000E+00 -0.00000000000E+00 -0.29944902747E+04  0.29944902747E+04  0.00000000000E+00 0.  1.
    2000013    1    1    2    0    0  0.49500811904E+03  0.75183813939E+03  0.79507940774E+02  0.13111503111E+04  0.95000000000E+03 0.  0.
   -2000013    1    1    2    0    0 -0.49500811904E+03 -0.75183813939E+03 -0.21986531266E+04  0.25586850523E+04  0.95000000000E+03 0.  0.
<mgrwt>
<rscale>  0 0.32380317E+04</rscale>
<asrwt>0</asrwt>
<pdfrwt beam="2">  1        2 0.46069081E+00 0.32380317E+04</pdfrwt>
<pdfrwt beam="1">  1       -2 0.13466847E+00 0.32380317E+04</pdfrwt>
<totfact> 0.58446059E-01</totfact>
</mgrwt>
</event>
<event>
 4    1  0.1323225E-008  0.2799066E+04  0.7816531E-02  0.8303558E-01
         -2   -1    0    0    0  501 -0.00000000000E+00  0.00000000000E+00  0.11163835741E+04  0.11163835741E+04  0.00000000000E+00 0. -1.
          2   -1    0    0  501    0  0.00000000000E+00 -0.00000000000E+00 -0.17544982757E+04  0.17544982757E+04  0.00000000000E+00 0.  1.
    2000013    1    1    2    0    0  0.98257795713E+03 -0.28996898048E+03 -0.40270723324E+03  0.14540338948E+04  0.95000000000E+03 0.  0.
   -2000013    1    1    2    0    0 -0.98257795713E+03  0.28996898048E+03 -0.23540746843E+03  0.14168479550E+04  0.95000000000E+03 0.  0.
<mgrwt>
<rscale>  0 0.27990663E+04</rscale>
<asrwt>0</asrwt>
<pdfrwt beam="2">  1        2 0.26992281E+00 0.27990663E+04</pdfrwt>
<pdfrwt beam="1">  1       -2 0.17175132E+00 0.27990663E+04</pdfrwt>
<totfact> 0.16486845E+00</totfact>
</mgrwt>
</event>
<event>
 4    1  0.1323225E-008  0.2965761E+04  0.7816531E-02  0.8253576E-01
         -2   -1    0    0    0  501 -0.00000000000E+00  0.00000000000E+00  0.58290097745E+03  0.58290097745E+03  0.00000000000E+00 0. -1.
          2   -1    0    0  501    0  0.00000000000E+00 -0.00000000000E+00 -0.37723985683E+04  0.37723985683E+04  0.00000000000E+00 0.  1.
    2000013    1    1    2    0    0 -0.81550529702E+03 -0.38022753404E+03 -0.26193690017E+04  0.29280054362E+04  0.95000000000E+03 0.  0.
   -2000013    1    1    2    0    0  0.81550529702E+03  0.38022753404E+03 -0.57012858915E+03  0.14272941096E+04  0.95000000000E+03 0.  0.
<mgrwt>
<rscale>  0 0.29657612E+04</rscale>
<asrwt>0</asrwt>
<pdfrwt beam="2">  1        2 0.58036900E+00 0.29657612E+04</pdfrwt>
<pdfrwt beam="1">  1       -2 0.89677075E-01 0.29657612E+04</pdfrwt>
<totfact> 0.47115104E-01</totfact>
</mgrwt>
</event>
<event>
 4    1  0.1323225E-008  0.2652806E+04  0.7816531E-02  0.8350482E-01
          2   -1    0    0  501    0  0.00000000000E+00  0.00000000000E+00  0.35834669393E+04  0.35834669393E+04  0.00000000000E+00 0.  1.
         -2   -1    0    0    0  501 -0.00000000000E+00 -0.00000000000E+00 -0.49096168782E+03  0.49096168782E+03  0.00000000000E+00 0. -1.
    2000013    1    1    2    0    0  0.18273305178E+03  0.84464468254E+03  0.20557180763E+04  0.24239003315E+04  0.95000000000E+03 0.  0.
   -2000013    1    1    2    0    0 -0.18273305178E+03 -0.84464468254E+03  0.10367871752E+04  0.16505282956E+04  0.95000000000E+03 0.  0.
<mgrwt>
<rscale>  0 0.26528060E+04</rscale>
<asrwt>0</asrwt>
<pdfrwt beam="1">  1        2 0.55130259E+00 0.26528060E+04</pdfrwt>
<pdfrwt beam="2">  1       -2 0.75532569E-01 0.26528060E+04</pdfrwt>
<totfact> 0.98285692E-01</totfact>
</mgrwt>
</event>
<event>
 4    1  0.1323225E-008  0.2588275E+04  0.7816531E-02  0.8372195E-01
         -2   -1    0    0    0  501 -0.00000000000E+00  0.00000000000E+00  0.10430692777E+04  0.10430692777E+04  0.00000000000E+00 0. -1.
          2   -1    0    0  501    0  0.00000000000E+00 -0.00000000000E+00 -0.16056384179E+04  0.16056384179E+04  0.00000000000E+00 0.  1.
    2000013    1    1    2    0    0 -0.15104150558E+03 -0.84984354269E+03 -0.11237153054E+03  0.12884777625E+04  0.95000000000E+03 0.  0.
   -2000013    1    1    2    0    0  0.15104150558E+03  0.84984354269E+03 -0.45019760966E+03  0.13602299332E+04  0.95000000000E+03 0.  0.
<mgrwt>
<rscale>  0 0.25882752E+04</rscale>
<asrwt>0</asrwt>
<pdfrwt beam="2">  1        2 0.24702129E+00 0.25882752E+04</pdfrwt>
<pdfrwt beam="1">  1       -2 0.16047220E+00 0.25882752E+04</pdfrwt>
<totfact> 0.24498352E+00</totfact>
</mgrwt>
</event>
<event>
 4    1  0.1323225E-008  0.2255593E+04  0.7816531E-02  0.8495639E-01
         -2   -1    0    0    0  501 -0.00000000000E+00  0.00000000000E+00  0.14951547263E+04  0.14951547263E+04  0.00000000000E+00 0. -1.
          2   -1    0    0  501    0  0.00000000000E+00 -0.00000000000E+00 -0.85069760871E+03  0.85069760871E+03  0.00000000000E+00 0.  1.
    2000013    1    1    2    0    0 -0.60185399194E+03 -0.76504409604E+02  0.28410948370E+03  0.11624540210E+04  0.95000000000E+03 0.  0.
   -2000013    1    1    2    0    0  0.60185399194E+03  0.76504409604E+02  0.36034763391E+03  0.11833983140E+04  0.95000000000E+03 0.  0.
<mgrwt>
<rscale>  0 0.22555926E+04</rscale>
<asrwt>0</asrwt>
<pdfrwt beam="2">  1        2 0.13087656E+00 0.22555926E+04</pdfrwt>
<pdfrwt beam="1">  1       -2 0.23002380E+00 0.22555926E+04</pdfrwt>
<totfact> 0.24647705E+00</totfact>
</mgrwt>
</event>
<event>
 4    1  0.1323225E-008  0.2642986E+04  0.7816531E-02  0.8353745E-01
         -2   -1    0    0    0  501 -0.00000000000E+00  0.00000000000E+00  0.14440745749E+04  0.14440745749E+04  0.00000000000E+00 0. -1.
          2   -1    0    0  501    0  0.00000000000E+00 -0.00000000000E+00 -0.12093173019E+04  0.12093173019E+04  0.00000000000E+00 0.  1.
    2000013    1    1    2    0    0  0.69685519084E+03 -0.30368197464E+03 -0.40041783416E+03  0.12808842027E+04  0.95000000000E+03 0.  0.
   -2000013    1    1    2    0    0 -0.69685519084E+03  0.30368197464E+03  0.63517510720E+03  0.13725076741E+04  0.95000000000E+03 0.  0.
<mgrwt>
<rscale>  0 0.26429865E+04</rscale>
<asrwt>0</asrwt>
<pdfrwt beam="2">  1        2 0.18604882E+00 0.26429865E+04</pdfrwt>
<pdfrwt beam="1">  1       -2 0.22216532E+00 0.26429865E+04</pdfrwt>
<totfact> 0.15783830E+00</totfact>
</mgrwt>
</event>
<event>
 4    1  0.1323225E-008  0.2759653E+04  0.7816531E-02  0.8315905E-01
          2   -1    0    0  501    0  0.00000000000E+00  0.00000000000E+00  0.18857928967E+04  0.18857928967E+04  0.00000000000E+00 0.  1.
         -2   -1    0    0    0  501 -0.00000000000E+00 -0.00000000000E+00 -0.10096129838E+04  0.10096129838E+04  0.00000000000E+00 0. -1.
    2000013    1    1    2    0    0 -0.67880237540E+02  0.81876876329E+03 -0.16135688857E+03  0.12663040946E+04  0.95000000000E+03 0.  0.
   -2000013    1    1    2    0    0  0.67880237540E+02 -0.81876876329E+03  0.10375368015E+04  0.16291017859E+04  0.95000000000E+03 0.  0.
<mgrwt>
<rscale>  0 0.27596529E+04</rscale>
<asrwt>0</asrwt>
<pdfrwt beam="1">  1        2 0.29012198E+00 0.27596529E+04</pdfrwt>
<pdfrwt beam="2">  1       -2 0.15532507E+00 0.27596529E+04</pdfrwt>
<totfact> 0.18430650E+00</totfact>
</mgrwt>
</event>
<event>
 4    1  0.1323225E-008  0.2086429E+04  0.7816531E-02  0.8567245E-01
          2   -1    0    0  501    0  0.00000000000E+00  0.00000000000E+00  0.75547023289E+03  0.75547023289E+03  0.00000000000E+00 0.  1.
         -2   -1    0    0    0  501 -0.00000000000E+00 -0.00000000000E+00 -0.14405554380E+04  0.14405554380E+04  0.00000000000E+00 0. -1.
    2000013    1    1    2    0    0  0.38099602645E+02 -0.34705858732E+03 -0.60859606742E+03  0.11810124538E+04  0.95000000000E+03 0.  0.
   -2000013    1    1    2    0    0 -0.38099602645E+02  0.34705858732E+03 -0.76489137740E+02  0.10150132171E+04  0.95000000000E+03 0.  0.
<mgrwt>
<rscale>  0 0.20864292E+04</rscale>
<asrwt>0</asrwt>
<pdfrwt beam="1">  1        2 0.11622619E+00 0.20864292E+04</pdfrwt>
<pdfrwt beam="2">  1       -2 0.22162391E+00 0.20864292E+04</pdfrwt>
<totfact> 0.33063922E+00</totfact>
</mgrwt>
</event>
<event>
 4    1  0.1323225E-008  0.2502680E+04  0.7816531E-02  0.8402031E-01
         -2   -1    0    0    0  501 -0.00000000000E+00  0.00000000000E+00  0.60642821636E+03  0.60642821636E+03  0.00000000000E+00 0. -1.
          2   -1    0    0  501    0  0.00000000000E+00 -0.00000000000E+00 -0.25820898098E+04  0.25820898098E+04  0.00000000000E+00 0.  1.
    2000013    1    1    2    0    0  0.68488065635E+03 -0.42679735367E+03 -0.11281757040E+04  0.16812191748E+04  0.95000000000E+03 0.  0.
   -2000013    1    1    2    0    0 -0.68488065635E+03  0.42679735367E+03 -0.84748588942E+03  0.15072988514E+04  0.95000000000E+03 0.  0.
<mgrwt>
<rscale>  0 0.25026803E+04</rscale>
<asrwt>0</asrwt>
<pdfrwt beam="2">  1        2 0.39724458E+00 0.25026803E+04</pdfrwt>
<pdfrwt beam="1">  1       -2 0.93296650E-01 0.25026803E+04</pdfrwt>
<totfact> 0.27023927E+00</totfact>
</mgrwt>
</event>
<event>
 4    1  0.1323225E-008  0.2364017E+04  0.7816531E-02  0.8453099E-01
          2   -1    0    0  501    0  0.00000000000E+00  0.00000000000E+00  0.15241374512E+04  0.15241374512E+04  0.00000000000E+00 0.  1.
         -2   -1    0    0    0  501 -0.00000000000E+00 -0.00000000000E+00 -0.91667864814E+03  0.91667864814E+03  0.00000000000E+00 0. -1.
    2000013    1    1    2    0    0  0.58887781393E+03 -0.33858492855E+03  0.11552369820E+03  0.11735683016E+04  0.95000000000E+03 0.  0.
   -2000013    1    1    2    0    0 -0.58887781393E+03  0.33858492855E+03  0.49193510485E+03  0.12672477978E+04  0.95000000000E+03 0.  0.
<mgrwt>
<rscale>  0 0.23640171E+04</rscale>
<asrwt>0</asrwt>
<pdfrwt beam="1">  1        2 0.23448269E+00 0.23640171E+04</pdfrwt>
<pdfrwt beam="2">  1       -2 0.14102748E+00 0.23640171E+04</pdfrwt>
<totfact> 0.39103229E+00</totfact>
</mgrwt>
</event>
<event>
 4    1  0.1323225E-008  0.2260960E+04  0.7816531E-02  0.8493475E-01
         -2   -1    0    0    0  501 -0.00000000000E+00  0.00000000000E+00  0.90173089591E+03  0.90173089591E+03  0.00000000000E+00 0. -1.
          2   -1    0    0  501    0  0.00000000000E+00 -0.00000000000E+00 -0.14172570883E+04  0.14172570883E+04  0.00000000000E+00 0.  1.
    2000013    1    1    2    0    0  0.15003232168E+03 -0.56929241794E+03 -0.83457455810E+02  0.11207447085E+04  0.95000000000E+03 0.  0.
   -2000013    1    1    2    0    0 -0.15003232168E+03  0.56929241794E+03 -0.43206873656E+03  0.11982432757E+04  0.95000000000E+03 0.  0.
<mgrwt>
<rscale>  0 0.22609595E+04</rscale>
<asrwt>0</asrwt>
<pdfrwt beam="2">  1        2 0.21803955E+00 0.22609595E+04</pdfrwt>
<pdfrwt beam="1">  1       -2 0.13872783E+00 0.22609595E+04</pdfrwt>
<totfact> 0.47323794E+00</totfact>
</mgrwt>
</event>
<event>
 4    1  0.1323225E-008  0.2767613E+04  0.7816531E-02  0.8313394E-01
          1   -1    0    0  501    0  0.00000000000E+00  0.00000000000E+00  0.26355319831E+04  0.26355319831E+04  0.00000000000E+00 0.  1.
         -1   -1    0    0    0  501 -0.00000000000E+00 -0.00000000000E+00 -0.72657835091E+03  0.72657835091E+03  0.00000000000E+00 0. -1.
    2000013    1    1    2    0    0  0.14942514087E+03 -0.43417446009E+03 -0.13315380069E+03  0.10635155237E+04  0.95000000000E+03 0.  0.
   -2000013    1    1    2    0    0 -0.14942514087E+03  0.43417446009E+03  0.20421074329E+04  0.22985948103E+04  0.95000000000E+03 0.  0.
<mgrwt>
<rscale>  0 0.27676130E+04</rscale>
<asrwt>0</asrwt>
<pdfrwt beam="1">  1        1 0.40546645E+00 0.27676130E+04</pdfrwt>
<pdfrwt beam="2">  1       -1 0.11178129E+00 0.27676130E+04</pdfrwt>
<totfact> 0.69448745E-01</totfact>
</mgrwt>
</event>
<event>
 4    1  0.1323225E-008  0.3234601E+04  0.7816531E-02  0.8179738E-01
         -2   -1    0    0    0  501 -0.00000000000E+00  0.00000000000E+00  0.61811894362E+03  0.61811894362E+03  0.00000000000E+00 0. -1.
          2   -1    0    0  501    0  0.00000000000E+00 -0.00000000000E+00 -0.42316475539E+04  0.42316475539E+04  0.00000000000E+00 0.  1.
    2000013    1    1    2    0    0  0.75742967317E+03 -0.98803186993E+03 -0.24125696234E+04  0.28762647433E+04  0.95000000000E+03 0.  0.
   -2000013    1    1    2    0    0 -0.75742967317E+03  0.98803186993E+03 -0.12009589869E+04  0.19735017543E+04  0.95000000000E+03 0.  0.
<mgrwt>
<rscale>  0 0.32346014E+04</rscale>
<asrwt>0</asrwt>
<pdfrwt beam="2">  1        2 0.65102272E+00 0.32346014E+04</pdfrwt>
<pdfrwt beam="1">  1       -2 0.95095220E-01 0.32346014E+04</pdfrwt>
<totfact> 0.16996430E-01</totfact>
</mgrwt>
</event>
<event>
 4    1  0.1323225E-008  0.3464132E+04  0.7816531E-02  0.8122343E-01
          1   -1    0    0  501    0  0.00000000000E+00  0.00000000000E+00  0.16155028341E+04  0.16155028341E+04  0.00000000000E+00 0.  1.
         -1   -1    0    0    0  501 -0.00000000000E+00 -0.00000000000E+00 -0.18570393537E+04  0.18570393537E+04  0.00000000000E+00 0. -1.
    2000013    1    1    2    0    0 -0.11919690144E+04 -0.73524742926E+03 -0.49068100945E+03  0.17620007851E+04  0.95000000000E+03 0.  0.
   -2000013    1    1    2    0    0  0.11919690144E+04  0.73524742926E+03  0.24914448981E+03  0.17105414027E+04  0.95000000000E+03 0.  0.
<mgrwt>
<rscale>  0 0.34641318E+04</rscale>
<asrwt>0</asrwt>
<pdfrwt beam="1">  1        1 0.24853890E+00 0.34641318E+04</pdfrwt>
<pdfrwt beam="2">  1       -1 0.28569836E+00 0.34641318E+04</pdfrwt>
<totfact> 0.18213884E-01</totfact>
</mgrwt>
</event>
<event>
 4    1  0.1323225E-008  0.2567749E+04  0.7816531E-02  0.8379239E-01
         -2   -1    0    0    0  501 -0.00000000000E+00  0.00000000000E+00  0.46921805453E+03  0.46921805453E+03  0.00000000000E+00 0. -1.
          2   -1    0    0  501    0  0.00000000000E+00 -0.00000000000E+00 -0.35129375229E+04  0.35129375229E+04  0.00000000000E+00 0.  1.
    2000013    1    1    2    0    0 -0.84537094009E+03 -0.11038435238E+02 -0.17951758511E+04  0.21999841385E+04  0.95000000000E+03 0.  0.
   -2000013    1    1    2    0    0  0.84537094009E+03  0.11038435238E+02 -0.12485436173E+04  0.17821714389E+04  0.95000000000E+03 0.  0.
<mgrwt>
<rscale>  0 0.25677490E+04</rscale>
<asrwt>0</asrwt>
<pdfrwt beam="2">  1        2 0.54045190E+00 0.25677490E+04</pdfrwt>
<pdfrwt beam="1">  1       -2 0.72187396E-01 0.25677490E+04</pdfrwt>
<totfact> 0.12280921E+00</totfact>
</mgrwt>
</event>
<event>
 4    1  0.1323225E-008  0.2561026E+04  0.7816531E-02  0.8381562E-01
          2   -1    0    0  501    0  0.00000000000E+00  0.00000000000E+00  0.20664588415E+04  0.20664588415E+04  0.00000000000E+00 0.  1.
         -2   -1    0    0    0  501 -0.00000000000E+00 -0.00000000000E+00 -0.79348936757E+03  0.79348936757E+03  0.00000000000E+00 0. -1.
    2000013    1    1    2    0    0 -0.47906837785E+03  0.48142494232E+03  0.49875472124E+02  0.11688729822E+04  0.95000000000E+03 0.  0.
   -2000013    1    1    2    0    0  0.47906837785E+03 -0.48142494232E+03  0.12230940018E+04  0.16910752269E+04  0.95000000000E+03 0.  0.
<mgrwt>
<rscale>  0 0.25610257E+04</rscale>
<asrwt>0</asrwt>
<pdfrwt beam="1">  1        2 0.31791674E+00 0.25610257E+04</pdfrwt>
<pdfrwt beam="2">  1       -2 0.12207529E+00 0.25610257E+04</pdfrwt>
<totfact> 0.27698567E+00</totfact>
</mgrwt>
</event>
<event>
 4    1  0.1323225E-008  0.2298558E+04  0.7816531E-02  0.8478490E-01
          2   -1    0    0  501    0  0.00000000000E+00  0.00000000000E+00  0.99328740714E+03  0.99328740714E+03  0.00000000000E+00 0.  1.
         -2   -1    0    0    0  501 -0.00000000000E+00 -0.00000000000E+00 -0.13297687135E+04  0.13297687135E+04  0.00000000000E+00 0. -1.
    2000013    1    1    2    0    0  0.56517488818E+03  0.30780589821E+03 -0.23354661526E+03  0.11709872530E+04  0.95000000000E+03 0.  0.
   -2000013    1    1    2    0    0 -0.56517488818E+03 -0.30780589821E+03 -0.10293469112E+03  0.11520688677E+04  0.95000000000E+03 0.  0.
<mgrwt>
<rscale>  0 0.22985583E+04</rscale>
<asrwt>0</asrwt>
<pdfrwt beam="1">  1        2 0.15281345E+00 0.22985583E+04</pdfrwt>
<pdfrwt beam="2">  1       -2 0.20457980E+00 0.22985583E+04</pdfrwt>
<totfact> 0.28629054E+00</totfact>
</mgrwt>
</event>
<event>
 4    1  0.1323225E-008  0.3029770E+04  0.7816531E-02  0.8235281E-01
         -2   -1    0    0    0  501 -0.00000000000E+00  0.00000000000E+00  0.85545729671E+03  0.85545729671E+03  0.00000000000E+00 0. -1.
          2   -1    0    0  501    0  0.00000000000E+00 -0.00000000000E+00 -0.26826310164E+04  0.26826310164E+04  0.00000000000E+00 0.  1.
    2000013    1    1    2    0    0  0.45309502353E+01 -0.95074721980E+03 -0.97450675459E+02  0.13475672301E+04  0.95000000000E+03 0.  0.
   -2000013    1    1    2    0    0 -0.45309502353E+01  0.95074721980E+03 -0.17297230442E+04  0.21905210830E+04  0.95000000000E+03 0.  0.
<mgrwt>
<rscale>  0 0.30297698E+04</rscale>
<asrwt>0</asrwt>
<pdfrwt beam="2">  1        2 0.41271246E+00 0.30297698E+04</pdfrwt>
<pdfrwt beam="1">  1       -2 0.13160882E+00 0.30297698E+04</pdfrwt>
<totfact> 0.97721106E-01</totfact>
</mgrwt>
</event>
<event>
 4    1  0.1323225E-008  0.2446715E+04  0.7816531E-02  0.8422218E-01
          2   -1    0    0  501    0  0.00000000000E+00  0.00000000000E+00  0.98719326811E+03  0.98719326811E+03  0.00000000000E+00 0.  1.
         -2   -1    0    0    0  501 -0.00000000000E+00 -0.00000000000E+00 -0.15160193401E+04  0.15160193401E+04  0.00000000000E+00 0. -1.
    2000013    1    1    2    0    0  0.72358117264E+03  0.24519901599E+03 -0.16001855920E+03  0.12295520364E+04  0.95000000000E+03 0.  0.
   -2000013    1    1    2    0    0 -0.72358117264E+03 -0.24519901599E+03 -0.36880751283E+03  0.12736605719E+04  0.95000000000E+03 0.  0.
<mgrwt>
<rscale>  0 0.24467154E+04</rscale>
<asrwt>0</asrwt>
<pdfrwt beam="1">  1        2 0.15187589E+00 0.24467154E+04</pdfrwt>
<pdfrwt beam="2">  1       -2 0.23323374E+00 0.24467154E+04</pdfrwt>
<totfact> 0.18764816E+00</totfact>
</mgrwt>
</event>
<event>
 4    1  0.1323225E-008  0.2179328E+04  0.7816531E-02  0.8527082E-01
          2   -1    0    0  501    0  0.00000000000E+00  0.00000000000E+00  0.26416573338E+04  0.26416573338E+04  0.00000000000E+00 0.  1.
         -2   -1    0    0    0  501 -0.00000000000E+00 -0.00000000000E+00 -0.44947823907E+03  0.44947823907E+03  0.00000000000E+00 0. -1.
    2000013    1    1    2    0    0  0.52077693609E+02 -0.53007822203E+03  0.11446573007E+04  0.15800111847E+04  0.95000000000E+03 0.  0.
   -2000013    1    1    2    0    0 -0.52077693609E+02  0.53007822203E+03  0.10475217940E+04  0.15111243882E+04  0.95000000000E+03 0.  0.
<mgrwt>
<rscale>  0 0.21793279E+04</rscale>
<asrwt>0</asrwt>
<pdfrwt beam="1">  1        2 0.40640881E+00 0.21793279E+04</pdfrwt>
<pdfrwt beam="2">  1       -2 0.69150500E-01 0.21793279E+04</pdfrwt>
<totfact> 0.50290676E+00</totfact>
</mgrwt>
</event>
<event>
 4    1  0.1323225E-008  0.2776126E+04  0.7816531E-02  0.8310719E-01
         -2   -1    0    0    0  501 -0.00000000000E+00  0.00000000000E+00  0.86396264630E+03  0.86396264630E+03  0.00000000000E+00 0. -1.
          2   -1    0    0  501    0  0.00000000000E+00 -0.00000000000E+00 -0.22300948350E+04  0.22300948350E+04  0.00000000000E+00 0.  1.
    2000013    1    1    2    0    0  0.90597082442E+03  0.25506345720E+03 -0.10976600507E+04  0.17300861507E+04  0.95000000000E+03 0.  0.
   -2000013    1    1    2    0    0 -0.90597082442E+03 -0.25506345720E+03 -0.26847213801E+03  0.13639713306E+04  0.95000000000E+03 0.  0.
<mgrwt>
<rscale>  0 0.27761258E+04</rscale>
<asrwt>0</asrwt>
<pdfrwt beam="2">  1        2 0.34309151E+00 0.27761258E+04</pdfrwt>
<pdfrwt beam="1">  1       -2 0.13291733E+00 0.27761258E+04</pdfrwt>
<totfact> 0.17771372E+00</totfact>
</mgrwt>
</event>
<event>
 4    1  0.1323225E-008  0.2799635E+04  0.7816531E-02  0.8303382E-01
         -2   -1    0    0    0  501 -0.00000000000E+00  0.00000000000E+00  0.10825055565E+04  0.10825055565E+04  0.00000000000E+00 0. -1.
          2   -1    0    0  501    0  0.00000000000E+00 -0.00000000000E+00 -0.18101419048E+04  0.18101419048E+04  0.00000000000E+00 0.  1.
    2000013    1    1    2    0    0 -0.52642982696E+02  0.10056568264E+04 -0.14988424980E+03  0.13925093265E+04  0.95000000000E+03 0.  0.
   -2000013    1    1    2    0    0  0.52642982696E+02 -0.10056568264E+04 -0.57775209853E+03  0.15001381348E+04  0.95000000000E+03 0.  0.
<mgrwt>
<rscale>  0 0.27996347E+04</rscale>
<asrwt>0</asrwt>
<pdfrwt beam="2">  1        2 0.27848337E+00 0.27996347E+04</pdfrwt>
<pdfrwt beam="1">  1       -2 0.16653932E+00 0.27996347E+04</pdfrwt>
<totfact> 0.16727899E+00</totfact>
</mgrwt>
</event>
<event>
 4    1  0.1323225E-008  0.2157366E+04  0.7816531E-02  0.8536386E-01
         -1   -1    0    0    0  501 -0.00000000000E+00  0.00000000000E+00  0.45574225214E+03  0.45574225214E+03  0.00000000000E+00 0. -1.
          1   -1    0    0  501    0  0.00000000000E+00 -0.00000000000E+00 -0.25531025592E+04  0.25531025592E+04  0.00000000000E+00 0.  1.
    2000013    1    1    2    0    0  0.19526835532E+03 -0.33784594360E+03 -0.58867286668E+03  0.11837674418E+04  0.95000000000E+03 0.  0.
   -2000013    1    1    2    0    0 -0.19526835532E+03  0.33784594360E+03 -0.15086874404E+04  0.18250773696E+04  0.95000000000E+03 0.  0.
<mgrwt>
<rscale>  0 0.21573657E+04</rscale>
<asrwt>0</asrwt>
<pdfrwt beam="2">  1        1 0.39278501E+00 0.21573657E+04</pdfrwt>
<pdfrwt beam="1">  1       -1 0.70114192E-01 0.21573657E+04</pdfrwt>
<totfact> 0.23418288E+00</totfact>
</mgrwt>
</event>
<event>
 4    1  0.1323225E-008  0.2405362E+04  0.7816531E-02  0.8437499E-01
         -2   -1    0    0    0  501 -0.00000000000E+00  0.00000000000E+00  0.83824831271E+03  0.83824831271E+03  0.00000000000E+00 0. -1.
          2   -1    0    0  501    0  0.00000000000E+00 -0.00000000000E+00 -0.17255519251E+04  0.17255519251E+04  0.00000000000E+00 0.  1.
    2000013    1    1    2    0    0  0.72408716108E+03  0.14012634288E+03 -0.44561163772E+03  0.12825783955E+04  0.95000000000E+03 0.  0.
   -2000013    1    1    2    0    0 -0.72408716108E+03 -0.14012634288E+03 -0.44169197463E+03  0.12812218423E+04  0.95000000000E+03 0.  0.
<mgrwt>
<rscale>  0 0.24053615E+04</rscale>
<asrwt>0</asrwt>
<pdfrwt beam="2">  1        2 0.26546952E+00 0.24053615E+04</pdfrwt>
<pdfrwt beam="1">  1       -2 0.12896128E+00 0.24053615E+04</pdfrwt>
<totfact> 0.37814901E+00</totfact>
</mgrwt>
</event>
<event>
 4    1  0.1323225E-008  0.2291207E+04  0.7816531E-02  0.8481396E-01
          2   -1    0    0  501    0  0.00000000000E+00  0.00000000000E+00  0.22826498951E+04  0.22826498951E+04  0.00000000000E+00 0.  1.
         -2   -1    0    0    0  501 -0.00000000000E+00 -0.00000000000E+00 -0.57494902846E+03  0.57494902846E+03  0.00000000000E+00 0. -1.
    2000013    1    1    2    0    0 -0.68382272669E+02 -0.57654202926E+03  0.11904345182E+04  0.16299420815E+04  0.95000000000E+03 0.  0.
   -2000013    1    1    2    0    0  0.68382272669E+02  0.57654202926E+03  0.51726634838E+03  0.12276568421E+04  0.95000000000E+03 0.  0.
<mgrwt>
<rscale>  0 0.22912070E+04</rscale>
<asrwt>0</asrwt>
<pdfrwt beam="1">  1        2 0.35117690E+00 0.22912070E+04</pdfrwt>
<pdfrwt beam="2">  1       -2 0.88453698E-01 0.22912070E+04</pdfrwt>
<totfact> 0.46271135E+00</totfact>
</mgrwt>
</event>
<event>
 4    1  0.1323225E-008  0.2518087E+04  0.7816531E-02  0.8396570E-01
         -2   -1    0    0    0  501 -0.00000000000E+00  0.00000000000E+00  0.11232277216E+04  0.11232277216E+04  0.00000000000E+00 0. -1.
          2   -1    0    0  501    0  0.00000000000E+00 -0.00000000000E+00 -0.14112812407E+04  0.14112812407E+04  0.00000000000E+00 0.  1.
    2000013    1    1    2    0    0 -0.71427726246E+03  0.43177755378E+02  0.27174576413E+03  0.12200008551E+04  0.95000000000E+03 0.  0.
   -2000013    1    1    2    0    0  0.71427726246E+03 -0.43177755378E+02 -0.55979928329E+03  0.13145081072E+04  0.95000000000E+03 0.  0.
<mgrwt>
<rscale>  0 0.25180867E+04</rscale>
<asrwt>0</asrwt>
<pdfrwt beam="2">  1        2 0.21712019E+00 0.25180867E+04</pdfrwt>
<pdfrwt beam="1">  1       -2 0.17280427E+00 0.25180867E+04</pdfrwt>
<totfact> 0.25853790E+00</totfact>
</mgrwt>
</event>
<event>
 4    1  0.1323225E-008  0.2097582E+04  0.7816531E-02  0.8562309E-01
          2   -1    0    0  501    0  0.00000000000E+00  0.00000000000E+00  0.26827837656E+04  0.26827837656E+04  0.00000000000E+00 0.  1.
         -2   -1    0    0    0  501 -0.00000000000E+00 -0.00000000000E+00 -0.41000771902E+03  0.41000771902E+03  0.00000000000E+00 0. -1.
    2000013    1    1    2    0    0  0.42301169944E+03 -0.13557997169E+03  0.11188658178E+04  0.15335193331E+04  0.95000000000E+03 0.  0.
   -2000013    1    1    2    0    0 -0.42301169944E+03  0.13557997169E+03  0.11539102287E+04  0.15592721515E+04  0.95000000000E+03 0.  0.
<mgrwt>
<rscale>  0 0.20975815E+04</rscale>
<asrwt>0</asrwt>
<pdfrwt beam="1">  1        2 0.41273595E+00 0.20975815E+04</pdfrwt>
<pdfrwt beam="2">  1       -2 0.63078112E-01 0.20975815E+04</pdfrwt>
<totfact> 0.58394183E+00</totfact>
</mgrwt>
</event>
<event>
 4    1  0.1323225E-008  0.2573323E+04  0.7816531E-02  0.8377320E-01
          2   -1    0    0  501    0  0.00000000000E+00  0.00000000000E+00  0.22090789317E+04  0.22090789317E+04  0.00000000000E+00 0.  1.
         -2   -1    0    0    0  501 -0.00000000000E+00 -0.00000000000E+00 -0.74940640282E+03  0.74940640282E+03  0.00000000000E+00 0. -1.
    2000013    1    1    2    0    0 -0.50192662709E+03  0.41117127843E+03  0.67394199228E+02  0.11524036347E+04  0.95000000000E+03 0.  0.
   -2000013    1    1    2    0    0  0.50192662709E+03 -0.41117127843E+03  0.13922783296E+04  0.18060816998E+04  0.95000000000E+03 0.  0.
<mgrwt>
<rscale>  0 0.25733231E+04</rscale>
<asrwt>0</asrwt>
<pdfrwt beam="1">  1        2 0.33985829E+00 0.25733231E+04</pdfrwt>
<pdfrwt beam="2">  1       -2 0.11529329E+00 0.25733231E+04</pdfrwt>
<totfact> 0.26508419E+00</totfact>
</mgrwt>
</event>
<event>
 4    1  0.1323225E-008  0.2238225E+04  0.7816531E-02  0.8502685E-01
          2   -1    0    0  501    0  0.00000000000E+00  0.00000000000E+00  0.11722740090E+04  0.11722740090E+04  0.00000000000E+00 0. -1.
         -2   -1    0    0    0  501 -0.00000000000E+00 -0.00000000000E+00 -0.10683614013E+04  0.10683614013E+04  0.00000000000E+00 0.  1.
    2000013    1    1    2    0    0  0.74100948877E+02  0.52535384537E+03  0.31381919263E+03  0.11324619637E+04  0.95000000000E+03 0.  0.
   -2000013    1    1    2    0    0 -0.74100948877E+02 -0.52535384537E+03 -0.20990658497E+03  0.11081734467E+04  0.95000000000E+03 0.  0.
<mgrwt>
<rscale>  0 0.22382246E+04</rscale>
<asrwt>0</asrwt>
<pdfrwt beam="1">  1        2 0.18034985E+00 0.22382246E+04</pdfrwt>
<pdfrwt beam="2">  1       -2 0.16436329E+00 0.22382246E+04</pdfrwt>
<totfact> 0.41965046E+00</totfact>
</mgrwt>
</event>
<event>
 4    1  0.1323225E-008  0.2623884E+04  0.7816531E-02  0.8360133E-01
          2   -1    0    0  501    0  0.00000000000E+00  0.00000000000E+00  0.11070260957E+04  0.11070260957E+04  0.00000000000E+00 0. -1.
         -2   -1    0    0    0  501 -0.00000000000E+00 -0.00000000000E+00 -0.15547883738E+04  0.15547883738E+04  0.00000000000E+00 0.  1.
    2000013    1    1    2    0    0 -0.48774943315E+03 -0.52654166824E+03 -0.78279545271E+03  0.14249260889E+04  0.95000000000E+03 0.  0.
   -2000013    1    1    2    0    0  0.48774943315E+03  0.52654166824E+03  0.33503317463E+03  0.12368883806E+04  0.95000000000E+03 0.  0.
<mgrwt>
<rscale>  0 0.26238836E+04</rscale>
<asrwt>0</asrwt>
<pdfrwt beam="1">  1        2 0.17031171E+00 0.26238836E+04</pdfrwt>
<pdfrwt beam="2">  1       -2 0.23919821E+00 0.26238836E+04</pdfrwt>
<totfact> 0.14266858E+00</totfact>
</mgrwt>
</event>
<event>
 4    1  0.1323225E-008  0.2260697E+04  0.7816531E-02  0.8493581E-01
          2   -1    0    0  501    0  0.00000000000E+00  0.00000000000E+00  0.12986165493E+04  0.12986165493E+04  0.00000000000E+00 0.  1.
         -2   -1    0    0    0  501 -0.00000000000E+00 -0.00000000000E+00 -0.98388355388E+03  0.98388355388E+03  0.00000000000E+00 0. -1.
    2000013    1    1    2    0    0  0.11652001741E+02 -0.50209384818E+03  0.51139552964E+03  0.11900669684E+04  0.95000000000E+03 0.  0.
   -2000013    1    1    2    0    0 -0.11652001741E+02  0.50209384818E+03 -0.19666253426E+03  0.10924331348E+04  0.95000000000E+03 0.  0.
<mgrwt>
<rscale>  0 0.22606968E+04</rscale>
<asrwt>0</asrwt>
<pdfrwt beam="1">  1        2 0.19978716E+00 0.22606968E+04</pdfrwt>
<pdfrwt beam="2">  1       -2 0.15136670E+00 0.22606968E+04</pdfrwt>
<totfact> 0.44064377E+00</totfact>
</mgrwt>
</event>
<event>
 4    1  0.1323225E-008  0.2479017E+04  0.7816531E-02  0.8410499E-01
         -2   -1    0    0    0  501 -0.00000000000E+00  0.00000000000E+00  0.97294129533E+03  0.97294129533E+03  0.00000000000E+00 0. -1.
          2   -1    0    0  501    0  0.00000000000E+00 -0.00000000000E+00 -0.15791094655E+04  0.15791094655E+04  0.00000000000E+00 0.  1.
    2000013    1    1    2    0    0 -0.22448545261E+03 -0.62672861877E+03 -0.75263958933E+03  0.13828046975E+04  0.95000000000E+03 0.  0.
   -2000013    1    1    2    0    0  0.22448545261E+03  0.62672861877E+03  0.14647141914E+03  0.11692460633E+04  0.95000000000E+03 0.  0.
<mgrwt>
<rscale>  0 0.24790166E+04</rscale>
<asrwt>0</asrwt>
<pdfrwt beam="2">  1        2 0.24293992E+00 0.24790166E+04</pdfrwt>
<pdfrwt beam="1">  1       -2 0.14968328E+00 0.24790166E+04</pdfrwt>
<totfact> 0.30845303E+00</totfact>
</mgrwt>
</event>
<event>
 4    1  0.1323225E-008  0.2449526E+04  0.7816531E-02  0.8421191E-01
          2   -1    0    0  501    0  0.00000000000E+00  0.00000000000E+00  0.25158640483E+04  0.25158640483E+04  0.00000000000E+00 0.  1.
         -2   -1    0    0    0  501 -0.00000000000E+00 -0.00000000000E+00 -0.59623434351E+03  0.59623434351E+03  0.00000000000E+00 0. -1.
    2000013    1    1    2    0    0  0.35631997667E+03 -0.31484748279E+03  0.18549140238E+03  0.10784247417E+04  0.95000000000E+03 0.  0.
   -2000013    1    1    2    0    0 -0.35631997667E+03  0.31484748279E+03  0.17341383024E+04  0.20336736501E+04  0.95000000000E+03 0.  0.
<mgrwt>
<rscale>  0 0.24495261E+04</rscale>
<asrwt>0</asrwt>
<pdfrwt beam="1">  1        2 0.38705600E+00 0.24495261E+04</pdfrwt>
<pdfrwt beam="2">  1       -2 0.91728362E-01 0.24495261E+04</pdfrwt>
<totfact> 0.30862237E+00</totfact>
</mgrwt>
</event>
<event>
 4    1  0.1323225E-008  0.2269290E+04  0.7816531E-02  0.8490129E-01
          2   -1    0    0  501    0  0.00000000000E+00  0.00000000000E+00  0.17864697187E+04  0.17864697187E+04  0.00000000000E+00 0.  1.
         -2   -1    0    0    0  501 -0.00000000000E+00 -0.00000000000E+00 -0.72064967576E+03  0.72064967576E+03  0.00000000000E+00 0. -1.
    2000013    1    1    2    0    0  0.34381649562E+03  0.51336030985E+03  0.47070424828E+03  0.12271149415E+04  0.95000000000E+03 0.  0.
   -2000013    1    1    2    0    0 -0.34381649562E+03 -0.51336030985E+03  0.59511579461E+03  0.12800044529E+04  0.95000000000E+03 0.  0.
<mgrwt>
<rscale>  0 0.22692896E+04</rscale>
<asrwt>0</asrwt>
<pdfrwt beam="1">  1        2 0.27484149E+00 0.22692896E+04</pdfrwt>
<pdfrwt beam="2">  1       -2 0.11086918E+00 0.22692896E+04</pdfrwt>
<totfact> 0.51437646E+00</totfact>
</mgrwt>
</event>
<event>
 4    1  0.1323225E-008  0.1991011E+04  0.7816531E-02  0.8610835E-01
          2   -1    0    0  501    0  0.00000000000E+00  0.00000000000E+00  0.11572575793E+04  0.11572575793E+04  0.00000000000E+00 0.  1.
         -2   -1    0    0    0  501 -0.00000000000E+00 -0.00000000000E+00 -0.85636211861E+03  0.85636211861E+03  0.00000000000E+00 0. -1.
    2000013    1    1    2    0    0 -0.16920040969E+03 -0.15234452079E+03  0.34417946780E+03  0.10357592084E+04  0.95000000000E+03 0.  0.
   -2000013    1    1    2    0    0  0.16920040969E+03  0.15234452079E+03 -0.43284007161E+02  0.97786048950E+03  0.95000000000E+03 0.  0.
<mgrwt>
<rscale>  0 0.19910114E+04</rscale>
<asrwt>0</asrwt>
<pdfrwt beam="1">  1        2 0.17803963E+00 0.19910114E+04</pdfrwt>
<pdfrwt beam="2">  1       -2 0.13174802E+00 0.19910114E+04</pdfrwt>
<totfact> 0.78454351E+00</totfact>
</mgrwt>
</event>
<event>
 4    1  0.1323225E-008  0.2841852E+04  0.7816531E-02  0.8290391E-01
          2   -1    0    0  501    0  0.00000000000E+00  0.00000000000E+00  0.24653691629E+04  0.24653691629E+04  0.00000000000E+00 0.  1.
         -2   -1    0    0    0  501 -0.00000000000E+00 -0.00000000000E+00 -0.81895692902E+03  0.81895692902E+03  0.00000000000E+00 0. -1.
    2000013    1    1    2    0    0 -0.44077441681E+03  0.87931266155E+03  0.12693992359E+04  0.18658368801E+04  0.95000000000E+03 0.  0.
   -2000013    1    1    2    0    0  0.44077441681E+03 -0.87931266155E+03  0.37701299801E+03  0.14184892118E+04  0.95000000000E+03 0.  0.
<mgrwt>
<rscale>  0 0.28418523E+04</rscale>
<asrwt>0</asrwt>
<pdfrwt beam="1">  1        2 0.37928756E+00 0.28418523E+04</pdfrwt>
<pdfrwt beam="2">  1       -2 0.12599337E+00 0.28418523E+04</pdfrwt>
<totfact> 0.14856462E+00</totfact>
</mgrwt>
</event>
<event>
 4    1  0.1323225E-008  0.3175188E+04  0.7816531E-02  0.8195401E-01
         -2   -1    0    0    0  501 -0.00000000000E+00  0.00000000000E+00  0.71098435282E+03  0.71098435282E+03  0.00000000000E+00 0. -1.
          2   -1    0    0  501    0  0.00000000000E+00 -0.00000000000E+00 -0.35450213851E+04  0.35450213851E+04  0.00000000000E+00 0.  1.
    2000013    1    1    2    0    0  0.61808040552E+03 -0.10290303696E+04 -0.85305170054E+03  0.17524622943E+04  0.95000000000E+03 0.  0.
   -2000013    1    1    2    0    0 -0.61808040552E+03  0.10290303696E+04 -0.19809853317E+04  0.25035434435E+04  0.95000000000E+03 0.  0.
<mgrwt>
<rscale>  0 0.31751880E+04</rscale>
<asrwt>0</asrwt>
<pdfrwt beam="2">  1        2 0.54538791E+00 0.31751880E+04</pdfrwt>
<pdfrwt beam="1">  1       -2 0.10938221E+00 0.31751880E+04</pdfrwt>
<totfact> 0.42416400E-01</totfact>
</mgrwt>
</event>
<event>
 4    1  0.1323225E-008  0.3045205E+04  0.7816531E-02  0.8230939E-01
         -2   -1    0    0    0  501 -0.00000000000E+00  0.00000000000E+00  0.22623692449E+04  0.22623692449E+04  0.00000000000E+00 0. -1.
          2   -1    0    0  501    0  0.00000000000E+00 -0.00000000000E+00 -0.10247304896E+04  0.10247304896E+04  0.00000000000E+00 0.  1.
    2000013    1    1    2    0    0  0.15297309145E+02  0.90261724892E+03 -0.21791079564E+03  0.13285093227E+04  0.95000000000E+03 0.  0.
   -2000013    1    1    2    0    0 -0.15297309145E+02 -0.90261724892E+03  0.14555495509E+04  0.19585904117E+04  0.95000000000E+03 0.  0.
<mgrwt>
<rscale>  0 0.30452052E+04</rscale>
<asrwt>0</asrwt>
<pdfrwt beam="2">  1        2 0.15765085E+00 0.30452052E+04</pdfrwt>
<pdfrwt beam="1">  1       -2 0.34805681E+00 0.30452052E+04</pdfrwt>
<totfact> 0.33137982E-01</totfact>
</mgrwt>
</event>
<event>
 4    1  0.1323225E-008  0.2224620E+04  0.7816531E-02  0.8508250E-01
         -2   -1    0    0    0  501 -0.00000000000E+00  0.00000000000E+00  0.11775130958E+04  0.11775130958E+04  0.00000000000E+00 0. -1.
          2   -1    0    0  501    0  0.00000000000E+00 -0.00000000000E+00 -0.10507173657E+04  0.10507173657E+04  0.00000000000E+00 0.  1.
    2000013    1    1    2    0    0 -0.35858959645E+03  0.42399625206E+03 -0.99266873059E+02  0.11048589197E+04  0.95000000000E+03 0.  0.
   -2000013    1    1    2    0    0  0.35858959645E+03 -0.42399625206E+03  0.22606260315E+03  0.11233715418E+04  0.95000000000E+03 0.  0.
<mgrwt>
<rscale>  0 0.22246199E+04</rscale>
<asrwt>0</asrwt>
<pdfrwt beam="2">  1        2 0.16164882E+00 0.22246199E+04</pdfrwt>
<pdfrwt beam="1">  1       -2 0.18115586E+00 0.22246199E+04</pdfrwt>
<totfact> 0.37969058E+00</totfact>
</mgrwt>
</event>
<event>
 4    1  0.1323225E-008  0.2589026E+04  0.7816531E-02  0.8371938E-01
         -2   -1    0    0    0  501 -0.00000000000E+00  0.00000000000E+00  0.84412770310E+03  0.84412770310E+03  0.00000000000E+00 0. -1.
          2   -1    0    0  501    0  0.00000000000E+00 -0.00000000000E+00 -0.19852014980E+04  0.19852014980E+04  0.00000000000E+00 0.  1.
    2000013    1    1    2    0    0 -0.85373778453E+03  0.20320088032E+03 -0.63142920123E+03  0.14392225813E+04  0.95000000000E+03 0.  0.
   -2000013    1    1    2    0    0  0.85373778453E+03 -0.20320088032E+03 -0.50964459371E+03  0.13901066198E+04  0.95000000000E+03 0.  0.
<mgrwt>
<rscale>  0 0.25890257E+04</rscale>
<asrwt>0</asrwt>
<pdfrwt beam="2">  1        2 0.30541561E+00 0.25890257E+04</pdfrwt>
<pdfrwt beam="1">  1       -2 0.12986580E+00 0.25890257E+04</pdfrwt>
<totfact> 0.26251573E+00</totfact>
</mgrwt>
</event>
<event>
 4    1  0.1323225E-008  0.2101586E+04  0.7816531E-02  0.8560545E-01
         -2   -1    0    0    0  501 -0.00000000000E+00  0.00000000000E+00  0.44241615753E+03  0.44241615753E+03  0.00000000000E+00 0. -1.
          2   -1    0    0  501    0  0.00000000000E+00 -0.00000000000E+00 -0.24957620305E+04  0.24957620305E+04  0.00000000000E+00 0.  1.
    2000013    1    1    2    0    0 -0.23459819841E+03 -0.31835942469E+03 -0.13241592904E+04  0.16769874371E+04  0.95000000000E+03 0.  0.
   -2000013    1    1    2    0    0  0.23459819841E+03  0.31835942469E+03 -0.72918658260E+03  0.12611907509E+04  0.95000000000E+03 0.  0.
<mgrwt>
<rscale>  0 0.21015855E+04</rscale>
<asrwt>0</asrwt>
<pdfrwt beam="2">  1        2 0.38396339E+00 0.21015855E+04</pdfrwt>
<pdfrwt beam="1">  1       -2 0.68064025E-01 0.21015855E+04</pdfrwt>
<totfact> 0.63764931E+00</totfact>
</mgrwt>
</event>
<event>
 4    1  0.1323225E-008  0.2380991E+04  0.7816531E-02  0.8446655E-01
         -2   -1    0    0    0  501 -0.00000000000E+00  0.00000000000E+00  0.68850050920E+03  0.68850050920E+03  0.00000000000E+00 0. -1.
          2   -1    0    0  501    0  0.00000000000E+00 -0.00000000000E+00 -0.20585011841E+04  0.20585011841E+04  0.00000000000E+00 0.  1.
    2000013    1    1    2    0    0 -0.59797236543E+03  0.35029790347E+03 -0.47070737653E+03  0.12666274138E+04  0.95000000000E+03 0.  0.
   -2000013    1    1    2    0    0  0.59797236543E+03 -0.35029790347E+03 -0.89929329839E+03  0.14803742795E+04  0.95000000000E+03 0.  0.
<mgrwt>
<rscale>  0 0.23809906E+04</rscale>
<asrwt>0</asrwt>
<pdfrwt beam="2">  1        2 0.31669249E+00 0.23809906E+04</pdfrwt>
<pdfrwt beam="1">  1       -2 0.10592316E+00 0.23809906E+04</pdfrwt>
<totfact> 0.40175833E+00</totfact>
</mgrwt>
</event>
<event>
 4    1  0.1323225E-008  0.2156970E+04  0.7816531E-02  0.8536555E-01
          2   -1    0    0  501    0  0.00000000000E+00  0.00000000000E+00  0.12225765334E+04  0.12225765334E+04  0.00000000000E+00 0.  1.
         -2   -1    0    0    0  501 -0.00000000000E+00 -0.00000000000E+00 -0.95137597639E+03  0.95137597639E+03  0.00000000000E+00 0. -1.
    2000013    1    1    2    0    0 -0.30354888283E+01  0.41772380241E+03 -0.16018529992E+03  0.10500770065E+04  0.95000000000E+03 0.  0.
   -2000013    1    1    2    0    0  0.30354888283E+01 -0.41772380241E+03  0.43138585691E+03  0.11238755033E+04  0.95000000000E+03 0.  0.
<mgrwt>
<rscale>  0 0.21569700E+04</rscale>
<asrwt>0</asrwt>
<pdfrwt beam="1">  1        2 0.18808870E+00 0.21569700E+04</pdfrwt>
<pdfrwt beam="2">  1       -2 0.14636553E+00 0.21569700E+04</pdfrwt>
<totfact> 0.53852590E+00</totfact>
</mgrwt>
</event>
<event>
 4    1  0.1323225E-008  0.2308337E+04  0.7816531E-02  0.8474641E-01
          2   -1    0    0  501    0  0.00000000000E+00  0.00000000000E+00  0.29277306874E+04  0.29277306874E+04  0.00000000000E+00 0.  1.
         -2   -1    0    0    0  501 -0.00000000000E+00 -0.00000000000E+00 -0.45499568924E+03  0.45499568924E+03  0.00000000000E+00 0. -1.
    2000013    1    1    2    0    0  0.31314091430E+03 -0.56952379891E+03  0.11121050997E+04  0.16005287697E+04  0.95000000000E+03 0.  0.
   -2000013    1    1    2    0    0 -0.31314091430E+03  0.56952379891E+03  0.13606298984E+04  0.17821976070E+04  0.95000000000E+03 0.  0.
<mgrwt>
<rscale>  0 0.23083369E+04</rscale>
<asrwt>0</asrwt>
<pdfrwt beam="1">  1        2 0.45042009E+00 0.23083369E+04</pdfrwt>
<pdfrwt beam="2">  1       -2 0.69999339E-01 0.23083369E+04</pdfrwt>
<totfact> 0.32548332E+00</totfact>
</mgrwt>
</event>
<event>
 4    1  0.1323225E-008  0.2295562E+04  0.7816531E-02  0.8479673E-01
         -2   -1    0    0    0  501 -0.00000000000E+00  0.00000000000E+00  0.10624445695E+04  0.10624445695E+04  0.00000000000E+00 0. -1.
          2   -1    0    0  501    0  0.00000000000E+00 -0.00000000000E+00 -0.12399718584E+04  0.12399718584E+04  0.00000000000E+00 0.  1.
    2000013    1    1    2    0    0  0.49828511185E+03 -0.69935945479E+02  0.31458420899E+03  0.11201081705E+04  0.95000000000E+03 0.  0.
   -2000013    1    1    2    0    0 -0.49828511185E+03  0.69935945479E+02 -0.49211149783E+03  0.11823082574E+04  0.95000000000E+03 0.  0.
<mgrwt>
<rscale>  0 0.22955621E+04</rscale>
<asrwt>0</asrwt>
<pdfrwt beam="2">  1        2 0.19076490E+00 0.22955621E+04</pdfrwt>
<pdfrwt beam="1">  1       -2 0.16345301E+00 0.22955621E+04</pdfrwt>
<totfact> 0.38641444E+00</totfact>
</mgrwt>
</event>
<event>
 4    1  0.1323225E-008  0.2224418E+04  0.7816531E-02  0.8508333E-01
         -2   -1    0    0    0  501 -0.00000000000E+00  0.00000000000E+00  0.41057987565E+03  0.41057987565E+03  0.00000000000E+00 0. -1.
          2   -1    0    0  501    0  0.00000000000E+00 -0.00000000000E+00 -0.30128336328E+04  0.30128336328E+04  0.00000000000E+00 0.  1.
    2000013    1    1    2    0    0 -0.24075895128E+03 -0.40105868893E+03 -0.77764461737E+03  0.13137899739E+04  0.95000000000E+03 0.  0.
   -2000013    1    1    2    0    0  0.24075895128E+03  0.40105868893E+03 -0.18246091398E+04  0.21096235346E+04  0.95000000000E+03 0.  0.
<mgrwt>
<rscale>  0 0.22244180E+04</rscale>
<asrwt>0</asrwt>
<pdfrwt beam="2">  1        2 0.46351285E+00 0.22244180E+04</pdfrwt>
<pdfrwt beam="1">  1       -2 0.63166137E-01 0.22244180E+04</pdfrwt>
<totfact> 0.36234919E+00</totfact>
</mgrwt>
</event>
<event>
 4    1  0.1323225E-008  0.2088456E+04  0.7816531E-02  0.8566346E-01
          2   -1    0    0  501    0  0.00000000000E+00  0.00000000000E+00  0.11091678500E+04  0.11091678500E+04  0.00000000000E+00 0.  1.
         -2   -1    0    0    0  501 -0.00000000000E+00 -0.00000000000E+00 -0.98309044376E+03  0.98309044376E+03  0.00000000000E+00 0. -1.
    2000013    1    1    2    0    0 -0.15528006884E+03  0.27593896827E+03  0.35964881659E+03  0.10640025777E+04  0.95000000000E+03 0.  0.
   -2000013    1    1    2    0    0  0.15528006884E+03 -0.27593896827E+03 -0.23357141034E+03  0.10282557161E+04  0.95000000000E+03 0.  0.
<mgrwt>
<rscale>  0 0.20884562E+04</rscale>
<asrwt>0</asrwt>
<pdfrwt beam="1">  1        2 0.17064121E+00 0.20884562E+04</pdfrwt>
<pdfrwt beam="2">  1       -2 0.15124468E+00 0.20884562E+04</pdfrwt>
<totfact> 0.58141308E+00</totfact>
</mgrwt>
</event>
<event>
 4    1  0.1323225E-008  0.2756533E+04  0.7816531E-02  0.8316892E-01
         -2   -1    0    0    0  501 -0.00000000000E+00  0.00000000000E+00  0.42902224329E+04  0.42902224329E+04  0.00000000000E+00 0. -1.
          2   -1    0    0  501    0  0.00000000000E+00 -0.00000000000E+00 -0.44277850545E+03  0.44277850545E+03  0.00000000000E+00 0.  1.
    2000013    1    1    2    0    0  0.40571208820E+03  0.90312428012E+03  0.21468180606E+04  0.25478546955E+04  0.95000000000E+03 0.  0.
   -2000013    1    1    2    0    0 -0.40571208820E+03 -0.90312428012E+03  0.17006258669E+04  0.21851462429E+04  0.95000000000E+03 0.  0.
<mgrwt>
<rscale>  0 0.27565328E+04</rscale>
<asrwt>0</asrwt>
<pdfrwt beam="2">  1        2 0.68119773E-01 0.27565328E+04</pdfrwt>
<pdfrwt beam="1">  1       -2 0.66003419E+00 0.27565328E+04</pdfrwt>
<totfact> 0.18989513E-02</totfact>
</mgrwt>
</event>
<event>
 4    1  0.1323225E-008  0.2695616E+04  0.7816531E-02  0.8336429E-01
         -2   -1    0    0    0  501 -0.00000000000E+00  0.00000000000E+00  0.13984841409E+04  0.13984841409E+04  0.00000000000E+00 0. -1.
          2   -1    0    0  501    0  0.00000000000E+00 -0.00000000000E+00 -0.12989678165E+04  0.12989678165E+04  0.00000000000E+00 0.  1.
    2000013    1    1    2    0    0  0.15918382424E+03  0.55988274915E+03 -0.70922916974E+03  0.13207248759E+04  0.95000000000E+03 0.  0.
   -2000013    1    1    2    0    0 -0.15918382424E+03 -0.55988274915E+03  0.80874549415E+03  0.13767270815E+04  0.95000000000E+03 0.  0.
<mgrwt>
<rscale>  0 0.26956156E+04</rscale>
<asrwt>0</asrwt>
<pdfrwt beam="2">  1        2 0.19984120E+00 0.26956156E+04</pdfrwt>
<pdfrwt beam="1">  1       -2 0.21515141E+00 0.26956156E+04</pdfrwt>
<totfact> 0.15417007E+00</totfact>
</mgrwt>
</event>
<event>
 4    1  0.1323225E-008  0.2859762E+04  0.7816531E-02  0.8284951E-01
         -1   -1    0    0    0  501 -0.00000000000E+00  0.00000000000E+00  0.70230494667E+03  0.70230494667E+03  0.00000000000E+00 0. -1.
          1   -1    0    0  501    0  0.00000000000E+00 -0.00000000000E+00 -0.29112137945E+04  0.29112137945E+04  0.00000000000E+00 0.  1.
    2000013    1    1    2    0    0 -0.83933365403E+03  0.91670166269E+02 -0.19322399638E+04  0.23127766170E+04  0.95000000000E+03 0.  0.
   -2000013    1    1    2    0    0  0.83933365403E+03 -0.91670166269E+02 -0.27666888394E+03  0.13007421241E+04  0.95000000000E+03 0.  0.
<mgrwt>
<rscale>  0 0.28597621E+04</rscale>
<asrwt>0</asrwt>
<pdfrwt beam="2">  1        1 0.44787904E+00 0.28597621E+04</pdfrwt>
<pdfrwt beam="1">  1       -1 0.10804691E+00 0.28597621E+04</pdfrwt>
<totfact> 0.47521476E-01</totfact>
</mgrwt>
</event>
<event>
 4    1  0.1323225E-008  0.2624219E+04  0.7816531E-02  0.8360021E-01
          2   -1    0    0  501    0  0.00000000000E+00  0.00000000000E+00  0.20458102383E+04  0.20458102383E+04  0.00000000000E+00 0.  1.
         -2   -1    0    0    0  501 -0.00000000000E+00 -0.00000000000E+00 -0.84153984983E+03  0.84153984983E+03  0.00000000000E+00 0. -1.
    2000013    1    1    2    0    0 -0.33118406587E+03  0.25694991676E+03 -0.28043304607E+03  0.10755690766E+04  0.95000000000E+03 0.  0.
   -2000013    1    1    2    0    0  0.33118406587E+03 -0.25694991676E+03  0.14847034345E+04  0.18117810115E+04  0.95000000000E+03 0.  0.
<mgrwt>
<rscale>  0 0.26242186E+04</rscale>
<asrwt>0</asrwt>
<pdfrwt beam="1">  1        2 0.31474003E+00 0.26242186E+04</pdfrwt>
<pdfrwt beam="2">  1       -2 0.12946767E+00 0.26242186E+04</pdfrwt>
<totfact> 0.24406287E+00</totfact>
</mgrwt>
</event>
<event>
 4    1  0.1323225E-008  0.2256598E+04  0.7816531E-02  0.8495233E-01
          1   -1    0    0  501    0  0.00000000000E+00  0.00000000000E+00  0.15832245016E+04  0.15832245016E+04  0.00000000000E+00 0.  1.
         -1   -1    0    0    0  501 -0.00000000000E+00 -0.00000000000E+00 -0.80409208419E+03  0.80409208419E+03  0.00000000000E+00 0. -1.
    2000013    1    1    2    0    0 -0.51999438195E+03 -0.28249862866E+03  0.23861714095E+03  0.11443940634E+04  0.95000000000E+03 0.  0.
   -2000013    1    1    2    0    0  0.51999438195E+03  0.28249862866E+03  0.54051527641E+03  0.12429225223E+04  0.95000000000E+03 0.  0.
<mgrwt>
<rscale>  0 0.22565977E+04</rscale>
<asrwt>0</asrwt>
<pdfrwt beam="1">  1        1 0.24357300E+00 0.22565977E+04</pdfrwt>
<pdfrwt beam="2">  1       -1 0.12370647E+00 0.22565977E+04</pdfrwt>
<totfact> 0.29856929E+00</totfact>
</mgrwt>
</event>
<event>
 4    1  0.1323225E-008  0.2171758E+04  0.7816531E-02  0.8530276E-01
          2   -1    0    0  501    0  0.00000000000E+00  0.00000000000E+00  0.12978133728E+04  0.12978133728E+04  0.00000000000E+00 0.  1.
         -2   -1    0    0    0  501 -0.00000000000E+00 -0.00000000000E+00 -0.90855352183E+03  0.90855352183E+03  0.00000000000E+00 0. -1.
    2000013    1    1    2    0    0  0.34850043428E+03 -0.34473093725E+03  0.95900037499E+00  0.10690149164E+04  0.95000000000E+03 0.  0.
   -2000013    1    1    2    0    0 -0.34850043428E+03  0.34473093725E+03  0.38830085057E+03  0.11373519782E+04  0.95000000000E+03 0.  0.
<mgrwt>
<rscale>  0 0.21717577E+04</rscale>
<asrwt>0</asrwt>
<pdfrwt beam="1">  1        2 0.19966360E+00 0.21717577E+04</pdfrwt>
<pdfrwt beam="2">  1       -2 0.13977746E+00 0.21717577E+04</pdfrwt>
<totfact> 0.54791274E+00</totfact>
</mgrwt>
</event>
<event>
 4    1  0.1323225E-008  0.2406758E+04  0.7816531E-02  0.8436978E-01
         -2   -1    0    0    0  501 -0.00000000000E+00  0.00000000000E+00  0.59974569774E+03  0.59974569774E+03  0.00000000000E+00 0. -1.
          2   -1    0    0  501    0  0.00000000000E+00 -0.00000000000E+00 -0.24145574958E+04  0.24145574958E+04  0.00000000000E+00 0.  1.
    2000013    1    1    2    0    0 -0.64224839480E+03  0.25804462802E+03 -0.12305007636E+04  0.17016762794E+04  0.95000000000E+03 0.  0.
   -2000013    1    1    2    0    0  0.64224839480E+03 -0.25804462802E+03 -0.58431103443E+03  0.13126269141E+04  0.95000000000E+03 0.  0.
<mgrwt>
<rscale>  0 0.24067575E+04</rscale>
<asrwt>0</asrwt>
<pdfrwt beam="2">  1        2 0.37147039E+00 0.24067575E+04</pdfrwt>
<pdfrwt beam="1">  1       -2 0.92268567E-01 0.24067575E+04</pdfrwt>
<totfact> 0.34959068E+00</totfact>
</mgrwt>
</event>
<event>
 4    1  0.1323225E-008  0.2510872E+04  0.7816531E-02  0.8399123E-01
          2   -1    0    0  501    0  0.00000000000E+00  0.00000000000E+00  0.16052687509E+04  0.16052687509E+04  0.00000000000E+00 0.  1.
         -2   -1    0    0    0  501 -0.00000000000E+00 -0.00000000000E+00 -0.98184158080E+03  0.98184158080E+03  0.00000000000E+00 0. -1.
    2000013    1    1    2    0    0 -0.72780734050E+03  0.36346084022E+03  0.42369800782E+03  0.13205405367E+04  0.95000000000E+03 0.  0.
   -2000013    1    1    2    0    0  0.72780734050E+03 -0.36346084022E+03  0.19972916225E+03  0.12665697950E+04  0.95000000000E+03 0.  0.
<mgrwt>
<rscale>  0 0.25108720E+04</rscale>
<asrwt>0</asrwt>
<pdfrwt beam="1">  1        2 0.24696442E+00 0.25108720E+04</pdfrwt>
<pdfrwt beam="2">  1       -2 0.15105255E+00 0.25108720E+04</pdfrwt>
<totfact> 0.29032870E+00</totfact>
</mgrwt>
</event>
<event>
 4    1  0.1323225E-008  0.2440497E+04  0.7816531E-02  0.8424496E-01
         -2   -1    0    0    0  501 -0.00000000000E+00  0.00000000000E+00  0.70033405061E+03  0.70033405061E+03  0.00000000000E+00 0. -1.
          2   -1    0    0  501    0  0.00000000000E+00 -0.00000000000E+00 -0.21261369153E+04  0.21261369153E+04  0.00000000000E+00 0.  1.
    2000013    1    1    2    0    0  0.67863336900E+03 -0.10434171035E+03 -0.32002317964E+03  0.12150494959E+04  0.95000000000E+03 0.  0.
   -2000013    1    1    2    0    0 -0.67863336900E+03  0.10434171035E+03 -0.11057796850E+04  0.16114214700E+04  0.95000000000E+03 0.  0.
<mgrwt>
<rscale>  0 0.24404967E+04</rscale>
<asrwt>0</asrwt>
<pdfrwt beam="2">  1        2 0.32709799E+00 0.24404967E+04</pdfrwt>
<pdfrwt beam="1">  1       -2 0.10774370E+00 0.24404967E+04</pdfrwt>
<totfact> 0.35171089E+00</totfact>
</mgrwt>
</event>
<event>
 4    1  0.1323225E-008  0.2012040E+04  0.7816531E-02  0.8601012E-01
          2   -1    0    0  501    0  0.00000000000E+00  0.00000000000E+00  0.17577684078E+04  0.17577684078E+04  0.00000000000E+00 0.  1.
         -2   -1    0    0    0  501 -0.00000000000E+00 -0.00000000000E+00 -0.57577355675E+03  0.57577355675E+03  0.00000000000E+00 0. -1.
    2000013    1    1    2    0    0  0.78064661072E+02  0.18013808796E+03  0.90010399606E+03  0.13233408577E+04  0.95000000000E+03 0.  0.
   -2000013    1    1    2    0    0 -0.78064661072E+02 -0.18013808796E+03  0.28189085496E+03  0.10102011068E+04  0.95000000000E+03 0.  0.
<mgrwt>
<rscale>  0 0.20120403E+04</rscale>
<asrwt>0</asrwt>
<pdfrwt beam="1">  1        2 0.27042591E+00 0.20120403E+04</pdfrwt>
<pdfrwt beam="2">  1       -2 0.88580548E-01 0.20120403E+04</pdfrwt>
<totfact> 0.92667441E+00</totfact>
</mgrwt>
</event>
<event>
 4    1  0.1323225E-008  0.2027779E+04  0.7816531E-02  0.8593742E-01
          2   -1    0    0  501    0  0.00000000000E+00  0.00000000000E+00  0.36119941549E+04  0.36119941549E+04  0.00000000000E+00 0.  1.
         -2   -1    0    0    0  501 -0.00000000000E+00 -0.00000000000E+00 -0.28459942660E+03  0.28459942660E+03  0.00000000000E+00 0. -1.
    2000013    1    1    2    0    0 -0.21708761194E+03 -0.23789142290E+02  0.21996104938E+04  0.24059258673E+04  0.95000000000E+03 0.  0.
   -2000013    1    1    2    0    0  0.21708761194E+03  0.23789142290E+02  0.11277842345E+04  0.14906677142E+04  0.95000000000E+03 0.  0.
<mgrwt>
<rscale>  0 0.20277786E+04</rscale>
<asrwt>0</asrwt>
<pdfrwt beam="1">  1        2 0.55569137E+00 0.20277786E+04</pdfrwt>
<pdfrwt beam="2">  1       -2 0.43784530E-01 0.20277786E+04</pdfrwt>
<totfact> 0.31227281E+00</totfact>
</mgrwt>
</event>
<event>
 4    1  0.1323225E-008  0.2417193E+04  0.7816531E-02  0.8433095E-01
          2   -1    0    0  501    0  0.00000000000E+00  0.00000000000E+00  0.84090930797E+03  0.84090930797E+03  0.00000000000E+00 0.  1.
         -2   -1    0    0    0  501 -0.00000000000E+00 -0.00000000000E+00 -0.17370553825E+04  0.17370553825E+04  0.00000000000E+00 0. -1.
    2000013    1    1    2    0    0  0.50847460940E+03  0.51078602039E+03 -0.23811038597E+03  0.12159956180E+04  0.95000000000E+03 0.  0.
   -2000013    1    1    2    0    0 -0.50847460940E+03 -0.51078602039E+03 -0.65803568858E+03  0.13619690725E+04  0.95000000000E+03 0.  0.
<mgrwt>
<rscale>  0 0.24171934E+04</rscale>
<asrwt>0</asrwt>
<pdfrwt beam="1">  1        2 0.12937066E+00 0.24171934E+04</pdfrwt>
<pdfrwt beam="2">  1       -2 0.26723929E+00 0.24171934E+04</pdfrwt>
<totfact> 0.14571922E+00</totfact>
</mgrwt>
</event>
<event>
 4    1  0.1323225E-008  0.4365029E+04  0.7816531E-02  0.7934702E-01
         -2   -1    0    0    0  501 -0.00000000000E+00  0.00000000000E+00  0.17049802261E+04  0.17049802261E+04  0.00000000000E+00 0. -1.
          2   -1    0    0  501    0  0.00000000000E+00 -0.00000000000E+00 -0.27937969030E+04  0.27937969030E+04  0.00000000000E+00 0.  1.
    2000013    1    1    2    0    0 -0.15031021968E+04  0.89597101901E+03  0.37672650951E+03  0.20264508738E+04  0.95000000000E+03 0.  0.
   -2000013    1    1    2    0    0  0.15031021968E+04 -0.89597101901E+03 -0.14655431865E+04  0.24723262552E+04  0.95000000000E+03 0.  0.
<mgrwt>
<rscale>  0 0.43650285E+04</rscale>
<asrwt>0</asrwt>
<pdfrwt beam="2">  1        2 0.42981490E+00 0.43650285E+04</pdfrwt>
<pdfrwt beam="1">  1       -2 0.26230465E+00 0.43650285E+04</pdfrwt>
<totfact> 0.96478936E-02</totfact>
</mgrwt>
</event>
<event>
 4    1  0.1323225E-008  0.3723338E+04  0.7816531E-02  0.8062809E-01
         -2   -1    0    0    0  501 -0.00000000000E+00  0.00000000000E+00  0.12966418674E+04  0.12966418674E+04  0.00000000000E+00 0. -1.
          2   -1    0    0  501    0  0.00000000000E+00 -0.00000000000E+00 -0.26729139681E+04  0.26729139681E+04  0.00000000000E+00 0.  1.
    2000013    1    1    2    0    0  0.15919321225E+04  0.44846894397E+02 -0.51278136004E+03  0.19239812498E+04  0.95000000000E+03 0.  0.
   -2000013    1    1    2    0    0 -0.15919321225E+04 -0.44846894397E+02 -0.86349074062E+03  0.20455745857E+04  0.95000000000E+03 0.  0.
<mgrwt>
<rscale>  0 0.37233384E+04</rscale>
<asrwt>0</asrwt>
<pdfrwt beam="2">  1        2 0.41121753E+00 0.37233384E+04</pdfrwt>
<pdfrwt beam="1">  1       -2 0.19948336E+00 0.37233384E+04</pdfrwt>
<totfact> 0.29800267E-01</totfact>
</mgrwt>
</event>
<event>
 4    1  0.1323225E-008  0.2699972E+04  0.7816531E-02  0.8335014E-01
          2   -1    0    0  501    0  0.00000000000E+00  0.00000000000E+00  0.36997950789E+04  0.36997950789E+04  0.00000000000E+00 0.  1.
         -2   -1    0    0    0  501 -0.00000000000E+00 -0.00000000000E+00 -0.49258456757E+03  0.49258456757E+03  0.00000000000E+00 0. -1.
    2000013    1    1    2    0    0 -0.88965546530E+03  0.14271360384E+03  0.21141457176E+04  0.24867581577E+04  0.95000000000E+03 0.  0.
   -2000013    1    1    2    0    0  0.88965546530E+03 -0.14271360384E+03  0.10930647937E+04  0.17056214888E+04  0.95000000000E+03 0.  0.
<mgrwt>
<rscale>  0 0.26999718E+04</rscale>
<asrwt>0</asrwt>
<pdfrwt beam="1">  1        2 0.56919922E+00 0.26999718E+04</pdfrwt>
<pdfrwt beam="2">  1       -2 0.75782244E-01 0.26999718E+04</pdfrwt>
<totfact> 0.79982792E-01</totfact>
</mgrwt>
</event>
<event>
 4    1  0.1323225E-008  0.2723388E+04  0.7816531E-02  0.8327456E-01
          2   -1    0    0  501    0  0.00000000000E+00  0.00000000000E+00  0.20208629012E+04  0.20208629012E+04  0.00000000000E+00 0.  1.
         -2   -1    0    0    0  501 -0.00000000000E+00 -0.00000000000E+00 -0.91753381037E+03  0.91753381037E+03  0.00000000000E+00 0. -1.
    2000013    1    1    2    0    0 -0.27178582503E+03 -0.36340981659E+03 -0.38009771387E+03  0.11193339544E+04  0.95000000000E+03 0.  0.
   -2000013    1    1    2    0    0  0.27178582503E+03  0.36340981659E+03  0.14834268047E+04  0.18190627571E+04  0.95000000000E+03 0.  0.
<mgrwt>
<rscale>  0 0.27233876E+04</rscale>
<asrwt>0</asrwt>
<pdfrwt beam="1">  1        2 0.31090198E+00 0.27233876E+04</pdfrwt>
<pdfrwt beam="2">  1       -2 0.14115905E+00 0.27233876E+04</pdfrwt>
<totfact> 0.20023513E+00</totfact>
</mgrwt>
</event>
<event>
 4    1  0.1323225E-008  0.2746128E+04  0.7816531E-02  0.8320191E-01
          2   -1    0    0  501    0  0.00000000000E+00  0.00000000000E+00  0.37747869580E+04  0.37747869580E+04  0.00000000000E+00 0. -1.
         -2   -1    0    0    0  501 -0.00000000000E+00 -0.00000000000E+00 -0.49944658250E+03  0.49944658250E+03  0.00000000000E+00 0.  1.
    2000013    1    1    2    0    0  0.69753919370E+03  0.68988183579E+03  0.14158731144E+04  0.19671539213E+04  0.95000000000E+03 0.  0.
   -2000013    1    1    2    0    0 -0.69753919370E+03 -0.68988183579E+03  0.18594672612E+04  0.23070796192E+04  0.95000000000E+03 0.  0.
<mgrwt>
<rscale>  0 0.27461278E+04</rscale>
<asrwt>0</asrwt>
<pdfrwt beam="1">  1        2 0.58073644E+00 0.27461278E+04</pdfrwt>
<pdfrwt beam="2">  1       -2 0.76837938E-01 0.27461278E+04</pdfrwt>
<totfact> 0.67905268E-01</totfact>
</mgrwt>
</event>
<event>
 4    1  0.1323225E-008  0.2399882E+04  0.7816531E-02  0.8439548E-01
          1   -1    0    0  501    0  0.00000000000E+00  0.00000000000E+00  0.34793451296E+03  0.34793451296E+03  0.00000000000E+00 0.  1.
         -1   -1    0    0    0  501 -0.00000000000E+00 -0.00000000000E+00 -0.41383019919E+04  0.41383019919E+04  0.00000000000E+00 0. -1.
    2000013    1    1    2    0    0  0.35091845444E+03  0.60381917357E+03 -0.14787878803E+04  0.18913103793E+04  0.95000000000E+03 0.  0.
   -2000013    1    1    2    0    0 -0.35091845444E+03 -0.60381917357E+03 -0.23115795986E+04  0.25949261255E+04  0.95000000000E+03 0.  0.
<mgrwt>
<rscale>  0 0.23998817E+04</rscale>
<asrwt>0</asrwt>
<pdfrwt beam="1">  1        1 0.53528385E-01 0.23998817E+04</pdfrwt>
<pdfrwt beam="2">  1       -1 0.63666186E+00 0.23998817E+04</pdfrwt>
<totfact> 0.20579717E-02</totfact>
</mgrwt>
</event>
<event>
 4    1  0.1323225E-008  0.3166916E+04  0.7816531E-02  0.8197610E-01
         -2   -1    0    0    0  501 -0.00000000000E+00  0.00000000000E+00  0.11007436205E+04  0.11007436205E+04  0.00000000000E+00 0.  1.
          2   -1    0    0  501    0  0.00000000000E+00 -0.00000000000E+00 -0.22778591781E+04  0.22778591781E+04  0.00000000000E+00 0. -1.
    2000013    1    1    2    0    0 -0.12054266501E+04 -0.37393613245E+03 -0.47189897391E+03  0.16486571146E+04  0.95000000000E+03 0.  0.
   -2000013    1    1    2    0    0  0.12054266501E+04  0.37393613245E+03 -0.70521658370E+03  0.17299456841E+04  0.95000000000E+03 0.  0.
<mgrwt>
<rscale>  0 0.31669158E+04</rscale>
<asrwt>0</asrwt>
<pdfrwt beam="2">  1        2 0.35043987E+00 0.31669158E+04</pdfrwt>
<pdfrwt beam="1">  1       -2 0.16934518E+00 0.31669158E+04</pdfrwt>
<totfact> 0.84884593E-01</totfact>
</mgrwt>
</event>
<event>
 4    1  0.1323225E-008  0.2414671E+04  0.7816531E-02  0.8434031E-01
          2   -1    0    0  501    0  0.00000000000E+00  0.00000000000E+00  0.13392167383E+04  0.13392167383E+04  0.00000000000E+00 0.  1.
         -2   -1    0    0    0  501 -0.00000000000E+00 -0.00000000000E+00 -0.10884411167E+04  0.10884411167E+04  0.00000000000E+00 0. -1.
    2000013    1    1    2    0    0  0.40927907947E+03 -0.60357967377E+03 -0.28210773137E+02  0.11979622845E+04  0.95000000000E+03 0.  0.
   -2000013    1    1    2    0    0 -0.40927907947E+03  0.60357967377E+03  0.27898639469E+03  0.12296955704E+04  0.95000000000E+03 0.  0.
<mgrwt>
<rscale>  0 0.24146706E+04</rscale>
<asrwt>0</asrwt>
<pdfrwt beam="1">  1        2 0.20603334E+00 0.24146706E+04</pdfrwt>
<pdfrwt beam="2">  1       -2 0.16745248E+00 0.24146706E+04</pdfrwt>
<totfact> 0.31316671E+00</totfact>
</mgrwt>
</event>
<event>
 4    1  0.1323225E-008  0.2617505E+04  0.7816531E-02  0.8362279E-01
         -2   -1    0    0    0  501 -0.00000000000E+00  0.00000000000E+00  0.24675756862E+04  0.24675756862E+04  0.00000000000E+00 0.  1.
          2   -1    0    0  501    0  0.00000000000E+00 -0.00000000000E+00 -0.69413587422E+03  0.69413587422E+03  0.00000000000E+00 0. -1.
    2000013    1    1    2    0    0  0.11308847132E+03 -0.88901118589E+03  0.78420455226E+03  0.15233537576E+04  0.95000000000E+03 0.  0.
   -2000013    1    1    2    0    0 -0.11308847132E+03  0.88901118589E+03  0.98923525967E+03  0.16383578028E+04  0.95000000000E+03 0.  0.
<mgrwt>
<rscale>  0 0.26175048E+04</rscale>
<asrwt>0</asrwt>
<pdfrwt beam="2">  1        2 0.10679014E+00 0.26175048E+04</pdfrwt>
<pdfrwt beam="1">  1       -2 0.37962702E+00 0.26175048E+04</pdfrwt>
<totfact> 0.36832390E-01</totfact>
</mgrwt>
</event>
<event>
 4    1  0.1323225E-008  0.2368495E+04  0.7816531E-02  0.8451393E-01
          1   -1    0    0  501    0  0.00000000000E+00  0.00000000000E+00  0.10414338617E+04  0.10414338617E+04  0.00000000000E+00 0.  1.
         -1   -1    0    0    0  501 -0.00000000000E+00 -0.00000000000E+00 -0.13466459519E+04  0.13466459519E+04  0.00000000000E+00 0. -1.
    2000013    1    1    2    0    0 -0.85492886374E+02  0.59521895425E+03  0.22242119305E+03  0.11461089932E+04  0.95000000000E+03 0.  0.
   -2000013    1    1    2    0    0  0.85492886374E+02 -0.59521895425E+03 -0.52763328333E+03  0.12419708204E+04  0.95000000000E+03 0.  0.
<mgrwt>
<rscale>  0 0.23684955E+04</rscale>
<asrwt>0</asrwt>
<pdfrwt beam="1">  1        1 0.16022060E+00 0.23684955E+04</pdfrwt>
<pdfrwt beam="2">  1       -1 0.20717630E+00 0.23684955E+04</pdfrwt>
<totfact> 0.16964890E+00</totfact>
</mgrwt>
</event>
<event>
 4    1  0.1323225E-008  0.2199745E+04  0.7816531E-02  0.8518534E-01
         -2   -1    0    0    0  501 -0.00000000000E+00  0.00000000000E+00  0.50049438091E+03  0.50049438091E+03  0.00000000000E+00 0. -1.
          2   -1    0    0  501    0  0.00000000000E+00 -0.00000000000E+00 -0.24170489270E+04  0.24170489270E+04  0.00000000000E+00 0.  1.
    2000013    1    1    2    0    0  0.25241262705E+02 -0.39072395660E+03 -0.43793585961E+03  0.11169557506E+04  0.95000000000E+03 0.  0.
   -2000013    1    1    2    0    0 -0.25241262705E+02  0.39072395660E+03 -0.14786186865E+04  0.18005875573E+04  0.95000000000E+03 0.  0.
<mgrwt>
<rscale>  0 0.21997449E+04</rscale>
<asrwt>0</asrwt>
<pdfrwt beam="2">  1        2 0.37185368E+00 0.21997449E+04</pdfrwt>
<pdfrwt beam="1">  1       -2 0.76999135E-01 0.21997449E+04</pdfrwt>
<totfact> 0.53506418E+00</totfact>
</mgrwt>
</event>
<event>
 4    1  0.1323225E-008  0.4561220E+04  0.7816531E-02  0.7900006E-01
          2   -1    0    0  501    0  0.00000000000E+00  0.00000000000E+00  0.23321497073E+04  0.23321497073E+04  0.00000000000E+00 0.  1.
         -2   -1    0    0    0  501 -0.00000000000E+00 -0.00000000000E+00 -0.22302089705E+04  0.22302089705E+04  0.00000000000E+00 0. -1.
    2000013    1    1    2    0    0  0.16561894687E+04 -0.33500346378E+03  0.12527238128E+04  0.23080311584E+04  0.95000000000E+03 0.  0.
   -2000013    1    1    2    0    0 -0.16561894687E+04  0.33500346378E+03 -0.11507830760E+04  0.22543275194E+04  0.95000000000E+03 0.  0.
<mgrwt>
<rscale>  0 0.45612197E+04</rscale>
<asrwt>0</asrwt>
<pdfrwt beam="1">  1        2 0.35879226E+00 0.45612197E+04</pdfrwt>
<pdfrwt beam="2">  1       -2 0.34310907E+00 0.45612197E+04</pdfrwt>
<totfact> 0.56343052E-02</totfact>
</mgrwt>
</event>
<event>
 4    1  0.1323225E-008  0.2357254E+04  0.7816531E-02  0.8455683E-01
         -2   -1    0    0    0  501 -0.00000000000E+00  0.00000000000E+00  0.38943584147E+03  0.38943584147E+03  0.00000000000E+00 0.  1.
          2   -1    0    0  501    0  0.00000000000E+00 -0.00000000000E+00 -0.35671124037E+04  0.35671124037E+04  0.00000000000E+00 0. -1.
    2000013    1    1    2    0    0  0.61278556573E+03  0.25738322119E+03 -0.12331434753E+04  0.16926001012E+04  0.95000000000E+03 0.  0.
   -2000013    1    1    2    0    0 -0.61278556573E+03 -0.25738322119E+03 -0.19445330870E+04  0.22639481440E+04  0.95000000000E+03 0.  0.
<mgrwt>
<rscale>  0 0.23572538E+04</rscale>
<asrwt>0</asrwt>
<pdfrwt beam="2">  1        2 0.54878653E+00 0.23572538E+04</pdfrwt>
<pdfrwt beam="1">  1       -2 0.59913206E-01 0.23572538E+04</pdfrwt>
<totfact> 0.17130803E+00</totfact>
</mgrwt>
</event>
<event>
 4    1  0.1323225E-008  0.3038080E+04  0.7816531E-02  0.8232940E-01
         -2   -1    0    0    0  501 -0.00000000000E+00  0.00000000000E+00  0.81694832599E+03  0.81694832599E+03  0.00000000000E+00 0. -1.
          2   -1    0    0  501    0  0.00000000000E+00 -0.00000000000E+00 -0.28245139137E+04  0.28245139137E+04  0.00000000000E+00 0.  1.
    2000013    1    1    2    0    0 -0.83424685995E+03  0.11901033568E+03 -0.20029136932E+04  0.23715595177E+04  0.95000000000E+03 0.  0.
   -2000013    1    1    2    0    0  0.83424685995E+03 -0.11901033568E+03 -0.46518945131E+01  0.12699027220E+04  0.95000000000E+03 0.  0.
<mgrwt>
<rscale>  0 0.30380796E+04</rscale>
<asrwt>0</asrwt>
<pdfrwt beam="2">  1        2 0.43454060E+00 0.30380796E+04</pdfrwt>
<pdfrwt beam="1">  1       -2 0.12568436E+00 0.30380796E+04</pdfrwt>
<totfact> 0.90139904E-01</totfact>
</mgrwt>
</event>
<event>
 4    1  0.1323225E-008  0.2048996E+04  0.7816531E-02  0.8584050E-01
         -2   -1    0    0    0  501 -0.00000000000E+00  0.00000000000E+00  0.41207105410E+03  0.41207105410E+03  0.00000000000E+00 0. -1.
          2   -1    0    0  501    0  0.00000000000E+00 -0.00000000000E+00 -0.25471231337E+04  0.25471231337E+04  0.00000000000E+00 0.  1.
    2000013    1    1    2    0    0 -0.74487996568E+02 -0.37101209936E+03 -0.11576858479E+04  0.15446471966E+04  0.95000000000E+03 0.  0.
   -2000013    1    1    2    0    0  0.74487996568E+02  0.37101209936E+03 -0.97736623175E+03  0.14145469913E+04  0.95000000000E+03 0.  0.
<mgrwt>
<rscale>  0 0.20489956E+04</rscale>
<asrwt>0</asrwt>
<pdfrwt beam="2">  1        2 0.39186509E+00 0.20489956E+04</pdfrwt>
<pdfrwt beam="1">  1       -2 0.63395547E-01 0.20489956E+04</pdfrwt>
<totfact> 0.69701054E+00</totfact>
</mgrwt>
</event>
<event>
 4    1  0.1323225E-008  0.2319563E+04  0.7816531E-02  0.8470247E-01
         -2   -1    0    0    0  501 -0.00000000000E+00  0.00000000000E+00  0.72807663820E+03  0.72807663820E+03  0.00000000000E+00 0. -1.
          2   -1    0    0  501    0  0.00000000000E+00 -0.00000000000E+00 -0.18474607641E+04  0.18474607641E+04  0.00000000000E+00 0.  1.
    2000013    1    1    2    0    0 -0.12902842761E+03 -0.65262196268E+03 -0.55368576823E+03  0.12851582359E+04  0.95000000000E+03 0.  0.
   -2000013    1    1    2    0    0  0.12902842761E+03  0.65262196268E+03 -0.56569835769E+03  0.12903791664E+04  0.95000000000E+03 0.  0.
<mgrwt>
<rscale>  0 0.23195629E+04</rscale>
<asrwt>0</asrwt>
<pdfrwt beam="2">  1        2 0.28422473E+00 0.23195629E+04</pdfrwt>
<pdfrwt beam="1">  1       -2 0.11201179E+00 0.23195629E+04</pdfrwt>
<totfact> 0.46218346E+00</totfact>
</mgrwt>
</event>
<event>
 4    1  0.1323225E-008  0.2866865E+04  0.7816531E-02  0.8282805E-01
          2   -1    0    0  501    0  0.00000000000E+00  0.00000000000E+00  0.30418993939E+04  0.30418993939E+04  0.00000000000E+00 0.  1.
         -2   -1    0    0    0  501 -0.00000000000E+00 -0.00000000000E+00 -0.67547562353E+03  0.67547562353E+03  0.00000000000E+00 0. -1.
    2000013    1    1    2    0    0 -0.92615227365E+03 -0.19766287737E+03  0.52791248637E+03  0.14415339886E+04  0.95000000000E+03 0.  0.
   -2000013    1    1    2    0    0  0.92615227365E+03  0.19766287737E+03  0.18385112840E+04  0.22758410289E+04  0.95000000000E+03 0.  0.
<mgrwt>
<rscale>  0 0.28668651E+04</rscale>
<asrwt>0</asrwt>
<pdfrwt beam="1">  1        2 0.46798452E+00 0.28668651E+04</pdfrwt>
<pdfrwt beam="2">  1       -2 0.10391933E+00 0.28668651E+04</pdfrwt>
<totfact> 0.10680014E+00</totfact>
</mgrwt>
</event>
<event>
 4    1  0.1323225E-008  0.2917440E+04  0.7816531E-02  0.8267707E-01
         -2   -1    0    0    0  501 -0.00000000000E+00  0.00000000000E+00  0.10800030628E+04  0.10800030628E+04  0.00000000000E+00 0. -1.
          2   -1    0    0  501    0  0.00000000000E+00 -0.00000000000E+00 -0.19702385076E+04  0.19702385076E+04  0.00000000000E+00 0.  1.
    2000013    1    1    2    0    0  0.41822644547E+03 -0.98528993808E+03 -0.74019525427E+03  0.16112413339E+04  0.95000000000E+03 0.  0.
   -2000013    1    1    2    0    0 -0.41822644547E+03  0.98528993808E+03 -0.15004019050E+03  0.14390002365E+04  0.95000000000E+03 0.  0.
<mgrwt>
<rscale>  0 0.29174397E+04</rscale>
<asrwt>0</asrwt>
<pdfrwt beam="2">  1        2 0.30311361E+00 0.29174397E+04</pdfrwt>
<pdfrwt beam="1">  1       -2 0.16615432E+00 0.29174397E+04</pdfrwt>
<totfact> 0.13586400E+00</totfact>
</mgrwt>
</event>
<event>
 4    1  0.1323225E-008  0.2482665E+04  0.7816531E-02  0.8409187E-01
         -2   -1    0    0    0  501 -0.00000000000E+00  0.00000000000E+00  0.83815148746E+03  0.83815148746E+03  0.00000000000E+00 0. -1.
          2   -1    0    0  501    0  0.00000000000E+00 -0.00000000000E+00 -0.18384583001E+04  0.18384583001E+04  0.00000000000E+00 0.  1.
    2000013    1    1    2    0    0  0.71805869342E+03  0.33111004325E+03 -0.62385281657E+03  0.13845340316E+04  0.95000000000E+03 0.  0.
   -2000013    1    1    2    0    0 -0.71805869342E+03 -0.33111004325E+03 -0.37645399605E+03  0.12920757559E+04  0.95000000000E+03 0.  0.
<mgrwt>
<rscale>  0 0.24826651E+04</rscale>
<asrwt>0</asrwt>
<pdfrwt beam="2">  1        2 0.28283973E+00 0.24826651E+04</pdfrwt>
<pdfrwt beam="1">  1       -2 0.12894639E+00 0.24826651E+04</pdfrwt>
<totfact> 0.32531614E+00</totfact>
</mgrwt>
</event>
<event>
 4    1  0.1323225E-008  0.2259000E+04  0.7816531E-02  0.8494265E-01
          1   -1    0    0  501    0  0.00000000000E+00  0.00000000000E+00  0.27587227914E+04  0.27587227914E+04  0.00000000000E+00 0.  1.
         -1   -1    0    0    0  501 -0.00000000000E+00 -0.00000000000E+00 -0.46244940244E+03  0.46244940244E+03  0.00000000000E+00 0. -1.
    2000013    1    1    2    0    0 -0.37823705289E+03 -0.29738468340E+03  0.61124323076E+03  0.12278514590E+04  0.95000000000E+03 0.  0.
   -2000013    1    1    2    0    0  0.37823705289E+03  0.29738468340E+03  0.16850301582E+04  0.19933207349E+04  0.95000000000E+03 0.  0.
<mgrwt>
<rscale>  0 0.22589995E+04</rscale>
<asrwt>0</asrwt>
<pdfrwt beam="1">  1        1 0.42441888E+00 0.22589995E+04</pdfrwt>
<pdfrwt beam="2">  1       -1 0.71146064E-01 0.22589995E+04</pdfrwt>
<totfact> 0.16143419E+00</totfact>
</mgrwt>
</event>
<event>
 4    1  0.1323225E-008  0.2204405E+04  0.7816531E-02  0.8516597E-01
          2   -1    0    0  501    0  0.00000000000E+00  0.00000000000E+00  0.24065305872E+04  0.24065305872E+04  0.00000000000E+00 0.  1.
         -2   -1    0    0    0  501 -0.00000000000E+00 -0.00000000000E+00 -0.50481419680E+03  0.50481419680E+03  0.00000000000E+00 0. -1.
    2000013    1    1    2    0    0 -0.44377451205E+03 -0.30055483630E+03  0.11600194963E+04  0.15922984202E+04  0.95000000000E+03 0.  0.
   -2000013    1    1    2    0    0  0.44377451205E+03  0.30055483630E+03  0.74169689410E+03  0.13190463638E+04  0.95000000000E+03 0.  0.
<mgrwt>
<rscale>  0 0.22044054E+04</rscale>
<asrwt>0</asrwt>
<pdfrwt beam="1">  1        2 0.37023547E+00 0.22044054E+04</pdfrwt>
<pdfrwt beam="2">  1       -2 0.77663724E-01 0.22044054E+04</pdfrwt>
<totfact> 0.53202610E+00</totfact>
</mgrwt>
</event>
<event>
 4    1  0.1323225E-008  0.2635188E+04  0.7816531E-02  0.8356346E-01
          2   -1    0    0  501    0  0.00000000000E+00  0.00000000000E+00  0.19685613643E+04  0.19685613643E+04  0.00000000000E+00 0.  1.
         -2   -1    0    0    0  501 -0.00000000000E+00 -0.00000000000E+00 -0.88188958669E+03  0.88188958669E+03  0.00000000000E+00 0. -1.
    2000013    1    1    2    0    0  0.43895527904E+03  0.78050032670E+03  0.35077334286E+03  0.13518152370E+04  0.95000000000E+03 0.  0.
   -2000013    1    1    2    0    0 -0.43895527904E+03 -0.78050032670E+03  0.73589843479E+03  0.14986357140E+04  0.95000000000E+03 0.  0.
<mgrwt>
<rscale>  0 0.26351879E+04</rscale>
<asrwt>0</asrwt>
<pdfrwt beam="1">  1        2 0.30285559E+00 0.26351879E+04</pdfrwt>
<pdfrwt beam="2">  1       -2 0.13567532E+00 0.26351879E+04</pdfrwt>
<totfact> 0.23897570E+00</totfact>
</mgrwt>
</event>
<event>
 4    1  0.1323225E-008  0.2741949E+04  0.7816531E-02  0.8321521E-01
         -1   -1    0    0    0  501 -0.00000000000E+00  0.00000000000E+00  0.11678763326E+04  0.11678763326E+04  0.00000000000E+00 0. -1.
          1   -1    0    0  501    0  0.00000000000E+00 -0.00000000000E+00 -0.16093926735E+04  0.16093926735E+04  0.00000000000E+00 0.  1.
    2000013    1    1    2    0    0 -0.55707501307E+03 -0.72326160238E+03  0.16311137634E+03  0.13276088418E+04  0.95000000000E+03 0.  0.
   -2000013    1    1    2    0    0  0.55707501307E+03  0.72326160238E+03 -0.60462771725E+03  0.14496601644E+04  0.95000000000E+03 0.  0.
<mgrwt>
<rscale>  0 0.27419494E+04</rscale>
<asrwt>0</asrwt>
<pdfrwt beam="2">  1        1 0.24759887E+00 0.27419494E+04</pdfrwt>
<pdfrwt beam="1">  1       -1 0.17967328E+00 0.27419494E+04</pdfrwt>
<totfact> 0.10008972E+00</totfact>
</mgrwt>
</event>
<event>
 4    1  0.1323225E-008  0.2215497E+04  0.7816531E-02  0.8512005E-01
         -2   -1    0    0    0  501 -0.00000000000E+00  0.00000000000E+00  0.39743357064E+03  0.39743357064E+03  0.00000000000E+00 0.  1.
          2   -1    0    0  501    0  0.00000000000E+00 -0.00000000000E+00 -0.30875782041E+04  0.30875782041E+04  0.00000000000E+00 0. -1.
    2000013    1    1    2    0    0  0.43480692767E+03 -0.85058638049E+02 -0.19085439263E+04  0.21774599778E+04  0.95000000000E+03 0.  0.
   -2000013    1    1    2    0    0 -0.43480692767E+03  0.85058638049E+02 -0.78160070714E+03  0.13075517969E+04  0.95000000000E+03 0.  0.
<mgrwt>
<rscale>  0 0.22154974E+04</rscale>
<asrwt>0</asrwt>
<pdfrwt beam="2">  1        2 0.47501202E+00 0.22154974E+04</pdfrwt>
<pdfrwt beam="1">  1       -2 0.61143628E-01 0.22154974E+04</pdfrwt>
<totfact> 0.34863444E+00</totfact>
</mgrwt>
</event>
<event>
 4    1  0.1323225E-008  0.2129404E+04  0.7816531E-02  0.8548400E-01
          2   -1    0    0  501    0  0.00000000000E+00  0.00000000000E+00  0.33687754581E+04  0.33687754581E+04  0.00000000000E+00 0.  1.
         -2   -1    0    0    0  501 -0.00000000000E+00 -0.00000000000E+00 -0.33649923183E+03  0.33649923183E+03  0.00000000000E+00 0. -1.
    2000013    1    1    2    0    0 -0.36328453207E+03  0.10412976673E+03  0.20331173186E+04  0.22757163027E+04  0.95000000000E+03 0.  0.
   -2000013    1    1    2    0    0  0.36328453207E+03 -0.10412976673E+03  0.99915890773E+03  0.14295583872E+04  0.95000000000E+03 0.  0.
<mgrwt>
<rscale>  0 0.21294040E+04</rscale>
<asrwt>0</asrwt>
<pdfrwt beam="1">  1        2 0.51827313E+00 0.21294040E+04</pdfrwt>
<pdfrwt beam="2">  1       -2 0.51769115E-01 0.21294040E+04</pdfrwt>
<totfact> 0.32547743E+00</totfact>
</mgrwt>
</event>
<event>
 4    1  0.1323225E-008  0.2362065E+04  0.7816531E-02  0.8453844E-01
          2   -1    0    0  501    0  0.00000000000E+00  0.00000000000E+00  0.13859072614E+04  0.13859072614E+04  0.00000000000E+00 0.  1.
         -2   -1    0    0    0  501 -0.00000000000E+00 -0.00000000000E+00 -0.10064434780E+04  0.10064434780E+04  0.00000000000E+00 0. -1.
    2000013    1    1    2    0    0  0.58704080085E+03  0.58400858278E+02 -0.19502014820E+03  0.11351477526E+04  0.95000000000E+03 0.  0.
   -2000013    1    1    2    0    0 -0.58704080085E+03 -0.58400858278E+02  0.57448393158E+03  0.12572029867E+04  0.95000000000E+03 0.  0.
<mgrwt>
<rscale>  0 0.23620646E+04</rscale>
<asrwt>0</asrwt>
<pdfrwt beam="1">  1        2 0.21321650E+00 0.23620646E+04</pdfrwt>
<pdfrwt beam="2">  1       -2 0.15483746E+00 0.23620646E+04</pdfrwt>
<totfact> 0.36615070E+00</totfact>
</mgrwt>
</event>
<event>
 4    1  0.1323225E-008  0.2193749E+04  0.7816531E-02  0.8521035E-01
         -2   -1    0    0    0  501 -0.00000000000E+00  0.00000000000E+00  0.12872405479E+04  0.12872405479E+04  0.00000000000E+00 0. -1.
          2   -1    0    0  501    0  0.00000000000E+00 -0.00000000000E+00 -0.93466091378E+03  0.93466091378E+03  0.00000000000E+00 0.  1.
    2000013    1    1    2    0    0  0.24774776992E+03  0.32296038007E+03 -0.19578138386E+03  0.10519090811E+04  0.95000000000E+03 0.  0.
   -2000013    1    1    2    0    0 -0.24774776992E+03 -0.32296038007E+03  0.54836101794E+03  0.11699923806E+04  0.95000000000E+03 0.  0.
<mgrwt>
<rscale>  0 0.21937488E+04</rscale>
<asrwt>0</asrwt>
<pdfrwt beam="2">  1        2 0.14379399E+00 0.21937488E+04</pdfrwt>
<pdfrwt beam="1">  1       -2 0.19803701E+00 0.21937488E+04</pdfrwt>
<totfact> 0.34814539E+00</totfact>
</mgrwt>
</event>
<event>
 4    1  0.1323225E-008  0.3502813E+04  0.7816531E-02  0.8113124E-01
          2   -1    0    0  501    0  0.00000000000E+00  0.00000000000E+00  0.27111609389E+04  0.27111609389E+04  0.00000000000E+00 0.  1.
         -2   -1    0    0    0  501 -0.00000000000E+00 -0.00000000000E+00 -0.11314063639E+04  0.11314063639E+04  0.00000000000E+00 0. -1.
    2000013    1    1    2    0    0  0.14154162543E+04  0.32664930384E+03  0.53302634011E+03  0.18156872032E+04  0.95000000000E+03 0.  0.
   -2000013    1    1    2    0    0 -0.14154162543E+04 -0.32664930384E+03  0.10467282349E+04  0.20268800996E+04  0.95000000000E+03 0.  0.
<mgrwt>
<rscale>  0 0.35028130E+04</rscale>
<asrwt>0</asrwt>
<pdfrwt beam="1">  1        2 0.41710168E+00 0.35028130E+04</pdfrwt>
<pdfrwt beam="2">  1       -2 0.17406252E+00 0.35028130E+04</pdfrwt>
<totfact> 0.42843414E-01</totfact>
</mgrwt>
</event>
<event>
 4    1  0.1323225E-008  0.2820313E+04  0.7816531E-02  0.8296990E-01
         -2   -1    0    0    0  501 -0.00000000000E+00  0.00000000000E+00  0.11126591079E+04  0.11126591079E+04  0.00000000000E+00 0. -1.
          2   -1    0    0  501    0  0.00000000000E+00 -0.00000000000E+00 -0.17871969547E+04  0.17871969547E+04  0.00000000000E+00 0.  1.
    2000013    1    1    2    0    0  0.21953682954E+03  0.79494101648E+03  0.31781332571E+03  0.12975488234E+04  0.95000000000E+03 0.  0.
   -2000013    1    1    2    0    0 -0.21953682954E+03 -0.79494101648E+03 -0.99235117248E+03  0.16023072392E+04  0.95000000000E+03 0.  0.
<mgrwt>
<rscale>  0 0.28203127E+04</rscale>
<asrwt>0</asrwt>
<pdfrwt beam="2">  1        2 0.27495338E+00 0.28203127E+04</pdfrwt>
<pdfrwt beam="1">  1       -2 0.17117832E+00 0.28203127E+04</pdfrwt>
<totfact> 0.15932204E+00</totfact>
</mgrwt>
</event>
<event>
 4    1  0.1323225E-008  0.2872085E+04  0.7816531E-02  0.8281232E-01
         -1   -1    0    0    0  501 -0.00000000000E+00  0.00000000000E+00  0.15197690512E+04  0.15197690512E+04  0.00000000000E+00 0. -1.
          1   -1    0    0  501    0  0.00000000000E+00 -0.00000000000E+00 -0.13569281236E+04  0.13569281236E+04  0.00000000000E+00 0.  1.
    2000013    1    1    2    0    0 -0.59793264724E+03 -0.78473236171E+03  0.51384179871E+03  0.14628266214E+04  0.95000000000E+03 0.  0.
   -2000013    1    1    2    0    0  0.59793264724E+03  0.78473236171E+03 -0.35100087108E+03  0.14138705534E+04  0.95000000000E+03 0.  0.
<mgrwt>
<rscale>  0 0.28720845E+04</rscale>
<asrwt>0</asrwt>
<pdfrwt beam="2">  1        1 0.20875817E+00 0.28720845E+04</pdfrwt>
<pdfrwt beam="1">  1       -1 0.23381062E+00 0.28720845E+04</pdfrwt>
<totfact> 0.63141375E-01</totfact>
</mgrwt>
</event>
<event>
 4    1  0.1323225E-008  0.2375495E+04  0.7816531E-02  0.8448735E-01
          2   -1    0    0  501    0  0.00000000000E+00  0.00000000000E+00  0.15713447551E+04  0.15713447551E+04  0.00000000000E+00 0.  1.
         -2   -1    0    0    0  501 -0.00000000000E+00 -0.00000000000E+00 -0.89779405271E+03  0.89779405271E+03  0.00000000000E+00 0. -1.
    2000013    1    1    2    0    0  0.50027640548E+03 -0.46723890294E+03  0.12978884394E+03  0.11781060302E+04  0.95000000000E+03 0.  0.
   -2000013    1    1    2    0    0 -0.50027640548E+03  0.46723890294E+03  0.54376185848E+03  0.12910327777E+04  0.95000000000E+03 0.  0.
<mgrwt>
<rscale>  0 0.23754949E+04</rscale>
<asrwt>0</asrwt>
<pdfrwt beam="1">  1        2 0.24174535E+00 0.23754949E+04</pdfrwt>
<pdfrwt beam="2">  1       -2 0.13812216E+00 0.23754949E+04</pdfrwt>
<totfact> 0.38792139E+00</totfact>
</mgrwt>
</event>
<event>
 4    1  0.1323225E-008  0.2392104E+04  0.7816531E-02  0.8442465E-01
          2   -1    0    0  501    0  0.00000000000E+00  0.00000000000E+00  0.22259508923E+04  0.22259508923E+04  0.00000000000E+00 0.  1.
         -2   -1    0    0    0  501 -0.00000000000E+00 -0.00000000000E+00 -0.64266511005E+03  0.64266511005E+03  0.00000000000E+00 0. -1.
    2000013    1    1    2    0    0 -0.40267600723E+03  0.41315402387E+03  0.13214631659E+04  0.17267336543E+04  0.95000000000E+03 0.  0.
   -2000013    1    1    2    0    0  0.40267600723E+03 -0.41315402387E+03  0.26182261635E+03  0.11418823480E+04  0.95000000000E+03 0.  0.
<mgrwt>
<rscale>  0 0.23921045E+04</rscale>
<asrwt>0</asrwt>
<pdfrwt beam="1">  1        2 0.34245398E+00 0.23921045E+04</pdfrwt>
<pdfrwt beam="2">  1       -2 0.98871556E-01 0.23921045E+04</pdfrwt>
<totfact> 0.38114217E+00</totfact>
</mgrwt>
</event>
<event>
 4    1  0.1323225E-008  0.2332355E+04  0.7816531E-02  0.8465272E-01
         -2   -1    0    0    0  501 -0.00000000000E+00  0.00000000000E+00  0.45086693080E+03  0.45086693080E+03  0.00000000000E+00 0. -1.
          2   -1    0    0  501    0  0.00000000000E+00 -0.00000000000E+00 -0.30163431884E+04  0.30163431884E+04  0.00000000000E+00 0.  1.
    2000013    1    1    2    0    0  0.65323178615E+03  0.23488899953E+01 -0.15434273481E+04  0.19264955911E+04  0.95000000000E+03 0.  0.
   -2000013    1    1    2    0    0 -0.65323178615E+03 -0.23488899953E+01 -0.10220489096E+04  0.15407145282E+04  0.95000000000E+03 0.  0.
<mgrwt>
<rscale>  0 0.23323545E+04</rscale>
<asrwt>0</asrwt>
<pdfrwt beam="2">  1        2 0.46405278E+00 0.23323545E+04</pdfrwt>
<pdfrwt beam="1">  1       -2 0.69364146E-01 0.23323545E+04</pdfrwt>
<totfact> 0.29179591E+00</totfact>
</mgrwt>
</event>
<event>
 4    1  0.1323225E-008  0.2264576E+04  0.7816531E-02  0.8492021E-01
         -2   -1    0    0    0  501 -0.00000000000E+00  0.00000000000E+00  0.76330361424E+03  0.76330361424E+03  0.00000000000E+00 0.  1.
          2   -1    0    0  501    0  0.00000000000E+00 -0.00000000000E+00 -0.16796411392E+04  0.16796411392E+04  0.00000000000E+00 0. -1.
    2000013    1    1    2    0    0  0.45455510690E+03  0.22288407375E+02 -0.10177324938E+02  0.10534328153E+04  0.95000000000E+03 0.  0.
   -2000013    1    1    2    0    0 -0.45455510690E+03 -0.22288407375E+02 -0.90616020007E+03  0.13895119382E+04  0.95000000000E+03 0.  0.
<mgrwt>
<rscale>  0 0.22645760E+04</rscale>
<asrwt>0</asrwt>
<pdfrwt beam="2">  1        2 0.25840633E+00 0.22645760E+04</pdfrwt>
<pdfrwt beam="1">  1       -2 0.11743133E+00 0.22645760E+04</pdfrwt>
<totfact> 0.51278923E+00</totfact>
</mgrwt>
</event>
<event>
 4    1  0.1323225E-008  0.2603643E+04  0.7816531E-02  0.8366965E-01
          1   -1    0    0  501    0  0.00000000000E+00  0.00000000000E+00  0.14716237762E+04  0.14716237762E+04  0.00000000000E+00 0.  1.
         -1   -1    0    0    0  501 -0.00000000000E+00 -0.00000000000E+00 -0.11516114902E+04  0.11516114902E+04  0.00000000000E+00 0. -1.
    2000013    1    1    2    0    0 -0.15241704519E+03 -0.85429224043E+03  0.35946725534E+03  0.13359501845E+04  0.95000000000E+03 0.  0.
   -2000013    1    1    2    0    0  0.15241704519E+03  0.85429224043E+03 -0.39454969348E+02  0.12872850820E+04  0.95000000000E+03 0.  0.
<mgrwt>
<rscale>  0 0.26036427E+04</rscale>
<asrwt>0</asrwt>
<pdfrwt beam="1">  1        1 0.22640366E+00 0.26036427E+04</pdfrwt>
<pdfrwt beam="2">  1       -1 0.17717100E+00 0.26036427E+04</pdfrwt>
<totfact> 0.13147874E+00</totfact>
</mgrwt>
</event>
<event>
 4    1  0.1323225E-008  0.2145088E+04  0.7816531E-02  0.8541638E-01
          2   -1    0    0  501    0  0.00000000000E+00  0.00000000000E+00  0.33842913358E+04  0.33842913358E+04  0.00000000000E+00 0.  1.
         -2   -1    0    0    0  501 -0.00000000000E+00 -0.00000000000E+00 -0.33990874528E+03  0.33990874528E+03  0.00000000000E+00 0. -1.
    2000013    1    1    2    0    0 -0.37223621220E+03 -0.22797056431E+03  0.19378534416E+04  0.22018869946E+04  0.95000000000E+03 0.  0.
   -2000013    1    1    2    0    0  0.37223621220E+03  0.22797056431E+03  0.11065291489E+04  0.15223130865E+04  0.95000000000E+03 0.  0.
<mgrwt>
<rscale>  0 0.21450876E+04</rscale>
<asrwt>0</asrwt>
<pdfrwt beam="1">  1        2 0.52066018E+00 0.21450876E+04</pdfrwt>
<pdfrwt beam="2">  1       -2 0.52293655E-01 0.21450876E+04</pdfrwt>
<totfact> 0.31072816E+00</totfact>
</mgrwt>
</event>
<event>
 4    1  0.1323225E-008  0.4116429E+04  0.7816531E-02  0.7981462E-01
          2   -1    0    0  501    0  0.00000000000E+00  0.00000000000E+00  0.22585183874E+04  0.22585183874E+04  0.00000000000E+00 0.  1.
         -2   -1    0    0    0  501 -0.00000000000E+00 -0.00000000000E+00 -0.18756750844E+04  0.18756750844E+04  0.00000000000E+00 0. -1.
    2000013    1    1    2    0    0  0.83150561562E+03 -0.15822854331E+04 -0.18263416476E+03  0.20324576303E+04  0.95000000000E+03 0.  0.
   -2000013    1    1    2    0    0 -0.83150561562E+03  0.15822854331E+04  0.56547746773E+03  0.21017358415E+04  0.95000000000E+03 0.  0.
<mgrwt>
<rscale>  0 0.41164289E+04</rscale>
<asrwt>0</asrwt>
<pdfrwt beam="1">  1        2 0.34746437E+00 0.41164289E+04</pdfrwt>
<pdfrwt beam="2">  1       -2 0.28856540E+00 0.41164289E+04</pdfrwt>
<totfact> 0.13964792E-01</totfact>
</mgrwt>
</event>
<event>
 4    1  0.1323225E-008  0.2789845E+04  0.7816531E-02  0.8306428E-01
         -2   -1    0    0    0  501 -0.00000000000E+00  0.00000000000E+00  0.11854543984E+04  0.11854543984E+04  0.00000000000E+00 0. -1.
          2   -1    0    0  501    0  0.00000000000E+00 -0.00000000000E+00 -0.16414035433E+04  0.16414035433E+04  0.00000000000E+00 0.  1.
    2000013    1    1    2    0    0  0.89171358606E+03 -0.49624231149E+03 -0.27213602752E+03  0.14205518536E+04  0.95000000000E+03 0.  0.
   -2000013    1    1    2    0    0 -0.89171358606E+03  0.49624231149E+03 -0.18381311747E+03  0.14063060881E+04  0.95000000000E+03 0.  0.
<mgrwt>
<rscale>  0 0.27898452E+04</rscale>
<asrwt>0</asrwt>
<pdfrwt beam="2">  1        2 0.25252362E+00 0.27898452E+04</pdfrwt>
<pdfrwt beam="1">  1       -2 0.18237760E+00 0.27898452E+04</pdfrwt>
<totfact> 0.16080637E+00</totfact>
</mgrwt>
</event>
<event>
 4    1  0.1323225E-008  0.2613432E+04  0.7816531E-02  0.8363653E-01
         -2   -1    0    0    0  501 -0.00000000000E+00  0.00000000000E+00  0.10203365310E+04  0.10203365310E+04  0.00000000000E+00 0. -1.
          2   -1    0    0  501    0  0.00000000000E+00 -0.00000000000E+00 -0.16734737209E+04  0.16734737209E+04  0.00000000000E+00 0.  1.
    2000013    1    1    2    0    0  0.45830433499E+03 -0.76408039110E+03 -0.43538373371E+03  0.13732882811E+04  0.95000000000E+03 0.  0.
   -2000013    1    1    2    0    0 -0.45830433499E+03  0.76408039110E+03 -0.21775345626E+03  0.13205219708E+04  0.95000000000E+03 0.  0.
<mgrwt>
<rscale>  0 0.26134317E+04</rscale>
<asrwt>0</asrwt>
<pdfrwt beam="2">  1        2 0.25745749E+00 0.26134317E+04</pdfrwt>
<pdfrwt beam="1">  1       -2 0.15697485E+00 0.26134317E+04</pdfrwt>
<totfact> 0.23788123E+00</totfact>
</mgrwt>
</event>
<event>
 4    1  0.1323225E-008  0.2518542E+04  0.7816531E-02  0.8396409E-01
          2   -1    0    0  501    0  0.00000000000E+00  0.00000000000E+00  0.18019299787E+04  0.18019299787E+04  0.00000000000E+00 0.  1.
         -2   -1    0    0    0  501 -0.00000000000E+00 -0.00000000000E+00 -0.88003643277E+03  0.88003643277E+03  0.00000000000E+00 0. -1.
    2000013    1    1    2    0    0  0.52803435640E+03 -0.59033442825E+03  0.71283059110E+03  0.14275652245E+04  0.95000000000E+03 0.  0.
   -2000013    1    1    2    0    0 -0.52803435640E+03  0.59033442825E+03  0.20906295485E+03  0.12544011869E+04  0.95000000000E+03 0.  0.
<mgrwt>
<rscale>  0 0.25185425E+04</rscale>
<asrwt>0</asrwt>
<pdfrwt beam="1">  1        2 0.27722000E+00 0.25185425E+04</pdfrwt>
<pdfrwt beam="2">  1       -2 0.13539022E+00 0.25185425E+04</pdfrwt>
<totfact> 0.30021236E+00</totfact>
</mgrwt>
</event>
<event>
 4    1  0.1323225E-008  0.1960512E+04  0.7816531E-02  0.8625309E-01
         -2   -1    0    0    0  501 -0.00000000000E+00  0.00000000000E+00  0.49819430547E+03  0.49819430547E+03  0.00000000000E+00 0. -1.
          2   -1    0    0  501    0  0.00000000000E+00 -0.00000000000E+00 -0.19287685924E+04  0.19287685924E+04  0.00000000000E+00 0.  1.
    2000013    1    1    2    0    0 -0.18233193165E+03 -0.14671910909E+03 -0.64070189593E+03  0.11695171438E+04  0.95000000000E+03 0.  0.
   -2000013    1    1    2    0    0  0.18233193165E+03  0.14671910909E+03 -0.78987239101E+03  0.12574457540E+04  0.95000000000E+03 0.  0.
<mgrwt>
<rscale>  0 0.19605117E+04</rscale>
<asrwt>0</asrwt>
<pdfrwt beam="2">  1        2 0.29673363E+00 0.19605117E+04</pdfrwt>
<pdfrwt beam="1">  1       -2 0.76645278E-01 0.19605117E+04</pdfrwt>
<totfact> 0.10378564E+01</totfact>
</mgrwt>
</event>
<event>
 4    1  0.1323225E-008  0.2369932E+04  0.7816531E-02  0.8450847E-01
          2   -1    0    0  501    0  0.00000000000E+00  0.00000000000E+00  0.22572190690E+04  0.22572190690E+04  0.00000000000E+00 0.  1.
         -2   -1    0    0    0  501 -0.00000000000E+00 -0.00000000000E+00 -0.62206819973E+03  0.62206819973E+03  0.00000000000E+00 0. -1.
    2000013    1    1    2    0    0 -0.49701500033E+03  0.48487455833E+03  0.98730409121E+03  0.15360327524E+04  0.95000000000E+03 0.  0.
   -2000013    1    1    2    0    0  0.49701500033E+03 -0.48487455833E+03  0.64784677809E+03  0.13432545164E+04  0.95000000000E+03 0.  0.
<mgrwt>
<rscale>  0 0.23699318E+04</rscale>
<asrwt>0</asrwt>
<pdfrwt beam="1">  1        2 0.34726447E+00 0.23699318E+04</pdfrwt>
<pdfrwt beam="2">  1       -2 0.95702801E-01 0.23699318E+04</pdfrwt>
<totfact> 0.39581403E+00</totfact>
</mgrwt>
</event>
<event>
 4    1  0.1323225E-008  0.2615757E+04  0.7816531E-02  0.8362869E-01
          2   -1    0    0  501    0  0.00000000000E+00  0.00000000000E+00  0.73652633827E+03  0.73652633827E+03  0.00000000000E+00 0.  1.
         -2   -1    0    0    0  501 -0.00000000000E+00 -0.00000000000E+00 -0.23224500171E+04  0.23224500171E+04  0.00000000000E+00 0. -1.
    2000013    1    1    2    0    0 -0.48626883673E+03  0.72384416039E+03 -0.10482054638E+04  0.16618190167E+04  0.95000000000E+03 0.  0.
   -2000013    1    1    2    0    0  0.48626883673E+03 -0.72384416039E+03 -0.53771821507E+03  0.13971573386E+04  0.95000000000E+03 0.  0.
<mgrwt>
<rscale>  0 0.26157566E+04</rscale>
<asrwt>0</asrwt>
<pdfrwt beam="1">  1        2 0.11331174E+00 0.26157566E+04</pdfrwt>
<pdfrwt beam="2">  1       -2 0.35730000E+00 0.26157566E+04</pdfrwt>
<totfact> 0.47455568E-01</totfact>
</mgrwt>
</event>
<event>
 4    1  0.1323225E-008  0.2858622E+04  0.7816531E-02  0.8285296E-01
         -2   -1    0    0    0  501 -0.00000000000E+00  0.00000000000E+00  0.12683485652E+04  0.12683485652E+04  0.00000000000E+00 0. -1.
          2   -1    0    0  501    0  0.00000000000E+00 -0.00000000000E+00 -0.16107003190E+04  0.16107003190E+04  0.00000000000E+00 0.  1.
    2000013    1    1    2    0    0  0.97587140413E+03 -0.43195443103E+03 -0.21043920562E+03  0.14441932998E+04  0.95000000000E+03 0.  0.
   -2000013    1    1    2    0    0 -0.97587140413E+03  0.43195443103E+03 -0.13191254814E+03  0.14348555845E+04  0.95000000000E+03 0.  0.
<mgrwt>
<rscale>  0 0.28586217E+04</rscale>
<asrwt>0</asrwt>
<pdfrwt beam="2">  1        2 0.24780005E+00 0.28586217E+04</pdfrwt>
<pdfrwt beam="1">  1       -2 0.19513055E+00 0.28586217E+04</pdfrwt>
<totfact> 0.13644792E+00</totfact>
</mgrwt>
</event>
<event>
 4    1  0.1323225E-008  0.2669938E+04  0.7816531E-02  0.8344826E-01
         -2   -1    0    0    0  501 -0.00000000000E+00  0.00000000000E+00  0.81757687403E+03  0.81757687403E+03  0.00000000000E+00 0. -1.
          2   -1    0    0  501    0  0.00000000000E+00 -0.00000000000E+00 -0.21797848126E+04  0.21797848126E+04  0.00000000000E+00 0.  1.
    2000013    1    1    2    0    0 -0.92191036604E+03  0.11256757308E+03 -0.82769890901E+03  0.15653036975E+04  0.95000000000E+03 0.  0.
   -2000013    1    1    2    0    0  0.92191036604E+03 -0.11256757308E+03 -0.53450902959E+03  0.14320579891E+04  0.95000000000E+03 0.  0.
<mgrwt>
<rscale>  0 0.26699376E+04</rscale>
<asrwt>0</asrwt>
<pdfrwt beam="2">  1        2 0.33535151E+00 0.26699376E+04</pdfrwt>
<pdfrwt beam="1">  1       -2 0.12578106E+00 0.26699376E+04</pdfrwt>
<totfact> 0.22004030E+00</totfact>
</mgrwt>
</event>
<event>
 4    1  0.1323225E-008  0.2573836E+04  0.7816531E-02  0.8377143E-01
          4   -1    0    0  501    0  0.00000000000E+00  0.00000000000E+00  0.18899796922E+04  0.18899796922E+04  0.00000000000E+00 0.  1.
         -4   -1    0    0    0  501 -0.00000000000E+00 -0.00000000000E+00 -0.87628328154E+03  0.87628328154E+03  0.00000000000E+00 0. -1.
    2000013    1    1    2    0    0 -0.68488119957E+03 -0.37440402271E+03  0.91528208638E+03  0.15328019857E+04  0.95000000000E+03 0.  0.
   -2000013    1    1    2    0    0  0.68488119957E+03  0.37440402271E+03  0.98414324270E+02  0.12334609880E+04  0.95000000000E+03 0.  0.
<mgrwt>
<rscale>  0 0.25738357E+04</rscale>
<asrwt>0</asrwt>
<pdfrwt beam="1">  1        4 0.29076611E+00 0.25738357E+04</pdfrwt>
<pdfrwt beam="2">  1       -4 0.13481281E+00 0.25738357E+04</pdfrwt>
<totfact> 0.24569429E-02</totfact>
</mgrwt>
</event>
<event>
 4    1  0.1323225E-008  0.2849815E+04  0.7816531E-02  0.8287968E-01
          2   -1    0    0  501    0  0.00000000000E+00  0.00000000000E+00  0.37432207171E+04  0.37432207171E+04  0.00000000000E+00 0.  1.
         -2   -1    0    0    0  501 -0.00000000000E+00 -0.00000000000E+00 -0.54241011077E+03  0.54241011077E+03  0.00000000000E+00 0. -1.
    2000013    1    1    2    0    0  0.49111496133E+03 -0.69431379105E+03  0.64385342578E+03  0.14283951763E+04  0.95000000000E+03 0.  0.
   -2000013    1    1    2    0    0 -0.49111496133E+03  0.69431379105E+03  0.25569571806E+04  0.28572356516E+04  0.95000000000E+03 0.  0.
<mgrwt>
<rscale>  0 0.28498146E+04</rscale>
<asrwt>0</asrwt>
<pdfrwt beam="1">  1        2 0.57588010E+00 0.28498146E+04</pdfrwt>
<pdfrwt beam="2">  1       -2 0.83447712E-01 0.28498146E+04</pdfrwt>
<totfact> 0.59020470E-01</totfact>
</mgrwt>
</event>
<event>
 4    1  0.1323225E-008  0.2400912E+04  0.7816531E-02  0.8439162E-01
         -2   -1    0    0    0  501 -0.00000000000E+00  0.00000000000E+00  0.11656031771E+04  0.11656031771E+04  0.00000000000E+00 0. -1.
          2   -1    0    0  501    0  0.00000000000E+00 -0.00000000000E+00 -0.12363512963E+04  0.12363512963E+04  0.00000000000E+00 0.  1.
    2000013    1    1    2    0    0  0.71786563131E+03 -0.11019254186E+02 -0.18756671841E+03  0.12054599796E+04  0.95000000000E+03 0.  0.
   -2000013    1    1    2    0    0 -0.71786563131E+03  0.11019254186E+02  0.11681859926E+03  0.11964944938E+04  0.95000000000E+03 0.  0.
<mgrwt>
<rscale>  0 0.24009123E+04</rscale>
<asrwt>0</asrwt>
<pdfrwt beam="2">  1        2 0.19020789E+00 0.24009123E+04</pdfrwt>
<pdfrwt beam="1">  1       -2 0.17932357E+00 0.24009123E+04</pdfrwt>
<totfact> 0.29699278E+00</totfact>
</mgrwt>
</event>
<event>
 4    1  0.1323225E-008  0.3214617E+04  0.7816531E-02  0.8184967E-01
         -2   -1    0    0    0  501 -0.00000000000E+00  0.00000000000E+00  0.14674845431E+04  0.14674845431E+04  0.00000000000E+00 0. -1.
          2   -1    0    0  501    0  0.00000000000E+00 -0.00000000000E+00 -0.17604555467E+04  0.17604555467E+04  0.00000000000E+00 0.  1.
    2000013    1    1    2    0    0 -0.12108934986E+04 -0.24422153639E+03  0.24889000233E+03  0.15780853770E+04  0.95000000000E+03 0.  0.
   -2000013    1    1    2    0    0  0.12108934986E+04  0.24422153639E+03 -0.54186100587E+03  0.16498547128E+04  0.95000000000E+03 0.  0.
<mgrwt>
<rscale>  0 0.32146174E+04</rscale>
<asrwt>0</asrwt>
<pdfrwt beam="2">  1        2 0.27083931E+00 0.32146174E+04</pdfrwt>
<pdfrwt beam="1">  1       -2 0.22576685E+00 0.32146174E+04</pdfrwt>
<totfact> 0.69387146E-01</totfact>
</mgrwt>
</event>
<event>
 4    1  0.1323225E-008  0.3262581E+04  0.7816531E-02  0.8172482E-01
          2   -1    0    0  501    0  0.00000000000E+00  0.00000000000E+00  0.24507566797E+04  0.24507566797E+04  0.00000000000E+00 0.  1.
         -2   -1    0    0    0  501 -0.00000000000E+00 -0.00000000000E+00 -0.10858315268E+04  0.10858315268E+04  0.00000000000E+00 0. -1.
    2000013    1    1    2    0    0 -0.44062079163E+03 -0.11218256765E+04  0.12820632751E+04  0.19997064214E+04  0.95000000000E+03 0.  0.
   -2000013    1    1    2    0    0  0.44062079163E+03  0.11218256765E+04  0.82861877804E+02  0.15368817851E+04  0.95000000000E+03 0.  0.
<mgrwt>
<rscale>  0 0.32625811E+04</rscale>
<asrwt>0</asrwt>
<pdfrwt beam="1">  1        2 0.37703949E+00 0.32625811E+04</pdfrwt>
<pdfrwt beam="2">  1       -2 0.16705100E+00 0.32625811E+04</pdfrwt>
<totfact> 0.69665887E-01</totfact>
</mgrwt>
</event>
<event>
 4    1  0.1323225E-008  0.2288753E+04  0.7816531E-02  0.8482369E-01
         -2   -1    0    0    0  501 -0.00000000000E+00  0.00000000000E+00  0.11676356623E+04  0.11676356623E+04  0.00000000000E+00 0. -1.
          2   -1    0    0  501    0  0.00000000000E+00 -0.00000000000E+00 -0.11215802646E+04  0.11215802646E+04  0.00000000000E+00 0.  1.
    2000013    1    1    2    0    0 -0.59537218769E+03  0.21324932379E+03  0.10762495535E+03  0.11463099262E+04  0.95000000000E+03 0.  0.
   -2000013    1    1    2    0    0  0.59537218769E+03 -0.21324932379E+03 -0.61569557694E+02  0.11429060007E+04  0.95000000000E+03 0.  0.
<mgrwt>
<rscale>  0 0.22887526E+04</rscale>
<asrwt>0</asrwt>
<pdfrwt beam="2">  1        2 0.17255081E+00 0.22887526E+04</pdfrwt>
<pdfrwt beam="1">  1       -2 0.17963626E+00 0.22887526E+04</pdfrwt>
<totfact> 0.34967754E+00</totfact>
</mgrwt>
</event>
<event>
 4    1  0.1323225E-008  0.2209859E+04  0.7816531E-02  0.8514336E-01
         -2   -1    0    0    0  501 -0.00000000000E+00  0.00000000000E+00  0.40875938102E+03  0.40875938102E+03  0.00000000000E+00 0.  1.
          2   -1    0    0  501    0  0.00000000000E+00 -0.00000000000E+00 -0.29867681219E+04  0.29867681219E+04  0.00000000000E+00 0. -1.
    2000013    1    1    2    0    0 -0.50800082853E+03  0.15722720634E+03 -0.99915553435E+03  0.14776999080E+04  0.95000000000E+03 0.  0.
   -2000013    1    1    2    0    0  0.50800082853E+03 -0.15722720634E+03 -0.15788532065E+04  0.19178275950E+04  0.95000000000E+03 0.  0.
<mgrwt>
<rscale>  0 0.22098593E+04</rscale>
<asrwt>0</asrwt>
<pdfrwt beam="2">  1        2 0.45950279E+00 0.22098593E+04</pdfrwt>
<pdfrwt beam="1">  1       -2 0.62886058E-01 0.22098593E+04</pdfrwt>
<totfact> 0.38029505E+00</totfact>
</mgrwt>
</event>
<event>
 4    1  0.1323225E-008  0.2730881E+04  0.7816531E-02  0.8325054E-01
          2   -1    0    0  501    0  0.00000000000E+00  0.00000000000E+00  0.16018398403E+04  0.16018398403E+04  0.00000000000E+00 0.  1.
         -2   -1    0    0    0  501 -0.00000000000E+00 -0.00000000000E+00 -0.11639291524E+04  0.11639291524E+04  0.00000000000E+00 0. -1.
    2000013    1    1    2    0    0 -0.69282832175E+03  0.60406368660E+03  0.56541341448E+03  0.14377400148E+04  0.95000000000E+03 0.  0.
   -2000013    1    1    2    0    0  0.69282832175E+03 -0.60406368660E+03 -0.12750272655E+03  0.13280289779E+04  0.95000000000E+03 0.  0.
<mgrwt>
<rscale>  0 0.27308812E+04</rscale>
<asrwt>0</asrwt>
<pdfrwt beam="1">  1        2 0.24643690E+00 0.27308812E+04</pdfrwt>
<pdfrwt beam="2">  1       -2 0.17906602E+00 0.27308812E+04</pdfrwt>
<totfact> 0.17921284E+00</totfact>
</mgrwt>
</event>
<event>
 4    1  0.1323225E-008  0.2118887E+04  0.7816531E-02  0.8552969E-01
         -2   -1    0    0    0  501 -0.00000000000E+00  0.00000000000E+00  0.45586941711E+03  0.45586941711E+03  0.00000000000E+00 0. -1.
          2   -1    0    0  501    0  0.00000000000E+00 -0.00000000000E+00 -0.24621543769E+04  0.24621543769E+04  0.00000000000E+00 0.  1.
    2000013    1    1    2    0    0 -0.42138057702E+03  0.20442022625E+03 -0.10360693360E+04  0.14816507309E+04  0.95000000000E+03 0.  0.
   -2000013    1    1    2    0    0  0.42138057702E+03 -0.20442022625E+03 -0.97021562384E+03  0.14363730631E+04  0.95000000000E+03 0.  0.
<mgrwt>
<rscale>  0 0.21188873E+04</rscale>
<asrwt>0</asrwt>
<pdfrwt beam="2">  1        2 0.37879298E+00 0.21188873E+04</pdfrwt>
<pdfrwt beam="1">  1       -2 0.70133756E-01 0.21188873E+04</pdfrwt>
<totfact> 0.62374635E+00</totfact>
</mgrwt>
</event>
<event>
 4    1  0.1323225E-008  0.2231996E+04  0.7816531E-02  0.8505227E-01
          2   -1    0    0  501    0  0.00000000000E+00  0.00000000000E+00  0.12473162989E+04  0.12473162989E+04  0.00000000000E+00 0.  1.
         -2   -1    0    0    0  501 -0.00000000000E+00 -0.00000000000E+00 -0.99850539309E+03  0.99850539309E+03  0.00000000000E+00 0. -1.
    2000013    1    1    2    0    0 -0.10493265632E+03  0.35808412522E+03  0.57855130434E+03  0.11732249208E+04  0.95000000000E+03 0.  0.
   -2000013    1    1    2    0    0  0.10493265632E+03 -0.35808412522E+03 -0.32974039852E+03  0.10725967712E+04  0.95000000000E+03 0.  0.
<mgrwt>
<rscale>  0 0.22319965E+04</rscale>
<asrwt>0</asrwt>
<pdfrwt beam="1">  1        2 0.19189482E+00 0.22319965E+04</pdfrwt>
<pdfrwt beam="2">  1       -2 0.15361621E+00 0.22319965E+04</pdfrwt>
<totfact> 0.45513362E+00</totfact>
</mgrwt>
</event>
<event>
 4    1  0.1323225E-008  0.2316905E+04  0.7816531E-02  0.8471285E-01
          2   -1    0    0  501    0  0.00000000000E+00  0.00000000000E+00  0.81607188746E+03  0.81607188746E+03  0.00000000000E+00 0.  1.
         -2   -1    0    0    0  501 -0.00000000000E+00 -0.00000000000E+00 -0.16444782292E+04  0.16444782292E+04  0.00000000000E+00 0. -1.
    2000013    1    1    2    0    0  0.58666631735E+03 -0.28842798758E+03 -0.53123705784E+03  0.12696774723E+04  0.95000000000E+03 0.  0.
   -2000013    1    1    2    0    0 -0.58666631735E+03  0.28842798758E+03 -0.29716928390E+03  0.11908726444E+04  0.95000000000E+03 0.  0.
<mgrwt>
<rscale>  0 0.23169052E+04</rscale>
<asrwt>0</asrwt>
<pdfrwt beam="1">  1        2 0.12554952E+00 0.23169052E+04</pdfrwt>
<pdfrwt beam="2">  1       -2 0.25299665E+00 0.23169052E+04</pdfrwt>
<totfact> 0.18700606E+00</totfact>
</mgrwt>
</event>
<event>
 4    1  0.1323225E-008  0.2876448E+04  0.7816531E-02  0.8279919E-01
          2   -1    0    0  501    0  0.00000000000E+00  0.00000000000E+00  0.20349759439E+04  0.20349759439E+04  0.00000000000E+00 0. -1.
         -2   -1    0    0    0  501 -0.00000000000E+00 -0.00000000000E+00 -0.10164684145E+04  0.10164684145E+04  0.00000000000E+00 0.  1.
    2000013    1    1    2    0    0  0.10645399297E+04 -0.18042009566E+03  0.52395692972E+03  0.15306297844E+04  0.95000000000E+03 0.  0.
   -2000013    1    1    2    0    0 -0.10645399297E+04  0.18042009566E+03  0.49455059971E+03  0.15208145740E+04  0.95000000000E+03 0.  0.
<mgrwt>
<rscale>  0 0.28764483E+04</rscale>
<asrwt>0</asrwt>
<pdfrwt beam="1">  1        2 0.31307322E+00 0.28764483E+04</pdfrwt>
<pdfrwt beam="2">  1       -2 0.15637976E+00 0.28764483E+04</pdfrwt>
<totfact> 0.14807353E+00</totfact>
</mgrwt>
</event>
<event>
 4    1  0.1323225E-008  0.2227806E+04  0.7816531E-02  0.8506943E-01
          1   -1    0    0  501    0  0.00000000000E+00  0.00000000000E+00  0.12538112144E+04  0.12538112144E+04  0.00000000000E+00 0. -1.
         -1   -1    0    0    0  501 -0.00000000000E+00 -0.00000000000E+00 -0.98960642288E+03  0.98960642288E+03  0.00000000000E+00 0.  1.
    2000013    1    1    2    0    0  0.34990982330E+03  0.70620787366E+02 -0.33030548041E+03  0.10672515591E+04  0.95000000000E+03 0.  0.
   -2000013    1    1    2    0    0 -0.34990982330E+03 -0.70620787366E+02  0.59451027197E+03  0.11761660782E+04  0.95000000000E+03 0.  0.
<mgrwt>
<rscale>  0 0.22278058E+04</rscale>
<asrwt>0</asrwt>
<pdfrwt beam="1">  1        1 0.19289403E+00 0.22278058E+04</pdfrwt>
<pdfrwt beam="2">  1       -1 0.15224714E+00 0.22278058E+04</pdfrwt>
<totfact> 0.29765362E+00</totfact>
</mgrwt>
</event>
<event>
 4    1  0.1323225E-008  0.2227720E+04  0.7816531E-02  0.8506978E-01
          2   -1    0    0  501    0  0.00000000000E+00  0.00000000000E+00  0.18878071758E+04  0.18878071758E+04  0.00000000000E+00 0.  1.
         -2   -1    0    0    0  501 -0.00000000000E+00 -0.00000000000E+00 -0.65720896688E+03  0.65720896688E+03  0.00000000000E+00 0. -1.
    2000013    1    1    2    0    0  0.53979093914E+03  0.16607248899E+03  0.45687776059E+03  0.11959061910E+04  0.95000000000E+03 0.  0.
   -2000013    1    1    2    0    0 -0.53979093914E+03 -0.16607248899E+03  0.77372044838E+03  0.13491099517E+04  0.95000000000E+03 0.  0.
<mgrwt>
<rscale>  0 0.22277197E+04</rscale>
<asrwt>0</asrwt>
<pdfrwt beam="1">  1        2 0.29043187E+00 0.22277197E+04</pdfrwt>
<pdfrwt beam="2">  1       -2 0.10110907E+00 0.22277197E+04</pdfrwt>
<totfact> 0.56592962E+00</totfact>
</mgrwt>
</event>
<event>
 4    1  0.1323225E-008  0.3116709E+04  0.7816531E-02  0.8211167E-01
         -2   -1    0    0    0  501 -0.00000000000E+00  0.00000000000E+00  0.11924652063E+04  0.11924652063E+04  0.00000000000E+00 0. -1.
          2   -1    0    0  501    0  0.00000000000E+00 -0.00000000000E+00 -0.20365115949E+04  0.20365115949E+04  0.00000000000E+00 0.  1.
    2000013    1    1    2    0    0 -0.11532821934E+04 -0.27131620567E+03 -0.78432990976E+03  0.17091944619E+04  0.95000000000E+03 0.  0.
   -2000013    1    1    2    0    0  0.11532821934E+04  0.27131620567E+03 -0.59716478837E+02  0.15197823393E+04  0.95000000000E+03 0.  0.
<mgrwt>
<rscale>  0 0.31167093E+04</rscale>
<asrwt>0</asrwt>
<pdfrwt beam="2">  1        2 0.31330947E+00 0.31167093E+04</pdfrwt>
<pdfrwt beam="1">  1       -2 0.18345619E+00 0.31167093E+04</pdfrwt>
<totfact> 0.92801972E-01</totfact>
</mgrwt>
</event>
<event>
 4    1  0.1323225E-008  0.2543843E+04  0.7816531E-02  0.8387531E-01
         -2   -1    0    0    0  501 -0.00000000000E+00  0.00000000000E+00  0.53838396074E+03  0.53838396074E+03  0.00000000000E+00 0.  1.
          2   -1    0    0  501    0  0.00000000000E+00 -0.00000000000E+00 -0.30048898960E+04  0.30048898960E+04  0.00000000000E+00 0. -1.
    2000013    1    1    2    0    0  0.54248695416E+03 -0.63370889483E+03 -0.14272863313E+04  0.19067053602E+04  0.95000000000E+03 0.  0.
   -2000013    1    1    2    0    0 -0.54248695416E+03  0.63370889483E+03 -0.10392196039E+04  0.16365684966E+04  0.95000000000E+03 0.  0.
<mgrwt>
<rscale>  0 0.25438432E+04</rscale>
<asrwt>0</asrwt>
<pdfrwt beam="2">  1        2 0.46229075E+00 0.25438432E+04</pdfrwt>
<pdfrwt beam="1">  1       -2 0.82828301E-01 0.25438432E+04</pdfrwt>
<totfact> 0.19635247E+00</totfact>
</mgrwt>
</event>
<event>
 4    1  0.1323225E-008  0.2827732E+04  0.7816531E-02  0.8294710E-01
          2   -1    0    0  501    0  0.00000000000E+00  0.00000000000E+00  0.20013965424E+04  0.20013965424E+04  0.00000000000E+00 0.  1.
         -2   -1    0    0    0  501 -0.00000000000E+00 -0.00000000000E+00 -0.99881094624E+03  0.99881094624E+03  0.00000000000E+00 0. -1.
    2000013    1    1    2    0    0 -0.99904877388E+03  0.13430374224E+03  0.20048484818E+03  0.13995821241E+04  0.95000000000E+03 0.  0.
   -2000013    1    1    2    0    0  0.99904877388E+03 -0.13430374224E+03  0.80210074801E+03  0.16006253646E+04  0.95000000000E+03 0.  0.
<mgrwt>
<rscale>  0 0.28277318E+04</rscale>
<asrwt>0</asrwt>
<pdfrwt beam="1">  1        2 0.30790716E+00 0.28277318E+04</pdfrwt>
<pdfrwt beam="2">  1       -2 0.15366322E+00 0.28277318E+04</pdfrwt>
<totfact> 0.16269618E+00</totfact>
</mgrwt>
</event>
<event>
 4    1  0.1323225E-008  0.2362865E+04  0.7816531E-02  0.8453539E-01
         -2   -1    0    0    0  501 -0.00000000000E+00  0.00000000000E+00  0.92130249056E+03  0.92130249056E+03  0.00000000000E+00 0. -1.
          2   -1    0    0  501    0  0.00000000000E+00 -0.00000000000E+00 -0.15150101362E+04  0.15150101362E+04  0.00000000000E+00 0.  1.
    2000013    1    1    2    0    0 -0.44812290467E+03 -0.53453266387E+03 -0.21218363205E+03  0.11975229435E+04  0.95000000000E+03 0.  0.
   -2000013    1    1    2    0    0  0.44812290467E+03  0.53453266387E+03 -0.38152401358E+03  0.12387896833E+04  0.95000000000E+03 0.  0.
<mgrwt>
<rscale>  0 0.23628649E+04</rscale>
<asrwt>0</asrwt>
<pdfrwt beam="2">  1        2 0.23307848E+00 0.23628649E+04</pdfrwt>
<pdfrwt beam="1">  1       -2 0.14173885E+00 0.23628649E+04</pdfrwt>
<totfact> 0.39057264E+00</totfact>
</mgrwt>
</event>
<event>
 4    1  0.1323225E-008  0.3055044E+04  0.7816531E-02  0.8228185E-01
         -2   -1    0    0    0  501 -0.00000000000E+00  0.00000000000E+00  0.97429806064E+03  0.97429806064E+03  0.00000000000E+00 0. -1.
          2   -1    0    0  501    0  0.00000000000E+00 -0.00000000000E+00 -0.23948771182E+04  0.23948771182E+04  0.00000000000E+00 0.  1.
    2000013    1    1    2    0    0 -0.91927736503E+03  0.73308958418E+03 -0.46783652180E+03  0.15823597010E+04  0.95000000000E+03 0.  0.
   -2000013    1    1    2    0    0  0.91927736503E+03 -0.73308958418E+03 -0.95274253573E+03  0.17868154778E+04  0.95000000000E+03 0.  0.
<mgrwt>
<rscale>  0 0.30550444E+04</rscale>
<asrwt>0</asrwt>
<pdfrwt beam="2">  1        2 0.36844263E+00 0.30550444E+04</pdfrwt>
<pdfrwt beam="1">  1       -2 0.14989201E+00 0.30550444E+04</pdfrwt>
<totfact> 0.10237372E+00</totfact>
</mgrwt>
</event>
<event>
 4    1  0.1323225E-008  0.2028901E+04  0.7816531E-02  0.8593227E-01
         -2   -1    0    0    0  501 -0.00000000000E+00  0.00000000000E+00  0.33483513610E+03  0.33483513610E+03  0.00000000000E+00 0. -1.
          2   -1    0    0  501    0  0.00000000000E+00 -0.00000000000E+00 -0.30734811838E+04  0.30734811838E+04  0.00000000000E+00 0.  1.
    2000013    1    1    2    0    0 -0.33639549394E+03 -0.11570396972E+03 -0.13823519813E+04  0.17146271714E+04  0.95000000000E+03 0.  0.
   -2000013    1    1    2    0    0  0.33639549394E+03  0.11570396972E+03 -0.13562940664E+04  0.16936891485E+04  0.95000000000E+03 0.  0.
<mgrwt>
<rscale>  0 0.20289007E+04</rscale>
<asrwt>0</asrwt>
<pdfrwt beam="2">  1        2 0.47284324E+00 0.20289007E+04</pdfrwt>
<pdfrwt beam="1">  1       -2 0.51513099E-01 0.20289007E+04</pdfrwt>
<totfact> 0.51761940E+00</totfact>
</mgrwt>
</event>
<event>
 4    1  0.1323225E-008  0.2221423E+04  0.7816531E-02  0.8509564E-01
          2   -1    0    0  501    0  0.00000000000E+00  0.00000000000E+00  0.11561585904E+04  0.11561585904E+04  0.00000000000E+00 0. -1.
         -2   -1    0    0    0  501 -0.00000000000E+00 -0.00000000000E+00 -0.10670509794E+04  0.10670509794E+04  0.00000000000E+00 0.  1.
    2000013    1    1    2    0    0 -0.29832867614E+03  0.47866107434E+03  0.15894241156E+03  0.11161895508E+04  0.95000000000E+03 0.  0.
   -2000013    1    1    2    0    0  0.29832867614E+03 -0.47866107434E+03 -0.69834800492E+02  0.11070200190E+04  0.95000000000E+03 0.  0.
<mgrwt>
<rscale>  0 0.22214231E+04</rscale>
<asrwt>0</asrwt>
<pdfrwt beam="1">  1        2 0.17787055E+00 0.22214231E+04</pdfrwt>
<pdfrwt beam="2">  1       -2 0.16416169E+00 0.22214231E+04</pdfrwt>
<totfact> 0.43121224E+00</totfact>
</mgrwt>
</event>
<event>
 4    1  0.1323225E-008  0.2198679E+04  0.7816531E-02  0.8518978E-01
          4   -1    0    0  501    0  0.00000000000E+00  0.00000000000E+00  0.10481912400E+04  0.10481912400E+04  0.00000000000E+00 0.  1.
         -4   -1    0    0    0  501 -0.00000000000E+00 -0.00000000000E+00 -0.11529831846E+04  0.11529831846E+04  0.00000000000E+00 0. -1.
    2000013    1    1    2    0    0 -0.45720834451E+03 -0.37743183712E+02 -0.36191169396E+03  0.11153224164E+04  0.95000000000E+03 0.  0.
   -2000013    1    1    2    0    0  0.45720834451E+03  0.37743183712E+02  0.25711974934E+03  0.10858520082E+04  0.95000000000E+03 0.  0.
<mgrwt>
<rscale>  0 0.21986786E+04</rscale>
<asrwt>0</asrwt>
<pdfrwt beam="1">  1        4 0.16126019E+00 0.21986786E+04</pdfrwt>
<pdfrwt beam="2">  1       -4 0.17738203E+00 0.21986786E+04</pdfrwt>
<totfact> 0.83887516E-02</totfact>
</mgrwt>
</event>
<event>
 4    1  0.1323225E-008  0.3144360E+04  0.7816531E-02  0.8203668E-01
          2   -1    0    0  501    0  0.00000000000E+00  0.00000000000E+00  0.28078017012E+04  0.28078017012E+04  0.00000000000E+00 0.  1.
         -2   -1    0    0    0  501 -0.00000000000E+00 -0.00000000000E+00 -0.88031515908E+03  0.88031515908E+03  0.00000000000E+00 0. -1.
    2000013    1    1    2    0    0  0.78171767438E+03 -0.38135535211E+03 -0.93675736748E+02  0.12914292744E+04  0.95000000000E+03 0.  0.
   -2000013    1    1    2    0    0 -0.78171767438E+03  0.38135535211E+03  0.20211622789E+04  0.23966875860E+04  0.95000000000E+03 0.  0.
<mgrwt>
<rscale>  0 0.31443603E+04</rscale>
<asrwt>0</asrwt>
<pdfrwt beam="1">  1        2 0.43196949E+00 0.31443603E+04</pdfrwt>
<pdfrwt beam="2">  1       -2 0.13543310E+00 0.31443603E+04</pdfrwt>
<totfact> 0.75676802E-01</totfact>
</mgrwt>
</event>
<event>
 4    1  0.1323225E-008  0.2014002E+04  0.7816531E-02  0.8600102E-01
         -2   -1    0    0    0  501 -0.00000000000E+00  0.00000000000E+00  0.60320738876E+03  0.60320738876E+03  0.00000000000E+00 0. -1.
          2   -1    0    0  501    0  0.00000000000E+00 -0.00000000000E+00 -0.16810989758E+04  0.16810989758E+04  0.00000000000E+00 0.  1.
    2000013    1    1    2    0    0  0.85812674946E+02  0.28789139810E+03 -0.37338943374E+03  0.10640323968E+04  0.95000000000E+03 0.  0.
   -2000013    1    1    2    0    0 -0.85812674946E+02 -0.28789139810E+03 -0.70450215328E+03  0.12202739677E+04  0.95000000000E+03 0.  0.
<mgrwt>
<rscale>  0 0.20140023E+04</rscale>
<asrwt>0</asrwt>
<pdfrwt beam="2">  1        2 0.25863061E+00 0.20140023E+04</pdfrwt>
<pdfrwt beam="1">  1       -2 0.92801139E-01 0.20140023E+04</pdfrwt>
<totfact> 0.91782735E+00</totfact>
</mgrwt>
</event>
<event>
 4    1  0.1323225E-008  0.2441899E+04  0.7816531E-02  0.8423982E-01
         -2   -1    0    0    0  501 -0.00000000000E+00  0.00000000000E+00  0.50856355217E+03  0.50856355217E+03  0.00000000000E+00 0. -1.
          2   -1    0    0  501    0  0.00000000000E+00 -0.00000000000E+00 -0.29312310211E+04  0.29312310211E+04  0.00000000000E+00 0.  1.
    2000013    1    1    2    0    0  0.46533774947E+03 -0.34411822368E+03 -0.19202399137E+04  0.22191840616E+04  0.95000000000E+03 0.  0.
   -2000013    1    1    2    0    0 -0.46533774947E+03  0.34411822368E+03 -0.50242755518E+03  0.12206105117E+04  0.95000000000E+03 0.  0.
<mgrwt>
<rscale>  0 0.24418987E+04</rscale>
<asrwt>0</asrwt>
<pdfrwt beam="2">  1        2 0.45095862E+00 0.24418987E+04</pdfrwt>
<pdfrwt beam="1">  1       -2 0.78240547E-01 0.24418987E+04</pdfrwt>
<totfact> 0.25030453E+00</totfact>
</mgrwt>
</event>
<event>
 4    1  0.1323225E-008  0.4375080E+04  0.7816531E-02  0.7932879E-01
          2   -1    0    0  501    0  0.00000000000E+00  0.00000000000E+00  0.31662392037E+04  0.31662392037E+04  0.00000000000E+00 0.  1.
         -2   -1    0    0    0  501 -0.00000000000E+00 -0.00000000000E+00 -0.15113611102E+04  0.15113611102E+04  0.00000000000E+00 0. -1.
    2000013    1    1    2    0    0  0.40100800558E+03 -0.12433929547E+04  0.24045647573E+04  0.28967680494E+04  0.95000000000E+03 0.  0.
   -2000013    1    1    2    0    0 -0.40100800558E+03  0.12433929547E+04 -0.74968666380E+03  0.17808322645E+04  0.95000000000E+03 0.  0.
<mgrwt>
<rscale>  0 0.43750798E+04</rscale>
<asrwt>0</asrwt>
<pdfrwt beam="1">  1        2 0.48711372E+00 0.43750798E+04</pdfrwt>
<pdfrwt beam="2">  1       -2 0.23251710E+00 0.43750798E+04</pdfrwt>
<totfact> 0.86007497E-02</totfact>
</mgrwt>
</event>
<event>
 4    1  0.1323225E-008  0.2242980E+04  0.7816531E-02  0.8500749E-01
         -1   -1    0    0    0  501 -0.00000000000E+00  0.00000000000E+00  0.71266681484E+03  0.71266681484E+03  0.00000000000E+00 0. -1.
          1   -1    0    0  501    0  0.00000000000E+00 -0.00000000000E+00 -0.17648353665E+04  0.17648353665E+04  0.00000000000E+00 0.  1.
    2000013    1    1    2    0    0 -0.26530456805E+03  0.39960722539E+03 -0.91686565931E+03  0.14047117447E+04  0.95000000000E+03 0.  0.
   -2000013    1    1    2    0    0  0.26530456805E+03 -0.39960722539E+03 -0.13530289239E+03  0.10727904367E+04  0.95000000000E+03 0.  0.
<mgrwt>
<rscale>  0 0.22429798E+04</rscale>
<asrwt>0</asrwt>
<pdfrwt beam="2">  1        1 0.27151313E+00 0.22429798E+04</pdfrwt>
<pdfrwt beam="1">  1       -1 0.10964105E+00 0.22429798E+04</pdfrwt>
<totfact> 0.30069938E+00</totfact>
</mgrwt>
</event>
<event>
 4    1  0.1323225E-008  0.2151247E+04  0.7816531E-02  0.8538999E-01
          2   -1    0    0  501    0  0.00000000000E+00  0.00000000000E+00  0.12702918777E+04  0.12702918777E+04  0.00000000000E+00 0.  1.
         -2   -1    0    0    0  501 -0.00000000000E+00 -0.00000000000E+00 -0.91078710709E+03  0.91078710709E+03  0.00000000000E+00 0. -1.
    2000013    1    1    2    0    0  0.10786971492E+03 -0.48440364322E+03  0.27146508997E+03  0.11056563933E+04  0.95000000000E+03 0.  0.
   -2000013    1    1    2    0    0 -0.10786971492E+03  0.48440364322E+03  0.88039680650E+02  0.10754225915E+04  0.95000000000E+03 0.  0.
<mgrwt>
<rscale>  0 0.21512466E+04</rscale>
<asrwt>0</asrwt>
<pdfrwt beam="1">  1        2 0.19542952E+00 0.21512466E+04</pdfrwt>
<pdfrwt beam="2">  1       -2 0.14012109E+00 0.21512466E+04</pdfrwt>
<totfact> 0.56596542E+00</totfact>
</mgrwt>
</event>
<event>
 4    1  0.1323225E-008  0.2351378E+04  0.7816531E-02  0.8457935E-01
         -2   -1    0    0    0  501 -0.00000000000E+00  0.00000000000E+00  0.46381718062E+03  0.46381718062E+03  0.00000000000E+00 0. -1.
          2   -1    0    0  501    0  0.00000000000E+00 -0.00000000000E+00 -0.29801491691E+04  0.29801491691E+04  0.00000000000E+00 0.  1.
    2000013    1    1    2    0    0 -0.58291153863E+03 -0.31846635423E+03 -0.97063848022E+03  0.15119013658E+04  0.95000000000E+03 0.  0.
   -2000013    1    1    2    0    0  0.58291153863E+03  0.31846635423E+03 -0.15456935083E+04  0.19320649840E+04  0.95000000000E+03 0.  0.
<mgrwt>
<rscale>  0 0.23513778E+04</rscale>
<asrwt>0</asrwt>
<pdfrwt beam="2">  1        2 0.45848451E+00 0.23513778E+04</pdfrwt>
<pdfrwt beam="1">  1       -2 0.71356485E-01 0.23513778E+04</pdfrwt>
<totfact> 0.28847976E+00</totfact>
</mgrwt>
</event>
<event>
 4    1  0.1323225E-008  0.2499165E+04  0.7816531E-02  0.8403283E-01
          2   -1    0    0  501    0  0.00000000000E+00  0.00000000000E+00  0.13305849822E+04  0.13305849822E+04  0.00000000000E+00 0.  1.
         -2   -1    0    0    0  501 -0.00000000000E+00 -0.00000000000E+00 -0.11735114568E+04  0.11735114568E+04  0.00000000000E+00 0. -1.
    2000013    1    1    2    0    0  0.63832938488E+03 -0.34652200127E+03  0.44176386930E+03  0.12748322310E+04  0.95000000000E+03 0.  0.
   -2000013    1    1    2    0    0 -0.63832938488E+03  0.34652200127E+03 -0.28469034392E+03  0.12292642079E+04  0.95000000000E+03 0.  0.
<mgrwt>
<rscale>  0 0.24991652E+04</rscale>
<asrwt>0</asrwt>
<pdfrwt beam="1">  1        2 0.20470538E+00 0.24991652E+04</pdfrwt>
<pdfrwt beam="2">  1       -2 0.18054022E+00 0.24991652E+04</pdfrwt>
<totfact> 0.25445447E+00</totfact>
</mgrwt>
</event>
<event>
 4    1  0.1323225E-008  0.2351982E+04  0.7816531E-02  0.8457703E-01
          2   -1    0    0  501    0  0.00000000000E+00  0.00000000000E+00  0.59707563822E+03  0.59707563822E+03  0.00000000000E+00 0.  1.
         -2   -1    0    0    0  501 -0.00000000000E+00 -0.00000000000E+00 -0.23162141956E+04  0.23162141956E+04  0.00000000000E+00 0. -1.
    2000013    1    1    2    0    0  0.30781279759E+03 -0.16109105181E+03 -0.11662935018E+03  0.10182344772E+04  0.95000000000E+03 0.  0.
   -2000013    1    1    2    0    0 -0.30781279759E+03  0.16109105181E+03 -0.16025092072E+04  0.18950553566E+04  0.95000000000E+03 0.  0.
<mgrwt>
<rscale>  0 0.23519822E+04</rscale>
<asrwt>0</asrwt>
<pdfrwt beam="1">  1        2 0.91857791E-01 0.23519822E+04</pdfrwt>
<pdfrwt beam="2">  1       -2 0.35634064E+00 0.23519822E+04</pdfrwt>
<totfact> 0.63955721E-01</totfact>
</mgrwt>
</event>
<event>
 4    1  0.1323225E-008  0.2271943E+04  0.7816531E-02  0.8489066E-01
         -2   -1    0    0    0  501 -0.00000000000E+00  0.00000000000E+00  0.50780327129E+03  0.50780327129E+03  0.00000000000E+00 0. -1.
          2   -1    0    0  501    0  0.00000000000E+00 -0.00000000000E+00 -0.25412028270E+04  0.25412028270E+04  0.00000000000E+00 0.  1.
    2000013    1    1    2    0    0 -0.46197956602E+03 -0.19227215830E+03 -0.51899558399E+03  0.11925812838E+04  0.95000000000E+03 0.  0.
   -2000013    1    1    2    0    0  0.46197956602E+03  0.19227215830E+03 -0.15144039717E+04  0.18564248145E+04  0.95000000000E+03 0.  0.
<mgrwt>
<rscale>  0 0.22719429E+04</rscale>
<asrwt>0</asrwt>
<pdfrwt beam="2">  1        2 0.39095429E+00 0.22719429E+04</pdfrwt>
<pdfrwt beam="1">  1       -2 0.78123579E-01 0.22719429E+04</pdfrwt>
<totfact> 0.43644979E+00</totfact>
</mgrwt>
</event>
<event>
 4    1  0.1323225E-008  0.2587845E+04  0.7816531E-02  0.8372342E-01
          2   -1    0    0  501    0  0.00000000000E+00  0.00000000000E+00  0.83105090155E+03  0.83105090155E+03  0.00000000000E+00 0.  1.
         -2   -1    0    0    0  501 -0.00000000000E+00 -0.00000000000E+00 -0.20146002918E+04  0.20146002918E+04  0.00000000000E+00 0. -1.
    2000013    1    1    2    0    0  0.29563655957E+03  0.19261215833E+03  0.29288124466E+03  0.10548838052E+04  0.95000000000E+03 0.  0.
   -2000013    1    1    2    0    0 -0.29563655957E+03 -0.19261215833E+03 -0.14764306349E+04  0.17907673882E+04  0.95000000000E+03 0.  0.
<mgrwt>
<rscale>  0 0.25878450E+04</rscale>
<asrwt>0</asrwt>
<pdfrwt beam="1">  1        2 0.12785399E+00 0.25878450E+04</pdfrwt>
<pdfrwt beam="2">  1       -2 0.30993850E+00 0.25878450E+04</pdfrwt>
<totfact> 0.80049907E-01</totfact>
</mgrwt>
</event>
<event>
 4    1  0.1323225E-008  0.2516922E+04  0.7816531E-02  0.8396982E-01
         -2   -1    0    0    0  501 -0.00000000000E+00  0.00000000000E+00  0.95369033287E+03  0.95369033287E+03  0.00000000000E+00 0.  1.
          2   -1    0    0  501    0  0.00000000000E+00 -0.00000000000E+00 -0.16606267779E+04  0.16606267779E+04  0.00000000000E+00 0. -1.
    2000013    1    1    2    0    0  0.66635433542E+03 -0.30186403115E+03 -0.75045367511E+03  0.14145072330E+04  0.95000000000E+03 0.  0.
   -2000013    1    1    2    0    0 -0.66635433542E+03  0.30186403115E+03  0.43517230054E+02  0.11998098778E+04  0.95000000000E+03 0.  0.
<mgrwt>
<rscale>  0 0.25169217E+04</rscale>
<asrwt>0</asrwt>
<pdfrwt beam="2">  1        2 0.25548104E+00 0.25169217E+04</pdfrwt>
<pdfrwt beam="1">  1       -2 0.14672159E+00 0.25169217E+04</pdfrwt>
<totfact> 0.29187536E+00</totfact>
</mgrwt>
</event>
<event>
 4    1  0.1323225E-008  0.4182350E+04  0.7816531E-02  0.7968738E-01
          2   -1    0    0  501    0  0.00000000000E+00  0.00000000000E+00  0.27772055389E+04  0.27772055389E+04  0.00000000000E+00 0.  1.
         -2   -1    0    0    0  501 -0.00000000000E+00 -0.00000000000E+00 -0.15746088734E+04  0.15746088734E+04  0.00000000000E+00 0. -1.
    2000013    1    1    2    0    0  0.85449352973E+03  0.12963340614E+04 -0.46991649771E+03  0.18798836948E+04  0.95000000000E+03 0.  0.
   -2000013    1    1    2    0    0 -0.85449352973E+03 -0.12963340614E+04  0.16725131632E+04  0.24719307175E+04  0.95000000000E+03 0.  0.
<mgrwt>
<rscale>  0 0.41823498E+04</rscale>
<asrwt>0</asrwt>
<pdfrwt beam="1">  1        2 0.42726239E+00 0.41823498E+04</pdfrwt>
<pdfrwt beam="2">  1       -2 0.24224752E+00 0.41823498E+04</pdfrwt>
<totfact> 0.13308810E-01</totfact>
</mgrwt>
</event>
<event>
 4    1  0.1323225E-008  0.2542424E+04  0.7816531E-02  0.8388026E-01
          2   -1    0    0  501    0  0.00000000000E+00  0.00000000000E+00  0.26569320481E+04  0.26569320481E+04  0.00000000000E+00 0.  1.
         -2   -1    0    0    0  501 -0.00000000000E+00 -0.00000000000E+00 -0.60821282854E+03  0.60821282854E+03  0.00000000000E+00 0. -1.
    2000013    1    1    2    0    0 -0.69528992736E+03  0.33660637202E+03  0.14631727146E+04  0.19079062675E+04  0.95000000000E+03 0.  0.
   -2000013    1    1    2    0    0  0.69528992736E+03 -0.33660637202E+03  0.58554650501E+03  0.13572386092E+04  0.95000000000E+03 0.  0.
<mgrwt>
<rscale>  0 0.25424242E+04</rscale>
<asrwt>0</asrwt>
<pdfrwt beam="1">  1        2 0.40875877E+00 0.25424242E+04</pdfrwt>
<pdfrwt beam="2">  1       -2 0.93571206E-01 0.25424242E+04</pdfrwt>
<totfact> 0.24168102E+00</totfact>
</mgrwt>
</event>
<event>
 4    1  0.1323225E-008  0.2282006E+04  0.7816531E-02  0.8485050E-01
          2   -1    0    0  501    0  0.00000000000E+00  0.00000000000E+00  0.22248911071E+04  0.22248911071E+04  0.00000000000E+00 0. -1.
         -2   -1    0    0    0  501 -0.00000000000E+00 -0.00000000000E+00 -0.58514664358E+03  0.58514664358E+03  0.00000000000E+00 0.  1.
    2000013    1    1    2    0    0 -0.54372558451E+03 -0.21381013482E+03  0.52322421005E+03  0.12319155243E+04  0.95000000000E+03 0.  0.
   -2000013    1    1    2    0    0  0.54372558451E+03  0.21381013482E+03  0.11165202535E+04  0.15781222264E+04  0.95000000000E+03 0.  0.
<mgrwt>
<rscale>  0 0.22820058E+04</rscale>
<asrwt>0</asrwt>
<pdfrwt beam="1">  1        2 0.34229094E+00 0.22820058E+04</pdfrwt>
<pdfrwt beam="2">  1       -2 0.90022562E-01 0.22820058E+04</pdfrwt>
<totfact> 0.47939387E+00</totfact>
</mgrwt>
</event>
<event>
 4    1  0.1323225E-008  0.2127113E+04  0.7816531E-02  0.8549393E-01
         -2   -1    0    0    0  501 -0.00000000000E+00  0.00000000000E+00  0.94194590702E+03  0.94194590702E+03  0.00000000000E+00 0. -1.
          2   -1    0    0  501    0  0.00000000000E+00 -0.00000000000E+00 -0.12008678911E+04  0.12008678911E+04  0.00000000000E+00 0.  1.
    2000013    1    1    2    0    0  0.33919233867E+03  0.33314644048E+03 -0.18097158978E+03  0.10776310638E+04  0.95000000000E+03 0.  0.
   -2000013    1    1    2    0    0 -0.33919233867E+03 -0.33314644048E+03 -0.77950394264E+02  0.10651827343E+04  0.95000000000E+03 0.  0.
<mgrwt>
<rscale>  0 0.21271132E+04</rscale>
<asrwt>0</asrwt>
<pdfrwt beam="2">  1        2 0.18474891E+00 0.21271132E+04</pdfrwt>
<pdfrwt beam="1">  1       -2 0.14491475E+00 0.21271132E+04</pdfrwt>
<totfact> 0.57094849E+00</totfact>
</mgrwt>
</event>
<event>
 4    1  0.1323225E-008  0.2483705E+04  0.7816531E-02  0.8408814E-01
         -1   -1    0    0    0  501 -0.00000000000E+00  0.00000000000E+00  0.18182394630E+04  0.18182394630E+04  0.00000000000E+00 0.  1.
          1   -1    0    0  501    0  0.00000000000E+00 -0.00000000000E+00 -0.84818163943E+03  0.84818163943E+03  0.00000000000E+00 0. -1.
    2000013    1    1    2    0    0 -0.73097167027E+03 -0.30592088918E+02  0.83197826985E+03  0.14594325268E+04  0.95000000000E+03 0.  0.
   -2000013    1    1    2    0    0  0.73097167027E+03  0.30592088918E+02  0.13807955371E+03  0.12069885757E+04  0.95000000000E+03 0.  0.
<mgrwt>
<rscale>  0 0.24837048E+04</rscale>
<asrwt>0</asrwt>
<pdfrwt beam="2">  1        1 0.13048948E+00 0.24837048E+04</pdfrwt>
<pdfrwt beam="1">  1       -1 0.27972915E+00 0.24837048E+04</pdfrwt>
<totfact> 0.79906687E-01</totfact>
</mgrwt>
</event>
<event>
 4    1  0.1323225E-008  0.2851958E+04  0.7816531E-02  0.8287317E-01
          2   -1    0    0  501    0  0.00000000000E+00  0.00000000000E+00  0.11755028699E+04  0.11755028699E+04  0.00000000000E+00 0.  1.
         -2   -1    0    0    0  501 -0.00000000000E+00 -0.00000000000E+00 -0.17298262226E+04  0.17298262226E+04  0.00000000000E+00 0. -1.
    2000013    1    1    2    0    0  0.45161721122E+03  0.74706602227E+03  0.34153404415E+03  0.13346202645E+04  0.95000000000E+03 0.  0.
   -2000013    1    1    2    0    0 -0.45161721122E+03 -0.74706602227E+03 -0.89585739680E+03  0.15707088280E+04  0.95000000000E+03 0.  0.
<mgrwt>
<rscale>  0 0.28519577E+04</rscale>
<asrwt>0</asrwt>
<pdfrwt beam="1">  1        2 0.18084660E+00 0.28519577E+04</pdfrwt>
<pdfrwt beam="2">  1       -2 0.26612711E+00 0.28519577E+04</pdfrwt>
<totfact> 0.86889841E-01</totfact>
</mgrwt>
</event>
<event>
 4    1  0.1323225E-008  0.2788944E+04  0.7816531E-02  0.8306709E-01
         -1   -1    0    0    0  501 -0.00000000000E+00  0.00000000000E+00  0.19666730283E+04  0.19666730283E+04  0.00000000000E+00 0. -1.
          1   -1    0    0  501    0  0.00000000000E+00 -0.00000000000E+00 -0.98875229095E+03  0.98875229095E+03  0.00000000000E+00 0.  1.
    2000013    1    1    2    0    0 -0.84857499234E+03 -0.46190013562E+03  0.83821122424E+03  0.15932762816E+04  0.95000000000E+03 0.  0.
   -2000013    1    1    2    0    0  0.84857499234E+03  0.46190013562E+03  0.13970951315E+03  0.13621490377E+04  0.95000000000E+03 0.  0.
<mgrwt>
<rscale>  0 0.27889442E+04</rscale>
<asrwt>0</asrwt>
<pdfrwt beam="2">  1        1 0.15211574E+00 0.27889442E+04</pdfrwt>
<pdfrwt beam="1">  1       -1 0.30256508E+00 0.27889442E+04</pdfrwt>
<totfact> 0.42526491E-01</totfact>
</mgrwt>
</event>
<event>
 4    1  0.1323225E-008  0.2948773E+04  0.7816531E-02  0.8258512E-01
          2   -1    0    0  501    0  0.00000000000E+00  0.00000000000E+00  0.15966964707E+04  0.15966964707E+04  0.00000000000E+00 0.  1.
         -2   -1    0    0    0  501 -0.00000000000E+00 -0.00000000000E+00 -0.13614458949E+04  0.13614458949E+04  0.00000000000E+00 0. -1.
    2000013    1    1    2    0    0  0.59141110277E+03  0.95899508637E+03  0.16108946773E+03  0.14825277349E+04  0.95000000000E+03 0.  0.
   -2000013    1    1    2    0    0 -0.59141110277E+03 -0.95899508637E+03  0.74161108041E+02  0.14756146306E+04  0.95000000000E+03 0.  0.
<mgrwt>
<rscale>  0 0.29487732E+04</rscale>
<asrwt>0</asrwt>
<pdfrwt beam="1">  1        2 0.24564561E+00 0.29487732E+04</pdfrwt>
<pdfrwt beam="2">  1       -2 0.20945322E+00 0.29487732E+04</pdfrwt>
<totfact> 0.11115035E+00</totfact>
</mgrwt>
</event>
<event>
 4    1  0.1323225E-008  0.2007537E+04  0.7816531E-02  0.8603105E-01
          2   -1    0    0  501    0  0.00000000000E+00  0.00000000000E+00  0.30536362904E+04  0.30536362904E+04  0.00000000000E+00 0.  1.
         -2   -1    0    0    0  501 -0.00000000000E+00 -0.00000000000E+00 -0.32995143176E+03  0.32995143176E+03  0.00000000000E+00 0. -1.
    2000013    1    1    2    0    0 -0.30846582362E+03 -0.60300212474E+02  0.14952415726E+04  0.17991761005E+04  0.95000000000E+03 0.  0.
   -2000013    1    1    2    0    0  0.30846582362E+03  0.60300212474E+02  0.12284432860E+04  0.15844116217E+04  0.95000000000E+03 0.  0.
<mgrwt>
<rscale>  0 0.20075375E+04</rscale>
<asrwt>0</asrwt>
<pdfrwt beam="1">  1        2 0.46979018E+00 0.20075375E+04</pdfrwt>
<pdfrwt beam="2">  1       -2 0.50761761E-01 0.20075375E+04</pdfrwt>
<totfact> 0.55014534E+00</totfact>
</mgrwt>
</event>
<event>
 4    1  0.1323225E-008  0.3207053E+04  0.7816531E-02  0.8186957E-01
          2   -1    0    0  501    0  0.00000000000E+00  0.00000000000E+00  0.16826293087E+04  0.16826293087E+04  0.00000000000E+00 0.  1.
         -2   -1    0    0    0  501 -0.00000000000E+00 -0.00000000000E+00 -0.15281422680E+04  0.15281422680E+04  0.00000000000E+00 0. -1.
    2000013    1    1    2    0    0 -0.53400657885E+03 -0.10099552321E+04  0.68095549018E+03  0.16344335339E+04  0.95000000000E+03 0.  0.
   -2000013    1    1    2    0    0  0.53400657885E+03  0.10099552321E+04 -0.52646844943E+03  0.15763380428E+04  0.95000000000E+03 0.  0.
<mgrwt>
<rscale>  0 0.32070528E+04</rscale>
<asrwt>0</asrwt>
<pdfrwt beam="1">  1        2 0.25886605E+00 0.32070528E+04</pdfrwt>
<pdfrwt beam="2">  1       -2 0.23509881E+00 0.32070528E+04</pdfrwt>
<totfact> 0.67056739E-01</totfact>
</mgrwt>
</event>
<event>
 4    1  0.1323225E-008  0.2402287E+04  0.7816531E-02  0.8438648E-01
         -2   -1    0    0    0  501 -0.00000000000E+00  0.00000000000E+00  0.17311464059E+04  0.17311464059E+04  0.00000000000E+00 0. -1.
          2   -1    0    0  501    0  0.00000000000E+00 -0.00000000000E+00 -0.83340493658E+03  0.83340493658E+03  0.00000000000E+00 0.  1.
    2000013    1    1    2    0    0 -0.29296745226E+03  0.66250126380E+03  0.58181385771E+03  0.13288134623E+04  0.95000000000E+03 0.  0.
   -2000013    1    1    2    0    0  0.29296745226E+03 -0.66250126380E+03  0.31592761157E+03  0.12357378801E+04  0.95000000000E+03 0.  0.
<mgrwt>
<rscale>  0 0.24022872E+04</rscale>
<asrwt>0</asrwt>
<pdfrwt beam="2">  1        2 0.12821614E+00 0.24022872E+04</pdfrwt>
<pdfrwt beam="1">  1       -2 0.26633021E+00 0.24022872E+04</pdfrwt>
<totfact> 0.14958668E+00</totfact>
</mgrwt>
</event>
<event>
 4    1  0.1323225E-008  0.2046002E+04  0.7816531E-02  0.8585410E-01
          2   -1    0    0  501    0  0.00000000000E+00  0.00000000000E+00  0.10397861000E+04  0.10397861000E+04  0.00000000000E+00 0.  1.
         -2   -1    0    0    0  501 -0.00000000000E+00 -0.00000000000E+00 -0.10064865826E+04  0.10064865826E+04  0.00000000000E+00 0. -1.
    2000013    1    1    2    0    0  0.47052424045E+01 -0.37552203626E+03  0.71354529235E+02  0.10240265660E+04  0.95000000000E+03 0.  0.
   -2000013    1    1    2    0    0 -0.47052424045E+01  0.37552203626E+03 -0.38055011825E+02  0.10222461166E+04  0.95000000000E+03 0.  0.
<mgrwt>
<rscale>  0 0.20460017E+04</rscale>
<asrwt>0</asrwt>
<pdfrwt beam="1">  1        2 0.15996709E+00 0.20460017E+04</pdfrwt>
<pdfrwt beam="2">  1       -2 0.15484409E+00 0.20460017E+04</pdfrwt>
<totfact> 0.60528648E+00</totfact>
</mgrwt>
</event>
<event>
 4    1  0.1323225E-008  0.2506714E+04  0.7816531E-02  0.8400598E-01
          2   -1    0    0  501    0  0.00000000000E+00  0.00000000000E+00  0.13779001383E+04  0.13779001383E+04  0.00000000000E+00 0.  1.
         -2   -1    0    0    0  501 -0.00000000000E+00 -0.00000000000E+00 -0.11400708807E+04  0.11400708807E+04  0.00000000000E+00 0. -1.
    2000013    1    1    2    0    0  0.49726528803E+02  0.66792374324E+03  0.58985794586E+03  0.13034673954E+04  0.95000000000E+03 0.  0.
   -2000013    1    1    2    0    0 -0.49726528803E+02 -0.66792374324E+03 -0.35202868822E+03  0.12145036236E+04  0.95000000000E+03 0.  0.
<mgrwt>
<rscale>  0 0.25067140E+04</rscale>
<asrwt>0</asrwt>
<pdfrwt beam="1">  1        2 0.21198464E+00 0.25067140E+04</pdfrwt>
<pdfrwt beam="2">  1       -2 0.17539552E+00 0.25067140E+04</pdfrwt>
<totfact> 0.25931508E+00</totfact>
</mgrwt>
</event>
<event>
 4    1  0.1323225E-008  0.2483885E+04  0.7816531E-02  0.8408749E-01
          2   -1    0    0  501    0  0.00000000000E+00  0.00000000000E+00  0.27292547247E+04  0.27292547247E+04  0.00000000000E+00 0.  1.
         -2   -1    0    0    0  501 -0.00000000000E+00 -0.00000000000E+00 -0.56514363835E+03  0.56514363835E+03  0.00000000000E+00 0. -1.
    2000013    1    1    2    0    0  0.49525871266E+01 -0.76404716071E+03  0.76783410592E+03  0.14407851353E+04  0.95000000000E+03 0.  0.
   -2000013    1    1    2    0    0 -0.49525871266E+01  0.76404716071E+03  0.13962769804E+04  0.18536132277E+04  0.95000000000E+03 0.  0.
<mgrwt>
<rscale>  0 0.24838848E+04</rscale>
<asrwt>0</asrwt>
<pdfrwt beam="1">  1        2 0.41988534E+00 0.24838848E+04</pdfrwt>
<pdfrwt beam="2">  1       -2 0.86945176E-01 0.24838848E+04</pdfrwt>
<totfact> 0.26062341E+00</totfact>
</mgrwt>
</event>
<event>
 4    1  0.1323225E-008  0.2293765E+04  0.7816531E-02  0.8480384E-01
         -1   -1    0    0    0  501 -0.00000000000E+00  0.00000000000E+00  0.91848938673E+03  0.91848938673E+03  0.00000000000E+00 0. -1.
          1   -1    0    0  501    0  0.00000000000E+00 -0.00000000000E+00 -0.14320676700E+04  0.14320676700E+04  0.00000000000E+00 0.  1.
    2000013    1    1    2    0    0  0.26825950077E+02  0.64105908801E+03 -0.29172983619E+03  0.11829127961E+04  0.95000000000E+03 0.  0.
   -2000013    1    1    2    0    0 -0.26825950077E+02 -0.64105908801E+03 -0.22184844711E+03  0.11676442606E+04  0.95000000000E+03 0.  0.
<mgrwt>
<rscale>  0 0.22937646E+04</rscale>
<asrwt>0</asrwt>
<pdfrwt beam="2">  1        1 0.22031810E+00 0.22937646E+04</pdfrwt>
<pdfrwt beam="1">  1       -1 0.14130606E+00 0.22937646E+04</pdfrwt>
<totfact> 0.26989107E+00</totfact>
</mgrwt>
</event>
<event>
 4    1  0.1323225E-008  0.2564816E+04  0.7816531E-02  0.8380251E-01
         -2   -1    0    0    0  501 -0.00000000000E+00  0.00000000000E+00  0.11269903524E+04  0.11269903524E+04  0.00000000000E+00 0. -1.
          2   -1    0    0  501    0  0.00000000000E+00 -0.00000000000E+00 -0.14592589852E+04  0.14592589852E+04  0.00000000000E+00 0.  1.
    2000013    1    1    2    0    0  0.30517662489E+03  0.63937463206E+03 -0.66026821634E+03  0.13566085692E+04  0.95000000000E+03 0.  0.
   -2000013    1    1    2    0    0 -0.30517662489E+03 -0.63937463206E+03  0.32799958353E+03  0.12296407684E+04  0.95000000000E+03 0.  0.
<mgrwt>
<rscale>  0 0.25648164E+04</rscale>
<asrwt>0</asrwt>
<pdfrwt beam="2">  1        2 0.22450138E+00 0.25648164E+04</pdfrwt>
<pdfrwt beam="1">  1       -2 0.17338313E+00 0.25648164E+04</pdfrwt>
<totfact> 0.23956929E+00</totfact>
</mgrwt>
</event>
<event>
 4    1  0.1323225E-008  0.2729777E+04  0.7816531E-02  0.8325407E-01
         -2   -1    0    0    0  501 -0.00000000000E+00  0.00000000000E+00  0.11440922471E+04  0.11440922471E+04  0.00000000000E+00 0. -1.
          2   -1    0    0  501    0  0.00000000000E+00 -0.00000000000E+00 -0.16282962515E+04  0.16282962515E+04  0.00000000000E+00 0.  1.
    2000013    1    1    2    0    0 -0.75511607413E+03  0.60767016714E+03 -0.95074118709E+02  0.13605154926E+04  0.95000000000E+03 0.  0.
   -2000013    1    1    2    0    0  0.75511607413E+03 -0.60767016714E+03 -0.38912988566E+03  0.14118730061E+04  0.95000000000E+03 0.  0.
<mgrwt>
<rscale>  0 0.27297774E+04</rscale>
<asrwt>0</asrwt>
<pdfrwt beam="2">  1        2 0.25050712E+00 0.27297774E+04</pdfrwt>
<pdfrwt beam="1">  1       -2 0.17601419E+00 0.27297774E+04</pdfrwt>
<totfact> 0.18192037E+00</totfact>
</mgrwt>
</event>
<event>
 4    1  0.1323225E-008  0.2193033E+04  0.7816531E-02  0.8521334E-01
          2   -1    0    0  501    0  0.00000000000E+00  0.00000000000E+00  0.38253973889E+04  0.38253973889E+04  0.00000000000E+00 0.  1.
         -2   -1    0    0    0  501 -0.00000000000E+00 -0.00000000000E+00 -0.31430677044E+03  0.31430677044E+03  0.00000000000E+00 0. -1.
    2000013    1    1    2    0    0  0.45097884883E+03 -0.31042907391E+03  0.17366529430E+04  0.20538285168E+04  0.95000000000E+03 0.  0.
   -2000013    1    1    2    0    0 -0.45097884883E+03  0.31042907391E+03  0.17744376754E+04  0.20858756425E+04  0.95000000000E+03 0.  0.
<mgrwt>
<rscale>  0 0.21930329E+04</rscale>
<asrwt>0</asrwt>
<pdfrwt beam="1">  1        2 0.58852264E+00 0.21930329E+04</pdfrwt>
<pdfrwt beam="2">  1       -2 0.48354890E-01 0.21930329E+04</pdfrwt>
<totfact> 0.17502738E+00</totfact>
</mgrwt>
</event>
<event>
 4    1  0.1323225E-008  0.2608139E+04  0.7816531E-02  0.8365442E-01
          2   -1    0    0  501    0  0.00000000000E+00  0.00000000000E+00  0.22444755354E+04  0.22444755354E+04  0.00000000000E+00 0.  1.
         -2   -1    0    0    0  501 -0.00000000000E+00 -0.00000000000E+00 -0.75768116449E+03  0.75768116449E+03  0.00000000000E+00 0. -1.
    2000013    1    1    2    0    0  0.86345335326E+03  0.13872899487E+03  0.53334802628E+03  0.13970531645E+04  0.95000000000E+03 0.  0.
   -2000013    1    1    2    0    0 -0.86345335326E+03 -0.13872899487E+03  0.95344634465E+03  0.16051035354E+04  0.95000000000E+03 0.  0.
<mgrwt>
<rscale>  0 0.26081387E+04</rscale>
<asrwt>0</asrwt>
<pdfrwt beam="1">  1        2 0.34530393E+00 0.26081387E+04</pdfrwt>
<pdfrwt beam="2">  1       -2 0.11656633E+00 0.26081387E+04</pdfrwt>
<totfact> 0.24574765E+00</totfact>
</mgrwt>
</event>
<event>
 4    1  0.1323225E-008  0.2918519E+04  0.7816531E-02  0.8267389E-01
          2   -1    0    0  501    0  0.00000000000E+00  0.00000000000E+00  0.23269189571E+04  0.23269189571E+04  0.00000000000E+00 0.  1.
         -2   -1    0    0    0  501 -0.00000000000E+00 -0.00000000000E+00 -0.91513199958E+03  0.91513199958E+03  0.00000000000E+00 0. -1.
    2000013    1    1    2    0    0  0.97980754614E+03  0.15297800532E+03  0.12540673462E+04  0.18597338537E+04  0.95000000000E+03 0.  0.
   -2000013    1    1    2    0    0 -0.97980754614E+03 -0.15297800532E+03  0.15771961133E+03  0.13823171031E+04  0.95000000000E+03 0.  0.
<mgrwt>
<rscale>  0 0.29185188E+04</rscale>
<asrwt>0</asrwt>
<pdfrwt beam="1">  1        2 0.35798753E+00 0.29185188E+04</pdfrwt>
<pdfrwt beam="2">  1       -2 0.14078954E+00 0.29185188E+04</pdfrwt>
<totfact> 0.13347789E+00</totfact>
</mgrwt>
</event>
<event>
 4    1  0.1323225E-008  0.2507392E+04  0.7816531E-02  0.8400357E-01
         -1   -1    0    0    0  501 -0.00000000000E+00  0.00000000000E+00  0.74197531482E+03  0.74197531482E+03  0.00000000000E+00 0.  1.
          1   -1    0    0  501    0  0.00000000000E+00 -0.00000000000E+00 -0.21183366128E+04  0.21183366128E+04  0.00000000000E+00 0. -1.
    2000013    1    1    2    0    0 -0.33053022601E+03 -0.63604341513E+03 -0.11379494952E+04  0.16465814617E+04  0.95000000000E+03 0.  0.
   -2000013    1    1    2    0    0  0.33053022601E+03  0.63604341513E+03 -0.23841180273E+03  0.12137304659E+04  0.95000000000E+03 0.  0.
<mgrwt>
<rscale>  0 0.25073919E+04</rscale>
<asrwt>0</asrwt>
<pdfrwt beam="2">  1        1 0.32589793E+00 0.25073919E+04</pdfrwt>
<pdfrwt beam="1">  1       -1 0.11415005E+00 0.25073919E+04</pdfrwt>
<totfact> 0.15358375E+00</totfact>
</mgrwt>
</event>
<event>
 4    1  0.1323225E-008  0.2304041E+04  0.7816531E-02  0.8476329E-01
          2   -1    0    0  501    0  0.00000000000E+00  0.00000000000E+00  0.75662147909E+03  0.75662147909E+03  0.00000000000E+00 0.  1.
         -2   -1    0    0    0  501 -0.00000000000E+00 -0.00000000000E+00 -0.17540496419E+04  0.17540496419E+04  0.00000000000E+00 0. -1.
    2000013    1    1    2    0    0  0.49024617484E+03  0.38627838110E+03 -0.70286390148E+03  0.13364392854E+04  0.95000000000E+03 0.  0.
   -2000013    1    1    2    0    0 -0.49024617484E+03 -0.38627838110E+03 -0.29456426137E+03  0.11742318356E+04  0.95000000000E+03 0.  0.
<mgrwt>
<rscale>  0 0.23040413E+04</rscale>
<asrwt>0</asrwt>
<pdfrwt beam="1">  1        2 0.11640331E+00 0.23040413E+04</pdfrwt>
<pdfrwt beam="2">  1       -2 0.26985379E+00 0.23040413E+04</pdfrwt>
<totfact> 0.16318462E+00</totfact>
</mgrwt>
</event>
<event>
 4    1  0.1323225E-008  0.2903637E+04  0.7816531E-02  0.8271796E-01
         -1   -1    0    0    0  501 -0.00000000000E+00  0.00000000000E+00  0.43122944261E+03  0.43122944261E+03  0.00000000000E+00 0.  1.
          1   -1    0    0  501    0  0.00000000000E+00 -0.00000000000E+00 -0.48878328235E+04  0.48878328235E+04  0.00000000000E+00 0. -1.
    2000013    1    1    2    0    0 -0.15473394142E+03  0.88114208121E+03 -0.33939812368E+04  0.36362016715E+04  0.95000000000E+03 0.  0.
   -2000013    1    1    2    0    0  0.15473394142E+03 -0.88114208121E+03 -0.10626221441E+04  0.16828605947E+04  0.95000000000E+03 0.  0.
<mgrwt>
<rscale>  0 0.29036373E+04</rscale>
<asrwt>0</asrwt>
<pdfrwt beam="2">  1        1 0.75197428E+00 0.29036373E+04</pdfrwt>
<pdfrwt beam="1">  1       -1 0.66342991E-01 0.29036373E+04</pdfrwt>
<totfact> 0.23587248E-02</totfact>
</mgrwt>
</event>
<event>
 4    1  0.1323225E-008  0.4569425E+04  0.7816531E-02  0.7898594E-01
         -1   -1    0    0    0  501 -0.00000000000E+00  0.00000000000E+00  0.10488424335E+04  0.10488424335E+04  0.00000000000E+00 0. -1.
          1   -1    0    0  501    0  0.00000000000E+00 -0.00000000000E+00 -0.49768307647E+04  0.49768307647E+04  0.00000000000E+00 0.  1.
    2000013    1    1    2    0    0  0.10131793967E+04  0.12584364558E+04 -0.24098211344E+03  0.18896473698E+04  0.95000000000E+03 0.  0.
   -2000013    1    1    2    0    0 -0.10131793967E+04 -0.12584364558E+04 -0.36870062178E+04  0.41360258284E+04  0.95000000000E+03 0.  0.
<mgrwt>
<rscale>  0 0.45694250E+04</rscale>
<asrwt>0</asrwt>
<pdfrwt beam="2">  1        1 0.76566629E+00 0.45694250E+04</pdfrwt>
<pdfrwt beam="1">  1       -1 0.16136037E+00 0.45694250E+04</pdfrwt>
<totfact> 0.19487051E-03</totfact>
</mgrwt>
</event>
<event>
 4    1  0.1323225E-008  0.3285196E+04  0.7816531E-02  0.8166672E-01
         -2   -1    0    0    0  501 -0.00000000000E+00  0.00000000000E+00  0.72589164131E+03  0.72589164131E+03  0.00000000000E+00 0. -1.
          2   -1    0    0  501    0  0.00000000000E+00 -0.00000000000E+00 -0.37169849161E+04  0.37169849161E+04  0.00000000000E+00 0.  1.
    2000013    1    1    2    0    0 -0.99772978058E+03  0.56839478137E+02 -0.28825048687E+03  0.14086460821E+04  0.95000000000E+03 0.  0.
   -2000013    1    1    2    0    0  0.99772978058E+03 -0.56839478137E+02 -0.27028427880E+04  0.30342304754E+04  0.95000000000E+03 0.  0.
<mgrwt>
<rscale>  0 0.32851961E+04</rscale>
<asrwt>0</asrwt>
<pdfrwt beam="2">  1        2 0.57184385E+00 0.32851961E+04</pdfrwt>
<pdfrwt beam="1">  1       -2 0.11167563E+00 0.32851961E+04</pdfrwt>
<totfact> 0.29979819E-01</totfact>
</mgrwt>
</event>
<event>
 4    1  0.1323225E-008  0.2590994E+04  0.7816531E-02  0.8371267E-01
          2   -1    0    0  501    0  0.00000000000E+00  0.00000000000E+00  0.78037292874E+03  0.78037292874E+03  0.00000000000E+00 0.  1.
         -2   -1    0    0    0  501 -0.00000000000E+00 -0.00000000000E+00 -0.21506536737E+04  0.21506536737E+04  0.00000000000E+00 0. -1.
    2000013    1    1    2    0    0  0.63587649456E+03  0.60415152795E+03 -0.77616043383E+03  0.15080659814E+04  0.95000000000E+03 0.  0.
   -2000013    1    1    2    0    0 -0.63587649456E+03 -0.60415152795E+03 -0.59412031112E+03  0.14229606211E+04  0.95000000000E+03 0.  0.
<mgrwt>
<rscale>  0 0.25909936E+04</rscale>
<asrwt>0</asrwt>
<pdfrwt beam="1">  1        2 0.12005738E+00 0.25909936E+04</pdfrwt>
<pdfrwt beam="2">  1       -2 0.33086978E+00 0.25909936E+04</pdfrwt>
<totfact> 0.64624687E-01</totfact>
</mgrwt>
</event>
<event>
 4    1  0.1323225E-008  0.2780702E+04  0.7816531E-02  0.8309285E-01
          2   -1    0    0  501    0  0.00000000000E+00  0.00000000000E+00  0.18033325287E+04  0.18033325287E+04  0.00000000000E+00 0.  1.
         -2   -1    0    0    0  501 -0.00000000000E+00 -0.00000000000E+00 -0.10719463205E+04  0.10719463205E+04  0.00000000000E+00 0. -1.
    2000013    1    1    2    0    0  0.26045419720E+03  0.91718270002E+03  0.72613959724E+03  0.15293263905E+04  0.95000000000E+03 0.  0.
   -2000013    1    1    2    0    0 -0.26045419720E+03 -0.91718270002E+03  0.52466109933E+01  0.13459524587E+04  0.95000000000E+03 0.  0.
<mgrwt>
<rscale>  0 0.27807018E+04</rscale>
<asrwt>0</asrwt>
<pdfrwt beam="1">  1        2 0.27743577E+00 0.27807018E+04</pdfrwt>
<pdfrwt beam="2">  1       -2 0.16491482E+00 0.27807018E+04</pdfrwt>
<totfact> 0.17363910E+00</totfact>
</mgrwt>
</event>
<event>
 4    1  0.1323225E-008  0.2081121E+04  0.7816531E-02  0.8569606E-01
         -2   -1    0    0    0  501 -0.00000000000E+00  0.00000000000E+00  0.18744246910E+04  0.18744246910E+04  0.00000000000E+00 0.  1.
          2   -1    0    0  501    0  0.00000000000E+00 -0.00000000000E+00 -0.57765236578E+03  0.57765236578E+03  0.00000000000E+00 0. -1.
    2000013    1    1    2    0    0  0.51940361470E+02  0.31699629945E+03  0.97550958787E+03  0.13990366010E+04  0.95000000000E+03 0.  0.
   -2000013    1    1    2    0    0 -0.51940361470E+02 -0.31699629945E+03  0.32126273735E+03  0.10530404557E+04  0.95000000000E+03 0.  0.
<mgrwt>
<rscale>  0 0.20811207E+04</rscale>
<asrwt>0</asrwt>
<pdfrwt beam="2">  1        2 0.88869595E-01 0.20811207E+04</pdfrwt>
<pdfrwt beam="1">  1       -2 0.28837303E+00 0.20811207E+04</pdfrwt>
<totfact> 0.17949775E+00</totfact>
</mgrwt>
</event>
<event>
 4    1  0.1323225E-008  0.2941696E+04  0.7816531E-02  0.8260579E-01
         -2   -1    0    0    0  501 -0.00000000000E+00  0.00000000000E+00  0.68570725679E+03  0.68570725679E+03  0.00000000000E+00 0. -1.
          2   -1    0    0  501    0  0.00000000000E+00 -0.00000000000E+00 -0.31549817141E+04  0.31549817141E+04  0.00000000000E+00 0.  1.
    2000013    1    1    2    0    0 -0.76761504141E+03  0.76083780490E+03 -0.16323362634E+04  0.21760350857E+04  0.95000000000E+03 0.  0.
   -2000013    1    1    2    0    0  0.76761504141E+03 -0.76083780490E+03 -0.83693819387E+03  0.16646538852E+04  0.95000000000E+03 0.  0.
<mgrwt>
<rscale>  0 0.29416960E+04</rscale>
<asrwt>0</asrwt>
<pdfrwt beam="2">  1        2 0.48538180E+00 0.29416960E+04</pdfrwt>
<pdfrwt beam="1">  1       -2 0.10549342E+00 0.29416960E+04</pdfrwt>
<totfact> 0.86667139E-01</totfact>
</mgrwt>
</event>
<event>
 4    1  0.1323225E-008  0.3140501E+04  0.7816531E-02  0.8204710E-01
         -2   -1    0    0    0  501 -0.00000000000E+00  0.00000000000E+00  0.16248236381E+04  0.16248236381E+04  0.00000000000E+00 0. -1.
          2   -1    0    0  501    0  0.00000000000E+00 -0.00000000000E+00 -0.15175105814E+04  0.15175105814E+04  0.00000000000E+00 0.  1.
    2000013    1    1    2    0    0 -0.46952403759E+03  0.11584325447E+04  0.81390592979E+02  0.15721142487E+04  0.95000000000E+03 0.  0.
   -2000013    1    1    2    0    0  0.46952403759E+03 -0.11584325447E+04  0.25922463652E+02  0.15702199708E+04  0.95000000000E+03 0.  0.
<mgrwt>
<rscale>  0 0.31405013E+04</rscale>
<asrwt>0</asrwt>
<pdfrwt beam="2">  1        2 0.23346317E+00 0.31405013E+04</pdfrwt>
<pdfrwt beam="1">  1       -2 0.24997287E+00 0.31405013E+04</pdfrwt>
<totfact> 0.67500206E-01</totfact>
</mgrwt>
</event>
<event>
 4    1  0.1323225E-008  0.2568397E+04  0.7816531E-02  0.8379016E-01
         -2   -1    0    0    0  501 -0.00000000000E+00  0.00000000000E+00  0.80213471274E+03  0.80213471274E+03  0.00000000000E+00 0. -1.
          2   -1    0    0  501    0  0.00000000000E+00 -0.00000000000E+00 -0.20559710118E+04  0.20559710118E+04  0.00000000000E+00 0.  1.
    2000013    1    1    2    0    0  0.35665883927E+02 -0.85870191847E+03 -0.52723312444E+03  0.13853215539E+04  0.95000000000E+03 0.  0.
   -2000013    1    1    2    0    0 -0.35665883927E+02  0.85870191847E+03 -0.72660317462E+03  0.14727841707E+04  0.95000000000E+03 0.  0.
<mgrwt>
<rscale>  0 0.25683969E+04</rscale>
<asrwt>0</asrwt>
<pdfrwt beam="2">  1        2 0.31630323E+00 0.25683969E+04</pdfrwt>
<pdfrwt beam="1">  1       -2 0.12340534E+00 0.25683969E+04</pdfrwt>
<totfact> 0.27307238E+00</totfact>
</mgrwt>
</event>
<event>
 4    1  0.1323225E-008  0.2619180E+04  0.7816531E-02  0.8361715E-01
         -2   -1    0    0    0  501 -0.00000000000E+00  0.00000000000E+00  0.11984330007E+04  0.11984330007E+04  0.00000000000E+00 0. -1.
          2   -1    0    0  501    0  0.00000000000E+00 -0.00000000000E+00 -0.14310571629E+04  0.14310571629E+04  0.00000000000E+00 0.  1.
    2000013    1    1    2    0    0  0.36620514842E+03 -0.58441343383E+03 -0.69901118638E+03  0.13662949576E+04  0.95000000000E+03 0.  0.
   -2000013    1    1    2    0    0 -0.36620514842E+03  0.58441343383E+03  0.46638702415E+03  0.12631952061E+04  0.95000000000E+03 0.  0.
<mgrwt>
<rscale>  0 0.26191801E+04</rscale>
<asrwt>0</asrwt>
<pdfrwt beam="2">  1        2 0.22016264E+00 0.26191801E+04</pdfrwt>
<pdfrwt beam="1">  1       -2 0.18437431E+00 0.26191801E+04</pdfrwt>
<totfact> 0.20760559E+00</totfact>
</mgrwt>
</event>
<event>
 4    1  0.1323225E-008  0.2250855E+04  0.7816531E-02  0.8497554E-01
          2   -1    0    0  501    0  0.00000000000E+00  0.00000000000E+00  0.18057581489E+04  0.18057581489E+04  0.00000000000E+00 0.  1.
         -2   -1    0    0    0  501 -0.00000000000E+00 -0.00000000000E+00 -0.70141550865E+03  0.70141550865E+03  0.00000000000E+00 0. -1.
    2000013    1    1    2    0    0 -0.82202410364E+02 -0.59438914743E+03  0.62289216221E+03  0.12847374598E+04  0.95000000000E+03 0.  0.
   -2000013    1    1    2    0    0  0.82202410364E+02  0.59438914743E+03  0.48145047809E+03  0.12224361978E+04  0.95000000000E+03 0.  0.
<mgrwt>
<rscale>  0 0.22508547E+04</rscale>
<asrwt>0</asrwt>
<pdfrwt beam="1">  1        2 0.27780894E+00 0.22508547E+04</pdfrwt>
<pdfrwt beam="2">  1       -2 0.10791008E+00 0.22508547E+04</pdfrwt>
<totfact> 0.53661501E+00</totfact>
</mgrwt>
</event>
<event>
 4    1  0.1323225E-008  0.2736155E+04  0.7816531E-02  0.8323369E-01
         -2   -1    0    0    0  501 -0.00000000000E+00  0.00000000000E+00  0.78861969048E+03  0.78861969048E+03  0.00000000000E+00 0. -1.
          2   -1    0    0  501    0  0.00000000000E+00 -0.00000000000E+00 -0.23733054759E+04  0.23733054759E+04  0.00000000000E+00 0.  1.
    2000013    1    1    2    0    0  0.38132410635E+03 -0.81436872916E+03 -0.12553528402E+04  0.18130127563E+04  0.95000000000E+03 0.  0.
   -2000013    1    1    2    0    0 -0.38132410635E+03  0.81436872916E+03 -0.32933294514E+03  0.13489124100E+04  0.95000000000E+03 0.  0.
<mgrwt>
<rscale>  0 0.27361545E+04</rscale>
<asrwt>0</asrwt>
<pdfrwt beam="2">  1        2 0.36512391E+00 0.27361545E+04</pdfrwt>
<pdfrwt beam="1">  1       -2 0.12132611E+00 0.27361545E+04</pdfrwt>
<totfact> 0.18606933E+00</totfact>
</mgrwt>
</event>
<event>
 4    1  0.1323225E-008  0.2159942E+04  0.7816531E-02  0.8535289E-01
         -2   -1    0    0    0  501 -0.00000000000E+00  0.00000000000E+00  0.86814613162E+03  0.86814613162E+03  0.00000000000E+00 0. -1.
          2   -1    0    0  501    0  0.00000000000E+00 -0.00000000000E+00 -0.13434800244E+04  0.13434800244E+04  0.00000000000E+00 0.  1.
    2000013    1    1    2    0    0  0.41013535122E+03  0.30301119359E+03 -0.17446311917E+03  0.10922289914E+04  0.95000000000E+03 0.  0.
   -2000013    1    1    2    0    0 -0.41013535122E+03 -0.30301119359E+03 -0.30087077364E+03  0.11193971646E+04  0.95000000000E+03 0.  0.
<mgrwt>
<rscale>  0 0.21599417E+04</rscale>
<asrwt>0</asrwt>
<pdfrwt beam="2">  1        2 0.20668923E+00 0.21599417E+04</pdfrwt>
<pdfrwt beam="1">  1       -2 0.13356094E+00 0.21599417E+04</pdfrwt>
<totfact> 0.58003339E+00</totfact>
</mgrwt>
</event>
<event>
 4    1  0.1323225E-008  0.3894297E+04  0.7816531E-02  0.8026216E-01
          2   -1    0    0  501    0  0.00000000000E+00  0.00000000000E+00  0.37755634285E+04  0.37755634285E+04  0.00000000000E+00 0.  1.
         -2   -1    0    0    0  501 -0.00000000000E+00 -0.00000000000E+00 -0.10041910476E+04  0.10041910476E+04  0.00000000000E+00 0. -1.
    2000013    1    1    2    0    0 -0.16670036786E+04 -0.33160222836E+03  0.13919074504E+04  0.23934844167E+04  0.95000000000E+03 0.  0.
   -2000013    1    1    2    0    0  0.16670036786E+04  0.33160222836E+03  0.13794649304E+04  0.23862700595E+04  0.95000000000E+03 0.  0.
<mgrwt>
<rscale>  0 0.38942969E+04</rscale>
<asrwt>0</asrwt>
<pdfrwt beam="1">  1        2 0.58085591E+00 0.38942969E+04</pdfrwt>
<pdfrwt beam="2">  1       -2 0.15449093E+00 0.38942969E+04</pdfrwt>
<totfact> 0.11263823E-01</totfact>
</mgrwt>
</event>
<event>
 4    1  0.1323225E-008  0.2724104E+04  0.7816531E-02  0.8327226E-01
          2   -1    0    0  501    0  0.00000000000E+00  0.00000000000E+00  0.14984811237E+04  0.14984811237E+04  0.00000000000E+00 0.  1.
         -2   -1    0    0    0  501 -0.00000000000E+00 -0.00000000000E+00 -0.12380444747E+04  0.12380444747E+04  0.00000000000E+00 0. -1.
    2000013    1    1    2    0    0  0.42592783880E+01  0.93538506805E+03  0.41027780610E+03  0.13949162144E+04  0.95000000000E+03 0.  0.
   -2000013    1    1    2    0    0 -0.42592783880E+01 -0.93538506805E+03 -0.14984115709E+03  0.13416093840E+04  0.95000000000E+03 0.  0.
<mgrwt>
<rscale>  0 0.27241045E+04</rscale>
<asrwt>0</asrwt>
<pdfrwt beam="1">  1        2 0.23053556E+00 0.27241045E+04</pdfrwt>
<pdfrwt beam="2">  1       -2 0.19046838E+00 0.27241045E+04</pdfrwt>
<totfact> 0.17139046E+00</totfact>
</mgrwt>
</event>
<event>
 4    1  0.1323225E-008  0.2186315E+04  0.7816531E-02  0.8524146E-01
         -1   -1    0    0    0  501 -0.00000000000E+00  0.00000000000E+00  0.58483202252E+03  0.58483202252E+03  0.00000000000E+00 0. -1.
          1   -1    0    0  501    0  0.00000000000E+00 -0.00000000000E+00 -0.20433096602E+04  0.20433096602E+04  0.00000000000E+00 0.  1.
    2000013    1    1    2    0    0 -0.27258010780E+03 -0.44959735969E+03 -0.88155436963E+03  0.13985978005E+04  0.95000000000E+03 0.  0.
   -2000013    1    1    2    0    0  0.27258010780E+03  0.44959735969E+03 -0.57692326805E+03  0.12295438822E+04  0.95000000000E+03 0.  0.
<mgrwt>
<rscale>  0 0.21863146E+04</rscale>
<asrwt>0</asrwt>
<pdfrwt beam="2">  1        1 0.31435534E+00 0.21863146E+04</pdfrwt>
<pdfrwt beam="1">  1       -1 0.89974156E-01 0.21863146E+04</pdfrwt>
<totfact> 0.30721030E+00</totfact>
</mgrwt>
</event>
<event>
 4    1  0.1323225E-008  0.3741322E+04  0.7816531E-02  0.8058866E-01
         -2   -1    0    0    0  501 -0.00000000000E+00  0.00000000000E+00  0.12459706039E+04  0.12459706039E+04  0.00000000000E+00 0. -1.
          2   -1    0    0  501    0  0.00000000000E+00 -0.00000000000E+00 -0.28085515589E+04  0.28085515589E+04  0.00000000000E+00 0.  1.
    2000013    1    1    2    0    0 -0.53205542056E+03  0.13868351685E+04 -0.10409690272E+03  0.17662760035E+04  0.95000000000E+03 0.  0.
   -2000013    1    1    2    0    0  0.53205542056E+03 -0.13868351685E+04 -0.14584840522E+04  0.22882461594E+04  0.95000000000E+03 0.  0.
<mgrwt>
<rscale>  0 0.37413221E+04</rscale>
<asrwt>0</asrwt>
<pdfrwt beam="2">  1        2 0.43208485E+00 0.37413221E+04</pdfrwt>
<pdfrwt beam="1">  1       -2 0.19168779E+00 0.37413221E+04</pdfrwt>
<totfact> 0.27791197E-01</totfact>
</mgrwt>
</event>
<event>
 4    1  0.1323225E-008  0.2740582E+04  0.7816531E-02  0.8321956E-01
         -2   -1    0    0    0  501 -0.00000000000E+00  0.00000000000E+00  0.10785555650E+04  0.10785555650E+04  0.00000000000E+00 0. -1.
          2   -1    0    0  501    0  0.00000000000E+00 -0.00000000000E+00 -0.17409372044E+04  0.17409372044E+04  0.00000000000E+00 0.  1.
    2000013    1    1    2    0    0  0.49702868511E+03 -0.65519760178E+03 -0.89362766973E+03  0.15418793154E+04  0.95000000000E+03 0.  0.
   -2000013    1    1    2    0    0 -0.49702868511E+03  0.65519760178E+03  0.23124603042E+03  0.12776134540E+04  0.95000000000E+03 0.  0.
<mgrwt>
<rscale>  0 0.27405821E+04</rscale>
<asrwt>0</asrwt>
<pdfrwt beam="2">  1        2 0.26783649E+00 0.27405821E+04</pdfrwt>
<pdfrwt beam="1">  1       -2 0.16593163E+00 0.27405821E+04</pdfrwt>
<totfact> 0.18551214E+00</totfact>
</mgrwt>
</event>
<event>
 4    1  0.1323225E-008  0.1975362E+04  0.7816531E-02  0.8618227E-01
          1   -1    0    0  501    0  0.00000000000E+00  0.00000000000E+00  0.10903943881E+04  0.10903943881E+04  0.00000000000E+00 0. -1.
         -1   -1    0    0    0  501 -0.00000000000E+00 -0.00000000000E+00 -0.89464286997E+03  0.89464286997E+03  0.00000000000E+00 0.  1.
    2000013    1    1    2    0    0 -0.11255112077E+03  0.19796014134E+03  0.24404471131E+03  0.10069328644E+04  0.95000000000E+03 0.  0.
   -2000013    1    1    2    0    0  0.11255112077E+03 -0.19796014134E+03 -0.48293193191E+02  0.97810439364E+03  0.95000000000E+03 0.  0.
<mgrwt>
<rscale>  0 0.19753618E+04</rscale>
<asrwt>0</asrwt>
<pdfrwt beam="1">  1        1 0.16775298E+00 0.19753618E+04</pdfrwt>
<pdfrwt beam="2">  1       -1 0.13763737E+00 0.19753618E+04</pdfrwt>
<totfact> 0.52522943E+00</totfact>
</mgrwt>
</event>
<event>
 4    1  0.1323225E-008  0.2333190E+04  0.7816531E-02  0.8464949E-01
         -2   -1    0    0    0  501 -0.00000000000E+00  0.00000000000E+00  0.43534161376E+03  0.43534161376E+03  0.00000000000E+00 0. -1.
          2   -1    0    0  501    0  0.00000000000E+00 -0.00000000000E+00 -0.31261512734E+04  0.31261512734E+04  0.00000000000E+00 0.  1.
    2000013    1    1    2    0    0  0.65712823640E+03  0.16145650344E+03 -0.13814632225E+04  0.18079895897E+04  0.95000000000E+03 0.  0.
   -2000013    1    1    2    0    0 -0.65712823640E+03 -0.16145650344E+03 -0.13093464372E+04  0.17535032975E+04  0.95000000000E+03 0.  0.
<mgrwt>
<rscale>  0 0.23331899E+04</rscale>
<asrwt>0</asrwt>
<pdfrwt beam="2">  1        2 0.48094635E+00 0.23331899E+04</pdfrwt>
<pdfrwt beam="1">  1       -2 0.66975632E-01 0.23331899E+04</pdfrwt>
<totfact> 0.26817463E+00</totfact>
</mgrwt>
</event>
<event>
 4    1  0.1323225E-008  0.2129253E+04  0.7816531E-02  0.8548465E-01
         -1   -1    0    0    0  501 -0.00000000000E+00  0.00000000000E+00  0.19586960760E+04  0.19586960760E+04  0.00000000000E+00 0. -1.
          1   -1    0    0  501    0  0.00000000000E+00 -0.00000000000E+00 -0.57866547051E+03  0.57866547051E+03  0.00000000000E+00 0.  1.
    2000013    1    1    2    0    0  0.11858488921E+03 -0.46389997441E+03  0.64140134718E+03  0.12422404157E+04  0.95000000000E+03 0.  0.
   -2000013    1    1    2    0    0 -0.11858488921E+03  0.46389997441E+03  0.73862925828E+03  0.12951211308E+04  0.95000000000E+03 0.  0.
<mgrwt>
<rscale>  0 0.21292532E+04</rscale>
<asrwt>0</asrwt>
<pdfrwt beam="2">  1        1 0.89025458E-01 0.21292532E+04</pdfrwt>
<pdfrwt beam="1">  1       -1 0.30133786E+00 0.21292532E+04</pdfrwt>
<totfact> 0.10720457E+00</totfact>
</mgrwt>
</event>
<event>
 4    1  0.1323225E-008  0.2753641E+04  0.7816531E-02  0.8317807E-01
         -2   -1    0    0    0  501 -0.00000000000E+00  0.00000000000E+00  0.67394519164E+03  0.67394519164E+03  0.00000000000E+00 0. -1.
          2   -1    0    0  501    0  0.00000000000E+00 -0.00000000000E+00 -0.28127422356E+04  0.28127422356E+04  0.00000000000E+00 0.  1.
    2000013    1    1    2    0    0 -0.72048057592E+03  0.57539294252E+03 -0.59063579336E+03  0.14496620085E+04  0.95000000000E+03 0.  0.
   -2000013    1    1    2    0    0  0.72048057592E+03 -0.57539294252E+03 -0.15481612506E+04  0.20370254187E+04  0.95000000000E+03 0.  0.
<mgrwt>
<rscale>  0 0.27536406E+04</rscale>
<asrwt>0</asrwt>
<pdfrwt beam="2">  1        2 0.43272957E+00 0.27536406E+04</pdfrwt>
<pdfrwt beam="1">  1       -2 0.10368388E+00 0.27536406E+04</pdfrwt>
<totfact> 0.15028383E+00</totfact>
</mgrwt>
</event>
<event>
 4    1  0.1323225E-008  0.2753214E+04  0.7816531E-02  0.8317943E-01
         -2   -1    0    0    0  501 -0.00000000000E+00  0.00000000000E+00  0.91331243275E+03  0.91331243275E+03  0.00000000000E+00 0. -1.
          2   -1    0    0  501    0  0.00000000000E+00 -0.00000000000E+00 -0.20749160811E+04  0.20749160811E+04  0.00000000000E+00 0.  1.
    2000013    1    1    2    0    0  0.94755379287E+03  0.30757000854E+03 -0.57055374707E+03  0.14901305576E+04  0.95000000000E+03 0.  0.
   -2000013    1    1    2    0    0 -0.94755379287E+03 -0.30757000854E+03 -0.59104990126E+03  0.14980979562E+04  0.95000000000E+03 0.  0.
<mgrwt>
<rscale>  0 0.27532139E+04</rscale>
<asrwt>0</asrwt>
<pdfrwt beam="2">  1        2 0.31921786E+00 0.27532139E+04</pdfrwt>
<pdfrwt beam="1">  1       -2 0.14050961E+00 0.27532139E+04</pdfrwt>
<totfact> 0.18859926E+00</totfact>
</mgrwt>
</event>
<event>
 4    1  0.1323225E-008  0.2541901E+04  0.7816531E-02  0.8388208E-01
          2   -1    0    0  501    0  0.00000000000E+00  0.00000000000E+00  0.12909468103E+04  0.12909468103E+04  0.00000000000E+00 0.  1.
         -2   -1    0    0    0  501 -0.00000000000E+00 -0.00000000000E+00 -0.12512642700E+04  0.12512642700E+04  0.00000000000E+00 0. -1.
    2000013    1    1    2    0    0  0.57319554242E+03  0.25769626809E+03 -0.54401384215E+03  0.12623040667E+04  0.95000000000E+03 0.  0.
   -2000013    1    1    2    0    0 -0.57319554242E+03 -0.25769626809E+03  0.58369638249E+03  0.12799070136E+04  0.95000000000E+03 0.  0.
<mgrwt>
<rscale>  0 0.25419013E+04</rscale>
<asrwt>0</asrwt>
<pdfrwt beam="1">  1        2 0.19860720E+00 0.25419013E+04</pdfrwt>
<pdfrwt beam="2">  1       -2 0.19250219E+00 0.25419013E+04</pdfrwt>
<totfact> 0.22181878E+00</totfact>
</mgrwt>
</event>
<event>
 4    1  0.1323225E-008  0.2826231E+04  0.7816531E-02  0.8295171E-01
         -2   -1    0    0    0  501 -0.00000000000E+00  0.00000000000E+00  0.97846643358E+03  0.97846643358E+03  0.00000000000E+00 0. -1.
          2   -1    0    0  501    0  0.00000000000E+00 -0.00000000000E+00 -0.20408419716E+04  0.20408419716E+04  0.00000000000E+00 0.  1.
    2000013    1    1    2    0    0 -0.46573533211E+03  0.93540044438E+03 -0.58473135312E+03  0.15284940779E+04  0.95000000000E+03 0.  0.
   -2000013    1    1    2    0    0  0.46573533211E+03 -0.93540044438E+03 -0.47764418488E+03  0.14908143272E+04  0.95000000000E+03 0.  0.
<mgrwt>
<rscale>  0 0.28262310E+04</rscale>
<asrwt>0</asrwt>
<pdfrwt beam="2">  1        2 0.31397568E+00 0.28262310E+04</pdfrwt>
<pdfrwt beam="1">  1       -2 0.15053330E+00 0.28262310E+04</pdfrwt>
<totfact> 0.16340574E+00</totfact>
</mgrwt>
</event>
<event>
 4    1  0.1323225E-008  0.2349516E+04  0.7816531E-02  0.8458649E-01
          2   -1    0    0  501    0  0.00000000000E+00  0.00000000000E+00  0.14185912817E+04  0.14185912817E+04  0.00000000000E+00 0.  1.
         -2   -1    0    0    0  501 -0.00000000000E+00 -0.00000000000E+00 -0.97283612416E+03  0.97283612416E+03  0.00000000000E+00 0. -1.
    2000013    1    1    2    0    0 -0.22888119423E+03 -0.52449477162E+03 -0.17142860314E+03  0.11222161701E+04  0.95000000000E+03 0.  0.
   -2000013    1    1    2    0    0  0.22888119423E+03  0.52449477162E+03  0.61718376073E+03  0.12692112358E+04  0.95000000000E+03 0.  0.
<mgrwt>
<rscale>  0 0.23495164E+04</rscale>
<asrwt>0</asrwt>
<pdfrwt beam="1">  1        2 0.21824481E+00 0.23495164E+04</pdfrwt>
<pdfrwt beam="2">  1       -2 0.14966710E+00 0.23495164E+04</pdfrwt>
<totfact> 0.38433795E+00</totfact>
</mgrwt>
</event>
<event>
 4    1  0.1323225E-008  0.2432520E+04  0.7816531E-02  0.8427428E-01
          2   -1    0    0  501    0  0.00000000000E+00  0.00000000000E+00  0.19650530145E+04  0.19650530145E+04  0.00000000000E+00 0.  1.
         -2   -1    0    0    0  501 -0.00000000000E+00 -0.00000000000E+00 -0.75279838507E+03  0.75279838507E+03  0.00000000000E+00 0. -1.
    2000013    1    1    2    0    0 -0.61433214249E+03 -0.43474962239E+03  0.71994664731E+03  0.14096930128E+04  0.95000000000E+03 0.  0.
   -2000013    1    1    2    0    0  0.61433214249E+03  0.43474962239E+03  0.49230798210E+03  0.13081583867E+04  0.95000000000E+03 0.  0.
<mgrwt>
<rscale>  0 0.24325203E+04</rscale>
<asrwt>0</asrwt>
<pdfrwt beam="1">  1        2 0.30231585E+00 0.24325203E+04</pdfrwt>
<pdfrwt beam="2">  1       -2 0.11581514E+00 0.24325203E+04</pdfrwt>
<totfact> 0.36316362E+00</totfact>
</mgrwt>
</event>
<event>
 4    1  0.1323225E-008  0.4147332E+04  0.7816531E-02  0.7975467E-01
          2   -1    0    0  501    0  0.00000000000E+00  0.00000000000E+00  0.39612411144E+04  0.39612411144E+04  0.00000000000E+00 0.  1.
         -2   -1    0    0    0  501 -0.00000000000E+00 -0.00000000000E+00 -0.10855411119E+04  0.10855411119E+04  0.00000000000E+00 0. -1.
    2000013    1    1    2    0    0  0.26455997190E+02  0.18156164848E+04  0.18234800936E+04  0.27431264629E+04  0.95000000000E+03 0.  0.
   -2000013    1    1    2    0    0 -0.26455997190E+02 -0.18156164848E+04  0.10522199090E+04  0.23036557635E+04  0.95000000000E+03 0.  0.
<mgrwt>
<rscale>  0 0.41473317E+04</rscale>
<asrwt>0</asrwt>
<pdfrwt beam="1">  1        2 0.60942170E+00 0.41473317E+04</pdfrwt>
<pdfrwt beam="2">  1       -2 0.16700633E+00 0.41473317E+04</pdfrwt>
<totfact> 0.63935423E-02</totfact>
</mgrwt>
</event>
<event>
 4    1  0.1323225E-008  0.2021108E+04  0.7816531E-02  0.8596815E-01
         -2   -1    0    0    0  501 -0.00000000000E+00  0.00000000000E+00  0.96878848532E+03  0.96878848532E+03  0.00000000000E+00 0.  1.
          2   -1    0    0  501    0  0.00000000000E+00 -0.00000000000E+00 -0.10541196518E+04  0.10541196518E+04  0.00000000000E+00 0. -1.
    2000013    1    1    2    0    0 -0.11754058147E+03  0.32137784844E+03 -0.23870806607E+01  0.10097550237E+04  0.95000000000E+03 0.  0.
   -2000013    1    1    2    0    0  0.11754058147E+03 -0.32137784844E+03 -0.82944085786E+02  0.10131531134E+04  0.95000000000E+03 0.  0.
<mgrwt>
<rscale>  0 0.20211076E+04</rscale>
<asrwt>0</asrwt>
<pdfrwt beam="2">  1        2 0.16217225E+00 0.20211076E+04</pdfrwt>
<pdfrwt beam="1">  1       -2 0.14904438E+00 0.20211076E+04</pdfrwt>
<totfact> 0.65764243E+00</totfact>
</mgrwt>
</event>
<event>
 4    1  0.1323225E-008  0.2414519E+04  0.7816531E-02  0.8434088E-01
         -1   -1    0    0    0  501 -0.00000000000E+00  0.00000000000E+00  0.87201309754E+03  0.87201309754E+03  0.00000000000E+00 0. -1.
          1   -1    0    0  501    0  0.00000000000E+00 -0.00000000000E+00 -0.16713914705E+04  0.16713914705E+04  0.00000000000E+00 0.  1.
    2000013    1    1    2    0    0 -0.20608741404E+03  0.64945827625E+03 -0.82436224281E+02  0.11719913847E+04  0.95000000000E+03 0.  0.
   -2000013    1    1    2    0    0  0.20608741404E+03 -0.64945827625E+03 -0.71694214870E+03  0.13714131833E+04  0.95000000000E+03 0.  0.
<mgrwt>
<rscale>  0 0.24145188E+04</rscale>
<asrwt>0</asrwt>
<pdfrwt beam="2">  1        1 0.25713715E+00 0.24145188E+04</pdfrwt>
<pdfrwt beam="1">  1       -1 0.13415586E+00 0.24145188E+04</pdfrwt>
<totfact> 0.20886226E+00</totfact>
</mgrwt>
</event>
<event>
 4    1  0.1323225E-008  0.2453691E+04  0.7816531E-02  0.8419671E-01
          2   -1    0    0  501    0  0.00000000000E+00  0.00000000000E+00  0.78607881502E+03  0.78607881502E+03  0.00000000000E+00 0.  1.
         -2   -1    0    0    0  501 -0.00000000000E+00 -0.00000000000E+00 -0.19147575224E+04  0.19147575224E+04  0.00000000000E+00 0. -1.
    2000013    1    1    2    0    0  0.58349351198E+03  0.45179923420E+03 -0.29910581773E+03  0.12395771524E+04  0.95000000000E+03 0.  0.
   -2000013    1    1    2    0    0 -0.58349351198E+03 -0.45179923420E+03 -0.82957288961E+03  0.14612591850E+04  0.95000000000E+03 0.  0.
<mgrwt>
<rscale>  0 0.24536914E+04</rscale>
<asrwt>0</asrwt>
<pdfrwt beam="1">  1        2 0.12093520E+00 0.24536914E+04</pdfrwt>
<pdfrwt beam="2">  1       -2 0.29457808E+00 0.24536914E+04</pdfrwt>
<totfact> 0.10831283E+00</totfact>
</mgrwt>
</event>
<event>
 4    1  0.1323225E-008  0.3467568E+04  0.7816531E-02  0.8121519E-01
         -2   -1    0    0    0  501 -0.00000000000E+00  0.00000000000E+00  0.19518236778E+04  0.19518236778E+04  0.00000000000E+00 0.  1.
          2   -1    0    0  501    0  0.00000000000E+00 -0.00000000000E+00 -0.15401012542E+04  0.15401012542E+04  0.00000000000E+00 0. -1.
    2000013    1    1    2    0    0  0.24938665889E+03 -0.10589784635E+04  0.11717004731E+04  0.18598416843E+04  0.95000000000E+03 0.  0.
   -2000013    1    1    2    0    0 -0.24938665889E+03  0.10589784635E+04 -0.75997804952E+03  0.16320832477E+04  0.95000000000E+03 0.  0.
<mgrwt>
<rscale>  0 0.34675675E+04</rscale>
<asrwt>0</asrwt>
<pdfrwt beam="2">  1        2 0.23693865E+00 0.34675675E+04</pdfrwt>
<pdfrwt beam="1">  1       -2 0.30028057E+00 0.34675675E+04</pdfrwt>
<totfact> 0.31425625E-01</totfact>
</mgrwt>
</event>
<event>
 4    1  0.1323225E-008  0.3207695E+04  0.7816531E-02  0.8186788E-01
          2   -1    0    0  501    0  0.00000000000E+00  0.00000000000E+00  0.33633591976E+04  0.33633591976E+04  0.00000000000E+00 0.  1.
         -2   -1    0    0    0  501 -0.00000000000E+00 -0.00000000000E+00 -0.76480894748E+03  0.76480894748E+03  0.00000000000E+00 0. -1.
    2000013    1    1    2    0    0  0.19875253901E+03 -0.70121732615E+03  0.26725373400E+04  0.29285088602E+04  0.95000000000E+03 0.  0.
   -2000013    1    1    2    0    0 -0.19875253901E+03  0.70121732615E+03 -0.73987089961E+02  0.11996592849E+04  0.95000000000E+03 0.  0.
<mgrwt>
<rscale>  0 0.32076953E+04</rscale>
<asrwt>0</asrwt>
<pdfrwt beam="1">  1        2 0.51743987E+00 0.32076953E+04</pdfrwt>
<pdfrwt beam="2">  1       -2 0.11766292E+00 0.32076953E+04</pdfrwt>
<totfact> 0.47318306E-01</totfact>
</mgrwt>
</event>
<event>
 4    1  0.1323225E-008  0.2685873E+04  0.7816531E-02  0.8339603E-01
          1   -1    0    0  501    0  0.00000000000E+00  0.00000000000E+00  0.15561058264E+04  0.15561058264E+04  0.00000000000E+00 0.  1.
         -1   -1    0    0    0  501 -0.00000000000E+00 -0.00000000000E+00 -0.11589693270E+04  0.11589693270E+04  0.00000000000E+00 0. -1.
    2000013    1    1    2    0    0 -0.55419197329E+03 -0.32629600359E+03 -0.50714888941E+03  0.12543116922E+04  0.95000000000E+03 0.  0.
   -2000013    1    1    2    0    0  0.55419197329E+03  0.32629600359E+03  0.90428538877E+03  0.14607634612E+04  0.95000000000E+03 0.  0.
<mgrwt>
<rscale>  0 0.26858734E+04</rscale>
<asrwt>0</asrwt>
<pdfrwt beam="1">  1        1 0.23940090E+00 0.26858734E+04</pdfrwt>
<pdfrwt beam="2">  1       -1 0.17830297E+00 0.26858734E+04</pdfrwt>
<totfact> 0.11195126E+00</totfact>
</mgrwt>
</event>
<event>
 4    1  0.1323225E-008  0.2052028E+04  0.7816531E-02  0.8582675E-01
          2   -1    0    0  501    0  0.00000000000E+00  0.00000000000E+00  0.19984637722E+04  0.19984637722E+04  0.00000000000E+00 0.  1.
         -2   -1    0    0    0  501 -0.00000000000E+00 -0.00000000000E+00 -0.52675706600E+03  0.52675706600E+03  0.00000000000E+00 0. -1.
    2000013    1    1    2    0    0 -0.23852756320E+03  0.23422381946E+03  0.49455354813E+03  0.11219801282E+04  0.95000000000E+03 0.  0.
   -2000013    1    1    2    0    0  0.23852756320E+03 -0.23422381946E+03  0.97715315810E+03  0.14032407101E+04  0.95000000000E+03 0.  0.
<mgrwt>
<rscale>  0 0.20520282E+04</rscale>
<asrwt>0</asrwt>
<pdfrwt beam="1">  1        2 0.30745596E+00 0.20520282E+04</pdfrwt>
<pdfrwt beam="2">  1       -2 0.81039549E-01 0.20520282E+04</pdfrwt>
<totfact> 0.83147114E+00</totfact>
</mgrwt>
</event>
<event>
 4    1  0.1323225E-008  0.2365194E+04  0.7816531E-02  0.8452651E-01
         -2   -1    0    0    0  501 -0.00000000000E+00  0.00000000000E+00  0.70937247765E+03  0.70937247765E+03  0.00000000000E+00 0. -1.
          2   -1    0    0  501    0  0.00000000000E+00 -0.00000000000E+00 -0.19715103696E+04  0.19715103696E+04  0.00000000000E+00 0.  1.
    2000013    1    1    2    0    0 -0.22515040583E+03  0.55295947583E+03 -0.10545364660E+04  0.15398064960E+04  0.95000000000E+03 0.  0.
   -2000013    1    1    2    0    0  0.22515040583E+03 -0.55295947583E+03 -0.20760142593E+03  0.11410763512E+04  0.95000000000E+03 0.  0.
<mgrwt>
<rscale>  0 0.23651936E+04</rscale>
<asrwt>0</asrwt>
<pdfrwt beam="2">  1        2 0.30330929E+00 0.23651936E+04</pdfrwt>
<pdfrwt beam="1">  1       -2 0.10913423E+00 0.23651936E+04</pdfrwt>
<totfact> 0.41849719E+00</totfact>
</mgrwt>
</event>
<event>
 4    1  0.1323225E-008  0.2427145E+04  0.7816531E-02  0.8429410E-01
          2   -1    0    0  501    0  0.00000000000E+00  0.00000000000E+00  0.50142908972E+03  0.50142908972E+03  0.00000000000E+00 0.  1.
         -2   -1    0    0    0  501 -0.00000000000E+00 -0.00000000000E+00 -0.29371206772E+04  0.29371206772E+04  0.00000000000E+00 0. -1.
    2000013    1    1    2    0    0 -0.24422965399E+03 -0.71363005619E+03 -0.12697399129E+04  0.17560340052E+04  0.95000000000E+03 0.  0.
   -2000013    1    1    2    0    0  0.24422965399E+03  0.71363005619E+03 -0.11659516745E+04  0.16825157617E+04  0.95000000000E+03 0.  0.
<mgrwt>
<rscale>  0 0.24271446E+04</rscale>
<asrwt>0</asrwt>
<pdfrwt beam="1">  1        2 0.77142938E-01 0.24271446E+04</pdfrwt>
<pdfrwt beam="2">  1       -2 0.45186471E+00 0.24271446E+04</pdfrwt>
<totfact> 0.18564957E-01</totfact>
</mgrwt>
</event>
<event>
 4    1  0.1323225E-008  0.2557431E+04  0.7816531E-02  0.8382806E-01
         -2   -1    0    0    0  501 -0.00000000000E+00  0.00000000000E+00  0.54618334187E+03  0.54618334187E+03  0.00000000000E+00 0. -1.
          2   -1    0    0  501    0  0.00000000000E+00 -0.00000000000E+00 -0.29937071075E+04  0.29937071075E+04  0.00000000000E+00 0.  1.
    2000013    1    1    2    0    0 -0.36542066858E+03 -0.77400290414E+03 -0.12231555743E+04  0.17695260155E+04  0.95000000000E+03 0.  0.
   -2000013    1    1    2    0    0  0.36542066858E+03  0.77400290414E+03 -0.12243681912E+04  0.17703644338E+04  0.95000000000E+03 0.  0.
<mgrwt>
<rscale>  0 0.25574307E+04</rscale>
<asrwt>0</asrwt>
<pdfrwt beam="2">  1        2 0.46057031E+00 0.25574307E+04</pdfrwt>
<pdfrwt beam="1">  1       -2 0.84028208E-01 0.25574307E+04</pdfrwt>
<totfact> 0.19291376E+00</totfact>
</mgrwt>
</event>
<event>
 4    1  0.1323225E-008  0.2959991E+04  0.7816531E-02  0.8255249E-01
         -2   -1    0    0    0  501 -0.00000000000E+00  0.00000000000E+00  0.19523862049E+04  0.19523862049E+04  0.00000000000E+00 0. -1.
          2   -1    0    0  501    0  0.00000000000E+00 -0.00000000000E+00 -0.11219025910E+04  0.11219025910E+04  0.00000000000E+00 0.  1.
    2000013    1    1    2    0    0  0.78681617531E+03 -0.26037410483E+03 -0.38994393733E+03  0.13196327680E+04  0.95000000000E+03 0.  0.
   -2000013    1    1    2    0    0 -0.78681617531E+03  0.26037410483E+03  0.12204275513E+04  0.17546560279E+04  0.95000000000E+03 0.  0.
<mgrwt>
<rscale>  0 0.29599913E+04</rscale>
<asrwt>0</asrwt>
<pdfrwt beam="2">  1        2 0.17260040E+00 0.29599913E+04</pdfrwt>
<pdfrwt beam="1">  1       -2 0.30036711E+00 0.29599913E+04</pdfrwt>
<totfact> 0.57350072E-01</totfact>
</mgrwt>
</event>
<event>
 4    1  0.1323225E-008  0.2449433E+04  0.7816531E-02  0.8421225E-01
          2   -1    0    0  501    0  0.00000000000E+00  0.00000000000E+00  0.25554306648E+04  0.25554306648E+04  0.00000000000E+00 0.  1.
         -2   -1    0    0    0  501 -0.00000000000E+00 -0.00000000000E+00 -0.58695818373E+03  0.58695818373E+03  0.00000000000E+00 0. -1.
    2000013    1    1    2    0    0  0.68142386254E+03  0.17718878347E+03  0.13933532216E+04  0.18274757305E+04  0.95000000000E+03 0.  0.
   -2000013    1    1    2    0    0 -0.68142386254E+03 -0.17718878347E+03  0.57511925955E+03  0.13149131181E+04  0.95000000000E+03 0.  0.
<mgrwt>
<rscale>  0 0.24494334E+04</rscale>
<asrwt>0</asrwt>
<pdfrwt beam="1">  1        2 0.39314317E+00 0.24494334E+04</pdfrwt>
<pdfrwt beam="2">  1       -2 0.90301260E-01 0.24494334E+04</pdfrwt>
<totfact> 0.30349277E+00</totfact>
</mgrwt>
</event>
<event>
 4    1  0.1323225E-008  0.2204102E+04  0.7816531E-02  0.8516723E-01
          2   -1    0    0  501    0  0.00000000000E+00  0.00000000000E+00  0.32151482441E+04  0.32151482441E+04  0.00000000000E+00 0.  1.
         -2   -1    0    0    0  501 -0.00000000000E+00 -0.00000000000E+00 -0.37774822586E+03  0.37774822586E+03  0.00000000000E+00 0. -1.
    2000013    1    1    2    0    0  0.27911321482E+03  0.23470328043E+03  0.72898142573E+03  0.12517602548E+04  0.95000000000E+03 0.  0.
   -2000013    1    1    2    0    0 -0.27911321482E+03 -0.23470328043E+03  0.21084185925E+04  0.23411362152E+04  0.95000000000E+03 0.  0.
<mgrwt>
<rscale>  0 0.22041021E+04</rscale>
<asrwt>0</asrwt>
<pdfrwt beam="1">  1        2 0.49463817E+00 0.22041021E+04</pdfrwt>
<pdfrwt beam="2">  1       -2 0.58115114E-01 0.22041021E+04</pdfrwt>
<totfact> 0.32151327E+00</totfact>
</mgrwt>
</event>
<event>
 4    1  0.1323225E-008  0.2295134E+04  0.7816531E-02  0.8479842E-01
          2   -1    0    0  501    0  0.00000000000E+00  0.00000000000E+00  0.76090767109E+03  0.76090767109E+03  0.00000000000E+00 0.  1.
         -2   -1    0    0    0  501 -0.00000000000E+00 -0.00000000000E+00 -0.17307089641E+04  0.17307089641E+04  0.00000000000E+00 0. -1.
    2000013    1    1    2    0    0  0.13309429855E+03  0.33257808495E+03 -0.10655616074E+04  0.14718165015E+04  0.95000000000E+03 0.  0.
   -2000013    1    1    2    0    0 -0.13309429855E+03 -0.33257808495E+03  0.95760314385E+02  0.10198001337E+04  0.95000000000E+03 0.  0.
<mgrwt>
<rscale>  0 0.22951337E+04</rscale>
<asrwt>0</asrwt>
<pdfrwt beam="1">  1        2 0.11706272E+00 0.22951337E+04</pdfrwt>
<pdfrwt beam="2">  1       -2 0.26626292E+00 0.22951337E+04</pdfrwt>
<totfact> 0.17049905E+00</totfact>
</mgrwt>
</event>
<event>
 4    1  0.1323225E-008  0.2508936E+04  0.7816531E-02  0.8399809E-01
          2   -1    0    0  501    0  0.00000000000E+00  0.00000000000E+00  0.11416313558E+04  0.11416313558E+04  0.00000000000E+00 0.  1.
         -2   -1    0    0    0  501 -0.00000000000E+00 -0.00000000000E+00 -0.13784569246E+04  0.13784569246E+04  0.00000000000E+00 0. -1.
    2000013    1    1    2    0    0 -0.49636643529E+03 -0.64859202472E+03 -0.53796468871E+02  0.12539718149E+04  0.95000000000E+03 0.  0.
   -2000013    1    1    2    0    0  0.49636643529E+03  0.64859202472E+03 -0.18302909999E+03  0.12661164654E+04  0.95000000000E+03 0.  0.
<mgrwt>
<rscale>  0 0.25089357E+04</rscale>
<asrwt>0</asrwt>
<pdfrwt beam="1">  1        2 0.17563559E+00 0.25089357E+04</pdfrwt>
<pdfrwt beam="2">  1       -2 0.21207030E+00 0.25089357E+04</pdfrwt>
<totfact> 0.20328627E+00</totfact>
</mgrwt>
</event>
<event>
 4    1  0.1323225E-008  0.2661120E+04  0.7816531E-02  0.8347732E-01
         -2   -1    0    0    0  501 -0.00000000000E+00  0.00000000000E+00  0.93852710286E+03  0.93852710286E+03  0.00000000000E+00 0. -1.
          2   -1    0    0  501    0  0.00000000000E+00 -0.00000000000E+00 -0.18863488618E+04  0.18863488618E+04  0.00000000000E+00 0.  1.
    2000013    1    1    2    0    0 -0.46225727401E+03 -0.77173421501E+03 -0.73095631956E+03  0.14986836314E+04  0.95000000000E+03 0.  0.
   -2000013    1    1    2    0    0  0.46225727401E+03  0.77173421501E+03 -0.21686543941E+03  0.13261923333E+04  0.95000000000E+03 0.  0.
<mgrwt>
<rscale>  0 0.26611197E+04</rscale>
<asrwt>0</asrwt>
<pdfrwt beam="2">  1        2 0.29020751E+00 0.26611197E+04</pdfrwt>
<pdfrwt beam="1">  1       -2 0.14438879E+00 0.26611197E+04</pdfrwt>
<totfact> 0.22535319E+00</totfact>
</mgrwt>
</event>
<event>
 4    1  0.1323225E-008  0.2848564E+04  0.7816531E-02  0.8288348E-01
         -1   -1    0    0    0  501 -0.00000000000E+00  0.00000000000E+00  0.10153508871E+04  0.10153508871E+04  0.00000000000E+00 0. -1.
          1   -1    0    0  501    0  0.00000000000E+00 -0.00000000000E+00 -0.19979091981E+04  0.19979091981E+04  0.00000000000E+00 0.  1.
    2000013    1    1    2    0    0 -0.86512962198E+03  0.59509846464E+03 -0.32916220188E+03  0.14537672443E+04  0.95000000000E+03 0.  0.
   -2000013    1    1    2    0    0  0.86512962198E+03 -0.59509846464E+03 -0.65339610909E+03  0.15594928409E+04  0.95000000000E+03 0.  0.
<mgrwt>
<rscale>  0 0.28485638E+04</rscale>
<asrwt>0</asrwt>
<pdfrwt beam="2">  1        1 0.30737065E+00 0.28485638E+04</pdfrwt>
<pdfrwt beam="1">  1       -1 0.15620783E+00 0.28485638E+04</pdfrwt>
<totfact> 0.80511168E-01</totfact>
</mgrwt>
</event>
<event>
 4    1  0.1323225E-008  0.2436084E+04  0.7816531E-02  0.8426116E-01
          2   -1    0    0  501    0  0.00000000000E+00  0.00000000000E+00  0.26892886708E+04  0.26892886708E+04  0.00000000000E+00 0.  1.
         -2   -1    0    0    0  501 -0.00000000000E+00 -0.00000000000E+00 -0.55167982256E+03  0.55167982256E+03  0.00000000000E+00 0. -1.
    2000013    1    1    2    0    0  0.53747447155E+03  0.33491872229E+03  0.16333663704E+04  0.19928459695E+04  0.95000000000E+03 0.  0.
   -2000013    1    1    2    0    0 -0.53747447155E+03 -0.33491872229E+03  0.50424247782E+03  0.12481225239E+04  0.95000000000E+03 0.  0.
<mgrwt>
<rscale>  0 0.24360840E+04</rscale>
<asrwt>0</asrwt>
<pdfrwt beam="1">  1        2 0.41373671E+00 0.24360840E+04</pdfrwt>
<pdfrwt beam="2">  1       -2 0.84873820E-01 0.24360840E+04</pdfrwt>
<totfact> 0.29209490E+00</totfact>
</mgrwt>
</event>
<event>
 4    1  0.1323225E-008  0.3306533E+04  0.7816531E-02  0.8161235E-01
          2   -1    0    0  501    0  0.00000000000E+00  0.00000000000E+00  0.18993079166E+04  0.18993079166E+04  0.00000000000E+00 0.  1.
         -2   -1    0    0    0  501 -0.00000000000E+00 -0.00000000000E+00 -0.14390983781E+04  0.14390983781E+04  0.00000000000E+00 0. -1.
    2000013    1    1    2    0    0 -0.37659857318E+03  0.10198157895E+04  0.10434381691E+04  0.17813236490E+04  0.95000000000E+03 0.  0.
   -2000013    1    1    2    0    0  0.37659857318E+03 -0.10198157895E+04 -0.58322863070E+03  0.15570826457E+04  0.95000000000E+03 0.  0.
<mgrwt>
<rscale>  0 0.33065335E+04</rscale>
<asrwt>0</asrwt>
<pdfrwt beam="1">  1        2 0.29220122E+00 0.33065335E+04</pdfrwt>
<pdfrwt beam="2">  1       -2 0.22139975E+00 0.33065335E+04</pdfrwt>
<totfact> 0.61442470E-01</totfact>
</mgrwt>
</event>
<event>
 4    1  0.1323225E-008  0.2707737E+04  0.7816531E-02  0.8332499E-01
          2   -1    0    0  501    0  0.00000000000E+00  0.00000000000E+00  0.13238414793E+04  0.13238414793E+04  0.00000000000E+00 0.  1.
         -2   -1    0    0    0  501 -0.00000000000E+00 -0.00000000000E+00 -0.13845766974E+04  0.13845766974E+04  0.00000000000E+00 0. -1.
    2000013    1    1    2    0    0 -0.89118575296E+03  0.32824079650E+03  0.13851204745E+03  0.13504220281E+04  0.95000000000E+03 0.  0.
   -2000013    1    1    2    0    0  0.89118575296E+03 -0.32824079650E+03 -0.19924726555E+03  0.13579961486E+04  0.95000000000E+03 0.  0.
<mgrwt>
<rscale>  0 0.27077371E+04</rscale>
<asrwt>0</asrwt>
<pdfrwt beam="1">  1        2 0.20366792E+00 0.27077371E+04</pdfrwt>
<pdfrwt beam="2">  1       -2 0.21301180E+00 0.27077371E+04</pdfrwt>
<totfact> 0.15373946E+00</totfact>
</mgrwt>
</event>
<event>
 4    1  0.1323225E-008  0.2533180E+04  0.7816531E-02  0.8391259E-01
         -2   -1    0    0    0  501 -0.00000000000E+00  0.00000000000E+00  0.16996779908E+04  0.16996779908E+04  0.00000000000E+00 0. -1.
          2   -1    0    0  501    0  0.00000000000E+00 -0.00000000000E+00 -0.94385552247E+03  0.94385552247E+03  0.00000000000E+00 0.  1.
    2000013    1    1    2    0    0 -0.35245788074E+02  0.79071131905E+03  0.91579481369E+02  0.12399005835E+04  0.95000000000E+03 0.  0.
   -2000013    1    1    2    0    0  0.35245788074E+02 -0.79071131905E+03  0.66424298692E+03  0.14036329297E+04  0.95000000000E+03 0.  0.
<mgrwt>
<rscale>  0 0.25331802E+04</rscale>
<asrwt>0</asrwt>
<pdfrwt beam="2">  1        2 0.14520854E+00 0.25331802E+04</pdfrwt>
<pdfrwt beam="1">  1       -2 0.26148892E+00 0.25331802E+04</pdfrwt>
<totfact> 0.13316229E+00</totfact>
</mgrwt>
</event>
<event>
 4    1  0.1323225E-008  0.2837050E+04  0.7816531E-02  0.8291857E-01
          2   -1    0    0  501    0  0.00000000000E+00  0.00000000000E+00  0.77901217511E+03  0.77901217511E+03  0.00000000000E+00 0.  1.
         -2   -1    0    0    0  501 -0.00000000000E+00 -0.00000000000E+00 -0.25830312535E+04  0.25830312535E+04  0.00000000000E+00 0. -1.
    2000013    1    1    2    0    0  0.72679752501E+03 -0.75597502809E+03 -0.10203953564E+04  0.17445456626E+04  0.95000000000E+03 0.  0.
   -2000013    1    1    2    0    0 -0.72679752501E+03  0.75597502809E+03 -0.78362372201E+03  0.16174977660E+04  0.95000000000E+03 0.  0.
<mgrwt>
<rscale>  0 0.28370497E+04</rscale>
<asrwt>0</asrwt>
<pdfrwt beam="1">  1        2 0.11984802E+00 0.28370497E+04</pdfrwt>
<pdfrwt beam="2">  1       -2 0.39738943E+00 0.28370497E+04</pdfrwt>
<totfact> 0.23886045E-01</totfact>
</mgrwt>
</event>
<event>
 4    1  0.1323225E-008  0.2357470E+04  0.7816531E-02  0.8455600E-01
          2   -1    0    0  501    0  0.00000000000E+00  0.00000000000E+00  0.11278516620E+04  0.11278516620E+04  0.00000000000E+00 0. -1.
         -2   -1    0    0    0  501 -0.00000000000E+00 -0.00000000000E+00 -0.12319144649E+04  0.12319144649E+04  0.00000000000E+00 0.  1.
    2000013    1    1    2    0    0 -0.42437960699E+03 -0.51422058861E+03 -0.25813457980E+03  0.11889719618E+04  0.95000000000E+03 0.  0.
   -2000013    1    1    2    0    0  0.42437960699E+03  0.51422058861E+03  0.15407177689E+03  0.11707941651E+04  0.95000000000E+03 0.  0.
<mgrwt>
<rscale>  0 0.23574705E+04</rscale>
<asrwt>0</asrwt>
<pdfrwt beam="1">  1        2 0.17351564E+00 0.23574705E+04</pdfrwt>
<pdfrwt beam="2">  1       -2 0.18952530E+00 0.23574705E+04</pdfrwt>
<totfact> 0.29507008E+00</totfact>
</mgrwt>
</event>
<event>
 4    1  0.1323225E-008  0.2276912E+04  0.7816531E-02  0.8487081E-01
          2   -1    0    0  501    0  0.00000000000E+00  0.00000000000E+00  0.20825432255E+04  0.20825432255E+04  0.00000000000E+00 0.  1.
         -2   -1    0    0    0  501 -0.00000000000E+00 -0.00000000000E+00 -0.62235515207E+03  0.62235515207E+03  0.00000000000E+00 0. -1.
    2000013    1    1    2    0    0  0.21917665234E+03  0.29551837602E+03  0.13337548765E+04  0.16783240409E+04  0.95000000000E+03 0.  0.
   -2000013    1    1    2    0    0 -0.21917665234E+03 -0.29551837602E+03  0.12643319691E+03  0.10265743367E+04  0.95000000000E+03 0.  0.
<mgrwt>
<rscale>  0 0.22769115E+04</rscale>
<asrwt>0</asrwt>
<pdfrwt beam="1">  1        2 0.32039126E+00 0.22769115E+04</pdfrwt>
<pdfrwt beam="2">  1       -2 0.95746948E-01 0.22769115E+04</pdfrwt>
<totfact> 0.49943632E+00</totfact>
</mgrwt>
</event>
<event>
 4    1  0.1323225E-008  0.2795426E+04  0.7816531E-02  0.8304690E-01
         -2   -1    0    0    0  501 -0.00000000000E+00  0.00000000000E+00  0.89718308795E+03  0.89718308795E+03  0.00000000000E+00 0. -1.
          2   -1    0    0  501    0  0.00000000000E+00 -0.00000000000E+00 -0.21774845542E+04  0.21774845542E+04  0.00000000000E+00 0.  1.
    2000013    1    1    2    0    0 -0.10238821143E+04  0.50668438487E+02 -0.62457874429E+03  0.15308495950E+04  0.95000000000E+03 0.  0.
   -2000013    1    1    2    0    0  0.10238821143E+04 -0.50668438487E+02 -0.65572272198E+03  0.15438180472E+04  0.95000000000E+03 0.  0.
<mgrwt>
<rscale>  0 0.27954265E+04</rscale>
<asrwt>0</asrwt>
<pdfrwt beam="2">  1        2 0.33499762E+00 0.27954265E+04</pdfrwt>
<pdfrwt beam="1">  1       -2 0.13802817E+00 0.27954265E+04</pdfrwt>
<totfact> 0.17244884E+00</totfact>
</mgrwt>
</event>
<event>
 4    1  0.1323225E-008  0.3485244E+04  0.7816531E-02  0.8117296E-01
          2   -1    0    0  501    0  0.00000000000E+00  0.00000000000E+00  0.19041877372E+04  0.19041877372E+04  0.00000000000E+00 0.  1.
         -2   -1    0    0    0  501 -0.00000000000E+00 -0.00000000000E+00 -0.15947648458E+04  0.15947648458E+04  0.00000000000E+00 0. -1.
    2000013    1    1    2    0    0 -0.59910518321E+03  0.12481250461E+04 -0.31347950292E+03  0.17080727590E+04  0.95000000000E+03 0.  0.
   -2000013    1    1    2    0    0  0.59910518321E+03 -0.12481250461E+04  0.62290239430E+03  0.17908798240E+04  0.95000000000E+03 0.  0.
<mgrwt>
<rscale>  0 0.34852441E+04</rscale>
<asrwt>0</asrwt>
<pdfrwt beam="1">  1        2 0.29295196E+00 0.34852441E+04</pdfrwt>
<pdfrwt beam="2">  1       -2 0.24534844E+00 0.34852441E+04</pdfrwt>
<totfact> 0.42657965E-01</totfact>
</mgrwt>
</event>
<event>
 4    1  0.1323225E-008  0.2282452E+04  0.7816531E-02  0.8484872E-01
          2   -1    0    0  501    0  0.00000000000E+00  0.00000000000E+00  0.16305934049E+04  0.16305934049E+04  0.00000000000E+00 0.  1.
         -2   -1    0    0    0  501 -0.00000000000E+00 -0.00000000000E+00 -0.79872541646E+03  0.79872541646E+03  0.00000000000E+00 0. -1.
    2000013    1    1    2    0    0  0.31108034100E+03  0.45678957607E+03  0.88799079641E+02  0.11026390941E+04  0.95000000000E+03 0.  0.
   -2000013    1    1    2    0    0 -0.31108034100E+03 -0.45678957607E+03  0.74306890877E+03  0.13266797272E+04  0.95000000000E+03 0.  0.
<mgrwt>
<rscale>  0 0.22824517E+04</rscale>
<asrwt>0</asrwt>
<pdfrwt beam="1">  1        2 0.25086052E+00 0.22824517E+04</pdfrwt>
<pdfrwt beam="2">  1       -2 0.12288083E+00 0.22824517E+04</pdfrwt>
<totfact> 0.48722714E+00</totfact>
</mgrwt>
</event>
<event>
 4    1  0.1323225E-008  0.2851188E+04  0.7816531E-02  0.8287551E-01
         -2   -1    0    0    0  501 -0.00000000000E+00  0.00000000000E+00  0.84062388901E+03  0.84062388901E+03  0.00000000000E+00 0. -1.
          2   -1    0    0  501    0  0.00000000000E+00 -0.00000000000E+00 -0.24176303298E+04  0.24176303298E+04  0.00000000000E+00 0.  1.
    2000013    1    1    2    0    0 -0.19069420100E+03 -0.10437752670E+04 -0.71634808805E+03  0.15942037729E+04  0.95000000000E+03 0.  0.
   -2000013    1    1    2    0    0  0.19069420100E+03  0.10437752670E+04 -0.86065835275E+03  0.16640504459E+04  0.95000000000E+03 0.  0.
<mgrwt>
<rscale>  0 0.28511877E+04</rscale>
<asrwt>0</asrwt>
<pdfrwt beam="2">  1        2 0.37194313E+00 0.28511877E+04</pdfrwt>
<pdfrwt beam="1">  1       -2 0.12932675E+00 0.28511877E+04</pdfrwt>
<totfact> 0.14807300E+00</totfact>
</mgrwt>
</event>
<event>
 4    1  0.1323225E-008  0.2510240E+04  0.7816531E-02  0.8399346E-01
          1   -1    0    0  501    0  0.00000000000E+00  0.00000000000E+00  0.17100732612E+04  0.17100732612E+04  0.00000000000E+00 0.  1.
         -1   -1    0    0    0  501 -0.00000000000E+00 -0.00000000000E+00 -0.92120408343E+03  0.92120408343E+03  0.00000000000E+00 0. -1.
    2000013    1    1    2    0    0 -0.55467292273E+03  0.26478764561E+03 -0.17494326345E+03  0.11449365458E+04  0.95000000000E+03 0.  0.
   -2000013    1    1    2    0    0  0.55467292273E+03 -0.26478764561E+03  0.96381244124E+03  0.14863407989E+04  0.95000000000E+03 0.  0.
<mgrwt>
<rscale>  0 0.25102402E+04</rscale>
<asrwt>0</asrwt>
<pdfrwt beam="1">  1        1 0.26308819E+00 0.25102402E+04</pdfrwt>
<pdfrwt beam="2">  1       -1 0.14172371E+00 0.25102402E+04</pdfrwt>
<totfact> 0.16901058E+00</totfact>
</mgrwt>
</event>
<event>
 4    1  0.1323225E-008  0.2448074E+04  0.7816531E-02  0.8421722E-01
         -2   -1    0    0    0  501 -0.00000000000E+00  0.00000000000E+00  0.76363973975E+03  0.76363973975E+03  0.00000000000E+00 0. -1.
          2   -1    0    0  501    0  0.00000000000E+00 -0.00000000000E+00 -0.19620071283E+04  0.19620071283E+04  0.00000000000E+00 0.  1.
    2000013    1    1    2    0    0 -0.21508848932E+03  0.61747732870E+03 -0.14252608197E+03  0.11620477588E+04  0.95000000000E+03 0.  0.
   -2000013    1    1    2    0    0  0.21508848932E+03 -0.61747732870E+03 -0.10558413065E+04  0.15635991092E+04  0.95000000000E+03 0.  0.
<mgrwt>
<rscale>  0 0.24480740E+04</rscale>
<asrwt>0</asrwt>
<pdfrwt beam="2">  1        2 0.30184724E+00 0.24480740E+04</pdfrwt>
<pdfrwt beam="1">  1       -2 0.11748304E+00 0.24480740E+04</pdfrwt>
<totfact> 0.35158160E+00</totfact>
</mgrwt>
</event>
<event>
 4    1  0.1323225E-008  0.2077668E+04  0.7816531E-02  0.8571145E-01
          2   -1    0    0  501    0  0.00000000000E+00  0.00000000000E+00  0.14199265312E+04  0.14199265312E+04  0.00000000000E+00 0.  1.
         -2   -1    0    0    0  501 -0.00000000000E+00 -0.00000000000E+00 -0.76002238316E+03  0.76002238316E+03  0.00000000000E+00 0. -1.
    2000013    1    1    2    0    0 -0.27767751974E+03 -0.24300010894E+03  0.54116286409E+03  0.11539112199E+04  0.95000000000E+03 0.  0.
   -2000013    1    1    2    0    0  0.27767751974E+03  0.24300010894E+03  0.11874128393E+03  0.10260376944E+04  0.95000000000E+03 0.  0.
<mgrwt>
<rscale>  0 0.20776679E+04</rscale>
<asrwt>0</asrwt>
<pdfrwt beam="1">  1        2 0.21845024E+00 0.20776679E+04</pdfrwt>
<pdfrwt beam="2">  1       -2 0.11692652E+00 0.20776679E+04</pdfrwt>
<totfact> 0.73688784E+00</totfact>
</mgrwt>
</event>
<event>
 4    1  0.1323225E-008  0.2553144E+04  0.7816531E-02  0.8384293E-01
         -2   -1    0    0    0  501 -0.00000000000E+00  0.00000000000E+00  0.47260957891E+03  0.47260957891E+03  0.00000000000E+00 0. -1.
          2   -1    0    0  501    0  0.00000000000E+00 -0.00000000000E+00 -0.34481667369E+04  0.34481667369E+04  0.00000000000E+00 0.  1.
    2000013    1    1    2    0    0  0.12891144430E+03  0.45642668436E+03 -0.39952006344E+03  0.11344865622E+04  0.95000000000E+03 0.  0.
   -2000013    1    1    2    0    0 -0.12891144430E+03 -0.45642668436E+03 -0.25760370945E+04  0.27862897536E+04  0.95000000000E+03 0.  0.
<mgrwt>
<rscale>  0 0.25531444E+04</rscale>
<asrwt>0</asrwt>
<pdfrwt beam="2">  1        2 0.53048718E+00 0.25531444E+04</pdfrwt>
<pdfrwt beam="1">  1       -2 0.72709168E-01 0.25531444E+04</pdfrwt>
<totfact> 0.13427192E+00</totfact>
</mgrwt>
</event>
<event>
 4    1  0.1323225E-008  0.2281980E+04  0.7816531E-02  0.8485060E-01
          2   -1    0    0  501    0  0.00000000000E+00  0.00000000000E+00  0.25934129007E+04  0.25934129007E+04  0.00000000000E+00 0.  1.
         -2   -1    0    0    0  501 -0.00000000000E+00 -0.00000000000E+00 -0.50198651195E+03  0.50198651195E+03  0.00000000000E+00 0. -1.
    2000013    1    1    2    0    0 -0.47663775557E+03  0.37458594317E+03  0.12878320026E+04  0.17112888260E+04  0.95000000000E+03 0.  0.
   -2000013    1    1    2    0    0  0.47663775557E+03 -0.37458594317E+03  0.80359438615E+03  0.13841105867E+04  0.95000000000E+03 0.  0.
<mgrwt>
<rscale>  0 0.22819801E+04</rscale>
<asrwt>0</asrwt>
<pdfrwt beam="1">  1        2 0.39898659E+00 0.22819801E+04</pdfrwt>
<pdfrwt beam="2">  1       -2 0.77228696E-01 0.22819801E+04</pdfrwt>
<totfact> 0.41709936E+00</totfact>
</mgrwt>
</event>
<event>
 4    1  0.1323225E-008  0.3262058E+04  0.7816531E-02  0.8172617E-01
         -2   -1    0    0    0  501 -0.00000000000E+00  0.00000000000E+00  0.15813508987E+04  0.15813508987E+04  0.00000000000E+00 0. -1.
          2   -1    0    0  501    0  0.00000000000E+00 -0.00000000000E+00 -0.16822679266E+04  0.16822679266E+04  0.00000000000E+00 0.  1.
    2000013    1    1    2    0    0  0.10831171317E+04  0.18779243117E+03 -0.79199269751E+03  0.16547389979E+04  0.95000000000E+03 0.  0.
   -2000013    1    1    2    0    0 -0.10831171317E+04 -0.18779243117E+03  0.69107566958E+03  0.16088798275E+04  0.95000000000E+03 0.  0.
<mgrwt>
<rscale>  0 0.32620582E+04</rscale>
<asrwt>0</asrwt>
<pdfrwt beam="2">  1        2 0.25881045E+00 0.32620582E+04</pdfrwt>
<pdfrwt beam="1">  1       -2 0.24328475E+00 0.32620582E+04</pdfrwt>
<totfact> 0.59418094E-01</totfact>
</mgrwt>
</event>
<event>
 4    1  0.1323225E-008  0.2538889E+04  0.7816531E-02  0.8389261E-01
         -1   -1    0    0    0  501 -0.00000000000E+00  0.00000000000E+00  0.11258800204E+04  0.11258800204E+04  0.00000000000E+00 0.  1.
          1   -1    0    0  501    0  0.00000000000E+00 -0.00000000000E+00 -0.14313154106E+04  0.14313154106E+04  0.00000000000E+00 0. -1.
    2000013    1    1    2    0    0  0.11605356935E+02 -0.83642265692E+03 -0.24959792341E+03  0.12901692403E+04  0.95000000000E+03 0.  0.
   -2000013    1    1    2    0    0 -0.11605356935E+02  0.83642265692E+03 -0.55837466809E+02  0.12670261907E+04  0.95000000000E+03 0.  0.
<mgrwt>
<rscale>  0 0.25388891E+04</rscale>
<asrwt>0</asrwt>
<pdfrwt beam="2">  1        1 0.22020237E+00 0.25388891E+04</pdfrwt>
<pdfrwt beam="1">  1       -1 0.17321231E+00 0.25388891E+04</pdfrwt>
<totfact> 0.15074301E+00</totfact>
</mgrwt>
</event>
<event>
 4    1  0.1323225E-008  0.2870369E+04  0.7816531E-02  0.8281749E-01
          2   -1    0    0  501    0  0.00000000000E+00  0.00000000000E+00  0.79549094772E+03  0.79549094772E+03  0.00000000000E+00 0.  1.
         -2   -1    0    0    0  501 -0.00000000000E+00 -0.00000000000E+00 -0.25892869737E+04  0.25892869737E+04  0.00000000000E+00 0. -1.
    2000013    1    1    2    0    0  0.58231744023E+03 -0.86418551748E+03 -0.58192625124E+03  0.15254666079E+04  0.95000000000E+03 0.  0.
   -2000013    1    1    2    0    0 -0.58231744023E+03  0.86418551748E+03 -0.12118697748E+04  0.18593113136E+04  0.95000000000E+03 0.  0.
<mgrwt>
<rscale>  0 0.28703689E+04</rscale>
<asrwt>0</asrwt>
<pdfrwt beam="1">  1        2 0.12238322E+00 0.28703689E+04</pdfrwt>
<pdfrwt beam="2">  1       -2 0.39835184E+00 0.28703689E+04</pdfrwt>
<totfact> 0.22835039E-01</totfact>
</mgrwt>
</event>
<event>
 4    1  0.1323225E-008  0.2035606E+04  0.7816531E-02  0.8590152E-01
         -2   -1    0    0    0  501 -0.00000000000E+00  0.00000000000E+00  0.26952604186E+03  0.26952604186E+03  0.00000000000E+00 0. -1.
          2   -1    0    0  501    0  0.00000000000E+00 -0.00000000000E+00 -0.38434999333E+04  0.38434999333E+04  0.00000000000E+00 0.  1.
    2000013    1    1    2    0    0  0.22526044395E+03  0.20739353887E+03 -0.21894195394E+04  0.24062028732E+04  0.95000000000E+03 0.  0.
   -2000013    1    1    2    0    0 -0.22526044395E+03 -0.20739353887E+03 -0.13845543520E+04  0.17068231019E+04  0.95000000000E+03 0.  0.
<mgrwt>
<rscale>  0 0.20356064E+04</rscale>
<asrwt>0</asrwt>
<pdfrwt beam="2">  1        2 0.59130761E+00 0.20356064E+04</pdfrwt>
<pdfrwt beam="1">  1       -2 0.41465550E-01 0.20356064E+04</pdfrwt>
<totfact> 0.23410762E+00</totfact>
</mgrwt>
</event>
<event>
 4    1  0.1323225E-008  0.3034282E+04  0.7816531E-02  0.8234009E-01
          2   -1    0    0  501    0  0.00000000000E+00  0.00000000000E+00  0.33922566693E+04  0.33922566693E+04  0.00000000000E+00 0.  1.
         -2   -1    0    0    0  501 -0.00000000000E+00 -0.00000000000E+00 -0.67852096342E+03  0.67852096342E+03  0.00000000000E+00 0. -1.
    2000013    1    1    2    0    0 -0.27993481030E+03 -0.99322234553E+03  0.21326335865E+04  0.25525438566E+04  0.95000000000E+03 0.  0.
   -2000013    1    1    2    0    0  0.27993481030E+03  0.99322234553E+03  0.58110211933E+03  0.15182337761E+04  0.95000000000E+03 0.  0.
<mgrwt>
<rscale>  0 0.30342823E+04</rscale>
<asrwt>0</asrwt>
<pdfrwt beam="1">  1        2 0.52188563E+00 0.30342823E+04</pdfrwt>
<pdfrwt beam="2">  1       -2 0.10438784E+00 0.30342823E+04</pdfrwt>
<totfact> 0.61359887E-01</totfact>
</mgrwt>
</event>
<event>
 4    1  0.1323225E-008  0.2686700E+04  0.7816531E-02  0.8339333E-01
          2   -1    0    0  501    0  0.00000000000E+00  0.00000000000E+00  0.22992961369E+04  0.22992961369E+04  0.00000000000E+00 0.  1.
         -2   -1    0    0    0  501 -0.00000000000E+00 -0.00000000000E+00 -0.78484443626E+03  0.78484443626E+03  0.00000000000E+00 0. -1.
    2000013    1    1    2    0    0 -0.52885101200E+03  0.68359851582E+03  0.12093108116E+04  0.17640643307E+04  0.95000000000E+03 0.  0.
   -2000013    1    1    2    0    0  0.52885101200E+03 -0.68359851582E+03  0.30514088899E+03  0.13200762424E+04  0.95000000000E+03 0.  0.
<mgrwt>
<rscale>  0 0.26867004E+04</rscale>
<asrwt>0</asrwt>
<pdfrwt beam="1">  1        2 0.35373786E+00 0.26867004E+04</pdfrwt>
<pdfrwt beam="2">  1       -2 0.12074530E+00 0.26867004E+04</pdfrwt>
<totfact> 0.20835476E+00</totfact>
</mgrwt>
</event>
<event>
 4    1  0.1323225E-008  0.2427011E+04  0.7816531E-02  0.8429460E-01
         -2   -1    0    0    0  501 -0.00000000000E+00  0.00000000000E+00  0.81815476732E+03  0.81815476732E+03  0.00000000000E+00 0. -1.
          2   -1    0    0  501    0  0.00000000000E+00 -0.00000000000E+00 -0.17998985289E+04  0.17998985289E+04  0.00000000000E+00 0.  1.
    2000013    1    1    2    0    0  0.65925550294E+03  0.20367643329E+03 -0.16015526766E+03  0.11850112309E+04  0.95000000000E+03 0.  0.
   -2000013    1    1    2    0    0 -0.65925550294E+03 -0.20367643329E+03 -0.82158849396E+03  0.14330420653E+04  0.95000000000E+03 0.  0.
<mgrwt>
<rscale>  0 0.24270110E+04</rscale>
<asrwt>0</asrwt>
<pdfrwt beam="2">  1        2 0.27690746E+00 0.24270110E+04</pdfrwt>
<pdfrwt beam="1">  1       -2 0.12586997E+00 0.24270110E+04</pdfrwt>
<totfact> 0.36488570E+00</totfact>
</mgrwt>
</event>
<event>
 4    1  0.1323225E-008  0.2365536E+04  0.7816531E-02  0.8452520E-01
         -2   -1    0    0    0  501 -0.00000000000E+00  0.00000000000E+00  0.32828622352E+03  0.32828622352E+03  0.00000000000E+00 0. -1.
          2   -1    0    0  501    0  0.00000000000E+00 -0.00000000000E+00 -0.42613444697E+04  0.42613444697E+04  0.00000000000E+00 0.  1.
    2000013    1    1    2    0    0 -0.23345689110E+02  0.65595210996E+03 -0.24635497955E+04  0.27207344204E+04  0.95000000000E+03 0.  0.
   -2000013    1    1    2    0    0  0.23345689110E+02 -0.65595210996E+03 -0.14695084507E+04  0.18688962728E+04  0.95000000000E+03 0.  0.
<mgrwt>
<rscale>  0 0.23655365E+04</rscale>
<asrwt>0</asrwt>
<pdfrwt beam="2">  1        2 0.65559145E+00 0.23655365E+04</pdfrwt>
<pdfrwt beam="1">  1       -2 0.50505574E-01 0.23655365E+04</pdfrwt>
<totfact> 0.69126500E-01</totfact>
</mgrwt>
</event>
<event>
 4    1  0.1323225E-008  0.2803896E+04  0.7816531E-02  0.8302060E-01
          2   -1    0    0  501    0  0.00000000000E+00  0.00000000000E+00  0.18643482374E+04  0.18643482374E+04  0.00000000000E+00 0.  1.
         -2   -1    0    0    0  501 -0.00000000000E+00 -0.00000000000E+00 -0.10542335634E+04  0.10542335634E+04  0.00000000000E+00 0. -1.
    2000013    1    1    2    0    0  0.95109255161E+03 -0.39761505695E+03  0.38752468527E+03  0.14544243387E+04  0.95000000000E+03 0.  0.
   -2000013    1    1    2    0    0 -0.95109255161E+03  0.39761505695E+03  0.42258998869E+03  0.14641574621E+04  0.95000000000E+03 0.  0.
<mgrwt>
<rscale>  0 0.28038962E+04</rscale>
<asrwt>0</asrwt>
<pdfrwt beam="1">  1        2 0.28682280E+00 0.28038962E+04</pdfrwt>
<pdfrwt beam="2">  1       -2 0.16218978E+00 0.28038962E+04</pdfrwt>
<totfact> 0.16781397E+00</totfact>
</mgrwt>
</event>
<event>
 4    1  0.1323225E-008  0.2272423E+04  0.7816531E-02  0.8488874E-01
          2   -1    0    0  501    0  0.00000000000E+00  0.00000000000E+00  0.14710497182E+04  0.14710497182E+04  0.00000000000E+00 0.  1.
         -2   -1    0    0    0  501 -0.00000000000E+00 -0.00000000000E+00 -0.87758883214E+03  0.87758883214E+03  0.00000000000E+00 0. -1.
    2000013    1    1    2    0    0 -0.34720160822E+03 -0.43544109317E+03  0.74891698002E+01  0.11012329409E+04  0.95000000000E+03 0.  0.
   -2000013    1    1    2    0    0  0.34720160822E+03  0.43544109317E+03  0.58597171629E+03  0.12474056095E+04  0.95000000000E+03 0.  0.
<mgrwt>
<rscale>  0 0.22724232E+04</rscale>
<asrwt>0</asrwt>
<pdfrwt beam="1">  1        2 0.22631534E+00 0.22724232E+04</pdfrwt>
<pdfrwt beam="2">  1       -2 0.13501367E+00 0.22724232E+04</pdfrwt>
<totfact> 0.47251089E+00</totfact>
</mgrwt>
</event>
<event>
 4    1  0.1323225E-008  0.3902583E+04  0.7816531E-02  0.8024492E-01
          2   -1    0    0  501    0  0.00000000000E+00  0.00000000000E+00  0.22009710768E+04  0.22009710768E+04  0.00000000000E+00 0.  1.
         -2   -1    0    0    0  501 -0.00000000000E+00 -0.00000000000E+00 -0.17299357199E+04  0.17299357199E+04  0.00000000000E+00 0. -1.
    2000013    1    1    2    0    0 -0.77130315846E+02  0.16744942691E+04 -0.75198617828E+02  0.19282206759E+04  0.95000000000E+03 0.  0.
   -2000013    1    1    2    0    0  0.77130315846E+02 -0.16744942691E+04  0.54623397478E+03  0.20026861207E+04  0.95000000000E+03 0.  0.
<mgrwt>
<rscale>  0 0.39025830E+04</rscale>
<asrwt>0</asrwt>
<pdfrwt beam="1">  1        2 0.33861094E+00 0.39025830E+04</pdfrwt>
<pdfrwt beam="2">  1       -2 0.26614396E+00 0.39025830E+04</pdfrwt>
<totfact> 0.20984261E-01</totfact>
</mgrwt>
</event>
<event>
 4    1  0.1323225E-008  0.2752767E+04  0.7816531E-02  0.8318084E-01
          1   -1    0    0  501    0  0.00000000000E+00  0.00000000000E+00  0.16062774496E+04  0.16062774496E+04  0.00000000000E+00 0.  1.
         -1   -1    0    0    0  501 -0.00000000000E+00 -0.00000000000E+00 -0.11793922339E+04  0.11793922339E+04  0.00000000000E+00 0. -1.
    2000013    1    1    2    0    0  0.98721905153E+03 -0.12199870821E+03  0.16339431802E+03  0.13851652767E+04  0.95000000000E+03 0.  0.
   -2000013    1    1    2    0    0 -0.98721905153E+03  0.12199870821E+03  0.26349089773E+03  0.14005044069E+04  0.95000000000E+03 0.  0.
<mgrwt>
<rscale>  0 0.27527667E+04</rscale>
<asrwt>0</asrwt>
<pdfrwt beam="1">  1        1 0.24711961E+00 0.27527667E+04</pdfrwt>
<pdfrwt beam="2">  1       -1 0.18144496E+00 0.27527667E+04</pdfrwt>
<totfact> 0.97590342E-01</totfact>
</mgrwt>
</event>
<event>
 4    1  0.1323225E-008  0.2081306E+04  0.7816531E-02  0.8569523E-01
          1   -1    0    0  501    0  0.00000000000E+00  0.00000000000E+00  0.14976206234E+04  0.14976206234E+04  0.00000000000E+00 0.  1.
         -1   -1    0    0    0  501 -0.00000000000E+00 -0.00000000000E+00 -0.72311926735E+03  0.72311926735E+03  0.00000000000E+00 0. -1.
    2000013    1    1    2    0    0 -0.21441431271E+03 -0.35552253380E+03  0.48321225771E+03  0.11438373379E+04  0.95000000000E+03 0.  0.
   -2000013    1    1    2    0    0  0.21441431271E+03  0.35552253380E+03  0.29128909834E+03  0.10769025529E+04  0.95000000000E+03 0.  0.
<mgrwt>
<rscale>  0 0.20813057E+04</rscale>
<asrwt>0</asrwt>
<pdfrwt beam="1">  1        1 0.23040317E+00 0.20813057E+04</pdfrwt>
<pdfrwt beam="2">  1       -1 0.11124912E+00 0.20813057E+04</pdfrwt>
<totfact> 0.44943063E+00</totfact>
</mgrwt>
</event>
<event>
 4    1  0.1323225E-008  0.2088631E+04  0.7816531E-02  0.8566268E-01
         -2   -1    0    0    0  501 -0.00000000000E+00  0.00000000000E+00  0.67635028308E+03  0.67635028308E+03  0.00000000000E+00 0. -1.
          2   -1    0    0  501    0  0.00000000000E+00 -0.00000000000E+00 -0.16124712401E+04  0.16124712401E+04  0.00000000000E+00 0.  1.
    2000013    1    1    2    0    0  0.26771488287E+03  0.35660197396E+02 -0.96194250846E+02  0.99231861924E+03  0.95000000000E+03 0.  0.
   -2000013    1    1    2    0    0 -0.26771488287E+03 -0.35660197396E+02 -0.83992670617E+03  0.12965029039E+04  0.95000000000E+03 0.  0.
<mgrwt>
<rscale>  0 0.20886315E+04</rscale>
<asrwt>0</asrwt>
<pdfrwt beam="2">  1        2 0.24807250E+00 0.20886315E+04</pdfrwt>
<pdfrwt beam="1">  1       -2 0.10405389E+00 0.20886315E+04</pdfrwt>
<totfact> 0.76050412E+00</totfact>
</mgrwt>
</event>
<event>
 4    1  0.1323225E-008  0.2144237E+04  0.7816531E-02  0.8542003E-01
         -2   -1    0    0    0  501 -0.00000000000E+00  0.00000000000E+00  0.85374055665E+03  0.85374055665E+03  0.00000000000E+00 0. -1.
          2   -1    0    0  501    0  0.00000000000E+00 -0.00000000000E+00 -0.13463555269E+04  0.13463555269E+04  0.00000000000E+00 0.  1.
    2000013    1    1    2    0    0  0.48346235562E+03 -0.10097000910E+03 -0.19003793577E+03  0.10874489455E+04  0.95000000000E+03 0.  0.
   -2000013    1    1    2    0    0 -0.48346235562E+03  0.10097000910E+03 -0.30257703450E+03  0.11126471381E+04  0.95000000000E+03 0.  0.
<mgrwt>
<rscale>  0 0.21442372E+04</rscale>
<asrwt>0</asrwt>
<pdfrwt beam="2">  1        2 0.20713162E+00 0.21442372E+04</pdfrwt>
<pdfrwt beam="1">  1       -2 0.13134470E+00 0.21442372E+04</pdfrwt>
<totfact> 0.60373672E+00</totfact>
</mgrwt>
</event>
<event>
 4    1  0.1323225E-008  0.2764016E+04  0.7816531E-02  0.8314528E-01
          2   -1    0    0  501    0  0.00000000000E+00  0.00000000000E+00  0.33649042153E+04  0.33649042153E+04  0.00000000000E+00 0. -1.
         -2   -1    0    0    0  501 -0.00000000000E+00 -0.00000000000E+00 -0.56760771079E+03  0.56760771079E+03  0.00000000000E+00 0.  1.
    2000013    1    1    2    0    0 -0.48807618514E+03  0.60588310358E+03  0.23008721970E+04  0.26080309746E+04  0.95000000000E+03 0.  0.
   -2000013    1    1    2    0    0  0.48807618514E+03 -0.60588310358E+03  0.49642430752E+03  0.13244809515E+04  0.95000000000E+03 0.  0.
<mgrwt>
<rscale>  0 0.27640156E+04</rscale>
<asrwt>0</asrwt>
<pdfrwt beam="1">  1        2 0.51767756E+00 0.27640156E+04</pdfrwt>
<pdfrwt beam="2">  1       -2 0.87324265E-01 0.27640156E+04</pdfrwt>
<totfact> 0.99569043E-01</totfact>
</mgrwt>
</event>
<event>
 4    1  0.1323225E-008  0.2156964E+04  0.7816531E-02  0.8536557E-01
         -2   -1    0    0    0  501 -0.00000000000E+00  0.00000000000E+00  0.18011394810E+04  0.18011394810E+04  0.00000000000E+00 0. -1.
          2   -1    0    0  501    0  0.00000000000E+00 -0.00000000000E+00 -0.64577106477E+03  0.64577106477E+03  0.00000000000E+00 0.  1.
    2000013    1    1    2    0    0 -0.33052242515E+03  0.38621409650E+03  0.63110288143E+03  0.12486782007E+04  0.95000000000E+03 0.  0.
   -2000013    1    1    2    0    0  0.33052242515E+03 -0.38621409650E+03  0.52426553477E+03  0.11982323451E+04  0.95000000000E+03 0.  0.
<mgrwt>
<rscale>  0 0.21569643E+04</rscale>
<asrwt>0</asrwt>
<pdfrwt beam="2">  1        2 0.99349396E-01 0.21569643E+04</pdfrwt>
<pdfrwt beam="1">  1       -2 0.27709838E+00 0.21569643E+04</pdfrwt>
<totfact> 0.18241354E+00</totfact>
</mgrwt>
</event>
<event>
 4    1  0.1323225E-008  0.2140142E+04  0.7816531E-02  0.8543764E-01
          2   -1    0    0  501    0  0.00000000000E+00  0.00000000000E+00  0.93501195485E+03  0.93501195485E+03  0.00000000000E+00 0.  1.
         -2   -1    0    0    0  501 -0.00000000000E+00 -0.00000000000E+00 -0.12246389763E+04  0.12246389763E+04  0.00000000000E+00 0. -1.
    2000013    1    1    2    0    0 -0.45390687545E+03  0.12049339155E+02  0.47648537170E+02  0.10540147159E+04  0.95000000000E+03 0.  0.
   -2000013    1    1    2    0    0  0.45390687545E+03 -0.12049339155E+02 -0.33727555865E+03  0.11056362153E+04  0.95000000000E+03 0.  0.
<mgrwt>
<rscale>  0 0.21401421E+04</rscale>
<asrwt>0</asrwt>
<pdfrwt beam="1">  1        2 0.14384799E+00 0.21401421E+04</pdfrwt>
<pdfrwt beam="2">  1       -2 0.18840600E+00 0.21401421E+04</pdfrwt>
<totfact> 0.40524228E+00</totfact>
</mgrwt>
</event>
<event>
 4    1  0.1323225E-008  0.2112281E+04  0.7816531E-02  0.8555853E-01
         -2   -1    0    0    0  501 -0.00000000000E+00  0.00000000000E+00  0.15594596781E+04  0.15594596781E+04  0.00000000000E+00 0. -1.
          2   -1    0    0  501    0  0.00000000000E+00 -0.00000000000E+00 -0.71526895205E+03  0.71526895205E+03  0.00000000000E+00 0.  1.
    2000013    1    1    2    0    0 -0.30409960162E+03  0.34331752604E+03  0.36729366200E+03  0.11170264659E+04  0.95000000000E+03 0.  0.
   -2000013    1    1    2    0    0  0.30409960162E+03 -0.34331752604E+03  0.47689706403E+03  0.11577021642E+04  0.95000000000E+03 0.  0.
<mgrwt>
<rscale>  0 0.21122813E+04</rscale>
<asrwt>0</asrwt>
<pdfrwt beam="2">  1        2 0.11004138E+00 0.21122813E+04</pdfrwt>
<pdfrwt beam="1">  1       -2 0.23991687E+00 0.21122813E+04</pdfrwt>
<totfact> 0.27208311E+00</totfact>
</mgrwt>
</event>
<event>
 4    1  0.1323225E-008  0.2081058E+04  0.7816531E-02  0.8569634E-01
         -4   -1    0    0    0  501 -0.00000000000E+00  0.00000000000E+00  0.23493930240E+04  0.23493930240E+04  0.00000000000E+00 0. -1.
          4   -1    0    0  501    0  0.00000000000E+00 -0.00000000000E+00 -0.46084269427E+03  0.46084269427E+03  0.00000000000E+00 0.  1.
    2000013    1    1    2    0    0 -0.31127298633E+03  0.28121590349E+03  0.10320748392E+04  0.14641214875E+04  0.95000000000E+03 0.  0.
   -2000013    1    1    2    0    0  0.31127298633E+03 -0.28121590349E+03  0.85647549047E+03  0.13461142307E+04  0.95000000000E+03 0.  0.
<mgrwt>
<rscale>  0 0.20810580E+04</rscale>
<asrwt>0</asrwt>
<pdfrwt beam="2">  1        4 0.70898877E-01 0.20810580E+04</pdfrwt>
<pdfrwt beam="1">  1       -4 0.36144508E+00 0.20810580E+04</pdfrwt>
<totfact> 0.42008698E-02</totfact>
</mgrwt>
</event>
<event>
 4    1  0.1323225E-008  0.2163966E+04  0.7816531E-02  0.8533578E-01
         -2   -1    0    0    0  501 -0.00000000000E+00  0.00000000000E+00  0.30860479989E+03  0.30860479989E+03  0.00000000000E+00 0. -1.
          2   -1    0    0  501    0  0.00000000000E+00 -0.00000000000E+00 -0.37934844940E+04  0.37934844940E+04  0.00000000000E+00 0.  1.
    2000013    1    1    2    0    0  0.29813583483E+03 -0.34024871520E+03 -0.12646295249E+04  0.16451267427E+04  0.95000000000E+03 0.  0.
   -2000013    1    1    2    0    0 -0.29813583483E+03  0.34024871520E+03 -0.22202501692E+04  0.24569625512E+04  0.95000000000E+03 0.  0.
<mgrwt>
<rscale>  0 0.21639663E+04</rscale>
<asrwt>0</asrwt>
<pdfrwt beam="2">  1        2 0.58361303E+00 0.21639663E+04</pdfrwt>
<pdfrwt beam="1">  1       -2 0.47477659E-01 0.21639663E+04</pdfrwt>
<totfact> 0.19260643E+00</totfact>
</mgrwt>
</event>
<event>
 4    1  0.1323225E-008  0.2789149E+04  0.7816531E-02  0.8306645E-01
         -2   -1    0    0    0  501 -0.00000000000E+00  0.00000000000E+00  0.11876512412E+04  0.11876512412E+04  0.00000000000E+00 0. -1.
          2   -1    0    0  501    0  0.00000000000E+00 -0.00000000000E+00 -0.16375501152E+04  0.16375501152E+04  0.00000000000E+00 0.  1.
    2000013    1    1    2    0    0 -0.95025661158E+03  0.82036159615E+02  0.14392926348E+03  0.13538586308E+04  0.95000000000E+03 0.  0.
   -2000013    1    1    2    0    0  0.95025661158E+03 -0.82036159615E+02 -0.59382813740E+03  0.14713427256E+04  0.95000000000E+03 0.  0.
<mgrwt>
<rscale>  0 0.27891493E+04</rscale>
<asrwt>0</asrwt>
<pdfrwt beam="2">  1        2 0.25193079E+00 0.27891493E+04</pdfrwt>
<pdfrwt beam="1">  1       -2 0.18271558E+00 0.27891493E+04</pdfrwt>
<totfact> 0.16075355E+00</totfact>
</mgrwt>
</event>
<event>
 4    1  0.1323225E-008  0.2189842E+04  0.7816531E-02  0.8522668E-01
          1   -1    0    0  501    0  0.00000000000E+00  0.00000000000E+00  0.23451381102E+04  0.23451381102E+04  0.00000000000E+00 0.  1.
         -1   -1    0    0    0  501 -0.00000000000E+00 -0.00000000000E+00 -0.51120758779E+03  0.51120758779E+03  0.00000000000E+00 0. -1.
    2000013    1    1    2    0    0  0.25376640051E+03  0.77082300614E+02  0.15370698439E+04  0.18263139851E+04  0.95000000000E+03 0.  0.
   -2000013    1    1    2    0    0 -0.25376640051E+03 -0.77082300614E+02  0.29686067848E+03  0.10300317129E+04  0.95000000000E+03 0.  0.
<mgrwt>
<rscale>  0 0.21898424E+04</rscale>
<asrwt>0</asrwt>
<pdfrwt beam="1">  1        1 0.36079047E+00 0.21898424E+04</pdfrwt>
<pdfrwt beam="2">  1       -1 0.78647323E-01 0.21898424E+04</pdfrwt>
<totfact> 0.25578346E+00</totfact>
</mgrwt>
</event>
<event>
 4    1  0.1323225E-008  0.2679728E+04  0.7816531E-02  0.8341613E-01
          2   -1    0    0  501    0  0.00000000000E+00  0.00000000000E+00  0.10032131815E+04  0.10032131815E+04  0.00000000000E+00 0.  1.
         -2   -1    0    0    0  501 -0.00000000000E+00 -0.00000000000E+00 -0.17894853681E+04  0.17894853681E+04  0.00000000000E+00 0. -1.
    2000013    1    1    2    0    0  0.91153847745E+03  0.24353890178E+03 -0.34080238238E+03  0.13816149450E+04  0.95000000000E+03 0.  0.
   -2000013    1    1    2    0    0 -0.91153847745E+03 -0.24353890178E+03 -0.44546980424E+03  0.14110836046E+04  0.95000000000E+03 0.  0.
<mgrwt>
<rscale>  0 0.26797278E+04</rscale>
<asrwt>0</asrwt>
<pdfrwt beam="1">  1        2 0.15434049E+00 0.26797278E+04</pdfrwt>
<pdfrwt beam="2">  1       -2 0.27530544E+00 0.26797278E+04</pdfrwt>
<totfact> 0.99092612E-01</totfact>
</mgrwt>
</event>
<event>
 4    1  0.1323225E-008  0.2232853E+04  0.7816531E-02  0.8504877E-01
         -2   -1    0    0    0  501 -0.00000000000E+00  0.00000000000E+00  0.10185008106E+04  0.10185008106E+04  0.00000000000E+00 0. -1.
          2   -1    0    0  501    0  0.00000000000E+00 -0.00000000000E+00 -0.12237670560E+04  0.12237670560E+04  0.00000000000E+00 0.  1.
    2000013    1    1    2    0    0 -0.25415868694E+03  0.10349428360E+02 -0.63325877214E+03  0.11697095457E+04  0.95000000000E+03 0.  0.
   -2000013    1    1    2    0    0  0.25415868694E+03 -0.10349428360E+02  0.42799252671E+03  0.10725583209E+04  0.95000000000E+03 0.  0.
<mgrwt>
<rscale>  0 0.22328526E+04</rscale>
<asrwt>0</asrwt>
<pdfrwt beam="2">  1        2 0.18827185E+00 0.22328526E+04</pdfrwt>
<pdfrwt beam="1">  1       -2 0.15669243E+00 0.22328526E+04</pdfrwt>
<totfact> 0.44555513E+00</totfact>
</mgrwt>
</event>
<event>
 4    1  0.1323225E-008  0.2205438E+04  0.7816531E-02  0.8516168E-01
         -2   -1    0    0    0  501 -0.00000000000E+00  0.00000000000E+00  0.43246416034E+03  0.43246416034E+03  0.00000000000E+00 0. -1.
          2   -1    0    0  501    0  0.00000000000E+00 -0.00000000000E+00 -0.28117688273E+04  0.28117688273E+04  0.00000000000E+00 0.  1.
    2000013    1    1    2    0    0 -0.46422133368E+03  0.28518353230E+03 -0.99979360243E+03  0.14828750255E+04  0.95000000000E+03 0.  0.
   -2000013    1    1    2    0    0  0.46422133368E+03 -0.28518353230E+03 -0.13795110646E+04  0.17613579622E+04  0.95000000000E+03 0.  0.
<mgrwt>
<rscale>  0 0.22054380E+04</rscale>
<asrwt>0</asrwt>
<pdfrwt beam="2">  1        2 0.43257983E+00 0.22054380E+04</pdfrwt>
<pdfrwt beam="1">  1       -2 0.66532946E-01 0.22054380E+04</pdfrwt>
<totfact> 0.43174783E+00</totfact>
</mgrwt>
</event>
<event>
 4    1  0.1323225E-008  0.2893067E+04  0.7816531E-02  0.8274943E-01
          2   -1    0    0  501    0  0.00000000000E+00  0.00000000000E+00  0.30958732248E+04  0.30958732248E+04  0.00000000000E+00 0.  1.
         -2   -1    0    0    0  501 -0.00000000000E+00 -0.00000000000E+00 -0.67588665476E+03  0.67588665476E+03  0.00000000000E+00 0. -1.
    2000013    1    1    2    0    0 -0.18934011044E+03 -0.70006742824E+03  0.14762629078E+03  0.12042581132E+04  0.95000000000E+03 0.  0.
   -2000013    1    1    2    0    0  0.18934011044E+03  0.70006742824E+03  0.22723602793E+04  0.25675017664E+04  0.95000000000E+03 0.  0.
<mgrwt>
<rscale>  0 0.28930672E+04</rscale>
<asrwt>0</asrwt>
<pdfrwt beam="1">  1        2 0.47628818E+00 0.28930672E+04</pdfrwt>
<pdfrwt beam="2">  1       -2 0.10398256E+00 0.28930672E+04</pdfrwt>
<totfact> 0.98327338E-01</totfact>
</mgrwt>
</event>
<event>
 4    1  0.1323225E-008  0.3691928E+04  0.7816531E-02  0.8069753E-01
         -2   -1    0    0    0  501 -0.00000000000E+00  0.00000000000E+00  0.83615115603E+03  0.83615115603E+03  0.00000000000E+00 0. -1.
          2   -1    0    0  501    0  0.00000000000E+00 -0.00000000000E+00 -0.40753188056E+04  0.40753188056E+04  0.00000000000E+00 0.  1.
    2000013    1    1    2    0    0 -0.40442007468E+03  0.14604870738E+04 -0.22270414107E+04  0.28563598398E+04  0.95000000000E+03 0.  0.
   -2000013    1    1    2    0    0  0.40442007468E+03 -0.14604870738E+04 -0.10121262389E+04  0.20551101218E+04  0.95000000000E+03 0.  0.
<mgrwt>
<rscale>  0 0.36919277E+04</rscale>
<asrwt>0</asrwt>
<pdfrwt beam="2">  1        2 0.62697212E+00 0.36919277E+04</pdfrwt>
<pdfrwt beam="1">  1       -2 0.12863864E+00 0.36919277E+04</pdfrwt>
<totfact> 0.10669938E-01</totfact>
</mgrwt>
</event>
<event>
 4    1  0.1323225E-008  0.2654303E+04  0.7816531E-02  0.8349986E-01
         -2   -1    0    0    0  501 -0.00000000000E+00  0.00000000000E+00  0.15972048966E+04  0.15972048966E+04  0.00000000000E+00 0. -1.
          2   -1    0    0  501    0  0.00000000000E+00 -0.00000000000E+00 -0.11027581072E+04  0.11027581072E+04  0.00000000000E+00 0.  1.
    2000013    1    1    2    0    0  0.82997215514E+03 -0.35906982580E+03  0.41140775181E+02  0.13122413960E+04  0.95000000000E+03 0.  0.
   -2000013    1    1    2    0    0 -0.82997215514E+03  0.35906982580E+03  0.45330601418E+03  0.13877216077E+04  0.95000000000E+03 0.  0.
<mgrwt>
<rscale>  0 0.26543027E+04</rscale>
<asrwt>0</asrwt>
<pdfrwt beam="2">  1        2 0.16965509E+00 0.26543027E+04</pdfrwt>
<pdfrwt beam="1">  1       -2 0.24572383E+00 0.26543027E+04</pdfrwt>
<totfact> 0.13047641E+00</totfact>
</mgrwt>
</event>
<event>
 4    1  0.1323225E-008  0.2723859E+04  0.7816531E-02  0.8327305E-01
         -2   -1    0    0    0  501 -0.00000000000E+00  0.00000000000E+00  0.81962256176E+03  0.81962256176E+03  0.00000000000E+00 0.  1.
          2   -1    0    0  501    0  0.00000000000E+00 -0.00000000000E+00 -0.22630570352E+04  0.22630570352E+04  0.00000000000E+00 0. -1.
    2000013    1    1    2    0    0  0.20106264288E+03 -0.86870497415E+03 -0.27289145279E+03  0.13311815291E+04  0.95000000000E+03 0.  0.
   -2000013    1    1    2    0    0 -0.20106264288E+03  0.86870497415E+03 -0.11705430207E+04  0.17514980679E+04  0.95000000000E+03 0.  0.
<mgrwt>
<rscale>  0 0.27238595E+04</rscale>
<asrwt>0</asrwt>
<pdfrwt beam="2">  1        2 0.34816262E+00 0.27238595E+04</pdfrwt>
<pdfrwt beam="1">  1       -2 0.12609578E+00 0.27238595E+04</pdfrwt>
<totfact> 0.19537826E+00</totfact>
</mgrwt>
</event>
<event>
 4    1  0.1323225E-008  0.2365964E+04  0.7816531E-02  0.8452357E-01
         -2   -1    0    0    0  501 -0.00000000000E+00  0.00000000000E+00  0.74028697829E+03  0.74028697829E+03  0.00000000000E+00 0. -1.
          2   -1    0    0  501    0  0.00000000000E+00 -0.00000000000E+00 -0.18904099525E+04  0.18904099525E+04  0.00000000000E+00 0.  1.
    2000013    1    1    2    0    0 -0.27528050645E+03 -0.46676320422E+03 -0.10763987562E+04  0.15345297418E+04  0.95000000000E+03 0.  0.
   -2000013    1    1    2    0    0  0.27528050645E+03  0.46676320422E+03 -0.73724218057E+02  0.10961671891E+04  0.95000000000E+03 0.  0.
<mgrwt>
<rscale>  0 0.23659635E+04</rscale>
<asrwt>0</asrwt>
<pdfrwt beam="2">  1        2 0.29083230E+00 0.23659635E+04</pdfrwt>
<pdfrwt beam="1">  1       -2 0.11389030E+00 0.23659635E+04</pdfrwt>
<totfact> 0.41853418E+00</totfact>
</mgrwt>
</event>
<event>
 4    1  0.1323225E-008  0.2564696E+04  0.7816531E-02  0.8380293E-01
         -2   -1    0    0    0  501 -0.00000000000E+00  0.00000000000E+00  0.76948024992E+03  0.76948024992E+03  0.00000000000E+00 0. -1.
          2   -1    0    0  501    0  0.00000000000E+00 -0.00000000000E+00 -0.21370487219E+04  0.21370487219E+04  0.00000000000E+00 0.  1.
    2000013    1    1    2    0    0 -0.69246056142E+03  0.19943326194E+03 -0.12185231609E+04  0.17048677218E+04  0.95000000000E+03 0.  0.
   -2000013    1    1    2    0    0  0.69246056142E+03 -0.19943326194E+03 -0.14904531107E+03  0.12016612500E+04  0.95000000000E+03 0.  0.
<mgrwt>
<rscale>  0 0.25646963E+04</rscale>
<asrwt>0</asrwt>
<pdfrwt beam="2">  1        2 0.32877673E+00 0.25646963E+04</pdfrwt>
<pdfrwt beam="1">  1       -2 0.11838158E+00 0.25646963E+04</pdfrwt>
<totfact> 0.27292233E+00</totfact>
</mgrwt>
</event>
<event>
 4    1  0.1323225E-008  0.2195136E+04  0.7816531E-02  0.8520455E-01
         -2   -1    0    0    0  501 -0.00000000000E+00  0.00000000000E+00  0.94992560535E+03  0.94992560535E+03  0.00000000000E+00 0. -1.
          2   -1    0    0  501    0  0.00000000000E+00 -0.00000000000E+00 -0.12681578185E+04  0.12681578185E+04  0.00000000000E+00 0.  1.
    2000013    1    1    2    0    0 -0.42918321058E+03 -0.11041208307E+03  0.16950129240E+03  0.10618944130E+04  0.95000000000E+03 0.  0.
   -2000013    1    1    2    0    0  0.42918321058E+03  0.11041208307E+03 -0.48773350559E+03  0.11561890109E+04  0.95000000000E+03 0.  0.
<mgrwt>
<rscale>  0 0.21951361E+04</rscale>
<asrwt>0</asrwt>
<pdfrwt beam="2">  1        2 0.19510120E+00 0.21951361E+04</pdfrwt>
<pdfrwt beam="1">  1       -2 0.14614240E+00 0.21951361E+04</pdfrwt>
<totfact> 0.50657734E+00</totfact>
</mgrwt>
</event>
<event>
 4    1  0.1323225E-008  0.3213140E+04  0.7816531E-02  0.8185355E-01
          2   -1    0    0  501    0  0.00000000000E+00  0.00000000000E+00  0.23135779638E+04  0.23135779638E+04  0.00000000000E+00 0.  1.
         -2   -1    0    0    0  501 -0.00000000000E+00 -0.00000000000E+00 -0.11156173456E+04  0.11156173456E+04  0.00000000000E+00 0. -1.
    2000013    1    1    2    0    0  0.12466044336E+04 -0.32931966602E+03  0.46358930432E+03  0.16672999428E+04  0.95000000000E+03 0.  0.
   -2000013    1    1    2    0    0 -0.12466044336E+04  0.32931966602E+03  0.73437131382E+03  0.17618953666E+04  0.95000000000E+03 0.  0.
<mgrwt>
<rscale>  0 0.32131403E+04</rscale>
<asrwt>0</asrwt>
<pdfrwt beam="1">  1        2 0.35593507E+00 0.32131403E+04</pdfrwt>
<pdfrwt beam="2">  1       -2 0.17163344E+00 0.32131403E+04</pdfrwt>
<totfact> 0.77737826E-01</totfact>
</mgrwt>
</event>
<event>
 4    1  0.1323225E-008  0.2638131E+04  0.7816531E-02  0.8355363E-01
         -2   -1    0    0    0  501 -0.00000000000E+00  0.00000000000E+00  0.16169514287E+04  0.16169514287E+04  0.00000000000E+00 0. -1.
          2   -1    0    0  501    0  0.00000000000E+00 -0.00000000000E+00 -0.10760577945E+04  0.10760577945E+04  0.00000000000E+00 0.  1.
    2000013    1    1    2    0    0  0.49938726359E+03 -0.76480144058E+03  0.21338858406E+03  0.13350444076E+04  0.95000000000E+03 0.  0.
   -2000013    1    1    2    0    0 -0.49938726359E+03  0.76480144058E+03  0.32750505019E+03  0.13579648156E+04  0.95000000000E+03 0.  0.
<mgrwt>
<rscale>  0 0.26381305E+04</rscale>
<asrwt>0</asrwt>
<pdfrwt beam="2">  1        2 0.16554735E+00 0.26381305E+04</pdfrwt>
<pdfrwt beam="1">  1       -2 0.24876176E+00 0.26381305E+04</pdfrwt>
<totfact> 0.13000176E+00</totfact>
</mgrwt>
</event>
<event>
 4    1  0.1323225E-008  0.2847863E+04  0.7816531E-02  0.8288561E-01
          2   -1    0    0  501    0  0.00000000000E+00  0.00000000000E+00  0.10947209127E+04  0.10947209127E+04  0.00000000000E+00 0.  1.
         -2   -1    0    0    0  501 -0.00000000000E+00 -0.00000000000E+00 -0.18521440013E+04  0.18521440013E+04  0.00000000000E+00 0. -1.
    2000013    1    1    2    0    0  0.47245286164E+03 -0.94966729363E+03 -0.37979514184E+03  0.14737109706E+04  0.95000000000E+03 0.  0.
   -2000013    1    1    2    0    0 -0.47245286164E+03  0.94966729363E+03 -0.37762794676E+03  0.14731539435E+04  0.95000000000E+03 0.  0.
<mgrwt>
<rscale>  0 0.28478629E+04</rscale>
<asrwt>0</asrwt>
<pdfrwt beam="1">  1        2 0.16841860E+00 0.28478629E+04</pdfrwt>
<pdfrwt beam="2">  1       -2 0.28494523E+00 0.28478629E+04</pdfrwt>
<totfact> 0.74742294E-01</totfact>
</mgrwt>
</event>
<event>
 4    1  0.1323225E-008  0.2586516E+04  0.7816531E-02  0.8372796E-01
         -2   -1    0    0    0  501 -0.00000000000E+00  0.00000000000E+00  0.38901899975E+03  0.38901899975E+03  0.00000000000E+00 0.  1.
          2   -1    0    0  501    0  0.00000000000E+00 -0.00000000000E+00 -0.42993192742E+04  0.42993192742E+04  0.00000000000E+00 0. -1.
    2000013    1    1    2    0    0 -0.62160097425E+03  0.60209515645E+03 -0.22185122570E+04  0.25638258488E+04  0.95000000000E+03 0.  0.
   -2000013    1    1    2    0    0  0.62160097425E+03 -0.60209515645E+03 -0.16917880175E+04  0.21245124252E+04  0.95000000000E+03 0.  0.
<mgrwt>
<rscale>  0 0.25865165E+04</rscale>
<asrwt>0</asrwt>
<pdfrwt beam="2">  1        2 0.66143375E+00 0.25865165E+04</pdfrwt>
<pdfrwt beam="1">  1       -2 0.59849076E-01 0.25865165E+04</pdfrwt>
<totfact> 0.43958616E-01</totfact>
</mgrwt>
</event>
<event>
 4    1  0.1323225E-008  0.2884948E+04  0.7816531E-02  0.8277370E-01
         -2   -1    0    0    0  501 -0.00000000000E+00  0.00000000000E+00  0.74233728615E+03  0.74233728615E+03  0.00000000000E+00 0. -1.
          2   -1    0    0  501    0  0.00000000000E+00 -0.00000000000E+00 -0.28029453239E+04  0.28029453239E+04  0.00000000000E+00 0.  1.
    2000013    1    1    2    0    0 -0.55429515534E+03 -0.73972600719E+03 -0.33103105726E+03  0.13662061506E+04  0.95000000000E+03 0.  0.
   -2000013    1    1    2    0    0  0.55429515534E+03  0.73972600719E+03 -0.17295769805E+04  0.21790764595E+04  0.95000000000E+03 0.  0.
<mgrwt>
<rscale>  0 0.28849477E+04</rscale>
<asrwt>0</asrwt>
<pdfrwt beam="2">  1        2 0.43122236E+00 0.28849477E+04</pdfrwt>
<pdfrwt beam="1">  1       -2 0.11420574E+00 0.28849477E+04</pdfrwt>
<totfact> 0.11929517E+00</totfact>
</mgrwt>
</event>
<event>
 4    1  0.1323225E-008  0.2757191E+04  0.7816531E-02  0.8316683E-01
          2   -1    0    0  501    0  0.00000000000E+00  0.00000000000E+00  0.38248976341E+04  0.38248976341E+04  0.00000000000E+00 0.  1.
         -2   -1    0    0    0  501 -0.00000000000E+00 -0.00000000000E+00 -0.49688277117E+03  0.49688277117E+03  0.00000000000E+00 0. -1.
    2000013    1    1    2    0    0 -0.73746522849E+03  0.65305556076E+03  0.14031813098E+04  0.19600393662E+04  0.95000000000E+03 0.  0.
   -2000013    1    1    2    0    0  0.73746522849E+03 -0.65305556076E+03  0.19248335531E+04  0.23617410391E+04  0.95000000000E+03 0.  0.
<mgrwt>
<rscale>  0 0.27571911E+04</rscale>
<asrwt>0</asrwt>
<pdfrwt beam="1">  1        2 0.58844577E+00 0.27571911E+04</pdfrwt>
<pdfrwt beam="2">  1       -2 0.76443506E-01 0.27571911E+04</pdfrwt>
<totfact> 0.62860944E-01</totfact>
</mgrwt>
</event>
<event>
 4    1  0.1323225E-008  0.2340645E+04  0.7816531E-02  0.8462066E-01
          2   -1    0    0  501    0  0.00000000000E+00  0.00000000000E+00  0.23340554827E+04  0.23340554827E+04  0.00000000000E+00 0.  1.
         -2   -1    0    0    0  501 -0.00000000000E+00 -0.00000000000E+00 -0.58681313250E+03  0.58681313250E+03  0.00000000000E+00 0. -1.
    2000013    1    1    2    0    0  0.49540253701E+02 -0.52927167202E+03  0.14097375189E+04  0.17811352031E+04  0.95000000000E+03 0.  0.
   -2000013    1    1    2    0    0 -0.49540253701E+02  0.52927167202E+03  0.33750483132E+03  0.11397334121E+04  0.95000000000E+03 0.  0.
<mgrwt>
<rscale>  0 0.23406447E+04</rscale>
<asrwt>0</asrwt>
<pdfrwt beam="1">  1        2 0.35908545E+00 0.23406447E+04</pdfrwt>
<pdfrwt beam="2">  1       -2 0.90278945E-01 0.23406447E+04</pdfrwt>
<totfact> 0.41104831E+00</totfact>
</mgrwt>
</event>
<event>
 4    1  0.1323225E-008  0.2438342E+04  0.7816531E-02  0.8425287E-01
          1   -1    0    0  501    0  0.00000000000E+00  0.00000000000E+00  0.15975554068E+04  0.15975554068E+04  0.00000000000E+00 0.  1.
         -1   -1    0    0    0  501 -0.00000000000E+00 -0.00000000000E+00 -0.93040806069E+03  0.93040806069E+03  0.00000000000E+00 0. -1.
    2000013    1    1    2    0    0  0.21238685395E+03  0.69306284866E+03  0.58419003961E+03  0.13301211563E+04  0.95000000000E+03 0.  0.
   -2000013    1    1    2    0    0 -0.21238685395E+03 -0.69306284866E+03  0.82957306509E+02  0.11978423113E+04  0.95000000000E+03 0.  0.
<mgrwt>
<rscale>  0 0.24383424E+04</rscale>
<asrwt>0</asrwt>
<pdfrwt beam="1">  1        1 0.24577775E+00 0.24383424E+04</pdfrwt>
<pdfrwt beam="2">  1       -1 0.14313970E+00 0.24383424E+04</pdfrwt>
<totfact> 0.19782554E+00</totfact>
</mgrwt>
</event>
<event>
 4    1  0.1323225E-008  0.2621199E+04  0.7816531E-02  0.8361036E-01
          1   -1    0    0  501    0  0.00000000000E+00  0.00000000000E+00  0.18010300819E+04  0.18010300819E+04  0.00000000000E+00 0.  1.
         -1   -1    0    0    0  501 -0.00000000000E+00 -0.00000000000E+00 -0.95371591215E+03  0.95371591215E+03  0.00000000000E+00 0. -1.
    2000013    1    1    2    0    0 -0.59597048904E+03 -0.63752214550E+03  0.66686884427E+03  0.14521808996E+04  0.95000000000E+03 0.  0.
   -2000013    1    1    2    0    0  0.59597048904E+03  0.63752214550E+03  0.18044532552E+03  0.13025650945E+04  0.95000000000E+03 0.  0.
<mgrwt>
<rscale>  0 0.26211990E+04</rscale>
<asrwt>0</asrwt>
<pdfrwt beam="1">  1        1 0.27708155E+00 0.26211990E+04</pdfrwt>
<pdfrwt beam="2">  1       -1 0.14672552E+00 0.26211990E+04</pdfrwt>
<totfact> 0.13237606E+00</totfact>
</mgrwt>
</event>
<event>
 4    1  0.1323225E-008  0.2781021E+04  0.7816531E-02  0.8309185E-01
          1   -1    0    0  501    0  0.00000000000E+00  0.00000000000E+00  0.11457939882E+04  0.11457939882E+04  0.00000000000E+00 0.  1.
         -1   -1    0    0    0  501 -0.00000000000E+00 -0.00000000000E+00 -0.16874928447E+04  0.16874928447E+04  0.00000000000E+00 0. -1.
    2000013    1    1    2    0    0  0.66406153364E+03  0.75391811373E+03 -0.12094848563E+03  0.13879837099E+04  0.95000000000E+03 0.  0.
   -2000013    1    1    2    0    0 -0.66406153364E+03 -0.75391811373E+03 -0.42075037089E+03  0.14453031230E+04  0.95000000000E+03 0.  0.
<mgrwt>
<rscale>  0 0.27810208E+04</rscale>
<asrwt>0</asrwt>
<pdfrwt beam="1">  1        1 0.17627600E+00 0.27810208E+04</pdfrwt>
<pdfrwt beam="2">  1       -1 0.25961428E+00 0.27810208E+04</pdfrwt>
<totfact> 0.61309061E-01</totfact>
</mgrwt>
</event>
<event>
 4    1  0.1323225E-008  0.3990746E+04  0.7816531E-02  0.8006416E-01
         -2   -1    0    0    0  501 -0.00000000000E+00  0.00000000000E+00  0.17064267422E+04  0.17064267422E+04  0.00000000000E+00 0. -1.
          2   -1    0    0  501    0  0.00000000000E+00 -0.00000000000E+00 -0.23332460400E+04  0.23332460400E+04  0.00000000000E+00 0.  1.
    2000013    1    1    2    0    0  0.91118372493E+03 -0.13940732611E+04 -0.87273934546E+03  0.21066252640E+04  0.95000000000E+03 0.  0.
   -2000013    1    1    2    0    0 -0.91118372493E+03  0.13940732611E+04  0.24592004761E+03  0.19330475182E+04  0.95000000000E+03 0.  0.
<mgrwt>
<rscale>  0 0.39907460E+04</rscale>
<asrwt>0</asrwt>
<pdfrwt beam="2">  1        2 0.35896093E+00 0.39907460E+04</pdfrwt>
<pdfrwt beam="1">  1       -2 0.26252719E+00 0.39907460E+04</pdfrwt>
<totfact> 0.18450988E-01</totfact>
</mgrwt>
</event>
<event>
 4    1  0.1323225E-008  0.2978154E+04  0.7816531E-02  0.8249997E-01
         -2   -1    0    0    0  501 -0.00000000000E+00  0.00000000000E+00  0.18978999949E+04  0.18978999949E+04  0.00000000000E+00 0. -1.
          2   -1    0    0  501    0  0.00000000000E+00 -0.00000000000E+00 -0.11683176293E+04  0.11683176293E+04  0.00000000000E+00 0.  1.
    2000013    1    1    2    0    0  0.10716473342E+04  0.26129991855E+03  0.42247499945E+02  0.14563620798E+04  0.95000000000E+03 0.  0.
   -2000013    1    1    2    0    0 -0.10716473342E+04 -0.26129991855E+03  0.68733486567E+03  0.16098555444E+04  0.95000000000E+03 0.  0.
<mgrwt>
<rscale>  0 0.29781538E+04</rscale>
<asrwt>0</asrwt>
<pdfrwt beam="2">  1        2 0.17974117E+00 0.29781538E+04</pdfrwt>
<pdfrwt beam="1">  1       -2 0.29198462E+00 0.29781538E+04</pdfrwt>
<totfact> 0.60383683E-01</totfact>
</mgrwt>
</event>
<event>
 4    1  0.1323225E-008  0.2184242E+04  0.7816531E-02  0.8525015E-01
         -2   -1    0    0    0  501 -0.00000000000E+00  0.00000000000E+00  0.90346032078E+03  0.90346032078E+03  0.00000000000E+00 0. -1.
          2   -1    0    0  501    0  0.00000000000E+00 -0.00000000000E+00 -0.13201783707E+04  0.13201783707E+04  0.00000000000E+00 0.  1.
    2000013    1    1    2    0    0 -0.44871441988E+03 -0.26225765548E+03 -0.35270880555E+03  0.11388710243E+04  0.95000000000E+03 0.  0.
   -2000013    1    1    2    0    0  0.44871441988E+03  0.26225765548E+03 -0.64009244404E+02  0.10847676672E+04  0.95000000000E+03 0.  0.
<mgrwt>
<rscale>  0 0.21842425E+04</rscale>
<asrwt>0</asrwt>
<pdfrwt beam="2">  1        2 0.20310437E+00 0.21842425E+04</pdfrwt>
<pdfrwt beam="1">  1       -2 0.13899390E+00 0.21842425E+04</pdfrwt>
<totfact> 0.53898659E+00</totfact>
</mgrwt>
</event>
<event>
 4    1  0.1323225E-008  0.2445972E+04  0.7816531E-02  0.8422490E-01
         -2   -1    0    0    0  501 -0.00000000000E+00  0.00000000000E+00  0.49146757527E+03  0.49146757527E+03  0.00000000000E+00 0. -1.
          2   -1    0    0  501    0  0.00000000000E+00 -0.00000000000E+00 -0.30433224524E+04  0.30433224524E+04  0.00000000000E+00 0.  1.
    2000013    1    1    2    0    0  0.33100734894E+03 -0.67194186631E+03 -0.10169169536E+04  0.15804087532E+04  0.95000000000E+03 0.  0.
   -2000013    1    1    2    0    0 -0.33100734894E+03  0.67194186631E+03 -0.15349379235E+04  0.19543812744E+04  0.95000000000E+03 0.  0.
<mgrwt>
<rscale>  0 0.24459716E+04</rscale>
<asrwt>0</asrwt>
<pdfrwt beam="2">  1        2 0.46820344E+00 0.24459716E+04</pdfrwt>
<pdfrwt beam="1">  1       -2 0.75610398E-01 0.24459716E+04</pdfrwt>
<totfact> 0.22981901E+00</totfact>
</mgrwt>
</event>
<event>
 4    1  0.1323225E-008  0.2467137E+04  0.7816531E-02  0.8414787E-01
          2   -1    0    0  501    0  0.00000000000E+00  0.00000000000E+00  0.22072386574E+04  0.22072386574E+04  0.00000000000E+00 0.  1.
         -2   -1    0    0    0  501 -0.00000000000E+00 -0.00000000000E+00 -0.68940966100E+03  0.68940966100E+03  0.00000000000E+00 0. -1.
    2000013    1    1    2    0    0 -0.73405737229E+03  0.25521636662E+03  0.90374271876E+03  0.15242134107E+04  0.95000000000E+03 0.  0.
   -2000013    1    1    2    0    0  0.73405737229E+03 -0.25521636662E+03  0.61408627767E+03  0.13724349078E+04  0.95000000000E+03 0.  0.
<mgrwt>
<rscale>  0 0.24671373E+04</rscale>
<asrwt>0</asrwt>
<pdfrwt beam="1">  1        2 0.33957518E+00 0.24671373E+04</pdfrwt>
<pdfrwt beam="2">  1       -2 0.10606303E+00 0.24671373E+04</pdfrwt>
<totfact> 0.32819629E+00</totfact>
</mgrwt>
</event>
<event>
 4    1  0.1323225E-008  0.2742580E+04  0.7816531E-02  0.8321320E-01
          2   -1    0    0  501    0  0.00000000000E+00  0.00000000000E+00  0.97177075346E+03  0.97177075346E+03  0.00000000000E+00 0.  1.
         -2   -1    0    0    0  501 -0.00000000000E+00 -0.00000000000E+00 -0.19350610403E+04  0.19350610403E+04  0.00000000000E+00 0. -1.
    2000013    1    1    2    0    0  0.77967746954E+03  0.39227672653E+03  0.11126891289E+02  0.12901169693E+04  0.95000000000E+03 0.  0.
   -2000013    1    1    2    0    0 -0.77967746954E+03 -0.39227672653E+03 -0.97441717811E+03  0.16167148245E+04  0.95000000000E+03 0.  0.
<mgrwt>
<rscale>  0 0.27425796E+04</rscale>
<asrwt>0</asrwt>
<pdfrwt beam="1">  1        2 0.14950320E+00 0.27425796E+04</pdfrwt>
<pdfrwt beam="2">  1       -2 0.29770169E+00 0.27425796E+04</pdfrwt>
<totfact> 0.75405008E-01</totfact>
</mgrwt>
</event>
<event>
 4    1  0.1323225E-008  0.2305022E+04  0.7816531E-02  0.8475944E-01
         -2   -1    0    0    0  501 -0.00000000000E+00  0.00000000000E+00  0.10750012950E+04  0.10750012950E+04  0.00000000000E+00 0. -1.
          2   -1    0    0  501    0  0.00000000000E+00 -0.00000000000E+00 -0.12356097011E+04  0.12356097011E+04  0.00000000000E+00 0.  1.
    2000013    1    1    2    0    0 -0.42604926709E+03  0.10180365742E+03 -0.56510895044E+03  0.11890038219E+04  0.95000000000E+03 0.  0.
   -2000013    1    1    2    0    0  0.42604926709E+03 -0.10180365742E+03  0.40450054438E+03  0.11216071741E+04  0.95000000000E+03 0.  0.
<mgrwt>
<rscale>  0 0.23050224E+04</rscale>
<asrwt>0</asrwt>
<pdfrwt beam="2">  1        2 0.19009380E+00 0.23050224E+04</pdfrwt>
<pdfrwt beam="1">  1       -2 0.16538481E+00 0.23050224E+04</pdfrwt>
<totfact> 0.37605691E+00</totfact>
</mgrwt>
</event>
<event>
 4    1  0.1323225E-008  0.2703096E+04  0.7816531E-02  0.8334001E-01
          2   -1    0    0  501    0  0.00000000000E+00  0.00000000000E+00  0.33700016121E+04  0.33700016121E+04  0.00000000000E+00 0.  1.
         -2   -1    0    0    0  501 -0.00000000000E+00 -0.00000000000E+00 -0.54204177747E+03  0.54204177747E+03  0.00000000000E+00 0. -1.
    2000013    1    1    2    0    0  0.74742625234E+03 -0.60335618642E+02  0.22846100392E+04  0.25853876732E+04  0.95000000000E+03 0.  0.
   -2000013    1    1    2    0    0 -0.74742625234E+03  0.60335618642E+02  0.54334979542E+03  0.13266557164E+04  0.95000000000E+03 0.  0.
<mgrwt>
<rscale>  0 0.27030958E+04</rscale>
<asrwt>0</asrwt>
<pdfrwt beam="1">  1        2 0.51846178E+00 0.27030958E+04</pdfrwt>
<pdfrwt beam="2">  1       -2 0.83391045E-01 0.27030958E+04</pdfrwt>
<totfact> 0.11030122E+00</totfact>
</mgrwt>
</event>
<event>
 4    1  0.1323225E-008  0.2213487E+04  0.7816531E-02  0.8512836E-01
         -2   -1    0    0    0  501 -0.00000000000E+00  0.00000000000E+00  0.51644649299E+03  0.51644649299E+03  0.00000000000E+00 0.  1.
          2   -1    0    0  501    0  0.00000000000E+00 -0.00000000000E+00 -0.23717476267E+04  0.23717476267E+04  0.00000000000E+00 0. -1.
    2000013    1    1    2    0    0 -0.49349945285E+03  0.17009505180E+03 -0.12191441101E+04  0.16313449659E+04  0.95000000000E+03 0.  0.
   -2000013    1    1    2    0    0  0.49349945285E+03 -0.17009505180E+03 -0.63615702355E+03  0.12568491537E+04  0.95000000000E+03 0.  0.
<mgrwt>
<rscale>  0 0.22134866E+04</rscale>
<asrwt>0</asrwt>
<pdfrwt beam="2">  1        2 0.36488426E+00 0.22134866E+04</pdfrwt>
<pdfrwt beam="1">  1       -2 0.79453305E-01 0.22134866E+04</pdfrwt>
<totfact> 0.52885036E+00</totfact>
</mgrwt>
</event>
<event>
 4    1  0.1323225E-008  0.2748189E+04  0.7816531E-02  0.8319537E-01
         -2   -1    0    0    0  501 -0.00000000000E+00  0.00000000000E+00  0.76190627286E+03  0.76190627286E+03  0.00000000000E+00 0. -1.
          2   -1    0    0  501    0  0.00000000000E+00 -0.00000000000E+00 -0.24781726275E+04  0.24781726275E+04  0.00000000000E+00 0.  1.
    2000013    1    1    2    0    0  0.41078775060E+02  0.65369606533E+03 -0.17377470158E+04  0.20859699668E+04  0.95000000000E+03 0.  0.
   -2000013    1    1    2    0    0 -0.41078775060E+02 -0.65369606533E+03  0.21480661192E+02  0.11541089335E+04  0.95000000000E+03 0.  0.
<mgrwt>
<rscale>  0 0.27481887E+04</rscale>
<asrwt>0</asrwt>
<pdfrwt beam="2">  1        2 0.38125733E+00 0.27481887E+04</pdfrwt>
<pdfrwt beam="1">  1       -2 0.11721635E+00 0.27481887E+04</pdfrwt>
<totfact> 0.17619788E+00</totfact>
</mgrwt>
</event>
<event>
 4    1  0.1323225E-008  0.2014278E+04  0.7816531E-02  0.8599974E-01
         -2   -1    0    0    0  501 -0.00000000000E+00  0.00000000000E+00  0.47176347747E+03  0.47176347747E+03  0.00000000000E+00 0. -1.
          2   -1    0    0  501    0  0.00000000000E+00 -0.00000000000E+00 -0.21500787024E+04  0.21500787024E+04  0.00000000000E+00 0.  1.
    2000013    1    1    2    0    0  0.30879077294E+03 -0.10655088328E+03 -0.74598631004E+03  0.12512795079E+04  0.95000000000E+03 0.  0.
   -2000013    1    1    2    0    0 -0.30879077294E+03  0.10655088328E+03 -0.93232891490E+03  0.13705626719E+04  0.95000000000E+03 0.  0.
<mgrwt>
<rscale>  0 0.20142776E+04</rscale>
<asrwt>0</asrwt>
<pdfrwt beam="2">  1        2 0.33078133E+00 0.20142776E+04</pdfrwt>
<pdfrwt beam="1">  1       -2 0.72578998E-01 0.20142776E+04</pdfrwt>
<totfact> 0.87765518E+00</totfact>
</mgrwt>
</event>
<event>
 4    1  0.1323225E-008  0.3264778E+04  0.7816531E-02  0.8171916E-01
          2   -1    0    0  501    0  0.00000000000E+00  0.00000000000E+00  0.20409344273E+04  0.20409344273E+04  0.00000000000E+00 0.  1.
         -2   -1    0    0    0  501 -0.00000000000E+00 -0.00000000000E+00 -0.13056241972E+04  0.13056241972E+04  0.00000000000E+00 0. -1.
    2000013    1    1    2    0    0 -0.11131064405E+04 -0.13827400459E+03 -0.36010670219E+03  0.15133745357E+04  0.95000000000E+03 0.  0.
   -2000013    1    1    2    0    0  0.11131064405E+04  0.13827400459E+03  0.10954169323E+04  0.18331840889E+04  0.95000000000E+03 0.  0.
<mgrwt>
<rscale>  0 0.32647777E+04</rscale>
<asrwt>0</asrwt>
<pdfrwt beam="1">  1        2 0.31398991E+00 0.32647777E+04</pdfrwt>
<pdfrwt beam="2">  1       -2 0.20086526E+00 0.32647777E+04</pdfrwt>
<totfact> 0.69709136E-01</totfact>
</mgrwt>
</event>
<event>
 4    1  0.1323225E-008  0.2158420E+04  0.7816531E-02  0.8535936E-01
         -2   -1    0    0    0  501 -0.00000000000E+00  0.00000000000E+00  0.75942157136E+03  0.75942157136E+03  0.00000000000E+00 0. -1.
          2   -1    0    0  501    0  0.00000000000E+00 -0.00000000000E+00 -0.15336603540E+04  0.15336603540E+04  0.00000000000E+00 0.  1.
    2000013    1    1    2    0    0  0.41487986050E+03 -0.40253913527E+02 -0.71160795635E+02  0.10398603440E+04  0.95000000000E+03 0.  0.
   -2000013    1    1    2    0    0 -0.41487986050E+03  0.40253913527E+02 -0.70307798704E+03  0.12532215814E+04  0.95000000000E+03 0.  0.
<mgrwt>
<rscale>  0 0.21584205E+04</rscale>
<asrwt>0</asrwt>
<pdfrwt beam="2">  1        2 0.23594774E+00 0.21584205E+04</pdfrwt>
<pdfrwt beam="1">  1       -2 0.11683409E+00 0.21584205E+04</pdfrwt>
<totfact> 0.63224669E+00</totfact>
</mgrwt>
</event>
<event>
 4    1  0.1323225E-008  0.2415502E+04  0.7816531E-02  0.8433723E-01
         -2   -1    0    0    0  501 -0.00000000000E+00  0.00000000000E+00  0.14997525597E+04  0.14997525597E+04  0.00000000000E+00 0. -1.
          2   -1    0    0  501    0  0.00000000000E+00 -0.00000000000E+00 -0.97260173033E+03  0.97260173033E+03  0.00000000000E+00 0.  1.
    2000013    1    1    2    0    0  0.36473831754E+03  0.60758182452E+03  0.25788183796E+02  0.11854765895E+04  0.95000000000E+03 0.  0.
   -2000013    1    1    2    0    0 -0.36473831754E+03 -0.60758182452E+03  0.50136264553E+03  0.12868777005E+04  0.95000000000E+03 0.  0.
<mgrwt>
<rscale>  0 0.24155016E+04</rscale>
<asrwt>0</asrwt>
<pdfrwt beam="2">  1        2 0.14963104E+00 0.24155016E+04</pdfrwt>
<pdfrwt beam="1">  1       -2 0.23073116E+00 0.24155016E+04</pdfrwt>
<totfact> 0.19932734E+00</totfact>
</mgrwt>
</event>
<event>
 4    1  0.1323225E-008  0.2920406E+04  0.7816531E-02  0.8266832E-01
         -2   -1    0    0    0  501 -0.00000000000E+00  0.00000000000E+00  0.98396519787E+03  0.98396519787E+03  0.00000000000E+00 0. -1.
          2   -1    0    0  501    0  0.00000000000E+00 -0.00000000000E+00 -0.21669398553E+04  0.21669398553E+04  0.00000000000E+00 0.  1.
    2000013    1    1    2    0    0  0.11168782034E+02 -0.10955853268E+04 -0.77604834387E+03  0.16447440476E+04  0.95000000000E+03 0.  0.
   -2000013    1    1    2    0    0 -0.11168782034E+02  0.10955853268E+04 -0.40692631358E+03  0.15061610056E+04  0.95000000000E+03 0.  0.
<mgrwt>
<rscale>  0 0.29204064E+04</rscale>
<asrwt>0</asrwt>
<pdfrwt beam="2">  1        2 0.33337536E+00 0.29204064E+04</pdfrwt>
<pdfrwt beam="1">  1       -2 0.15137926E+00 0.29204064E+04</pdfrwt>
<totfact> 0.13579289E+00</totfact>
</mgrwt>
</event>
<event>
 4    1  0.1323225E-008  0.2034556E+04  0.7816531E-02  0.8590633E-01
         -2   -1    0    0    0  501 -0.00000000000E+00  0.00000000000E+00  0.27185547999E+03  0.27185547999E+03  0.00000000000E+00 0. -1.
          2   -1    0    0  501    0  0.00000000000E+00 -0.00000000000E+00 -0.38066355477E+04  0.38066355477E+04  0.00000000000E+00 0.  1.
    2000013    1    1    2    0    0  0.30508623406E+03 -0.13627862466E+03 -0.20558397838E+04  0.22892415098E+04  0.95000000000E+03 0.  0.
   -2000013    1    1    2    0    0 -0.30508623406E+03  0.13627862466E+03 -0.14789402840E+04  0.17892495179E+04  0.95000000000E+03 0.  0.
<mgrwt>
<rscale>  0 0.20345562E+04</rscale>
<asrwt>0</asrwt>
<pdfrwt beam="2">  1        2 0.58563627E+00 0.20345562E+04</pdfrwt>
<pdfrwt beam="1">  1       -2 0.41823918E-01 0.20345562E+04</pdfrwt>
<totfact> 0.24557731E+00</totfact>
</mgrwt>
</event>
<event>
 4    1  0.1323225E-008  0.2045899E+04  0.7816531E-02  0.8585457E-01
         -2   -1    0    0    0  501 -0.00000000000E+00  0.00000000000E+00  0.35138031530E+03  0.35138031530E+03  0.00000000000E+00 0. -1.
          2   -1    0    0  501    0  0.00000000000E+00 -0.00000000000E+00 -0.29780430030E+04  0.29780430030E+04  0.00000000000E+00 0.  1.
    2000013    1    1    2    0    0  0.36701859031E+03 -0.51757532778E+02 -0.11816836799E+04  0.15608516288E+04  0.95000000000E+03 0.  0.
   -2000013    1    1    2    0    0 -0.36701859031E+03  0.51757532778E+02 -0.14449790078E+04  0.17685716895E+04  0.95000000000E+03 0.  0.
<mgrwt>
<rscale>  0 0.20458990E+04</rscale>
<asrwt>0</asrwt>
<pdfrwt beam="2">  1        2 0.45816047E+00 0.20458990E+04</pdfrwt>
<pdfrwt beam="1">  1       -2 0.54058509E-01 0.20458990E+04</pdfrwt>
<totfact> 0.53713768E+00</totfact>
</mgrwt>
</event>
<event>
 4    1  0.1323225E-008  0.2244397E+04  0.7816531E-02  0.8500173E-01
          2   -1    0    0  501    0  0.00000000000E+00  0.00000000000E+00  0.23004802624E+04  0.23004802624E+04  0.00000000000E+00 0.  1.
         -2   -1    0    0    0  501 -0.00000000000E+00 -0.00000000000E+00 -0.54742045315E+03  0.54742045315E+03  0.00000000000E+00 0. -1.
    2000013    1    1    2    0    0  0.11256026744E+01  0.58706372624E+03  0.73646304483E+03  0.13377305043E+04  0.95000000000E+03 0.  0.
   -2000013    1    1    2    0    0 -0.11256026744E+01 -0.58706372624E+03  0.10165967644E+04  0.15101702113E+04  0.95000000000E+03 0.  0.
<mgrwt>
<rscale>  0 0.22443974E+04</rscale>
<asrwt>0</asrwt>
<pdfrwt beam="1">  1        2 0.35392003E+00 0.22443974E+04</pdfrwt>
<pdfrwt beam="2">  1       -2 0.84218533E-01 0.22443974E+04</pdfrwt>
<totfact> 0.50769417E+00</totfact>
</mgrwt>
</event>
<event>
 4    1  0.1323225E-008  0.2280822E+04  0.7816531E-02  0.8485521E-01
          2   -1    0    0  501    0  0.00000000000E+00  0.00000000000E+00  0.24537286200E+04  0.24537286200E+04  0.00000000000E+00 0.  1.
         -2   -1    0    0    0  501 -0.00000000000E+00 -0.00000000000E+00 -0.53002509186E+03  0.53002509186E+03  0.00000000000E+00 0. -1.
    2000013    1    1    2    0    0 -0.21105825362E+03 -0.33504632382E+03  0.31932287752E+03  0.10776217916E+04  0.95000000000E+03 0.  0.
   -2000013    1    1    2    0    0  0.21105825362E+03  0.33504632382E+03  0.16043806506E+04  0.19061319203E+04  0.95000000000E+03 0.  0.
<mgrwt>
<rscale>  0 0.22808224E+04</rscale>
<asrwt>0</asrwt>
<pdfrwt beam="1">  1        2 0.37749670E+00 0.22808224E+04</pdfrwt>
<pdfrwt beam="2">  1       -2 0.81542323E-01 0.22808224E+04</pdfrwt>
<totfact> 0.44510544E+00</totfact>
</mgrwt>
</event>
<event>
 4    1  0.1323225E-008  0.3320375E+04  0.7816531E-02  0.8157730E-01
          2   -1    0    0  501    0  0.00000000000E+00  0.00000000000E+00  0.19714374630E+04  0.19714374630E+04  0.00000000000E+00 0.  1.
         -2   -1    0    0    0  501 -0.00000000000E+00 -0.00000000000E+00 -0.13980772254E+04  0.13980772254E+04  0.00000000000E+00 0. -1.
    2000013    1    1    2    0    0 -0.11253589758E+04 -0.45031692528E+03  0.91594068188E+03  0.17918329973E+04  0.95000000000E+03 0.  0.
   -2000013    1    1    2    0    0  0.11253589758E+04  0.45031692528E+03 -0.34258044429E+03  0.15776816911E+04  0.95000000000E+03 0.  0.
<mgrwt>
<rscale>  0 0.33203746E+04</rscale>
<asrwt>0</asrwt>
<pdfrwt beam="1">  1        2 0.30329807E+00 0.33203746E+04</pdfrwt>
<pdfrwt beam="2">  1       -2 0.21508880E+00 0.33203746E+04</pdfrwt>
<totfact> 0.61379981E-01</totfact>
</mgrwt>
</event>
<event>
 4    1  0.1323225E-008  0.2632407E+04  0.7816531E-02  0.8357276E-01
          2   -1    0    0  501    0  0.00000000000E+00  0.00000000000E+00  0.30818349386E+04  0.30818349386E+04  0.00000000000E+00 0.  1.
         -2   -1    0    0    0  501 -0.00000000000E+00 -0.00000000000E+00 -0.56212982455E+03  0.56212982455E+03  0.00000000000E+00 0. -1.
    2000013    1    1    2    0    0 -0.48599522463E+03  0.50909111752E+03  0.45921446938E+03  0.12683623509E+04  0.95000000000E+03 0.  0.
   -2000013    1    1    2    0    0  0.48599522463E+03 -0.50909111752E+03  0.20604906447E+04  0.23756024123E+04  0.95000000000E+03 0.  0.
<mgrwt>
<rscale>  0 0.26324068E+04</rscale>
<asrwt>0</asrwt>
<pdfrwt beam="1">  1        2 0.47412844E+00 0.26324068E+04</pdfrwt>
<pdfrwt beam="2">  1       -2 0.86481513E-01 0.26324068E+04</pdfrwt>
<totfact> 0.15791851E+00</totfact>
</mgrwt>
</event>
<event>
 4    1  0.1323225E-008  0.2695689E+04  0.7816531E-02  0.8336405E-01
          2   -1    0    0  501    0  0.00000000000E+00  0.00000000000E+00  0.93557389587E+03  0.93557389587E+03  0.00000000000E+00 0.  1.
         -2   -1    0    0    0  501 -0.00000000000E+00 -0.00000000000E+00 -0.19417871161E+04  0.19417871161E+04  0.00000000000E+00 0. -1.
    2000013    1    1    2    0    0  0.55714228424E+02 -0.82092285364E+03  0.16711696033E+02  0.12569000309E+04  0.95000000000E+03 0.  0.
   -2000013    1    1    2    0    0 -0.55714228424E+02  0.82092285364E+03 -0.10229249163E+04  0.16204609811E+04  0.95000000000E+03 0.  0.
<mgrwt>
<rscale>  0 0.26956894E+04</rscale>
<asrwt>0</asrwt>
<pdfrwt beam="1">  1        2 0.14393445E+00 0.26956894E+04</pdfrwt>
<pdfrwt beam="2">  1       -2 0.29873647E+00 0.26956894E+04</pdfrwt>
<totfact> 0.78807450E-01</totfact>
</mgrwt>
</event>
<event>
 4    1  0.1323225E-008  0.3053546E+04  0.7816531E-02  0.8228604E-01
          2   -1    0    0  501    0  0.00000000000E+00  0.00000000000E+00  0.18056640490E+04  0.18056640490E+04  0.00000000000E+00 0.  1.
         -2   -1    0    0    0  501 -0.00000000000E+00 -0.00000000000E+00 -0.12909580086E+04  0.12909580086E+04  0.00000000000E+00 0. -1.
    2000013    1    1    2    0    0  0.34822395907E+03 -0.11338169778E+04  0.10784327864E+03  0.15234602185E+04  0.95000000000E+03 0.  0.
   -2000013    1    1    2    0    0 -0.34822395907E+03  0.11338169778E+04  0.40686276174E+03  0.15731618390E+04  0.95000000000E+03 0.  0.
<mgrwt>
<rscale>  0 0.30535464E+04</rscale>
<asrwt>0</asrwt>
<pdfrwt beam="1">  1        2 0.27779447E+00 0.30535464E+04</pdfrwt>
<pdfrwt beam="2">  1       -2 0.19860892E+00 0.30535464E+04</pdfrwt>
<totfact> 0.99182607E-01</totfact>
</mgrwt>
</event>
<event>
 4    1  0.1323225E-008  0.2550459E+04  0.7816531E-02  0.8385227E-01
         -2   -1    0    0    0  501 -0.00000000000E+00  0.00000000000E+00  0.82643305410E+03  0.82643305410E+03  0.00000000000E+00 0. -1.
          2   -1    0    0  501    0  0.00000000000E+00 -0.00000000000E+00 -0.19677459354E+04  0.19677459354E+04  0.00000000000E+00 0.  1.
    2000013    1    1    2    0    0  0.54686212761E+03  0.63422152376E+03 -0.40663268508E+03  0.13300922030E+04  0.95000000000E+03 0.  0.
   -2000013    1    1    2    0    0 -0.54686212761E+03 -0.63422152376E+03 -0.73468019622E+03  0.14640867865E+04  0.95000000000E+03 0.  0.
<mgrwt>
<rscale>  0 0.25504590E+04</rscale>
<asrwt>0</asrwt>
<pdfrwt beam="2">  1        2 0.30273014E+00 0.25504590E+04</pdfrwt>
<pdfrwt beam="1">  1       -2 0.12714355E+00 0.25504590E+04</pdfrwt>
<totfact> 0.28412021E+00</totfact>
</mgrwt>
</event>
<event>
 4    1  0.1323225E-008  0.2540851E+04  0.7816531E-02  0.8388575E-01
         -2   -1    0    0    0  501 -0.00000000000E+00  0.00000000000E+00  0.77811709627E+03  0.77811709627E+03  0.00000000000E+00 0. -1.
          2   -1    0    0  501    0  0.00000000000E+00 -0.00000000000E+00 -0.20742128498E+04  0.20742128498E+04  0.00000000000E+00 0.  1.
    2000013    1    1    2    0    0  0.71521518105E+03  0.38881319543E+03 -0.40013104425E+03  0.13135118228E+04  0.95000000000E+03 0.  0.
   -2000013    1    1    2    0    0 -0.71521518105E+03 -0.38881319543E+03 -0.89596470927E+03  0.15388181232E+04  0.95000000000E+03 0.  0.
<mgrwt>
<rscale>  0 0.25408506E+04</rscale>
<asrwt>0</asrwt>
<pdfrwt beam="2">  1        2 0.31910967E+00 0.25408506E+04</pdfrwt>
<pdfrwt beam="1">  1       -2 0.11971032E+00 0.25408506E+04</pdfrwt>
<totfact> 0.28841762E+00</totfact>
</mgrwt>
</event>
<event>
 4    1  0.1323225E-008  0.2138301E+04  0.7816531E-02  0.8544557E-01
          2   -1    0    0  501    0  0.00000000000E+00  0.00000000000E+00  0.89240194040E+03  0.89240194040E+03  0.00000000000E+00 0.  1.
         -2   -1    0    0    0  501 -0.00000000000E+00 -0.00000000000E+00 -0.12809059744E+04  0.12809059744E+04  0.00000000000E+00 0. -1.
    2000013    1    1    2    0    0 -0.33851309743E+03  0.34360345287E+03 -0.10375200334E+03  0.10704760288E+04  0.95000000000E+03 0.  0.
   -2000013    1    1    2    0    0  0.33851309743E+03 -0.34360345287E+03 -0.28475203071E+03  0.11028318861E+04  0.95000000000E+03 0.  0.
<mgrwt>
<rscale>  0 0.21383012E+04</rscale>
<asrwt>0</asrwt>
<pdfrwt beam="1">  1        2 0.13729261E+00 0.21383012E+04</pdfrwt>
<pdfrwt beam="2">  1       -2 0.19706246E+00 0.21383012E+04</pdfrwt>
<totfact> 0.37894133E+00</totfact>
</mgrwt>
</event>
<event>
 4    1  0.1323225E-008  0.3698987E+04  0.7816531E-02  0.8068186E-01
          2   -1    0    0  501    0  0.00000000000E+00  0.00000000000E+00  0.23903851258E+04  0.23903851258E+04  0.00000000000E+00 0.  1.
         -2   -1    0    0    0  501 -0.00000000000E+00 -0.00000000000E+00 -0.14309937924E+04  0.14309937924E+04  0.00000000000E+00 0. -1.
    2000013    1    1    2    0    0 -0.45702144763E+03  0.15188510112E+04  0.52976877729E+03  0.19232607611E+04  0.95000000000E+03 0.  0.
   -2000013    1    1    2    0    0  0.45702144763E+03 -0.15188510112E+04  0.42962255605E+03  0.18981181571E+04  0.95000000000E+03 0.  0.
<mgrwt>
<rscale>  0 0.36989870E+04</rscale>
<asrwt>0</asrwt>
<pdfrwt beam="1">  1        2 0.36775156E+00 0.36989870E+04</pdfrwt>
<pdfrwt beam="2">  1       -2 0.22015289E+00 0.36989870E+04</pdfrwt>
<totfact> 0.32100103E-01</totfact>
</mgrwt>
</event>
<event>
 4    1  0.1323225E-008  0.2351639E+04  0.7816531E-02  0.8457835E-01
          1   -1    0    0  501    0  0.00000000000E+00  0.00000000000E+00  0.17133784089E+04  0.17133784089E+04  0.00000000000E+00 0. -1.
         -1   -1    0    0    0  501 -0.00000000000E+00 -0.00000000000E+00 -0.80691511018E+03  0.80691511018E+03  0.00000000000E+00 0.  1.
    2000013    1    1    2    0    0 -0.58144954879E+03 -0.35578310069E+03  0.58616675431E+03  0.13079589659E+04  0.95000000000E+03 0.  0.
   -2000013    1    1    2    0    0  0.58144954879E+03  0.35578310069E+03  0.32029654439E+03  0.12123345532E+04  0.95000000000E+03 0.  0.
<mgrwt>
<rscale>  0 0.23516385E+04</rscale>
<asrwt>0</asrwt>
<pdfrwt beam="1">  1        1 0.26359668E+00 0.23516385E+04</pdfrwt>
<pdfrwt beam="2">  1       -1 0.12414079E+00 0.23516385E+04</pdfrwt>
<totfact> 0.23907226E+00</totfact>
</mgrwt>
</event>
<event>
 4    1  0.1323225E-008  0.2863906E+04  0.7816531E-02  0.8283698E-01
         -2   -1    0    0    0  501 -0.00000000000E+00  0.00000000000E+00  0.90124687522E+03  0.90124687522E+03  0.00000000000E+00 0. -1.
          2   -1    0    0  501    0  0.00000000000E+00 -0.00000000000E+00 -0.22751696751E+04  0.22751696751E+04  0.00000000000E+00 0.  1.
    2000013    1    1    2    0    0  0.37295342255E+03  0.90208910326E+03 -0.11768996118E+04  0.18001254684E+04  0.95000000000E+03 0.  0.
   -2000013    1    1    2    0    0 -0.37295342255E+03 -0.90208910326E+03 -0.19702318805E+03  0.13762910819E+04  0.95000000000E+03 0.  0.
<mgrwt>
<rscale>  0 0.28639061E+04</rscale>
<asrwt>0</asrwt>
<pdfrwt beam="2">  1        2 0.35002610E+00 0.28639061E+04</pdfrwt>
<pdfrwt beam="1">  1       -2 0.13865337E+00 0.28639061E+04</pdfrwt>
<totfact> 0.14928210E+00</totfact>
</mgrwt>
</event>
<event>
 4    1  0.1323225E-008  0.2398132E+04  0.7816531E-02  0.8440203E-01
         -2   -1    0    0    0  501 -0.00000000000E+00  0.00000000000E+00  0.87028875941E+03  0.87028875941E+03  0.00000000000E+00 0. -1.
          2   -1    0    0  501    0  0.00000000000E+00 -0.00000000000E+00 -0.16520489789E+04  0.16520489789E+04  0.00000000000E+00 0.  1.
    2000013    1    1    2    0    0  0.37496079049E+03 -0.48645331404E+03 -0.80899541598E+03  0.13907573492E+04  0.95000000000E+03 0.  0.
   -2000013    1    1    2    0    0 -0.37496079049E+03  0.48645331404E+03  0.27235196507E+02  0.11315803891E+04  0.95000000000E+03 0.  0.
<mgrwt>
<rscale>  0 0.23981323E+04</rscale>
<asrwt>0</asrwt>
<pdfrwt beam="2">  1        2 0.25416138E+00 0.23981323E+04</pdfrwt>
<pdfrwt beam="1">  1       -2 0.13389058E+00 0.23981323E+04</pdfrwt>
<totfact> 0.37799034E+00</totfact>
</mgrwt>
</event>
<event>
 4    1  0.1323225E-008  0.4774958E+04  0.7816531E-02  0.7864192E-01
         -2   -1    0    0    0  501 -0.00000000000E+00  0.00000000000E+00  0.24789997317E+04  0.24789997317E+04  0.00000000000E+00 0. -1.
          2   -1    0    0  501    0  0.00000000000E+00 -0.00000000000E+00 -0.22993370529E+04  0.22993370529E+04  0.00000000000E+00 0.  1.
    2000013    1    1    2    0    0 -0.19138351658E+04 -0.10611590489E+04 -0.36819270987E+01  0.23856523480E+04  0.95000000000E+03 0.  0.
   -2000013    1    1    2    0    0  0.19138351658E+04  0.10611590489E+04  0.18334460587E+03  0.23926844367E+04  0.95000000000E+03 0.  0.
<mgrwt>
<rscale>  0 0.47749580E+04</rscale>
<asrwt>0</asrwt>
<pdfrwt beam="2">  1        2 0.35374416E+00 0.47749580E+04</pdfrwt>
<pdfrwt beam="1">  1       -2 0.38138457E+00 0.47749580E+04</pdfrwt>
<totfact> 0.32992087E-02</totfact>
</mgrwt>
</event>
<event>
 4    1  0.1323225E-008  0.2399572E+04  0.7816531E-02  0.8439664E-01
         -2   -1    0    0    0  501 -0.00000000000E+00  0.00000000000E+00  0.82848685104E+03  0.82848685104E+03  0.00000000000E+00 0. -1.
          2   -1    0    0  501    0  0.00000000000E+00 -0.00000000000E+00 -0.17374880016E+04  0.17374880016E+04  0.00000000000E+00 0.  1.
    2000013    1    1    2    0    0  0.19373801714E+03  0.45105274996E+03  0.12729003865E+03  0.10768870677E+04  0.95000000000E+03 0.  0.
   -2000013    1    1    2    0    0 -0.19373801714E+03 -0.45105274996E+03 -0.10362911892E+04  0.14890877849E+04  0.95000000000E+03 0.  0.
<mgrwt>
<rscale>  0 0.23995716E+04</rscale>
<asrwt>0</asrwt>
<pdfrwt beam="2">  1        2 0.26730584E+00 0.23995716E+04</pdfrwt>
<pdfrwt beam="1">  1       -2 0.12745952E+00 0.23995716E+04</pdfrwt>
<totfact> 0.38377980E+00</totfact>
</mgrwt>
</event>
<event>
 4    1  0.1323225E-008  0.2123343E+04  0.7816531E-02  0.8551030E-01
         -1   -1    0    0    0  501 -0.00000000000E+00  0.00000000000E+00  0.13932418874E+04  0.13932418874E+04  0.00000000000E+00 0. -1.
          1   -1    0    0  501    0  0.00000000000E+00 -0.00000000000E+00 -0.80901010754E+03  0.80901010754E+03  0.00000000000E+00 0.  1.
    2000013    1    1    2    0    0 -0.35327739969E+02  0.41211286256E+03  0.53215056942E+03  0.11648043996E+04  0.95000000000E+03 0.  0.
   -2000013    1    1    2    0    0  0.35327739969E+02 -0.41211286256E+03  0.52081210442E+02  0.10374475954E+04  0.95000000000E+03 0.  0.
<mgrwt>
<rscale>  0 0.21233434E+04</rscale>
<asrwt>0</asrwt>
<pdfrwt beam="2">  1        1 0.12446309E+00 0.21233434E+04</pdfrwt>
<pdfrwt beam="1">  1       -1 0.21434491E+00 0.21233434E+04</pdfrwt>
<totfact> 0.23938680E+00</totfact>
</mgrwt>
</event>
<event>
 4    1  0.1323225E-008  0.3098999E+04  0.7816531E-02  0.8216013E-01
         -2   -1    0    0    0  501 -0.00000000000E+00  0.00000000000E+00  0.85877810946E+03  0.85877810946E+03  0.00000000000E+00 0. -1.
          2   -1    0    0  501    0  0.00000000000E+00 -0.00000000000E+00 -0.27957721614E+04  0.27957721614E+04  0.00000000000E+00 0.  1.
    2000013    1    1    2    0    0  0.10670400129E+04 -0.10231132223E+03 -0.27142490626E+03  0.14578111933E+04  0.95000000000E+03 0.  0.
   -2000013    1    1    2    0    0 -0.10670400129E+04  0.10231132223E+03 -0.16655691457E+04  0.21967390775E+04  0.95000000000E+03 0.  0.
<mgrwt>
<rscale>  0 0.30989985E+04</rscale>
<asrwt>0</asrwt>
<pdfrwt beam="2">  1        2 0.43011879E+00 0.30989985E+04</pdfrwt>
<pdfrwt beam="1">  1       -2 0.13211971E+00 0.30989985E+04</pdfrwt>
<totfact> 0.82286362E-01</totfact>
</mgrwt>
</event>
<event>
 4    1  0.1323225E-008  0.2808228E+04  0.7816531E-02  0.8300719E-01
         -2   -1    0    0    0  501 -0.00000000000E+00  0.00000000000E+00  0.97189669037E+03  0.97189669037E+03  0.00000000000E+00 0. -1.
          2   -1    0    0  501    0  0.00000000000E+00 -0.00000000000E+00 -0.20285442793E+04  0.20285442793E+04  0.00000000000E+00 0.  1.
    2000013    1    1    2    0    0  0.27820852668E+03 -0.76492268150E+03 -0.12095611291E+04  0.17401278166E+04  0.95000000000E+03 0.  0.
   -2000013    1    1    2    0    0 -0.27820852668E+03  0.76492268150E+03  0.15291354019E+03  0.12603131531E+04  0.95000000000E+03 0.  0.
<mgrwt>
<rscale>  0 0.28082275E+04</rscale>
<asrwt>0</asrwt>
<pdfrwt beam="2">  1        2 0.31208374E+00 0.28082275E+04</pdfrwt>
<pdfrwt beam="1">  1       -2 0.14952257E+00 0.28082275E+04</pdfrwt>
<totfact> 0.16925006E+00</totfact>
</mgrwt>
</event>
<event>
 4    1  0.1323225E-008  0.2579055E+04  0.7816531E-02  0.8375351E-01
          2   -1    0    0  501    0  0.00000000000E+00  0.00000000000E+00  0.13438747638E+04  0.13438747638E+04  0.00000000000E+00 0.  1.
         -2   -1    0    0    0  501 -0.00000000000E+00 -0.00000000000E+00 -0.12373778709E+04  0.12373778709E+04  0.00000000000E+00 0. -1.
    2000013    1    1    2    0    0 -0.17897474338E+03 -0.85068034578E+03 -0.15307258750E+02  0.12877978574E+04  0.95000000000E+03 0.  0.
   -2000013    1    1    2    0    0  0.17897474338E+03  0.85068034578E+03  0.12180415159E+03  0.12934547773E+04  0.95000000000E+03 0.  0.
<mgrwt>
<rscale>  0 0.25790548E+04</rscale>
<asrwt>0</asrwt>
<pdfrwt beam="1">  1        2 0.20674996E+00 0.25790548E+04</pdfrwt>
<pdfrwt beam="2">  1       -2 0.19036583E+00 0.25790548E+04</pdfrwt>
<totfact> 0.21290902E+00</totfact>
</mgrwt>
</event>
<event>
 4    1  0.1323225E-008  0.1977420E+04  0.7816531E-02  0.8617251E-01
         -2   -1    0    0    0  501 -0.00000000000E+00  0.00000000000E+00  0.59847954899E+03  0.59847954899E+03  0.00000000000E+00 0. -1.
          2   -1    0    0  501    0  0.00000000000E+00 -0.00000000000E+00 -0.16333855960E+04  0.16333855960E+04  0.00000000000E+00 0.  1.
    2000013    1    1    2    0    0 -0.21844883239E+03  0.11778455262E+03 -0.64837340499E+03  0.11766397773E+04  0.95000000000E+03 0.  0.
   -2000013    1    1    2    0    0  0.21844883239E+03 -0.11778455262E+03 -0.38653264197E+03  0.10552253676E+04  0.95000000000E+03 0.  0.
<mgrwt>
<rscale>  0 0.19774204E+04</rscale>
<asrwt>0</asrwt>
<pdfrwt beam="2">  1        2 0.25129010E+00 0.19774204E+04</pdfrwt>
<pdfrwt beam="1">  1       -2 0.92073775E-01 0.19774204E+04</pdfrwt>
<totfact> 0.99680353E+00</totfact>
</mgrwt>
</event>
<event>
 4    1  0.1323225E-008  0.2205840E+04  0.7816531E-02  0.8516001E-01
         -2   -1    0    0    0  501 -0.00000000000E+00  0.00000000000E+00  0.33287464946E+03  0.33287464946E+03  0.00000000000E+00 0. -1.
          2   -1    0    0  501    0  0.00000000000E+00 -0.00000000000E+00 -0.36543271369E+04  0.36543271369E+04  0.00000000000E+00 0.  1.
    2000013    1    1    2    0    0  0.54085162941E+03 -0.14568275109E+03 -0.16855706254E+04  0.20142969697E+04  0.95000000000E+03 0.  0.
   -2000013    1    1    2    0    0 -0.54085162941E+03  0.14568275109E+03 -0.16358818620E+04  0.19729048166E+04  0.95000000000E+03 0.  0.
<mgrwt>
<rscale>  0 0.22058403E+04</rscale>
<asrwt>0</asrwt>
<pdfrwt beam="2">  1        2 0.56220418E+00 0.22058403E+04</pdfrwt>
<pdfrwt beam="1">  1       -2 0.51211484E-01 0.22058403E+04</pdfrwt>
<totfact> 0.20849967E+00</totfact>
</mgrwt>
</event>
<event>
 4    1  0.1323225E-008  0.2638173E+04  0.7816531E-02  0.8355349E-01
          1   -1    0    0  501    0  0.00000000000E+00  0.00000000000E+00  0.14229586820E+04  0.14229586820E+04  0.00000000000E+00 0.  1.
         -1   -1    0    0    0  501 -0.00000000000E+00 -0.00000000000E+00 -0.12227969800E+04  0.12227969800E+04  0.00000000000E+00 0. -1.
    2000013    1    1    2    0    0  0.90861397477E+03  0.13524921467E+02 -0.85230538152E+01  0.13146615234E+04  0.95000000000E+03 0.  0.
   -2000013    1    1    2    0    0 -0.90861397477E+03 -0.13524921467E+02  0.20868475580E+03  0.13310941387E+04  0.95000000000E+03 0.  0.
<mgrwt>
<rscale>  0 0.26381733E+04</rscale>
<asrwt>0</asrwt>
<pdfrwt beam="1">  1        1 0.21891672E+00 0.26381733E+04</pdfrwt>
<pdfrwt beam="2">  1       -1 0.18812261E+00 0.26381733E+04</pdfrwt>
<totfact> 0.11838382E+00</totfact>
</mgrwt>
</event>
<event>
 4    1  0.1323225E-008  0.2113789E+04  0.7816531E-02  0.8555193E-01
          2   -1    0    0  501    0  0.00000000000E+00  0.00000000000E+00  0.83910980901E+03  0.83910980901E+03  0.00000000000E+00 0.  1.
         -2   -1    0    0    0  501 -0.00000000000E+00 -0.00000000000E+00 -0.13312034078E+04  0.13312034078E+04  0.00000000000E+00 0. -1.
    2000013    1    1    2    0    0  0.21262560269E+03 -0.10574544688E+02 -0.66839106028E+03  0.11809183195E+04  0.95000000000E+03 0.  0.
   -2000013    1    1    2    0    0 -0.21262560269E+03  0.10574544688E+02  0.17629746147E+03  0.98939489732E+03  0.95000000000E+03 0.  0.
<mgrwt>
<rscale>  0 0.21137889E+04</rscale>
<asrwt>0</asrwt>
<pdfrwt beam="1">  1        2 0.12909382E+00 0.21137889E+04</pdfrwt>
<pdfrwt beam="2">  1       -2 0.20480052E+00 0.21137889E+04</pdfrwt>
<totfact> 0.36774094E+00</totfact>
</mgrwt>
</event>
<event>
 4    1  0.1323225E-008  0.5404650E+04  0.7816531E-02  0.7768947E-01
          2   -1    0    0  501    0  0.00000000000E+00  0.00000000000E+00  0.32547851984E+04  0.32547851984E+04  0.00000000000E+00 0.  1.
         -2   -1    0    0    0  501 -0.00000000000E+00 -0.00000000000E+00 -0.22436377985E+04  0.22436377985E+04  0.00000000000E+00 0. -1.
    2000013    1    1    2    0    0 -0.73638385388E+03  0.11007686838E+04  0.26984552765E+04  0.31524773995E+04  0.95000000000E+03 0.  0.
   -2000013    1    1    2    0    0  0.73638385388E+03 -0.11007686838E+04 -0.16873078765E+04  0.23459455974E+04  0.95000000000E+03 0.  0.
<mgrwt>
<rscale>  0 0.54046495E+04</rscale>
<asrwt>0</asrwt>
<pdfrwt beam="1">  1        2 0.50073619E+00 0.54046495E+04</pdfrwt>
<pdfrwt beam="2">  1       -2 0.34517504E+00 0.54046495E+04</pdfrwt>
<totfact> 0.14028253E-02</totfact>
</mgrwt>
</event>
<event>
 4    1  0.1323225E-008  0.2250019E+04  0.7816531E-02  0.8497893E-01
         -2   -1    0    0    0  501 -0.00000000000E+00  0.00000000000E+00  0.77195022333E+03  0.77195022333E+03  0.00000000000E+00 0. -1.
          2   -1    0    0  501    0  0.00000000000E+00 -0.00000000000E+00 -0.16395443417E+04  0.16395443417E+04  0.00000000000E+00 0.  1.
    2000013    1    1    2    0    0  0.20089633328E+03  0.23733622929E+03  0.11944487666E+03  0.10067049722E+04  0.95000000000E+03 0.  0.
   -2000013    1    1    2    0    0 -0.20089633328E+03 -0.23733622929E+03 -0.98703899503E+03  0.14047895928E+04  0.95000000000E+03 0.  0.
<mgrwt>
<rscale>  0 0.22500192E+04</rscale>
<asrwt>0</asrwt>
<pdfrwt beam="2">  1        2 0.25223759E+00 0.22500192E+04</pdfrwt>
<pdfrwt beam="1">  1       -2 0.11876157E+00 0.22500192E+04</pdfrwt>
<totfact> 0.52574562E+00</totfact>
</mgrwt>
</event>
<event>
 4    1  0.1323225E-008  0.2900018E+04  0.7816531E-02  0.8272872E-01
         -2   -1    0    0    0  501 -0.00000000000E+00  0.00000000000E+00  0.11367324045E+04  0.11367324045E+04  0.00000000000E+00 0. -1.
          2   -1    0    0  501    0  0.00000000000E+00 -0.00000000000E+00 -0.18496230423E+04  0.18496230423E+04  0.00000000000E+00 0.  1.
    2000013    1    1    2    0    0 -0.30854577559E+03  0.47860592742E+03  0.60723701101E+03  0.12631313934E+04  0.95000000000E+03 0.  0.
   -2000013    1    1    2    0    0  0.30854577559E+03 -0.47860592742E+03 -0.13201276488E+04  0.17232240535E+04  0.95000000000E+03 0.  0.
<mgrwt>
<rscale>  0 0.29000182E+04</rscale>
<asrwt>0</asrwt>
<pdfrwt beam="2">  1        2 0.28455739E+00 0.29000182E+04</pdfrwt>
<pdfrwt beam="1">  1       -2 0.17488191E+00 0.29000182E+04</pdfrwt>
<totfact> 0.13760900E+00</totfact>
</mgrwt>
</event>
<event>
 4    1  0.1323225E-008  0.2495256E+04  0.7816531E-02  0.8404678E-01
         -1   -1    0    0    0  501 -0.00000000000E+00  0.00000000000E+00  0.61662192879E+03  0.61662192879E+03  0.00000000000E+00 0. -1.
          1   -1    0    0  501    0  0.00000000000E+00 -0.00000000000E+00 -0.25243588715E+04  0.25243588715E+04  0.00000000000E+00 0.  1.
    2000013    1    1    2    0    0  0.49861008590E+03  0.63062131934E+03 -0.10648967582E+04  0.16379256307E+04  0.95000000000E+03 0.  0.
   -2000013    1    1    2    0    0 -0.49861008590E+03 -0.63062131934E+03 -0.84284018453E+03  0.15030551696E+04  0.95000000000E+03 0.  0.
<mgrwt>
<rscale>  0 0.24952555E+04</rscale>
<asrwt>0</asrwt>
<pdfrwt beam="2">  1        1 0.38836290E+00 0.24952555E+04</pdfrwt>
<pdfrwt beam="1">  1       -1 0.94864912E-01 0.24952555E+04</pdfrwt>
<totfact> 0.12435499E+00</totfact>
</mgrwt>
</event>
<event>
 4    1  0.1323225E-008  0.2605902E+04  0.7816531E-02  0.8366199E-01
         -2   -1    0    0    0  501 -0.00000000000E+00  0.00000000000E+00  0.95379501158E+03  0.95379501158E+03  0.00000000000E+00 0.  1.
          2   -1    0    0  501    0  0.00000000000E+00 -0.00000000000E+00 -0.17799229027E+04  0.17799229027E+04  0.00000000000E+00 0. -1.
    2000013    1    1    2    0    0  0.16261252826E+03 -0.72592762555E+03  0.10275209525E+03  0.12109796633E+04  0.95000000000E+03 0.  0.
   -2000013    1    1    2    0    0 -0.16261252826E+03  0.72592762555E+03 -0.92887998640E+03  0.15227382510E+04  0.95000000000E+03 0.  0.
<mgrwt>
<rscale>  0 0.26059022E+04</rscale>
<asrwt>0</asrwt>
<pdfrwt beam="2">  1        2 0.27383429E+00 0.26059022E+04</pdfrwt>
<pdfrwt beam="1">  1       -2 0.14673770E+00 0.26059022E+04</pdfrwt>
<totfact> 0.24860200E+00</totfact>
</mgrwt>
</event>
<event>
 4    1  0.1323225E-008  0.2604707E+04  0.7816531E-02  0.8366604E-01
          2   -1    0    0  501    0  0.00000000000E+00  0.00000000000E+00  0.12145413643E+04  0.12145413643E+04  0.00000000000E+00 0.  1.
         -2   -1    0    0    0  501 -0.00000000000E+00 -0.00000000000E+00 -0.13965149181E+04  0.13965149181E+04  0.00000000000E+00 0. -1.
    2000013    1    1    2    0    0 -0.22308290870E+03  0.82850102400E+03 -0.33124827303E+03  0.13222727969E+04  0.95000000000E+03 0.  0.
   -2000013    1    1    2    0    0  0.22308290870E+03 -0.82850102400E+03  0.14927471924E+03  0.12887834856E+04  0.95000000000E+03 0.  0.
<mgrwt>
<rscale>  0 0.26047074E+04</rscale>
<asrwt>0</asrwt>
<pdfrwt beam="1">  1        2 0.18685252E+00 0.26047074E+04</pdfrwt>
<pdfrwt beam="2">  1       -2 0.21484845E+00 0.26047074E+04</pdfrwt>
<totfact> 0.17497329E+00</totfact>
</mgrwt>
</event>
<event>
 4    1  0.1323225E-008  0.3128839E+04  0.7816531E-02  0.8207867E-01
         -2   -1    0    0    0  501 -0.00000000000E+00  0.00000000000E+00  0.26028436332E+04  0.26028436332E+04  0.00000000000E+00 0. -1.
          2   -1    0    0  501    0  0.00000000000E+00 -0.00000000000E+00 -0.94028281808E+03  0.94028281808E+03  0.00000000000E+00 0.  1.
    2000013    1    1    2    0    0  0.94490278823E+03  0.80434633472E+03  0.91210968350E+03  0.18094911937E+04  0.95000000000E+03 0.  0.
   -2000013    1    1    2    0    0 -0.94490278823E+03 -0.80434633472E+03  0.75045113166E+03  0.17336352576E+04  0.95000000000E+03 0.  0.
<mgrwt>
<rscale>  0 0.31288395E+04</rscale>
<asrwt>0</asrwt>
<pdfrwt beam="2">  1        2 0.14465890E+00 0.31288395E+04</pdfrwt>
<pdfrwt beam="1">  1       -2 0.40043748E+00 0.31288395E+04</pdfrwt>
<totfact> 0.17194684E-01</totfact>
</mgrwt>
</event>
<event>
 4    1  0.1323225E-008  0.3893653E+04  0.7816531E-02  0.8026351E-01
          2   -1    0    0  501    0  0.00000000000E+00  0.00000000000E+00  0.34385503802E+04  0.34385503802E+04  0.00000000000E+00 0.  1.
         -2   -1    0    0    0  501 -0.00000000000E+00 -0.00000000000E+00 -0.11022473349E+04  0.11022473349E+04  0.00000000000E+00 0. -1.
    2000013    1    1    2    0    0 -0.10994339889E+04 -0.61572963835E+03  0.24977045651E+04  0.29544722334E+04  0.95000000000E+03 0.  0.
   -2000013    1    1    2    0    0  0.10994339889E+04  0.61572963835E+03 -0.16140151977E+03  0.15863254818E+04  0.95000000000E+03 0.  0.
<mgrwt>
<rscale>  0 0.38936528E+04</rscale>
<asrwt>0</asrwt>
<pdfrwt beam="1">  1        2 0.52900774E+00 0.38936528E+04</pdfrwt>
<pdfrwt beam="2">  1       -2 0.16957651E+00 0.38936528E+04</pdfrwt>
<totfact> 0.15293410E-01</totfact>
</mgrwt>
</event>
<event>
 4    1  0.1323225E-008  0.2431269E+04  0.7816531E-02  0.8427889E-01
         -2   -1    0    0    0  501 -0.00000000000E+00  0.00000000000E+00  0.39737374515E+03  0.39737374515E+03  0.00000000000E+00 0. -1.
          2   -1    0    0  501    0  0.00000000000E+00 -0.00000000000E+00 -0.37188341003E+04  0.37188341003E+04  0.00000000000E+00 0.  1.
    2000013    1    1    2    0    0  0.57625936546E+03 -0.47658035772E+03 -0.14461536344E+04  0.18849573014E+04  0.95000000000E+03 0.  0.
   -2000013    1    1    2    0    0 -0.57625936546E+03  0.47658035772E+03 -0.18753067207E+04  0.22312505441E+04  0.95000000000E+03 0.  0.
<mgrwt>
<rscale>  0 0.24312688E+04</rscale>
<asrwt>0</asrwt>
<pdfrwt beam="2">  1        2 0.57212835E+00 0.24312688E+04</pdfrwt>
<pdfrwt beam="1">  1       -2 0.61134420E-01 0.24312688E+04</pdfrwt>
<totfact> 0.12652977E+00</totfact>
</mgrwt>
</event>
<event>
 4    1  0.1323225E-008  0.2676868E+04  0.7816531E-02  0.8342550E-01
          2   -1    0    0  501    0  0.00000000000E+00  0.00000000000E+00  0.28460201227E+04  0.28460201227E+04  0.00000000000E+00 0. -1.
         -2   -1    0    0    0  501 -0.00000000000E+00 -0.00000000000E+00 -0.62944231385E+03  0.62944231385E+03  0.00000000000E+00 0.  1.
    2000013    1    1    2    0    0  0.91024665501E+03  0.24195492293E+03  0.11635913355E+04  0.17730019610E+04  0.95000000000E+03 0.  0.
   -2000013    1    1    2    0    0 -0.91024665501E+03 -0.24195492293E+03  0.10529864733E+04  0.17024604755E+04  0.95000000000E+03 0.  0.
<mgrwt>
<rscale>  0 0.26768679E+04</rscale>
<asrwt>0</asrwt>
<pdfrwt beam="1">  1        2 0.43784924E+00 0.26768679E+04</pdfrwt>
<pdfrwt beam="2">  1       -2 0.96837280E-01 0.26768679E+04</pdfrwt>
<totfact> 0.16976489E+00</totfact>
</mgrwt>
</event>
<event>
 4    1  0.1323225E-008  0.2439083E+04  0.7816531E-02  0.8425015E-01
          2   -1    0    0  501    0  0.00000000000E+00  0.00000000000E+00  0.15643422052E+04  0.15643422052E+04  0.00000000000E+00 0.  1.
         -2   -1    0    0    0  501 -0.00000000000E+00 -0.00000000000E+00 -0.95073935409E+03  0.95073935409E+03  0.00000000000E+00 0. -1.
    2000013    1    1    2    0    0  0.27274838942E+03 -0.71316141695E+03  0.35043792214E+03  0.12681867480E+04  0.95000000000E+03 0.  0.
   -2000013    1    1    2    0    0 -0.27274838942E+03  0.71316141695E+03  0.26316492897E+03  0.12468948113E+04  0.95000000000E+03 0.  0.
<mgrwt>
<rscale>  0 0.24390832E+04</rscale>
<asrwt>0</asrwt>
<pdfrwt beam="1">  1        2 0.24066803E+00 0.24390832E+04</pdfrwt>
<pdfrwt beam="2">  1       -2 0.14626759E+00 0.24390832E+04</pdfrwt>
<totfact> 0.33527386E+00</totfact>
</mgrwt>
</event>
<event>
 4    1  0.1323225E-008  0.3125596E+04  0.7816531E-02  0.8208748E-01
          2   -1    0    0  501    0  0.00000000000E+00  0.00000000000E+00  0.21711783104E+04  0.21711783104E+04  0.00000000000E+00 0.  1.
         -2   -1    0    0    0  501 -0.00000000000E+00 -0.00000000000E+00 -0.11248906052E+04  0.11248906052E+04  0.00000000000E+00 0. -1.
    2000013    1    1    2    0    0  0.12354725315E+04 -0.11386887254E+03  0.50004995727E+03  0.16407036466E+04  0.95000000000E+03 0.  0.
   -2000013    1    1    2    0    0 -0.12354725315E+04  0.11386887254E+03  0.54623774789E+03  0.16553652689E+04  0.95000000000E+03 0.  0.
<mgrwt>
<rscale>  0 0.31255963E+04</rscale>
<asrwt>0</asrwt>
<pdfrwt beam="1">  1        2 0.33402743E+00 0.31255963E+04</pdfrwt>
<pdfrwt beam="2">  1       -2 0.17306009E+00 0.31255963E+04</pdfrwt>
<totfact> 0.92080028E-01</totfact>
</mgrwt>
</event>
<event>
 4    1  0.1323225E-008  0.2136736E+04  0.7816531E-02  0.8545231E-01
         -1   -1    0    0    0  501 -0.00000000000E+00  0.00000000000E+00  0.72245120210E+03  0.72245120210E+03  0.00000000000E+00 0.  1.
          1   -1    0    0  501    0  0.00000000000E+00 -0.00000000000E+00 -0.15799138244E+04  0.15799138244E+04  0.00000000000E+00 0. -1.
    2000013    1    1    2    0    0 -0.41575331049E+03 -0.10822134220E+03 -0.17753406205E+03  0.10576299056E+04  0.95000000000E+03 0.  0.
   -2000013    1    1    2    0    0  0.41575331049E+03  0.10822134220E+03 -0.67992856027E+03  0.12447351209E+04  0.95000000000E+03 0.  0.
<mgrwt>
<rscale>  0 0.21367364E+04</rscale>
<asrwt>0</asrwt>
<pdfrwt beam="2">  1        1 0.24306366E+00 0.21367364E+04</pdfrwt>
<pdfrwt beam="1">  1       -1 0.11114634E+00 0.21367364E+04</pdfrwt>
<totfact> 0.39322261E+00</totfact>
</mgrwt>
</event>
<event>
 4    1  0.1323225E-008  0.2339275E+04  0.7816531E-02  0.8462594E-01
          2   -1    0    0  501    0  0.00000000000E+00  0.00000000000E+00  0.26662940128E+04  0.26662940128E+04  0.00000000000E+00 0.  1.
         -2   -1    0    0    0  501 -0.00000000000E+00 -0.00000000000E+00 -0.51309130383E+03  0.51309130383E+03  0.00000000000E+00 0. -1.
    2000013    1    1    2    0    0 -0.38454796872E+03 -0.56136859644E+03  0.10080974306E+04  0.15432991515E+04  0.95000000000E+03 0.  0.
   -2000013    1    1    2    0    0  0.38454796872E+03  0.56136859644E+03  0.11451052784E+04  0.16360861652E+04  0.95000000000E+03 0.  0.
<mgrwt>
<rscale>  0 0.23392753E+04</rscale>
<asrwt>0</asrwt>
<pdfrwt beam="1">  1        2 0.41019907E+00 0.23392753E+04</pdfrwt>
<pdfrwt beam="2">  1       -2 0.78937125E-01 0.23392753E+04</pdfrwt>
<totfact> 0.35802905E+00</totfact>
</mgrwt>
</event>
<event>
 4    1  0.1323225E-008  0.2919734E+04  0.7816531E-02  0.8267030E-01
         -2   -1    0    0    0  501 -0.00000000000E+00  0.00000000000E+00  0.93978820421E+03  0.93978820421E+03  0.00000000000E+00 0. -1.
          2   -1    0    0  501    0  0.00000000000E+00 -0.00000000000E+00 -0.22677568366E+04  0.22677568366E+04  0.00000000000E+00 0.  1.
    2000013    1    1    2    0    0 -0.49362084961E+03 -0.66568176182E+03  0.14473174426E+03  0.12689527292E+04  0.95000000000E+03 0.  0.
   -2000013    1    1    2    0    0  0.49362084961E+03  0.66568176182E+03 -0.14727003767E+04  0.19385923116E+04  0.95000000000E+03 0.  0.
<mgrwt>
<rscale>  0 0.29197336E+04</rscale>
<asrwt>0</asrwt>
<pdfrwt beam="2">  1        2 0.34888566E+00 0.29197336E+04</pdfrwt>
<pdfrwt beam="1">  1       -2 0.14458280E+00 0.29197336E+04</pdfrwt>
<totfact> 0.13451344E+00</totfact>
</mgrwt>
</event>
<event>
 4    1  0.1323225E-008  0.2918161E+04  0.7816531E-02  0.8267495E-01
         -2   -1    0    0    0  501 -0.00000000000E+00  0.00000000000E+00  0.12643744136E+04  0.12643744136E+04  0.00000000000E+00 0. -1.
          2   -1    0    0  501    0  0.00000000000E+00 -0.00000000000E+00 -0.16837698796E+04  0.16837698796E+04  0.00000000000E+00 0.  1.
    2000013    1    1    2    0    0  0.33575915579E+03 -0.10506054519E+04 -0.10912829950E+03  0.14597653962E+04  0.95000000000E+03 0.  0.
   -2000013    1    1    2    0    0 -0.33575915579E+03  0.10506054519E+04 -0.31026716655E+03  0.14883788970E+04  0.95000000000E+03 0.  0.
<mgrwt>
<rscale>  0 0.29181608E+04</rscale>
<asrwt>0</asrwt>
<pdfrwt beam="2">  1        2 0.25904152E+00 0.29181608E+04</pdfrwt>
<pdfrwt beam="1">  1       -2 0.19451914E+00 0.29181608E+04</pdfrwt>
<totfact> 0.12477541E+00</totfact>
</mgrwt>
</event>
<event>
 4    1  0.1323225E-008  0.2188338E+04  0.7816531E-02  0.8523298E-01
          2   -1    0    0  501    0  0.00000000000E+00  0.00000000000E+00  0.16479230343E+04  0.16479230343E+04  0.00000000000E+00 0.  1.
         -2   -1    0    0    0  501 -0.00000000000E+00 -0.00000000000E+00 -0.72649378393E+03  0.72649378393E+03  0.00000000000E+00 0. -1.
    2000013    1    1    2    0    0 -0.46568819769E+03 -0.22923204136E+03  0.63327570414E+03  0.12541734105E+04  0.95000000000E+03 0.  0.
   -2000013    1    1    2    0    0  0.46568819769E+03  0.22923204136E+03  0.28815354623E+03  0.11202434077E+04  0.95000000000E+03 0.  0.
<mgrwt>
<rscale>  0 0.21883380E+04</rscale>
<asrwt>0</asrwt>
<pdfrwt beam="1">  1        2 0.25352662E+00 0.21883380E+04</pdfrwt>
<pdfrwt beam="2">  1       -2 0.11176827E+00 0.21883380E+04</pdfrwt>
<totfact> 0.60639031E+00</totfact>
</mgrwt>
</event>
<event>
 4    1  0.1323225E-008  0.2666290E+04  0.7816531E-02  0.8346026E-01
          2   -1    0    0  501    0  0.00000000000E+00  0.00000000000E+00  0.22786110248E+04  0.22786110248E+04  0.00000000000E+00 0. -1.
         -2   -1    0    0    0  501 -0.00000000000E+00 -0.00000000000E+00 -0.77998180043E+03  0.77998180043E+03  0.00000000000E+00 0.  1.
    2000013    1    1    2    0    0 -0.86680388938E+03  0.15138059991E+03  0.38563487367E+03  0.13511030029E+04  0.95000000000E+03 0.  0.
   -2000013    1    1    2    0    0  0.86680388938E+03 -0.15138059991E+03  0.11129943507E+04  0.17074898224E+04  0.95000000000E+03 0.  0.
<mgrwt>
<rscale>  0 0.26662897E+04</rscale>
<asrwt>0</asrwt>
<pdfrwt beam="1">  1        2 0.35055554E+00 0.26662897E+04</pdfrwt>
<pdfrwt beam="2">  1       -2 0.11999720E+00 0.26662897E+04</pdfrwt>
<totfact> 0.21776656E+00</totfact>
</mgrwt>
</event>
<event>
 4    1  0.1323225E-008  0.2333064E+04  0.7816531E-02  0.8464997E-01
         -2   -1    0    0    0  501 -0.00000000000E+00  0.00000000000E+00  0.83127878992E+03  0.83127878992E+03  0.00000000000E+00 0. -1.
          2   -1    0    0  501    0  0.00000000000E+00 -0.00000000000E+00 -0.16369925922E+04  0.16369925922E+04  0.00000000000E+00 0.  1.
    2000013    1    1    2    0    0 -0.57020578510E+03 -0.31589249154E+02 -0.78746989075E+03  0.13596842821E+04  0.95000000000E+03 0.  0.
   -2000013    1    1    2    0    0  0.57020578510E+03  0.31589249154E+02 -0.18243911489E+02  0.11085871000E+04  0.95000000000E+03 0.  0.
<mgrwt>
<rscale>  0 0.23330643E+04</rscale>
<asrwt>0</asrwt>
<pdfrwt beam="2">  1        2 0.25184501E+00 0.23330643E+04</pdfrwt>
<pdfrwt beam="1">  1       -2 0.12788905E+00 0.23330643E+04</pdfrwt>
<totfact> 0.43526641E+00</totfact>
</mgrwt>
</event>
<event>
 4    1  0.1323225E-008  0.2324058E+04  0.7816531E-02  0.8468495E-01
         -2   -1    0    0    0  501 -0.00000000000E+00  0.00000000000E+00  0.61295155672E+03  0.61295155672E+03  0.00000000000E+00 0. -1.
          2   -1    0    0  501    0  0.00000000000E+00 -0.00000000000E+00 -0.22029663656E+04  0.22029663656E+04  0.00000000000E+00 0.  1.
    2000013    1    1    2    0    0  0.31920963718E+01 -0.63919051570E+03 -0.10350126058E+04  0.15434784737E+04  0.95000000000E+03 0.  0.
   -2000013    1    1    2    0    0 -0.31920963718E+01  0.63919051570E+03 -0.55500220315E+03  0.12724394486E+04  0.95000000000E+03 0.  0.
<mgrwt>
<rscale>  0 0.23240582E+04</rscale>
<asrwt>0</asrwt>
<pdfrwt beam="2">  1        2 0.33891790E+00 0.23240582E+04</pdfrwt>
<pdfrwt beam="1">  1       -2 0.94300240E-01 0.23240582E+04</pdfrwt>
<totfact> 0.44130272E+00</totfact>
</mgrwt>
</event>
<event>
 4    1  0.1323225E-008  0.2216085E+04  0.7816531E-02  0.8511763E-01
         -2   -1    0    0    0  501 -0.00000000000E+00  0.00000000000E+00  0.34266390835E+03  0.34266390835E+03  0.00000000000E+00 0. -1.
          2   -1    0    0  501    0  0.00000000000E+00 -0.00000000000E+00 -0.35829821729E+04  0.35829821729E+04  0.00000000000E+00 0.  1.
    2000013    1    1    2    0    0 -0.35841686198E+03  0.43311307784E+03 -0.14501653665E+04  0.18225062895E+04  0.95000000000E+03 0.  0.
   -2000013    1    1    2    0    0  0.35841686198E+03 -0.43311307784E+03 -0.17901528980E+04  0.21031397917E+04  0.95000000000E+03 0.  0.
<mgrwt>
<rscale>  0 0.22160854E+04</rscale>
<asrwt>0</asrwt>
<pdfrwt beam="2">  1        2 0.55122805E+00 0.22160854E+04</pdfrwt>
<pdfrwt beam="1">  1       -2 0.52717522E-01 0.22160854E+04</pdfrwt>
<totfact> 0.22087766E+00</totfact>
</mgrwt>
</event>
<event>
 4    1  0.1323225E-008  0.2428383E+04  0.7816531E-02  0.8428953E-01
          2   -1    0    0  501    0  0.00000000000E+00  0.00000000000E+00  0.67990546221E+03  0.67990546221E+03  0.00000000000E+00 0.  1.
         -2   -1    0    0    0  501 -0.00000000000E+00 -0.00000000000E+00 -0.21683318115E+04  0.21683318115E+04  0.00000000000E+00 0. -1.
    2000013    1    1    2    0    0 -0.54927316550E+03 -0.82624898156E+02 -0.13459810524E+04  0.17385893355E+04  0.95000000000E+03 0.  0.
   -2000013    1    1    2    0    0  0.54927316550E+03  0.82624898156E+02 -0.14244529689E+03  0.11096479382E+04  0.95000000000E+03 0.  0.
<mgrwt>
<rscale>  0 0.24283827E+04</rscale>
<asrwt>0</asrwt>
<pdfrwt beam="1">  1        2 0.10460084E+00 0.24283827E+04</pdfrwt>
<pdfrwt beam="2">  1       -2 0.33358951E+00 0.24283827E+04</pdfrwt>
<totfact> 0.75236544E-01</totfact>
</mgrwt>
</event>
<event>
 4    1  0.1323225E-008  0.2509207E+04  0.7816531E-02  0.8399713E-01
         -2   -1    0    0    0  501 -0.00000000000E+00  0.00000000000E+00  0.12810013603E+04  0.12810013603E+04  0.00000000000E+00 0. -1.
          2   -1    0    0  501    0  0.00000000000E+00 -0.00000000000E+00 -0.12287495498E+04  0.12287495498E+04  0.00000000000E+00 0.  1.
    2000013    1    1    2    0    0  0.28420747966E+03 -0.94016203274E+02 -0.73687425818E+03  0.12389901575E+04  0.95000000000E+03 0.  0.
   -2000013    1    1    2    0    0 -0.28420747966E+03  0.94016203274E+02  0.78912606869E+03  0.12707607526E+04  0.95000000000E+03 0.  0.
<mgrwt>
<rscale>  0 0.25092069E+04</rscale>
<asrwt>0</asrwt>
<pdfrwt beam="2">  1        2 0.18903839E+00 0.25092069E+04</pdfrwt>
<pdfrwt beam="1">  1       -2 0.19707713E+00 0.25092069E+04</pdfrwt>
<totfact> 0.22561085E+00</totfact>
</mgrwt>
</event>
<event>
 4    1  0.1323225E-008  0.2693274E+04  0.7816531E-02  0.8337191E-01
         -1   -1    0    0    0  501 -0.00000000000E+00  0.00000000000E+00  0.15686488283E+04  0.15686488283E+04  0.00000000000E+00 0. -1.
          1   -1    0    0  501    0  0.00000000000E+00 -0.00000000000E+00 -0.11560466134E+04  0.11560466134E+04  0.00000000000E+00 0.  1.
    2000013    1    1    2    0    0  0.58299884765E+03 -0.72507962482E+03  0.42162942051E+03  0.13949550125E+04  0.95000000000E+03 0.  0.
   -2000013    1    1    2    0    0 -0.58299884765E+03  0.72507962482E+03 -0.90272056201E+01  0.13297404292E+04  0.95000000000E+03 0.  0.
<mgrwt>
<rscale>  0 0.26932740E+04</rscale>
<asrwt>0</asrwt>
<pdfrwt beam="2">  1        1 0.17785333E+00 0.26932740E+04</pdfrwt>
<pdfrwt beam="1">  1       -1 0.24133059E+00 0.26932740E+04</pdfrwt>
<totfact> 0.79918057E-01</totfact>
</mgrwt>
</event>
<event>
 4    1  0.1323225E-008  0.2472914E+04  0.7816531E-02  0.8412699E-01
         -2   -1    0    0    0  501 -0.00000000000E+00  0.00000000000E+00  0.16475889513E+04  0.16475889513E+04  0.00000000000E+00 0. -1.
          2   -1    0    0  501    0  0.00000000000E+00 -0.00000000000E+00 -0.92791686971E+03  0.92791686971E+03  0.00000000000E+00 0.  1.
    2000013    1    1    2    0    0  0.73461416363E+03  0.28261068460E+03  0.27396037009E+03  0.12637567222E+04  0.95000000000E+03 0.  0.
   -2000013    1    1    2    0    0 -0.73461416363E+03 -0.28261068460E+03  0.44571171145E+03  0.13117490988E+04  0.95000000000E+03 0.  0.
<mgrwt>
<rscale>  0 0.24729137E+04</rscale>
<asrwt>0</asrwt>
<pdfrwt beam="2">  1        2 0.14275644E+00 0.24729137E+04</pdfrwt>
<pdfrwt beam="1">  1       -2 0.25347522E+00 0.24729137E+04</pdfrwt>
<totfact> 0.15353964E+00</totfact>
</mgrwt>
</event>
<event>
 4    1  0.1323225E-008  0.2251550E+04  0.7816531E-02  0.8497273E-01
         -2   -1    0    0    0  501 -0.00000000000E+00  0.00000000000E+00  0.49067608749E+03  0.49067608749E+03  0.00000000000E+00 0. -1.
          2   -1    0    0  501    0  0.00000000000E+00 -0.00000000000E+00 -0.25829046465E+04  0.25829046465E+04  0.00000000000E+00 0.  1.
    2000013    1    1    2    0    0  0.26355322757E+03 -0.23126428033E+03 -0.17175498359E+04  0.19938457588E+04  0.95000000000E+03 0.  0.
   -2000013    1    1    2    0    0 -0.26355322757E+03  0.23126428033E+03 -0.37467872314E+03  0.10797349752E+04  0.95000000000E+03 0.  0.
<mgrwt>
<rscale>  0 0.22515502E+04</rscale>
<asrwt>0</asrwt>
<pdfrwt beam="2">  1        2 0.39736995E+00 0.22515502E+04</pdfrwt>
<pdfrwt beam="1">  1       -2 0.75488628E-01 0.22515502E+04</pdfrwt>
<totfact> 0.44621915E+00</totfact>
</mgrwt>
</event>
<event>
 4    1  0.1323225E-008  0.2292175E+04  0.7816531E-02  0.8481013E-01
         -2   -1    0    0    0  501 -0.00000000000E+00  0.00000000000E+00  0.13161237673E+04  0.13161237673E+04  0.00000000000E+00 0. -1.
          2   -1    0    0  501    0  0.00000000000E+00 -0.00000000000E+00 -0.99801937681E+03  0.99801937681E+03  0.00000000000E+00 0.  1.
    2000013    1    1    2    0    0 -0.28035807113E+03  0.21293992107E+03 -0.38187462809E+03  0.10827152394E+04  0.95000000000E+03 0.  0.
   -2000013    1    1    2    0    0  0.28035807113E+03 -0.21293992107E+03  0.69997901853E+03  0.12314279047E+04  0.95000000000E+03 0.  0.
<mgrwt>
<rscale>  0 0.22921754E+04</rscale>
<asrwt>0</asrwt>
<pdfrwt beam="2">  1        2 0.15354144E+00 0.22921754E+04</pdfrwt>
<pdfrwt beam="1">  1       -2 0.20248058E+00 0.22921754E+04</pdfrwt>
<totfact> 0.29354248E+00</totfact>
</mgrwt>
</event>
<event>
 4    1  0.1323225E-008  0.2519678E+04  0.7816531E-02  0.8396009E-01
          2   -1    0    0  501    0  0.00000000000E+00  0.00000000000E+00  0.88760830834E+03  0.88760830834E+03  0.00000000000E+00 0. -1.
         -2   -1    0    0    0  501 -0.00000000000E+00 -0.00000000000E+00 -0.17881696068E+04  0.17881696068E+04  0.00000000000E+00 0.  1.
    2000013    1    1    2    0    0  0.20694334427E+03  0.37117845168E+03 -0.12042632436E+04  0.15916497575E+04  0.95000000000E+03 0.  0.
   -2000013    1    1    2    0    0 -0.20694334427E+03 -0.37117845168E+03  0.30370194511E+03  0.10841281576E+04  0.95000000000E+03 0.  0.
<mgrwt>
<rscale>  0 0.25196779E+04</rscale>
<asrwt>0</asrwt>
<pdfrwt beam="1">  1        2 0.13655513E+00 0.25196779E+04</pdfrwt>
<pdfrwt beam="2">  1       -2 0.27510301E+00 0.25196779E+04</pdfrwt>
<totfact> 0.12008891E+00</totfact>
</mgrwt>
</event>
<event>
 4    1  0.1323225E-008  0.2431315E+04  0.7816531E-02  0.8427872E-01
          2   -1    0    0  501    0  0.00000000000E+00  0.00000000000E+00  0.21728077245E+04  0.21728077245E+04  0.00000000000E+00 0.  1.
         -2   -1    0    0    0  501 -0.00000000000E+00 -0.00000000000E+00 -0.68014467365E+03  0.68014467365E+03  0.00000000000E+00 0. -1.
    2000013    1    1    2    0    0  0.29305170515E+03  0.69492392644E+03  0.84111762699E+03  0.14760682328E+04  0.95000000000E+03 0.  0.
   -2000013    1    1    2    0    0 -0.29305170515E+03 -0.69492392644E+03  0.65154542382E+03  0.13768841653E+04  0.95000000000E+03 0.  0.
<mgrwt>
<rscale>  0 0.24313154E+04</rscale>
<asrwt>0</asrwt>
<pdfrwt beam="1">  1        2 0.33427811E+00 0.24313154E+04</pdfrwt>
<pdfrwt beam="2">  1       -2 0.10463764E+00 0.24313154E+04</pdfrwt>
<totfact> 0.35555982E+00</totfact>
</mgrwt>
</event>
<event>
 4    1  0.1323225E-008  0.3325566E+04  0.7816531E-02  0.8156420E-01
          2   -1    0    0  501    0  0.00000000000E+00  0.00000000000E+00  0.24902221724E+04  0.24902221724E+04  0.00000000000E+00 0.  1.
         -2   -1    0    0    0  501 -0.00000000000E+00 -0.00000000000E+00 -0.11102812230E+04  0.11102812230E+04  0.00000000000E+00 0. -1.
    2000013    1    1    2    0    0  0.90825936205E+03  0.61179789166E+03  0.15716122735E+04  0.21381526763E+04  0.95000000000E+03 0.  0.
   -2000013    1    1    2    0    0 -0.90825936205E+03 -0.61179789166E+03 -0.19167132411E+03  0.14623507190E+04  0.95000000000E+03 0.  0.
<mgrwt>
<rscale>  0 0.33255658E+04</rscale>
<asrwt>0</asrwt>
<pdfrwt beam="1">  1        2 0.38311110E+00 0.33255658E+04</pdfrwt>
<pdfrwt beam="2">  1       -2 0.17081250E+00 0.33255658E+04</pdfrwt>
<totfact> 0.61813936E-01</totfact>
</mgrwt>
</event>
<event>
 4    1  0.1323225E-008  0.4657423E+04  0.7816531E-02  0.7883642E-01
          2   -1    0    0  501    0  0.00000000000E+00  0.00000000000E+00  0.18105701278E+04  0.18105701278E+04  0.00000000000E+00 0.  1.
         -2   -1    0    0    0  501 -0.00000000000E+00 -0.00000000000E+00 -0.29951330364E+04  0.29951330364E+04  0.00000000000E+00 0. -1.
    2000013    1    1    2    0    0  0.13653096628E+04  0.15676499904E+04 -0.13221457238E+03  0.22894492047E+04  0.95000000000E+03 0.  0.
   -2000013    1    1    2    0    0 -0.13653096628E+04 -0.15676499904E+04 -0.10523483361E+04  0.25162539595E+04  0.95000000000E+03 0.  0.
<mgrwt>
<rscale>  0 0.46574235E+04</rscale>
<asrwt>0</asrwt>
<pdfrwt beam="1">  1        2 0.27854925E+00 0.46574235E+04</pdfrwt>
<pdfrwt beam="2">  1       -2 0.46078969E+00 0.46574235E+04</pdfrwt>
<totfact> 0.18807717E-02</totfact>
</mgrwt>
</event>
<event>
 4    1  0.1323225E-008  0.2729114E+04  0.7816531E-02  0.8325620E-01
         -2   -1    0    0    0  501 -0.00000000000E+00  0.00000000000E+00  0.10316911695E+04  0.10316911695E+04  0.00000000000E+00 0. -1.
          2   -1    0    0  501    0  0.00000000000E+00 -0.00000000000E+00 -0.18048187464E+04  0.18048187464E+04  0.00000000000E+00 0.  1.
    2000013    1    1    2    0    0 -0.97176635693E+03 -0.98583455819E+02 -0.30971487830E+03  0.13973087905E+04  0.95000000000E+03 0.  0.
   -2000013    1    1    2    0    0  0.97176635693E+03  0.98583455819E+02 -0.46341269860E+03  0.14392011254E+04  0.95000000000E+03 0.  0.
<mgrwt>
<rscale>  0 0.27291138E+04</rscale>
<asrwt>0</asrwt>
<pdfrwt beam="2">  1        2 0.27766442E+00 0.27291138E+04</pdfrwt>
<pdfrwt beam="1">  1       -2 0.15872172E+00 0.27291138E+04</pdfrwt>
<totfact> 0.19326241E+00</totfact>
</mgrwt>
</event>
<event>
 4    1  0.1323225E-008  0.2838447E+04  0.7816531E-02  0.8291431E-01
          1   -1    0    0  501    0  0.00000000000E+00  0.00000000000E+00  0.39390287359E+04  0.39390287359E+04  0.00000000000E+00 0.  1.
         -1   -1    0    0    0  501 -0.00000000000E+00 -0.00000000000E+00 -0.51134317177E+03  0.51134317177E+03  0.00000000000E+00 0. -1.
    2000013    1    1    2    0    0  0.10432890808E+04 -0.15183836565E+03  0.17353664407E+04  0.22417635199E+04  0.95000000000E+03 0.  0.
   -2000013    1    1    2    0    0 -0.10432890808E+04  0.15183836565E+03  0.16923191234E+04  0.22086083878E+04  0.95000000000E+03 0.  0.
<mgrwt>
<rscale>  0 0.28384471E+04</rscale>
<asrwt>0</asrwt>
<pdfrwt beam="1">  1        1 0.60600440E+00 0.28384471E+04</pdfrwt>
<pdfrwt beam="2">  1       -1 0.78668183E-01 0.28384471E+04</pdfrwt>
<totfact> 0.15132704E-01</totfact>
</mgrwt>
</event>
<event>
 4    1  0.1323225E-008  0.2946399E+04  0.7816531E-02  0.8259205E-01
         -2   -1    0    0    0  501 -0.00000000000E+00  0.00000000000E+00  0.11354373998E+04  0.11354373998E+04  0.00000000000E+00 0. -1.
          2   -1    0    0  501    0  0.00000000000E+00 -0.00000000000E+00 -0.19114363291E+04  0.19114363291E+04  0.00000000000E+00 0.  1.
    2000013    1    1    2    0    0 -0.98543695247E+03  0.51772621721E+03 -0.56315636468E+03  0.15680470383E+04  0.95000000000E+03 0.  0.
   -2000013    1    1    2    0    0  0.98543695247E+03 -0.51772621721E+03 -0.21284256461E+03  0.14788266905E+04  0.95000000000E+03 0.  0.
<mgrwt>
<rscale>  0 0.29463987E+04</rscale>
<asrwt>0</asrwt>
<pdfrwt beam="2">  1        2 0.29406713E+00 0.29463987E+04</pdfrwt>
<pdfrwt beam="1">  1       -2 0.17468268E+00 0.29463987E+04</pdfrwt>
<totfact> 0.12707939E+00</totfact>
</mgrwt>
</event>
<event>
 4    1  0.1323225E-008  0.3247639E+04  0.7816531E-02  0.8176348E-01
         -4   -1    0    0    0  501 -0.00000000000E+00  0.00000000000E+00  0.14864781620E+04  0.14864781620E+04  0.00000000000E+00 0. -1.
          4   -1    0    0  501    0  0.00000000000E+00 -0.00000000000E+00 -0.17738499393E+04  0.17738499393E+04  0.00000000000E+00 0.  1.
    2000013    1    1    2    0    0 -0.27668644947E+03  0.12801105905E+04 -0.51223798202E+01  0.16179507885E+04  0.95000000000E+03 0.  0.
   -2000013    1    1    2    0    0  0.27668644947E+03 -0.12801105905E+04 -0.28224939756E+03  0.16423773128E+04  0.95000000000E+03 0.  0.
<mgrwt>
<rscale>  0 0.32476386E+04</rscale>
<asrwt>0</asrwt>
<pdfrwt beam="2">  1        4 0.27289999E+00 0.32476386E+04</pdfrwt>
<pdfrwt beam="1">  1       -4 0.22868895E+00 0.32476386E+04</pdfrwt>
<totfact> 0.64897155E-03</totfact>
</mgrwt>
</event>
