<event>
 4    1  0.1343107E-008  0.2914669E+04  0.7816531E-02  0.8268526E-01
          4   -1    0    0  501    0  0.00000000000E+00  0.00000000000E+00  0.12183134070E+04  0.12183134070E+04  0.00000000000E+00 0.  1.
         -4   -1    0    0    0  501 -0.00000000000E+00 -0.00000000000E+00 -0.17432488324E+04  0.17432488324E+04  0.00000000000E+00 0. -1.
    2000013    1    1    2    0    0  0.20387359839E+02  0.68055507748E+03  0.62202726889E+03  0.13240048267E+04  0.95000000000E+03 0.  0.
   -2000013    1    1    2    0    0 -0.20387359839E+02 -0.68055507748E+03 -0.11469626943E+04  0.16375574127E+04  0.95000000000E+03 0.  0.
<mgrwt>
<rscale>  0 0.29146687E+04</rscale>
<asrwt>0</asrwt>
<pdfrwt beam="1">  1        4 0.18743283E+00 0.29146687E+04</pdfrwt>
<pdfrwt beam="2">  1       -4 0.26819213E+00 0.29146687E+04</pdfrwt>
<totfact> 0.13322749E-02</totfact>
</mgrwt>
</event>
<event>
 4    1  0.1343107E-008  0.3574954E+04  0.7816531E-02  0.8096253E-01
         -2   -1    0    0    0  501 -0.00000000000E+00  0.00000000000E+00  0.18669344956E+04  0.18669344956E+04  0.00000000000E+00 0. -1.
          2   -1    0    0  501    0  0.00000000000E+00 -0.00000000000E+00 -0.17114015460E+04  0.17114015460E+04  0.00000000000E+00 0.  1.
    2000013    1    1    2    0    0  0.15085868391E+04 -0.19837691608E+01  0.20725807443E+03  0.17947963939E+04  0.95000000000E+03 0.  0.
   -2000013    1    1    2    0    0 -0.15085868391E+04  0.19837691608E+01 -0.51725124877E+02  0.17835396477E+04  0.95000000000E+03 0.  0.
<mgrwt>
<rscale>  0 0.35749543E+04</rscale>
<asrwt>0</asrwt>
<pdfrwt beam="2">  1        2 0.26329255E+00 0.35749543E+04</pdfrwt>
<pdfrwt beam="1">  1       -2 0.28722069E+00 0.35749543E+04</pdfrwt>
<totfact> 0.30031536E-01</totfact>
</mgrwt>
</event>
<event>
 4    1  0.1343107E-008  0.2815046E+04  0.7816531E-02  0.8298613E-01
         -2   -1    0    0    0  501 -0.00000000000E+00  0.00000000000E+00  0.10123022216E+04  0.10123022216E+04  0.00000000000E+00 0. -1.
          2   -1    0    0  501    0  0.00000000000E+00 -0.00000000000E+00 -0.19570443250E+04  0.19570443250E+04  0.00000000000E+00 0.  1.
    2000013    1    1    2    0    0  0.96653700172E+03 -0.19803399038E+03 -0.81450965475E+03  0.15935297972E+04  0.95000000000E+03 0.  0.
   -2000013    1    1    2    0    0 -0.96653700172E+03  0.19803399038E+03 -0.13023244863E+03  0.13758167493E+04  0.95000000000E+03 0.  0.
<mgrwt>
<rscale>  0 0.28150455E+04</rscale>
<asrwt>0</asrwt>
<pdfrwt beam="2">  1        2 0.30108374E+00 0.28150455E+04</pdfrwt>
<pdfrwt beam="1">  1       -2 0.15573881E+00 0.28150455E+04</pdfrwt>
<totfact> 0.16629041E+00</totfact>
</mgrwt>
</event>
<event>
 4    1  0.1343107E-008  0.2021571E+04  0.7816531E-02  0.8596601E-01
         -2   -1    0    0    0  501 -0.00000000000E+00  0.00000000000E+00  0.85904082061E+03  0.85904082061E+03  0.00000000000E+00 0. -1.
          2   -1    0    0  501    0  0.00000000000E+00 -0.00000000000E+00 -0.11893355658E+04  0.11893355658E+04  0.00000000000E+00 0.  1.
    2000013    1    1    2    0    0 -0.32094985223E+03 -0.96550123701E+02 -0.24905275858E+03  0.10377176931E+04  0.95000000000E+03 0.  0.
   -2000013    1    1    2    0    0  0.32094985223E+03  0.96550123701E+02 -0.81241986665E+02  0.10106586933E+04  0.95000000000E+03 0.  0.
<mgrwt>
<rscale>  0 0.20215715E+04</rscale>
<asrwt>0</asrwt>
<pdfrwt beam="2">  1        2 0.18297470E+00 0.20215715E+04</pdfrwt>
<pdfrwt beam="1">  1       -2 0.13216013E+00 0.20215715E+04</pdfrwt>
<totfact> 0.74259129E+00</totfact>
</mgrwt>
</event>
<event>
 4    1  0.1343107E-008  0.2153767E+04  0.7816531E-02  0.8537922E-01
         -2   -1    0    0    0  501 -0.00000000000E+00  0.00000000000E+00  0.69956442960E+03  0.69956442960E+03  0.00000000000E+00 0. -1.
          2   -1    0    0  501    0  0.00000000000E+00 -0.00000000000E+00 -0.16577140541E+04  0.16577140541E+04  0.00000000000E+00 0.  1.
    2000013    1    1    2    0    0  0.46816010500E+03 -0.58456839282E+01 -0.26580421454E+03  0.10919523508E+04  0.95000000000E+03 0.  0.
   -2000013    1    1    2    0    0 -0.46816010500E+03  0.58456839282E+01 -0.69234540996E+03  0.12653261329E+04  0.95000000000E+03 0.  0.
<mgrwt>
<rscale>  0 0.21537667E+04</rscale>
<asrwt>0</asrwt>
<pdfrwt beam="2">  1        2 0.25503293E+00 0.21537667E+04</pdfrwt>
<pdfrwt beam="1">  1       -2 0.10762530E+00 0.21537667E+04</pdfrwt>
<totfact> 0.65803836E+00</totfact>
</mgrwt>
</event>
<event>
 4    1  0.1343107E-008  0.2210778E+04  0.7816531E-02  0.8513956E-01
          2   -1    0    0  501    0  0.00000000000E+00  0.00000000000E+00  0.10592513705E+04  0.10592513705E+04  0.00000000000E+00 0. -1.
         -2   -1    0    0    0  501 -0.00000000000E+00 -0.00000000000E+00 -0.11535357582E+04  0.11535357582E+04  0.00000000000E+00 0.  1.
    2000013    1    1    2    0    0 -0.28359914521E+03  0.43086658388E+03  0.18395693108E+03  0.10965466888E+04  0.95000000000E+03 0.  0.
   -2000013    1    1    2    0    0  0.28359914521E+03 -0.43086658388E+03 -0.27824131880E+03  0.11162404399E+04  0.95000000000E+03 0.  0.
<mgrwt>
<rscale>  0 0.22107775E+04</rscale>
<asrwt>0</asrwt>
<pdfrwt beam="1">  1        2 0.16296175E+00 0.22107775E+04</pdfrwt>
<pdfrwt beam="2">  1       -2 0.17746704E+00 0.22107775E+04</pdfrwt>
<totfact> 0.39822753E+00</totfact>
</mgrwt>
</event>
<event>
 4    1  0.1343107E-008  0.3294321E+04  0.7816531E-02  0.8164342E-01
          2   -1    0    0  501    0  0.00000000000E+00  0.00000000000E+00  0.13444882248E+04  0.13444882248E+04  0.00000000000E+00 0.  1.
         -2   -1    0    0    0  501 -0.00000000000E+00 -0.00000000000E+00 -0.20179703856E+04  0.20179703856E+04  0.00000000000E+00 0. -1.
    2000013    1    1    2    0    0 -0.11137217102E+04 -0.35256767405E+03 -0.10183538961E+04  0.18177526428E+04  0.95000000000E+03 0.  0.
   -2000013    1    1    2    0    0  0.11137217102E+04  0.35256767405E+03  0.34487173528E+03  0.15447059676E+04  0.95000000000E+03 0.  0.
<mgrwt>
<rscale>  0 0.32943208E+04</rscale>
<asrwt>0</asrwt>
<pdfrwt beam="1">  1        2 0.20684434E+00 0.32943208E+04</pdfrwt>
<pdfrwt beam="2">  1       -2 0.31045698E+00 0.32943208E+04</pdfrwt>
<totfact> 0.35677840E-01</totfact>
</mgrwt>
</event>
<event>
 4    1  0.1343107E-008  0.2270948E+04  0.7816531E-02  0.8489465E-01
         -2   -1    0    0    0  501 -0.00000000000E+00  0.00000000000E+00  0.17478901788E+04  0.17478901788E+04  0.00000000000E+00 0. -1.
          2   -1    0    0  501    0  0.00000000000E+00 -0.00000000000E+00 -0.73763262723E+03  0.73763262723E+03  0.00000000000E+00 0.  1.
    2000013    1    1    2    0    0  0.40684188779E+03  0.32790602290E+03  0.87427792675E+03  0.13928045716E+04  0.95000000000E+03 0.  0.
   -2000013    1    1    2    0    0 -0.40684188779E+03 -0.32790602290E+03  0.13597962486E+03  0.10927182344E+04  0.95000000000E+03 0.  0.
<mgrwt>
<rscale>  0 0.22709477E+04</rscale>
<asrwt>0</asrwt>
<pdfrwt beam="2">  1        2 0.11348194E+00 0.22709477E+04</pdfrwt>
<pdfrwt beam="1">  1       -2 0.26890618E+00 0.22709477E+04</pdfrwt>
<totfact> 0.17138220E+00</totfact>
</mgrwt>
</event>
<event>
 4    1  0.1343107E-008  0.2545097E+04  0.7816531E-02  0.8387093E-01
         -2   -1    0    0    0  501 -0.00000000000E+00  0.00000000000E+00  0.95298984465E+03  0.95298984465E+03  0.00000000000E+00 0. -1.
          2   -1    0    0  501    0  0.00000000000E+00 -0.00000000000E+00 -0.16992620868E+04  0.16992620868E+04  0.00000000000E+00 0.  1.
    2000013    1    1    2    0    0 -0.69111437343E+03 -0.44921733869E+03 -0.57478826251E+03  0.13828654458E+04  0.95000000000E+03 0.  0.
   -2000013    1    1    2    0    0  0.69111437343E+03  0.44921733869E+03 -0.17148397960E+03  0.12693864856E+04  0.95000000000E+03 0.  0.
<mgrwt>
<rscale>  0 0.25450969E+04</rscale>
<asrwt>0</asrwt>
<pdfrwt beam="2">  1        2 0.26142494E+00 0.25450969E+04</pdfrwt>
<pdfrwt beam="1">  1       -2 0.14661382E+00 0.25450969E+04</pdfrwt>
<totfact> 0.27765152E+00</totfact>
</mgrwt>
</event>
<event>
 4    1  0.1343107E-008  0.2585468E+04  0.7816531E-02  0.8373154E-01
          2   -1    0    0  501    0  0.00000000000E+00  0.00000000000E+00  0.52960755921E+03  0.52960755921E+03  0.00000000000E+00 0.  1.
         -2   -1    0    0    0  501 -0.00000000000E+00 -0.00000000000E+00 -0.31554714492E+04  0.31554714492E+04  0.00000000000E+00 0. -1.
    2000013    1    1    2    0    0  0.62910300128E+03 -0.53979918786E+03 -0.90601372798E+03  0.15525832102E+04  0.95000000000E+03 0.  0.
   -2000013    1    1    2    0    0 -0.62910300128E+03  0.53979918786E+03 -0.17198501620E+04  0.21324957981E+04  0.95000000000E+03 0.  0.
<mgrwt>
<rscale>  0 0.25854683E+04</rscale>
<asrwt>0</asrwt>
<pdfrwt beam="1">  1        2 0.81478087E-01 0.25854683E+04</pdfrwt>
<pdfrwt beam="2">  1       -2 0.48545714E+00 0.25854683E+04</pdfrwt>
<totfact> 0.10355955E-01</totfact>
</mgrwt>
</event>
<event>
 4    1  0.1343107E-008  0.2312820E+04  0.7816531E-02  0.8472884E-01
         -2   -1    0    0    0  501 -0.00000000000E+00  0.00000000000E+00  0.12546860722E+04  0.12546860722E+04  0.00000000000E+00 0. -1.
          2   -1    0    0  501    0  0.00000000000E+00 -0.00000000000E+00 -0.10658313162E+04  0.10658313162E+04  0.00000000000E+00 0.  1.
    2000013    1    1    2    0    0  0.33488922251E+03 -0.16149229483E+03 -0.45195203734E+03  0.11157917354E+04  0.95000000000E+03 0.  0.
   -2000013    1    1    2    0    0 -0.33488922251E+03  0.16149229483E+03  0.64080679331E+03  0.12047256530E+04  0.95000000000E+03 0.  0.
<mgrwt>
<rscale>  0 0.23128197E+04</rscale>
<asrwt>0</asrwt>
<pdfrwt beam="2">  1        2 0.16397405E+00 0.23128197E+04</pdfrwt>
<pdfrwt beam="1">  1       -2 0.19302863E+00 0.23128197E+04</pdfrwt>
<totfact> 0.30646688E+00</totfact>
</mgrwt>
</event>
<event>
 4    1  0.1343107E-008  0.2418007E+04  0.7816531E-02  0.8432793E-01
         -2   -1    0    0    0  501 -0.00000000000E+00  0.00000000000E+00  0.12116750126E+04  0.12116750126E+04  0.00000000000E+00 0. -1.
          2   -1    0    0  501    0  0.00000000000E+00 -0.00000000000E+00 -0.12063380427E+04  0.12063380427E+04  0.00000000000E+00 0.  1.
    2000013    1    1    2    0    0 -0.57749588655E+03 -0.39270168178E+03  0.27001451821E+03  0.12095966063E+04  0.95000000000E+03 0.  0.
   -2000013    1    1    2    0    0  0.57749588655E+03  0.39270168178E+03 -0.26467754833E+03  0.12084164491E+04  0.95000000000E+03 0.  0.
<mgrwt>
<rscale>  0 0.24180072E+04</rscale>
<asrwt>0</asrwt>
<pdfrwt beam="2">  1        2 0.18559047E+00 0.24180072E+04</pdfrwt>
<pdfrwt beam="1">  1       -2 0.18641154E+00 0.24180072E+04</pdfrwt>
<totfact> 0.27630620E+00</totfact>
</mgrwt>
</event>
<event>
 4    1  0.1343107E-008  0.2802993E+04  0.7816531E-02  0.8302340E-01
         -2   -1    0    0    0  501 -0.00000000000E+00  0.00000000000E+00  0.45284143424E+03  0.45284143424E+03  0.00000000000E+00 0. -1.
          2   -1    0    0  501    0  0.00000000000E+00 -0.00000000000E+00 -0.43374847934E+04  0.43374847934E+04  0.00000000000E+00 0.  1.
    2000013    1    1    2    0    0  0.37837089592E+03 -0.88529438728E+03 -0.13149004349E+04  0.18863652459E+04  0.95000000000E+03 0.  0.
   -2000013    1    1    2    0    0 -0.37837089592E+03  0.88529438728E+03 -0.25697429243E+04  0.29039609818E+04  0.95000000000E+03 0.  0.
<mgrwt>
<rscale>  0 0.28029933E+04</rscale>
<asrwt>0</asrwt>
<pdfrwt beam="2">  1        2 0.66730537E+00 0.28029933E+04</pdfrwt>
<pdfrwt beam="1">  1       -2 0.69667911E-01 0.28029933E+04</pdfrwt>
<totfact> 0.28692425E-01</totfact>
</mgrwt>
</event>
<event>
 4    1  0.1343107E-008  0.2563964E+04  0.7816531E-02  0.8380546E-01
          2   -1    0    0  501    0  0.00000000000E+00  0.00000000000E+00  0.19164984312E+04  0.19164984312E+04  0.00000000000E+00 0. -1.
         -2   -1    0    0    0  501 -0.00000000000E+00 -0.00000000000E+00 -0.85754172587E+03  0.85754172587E+03  0.00000000000E+00 0.  1.
    2000013    1    1    2    0    0  0.30928312829E+03 -0.65136803847E+02  0.13957547761E+04  0.17177107590E+04  0.95000000000E+03 0.  0.
   -2000013    1    1    2    0    0 -0.30928312829E+03  0.65136803847E+02 -0.33679807079E+03  0.10563293980E+04  0.95000000000E+03 0.  0.
<mgrwt>
<rscale>  0 0.25639636E+04</rscale>
<asrwt>0</asrwt>
<pdfrwt beam="1">  1        2 0.29484591E+00 0.25639636E+04</pdfrwt>
<pdfrwt beam="2">  1       -2 0.13192950E+00 0.25639636E+04</pdfrwt>
<totfact> 0.27597658E+00</totfact>
</mgrwt>
</event>
<event>
 4    1  0.1343107E-008  0.2338399E+04  0.7816531E-02  0.8462933E-01
         -2   -1    0    0    0  501 -0.00000000000E+00  0.00000000000E+00  0.46306064686E+03  0.46306064686E+03  0.00000000000E+00 0. -1.
          2   -1    0    0  501    0  0.00000000000E+00 -0.00000000000E+00 -0.29521558595E+04  0.29521558595E+04  0.00000000000E+00 0.  1.
    2000013    1    1    2    0    0 -0.31731867955E+03 -0.58474691773E+03 -0.10283792553E+04  0.15500593521E+04  0.95000000000E+03 0.  0.
   -2000013    1    1    2    0    0  0.31731867955E+03  0.58474691773E+03 -0.14607159574E+04  0.18651571543E+04  0.95000000000E+03 0.  0.
<mgrwt>
<rscale>  0 0.23383988E+04</rscale>
<asrwt>0</asrwt>
<pdfrwt beam="2">  1        2 0.45417781E+00 0.23383988E+04</pdfrwt>
<pdfrwt beam="1">  1       -2 0.71240102E-01 0.23383988E+04</pdfrwt>
<totfact> 0.30169949E+00</totfact>
</mgrwt>
</event>
<event>
 4    1  0.1343107E-008  0.2129038E+04  0.7816531E-02  0.8548559E-01
          2   -1    0    0  501    0  0.00000000000E+00  0.00000000000E+00  0.13145465784E+04  0.13145465784E+04  0.00000000000E+00 0.  1.
         -2   -1    0    0    0  501 -0.00000000000E+00 -0.00000000000E+00 -0.86204697717E+03  0.86204697717E+03  0.00000000000E+00 0. -1.
    2000013    1    1    2    0    0  0.63034821798E+01  0.37361967640E+03 -0.82268110212E+02  0.10241579167E+04  0.95000000000E+03 0.  0.
   -2000013    1    1    2    0    0 -0.63034821798E+01 -0.37361967640E+03  0.53476771149E+03  0.11524356389E+04  0.95000000000E+03 0.  0.
<mgrwt>
<rscale>  0 0.21290382E+04</rscale>
<asrwt>0</asrwt>
<pdfrwt beam="1">  1        2 0.20223793E+00 0.21290382E+04</pdfrwt>
<pdfrwt beam="2">  1       -2 0.13262261E+00 0.21290382E+04</pdfrwt>
<totfact> 0.61538488E+00</totfact>
</mgrwt>
</event>
<event>
 4    1  0.1343107E-008  0.2085963E+04  0.7816531E-02  0.8567452E-01
         -2   -1    0    0    0  501 -0.00000000000E+00  0.00000000000E+00  0.50870807731E+03  0.50870807731E+03  0.00000000000E+00 0. -1.
          2   -1    0    0  501    0  0.00000000000E+00 -0.00000000000E+00 -0.21383779358E+04  0.21383779358E+04  0.00000000000E+00 0.  1.
    2000013    1    1    2    0    0  0.37194608252E+03 -0.18394277728E+03 -0.96025196317E+03  0.14130685286E+04  0.95000000000E+03 0.  0.
   -2000013    1    1    2    0    0 -0.37194608252E+03  0.18394277728E+03 -0.66941789534E+03  0.12340174846E+04  0.95000000000E+03 0.  0.
<mgrwt>
<rscale>  0 0.20859627E+04</rscale>
<asrwt>0</asrwt>
<pdfrwt beam="2">  1        2 0.32898122E+00 0.20859627E+04</pdfrwt>
<pdfrwt beam="1">  1       -2 0.78262782E-01 0.20859627E+04</pdfrwt>
<totfact> 0.74917204E+00</totfact>
</mgrwt>
</event>
<event>
 4    1  0.1343107E-008  0.2536986E+04  0.7816531E-02  0.8389926E-01
          2   -1    0    0  501    0  0.00000000000E+00  0.00000000000E+00  0.31795290554E+04  0.31795290554E+04  0.00000000000E+00 0.  1.
         -2   -1    0    0    0  501 -0.00000000000E+00 -0.00000000000E+00 -0.50607323918E+03  0.50607323918E+03  0.00000000000E+00 0. -1.
    2000013    1    1    2    0    0  0.83942825057E+03  0.42878230966E+02  0.13224763358E+04  0.18324633664E+04  0.95000000000E+03 0.  0.
   -2000013    1    1    2    0    0 -0.83942825057E+03 -0.42878230966E+02  0.13509794805E+04  0.18531389282E+04  0.95000000000E+03 0.  0.
<mgrwt>
<rscale>  0 0.25369861E+04</rscale>
<asrwt>0</asrwt>
<pdfrwt beam="1">  1        2 0.48915830E+00 0.25369861E+04</pdfrwt>
<pdfrwt beam="2">  1       -2 0.77857424E-01 0.25369861E+04</pdfrwt>
<totfact> 0.17474077E+00</totfact>
</mgrwt>
</event>
<event>
 4    1  0.1343107E-008  0.2312012E+04  0.7816531E-02  0.8473200E-01
         -2   -1    0    0    0  501 -0.00000000000E+00  0.00000000000E+00  0.38724827534E+03  0.38724827534E+03  0.00000000000E+00 0. -1.
          2   -1    0    0  501    0  0.00000000000E+00 -0.00000000000E+00 -0.34508859181E+04  0.34508859181E+04  0.00000000000E+00 0.  1.
    2000013    1    1    2    0    0 -0.60935028490E+03 -0.98043766052E+02 -0.19137438026E+04  0.22239234905E+04  0.95000000000E+03 0.  0.
   -2000013    1    1    2    0    0  0.60935028490E+03  0.98043766052E+02 -0.11498938402E+04  0.16142107030E+04  0.95000000000E+03 0.  0.
<mgrwt>
<rscale>  0 0.23120118E+04</rscale>
<asrwt>0</asrwt>
<pdfrwt beam="2">  1        2 0.53090554E+00 0.23120118E+04</pdfrwt>
<pdfrwt beam="1">  1       -2 0.59576656E-01 0.23120118E+04</pdfrwt>
<totfact> 0.20994191E+00</totfact>
</mgrwt>
</event>
<event>
 4    1  0.1343107E-008  0.2320899E+04  0.7816531E-02  0.8469726E-01
          2   -1    0    0  501    0  0.00000000000E+00  0.00000000000E+00  0.25834990352E+04  0.25834990352E+04  0.00000000000E+00 0.  1.
         -2   -1    0    0    0  501 -0.00000000000E+00 -0.00000000000E+00 -0.52124767012E+03  0.52124767012E+03  0.00000000000E+00 0. -1.
    2000013    1    1    2    0    0  0.28246094450E+03 -0.60342021166E+03  0.10519667057E+04  0.15662164879E+04  0.95000000000E+03 0.  0.
   -2000013    1    1    2    0    0 -0.28246094450E+03  0.60342021166E+03  0.10102846594E+04  0.15385302174E+04  0.95000000000E+03 0.  0.
<mgrwt>
<rscale>  0 0.23208988E+04</rscale>
<asrwt>0</asrwt>
<pdfrwt beam="1">  1        2 0.39746138E+00 0.23208988E+04</pdfrwt>
<pdfrwt beam="2">  1       -2 0.80191950E-01 0.23208988E+04</pdfrwt>
<totfact> 0.38723272E+00</totfact>
</mgrwt>
</event>
<event>
 4    1  0.1343107E-008  0.2347826E+04  0.7816531E-02  0.8459299E-01
         -1   -1    0    0    0  501 -0.00000000000E+00  0.00000000000E+00  0.42111061126E+03  0.42111061126E+03  0.00000000000E+00 0. -1.
          1   -1    0    0  501    0  0.00000000000E+00 -0.00000000000E+00 -0.32724686334E+04  0.32724686334E+04  0.00000000000E+00 0.  1.
    2000013    1    1    2    0    0  0.46117739954E+03 -0.41579950248E+03 -0.18976297606E+04  0.22111247203E+04  0.95000000000E+03 0.  0.
   -2000013    1    1    2    0    0 -0.46117739954E+03  0.41579950248E+03 -0.95372826147E+03  0.14824545244E+04  0.95000000000E+03 0.  0.
<mgrwt>
<rscale>  0 0.23478256E+04</rscale>
<asrwt>0</asrwt>
<pdfrwt beam="2">  1        1 0.50345673E+00 0.23478256E+04</pdfrwt>
<pdfrwt beam="1">  1       -1 0.64786246E-01 0.23478256E+04</pdfrwt>
<totfact> 0.81580013E-01</totfact>
</mgrwt>
</event>
<event>
 4    1  0.1343107E-008  0.2778171E+04  0.7816531E-02  0.8310078E-01
         -2   -1    0    0    0  501 -0.00000000000E+00  0.00000000000E+00  0.77796729078E+03  0.77796729078E+03  0.00000000000E+00 0. -1.
          2   -1    0    0  501    0  0.00000000000E+00 -0.00000000000E+00 -0.24802559902E+04  0.24802559902E+04  0.00000000000E+00 0.  1.
    2000013    1    1    2    0    0 -0.42219857500E+03 -0.72761445599E+03 -0.15139378337E+04  0.19753941879E+04  0.95000000000E+03 0.  0.
   -2000013    1    1    2    0    0  0.42219857500E+03  0.72761445599E+03 -0.18835086565E+03  0.12828290930E+04  0.95000000000E+03 0.  0.
<mgrwt>
<rscale>  0 0.27781706E+04</rscale>
<asrwt>0</asrwt>
<pdfrwt beam="2">  1        2 0.38157785E+00 0.27781706E+04</pdfrwt>
<pdfrwt beam="1">  1       -2 0.11968727E+00 0.27781706E+04</pdfrwt>
<totfact> 0.16647621E+00</totfact>
</mgrwt>
</event>
<event>
 4    1  0.1343107E-008  0.4470080E+04  0.7816531E-02  0.7915896E-01
         -2   -1    0    0    0  501 -0.00000000000E+00  0.00000000000E+00  0.20133401249E+04  0.20133401249E+04  0.00000000000E+00 0. -1.
          2   -1    0    0  501    0  0.00000000000E+00 -0.00000000000E+00 -0.24811527293E+04  0.24811527293E+04  0.00000000000E+00 0.  1.
    2000013    1    1    2    0    0 -0.15039556083E+04 -0.10688454459E+04 -0.10682522029E+04  0.23340899357E+04  0.95000000000E+03 0.  0.
   -2000013    1    1    2    0    0  0.15039556083E+04  0.10688454459E+04  0.60043959847E+03  0.21604029185E+04  0.95000000000E+03 0.  0.
<mgrwt>
<rscale>  0 0.44700802E+04</rscale>
<asrwt>0</asrwt>
<pdfrwt beam="2">  1        2 0.38171580E+00 0.44700802E+04</pdfrwt>
<pdfrwt beam="1">  1       -2 0.30974464E+00 0.44700802E+04</pdfrwt>
<totfact> 0.75092658E-02</totfact>
</mgrwt>
</event>
<event>
 4    1  0.1343107E-008  0.2421452E+04  0.7816531E-02  0.8431516E-01
          2   -1    0    0  501    0  0.00000000000E+00  0.00000000000E+00  0.32619312288E+03  0.32619312288E+03  0.00000000000E+00 0.  1.
         -2   -1    0    0    0  501 -0.00000000000E+00 -0.00000000000E+00 -0.44938321093E+04  0.44938321093E+04  0.00000000000E+00 0. -1.
    2000013    1    1    2    0    0  0.70361326755E+03  0.51291533416E+02 -0.15737770337E+04  0.19690039623E+04  0.95000000000E+03 0.  0.
   -2000013    1    1    2    0    0 -0.70361326755E+03 -0.51291533416E+02 -0.25938619527E+04  0.28510212699E+04  0.95000000000E+03 0.  0.
<mgrwt>
<rscale>  0 0.24214517E+04</rscale>
<asrwt>0</asrwt>
<pdfrwt beam="1">  1        2 0.50183557E-01 0.24214517E+04</pdfrwt>
<pdfrwt beam="2">  1       -2 0.69135879E+00 0.24214517E+04</pdfrwt>
<totfact> 0.21663045E-02</totfact>
</mgrwt>
</event>
<event>
 4    1  0.1343107E-008  0.2241949E+04  0.7816531E-02  0.8501168E-01
         -2   -1    0    0    0  501 -0.00000000000E+00  0.00000000000E+00  0.33219318219E+03  0.33219318219E+03  0.00000000000E+00 0. -1.
          2   -1    0    0  501    0  0.00000000000E+00 -0.00000000000E+00 -0.37826891482E+04  0.37826891482E+04  0.00000000000E+00 0.  1.
    2000013    1    1    2    0    0 -0.46764229787E+02  0.40716108780E+03 -0.25170638132E+04  0.27214108996E+04  0.95000000000E+03 0.  0.
   -2000013    1    1    2    0    0  0.46764229787E+02 -0.40716108780E+03 -0.93343215280E+03  0.13934714308E+04  0.95000000000E+03 0.  0.
<mgrwt>
<rscale>  0 0.22419487E+04</rscale>
<asrwt>0</asrwt>
<pdfrwt beam="2">  1        2 0.58195221E+00 0.22419487E+04</pdfrwt>
<pdfrwt beam="1">  1       -2 0.51106641E-01 0.22419487E+04</pdfrwt>
<totfact> 0.16766884E+00</totfact>
</mgrwt>
</event>
<event>
 4    1  0.1343107E-008  0.2442358E+04  0.7816531E-02  0.8423814E-01
          2   -1    0    0  501    0  0.00000000000E+00  0.00000000000E+00  0.22371662285E+04  0.22371662285E+04  0.00000000000E+00 0.  1.
         -2   -1    0    0    0  501 -0.00000000000E+00 -0.00000000000E+00 -0.66659232201E+03  0.66659232201E+03  0.00000000000E+00 0. -1.
    2000013    1    1    2    0    0  0.57035016648E+03 -0.33590694053E+03  0.32383270124E+03  0.12022896504E+04  0.95000000000E+03 0.  0.
   -2000013    1    1    2    0    0 -0.57035016648E+03  0.33590694053E+03  0.12467412052E+04  0.17014689001E+04  0.95000000000E+03 0.  0.
<mgrwt>
<rscale>  0 0.24423577E+04</rscale>
<asrwt>0</asrwt>
<pdfrwt beam="1">  1        2 0.34417942E+00 0.24423577E+04</pdfrwt>
<pdfrwt beam="2">  1       -2 0.10255267E+00 0.24423577E+04</pdfrwt>
<totfact> 0.34293171E+00</totfact>
</mgrwt>
</event>
<event>
 4    1  0.1343107E-008  0.2590333E+04  0.7816531E-02  0.8371492E-01
          2   -1    0    0  501    0  0.00000000000E+00  0.00000000000E+00  0.24970913781E+04  0.24970913781E+04  0.00000000000E+00 0.  1.
         -2   -1    0    0    0  501 -0.00000000000E+00 -0.00000000000E+00 -0.67176422313E+03  0.67176422313E+03  0.00000000000E+00 0. -1.
    2000013    1    1    2    0    0 -0.84213724764E+03 -0.21182634199E+03  0.10894820051E+04  0.16862789160E+04  0.95000000000E+03 0.  0.
   -2000013    1    1    2    0    0  0.84213724764E+03  0.21182634199E+03  0.73584514986E+03  0.14825766852E+04  0.95000000000E+03 0.  0.
<mgrwt>
<rscale>  0 0.25903333E+04</rscale>
<asrwt>0</asrwt>
<pdfrwt beam="1">  1        2 0.38416790E+00 0.25903333E+04</pdfrwt>
<pdfrwt beam="2">  1       -2 0.10334834E+00 0.25903333E+04</pdfrwt>
<totfact> 0.23617939E+00</totfact>
</mgrwt>
</event>
<event>
 4    1  0.1343107E-008  0.2896479E+04  0.7816531E-02  0.8273926E-01
         -2   -1    0    0    0  501 -0.00000000000E+00  0.00000000000E+00  0.25188766502E+04  0.25188766502E+04  0.00000000000E+00 0. -1.
          2   -1    0    0  501    0  0.00000000000E+00 -0.00000000000E+00 -0.83267190119E+03  0.83267190119E+03  0.00000000000E+00 0.  1.
    2000013    1    1    2    0    0  0.10323860132E+04 -0.28893808477E+03  0.59603348413E+03  0.15514709186E+04  0.95000000000E+03 0.  0.
   -2000013    1    1    2    0    0 -0.10323860132E+04  0.28893808477E+03  0.10901712648E+04  0.18000776327E+04  0.95000000000E+03 0.  0.
<mgrwt>
<rscale>  0 0.28964791E+04</rscale>
<asrwt>0</asrwt>
<pdfrwt beam="2">  1        2 0.12810337E+00 0.28964791E+04</pdfrwt>
<pdfrwt beam="1">  1       -2 0.38751948E+00 0.28964791E+04</pdfrwt>
<totfact> 0.25212474E-01</totfact>
</mgrwt>
</event>
<event>
 4    1  0.1343107E-008  0.2400097E+04  0.7816531E-02  0.8439467E-01
         -2   -1    0    0    0  501 -0.00000000000E+00  0.00000000000E+00  0.94730634163E+03  0.94730634163E+03  0.00000000000E+00 0. -1.
          2   -1    0    0  501    0  0.00000000000E+00 -0.00000000000E+00 -0.15202230820E+04  0.15202230820E+04  0.00000000000E+00 0.  1.
    2000013    1    1    2    0    0  0.55812635972E+03  0.40015523552E+03 -0.55055631609E+03  0.12950835892E+04  0.95000000000E+03 0.  0.
   -2000013    1    1    2    0    0 -0.55812635972E+03 -0.40015523552E+03 -0.22360424251E+02  0.11724458344E+04  0.95000000000E+03 0.  0.
<mgrwt>
<rscale>  0 0.24000975E+04</rscale>
<asrwt>0</asrwt>
<pdfrwt beam="2">  1        2 0.23388047E+00 0.24000975E+04</pdfrwt>
<pdfrwt beam="1">  1       -2 0.14573944E+00 0.24000975E+04</pdfrwt>
<totfact> 0.35954545E+00</totfact>
</mgrwt>
</event>
<event>
 4    1  0.1343107E-008  0.3054264E+04  0.7816531E-02  0.8228403E-01
         -2   -1    0    0    0  501 -0.00000000000E+00  0.00000000000E+00  0.19979545909E+04  0.19979545909E+04  0.00000000000E+00 0. -1.
          2   -1    0    0  501    0  0.00000000000E+00 -0.00000000000E+00 -0.11672598173E+04  0.11672598173E+04  0.00000000000E+00 0.  1.
    2000013    1    1    2    0    0 -0.70081497401E+03  0.90721965351E+03  0.76745898821E+03  0.16750171420E+04  0.95000000000E+03 0.  0.
   -2000013    1    1    2    0    0  0.70081497401E+03 -0.90721965351E+03  0.63235785411E+02  0.14901972662E+04  0.95000000000E+03 0.  0.
<mgrwt>
<rscale>  0 0.30542640E+04</rscale>
<asrwt>0</asrwt>
<pdfrwt beam="2">  1        2 0.17957843E+00 0.30542640E+04</pdfrwt>
<pdfrwt beam="1">  1       -2 0.30737763E+00 0.30542640E+04</pdfrwt>
<totfact> 0.48366341E-01</totfact>
</mgrwt>
</event>
<event>
 4    1  0.1343107E-008  0.2332026E+04  0.7816531E-02  0.8465400E-01
          2   -1    0    0  501    0  0.00000000000E+00  0.00000000000E+00  0.14381869623E+04  0.14381869623E+04  0.00000000000E+00 0.  1.
         -2   -1    0    0    0  501 -0.00000000000E+00 -0.00000000000E+00 -0.94534727804E+03  0.94534727804E+03  0.00000000000E+00 0. -1.
    2000013    1    1    2    0    0 -0.28864985803E+02  0.54736435465E+03 -0.15810629818E+03  0.11081238765E+04  0.95000000000E+03 0.  0.
   -2000013    1    1    2    0    0  0.28864985803E+02 -0.54736435465E+03  0.65094598244E+03  0.12754103638E+04  0.95000000000E+03 0.  0.
<mgrwt>
<rscale>  0 0.23320258E+04</rscale>
<asrwt>0</asrwt>
<pdfrwt beam="1">  1        2 0.22125953E+00 0.23320258E+04</pdfrwt>
<pdfrwt beam="2">  1       -2 0.14543804E+00 0.23320258E+04</pdfrwt>
<totfact> 0.40460480E+00</totfact>
</mgrwt>
</event>
<event>
 4    1  0.1343107E-008  0.2137022E+04  0.7816531E-02  0.8545108E-01
          2   -1    0    0  501    0  0.00000000000E+00  0.00000000000E+00  0.11515965984E+04  0.11515965984E+04  0.00000000000E+00 0.  1.
         -2   -1    0    0    0  501 -0.00000000000E+00 -0.00000000000E+00 -0.99141990549E+03  0.99141990549E+03  0.00000000000E+00 0. -1.
    2000013    1    1    2    0    0 -0.36211373382E+03  0.19409271941E+03  0.34619557108E+03  0.10913980545E+04  0.95000000000E+03 0.  0.
   -2000013    1    1    2    0    0  0.36211373382E+03 -0.19409271941E+03 -0.18601887821E+03  0.10516184493E+04  0.95000000000E+03 0.  0.
<mgrwt>
<rscale>  0 0.21370220E+04</rscale>
<asrwt>0</asrwt>
<pdfrwt beam="1">  1        2 0.17716871E+00 0.21370220E+04</pdfrwt>
<pdfrwt beam="2">  1       -2 0.15252614E+00 0.21370220E+04</pdfrwt>
<totfact> 0.53342093E+00</totfact>
</mgrwt>
</event>
<event>
 4    1  0.1343107E-008  0.2798890E+04  0.7816531E-02  0.8303613E-01
         -2   -1    0    0    0  501 -0.00000000000E+00  0.00000000000E+00  0.63493513906E+03  0.63493513906E+03  0.00000000000E+00 0. -1.
          2   -1    0    0  501    0  0.00000000000E+00 -0.00000000000E+00 -0.30844826416E+04  0.30844826416E+04  0.00000000000E+00 0.  1.
    2000013    1    1    2    0    0 -0.53986832244E+03  0.77707485282E+03 -0.17573973510E+04  0.22104860510E+04  0.95000000000E+03 0.  0.
   -2000013    1    1    2    0    0  0.53986832244E+03 -0.77707485282E+03 -0.69215015156E+03  0.15089317297E+04  0.95000000000E+03 0.  0.
<mgrwt>
<rscale>  0 0.27988901E+04</rscale>
<asrwt>0</asrwt>
<pdfrwt beam="2">  1        2 0.47453581E+00 0.27988901E+04</pdfrwt>
<pdfrwt beam="1">  1       -2 0.97682326E-01 0.27988901E+04</pdfrwt>
<totfact> 0.11692443E+00</totfact>
</mgrwt>
</event>
<event>
 4    1  0.1343107E-008  0.2256095E+04  0.7816531E-02  0.8495436E-01
         -2   -1    0    0    0  501 -0.00000000000E+00  0.00000000000E+00  0.11063901508E+04  0.11063901508E+04  0.00000000000E+00 0. -1.
          2   -1    0    0  501    0  0.00000000000E+00 -0.00000000000E+00 -0.11501288031E+04  0.11501288031E+04  0.00000000000E+00 0.  1.
    2000013    1    1    2    0    0 -0.37536530843E+03  0.47708583569E+03 -0.60362536063E+02  0.11290056001E+04  0.95000000000E+03 0.  0.
   -2000013    1    1    2    0    0  0.37536530843E+03 -0.47708583569E+03  0.16623883721E+02  0.11275133538E+04  0.95000000000E+03 0.  0.
<mgrwt>
<rscale>  0 0.22560950E+04</rscale>
<asrwt>0</asrwt>
<pdfrwt beam="2">  1        2 0.17694289E+00 0.22560950E+04</pdfrwt>
<pdfrwt beam="1">  1       -2 0.17021387E+00 0.22560950E+04</pdfrwt>
<totfact> 0.39225444E+00</totfact>
</mgrwt>
</event>
<event>
 4    1  0.1343107E-008  0.2640069E+04  0.7816531E-02  0.8354717E-01
         -2   -1    0    0    0  501 -0.00000000000E+00  0.00000000000E+00  0.99106229969E+03  0.99106229969E+03  0.00000000000E+00 0. -1.
          2   -1    0    0  501    0  0.00000000000E+00 -0.00000000000E+00 -0.17582058330E+04  0.17582058330E+04  0.00000000000E+00 0.  1.
    2000013    1    1    2    0    0 -0.22363234180E+03 -0.82251040808E+03 -0.32806260161E+02  0.12767580219E+04  0.95000000000E+03 0.  0.
   -2000013    1    1    2    0    0  0.22363234180E+03  0.82251040808E+03 -0.73433727310E+03  0.14725101108E+04  0.95000000000E+03 0.  0.
<mgrwt>
<rscale>  0 0.26400693E+04</rscale>
<asrwt>0</asrwt>
<pdfrwt beam="2">  1        2 0.27049320E+00 0.26400693E+04</pdfrwt>
<pdfrwt beam="1">  1       -2 0.15247113E+00 0.26400693E+04</pdfrwt>
<totfact> 0.23025395E+00</totfact>
</mgrwt>
</event>
<event>
 4    1  0.1343107E-008  0.2542993E+04  0.7816531E-02  0.8387827E-01
         -1   -1    0    0    0  501 -0.00000000000E+00  0.00000000000E+00  0.12306397305E+04  0.12306397305E+04  0.00000000000E+00 0. -1.
          1   -1    0    0  501    0  0.00000000000E+00 -0.00000000000E+00 -0.13137096207E+04  0.13137096207E+04  0.00000000000E+00 0.  1.
    2000013    1    1    2    0    0  0.81511036174E+03  0.21571806142E+03  0.15627566626E+02  0.12703083896E+04  0.95000000000E+03 0.  0.
   -2000013    1    1    2    0    0 -0.81511036174E+03 -0.21571806142E+03 -0.98697456827E+02  0.12740409616E+04  0.95000000000E+03 0.  0.
<mgrwt>
<rscale>  0 0.25429929E+04</rscale>
<asrwt>0</asrwt>
<pdfrwt beam="2">  1        1 0.20210917E+00 0.25429929E+04</pdfrwt>
<pdfrwt beam="1">  1       -1 0.18932919E+00 0.25429929E+04</pdfrwt>
<totfact> 0.13983189E+00</totfact>
</mgrwt>
</event>
<event>
 4    1  0.1343107E-008  0.2713460E+04  0.7816531E-02  0.8330651E-01
         -1   -1    0    0    0  501 -0.00000000000E+00  0.00000000000E+00  0.68510904537E+03  0.68510904537E+03  0.00000000000E+00 0. -1.
          1   -1    0    0  501    0  0.00000000000E+00 -0.00000000000E+00 -0.26867500893E+04  0.26867500893E+04  0.00000000000E+00 0.  1.
    2000013    1    1    2    0    0 -0.71168412514E+03  0.56503703514E+03 -0.14175330608E+04  0.19333031639E+04  0.95000000000E+03 0.  0.
   -2000013    1    1    2    0    0  0.71168412514E+03 -0.56503703514E+03 -0.58410798309E+03  0.14385559707E+04  0.95000000000E+03 0.  0.
<mgrwt>
<rscale>  0 0.27134604E+04</rscale>
<asrwt>0</asrwt>
<pdfrwt beam="2">  1        1 0.41334618E+00 0.27134604E+04</pdfrwt>
<pdfrwt beam="1">  1       -1 0.10540139E+00 0.27134604E+04</pdfrwt>
<totfact> 0.73758268E-01</totfact>
</mgrwt>
</event>
<event>
 4    1  0.1343107E-008  0.4073293E+04  0.7816531E-02  0.7989922E-01
          2   -1    0    0  501    0  0.00000000000E+00  0.00000000000E+00  0.25425334229E+04  0.25425334229E+04  0.00000000000E+00 0.  1.
         -2   -1    0    0    0  501 -0.00000000000E+00 -0.00000000000E+00 -0.16314155231E+04  0.16314155231E+04  0.00000000000E+00 0. -1.
    2000013    1    1    2    0    0 -0.13913839021E+04  0.11187803068E+04  0.20918043928E+03  0.20331932998E+04  0.95000000000E+03 0.  0.
   -2000013    1    1    2    0    0  0.13913839021E+04 -0.11187803068E+04  0.70193746055E+03  0.21407556462E+04  0.95000000000E+03 0.  0.
<mgrwt>
<rscale>  0 0.40732928E+04</rscale>
<asrwt>0</asrwt>
<pdfrwt beam="1">  1        2 0.39115899E+00 0.40732928E+04</pdfrwt>
<pdfrwt beam="2">  1       -2 0.25098700E+00 0.40732928E+04</pdfrwt>
<totfact> 0.16341639E-01</totfact>
</mgrwt>
</event>
<event>
 4    1  0.1343107E-008  0.2458928E+04  0.7816531E-02  0.8417765E-01
         -2   -1    0    0    0  501 -0.00000000000E+00  0.00000000000E+00  0.38746407143E+03  0.38746407143E+03  0.00000000000E+00 0. -1.
          2   -1    0    0  501    0  0.00000000000E+00 -0.00000000000E+00 -0.39012184372E+04  0.39012184372E+04  0.00000000000E+00 0.  1.
    2000013    1    1    2    0    0  0.61223654286E+03  0.24492385628E+03 -0.24849549584E+04  0.27408616209E+04  0.95000000000E+03 0.  0.
   -2000013    1    1    2    0    0 -0.61223654286E+03 -0.24492385628E+03 -0.10287994074E+04  0.15478208877E+04  0.95000000000E+03 0.  0.
<mgrwt>
<rscale>  0 0.24589282E+04</rscale>
<asrwt>0</asrwt>
<pdfrwt beam="2">  1        2 0.60018744E+00 0.24589282E+04</pdfrwt>
<pdfrwt beam="1">  1       -2 0.59609858E-01 0.24589282E+04</pdfrwt>
<totfact> 0.96711876E-01</totfact>
</mgrwt>
</event>
<event>
 4    1  0.1343107E-008  0.2262514E+04  0.7816531E-02  0.8492850E-01
          2   -1    0    0  501    0  0.00000000000E+00  0.00000000000E+00  0.16553564565E+04  0.16553564565E+04  0.00000000000E+00 0.  1.
         -2   -1    0    0    0  501 -0.00000000000E+00 -0.00000000000E+00 -0.77309149867E+03  0.77309149867E+03  0.00000000000E+00 0. -1.
    2000013    1    1    2    0    0 -0.58487547493E+03 -0.17806802051E+03  0.50421773176E+03  0.12371431049E+04  0.95000000000E+03 0.  0.
   -2000013    1    1    2    0    0  0.58487547493E+03  0.17806802051E+03  0.37804722611E+03  0.11913048503E+04  0.95000000000E+03 0.  0.
<mgrwt>
<rscale>  0 0.22625136E+04</rscale>
<asrwt>0</asrwt>
<pdfrwt beam="1">  1        2 0.25467022E+00 0.22625136E+04</pdfrwt>
<pdfrwt beam="2">  1       -2 0.11893715E+00 0.22625136E+04</pdfrwt>
<totfact> 0.51275953E+00</totfact>
</mgrwt>
</event>
<event>
 4    1  0.1343107E-008  0.2111580E+04  0.7816531E-02  0.8556159E-01
          1   -1    0    0  501    0  0.00000000000E+00  0.00000000000E+00  0.66153823770E+03  0.66153823770E+03  0.00000000000E+00 0.  1.
         -1   -1    0    0    0  501 -0.00000000000E+00 -0.00000000000E+00 -0.16850009791E+04  0.16850009791E+04  0.00000000000E+00 0. -1.
    2000013    1    1    2    0    0 -0.37416242413E+03  0.26838653729E+03 -0.49751207632E+03  0.11670677440E+04  0.95000000000E+03 0.  0.
   -2000013    1    1    2    0    0  0.37416242413E+03 -0.26838653729E+03 -0.52595066507E+03  0.11794714728E+04  0.95000000000E+03 0.  0.
<mgrwt>
<rscale>  0 0.21115801E+04</rscale>
<asrwt>0</asrwt>
<pdfrwt beam="1">  1        1 0.10177511E+00 0.21115801E+04</pdfrwt>
<pdfrwt beam="2">  1       -1 0.25923092E+00 0.21115801E+04</pdfrwt>
<totfact> 0.16545300E+00</totfact>
</mgrwt>
</event>
<event>
 4    1  0.1343107E-008  0.3588651E+04  0.7816531E-02  0.8093096E-01
          2   -1    0    0  501    0  0.00000000000E+00  0.00000000000E+00  0.36218753582E+04  0.36218753582E+04  0.00000000000E+00 0.  1.
         -2   -1    0    0    0  501 -0.00000000000E+00 -0.00000000000E+00 -0.88893272521E+03  0.88893272521E+03  0.00000000000E+00 0. -1.
    2000013    1    1    2    0    0 -0.85038413402E+03  0.12487978829E+04  0.11331554511E+04  0.21140460270E+04  0.95000000000E+03 0.  0.
   -2000013    1    1    2    0    0  0.85038413402E+03 -0.12487978829E+04  0.15997871819E+04  0.23967620564E+04  0.95000000000E+03 0.  0.
<mgrwt>
<rscale>  0 0.35886507E+04</rscale>
<asrwt>0</asrwt>
<pdfrwt beam="1">  1        2 0.55721159E+00 0.35886507E+04</pdfrwt>
<pdfrwt beam="2">  1       -2 0.13675888E+00 0.35886507E+04</pdfrwt>
<totfact> 0.20687712E-01</totfact>
</mgrwt>
</event>
<event>
 4    1  0.1343107E-008  0.2141553E+04  0.7816531E-02  0.8543157E-01
          2   -1    0    0  501    0  0.00000000000E+00  0.00000000000E+00  0.71236591896E+03  0.71236591896E+03  0.00000000000E+00 0. -1.
         -2   -1    0    0    0  501 -0.00000000000E+00 -0.00000000000E+00 -0.16095124173E+04  0.16095124173E+04  0.00000000000E+00 0.  1.
    2000013    1    1    2    0    0  0.38846067639E+03 -0.10158803259E+03 -0.13651857718E+03  0.10403649107E+04  0.95000000000E+03 0.  0.
   -2000013    1    1    2    0    0 -0.38846067639E+03  0.10158803259E+03 -0.76062792117E+03  0.12815134256E+04  0.95000000000E+03 0.  0.
<mgrwt>
<rscale>  0 0.21415525E+04</rscale>
<asrwt>0</asrwt>
<pdfrwt beam="1">  1        2 0.10959476E+00 0.21415525E+04</pdfrwt>
<pdfrwt beam="2">  1       -2 0.24761729E+00 0.21415525E+04</pdfrwt>
<totfact> 0.24456696E+00</totfact>
</mgrwt>
</event>
<event>
 4    1  0.1343107E-008  0.3362946E+04  0.7816531E-02  0.8147061E-01
          2   -1    0    0  501    0  0.00000000000E+00  0.00000000000E+00  0.10432025111E+04  0.10432025111E+04  0.00000000000E+00 0.  1.
         -2   -1    0    0    0  501 -0.00000000000E+00 -0.00000000000E+00 -0.27102618528E+04  0.27102618528E+04  0.00000000000E+00 0. -1.
    2000013    1    1    2    0    0 -0.93472821544E+03 -0.38239192631E+03  0.22820360445E+03  0.14051751873E+04  0.95000000000E+03 0.  0.
   -2000013    1    1    2    0    0  0.93472821544E+03  0.38239192631E+03 -0.18952629461E+04  0.23482891766E+04  0.95000000000E+03 0.  0.
<mgrwt>
<rscale>  0 0.33629463E+04</rscale>
<asrwt>0</asrwt>
<pdfrwt beam="1">  1        2 0.16049269E+00 0.33629463E+04</pdfrwt>
<pdfrwt beam="2">  1       -2 0.41696337E+00 0.33629463E+04</pdfrwt>
<totfact> 0.11267753E-01</totfact>
</mgrwt>
</event>
<event>
 4    1  0.1343107E-008  0.2034947E+04  0.7816531E-02  0.8590454E-01
          2   -1    0    0  501    0  0.00000000000E+00  0.00000000000E+00  0.17005353937E+04  0.17005353937E+04  0.00000000000E+00 0.  1.
         -2   -1    0    0    0  501 -0.00000000000E+00 -0.00000000000E+00 -0.60878035172E+03  0.60878035172E+03  0.00000000000E+00 0. -1.
    2000013    1    1    2    0    0  0.31721450145E+03  0.14417519250E+03  0.42502491557E+03  0.10975234416E+04  0.95000000000E+03 0.  0.
   -2000013    1    1    2    0    0 -0.31721450145E+03 -0.14417519250E+03  0.66673012639E+03  0.12117923038E+04  0.95000000000E+03 0.  0.
<mgrwt>
<rscale>  0 0.20349472E+04</rscale>
<asrwt>0</asrwt>
<pdfrwt beam="1">  1        2 0.26162083E+00 0.20349472E+04</pdfrwt>
<pdfrwt beam="2">  1       -2 0.93658517E-01 0.20349472E+04</pdfrwt>
<totfact> 0.87477735E+00</totfact>
</mgrwt>
</event>
<event>
 4    1  0.1343107E-008  0.2220203E+04  0.7816531E-02  0.8510066E-01
          2   -1    0    0  501    0  0.00000000000E+00  0.00000000000E+00  0.10170482025E+04  0.10170482025E+04  0.00000000000E+00 0.  1.
         -2   -1    0    0    0  501 -0.00000000000E+00 -0.00000000000E+00 -0.12116684722E+04  0.12116684722E+04  0.00000000000E+00 0. -1.
    2000013    1    1    2    0    0  0.35762229244E+03 -0.34875993853E+03 -0.38176585714E+03  0.11391981252E+04  0.95000000000E+03 0.  0.
   -2000013    1    1    2    0    0 -0.35762229244E+03  0.34875993853E+03  0.18714558754E+03  0.10895185495E+04  0.95000000000E+03 0.  0.
<mgrwt>
<rscale>  0 0.22202029E+04</rscale>
<asrwt>0</asrwt>
<pdfrwt beam="1">  1        2 0.15646896E+00 0.22202029E+04</pdfrwt>
<pdfrwt beam="2">  1       -2 0.18641053E+00 0.22202029E+04</pdfrwt>
<totfact> 0.36727605E+00</totfact>
</mgrwt>
</event>
<event>
 4    1  0.1343107E-008  0.3088058E+04  0.7816531E-02  0.8219023E-01
         -2   -1    0    0    0  501 -0.00000000000E+00  0.00000000000E+00  0.19764227066E+04  0.19764227066E+04  0.00000000000E+00 0. -1.
          2   -1    0    0  501    0  0.00000000000E+00 -0.00000000000E+00 -0.12062327927E+04  0.12062327927E+04  0.00000000000E+00 0.  1.
    2000013    1    1    2    0    0 -0.77855034402E+03  0.93254253670E+03  0.30694563103E+03  0.15724159250E+04  0.95000000000E+03 0.  0.
   -2000013    1    1    2    0    0  0.77855034402E+03 -0.93254253670E+03  0.46324428288E+03  0.16102395743E+04  0.95000000000E+03 0.  0.
<mgrwt>
<rscale>  0 0.30880582E+04</rscale>
<asrwt>0</asrwt>
<pdfrwt beam="2">  1        2 0.18557428E+00 0.30880582E+04</pdfrwt>
<pdfrwt beam="1">  1       -2 0.30406503E+00 0.30880582E+04</pdfrwt>
<totfact> 0.47891537E-01</totfact>
</mgrwt>
</event>
<event>
 4    1  0.1343107E-008  0.2409395E+04  0.7816531E-02  0.8435995E-01
         -2   -1    0    0    0  501 -0.00000000000E+00  0.00000000000E+00  0.62093954004E+03  0.62093954004E+03  0.00000000000E+00 0.  1.
          2   -1    0    0  501    0  0.00000000000E+00 -0.00000000000E+00 -0.23372586557E+04  0.23372586557E+04  0.00000000000E+00 0. -1.
    2000013    1    1    2    0    0  0.28759515035E+03 -0.54034170630E+03 -0.34584252273E+03  0.11818575128E+04  0.95000000000E+03 0.  0.
   -2000013    1    1    2    0    0 -0.28759515035E+03  0.54034170630E+03 -0.13704765930E+04  0.17763406830E+04  0.95000000000E+03 0.  0.
<mgrwt>
<rscale>  0 0.24093952E+04</rscale>
<asrwt>0</asrwt>
<pdfrwt beam="2">  1        2 0.35957826E+00 0.24093952E+04</pdfrwt>
<pdfrwt beam="1">  1       -2 0.95529159E-01 0.24093952E+04</pdfrwt>
<totfact> 0.35686039E+00</totfact>
</mgrwt>
</event>
<event>
 4    1  0.1343107E-008  0.2121411E+04  0.7816531E-02  0.8551870E-01
         -2   -1    0    0    0  501 -0.00000000000E+00  0.00000000000E+00  0.63817137735E+03  0.63817137735E+03  0.00000000000E+00 0. -1.
          2   -1    0    0  501    0  0.00000000000E+00 -0.00000000000E+00 -0.17630003053E+04  0.17630003053E+04  0.00000000000E+00 0.  1.
    2000013    1    1    2    0    0 -0.33360001828E+03 -0.33077452483E+03 -0.61169424955E+03  0.12236709580E+04  0.95000000000E+03 0.  0.
   -2000013    1    1    2    0    0  0.33360001828E+03  0.33077452483E+03 -0.51313467842E+03  0.11775007247E+04  0.95000000000E+03 0.  0.
<mgrwt>
<rscale>  0 0.21214112E+04</rscale>
<asrwt>0</asrwt>
<pdfrwt beam="2">  1        2 0.27123081E+00 0.21214112E+04</pdfrwt>
<pdfrwt beam="1">  1       -2 0.98180215E-01 0.21214112E+04</pdfrwt>
<totfact> 0.71796154E+00</totfact>
</mgrwt>
</event>
<event>
 4    1  0.1343107E-008  0.2347964E+04  0.7816531E-02  0.8459246E-01
         -2   -1    0    0    0  501 -0.00000000000E+00  0.00000000000E+00  0.76005783558E+03  0.76005783558E+03  0.00000000000E+00 0. -1.
          2   -1    0    0  501    0  0.00000000000E+00 -0.00000000000E+00 -0.18133272491E+04  0.18133272491E+04  0.00000000000E+00 0.  1.
    2000013    1    1    2    0    0  0.34042811926E+03 -0.31505127517E+03  0.32849786674E+02  0.10576992573E+04  0.95000000000E+03 0.  0.
   -2000013    1    1    2    0    0 -0.34042811926E+03  0.31505127517E+03 -0.10861192002E+04  0.15156858274E+04  0.95000000000E+03 0.  0.
<mgrwt>
<rscale>  0 0.23479639E+04</rscale>
<asrwt>0</asrwt>
<pdfrwt beam="2">  1        2 0.27897342E+00 0.23479639E+04</pdfrwt>
<pdfrwt beam="1">  1       -2 0.11693197E+00 0.23479639E+04</pdfrwt>
<totfact> 0.43369321E+00</totfact>
</mgrwt>
</event>
<event>
 4    1  0.1343107E-008  0.3224087E+04  0.7816531E-02  0.8182485E-01
          4   -1    0    0  501    0  0.00000000000E+00  0.00000000000E+00  0.17113694828E+04  0.17113694828E+04  0.00000000000E+00 0.  1.
         -4   -1    0    0    0  501 -0.00000000000E+00 -0.00000000000E+00 -0.15184823562E+04  0.15184823562E+04  0.00000000000E+00 0. -1.
    2000013    1    1    2    0    0  0.99929080013E+03  0.79802089082E+03  0.34338973631E+03  0.16296735736E+04  0.95000000000E+03 0.  0.
   -2000013    1    1    2    0    0 -0.99929080013E+03 -0.79802089082E+03 -0.15050260970E+03  0.16001782654E+04  0.95000000000E+03 0.  0.
<mgrwt>
<rscale>  0 0.32240871E+04</rscale>
<asrwt>0</asrwt>
<pdfrwt beam="1">  1        4 0.26328761E+00 0.32240871E+04</pdfrwt>
<pdfrwt beam="2">  1       -4 0.23361267E+00 0.32240871E+04</pdfrwt>
<totfact> 0.69451295E-03</totfact>
</mgrwt>
</event>
<event>
 4    1  0.1343107E-008  0.2314458E+04  0.7816531E-02  0.8472242E-01
          2   -1    0    0  501    0  0.00000000000E+00  0.00000000000E+00  0.95572459507E+03  0.95572459507E+03  0.00000000000E+00 0. -1.
         -2   -1    0    0    0  501 -0.00000000000E+00 -0.00000000000E+00 -0.14012188680E+04  0.14012188680E+04  0.00000000000E+00 0.  1.
    2000013    1    1    2    0    0  0.57083402668E+03  0.33260937627E+03 -0.23710747850E+03  0.11811860309E+04  0.95000000000E+03 0.  0.
   -2000013    1    1    2    0    0 -0.57083402668E+03 -0.33260937627E+03 -0.20838679439E+03  0.11757574322E+04  0.95000000000E+03 0.  0.
<mgrwt>
<rscale>  0 0.23144583E+04</rscale>
<asrwt>0</asrwt>
<pdfrwt beam="1">  1        2 0.14703455E+00 0.23144583E+04</pdfrwt>
<pdfrwt beam="2">  1       -2 0.21557213E+00 0.23144583E+04</pdfrwt>
<totfact> 0.25697004E+00</totfact>
</mgrwt>
</event>
<event>
 4    1  0.1343107E-008  0.2428167E+04  0.7816531E-02  0.8429033E-01
         -2   -1    0    0    0  501 -0.00000000000E+00  0.00000000000E+00  0.63736401419E+03  0.63736401419E+03  0.00000000000E+00 0. -1.
          2   -1    0    0  501    0  0.00000000000E+00 -0.00000000000E+00 -0.23126491410E+04  0.23126491410E+04  0.00000000000E+00 0.  1.
    2000013    1    1    2    0    0  0.49727013618E+03  0.56922212327E+03 -0.82012395130E+03  0.14650579202E+04  0.95000000000E+03 0.  0.
   -2000013    1    1    2    0    0 -0.49727013618E+03 -0.56922212327E+03 -0.85516117552E+03  0.14849552350E+04  0.95000000000E+03 0.  0.
<mgrwt>
<rscale>  0 0.24281675E+04</rscale>
<asrwt>0</asrwt>
<pdfrwt beam="2">  1        2 0.35579217E+00 0.24281675E+04</pdfrwt>
<pdfrwt beam="1">  1       -2 0.98056004E-01 0.24281675E+04</pdfrwt>
<totfact> 0.34609388E+00</totfact>
</mgrwt>
</event>
<event>
 4    1  0.1343107E-008  0.2381458E+04  0.7816531E-02  0.8446478E-01
         -2   -1    0    0    0  501 -0.00000000000E+00  0.00000000000E+00  0.14521670036E+04  0.14521670036E+04  0.00000000000E+00 0. -1.
          2   -1    0    0  501    0  0.00000000000E+00 -0.00000000000E+00 -0.97635836208E+03  0.97635836208E+03  0.00000000000E+00 0.  1.
    2000013    1    1    2    0    0 -0.53399073122E+03 -0.46301030282E+03  0.10967833286E+03  0.11891400162E+04  0.95000000000E+03 0.  0.
   -2000013    1    1    2    0    0  0.53399073122E+03  0.46301030282E+03  0.36613030870E+03  0.12393853495E+04  0.95000000000E+03 0.  0.
<mgrwt>
<rscale>  0 0.23814579E+04</rscale>
<asrwt>0</asrwt>
<pdfrwt beam="2">  1        2 0.15020898E+00 0.23814579E+04</pdfrwt>
<pdfrwt beam="1">  1       -2 0.22341031E+00 0.23814579E+04</pdfrwt>
<totfact> 0.22094686E+00</totfact>
</mgrwt>
</event>
<event>
 4    1  0.1343107E-008  0.2062766E+04  0.7816531E-02  0.8577825E-01
          2   -1    0    0  501    0  0.00000000000E+00  0.00000000000E+00  0.10087425725E+04  0.10087425725E+04  0.00000000000E+00 0.  1.
         -2   -1    0    0    0  501 -0.00000000000E+00 -0.00000000000E+00 -0.10545320628E+04  0.10545320628E+04  0.00000000000E+00 0. -1.
    2000013    1    1    2    0    0 -0.17509516130E+03  0.14606905768E+03  0.30772699885E+03  0.10242999516E+04  0.95000000000E+03 0.  0.
   -2000013    1    1    2    0    0  0.17509516130E+03 -0.14606905768E+03 -0.35351648910E+03  0.10389746836E+04  0.95000000000E+03 0.  0.
<mgrwt>
<rscale>  0 0.20627665E+04</rscale>
<asrwt>0</asrwt>
<pdfrwt beam="1">  1        2 0.15519117E+00 0.20627665E+04</pdfrwt>
<pdfrwt beam="2">  1       -2 0.16223570E+00 0.20627665E+04</pdfrwt>
<totfact> 0.55731708E+00</totfact>
</mgrwt>
</event>
<event>
 4    1  0.1343107E-008  0.2261882E+04  0.7816531E-02  0.8493104E-01
         -4   -1    0    0    0  501 -0.00000000000E+00  0.00000000000E+00  0.11966427444E+04  0.11966427444E+04  0.00000000000E+00 0. -1.
          4   -1    0    0  501    0  0.00000000000E+00 -0.00000000000E+00 -0.10688470815E+04  0.10688470815E+04  0.00000000000E+00 0.  1.
    2000013    1    1    2    0    0  0.21574725410E+03 -0.56224843765E+03  0.18180524883E+03  0.11393960382E+04  0.95000000000E+03 0.  0.
   -2000013    1    1    2    0    0 -0.21574725410E+03  0.56224843765E+03 -0.54009585984E+02  0.11260937877E+04  0.95000000000E+03 0.  0.
<mgrwt>
<rscale>  0 0.22618825E+04</rscale>
<asrwt>0</asrwt>
<pdfrwt beam="2">  1        4 0.16443801E+00 0.22618825E+04</pdfrwt>
<pdfrwt beam="1">  1       -4 0.18409888E+00 0.22618825E+04</pdfrwt>
<totfact> 0.71002480E-02</totfact>
</mgrwt>
</event>
<event>
 4    1  0.1343107E-008  0.3089305E+04  0.7816531E-02  0.8218679E-01
          2   -1    0    0  501    0  0.00000000000E+00  0.00000000000E+00  0.29025308896E+04  0.29025308896E+04  0.00000000000E+00 0.  1.
         -2   -1    0    0    0  501 -0.00000000000E+00 -0.00000000000E+00 -0.82202433060E+03  0.82202433060E+03  0.00000000000E+00 0. -1.
    2000013    1    1    2    0    0 -0.11359457891E+04  0.46294273313E+02  0.51344031791E+03  0.15680041312E+04  0.95000000000E+03 0.  0.
   -2000013    1    1    2    0    0  0.11359457891E+04 -0.46294273313E+02  0.15670662411E+04  0.21565510890E+04  0.95000000000E+03 0.  0.
<mgrwt>
<rscale>  0 0.30893048E+04</rscale>
<asrwt>0</asrwt>
<pdfrwt beam="1">  1        2 0.44654321E+00 0.30893048E+04</pdfrwt>
<pdfrwt beam="2">  1       -2 0.12646528E+00 0.30893048E+04</pdfrwt>
<totfact> 0.79163682E-01</totfact>
</mgrwt>
</event>
<event>
 4    1  0.1343107E-008  0.2520896E+04  0.7816531E-02  0.8395579E-01
         -2   -1    0    0    0  501 -0.00000000000E+00  0.00000000000E+00  0.78089374417E+03  0.78089374417E+03  0.00000000000E+00 0. -1.
          2   -1    0    0  501    0  0.00000000000E+00 -0.00000000000E+00 -0.20345010425E+04  0.20345010425E+04  0.00000000000E+00 0.  1.
    2000013    1    1    2    0    0 -0.38729954815E+02 -0.44714406170E+03  0.15080626998E+03  0.10614520019E+04  0.95000000000E+03 0.  0.
   -2000013    1    1    2    0    0  0.38729954815E+02  0.44714406170E+03 -0.14044135684E+04  0.17539427848E+04  0.95000000000E+03 0.  0.
<mgrwt>
<rscale>  0 0.25208960E+04</rscale>
<asrwt>0</asrwt>
<pdfrwt beam="2">  1        2 0.31300015E+00 0.25208960E+04</pdfrwt>
<pdfrwt beam="1">  1       -2 0.12013750E+00 0.25208960E+04</pdfrwt>
<totfact> 0.30133636E+00</totfact>
</mgrwt>
</event>
<event>
 4    1  0.1343107E-008  0.2153458E+04  0.7816531E-02  0.8538053E-01
          2   -1    0    0  501    0  0.00000000000E+00  0.00000000000E+00  0.72134704690E+03  0.72134704690E+03  0.00000000000E+00 0.  1.
         -2   -1    0    0    0  501 -0.00000000000E+00 -0.00000000000E+00 -0.16071953941E+04  0.16071953941E+04  0.00000000000E+00 0. -1.
    2000013    1    1    2    0    0  0.27077004633E+02  0.40125877151E+03 -0.77638653685E+03  0.12911304429E+04  0.95000000000E+03 0.  0.
   -2000013    1    1    2    0    0 -0.27077004633E+02 -0.40125877151E+03 -0.10946181032E+03  0.10374119981E+04  0.95000000000E+03 0.  0.
<mgrwt>
<rscale>  0 0.21534583E+04</rscale>
<asrwt>0</asrwt>
<pdfrwt beam="1">  1        2 0.11097647E+00 0.21534583E+04</pdfrwt>
<pdfrwt beam="2">  1       -2 0.24726082E+00 0.21534583E+04</pdfrwt>
<totfact> 0.24166477E+00</totfact>
</mgrwt>
</event>
<event>
 4    1  0.1343107E-008  0.4189153E+04  0.7816531E-02  0.7967439E-01
         -2   -1    0    0    0  501 -0.00000000000E+00  0.00000000000E+00  0.21957815810E+04  0.21957815810E+04  0.00000000000E+00 0. -1.
          2   -1    0    0  501    0  0.00000000000E+00 -0.00000000000E+00 -0.19980361471E+04  0.19980361471E+04  0.00000000000E+00 0.  1.
    2000013    1    1    2    0    0  0.13275023401E+04  0.10859921583E+04 -0.63890754384E+03  0.20621213059E+04  0.95000000000E+03 0.  0.
   -2000013    1    1    2    0    0 -0.13275023401E+04 -0.10859921583E+04  0.83665297771E+03  0.21316964221E+04  0.95000000000E+03 0.  0.
<mgrwt>
<rscale>  0 0.41891531E+04</rscale>
<asrwt>0</asrwt>
<pdfrwt beam="2">  1        2 0.30739018E+00 0.41891531E+04</pdfrwt>
<pdfrwt beam="1">  1       -2 0.33781255E+00 0.41891531E+04</pdfrwt>
<totfact> 0.96559091E-02</totfact>
</mgrwt>
</event>
<event>
 4    1  0.1343107E-008  0.2196554E+04  0.7816531E-02  0.8519864E-01
          1   -1    0    0  501    0  0.00000000000E+00  0.00000000000E+00  0.19691971075E+04  0.19691971075E+04  0.00000000000E+00 0.  1.
         -1   -1    0    0    0  501 -0.00000000000E+00 -0.00000000000E+00 -0.61254003698E+03  0.61254003698E+03  0.00000000000E+00 0. -1.
    2000013    1    1    2    0    0 -0.51213275018E+03  0.19548784244E+03  0.74498925280E+03  0.13258975968E+04  0.95000000000E+03 0.  0.
   -2000013    1    1    2    0    0  0.51213275018E+03 -0.19548784244E+03  0.61166781771E+03  0.12558395477E+04  0.95000000000E+03 0.  0.
<mgrwt>
<rscale>  0 0.21965537E+04</rscale>
<asrwt>0</asrwt>
<pdfrwt beam="1">  1        1 0.30295340E+00 0.21965537E+04</pdfrwt>
<pdfrwt beam="2">  1       -1 0.94236930E-01 0.21965537E+04</pdfrwt>
<totfact> 0.31088810E+00</totfact>
</mgrwt>
</event>
<event>
 4    1  0.1343107E-008  0.2262958E+04  0.7816531E-02  0.8492671E-01
          2   -1    0    0  501    0  0.00000000000E+00  0.00000000000E+00  0.16620199934E+04  0.16620199934E+04  0.00000000000E+00 0.  1.
         -2   -1    0    0    0  501 -0.00000000000E+00 -0.00000000000E+00 -0.77029443524E+03  0.77029443524E+03  0.00000000000E+00 0. -1.
    2000013    1    1    2    0    0  0.46907450776E+03 -0.17146204355E+03  0.83088101468E+03  0.13573110870E+04  0.95000000000E+03 0.  0.
   -2000013    1    1    2    0    0 -0.46907450776E+03  0.17146204355E+03  0.60844543505E+02  0.10750033417E+04  0.95000000000E+03 0.  0.
<mgrwt>
<rscale>  0 0.22629580E+04</rscale>
<asrwt>0</asrwt>
<pdfrwt beam="1">  1        2 0.25569538E+00 0.22629580E+04</pdfrwt>
<pdfrwt beam="2">  1       -2 0.11850684E+00 0.22629580E+04</pdfrwt>
<totfact> 0.51296253E+00</totfact>
</mgrwt>
</event>
<event>
 4    1  0.1343107E-008  0.2425895E+04  0.7816531E-02  0.8429872E-01
          2   -1    0    0  501    0  0.00000000000E+00  0.00000000000E+00  0.17150837955E+04  0.17150837955E+04  0.00000000000E+00 0.  1.
         -2   -1    0    0    0  501 -0.00000000000E+00 -0.00000000000E+00 -0.85782519891E+03  0.85782519891E+03  0.00000000000E+00 0. -1.
    2000013    1    1    2    0    0  0.50317887595E+03 -0.49946431762E+03  0.15597311843E+03  0.11956091332E+04  0.95000000000E+03 0.  0.
   -2000013    1    1    2    0    0 -0.50317887595E+03  0.49946431762E+03  0.70128547820E+03  0.13772998612E+04  0.95000000000E+03 0.  0.
<mgrwt>
<rscale>  0 0.24258954E+04</rscale>
<asrwt>0</asrwt>
<pdfrwt beam="1">  1        2 0.26385904E+00 0.24258954E+04</pdfrwt>
<pdfrwt beam="2">  1       -2 0.13197311E+00 0.24258954E+04</pdfrwt>
<totfact> 0.36084950E+00</totfact>
</mgrwt>
</event>
<event>
 4    1  0.1343107E-008  0.2886906E+04  0.7816531E-02  0.8276784E-01
          1   -1    0    0  501    0  0.00000000000E+00  0.00000000000E+00  0.11860593860E+04  0.11860593860E+04  0.00000000000E+00 0.  1.
         -1   -1    0    0    0  501 -0.00000000000E+00 -0.00000000000E+00 -0.17567046239E+04  0.17567046239E+04  0.00000000000E+00 0. -1.
    2000013    1    1    2    0    0  0.86095725103E+03  0.28753241557E+03 -0.89449230749E+03  0.15895089702E+04  0.95000000000E+03 0.  0.
   -2000013    1    1    2    0    0 -0.86095725103E+03 -0.28753241557E+03  0.32384706951E+03  0.13532550397E+04  0.95000000000E+03 0.  0.
<mgrwt>
<rscale>  0 0.28869056E+04</rscale>
<asrwt>0</asrwt>
<pdfrwt beam="1">  1        1 0.18247067E+00 0.28869056E+04</pdfrwt>
<pdfrwt beam="2">  1       -1 0.27026225E+00 0.28869056E+04</pdfrwt>
<totfact> 0.48382126E-01</totfact>
</mgrwt>
</event>
<event>
 4    1  0.1343107E-008  0.2734982E+04  0.7816531E-02  0.8323743E-01
         -2   -1    0    0    0  501 -0.00000000000E+00  0.00000000000E+00  0.52868634094E+03  0.52868634094E+03  0.00000000000E+00 0. -1.
          2   -1    0    0  501    0  0.00000000000E+00 -0.00000000000E+00 -0.35371288304E+04  0.35371288304E+04  0.00000000000E+00 0.  1.
    2000013    1    1    2    0    0 -0.67777887529E+02 -0.86938642322E+03 -0.21807535711E+04  0.25334981218E+04  0.95000000000E+03 0.  0.
   -2000013    1    1    2    0    0  0.67777887529E+02  0.86938642322E+03 -0.82768891830E+03  0.15323170496E+04  0.95000000000E+03 0.  0.
<mgrwt>
<rscale>  0 0.27349820E+04</rscale>
<asrwt>0</asrwt>
<pdfrwt beam="2">  1        2 0.54417368E+00 0.27349820E+04</pdfrwt>
<pdfrwt beam="1">  1       -2 0.81336358E-01 0.27349820E+04</pdfrwt>
<totfact> 0.89182229E-01</totfact>
</mgrwt>
</event>
<event>
 4    1  0.1343107E-008  0.2295519E+04  0.7816531E-02  0.8479690E-01
         -2   -1    0    0    0  501 -0.00000000000E+00  0.00000000000E+00  0.13238518801E+04  0.13238518801E+04  0.00000000000E+00 0. -1.
          2   -1    0    0  501    0  0.00000000000E+00 -0.00000000000E+00 -0.99509050631E+03  0.99509050631E+03  0.00000000000E+00 0.  1.
    2000013    1    1    2    0    0  0.79894592007E+02  0.63191494617E+03  0.26102710995E+03  0.11731729613E+04  0.95000000000E+03 0.  0.
   -2000013    1    1    2    0    0 -0.79894592007E+02 -0.63191494617E+03  0.67734263859E+02  0.11457694251E+04  0.95000000000E+03 0.  0.
<mgrwt>
<rscale>  0 0.22955195E+04</rscale>
<asrwt>0</asrwt>
<pdfrwt beam="2">  1        2 0.15309085E+00 0.22955195E+04</pdfrwt>
<pdfrwt beam="1">  1       -2 0.20366952E+00 0.22955195E+04</pdfrwt>
<totfact> 0.28952052E+00</totfact>
</mgrwt>
</event>
<event>
 4    1  0.1343107E-008  0.2543679E+04  0.7816531E-02  0.8387588E-01
         -2   -1    0    0    0  501 -0.00000000000E+00  0.00000000000E+00  0.76668712383E+03  0.76668712383E+03  0.00000000000E+00 0. -1.
          2   -1    0    0  501    0  0.00000000000E+00 -0.00000000000E+00 -0.21098255582E+04  0.21098255582E+04  0.00000000000E+00 0.  1.
    2000013    1    1    2    0    0  0.80282472084E+03  0.25403307295E+03 -0.75927919272E+03  0.14792110151E+04  0.95000000000E+03 0.  0.
   -2000013    1    1    2    0    0 -0.80282472084E+03 -0.25403307295E+03 -0.58385924169E+03  0.13973016670E+04  0.95000000000E+03 0.  0.
<mgrwt>
<rscale>  0 0.25436793E+04</rscale>
<asrwt>0</asrwt>
<pdfrwt beam="2">  1        2 0.32458855E+00 0.25436793E+04</pdfrwt>
<pdfrwt beam="1">  1       -2 0.11795187E+00 0.25436793E+04</pdfrwt>
<totfact> 0.28570857E+00</totfact>
</mgrwt>
</event>
<event>
 4    1  0.1343107E-008  0.2722416E+04  0.7816531E-02  0.8327768E-01
          2   -1    0    0  501    0  0.00000000000E+00  0.00000000000E+00  0.14860817071E+04  0.14860817071E+04  0.00000000000E+00 0.  1.
         -2   -1    0    0    0  501 -0.00000000000E+00 -0.00000000000E+00 -0.12468273768E+04  0.12468273768E+04  0.00000000000E+00 0. -1.
    2000013    1    1    2    0    0  0.27364824559E+03 -0.93200462856E+03  0.20284036877E+03  0.13737394968E+04  0.95000000000E+03 0.  0.
   -2000013    1    1    2    0    0 -0.27364824559E+03  0.93200462856E+03  0.36413961526E+02  0.13591695871E+04  0.95000000000E+03 0.  0.
<mgrwt>
<rscale>  0 0.27224161E+04</rscale>
<asrwt>0</asrwt>
<pdfrwt beam="1">  1        2 0.22862795E+00 0.27224161E+04</pdfrwt>
<pdfrwt beam="2">  1       -2 0.19181960E+00 0.27224161E+04</pdfrwt>
<totfact> 0.17061287E+00</totfact>
</mgrwt>
</event>
<event>
 4    1  0.1343107E-008  0.2343361E+04  0.7816531E-02  0.8461018E-01
          2   -1    0    0  501    0  0.00000000000E+00  0.00000000000E+00  0.14493616426E+04  0.14493616426E+04  0.00000000000E+00 0.  1.
         -2   -1    0    0    0  501 -0.00000000000E+00 -0.00000000000E+00 -0.94720019515E+03  0.94720019515E+03  0.00000000000E+00 0. -1.
    2000013    1    1    2    0    0  0.42598174093E+03  0.52099069366E+03  0.38615447796E+03  0.12265834775E+04  0.95000000000E+03 0.  0.
   -2000013    1    1    2    0    0 -0.42598174093E+03 -0.52099069366E+03  0.11600696952E+03  0.11699783603E+04  0.95000000000E+03 0.  0.
<mgrwt>
<rscale>  0 0.23433614E+04</rscale>
<asrwt>0</asrwt>
<pdfrwt beam="1">  1        2 0.22297871E+00 0.23433614E+04</pdfrwt>
<pdfrwt beam="2">  1       -2 0.14572311E+00 0.23433614E+04</pdfrwt>
<totfact> 0.39630512E+00</totfact>
</mgrwt>
</event>
<event>
 4    1  0.1343107E-008  0.2033348E+04  0.7816531E-02  0.8591186E-01
          2   -1    0    0  501    0  0.00000000000E+00  0.00000000000E+00  0.28789824951E+04  0.28789824951E+04  0.00000000000E+00 0.  1.
         -2   -1    0    0    0  501 -0.00000000000E+00 -0.00000000000E+00 -0.35902489341E+03  0.35902489341E+03  0.00000000000E+00 0. -1.
    2000013    1    1    2    0    0 -0.34837162809E+03 -0.31255558352E+02  0.14092508543E+04  0.17351736719E+04  0.95000000000E+03 0.  0.
   -2000013    1    1    2    0    0  0.34837162809E+03  0.31255558352E+02  0.11107067474E+04  0.15028337166E+04  0.95000000000E+03 0.  0.
<mgrwt>
<rscale>  0 0.20333484E+04</rscale>
<asrwt>0</asrwt>
<pdfrwt beam="1">  1        2 0.44292037E+00 0.20333484E+04</pdfrwt>
<pdfrwt beam="2">  1       -2 0.55234601E-01 0.20333484E+04</pdfrwt>
<totfact> 0.59193689E+00</totfact>
</mgrwt>
</event>
<event>
 4    1  0.1343107E-008  0.2436375E+04  0.7816531E-02  0.8426010E-01
          2   -1    0    0  501    0  0.00000000000E+00  0.00000000000E+00  0.19365265525E+04  0.19365265525E+04  0.00000000000E+00 0.  1.
         -2   -1    0    0    0  501 -0.00000000000E+00 -0.00000000000E+00 -0.76631057615E+03  0.76631057615E+03  0.00000000000E+00 0. -1.
    2000013    1    1    2    0    0  0.73328438242E+03 -0.17549709026E+03  0.71147649818E+03  0.14061308693E+04  0.95000000000E+03 0.  0.
   -2000013    1    1    2    0    0 -0.73328438242E+03  0.17549709026E+03  0.45873947820E+03  0.12967062594E+04  0.95000000000E+03 0.  0.
<mgrwt>
<rscale>  0 0.24363750E+04</rscale>
<asrwt>0</asrwt>
<pdfrwt beam="1">  1        2 0.29792716E+00 0.24363750E+04</pdfrwt>
<pdfrwt beam="2">  1       -2 0.11789394E+00 0.24363750E+04</pdfrwt>
<totfact> 0.36048515E+00</totfact>
</mgrwt>
</event>
<event>
 4    1  0.1343107E-008  0.2253911E+04  0.7816531E-02  0.8496318E-01
          2   -1    0    0  501    0  0.00000000000E+00  0.00000000000E+00  0.12239468085E+04  0.12239468085E+04  0.00000000000E+00 0.  1.
         -2   -1    0    0    0  501 -0.00000000000E+00 -0.00000000000E+00 -0.10376503882E+04  0.10376503882E+04  0.00000000000E+00 0. -1.
    2000013    1    1    2    0    0 -0.59101487769E+03  0.86308562384E+02  0.19733449502E+03  0.11393808215E+04  0.95000000000E+03 0.  0.
   -2000013    1    1    2    0    0  0.59101487769E+03 -0.86308562384E+02 -0.11038074679E+02  0.11222163752E+04  0.95000000000E+03 0.  0.
<mgrwt>
<rscale>  0 0.22539112E+04</rscale>
<asrwt>0</asrwt>
<pdfrwt beam="1">  1        2 0.18829951E+00 0.22539112E+04</pdfrwt>
<pdfrwt beam="2">  1       -2 0.15963852E+00 0.22539112E+04</pdfrwt>
<totfact> 0.42275362E+00</totfact>
</mgrwt>
</event>
<event>
 4    1  0.1343107E-008  0.2852589E+04  0.7816531E-02  0.8287125E-01
          2   -1    0    0  501    0  0.00000000000E+00  0.00000000000E+00  0.18692982459E+04  0.18692982459E+04  0.00000000000E+00 0.  1.
         -2   -1    0    0    0  501 -0.00000000000E+00 -0.00000000000E+00 -0.10882778011E+04  0.10882778011E+04  0.00000000000E+00 0. -1.
    2000013    1    1    2    0    0 -0.87122666380E+03  0.61013684624E+03  0.41399134632E+03  0.14849887898E+04  0.95000000000E+03 0.  0.
   -2000013    1    1    2    0    0  0.87122666380E+03 -0.61013684624E+03  0.36702909845E+03  0.14725872572E+04  0.95000000000E+03 0.  0.
<mgrwt>
<rscale>  0 0.28525888E+04</rscale>
<asrwt>0</asrwt>
<pdfrwt beam="1">  1        2 0.28758435E+00 0.28525888E+04</pdfrwt>
<pdfrwt beam="2">  1       -2 0.16742735E+00 0.28525888E+04</pdfrwt>
<totfact> 0.15216774E+00</totfact>
</mgrwt>
</event>
<event>
 4    1  0.1343107E-008  0.2728753E+04  0.7816531E-02  0.8325736E-01
          2   -1    0    0  501    0  0.00000000000E+00  0.00000000000E+00  0.12661069089E+04  0.12661069089E+04  0.00000000000E+00 0.  1.
         -2   -1    0    0    0  501 -0.00000000000E+00 -0.00000000000E+00 -0.14702732807E+04  0.14702732807E+04  0.00000000000E+00 0. -1.
    2000013    1    1    2    0    0 -0.42338518418E+01 -0.82649682623E+03 -0.62882106087E+03  0.14074909790E+04  0.95000000000E+03 0.  0.
   -2000013    1    1    2    0    0  0.42338518418E+01  0.82649682623E+03  0.42465468910E+03  0.13288892107E+04  0.95000000000E+03 0.  0.
<mgrwt>
<rscale>  0 0.27287529E+04</rscale>
<asrwt>0</asrwt>
<pdfrwt beam="1">  1        2 0.19478568E+00 0.27287529E+04</pdfrwt>
<pdfrwt beam="2">  1       -2 0.22619589E+00 0.27287529E+04</pdfrwt>
<totfact> 0.13681070E+00</totfact>
</mgrwt>
</event>
<event>
 4    1  0.1343107E-008  0.2449658E+04  0.7816531E-02  0.8421143E-01
          2   -1    0    0  501    0  0.00000000000E+00  0.00000000000E+00  0.28368451661E+04  0.28368451661E+04  0.00000000000E+00 0.  1.
         -2   -1    0    0    0  501 -0.00000000000E+00 -0.00000000000E+00 -0.52882890458E+03  0.52882890458E+03  0.00000000000E+00 0. -1.
    2000013    1    1    2    0    0 -0.45810128472E+03  0.62155512639E+03  0.12075415946E+04  0.17195476920E+04  0.95000000000E+03 0.  0.
   -2000013    1    1    2    0    0  0.45810128472E+03 -0.62155512639E+03  0.11004746669E+04  0.16461263787E+04  0.95000000000E+03 0.  0.
<mgrwt>
<rscale>  0 0.24496577E+04</rscale>
<asrwt>0</asrwt>
<pdfrwt beam="1">  1        2 0.43643771E+00 0.24496577E+04</pdfrwt>
<pdfrwt beam="2">  1       -2 0.81358295E-01 0.24496577E+04</pdfrwt>
<totfact> 0.26177790E+00</totfact>
</mgrwt>
</event>
<event>
 4    1  0.1343107E-008  0.2542467E+04  0.7816531E-02  0.8388011E-01
         -1   -1    0    0    0  501 -0.00000000000E+00  0.00000000000E+00  0.23365540877E+04  0.23365540877E+04  0.00000000000E+00 0. -1.
          1   -1    0    0  501    0  0.00000000000E+00 -0.00000000000E+00 -0.69163136847E+03  0.69163136847E+03  0.00000000000E+00 0.  1.
    2000013    1    1    2    0    0  0.29985741040E+03  0.49601018971E+03  0.15543406918E+04  0.19116525733E+04  0.95000000000E+03 0.  0.
   -2000013    1    1    2    0    0 -0.29985741040E+03 -0.49601018971E+03  0.90582027452E+02  0.11165328829E+04  0.95000000000E+03 0.  0.
<mgrwt>
<rscale>  0 0.25424666E+04</rscale>
<asrwt>0</asrwt>
<pdfrwt beam="2">  1        1 0.10640483E+00 0.25424666E+04</pdfrwt>
<pdfrwt beam="1">  1       -1 0.35946986E+00 0.25424666E+04</pdfrwt>
<totfact> 0.33015132E-01</totfact>
</mgrwt>
</event>
<event>
 4    1  0.1343107E-008  0.2368423E+04  0.7816531E-02  0.8451421E-01
          2   -1    0    0  501    0  0.00000000000E+00  0.00000000000E+00  0.66042599024E+03  0.66042599024E+03  0.00000000000E+00 0.  1.
         -2   -1    0    0    0  501 -0.00000000000E+00 -0.00000000000E+00 -0.21234120957E+04  0.21234120957E+04  0.00000000000E+00 0. -1.
    2000013    1    1    2    0    0 -0.68714678131E+03  0.15195397830E+03 -0.65180989886E+03  0.13500432789E+04  0.95000000000E+03 0.  0.
   -2000013    1    1    2    0    0  0.68714678131E+03 -0.15195397830E+03 -0.81117620658E+03  0.14337948070E+04  0.95000000000E+03 0.  0.
<mgrwt>
<rscale>  0 0.23684227E+04</rscale>
<asrwt>0</asrwt>
<pdfrwt beam="1">  1        2 0.10160400E+00 0.23684227E+04</pdfrwt>
<pdfrwt beam="2">  1       -2 0.32667879E+00 0.23684227E+04</pdfrwt>
<totfact> 0.86568859E-01</totfact>
</mgrwt>
</event>
<event>
 4    1  0.1343107E-008  0.2018264E+04  0.7816531E-02  0.8598129E-01
         -2   -1    0    0    0  501 -0.00000000000E+00  0.00000000000E+00  0.33510466591E+03  0.33510466591E+03  0.00000000000E+00 0. -1.
          2   -1    0    0  501    0  0.00000000000E+00 -0.00000000000E+00 -0.30388949800E+04  0.30388949800E+04  0.00000000000E+00 0.  1.
    2000013    1    1    2    0    0  0.96404671411E+02 -0.14612149096E+03 -0.18398652607E+04  0.20780398284E+04  0.95000000000E+03 0.  0.
   -2000013    1    1    2    0    0 -0.96404671411E+02  0.14612149096E+03 -0.86392505339E+03  0.12959598175E+04  0.95000000000E+03 0.  0.
<mgrwt>
<rscale>  0 0.20182645E+04</rscale>
<asrwt>0</asrwt>
<pdfrwt beam="2">  1        2 0.46752227E+00 0.20182645E+04</pdfrwt>
<pdfrwt beam="1">  1       -2 0.51554568E-01 0.20182645E+04</pdfrwt>
<totfact> 0.54394319E+00</totfact>
</mgrwt>
</event>
<event>
 4    1  0.1343107E-008  0.2930898E+04  0.7816531E-02  0.8263743E-01
          2   -1    0    0  501    0  0.00000000000E+00  0.00000000000E+00  0.22132225042E+04  0.22132225042E+04  0.00000000000E+00 0.  1.
         -2   -1    0    0    0  501 -0.00000000000E+00 -0.00000000000E+00 -0.97032316055E+03  0.97032316055E+03  0.00000000000E+00 0. -1.
    2000013    1    1    2    0    0 -0.81498659152E+03  0.76212712358E+03  0.62188196683E+03  0.15919416062E+04  0.95000000000E+03 0.  0.
   -2000013    1    1    2    0    0  0.81498659152E+03 -0.76212712358E+03  0.62101737679E+03  0.15916040585E+04  0.95000000000E+03 0.  0.
<mgrwt>
<rscale>  0 0.29308982E+04</rscale>
<asrwt>0</asrwt>
<pdfrwt beam="1">  1        2 0.34049577E+00 0.29308982E+04</pdfrwt>
<pdfrwt beam="2">  1       -2 0.14928049E+00 0.29308982E+04</pdfrwt>
<totfact> 0.13260402E+00</totfact>
</mgrwt>
</event>
<event>
 4    1  0.1343107E-008  0.2584682E+04  0.7816531E-02  0.8373423E-01
          2   -1    0    0  501    0  0.00000000000E+00  0.00000000000E+00  0.85610478986E+03  0.85610478986E+03  0.00000000000E+00 0.  1.
         -2   -1    0    0    0  501 -0.00000000000E+00 -0.00000000000E+00 -0.19508648180E+04  0.19508648180E+04  0.00000000000E+00 0. -1.
    2000013    1    1    2    0    0 -0.73110524086E+03  0.19864532575E+03 -0.10253071619E+04  0.15898835224E+04  0.95000000000E+03 0.  0.
   -2000013    1    1    2    0    0  0.73110524086E+03 -0.19864532575E+03 -0.69452866210E+02  0.12170860854E+04  0.95000000000E+03 0.  0.
<mgrwt>
<rscale>  0 0.25846816E+04</rscale>
<asrwt>0</asrwt>
<pdfrwt beam="1">  1        2 0.13170843E+00 0.25846816E+04</pdfrwt>
<pdfrwt beam="2">  1       -2 0.30013305E+00 0.25846816E+04</pdfrwt>
<totfact> 0.88316807E-01</totfact>
</mgrwt>
</event>
<event>
 4    1  0.1343107E-008  0.2267180E+04  0.7816531E-02  0.8490975E-01
         -2   -1    0    0    0  501 -0.00000000000E+00  0.00000000000E+00  0.78082350609E+03  0.78082350609E+03  0.00000000000E+00 0. -1.
          2   -1    0    0  501    0  0.00000000000E+00 -0.00000000000E+00 -0.16457317927E+04  0.16457317927E+04  0.00000000000E+00 0.  1.
    2000013    1    1    2    0    0 -0.41700944914E+03  0.45498443945E+03 -0.47551078419E+03  0.12286245263E+04  0.95000000000E+03 0.  0.
   -2000013    1    1    2    0    0  0.41700944914E+03 -0.45498443945E+03 -0.38939750247E+03  0.11979307725E+04  0.95000000000E+03 0.  0.
<mgrwt>
<rscale>  0 0.22671798E+04</rscale>
<asrwt>0</asrwt>
<pdfrwt beam="2">  1        2 0.25318951E+00 0.22671798E+04</pdfrwt>
<pdfrwt beam="1">  1       -2 0.12012669E+00 0.22671798E+04</pdfrwt>
<totfact> 0.50626722E+00</totfact>
</mgrwt>
</event>
<event>
 4    1  0.1343107E-008  0.2300946E+04  0.7816531E-02  0.8477548E-01
         -1   -1    0    0    0  501 -0.00000000000E+00  0.00000000000E+00  0.57365621090E+03  0.57365621090E+03  0.00000000000E+00 0. -1.
          1   -1    0    0  501    0  0.00000000000E+00 -0.00000000000E+00 -0.23072850234E+04  0.23072850234E+04  0.00000000000E+00 0.  1.
    2000013    1    1    2    0    0  0.31964550075E+03  0.52433779978E+03 -0.11294056715E+04  0.15984869550E+04  0.95000000000E+03 0.  0.
   -2000013    1    1    2    0    0 -0.31964550075E+03 -0.52433779978E+03 -0.60422314102E+03  0.12824542793E+04  0.95000000000E+03 0.  0.
<mgrwt>
<rscale>  0 0.23009462E+04</rscale>
<asrwt>0</asrwt>
<pdfrwt beam="2">  1        1 0.35496692E+00 0.23009462E+04</pdfrwt>
<pdfrwt beam="1">  1       -1 0.88254803E-01 0.23009462E+04</pdfrwt>
<totfact> 0.20968506E+00</totfact>
</mgrwt>
</event>
<event>
 4    1  0.1343107E-008  0.2336909E+04  0.7816531E-02  0.8463509E-01
         -2   -1    0    0    0  501 -0.00000000000E+00  0.00000000000E+00  0.84743869620E+03  0.84743869620E+03  0.00000000000E+00 0. -1.
          2   -1    0    0  501    0  0.00000000000E+00 -0.00000000000E+00 -0.16110729790E+04  0.16110729790E+04  0.00000000000E+00 0.  1.
    2000013    1    1    2    0    0  0.39316046976E+03 -0.45980354964E+03 -0.70911886852E+03  0.13309184907E+04  0.95000000000E+03 0.  0.
   -2000013    1    1    2    0    0 -0.39316046976E+03  0.45980354964E+03 -0.54515414251E+02  0.11275931845E+04  0.95000000000E+03 0.  0.
<mgrwt>
<rscale>  0 0.23369087E+04</rscale>
<asrwt>0</asrwt>
<pdfrwt beam="2">  1        2 0.24785738E+00 0.23369087E+04</pdfrwt>
<pdfrwt beam="1">  1       -2 0.13037519E+00 0.23369087E+04</pdfrwt>
<totfact> 0.42850014E+00</totfact>
</mgrwt>
</event>
<event>
 4    1  0.1343107E-008  0.2151530E+04  0.7816531E-02  0.8538878E-01
         -2   -1    0    0    0  501 -0.00000000000E+00  0.00000000000E+00  0.87525241634E+03  0.87525241634E+03  0.00000000000E+00 0. -1.
          2   -1    0    0  501    0  0.00000000000E+00 -0.00000000000E+00 -0.13222128659E+04  0.13222128659E+04  0.00000000000E+00 0.  1.
    2000013    1    1    2    0    0 -0.41079022205E+03 -0.72179871641E+02 -0.51382309728E+03  0.11577878544E+04  0.95000000000E+03 0.  0.
   -2000013    1    1    2    0    0  0.41079022205E+03  0.72179871641E+02  0.66862647706E+02  0.10396774279E+04  0.95000000000E+03 0.  0.
<mgrwt>
<rscale>  0 0.21515297E+04</rscale>
<asrwt>0</asrwt>
<pdfrwt beam="2">  1        2 0.20341736E+00 0.21515297E+04</pdfrwt>
<pdfrwt beam="1">  1       -2 0.13465422E+00 0.21515297E+04</pdfrwt>
<totfact> 0.58484975E+00</totfact>
</mgrwt>
</event>
<event>
 4    1  0.1343107E-008  0.2274227E+04  0.7816531E-02  0.8488153E-01
         -2   -1    0    0    0  501 -0.00000000000E+00  0.00000000000E+00  0.12581143755E+04  0.12581143755E+04  0.00000000000E+00 0.  1.
          2   -1    0    0  501    0  0.00000000000E+00 -0.00000000000E+00 -0.10277498451E+04  0.10277498451E+04  0.00000000000E+00 0. -1.
    2000013    1    1    2    0    0 -0.29709540468E+02 -0.54324041365E+03  0.42421949051E+03  0.11740762241E+04  0.95000000000E+03 0.  0.
   -2000013    1    1    2    0    0  0.29709540468E+02  0.54324041365E+03 -0.19385496011E+03  0.11117879966E+04  0.95000000000E+03 0.  0.
<mgrwt>
<rscale>  0 0.22742268E+04</rscale>
<asrwt>0</asrwt>
<pdfrwt beam="2">  1        2 0.15811536E+00 0.22742268E+04</pdfrwt>
<pdfrwt beam="1">  1       -2 0.19355606E+00 0.22742268E+04</pdfrwt>
<totfact> 0.32227743E+00</totfact>
</mgrwt>
</event>
<event>
 4    1  0.1343107E-008  0.2056737E+04  0.7816531E-02  0.8580544E-01
         -1   -1    0    0    0  501 -0.00000000000E+00  0.00000000000E+00  0.64680713118E+03  0.64680713118E+03  0.00000000000E+00 0. -1.
          1   -1    0    0  501    0  0.00000000000E+00 -0.00000000000E+00 -0.16350189753E+04  0.16350189753E+04  0.00000000000E+00 0.  1.
    2000013    1    1    2    0    0 -0.18251627810E+03 -0.91941179921E+02 -0.86750546117E+03  0.13026246956E+04  0.95000000000E+03 0.  0.
   -2000013    1    1    2    0    0  0.18251627810E+03  0.91941179921E+02 -0.12070638299E+03  0.97920141096E+03  0.95000000000E+03 0.  0.
<mgrwt>
<rscale>  0 0.20567372E+04</rscale>
<asrwt>0</asrwt>
<pdfrwt beam="2">  1        1 0.25154138E+00 0.20567372E+04</pdfrwt>
<pdfrwt beam="1">  1       -1 0.99508790E-01 0.20567372E+04</pdfrwt>
<totfact> 0.46975898E+00</totfact>
</mgrwt>
</event>
<event>
 4    1  0.1343107E-008  0.2521497E+04  0.7816531E-02  0.8395367E-01
          2   -1    0    0  501    0  0.00000000000E+00  0.00000000000E+00  0.10864712516E+04  0.10864712516E+04  0.00000000000E+00 0.  1.
         -2   -1    0    0    0  501 -0.00000000000E+00 -0.00000000000E+00 -0.14629811193E+04  0.14629811193E+04  0.00000000000E+00 0. -1.
    2000013    1    1    2    0    0 -0.21634023841E+02  0.82826663754E+03 -0.21071093834E+03  0.12780425476E+04  0.95000000000E+03 0.  0.
   -2000013    1    1    2    0    0  0.21634023841E+02 -0.82826663754E+03 -0.16579892942E+03  0.12714098233E+04  0.95000000000E+03 0.  0.
<mgrwt>
<rscale>  0 0.25214971E+04</rscale>
<asrwt>0</asrwt>
<pdfrwt beam="1">  1        2 0.16714942E+00 0.25214971E+04</pdfrwt>
<pdfrwt beam="2">  1       -2 0.22507402E+00 0.25214971E+04</pdfrwt>
<totfact> 0.18151767E+00</totfact>
</mgrwt>
</event>
<event>
 4    1  0.1343107E-008  0.2821799E+04  0.7816531E-02  0.8296532E-01
         -2   -1    0    0    0  501 -0.00000000000E+00  0.00000000000E+00  0.16180747373E+04  0.16180747373E+04  0.00000000000E+00 0. -1.
          2   -1    0    0  501    0  0.00000000000E+00 -0.00000000000E+00 -0.12302509026E+04  0.12302509026E+04  0.00000000000E+00 0.  1.
    2000013    1    1    2    0    0 -0.58264288779E+03  0.82299995642E+03 -0.75687298913E+02  0.13874545867E+04  0.95000000000E+03 0.  0.
   -2000013    1    1    2    0    0  0.58264288779E+03 -0.82299995642E+03  0.46351113362E+03  0.14608710532E+04  0.95000000000E+03 0.  0.
<mgrwt>
<rscale>  0 0.28217994E+04</rscale>
<asrwt>0</asrwt>
<pdfrwt beam="2">  1        2 0.18926937E+00 0.28217994E+04</pdfrwt>
<pdfrwt beam="1">  1       -2 0.24893457E+00 0.28217994E+04</pdfrwt>
<totfact> 0.10296690E+00</totfact>
</mgrwt>
</event>
<event>
 4    1  0.1343107E-008  0.2460046E+04  0.7816531E-02  0.8417359E-01
          2   -1    0    0  501    0  0.00000000000E+00  0.00000000000E+00  0.28866672617E+04  0.28866672617E+04  0.00000000000E+00 0.  1.
         -2   -1    0    0    0  501 -0.00000000000E+00 -0.00000000000E+00 -0.52411888149E+03  0.52411888149E+03  0.00000000000E+00 0. -1.
    2000013    1    1    2    0    0  0.75258658280E+03 -0.19709885394E+03  0.10810801543E+04  0.16359916940E+04  0.95000000000E+03 0.  0.
   -2000013    1    1    2    0    0 -0.75258658280E+03  0.19709885394E+03  0.12814682259E+04  0.17747944492E+04  0.95000000000E+03 0.  0.
<mgrwt>
<rscale>  0 0.24600462E+04</rscale>
<asrwt>0</asrwt>
<pdfrwt beam="1">  1        2 0.44410265E+00 0.24600462E+04</pdfrwt>
<pdfrwt beam="2">  1       -2 0.80633676E-01 0.24600462E+04</pdfrwt>
<totfact> 0.24880674E+00</totfact>
</mgrwt>
</event>
<event>
 4    1  0.1343107E-008  0.2377103E+04  0.7816531E-02  0.8448126E-01
          2   -1    0    0  501    0  0.00000000000E+00  0.00000000000E+00  0.11198974291E+04  0.11198974291E+04  0.00000000000E+00 0.  1.
         -2   -1    0    0    0  501 -0.00000000000E+00 -0.00000000000E+00 -0.12614147852E+04  0.12614147852E+04  0.00000000000E+00 0. -1.
    2000013    1    1    2    0    0 -0.56530598930E+03 -0.29224975428E+03  0.25412154282E+03  0.11713490252E+04  0.95000000000E+03 0.  0.
   -2000013    1    1    2    0    0  0.56530598930E+03  0.29224975428E+03 -0.39563889895E+03  0.12099631890E+04  0.95000000000E+03 0.  0.
<mgrwt>
<rscale>  0 0.23771034E+04</rscale>
<asrwt>0</asrwt>
<pdfrwt beam="1">  1        2 0.17229191E+00 0.23771034E+04</pdfrwt>
<pdfrwt beam="2">  1       -2 0.19406381E+00 0.23771034E+04</pdfrwt>
<totfact> 0.27778750E+00</totfact>
</mgrwt>
</event>
<event>
 4    1  0.1343107E-008  0.2848273E+04  0.7816531E-02  0.8288436E-01
         -2   -1    0    0    0  501 -0.00000000000E+00  0.00000000000E+00  0.20079772070E+04  0.20079772070E+04  0.00000000000E+00 0. -1.
          2   -1    0    0  501    0  0.00000000000E+00 -0.00000000000E+00 -0.10100533652E+04  0.10100533652E+04  0.00000000000E+00 0.  1.
    2000013    1    1    2    0    0  0.77086969860E+03  0.70519505405E+03  0.69469846690E+03  0.15737363554E+04  0.95000000000E+03 0.  0.
   -2000013    1    1    2    0    0 -0.77086969860E+03 -0.70519505405E+03  0.30322537495E+03  0.14442942167E+04  0.95000000000E+03 0.  0.
<mgrwt>
<rscale>  0 0.28482726E+04</rscale>
<asrwt>0</asrwt>
<pdfrwt beam="2">  1        2 0.15539283E+00 0.28482726E+04</pdfrwt>
<pdfrwt beam="1">  1       -2 0.30891957E+00 0.28482726E+04</pdfrwt>
<totfact> 0.60268473E-01</totfact>
</mgrwt>
</event>
<event>
 4    1  0.1343107E-008  0.1994649E+04  0.7816531E-02  0.8609126E-01
          2   -1    0    0  501    0  0.00000000000E+00  0.00000000000E+00  0.28175727203E+04  0.28175727203E+04  0.00000000000E+00 0.  1.
         -2   -1    0    0    0  501 -0.00000000000E+00 -0.00000000000E+00 -0.35301891904E+03  0.35301891904E+03  0.00000000000E+00 0. -1.
    2000013    1    1    2    0    0  0.15220943119E+03  0.19542982772E+03  0.15112231603E+04  0.18021254032E+04  0.95000000000E+03 0.  0.
   -2000013    1    1    2    0    0 -0.15220943119E+03 -0.19542982772E+03  0.95333064089E+03  0.13684662361E+04  0.95000000000E+03 0.  0.
<mgrwt>
<rscale>  0 0.19946493E+04</rscale>
<asrwt>0</asrwt>
<pdfrwt beam="1">  1        2 0.43347271E+00 0.19946493E+04</pdfrwt>
<pdfrwt beam="2">  1       -2 0.54310605E-01 0.19946493E+04</pdfrwt>
<totfact> 0.67041199E+00</totfact>
</mgrwt>
</event>
<event>
 4    1  0.1343107E-008  0.2235790E+04  0.7816531E-02  0.8503677E-01
          2   -1    0    0  501    0  0.00000000000E+00  0.00000000000E+00  0.17172772193E+04  0.17172772193E+04  0.00000000000E+00 0.  1.
         -2   -1    0    0    0  501 -0.00000000000E+00 -0.00000000000E+00 -0.72771566760E+03  0.72771566760E+03  0.00000000000E+00 0. -1.
    2000013    1    1    2    0    0 -0.38850113732E+03  0.42818910717E+03  0.37052460982E+03  0.11722062667E+04  0.95000000000E+03 0.  0.
   -2000013    1    1    2    0    0  0.38850113732E+03 -0.42818910717E+03  0.61903694191E+03  0.12727866202E+04  0.95000000000E+03 0.  0.
<mgrwt>
<rscale>  0 0.22357903E+04</rscale>
<asrwt>0</asrwt>
<pdfrwt beam="1">  1        2 0.26419649E+00 0.22357903E+04</pdfrwt>
<pdfrwt beam="2">  1       -2 0.11195626E+00 0.22357903E+04</pdfrwt>
<totfact> 0.55034710E+00</totfact>
</mgrwt>
</event>
<event>
 4    1  0.1343107E-008  0.2606499E+04  0.7816531E-02  0.8365997E-01
         -2   -1    0    0    0  501 -0.00000000000E+00  0.00000000000E+00  0.45802106550E+03  0.45802106550E+03  0.00000000000E+00 0. -1.
          2   -1    0    0  501    0  0.00000000000E+00 -0.00000000000E+00 -0.37082556327E+04  0.37082556327E+04  0.00000000000E+00 0.  1.
    2000013    1    1    2    0    0 -0.61505164243E+03 -0.34267329452E+03 -0.25009656887E+04  0.27664133613E+04  0.95000000000E+03 0.  0.
   -2000013    1    1    2    0    0  0.61505164243E+03  0.34267329452E+03 -0.74926887848E+03  0.13998633369E+04  0.95000000000E+03 0.  0.
<mgrwt>
<rscale>  0 0.26064990E+04</rscale>
<asrwt>0</asrwt>
<pdfrwt beam="2">  1        2 0.57050085E+00 0.26064990E+04</pdfrwt>
<pdfrwt beam="1">  1       -2 0.70464782E-01 0.26064990E+04</pdfrwt>
<totfact> 0.93345603E-01</totfact>
</mgrwt>
</event>
<event>
 4    1  0.1343107E-008  0.3095877E+04  0.7816531E-02  0.8216870E-01
         -2   -1    0    0    0  501 -0.00000000000E+00  0.00000000000E+00  0.81500207773E+03  0.81500207773E+03  0.00000000000E+00 0. -1.
          2   -1    0    0  501    0  0.00000000000E+00 -0.00000000000E+00 -0.29400091533E+04  0.29400091533E+04  0.00000000000E+00 0.  1.
    2000013    1    1    2    0    0 -0.53601770459E+02 -0.98487661399E+03 -0.18722613122E+03  0.13821753575E+04  0.95000000000E+03 0.  0.
   -2000013    1    1    2    0    0  0.53601770459E+02  0.98487661399E+03 -0.19377809444E+04  0.23728358736E+04  0.95000000000E+03 0.  0.
<mgrwt>
<rscale>  0 0.30958770E+04</rscale>
<asrwt>0</asrwt>
<pdfrwt beam="2">  1        2 0.45230909E+00 0.30958770E+04</pdfrwt>
<pdfrwt beam="1">  1       -2 0.12538494E+00 0.30958770E+04</pdfrwt>
<totfact> 0.76643839E-01</totfact>
</mgrwt>
</event>
<event>
 4    1  0.1343107E-008  0.2611749E+04  0.7816531E-02  0.8364221E-01
         -2   -1    0    0    0  501 -0.00000000000E+00  0.00000000000E+00  0.57713216636E+03  0.57713216636E+03  0.00000000000E+00 0. -1.
          2   -1    0    0  501    0  0.00000000000E+00 -0.00000000000E+00 -0.29547957651E+04  0.29547957651E+04  0.00000000000E+00 0.  1.
    2000013    1    1    2    0    0 -0.22656642985E+03  0.78755387358E+03 -0.69893564818E+03  0.14361700774E+04  0.95000000000E+03 0.  0.
   -2000013    1    1    2    0    0  0.22656642985E+03 -0.78755387358E+03 -0.16787279506E+04  0.20957578541E+04  0.95000000000E+03 0.  0.
<mgrwt>
<rscale>  0 0.26117486E+04</rscale>
<asrwt>0</asrwt>
<pdfrwt beam="2">  1        2 0.45458397E+00 0.26117486E+04</pdfrwt>
<pdfrwt beam="1">  1       -2 0.88789562E-01 0.26117486E+04</pdfrwt>
<totfact> 0.17900996E+00</totfact>
</mgrwt>
</event>
<event>
 4    1  0.1343107E-008  0.2517802E+04  0.7816531E-02  0.8396671E-01
         -2   -1    0    0    0  501 -0.00000000000E+00  0.00000000000E+00  0.60805386319E+03  0.60805386319E+03  0.00000000000E+00 0.  1.
          2   -1    0    0  501    0  0.00000000000E+00 -0.00000000000E+00 -0.26064008049E+04  0.26064008049E+04  0.00000000000E+00 0. -1.
    2000013    1    1    2    0    0 -0.67476635538E+03 -0.55756783251E+02 -0.16032972686E+04  0.19827961531E+04  0.95000000000E+03 0.  0.
   -2000013    1    1    2    0    0  0.67476635538E+03  0.55756783251E+02 -0.39504967304E+03  0.12316585149E+04  0.95000000000E+03 0.  0.
<mgrwt>
<rscale>  0 0.25178023E+04</rscale>
<asrwt>0</asrwt>
<pdfrwt beam="2">  1        2 0.40098474E+00 0.25178023E+04</pdfrwt>
<pdfrwt beam="1">  1       -2 0.93546747E-01 0.25178023E+04</pdfrwt>
<totfact> 0.25954961E+00</totfact>
</mgrwt>
</event>
<event>
 4    1  0.1343107E-008  0.2898591E+04  0.7816531E-02  0.8273297E-01
         -1   -1    0    0    0  501 -0.00000000000E+00  0.00000000000E+00  0.12789451223E+04  0.12789451223E+04  0.00000000000E+00 0.  1.
          1   -1    0    0  501    0  0.00000000000E+00 -0.00000000000E+00 -0.16423363929E+04  0.16423363929E+04  0.00000000000E+00 0. -1.
    2000013    1    1    2    0    0  0.21169974894E+03 -0.10686136705E+04 -0.75007830592E+02  0.14473693845E+04  0.95000000000E+03 0.  0.
   -2000013    1    1    2    0    0 -0.21169974894E+03  0.10686136705E+04 -0.28838344003E+03  0.14739121307E+04  0.95000000000E+03 0.  0.
<mgrwt>
<rscale>  0 0.28985915E+04</rscale>
<asrwt>0</asrwt>
<pdfrwt beam="2">  1        1 0.25266714E+00 0.28985915E+04</pdfrwt>
<pdfrwt beam="1">  1       -1 0.19676079E+00 0.28985915E+04</pdfrwt>
<totfact> 0.71009942E-01</totfact>
</mgrwt>
</event>
<event>
 4    1  0.1343107E-008  0.2664283E+04  0.7816531E-02  0.8346688E-01
          2   -1    0    0  501    0  0.00000000000E+00  0.00000000000E+00  0.13140754791E+04  0.13140754791E+04  0.00000000000E+00 0.  1.
         -2   -1    0    0    0  501 -0.00000000000E+00 -0.00000000000E+00 -0.13504559711E+04  0.13504559711E+04  0.00000000000E+00 0. -1.
    2000013    1    1    2    0    0  0.49534318390E+03  0.78333712229E+03  0.96359334284E+02  0.13307017090E+04  0.95000000000E+03 0.  0.
   -2000013    1    1    2    0    0 -0.49534318390E+03 -0.78333712229E+03 -0.13273982627E+03  0.13338297412E+04  0.95000000000E+03 0.  0.
<mgrwt>
<rscale>  0 0.26642831E+04</rscale>
<asrwt>0</asrwt>
<pdfrwt beam="1">  1        2 0.20216546E+00 0.26642831E+04</pdfrwt>
<pdfrwt beam="2">  1       -2 0.20776246E+00 0.26642831E+04</pdfrwt>
<totfact> 0.16897140E+00</totfact>
</mgrwt>
</event>
<event>
 4    1  0.1343107E-008  0.2619516E+04  0.7816531E-02  0.8361602E-01
          2   -1    0    0  501    0  0.00000000000E+00  0.00000000000E+00  0.18858213434E+04  0.18858213434E+04  0.00000000000E+00 0.  1.
         -2   -1    0    0    0  501 -0.00000000000E+00 -0.00000000000E+00 -0.90966534800E+03  0.90966534800E+03  0.00000000000E+00 0. -1.
    2000013    1    1    2    0    0 -0.68308376357E+03  0.47779771211E+03  0.85477743899E+03  0.15257911233E+04  0.95000000000E+03 0.  0.
   -2000013    1    1    2    0    0  0.68308376357E+03 -0.47779771211E+03  0.12137855644E+03  0.12696955681E+04  0.95000000000E+03 0.  0.
<mgrwt>
<rscale>  0 0.26195162E+04</rscale>
<asrwt>0</asrwt>
<pdfrwt beam="1">  1        2 0.29012636E+00 0.26195162E+04</pdfrwt>
<pdfrwt beam="2">  1       -2 0.13994852E+00 0.26195162E+04</pdfrwt>
<totfact> 0.24552013E+00</totfact>
</mgrwt>
</event>
<event>
 4    1  0.1343107E-008  0.2598079E+04  0.7816531E-02  0.8368854E-01
         -2   -1    0    0    0  501 -0.00000000000E+00  0.00000000000E+00  0.24764439755E+04  0.24764439755E+04  0.00000000000E+00 0.  1.
          2   -1    0    0  501    0  0.00000000000E+00 -0.00000000000E+00 -0.68142227120E+03  0.68142227120E+03  0.00000000000E+00 0. -1.
    2000013    1    1    2    0    0  0.59626503864E+03 -0.25429183254E+03  0.16316414841E+04  0.19962340206E+04  0.95000000000E+03 0.  0.
   -2000013    1    1    2    0    0 -0.59626503864E+03  0.25429183254E+03  0.16338022024E+03  0.11616322261E+04  0.95000000000E+03 0.  0.
<mgrwt>
<rscale>  0 0.25980794E+04</rscale>
<asrwt>0</asrwt>
<pdfrwt beam="2">  1        2 0.10483420E+00 0.25980794E+04</pdfrwt>
<pdfrwt beam="1">  1       -2 0.38099138E+00 0.25980794E+04</pdfrwt>
<totfact> 0.37005194E-01</totfact>
</mgrwt>
</event>
<event>
 4    1  0.1343107E-008  0.2467874E+04  0.7816531E-02  0.8414521E-01
         -2   -1    0    0    0  501 -0.00000000000E+00  0.00000000000E+00  0.93822528080E+03  0.93822528080E+03  0.00000000000E+00 0. -1.
          2   -1    0    0  501    0  0.00000000000E+00 -0.00000000000E+00 -0.16228513660E+04  0.16228513660E+04  0.00000000000E+00 0.  1.
    2000013    1    1    2    0    0  0.48369604749E+03 -0.50575834978E+03 -0.71698383214E+03  0.13806951837E+04  0.95000000000E+03 0.  0.
   -2000013    1    1    2    0    0 -0.48369604749E+03  0.50575834978E+03  0.32357746905E+02  0.11803814631E+04  0.95000000000E+03 0.  0.
<mgrwt>
<rscale>  0 0.24678737E+04</rscale>
<asrwt>0</asrwt>
<pdfrwt beam="2">  1        2 0.24966944E+00 0.24678737E+04</pdfrwt>
<pdfrwt beam="1">  1       -2 0.14434235E+00 0.24678737E+04</pdfrwt>
<totfact> 0.32115835E+00</totfact>
</mgrwt>
</event>
<event>
 4    1  0.1343107E-008  0.3216689E+04  0.7816531E-02  0.8184424E-01
         -2   -1    0    0    0  501 -0.00000000000E+00  0.00000000000E+00  0.17672843834E+04  0.17672843834E+04  0.00000000000E+00 0. -1.
          2   -1    0    0  501    0  0.00000000000E+00 -0.00000000000E+00 -0.14636984275E+04  0.14636984275E+04  0.00000000000E+00 0.  1.
    2000013    1    1    2    0    0  0.37287344173E+02 -0.10399452887E+04 -0.62714965033E+03  0.15423012784E+04  0.95000000000E+03 0.  0.
   -2000013    1    1    2    0    0 -0.37287344173E+02  0.10399452887E+04  0.93073560625E+03  0.16886815325E+04  0.95000000000E+03 0.  0.
<mgrwt>
<rscale>  0 0.32166886E+04</rscale>
<asrwt>0</asrwt>
<pdfrwt beam="2">  1        2 0.22518437E+00 0.32166886E+04</pdfrwt>
<pdfrwt beam="1">  1       -2 0.27188991E+00 0.32166886E+04</pdfrwt>
<totfact> 0.52819946E-01</totfact>
</mgrwt>
</event>
<event>
 4    1  0.1343107E-008  0.2476227E+04  0.7816531E-02  0.8411504E-01
          2   -1    0    0  501    0  0.00000000000E+00  0.00000000000E+00  0.24440289575E+04  0.24440289575E+04  0.00000000000E+00 0.  1.
         -2   -1    0    0    0  501 -0.00000000000E+00 -0.00000000000E+00 -0.62721227017E+03  0.62721227017E+03  0.00000000000E+00 0. -1.
    2000013    1    1    2    0    0  0.73034864862E+03  0.31137110408E+03  0.91831809043E+03  0.15414828018E+04  0.95000000000E+03 0.  0.
   -2000013    1    1    2    0    0 -0.73034864862E+03 -0.31137110408E+03  0.89849859692E+03  0.15297584259E+04  0.95000000000E+03 0.  0.
<mgrwt>
<rscale>  0 0.24762269E+04</rscale>
<asrwt>0</asrwt>
<pdfrwt beam="1">  1        2 0.37600445E+00 0.24762269E+04</pdfrwt>
<pdfrwt beam="2">  1       -2 0.96494196E-01 0.24762269E+04</pdfrwt>
<totfact> 0.30109183E+00</totfact>
</mgrwt>
</event>
<event>
 4    1  0.1343107E-008  0.2113276E+04  0.7816531E-02  0.8555418E-01
          2   -1    0    0  501    0  0.00000000000E+00  0.00000000000E+00  0.20453733979E+04  0.20453733979E+04  0.00000000000E+00 0.  1.
         -2   -1    0    0    0  501 -0.00000000000E+00 -0.00000000000E+00 -0.54585800039E+03  0.54585800039E+03  0.00000000000E+00 0. -1.
    2000013    1    1    2    0    0 -0.83239403240E+01 -0.44924134669E+03  0.61489949631E+03  0.12175748298E+04  0.95000000000E+03 0.  0.
   -2000013    1    1    2    0    0  0.83239403240E+01  0.44924134669E+03  0.88461590124E+03  0.13736565685E+04  0.95000000000E+03 0.  0.
<mgrwt>
<rscale>  0 0.21132756E+04</rscale>
<asrwt>0</asrwt>
<pdfrwt beam="1">  1        2 0.31467283E+00 0.21132756E+04</pdfrwt>
<pdfrwt beam="2">  1       -2 0.83978155E-01 0.21132756E+04</pdfrwt>
<totfact> 0.71861279E+00</totfact>
</mgrwt>
</event>
<event>
 4    1  0.1343107E-008  0.2968485E+04  0.7816531E-02  0.8252788E-01
         -2   -1    0    0    0  501 -0.00000000000E+00  0.00000000000E+00  0.18444433363E+04  0.18444433363E+04  0.00000000000E+00 0.  1.
          2   -1    0    0  501    0  0.00000000000E+00 -0.00000000000E+00 -0.11943854336E+04  0.11943854336E+04  0.00000000000E+00 0. -1.
    2000013    1    1    2    0    0 -0.30506632305E+03  0.34481872417E+03  0.13930694109E+04  0.17478866661E+04  0.95000000000E+03 0.  0.
   -2000013    1    1    2    0    0  0.30506632305E+03 -0.34481872417E+03 -0.74301150818E+03  0.12909421038E+04  0.95000000000E+03 0.  0.
<mgrwt>
<rscale>  0 0.29684853E+04</rscale>
<asrwt>0</asrwt>
<pdfrwt beam="2">  1        2 0.18375160E+00 0.29684853E+04</pdfrwt>
<pdfrwt beam="1">  1       -2 0.28376051E+00 0.29684853E+04</pdfrwt>
<totfact> 0.65436738E-01</totfact>
</mgrwt>
</event>
<event>
 4    1  0.1343107E-008  0.2516142E+04  0.7816531E-02  0.8397257E-01
         -2   -1    0    0    0  501 -0.00000000000E+00  0.00000000000E+00  0.69250501966E+03  0.69250501966E+03  0.00000000000E+00 0. -1.
          2   -1    0    0  501    0  0.00000000000E+00 -0.00000000000E+00 -0.22855320612E+04  0.22855320612E+04  0.00000000000E+00 0.  1.
    2000013    1    1    2    0    0 -0.81567476343E+03 -0.12149322930E+03 -0.78170700575E+03  0.14810981626E+04  0.95000000000E+03 0.  0.
   -2000013    1    1    2    0    0  0.81567476343E+03  0.12149322930E+03 -0.81132003578E+03  0.14969389182E+04  0.95000000000E+03 0.  0.
<mgrwt>
<rscale>  0 0.25161418E+04</rscale>
<asrwt>0</asrwt>
<pdfrwt beam="2">  1        2 0.35162032E+00 0.25161418E+04</pdfrwt>
<pdfrwt beam="1">  1       -2 0.10653923E+00 0.25161418E+04</pdfrwt>
<totfact> 0.29204157E+00</totfact>
</mgrwt>
</event>
<event>
 4    1  0.1343107E-008  0.2951436E+04  0.7816531E-02  0.8257736E-01
         -2   -1    0    0    0  501 -0.00000000000E+00  0.00000000000E+00  0.17440489038E+04  0.17440489038E+04  0.00000000000E+00 0. -1.
          2   -1    0    0  501    0  0.00000000000E+00 -0.00000000000E+00 -0.12486714128E+04  0.12486714128E+04  0.00000000000E+00 0.  1.
    2000013    1    1    2    0    0 -0.43531036232E+03 -0.95002496502E+03 -0.18631871124E+03  0.14245199921E+04  0.95000000000E+03 0.  0.
   -2000013    1    1    2    0    0  0.43531036232E+03  0.95002496502E+03  0.68169620226E+03  0.15682003245E+04  0.95000000000E+03 0.  0.
<mgrwt>
<rscale>  0 0.29514363E+04</rscale>
<asrwt>0</asrwt>
<pdfrwt beam="2">  1        2 0.19210329E+00 0.29514363E+04</pdfrwt>
<pdfrwt beam="1">  1       -2 0.26831522E+00 0.29514363E+04</pdfrwt>
<totfact> 0.75578654E-01</totfact>
</mgrwt>
</event>
<event>
 4    1  0.1343107E-008  0.2333074E+04  0.7816531E-02  0.8464993E-01
         -2   -1    0    0    0  501 -0.00000000000E+00  0.00000000000E+00  0.54675790258E+03  0.54675790258E+03  0.00000000000E+00 0.  1.
          2   -1    0    0  501    0  0.00000000000E+00 -0.00000000000E+00 -0.24888687291E+04  0.24888687291E+04  0.00000000000E+00 0. -1.
    2000013    1    1    2    0    0  0.50284589456E+03 -0.24343381231E+03 -0.14685467713E+04  0.18360946692E+04  0.95000000000E+03 0.  0.
   -2000013    1    1    2    0    0 -0.50284589456E+03  0.24343381231E+03 -0.47356405517E+03  0.11995319625E+04  0.95000000000E+03 0.  0.
<mgrwt>
<rscale>  0 0.23330741E+04</rscale>
<asrwt>0</asrwt>
<pdfrwt beam="2">  1        2 0.38290288E+00 0.23330741E+04</pdfrwt>
<pdfrwt beam="1">  1       -2 0.84116601E-01 0.23330741E+04</pdfrwt>
<totfact> 0.39416564E+00</totfact>
</mgrwt>
</event>
<event>
 4    1  0.1343107E-008  0.2068278E+04  0.7816531E-02  0.8575347E-01
          2   -1    0    0  501    0  0.00000000000E+00  0.00000000000E+00  0.96271754487E+03  0.96271754487E+03  0.00000000000E+00 0.  1.
         -2   -1    0    0    0  501 -0.00000000000E+00 -0.00000000000E+00 -0.11108591429E+04  0.11108591429E+04  0.00000000000E+00 0. -1.
    2000013    1    1    2    0    0 -0.40515840467E+02  0.36275956861E+03 -0.25813729781E+03  0.10499385232E+04  0.95000000000E+03 0.  0.
   -2000013    1    1    2    0    0  0.40515840467E+02 -0.36275956861E+03  0.10999569981E+03  0.10236381646E+04  0.95000000000E+03 0.  0.
<mgrwt>
<rscale>  0 0.20682781E+04</rscale>
<asrwt>0</asrwt>
<pdfrwt beam="1">  1        2 0.14811039E+00 0.20682781E+04</pdfrwt>
<pdfrwt beam="2">  1       -2 0.17090141E+00 0.20682781E+04</pdfrwt>
<totfact> 0.51664039E+00</totfact>
</mgrwt>
</event>
<event>
 4    1  0.1343107E-008  0.2379045E+04  0.7816531E-02  0.8447391E-01
          2   -1    0    0  501    0  0.00000000000E+00  0.00000000000E+00  0.24212317569E+04  0.24212317569E+04  0.00000000000E+00 0.  1.
         -2   -1    0    0    0  501 -0.00000000000E+00 -0.00000000000E+00 -0.58439821305E+03  0.58439821305E+03  0.00000000000E+00 0. -1.
    2000013    1    1    2    0    0 -0.33441069102E+03 -0.62889032089E+03  0.10089045960E+04  0.15581148962E+04  0.95000000000E+03 0.  0.
   -2000013    1    1    2    0    0  0.33441069102E+03  0.62889032089E+03  0.82792894784E+03  0.14475150737E+04  0.95000000000E+03 0.  0.
<mgrwt>
<rscale>  0 0.23790448E+04</rscale>
<asrwt>0</asrwt>
<pdfrwt beam="1">  1        2 0.37249719E+00 0.23790448E+04</pdfrwt>
<pdfrwt beam="2">  1       -2 0.89907419E-01 0.23790448E+04</pdfrwt>
<totfact> 0.36880065E+00</totfact>
</mgrwt>
</event>
<event>
 4    1  0.1343107E-008  0.3089200E+04  0.7816531E-02  0.8218708E-01
         -2   -1    0    0    0  501 -0.00000000000E+00  0.00000000000E+00  0.91078167589E+03  0.91078167589E+03  0.00000000000E+00 0. -1.
          2   -1    0    0  501    0  0.00000000000E+00 -0.00000000000E+00 -0.26194970027E+04  0.26194970027E+04  0.00000000000E+00 0.  1.
    2000013    1    1    2    0    0  0.10007501769E+04 -0.40040464267E+03 -0.15022902131E+04  0.20787497874E+04  0.95000000000E+03 0.  0.
   -2000013    1    1    2    0    0 -0.10007501769E+04  0.40040464267E+03 -0.20642511373E+03  0.14515288912E+04  0.95000000000E+03 0.  0.
<mgrwt>
<rscale>  0 0.30892005E+04</rscale>
<asrwt>0</asrwt>
<pdfrwt beam="2">  1        2 0.40299953E+00 0.30892005E+04</pdfrwt>
<pdfrwt beam="1">  1       -2 0.14012026E+00 0.30892005E+04</pdfrwt>
<totfact> 0.90229882E-01</totfact>
</mgrwt>
</event>
<event>
 4    1  0.1343107E-008  0.2909225E+04  0.7816531E-02  0.8270138E-01
          2   -1    0    0  501    0  0.00000000000E+00  0.00000000000E+00  0.17727833651E+04  0.17727833651E+04  0.00000000000E+00 0.  1.
         -2   -1    0    0    0  501 -0.00000000000E+00 -0.00000000000E+00 -0.11935457942E+04  0.11935457942E+04  0.00000000000E+00 0. -1.
    2000013    1    1    2    0    0  0.38729560274E+03 -0.90330532619E+03 -0.21757822761E+03  0.13841237955E+04  0.95000000000E+03 0.  0.
   -2000013    1    1    2    0    0 -0.38729560274E+03  0.90330532619E+03  0.79681579858E+03  0.15822053638E+04  0.95000000000E+03 0.  0.
<mgrwt>
<rscale>  0 0.29092254E+04</rscale>
<asrwt>0</asrwt>
<pdfrwt beam="1">  1        2 0.27273590E+00 0.29092254E+04</pdfrwt>
<pdfrwt beam="2">  1       -2 0.18362243E+00 0.29092254E+04</pdfrwt>
<totfact> 0.13194377E+00</totfact>
</mgrwt>
</event>
<event>
 4    1  0.1343107E-008  0.2576767E+04  0.7816531E-02  0.8376136E-01
         -2   -1    0    0    0  501 -0.00000000000E+00  0.00000000000E+00  0.70102085316E+03  0.70102085316E+03  0.00000000000E+00 0. -1.
          2   -1    0    0  501    0  0.00000000000E+00 -0.00000000000E+00 -0.23678785467E+04  0.23678785467E+04  0.00000000000E+00 0.  1.
    2000013    1    1    2    0    0  0.48899231476E+03 -0.65514369167E+02 -0.16873156134E+04  0.19982341193E+04  0.95000000000E+03 0.  0.
   -2000013    1    1    2    0    0 -0.48899231476E+03  0.65514369167E+02  0.20457919854E+02  0.10706652805E+04  0.95000000000E+03 0.  0.
<mgrwt>
<rscale>  0 0.25767672E+04</rscale>
<asrwt>0</asrwt>
<pdfrwt beam="2">  1        2 0.36428901E+00 0.25767672E+04</pdfrwt>
<pdfrwt beam="1">  1       -2 0.10784936E+00 0.25767672E+04</pdfrwt>
<totfact> 0.25327166E+00</totfact>
</mgrwt>
</event>
<event>
 4    1  0.1343107E-008  0.2297147E+04  0.7816531E-02  0.8479047E-01
         -2   -1    0    0    0  501 -0.00000000000E+00  0.00000000000E+00  0.45458402979E+03  0.45458402979E+03  0.00000000000E+00 0. -1.
          2   -1    0    0  501    0  0.00000000000E+00 -0.00000000000E+00 -0.29020411936E+04  0.29020411936E+04  0.00000000000E+00 0.  1.
    2000013    1    1    2    0    0 -0.15465667934E+03  0.44749676158E+03 -0.58254081546E+03  0.12107955409E+04  0.95000000000E+03 0.  0.
   -2000013    1    1    2    0    0  0.15465667934E+03 -0.44749676158E+03 -0.18649163483E+04  0.21458296825E+04  0.95000000000E+03 0.  0.
<mgrwt>
<rscale>  0 0.22971474E+04</rscale>
<asrwt>0</asrwt>
<pdfrwt beam="2">  1        2 0.44646788E+00 0.22971474E+04</pdfrwt>
<pdfrwt beam="1">  1       -2 0.69936004E-01 0.22971474E+04</pdfrwt>
<totfact> 0.33856418E+00</totfact>
</mgrwt>
</event>
<event>
 4    1  0.1343107E-008  0.3433261E+04  0.7816531E-02  0.8129791E-01
         -2   -1    0    0    0  501 -0.00000000000E+00  0.00000000000E+00  0.82282006281E+03  0.82282006281E+03  0.00000000000E+00 0. -1.
          2   -1    0    0  501    0  0.00000000000E+00 -0.00000000000E+00 -0.35813674905E+04  0.35813674905E+04  0.00000000000E+00 0.  1.
    2000013    1    1    2    0    0 -0.24747315888E+03  0.13180064235E+04 -0.74310694816E+03  0.18036329541E+04  0.95000000000E+03 0.  0.
   -2000013    1    1    2    0    0  0.24747315888E+03 -0.13180064235E+04 -0.20154404796E+04  0.26005545992E+04  0.95000000000E+03 0.  0.
<mgrwt>
<rscale>  0 0.34332614E+04</rscale>
<asrwt>0</asrwt>
<pdfrwt beam="2">  1        2 0.55097962E+00 0.34332614E+04</pdfrwt>
<pdfrwt beam="1">  1       -2 0.12658770E+00 0.34332614E+04</pdfrwt>
<totfact> 0.27276596E-01</totfact>
</mgrwt>
</event>
<event>
 4    1  0.1343107E-008  0.4833296E+04  0.7816531E-02  0.7854750E-01
          2   -1    0    0  501    0  0.00000000000E+00  0.00000000000E+00  0.27293681977E+04  0.27293681977E+04  0.00000000000E+00 0.  1.
         -2   -1    0    0    0  501 -0.00000000000E+00 -0.00000000000E+00 -0.21397582369E+04  0.21397582369E+04  0.00000000000E+00 0. -1.
    2000013    1    1    2    0    0 -0.82288968180E+03  0.20299531721E+04  0.67151660231E+03  0.24801798033E+04  0.95000000000E+03 0.  0.
   -2000013    1    1    2    0    0  0.82288968180E+03 -0.20299531721E+04 -0.81906641567E+02  0.23889466313E+04  0.95000000000E+03 0.  0.
<mgrwt>
<rscale>  0 0.48332962E+04</rscale>
<asrwt>0</asrwt>
<pdfrwt beam="1">  1        2 0.41990280E+00 0.48332962E+04</pdfrwt>
<pdfrwt beam="2">  1       -2 0.32919357E+00 0.48332962E+04</pdfrwt>
<totfact> 0.39505073E-02</totfact>
</mgrwt>
</event>
<event>
 4    1  0.1343107E-008  0.2818709E+04  0.7816531E-02  0.8297483E-01
          2   -1    0    0  501    0  0.00000000000E+00  0.00000000000E+00  0.21811311087E+04  0.21811311087E+04  0.00000000000E+00 0.  1.
         -2   -1    0    0    0  501 -0.00000000000E+00 -0.00000000000E+00 -0.91066509972E+03  0.91066509972E+03  0.00000000000E+00 0. -1.
    2000013    1    1    2    0    0 -0.10045912892E+04  0.11608087521E+03  0.36409727720E+03  0.14344843168E+04  0.95000000000E+03 0.  0.
   -2000013    1    1    2    0    0  0.10045912892E+04 -0.11608087521E+03  0.90636873176E+03  0.16573118916E+04  0.95000000000E+03 0.  0.
<mgrwt>
<rscale>  0 0.28187089E+04</rscale>
<asrwt>0</asrwt>
<pdfrwt beam="1">  1        2 0.33555863E+00 0.28187089E+04</pdfrwt>
<pdfrwt beam="2">  1       -2 0.14010232E+00 0.28187089E+04</pdfrwt>
<totfact> 0.16480414E+00</totfact>
</mgrwt>
</event>
<event>
 4    1  0.1343107E-008  0.2624669E+04  0.7816531E-02  0.8359870E-01
          2   -1    0    0  501    0  0.00000000000E+00  0.00000000000E+00  0.12821584043E+04  0.12821584043E+04  0.00000000000E+00 0.  1.
         -2   -1    0    0    0  501 -0.00000000000E+00 -0.00000000000E+00 -0.13432205384E+04  0.13432205384E+04  0.00000000000E+00 0. -1.
    2000013    1    1    2    0    0 -0.41824858592E+03  0.71565526927E+03  0.33374759273E+03  0.13042169297E+04  0.95000000000E+03 0.  0.
   -2000013    1    1    2    0    0  0.41824858592E+03 -0.71565526927E+03 -0.39480972688E+03  0.13211620130E+04  0.95000000000E+03 0.  0.
<mgrwt>
<rscale>  0 0.26246687E+04</rscale>
<asrwt>0</asrwt>
<pdfrwt beam="1">  1        2 0.19725514E+00 0.26246687E+04</pdfrwt>
<pdfrwt beam="2">  1       -2 0.20664931E+00 0.26246687E+04</pdfrwt>
<totfact> 0.17991800E+00</totfact>
</mgrwt>
</event>
<event>
 4    1  0.1343107E-008  0.2863719E+04  0.7816531E-02  0.8283755E-01
         -2   -1    0    0    0  501 -0.00000000000E+00  0.00000000000E+00  0.58584883689E+03  0.58584883689E+03  0.00000000000E+00 0. -1.
          2   -1    0    0  501    0  0.00000000000E+00 -0.00000000000E+00 -0.34995740034E+04  0.34995740034E+04  0.00000000000E+00 0.  1.
    2000013    1    1    2    0    0  0.65746337280E+03 -0.65917766877E+03 -0.22130329772E+04  0.25820124407E+04  0.95000000000E+03 0.  0.
   -2000013    1    1    2    0    0 -0.65746337280E+03  0.65917766877E+03 -0.70069218934E+03  0.15034103996E+04  0.95000000000E+03 0.  0.
<mgrwt>
<rscale>  0 0.28637188E+04</rscale>
<asrwt>0</asrwt>
<pdfrwt beam="2">  1        2 0.53839601E+00 0.28637188E+04</pdfrwt>
<pdfrwt beam="1">  1       -2 0.90130588E-01 0.28637188E+04</pdfrwt>
<totfact> 0.74145500E-01</totfact>
</mgrwt>
</event>
<event>
 4    1  0.1343107E-008  0.1998254E+04  0.7816531E-02  0.8607438E-01
          1   -1    0    0  501    0  0.00000000000E+00  0.00000000000E+00  0.12663011490E+04  0.12663011490E+04  0.00000000000E+00 0.  1.
         -1   -1    0    0    0  501 -0.00000000000E+00 -0.00000000000E+00 -0.78832307397E+03  0.78832307397E+03  0.00000000000E+00 0. -1.
    2000013    1    1    2    0    0 -0.51103941599E+02  0.24275524033E+03  0.48804401246E+02  0.98306845598E+03  0.95000000000E+03 0.  0.
   -2000013    1    1    2    0    0  0.51103941599E+02 -0.24275524033E+03  0.42917367383E+03  0.10715557670E+04  0.95000000000E+03 0.  0.
<mgrwt>
<rscale>  0 0.19982537E+04</rscale>
<asrwt>0</asrwt>
<pdfrwt beam="1">  1        1 0.19481556E+00 0.19982537E+04</pdfrwt>
<pdfrwt beam="2">  1       -1 0.12128047E+00 0.19982537E+04</pdfrwt>
<totfact> 0.53522417E+00</totfact>
</mgrwt>
</event>
<event>
 4    1  0.1343107E-008  0.2515752E+04  0.7816531E-02  0.8397395E-01
          2   -1    0    0  501    0  0.00000000000E+00  0.00000000000E+00  0.34529862891E+04  0.34529862891E+04  0.00000000000E+00 0.  1.
         -2   -1    0    0    0  501 -0.00000000000E+00 -0.00000000000E+00 -0.45822717299E+03  0.45822717299E+03  0.00000000000E+00 0. -1.
    2000013    1    1    2    0    0  0.38702733913E+03 -0.66457542577E+03  0.10353947574E+04  0.16018717057E+04  0.95000000000E+03 0.  0.
   -2000013    1    1    2    0    0 -0.38702733913E+03  0.66457542577E+03  0.19593643588E+04  0.23093417565E+04  0.95000000000E+03 0.  0.
<mgrwt>
<rscale>  0 0.25157521E+04</rscale>
<asrwt>0</asrwt>
<pdfrwt beam="1">  1        2 0.53122864E+00 0.25157521E+04</pdfrwt>
<pdfrwt beam="2">  1       -2 0.70496491E-01 0.25157521E+04</pdfrwt>
<totfact> 0.14307854E+00</totfact>
</mgrwt>
</event>
<event>
 4    1  0.1343107E-008  0.2391624E+04  0.7816531E-02  0.8442646E-01
          2   -1    0    0  501    0  0.00000000000E+00  0.00000000000E+00  0.14102124979E+04  0.14102124979E+04  0.00000000000E+00 0.  1.
         -2   -1    0    0    0  501 -0.00000000000E+00 -0.00000000000E+00 -0.10140074185E+04  0.10140074185E+04  0.00000000000E+00 0. -1.
    2000013    1    1    2    0    0 -0.72428580175E+03  0.52447039672E+02  0.18675532689E+03  0.12102554138E+04  0.95000000000E+03 0.  0.
   -2000013    1    1    2    0    0  0.72428580175E+03 -0.52447039672E+02  0.20944975250E+03  0.12139645025E+04  0.95000000000E+03 0.  0.
<mgrwt>
<rscale>  0 0.23916237E+04</rscale>
<asrwt>0</asrwt>
<pdfrwt beam="1">  1        2 0.21695577E+00 0.23916237E+04</pdfrwt>
<pdfrwt beam="2">  1       -2 0.15600114E+00 0.23916237E+04</pdfrwt>
<totfact> 0.34666953E+00</totfact>
</mgrwt>
</event>
<event>
 4    1  0.1343107E-008  0.2550145E+04  0.7816531E-02  0.8385336E-01
         -1   -1    0    0    0  501 -0.00000000000E+00  0.00000000000E+00  0.11751088742E+04  0.11751088742E+04  0.00000000000E+00 0. -1.
          1   -1    0    0  501    0  0.00000000000E+00 -0.00000000000E+00 -0.13835394813E+04  0.13835394813E+04  0.00000000000E+00 0.  1.
    2000013    1    1    2    0    0 -0.79298339752E+03  0.29124375450E+03 -0.55822125367E+01  0.12712894062E+04  0.95000000000E+03 0.  0.
   -2000013    1    1    2    0    0  0.79298339752E+03 -0.29124375450E+03 -0.20284839454E+03  0.12873589493E+04  0.95000000000E+03 0.  0.
<mgrwt>
<rscale>  0 0.25501447E+04</rscale>
<asrwt>0</asrwt>
<pdfrwt beam="2">  1        1 0.21285223E+00 0.25501447E+04</pdfrwt>
<pdfrwt beam="1">  1       -1 0.18078598E+00 0.25501447E+04</pdfrwt>
<totfact> 0.14338737E+00</totfact>
</mgrwt>
</event>
<event>
 4    1  0.1343107E-008  0.3309160E+04  0.7816531E-02  0.8160569E-01
          2   -1    0    0  501    0  0.00000000000E+00  0.00000000000E+00  0.10000906679E+04  0.10000906679E+04  0.00000000000E+00 0.  1.
         -2   -1    0    0    0  501 -0.00000000000E+00 -0.00000000000E+00 -0.27373865735E+04  0.27373865735E+04  0.00000000000E+00 0. -1.
    2000013    1    1    2    0    0  0.24034714037E+03  0.13223737450E+04 -0.10599718406E+04  0.19576719266E+04  0.95000000000E+03 0.  0.
   -2000013    1    1    2    0    0 -0.24034714037E+03 -0.13223737450E+04 -0.67732406496E+03  0.17798053148E+04  0.95000000000E+03 0.  0.
<mgrwt>
<rscale>  0 0.33091599E+04</rscale>
<asrwt>0</asrwt>
<pdfrwt beam="1">  1        2 0.15386011E+00 0.33091599E+04</pdfrwt>
<pdfrwt beam="2">  1       -2 0.42113638E+00 0.33091599E+04</pdfrwt>
<totfact> 0.11314642E-01</totfact>
</mgrwt>
</event>
<event>
 4    1  0.1343107E-008  0.2487124E+04  0.7816531E-02  0.8407587E-01
          2   -1    0    0  501    0  0.00000000000E+00  0.00000000000E+00  0.66063725738E+03  0.66063725738E+03  0.00000000000E+00 0.  1.
         -2   -1    0    0    0  501 -0.00000000000E+00 -0.00000000000E+00 -0.23408398388E+04  0.23408398388E+04  0.00000000000E+00 0. -1.
    2000013    1    1    2    0    0  0.62443242121E+03 -0.48293526480E+03 -0.66603772789E+03  0.14032991747E+04  0.95000000000E+03 0.  0.
   -2000013    1    1    2    0    0 -0.62443242121E+03  0.48293526480E+03 -0.10141648535E+04  0.15981779215E+04  0.95000000000E+03 0.  0.
<mgrwt>
<rscale>  0 0.24871236E+04</rscale>
<asrwt>0</asrwt>
<pdfrwt beam="1">  1        2 0.10163650E+00 0.24871236E+04</pdfrwt>
<pdfrwt beam="2">  1       -2 0.36012921E+00 0.24871236E+04</pdfrwt>
<totfact> 0.52834646E-01</totfact>
</mgrwt>
</event>
<event>
 4    1  0.1343107E-008  0.2457897E+04  0.7816531E-02  0.8418140E-01
          2   -1    0    0  501    0  0.00000000000E+00  0.00000000000E+00  0.17751482295E+04  0.17751482295E+04  0.00000000000E+00 0.  1.
         -2   -1    0    0    0  501 -0.00000000000E+00 -0.00000000000E+00 -0.85081010843E+03  0.85081010843E+03  0.00000000000E+00 0. -1.
    2000013    1    1    2    0    0 -0.22341514900E+03 -0.36197643453E+03  0.11601980181E+04  0.15586855710E+04  0.95000000000E+03 0.  0.
   -2000013    1    1    2    0    0  0.22341514900E+03  0.36197643453E+03 -0.23585989707E+03  0.10672727669E+04  0.95000000000E+03 0.  0.
<mgrwt>
<rscale>  0 0.24578967E+04</rscale>
<asrwt>0</asrwt>
<pdfrwt beam="1">  1        2 0.27309973E+00 0.24578967E+04</pdfrwt>
<pdfrwt beam="2">  1       -2 0.13089386E+00 0.24578967E+04</pdfrwt>
<totfact> 0.34029253E+00</totfact>
</mgrwt>
</event>
<event>
 4    1  0.1343107E-008  0.3515338E+04  0.7816531E-02  0.8110165E-01
         -2   -1    0    0    0  501 -0.00000000000E+00  0.00000000000E+00  0.92899098087E+03  0.92899098087E+03  0.00000000000E+00 0. -1.
          2   -1    0    0  501    0  0.00000000000E+00 -0.00000000000E+00 -0.33255439350E+04  0.33255439350E+04  0.00000000000E+00 0.  1.
    2000013    1    1    2    0    0  0.12199549395E+04 -0.73139683300E+03 -0.16879066107E+04  0.24030730551E+04  0.95000000000E+03 0.  0.
   -2000013    1    1    2    0    0 -0.12199549395E+04  0.73139683300E+03 -0.70864634339E+03  0.18514618607E+04  0.95000000000E+03 0.  0.
<mgrwt>
<rscale>  0 0.35153380E+04</rscale>
<asrwt>0</asrwt>
<pdfrwt beam="2">  1        2 0.51162214E+00 0.35153380E+04</pdfrwt>
<pdfrwt beam="1">  1       -2 0.14292169E+00 0.35153380E+04</pdfrwt>
<totfact> 0.29869678E-01</totfact>
</mgrwt>
</event>
<event>
 4    1  0.1343107E-008  0.2881822E+04  0.7816531E-02  0.8278307E-01
         -2   -1    0    0    0  501 -0.00000000000E+00  0.00000000000E+00  0.16769217995E+04  0.16769217995E+04  0.00000000000E+00 0. -1.
          2   -1    0    0  501    0  0.00000000000E+00 -0.00000000000E+00 -0.12381163781E+04  0.12381163781E+04  0.00000000000E+00 0.  1.
    2000013    1    1    2    0    0 -0.95061178378E+03 -0.12728096388E+03  0.72905645904E+03  0.15342380935E+04  0.95000000000E+03 0.  0.
   -2000013    1    1    2    0    0  0.95061178378E+03  0.12728096388E+03 -0.29025103766E+03  0.13808000840E+04  0.95000000000E+03 0.  0.
<mgrwt>
<rscale>  0 0.28818219E+04</rscale>
<asrwt>0</asrwt>
<pdfrwt beam="2">  1        2 0.19047944E+00 0.28818219E+04</pdfrwt>
<pdfrwt beam="1">  1       -2 0.25798797E+00 0.28818219E+04</pdfrwt>
<totfact> 0.89183735E-01</totfact>
</mgrwt>
</event>
<event>
 4    1  0.1343107E-008  0.2218341E+04  0.7816531E-02  0.8510833E-01
          2   -1    0    0  501    0  0.00000000000E+00  0.00000000000E+00  0.11260778526E+04  0.11260778526E+04  0.00000000000E+00 0.  1.
         -2   -1    0    0    0  501 -0.00000000000E+00 -0.00000000000E+00 -0.10925174594E+04  0.10925174594E+04  0.00000000000E+00 0. -1.
    2000013    1    1    2    0    0 -0.51900389188E+03 -0.80454551272E+02 -0.21110930196E+03  0.11058504022E+04  0.95000000000E+03 0.  0.
   -2000013    1    1    2    0    0  0.51900389188E+03  0.80454551272E+02  0.24466969512E+03  0.11127449098E+04  0.95000000000E+03 0.  0.
<mgrwt>
<rscale>  0 0.22183415E+04</rscale>
<asrwt>0</asrwt>
<pdfrwt beam="1">  1        2 0.17324275E+00 0.22183415E+04</pdfrwt>
<pdfrwt beam="2">  1       -2 0.16807961E+00 0.22183415E+04</pdfrwt>
<totfact> 0.42151295E+00</totfact>
</mgrwt>
</event>
<event>
 4    1  0.1343107E-008  0.2115636E+04  0.7816531E-02  0.8554387E-01
         -2   -1    0    0    0  501 -0.00000000000E+00  0.00000000000E+00  0.16461575079E+04  0.16461575079E+04  0.00000000000E+00 0.  1.
          2   -1    0    0  501    0  0.00000000000E+00 -0.00000000000E+00 -0.67975186717E+03  0.67975186717E+03  0.00000000000E+00 0. -1.
    2000013    1    1    2    0    0  0.43410425157E+03  0.11152402402E+03  0.34591309150E+03  0.11059113780E+04  0.95000000000E+03 0.  0.
   -2000013    1    1    2    0    0 -0.43410425157E+03 -0.11152402402E+03  0.62049254925E+03  0.12199979971E+04  0.95000000000E+03 0.  0.
<mgrwt>
<rscale>  0 0.21156357E+04</rscale>
<asrwt>0</asrwt>
<pdfrwt beam="2">  1        2 0.10457721E+00 0.21156357E+04</pdfrwt>
<pdfrwt beam="1">  1       -2 0.25325500E+00 0.21156357E+04</pdfrwt>
<totfact> 0.24011789E+00</totfact>
</mgrwt>
</event>
<event>
 4    1  0.1343107E-008  0.2148434E+04  0.7816531E-02  0.8540203E-01
         -2   -1    0    0    0  501 -0.00000000000E+00  0.00000000000E+00  0.96321407660E+03  0.96321407660E+03  0.00000000000E+00 0. -1.
          2   -1    0    0  501    0  0.00000000000E+00 -0.00000000000E+00 -0.11980120027E+04  0.11980120027E+04  0.00000000000E+00 0.  1.
    2000013    1    1    2    0    0 -0.49226442020E+03 -0.86513820446E+02 -0.15805151734E+03  0.10850295769E+04  0.95000000000E+03 0.  0.
   -2000013    1    1    2    0    0  0.49226442020E+03  0.86513820446E+02 -0.76746408717E+02  0.10761965024E+04  0.95000000000E+03 0.  0.
<mgrwt>
<rscale>  0 0.21484339E+04</rscale>
<asrwt>0</asrwt>
<pdfrwt beam="2">  1        2 0.18430954E+00 0.21484339E+04</pdfrwt>
<pdfrwt beam="1">  1       -2 0.14818678E+00 0.21484339E+04</pdfrwt>
<totfact> 0.53949503E+00</totfact>
</mgrwt>
</event>
<event>
 4    1  0.1343107E-008  0.2099552E+04  0.7816531E-02  0.8561441E-01
          2   -1    0    0  501    0  0.00000000000E+00  0.00000000000E+00  0.30588300076E+04  0.30588300076E+04  0.00000000000E+00 0.  1.
         -2   -1    0    0    0  501 -0.00000000000E+00 -0.00000000000E+00 -0.36027832926E+03  0.36027832926E+03  0.00000000000E+00 0. -1.
    2000013    1    1    2    0    0  0.44385169180E+03 -0.32195362368E+02  0.14121217561E+04  0.17591556837E+04  0.95000000000E+03 0.  0.
   -2000013    1    1    2    0    0 -0.44385169180E+03  0.32195362368E+02  0.12864299223E+04  0.16599526531E+04  0.95000000000E+03 0.  0.
<mgrwt>
<rscale>  0 0.20995525E+04</rscale>
<asrwt>0</asrwt>
<pdfrwt beam="1">  1        2 0.47058921E+00 0.20995525E+04</pdfrwt>
<pdfrwt beam="2">  1       -2 0.55427437E-01 0.20995525E+04</pdfrwt>
<totfact> 0.45160350E+00</totfact>
</mgrwt>
</event>
<event>
 4    1  0.1343107E-008  0.2554794E+04  0.7816531E-02  0.8383721E-01
          1   -1    0    0  501    0  0.00000000000E+00  0.00000000000E+00  0.16632675723E+04  0.16632675723E+04  0.00000000000E+00 0.  1.
         -1   -1    0    0    0  501 -0.00000000000E+00 -0.00000000000E+00 -0.98104644150E+03  0.98104644150E+03  0.00000000000E+00 0. -1.
    2000013    1    1    2    0    0  0.10531580674E+03  0.67904135121E+03  0.86588117438E+03  0.14575454655E+04  0.95000000000E+03 0.  0.
   -2000013    1    1    2    0    0 -0.10531580674E+03 -0.67904135121E+03 -0.18366004354E+03  0.11867685484E+04  0.95000000000E+03 0.  0.
<mgrwt>
<rscale>  0 0.25547937E+04</rscale>
<asrwt>0</asrwt>
<pdfrwt beam="1">  1        1 0.25588732E+00 0.25547937E+04</pdfrwt>
<pdfrwt beam="2">  1       -1 0.15093022E+00 0.25547937E+04</pdfrwt>
<totfact> 0.15319846E+00</totfact>
</mgrwt>
</event>
<event>
 4    1  0.1343107E-008  0.3106285E+04  0.7816531E-02  0.8214015E-01
          2   -1    0    0  501    0  0.00000000000E+00  0.00000000000E+00  0.27001870003E+04  0.27001870003E+04  0.00000000000E+00 0. -1.
         -2   -1    0    0    0  501 -0.00000000000E+00 -0.00000000000E+00 -0.89336442021E+03  0.89336442021E+03  0.00000000000E+00 0.  1.
    2000013    1    1    2    0    0  0.35668816615E+03  0.10837180118E+04  0.37569852512E+03  0.15314439457E+04  0.95000000000E+03 0.  0.
   -2000013    1    1    2    0    0 -0.35668816615E+03 -0.10837180118E+04  0.14311240549E+04  0.20621074748E+04  0.95000000000E+03 0.  0.
<mgrwt>
<rscale>  0 0.31062846E+04</rscale>
<asrwt>0</asrwt>
<pdfrwt beam="1">  1        2 0.41541338E+00 0.31062846E+04</pdfrwt>
<pdfrwt beam="2">  1       -2 0.13744068E+00 0.31062846E+04</pdfrwt>
<totfact> 0.84847808E-01</totfact>
</mgrwt>
</event>
<event>
 4    1  0.1343107E-008  0.3275951E+04  0.7816531E-02  0.8169042E-01
          1   -1    0    0  501    0  0.00000000000E+00  0.00000000000E+00  0.12478641116E+04  0.12478641116E+04  0.00000000000E+00 0. -1.
         -1   -1    0    0    0  501 -0.00000000000E+00 -0.00000000000E+00 -0.21500447376E+04  0.21500447376E+04  0.00000000000E+00 0.  1.
    2000013    1    1    2    0    0  0.19930268508E+03 -0.10981312543E+04 -0.12096509003E+04  0.19003602586E+04  0.95000000000E+03 0.  0.
   -2000013    1    1    2    0    0 -0.19930268508E+03  0.10981312543E+04  0.30747027428E+03  0.14975485907E+04  0.95000000000E+03 0.  0.
<mgrwt>
<rscale>  0 0.32759510E+04</rscale>
<asrwt>0</asrwt>
<pdfrwt beam="1">  1        1 0.19197910E+00 0.32759510E+04</pdfrwt>
<pdfrwt beam="2">  1       -1 0.33077611E+00 0.32759510E+04</pdfrwt>
<totfact> 0.17051833E-01</totfact>
</mgrwt>
</event>
<event>
 4    1  0.1343107E-008  0.2086239E+04  0.7816531E-02  0.8567329E-01
          2   -1    0    0  501    0  0.00000000000E+00  0.00000000000E+00  0.28266729084E+04  0.28266729084E+04  0.00000000000E+00 0.  1.
         -2   -1    0    0    0  501 -0.00000000000E+00 -0.00000000000E+00 -0.38493968981E+03  0.38493968981E+03  0.00000000000E+00 0. -1.
    2000013    1    1    2    0    0  0.21889233529E+03 -0.28302707705E+03  0.15902662052E+04  0.18866543892E+04  0.95000000000E+03 0.  0.
   -2000013    1    1    2    0    0 -0.21889233529E+03  0.28302707705E+03  0.85146701339E+03  0.13249582090E+04  0.95000000000E+03 0.  0.
<mgrwt>
<rscale>  0 0.20862393E+04</rscale>
<asrwt>0</asrwt>
<pdfrwt beam="1">  1        2 0.43487274E+00 0.20862393E+04</pdfrwt>
<pdfrwt beam="2">  1       -2 0.59221492E-01 0.20862393E+04</pdfrwt>
<totfact> 0.54788252E+00</totfact>
</mgrwt>
</event>
<event>
 4    1  0.1343107E-008  0.3276855E+04  0.7816531E-02  0.8168810E-01
         -2   -1    0    0    0  501 -0.00000000000E+00  0.00000000000E+00  0.22000265078E+04  0.22000265078E+04  0.00000000000E+00 0. -1.
          2   -1    0    0  501    0  0.00000000000E+00 -0.00000000000E+00 -0.12201872680E+04  0.12201872680E+04  0.00000000000E+00 0.  1.
    2000013    1    1    2    0    0 -0.31733259894E+03  0.12241379087E+04  0.43748087671E+02  0.15822855283E+04  0.95000000000E+03 0.  0.
   -2000013    1    1    2    0    0  0.31733259894E+03 -0.12241379087E+04  0.93609115207E+03  0.18379282475E+04  0.95000000000E+03 0.  0.
<mgrwt>
<rscale>  0 0.32768548E+04</rscale>
<asrwt>0</asrwt>
<pdfrwt beam="2">  1        2 0.18772112E+00 0.32768548E+04</pdfrwt>
<pdfrwt beam="1">  1       -2 0.33846561E+00 0.32768548E+04</pdfrwt>
<totfact> 0.28329008E-01</totfact>
</mgrwt>
</event>
<event>
 4    1  0.1343107E-008  0.3118327E+04  0.7816531E-02  0.8210726E-01
         -2   -1    0    0    0  501 -0.00000000000E+00  0.00000000000E+00  0.55173239275E+03  0.55173239275E+03  0.00000000000E+00 0. -1.
          2   -1    0    0  501    0  0.00000000000E+00 -0.00000000000E+00 -0.44061053804E+04  0.44061053804E+04  0.00000000000E+00 0.  1.
    2000013    1    1    2    0    0  0.74365582574E+03 -0.86214453326E+03 -0.11611008648E+04  0.18833407556E+04  0.95000000000E+03 0.  0.
   -2000013    1    1    2    0    0 -0.74365582574E+03  0.86214453326E+03 -0.26932721229E+04  0.30744970176E+04  0.95000000000E+03 0.  0.
<mgrwt>
<rscale>  0 0.31183272E+04</rscale>
<asrwt>0</asrwt>
<pdfrwt beam="2">  1        2 0.67786238E+00 0.31183272E+04</pdfrwt>
<pdfrwt beam="1">  1       -2 0.84881905E-01 0.31183272E+04</pdfrwt>
<totfact> 0.15492309E-01</totfact>
</mgrwt>
</event>
<event>
 4    1  0.1343107E-008  0.2561801E+04  0.7816531E-02  0.8381294E-01
          2   -1    0    0  501    0  0.00000000000E+00  0.00000000000E+00  0.19939138465E+04  0.19939138465E+04  0.00000000000E+00 0.  1.
         -2   -1    0    0    0  501 -0.00000000000E+00 -0.00000000000E+00 -0.82285702757E+03  0.82285702757E+03  0.00000000000E+00 0. -1.
    2000013    1    1    2    0    0 -0.47513466533E+03 -0.62687250651E+03  0.20546077163E+03  0.12503744312E+04  0.95000000000E+03 0.  0.
   -2000013    1    1    2    0    0  0.47513466533E+03  0.62687250651E+03  0.96559604733E+03  0.15663964429E+04  0.95000000000E+03 0.  0.
<mgrwt>
<rscale>  0 0.25618009E+04</rscale>
<asrwt>0</asrwt>
<pdfrwt beam="1">  1        2 0.30675598E+00 0.25618009E+04</pdfrwt>
<pdfrwt beam="2">  1       -2 0.12659339E+00 0.25618009E+04</pdfrwt>
<totfact> 0.27751193E+00</totfact>
</mgrwt>
</event>
<event>
 4    1  0.1343107E-008  0.2348903E+04  0.7816531E-02  0.8458885E-01
          2   -1    0    0  501    0  0.00000000000E+00  0.00000000000E+00  0.23132641495E+04  0.23132641495E+04  0.00000000000E+00 0.  1.
         -2   -1    0    0    0  501 -0.00000000000E+00 -0.00000000000E+00 -0.59627292904E+03  0.59627292904E+03  0.00000000000E+00 0. -1.
    2000013    1    1    2    0    0 -0.25035285116E+03 -0.55609430537E+03  0.45727192355E+03  0.12179963213E+04  0.95000000000E+03 0.  0.
   -2000013    1    1    2    0    0  0.25035285116E+03  0.55609430537E+03  0.12597192969E+04  0.16915407573E+04  0.95000000000E+03 0.  0.
<mgrwt>
<rscale>  0 0.23489034E+04</rscale>
<asrwt>0</asrwt>
<pdfrwt beam="1">  1        2 0.35588679E+00 0.23489034E+04</pdfrwt>
<pdfrwt beam="2">  1       -2 0.91734298E-01 0.23489034E+04</pdfrwt>
<totfact> 0.40676682E+00</totfact>
</mgrwt>
</event>
<event>
 4    1  0.1343107E-008  0.2875691E+04  0.7816531E-02  0.8280147E-01
         -2   -1    0    0    0  501 -0.00000000000E+00  0.00000000000E+00  0.80119328939E+03  0.80119328939E+03  0.00000000000E+00 0. -1.
          2   -1    0    0  501    0  0.00000000000E+00 -0.00000000000E+00 -0.25804000759E+04  0.25804000759E+04  0.00000000000E+00 0.  1.
    2000013    1    1    2    0    0 -0.72995535809E+03  0.66995864616E+03 -0.38625877490E+03  0.14259646747E+04  0.95000000000E+03 0.  0.
   -2000013    1    1    2    0    0  0.72995535809E+03 -0.66995864616E+03 -0.13929480116E+04  0.19556286906E+04  0.95000000000E+03 0.  0.
<mgrwt>
<rscale>  0 0.28756907E+04</rscale>
<asrwt>0</asrwt>
<pdfrwt beam="2">  1        2 0.39698463E+00 0.28756907E+04</pdfrwt>
<pdfrwt beam="1">  1       -2 0.12326051E+00 0.28756907E+04</pdfrwt>
<totfact> 0.13417190E+00</totfact>
</mgrwt>
</event>
<event>
 4    1  0.1343107E-008  0.2503516E+04  0.7816531E-02  0.8401734E-01
          2   -1    0    0  501    0  0.00000000000E+00  0.00000000000E+00  0.17322242196E+04  0.17322242196E+04  0.00000000000E+00 0.  1.
         -2   -1    0    0    0  501 -0.00000000000E+00 -0.00000000000E+00 -0.90455869861E+03  0.90455869861E+03  0.00000000000E+00 0. -1.
    2000013    1    1    2    0    0  0.38668300858E+03 -0.59127083238E+03  0.84201200778E+03  0.14527935736E+04  0.95000000000E+03 0.  0.
   -2000013    1    1    2    0    0 -0.38668300858E+03  0.59127083238E+03 -0.14346486810E+02  0.11839893446E+04  0.95000000000E+03 0.  0.
<mgrwt>
<rscale>  0 0.25035163E+04</rscale>
<asrwt>0</asrwt>
<pdfrwt beam="1">  1        2 0.26649603E+00 0.25035163E+04</pdfrwt>
<pdfrwt beam="2">  1       -2 0.13916288E+00 0.25035163E+04</pdfrwt>
<totfact> 0.30612856E+00</totfact>
</mgrwt>
</event>
<event>
 4    1  0.1343107E-008  0.2043083E+04  0.7816531E-02  0.8586739E-01
         -2   -1    0    0    0  501 -0.00000000000E+00  0.00000000000E+00  0.53171692884E+03  0.53171692884E+03  0.00000000000E+00 0. -1.
          2   -1    0    0  501    0  0.00000000000E+00 -0.00000000000E+00 -0.19625987801E+04  0.19625987801E+04  0.00000000000E+00 0.  1.
    2000013    1    1    2    0    0 -0.25446664194E+02  0.22552899179E+03 -0.10807534793E+04  0.14567219851E+04  0.95000000000E+03 0.  0.
   -2000013    1    1    2    0    0  0.25446664194E+02 -0.22552899179E+03 -0.35012837190E+03  0.10375937238E+04  0.95000000000E+03 0.  0.
<mgrwt>
<rscale>  0 0.20430830E+04</rscale>
<asrwt>0</asrwt>
<pdfrwt beam="2">  1        2 0.30193827E+00 0.20430830E+04</pdfrwt>
<pdfrwt beam="1">  1       -2 0.81802606E-01 0.20430830E+04</pdfrwt>
<totfact> 0.85293384E+00</totfact>
</mgrwt>
</event>
<event>
 4    1  0.1343107E-008  0.3317979E+04  0.7816531E-02  0.8158336E-01
         -2   -1    0    0    0  501 -0.00000000000E+00  0.00000000000E+00  0.63138880822E+03  0.63138880822E+03  0.00000000000E+00 0. -1.
          2   -1    0    0  501    0  0.00000000000E+00 -0.00000000000E+00 -0.43590359940E+04  0.43590359940E+04  0.00000000000E+00 0.  1.
    2000013    1    1    2    0    0  0.73395130436E+03 -0.64040818473E+03 -0.32914403542E+04  0.35615848671E+04  0.95000000000E+03 0.  0.
   -2000013    1    1    2    0    0 -0.73395130436E+03  0.64040818473E+03 -0.43620683155E+03  0.14288399351E+04  0.95000000000E+03 0.  0.
<mgrwt>
<rscale>  0 0.33179792E+04</rscale>
<asrwt>0</asrwt>
<pdfrwt beam="2">  1        2 0.67062093E+00 0.33179792E+04</pdfrwt>
<pdfrwt beam="1">  1       -2 0.97136738E-01 0.33179792E+04</pdfrwt>
<totfact> 0.12323598E-01</totfact>
</mgrwt>
</event>
<event>
 4    1  0.1343107E-008  0.2254657E+04  0.7816531E-02  0.8496017E-01
          2   -1    0    0  501    0  0.00000000000E+00  0.00000000000E+00  0.97403022587E+03  0.97403022587E+03  0.00000000000E+00 0.  1.
         -2   -1    0    0    0  501 -0.00000000000E+00 -0.00000000000E+00 -0.13047533175E+04  0.13047533175E+04  0.00000000000E+00 0. -1.
    2000013    1    1    2    0    0 -0.40056839295E+03 -0.57029749509E+02 -0.62259814587E+03  0.12057511688E+04  0.95000000000E+03 0.  0.
   -2000013    1    1    2    0    0  0.40056839295E+03  0.57029749509E+02  0.29187505420E+03  0.10730323746E+04  0.95000000000E+03 0.  0.
<mgrwt>
<rscale>  0 0.22546567E+04</rscale>
<asrwt>0</asrwt>
<pdfrwt beam="1">  1        2 0.14985080E+00 0.22546567E+04</pdfrwt>
<pdfrwt beam="2">  1       -2 0.20073128E+00 0.22546567E+04</pdfrwt>
<totfact> 0.31331564E+00</totfact>
</mgrwt>
</event>
<event>
 4    1  0.1343107E-008  0.3234814E+04  0.7816531E-02  0.8179683E-01
         -2   -1    0    0    0  501 -0.00000000000E+00  0.00000000000E+00  0.76021639855E+03  0.76021639855E+03  0.00000000000E+00 0. -1.
          2   -1    0    0  501    0  0.00000000000E+00 -0.00000000000E+00 -0.34411321531E+04  0.34411321531E+04  0.00000000000E+00 0.  1.
    2000013    1    1    2    0    0 -0.65181460782E+03  0.11017078059E+04 -0.98504739713E+03  0.18738838670E+04  0.95000000000E+03 0.  0.
   -2000013    1    1    2    0    0  0.65181460782E+03 -0.11017078059E+04 -0.16958683574E+04  0.23274646846E+04  0.95000000000E+03 0.  0.
<mgrwt>
<rscale>  0 0.32348138E+04</rscale>
<asrwt>0</asrwt>
<pdfrwt beam="2">  1        2 0.52940494E+00 0.32348138E+04</pdfrwt>
<pdfrwt beam="1">  1       -2 0.11695637E+00 0.32348138E+04</pdfrwt>
<totfact> 0.42386473E-01</totfact>
</mgrwt>
</event>
<event>
 4    1  0.1343107E-008  0.2760714E+04  0.7816531E-02  0.8315570E-01
          1   -1    0    0  501    0  0.00000000000E+00  0.00000000000E+00  0.10811447522E+04  0.10811447522E+04  0.00000000000E+00 0.  1.
         -1   -1    0    0    0  501 -0.00000000000E+00 -0.00000000000E+00 -0.17623775980E+04  0.17623775980E+04  0.00000000000E+00 0. -1.
    2000013    1    1    2    0    0  0.62187050718E+03 -0.26409969336E+03 -0.11019869172E+04  0.16041654346E+04  0.95000000000E+03 0.  0.
   -2000013    1    1    2    0    0 -0.62187050718E+03  0.26409969336E+03  0.42075407136E+03  0.12393569156E+04  0.95000000000E+03 0.  0.
<mgrwt>
<rscale>  0 0.27607139E+04</rscale>
<asrwt>0</asrwt>
<pdfrwt beam="1">  1        1 0.16632996E+00 0.27607139E+04</pdfrwt>
<pdfrwt beam="2">  1       -1 0.27113502E+00 0.27607139E+04</pdfrwt>
<totfact> 0.57812180E-01</totfact>
</mgrwt>
</event>
<event>
 4    1  0.1343107E-008  0.2445704E+04  0.7816531E-02  0.8422588E-01
          2   -1    0    0  501    0  0.00000000000E+00  0.00000000000E+00  0.23433552618E+04  0.23433552618E+04  0.00000000000E+00 0.  1.
         -2   -1    0    0    0  501 -0.00000000000E+00 -0.00000000000E+00 -0.63813067074E+03  0.63813067074E+03  0.00000000000E+00 0. -1.
    2000013    1    1    2    0    0  0.60322479339E+03 -0.39758243326E+03  0.52797552581E+03  0.13050709170E+04  0.95000000000E+03 0.  0.
   -2000013    1    1    2    0    0 -0.60322479339E+03  0.39758243326E+03  0.11772490652E+04  0.16764150155E+04  0.95000000000E+03 0.  0.
<mgrwt>
<rscale>  0 0.24457039E+04</rscale>
<asrwt>0</asrwt>
<pdfrwt beam="1">  1        2 0.36051619E+00 0.24457039E+04</pdfrwt>
<pdfrwt beam="2">  1       -2 0.98173950E-01 0.24457039E+04</pdfrwt>
<totfact> 0.33102179E+00</totfact>
</mgrwt>
</event>
<event>
 4    1  0.1343107E-008  0.2561171E+04  0.7816531E-02  0.8381511E-01
          2   -1    0    0  501    0  0.00000000000E+00  0.00000000000E+00  0.18532231122E+04  0.18532231122E+04  0.00000000000E+00 0.  1.
         -2   -1    0    0    0  501 -0.00000000000E+00 -0.00000000000E+00 -0.88489022734E+03  0.88489022734E+03  0.00000000000E+00 0. -1.
    2000013    1    1    2    0    0 -0.35675799922E+03 -0.70066625608E+03  0.85325617120E+03  0.14995851313E+04  0.95000000000E+03 0.  0.
   -2000013    1    1    2    0    0  0.35675799922E+03  0.70066625608E+03  0.11507671361E+03  0.12385282082E+04  0.95000000000E+03 0.  0.
<mgrwt>
<rscale>  0 0.25611708E+04</rscale>
<asrwt>0</asrwt>
<pdfrwt beam="1">  1        2 0.28511125E+00 0.25611708E+04</pdfrwt>
<pdfrwt beam="2">  1       -2 0.13613696E+00 0.25611708E+04</pdfrwt>
<totfact> 0.27625220E+00</totfact>
</mgrwt>
</event>
<event>
 4    1  0.1343107E-008  0.2806485E+04  0.7816531E-02  0.8301258E-01
          2   -1    0    0  501    0  0.00000000000E+00  0.00000000000E+00  0.23625233907E+04  0.23625233907E+04  0.00000000000E+00 0.  1.
         -2   -1    0    0    0  501 -0.00000000000E+00 -0.00000000000E+00 -0.83346877866E+03  0.83346877866E+03  0.00000000000E+00 0. -1.
    2000013    1    1    2    0    0  0.37909972099E+02 -0.10016186170E+04  0.48117155443E+03  0.14624305401E+04  0.95000000000E+03 0.  0.
   -2000013    1    1    2    0    0 -0.37909972099E+02  0.10016186170E+04  0.10478830576E+04  0.17335616292E+04  0.95000000000E+03 0.  0.
<mgrwt>
<rscale>  0 0.28064850E+04</rscale>
<asrwt>0</asrwt>
<pdfrwt beam="1">  1        2 0.36346513E+00 0.28064850E+04</pdfrwt>
<pdfrwt beam="2">  1       -2 0.12822597E+00 0.28064850E+04</pdfrwt>
<totfact> 0.16331810E+00</totfact>
</mgrwt>
</event>
<event>
 4    1  0.1343107E-008  0.3971670E+04  0.7816531E-02  0.8010286E-01
         -2   -1    0    0    0  501 -0.00000000000E+00  0.00000000000E+00  0.22738419177E+04  0.22738419177E+04  0.00000000000E+00 0. -1.
          2   -1    0    0  501    0  0.00000000000E+00 -0.00000000000E+00 -0.17343074852E+04  0.17343074852E+04  0.00000000000E+00 0.  1.
    2000013    1    1    2    0    0  0.97112318824E+03  0.14303898743E+04  0.49977640422E+03  0.20350360914E+04  0.95000000000E+03 0.  0.
   -2000013    1    1    2    0    0 -0.97112318824E+03 -0.14303898743E+04  0.39758028316E+02  0.19731133115E+04  0.95000000000E+03 0.  0.
<mgrwt>
<rscale>  0 0.39716702E+04</rscale>
<asrwt>0</asrwt>
<pdfrwt beam="2">  1        2 0.26681654E+00 0.39716702E+04</pdfrwt>
<pdfrwt beam="1">  1       -2 0.34982183E+00 0.39716702E+04</pdfrwt>
<totfact> 0.11572205E-01</totfact>
</mgrwt>
</event>
<event>
 4    1  0.1343107E-008  0.2248976E+04  0.7816531E-02  0.8498315E-01
         -2   -1    0    0    0  501 -0.00000000000E+00  0.00000000000E+00  0.83311921928E+03  0.83311921928E+03  0.00000000000E+00 0. -1.
          2   -1    0    0  501    0  0.00000000000E+00 -0.00000000000E+00 -0.15177578193E+04  0.15177578193E+04  0.00000000000E+00 0.  1.
    2000013    1    1    2    0    0  0.38856439910E+03 -0.34291565924E+03 -0.66178041321E+03  0.12684741846E+04  0.95000000000E+03 0.  0.
   -2000013    1    1    2    0    0 -0.38856439910E+03  0.34291565924E+03 -0.22858186777E+02  0.10824028540E+04  0.95000000000E+03 0.  0.
<mgrwt>
<rscale>  0 0.22489760E+04</rscale>
<asrwt>0</asrwt>
<pdfrwt beam="2">  1        2 0.23350120E+00 0.22489760E+04</pdfrwt>
<pdfrwt beam="1">  1       -2 0.12817219E+00 0.22489760E+04</pdfrwt>
<totfact> 0.50841685E+00</totfact>
</mgrwt>
</event>
<event>
 4    1  0.1343107E-008  0.2591011E+04  0.7816531E-02  0.8371261E-01
          2   -1    0    0  501    0  0.00000000000E+00  0.00000000000E+00  0.30218630091E+04  0.30218630091E+04  0.00000000000E+00 0.  1.
         -2   -1    0    0    0  501 -0.00000000000E+00 -0.00000000000E+00 -0.55539709233E+03  0.55539709233E+03  0.00000000000E+00 0. -1.
    2000013    1    1    2    0    0 -0.26363087783E+03 -0.84027252598E+03  0.12103471226E+04  0.17728506183E+04  0.95000000000E+03 0.  0.
   -2000013    1    1    2    0    0  0.26363087783E+03  0.84027252598E+03  0.12561187941E+04  0.18044094831E+04  0.95000000000E+03 0.  0.
<mgrwt>
<rscale>  0 0.25910106E+04</rscale>
<asrwt>0</asrwt>
<pdfrwt beam="1">  1        2 0.46490199E+00 0.25910106E+04</pdfrwt>
<pdfrwt beam="2">  1       -2 0.85445708E-01 0.25910106E+04</pdfrwt>
<totfact> 0.17778616E+00</totfact>
</mgrwt>
</event>
<event>
 4    1  0.1343107E-008  0.2291368E+04  0.7816531E-02  0.8481332E-01
          2   -1    0    0  501    0  0.00000000000E+00  0.00000000000E+00  0.17042653304E+04  0.17042653304E+04  0.00000000000E+00 0. -1.
         -2   -1    0    0    0  501 -0.00000000000E+00 -0.00000000000E+00 -0.77018069717E+03  0.77018069717E+03  0.00000000000E+00 0.  1.
    2000013    1    1    2    0    0 -0.38342285057E+03 -0.51290042957E+03  0.46325076083E+03  0.12357917302E+04  0.95000000000E+03 0.  0.
   -2000013    1    1    2    0    0  0.38342285057E+03  0.51290042957E+03  0.47083387237E+03  0.12386542974E+04  0.95000000000E+03 0.  0.
<mgrwt>
<rscale>  0 0.22913684E+04</rscale>
<asrwt>0</asrwt>
<pdfrwt beam="1">  1        2 0.26219467E+00 0.22913684E+04</pdfrwt>
<pdfrwt beam="2">  1       -2 0.11848934E+00 0.22913684E+04</pdfrwt>
<totfact> 0.48494964E+00</totfact>
</mgrwt>
</event>
<event>
 4    1  0.1343107E-008  0.2823247E+04  0.7816531E-02  0.8296087E-01
         -2   -1    0    0    0  501 -0.00000000000E+00  0.00000000000E+00  0.20870729129E+04  0.20870729129E+04  0.00000000000E+00 0. -1.
          2   -1    0    0  501    0  0.00000000000E+00 -0.00000000000E+00 -0.95477330781E+03  0.95477330781E+03  0.00000000000E+00 0.  1.
    2000013    1    1    2    0    0 -0.26874800382E+03 -0.74139140150E+03 -0.17115656649E+03  0.12464675166E+04  0.95000000000E+03 0.  0.
   -2000013    1    1    2    0    0  0.26874800382E+03  0.74139140150E+03  0.13034561716E+04  0.17953787041E+04  0.95000000000E+03 0.  0.
<mgrwt>
<rscale>  0 0.28232474E+04</rscale>
<asrwt>0</asrwt>
<pdfrwt beam="2">  1        2 0.14688820E+00 0.28232474E+04</pdfrwt>
<pdfrwt beam="1">  1       -2 0.32108814E+00 0.28232474E+04</pdfrwt>
<totfact> 0.55189852E-01</totfact>
</mgrwt>
</event>
<event>
 4    1  0.1343107E-008  0.2275195E+04  0.7816531E-02  0.8487766E-01
          2   -1    0    0  501    0  0.00000000000E+00  0.00000000000E+00  0.18270256014E+04  0.18270256014E+04  0.00000000000E+00 0. -1.
         -2   -1    0    0    0  501 -0.00000000000E+00 -0.00000000000E+00 -0.70832490316E+03  0.70832490316E+03  0.00000000000E+00 0.  1.
    2000013    1    1    2    0    0 -0.61737773111E+03 -0.10112391347E+03  0.57684319372E+03  0.12753938133E+04  0.95000000000E+03 0.  0.
   -2000013    1    1    2    0    0  0.61737773111E+03  0.10112391347E+03  0.54185750450E+03  0.12599566913E+04  0.95000000000E+03 0.  0.
<mgrwt>
<rscale>  0 0.22751947E+04</rscale>
<asrwt>0</asrwt>
<pdfrwt beam="1">  1        2 0.28108086E+00 0.22751947E+04</pdfrwt>
<pdfrwt beam="2">  1       -2 0.10897306E+00 0.22751947E+04</pdfrwt>
<totfact> 0.50898186E+00</totfact>
</mgrwt>
</event>
<event>
 4    1  0.1343107E-008  0.2370732E+04  0.7816531E-02  0.8450543E-01
         -2   -1    0    0    0  501 -0.00000000000E+00  0.00000000000E+00  0.91485941224E+03  0.91485941224E+03  0.00000000000E+00 0. -1.
          2   -1    0    0  501    0  0.00000000000E+00 -0.00000000000E+00 -0.15358568142E+04  0.15358568142E+04  0.00000000000E+00 0.  1.
    2000013    1    1    2    0    0  0.59942594123E+03 -0.34972859675E+02  0.79123864715E+02  0.11266299951E+04  0.95000000000E+03 0.  0.
   -2000013    1    1    2    0    0 -0.59942594123E+03  0.34972859675E+02 -0.70012126668E+03  0.13240862313E+04  0.95000000000E+03 0.  0.
<mgrwt>
<rscale>  0 0.23707324E+04</rscale>
<asrwt>0</asrwt>
<pdfrwt beam="2">  1        2 0.23628566E+00 0.23707324E+04</pdfrwt>
<pdfrwt beam="1">  1       -2 0.14074760E+00 0.23707324E+04</pdfrwt>
<totfact> 0.38691794E+00</totfact>
</mgrwt>
</event>
<event>
 4    1  0.1343107E-008  0.3123580E+04  0.7816531E-02  0.8209296E-01
          2   -1    0    0  501    0  0.00000000000E+00  0.00000000000E+00  0.27939399171E+04  0.27939399171E+04  0.00000000000E+00 0.  1.
         -2   -1    0    0    0  501 -0.00000000000E+00 -0.00000000000E+00 -0.87302793665E+03  0.87302793665E+03  0.00000000000E+00 0. -1.
    2000013    1    1    2    0    0 -0.18858680536E+03  0.12141908741E+04  0.11528683140E+04  0.19342775942E+04  0.95000000000E+03 0.  0.
   -2000013    1    1    2    0    0  0.18858680536E+03 -0.12141908741E+04  0.76804366641E+03  0.17326902595E+04  0.95000000000E+03 0.  0.
<mgrwt>
<rscale>  0 0.31235797E+04</rscale>
<asrwt>0</asrwt>
<pdfrwt beam="1">  1        2 0.42983691E+00 0.31235797E+04</pdfrwt>
<pdfrwt beam="2">  1       -2 0.13431199E+00 0.31235797E+04</pdfrwt>
<totfact> 0.78947635E-01</totfact>
</mgrwt>
</event>
<event>
 4    1  0.1343107E-008  0.2500961E+04  0.7816531E-02  0.8402643E-01
          2   -1    0    0  501    0  0.00000000000E+00  0.00000000000E+00  0.18921628411E+04  0.18921628411E+04  0.00000000000E+00 0.  1.
         -2   -1    0    0    0  501 -0.00000000000E+00 -0.00000000000E+00 -0.82640977045E+03  0.82640977045E+03  0.00000000000E+00 0. -1.
    2000013    1    1    2    0    0 -0.24264559597E+03  0.40060672955E+03  0.12554235286E+04  0.16425440247E+04  0.95000000000E+03 0.  0.
   -2000013    1    1    2    0    0  0.24264559597E+03 -0.40060672955E+03 -0.18967045796E+03  0.10760285868E+04  0.95000000000E+03 0.  0.
<mgrwt>
<rscale>  0 0.25009613E+04</rscale>
<asrwt>0</asrwt>
<pdfrwt beam="1">  1        2 0.29110197E+00 0.25009613E+04</pdfrwt>
<pdfrwt beam="2">  1       -2 0.12713997E+00 0.25009613E+04</pdfrwt>
<totfact> 0.31427322E+00</totfact>
</mgrwt>
</event>
<event>
 4    1  0.1343107E-008  0.2288390E+04  0.7816531E-02  0.8482513E-01
          2   -1    0    0  501    0  0.00000000000E+00  0.00000000000E+00  0.16881913533E+04  0.16881913533E+04  0.00000000000E+00 0.  1.
         -2   -1    0    0    0  501 -0.00000000000E+00 -0.00000000000E+00 -0.77549414179E+03  0.77549414179E+03  0.00000000000E+00 0. -1.
    2000013    1    1    2    0    0  0.38099803780E+03  0.50760503971E+03  0.52323777141E+03  0.12566225155E+04  0.95000000000E+03 0.  0.
   -2000013    1    1    2    0    0 -0.38099803780E+03 -0.50760503971E+03  0.38945944013E+03  0.12070629796E+04  0.95000000000E+03 0.  0.
<mgrwt>
<rscale>  0 0.22883903E+04</rscale>
<asrwt>0</asrwt>
<pdfrwt beam="1">  1        2 0.25972175E+00 0.22883903E+04</pdfrwt>
<pdfrwt beam="2">  1       -2 0.11930679E+00 0.22883903E+04</pdfrwt>
<totfact> 0.48679221E+00</totfact>
</mgrwt>
</event>
<event>
 4    1  0.1343107E-008  0.2586321E+04  0.7816531E-02  0.8372862E-01
         -2   -1    0    0    0  501 -0.00000000000E+00  0.00000000000E+00  0.79988781802E+03  0.79988781802E+03  0.00000000000E+00 0. -1.
          2   -1    0    0  501    0  0.00000000000E+00 -0.00000000000E+00 -0.20906236057E+04  0.20906236057E+04  0.00000000000E+00 0.  1.
    2000013    1    1    2    0    0  0.76373279791E+02 -0.87159228432E+03 -0.57243663061E+03  0.14126888136E+04  0.95000000000E+03 0.  0.
   -2000013    1    1    2    0    0 -0.76373279791E+02  0.87159228432E+03 -0.71829915705E+03  0.14778226101E+04  0.95000000000E+03 0.  0.
<mgrwt>
<rscale>  0 0.25863212E+04</rscale>
<asrwt>0</asrwt>
<pdfrwt beam="2">  1        2 0.32163439E+00 0.25863212E+04</pdfrwt>
<pdfrwt beam="1">  1       -2 0.12305967E+00 0.25863212E+04</pdfrwt>
<totfact> 0.26261957E+00</totfact>
</mgrwt>
</event>
<event>
 4    1  0.1343107E-008  0.2717154E+04  0.7816531E-02  0.8329461E-01
          2   -1    0    0  501    0  0.00000000000E+00  0.00000000000E+00  0.94702377803E+03  0.94702377803E+03  0.00000000000E+00 0.  1.
         -2   -1    0    0    0  501 -0.00000000000E+00 -0.00000000000E+00 -0.19489804812E+04  0.19489804812E+04  0.00000000000E+00 0. -1.
    2000013    1    1    2    0    0  0.71468829241E+03 -0.44140021980E+03 -0.10205244495E+04  0.16277541772E+04  0.95000000000E+03 0.  0.
   -2000013    1    1    2    0    0 -0.71468829241E+03  0.44140021980E+03  0.18567746338E+02  0.12682500820E+04  0.95000000000E+03 0.  0.
<mgrwt>
<rscale>  0 0.27171536E+04</rscale>
<asrwt>0</asrwt>
<pdfrwt beam="1">  1        2 0.14569597E+00 0.27171536E+04</pdfrwt>
<pdfrwt beam="2">  1       -2 0.29984315E+00 0.27171536E+04</pdfrwt>
<totfact> 0.76110373E-01</totfact>
</mgrwt>
</event>
<event>
 4    1  0.1343107E-008  0.2784489E+04  0.7816531E-02  0.8308100E-01
         -1   -1    0    0    0  501 -0.00000000000E+00  0.00000000000E+00  0.99320323368E+03  0.99320323368E+03  0.00000000000E+00 0. -1.
          1   -1    0    0  501    0  0.00000000000E+00 -0.00000000000E+00 -0.19516100234E+04  0.19516100234E+04  0.00000000000E+00 0.  1.
    2000013    1    1    2    0    0  0.97032077103E+02  0.95319316179E+03 -0.11614003196E+03  0.13542455223E+04  0.95000000000E+03 0.  0.
   -2000013    1    1    2    0    0 -0.97032077103E+02 -0.95319316179E+03 -0.84226675775E+03  0.15905677348E+04  0.95000000000E+03 0.  0.
<mgrwt>
<rscale>  0 0.27844895E+04</rscale>
<asrwt>0</asrwt>
<pdfrwt beam="2">  1        1 0.30024769E+00 0.27844895E+04</pdfrwt>
<pdfrwt beam="1">  1       -1 0.15280050E+00 0.27844895E+04</pdfrwt>
<totfact> 0.92449900E-01</totfact>
</mgrwt>
</event>
<event>
 4    1  0.1343107E-008  0.2425386E+04  0.7816531E-02  0.8430060E-01
          2   -1    0    0  501    0  0.00000000000E+00  0.00000000000E+00  0.19920895800E+04  0.19920895800E+04  0.00000000000E+00 0.  1.
         -2   -1    0    0    0  501 -0.00000000000E+00 -0.00000000000E+00 -0.73823225267E+03  0.73823225267E+03  0.00000000000E+00 0. -1.
    2000013    1    1    2    0    0 -0.51982506745E+03  0.51681749923E+03  0.42934409244E+03  0.12744233119E+04  0.95000000000E+03 0.  0.
   -2000013    1    1    2    0    0  0.51982506745E+03 -0.51681749923E+03  0.82451323491E+03  0.14558985208E+04  0.95000000000E+03 0.  0.
<mgrwt>
<rscale>  0 0.24253864E+04</rscale>
<asrwt>0</asrwt>
<pdfrwt beam="1">  1        2 0.30647532E+00 0.24253864E+04</pdfrwt>
<pdfrwt beam="2">  1       -2 0.11357419E+00 0.24253864E+04</pdfrwt>
<totfact> 0.36816011E+00</totfact>
</mgrwt>
</event>
<event>
 4    1  0.1343107E-008  0.2783513E+04  0.7816531E-02  0.8308405E-01
          2   -1    0    0  501    0  0.00000000000E+00  0.00000000000E+00  0.30970340464E+04  0.30970340464E+04  0.00000000000E+00 0.  1.
         -2   -1    0    0    0  501 -0.00000000000E+00 -0.00000000000E+00 -0.62543246865E+03  0.62543246865E+03  0.00000000000E+00 0. -1.
    2000013    1    1    2    0    0 -0.34971367171E+02  0.87894026596E+03  0.19186586673E+04  0.23146295749E+04  0.95000000000E+03 0.  0.
   -2000013    1    1    2    0    0  0.34971367171E+02 -0.87894026596E+03  0.55294291045E+03  0.14078369401E+04  0.95000000000E+03 0.  0.
<mgrwt>
<rscale>  0 0.27835126E+04</rscale>
<asrwt>0</asrwt>
<pdfrwt beam="1">  1        2 0.47646677E+00 0.27835126E+04</pdfrwt>
<pdfrwt beam="2">  1       -2 0.96220382E-01 0.27835126E+04</pdfrwt>
<totfact> 0.11908080E+00</totfact>
</mgrwt>
</event>
<event>
 4    1  0.1343107E-008  0.2858525E+04  0.7816531E-02  0.8285325E-01
          2   -1    0    0  501    0  0.00000000000E+00  0.00000000000E+00  0.18286747317E+04  0.18286747317E+04  0.00000000000E+00 0.  1.
         -2   -1    0    0    0  501 -0.00000000000E+00 -0.00000000000E+00 -0.11170887604E+04  0.11170887604E+04  0.00000000000E+00 0. -1.
    2000013    1    1    2    0    0  0.37692640759E+03  0.45436714564E+03 -0.56117684129E+03  0.12513762292E+04  0.95000000000E+03 0.  0.
   -2000013    1    1    2    0    0 -0.37692640759E+03 -0.45436714564E+03  0.12727628126E+04  0.16943872630E+04  0.95000000000E+03 0.  0.
<mgrwt>
<rscale>  0 0.28585255E+04</rscale>
<asrwt>0</asrwt>
<pdfrwt beam="1">  1        2 0.28133457E+00 0.28585255E+04</pdfrwt>
<pdfrwt beam="2">  1       -2 0.17185981E+00 0.28585255E+04</pdfrwt>
<totfact> 0.14895642E+00</totfact>
</mgrwt>
</event>
<event>
 4    1  0.1343107E-008  0.2397884E+04  0.7816531E-02  0.8440296E-01
          1   -1    0    0  501    0  0.00000000000E+00  0.00000000000E+00  0.23094907108E+04  0.23094907108E+04  0.00000000000E+00 0. -1.
         -1   -1    0    0    0  501 -0.00000000000E+00 -0.00000000000E+00 -0.62241527635E+03  0.62241527635E+03  0.00000000000E+00 0.  1.
    2000013    1    1    2    0    0 -0.71012665568E+03  0.10480772651E+03  0.10151428881E+04  0.15646979293E+04  0.95000000000E+03 0.  0.
   -2000013    1    1    2    0    0  0.71012665568E+03 -0.10480772651E+03  0.67193254632E+03  0.13672080579E+04  0.95000000000E+03 0.  0.
<mgrwt>
<rscale>  0 0.23978843E+04</rscale>
<asrwt>0</asrwt>
<pdfrwt beam="1">  1        1 0.35530626E+00 0.23978843E+04</pdfrwt>
<pdfrwt beam="2">  1       -1 0.95756198E-01 0.23978843E+04</pdfrwt>
<totfact> 0.17280173E+00</totfact>
</mgrwt>
</event>
<event>
 4    1  0.1343107E-008  0.2316655E+04  0.7816531E-02  0.8471383E-01
          2   -1    0    0  501    0  0.00000000000E+00  0.00000000000E+00  0.30414704730E+04  0.30414704730E+04  0.00000000000E+00 0.  1.
         -2   -1    0    0    0  501 -0.00000000000E+00 -0.00000000000E+00 -0.44114270051E+03  0.44114270051E+03  0.00000000000E+00 0. -1.
    2000013    1    1    2    0    0  0.38847081169E+03  0.36114606089E+03  0.70283114441E+03  0.12953021525E+04  0.95000000000E+03 0.  0.
   -2000013    1    1    2    0    0 -0.38847081169E+03 -0.36114606089E+03  0.18974966281E+04  0.21873110210E+04  0.95000000000E+03 0.  0.
<mgrwt>
<rscale>  0 0.23166549E+04</rscale>
<asrwt>0</asrwt>
<pdfrwt beam="1">  1        2 0.46791852E+00 0.23166549E+04</pdfrwt>
<pdfrwt beam="2">  1       -2 0.67868110E-01 0.23166549E+04</pdfrwt>
<totfact> 0.29543153E+00</totfact>
</mgrwt>
</event>
<event>
 4    1  0.1343107E-008  0.2601043E+04  0.7816531E-02  0.8367847E-01
         -2   -1    0    0    0  501 -0.00000000000E+00  0.00000000000E+00  0.60470487028E+03  0.60470487028E+03  0.00000000000E+00 0. -1.
          2   -1    0    0  501    0  0.00000000000E+00 -0.00000000000E+00 -0.27969940245E+04  0.27969940245E+04  0.00000000000E+00 0.  1.
    2000013    1    1    2    0    0  0.76201849289E+03 -0.79419903692E+02 -0.50853219876E+03  0.13221515427E+04  0.95000000000E+03 0.  0.
   -2000013    1    1    2    0    0 -0.76201849289E+03  0.79419903692E+02 -0.16837569555E+04  0.20795473521E+04  0.95000000000E+03 0.  0.
<mgrwt>
<rscale>  0 0.26010428E+04</rscale>
<asrwt>0</asrwt>
<pdfrwt beam="2">  1        2 0.43030677E+00 0.26010428E+04</pdfrwt>
<pdfrwt beam="1">  1       -2 0.93031519E-01 0.26010428E+04</pdfrwt>
<totfact> 0.20096749E+00</totfact>
</mgrwt>
</event>
<event>
 4    1  0.1343107E-008  0.2843335E+04  0.7816531E-02  0.8289939E-01
         -2   -1    0    0    0  501 -0.00000000000E+00  0.00000000000E+00  0.78990921700E+03  0.78990921700E+03  0.00000000000E+00 0. -1.
          2   -1    0    0  501    0  0.00000000000E+00 -0.00000000000E+00 -0.25586969455E+04  0.25586969455E+04  0.00000000000E+00 0.  1.
    2000013    1    1    2    0    0  0.19410654904E+02 -0.77519970965E+03 -0.37325218035E+02  0.12268677742E+04  0.95000000000E+03 0.  0.
   -2000013    1    1    2    0    0 -0.19410654904E+02  0.77519970965E+03 -0.17314625104E+04  0.21217383883E+04  0.95000000000E+03 0.  0.
<mgrwt>
<rscale>  0 0.28433349E+04</rscale>
<asrwt>0</asrwt>
<pdfrwt beam="2">  1        2 0.39364569E+00 0.28433349E+04</pdfrwt>
<pdfrwt beam="1">  1       -2 0.12152449E+00 0.28433349E+04</pdfrwt>
<totfact> 0.14352248E+00</totfact>
</mgrwt>
</event>
<event>
 4    1  0.1343107E-008  0.2686201E+04  0.7816531E-02  0.8339496E-01
         -2   -1    0    0    0  501 -0.00000000000E+00  0.00000000000E+00  0.70607862937E+03  0.70607862937E+03  0.00000000000E+00 0. -1.
          2   -1    0    0  501    0  0.00000000000E+00 -0.00000000000E+00 -0.25548418884E+04  0.25548418884E+04  0.00000000000E+00 0.  1.
    2000013    1    1    2    0    0 -0.37917807350E+03  0.49064634324E+03 -0.17971698790E+04  0.21252833740E+04  0.95000000000E+03 0.  0.
   -2000013    1    1    2    0    0  0.37917807350E+03 -0.49064634324E+03 -0.51593380024E+02  0.11356371438E+04  0.95000000000E+03 0.  0.
<mgrwt>
<rscale>  0 0.26862012E+04</rscale>
<asrwt>0</asrwt>
<pdfrwt beam="2">  1        2 0.39305259E+00 0.26862012E+04</pdfrwt>
<pdfrwt beam="1">  1       -2 0.10862748E+00 0.26862012E+04</pdfrwt>
<totfact> 0.19235103E+00</totfact>
</mgrwt>
</event>
<event>
 4    1  0.1343107E-008  0.2870677E+04  0.7816531E-02  0.8281656E-01
         -1   -1    0    0    0  501 -0.00000000000E+00  0.00000000000E+00  0.57547003562E+03  0.57547003562E+03  0.00000000000E+00 0. -1.
          1   -1    0    0  501    0  0.00000000000E+00 -0.00000000000E+00 -0.35800250520E+04  0.35800250520E+04  0.00000000000E+00 0.  1.
    2000013    1    1    2    0    0 -0.65593641890E+03  0.77965316150E+03 -0.20028623106E+04  0.24396862653E+04  0.95000000000E+03 0.  0.
   -2000013    1    1    2    0    0  0.65593641890E+03 -0.77965316150E+03 -0.10016927057E+04  0.17158088223E+04  0.95000000000E+03 0.  0.
<mgrwt>
<rscale>  0 0.28706774E+04</rscale>
<asrwt>0</asrwt>
<pdfrwt beam="2">  1        1 0.55077308E+00 0.28706774E+04</pdfrwt>
<pdfrwt beam="1">  1       -1 0.88533853E-01 0.28706774E+04</pdfrwt>
<totfact> 0.23251957E-01</totfact>
</mgrwt>
</event>
<event>
 4    1  0.1343107E-008  0.2354335E+04  0.7816531E-02  0.8456800E-01
          2   -1    0    0  501    0  0.00000000000E+00  0.00000000000E+00  0.20820949302E+04  0.20820949302E+04  0.00000000000E+00 0.  1.
         -2   -1    0    0    0  501 -0.00000000000E+00 -0.00000000000E+00 -0.66554294500E+03  0.66554294500E+03  0.00000000000E+00 0. -1.
    2000013    1    1    2    0    0 -0.70942560152E+02 -0.69126614992E+03  0.72985403254E+03  0.13849435532E+04  0.95000000000E+03 0.  0.
   -2000013    1    1    2    0    0  0.70942560152E+02  0.69126614992E+03  0.68669795265E+03  0.13626943219E+04  0.95000000000E+03 0.  0.
<mgrwt>
<rscale>  0 0.23543352E+04</rscale>
<asrwt>0</asrwt>
<pdfrwt beam="1">  1        2 0.32032229E+00 0.23543352E+04</pdfrwt>
<pdfrwt beam="2">  1       -2 0.10239122E+00 0.23543352E+04</pdfrwt>
<totfact> 0.42370072E+00</totfact>
</mgrwt>
</event>
<event>
 4    1  0.1343107E-008  0.3963519E+04  0.7816531E-02  0.8011947E-01
          2   -1    0    0  501    0  0.00000000000E+00  0.00000000000E+00  0.24735280419E+04  0.24735280419E+04  0.00000000000E+00 0. -1.
         -2   -1    0    0    0  501 -0.00000000000E+00 -0.00000000000E+00 -0.15877605991E+04  0.15877605991E+04  0.00000000000E+00 0.  1.
    2000013    1    1    2    0    0 -0.15418081153E+04 -0.51615647282E+03 -0.18982713138E+03  0.18926500227E+04  0.95000000000E+03 0.  0.
   -2000013    1    1    2    0    0  0.15418081153E+04  0.51615647282E+03  0.10755945742E+04  0.21686386183E+04  0.95000000000E+03 0.  0.
<mgrwt>
<rscale>  0 0.39635188E+04</rscale>
<asrwt>0</asrwt>
<pdfrwt beam="1">  1        2 0.38054278E+00 0.39635188E+04</pdfrwt>
<pdfrwt beam="2">  1       -2 0.24427086E+00 0.39635188E+04</pdfrwt>
<totfact> 0.19888900E-01</totfact>
</mgrwt>
</event>
<event>
 4    1  0.1343107E-008  0.2776325E+04  0.7816531E-02  0.8310656E-01
          1   -1    0    0  501    0  0.00000000000E+00  0.00000000000E+00  0.19959763038E+04  0.19959763038E+04  0.00000000000E+00 0.  1.
         -1   -1    0    0    0  501 -0.00000000000E+00 -0.00000000000E+00 -0.96544009631E+03  0.96544009631E+03  0.00000000000E+00 0. -1.
    2000013    1    1    2    0    0  0.27127443831E+03  0.46674761713E+03  0.14285327248E+04  0.17985129704E+04  0.95000000000E+03 0.  0.
   -2000013    1    1    2    0    0 -0.27127443831E+03 -0.46674761713E+03 -0.39799651730E+03  0.11629034297E+04  0.95000000000E+03 0.  0.
<mgrwt>
<rscale>  0 0.27763253E+04</rscale>
<asrwt>0</asrwt>
<pdfrwt beam="1">  1        1 0.30707328E+00 0.27763253E+04</pdfrwt>
<pdfrwt beam="2">  1       -1 0.14852925E+00 0.27763253E+04</pdfrwt>
<totfact> 0.93194838E-01</totfact>
</mgrwt>
</event>
<event>
 4    1  0.1343107E-008  0.3290005E+04  0.7816531E-02  0.8165443E-01
          2   -1    0    0  501    0  0.00000000000E+00  0.00000000000E+00  0.12129330011E+04  0.12129330011E+04  0.00000000000E+00 0.  1.
         -2   -1    0    0    0  501 -0.00000000000E+00 -0.00000000000E+00 -0.22309826627E+04  0.22309826627E+04  0.00000000000E+00 0. -1.
    2000013    1    1    2    0    0  0.52349060940E+03  0.10361653394E+04  0.19772821209E+03  0.15130358471E+04  0.95000000000E+03 0.  0.
   -2000013    1    1    2    0    0 -0.52349060940E+03 -0.10361653394E+04 -0.12157778737E+04  0.19308798168E+04  0.95000000000E+03 0.  0.
<mgrwt>
<rscale>  0 0.32900046E+04</rscale>
<asrwt>0</asrwt>
<pdfrwt beam="1">  1        2 0.18660508E+00 0.32900046E+04</pdfrwt>
<pdfrwt beam="2">  1       -2 0.34322810E+00 0.32900046E+04</pdfrwt>
<totfact> 0.26682624E-01</totfact>
</mgrwt>
</event>
<event>
 4    1  0.1343107E-008  0.3131671E+04  0.7816531E-02  0.8207099E-01
          2   -1    0    0  501    0  0.00000000000E+00  0.00000000000E+00  0.32128025200E+04  0.32128025200E+04  0.00000000000E+00 0.  1.
         -2   -1    0    0    0  501 -0.00000000000E+00 -0.00000000000E+00 -0.76314702853E+03  0.76314702853E+03  0.00000000000E+00 0. -1.
    2000013    1    1    2    0    0  0.10273847743E+04  0.69075653230E+03  0.10608749013E+04  0.18869604176E+04  0.95000000000E+03 0.  0.
   -2000013    1    1    2    0    0 -0.10273847743E+04 -0.69075653230E+03  0.13887805902E+04  0.20889891309E+04  0.95000000000E+03 0.  0.
<mgrwt>
<rscale>  0 0.31316709E+04</rscale>
<asrwt>0</asrwt>
<pdfrwt beam="1">  1        2 0.49427730E+00 0.31316709E+04</pdfrwt>
<pdfrwt beam="2">  1       -2 0.11740724E+00 0.31316709E+04</pdfrwt>
<totfact> 0.60318430E-01</totfact>
</mgrwt>
</event>
<event>
 4    1  0.1343107E-008  0.2281828E+04  0.7816531E-02  0.8485121E-01
          2   -1    0    0  501    0  0.00000000000E+00  0.00000000000E+00  0.14427568156E+04  0.14427568156E+04  0.00000000000E+00 0. -1.
         -2   -1    0    0    0  501 -0.00000000000E+00 -0.00000000000E+00 -0.90222036760E+03  0.90222036760E+03  0.00000000000E+00 0.  1.
    2000013    1    1    2    0    0  0.54682177521E+03 -0.22873922725E+03  0.45470604237E+02  0.11206708990E+04  0.95000000000E+03 0.  0.
   -2000013    1    1    2    0    0 -0.54682177521E+03  0.22873922725E+03  0.49506584372E+03  0.12243062842E+04  0.95000000000E+03 0.  0.
<mgrwt>
<rscale>  0 0.22818279E+04</rscale>
<asrwt>0</asrwt>
<pdfrwt beam="1">  1        2 0.22196259E+00 0.22818279E+04</pdfrwt>
<pdfrwt beam="2">  1       -2 0.13880313E+00 0.22818279E+04</pdfrwt>
<totfact> 0.45622963E+00</totfact>
</mgrwt>
</event>
<event>
 4    1  0.1343107E-008  0.2678259E+04  0.7816531E-02  0.8342094E-01
          2   -1    0    0  501    0  0.00000000000E+00  0.00000000000E+00  0.37903610448E+04  0.37903610448E+04  0.00000000000E+00 0.  1.
         -2   -1    0    0    0  501 -0.00000000000E+00 -0.00000000000E+00 -0.47311266806E+03  0.47311266806E+03  0.00000000000E+00 0. -1.
    2000013    1    1    2    0    0 -0.69049515069E+02  0.83010802529E+03  0.23650338887E+04  0.26813676480E+04  0.95000000000E+03 0.  0.
   -2000013    1    1    2    0    0  0.69049515069E+02 -0.83010802529E+03  0.95221448809E+03  0.15821060649E+04  0.95000000000E+03 0.  0.
<mgrwt>
<rscale>  0 0.26782590E+04</rscale>
<asrwt>0</asrwt>
<pdfrwt beam="1">  1        2 0.58313245E+00 0.26782590E+04</pdfrwt>
<pdfrwt beam="2">  1       -2 0.72786567E-01 0.26782590E+04</pdfrwt>
<totfact> 0.74971461E-01</totfact>
</mgrwt>
</event>
<event>
 4    1  0.1343107E-008  0.2902218E+04  0.7816531E-02  0.8272218E-01
         -2   -1    0    0    0  501 -0.00000000000E+00  0.00000000000E+00  0.97732152348E+03  0.97732152348E+03  0.00000000000E+00 0.  1.
          2   -1    0    0  501    0  0.00000000000E+00 -0.00000000000E+00 -0.21545802079E+04  0.21545802079E+04  0.00000000000E+00 0. -1.
    2000013    1    1    2    0    0 -0.10848158588E+04 -0.32007165778E+02 -0.76050669538E+03  0.16305582908E+04  0.95000000000E+03 0.  0.
   -2000013    1    1    2    0    0  0.10848158588E+04  0.32007165778E+02 -0.41675198901E+03  0.15013434405E+04  0.95000000000E+03 0.  0.
<mgrwt>
<rscale>  0 0.29022182E+04</rscale>
<asrwt>0</asrwt>
<pdfrwt beam="2">  1        2 0.33147388E+00 0.29022182E+04</pdfrwt>
<pdfrwt beam="1">  1       -2 0.15035716E+00 0.29022182E+04</pdfrwt>
<totfact> 0.14069766E+00</totfact>
</mgrwt>
</event>
<event>
 4    1  0.1343107E-008  0.2878065E+04  0.7816531E-02  0.8279434E-01
         -1   -1    0    0    0  501 -0.00000000000E+00  0.00000000000E+00  0.86732813967E+03  0.86732813967E+03  0.00000000000E+00 0. -1.
          1   -1    0    0  501    0  0.00000000000E+00 -0.00000000000E+00 -0.23875790211E+04  0.23875790211E+04  0.00000000000E+00 0.  1.
    2000013    1    1    2    0    0 -0.45349559009E+03  0.60959661581E+03  0.10933426348E+03  0.12213600065E+04  0.95000000000E+03 0.  0.
   -2000013    1    1    2    0    0  0.45349559009E+03 -0.60959661581E+03 -0.16295851449E+04  0.20335471543E+04  0.95000000000E+03 0.  0.
<mgrwt>
<rscale>  0 0.28780650E+04</rscale>
<asrwt>0</asrwt>
<pdfrwt beam="2">  1        1 0.36731985E+00 0.28780650E+04</pdfrwt>
<pdfrwt beam="1">  1       -1 0.13343510E+00 0.28780650E+04</pdfrwt>
<totfact> 0.66110469E-01</totfact>
</mgrwt>
</event>
<event>
 4    1  0.1343107E-008  0.2198824E+04  0.7816531E-02  0.8518918E-01
          2   -1    0    0  501    0  0.00000000000E+00  0.00000000000E+00  0.17243868987E+04  0.17243868987E+04  0.00000000000E+00 0.  1.
         -2   -1    0    0    0  501 -0.00000000000E+00 -0.00000000000E+00 -0.70094849770E+03  0.70094849770E+03  0.00000000000E+00 0. -1.
    2000013    1    1    2    0    0 -0.23417059743E+02  0.54509410546E+03  0.40984417856E+03  0.11696786709E+04  0.95000000000E+03 0.  0.
   -2000013    1    1    2    0    0  0.23417059743E+02 -0.54509410546E+03  0.61359422246E+03  0.12556567255E+04  0.95000000000E+03 0.  0.
<mgrwt>
<rscale>  0 0.21988237E+04</rscale>
<asrwt>0</asrwt>
<pdfrwt beam="1">  1        2 0.26529029E+00 0.21988237E+04</pdfrwt>
<pdfrwt beam="2">  1       -2 0.10783823E+00 0.21988237E+04</pdfrwt>
<totfact> 0.59900408E+00</totfact>
</mgrwt>
</event>
<event>
 4    1  0.1343107E-008  0.2621978E+04  0.7816531E-02  0.8360774E-01
         -2   -1    0    0    0  501 -0.00000000000E+00  0.00000000000E+00  0.57290242903E+03  0.57290242903E+03  0.00000000000E+00 0. -1.
          2   -1    0    0  501    0  0.00000000000E+00 -0.00000000000E+00 -0.29999743402E+04  0.29999743402E+04  0.00000000000E+00 0.  1.
    2000013    1    1    2    0    0 -0.81752903537E+03  0.27803794031E+03 -0.15754350348E+04  0.20322781229E+04  0.95000000000E+03 0.  0.
   -2000013    1    1    2    0    0  0.81752903537E+03 -0.27803794031E+03 -0.85163687637E+03  0.15405986463E+04  0.95000000000E+03 0.  0.
<mgrwt>
<rscale>  0 0.26219783E+04</rscale>
<asrwt>0</asrwt>
<pdfrwt beam="2">  1        2 0.46153452E+00 0.26219783E+04</pdfrwt>
<pdfrwt beam="1">  1       -2 0.88138834E-01 0.26219783E+04</pdfrwt>
<totfact> 0.17046737E+00</totfact>
</mgrwt>
</event>
<event>
 4    1  0.1343107E-008  0.2967894E+04  0.7816531E-02  0.8252959E-01
         -2   -1    0    0    0  501 -0.00000000000E+00  0.00000000000E+00  0.94364480406E+03  0.94364480406E+03  0.00000000000E+00 0. -1.
          2   -1    0    0  501    0  0.00000000000E+00 -0.00000000000E+00 -0.23336102902E+04  0.23336102902E+04  0.00000000000E+00 0.  1.
    2000013    1    1    2    0    0  0.50674356496E+03  0.97103331245E+03 -0.34595952844E+03  0.14905981114E+04  0.95000000000E+03 0.  0.
   -2000013    1    1    2    0    0 -0.50674356496E+03 -0.97103331245E+03 -0.10440059577E+04  0.17866569828E+04  0.95000000000E+03 0.  0.
<mgrwt>
<rscale>  0 0.29678944E+04</rscale>
<asrwt>0</asrwt>
<pdfrwt beam="2">  1        2 0.35901696E+00 0.29678944E+04</pdfrwt>
<pdfrwt beam="1">  1       -2 0.14517613E+00 0.29678944E+04</pdfrwt>
<totfact> 0.12161088E+00</totfact>
</mgrwt>
</event>
<event>
 4    1  0.1343107E-008  0.2343877E+04  0.7816531E-02  0.8460819E-01
          2   -1    0    0  501    0  0.00000000000E+00  0.00000000000E+00  0.16593668930E+04  0.16593668930E+04  0.00000000000E+00 0.  1.
         -2   -1    0    0    0  501 -0.00000000000E+00 -0.00000000000E+00 -0.82768886508E+03  0.82768886508E+03  0.00000000000E+00 0. -1.
    2000013    1    1    2    0    0  0.36960070562E+03 -0.54261679242E+03  0.20388229118E+03  0.11726489900E+04  0.95000000000E+03 0.  0.
   -2000013    1    1    2    0    0 -0.36960070562E+03  0.54261679242E+03  0.62779573675E+03  0.13144067681E+04  0.95000000000E+03 0.  0.
<mgrwt>
<rscale>  0 0.23438767E+04</rscale>
<asrwt>0</asrwt>
<pdfrwt beam="1">  1        2 0.25528721E+00 0.23438767E+04</pdfrwt>
<pdfrwt beam="2">  1       -2 0.12733675E+00 0.23438767E+04</pdfrwt>
<totfact> 0.42719315E+00</totfact>
</mgrwt>
</event>
<event>
 4    1  0.1343107E-008  0.2664121E+04  0.7816531E-02  0.8346741E-01
         -2   -1    0    0    0  501 -0.00000000000E+00  0.00000000000E+00  0.84785373759E+03  0.84785373759E+03  0.00000000000E+00 0. -1.
          2   -1    0    0  501    0  0.00000000000E+00 -0.00000000000E+00 -0.20927962172E+04  0.20927962172E+04  0.00000000000E+00 0.  1.
    2000013    1    1    2    0    0  0.41062008193E+03 -0.64303452516E+03 -0.28280705957E+02  0.12187707129E+04  0.95000000000E+03 0.  0.
   -2000013    1    1    2    0    0 -0.41062008193E+03  0.64303452516E+03 -0.12166617737E+04  0.17218792419E+04  0.95000000000E+03 0.  0.
<mgrwt>
<rscale>  0 0.26641209E+04</rscale>
<asrwt>0</asrwt>
<pdfrwt beam="2">  1        2 0.32196865E+00 0.26641209E+04</pdfrwt>
<pdfrwt beam="1">  1       -2 0.13043904E+00 0.26641209E+04</pdfrwt>
<totfact> 0.22469834E+00</totfact>
</mgrwt>
</event>
<event>
 4    1  0.1343107E-008  0.2240884E+04  0.7816531E-02  0.8501602E-01
         -2   -1    0    0    0  501 -0.00000000000E+00  0.00000000000E+00  0.96721799579E+03  0.96721799579E+03  0.00000000000E+00 0. -1.
          2   -1    0    0  501    0  0.00000000000E+00 -0.00000000000E+00 -0.12979387786E+04  0.12979387786E+04  0.00000000000E+00 0.  1.
    2000013    1    1    2    0    0 -0.29281309252E+03 -0.50464955544E+03 -0.27828015831E+03  0.11490650667E+04  0.95000000000E+03 0.  0.
   -2000013    1    1    2    0    0  0.29281309252E+03  0.50464955544E+03 -0.52440624530E+02  0.11160917077E+04  0.95000000000E+03 0.  0.
<mgrwt>
<rscale>  0 0.22408835E+04</rscale>
<asrwt>0</asrwt>
<pdfrwt beam="2">  1        2 0.19968289E+00 0.22408835E+04</pdfrwt>
<pdfrwt beam="1">  1       -2 0.14880277E+00 0.22408835E+04</pdfrwt>
<totfact> 0.46225335E+00</totfact>
</mgrwt>
</event>
<event>
 4    1  0.1343107E-008  0.2219708E+04  0.7816531E-02  0.8510270E-01
         -2   -1    0    0    0  501 -0.00000000000E+00  0.00000000000E+00  0.40168933144E+03  0.40168933144E+03  0.00000000000E+00 0. -1.
          2   -1    0    0  501    0  0.00000000000E+00 -0.00000000000E+00 -0.30664877151E+04  0.30664877151E+04  0.00000000000E+00 0.  1.
    2000013    1    1    2    0    0  0.74671240452E+02  0.56845101562E+03 -0.12953244167E+04  0.17056018573E+04  0.95000000000E+03 0.  0.
   -2000013    1    1    2    0    0 -0.74671240452E+02 -0.56845101562E+03 -0.13694739670E+04  0.17625751892E+04  0.95000000000E+03 0.  0.
<mgrwt>
<rscale>  0 0.22197075E+04</rscale>
<asrwt>0</asrwt>
<pdfrwt beam="2">  1        2 0.47176733E+00 0.22197075E+04</pdfrwt>
<pdfrwt beam="1">  1       -2 0.61798360E-01 0.22197075E+04</pdfrwt>
<totfact> 0.35136965E+00</totfact>
</mgrwt>
</event>
<event>
 4    1  0.1343107E-008  0.2166521E+04  0.7816531E-02  0.8532494E-01
         -2   -1    0    0    0  501 -0.00000000000E+00  0.00000000000E+00  0.14596462546E+04  0.14596462546E+04  0.00000000000E+00 0. -1.
          2   -1    0    0  501    0  0.00000000000E+00 -0.00000000000E+00 -0.80392967978E+03  0.80392967978E+03  0.00000000000E+00 0.  1.
    2000013    1    1    2    0    0 -0.39862733097E+03 -0.13976357491E+03  0.10069106584E+02  0.10397302500E+04  0.95000000000E+03 0.  0.
   -2000013    1    1    2    0    0  0.39862733097E+03  0.13976357491E+03  0.64564746820E+03  0.12238456843E+04  0.95000000000E+03 0.  0.
<mgrwt>
<rscale>  0 0.21665207E+04</rscale>
<asrwt>0</asrwt>
<pdfrwt beam="2">  1        2 0.12368149E+00 0.21665207E+04</pdfrwt>
<pdfrwt beam="1">  1       -2 0.22456096E+00 0.21665207E+04</pdfrwt>
<totfact> 0.28999542E+00</totfact>
</mgrwt>
</event>
<event>
 4    1  0.1343107E-008  0.2671981E+04  0.7816531E-02  0.8344154E-01
         -2   -1    0    0    0  501 -0.00000000000E+00  0.00000000000E+00  0.58409912075E+03  0.58409912075E+03  0.00000000000E+00 0.  1.
          2   -1    0    0  501    0  0.00000000000E+00 -0.00000000000E+00 -0.30557670549E+04  0.30557670549E+04  0.00000000000E+00 0. -1.
    2000013    1    1    2    0    0  0.63793025225E+03 -0.68202081917E+03 -0.13738401718E+04  0.19136468384E+04  0.95000000000E+03 0.  0.
   -2000013    1    1    2    0    0 -0.63793025225E+03  0.68202081917E+03 -0.10978277624E+04  0.17262193373E+04  0.95000000000E+03 0.  0.
<mgrwt>
<rscale>  0 0.26719812E+04</rscale>
<asrwt>0</asrwt>
<pdfrwt beam="2">  1        2 0.47011800E+00 0.26719812E+04</pdfrwt>
<pdfrwt beam="1">  1       -2 0.89861405E-01 0.26719812E+04</pdfrwt>
<totfact> 0.14971375E+00</totfact>
</mgrwt>
</event>
<event>
 4    1  0.1343107E-008  0.2119120E+04  0.7816531E-02  0.8552868E-01
         -1   -1    0    0    0  501 -0.00000000000E+00  0.00000000000E+00  0.11107135455E+04  0.11107135455E+04  0.00000000000E+00 0. -1.
          1   -1    0    0  501    0  0.00000000000E+00 -0.00000000000E+00 -0.10107619165E+04  0.10107619165E+04  0.00000000000E+00 0.  1.
    2000013    1    1    2    0    0 -0.23372517532E+03 -0.34009492875E+03  0.27355105891E+03  0.10712713008E+04  0.95000000000E+03 0.  0.
   -2000013    1    1    2    0    0  0.23372517532E+03  0.34009492875E+03 -0.17359942992E+03  0.10502041612E+04  0.95000000000E+03 0.  0.
<mgrwt>
<rscale>  0 0.21191196E+04</rscale>
<asrwt>0</asrwt>
<pdfrwt beam="2">  1        1 0.15550183E+00 0.21191196E+04</pdfrwt>
<pdfrwt beam="1">  1       -1 0.17087901E+00 0.21191196E+04</pdfrwt>
<totfact> 0.33035228E+00</totfact>
</mgrwt>
</event>
<event>
 4    1  0.1343107E-008  0.2326221E+04  0.7816531E-02  0.8467654E-01
          2   -1    0    0  501    0  0.00000000000E+00  0.00000000000E+00  0.14867269621E+04  0.14867269621E+04  0.00000000000E+00 0.  1.
         -2   -1    0    0    0  501 -0.00000000000E+00 -0.00000000000E+00 -0.90993603385E+03  0.90993603385E+03  0.00000000000E+00 0. -1.
    2000013    1    1    2    0    0  0.48412268998E+03  0.43946145049E+03  0.13274010230E+03  0.11608708284E+04  0.95000000000E+03 0.  0.
   -2000013    1    1    2    0    0 -0.48412268998E+03 -0.43946145049E+03  0.44405082595E+03  0.12357921676E+04  0.95000000000E+03 0.  0.
<mgrwt>
<rscale>  0 0.23262213E+04</rscale>
<asrwt>0</asrwt>
<pdfrwt beam="1">  1        2 0.22872722E+00 0.23262213E+04</pdfrwt>
<pdfrwt beam="2">  1       -2 0.13999016E+00 0.23262213E+04</pdfrwt>
<totfact> 0.41979574E+00</totfact>
</mgrwt>
</event>
<event>
 4    1  0.1343107E-008  0.2170781E+04  0.7816531E-02  0.8530689E-01
          2   -1    0    0  501    0  0.00000000000E+00  0.00000000000E+00  0.25214259220E+04  0.25214259220E+04  0.00000000000E+00 0.  1.
         -2   -1    0    0    0  501 -0.00000000000E+00 -0.00000000000E+00 -0.46722476760E+03  0.46722476760E+03  0.00000000000E+00 0. -1.
    2000013    1    1    2    0    0  0.46277771547E+03  0.63952796222E+02  0.69748312615E+03  0.12677680724E+04  0.95000000000E+03 0.  0.
   -2000013    1    1    2    0    0 -0.46277771547E+03 -0.63952796222E+02  0.13567180282E+04  0.17208826172E+04  0.95000000000E+03 0.  0.
<mgrwt>
<rscale>  0 0.21707811E+04</rscale>
<asrwt>0</asrwt>
<pdfrwt beam="1">  1        2 0.38791167E+00 0.21707811E+04</pdfrwt>
<pdfrwt beam="2">  1       -2 0.71880735E-01 0.21707811E+04</pdfrwt>
<totfact> 0.54371543E+00</totfact>
</mgrwt>
</event>
<event>
 4    1  0.1343107E-008  0.2882129E+04  0.7816531E-02  0.8278214E-01
          2   -1    0    0  501    0  0.00000000000E+00  0.00000000000E+00  0.18452735612E+04  0.18452735612E+04  0.00000000000E+00 0.  1.
         -2   -1    0    0    0  501 -0.00000000000E+00 -0.00000000000E+00 -0.11253982124E+04  0.11253982124E+04  0.00000000000E+00 0. -1.
    2000013    1    1    2    0    0  0.88800746385E+03 -0.82392386341E+02 -0.27445574447E+03  0.13316049402E+04  0.95000000000E+03 0.  0.
   -2000013    1    1    2    0    0 -0.88800746385E+03  0.82392386341E+02  0.99433109328E+03  0.16390668334E+04  0.95000000000E+03 0.  0.
<mgrwt>
<rscale>  0 0.28821295E+04</rscale>
<asrwt>0</asrwt>
<pdfrwt beam="1">  1        2 0.28388824E+00 0.28821295E+04</pdfrwt>
<pdfrwt beam="2">  1       -2 0.17313819E+00 0.28821295E+04</pdfrwt>
<totfact> 0.14255443E+00</totfact>
</mgrwt>
</event>
<event>
 4    1  0.1343107E-008  0.3179033E+04  0.7816531E-02  0.8194377E-01
         -2   -1    0    0    0  501 -0.00000000000E+00  0.00000000000E+00  0.11616470592E+04  0.11616470592E+04  0.00000000000E+00 0. -1.
          2   -1    0    0  501    0  0.00000000000E+00 -0.00000000000E+00 -0.21749827353E+04  0.21749827353E+04  0.00000000000E+00 0.  1.
    2000013    1    1    2    0    0  0.89808512089E+03  0.80554937098E+03 -0.93762705402E+03  0.17991973671E+04  0.95000000000E+03 0.  0.
   -2000013    1    1    2    0    0 -0.89808512089E+03 -0.80554937098E+03 -0.75708622098E+02  0.15374324274E+04  0.95000000000E+03 0.  0.
<mgrwt>
<rscale>  0 0.31790327E+04</rscale>
<asrwt>0</asrwt>
<pdfrwt beam="2">  1        2 0.33461272E+00 0.31790327E+04</pdfrwt>
<pdfrwt beam="1">  1       -2 0.17871493E+00 0.31790327E+04</pdfrwt>
<totfact> 0.83274080E-01</totfact>
</mgrwt>
</event>
<event>
 4    1  0.1343107E-008  0.2263266E+04  0.7816531E-02  0.8492547E-01
         -2   -1    0    0    0  501 -0.00000000000E+00  0.00000000000E+00  0.84166657488E+03  0.84166657488E+03  0.00000000000E+00 0. -1.
          2   -1    0    0  501    0  0.00000000000E+00 -0.00000000000E+00 -0.15214972945E+04  0.15214972945E+04  0.00000000000E+00 0.  1.
    2000013    1    1    2    0    0 -0.10328372677E+03 -0.60561573501E+03 -0.31318316833E+03  0.11738916661E+04  0.95000000000E+03 0.  0.
   -2000013    1    1    2    0    0  0.10328372677E+03  0.60561573501E+03 -0.36664755127E+03  0.11892722033E+04  0.95000000000E+03 0.  0.
<mgrwt>
<rscale>  0 0.22632662E+04</rscale>
<asrwt>0</asrwt>
<pdfrwt beam="2">  1        2 0.23407651E+00 0.22632662E+04</pdfrwt>
<pdfrwt beam="1">  1       -2 0.12948717E+00 0.22632662E+04</pdfrwt>
<totfact> 0.49248518E+00</totfact>
</mgrwt>
</event>
<event>
 4    1  0.1343107E-008  0.2340964E+04  0.7816531E-02  0.8461943E-01
          2   -1    0    0  501    0  0.00000000000E+00  0.00000000000E+00  0.18740809812E+04  0.18740809812E+04  0.00000000000E+00 0.  1.
         -2   -1    0    0    0  501 -0.00000000000E+00 -0.00000000000E+00 -0.73103976118E+03  0.73103976118E+03  0.00000000000E+00 0. -1.
    2000013    1    1    2    0    0 -0.28062420821E+03 -0.52490391562E+03  0.94602704237E+03  0.14668814648E+04  0.95000000000E+03 0.  0.
   -2000013    1    1    2    0    0  0.28062420821E+03  0.52490391562E+03  0.19701417766E+03  0.11382392776E+04  0.95000000000E+03 0.  0.
<mgrwt>
<rscale>  0 0.23409637E+04</rscale>
<asrwt>0</asrwt>
<pdfrwt beam="1">  1        2 0.28832015E+00 0.23409637E+04</pdfrwt>
<pdfrwt beam="2">  1       -2 0.11246766E+00 0.23409637E+04</pdfrwt>
<totfact> 0.44155503E+00</totfact>
</mgrwt>
</event>
<event>
 4    1  0.1343107E-008  0.3149063E+04  0.7816531E-02  0.8202401E-01
         -2   -1    0    0    0  501 -0.00000000000E+00  0.00000000000E+00  0.17107520475E+04  0.17107520475E+04  0.00000000000E+00 0. -1.
          2   -1    0    0  501    0  0.00000000000E+00 -0.00000000000E+00 -0.14491572209E+04  0.14491572209E+04  0.00000000000E+00 0.  1.
    2000013    1    1    2    0    0  0.88020806359E+03 -0.81828322319E+03 -0.23417922677E+03  0.15497398423E+04  0.95000000000E+03 0.  0.
   -2000013    1    1    2    0    0 -0.88020806359E+03  0.81828322319E+03  0.49577405336E+03  0.16101694260E+04  0.95000000000E+03 0.  0.
<mgrwt>
<rscale>  0 0.31490625E+04</rscale>
<asrwt>0</asrwt>
<pdfrwt beam="2">  1        2 0.22294727E+00 0.31490625E+04</pdfrwt>
<pdfrwt beam="1">  1       -2 0.26319262E+00 0.31490625E+04</pdfrwt>
<totfact> 0.61183642E-01</totfact>
</mgrwt>
</event>
<event>
 4    1  0.1343107E-008  0.2275125E+04  0.7816531E-02  0.8487794E-01
          2   -1    0    0  501    0  0.00000000000E+00  0.00000000000E+00  0.14310966031E+04  0.14310966031E+04  0.00000000000E+00 0.  1.
         -2   -1    0    0    0  501 -0.00000000000E+00 -0.00000000000E+00 -0.90423527819E+03  0.90423527819E+03  0.00000000000E+00 0. -1.
    2000013    1    1    2    0    0 -0.41181262706E+03  0.36354112709E+03 -0.44159541240E+02  0.10982722140E+04  0.95000000000E+03 0.  0.
   -2000013    1    1    2    0    0  0.41181262706E+03 -0.36354112709E+03  0.57102086614E+03  0.12370596673E+04  0.95000000000E+03 0.  0.
<mgrwt>
<rscale>  0 0.22751246E+04</rscale>
<asrwt>0</asrwt>
<pdfrwt beam="1">  1        2 0.22016871E+00 0.22751246E+04</pdfrwt>
<pdfrwt beam="2">  1       -2 0.13911312E+00 0.22751246E+04</pdfrwt>
<totfact> 0.46084088E+00</totfact>
</mgrwt>
</event>
<event>
 4    1  0.1343107E-008  0.2531611E+04  0.7816531E-02  0.8391810E-01
         -2   -1    0    0    0  501 -0.00000000000E+00  0.00000000000E+00  0.17056384140E+04  0.17056384140E+04  0.00000000000E+00 0. -1.
          2   -1    0    0  501    0  0.00000000000E+00 -0.00000000000E+00 -0.93939192481E+03  0.93939192481E+03  0.00000000000E+00 0.  1.
    2000013    1    1    2    0    0 -0.20595943350E+03  0.76535061051E+03  0.10358836419E+03  0.12415359014E+04  0.95000000000E+03 0.  0.
   -2000013    1    1    2    0    0  0.20595943350E+03 -0.76535061051E+03  0.66265812501E+03  0.14034944374E+04  0.95000000000E+03 0.  0.
<mgrwt>
<rscale>  0 0.25316105E+04</rscale>
<asrwt>0</asrwt>
<pdfrwt beam="2">  1        2 0.14452183E+00 0.25316105E+04</pdfrwt>
<pdfrwt beam="1">  1       -2 0.26240591E+00 0.25316105E+04</pdfrwt>
<totfact> 0.13236922E+00</totfact>
</mgrwt>
</event>
<event>
 4    1  0.1343107E-008  0.4106941E+04  0.7816531E-02  0.7983314E-01
         -2   -1    0    0    0  501 -0.00000000000E+00  0.00000000000E+00  0.21016932885E+04  0.21016932885E+04  0.00000000000E+00 0. -1.
          2   -1    0    0  501    0  0.00000000000E+00 -0.00000000000E+00 -0.20063546337E+04  0.20063546337E+04  0.00000000000E+00 0.  1.
    2000013    1    1    2    0    0  0.69111661048E+03  0.16822249651E+04 -0.34322662216E+02  0.20521211094E+04  0.95000000000E+03 0.  0.
   -2000013    1    1    2    0    0 -0.69111661048E+03 -0.16822249651E+04  0.12966131704E+03  0.20559268128E+04  0.95000000000E+03 0.  0.
<mgrwt>
<rscale>  0 0.41069415E+04</rscale>
<asrwt>0</asrwt>
<pdfrwt beam="2">  1        2 0.30866995E+00 0.41069415E+04</pdfrwt>
<pdfrwt beam="1">  1       -2 0.32333743E+00 0.41069415E+04</pdfrwt>
<totfact> 0.11833473E-01</totfact>
</mgrwt>
</event>
<event>
 4    1  0.1343107E-008  0.3565954E+04  0.7816531E-02  0.8098335E-01
         -2   -1    0    0    0  501 -0.00000000000E+00  0.00000000000E+00  0.17302274689E+04  0.17302274689E+04  0.00000000000E+00 0. -1.
          2   -1    0    0  501    0  0.00000000000E+00 -0.00000000000E+00 -0.18373348553E+04  0.18373348553E+04  0.00000000000E+00 0.  1.
    2000013    1    1    2    0    0 -0.94267798820E+03 -0.62048544028E+03 -0.10554359298E+04  0.18138602408E+04  0.95000000000E+03 0.  0.
   -2000013    1    1    2    0    0  0.94267798820E+03  0.62048544028E+03  0.94832854350E+03  0.17537020834E+04  0.95000000000E+03 0.  0.
<mgrwt>
<rscale>  0 0.35659541E+04</rscale>
<asrwt>0</asrwt>
<pdfrwt beam="2">  1        2 0.28266690E+00 0.35659541E+04</pdfrwt>
<pdfrwt beam="1">  1       -2 0.26618884E+00 0.35659541E+04</pdfrwt>
<totfact> 0.34384309E-01</totfact>
</mgrwt>
</event>
<event>
 4    1  0.1343107E-008  0.2903569E+04  0.7816531E-02  0.8271816E-01
          2   -1    0    0  501    0  0.00000000000E+00  0.00000000000E+00  0.48913252385E+03  0.48913252385E+03  0.00000000000E+00 0.  1.
         -2   -1    0    0    0  501 -0.00000000000E+00 -0.00000000000E+00 -0.43090126465E+04  0.43090126465E+04  0.00000000000E+00 0. -1.
    2000013    1    1    2    0    0  0.27541456443E+03  0.10188934730E+04 -0.24089322425E+04  0.27963282426E+04  0.95000000000E+03 0.  0.
   -2000013    1    1    2    0    0 -0.27541456443E+03 -0.10188934730E+04 -0.14109478802E+04  0.20018169277E+04  0.95000000000E+03 0.  0.
<mgrwt>
<rscale>  0 0.29035690E+04</rscale>
<asrwt>0</asrwt>
<pdfrwt beam="1">  1        2 0.75251158E-01 0.29035690E+04</pdfrwt>
<pdfrwt beam="2">  1       -2 0.66292502E+00 0.29035690E+04</pdfrwt>
<totfact> 0.16388064E-02</totfact>
</mgrwt>
</event>
<event>
 4    1  0.1343107E-008  0.2076299E+04  0.7816531E-02  0.8571756E-01
          2   -1    0    0  501    0  0.00000000000E+00  0.00000000000E+00  0.13409928906E+04  0.13409928906E+04  0.00000000000E+00 0.  1.
         -2   -1    0    0    0  501 -0.00000000000E+00 -0.00000000000E+00 -0.80369913463E+03  0.80369913463E+03  0.00000000000E+00 0. -1.
    2000013    1    1    2    0    0 -0.25828987337E+03  0.45224202409E+02  0.60573346817E+03  0.11567938112E+04  0.95000000000E+03 0.  0.
   -2000013    1    1    2    0    0  0.25828987337E+03 -0.45224202409E+02 -0.68439712167E+02  0.98789821407E+03  0.95000000000E+03 0.  0.
<mgrwt>
<rscale>  0 0.20762994E+04</rscale>
<asrwt>0</asrwt>
<pdfrwt beam="1">  1        2 0.20630660E+00 0.20762994E+04</pdfrwt>
<pdfrwt beam="2">  1       -2 0.12364602E+00 0.20762994E+04</pdfrwt>
<totfact> 0.71211142E+00</totfact>
</mgrwt>
</event>
<event>
 4    1  0.1343107E-008  0.3247838E+04  0.7816531E-02  0.8176296E-01
         -2   -1    0    0    0  501 -0.00000000000E+00  0.00000000000E+00  0.15710078596E+04  0.15710078596E+04  0.00000000000E+00 0. -1.
          2   -1    0    0  501    0  0.00000000000E+00 -0.00000000000E+00 -0.16786124921E+04  0.16786124921E+04  0.00000000000E+00 0.  1.
    2000013    1    1    2    0    0  0.41911229409E+03 -0.11917939266E+04 -0.42627736444E+03  0.16371439368E+04  0.95000000000E+03 0.  0.
   -2000013    1    1    2    0    0 -0.41911229409E+03  0.11917939266E+04  0.31867273196E+03  0.16124764149E+04  0.95000000000E+03 0.  0.
<mgrwt>
<rscale>  0 0.32478383E+04</rscale>
<asrwt>0</asrwt>
<pdfrwt beam="2">  1        2 0.25824808E+00 0.32478383E+04</pdfrwt>
<pdfrwt beam="1">  1       -2 0.24169352E+00 0.32478383E+04</pdfrwt>
<totfact> 0.61135711E-01</totfact>
</mgrwt>
</event>
<event>
 4    1  0.1343107E-008  0.2438364E+04  0.7816531E-02  0.8425279E-01
          2   -1    0    0  501    0  0.00000000000E+00  0.00000000000E+00  0.10417360335E+04  0.10417360335E+04  0.00000000000E+00 0.  1.
         -2   -1    0    0    0  501 -0.00000000000E+00 -0.00000000000E+00 -0.14268533357E+04  0.14268533357E+04  0.00000000000E+00 0. -1.
    2000013    1    1    2    0    0 -0.56433546777E+03 -0.12720695050E+03  0.31287778076E+03  0.11554430467E+04  0.95000000000E+03 0.  0.
   -2000013    1    1    2    0    0  0.56433546777E+03  0.12720695050E+03 -0.69799508297E+03  0.13131463225E+04  0.95000000000E+03 0.  0.
<mgrwt>
<rscale>  0 0.24383638E+04</rscale>
<asrwt>0</asrwt>
<pdfrwt beam="1">  1        2 0.16026708E+00 0.24383638E+04</pdfrwt>
<pdfrwt beam="2">  1       -2 0.21951590E+00 0.24383638E+04</pdfrwt>
<totfact> 0.21135003E+00</totfact>
</mgrwt>
</event>
<event>
 4    1  0.1343107E-008  0.2703391E+04  0.7816531E-02  0.8333906E-01
         -2   -1    0    0    0  501 -0.00000000000E+00  0.00000000000E+00  0.83700706241E+03  0.83700706241E+03  0.00000000000E+00 0. -1.
          2   -1    0    0  501    0  0.00000000000E+00 -0.00000000000E+00 -0.21828738452E+04  0.21828738452E+04  0.00000000000E+00 0.  1.
    2000013    1    1    2    0    0 -0.59944390305E+03  0.73839818301E+03 -0.83097414829E+03  0.15803742926E+04  0.95000000000E+03 0.  0.
   -2000013    1    1    2    0    0  0.59944390305E+03 -0.73839818301E+03 -0.51489263449E+03  0.14395066150E+04  0.95000000000E+03 0.  0.
<mgrwt>
<rscale>  0 0.27033911E+04</rscale>
<asrwt>0</asrwt>
<pdfrwt beam="2">  1        2 0.33582675E+00 0.27033911E+04</pdfrwt>
<pdfrwt beam="1">  1       -2 0.12877032E+00 0.27033911E+04</pdfrwt>
<totfact> 0.20599030E+00</totfact>
</mgrwt>
</event>
<event>
 4    1  0.1343107E-008  0.2172852E+04  0.7816531E-02  0.8529813E-01
          2   -1    0    0  501    0  0.00000000000E+00  0.00000000000E+00  0.12506633621E+04  0.12506633621E+04  0.00000000000E+00 0.  1.
         -2   -1    0    0    0  501 -0.00000000000E+00 -0.00000000000E+00 -0.94375649283E+03  0.94375649283E+03  0.00000000000E+00 0. -1.
    2000013    1    1    2    0    0  0.21735445539E+03 -0.40929638787E+03  0.40705381997E+03  0.11326779351E+04  0.95000000000E+03 0.  0.
   -2000013    1    1    2    0    0 -0.21735445539E+03  0.40929638787E+03 -0.10014695074E+03  0.10617419197E+04  0.95000000000E+03 0.  0.
<mgrwt>
<rscale>  0 0.21728522E+04</rscale>
<asrwt>0</asrwt>
<pdfrwt beam="1">  1        2 0.19240975E+00 0.21728522E+04</pdfrwt>
<pdfrwt beam="2">  1       -2 0.14519331E+00 0.21728522E+04</pdfrwt>
<totfact> 0.52867869E+00</totfact>
</mgrwt>
</event>
<event>
 4    1  0.1343107E-008  0.2617096E+04  0.7816531E-02  0.8362417E-01
         -2   -1    0    0    0  501 -0.00000000000E+00  0.00000000000E+00  0.11613657291E+04  0.11613657291E+04  0.00000000000E+00 0. -1.
          2   -1    0    0  501    0  0.00000000000E+00 -0.00000000000E+00 -0.14743826452E+04  0.14743826452E+04  0.00000000000E+00 0.  1.
    2000013    1    1    2    0    0  0.62967979735E+03 -0.52353487945E+03 -0.53227903457E+03  0.13625000506E+04  0.95000000000E+03 0.  0.
   -2000013    1    1    2    0    0 -0.62967979735E+03  0.52353487945E+03  0.21926211849E+03  0.12732483237E+04  0.95000000000E+03 0.  0.
<mgrwt>
<rscale>  0 0.26170957E+04</rscale>
<asrwt>0</asrwt>
<pdfrwt beam="2">  1        2 0.22682810E+00 0.26170957E+04</pdfrwt>
<pdfrwt beam="1">  1       -2 0.17867165E+00 0.26170957E+04</pdfrwt>
<totfact> 0.21475279E+00</totfact>
</mgrwt>
</event>
<event>
 4    1  0.1343107E-008  0.2377925E+04  0.7816531E-02  0.8447815E-01
         -2   -1    0    0    0  501 -0.00000000000E+00  0.00000000000E+00  0.10277610787E+04  0.10277610787E+04  0.00000000000E+00 0. -1.
          2   -1    0    0  501    0  0.00000000000E+00 -0.00000000000E+00 -0.13754482316E+04  0.13754482316E+04  0.00000000000E+00 0.  1.
    2000013    1    1    2    0    0 -0.31460546889E+03  0.64013107950E+03 -0.22322783830E+03  0.12087493817E+04  0.95000000000E+03 0.  0.
   -2000013    1    1    2    0    0  0.31460546889E+03 -0.64013107950E+03 -0.12445931468E+03  0.11944599286E+04  0.95000000000E+03 0.  0.
<mgrwt>
<rscale>  0 0.23779253E+04</rscale>
<asrwt>0</asrwt>
<pdfrwt beam="2">  1        2 0.21160742E+00 0.23779253E+04</pdfrwt>
<pdfrwt beam="1">  1       -2 0.15811709E+00 0.23779253E+04</pdfrwt>
<totfact> 0.35034901E+00</totfact>
</mgrwt>
</event>
<event>
 4    1  0.1343107E-008  0.2180461E+04  0.7816531E-02  0.8526605E-01
          1   -1    0    0  501    0  0.00000000000E+00  0.00000000000E+00  0.79827708090E+03  0.79827708090E+03  0.00000000000E+00 0.  1.
         -1   -1    0    0    0  501 -0.00000000000E+00 -0.00000000000E+00 -0.14889594375E+04  0.14889594375E+04  0.00000000000E+00 0. -1.
    2000013    1    1    2    0    0  0.24362251899E+03  0.44227577792E+03 -0.16022735889E+03  0.10877189904E+04  0.95000000000E+03 0.  0.
   -2000013    1    1    2    0    0 -0.24362251899E+03 -0.44227577792E+03 -0.53045499776E+03  0.11995175281E+04  0.95000000000E+03 0.  0.
<mgrwt>
<rscale>  0 0.21804607E+04</rscale>
<asrwt>0</asrwt>
<pdfrwt beam="1">  1        1 0.12281186E+00 0.21804607E+04</pdfrwt>
<pdfrwt beam="2">  1       -1 0.22907069E+00 0.21804607E+04</pdfrwt>
<totfact> 0.19397794E+00</totfact>
</mgrwt>
</event>
<event>
 4    1  0.1343107E-008  0.2632586E+04  0.7816531E-02  0.8357216E-01
          2   -1    0    0  501    0  0.00000000000E+00  0.00000000000E+00  0.14006293359E+04  0.14006293359E+04  0.00000000000E+00 0.  1.
         -2   -1    0    0    0  501 -0.00000000000E+00 -0.00000000000E+00 -0.12370350514E+04  0.12370350514E+04  0.00000000000E+00 0. -1.
    2000013    1    1    2    0    0  0.49580408663E+03  0.74277037845E+03  0.26269472877E+03  0.13300518967E+04  0.95000000000E+03 0.  0.
   -2000013    1    1    2    0    0 -0.49580408663E+03 -0.74277037845E+03 -0.99100444283E+02  0.13076124906E+04  0.95000000000E+03 0.  0.
<mgrwt>
<rscale>  0 0.26325862E+04</rscale>
<asrwt>0</asrwt>
<pdfrwt beam="1">  1        2 0.21548144E+00 0.26325862E+04</pdfrwt>
<pdfrwt beam="2">  1       -2 0.19031308E+00 0.26325862E+04</pdfrwt>
<totfact> 0.19677092E+00</totfact>
</mgrwt>
</event>
<event>
 4    1  0.1343107E-008  0.2446939E+04  0.7816531E-02  0.8422136E-01
         -2   -1    0    0    0  501 -0.00000000000E+00  0.00000000000E+00  0.19178319018E+04  0.19178319018E+04  0.00000000000E+00 0. -1.
          2   -1    0    0  501    0  0.00000000000E+00 -0.00000000000E+00 -0.78050538360E+03  0.78050538360E+03  0.00000000000E+00 0.  1.
    2000013    1    1    2    0    0  0.39394954007E+03 -0.50708759238E+02 -0.15998865286E+03  0.10420479775E+04  0.95000000000E+03 0.  0.
   -2000013    1    1    2    0    0 -0.39394954007E+03  0.50708759238E+02  0.12973151710E+04  0.16562893079E+04  0.95000000000E+03 0.  0.
<mgrwt>
<rscale>  0 0.24469394E+04</rscale>
<asrwt>0</asrwt>
<pdfrwt beam="2">  1        2 0.12007775E+00 0.24469394E+04</pdfrwt>
<pdfrwt beam="1">  1       -2 0.29505106E+00 0.24469394E+04</pdfrwt>
<totfact> 0.10867206E+00</totfact>
</mgrwt>
</event>
<event>
 4    1  0.1343107E-008  0.3446838E+04  0.7816531E-02  0.8126506E-01
          2   -1    0    0  501    0  0.00000000000E+00  0.00000000000E+00  0.12924134230E+04  0.12924134230E+04  0.00000000000E+00 0.  1.
         -2   -1    0    0    0  501 -0.00000000000E+00 -0.00000000000E+00 -0.22981599797E+04  0.22981599797E+04  0.00000000000E+00 0. -1.
    2000013    1    1    2    0    0 -0.32013802780E+03 -0.13916780355E+04 -0.32727116561E+03  0.17460992317E+04  0.95000000000E+03 0.  0.
   -2000013    1    1    2    0    0  0.32013802780E+03  0.13916780355E+04 -0.67847539113E+03  0.18444741710E+04  0.95000000000E+03 0.  0.
<mgrwt>
<rscale>  0 0.34468379E+04</rscale>
<asrwt>0</asrwt>
<pdfrwt beam="1">  1        2 0.19883284E+00 0.34468379E+04</pdfrwt>
<pdfrwt beam="2">  1       -2 0.35356307E+00 0.34468379E+04</pdfrwt>
<totfact> 0.20351711E-01</totfact>
</mgrwt>
</event>
<event>
 4    1  0.1343107E-008  0.2265519E+04  0.7816531E-02  0.8491642E-01
          1   -1    0    0  501    0  0.00000000000E+00  0.00000000000E+00  0.21609197203E+04  0.21609197203E+04  0.00000000000E+00 0. -1.
         -1   -1    0    0    0  501 -0.00000000000E+00 -0.00000000000E+00 -0.59379521950E+03  0.59379521950E+03  0.00000000000E+00 0.  1.
    2000013    1    1    2    0    0 -0.13272253275E+03  0.58017923954E+03  0.98120467314E+03  0.14897938889E+04  0.95000000000E+03 0.  0.
   -2000013    1    1    2    0    0  0.13272253275E+03 -0.58017923954E+03  0.58591982767E+03  0.12649210510E+04  0.95000000000E+03 0.  0.
<mgrwt>
<rscale>  0 0.22655187E+04</rscale>
<asrwt>0</asrwt>
<pdfrwt beam="1">  1        1 0.33244919E+00 0.22655187E+04</pdfrwt>
<pdfrwt beam="2">  1       -1 0.91353111E-01 0.22655187E+04</pdfrwt>
<totfact> 0.24536654E+00</totfact>
</mgrwt>
</event>
<event>
 4    1  0.1343107E-008  0.3314735E+04  0.7816531E-02  0.8159156E-01
         -2   -1    0    0    0  501 -0.00000000000E+00  0.00000000000E+00  0.20514858362E+04  0.20514858362E+04  0.00000000000E+00 0. -1.
          2   -1    0    0  501    0  0.00000000000E+00 -0.00000000000E+00 -0.13389646150E+04  0.13389646150E+04  0.00000000000E+00 0.  1.
    2000013    1    1    2    0    0 -0.76251978772E+03 -0.10706686040E+04  0.69944700629E+01  0.16218250858E+04  0.95000000000E+03 0.  0.
   -2000013    1    1    2    0    0  0.76251978772E+03  0.10706686040E+04  0.70552675111E+03  0.17686253653E+04  0.95000000000E+03 0.  0.
<mgrwt>
<rscale>  0 0.33147349E+04</rscale>
<asrwt>0</asrwt>
<pdfrwt beam="2">  1        2 0.20599456E+00 0.33147349E+04</pdfrwt>
<pdfrwt beam="1">  1       -2 0.31561321E+00 0.33147349E+04</pdfrwt>
<totfact> 0.33351349E-01</totfact>
</mgrwt>
</event>
<event>
 4    1  0.1343107E-008  0.2122309E+04  0.7816531E-02  0.8551479E-01
         -2   -1    0    0    0  501 -0.00000000000E+00  0.00000000000E+00  0.60310711366E+03  0.60310711366E+03  0.00000000000E+00 0. -1.
          2   -1    0    0  501    0  0.00000000000E+00 -0.00000000000E+00 -0.18670794155E+04  0.18670794155E+04  0.00000000000E+00 0.  1.
    2000013    1    1    2    0    0 -0.43833704695E+02  0.39453272789E+03 -0.93093646653E+03  0.13880634610E+04  0.95000000000E+03 0.  0.
   -2000013    1    1    2    0    0  0.43833704695E+02 -0.39453272789E+03 -0.33303583530E+03  0.10821230682E+04  0.95000000000E+03 0.  0.
<mgrwt>
<rscale>  0 0.21223090E+04</rscale>
<asrwt>0</asrwt>
<pdfrwt beam="2">  1        2 0.28724299E+00 0.21223090E+04</pdfrwt>
<pdfrwt beam="1">  1       -2 0.92785709E-01 0.21223090E+04</pdfrwt>
<totfact> 0.71735727E+00</totfact>
</mgrwt>
</event>
<event>
 4    1  0.1343107E-008  0.2193059E+04  0.7816531E-02  0.8521323E-01
         -2   -1    0    0    0  501 -0.00000000000E+00  0.00000000000E+00  0.68703153132E+03  0.68703153132E+03  0.00000000000E+00 0. -1.
          2   -1    0    0  501    0  0.00000000000E+00 -0.00000000000E+00 -0.17501045871E+04  0.17501045871E+04  0.00000000000E+00 0.  1.
    2000013    1    1    2    0    0 -0.42150752504E+03 -0.12215714413E+02 -0.91978945980E+03  0.13879230770E+04  0.95000000000E+03 0.  0.
   -2000013    1    1    2    0    0  0.42150752504E+03  0.12215714413E+02 -0.14328359596E+03  0.10492130414E+04  0.95000000000E+03 0.  0.
<mgrwt>
<rscale>  0 0.21930591E+04</rscale>
<asrwt>0</asrwt>
<pdfrwt beam="2">  1        2 0.26924685E+00 0.21930591E+04</pdfrwt>
<pdfrwt beam="1">  1       -2 0.10569716E+00 0.21930591E+04</pdfrwt>
<totfact> 0.60858860E+00</totfact>
</mgrwt>
</event>
<event>
 4    1  0.1343107E-008  0.2131680E+04  0.7816531E-02  0.8547415E-01
         -2   -1    0    0    0  501 -0.00000000000E+00  0.00000000000E+00  0.64061331669E+03  0.64061331669E+03  0.00000000000E+00 0. -1.
          2   -1    0    0  501    0  0.00000000000E+00 -0.00000000000E+00 -0.17733244174E+04  0.17733244174E+04  0.00000000000E+00 0.  1.
    2000013    1    1    2    0    0  0.81069467258E+02  0.44447718054E+03 -0.76046745065E+03  0.12980535297E+04  0.95000000000E+03 0.  0.
   -2000013    1    1    2    0    0 -0.81069467258E+02 -0.44447718054E+03 -0.37224365005E+03  0.11158842044E+04  0.95000000000E+03 0.  0.
<mgrwt>
<rscale>  0 0.21316803E+04</rscale>
<asrwt>0</asrwt>
<pdfrwt beam="2">  1        2 0.27281914E+00 0.21316803E+04</pdfrwt>
<pdfrwt beam="1">  1       -2 0.98555897E-01 0.21316803E+04</pdfrwt>
<totfact> 0.70159840E+00</totfact>
</mgrwt>
</event>
<event>
 4    1  0.1343107E-008  0.2359837E+04  0.7816531E-02  0.8454695E-01
          1   -1    0    0  501    0  0.00000000000E+00  0.00000000000E+00  0.99955297808E+03  0.99955297808E+03  0.00000000000E+00 0.  1.
         -1   -1    0    0    0  501 -0.00000000000E+00 -0.00000000000E+00 -0.13928299825E+04  0.13928299825E+04  0.00000000000E+00 0. -1.
    2000013    1    1    2    0    0  0.20059578468E+03  0.61642833925E+03  0.70596671384E+02  0.11522614531E+04  0.95000000000E+03 0.  0.
   -2000013    1    1    2    0    0 -0.20059578468E+03 -0.61642833925E+03 -0.46387367581E+03  0.12401215075E+04  0.95000000000E+03 0.  0.
<mgrwt>
<rscale>  0 0.23598367E+04</rscale>
<asrwt>0</asrwt>
<pdfrwt beam="1">  1        1 0.15377738E+00 0.23598367E+04</pdfrwt>
<pdfrwt beam="2">  1       -1 0.21428154E+00 0.23598367E+04</pdfrwt>
<totfact> 0.16374071E+00</totfact>
</mgrwt>
</event>
<event>
 4    1  0.1343107E-008  0.2292341E+04  0.7816531E-02  0.8480947E-01
          1   -1    0    0  501    0  0.00000000000E+00  0.00000000000E+00  0.27269705660E+04  0.27269705660E+04  0.00000000000E+00 0. -1.
         -1   -1    0    0    0  501 -0.00000000000E+00 -0.00000000000E+00 -0.48174589971E+03  0.48174589971E+03  0.00000000000E+00 0.  1.
    2000013    1    1    2    0    0 -0.36010998424E+03  0.53001337508E+03  0.11572830671E+04  0.16286182720E+04  0.95000000000E+03 0.  0.
   -2000013    1    1    2    0    0  0.36010998424E+03 -0.53001337508E+03  0.10879415992E+04  0.15800981937E+04  0.95000000000E+03 0.  0.
<mgrwt>
<rscale>  0 0.22923411E+04</rscale>
<asrwt>0</asrwt>
<pdfrwt beam="1">  1        1 0.41953392E+00 0.22923411E+04</pdfrwt>
<pdfrwt beam="2">  1       -1 0.74114756E-01 0.22923411E+04</pdfrwt>
<totfact> 0.15572016E+00</totfact>
</mgrwt>
</event>
<event>
 4    1  0.1343107E-008  0.2108438E+04  0.7816531E-02  0.8557535E-01
         -2   -1    0    0    0  501 -0.00000000000E+00  0.00000000000E+00  0.51362403569E+03  0.51362403569E+03  0.00000000000E+00 0. -1.
          2   -1    0    0  501    0  0.00000000000E+00 -0.00000000000E+00 -0.21637960328E+04  0.21637960328E+04  0.00000000000E+00 0.  1.
    2000013    1    1    2    0    0  0.41162248275E+03  0.18145392521E+03 -0.72255669000E+03  0.12755182341E+04  0.95000000000E+03 0.  0.
   -2000013    1    1    2    0    0 -0.41162248275E+03 -0.18145392521E+03 -0.92761530713E+03  0.14019018344E+04  0.95000000000E+03 0.  0.
<mgrwt>
<rscale>  0 0.21084380E+04</rscale>
<asrwt>0</asrwt>
<pdfrwt beam="2">  1        2 0.33289169E+00 0.21084380E+04</pdfrwt>
<pdfrwt beam="1">  1       -2 0.79019084E-01 0.21084380E+04</pdfrwt>
<totfact> 0.70820380E+00</totfact>
</mgrwt>
</event>
<event>
 4    1  0.1343107E-008  0.3657126E+04  0.7816531E-02  0.8077530E-01
          2   -1    0    0  501    0  0.00000000000E+00  0.00000000000E+00  0.20161353395E+04  0.20161353395E+04  0.00000000000E+00 0.  1.
         -2   -1    0    0    0  501 -0.00000000000E+00 -0.00000000000E+00 -0.16584413376E+04  0.16584413376E+04  0.00000000000E+00 0. -1.
    2000013    1    1    2    0    0 -0.12026289730E+04  0.98105244118E+03  0.35959940887E+03  0.18548833047E+04  0.95000000000E+03 0.  0.
   -2000013    1    1    2    0    0  0.12026289730E+04 -0.98105244118E+03 -0.19054069275E+01  0.18196933724E+04  0.95000000000E+03 0.  0.
<mgrwt>
<rscale>  0 0.36571258E+04</rscale>
<asrwt>0</asrwt>
<pdfrwt beam="1">  1        2 0.31017467E+00 0.36571258E+04</pdfrwt>
<pdfrwt beam="2">  1       -2 0.25514482E+00 0.36571258E+04</pdfrwt>
<totfact> 0.31723552E-01</totfact>
</mgrwt>
</event>
<event>
 4    1  0.1343107E-008  0.3206261E+04  0.7816531E-02  0.8187166E-01
          2   -1    0    0  501    0  0.00000000000E+00  0.00000000000E+00  0.10880334797E+04  0.10880334797E+04  0.00000000000E+00 0.  1.
         -2   -1    0    0    0  501 -0.00000000000E+00 -0.00000000000E+00 -0.23620849200E+04  0.23620849200E+04  0.00000000000E+00 0. -1.
    2000013    1    1    2    0    0 -0.11855468808E+04 -0.50866527512E+03 -0.57553300328E+03  0.17023513170E+04  0.95000000000E+03 0.  0.
   -2000013    1    1    2    0    0  0.11855468808E+04  0.50866527512E+03 -0.69851843704E+03  0.17477670827E+04  0.95000000000E+03 0.  0.
<mgrwt>
<rscale>  0 0.32062610E+04</rscale>
<asrwt>0</asrwt>
<pdfrwt beam="1">  1        2 0.16738977E+00 0.32062610E+04</pdfrwt>
<pdfrwt beam="2">  1       -2 0.36339768E+00 0.32062610E+04</pdfrwt>
<totfact> 0.23850735E-01</totfact>
</mgrwt>
</event>
<event>
 4    1  0.1343107E-008  0.2075516E+04  0.7816531E-02  0.8572106E-01
         -2   -1    0    0    0  501 -0.00000000000E+00  0.00000000000E+00  0.61810460396E+03  0.61810460396E+03  0.00000000000E+00 0. -1.
          2   -1    0    0  501    0  0.00000000000E+00 -0.00000000000E+00 -0.17423289950E+04  0.17423289950E+04  0.00000000000E+00 0.  1.
    2000013    1    1    2    0    0  0.13279204158E+03 -0.39480870496E+03 -0.59686771040E+03  0.11967701131E+04  0.95000000000E+03 0.  0.
   -2000013    1    1    2    0    0 -0.13279204158E+03  0.39480870496E+03 -0.52735668067E+03  0.11636634859E+04  0.95000000000E+03 0.  0.
<mgrwt>
<rscale>  0 0.20755159E+04</rscale>
<asrwt>0</asrwt>
<pdfrwt beam="2">  1        2 0.26805061E+00 0.20755159E+04</pdfrwt>
<pdfrwt beam="1">  1       -2 0.95093016E-01 0.20755159E+04</pdfrwt>
<totfact> 0.79762409E+00</totfact>
</mgrwt>
</event>
<event>
 4    1  0.1343107E-008  0.2302219E+04  0.7816531E-02  0.8477047E-01
          2   -1    0    0  501    0  0.00000000000E+00  0.00000000000E+00  0.26423332158E+04  0.26423332158E+04  0.00000000000E+00 0.  1.
         -2   -1    0    0    0  501 -0.00000000000E+00 -0.00000000000E+00 -0.50147092085E+03  0.50147092085E+03  0.00000000000E+00 0. -1.
    2000013    1    1    2    0    0  0.30444063850E+03 -0.53229816172E+03  0.13649853620E+04  0.17724870871E+04  0.95000000000E+03 0.  0.
   -2000013    1    1    2    0    0 -0.30444063850E+03  0.53229816172E+03  0.77587693288E+03  0.13713170495E+04  0.95000000000E+03 0.  0.
<mgrwt>
<rscale>  0 0.23022192E+04</rscale>
<asrwt>0</asrwt>
<pdfrwt beam="1">  1        2 0.40651279E+00 0.23022192E+04</pdfrwt>
<pdfrwt beam="2">  1       -2 0.77149374E-01 0.23022192E+04</pdfrwt>
<totfact> 0.39058010E+00</totfact>
</mgrwt>
</event>
<event>
 4    1  0.1343107E-008  0.2305421E+04  0.7816531E-02  0.8475787E-01
         -2   -1    0    0    0  501 -0.00000000000E+00  0.00000000000E+00  0.55059023723E+03  0.55059023723E+03  0.00000000000E+00 0. -1.
          2   -1    0    0  501    0  0.00000000000E+00 -0.00000000000E+00 -0.24133035228E+04  0.24133035228E+04  0.00000000000E+00 0.  1.
    2000013    1    1    2    0    0  0.44412761509E+02 -0.62045053839E+03 -0.11862531623E+04  0.16421412634E+04  0.95000000000E+03 0.  0.
   -2000013    1    1    2    0    0 -0.44412761509E+02  0.62045053839E+03 -0.67646012334E+03  0.13217524967E+04  0.95000000000E+03 0.  0.
<mgrwt>
<rscale>  0 0.23054209E+04</rscale>
<asrwt>0</asrwt>
<pdfrwt beam="2">  1        2 0.37127747E+00 0.23054209E+04</pdfrwt>
<pdfrwt beam="1">  1       -2 0.84706188E-01 0.23054209E+04</pdfrwt>
<totfact> 0.42986216E+00</totfact>
</mgrwt>
</event>
<event>
 4    1  0.1343107E-008  0.2260341E+04  0.7816531E-02  0.8493724E-01
         -2   -1    0    0    0  501 -0.00000000000E+00  0.00000000000E+00  0.79174070272E+03  0.79174070272E+03  0.00000000000E+00 0. -1.
          2   -1    0    0  501    0  0.00000000000E+00 -0.00000000000E+00 -0.16132627241E+04  0.16132627241E+04  0.00000000000E+00 0.  1.
    2000013    1    1    2    0    0 -0.52860626777E+03  0.28206143691E+03 -0.54451442410E+03  0.12481903695E+04  0.95000000000E+03 0.  0.
   -2000013    1    1    2    0    0  0.52860626777E+03 -0.28206143691E+03 -0.27700759725E+03  0.11568130573E+04  0.95000000000E+03 0.  0.
<mgrwt>
<rscale>  0 0.22603414E+04</rscale>
<asrwt>0</asrwt>
<pdfrwt beam="2">  1        2 0.24819426E+00 0.22603414E+04</pdfrwt>
<pdfrwt beam="1">  1       -2 0.12180626E+00 0.22603414E+04</pdfrwt>
<totfact> 0.51019779E+00</totfact>
</mgrwt>
</event>
<event>
 4    1  0.1343107E-008  0.4182484E+04  0.7816531E-02  0.7968713E-01
         -2   -1    0    0    0  501 -0.00000000000E+00  0.00000000000E+00  0.17546305150E+04  0.17546305150E+04  0.00000000000E+00 0. -1.
          2   -1    0    0  501    0  0.00000000000E+00 -0.00000000000E+00 -0.24924297036E+04  0.24924297036E+04  0.00000000000E+00 0.  1.
    2000013    1    1    2    0    0  0.13793796041E+04 -0.12140285800E+04 -0.57174949217E+02  0.20693773122E+04  0.95000000000E+03 0.  0.
   -2000013    1    1    2    0    0 -0.13793796041E+04  0.12140285800E+04 -0.68062423940E+03  0.21776829064E+04  0.95000000000E+03 0.  0.
<mgrwt>
<rscale>  0 0.41824841E+04</rscale>
<asrwt>0</asrwt>
<pdfrwt beam="2">  1        2 0.38345072E+00 0.41824841E+04</pdfrwt>
<pdfrwt beam="1">  1       -2 0.26994316E+00 0.41824841E+04</pdfrwt>
<totfact> 0.13259629E-01</totfact>
</mgrwt>
</event>
<event>
 4    1  0.1343107E-008  0.2968947E+04  0.7816531E-02  0.8252654E-01
         -2   -1    0    0    0  501 -0.00000000000E+00  0.00000000000E+00  0.97728231331E+03  0.97728231331E+03  0.00000000000E+00 0. -1.
          2   -1    0    0  501    0  0.00000000000E+00 -0.00000000000E+00 -0.22548874045E+04  0.22548874045E+04  0.00000000000E+00 0.  1.
    2000013    1    1    2    0    0 -0.65522860581E+03 -0.85548893409E+03 -0.23149909209E+03  0.14550868262E+04  0.95000000000E+03 0.  0.
   -2000013    1    1    2    0    0  0.65522860581E+03  0.85548893409E+03 -0.10461059991E+04  0.17770828916E+04  0.95000000000E+03 0.  0.
<mgrwt>
<rscale>  0 0.29689470E+04</rscale>
<asrwt>0</asrwt>
<pdfrwt beam="2">  1        2 0.34690575E+00 0.29689470E+04</pdfrwt>
<pdfrwt beam="1">  1       -2 0.15035113E+00 0.29689470E+04</pdfrwt>
<totfact> 0.12286862E+00</totfact>
</mgrwt>
</event>
<event>
 4    1  0.1343107E-008  0.2416818E+04  0.7816531E-02  0.8433234E-01
          1   -1    0    0  501    0  0.00000000000E+00  0.00000000000E+00  0.18395711426E+04  0.18395711426E+04  0.00000000000E+00 0.  1.
         -1   -1    0    0    0  501 -0.00000000000E+00 -0.00000000000E+00 -0.79380009168E+03  0.79380009168E+03  0.00000000000E+00 0. -1.
    2000013    1    1    2    0    0 -0.64718911978E+03  0.36415918290E+03  0.60927443352E+03  0.13509925990E+04  0.95000000000E+03 0.  0.
   -2000013    1    1    2    0    0  0.64718911978E+03 -0.36415918290E+03  0.43649661742E+03  0.12823786353E+04  0.95000000000E+03 0.  0.
<mgrwt>
<rscale>  0 0.24168175E+04</rscale>
<asrwt>0</asrwt>
<pdfrwt beam="1">  1        1 0.28301094E+00 0.24168175E+04</pdfrwt>
<pdfrwt beam="2">  1       -1 0.12212309E+00 0.24168175E+04</pdfrwt>
<totfact> 0.20314526E+00</totfact>
</mgrwt>
</event>
<event>
 4    1  0.1343107E-008  0.2190438E+04  0.7816531E-02  0.8522419E-01
          2   -1    0    0  501    0  0.00000000000E+00  0.00000000000E+00  0.23178821916E+04  0.23178821916E+04  0.00000000000E+00 0.  1.
         -2   -1    0    0    0  501 -0.00000000000E+00 -0.00000000000E+00 -0.51750025337E+03  0.51750025337E+03  0.00000000000E+00 0. -1.
    2000013    1    1    2    0    0  0.35519910696E+03  0.38346174823E+03  0.70051476518E+03  0.12909028833E+04  0.95000000000E+03 0.  0.
   -2000013    1    1    2    0    0 -0.35519910696E+03 -0.38346174823E+03  0.10998671730E+04  0.15444795616E+04  0.95000000000E+03 0.  0.
<mgrwt>
<rscale>  0 0.21904380E+04</rscale>
<asrwt>0</asrwt>
<pdfrwt beam="1">  1        2 0.35659725E+00 0.21904380E+04</pdfrwt>
<pdfrwt beam="2">  1       -2 0.79615425E-01 0.21904380E+04</pdfrwt>
<totfact> 0.56607297E+00</totfact>
</mgrwt>
</event>
<event>
 4    1  0.1343107E-008  0.2748434E+04  0.7816531E-02  0.8319459E-01
         -1   -1    0    0    0  501 -0.00000000000E+00  0.00000000000E+00  0.19246690153E+04  0.19246690153E+04  0.00000000000E+00 0. -1.
          1   -1    0    0  501    0  0.00000000000E+00 -0.00000000000E+00 -0.98119312239E+03  0.98119312239E+03  0.00000000000E+00 0.  1.
    2000013    1    1    2    0    0 -0.86631487288E+03  0.18514368909E+03  0.94597498930E+03  0.16069064456E+04  0.95000000000E+03 0.  0.
   -2000013    1    1    2    0    0  0.86631487288E+03 -0.18514368909E+03 -0.24990963513E+01  0.12989556921E+04  0.95000000000E+03 0.  0.
<mgrwt>
<rscale>  0 0.27484337E+04</rscale>
<asrwt>0</asrwt>
<pdfrwt beam="2">  1        1 0.15095279E+00 0.27484337E+04</pdfrwt>
<pdfrwt beam="1">  1       -1 0.29610293E+00 0.27484337E+04</pdfrwt>
<totfact> 0.47646338E-01</totfact>
</mgrwt>
</event>
<event>
 4    1  0.1343107E-008  0.2232702E+04  0.7816531E-02  0.8504939E-01
         -2   -1    0    0    0  501 -0.00000000000E+00  0.00000000000E+00  0.11000963263E+04  0.11000963263E+04  0.00000000000E+00 0. -1.
          2   -1    0    0  501    0  0.00000000000E+00 -0.00000000000E+00 -0.11328455985E+04  0.11328455985E+04  0.00000000000E+00 0.  1.
    2000013    1    1    2    0    0  0.56368878439E+03  0.86921506210E+02 -0.15217910719E+03  0.11184627283E+04  0.95000000000E+03 0.  0.
   -2000013    1    1    2    0    0 -0.56368878439E+03 -0.86921506210E+02  0.11942983494E+03  0.11144791965E+04  0.95000000000E+03 0.  0.
<mgrwt>
<rscale>  0 0.22327018E+04</rscale>
<asrwt>0</asrwt>
<pdfrwt beam="2">  1        2 0.17428394E+00 0.22327018E+04</pdfrwt>
<pdfrwt beam="1">  1       -2 0.16924559E+00 0.22327018E+04</pdfrwt>
<totfact> 0.40909166E+00</totfact>
</mgrwt>
</event>
<event>
 4    1  0.1343107E-008  0.2948637E+04  0.7816531E-02  0.8258552E-01
          2   -1    0    0  501    0  0.00000000000E+00  0.00000000000E+00  0.14376100810E+04  0.14376100810E+04  0.00000000000E+00 0.  1.
         -2   -1    0    0    0  501 -0.00000000000E+00 -0.00000000000E+00 -0.15119640003E+04  0.15119640003E+04  0.00000000000E+00 0. -1.
    2000013    1    1    2    0    0 -0.13599344150E+03 -0.10713942883E+04  0.28655340493E+03  0.14666263297E+04  0.95000000000E+03 0.  0.
   -2000013    1    1    2    0    0  0.13599344150E+03  0.10713942883E+04 -0.36090732417E+03  0.14829477515E+04  0.95000000000E+03 0.  0.
<mgrwt>
<rscale>  0 0.29486368E+04</rscale>
<asrwt>0</asrwt>
<pdfrwt beam="1">  1        2 0.22117078E+00 0.29486368E+04</pdfrwt>
<pdfrwt beam="2">  1       -2 0.23260985E+00 0.29486368E+04</pdfrwt>
<totfact> 0.97491230E-01</totfact>
</mgrwt>
</event>
<event>
 4    1  0.1343107E-008  0.4237000E+04  0.7816531E-02  0.7958371E-01
          1   -1    0    0  501    0  0.00000000000E+00  0.00000000000E+00  0.27656740968E+04  0.27656740968E+04  0.00000000000E+00 0. -1.
         -1   -1    0    0    0  501 -0.00000000000E+00 -0.00000000000E+00 -0.16227663368E+04  0.16227663368E+04  0.00000000000E+00 0.  1.
    2000013    1    1    2    0    0  0.14830577602E+04  0.11325541763E+04  0.23839622466E+03  0.21074800218E+04  0.95000000000E+03 0.  0.
   -2000013    1    1    2    0    0 -0.14830577602E+04 -0.11325541763E+04  0.90451153535E+03  0.22809604117E+04  0.95000000000E+03 0.  0.
<mgrwt>
<rscale>  0 0.42370003E+04</rscale>
<asrwt>0</asrwt>
<pdfrwt beam="1">  1        1 0.42548832E+00 0.42370003E+04</pdfrwt>
<pdfrwt beam="2">  1       -1 0.24965636E+00 0.42370003E+04</pdfrwt>
<totfact> 0.47427060E-02</totfact>
</mgrwt>
</event>
<event>
 4    1  0.1343107E-008  0.2164371E+04  0.7816531E-02  0.8533406E-01
         -2   -1    0    0    0  501 -0.00000000000E+00  0.00000000000E+00  0.53419695659E+03  0.53419695659E+03  0.00000000000E+00 0. -1.
          2   -1    0    0  501    0  0.00000000000E+00 -0.00000000000E+00 -0.21923111660E+04  0.21923111660E+04  0.00000000000E+00 0.  1.
    2000013    1    1    2    0    0  0.29794236113E+03  0.30987330508E+03 -0.46431385790E+03  0.11414370217E+04  0.95000000000E+03 0.  0.
   -2000013    1    1    2    0    0 -0.29794236113E+03 -0.30987330508E+03 -0.11938003515E+04  0.15850711009E+04  0.95000000000E+03 0.  0.
<mgrwt>
<rscale>  0 0.21643715E+04</rscale>
<asrwt>0</asrwt>
<pdfrwt beam="2">  1        2 0.33727864E+00 0.21643715E+04</pdfrwt>
<pdfrwt beam="1">  1       -2 0.82184147E-01 0.21643715E+04</pdfrwt>
<totfact> 0.62184016E+00</totfact>
</mgrwt>
</event>
<event>
 4    1  0.1343107E-008  0.3699825E+04  0.7816531E-02  0.8068001E-01
          2   -1    0    0  501    0  0.00000000000E+00  0.00000000000E+00  0.21769501145E+04  0.21769501145E+04  0.00000000000E+00 0.  1.
         -2   -1    0    0    0  501 -0.00000000000E+00 -0.00000000000E+00 -0.15720051624E+04  0.15720051624E+04  0.00000000000E+00 0. -1.
    2000013    1    1    2    0    0 -0.11236603467E+04  0.96658471809E+03 -0.27320754379E+03  0.17815838330E+04  0.95000000000E+03 0.  0.
   -2000013    1    1    2    0    0  0.11236603467E+04 -0.96658471809E+03  0.87815249594E+03  0.19673714439E+04  0.95000000000E+03 0.  0.
<mgrwt>
<rscale>  0 0.36998253E+04</rscale>
<asrwt>0</asrwt>
<pdfrwt beam="1">  1        2 0.33491541E+00 0.36998253E+04</pdfrwt>
<pdfrwt beam="2">  1       -2 0.24184695E+00 0.36998253E+04</pdfrwt>
<totfact> 0.31033867E-01</totfact>
</mgrwt>
</event>
<event>
 4    1  0.1343107E-008  0.3136302E+04  0.7816531E-02  0.8205845E-01
          2   -1    0    0  501    0  0.00000000000E+00  0.00000000000E+00  0.31615733984E+04  0.31615733984E+04  0.00000000000E+00 0.  1.
         -2   -1    0    0    0  501 -0.00000000000E+00 -0.00000000000E+00 -0.77780817992E+03  0.77780817992E+03  0.00000000000E+00 0. -1.
    2000013    1    1    2    0    0  0.55741157995E+03  0.54321810677E+03  0.24166558313E+04  0.27108151888E+04  0.95000000000E+03 0.  0.
   -2000013    1    1    2    0    0 -0.55741157995E+03 -0.54321810677E+03 -0.32890612812E+02  0.12285663895E+04  0.95000000000E+03 0.  0.
<mgrwt>
<rscale>  0 0.31363021E+04</rscale>
<asrwt>0</asrwt>
<pdfrwt beam="1">  1        2 0.48639590E+00 0.31363021E+04</pdfrwt>
<pdfrwt beam="2">  1       -2 0.11966280E+00 0.31363021E+04</pdfrwt>
<totfact> 0.62122299E-01</totfact>
</mgrwt>
</event>
<event>
 4    1  0.1343107E-008  0.2525347E+04  0.7816531E-02  0.8394011E-01
          2   -1    0    0  501    0  0.00000000000E+00  0.00000000000E+00  0.26586747271E+04  0.26586747271E+04  0.00000000000E+00 0.  1.
         -2   -1    0    0    0  501 -0.00000000000E+00 -0.00000000000E+00 -0.59967657232E+03  0.59967657232E+03  0.00000000000E+00 0. -1.
    2000013    1    1    2    0    0 -0.28412755820E+03  0.58093752145E+03  0.17044265283E+04  0.20556718278E+04  0.95000000000E+03 0.  0.
   -2000013    1    1    2    0    0  0.28412755820E+03 -0.58093752145E+03  0.35457162646E+03  0.12026794716E+04  0.95000000000E+03 0.  0.
<mgrwt>
<rscale>  0 0.25253475E+04</rscale>
<asrwt>0</asrwt>
<pdfrwt beam="1">  1        2 0.40902688E+00 0.25253475E+04</pdfrwt>
<pdfrwt beam="2">  1       -2 0.92257935E-01 0.25253475E+04</pdfrwt>
<totfact> 0.24952364E+00</totfact>
</mgrwt>
</event>
<event>
 4    1  0.1343107E-008  0.2952558E+04  0.7816531E-02  0.8257409E-01
          1   -1    0    0  501    0  0.00000000000E+00  0.00000000000E+00  0.23618185292E+04  0.23618185292E+04  0.00000000000E+00 0.  1.
         -1   -1    0    0    0  501 -0.00000000000E+00 -0.00000000000E+00 -0.92276370520E+03  0.92276370520E+03  0.00000000000E+00 0. -1.
    2000013    1    1    2    0    0 -0.41354473551E+03 -0.77701529313E+03 -0.68768043826E+02  0.12969198348E+04  0.95000000000E+03 0.  0.
   -2000013    1    1    2    0    0  0.41354473551E+03  0.77701529313E+03  0.15078228678E+04  0.19876623996E+04  0.95000000000E+03 0.  0.
<mgrwt>
<rscale>  0 0.29525585E+04</rscale>
<asrwt>0</asrwt>
<pdfrwt beam="1">  1        1 0.36335670E+00 0.29525585E+04</pdfrwt>
<pdfrwt beam="2">  1       -1 0.14196365E+00 0.29525585E+04</pdfrwt>
<totfact> 0.58265686E-01</totfact>
</mgrwt>
</event>
<event>
 4    1  0.1343107E-008  0.2516744E+04  0.7816531E-02  0.8397044E-01
          2   -1    0    0  501    0  0.00000000000E+00  0.00000000000E+00  0.17917740768E+04  0.17917740768E+04  0.00000000000E+00 0.  1.
         -2   -1    0    0    0  501 -0.00000000000E+00 -0.00000000000E+00 -0.88376130924E+03  0.88376130924E+03  0.00000000000E+00 0. -1.
    2000013    1    1    2    0    0 -0.80728665193E+03 -0.73984029153E+02  0.61806497119E+03  0.13934452568E+04  0.95000000000E+03 0.  0.
   -2000013    1    1    2    0    0  0.80728665193E+03  0.73984029153E+02  0.28994779634E+03  0.12820901293E+04  0.95000000000E+03 0.  0.
<mgrwt>
<rscale>  0 0.25167444E+04</rscale>
<asrwt>0</asrwt>
<pdfrwt beam="1">  1        2 0.27565755E+00 0.25167444E+04</pdfrwt>
<pdfrwt beam="2">  1       -2 0.13596328E+00 0.25167444E+04</pdfrwt>
<totfact> 0.30090945E+00</totfact>
</mgrwt>
</event>
<event>
 4    1  0.1343107E-008  0.2305458E+04  0.7816531E-02  0.8475772E-01
         -2   -1    0    0    0  501 -0.00000000000E+00  0.00000000000E+00  0.84273236860E+03  0.84273236860E+03  0.00000000000E+00 0. -1.
          2   -1    0    0  501    0  0.00000000000E+00 -0.00000000000E+00 -0.15767572160E+04  0.15767572160E+04  0.00000000000E+00 0.  1.
    2000013    1    1    2    0    0  0.15488012973E+03 -0.61642521724E+03 -0.21023664356E+03  0.11621821498E+04  0.95000000000E+03 0.  0.
   -2000013    1    1    2    0    0 -0.15488012973E+03  0.61642521724E+03 -0.52378820379E+03  0.12573074347E+04  0.95000000000E+03 0.  0.
<mgrwt>
<rscale>  0 0.23054582E+04</rscale>
<asrwt>0</asrwt>
<pdfrwt beam="2">  1        2 0.24257803E+00 0.23054582E+04</pdfrwt>
<pdfrwt beam="1">  1       -2 0.12965113E+00 0.23054582E+04</pdfrwt>
<totfact> 0.45543296E+00</totfact>
</mgrwt>
</event>
<event>
 4    1  0.1343107E-008  0.3201650E+04  0.7816531E-02  0.8188382E-01
         -2   -1    0    0    0  501 -0.00000000000E+00  0.00000000000E+00  0.14851119736E+04  0.14851119736E+04  0.00000000000E+00 0. -1.
          2   -1    0    0  501    0  0.00000000000E+00 -0.00000000000E+00 -0.17255534525E+04  0.17255534525E+04  0.00000000000E+00 0.  1.
    2000013    1    1    2    0    0  0.98152956592E+03 -0.23354154216E+03  0.68340858062E+03  0.15451502285E+04  0.95000000000E+03 0.  0.
   -2000013    1    1    2    0    0 -0.98152956592E+03  0.23354154216E+03 -0.92385005950E+03  0.16655151975E+04  0.95000000000E+03 0.  0.
<mgrwt>
<rscale>  0 0.32016496E+04</rscale>
<asrwt>0</asrwt>
<pdfrwt beam="2">  1        2 0.26546976E+00 0.32016496E+04</pdfrwt>
<pdfrwt beam="1">  1       -2 0.22847876E+00 0.32016496E+04</pdfrwt>
<totfact> 0.69843577E-01</totfact>
</mgrwt>
</event>
<event>
 4    1  0.1343107E-008  0.2103409E+04  0.7816531E-02  0.8559743E-01
         -2   -1    0    0    0  501 -0.00000000000E+00  0.00000000000E+00  0.72215595953E+03  0.72215595953E+03  0.00000000000E+00 0. -1.
          2   -1    0    0  501    0  0.00000000000E+00 -0.00000000000E+00 -0.15316395798E+04  0.15316395798E+04  0.00000000000E+00 0.  1.
    2000013    1    1    2    0    0  0.27837212331E+03 -0.34864994503E+03 -0.33258603443E+03  0.11009819678E+04  0.95000000000E+03 0.  0.
   -2000013    1    1    2    0    0 -0.27837212331E+03  0.34864994503E+03 -0.47689758583E+03  0.11528135715E+04  0.95000000000E+03 0.  0.
<mgrwt>
<rscale>  0 0.21034093E+04</rscale>
<asrwt>0</asrwt>
<pdfrwt beam="2">  1        2 0.23563686E+00 0.21034093E+04</pdfrwt>
<pdfrwt beam="1">  1       -2 0.11110092E+00 0.21034093E+04</pdfrwt>
<totfact> 0.71991542E+00</totfact>
</mgrwt>
</event>
<event>
 4    1  0.1343107E-008  0.2360142E+04  0.7816531E-02  0.8454578E-01
          2   -1    0    0  501    0  0.00000000000E+00  0.00000000000E+00  0.18020760788E+04  0.18020760788E+04  0.00000000000E+00 0.  1.
         -2   -1    0    0    0  501 -0.00000000000E+00 -0.00000000000E+00 -0.77275712728E+03  0.77275712728E+03  0.00000000000E+00 0. -1.
    2000013    1    1    2    0    0  0.55041123086E+03 -0.40195043332E+03  0.34027396563E+03  0.12177040057E+04  0.95000000000E+03 0.  0.
   -2000013    1    1    2    0    0 -0.55041123086E+03  0.40195043332E+03  0.68904498593E+03  0.13571292004E+04  0.95000000000E+03 0.  0.
<mgrwt>
<rscale>  0 0.23601416E+04</rscale>
<asrwt>0</asrwt>
<pdfrwt beam="1">  1        2 0.27724247E+00 0.23601416E+04</pdfrwt>
<pdfrwt beam="2">  1       -2 0.11888571E+00 0.23601416E+04</pdfrwt>
<totfact> 0.42197274E+00</totfact>
</mgrwt>
</event>
<event>
 4    1  0.1343107E-008  0.2174439E+04  0.7816531E-02  0.8529143E-01
         -2   -1    0    0    0  501 -0.00000000000E+00  0.00000000000E+00  0.98285660252E+03  0.98285660252E+03  0.00000000000E+00 0. -1.
          2   -1    0    0  501    0  0.00000000000E+00 -0.00000000000E+00 -0.12026644184E+04  0.12026644184E+04  0.00000000000E+00 0.  1.
    2000013    1    1    2    0    0 -0.13664936107E+02 -0.52506164316E+03 -0.17079486765E+03  0.10988845919E+04  0.95000000000E+03 0.  0.
   -2000013    1    1    2    0    0  0.13664936107E+02  0.52506164316E+03 -0.49012948189E+02  0.10866364289E+04  0.95000000000E+03 0.  0.
<mgrwt>
<rscale>  0 0.21744394E+04</rscale>
<asrwt>0</asrwt>
<pdfrwt beam="2">  1        2 0.18502530E+00 0.21744394E+04</pdfrwt>
<pdfrwt beam="1">  1       -2 0.15120871E+00 0.21744394E+04</pdfrwt>
<totfact> 0.50701726E+00</totfact>
</mgrwt>
</event>
<event>
 4    1  0.1343107E-008  0.3319947E+04  0.7816531E-02  0.8157838E-01
         -1   -1    0    0    0  501 -0.00000000000E+00  0.00000000000E+00  0.18244861095E+04  0.18244861095E+04  0.00000000000E+00 0.  1.
          1   -1    0    0  501    0  0.00000000000E+00 -0.00000000000E+00 -0.15102947539E+04  0.15102947539E+04  0.00000000000E+00 0. -1.
    2000013    1    1    2    0    0  0.12021301818E+04 -0.49340222594E+03 -0.25023946172E+03  0.16290127436E+04  0.95000000000E+03 0.  0.
   -2000013    1    1    2    0    0 -0.12021301818E+04  0.49340222594E+03  0.56443081735E+03  0.17057681197E+04  0.95000000000E+03 0.  0.
<mgrwt>
<rscale>  0 0.33199469E+04</rscale>
<asrwt>0</asrwt>
<pdfrwt beam="2">  1        1 0.23235304E+00 0.33199469E+04</pdfrwt>
<pdfrwt beam="1">  1       -1 0.28069017E+00 0.33199469E+04</pdfrwt>
<totfact> 0.23476304E-01</totfact>
</mgrwt>
</event>
<event>
 4    1  0.1343107E-008  0.2790225E+04  0.7816531E-02  0.8306310E-01
         -1   -1    0    0    0  501 -0.00000000000E+00  0.00000000000E+00  0.83370417062E+03  0.83370417062E+03  0.00000000000E+00 0. -1.
          1   -1    0    0  501    0  0.00000000000E+00 -0.00000000000E+00 -0.23345670703E+04  0.23345670703E+04  0.00000000000E+00 0.  1.
    2000013    1    1    2    0    0  0.51284647755E+03 -0.23655988606E+03 -0.17171768707E+04  0.20420990413E+04  0.95000000000E+03 0.  0.
   -2000013    1    1    2    0    0 -0.51284647755E+03  0.23655988606E+03  0.21631397098E+03  0.11261721997E+04  0.95000000000E+03 0.  0.
<mgrwt>
<rscale>  0 0.27902246E+04</rscale>
<asrwt>0</asrwt>
<pdfrwt beam="2">  1        1 0.35916416E+00 0.27902246E+04</pdfrwt>
<pdfrwt beam="1">  1       -1 0.12826218E+00 0.27902246E+04</pdfrwt>
<totfact> 0.80083637E-01</totfact>
</mgrwt>
</event>
<event>
 4    1  0.1343107E-008  0.2397060E+04  0.7816531E-02  0.8440605E-01
         -3   -1    0    0    0  501 -0.00000000000E+00  0.00000000000E+00  0.19582951757E+04  0.19582951757E+04  0.00000000000E+00 0. -1.
          3   -1    0    0  501    0  0.00000000000E+00 -0.00000000000E+00 -0.73353279119E+03  0.73353279119E+03  0.00000000000E+00 0.  1.
    2000013    1    1    2    0    0 -0.70445598900E+03  0.13264572437E+03  0.77167133424E+03  0.14183898536E+04  0.95000000000E+03 0.  0.
   -2000013    1    1    2    0    0  0.70445598900E+03 -0.13264572437E+03  0.45309105026E+03  0.12734381133E+04  0.95000000000E+03 0.  0.
<mgrwt>
<rscale>  0 0.23970596E+04</rscale>
<asrwt>0</asrwt>
<pdfrwt beam="2">  1        3 0.11285120E+00 0.23970596E+04</pdfrwt>
<pdfrwt beam="1">  1       -3 0.30127618E+00 0.23970596E+04</pdfrwt>
<totfact> 0.57579278E-02</totfact>
</mgrwt>
</event>
<event>
 4    1  0.1343107E-008  0.2304001E+04  0.7816531E-02  0.8476345E-01
         -2   -1    0    0    0  501 -0.00000000000E+00  0.00000000000E+00  0.86375705805E+03  0.86375705805E+03  0.00000000000E+00 0. -1.
          2   -1    0    0  501    0  0.00000000000E+00 -0.00000000000E+00 -0.15364327104E+04  0.15364327104E+04  0.00000000000E+00 0.  1.
    2000013    1    1    2    0    0  0.26888713695E+03 -0.40389935110E+03  0.11675658241E+03  0.10731109345E+04  0.95000000000E+03 0.  0.
   -2000013    1    1    2    0    0 -0.26888713695E+03  0.40389935110E+03 -0.78943223479E+03  0.13270788340E+04  0.95000000000E+03 0.  0.
<mgrwt>
<rscale>  0 0.23040005E+04</rscale>
<asrwt>0</asrwt>
<pdfrwt beam="2">  1        2 0.23637426E+00 0.23040005E+04</pdfrwt>
<pdfrwt beam="1">  1       -2 0.13288570E+00 0.23040005E+04</pdfrwt>
<totfact> 0.45077201E+00</totfact>
</mgrwt>
</event>
<event>
 4    1  0.1343107E-008  0.2599872E+04  0.7816531E-02  0.8368245E-01
         -2   -1    0    0    0  501 -0.00000000000E+00  0.00000000000E+00  0.47996335898E+03  0.47996335898E+03  0.00000000000E+00 0. -1.
          2   -1    0    0  501    0  0.00000000000E+00 -0.00000000000E+00 -0.35207544292E+04  0.35207544292E+04  0.00000000000E+00 0.  1.
    2000013    1    1    2    0    0  0.45594188687E+03  0.21212638868E+03 -0.39542648581E+03  0.11453133696E+04  0.95000000000E+03 0.  0.
   -2000013    1    1    2    0    0 -0.45594188687E+03 -0.21212638868E+03 -0.26453645844E+04  0.28554044185E+04  0.95000000000E+03 0.  0.
<mgrwt>
<rscale>  0 0.25998716E+04</rscale>
<asrwt>0</asrwt>
<pdfrwt beam="2">  1        2 0.54165451E+00 0.25998716E+04</pdfrwt>
<pdfrwt beam="1">  1       -2 0.73840518E-01 0.25998716E+04</pdfrwt>
<totfact> 0.11502971E+00</totfact>
</mgrwt>
</event>
<event>
 4    1  0.1343107E-008  0.2162718E+04  0.7816531E-02  0.8534108E-01
         -2   -1    0    0    0  501 -0.00000000000E+00  0.00000000000E+00  0.83513653096E+03  0.83513653096E+03  0.00000000000E+00 0. -1.
          2   -1    0    0  501    0  0.00000000000E+00 -0.00000000000E+00 -0.14001749636E+04  0.14001749636E+04  0.00000000000E+00 0.  1.
    2000013    1    1    2    0    0  0.45973054171E+03  0.20120153146E+03 -0.40911747056E+03  0.11496570497E+04  0.95000000000E+03 0.  0.
   -2000013    1    1    2    0    0 -0.45973054171E+03 -0.20120153146E+03 -0.15592096211E+03  0.10856544449E+04  0.95000000000E+03 0.  0.
<mgrwt>
<rscale>  0 0.21627180E+04</rscale>
<asrwt>0</asrwt>
<pdfrwt beam="2">  1        2 0.21541153E+00 0.21627180E+04</pdfrwt>
<pdfrwt beam="1">  1       -2 0.12848255E+00 0.21627180E+04</pdfrwt>
<totfact> 0.59355076E+00</totfact>
</mgrwt>
</event>
<event>
 4    1  0.1343107E-008  0.3158772E+04  0.7816531E-02  0.8199791E-01
          2   -1    0    0  501    0  0.00000000000E+00  0.00000000000E+00  0.20475701745E+04  0.20475701745E+04  0.00000000000E+00 0.  1.
         -2   -1    0    0    0  501 -0.00000000000E+00 -0.00000000000E+00 -0.12182539832E+04  0.12182539832E+04  0.00000000000E+00 0. -1.
    2000013    1    1    2    0    0  0.71767168900E+03  0.32621016617E+03 -0.60386548803E+03  0.13742704440E+04  0.95000000000E+03 0.  0.
   -2000013    1    1    2    0    0 -0.71767168900E+03 -0.32621016617E+03  0.14331816793E+04  0.18915537136E+04  0.95000000000E+03 0.  0.
<mgrwt>
<rscale>  0 0.31587722E+04</rscale>
<asrwt>0</asrwt>
<pdfrwt beam="1">  1        2 0.31501080E+00 0.31587722E+04</pdfrwt>
<pdfrwt beam="2">  1       -2 0.18742369E+00 0.31587722E+04</pdfrwt>
<totfact> 0.85683240E-01</totfact>
</mgrwt>
</event>
<event>
 4    1  0.1343107E-008  0.2572007E+04  0.7816531E-02  0.8377772E-01
          2   -1    0    0  501    0  0.00000000000E+00  0.00000000000E+00  0.14471581330E+04  0.14471581330E+04  0.00000000000E+00 0. -1.
         -2   -1    0    0    0  501 -0.00000000000E+00 -0.00000000000E+00 -0.11427947958E+04  0.11427947958E+04  0.00000000000E+00 0.  1.
    2000013    1    1    2    0    0  0.61115553506E+03 -0.23067200441E+03  0.72587973854E+03  0.13623957048E+04  0.95000000000E+03 0.  0.
   -2000013    1    1    2    0    0 -0.61115553506E+03  0.23067200441E+03 -0.42151640129E+03  0.12275572240E+04  0.95000000000E+03 0.  0.
<mgrwt>
<rscale>  0 0.25720068E+04</rscale>
<asrwt>0</asrwt>
<pdfrwt beam="1">  1        2 0.22263971E+00 0.25720068E+04</pdfrwt>
<pdfrwt beam="2">  1       -2 0.17581458E+00 0.25720068E+04</pdfrwt>
<totfact> 0.23385563E+00</totfact>
</mgrwt>
</event>
<event>
 4    1  0.1343107E-008  0.2441497E+04  0.7816531E-02  0.8424129E-01
          2   -1    0    0  501    0  0.00000000000E+00  0.00000000000E+00  0.23327682978E+04  0.23327682978E+04  0.00000000000E+00 0.  1.
         -2   -1    0    0    0  501 -0.00000000000E+00 -0.00000000000E+00 -0.63882323020E+03  0.63882323020E+03  0.00000000000E+00 0. -1.
    2000013    1    1    2    0    0  0.49017393968E+03  0.35647012475E+03  0.14183513246E+04  0.18115081896E+04  0.95000000000E+03 0.  0.
   -2000013    1    1    2    0    0 -0.49017393968E+03 -0.35647012475E+03  0.27559374306E+03  0.11600833385E+04  0.95000000000E+03 0.  0.
<mgrwt>
<rscale>  0 0.24414967E+04</rscale>
<asrwt>0</asrwt>
<pdfrwt beam="1">  1        2 0.35888743E+00 0.24414967E+04</pdfrwt>
<pdfrwt beam="2">  1       -2 0.98280498E-01 0.24414967E+04</pdfrwt>
<totfact> 0.33491056E+00</totfact>
</mgrwt>
</event>
<event>
 4    1  0.1343107E-008  0.2815913E+04  0.7816531E-02  0.8298345E-01
         -2   -1    0    0    0  501 -0.00000000000E+00  0.00000000000E+00  0.28835269470E+04  0.28835269470E+04  0.00000000000E+00 0. -1.
          2   -1    0    0  501    0  0.00000000000E+00 -0.00000000000E+00 -0.68747111177E+03  0.68747111177E+03  0.00000000000E+00 0.  1.
    2000013    1    1    2    0    0 -0.85123172402E+03  0.48017815452E+03  0.65025273738E+03  0.15101308323E+04  0.95000000000E+03 0.  0.
   -2000013    1    1    2    0    0  0.85123172402E+03 -0.48017815452E+03  0.15458030979E+04  0.20608672266E+04  0.95000000000E+03 0.  0.
<mgrwt>
<rscale>  0 0.28159130E+04</rscale>
<asrwt>0</asrwt>
<pdfrwt beam="2">  1        2 0.10576479E+00 0.28159130E+04</pdfrwt>
<pdfrwt beam="1">  1       -2 0.44361952E+00 0.28159130E+04</pdfrwt>
<totfact> 0.13917563E-01</totfact>
</mgrwt>
</event>
<event>
 4    1  0.1343107E-008  0.2306748E+04  0.7816531E-02  0.8475265E-01
          2   -1    0    0  501    0  0.00000000000E+00  0.00000000000E+00  0.88907956065E+03  0.88907956065E+03  0.00000000000E+00 0.  1.
         -2   -1    0    0    0  501 -0.00000000000E+00 -0.00000000000E+00 -0.14962342303E+04  0.14962342303E+04  0.00000000000E+00 0. -1.
    2000013    1    1    2    0    0  0.31405420225E+03  0.54440026414E+03 -0.49076657075E+03  0.12403038001E+04  0.95000000000E+03 0.  0.
   -2000013    1    1    2    0    0 -0.31405420225E+03 -0.54440026414E+03 -0.11638809887E+03  0.11450099908E+04  0.95000000000E+03 0.  0.
<mgrwt>
<rscale>  0 0.23067477E+04</rscale>
<asrwt>0</asrwt>
<pdfrwt beam="1">  1        2 0.13678147E+00 0.23067477E+04</pdfrwt>
<pdfrwt beam="2">  1       -2 0.23018988E+00 0.23067477E+04</pdfrwt>
<totfact> 0.23038311E+00</totfact>
</mgrwt>
</event>
<event>
 4    1  0.1343107E-008  0.2282001E+04  0.7816531E-02  0.8485052E-01
          2   -1    0    0  501    0  0.00000000000E+00  0.00000000000E+00  0.24747776676E+04  0.24747776676E+04  0.00000000000E+00 0.  1.
         -2   -1    0    0    0  501 -0.00000000000E+00 -0.00000000000E+00 -0.52606010693E+03  0.52606010693E+03  0.00000000000E+00 0. -1.
    2000013    1    1    2    0    0 -0.51819151252E+03 -0.35666314902E+03  0.10538132479E+04  0.15520159171E+04  0.95000000000E+03 0.  0.
   -2000013    1    1    2    0    0  0.51819151252E+03  0.35666314902E+03  0.89490431274E+03  0.14488218574E+04  0.95000000000E+03 0.  0.
<mgrwt>
<rscale>  0 0.22820007E+04</rscale>
<asrwt>0</asrwt>
<pdfrwt beam="1">  1        2 0.38073502E+00 0.22820007E+04</pdfrwt>
<pdfrwt beam="2">  1       -2 0.80932326E-01 0.22820007E+04</pdfrwt>
<totfact> 0.44018495E+00</totfact>
</mgrwt>
</event>
<event>
 4    1  0.1343107E-008  0.2271987E+04  0.7816531E-02  0.8489049E-01
         -2   -1    0    0    0  501 -0.00000000000E+00  0.00000000000E+00  0.36385236024E+03  0.36385236024E+03  0.00000000000E+00 0. -1.
          2   -1    0    0  501    0  0.00000000000E+00 -0.00000000000E+00 -0.35467177423E+04  0.35467177423E+04  0.00000000000E+00 0.  1.
    2000013    1    1    2    0    0 -0.26209882945E+03 -0.17370495500E+03 -0.25169137565E+04  0.27085464858E+04  0.95000000000E+03 0.  0.
   -2000013    1    1    2    0    0  0.26209882945E+03  0.17370495500E+03 -0.66595162558E+03  0.12020236168E+04  0.95000000000E+03 0.  0.
<mgrwt>
<rscale>  0 0.22719873E+04</rscale>
<asrwt>0</asrwt>
<pdfrwt beam="2">  1        2 0.54564887E+00 0.22719873E+04</pdfrwt>
<pdfrwt beam="1">  1       -2 0.55977287E-01 0.22719873E+04</pdfrwt>
<totfact> 0.20587299E+00</totfact>
</mgrwt>
</event>
<event>
 4    1  0.1343107E-008  0.2038893E+04  0.7816531E-02  0.8588650E-01
          1   -1    0    0  501    0  0.00000000000E+00  0.00000000000E+00  0.16738847379E+04  0.16738847379E+04  0.00000000000E+00 0.  1.
         -1   -1    0    0    0  501 -0.00000000000E+00 -0.00000000000E+00 -0.62087358790E+03  0.62087358790E+03  0.00000000000E+00 0. -1.
    2000013    1    1    2    0    0 -0.16364811463E+03  0.24207420715E+03  0.27136312170E+03  0.10303002334E+04  0.95000000000E+03 0.  0.
   -2000013    1    1    2    0    0  0.16364811463E+03 -0.24207420715E+03  0.78164802828E+03  0.12644580923E+04  0.95000000000E+03 0.  0.
<mgrwt>
<rscale>  0 0.20388927E+04</rscale>
<asrwt>0</asrwt>
<pdfrwt beam="1">  1        1 0.25752073E+00 0.20388927E+04</pdfrwt>
<pdfrwt beam="2">  1       -1 0.95519014E-01 0.20388927E+04</pdfrwt>
<totfact> 0.48556963E+00</totfact>
</mgrwt>
</event>
<event>
 4    1  0.1343107E-008  0.2930447E+04  0.7816531E-02  0.8263876E-01
          2   -1    0    0  501    0  0.00000000000E+00  0.00000000000E+00  0.16044418802E+04  0.16044418802E+04  0.00000000000E+00 0.  1.
         -2   -1    0    0    0  501 -0.00000000000E+00 -0.00000000000E+00 -0.13380851738E+04  0.13380851738E+04  0.00000000000E+00 0. -1.
    2000013    1    1    2    0    0  0.51678764539E+03  0.42453842408E+03 -0.76329396308E+03  0.13901151096E+04  0.95000000000E+03 0.  0.
   -2000013    1    1    2    0    0 -0.51678764539E+03 -0.42453842408E+03  0.10296506695E+04  0.15524119444E+04  0.95000000000E+03 0.  0.
<mgrwt>
<rscale>  0 0.29304470E+04</rscale>
<asrwt>0</asrwt>
<pdfrwt beam="1">  1        2 0.24683721E+00 0.29304470E+04</pdfrwt>
<pdfrwt beam="2">  1       -2 0.20585926E+00 0.29304470E+04</pdfrwt>
<totfact> 0.11626827E+00</totfact>
</mgrwt>
</event>
<event>
 4    1  0.1343107E-008  0.3696974E+04  0.7816531E-02  0.8068633E-01
         -2   -1    0    0    0  501 -0.00000000000E+00  0.00000000000E+00  0.16053406197E+04  0.16053406197E+04  0.00000000000E+00 0. -1.
          2   -1    0    0  501    0  0.00000000000E+00 -0.00000000000E+00 -0.21284600330E+04  0.21284600330E+04  0.00000000000E+00 0.  1.
    2000013    1    1    2    0    0 -0.96263389853E+03 -0.12599679434E+04 -0.27654351541E+03  0.18689996139E+04  0.95000000000E+03 0.  0.
   -2000013    1    1    2    0    0  0.96263389853E+03  0.12599679434E+04 -0.24657589792E+03  0.18648010388E+04  0.95000000000E+03 0.  0.
<mgrwt>
<rscale>  0 0.36969735E+04</rscale>
<asrwt>0</asrwt>
<pdfrwt beam="2">  1        2 0.32745539E+00 0.36969735E+04</pdfrwt>
<pdfrwt beam="1">  1       -2 0.24697548E+00 0.36969735E+04</pdfrwt>
<totfact> 0.30725248E-01</totfact>
</mgrwt>
</event>
<event>
 4    1  0.1343107E-008  0.3490964E+04  0.7816531E-02  0.8115935E-01
         -2   -1    0    0    0  501 -0.00000000000E+00  0.00000000000E+00  0.76314350368E+03  0.76314350368E+03  0.00000000000E+00 0. -1.
          2   -1    0    0  501    0  0.00000000000E+00 -0.00000000000E+00 -0.39923128339E+04  0.39923128339E+04  0.00000000000E+00 0.  1.
    2000013    1    1    2    0    0  0.88489689342E+03 -0.21124171772E+02 -0.25558615019E+02  0.12987078137E+04  0.95000000000E+03 0.  0.
   -2000013    1    1    2    0    0 -0.88489689342E+03  0.21124171772E+02 -0.32036107152E+04  0.34567485239E+04  0.95000000000E+03 0.  0.
<mgrwt>
<rscale>  0 0.34909641E+04</rscale>
<asrwt>0</asrwt>
<pdfrwt beam="2">  1        2 0.61420199E+00 0.34909641E+04</pdfrwt>
<pdfrwt beam="1">  1       -2 0.11740669E+00 0.34909641E+04</pdfrwt>
<totfact> 0.15953811E-01</totfact>
</mgrwt>
</event>
<event>
 4    1  0.1343107E-008  0.2804830E+04  0.7816531E-02  0.8301770E-01
         -2   -1    0    0    0  501 -0.00000000000E+00  0.00000000000E+00  0.12206960009E+04  0.12206960009E+04  0.00000000000E+00 0. -1.
          2   -1    0    0  501    0  0.00000000000E+00 -0.00000000000E+00 -0.16111857793E+04  0.16111857793E+04  0.00000000000E+00 0.  1.
    2000013    1    1    2    0    0 -0.48836309245E+02 -0.95949166390E+03 -0.57471389370E+03  0.14682660855E+04  0.95000000000E+03 0.  0.
   -2000013    1    1    2    0    0  0.48836309245E+02  0.95949166390E+03  0.18422411530E+03  0.13636156947E+04  0.95000000000E+03 0.  0.
<mgrwt>
<rscale>  0 0.28048301E+04</rscale>
<asrwt>0</asrwt>
<pdfrwt beam="2">  1        2 0.24787474E+00 0.28048301E+04</pdfrwt>
<pdfrwt beam="1">  1       -2 0.18779938E+00 0.28048301E+04</pdfrwt>
<totfact> 0.15336713E+00</totfact>
</mgrwt>
</event>
<event>
 4    1  0.1343107E-008  0.2197313E+04  0.7816531E-02  0.8519547E-01
         -2   -1    0    0    0  501 -0.00000000000E+00  0.00000000000E+00  0.27159823393E+03  0.27159823393E+03  0.00000000000E+00 0. -1.
          2   -1    0    0  501    0  0.00000000000E+00 -0.00000000000E+00 -0.44442333154E+04  0.44442333154E+04  0.00000000000E+00 0.  1.
    2000013    1    1    2    0    0  0.38335115864E+03  0.28211371040E+03 -0.26857120435E+04  0.28882685881E+04  0.95000000000E+03 0.  0.
   -2000013    1    1    2    0    0 -0.38335115864E+03 -0.28211371040E+03 -0.14869230379E+04  0.18275629612E+04  0.95000000000E+03 0.  0.
<mgrwt>
<rscale>  0 0.21973128E+04</rscale>
<asrwt>0</asrwt>
<pdfrwt beam="2">  1        2 0.68372814E+00 0.21973128E+04</pdfrwt>
<pdfrwt beam="1">  1       -2 0.41784347E-01 0.21973128E+04</pdfrwt>
<totfact> 0.69924001E-01</totfact>
</mgrwt>
</event>
<event>
 4    1  0.1343107E-008  0.2862267E+04  0.7816531E-02  0.8284193E-01
         -2   -1    0    0    0  501 -0.00000000000E+00  0.00000000000E+00  0.26948879411E+04  0.26948879411E+04  0.00000000000E+00 0. -1.
          2   -1    0    0  501    0  0.00000000000E+00 -0.00000000000E+00 -0.76001043933E+03  0.76001043933E+03  0.00000000000E+00 0.  1.
    2000013    1    1    2    0    0 -0.95047354951E+03 -0.12888804274E+03  0.15407948133E+04  0.20485508909E+04  0.95000000000E+03 0.  0.
   -2000013    1    1    2    0    0  0.95047354951E+03  0.12888804274E+03  0.39408268840E+03  0.14063474895E+04  0.95000000000E+03 0.  0.
<mgrwt>
<rscale>  0 0.28622669E+04</rscale>
<asrwt>0</asrwt>
<pdfrwt beam="2">  1        2 0.11692468E+00 0.28622669E+04</pdfrwt>
<pdfrwt beam="1">  1       -2 0.41459814E+00 0.28622669E+04</pdfrwt>
<totfact> 0.18978550E-01</totfact>
</mgrwt>
</event>
<event>
 4    1  0.1343107E-008  0.2186352E+04  0.7816531E-02  0.8524130E-01
          2   -1    0    0  501    0  0.00000000000E+00  0.00000000000E+00  0.35524183867E+04  0.35524183867E+04  0.00000000000E+00 0.  1.
         -2   -1    0    0    0  501 -0.00000000000E+00 -0.00000000000E+00 -0.33640015302E+03  0.33640015302E+03  0.00000000000E+00 0. -1.
    2000013    1    1    2    0    0  0.36912908179E+03 -0.37789350009E+03  0.14015420240E+04  0.17736628263E+04  0.95000000000E+03 0.  0.
   -2000013    1    1    2    0    0 -0.36912908179E+03  0.37789350009E+03  0.18144762097E+04  0.21151557134E+04  0.95000000000E+03 0.  0.
<mgrwt>
<rscale>  0 0.21863523E+04</rscale>
<asrwt>0</asrwt>
<pdfrwt beam="1">  1        2 0.54652588E+00 0.21863523E+04</pdfrwt>
<pdfrwt beam="2">  1       -2 0.51753872E-01 0.21863523E+04</pdfrwt>
<totfact> 0.24186216E+00</totfact>
</mgrwt>
</event>
<event>
 4    1  0.1343107E-008  0.2691639E+04  0.7816531E-02  0.8337723E-01
         -2   -1    0    0    0  501 -0.00000000000E+00  0.00000000000E+00  0.55366024582E+03  0.55366024582E+03  0.00000000000E+00 0. -1.
          2   -1    0    0  501    0  0.00000000000E+00 -0.00000000000E+00 -0.32713758060E+04  0.32713758060E+04  0.00000000000E+00 0.  1.
    2000013    1    1    2    0    0  0.16111445115E+03  0.71246644755E+03 -0.22292790082E+04  0.25309585540E+04  0.95000000000E+03 0.  0.
   -2000013    1    1    2    0    0 -0.16111445115E+03 -0.71246644755E+03 -0.48843655194E+03  0.12940774979E+04  0.95000000000E+03 0.  0.
<mgrwt>
<rscale>  0 0.26916395E+04</rscale>
<asrwt>0</asrwt>
<pdfrwt beam="2">  1        2 0.50328860E+00 0.26916395E+04</pdfrwt>
<pdfrwt beam="1">  1       -2 0.85178497E-01 0.26916395E+04</pdfrwt>
<totfact> 0.12250854E+00</totfact>
</mgrwt>
</event>
<event>
 4    1  0.1343107E-008  0.2266694E+04  0.7816531E-02  0.8491170E-01
          2   -1    0    0  501    0  0.00000000000E+00  0.00000000000E+00  0.18882340702E+04  0.18882340702E+04  0.00000000000E+00 0.  1.
         -2   -1    0    0    0  501 -0.00000000000E+00 -0.00000000000E+00 -0.68025243313E+03  0.68025243313E+03  0.00000000000E+00 0. -1.
    2000013    1    1    2    0    0  0.22246047420E+02 -0.58227067725E+03  0.83743399485E+03  0.13940336165E+04  0.95000000000E+03 0.  0.
   -2000013    1    1    2    0    0 -0.22246047420E+02  0.58227067725E+03  0.37054764221E+03  0.11744528868E+04  0.95000000000E+03 0.  0.
<mgrwt>
<rscale>  0 0.22666944E+04</rscale>
<asrwt>0</asrwt>
<pdfrwt beam="1">  1        2 0.29049755E+00 0.22666944E+04</pdfrwt>
<pdfrwt beam="2">  1       -2 0.10465422E+00 0.22666944E+04</pdfrwt>
<totfact> 0.51921277E+00</totfact>
</mgrwt>
</event>
<event>
 4    1  0.1343107E-008  0.2476773E+04  0.7816531E-02  0.8411307E-01
          2   -1    0    0  501    0  0.00000000000E+00  0.00000000000E+00  0.17471830369E+04  0.17471830369E+04  0.00000000000E+00 0.  1.
         -2   -1    0    0    0  501 -0.00000000000E+00 -0.00000000000E+00 -0.87775663332E+03  0.87775663332E+03  0.00000000000E+00 0. -1.
    2000013    1    1    2    0    0 -0.13665533158E+03  0.77859553576E+03  0.51827004345E+03  0.13401453376E+04  0.95000000000E+03 0.  0.
   -2000013    1    1    2    0    0  0.13665533158E+03 -0.77859553576E+03  0.35115636018E+03  0.12847943327E+04  0.95000000000E+03 0.  0.
<mgrwt>
<rscale>  0 0.24767733E+04</rscale>
<asrwt>0</asrwt>
<pdfrwt beam="1">  1        2 0.26879739E+00 0.24767733E+04</pdfrwt>
<pdfrwt beam="2">  1       -2 0.13503948E+00 0.24767733E+04</pdfrwt>
<totfact> 0.32525103E+00</totfact>
</mgrwt>
</event>
<event>
 4    1  0.1343107E-008  0.3062281E+04  0.7816531E-02  0.8226166E-01
         -1   -1    0    0    0  501 -0.00000000000E+00  0.00000000000E+00  0.92173776450E+03  0.92173776450E+03  0.00000000000E+00 0.  1.
          1   -1    0    0  501    0  0.00000000000E+00 -0.00000000000E+00 -0.25434469529E+04  0.25434469529E+04  0.00000000000E+00 0. -1.
    2000013    1    1    2    0    0  0.62176116826E+03 -0.26278869734E+03 -0.19346158281E+04  0.22585135049E+04  0.95000000000E+03 0.  0.
   -2000013    1    1    2    0    0 -0.62176116826E+03  0.26278869734E+03  0.31290663967E+03  0.12066712124E+04  0.95000000000E+03 0.  0.
<mgrwt>
<rscale>  0 0.30622809E+04</rscale>
<asrwt>0</asrwt>
<pdfrwt beam="2">  1        1 0.39129953E+00 0.30622809E+04</pdfrwt>
<pdfrwt beam="1">  1       -1 0.14180581E+00 0.30622809E+04</pdfrwt>
<totfact> 0.43337980E-01</totfact>
</mgrwt>
</event>
<event>
 4    1  0.1343107E-008  0.2046323E+04  0.7816531E-02  0.8585264E-01
          2   -1    0    0  501    0  0.00000000000E+00  0.00000000000E+00  0.90583016266E+03  0.90583016266E+03  0.00000000000E+00 0.  1.
         -2   -1    0    0    0  501 -0.00000000000E+00 -0.00000000000E+00 -0.11556905577E+04  0.11556905577E+04  0.00000000000E+00 0. -1.
    2000013    1    1    2    0    0 -0.20137117268E+03 -0.32049384504E+03 -0.91628498216E+02  0.10267241283E+04  0.95000000000E+03 0.  0.
   -2000013    1    1    2    0    0  0.20137117268E+03  0.32049384504E+03 -0.15823189687E+03  0.10347965921E+04  0.95000000000E+03 0.  0.
<mgrwt>
<rscale>  0 0.20463229E+04</rscale>
<asrwt>0</asrwt>
<pdfrwt beam="1">  1        2 0.13935849E+00 0.20463229E+04</pdfrwt>
<pdfrwt beam="2">  1       -2 0.17779855E+00 0.20463229E+04</pdfrwt>
<totfact> 0.50495179E+00</totfact>
</mgrwt>
</event>
<event>
 4    1  0.1343107E-008  0.2235036E+04  0.7816531E-02  0.8503985E-01
         -2   -1    0    0    0  501 -0.00000000000E+00  0.00000000000E+00  0.12179192019E+04  0.12179192019E+04  0.00000000000E+00 0. -1.
          2   -1    0    0  501    0  0.00000000000E+00 -0.00000000000E+00 -0.10253933983E+04  0.10253933983E+04  0.00000000000E+00 0.  1.
    2000013    1    1    2    0    0 -0.41817570925E+03 -0.14816453049E+03 -0.29185064901E+03  0.10883475792E+04  0.95000000000E+03 0.  0.
   -2000013    1    1    2    0    0  0.41817570925E+03  0.14816453049E+03  0.48437645255E+03  0.11549650210E+04  0.95000000000E+03 0.  0.
<mgrwt>
<rscale>  0 0.22350358E+04</rscale>
<asrwt>0</asrwt>
<pdfrwt beam="2">  1        2 0.15775283E+00 0.22350358E+04</pdfrwt>
<pdfrwt beam="1">  1       -2 0.18737218E+00 0.22350358E+04</pdfrwt>
<totfact> 0.35697369E+00</totfact>
</mgrwt>
</event>
<event>
 4    1  0.1343107E-008  0.2380728E+04  0.7816531E-02  0.8446754E-01
          2   -1    0    0  501    0  0.00000000000E+00  0.00000000000E+00  0.20748784583E+04  0.20748784583E+04  0.00000000000E+00 0.  1.
         -2   -1    0    0    0  501 -0.00000000000E+00 -0.00000000000E+00 -0.68291545312E+03  0.68291545312E+03  0.00000000000E+00 0. -1.
    2000013    1    1    2    0    0 -0.62071718992E+03 -0.33371598878E+03  0.85057403131E+03  0.14569256583E+04  0.95000000000E+03 0.  0.
   -2000013    1    1    2    0    0  0.62071718992E+03  0.33371598878E+03  0.54138897389E+03  0.13008682532E+04  0.95000000000E+03 0.  0.
<mgrwt>
<rscale>  0 0.23807281E+04</rscale>
<asrwt>0</asrwt>
<pdfrwt beam="1">  1        2 0.31921207E+00 0.23807281E+04</pdfrwt>
<pdfrwt beam="2">  1       -2 0.10506392E+00 0.23807281E+04</pdfrwt>
<totfact> 0.40117584E+00</totfact>
</mgrwt>
</event>
<event>
 4    1  0.1343107E-008  0.2621340E+04  0.7816531E-02  0.8360989E-01
         -2   -1    0    0    0  501 -0.00000000000E+00  0.00000000000E+00  0.47555794133E+03  0.47555794133E+03  0.00000000000E+00 0. -1.
          2   -1    0    0  501    0  0.00000000000E+00 -0.00000000000E+00 -0.36122944471E+04  0.36122944471E+04  0.00000000000E+00 0.  1.
    2000013    1    1    2    0    0 -0.57107388951E+03  0.69325855428E+03 -0.17131749105E+04  0.21550408544E+04  0.95000000000E+03 0.  0.
   -2000013    1    1    2    0    0  0.57107388951E+03 -0.69325855428E+03 -0.14235615953E+04  0.19328115340E+04  0.95000000000E+03 0.  0.
<mgrwt>
<rscale>  0 0.26213396E+04</rscale>
<asrwt>0</asrwt>
<pdfrwt beam="2">  1        2 0.55573761E+00 0.26213396E+04</pdfrwt>
<pdfrwt beam="1">  1       -2 0.73162760E-01 0.26213396E+04</pdfrwt>
<totfact> 0.10085110E+00</totfact>
</mgrwt>
</event>
<event>
 4    1  0.1343107E-008  0.2543816E+04  0.7816531E-02  0.8387540E-01
          2   -1    0    0  501    0  0.00000000000E+00  0.00000000000E+00  0.16967063712E+04  0.16967063712E+04  0.00000000000E+00 0.  1.
         -2   -1    0    0    0  501 -0.00000000000E+00 -0.00000000000E+00 -0.95346475487E+03  0.95346475487E+03  0.00000000000E+00 0. -1.
    2000013    1    1    2    0    0 -0.65195203946E+03  0.52111821559E+03  0.22936873880E+03  0.12851909098E+04  0.95000000000E+03 0.  0.
   -2000013    1    1    2    0    0  0.65195203946E+03 -0.52111821559E+03  0.51387287749E+03  0.13649802162E+04  0.95000000000E+03 0.  0.
<mgrwt>
<rscale>  0 0.25438158E+04</rscale>
<asrwt>0</asrwt>
<pdfrwt beam="1">  1        2 0.26103175E+00 0.25438158E+04</pdfrwt>
<pdfrwt beam="2">  1       -2 0.14668689E+00 0.25438158E+04</pdfrwt>
<totfact> 0.27822660E+00</totfact>
</mgrwt>
</event>
<event>
 4    1  0.1343107E-008  0.2527751E+04  0.7816531E-02  0.8393165E-01
          2   -1    0    0  501    0  0.00000000000E+00  0.00000000000E+00  0.13701192709E+04  0.13701192709E+04  0.00000000000E+00 0.  1.
         -2   -1    0    0    0  501 -0.00000000000E+00 -0.00000000000E+00 -0.11658698056E+04  0.11658698056E+04  0.00000000000E+00 0. -1.
    2000013    1    1    2    0    0  0.78615284133E+03  0.27557250845E+03  0.71956965903E+02  0.12655648155E+04  0.95000000000E+03 0.  0.
   -2000013    1    1    2    0    0 -0.78615284133E+03 -0.27557250845E+03  0.13229249940E+03  0.12704242609E+04  0.95000000000E+03 0.  0.
<mgrwt>
<rscale>  0 0.25277505E+04</rscale>
<asrwt>0</asrwt>
<pdfrwt beam="1">  1        2 0.21078758E+00 0.25277505E+04</pdfrwt>
<pdfrwt beam="2">  1       -2 0.17936458E+00 0.25277505E+04</pdfrwt>
<totfact> 0.24539990E+00</totfact>
</mgrwt>
</event>
<event>
 4    1  0.1343107E-008  0.2440327E+04  0.7816531E-02  0.8424558E-01
         -1   -1    0    0    0  501 -0.00000000000E+00  0.00000000000E+00  0.16766204114E+04  0.16766204114E+04  0.00000000000E+00 0. -1.
          1   -1    0    0  501    0  0.00000000000E+00 -0.00000000000E+00 -0.88797590574E+03  0.88797590574E+03  0.00000000000E+00 0.  1.
    2000013    1    1    2    0    0  0.41422078842E+03  0.64323495992E+03  0.42702696690E+03  0.12923552552E+04  0.95000000000E+03 0.  0.
   -2000013    1    1    2    0    0 -0.41422078842E+03 -0.64323495992E+03  0.36161753872E+03  0.12722410619E+04  0.95000000000E+03 0.  0.
<mgrwt>
<rscale>  0 0.24403266E+04</rscale>
<asrwt>0</asrwt>
<pdfrwt beam="2">  1        1 0.13661168E+00 0.24403266E+04</pdfrwt>
<pdfrwt beam="1">  1       -1 0.25794160E+00 0.24403266E+04</pdfrwt>
<totfact> 0.10287033E+00</totfact>
</mgrwt>
</event>
<event>
 4    1  0.1343107E-008  0.2290348E+04  0.7816531E-02  0.8481737E-01
          2   -1    0    0  501    0  0.00000000000E+00  0.00000000000E+00  0.17634928207E+04  0.17634928207E+04  0.00000000000E+00 0.  1.
         -2   -1    0    0    0  501 -0.00000000000E+00 -0.00000000000E+00 -0.74365095857E+03  0.74365095857E+03  0.00000000000E+00 0. -1.
    2000013    1    1    2    0    0 -0.24316304573E+03  0.93245022144E+02 -0.12939986145E+03  0.99351256917E+03  0.95000000000E+03 0.  0.
   -2000013    1    1    2    0    0  0.24316304573E+03 -0.93245022144E+02  0.11492417236E+04  0.15136312101E+04  0.95000000000E+03 0.  0.
<mgrwt>
<rscale>  0 0.22903477E+04</rscale>
<asrwt>0</asrwt>
<pdfrwt beam="1">  1        2 0.27130659E+00 0.22903477E+04</pdfrwt>
<pdfrwt beam="2">  1       -2 0.11440784E+00 0.22903477E+04</pdfrwt>
<totfact> 0.48988176E+00</totfact>
</mgrwt>
</event>
<event>
 4    1  0.1343107E-008  0.2982861E+04  0.7816531E-02  0.8248642E-01
         -2   -1    0    0    0  501 -0.00000000000E+00  0.00000000000E+00  0.19338389882E+04  0.19338389882E+04  0.00000000000E+00 0. -1.
          2   -1    0    0  501    0  0.00000000000E+00 -0.00000000000E+00 -0.11502327509E+04  0.11502327509E+04  0.00000000000E+00 0.  1.
    2000013    1    1    2    0    0  0.87457883494E+03  0.30150696331E+03  0.10976608793E+04  0.17213814201E+04  0.95000000000E+03 0.  0.
   -2000013    1    1    2    0    0 -0.87457883494E+03 -0.30150696331E+03 -0.31405464199E+03  0.13626903190E+04  0.95000000000E+03 0.  0.
<mgrwt>
<rscale>  0 0.29828610E+04</rscale>
<asrwt>0</asrwt>
<pdfrwt beam="2">  1        2 0.17695888E+00 0.29828610E+04</pdfrwt>
<pdfrwt beam="1">  1       -2 0.29751369E+00 0.29828610E+04</pdfrwt>
<totfact> 0.57265515E-01</totfact>
</mgrwt>
</event>
<event>
 4    1  0.1343107E-008  0.2494085E+04  0.7816531E-02  0.8405096E-01
          2   -1    0    0  501    0  0.00000000000E+00  0.00000000000E+00  0.31855162416E+04  0.31855162416E+04  0.00000000000E+00 0. -1.
         -2   -1    0    0    0  501 -0.00000000000E+00 -0.00000000000E+00 -0.48818317042E+03  0.48818317042E+03  0.00000000000E+00 0.  1.
    2000013    1    1    2    0    0 -0.76040093616E+02  0.79054408664E+03  0.11308202526E+04  0.16769008594E+04  0.95000000000E+03 0.  0.
   -2000013    1    1    2    0    0  0.76040093616E+02 -0.79054408664E+03  0.15665128187E+04  0.19967985526E+04  0.95000000000E+03 0.  0.
<mgrwt>
<rscale>  0 0.24940853E+04</rscale>
<asrwt>0</asrwt>
<pdfrwt beam="1">  1        2 0.49007941E+00 0.24940853E+04</pdfrwt>
<pdfrwt beam="2">  1       -2 0.75105105E-01 0.24940853E+04</pdfrwt>
<totfact> 0.18834160E+00</totfact>
</mgrwt>
</event>
<event>
 4    1  0.1343107E-008  0.2758511E+04  0.7816531E-02  0.8316266E-01
         -2   -1    0    0    0  501 -0.00000000000E+00  0.00000000000E+00  0.25000330165E+04  0.25000330165E+04  0.00000000000E+00 0. -1.
          2   -1    0    0  501    0  0.00000000000E+00 -0.00000000000E+00 -0.76092842697E+03  0.76092842697E+03  0.00000000000E+00 0.  1.
    2000013    1    1    2    0    0  0.54565025950E+03  0.79950848829E+03  0.57307607174E+03  0.14723668743E+04  0.95000000000E+03 0.  0.
   -2000013    1    1    2    0    0 -0.54565025950E+03 -0.79950848829E+03  0.11660285178E+04  0.17885945692E+04  0.95000000000E+03 0.  0.
<mgrwt>
<rscale>  0 0.27585113E+04</rscale>
<asrwt>0</asrwt>
<pdfrwt beam="2">  1        2 0.11706591E+00 0.27585113E+04</pdfrwt>
<pdfrwt beam="1">  1       -2 0.38462046E+00 0.27585113E+04</pdfrwt>
<totfact> 0.30025395E-01</totfact>
</mgrwt>
</event>
<event>
 4    1  0.1343107E-008  0.2059889E+04  0.7816531E-02  0.8579122E-01
         -2   -1    0    0    0  501 -0.00000000000E+00  0.00000000000E+00  0.58037191346E+03  0.58037191346E+03  0.00000000000E+00 0. -1.
          2   -1    0    0  501    0  0.00000000000E+00 -0.00000000000E+00 -0.18277680286E+04  0.18277680286E+04  0.00000000000E+00 0.  1.
    2000013    1    1    2    0    0  0.28917696564E+03  0.27070703058E+03 -0.58027535701E+03  0.11815773795E+04  0.95000000000E+03 0.  0.
   -2000013    1    1    2    0    0 -0.28917696564E+03 -0.27070703058E+03 -0.66712075810E+03  0.12265625625E+04  0.95000000000E+03 0.  0.
<mgrwt>
<rscale>  0 0.20598886E+04</rscale>
<asrwt>0</asrwt>
<pdfrwt beam="2">  1        2 0.28119508E+00 0.20598886E+04</pdfrwt>
<pdfrwt beam="1">  1       -2 0.89287988E-01 0.20598886E+04</pdfrwt>
<totfact> 0.82871997E+00</totfact>
</mgrwt>
</event>
<event>
 4    1  0.1343107E-008  0.2676997E+04  0.7816531E-02  0.8342507E-01
         -2   -1    0    0    0  501 -0.00000000000E+00  0.00000000000E+00  0.15587677597E+04  0.15587677597E+04  0.00000000000E+00 0. -1.
          2   -1    0    0  501    0  0.00000000000E+00 -0.00000000000E+00 -0.11493554943E+04  0.11493554943E+04  0.00000000000E+00 0.  1.
    2000013    1    1    2    0    0 -0.81133118076E+03 -0.45246473171E+03  0.41286298204E+02  0.13293559255E+04  0.95000000000E+03 0.  0.
   -2000013    1    1    2    0    0  0.81133118076E+03  0.45246473171E+03  0.36812596727E+03  0.13787673285E+04  0.95000000000E+03 0.  0.
<mgrwt>
<rscale>  0 0.26769970E+04</rscale>
<asrwt>0</asrwt>
<pdfrwt beam="2">  1        2 0.17682392E+00 0.26769970E+04</pdfrwt>
<pdfrwt beam="1">  1       -2 0.23981042E+00 0.26769970E+04</pdfrwt>
<totfact> 0.13265790E+00</totfact>
</mgrwt>
</event>
<event>
 4    1  0.1343107E-008  0.2300686E+04  0.7816531E-02  0.8477651E-01
          2   -1    0    0  501    0  0.00000000000E+00  0.00000000000E+00  0.10628737395E+04  0.10628737395E+04  0.00000000000E+00 0.  1.
         -2   -1    0    0    0  501 -0.00000000000E+00 -0.00000000000E+00 -0.12450109188E+04  0.12450109188E+04  0.00000000000E+00 0. -1.
    2000013    1    1    2    0    0 -0.47667414099E+03  0.41486884560E+03 -0.23800218319E+03  0.11655382598E+04  0.95000000000E+03 0.  0.
   -2000013    1    1    2    0    0  0.47667414099E+03 -0.41486884560E+03  0.55865003868E+02  0.11423463986E+04  0.95000000000E+03 0.  0.
<mgrwt>
<rscale>  0 0.23006863E+04</rscale>
<asrwt>0</asrwt>
<pdfrwt beam="1">  1        2 0.16351904E+00 0.23006863E+04</pdfrwt>
<pdfrwt beam="2">  1       -2 0.19154014E+00 0.23006863E+04</pdfrwt>
<totfact> 0.31522883E+00</totfact>
</mgrwt>
</event>
<event>
 4    1  0.1343107E-008  0.2056091E+04  0.7816531E-02  0.8580836E-01
          2   -1    0    0  501    0  0.00000000000E+00  0.00000000000E+00  0.22283225921E+04  0.22283225921E+04  0.00000000000E+00 0.  1.
         -2   -1    0    0    0  501 -0.00000000000E+00 -0.00000000000E+00 -0.47429279938E+03  0.47429279938E+03  0.00000000000E+00 0. -1.
    2000013    1    1    2    0    0  0.34990271118E+03  0.13294633016E+03  0.71999127524E+03  0.12493974830E+04  0.95000000000E+03 0.  0.
   -2000013    1    1    2    0    0 -0.34990271118E+03 -0.13294633016E+03  0.10340385175E+04  0.14532179085E+04  0.95000000000E+03 0.  0.
<mgrwt>
<rscale>  0 0.20560908E+04</rscale>
<asrwt>0</asrwt>
<pdfrwt beam="1">  1        2 0.34281885E+00 0.20560908E+04</pdfrwt>
<pdfrwt beam="2">  1       -2 0.72968124E-01 0.20560908E+04</pdfrwt>
<totfact> 0.78113681E+00</totfact>
</mgrwt>
</event>
<event>
 4    1  0.1343107E-008  0.2321336E+04  0.7816531E-02  0.8469556E-01
         -2   -1    0    0    0  501 -0.00000000000E+00  0.00000000000E+00  0.43392202116E+03  0.43392202116E+03  0.00000000000E+00 0. -1.
          2   -1    0    0  501    0  0.00000000000E+00 -0.00000000000E+00 -0.31045892153E+04  0.31045892153E+04  0.00000000000E+00 0.  1.
    2000013    1    1    2    0    0 -0.21763589723E+03 -0.58491629468E+03 -0.97733307506E+03  0.14990571687E+04  0.95000000000E+03 0.  0.
   -2000013    1    1    2    0    0  0.21763589723E+03  0.58491629468E+03 -0.16933341191E+04  0.20394540677E+04  0.95000000000E+03 0.  0.
<mgrwt>
<rscale>  0 0.23213355E+04</rscale>
<asrwt>0</asrwt>
<pdfrwt beam="2">  1        2 0.47762911E+00 0.23213355E+04</pdfrwt>
<pdfrwt beam="1">  1       -2 0.66757234E-01 0.23213355E+04</pdfrwt>
<totfact> 0.27908799E+00</totfact>
</mgrwt>
</event>
<event>
 4    1  0.1343107E-008  0.2865674E+04  0.7816531E-02  0.8283164E-01
         -2   -1    0    0    0  501 -0.00000000000E+00  0.00000000000E+00  0.17674659312E+04  0.17674659312E+04  0.00000000000E+00 0. -1.
          2   -1    0    0  501    0  0.00000000000E+00 -0.00000000000E+00 -0.11615623680E+04  0.11615623680E+04  0.00000000000E+00 0.  1.
    2000013    1    1    2    0    0  0.88072669231E+03 -0.59886479609E+03  0.17284517673E+03  0.14376000854E+04  0.95000000000E+03 0.  0.
   -2000013    1    1    2    0    0 -0.88072669231E+03  0.59886479609E+03  0.43305838647E+03  0.14914282137E+04  0.95000000000E+03 0.  0.
<mgrwt>
<rscale>  0 0.28656740E+04</rscale>
<asrwt>0</asrwt>
<pdfrwt beam="2">  1        2 0.17870190E+00 0.28656740E+04</pdfrwt>
<pdfrwt beam="1">  1       -2 0.27191784E+00 0.28656740E+04</pdfrwt>
<totfact> 0.81567942E-01</totfact>
</mgrwt>
</event>
<event>
 4    1  0.1343107E-008  0.2769611E+04  0.7816531E-02  0.8312765E-01
         -2   -1    0    0    0  501 -0.00000000000E+00  0.00000000000E+00  0.15227273594E+04  0.15227273594E+04  0.00000000000E+00 0. -1.
          2   -1    0    0  501    0  0.00000000000E+00 -0.00000000000E+00 -0.12593761118E+04  0.12593761118E+04  0.00000000000E+00 0.  1.
    2000013    1    1    2    0    0 -0.93914256490E+02  0.92570035903E+03  0.52000101186E+03  0.14278102446E+04  0.95000000000E+03 0.  0.
   -2000013    1    1    2    0    0  0.93914256490E+02 -0.92570035903E+03 -0.25664976423E+03  0.13542932267E+04  0.95000000000E+03 0.  0.
<mgrwt>
<rscale>  0 0.27696111E+04</rscale>
<asrwt>0</asrwt>
<pdfrwt beam="2">  1        2 0.19375017E+00 0.27696111E+04</pdfrwt>
<pdfrwt beam="1">  1       -2 0.23426575E+00 0.27696111E+04</pdfrwt>
<totfact> 0.12249625E+00</totfact>
</mgrwt>
</event>
<event>
 4    1  0.1343107E-008  0.3284775E+04  0.7816531E-02  0.8166780E-01
         -2   -1    0    0    0  501 -0.00000000000E+00  0.00000000000E+00  0.10753254665E+04  0.10753254665E+04  0.00000000000E+00 0. -1.
          2   -1    0    0  501    0  0.00000000000E+00 -0.00000000000E+00 -0.25084841569E+04  0.25084841569E+04  0.00000000000E+00 0.  1.
    2000013    1    1    2    0    0  0.33107206696E+03 -0.12503622384E+04 -0.33561780015E+03  0.16395590104E+04  0.95000000000E+03 0.  0.
   -2000013    1    1    2    0    0 -0.33107206696E+03  0.12503622384E+04 -0.10975408902E+04  0.19442506130E+04  0.95000000000E+03 0.  0.
<mgrwt>
<rscale>  0 0.32847751E+04</rscale>
<asrwt>0</asrwt>
<pdfrwt beam="2">  1        2 0.38592064E+00 0.32847751E+04</pdfrwt>
<pdfrwt beam="1">  1       -2 0.16543469E+00 0.32847751E+04</pdfrwt>
<totfact> 0.66142739E-01</totfact>
</mgrwt>
</event>
<event>
 4    1  0.1343107E-008  0.2070582E+04  0.7816531E-02  0.8574314E-01
          2   -1    0    0  501    0  0.00000000000E+00  0.00000000000E+00  0.14101429288E+04  0.14101429288E+04  0.00000000000E+00 0.  1.
         -2   -1    0    0    0  501 -0.00000000000E+00 -0.00000000000E+00 -0.76008445618E+03  0.76008445618E+03  0.00000000000E+00 0. -1.
    2000013    1    1    2    0    0  0.23346628021E+03 -0.33041412215E+03  0.40379718276E+03  0.11087074280E+04  0.95000000000E+03 0.  0.
   -2000013    1    1    2    0    0 -0.23346628021E+03  0.33041412215E+03  0.24626128983E+03  0.10615199569E+04  0.95000000000E+03 0.  0.
<mgrwt>
<rscale>  0 0.20705823E+04</rscale>
<asrwt>0</asrwt>
<pdfrwt beam="1">  1        2 0.21694507E+00 0.20705823E+04</pdfrwt>
<pdfrwt beam="2">  1       -2 0.11693607E+00 0.20705823E+04</pdfrwt>
<totfact> 0.74672164E+00</totfact>
</mgrwt>
</event>
<event>
 4    1  0.1343107E-008  0.2276476E+04  0.7816531E-02  0.8487254E-01
          2   -1    0    0  501    0  0.00000000000E+00  0.00000000000E+00  0.88158398484E+03  0.88158398484E+03  0.00000000000E+00 0.  1.
         -2   -1    0    0    0  501 -0.00000000000E+00 -0.00000000000E+00 -0.14696118727E+04  0.14696118727E+04  0.00000000000E+00 0. -1.
    2000013    1    1    2    0    0 -0.18194481187E+03  0.59930809800E+03 -0.32344811407E+03  0.11829593372E+04  0.95000000000E+03 0.  0.
   -2000013    1    1    2    0    0  0.18194481187E+03 -0.59930809800E+03 -0.26457977381E+03  0.11682365204E+04  0.95000000000E+03 0.  0.
<mgrwt>
<rscale>  0 0.22764765E+04</rscale>
<asrwt>0</asrwt>
<pdfrwt beam="1">  1        2 0.13562831E+00 0.22764765E+04</pdfrwt>
<pdfrwt beam="2">  1       -2 0.22609413E+00 0.22764765E+04</pdfrwt>
<totfact> 0.24792384E+00</totfact>
</mgrwt>
</event>
<event>
 4    1  0.1343107E-008  0.2983532E+04  0.7816531E-02  0.8248449E-01
          2   -1    0    0  501    0  0.00000000000E+00  0.00000000000E+00  0.18122644352E+04  0.18122644352E+04  0.00000000000E+00 0.  1.
         -2   -1    0    0    0  501 -0.00000000000E+00 -0.00000000000E+00 -0.12279477326E+04  0.12279477326E+04  0.00000000000E+00 0. -1.
    2000013    1    1    2    0    0  0.10988082782E+04  0.29021089873E+03  0.47233374772E+03  0.15547350794E+04  0.95000000000E+03 0.  0.
   -2000013    1    1    2    0    0 -0.10988082782E+04 -0.29021089873E+03  0.11198295487E+03  0.14854770884E+04  0.95000000000E+03 0.  0.
<mgrwt>
<rscale>  0 0.29835321E+04</rscale>
<asrwt>0</asrwt>
<pdfrwt beam="1">  1        2 0.27880991E+00 0.29835321E+04</pdfrwt>
<pdfrwt beam="2">  1       -2 0.18891504E+00 0.29835321E+04</pdfrwt>
<totfact> 0.11478750E+00</totfact>
</mgrwt>
</event>
<event>
 4    1  0.1343107E-008  0.2035584E+04  0.7816531E-02  0.8590162E-01
         -2   -1    0    0    0  501 -0.00000000000E+00  0.00000000000E+00  0.30788543052E+03  0.30788543052E+03  0.00000000000E+00 0. -1.
          2   -1    0    0  501    0  0.00000000000E+00 -0.00000000000E+00 -0.33645664186E+04  0.33645664186E+04  0.00000000000E+00 0.  1.
    2000013    1    1    2    0    0  0.21843760631E+03 -0.20402132675E+03 -0.11496402369E+04  0.15210234593E+04  0.95000000000E+03 0.  0.
   -2000013    1    1    2    0    0 -0.21843760631E+03  0.20402132675E+03 -0.19070407512E+04  0.21514283898E+04  0.95000000000E+03 0.  0.
<mgrwt>
<rscale>  0 0.20355844E+04</rscale>
<asrwt>0</asrwt>
<pdfrwt beam="2">  1        2 0.51762562E+00 0.20355844E+04</pdfrwt>
<pdfrwt beam="1">  1       -2 0.47366988E-01 0.20355844E+04</pdfrwt>
<totfact> 0.39607135E+00</totfact>
</mgrwt>
</event>
<event>
 4    1  0.1343107E-008  0.2226112E+04  0.7816531E-02  0.8507638E-01
         -2   -1    0    0    0  501 -0.00000000000E+00  0.00000000000E+00  0.48103065952E+03  0.48103065952E+03  0.00000000000E+00 0. -1.
          2   -1    0    0  501    0  0.00000000000E+00 -0.00000000000E+00 -0.25754986088E+04  0.25754986088E+04  0.00000000000E+00 0.  1.
    2000013    1    1    2    0    0 -0.41130279950E+03  0.14628639705E+03 -0.52291428843E+03  0.11689777825E+04  0.95000000000E+03 0.  0.
   -2000013    1    1    2    0    0  0.41130279950E+03 -0.14628639705E+03 -0.15715536608E+04  0.18875514858E+04  0.95000000000E+03 0.  0.
<mgrwt>
<rscale>  0 0.22261121E+04</rscale>
<asrwt>0</asrwt>
<pdfrwt beam="2">  1        2 0.39623055E+00 0.22261121E+04</pdfrwt>
<pdfrwt beam="1">  1       -2 0.74004717E-01 0.22261121E+04</pdfrwt>
<totfact> 0.47197839E+00</totfact>
</mgrwt>
</event>
<event>
 4    1  0.1343107E-008  0.2339509E+04  0.7816531E-02  0.8462504E-01
          2   -1    0    0  501    0  0.00000000000E+00  0.00000000000E+00  0.22061498509E+04  0.22061498509E+04  0.00000000000E+00 0.  1.
         -2   -1    0    0    0  501 -0.00000000000E+00 -0.00000000000E+00 -0.62023234639E+03  0.62023234639E+03  0.00000000000E+00 0. -1.
    2000013    1    1    2    0    0 -0.55405691169E+03 -0.12076307475E+02  0.12742361512E+04  0.16832417140E+04  0.95000000000E+03 0.  0.
   -2000013    1    1    2    0    0  0.55405691169E+03  0.12076307475E+02  0.31168135329E+03  0.11431404833E+04  0.95000000000E+03 0.  0.
<mgrwt>
<rscale>  0 0.23395089E+04</rscale>
<asrwt>0</asrwt>
<pdfrwt beam="1">  1        2 0.33940767E+00 0.23395089E+04</pdfrwt>
<pdfrwt beam="2">  1       -2 0.95420362E-01 0.23395089E+04</pdfrwt>
<totfact> 0.42697649E+00</totfact>
</mgrwt>
</event>
<event>
 4    1  0.1343107E-008  0.4313456E+04  0.7816531E-02  0.7944135E-01
         -2   -1    0    0    0  501 -0.00000000000E+00  0.00000000000E+00  0.15072766157E+04  0.15072766157E+04  0.00000000000E+00 0. -1.
          2   -1    0    0  501    0  0.00000000000E+00 -0.00000000000E+00 -0.30860137878E+04  0.30860137878E+04  0.00000000000E+00 0.  1.
    2000013    1    1    2    0    0  0.41895211058E+02  0.19355314920E+04 -0.82200057695E+03  0.23078609823E+04  0.95000000000E+03 0.  0.
   -2000013    1    1    2    0    0 -0.41895211058E+02 -0.19355314920E+04 -0.75673659516E+03  0.22854294212E+04  0.95000000000E+03 0.  0.
<mgrwt>
<rscale>  0 0.43134563E+04</rscale>
<asrwt>0</asrwt>
<pdfrwt beam="2">  1        2 0.47477135E+00 0.43134563E+04</pdfrwt>
<pdfrwt beam="1">  1       -2 0.23188871E+00 0.43134563E+04</pdfrwt>
<totfact> 0.98241130E-02</totfact>
</mgrwt>
</event>
<event>
 4    1  0.1343107E-008  0.2230334E+04  0.7816531E-02  0.8505907E-01
         -2   -1    0    0    0  501 -0.00000000000E+00  0.00000000000E+00  0.59619177491E+03  0.59619177491E+03  0.00000000000E+00 0. -1.
          2   -1    0    0  501    0  0.00000000000E+00 -0.00000000000E+00 -0.20859023659E+04  0.20859023659E+04  0.00000000000E+00 0.  1.
    2000013    1    1    2    0    0 -0.51462796946E+03 -0.21164593690E+03 -0.95815802257E+03  0.14595214098E+04  0.95000000000E+03 0.  0.
   -2000013    1    1    2    0    0  0.51462796946E+03  0.21164593690E+03 -0.53155256844E+03  0.12225727310E+04  0.95000000000E+03 0.  0.
<mgrwt>
<rscale>  0 0.22303344E+04</rscale>
<asrwt>0</asrwt>
<pdfrwt beam="2">  1        2 0.32090805E+00 0.22303344E+04</pdfrwt>
<pdfrwt beam="1">  1       -2 0.91721813E-01 0.22303344E+04</pdfrwt>
<totfact> 0.55174155E+00</totfact>
</mgrwt>
</event>
<event>
 4    1  0.1343107E-008  0.2363067E+04  0.7816531E-02  0.8453462E-01
         -2   -1    0    0    0  501 -0.00000000000E+00  0.00000000000E+00  0.14981983907E+04  0.14981983907E+04  0.00000000000E+00 0. -1.
          2   -1    0    0  501    0  0.00000000000E+00 -0.00000000000E+00 -0.93180007127E+03  0.93180007127E+03  0.00000000000E+00 0.  1.
    2000013    1    1    2    0    0 -0.60294294384E+03 -0.25884961726E+03  0.25136854305E+02  0.11548485525E+04  0.95000000000E+03 0.  0.
   -2000013    1    1    2    0    0  0.60294294384E+03  0.25884961726E+03  0.54126146513E+03  0.12751499094E+04  0.95000000000E+03 0.  0.
<mgrwt>
<rscale>  0 0.23630670E+04</rscale>
<asrwt>0</asrwt>
<pdfrwt beam="2">  1        2 0.14335386E+00 0.23630670E+04</pdfrwt>
<pdfrwt beam="1">  1       -2 0.23049206E+00 0.23630670E+04</pdfrwt>
<totfact> 0.21369391E+00</totfact>
</mgrwt>
</event>
<event>
 4    1  0.1343107E-008  0.2028725E+04  0.7816531E-02  0.8593308E-01
         -1   -1    0    0    0  501 -0.00000000000E+00  0.00000000000E+00  0.76044209358E+03  0.76044209358E+03  0.00000000000E+00 0.  1.
          1   -1    0    0  501    0  0.00000000000E+00 -0.00000000000E+00 -0.13530692474E+04  0.13530692474E+04  0.00000000000E+00 0. -1.
    2000013    1    1    2    0    0 -0.29809710283E+02 -0.29499945458E+03 -0.50077464564E+03  0.11140864162E+04  0.95000000000E+03 0.  0.
   -2000013    1    1    2    0    0  0.29809710283E+02  0.29499945458E+03 -0.91852508170E+02  0.99942492479E+03  0.95000000000E+03 0.  0.
<mgrwt>
<rscale>  0 0.20287245E+04</rscale>
<asrwt>0</asrwt>
<pdfrwt beam="2">  1        1 0.20816450E+00 0.20287245E+04</pdfrwt>
<pdfrwt beam="1">  1       -1 0.11699109E+00 0.20287245E+04</pdfrwt>
<totfact> 0.50534849E+00</totfact>
</mgrwt>
</event>
<event>
 4    1  0.1343107E-008  0.2137026E+04  0.7816531E-02  0.8545106E-01
          1   -1    0    0  501    0  0.00000000000E+00  0.00000000000E+00  0.32391875991E+04  0.32391875991E+04  0.00000000000E+00 0. -1.
         -1   -1    0    0    0  501 -0.00000000000E+00 -0.00000000000E+00 -0.35247098254E+03  0.35247098254E+03  0.00000000000E+00 0.  1.
    2000013    1    1    2    0    0  0.23818722919E+03  0.10608844395E+03  0.21388267492E+04  0.23547967592E+04  0.95000000000E+03 0.  0.
   -2000013    1    1    2    0    0 -0.23818722919E+03 -0.10608844395E+03  0.74788986735E+03  0.12368618224E+04  0.95000000000E+03 0.  0.
<mgrwt>
<rscale>  0 0.21370256E+04</rscale>
<asrwt>0</asrwt>
<pdfrwt beam="1">  1        1 0.49833653E+00 0.21370256E+04</pdfrwt>
<pdfrwt beam="2">  1       -1 0.54226307E-01 0.21370256E+04</pdfrwt>
<totfact> 0.12528993E+00</totfact>
</mgrwt>
</event>
<event>
 4    1  0.1343107E-008  0.2165686E+04  0.7816531E-02  0.8532848E-01
         -1   -1    0    0    0  501 -0.00000000000E+00  0.00000000000E+00  0.49535207863E+03  0.49535207863E+03  0.00000000000E+00 0. -1.
          1   -1    0    0  501    0  0.00000000000E+00 -0.00000000000E+00 -0.23671024671E+04  0.23671024671E+04  0.00000000000E+00 0.  1.
    2000013    1    1    2    0    0  0.17374825056E+03 -0.48611180866E+03 -0.10146927342E+04  0.14827658244E+04  0.95000000000E+03 0.  0.
   -2000013    1    1    2    0    0 -0.17374825056E+03  0.48611180866E+03 -0.85705765430E+03  0.13796887214E+04  0.95000000000E+03 0.  0.
<mgrwt>
<rscale>  0 0.21656862E+04</rscale>
<asrwt>0</asrwt>
<pdfrwt beam="2">  1        1 0.36416961E+00 0.21656862E+04</pdfrwt>
<pdfrwt beam="1">  1       -1 0.76208011E-01 0.21656862E+04</pdfrwt>
<totfact> 0.26462003E+00</totfact>
</mgrwt>
</event>
<event>
 4    1  0.1343107E-008  0.2900421E+04  0.7816531E-02  0.8272752E-01
          2   -1    0    0  501    0  0.00000000000E+00  0.00000000000E+00  0.10641995344E+04  0.10641995344E+04  0.00000000000E+00 0. -1.
         -2   -1    0    0    0  501 -0.00000000000E+00 -0.00000000000E+00 -0.19762368505E+04  0.19762368505E+04  0.00000000000E+00 0.  1.
    2000013    1    1    2    0    0  0.59858258596E+03 -0.89236124711E+03 -0.23118735357E+03  0.14527757225E+04  0.95000000000E+03 0.  0.
   -2000013    1    1    2    0    0 -0.59858258596E+03  0.89236124711E+03 -0.68084996253E+03  0.15876606624E+04  0.95000000000E+03 0.  0.
<mgrwt>
<rscale>  0 0.29004209E+04</rscale>
<asrwt>0</asrwt>
<pdfrwt beam="1">  1        2 0.16372301E+00 0.29004209E+04</pdfrwt>
<pdfrwt beam="2">  1       -2 0.30403643E+00 0.29004209E+04</pdfrwt>
<totfact> 0.59418715E-01</totfact>
</mgrwt>
</event>
<event>
 4    1  0.1343107E-008  0.2834706E+04  0.7816531E-02  0.8292574E-01
          2   -1    0    0  501    0  0.00000000000E+00  0.00000000000E+00  0.25576395910E+04  0.25576395910E+04  0.00000000000E+00 0.  1.
         -2   -1    0    0    0  501 -0.00000000000E+00 -0.00000000000E+00 -0.78544674783E+03  0.78544674783E+03  0.00000000000E+00 0. -1.
    2000013    1    1    2    0    0 -0.40657652880E+03  0.41117458964E+03 -0.15012846601E+03  0.11222332972E+04  0.95000000000E+03 0.  0.
   -2000013    1    1    2    0    0  0.40657652880E+03 -0.41117458964E+03  0.19223213092E+04  0.22208530417E+04  0.95000000000E+03 0.  0.
<mgrwt>
<rscale>  0 0.28347061E+04</rscale>
<asrwt>0</asrwt>
<pdfrwt beam="1">  1        2 0.39348301E+00 0.28347061E+04</pdfrwt>
<pdfrwt beam="2">  1       -2 0.12083796E+00 0.28347061E+04</pdfrwt>
<totfact> 0.14587511E+00</totfact>
</mgrwt>
</event>
<event>
 4    1  0.1343107E-008  0.2314194E+04  0.7816531E-02  0.8472346E-01
         -2   -1    0    0    0  501 -0.00000000000E+00  0.00000000000E+00  0.45032454718E+03  0.45032454718E+03  0.00000000000E+00 0. -1.
          2   -1    0    0  501    0  0.00000000000E+00 -0.00000000000E+00 -0.29731295859E+04  0.29731295859E+04  0.00000000000E+00 0.  1.
    2000013    1    1    2    0    0 -0.33891303688E+03  0.49590869574E+03 -0.16681124356E+04  0.20114389325E+04  0.95000000000E+03 0.  0.
   -2000013    1    1    2    0    0  0.33891303688E+03 -0.49590869574E+03 -0.85469260311E+03  0.14120152007E+04  0.95000000000E+03 0.  0.
<mgrwt>
<rscale>  0 0.23141938E+04</rscale>
<asrwt>0</asrwt>
<pdfrwt beam="2">  1        2 0.45740456E+00 0.23141938E+04</pdfrwt>
<pdfrwt beam="1">  1       -2 0.69280699E-01 0.23141938E+04</pdfrwt>
<totfact> 0.31183787E+00</totfact>
</mgrwt>
</event>
<event>
 4    1  0.1343107E-008  0.2442614E+04  0.7816531E-02  0.8423720E-01
         -2   -1    0    0    0  501 -0.00000000000E+00  0.00000000000E+00  0.53812862663E+03  0.53812862663E+03  0.00000000000E+00 0. -1.
          2   -1    0    0  501    0  0.00000000000E+00 -0.00000000000E+00 -0.27718105985E+04  0.27718105985E+04  0.00000000000E+00 0.  1.
    2000013    1    1    2    0    0  0.92201495806E+02  0.50112950522E+03 -0.18946369998E+04  0.21798580820E+04  0.95000000000E+03 0.  0.
   -2000013    1    1    2    0    0 -0.92201495806E+02 -0.50112950522E+03 -0.33904497205E+03  0.11300811431E+04  0.95000000000E+03 0.  0.
<mgrwt>
<rscale>  0 0.24426139E+04</rscale>
<asrwt>0</asrwt>
<pdfrwt beam="2">  1        2 0.42643240E+00 0.24426139E+04</pdfrwt>
<pdfrwt beam="1">  1       -2 0.82789020E-01 0.24426139E+04</pdfrwt>
<totfact> 0.27569905E+00</totfact>
</mgrwt>
</event>
<event>
 4    1  0.1343107E-008  0.2189318E+04  0.7816531E-02  0.8522887E-01
          2   -1    0    0  501    0  0.00000000000E+00  0.00000000000E+00  0.98686591418E+03  0.98686591418E+03  0.00000000000E+00 0.  1.
         -2   -1    0    0    0  501 -0.00000000000E+00 -0.00000000000E+00 -0.12142266128E+04  0.12142266128E+04  0.00000000000E+00 0. -1.
    2000013    1    1    2    0    0  0.46734222536E+02 -0.54160489425E+03 -0.12985747884E+03  0.11022172716E+04  0.95000000000E+03 0.  0.
   -2000013    1    1    2    0    0 -0.46734222536E+02  0.54160489425E+03 -0.97503219799E+02  0.10988752554E+04  0.95000000000E+03 0.  0.
<mgrwt>
<rscale>  0 0.21893185E+04</rscale>
<asrwt>0</asrwt>
<pdfrwt beam="1">  1        2 0.15182553E+00 0.21893185E+04</pdfrwt>
<pdfrwt beam="2">  1       -2 0.18680409E+00 0.21893185E+04</pdfrwt>
<totfact> 0.38266401E+00</totfact>
</mgrwt>
</event>
<event>
 4    1  0.1343107E-008  0.2041431E+04  0.7816531E-02  0.8587491E-01
         -2   -1    0    0    0  501 -0.00000000000E+00  0.00000000000E+00  0.77578456247E+03  0.77578456247E+03  0.00000000000E+00 0. -1.
          2   -1    0    0  501    0  0.00000000000E+00 -0.00000000000E+00 -0.13429767593E+04  0.13429767593E+04  0.00000000000E+00 0.  1.
    2000013    1    1    2    0    0 -0.37002990420E+03  0.31079284408E+02 -0.32342400764E+03  0.10700425882E+04  0.95000000000E+03 0.  0.
   -2000013    1    1    2    0    0  0.37002990420E+03 -0.31079284408E+02 -0.24376818915E+03  0.10487187335E+04  0.95000000000E+03 0.  0.
<mgrwt>
<rscale>  0 0.20414315E+04</rscale>
<asrwt>0</asrwt>
<pdfrwt beam="2">  1        2 0.20661181E+00 0.20414315E+04</pdfrwt>
<pdfrwt beam="1">  1       -2 0.11935147E+00 0.20414315E+04</pdfrwt>
<totfact> 0.77792649E+00</totfact>
</mgrwt>
</event>
<event>
 4    1  0.1343107E-008  0.2790686E+04  0.7816531E-02  0.8306166E-01
          2   -1    0    0  501    0  0.00000000000E+00  0.00000000000E+00  0.17096269135E+04  0.17096269135E+04  0.00000000000E+00 0.  1.
         -2   -1    0    0    0  501 -0.00000000000E+00 -0.00000000000E+00 -0.11388344120E+04  0.11388344120E+04  0.00000000000E+00 0. -1.
    2000013    1    1    2    0    0  0.82550082807E+03 -0.59433305621E+03  0.38643327342E+03  0.14444770935E+04  0.95000000000E+03 0.  0.
   -2000013    1    1    2    0    0 -0.82550082807E+03  0.59433305621E+03  0.18435922803E+03  0.14039842320E+04  0.95000000000E+03 0.  0.
<mgrwt>
<rscale>  0 0.27906859E+04</rscale>
<asrwt>0</asrwt>
<pdfrwt beam="1">  1        2 0.26301953E+00 0.27906859E+04</pdfrwt>
<pdfrwt beam="2">  1       -2 0.17520529E+00 0.27906859E+04</pdfrwt>
<totfact> 0.16521211E+00</totfact>
</mgrwt>
</event>
<event>
 4    1  0.1343107E-008  0.2484013E+04  0.7816531E-02  0.8408703E-01
          2   -1    0    0  501    0  0.00000000000E+00  0.00000000000E+00  0.20847362138E+04  0.20847362138E+04  0.00000000000E+00 0.  1.
         -2   -1    0    0    0  501 -0.00000000000E+00 -0.00000000000E+00 -0.73993999038E+03  0.73993999038E+03  0.00000000000E+00 0. -1.
    2000013    1    1    2    0    0 -0.51257270476E+03  0.52428913525E+03  0.30838849689E+03  0.12390372634E+04  0.95000000000E+03 0.  0.
   -2000013    1    1    2    0    0  0.51257270476E+03 -0.52428913525E+03  0.10364077265E+04  0.15856389408E+04  0.95000000000E+03 0.  0.
<mgrwt>
<rscale>  0 0.24840126E+04</rscale>
<asrwt>0</asrwt>
<pdfrwt beam="1">  1        2 0.32072865E+00 0.24840126E+04</pdfrwt>
<pdfrwt beam="2">  1       -2 0.11383692E+00 0.24840126E+04</pdfrwt>
<totfact> 0.32346542E+00</totfact>
</mgrwt>
</event>
<event>
 4    1  0.1343107E-008  0.2162993E+04  0.7816531E-02  0.8533991E-01
          1   -1    0    0  501    0  0.00000000000E+00  0.00000000000E+00  0.95649606634E+03  0.95649606634E+03  0.00000000000E+00 0.  1.
         -1   -1    0    0    0  501 -0.00000000000E+00 -0.00000000000E+00 -0.12228326327E+04  0.12228326327E+04  0.00000000000E+00 0. -1.
    2000013    1    1    2    0    0  0.30961533816E+03  0.38700039803E+03  0.14580394070E+02  0.10716079290E+04  0.95000000000E+03 0.  0.
   -2000013    1    1    2    0    0 -0.30961533816E+03 -0.38700039803E+03 -0.28091696046E+03  0.11077207700E+04  0.95000000000E+03 0.  0.
<mgrwt>
<rscale>  0 0.21629929E+04</rscale>
<asrwt>0</asrwt>
<pdfrwt beam="1">  1        1 0.14715324E+00 0.21629929E+04</pdfrwt>
<pdfrwt beam="2">  1       -1 0.18812810E+00 0.21629929E+04</pdfrwt>
<totfact> 0.27284710E+00</totfact>
</mgrwt>
</event>
<event>
 4    1  0.1343107E-008  0.2946798E+04  0.7816531E-02  0.8259088E-01
          1   -1    0    0  501    0  0.00000000000E+00  0.00000000000E+00  0.17704232860E+04  0.17704232860E+04  0.00000000000E+00 0.  1.
         -1   -1    0    0    0  501 -0.00000000000E+00 -0.00000000000E+00 -0.12262061595E+04  0.12262061595E+04  0.00000000000E+00 0. -1.
    2000013    1    1    2    0    0  0.12357092118E+03  0.70546342698E+03  0.11559761198E+04  0.16588336893E+04  0.95000000000E+03 0.  0.
   -2000013    1    1    2    0    0 -0.12357092118E+03 -0.70546342698E+03 -0.61175899323E+03  0.13377957562E+04  0.95000000000E+03 0.  0.
<mgrwt>
<rscale>  0 0.29467975E+04</rscale>
<asrwt>0</asrwt>
<pdfrwt beam="1">  1        1 0.27237281E+00 0.29467975E+04</pdfrwt>
<pdfrwt beam="2">  1       -1 0.18864710E+00 0.29467975E+04</pdfrwt>
<totfact> 0.65895149E-01</totfact>
</mgrwt>
</event>
<event>
 4    1  0.1343107E-008  0.2282840E+04  0.7816531E-02  0.8484718E-01
          2   -1    0    0  501    0  0.00000000000E+00  0.00000000000E+00  0.21389558252E+04  0.21389558252E+04  0.00000000000E+00 0.  1.
         -2   -1    0    0    0  501 -0.00000000000E+00 -0.00000000000E+00 -0.60910064539E+03  0.60910064539E+03  0.00000000000E+00 0. -1.
    2000013    1    1    2    0    0  0.17816006319E+03 -0.44931207294E+03  0.12564464623E+04  0.16476589634E+04  0.95000000000E+03 0.  0.
   -2000013    1    1    2    0    0 -0.17816006319E+03  0.44931207294E+03  0.27340871749E+03  0.11003975072E+04  0.95000000000E+03 0.  0.
<mgrwt>
<rscale>  0 0.22828398E+04</rscale>
<asrwt>0</asrwt>
<pdfrwt beam="1">  1        2 0.32907012E+00 0.22828398E+04</pdfrwt>
<pdfrwt beam="2">  1       -2 0.93707792E-01 0.22828398E+04</pdfrwt>
<totfact> 0.48814591E+00</totfact>
</mgrwt>
</event>
<event>
 4    1  0.1343107E-008  0.3029883E+04  0.7816531E-02  0.8235249E-01
          2   -1    0    0  501    0  0.00000000000E+00  0.00000000000E+00  0.19408110361E+04  0.19408110361E+04  0.00000000000E+00 0.  1.
         -2   -1    0    0    0  501 -0.00000000000E+00 -0.00000000000E+00 -0.11825195813E+04  0.11825195813E+04  0.00000000000E+00 0. -1.
    2000013    1    1    2    0    0  0.40403783881E+03 -0.89290408912E+03 -0.29841072040E+03  0.13971661482E+04  0.95000000000E+03 0.  0.
   -2000013    1    1    2    0    0 -0.40403783881E+03  0.89290408912E+03  0.10567021752E+04  0.17261644692E+04  0.95000000000E+03 0.  0.
<mgrwt>
<rscale>  0 0.30298825E+04</rscale>
<asrwt>0</asrwt>
<pdfrwt beam="1">  1        2 0.29858631E+00 0.30298825E+04</pdfrwt>
<pdfrwt beam="2">  1       -2 0.18192609E+00 0.30298825E+04</pdfrwt>
<totfact> 0.10824689E+00</totfact>
</mgrwt>
</event>
<event>
 4    1  0.1343107E-008  0.3489604E+04  0.7816531E-02  0.8116258E-01
          2   -1    0    0  501    0  0.00000000000E+00  0.00000000000E+00  0.34568946783E+04  0.34568946783E+04  0.00000000000E+00 0.  1.
         -2   -1    0    0    0  501 -0.00000000000E+00 -0.00000000000E+00 -0.88065558044E+03  0.88065558044E+03  0.00000000000E+00 0. -1.
    2000013    1    1    2    0    0  0.12070461008E+04  0.59574097607E+03  0.57411168718E+03  0.17446982058E+04  0.95000000000E+03 0.  0.
   -2000013    1    1    2    0    0 -0.12070461008E+04 -0.59574097607E+03  0.20021274107E+04  0.25928520530E+04  0.95000000000E+03 0.  0.
<mgrwt>
<rscale>  0 0.34896038E+04</rscale>
<asrwt>0</asrwt>
<pdfrwt beam="1">  1        2 0.53182994E+00 0.34896038E+04</pdfrwt>
<pdfrwt beam="2">  1       -2 0.13548548E+00 0.34896038E+04</pdfrwt>
<totfact> 0.27965378E-01</totfact>
</mgrwt>
</event>
<event>
 4    1  0.1343107E-008  0.2204297E+04  0.7816531E-02  0.8516642E-01
         -2   -1    0    0    0  501 -0.00000000000E+00  0.00000000000E+00  0.10349104755E+04  0.10349104755E+04  0.00000000000E+00 0. -1.
          2   -1    0    0  501    0  0.00000000000E+00 -0.00000000000E+00 -0.11737550448E+04  0.11737550448E+04  0.00000000000E+00 0.  1.
    2000013    1    1    2    0    0  0.22350250282E+03 -0.18053975237E+03  0.41078047548E+03  0.10741455069E+04  0.95000000000E+03 0.  0.
   -2000013    1    1    2    0    0 -0.22350250282E+03  0.18053975237E+03 -0.54962504476E+03  0.11345200134E+04  0.95000000000E+03 0.  0.
<mgrwt>
<rscale>  0 0.22042971E+04</rscale>
<asrwt>0</asrwt>
<pdfrwt beam="2">  1        2 0.18057770E+00 0.22042971E+04</pdfrwt>
<pdfrwt beam="1">  1       -2 0.15921700E+00 0.22042971E+04</pdfrwt>
<totfact> 0.45815562E+00</totfact>
</mgrwt>
</event>
<event>
 4    1  0.1343107E-008  0.2230275E+04  0.7816531E-02  0.8505932E-01
          2   -1    0    0  501    0  0.00000000000E+00  0.00000000000E+00  0.20890103057E+04  0.20890103057E+04  0.00000000000E+00 0.  1.
         -2   -1    0    0    0  501 -0.00000000000E+00 -0.00000000000E+00 -0.59527326950E+03  0.59527326950E+03  0.00000000000E+00 0. -1.
    2000013    1    1    2    0    0  0.10353416498E+02  0.58130557390E+03  0.68085172946E+03  0.13054050869E+04  0.95000000000E+03 0.  0.
   -2000013    1    1    2    0    0 -0.10353416498E+02 -0.58130557390E+03  0.81288530671E+03  0.13788784882E+04  0.95000000000E+03 0.  0.
<mgrwt>
<rscale>  0 0.22302753E+04</rscale>
<asrwt>0</asrwt>
<pdfrwt beam="1">  1        2 0.32138620E+00 0.22302753E+04</pdfrwt>
<pdfrwt beam="2">  1       -2 0.91580504E-01 0.22302753E+04</pdfrwt>
<totfact> 0.55151040E+00</totfact>
</mgrwt>
</event>
<event>
 4    1  0.1343107E-008  0.3013118E+04  0.7816531E-02  0.8239995E-01
         -2   -1    0    0    0  501 -0.00000000000E+00  0.00000000000E+00  0.64463713052E+03  0.64463713052E+03  0.00000000000E+00 0. -1.
          2   -1    0    0  501    0  0.00000000000E+00 -0.00000000000E+00 -0.35209260509E+04  0.35209260509E+04  0.00000000000E+00 0.  1.
    2000013    1    1    2    0    0  0.10363670195E+04 -0.39466891519E+03 -0.92569596847E+03  0.17289399000E+04  0.95000000000E+03 0.  0.
   -2000013    1    1    2    0    0 -0.10363670195E+04  0.39466891519E+03 -0.19505929520E+04  0.24366232815E+04  0.95000000000E+03 0.  0.
<mgrwt>
<rscale>  0 0.30131178E+04</rscale>
<asrwt>0</asrwt>
<pdfrwt beam="2">  1        2 0.54168092E+00 0.30131178E+04</pdfrwt>
<pdfrwt beam="1">  1       -2 0.99174945E-01 0.30131178E+04</pdfrwt>
<totfact> 0.56563161E-01</totfact>
</mgrwt>
</event>
<event>
 4    1  0.1343107E-008  0.2380639E+04  0.7816531E-02  0.8446788E-01
         -2   -1    0    0    0  501 -0.00000000000E+00  0.00000000000E+00  0.12402546028E+04  0.12402546028E+04  0.00000000000E+00 0. -1.
          2   -1    0    0  501    0  0.00000000000E+00 -0.00000000000E+00 -0.11423951535E+04  0.11423951535E+04  0.00000000000E+00 0.  1.
    2000013    1    1    2    0    0 -0.19711772733E+03 -0.56971126951E+03  0.43776073869E+03  0.12072948245E+04  0.95000000000E+03 0.  0.
   -2000013    1    1    2    0    0  0.19711772733E+03  0.56971126951E+03 -0.33990128936E+03  0.11753549317E+04  0.95000000000E+03 0.  0.
<mgrwt>
<rscale>  0 0.23806393E+04</rscale>
<asrwt>0</asrwt>
<pdfrwt beam="2">  1        2 0.17575310E+00 0.23806393E+04</pdfrwt>
<pdfrwt beam="1">  1       -2 0.19080840E+00 0.23806393E+04</pdfrwt>
<totfact> 0.28288751E+00</totfact>
</mgrwt>
</event>
<event>
 4    1  0.1343107E-008  0.2780804E+04  0.7816531E-02  0.8309253E-01
         -2   -1    0    0    0  501 -0.00000000000E+00  0.00000000000E+00  0.14674470314E+04  0.14674470314E+04  0.00000000000E+00 0. -1.
          2   -1    0    0  501    0  0.00000000000E+00 -0.00000000000E+00 -0.13174024122E+04  0.13174024122E+04  0.00000000000E+00 0.  1.
    2000013    1    1    2    0    0 -0.58263493852E+03  0.48744195453E+03  0.74954131904E+03  0.14287670627E+04  0.95000000000E+03 0.  0.
   -2000013    1    1    2    0    0  0.58263493852E+03 -0.48744195453E+03 -0.59949669983E+03  0.13560823809E+04  0.95000000000E+03 0.  0.
<mgrwt>
<rscale>  0 0.27808044E+04</rscale>
<asrwt>0</asrwt>
<pdfrwt beam="2">  1        2 0.20267729E+00 0.27808044E+04</pdfrwt>
<pdfrwt beam="1">  1       -2 0.22576108E+00 0.27808044E+04</pdfrwt>
<totfact> 0.12793939E+00</totfact>
</mgrwt>
</event>
<event>
 4    1  0.1343107E-008  0.2498587E+04  0.7816531E-02  0.8403489E-01
          2   -1    0    0  501    0  0.00000000000E+00  0.00000000000E+00  0.13675233414E+04  0.13675233414E+04  0.00000000000E+00 0.  1.
         -2   -1    0    0    0  501 -0.00000000000E+00 -0.00000000000E+00 -0.11412853295E+04  0.11412853295E+04  0.00000000000E+00 0. -1.
    2000013    1    1    2    0    0  0.18494027227E+03  0.61715461600E+03 -0.38200230944E+03  0.12097555492E+04  0.95000000000E+03 0.  0.
   -2000013    1    1    2    0    0 -0.18494027227E+03 -0.61715461600E+03  0.60824032140E+03  0.12990531217E+04  0.95000000000E+03 0.  0.
<mgrwt>
<rscale>  0 0.24985871E+04</rscale>
<asrwt>0</asrwt>
<pdfrwt beam="1">  1        2 0.21038820E+00 0.24985871E+04</pdfrwt>
<pdfrwt beam="2">  1       -2 0.17558236E+00 0.24985871E+04</pdfrwt>
<totfact> 0.26228855E+00</totfact>
</mgrwt>
</event>
<event>
 4    1  0.1343107E-008  0.2753224E+04  0.7816531E-02  0.8317939E-01
         -1   -1    0    0    0  501 -0.00000000000E+00  0.00000000000E+00  0.66783264707E+03  0.66783264707E+03  0.00000000000E+00 0. -1.
          1   -1    0    0  501    0  0.00000000000E+00 -0.00000000000E+00 -0.28376289556E+04  0.28376289556E+04  0.00000000000E+00 0.  1.
    2000013    1    1    2    0    0  0.56895376250E+03  0.27609483140E+03 -0.20650500844E+04  0.23594212407E+04  0.95000000000E+03 0.  0.
   -2000013    1    1    2    0    0 -0.56895376250E+03 -0.27609483140E+03 -0.10474622408E+03  0.11460403620E+04  0.95000000000E+03 0.  0.
<mgrwt>
<rscale>  0 0.27532245E+04</rscale>
<asrwt>0</asrwt>
<pdfrwt beam="2">  1        1 0.43655831E+00 0.27532245E+04</pdfrwt>
<pdfrwt beam="1">  1       -1 0.10274348E+00 0.27532245E+04</pdfrwt>
<totfact> 0.60935625E-01</totfact>
</mgrwt>
</event>
<event>
 4    1  0.1343107E-008  0.2921141E+04  0.7816531E-02  0.8266615E-01
          2   -1    0    0  501    0  0.00000000000E+00  0.00000000000E+00  0.40439652453E+04  0.40439652453E+04  0.00000000000E+00 0.  1.
         -2   -1    0    0    0  501 -0.00000000000E+00 -0.00000000000E+00 -0.52751858205E+03  0.52751858205E+03  0.00000000000E+00 0. -1.
    2000013    1    1    2    0    0  0.74211593511E+03 -0.53630782341E+03  0.27385519632E+04  0.30398238432E+04  0.95000000000E+03 0.  0.
   -2000013    1    1    2    0    0 -0.74211593511E+03  0.53630782341E+03  0.77789470003E+03  0.15316599841E+04  0.95000000000E+03 0.  0.
<mgrwt>
<rscale>  0 0.29211414E+04</rscale>
<asrwt>0</asrwt>
<pdfrwt beam="1">  1        2 0.62214848E+00 0.29211414E+04</pdfrwt>
<pdfrwt beam="2">  1       -2 0.81156707E-01 0.29211414E+04</pdfrwt>
<totfact> 0.36316335E-01</totfact>
</mgrwt>
</event>
<event>
 4    1  0.1343107E-008  0.2735111E+04  0.7816531E-02  0.8323702E-01
          1   -1    0    0  501    0  0.00000000000E+00  0.00000000000E+00  0.39760376913E+04  0.39760376913E+04  0.00000000000E+00 0.  1.
         -1   -1    0    0    0  501 -0.00000000000E+00 -0.00000000000E+00 -0.47036981881E+03  0.47036981881E+03  0.00000000000E+00 0. -1.
    2000013    1    1    2    0    0 -0.15772606758E+03  0.96450718637E+03  0.19350004965E+04  0.23668287953E+04  0.95000000000E+03 0.  0.
   -2000013    1    1    2    0    0  0.15772606758E+03 -0.96450718637E+03  0.15706673760E+04  0.20795787148E+04  0.95000000000E+03 0.  0.
<mgrwt>
<rscale>  0 0.27351111E+04</rscale>
<asrwt>0</asrwt>
<pdfrwt beam="1">  1        1 0.61169808E+00 0.27351111E+04</pdfrwt>
<pdfrwt beam="2">  1       -1 0.72364590E-01 0.27351111E+04</pdfrwt>
<totfact> 0.16901315E-01</totfact>
</mgrwt>
</event>
<event>
 4    1  0.1343107E-008  0.2097586E+04  0.7816531E-02  0.8562307E-01
          2   -1    0    0  501    0  0.00000000000E+00  0.00000000000E+00  0.15181763414E+04  0.15181763414E+04  0.00000000000E+00 0.  1.
         -2   -1    0    0    0  501 -0.00000000000E+00 -0.00000000000E+00 -0.72453193329E+03  0.72453193329E+03  0.00000000000E+00 0. -1.
    2000013    1    1    2    0    0  0.36119148160E+03 -0.23009313165E+02  0.67249480344E+03  0.12189085181E+04  0.95000000000E+03 0.  0.
   -2000013    1    1    2    0    0 -0.36119148160E+03  0.23009313165E+02  0.12114960467E+03  0.10237997566E+04  0.95000000000E+03 0.  0.
<mgrwt>
<rscale>  0 0.20975865E+04</rscale>
<asrwt>0</asrwt>
<pdfrwt beam="1">  1        2 0.23356559E+00 0.20975865E+04</pdfrwt>
<pdfrwt beam="2">  1       -2 0.11146645E+00 0.20975865E+04</pdfrwt>
<totfact> 0.72713357E+00</totfact>
</mgrwt>
</event>
<event>
 4    1  0.1343107E-008  0.2359294E+04  0.7816531E-02  0.8454903E-01
         -2   -1    0    0    0  501 -0.00000000000E+00  0.00000000000E+00  0.34249105973E+03  0.34249105973E+03  0.00000000000E+00 0. -1.
          2   -1    0    0  501    0  0.00000000000E+00 -0.00000000000E+00 -0.40630738448E+04  0.40630738448E+04  0.00000000000E+00 0.  1.
    2000013    1    1    2    0    0  0.40800902243E+03  0.50343639057E+03 -0.13692636792E+04  0.17881002726E+04  0.95000000000E+03 0.  0.
   -2000013    1    1    2    0    0 -0.40800902243E+03 -0.50343639057E+03 -0.23513191058E+04  0.26174646319E+04  0.95000000000E+03 0.  0.
<mgrwt>
<rscale>  0 0.23592935E+04</rscale>
<asrwt>0</asrwt>
<pdfrwt beam="2">  1        2 0.62508834E+00 0.23592935E+04</pdfrwt>
<pdfrwt beam="1">  1       -2 0.52690927E-01 0.23592935E+04</pdfrwt>
<totfact> 0.93640008E-01</totfact>
</mgrwt>
</event>
<event>
 4    1  0.1343107E-008  0.2288803E+04  0.7816531E-02  0.8482349E-01
          1   -1    0    0  501    0  0.00000000000E+00  0.00000000000E+00  0.14596572844E+04  0.14596572844E+04  0.00000000000E+00 0. -1.
         -1   -1    0    0    0  501 -0.00000000000E+00 -0.00000000000E+00 -0.89723428144E+03  0.89723428144E+03  0.00000000000E+00 0.  1.
    2000013    1    1    2    0    0 -0.55714641433E+03 -0.28830273882E+03  0.16101747523E+03  0.11497639860E+04  0.95000000000E+03 0.  0.
   -2000013    1    1    2    0    0  0.55714641433E+03  0.28830273882E+03  0.40140552768E+03  0.12071275798E+04  0.95000000000E+03 0.  0.
<mgrwt>
<rscale>  0 0.22888028E+04</rscale>
<asrwt>0</asrwt>
<pdfrwt beam="1">  1        1 0.22456266E+00 0.22888028E+04</pdfrwt>
<pdfrwt beam="2">  1       -1 0.13803604E+00 0.22888028E+04</pdfrwt>
<totfact> 0.27460070E+00</totfact>
</mgrwt>
</event>
<event>
 4    1  0.1343107E-008  0.2380129E+04  0.7816531E-02  0.8446981E-01
         -2   -1    0    0    0  501 -0.00000000000E+00  0.00000000000E+00  0.63148536598E+03  0.63148536598E+03  0.00000000000E+00 0. -1.
          2   -1    0    0  501    0  0.00000000000E+00 -0.00000000000E+00 -0.22427336251E+04  0.22427336251E+04  0.00000000000E+00 0.  1.
    2000013    1    1    2    0    0  0.31870695277E+03 -0.59107834771E+03 -0.11082590211E+04  0.16067625191E+04  0.95000000000E+03 0.  0.
   -2000013    1    1    2    0    0 -0.31870695277E+03  0.59107834771E+03 -0.50298923801E+03  0.12674564720E+04  0.95000000000E+03 0.  0.
<mgrwt>
<rscale>  0 0.23801290E+04</rscale>
<asrwt>0</asrwt>
<pdfrwt beam="2">  1        2 0.34503594E+00 0.23801290E+04</pdfrwt>
<pdfrwt beam="1">  1       -2 0.97151597E-01 0.23801290E+04</pdfrwt>
<totfact> 0.38904427E+00</totfact>
</mgrwt>
</event>
<event>
 4    1  0.1343107E-008  0.2242207E+04  0.7816531E-02  0.8501063E-01
         -2   -1    0    0    0  501 -0.00000000000E+00  0.00000000000E+00  0.78215125476E+03  0.78215125476E+03  0.00000000000E+00 0. -1.
          2   -1    0    0  501    0  0.00000000000E+00 -0.00000000000E+00 -0.16069431869E+04  0.16069431869E+04  0.00000000000E+00 0.  1.
    2000013    1    1    2    0    0 -0.43556019026E+03  0.31222854561E+03 -0.68855292044E+03  0.12898854477E+04  0.95000000000E+03 0.  0.
   -2000013    1    1    2    0    0  0.43556019026E+03 -0.31222854561E+03 -0.13623901171E+03  0.10992089939E+04  0.95000000000E+03 0.  0.
<mgrwt>
<rscale>  0 0.22422066E+04</rscale>
<asrwt>0</asrwt>
<pdfrwt beam="2">  1        2 0.24722202E+00 0.22422066E+04</pdfrwt>
<pdfrwt beam="1">  1       -2 0.12033096E+00 0.22422066E+04</pdfrwt>
<totfact> 0.53101923E+00</totfact>
</mgrwt>
</event>
<event>
 4    1  0.1343107E-008  0.2960646E+04  0.7816531E-02  0.8255059E-01
         -2   -1    0    0    0  501 -0.00000000000E+00  0.00000000000E+00  0.12800906200E+04  0.12800906200E+04  0.00000000000E+00 0. -1.
          2   -1    0    0  501    0  0.00000000000E+00 -0.00000000000E+00 -0.17118752924E+04  0.17118752924E+04  0.00000000000E+00 0.  1.
    2000013    1    1    2    0    0  0.10871159003E+04 -0.25277927815E+03 -0.42578439287E+03  0.15262734661E+04  0.95000000000E+03 0.  0.
   -2000013    1    1    2    0    0 -0.10871159003E+04  0.25277927815E+03 -0.60002794974E+01  0.14656924464E+04  0.95000000000E+03 0.  0.
<mgrwt>
<rscale>  0 0.29606455E+04</rscale>
<asrwt>0</asrwt>
<pdfrwt beam="2">  1        2 0.26336543E+00 0.29606455E+04</pdfrwt>
<pdfrwt beam="1">  1       -2 0.19693702E+00 0.29606455E+04</pdfrwt>
<totfact> 0.11558812E+00</totfact>
</mgrwt>
</event>
<event>
 4    1  0.1343107E-008  0.2603544E+04  0.7816531E-02  0.8366998E-01
          2   -1    0    0  501    0  0.00000000000E+00  0.00000000000E+00  0.11830219226E+04  0.11830219226E+04  0.00000000000E+00 0.  1.
         -2   -1    0    0    0  501 -0.00000000000E+00 -0.00000000000E+00 -0.14324420676E+04  0.14324420676E+04  0.00000000000E+00 0. -1.
    2000013    1    1    2    0    0  0.32390526682E+03 -0.82833608060E+03 -0.92079292570E+02  0.13046202054E+04  0.95000000000E+03 0.  0.
   -2000013    1    1    2    0    0 -0.32390526682E+03  0.82833608060E+03 -0.15734085244E+03  0.13108437848E+04  0.95000000000E+03 0.  0.
<mgrwt>
<rscale>  0 0.26035440E+04</rscale>
<asrwt>0</asrwt>
<pdfrwt beam="1">  1        2 0.18200337E+00 0.26035440E+04</pdfrwt>
<pdfrwt beam="2">  1       -2 0.22037570E+00 0.26035440E+04</pdfrwt>
<totfact> 0.16853844E+00</totfact>
</mgrwt>
</event>
<event>
 4    1  0.1343107E-008  0.2491622E+04  0.7816531E-02  0.8405976E-01
          2   -1    0    0  501    0  0.00000000000E+00  0.00000000000E+00  0.74494076400E+03  0.74494076400E+03  0.00000000000E+00 0.  1.
         -2   -1    0    0    0  501 -0.00000000000E+00 -0.00000000000E+00 -0.20834470318E+04  0.20834470318E+04  0.00000000000E+00 0. -1.
    2000013    1    1    2    0    0 -0.34476123398E+03 -0.65332311505E+03 -0.10350726287E+04  0.15873143192E+04  0.95000000000E+03 0.  0.
   -2000013    1    1    2    0    0  0.34476123398E+03  0.65332311505E+03 -0.30343363909E+03  0.12410734766E+04  0.95000000000E+03 0.  0.
<mgrwt>
<rscale>  0 0.24916217E+04</rscale>
<asrwt>0</asrwt>
<pdfrwt beam="1">  1        2 0.11460627E+00 0.24916217E+04</pdfrwt>
<pdfrwt beam="2">  1       -2 0.32053031E+00 0.24916217E+04</pdfrwt>
<totfact> 0.80264883E-01</totfact>
</mgrwt>
</event>
<event>
 4    1  0.1343107E-008  0.2621003E+04  0.7816531E-02  0.8361102E-01
          1   -1    0    0  501    0  0.00000000000E+00  0.00000000000E+00  0.23867964298E+04  0.23867964298E+04  0.00000000000E+00 0.  1.
         -1   -1    0    0    0  501 -0.00000000000E+00 -0.00000000000E+00 -0.71954768705E+03  0.71954768705E+03  0.00000000000E+00 0. -1.
    2000013    1    1    2    0    0 -0.62662699134E+03  0.63123927721E+03  0.65082521371E+03  0.14550594043E+04  0.95000000000E+03 0.  0.
   -2000013    1    1    2    0    0  0.62662699134E+03 -0.63123927721E+03  0.10164235290E+04  0.16512847125E+04  0.95000000000E+03 0.  0.
<mgrwt>
<rscale>  0 0.26210027E+04</rscale>
<asrwt>0</asrwt>
<pdfrwt beam="1">  1        1 0.36719945E+00 0.26210027E+04</pdfrwt>
<pdfrwt beam="2">  1       -1 0.11069965E+00 0.26210027E+04</pdfrwt>
<totfact> 0.10718588E+00</totfact>
</mgrwt>
</event>
<event>
 4    1  0.1343107E-008  0.2559046E+04  0.7816531E-02  0.8382247E-01
          2   -1    0    0  501    0  0.00000000000E+00  0.00000000000E+00  0.10925410922E+04  0.10925410922E+04  0.00000000000E+00 0.  1.
         -2   -1    0    0    0  501 -0.00000000000E+00 -0.00000000000E+00 -0.14985061241E+04  0.14985061241E+04  0.00000000000E+00 0. -1.
    2000013    1    1    2    0    0 -0.51661754495E+03 -0.55670494129E+03 -0.60527388007E+03  0.13585545809E+04  0.95000000000E+03 0.  0.
   -2000013    1    1    2    0    0  0.51661754495E+03  0.55670494129E+03  0.19930884821E+03  0.12324926354E+04  0.95000000000E+03 0.  0.
<mgrwt>
<rscale>  0 0.25590463E+04</rscale>
<asrwt>0</asrwt>
<pdfrwt beam="1">  1        2 0.16808324E+00 0.25590463E+04</pdfrwt>
<pdfrwt beam="2">  1       -2 0.23053940E+00 0.25590463E+04</pdfrwt>
<totfact> 0.16577956E+00</totfact>
</mgrwt>
</event>
<event>
 4    1  0.1343107E-008  0.2420056E+04  0.7816531E-02  0.8432033E-01
         -2   -1    0    0    0  501 -0.00000000000E+00  0.00000000000E+00  0.47300299200E+03  0.47300299200E+03  0.00000000000E+00 0. -1.
          2   -1    0    0  501    0  0.00000000000E+00 -0.00000000000E+00 -0.30954731978E+04  0.30954731978E+04  0.00000000000E+00 0.  1.
    2000013    1    1    2    0    0  0.27966320708E+03 -0.47460436149E+03 -0.56195952591E+03  0.12335960920E+04  0.95000000000E+03 0.  0.
   -2000013    1    1    2    0    0 -0.27966320708E+03  0.47460436149E+03 -0.20605106799E+04  0.23348800979E+04  0.95000000000E+03 0.  0.
<mgrwt>
<rscale>  0 0.24200563E+04</rscale>
<asrwt>0</asrwt>
<pdfrwt beam="2">  1        2 0.47622664E+00 0.24200563E+04</pdfrwt>
<pdfrwt beam="1">  1       -2 0.72769692E-01 0.24200563E+04</pdfrwt>
<totfact> 0.23230626E+00</totfact>
</mgrwt>
</event>
<event>
 4    1  0.1343107E-008  0.2031420E+04  0.7816531E-02  0.8592070E-01
         -2   -1    0    0    0  501 -0.00000000000E+00  0.00000000000E+00  0.53975455996E+03  0.53975455996E+03  0.00000000000E+00 0.  1.
          2   -1    0    0  501    0  0.00000000000E+00 -0.00000000000E+00 -0.19113620434E+04  0.19113620434E+04  0.00000000000E+00 0. -1.
    2000013    1    1    2    0    0  0.12077512259E+03  0.31416251791E+03 -0.83786279942E+03  0.13106482322E+04  0.95000000000E+03 0.  0.
   -2000013    1    1    2    0    0 -0.12077512259E+03 -0.31416251791E+03 -0.53374468401E+03  0.11404683712E+04  0.95000000000E+03 0.  0.
<mgrwt>
<rscale>  0 0.20314196E+04</rscale>
<asrwt>0</asrwt>
<pdfrwt beam="2">  1        2 0.29405570E+00 0.20314196E+04</pdfrwt>
<pdfrwt beam="1">  1       -2 0.83039164E-01 0.20314196E+04</pdfrwt>
<totfact> 0.88111714E+00</totfact>
</mgrwt>
</event>
<event>
 4    1  0.1343107E-008  0.3254467E+04  0.7816531E-02  0.8174579E-01
          2   -1    0    0  501    0  0.00000000000E+00  0.00000000000E+00  0.25465465326E+04  0.25465465326E+04  0.00000000000E+00 0.  1.
         -2   -1    0    0    0  501 -0.00000000000E+00 -0.00000000000E+00 -0.10397962247E+04  0.10397962247E+04  0.00000000000E+00 0. -1.
    2000013    1    1    2    0    0 -0.12256937769E+04  0.35678627742E+03  0.37843173102E+03  0.16356442943E+04  0.95000000000E+03 0.  0.
   -2000013    1    1    2    0    0  0.12256937769E+04 -0.35678627742E+03  0.11283185769E+04  0.19506984630E+04  0.95000000000E+03 0.  0.
<mgrwt>
<rscale>  0 0.32544674E+04</rscale>
<asrwt>0</asrwt>
<pdfrwt beam="1">  1        2 0.39177639E+00 0.32544674E+04</pdfrwt>
<pdfrwt beam="2">  1       -2 0.15996865E+00 0.32544674E+04</pdfrwt>
<totfact> 0.69085965E-01</totfact>
</mgrwt>
</event>
<event>
 4    1  0.1343107E-008  0.3276605E+04  0.7816531E-02  0.8168874E-01
         -2   -1    0    0    0  501 -0.00000000000E+00  0.00000000000E+00  0.11192191903E+04  0.11192191903E+04  0.00000000000E+00 0. -1.
          2   -1    0    0  501    0  0.00000000000E+00 -0.00000000000E+00 -0.23981313305E+04  0.23981313305E+04  0.00000000000E+00 0.  1.
    2000013    1    1    2    0    0  0.51885280111E+03  0.12059408581E+04 -0.38085566665E+03  0.16646478971E+04  0.95000000000E+03 0.  0.
   -2000013    1    1    2    0    0 -0.51885280111E+03 -0.12059408581E+04 -0.89805647353E+03  0.18527026238E+04  0.95000000000E+03 0.  0.
<mgrwt>
<rscale>  0 0.32766047E+04</rscale>
<asrwt>0</asrwt>
<pdfrwt beam="2">  1        2 0.36894328E+00 0.32766047E+04</pdfrwt>
<pdfrwt beam="1">  1       -2 0.17218757E+00 0.32766047E+04</pdfrwt>
<totfact> 0.68576547E-01</totfact>
</mgrwt>
</event>
<event>
 4    1  0.1343107E-008  0.3155335E+04  0.7816531E-02  0.8200714E-01
          2   -1    0    0  501    0  0.00000000000E+00  0.00000000000E+00  0.26823651212E+04  0.26823651212E+04  0.00000000000E+00 0.  1.
         -2   -1    0    0    0  501 -0.00000000000E+00 -0.00000000000E+00 -0.92792520078E+03  0.92792520078E+03  0.00000000000E+00 0. -1.
    2000013    1    1    2    0    0 -0.33853093436E+03 -0.52288943251E+03 -0.37539881096E+03  0.11964283595E+04  0.95000000000E+03 0.  0.
   -2000013    1    1    2    0    0  0.33853093436E+03  0.52288943251E+03  0.21298387314E+04  0.24138619624E+04  0.95000000000E+03 0.  0.
<mgrwt>
<rscale>  0 0.31553347E+04</rscale>
<asrwt>0</asrwt>
<pdfrwt beam="1">  1        2 0.41267155E+00 0.31553347E+04</pdfrwt>
<pdfrwt beam="2">  1       -2 0.14275772E+00 0.31553347E+04</pdfrwt>
<totfact> 0.78455196E-01</totfact>
</mgrwt>
</event>
<event>
 4    1  0.1343107E-008  0.2334298E+04  0.7816531E-02  0.8464520E-01
          2   -1    0    0  501    0  0.00000000000E+00  0.00000000000E+00  0.25756976639E+04  0.25756976639E+04  0.00000000000E+00 0.  1.
         -2   -1    0    0    0  501 -0.00000000000E+00 -0.00000000000E+00 -0.52888053010E+03  0.52888053010E+03  0.00000000000E+00 0. -1.
    2000013    1    1    2    0    0 -0.38912194306E+03 -0.38958226112E+03  0.49718834800E+03  0.12053574068E+04  0.95000000000E+03 0.  0.
   -2000013    1    1    2    0    0  0.38912194306E+03  0.38958226112E+03  0.15496287858E+04  0.18992207872E+04  0.95000000000E+03 0.  0.
<mgrwt>
<rscale>  0 0.23342976E+04</rscale>
<asrwt>0</asrwt>
<pdfrwt beam="1">  1        2 0.39626117E+00 0.23342976E+04</pdfrwt>
<pdfrwt beam="2">  1       -2 0.81366237E-01 0.23342976E+04</pdfrwt>
<totfact> 0.37828210E+00</totfact>
</mgrwt>
</event>
<event>
 4    1  0.1343107E-008  0.2393586E+04  0.7816531E-02  0.8441909E-01
         -2   -1    0    0    0  501 -0.00000000000E+00  0.00000000000E+00  0.11328780717E+04  0.11328780717E+04  0.00000000000E+00 0. -1.
          2   -1    0    0  501    0  0.00000000000E+00 -0.00000000000E+00 -0.12643135651E+04  0.12643135651E+04  0.00000000000E+00 0.  1.
    2000013    1    1    2    0    0  0.53360141054E+03 -0.47333300000E+03 -0.21098287137E+03  0.12065605522E+04  0.95000000000E+03 0.  0.
   -2000013    1    1    2    0    0 -0.53360141054E+03  0.47333300000E+03  0.79547378001E+02  0.11906310846E+04  0.95000000000E+03 0.  0.
<mgrwt>
<rscale>  0 0.23935857E+04</rscale>
<asrwt>0</asrwt>
<pdfrwt beam="2">  1        2 0.19450978E+00 0.23935857E+04</pdfrwt>
<pdfrwt beam="1">  1       -2 0.17428894E+00 0.23935857E+04</pdfrwt>
<totfact> 0.31022217E+00</totfact>
</mgrwt>
</event>
<event>
 4    1  0.1343107E-008  0.2113232E+04  0.7816531E-02  0.8555437E-01
          1   -1    0    0  501    0  0.00000000000E+00  0.00000000000E+00  0.24410896851E+04  0.24410896851E+04  0.00000000000E+00 0.  1.
         -1   -1    0    0    0  501 -0.00000000000E+00 -0.00000000000E+00 -0.45735198363E+03  0.45735198363E+03  0.00000000000E+00 0. -1.
    2000013    1    1    2    0    0  0.38425818853E+01 -0.33792027745E+03  0.55872176074E+03  0.11527683572E+04  0.95000000000E+03 0.  0.
   -2000013    1    1    2    0    0 -0.38425818853E+01  0.33792027745E+03  0.14250159407E+04  0.17456733115E+04  0.95000000000E+03 0.  0.
<mgrwt>
<rscale>  0 0.21132318E+04</rscale>
<asrwt>0</asrwt>
<pdfrwt beam="1">  1        1 0.37555225E+00 0.21132318E+04</pdfrwt>
<pdfrwt beam="2">  1       -1 0.70361845E-01 0.21132318E+04</pdfrwt>
<totfact> 0.27913054E+00</totfact>
</mgrwt>
</event>
<event>
 4    1  0.1343107E-008  0.2231891E+04  0.7816531E-02  0.8505270E-01
          2   -1    0    0  501    0  0.00000000000E+00  0.00000000000E+00  0.33947291919E+04  0.33947291919E+04  0.00000000000E+00 0.  1.
         -2   -1    0    0    0  501 -0.00000000000E+00 -0.00000000000E+00 -0.36684359780E+03  0.36684359780E+03  0.00000000000E+00 0. -1.
    2000013    1    1    2    0    0 -0.13090560763E+03  0.52155571055E+03  0.11234664503E+04  0.15664716730E+04  0.95000000000E+03 0.  0.
   -2000013    1    1    2    0    0  0.13090560763E+03 -0.52155571055E+03  0.19044191437E+04  0.21951011166E+04  0.95000000000E+03 0.  0.
<mgrwt>
<rscale>  0 0.22318913E+04</rscale>
<asrwt>0</asrwt>
<pdfrwt beam="1">  1        2 0.52226601E+00 0.22318913E+04</pdfrwt>
<pdfrwt beam="2">  1       -2 0.56437479E-01 0.22318913E+04</pdfrwt>
<totfact> 0.25888089E+00</totfact>
</mgrwt>
</event>
<event>
 4    1  0.1343107E-008  0.2047783E+04  0.7816531E-02  0.8584601E-01
          2   -1    0    0  501    0  0.00000000000E+00  0.00000000000E+00  0.14965883732E+04  0.14965883732E+04  0.00000000000E+00 0.  1.
         -2   -1    0    0    0  501 -0.00000000000E+00 -0.00000000000E+00 -0.70049555379E+03  0.70049555379E+03  0.00000000000E+00 0. -1.
    2000013    1    1    2    0    0  0.24386509030E+03 -0.28296836337E+03  0.48328848000E+03  0.11294286307E+04  0.95000000000E+03 0.  0.
   -2000013    1    1    2    0    0 -0.24386509030E+03  0.28296836337E+03  0.31280433940E+03  0.10676552963E+04  0.95000000000E+03 0.  0.
<mgrwt>
<rscale>  0 0.20477827E+04</rscale>
<asrwt>0</asrwt>
<pdfrwt beam="1">  1        2 0.23024436E+00 0.20477827E+04</pdfrwt>
<pdfrwt beam="2">  1       -2 0.10776855E+00 0.20477827E+04</pdfrwt>
<totfact> 0.81480745E+00</totfact>
</mgrwt>
</event>
<event>
 4    1  0.1343107E-008  0.2786295E+04  0.7816531E-02  0.8307536E-01
          2   -1    0    0  501    0  0.00000000000E+00  0.00000000000E+00  0.37052174928E+04  0.37052174928E+04  0.00000000000E+00 0.  1.
         -2   -1    0    0    0  501 -0.00000000000E+00 -0.00000000000E+00 -0.52381804595E+03  0.52381804595E+03  0.00000000000E+00 0. -1.
    2000013    1    1    2    0    0  0.81767565819E+03 -0.60131541237E+03  0.14533738899E+04  0.20112109215E+04  0.95000000000E+03 0.  0.
   -2000013    1    1    2    0    0 -0.81767565819E+03  0.60131541237E+03  0.17280255570E+04  0.22178246172E+04  0.95000000000E+03 0.  0.
<mgrwt>
<rscale>  0 0.27862949E+04</rscale>
<asrwt>0</asrwt>
<pdfrwt beam="1">  1        2 0.57003344E+00 0.27862949E+04</pdfrwt>
<pdfrwt beam="2">  1       -2 0.80587394E-01 0.27862949E+04</pdfrwt>
<totfact> 0.68538969E-01</totfact>
</mgrwt>
</event>
<event>
 4    1  0.1343107E-008  0.2962445E+04  0.7816531E-02  0.8254537E-01
          2   -1    0    0  501    0  0.00000000000E+00  0.00000000000E+00  0.29361150556E+04  0.29361150556E+04  0.00000000000E+00 0. -1.
         -2   -1    0    0    0  501 -0.00000000000E+00 -0.00000000000E+00 -0.74725290712E+03  0.74725290712E+03  0.00000000000E+00 0.  1.
    2000013    1    1    2    0    0 -0.10020396568E+04  0.53089182876E+03  0.10014625885E+04  0.17864369353E+04  0.95000000000E+03 0.  0.
   -2000013    1    1    2    0    0  0.10020396568E+04 -0.53089182876E+03  0.11873995599E+04  0.18969310274E+04  0.95000000000E+03 0.  0.
<mgrwt>
<rscale>  0 0.29624453E+04</rscale>
<asrwt>0</asrwt>
<pdfrwt beam="1">  1        2 0.45171000E+00 0.29624453E+04</pdfrwt>
<pdfrwt beam="2">  1       -2 0.11496199E+00 0.29624453E+04</pdfrwt>
<totfact> 0.96651611E-01</totfact>
</mgrwt>
</event>
<event>
 4    1  0.1343107E-008  0.2511147E+04  0.7816531E-02  0.8399025E-01
         -2   -1    0    0    0  501 -0.00000000000E+00  0.00000000000E+00  0.99346807860E+03  0.99346807860E+03  0.00000000000E+00 0. -1.
          2   -1    0    0  501    0  0.00000000000E+00 -0.00000000000E+00 -0.15868297616E+04  0.15868297616E+04  0.00000000000E+00 0.  1.
    2000013    1    1    2    0    0 -0.28338166945E+03 -0.74394964885E+03 -0.90664133101E+02  0.12427736059E+04  0.95000000000E+03 0.  0.
   -2000013    1    1    2    0    0  0.28338166945E+03  0.74394964885E+03 -0.50269754993E+03  0.13375242343E+04  0.95000000000E+03 0.  0.
<mgrwt>
<rscale>  0 0.25111469E+04</rscale>
<asrwt>0</asrwt>
<pdfrwt beam="2">  1        2 0.24412765E+00 0.25111469E+04</pdfrwt>
<pdfrwt beam="1">  1       -2 0.15284124E+00 0.25111469E+04</pdfrwt>
<totfact> 0.28812909E+00</totfact>
</mgrwt>
</event>
<event>
 4    1  0.1343107E-008  0.2644346E+04  0.7816531E-02  0.8353292E-01
         -2   -1    0    0    0  501 -0.00000000000E+00  0.00000000000E+00  0.11891585523E+04  0.11891585523E+04  0.00000000000E+00 0. -1.
          2   -1    0    0  501    0  0.00000000000E+00 -0.00000000000E+00 -0.14700655794E+04  0.14700655794E+04  0.00000000000E+00 0.  1.
    2000013    1    1    2    0    0  0.45455439923E+03  0.30486874741E+03  0.60267412783E+03  0.12511118093E+04  0.95000000000E+03 0.  0.
   -2000013    1    1    2    0    0 -0.45455439923E+03 -0.30486874741E+03 -0.88358115491E+03  0.14081123223E+04  0.95000000000E+03 0.  0.
<mgrwt>
<rscale>  0 0.26443457E+04</rscale>
<asrwt>0</asrwt>
<pdfrwt beam="2">  1        2 0.22616394E+00 0.26443457E+04</pdfrwt>
<pdfrwt beam="1">  1       -2 0.18294747E+00 0.26443457E+04</pdfrwt>
<totfact> 0.20133118E+00</totfact>
</mgrwt>
</event>
<event>
 4    1  0.1343107E-008  0.3311019E+04  0.7816531E-02  0.8160097E-01
         -2   -1    0    0    0  501 -0.00000000000E+00  0.00000000000E+00  0.18666095791E+04  0.18666095791E+04  0.00000000000E+00 0. -1.
          2   -1    0    0  501    0  0.00000000000E+00 -0.00000000000E+00 -0.14682833044E+04  0.14682833044E+04  0.00000000000E+00 0.  1.
    2000013    1    1    2    0    0 -0.61190403211E+03 -0.47359266780E+03  0.13205168590E+04  0.18013831726E+04  0.95000000000E+03 0.  0.
   -2000013    1    1    2    0    0  0.61190403211E+03  0.47359266780E+03 -0.92219058439E+03  0.15335097109E+04  0.95000000000E+03 0.  0.
<mgrwt>
<rscale>  0 0.33110190E+04</rscale>
<asrwt>0</asrwt>
<pdfrwt beam="2">  1        2 0.22588974E+00 0.33110190E+04</pdfrwt>
<pdfrwt beam="1">  1       -2 0.28717070E+00 0.33110190E+04</pdfrwt>
<totfact> 0.42031725E-01</totfact>
</mgrwt>
</event>
<event>
 4    1  0.1343107E-008  0.2049709E+04  0.7816531E-02  0.8583727E-01
          1   -1    0    0  501    0  0.00000000000E+00  0.00000000000E+00  0.12558618343E+04  0.12558618343E+04  0.00000000000E+00 0.  1.
         -1   -1    0    0    0  501 -0.00000000000E+00 -0.00000000000E+00 -0.83633905995E+03  0.83633905995E+03  0.00000000000E+00 0. -1.
    2000013    1    1    2    0    0  0.86339121522E+02 -0.32297481912E+03  0.40359044199E+03  0.10849665537E+04  0.95000000000E+03 0.  0.
   -2000013    1    1    2    0    0 -0.86339121522E+02  0.32297481912E+03  0.15932332389E+02  0.10072343406E+04  0.95000000000E+03 0.  0.
<mgrwt>
<rscale>  0 0.20497086E+04</rscale>
<asrwt>0</asrwt>
<pdfrwt beam="1">  1        1 0.19320951E+00 0.20497086E+04</pdfrwt>
<pdfrwt beam="2">  1       -1 0.12866755E+00 0.20497086E+04</pdfrwt>
<totfact> 0.46790885E+00</totfact>
</mgrwt>
</event>
<event>
 4    1  0.1343107E-008  0.2969001E+04  0.7816531E-02  0.8252639E-01
         -2   -1    0    0    0  501 -0.00000000000E+00  0.00000000000E+00  0.56983421176E+03  0.56983421176E+03  0.00000000000E+00 0. -1.
          2   -1    0    0  501    0  0.00000000000E+00 -0.00000000000E+00 -0.38673381130E+04  0.38673381130E+04  0.00000000000E+00 0.  1.
    2000013    1    1    2    0    0  0.78921220705E+03  0.71022343139E+02 -0.42240415615E+03  0.13072204681E+04  0.95000000000E+03 0.  0.
   -2000013    1    1    2    0    0 -0.78921220705E+03 -0.71022343139E+02 -0.28750997451E+04  0.31299518567E+04  0.95000000000E+03 0.  0.
<mgrwt>
<rscale>  0 0.29690009E+04</rscale>
<asrwt>0</asrwt>
<pdfrwt beam="2">  1        2 0.59497511E+00 0.29690009E+04</pdfrwt>
<pdfrwt beam="1">  1       -2 0.87666799E-01 0.29690009E+04</pdfrwt>
<totfact> 0.41979813E-01</totfact>
</mgrwt>
</event>
<event>
 4    1  0.1343107E-008  0.2373689E+04  0.7816531E-02  0.8449420E-01
         -1   -1    0    0    0  501 -0.00000000000E+00  0.00000000000E+00  0.84405929736E+03  0.84405929736E+03  0.00000000000E+00 0. -1.
          1   -1    0    0  501    0  0.00000000000E+00 -0.00000000000E+00 -0.16688394325E+04  0.16688394325E+04  0.00000000000E+00 0.  1.
    2000013    1    1    2    0    0  0.25762001816E+02 -0.71066425389E+03 -0.43335225106E+03  0.12633295437E+04  0.95000000000E+03 0.  0.
   -2000013    1    1    2    0    0 -0.25762001816E+02  0.71066425389E+03 -0.39142788404E+03  0.12495691861E+04  0.95000000000E+03 0.  0.
<mgrwt>
<rscale>  0 0.23736886E+04</rscale>
<asrwt>0</asrwt>
<pdfrwt beam="2">  1        1 0.25674453E+00 0.23736886E+04</pdfrwt>
<pdfrwt beam="1">  1       -1 0.12985528E+00 0.23736886E+04</pdfrwt>
<totfact> 0.22863312E+00</totfact>
</mgrwt>
</event>
<event>
 4    1  0.1343107E-008  0.3753438E+04  0.7816531E-02  0.8056221E-01
          2   -1    0    0  501    0  0.00000000000E+00  0.00000000000E+00  0.17780337075E+04  0.17780337075E+04  0.00000000000E+00 0. -1.
         -2   -1    0    0    0  501 -0.00000000000E+00 -0.00000000000E+00 -0.19808816956E+04  0.19808816956E+04  0.00000000000E+00 0.  1.
    2000013    1    1    2    0    0 -0.24477921824E+03  0.15772845480E+04 -0.36982818415E+03  0.18939419993E+04  0.95000000000E+03 0.  0.
   -2000013    1    1    2    0    0  0.24477921824E+03 -0.15772845480E+04  0.16698019610E+03  0.18649734038E+04  0.95000000000E+03 0.  0.
<mgrwt>
<rscale>  0 0.37534381E+04</rscale>
<asrwt>0</asrwt>
<pdfrwt beam="1">  1        2 0.27354365E+00 0.37534381E+04</pdfrwt>
<pdfrwt beam="2">  1       -2 0.30475103E+00 0.37534381E+04</pdfrwt>
<totfact> 0.21229078E-01</totfact>
</mgrwt>
</event>
<event>
 4    1  0.1343107E-008  0.3004469E+04  0.7816531E-02  0.8242456E-01
         -2   -1    0    0    0  501 -0.00000000000E+00  0.00000000000E+00  0.67558674794E+03  0.67558674794E+03  0.00000000000E+00 0. -1.
          2   -1    0    0  501    0  0.00000000000E+00 -0.00000000000E+00 -0.33403676354E+04  0.33403676354E+04  0.00000000000E+00 0.  1.
    2000013    1    1    2    0    0  0.11128943165E+04  0.22491922432E+03 -0.16733978717E+04  0.22342521913E+04  0.95000000000E+03 0.  0.
   -2000013    1    1    2    0    0 -0.11128943165E+04 -0.22491922432E+03 -0.99138301576E+03  0.17817021920E+04  0.95000000000E+03 0.  0.
<mgrwt>
<rscale>  0 0.30044687E+04</rscale>
<asrwt>0</asrwt>
<pdfrwt beam="2">  1        2 0.51390272E+00 0.30044687E+04</pdfrwt>
<pdfrwt beam="1">  1       -2 0.10393642E+00 0.30044687E+04</pdfrwt>
<totfact> 0.67403358E-01</totfact>
</mgrwt>
</event>
<event>
 4    1  0.1343107E-008  0.2035262E+04  0.7816531E-02  0.8590309E-01
          2   -1    0    0  501    0  0.00000000000E+00  0.00000000000E+00  0.29650063609E+04  0.29650063609E+04  0.00000000000E+00 0. -1.
         -2   -1    0    0    0  501 -0.00000000000E+00 -0.00000000000E+00 -0.34926513544E+03  0.34926513544E+03  0.00000000000E+00 0.  1.
    2000013    1    1    2    0    0 -0.32834576659E+03 -0.95721017429E+02  0.11012473842E+04  0.14940613297E+04  0.95000000000E+03 0.  0.
   -2000013    1    1    2    0    0  0.32834576659E+03  0.95721017429E+02  0.15144938413E+04  0.18202101667E+04  0.95000000000E+03 0.  0.
<mgrwt>
<rscale>  0 0.20352625E+04</rscale>
<asrwt>0</asrwt>
<pdfrwt beam="1">  1        2 0.45615481E+00 0.20352625E+04</pdfrwt>
<pdfrwt beam="2">  1       -2 0.53733100E-01 0.20352625E+04</pdfrwt>
<totfact> 0.55466864E+00</totfact>
</mgrwt>
</event>
<event>
 4    1  0.1343107E-008  0.2301999E+04  0.7816531E-02  0.8477133E-01
         -2   -1    0    0    0  501 -0.00000000000E+00  0.00000000000E+00  0.61417986943E+03  0.61417986943E+03  0.00000000000E+00 0. -1.
          2   -1    0    0  501    0  0.00000000000E+00 -0.00000000000E+00 -0.21570220478E+04  0.21570220478E+04  0.00000000000E+00 0.  1.
    2000013    1    1    2    0    0 -0.63601460384E+03  0.99342120413E+02 -0.87852821356E+03  0.14452319036E+04  0.95000000000E+03 0.  0.
   -2000013    1    1    2    0    0  0.63601460384E+03 -0.99342120413E+02 -0.66431396483E+03  0.13259700136E+04  0.95000000000E+03 0.  0.
<mgrwt>
<rscale>  0 0.23019987E+04</rscale>
<asrwt>0</asrwt>
<pdfrwt beam="2">  1        2 0.33184955E+00 0.23019987E+04</pdfrwt>
<pdfrwt beam="1">  1       -2 0.94489209E-01 0.23019987E+04</pdfrwt>
<totfact> 0.46700296E+00</totfact>
</mgrwt>
</event>
<event>
 4    1  0.1343107E-008  0.2571736E+04  0.7816531E-02  0.8377866E-01
          1   -1    0    0  501    0  0.00000000000E+00  0.00000000000E+00  0.11086757216E+04  0.11086757216E+04  0.00000000000E+00 0.  1.
         -1   -1    0    0    0  501 -0.00000000000E+00 -0.00000000000E+00 -0.14913796782E+04  0.14913796782E+04  0.00000000000E+00 0. -1.
    2000013    1    1    2    0    0  0.86558644706E+03 -0.25310205966E+02 -0.15818929570E+03  0.12951464617E+04  0.95000000000E+03 0.  0.
   -2000013    1    1    2    0    0 -0.86558644706E+03  0.25310205966E+02 -0.22451466095E+03  0.13049089381E+04  0.95000000000E+03 0.  0.
<mgrwt>
<rscale>  0 0.25717359E+04</rscale>
<asrwt>0</asrwt>
<pdfrwt beam="1">  1        1 0.17056550E+00 0.25717359E+04</pdfrwt>
<pdfrwt beam="2">  1       -1 0.22944303E+00 0.25717359E+04</pdfrwt>
<totfact> 0.10497306E+00</totfact>
</mgrwt>
</event>
<event>
 4    1  0.1343107E-008  0.2080855E+04  0.7816531E-02  0.8569724E-01
         -2   -1    0    0    0  501 -0.00000000000E+00  0.00000000000E+00  0.13310178501E+04  0.13310178501E+04  0.00000000000E+00 0. -1.
          2   -1    0    0  501    0  0.00000000000E+00 -0.00000000000E+00 -0.81327945612E+03  0.81327945612E+03  0.00000000000E+00 0.  1.
    2000013    1    1    2    0    0  0.28726797045E+03 -0.31037125527E+03  0.29360553170E+03  0.10805357056E+04  0.95000000000E+03 0.  0.
   -2000013    1    1    2    0    0 -0.28726797045E+03  0.31037125527E+03  0.22413286232E+03  0.10637616006E+04  0.95000000000E+03 0.  0.
<mgrwt>
<rscale>  0 0.20808551E+04</rscale>
<asrwt>0</asrwt>
<pdfrwt beam="2">  1        2 0.12511992E+00 0.20808551E+04</pdfrwt>
<pdfrwt beam="1">  1       -2 0.20477198E+00 0.20808551E+04</pdfrwt>
<totfact> 0.38479040E+00</totfact>
</mgrwt>
</event>
<event>
 4    1  0.1343107E-008  0.2326503E+04  0.7816531E-02  0.8467544E-01
         -2   -1    0    0    0  501 -0.00000000000E+00  0.00000000000E+00  0.19116187681E+04  0.19116187681E+04  0.00000000000E+00 0. -1.
          2   -1    0    0  501    0  0.00000000000E+00 -0.00000000000E+00 -0.70785739002E+03  0.70785739002E+03  0.00000000000E+00 0.  1.
    2000013    1    1    2    0    0  0.17376307555E+03  0.62322047433E+03  0.80346944655E+03  0.14023767388E+04  0.95000000000E+03 0.  0.
   -2000013    1    1    2    0    0 -0.17376307555E+03 -0.62322047433E+03  0.40029193154E+03  0.12170994193E+04  0.95000000000E+03 0.  0.
<mgrwt>
<rscale>  0 0.23265025E+04</rscale>
<asrwt>0</asrwt>
<pdfrwt beam="2">  1        2 0.10890114E+00 0.23265025E+04</pdfrwt>
<pdfrwt beam="1">  1       -2 0.29409519E+00 0.23265025E+04</pdfrwt>
<totfact> 0.12626205E+00</totfact>
</mgrwt>
</event>
<event>
 4    1  0.1343107E-008  0.2112447E+04  0.7816531E-02  0.8555780E-01
          2   -1    0    0  501    0  0.00000000000E+00  0.00000000000E+00  0.31226859551E+04  0.31226859551E+04  0.00000000000E+00 0.  1.
         -2   -1    0    0    0  501 -0.00000000000E+00 -0.00000000000E+00 -0.35725924139E+03  0.35725924139E+03  0.00000000000E+00 0. -1.
    2000013    1    1    2    0    0 -0.41405437121E+03 -0.11162785985E+03  0.11011817730E+04  0.15162463845E+04  0.95000000000E+03 0.  0.
   -2000013    1    1    2    0    0  0.41405437121E+03  0.11162785985E+03  0.16642449407E+04  0.19636988120E+04  0.95000000000E+03 0.  0.
<mgrwt>
<rscale>  0 0.21124473E+04</rscale>
<asrwt>0</asrwt>
<pdfrwt beam="1">  1        2 0.48041321E+00 0.21124473E+04</pdfrwt>
<pdfrwt beam="2">  1       -2 0.54962962E-01 0.21124473E+04</pdfrwt>
<totfact> 0.41805184E+00</totfact>
</mgrwt>
</event>
<event>
 4    1  0.1343107E-008  0.2119089E+04  0.7816531E-02  0.8552881E-01
          2   -1    0    0  501    0  0.00000000000E+00  0.00000000000E+00  0.47376306460E+04  0.47376306460E+04  0.00000000000E+00 0.  1.
         -2   -1    0    0    0  501 -0.00000000000E+00 -0.00000000000E+00 -0.23696111286E+03  0.23696111286E+03  0.00000000000E+00 0. -1.
    2000013    1    1    2    0    0  0.14599648700E+03 -0.10260066888E+03  0.12316855436E+04  0.15656919077E+04  0.95000000000E+03 0.  0.
   -2000013    1    1    2    0    0 -0.14599648700E+03  0.10260066888E+03  0.32689839895E+04  0.34088998511E+04  0.95000000000E+03 0.  0.
<mgrwt>
<rscale>  0 0.21190887E+04</rscale>
<asrwt>0</asrwt>
<pdfrwt beam="1">  1        2 0.72886619E+00 0.21190887E+04</pdfrwt>
<pdfrwt beam="2">  1       -2 0.36455559E-01 0.21190887E+04</pdfrwt>
<totfact> 0.46292979E-01</totfact>
</mgrwt>
</event>
<event>
 4    1  0.1343107E-008  0.2063053E+04  0.7816531E-02  0.8577696E-01
         -2   -1    0    0    0  501 -0.00000000000E+00  0.00000000000E+00  0.10391107967E+04  0.10391107967E+04  0.00000000000E+00 0. -1.
          2   -1    0    0  501    0  0.00000000000E+00 -0.00000000000E+00 -0.10239970697E+04  0.10239970697E+04  0.00000000000E+00 0.  1.
    2000013    1    1    2    0    0  0.17660279659E+03  0.21326193770E+03 -0.28378788813E+03  0.10294196264E+04  0.95000000000E+03 0.  0.
   -2000013    1    1    2    0    0 -0.17660279659E+03 -0.21326193770E+03  0.29890161515E+03  0.10336882399E+04  0.95000000000E+03 0.  0.
<mgrwt>
<rscale>  0 0.20630525E+04</rscale>
<asrwt>0</asrwt>
<pdfrwt beam="2">  1        2 0.15753801E+00 0.20630525E+04</pdfrwt>
<pdfrwt beam="1">  1       -2 0.15986320E+00 0.20630525E+04</pdfrwt>
<totfact> 0.56733273E+00</totfact>
</mgrwt>
</event>
<event>
 4    1  0.1343107E-008  0.4048136E+04  0.7816531E-02  0.7994906E-01
         -2   -1    0    0    0  501 -0.00000000000E+00  0.00000000000E+00  0.19988430933E+04  0.19988430933E+04  0.00000000000E+00 0. -1.
          2   -1    0    0  501    0  0.00000000000E+00 -0.00000000000E+00 -0.20496109687E+04  0.20496109687E+04  0.00000000000E+00 0.  1.
    2000013    1    1    2    0    0 -0.11206423284E+04 -0.13920404077E+04  0.17291475576E+01  0.20238870312E+04  0.95000000000E+03 0.  0.
   -2000013    1    1    2    0    0  0.11206423284E+04  0.13920404077E+04 -0.52497022948E+02  0.20245670308E+04  0.95000000000E+03 0.  0.
<mgrwt>
<rscale>  0 0.40481357E+04</rscale>
<asrwt>0</asrwt>
<pdfrwt beam="2">  1        2 0.31532476E+00 0.40481357E+04</pdfrwt>
<pdfrwt beam="1">  1       -2 0.30751432E+00 0.40481357E+04</pdfrwt>
<totfact> 0.14081681E-01</totfact>
</mgrwt>
</event>
<event>
 4    1  0.1343107E-008  0.2327226E+04  0.7816531E-02  0.8467263E-01
         -2   -1    0    0    0  501 -0.00000000000E+00  0.00000000000E+00  0.82479449265E+03  0.82479449265E+03  0.00000000000E+00 0. -1.
          2   -1    0    0  501    0  0.00000000000E+00 -0.00000000000E+00 -0.16416155951E+04  0.16416155951E+04  0.00000000000E+00 0.  1.
    2000013    1    1    2    0    0 -0.52583523379E+03  0.41423211640E+03 -0.34657228022E+03  0.12127255604E+04  0.95000000000E+03 0.  0.
   -2000013    1    1    2    0    0  0.52583523379E+03 -0.41423211640E+03 -0.47024882220E+03  0.12536845274E+04  0.95000000000E+03 0.  0.
<mgrwt>
<rscale>  0 0.23272262E+04</rscale>
<asrwt>0</asrwt>
<pdfrwt beam="2">  1        2 0.25255624E+00 0.23272262E+04</pdfrwt>
<pdfrwt beam="1">  1       -2 0.12689146E+00 0.23272262E+04</pdfrwt>
<totfact> 0.44152947E+00</totfact>
</mgrwt>
</event>
<event>
 4    1  0.1343107E-008  0.3919966E+04  0.7816531E-02  0.8020889E-01
         -2   -1    0    0    0  501 -0.00000000000E+00  0.00000000000E+00  0.16832517443E+04  0.16832517443E+04  0.00000000000E+00 0. -1.
          2   -1    0    0  501    0  0.00000000000E+00 -0.00000000000E+00 -0.22822098586E+04  0.22822098586E+04  0.00000000000E+00 0.  1.
    2000013    1    1    2    0    0  0.64297600858E+03  0.12768382849E+04  0.65770535312E+03  0.18381540972E+04  0.95000000000E+03 0.  0.
   -2000013    1    1    2    0    0 -0.64297600858E+03 -0.12768382849E+04 -0.12566634674E+04  0.21273075057E+04  0.95000000000E+03 0.  0.
<mgrwt>
<rscale>  0 0.39199662E+04</rscale>
<asrwt>0</asrwt>
<pdfrwt beam="2">  1        2 0.35110921E+00 0.39199662E+04</pdfrwt>
<pdfrwt beam="1">  1       -2 0.25896181E+00 0.39199662E+04</pdfrwt>
<totfact> 0.20860039E-01</totfact>
</mgrwt>
</event>
<event>
 4    1  0.1343107E-008  0.2253128E+04  0.7816531E-02  0.8496635E-01
          2   -1    0    0  501    0  0.00000000000E+00  0.00000000000E+00  0.36237077543E+04  0.36237077543E+04  0.00000000000E+00 0.  1.
         -2   -1    0    0    0  501 -0.00000000000E+00 -0.00000000000E+00 -0.35023434893E+03  0.35023434893E+03  0.00000000000E+00 0. -1.
    2000013    1    1    2    0    0  0.44366946438E+03 -0.34056788587E+03  0.20459019605E+04  0.23240146107E+04  0.95000000000E+03 0.  0.
   -2000013    1    1    2    0    0 -0.44366946438E+03  0.34056788587E+03  0.12275714448E+04  0.16499274925E+04  0.95000000000E+03 0.  0.
<mgrwt>
<rscale>  0 0.22531284E+04</rscale>
<asrwt>0</asrwt>
<pdfrwt beam="1">  1        2 0.55749348E+00 0.22531284E+04</pdfrwt>
<pdfrwt beam="2">  1       -2 0.53882210E-01 0.22531284E+04</pdfrwt>
<totfact> 0.19672042E+00</totfact>
</mgrwt>
</event>
<event>
 4    1  0.1343107E-008  0.2215238E+04  0.7816531E-02  0.8512113E-01
         -2   -1    0    0    0  501 -0.00000000000E+00  0.00000000000E+00  0.48527793984E+03  0.48527793984E+03  0.00000000000E+00 0. -1.
          2   -1    0    0  501    0  0.00000000000E+00 -0.00000000000E+00 -0.25280757549E+04  0.25280757549E+04  0.00000000000E+00 0.  1.
    2000013    1    1    2    0    0 -0.36955756329E+03  0.26754209798E+03 -0.55776762473E+03  0.11923742240E+04  0.95000000000E+03 0.  0.
   -2000013    1    1    2    0    0  0.36955756329E+03 -0.26754209798E+03 -0.14850301903E+04  0.18209794707E+04  0.95000000000E+03 0.  0.
<mgrwt>
<rscale>  0 0.22152376E+04</rscale>
<asrwt>0</asrwt>
<pdfrwt beam="2">  1        2 0.38893473E+00 0.22152376E+04</pdfrwt>
<pdfrwt beam="1">  1       -2 0.74658144E-01 0.22152376E+04</pdfrwt>
<totfact> 0.49377126E+00</totfact>
</mgrwt>
</event>
<event>
 4    1  0.1343107E-008  0.3703255E+04  0.7816531E-02  0.8067241E-01
         -2   -1    0    0    0  501 -0.00000000000E+00  0.00000000000E+00  0.12161826284E+04  0.12161826284E+04  0.00000000000E+00 0. -1.
          2   -1    0    0  501    0  0.00000000000E+00 -0.00000000000E+00 -0.28190865305E+04  0.28190865305E+04  0.00000000000E+00 0.  1.
    2000013    1    1    2    0    0 -0.33313900978E+03 -0.14918154488E+04 -0.32707137314E+03  0.18291994468E+04  0.95000000000E+03 0.  0.
   -2000013    1    1    2    0    0  0.33313900978E+03  0.14918154488E+04 -0.12758325290E+04  0.22060697122E+04  0.95000000000E+03 0.  0.
<mgrwt>
<rscale>  0 0.37032548E+04</rscale>
<asrwt>0</asrwt>
<pdfrwt beam="2">  1        2 0.43370562E+00 0.37032548E+04</pdfrwt>
<pdfrwt beam="1">  1       -2 0.18710502E+00 0.37032548E+04</pdfrwt>
<totfact> 0.29490651E-01</totfact>
</mgrwt>
</event>
<event>
 4    1  0.1343107E-008  0.3744520E+04  0.7816531E-02  0.8058167E-01
         -2   -1    0    0    0  501 -0.00000000000E+00  0.00000000000E+00  0.32635735108E+04  0.32635735108E+04  0.00000000000E+00 0.  1.
          2   -1    0    0  501    0  0.00000000000E+00 -0.00000000000E+00 -0.10740859228E+04  0.10740859228E+04  0.00000000000E+00 0. -1.
    2000013    1    1    2    0    0 -0.85470899457E+03 -0.13675171361E+04  0.10400679265E+04  0.21412313922E+04  0.95000000000E+03 0.  0.
   -2000013    1    1    2    0    0  0.85470899457E+03  0.13675171361E+04  0.11494196614E+04  0.21964280414E+04  0.95000000000E+03 0.  0.
<mgrwt>
<rscale>  0 0.37445205E+04</rscale>
<asrwt>0</asrwt>
<pdfrwt beam="2">  1        2 0.16524399E+00 0.37445205E+04</pdfrwt>
<pdfrwt beam="1">  1       -2 0.50208823E+00 0.37445205E+04</pdfrwt>
<totfact> 0.29154580E-02</totfact>
</mgrwt>
</event>
<event>
 4    1  0.1343107E-008  0.2838749E+04  0.7816531E-02  0.8291338E-01
          2   -1    0    0  501    0  0.00000000000E+00  0.00000000000E+00  0.15897009931E+04  0.15897009931E+04  0.00000000000E+00 0.  1.
         -2   -1    0    0    0  501 -0.00000000000E+00 -0.00000000000E+00 -0.12672971954E+04  0.12672971954E+04  0.00000000000E+00 0. -1.
    2000013    1    1    2    0    0 -0.49628522055E+03 -0.10376287601E+03  0.10918398529E+04  0.15335188356E+04  0.95000000000E+03 0.  0.
   -2000013    1    1    2    0    0  0.49628522055E+03  0.10376287601E+03 -0.76943605525E+03  0.13234793530E+04  0.95000000000E+03 0.  0.
<mgrwt>
<rscale>  0 0.28387487E+04</rscale>
<asrwt>0</asrwt>
<pdfrwt beam="1">  1        2 0.24456938E+00 0.28387487E+04</pdfrwt>
<pdfrwt beam="2">  1       -2 0.19496880E+00 0.28387487E+04</pdfrwt>
<totfact> 0.14076919E+00</totfact>
</mgrwt>
</event>
<event>
 4    1  0.1343107E-008  0.3535857E+04  0.7816531E-02  0.8105345E-01
         -2   -1    0    0    0  501 -0.00000000000E+00  0.00000000000E+00  0.13394310124E+04  0.13394310124E+04  0.00000000000E+00 0. -1.
          2   -1    0    0  501    0  0.00000000000E+00 -0.00000000000E+00 -0.23335065386E+04  0.23335065386E+04  0.00000000000E+00 0.  1.
    2000013    1    1    2    0    0  0.72787965870E+03  0.60675573252E+03 -0.16927998530E+04  0.21601001501E+04  0.95000000000E+03 0.  0.
   -2000013    1    1    2    0    0 -0.72787965870E+03 -0.60675573252E+03  0.69872432680E+03  0.15128374008E+04  0.95000000000E+03 0.  0.
<mgrwt>
<rscale>  0 0.35358569E+04</rscale>
<asrwt>0</asrwt>
<pdfrwt beam="2">  1        2 0.35900100E+00 0.35358569E+04</pdfrwt>
<pdfrwt beam="1">  1       -2 0.20606631E+00 0.35358569E+04</pdfrwt>
<totfact> 0.43160474E-01</totfact>
</mgrwt>
</event>
<event>
 4    1  0.1343107E-008  0.2551865E+04  0.7816531E-02  0.8384738E-01
         -2   -1    0    0    0  501 -0.00000000000E+00  0.00000000000E+00  0.82775976856E+03  0.82775976856E+03  0.00000000000E+00 0.  1.
          2   -1    0    0  501    0  0.00000000000E+00 -0.00000000000E+00 -0.19667580778E+04  0.19667580778E+04  0.00000000000E+00 0. -1.
    2000013    1    1    2    0    0  0.80519626539E+03 -0.18105389436E+03 -0.33879729415E+03  0.13032287385E+04  0.95000000000E+03 0.  0.
   -2000013    1    1    2    0    0 -0.80519626539E+03  0.18105389436E+03 -0.80020101505E+03  0.14912891078E+04  0.95000000000E+03 0.  0.
<mgrwt>
<rscale>  0 0.25518646E+04</rscale>
<asrwt>0</asrwt>
<pdfrwt beam="2">  1        2 0.30257816E+00 0.25518646E+04</pdfrwt>
<pdfrwt beam="1">  1       -2 0.12734766E+00 0.25518646E+04</pdfrwt>
<totfact> 0.28329860E+00</totfact>
</mgrwt>
</event>
<event>
 4    1  0.1343107E-008  0.3336150E+04  0.7816531E-02  0.8153758E-01
          2   -1    0    0  501    0  0.00000000000E+00  0.00000000000E+00  0.25171424804E+04  0.25171424804E+04  0.00000000000E+00 0.  1.
         -2   -1    0    0    0  501 -0.00000000000E+00 -0.00000000000E+00 -0.11054096480E+04  0.11054096480E+04  0.00000000000E+00 0. -1.
    2000013    1    1    2    0    0  0.18460739659E+03  0.13562387116E+04  0.61825354018E+03  0.17771327395E+04  0.95000000000E+03 0.  0.
   -2000013    1    1    2    0    0 -0.18460739659E+03 -0.13562387116E+04  0.79347929224E+03  0.18454193889E+04  0.95000000000E+03 0.  0.
<mgrwt>
<rscale>  0 0.33361496E+04</rscale>
<asrwt>0</asrwt>
<pdfrwt beam="1">  1        2 0.38725269E+00 0.33361496E+04</pdfrwt>
<pdfrwt beam="2">  1       -2 0.17006302E+00 0.33361496E+04</pdfrwt>
<totfact> 0.60312588E-01</totfact>
</mgrwt>
</event>
<event>
 4    1  0.1343107E-008  0.3759633E+04  0.7816531E-02  0.8054874E-01
          1   -1    0    0  501    0  0.00000000000E+00  0.00000000000E+00  0.39704309848E+04  0.39704309848E+04  0.00000000000E+00 0.  1.
         -1   -1    0    0    0  501 -0.00000000000E+00 -0.00000000000E+00 -0.89000649434E+03  0.89000649434E+03  0.00000000000E+00 0. -1.
    2000013    1    1    2    0    0 -0.66421202111E+03 -0.14702845929E+04  0.17576748375E+04  0.25680411265E+04  0.95000000000E+03 0.  0.
   -2000013    1    1    2    0    0  0.66421202111E+03  0.14702845929E+04  0.13227496529E+04  0.22923963526E+04  0.95000000000E+03 0.  0.
<mgrwt>
<rscale>  0 0.37596326E+04</rscale>
<asrwt>0</asrwt>
<pdfrwt beam="1">  1        1 0.61083553E+00 0.37596326E+04</pdfrwt>
<pdfrwt beam="2">  1       -1 0.13692408E+00 0.37596326E+04</pdfrwt>
<totfact> 0.36013035E-02</totfact>
</mgrwt>
</event>
<event>
 4    1  0.1343107E-008  0.3129950E+04  0.7816531E-02  0.8207566E-01
         -2   -1    0    0    0  501 -0.00000000000E+00  0.00000000000E+00  0.17213957914E+04  0.17213957914E+04  0.00000000000E+00 0.  1.
          2   -1    0    0  501    0  0.00000000000E+00 -0.00000000000E+00 -0.14227679310E+04  0.14227679310E+04  0.00000000000E+00 0. -1.
    2000013    1    1    2    0    0  0.10293792127E+04 -0.63960222647E+03 -0.13112072106E+03  0.15454466070E+04  0.95000000000E+03 0.  0.
   -2000013    1    1    2    0    0 -0.10293792127E+04  0.63960222647E+03  0.42974858145E+03  0.15987171153E+04  0.95000000000E+03 0.  0.
<mgrwt>
<rscale>  0 0.31299500E+04</rscale>
<asrwt>0</asrwt>
<pdfrwt beam="2">  1        2 0.21888737E+00 0.31299500E+04</pdfrwt>
<pdfrwt beam="1">  1       -2 0.26483012E+00 0.31299500E+04</pdfrwt>
<totfact> 0.61994072E-01</totfact>
</mgrwt>
</event>
<event>
 4    1  0.1343107E-008  0.2733473E+04  0.7816531E-02  0.8324225E-01
          2   -1    0    0  501    0  0.00000000000E+00  0.00000000000E+00  0.90351343822E+03  0.90351343822E+03  0.00000000000E+00 0.  1.
         -2   -1    0    0    0  501 -0.00000000000E+00 -0.00000000000E+00 -0.20674495833E+04  0.20674495833E+04  0.00000000000E+00 0. -1.
    2000013    1    1    2    0    0  0.43892316247E+03  0.53811496653E+03  0.17358880220E+03  0.11894764949E+04  0.95000000000E+03 0.  0.
   -2000013    1    1    2    0    0 -0.43892316247E+03 -0.53811496653E+03 -0.13375249473E+04  0.17814865266E+04  0.95000000000E+03 0.  0.
<mgrwt>
<rscale>  0 0.27334729E+04</rscale>
<asrwt>0</asrwt>
<pdfrwt beam="1">  1        2 0.13900207E+00 0.27334729E+04</pdfrwt>
<pdfrwt beam="2">  1       -2 0.31806916E+00 0.27334729E+04</pdfrwt>
<totfact> 0.62792920E-01</totfact>
</mgrwt>
</event>
<event>
 4    1  0.1343107E-008  0.2355112E+04  0.7816531E-02  0.8456503E-01
          1   -1    0    0  501    0  0.00000000000E+00  0.00000000000E+00  0.27738113245E+04  0.27738113245E+04  0.00000000000E+00 0.  1.
         -1   -1    0    0    0  501 -0.00000000000E+00 -0.00000000000E+00 -0.49990364103E+03  0.49990364103E+03  0.00000000000E+00 0. -1.
    2000013    1    1    2    0    0  0.66838558832E+03 -0.19335893263E+03  0.11416490614E+04  0.16401187612E+04  0.95000000000E+03 0.  0.
   -2000013    1    1    2    0    0 -0.66838558832E+03  0.19335893263E+03  0.11322586221E+04  0.16335962043E+04  0.95000000000E+03 0.  0.
<mgrwt>
<rscale>  0 0.23551122E+04</rscale>
<asrwt>0</asrwt>
<pdfrwt beam="1">  1        1 0.42674019E+00 0.23551122E+04</pdfrwt>
<pdfrwt beam="2">  1       -1 0.76908254E-01 0.23551122E+04</pdfrwt>
<totfact> 0.13273532E+00</totfact>
</mgrwt>
</event>
<event>
 4    1  0.1343107E-008  0.2479718E+04  0.7816531E-02  0.8410247E-01
         -2   -1    0    0    0  501 -0.00000000000E+00  0.00000000000E+00  0.13129642511E+04  0.13129642511E+04  0.00000000000E+00 0. -1.
          2   -1    0    0  501    0  0.00000000000E+00 -0.00000000000E+00 -0.11708243079E+04  0.11708243079E+04  0.00000000000E+00 0.  1.
    2000013    1    1    2    0    0  0.16524639278E+03  0.70750428654E+03  0.39853440630E+03  0.12606341098E+04  0.95000000000E+03 0.  0.
   -2000013    1    1    2    0    0 -0.16524639278E+03 -0.70750428654E+03 -0.25639446317E+03  0.12231544492E+04  0.95000000000E+03 0.  0.
<mgrwt>
<rscale>  0 0.24797181E+04</rscale>
<asrwt>0</asrwt>
<pdfrwt beam="2">  1        2 0.18012682E+00 0.24797181E+04</pdfrwt>
<pdfrwt beam="1">  1       -2 0.20199450E+00 0.24797181E+04</pdfrwt>
<totfact> 0.22736072E+00</totfact>
</mgrwt>
</event>
<event>
 4    1  0.1343107E-008  0.2042564E+04  0.7816531E-02  0.8586975E-01
          1   -1    0    0  501    0  0.00000000000E+00  0.00000000000E+00  0.97032809179E+03  0.97032809179E+03  0.00000000000E+00 0.  1.
         -1   -1    0    0    0  501 -0.00000000000E+00 -0.00000000000E+00 -0.10749114261E+04  0.10749114261E+04  0.00000000000E+00 0. -1.
    2000013    1    1    2    0    0 -0.28273754805E+03 -0.24568040362E+03 -0.37528841245E+02  0.10218648618E+04  0.95000000000E+03 0.  0.
   -2000013    1    1    2    0    0  0.28273754805E+03  0.24568040362E+03 -0.67054493089E+02  0.10233746561E+04  0.95000000000E+03 0.  0.
<mgrwt>
<rscale>  0 0.20425638E+04</rscale>
<asrwt>0</asrwt>
<pdfrwt beam="1">  1        1 0.14928124E+00 0.20425638E+04</pdfrwt>
<pdfrwt beam="2">  1       -1 0.16537099E+00 0.20425638E+04</pdfrwt>
<totfact> 0.39300524E+00</totfact>
</mgrwt>
</event>
<event>
 4    1  0.1343107E-008  0.2574958E+04  0.7816531E-02  0.8376757E-01
         -1   -1    0    0    0  501 -0.00000000000E+00  0.00000000000E+00  0.71638002919E+03  0.71638002919E+03  0.00000000000E+00 0. -1.
          1   -1    0    0  501    0  0.00000000000E+00 -0.00000000000E+00 -0.23138594436E+04  0.23138594436E+04  0.00000000000E+00 0.  1.
    2000013    1    1    2    0    0  0.20285915707E+03  0.77106185220E+03 -0.39207617736E+03  0.13007351561E+04  0.95000000000E+03 0.  0.
   -2000013    1    1    2    0    0 -0.20285915707E+03 -0.77106185220E+03 -0.12054032371E+04  0.17295043167E+04  0.95000000000E+03 0.  0.
<mgrwt>
<rscale>  0 0.25749584E+04</rscale>
<asrwt>0</asrwt>
<pdfrwt beam="2">  1        1 0.35597837E+00 0.25749584E+04</pdfrwt>
<pdfrwt beam="1">  1       -1 0.11021231E+00 0.25749584E+04</pdfrwt>
<totfact> 0.12205921E+00</totfact>
</mgrwt>
</event>
<event>
 4    1  0.1343107E-008  0.3469834E+04  0.7816531E-02  0.8120976E-01
         -1   -1    0    0    0  501 -0.00000000000E+00  0.00000000000E+00  0.32167881843E+04  0.32167881843E+04  0.00000000000E+00 0. -1.
          1   -1    0    0  501    0  0.00000000000E+00 -0.00000000000E+00 -0.93569645046E+03  0.93569645046E+03  0.00000000000E+00 0.  1.
    2000013    1    1    2    0    0 -0.64164883459E+03 -0.12679520293E+04  0.78549202503E+03  0.18811999620E+04  0.95000000000E+03 0.  0.
   -2000013    1    1    2    0    0  0.64164883459E+03  0.12679520293E+04  0.14955997088E+04  0.22712846727E+04  0.95000000000E+03 0.  0.
<mgrwt>
<rscale>  0 0.34698342E+04</rscale>
<asrwt>0</asrwt>
<pdfrwt beam="2">  1        1 0.14395330E+00 0.34698342E+04</pdfrwt>
<pdfrwt beam="1">  1       -1 0.49489048E+00 0.34698342E+04</pdfrwt>
<totfact> 0.22368840E-02</totfact>
</mgrwt>
</event>
<event>
 4    1  0.1343107E-008  0.2016723E+04  0.7816531E-02  0.8598842E-01
          2   -1    0    0  501    0  0.00000000000E+00  0.00000000000E+00  0.23907580151E+04  0.23907580151E+04  0.00000000000E+00 0.  1.
         -2   -1    0    0    0  501 -0.00000000000E+00 -0.00000000000E+00 -0.42530161157E+03  0.42530161157E+03  0.00000000000E+00 0. -1.
    2000013    1    1    2    0    0  0.21712364451E+03  0.19139584423E+03  0.73879275342E+03  0.12377761424E+04  0.95000000000E+03 0.  0.
   -2000013    1    1    2    0    0 -0.21712364451E+03 -0.19139584423E+03  0.12266636501E+04  0.15782834842E+04  0.95000000000E+03 0.  0.
<mgrwt>
<rscale>  0 0.20167233E+04</rscale>
<asrwt>0</asrwt>
<pdfrwt beam="1">  1        2 0.36780892E+00 0.20167233E+04</pdfrwt>
<pdfrwt beam="2">  1       -2 0.65431018E-01 0.20167233E+04</pdfrwt>
<totfact> 0.80383438E+00</totfact>
</mgrwt>
</event>
<event>
 4    1  0.1343107E-008  0.2600446E+04  0.7816531E-02  0.8368050E-01
         -2   -1    0    0    0  501 -0.00000000000E+00  0.00000000000E+00  0.13669415497E+04  0.13669415497E+04  0.00000000000E+00 0. -1.
          2   -1    0    0  501    0  0.00000000000E+00 -0.00000000000E+00 -0.12367605043E+04  0.12367605043E+04  0.00000000000E+00 0.  1.
    2000013    1    1    2    0    0 -0.83381155318E+03 -0.32101341373E+02  0.36846685101E+03  0.13170193706E+04  0.95000000000E+03 0.  0.
   -2000013    1    1    2    0    0  0.83381155318E+03  0.32101341373E+02 -0.23828580563E+03  0.12866826833E+04  0.95000000000E+03 0.  0.
<mgrwt>
<rscale>  0 0.26004456E+04</rscale>
<asrwt>0</asrwt>
<pdfrwt beam="2">  1        2 0.19027085E+00 0.26004456E+04</pdfrwt>
<pdfrwt beam="1">  1       -2 0.21029870E+00 0.26004456E+04</pdfrwt>
<totfact> 0.18160699E+00</totfact>
</mgrwt>
</event>
<event>
 4    1  0.1343107E-008  0.3012696E+04  0.7816531E-02  0.8240115E-01
          2   -1    0    0  501    0  0.00000000000E+00  0.00000000000E+00  0.17786411272E+04  0.17786411272E+04  0.00000000000E+00 0.  1.
         -2   -1    0    0    0  501 -0.00000000000E+00 -0.00000000000E+00 -0.12757401749E+04  0.12757401749E+04  0.00000000000E+00 0. -1.
    2000013    1    1    2    0    0 -0.82098664285E+03  0.83174387638E+03  0.27952842415E+03  0.15318136582E+04  0.95000000000E+03 0.  0.
   -2000013    1    1    2    0    0  0.82098664285E+03 -0.83174387638E+03  0.22337252820E+03  0.15225676438E+04  0.95000000000E+03 0.  0.
<mgrwt>
<rscale>  0 0.30126958E+04</rscale>
<asrwt>0</asrwt>
<pdfrwt beam="1">  1        2 0.27363710E+00 0.30126958E+04</pdfrwt>
<pdfrwt beam="2">  1       -2 0.19626772E+00 0.30126958E+04</pdfrwt>
<totfact> 0.10675292E+00</totfact>
</mgrwt>
</event>
<event>
 4    1  0.1343107E-008  0.2976877E+04  0.7816531E-02  0.8250365E-01
          2   -1    0    0  501    0  0.00000000000E+00  0.00000000000E+00  0.30008568838E+04  0.30008568838E+04  0.00000000000E+00 0.  1.
         -2   -1    0    0    0  501 -0.00000000000E+00 -0.00000000000E+00 -0.73827227506E+03  0.73827227506E+03  0.00000000000E+00 0. -1.
    2000013    1    1    2    0    0 -0.90619630853E+02  0.11417787649E+04  0.11725471194E+04  0.18945282823E+04  0.95000000000E+03 0.  0.
   -2000013    1    1    2    0    0  0.90619630853E+02 -0.11417787649E+04  0.10900374894E+04  0.18446008765E+04  0.95000000000E+03 0.  0.
<mgrwt>
<rscale>  0 0.29768772E+04</rscale>
<asrwt>0</asrwt>
<pdfrwt beam="1">  1        2 0.46167028E+00 0.29768772E+04</pdfrwt>
<pdfrwt beam="2">  1       -2 0.11358035E+00 0.29768772E+04</pdfrwt>
<totfact> 0.90596717E-01</totfact>
</mgrwt>
</event>
<event>
 4    1  0.1343107E-008  0.2287945E+04  0.7816531E-02  0.8482690E-01
         -2   -1    0    0    0  501 -0.00000000000E+00  0.00000000000E+00  0.35948392766E+03  0.35948392766E+03  0.00000000000E+00 0. -1.
          2   -1    0    0  501    0  0.00000000000E+00 -0.00000000000E+00 -0.36404209063E+04  0.36404209063E+04  0.00000000000E+00 0.  1.
    2000013    1    1    2    0    0 -0.11176972744E+03  0.51540675790E+03 -0.22660307280E+04  0.25130721952E+04  0.95000000000E+03 0.  0.
   -2000013    1    1    2    0    0  0.11176972744E+03 -0.51540675790E+03 -0.10149062506E+04  0.14868326387E+04  0.95000000000E+03 0.  0.
<mgrwt>
<rscale>  0 0.22879448E+04</rscale>
<asrwt>0</asrwt>
<pdfrwt beam="2">  1        2 0.56006479E+00 0.22879448E+04</pdfrwt>
<pdfrwt beam="1">  1       -2 0.55305216E-01 0.22879448E+04</pdfrwt>
<totfact> 0.18066265E+00</totfact>
</mgrwt>
</event>
<event>
 4    1  0.1343107E-008  0.2444796E+04  0.7816531E-02  0.8422920E-01
          2   -1    0    0  501    0  0.00000000000E+00  0.00000000000E+00  0.14472554549E+04  0.14472554549E+04  0.00000000000E+00 0.  1.
         -2   -1    0    0    0  501 -0.00000000000E+00 -0.00000000000E+00 -0.10324762113E+04  0.10324762113E+04  0.00000000000E+00 0. -1.
    2000013    1    1    2    0    0 -0.36032971019E+03  0.21462036949E+03  0.86147478523E+03  0.13492732150E+04  0.95000000000E+03 0.  0.
   -2000013    1    1    2    0    0  0.36032971019E+03 -0.21462036949E+03 -0.44669554160E+03  0.11304584512E+04  0.95000000000E+03 0.  0.
<mgrwt>
<rscale>  0 0.24447960E+04</rscale>
<asrwt>0</asrwt>
<pdfrwt beam="1">  1        2 0.22265469E+00 0.24447960E+04</pdfrwt>
<pdfrwt beam="2">  1       -2 0.15884249E+00 0.24447960E+04</pdfrwt>
<totfact> 0.31307269E+00</totfact>
</mgrwt>
</event>
<event>
 4    1  0.1343107E-008  0.3017799E+04  0.7816531E-02  0.8238667E-01
         -2   -1    0    0    0  501 -0.00000000000E+00  0.00000000000E+00  0.71432876430E+03  0.71432876430E+03  0.00000000000E+00 0. -1.
          2   -1    0    0  501    0  0.00000000000E+00 -0.00000000000E+00 -0.31872956898E+04  0.31872956898E+04  0.00000000000E+00 0.  1.
    2000013    1    1    2    0    0 -0.20583617849E+03  0.11061450196E+04 -0.16620554139E+04  0.22205525293E+04  0.95000000000E+03 0.  0.
   -2000013    1    1    2    0    0  0.20583617849E+03 -0.11061450196E+04 -0.81091151165E+03  0.16810719248E+04  0.95000000000E+03 0.  0.
<mgrwt>
<rscale>  0 0.30177985E+04</rscale>
<asrwt>0</asrwt>
<pdfrwt beam="2">  1        2 0.49035317E+00 0.30177985E+04</pdfrwt>
<pdfrwt beam="1">  1       -2 0.10989673E+00 0.30177985E+04</pdfrwt>
<totfact> 0.74343003E-01</totfact>
</mgrwt>
</event>
<event>
 4    1  0.1343107E-008  0.2315221E+04  0.7816531E-02  0.8471944E-01
          2   -1    0    0  501    0  0.00000000000E+00  0.00000000000E+00  0.15070270286E+04  0.15070270286E+04  0.00000000000E+00 0.  1.
         -2   -1    0    0    0  501 -0.00000000000E+00 -0.00000000000E+00 -0.88920877226E+03  0.88920877226E+03  0.00000000000E+00 0. -1.
    2000013    1    1    2    0    0 -0.21635880808E+03 -0.58889229876E+03  0.52590332970E+03  0.12540652238E+04  0.95000000000E+03 0.  0.
   -2000013    1    1    2    0    0  0.21635880808E+03  0.58889229876E+03  0.91914926662E+02  0.11421705771E+04  0.95000000000E+03 0.  0.
<mgrwt>
<rscale>  0 0.23152206E+04</rscale>
<asrwt>0</asrwt>
<pdfrwt beam="1">  1        2 0.23185031E+00 0.23152206E+04</pdfrwt>
<pdfrwt beam="2">  1       -2 0.13680135E+00 0.23152206E+04</pdfrwt>
<totfact> 0.43440064E+00</totfact>
</mgrwt>
</event>
<event>
 4    1  0.1343107E-008  0.3502282E+04  0.7816531E-02  0.8113249E-01
         -2   -1    0    0    0  501 -0.00000000000E+00  0.00000000000E+00  0.19686091543E+04  0.19686091543E+04  0.00000000000E+00 0. -1.
          2   -1    0    0  501    0  0.00000000000E+00 -0.00000000000E+00 -0.15576961677E+04  0.15576961677E+04  0.00000000000E+00 0.  1.
    2000013    1    1    2    0    0 -0.14226335479E+04  0.37167830417E+03  0.16083590179E+03  0.17579531168E+04  0.95000000000E+03 0.  0.
   -2000013    1    1    2    0    0  0.14226335479E+04 -0.37167830417E+03  0.25007708481E+03  0.17683522052E+04  0.95000000000E+03 0.  0.
<mgrwt>
<rscale>  0 0.35022821E+04</rscale>
<asrwt>0</asrwt>
<pdfrwt beam="2">  1        2 0.23964557E+00 0.35022821E+04</pdfrwt>
<pdfrwt beam="1">  1       -2 0.30286295E+00 0.35022821E+04</pdfrwt>
<totfact> 0.29534763E-01</totfact>
</mgrwt>
</event>
<event>
 4    1  0.1343107E-008  0.3379288E+04  0.7816531E-02  0.8143008E-01
          1   -1    0    0  501    0  0.00000000000E+00  0.00000000000E+00  0.17903754043E+04  0.17903754043E+04  0.00000000000E+00 0.  1.
         -1   -1    0    0    0  501 -0.00000000000E+00 -0.00000000000E+00 -0.15945804076E+04  0.15945804076E+04  0.00000000000E+00 0. -1.
    2000013    1    1    2    0    0 -0.30606652745E+03  0.13587183843E+04  0.21035856064E+03  0.16989829579E+04  0.95000000000E+03 0.  0.
   -2000013    1    1    2    0    0  0.30606652745E+03 -0.13587183843E+04 -0.14563563921E+02  0.16859728540E+04  0.95000000000E+03 0.  0.
<mgrwt>
<rscale>  0 0.33792884E+04</rscale>
<asrwt>0</asrwt>
<pdfrwt beam="1">  1        1 0.27544237E+00 0.33792884E+04</pdfrwt>
<pdfrwt beam="2">  1       -1 0.24532006E+00 0.33792884E+04</pdfrwt>
<totfact> 0.25501192E-01</totfact>
</mgrwt>
</event>
<event>
 4    1  0.1343107E-008  0.3222311E+04  0.7816531E-02  0.8182950E-01
          2   -1    0    0  501    0  0.00000000000E+00  0.00000000000E+00  0.18913734965E+04  0.18913734965E+04  0.00000000000E+00 0. -1.
         -2   -1    0    0    0  501 -0.00000000000E+00 -0.00000000000E+00 -0.13724534650E+04  0.13724534650E+04  0.00000000000E+00 0.  1.
    2000013    1    1    2    0    0  0.12145345220E+04  0.23223952944E+03 -0.15109270864E+03  0.15666391769E+04  0.95000000000E+03 0.  0.
   -2000013    1    1    2    0    0 -0.12145345220E+04 -0.23223952944E+03  0.67001274010E+03  0.16971877846E+04  0.95000000000E+03 0.  0.
<mgrwt>
<rscale>  0 0.32223110E+04</rscale>
<asrwt>0</asrwt>
<pdfrwt beam="1">  1        2 0.29098054E+00 0.32223110E+04</pdfrwt>
<pdfrwt beam="2">  1       -2 0.21114669E+00 0.32223110E+04</pdfrwt>
<totfact> 0.72655677E-01</totfact>
</mgrwt>
</event>
<event>
 4    1  0.1343107E-008  0.2056621E+04  0.7816531E-02  0.8580597E-01
         -2   -1    0    0    0  501 -0.00000000000E+00  0.00000000000E+00  0.49876420905E+03  0.49876420905E+03  0.00000000000E+00 0. -1.
          2   -1    0    0  501    0  0.00000000000E+00 -0.00000000000E+00 -0.21200855075E+04  0.21200855075E+04  0.00000000000E+00 0.  1.
    2000013    1    1    2    0    0 -0.24821867420E+03 -0.29791121369E+03 -0.72468031367E+03  0.12561947136E+04  0.95000000000E+03 0.  0.
   -2000013    1    1    2    0    0  0.24821867420E+03  0.29791121369E+03 -0.89664098480E+03  0.13626550030E+04  0.95000000000E+03 0.  0.
<mgrwt>
<rscale>  0 0.20566213E+04</rscale>
<asrwt>0</asrwt>
<pdfrwt beam="2">  1        2 0.32616700E+00 0.20566213E+04</pdfrwt>
<pdfrwt beam="1">  1       -2 0.76732955E-01 0.20566213E+04</pdfrwt>
<totfact> 0.80358883E+00</totfact>
</mgrwt>
</event>
<event>
 4    1  0.1343107E-008  0.2062026E+04  0.7816531E-02  0.8578158E-01
          1   -1    0    0  501    0  0.00000000000E+00  0.00000000000E+00  0.18195701108E+04  0.18195701108E+04  0.00000000000E+00 0.  1.
         -1   -1    0    0    0  501 -0.00000000000E+00 -0.00000000000E+00 -0.58419707164E+03  0.58419707164E+03  0.00000000000E+00 0. -1.
    2000013    1    1    2    0    0 -0.45958003227E+02  0.38774317781E+03  0.51322102392E+03  0.11481954230E+04  0.95000000000E+03 0.  0.
   -2000013    1    1    2    0    0  0.45958003227E+02 -0.38774317781E+03  0.72215201522E+03  0.12555717594E+04  0.95000000000E+03 0.  0.
<mgrwt>
<rscale>  0 0.20620257E+04</rscale>
<asrwt>0</asrwt>
<pdfrwt beam="1">  1        1 0.27993386E+00 0.20620257E+04</pdfrwt>
<pdfrwt beam="2">  1       -1 0.89876473E-01 0.20620257E+04</pdfrwt>
<totfact> 0.44166383E+00</totfact>
</mgrwt>
</event>
<event>
 4    1  0.1343107E-008  0.2805191E+04  0.7816531E-02  0.8301659E-01
         -1   -1    0    0    0  501 -0.00000000000E+00  0.00000000000E+00  0.13866674160E+04  0.13866674160E+04  0.00000000000E+00 0. -1.
          1   -1    0    0  501    0  0.00000000000E+00 -0.00000000000E+00 -0.14187066086E+04  0.14187066086E+04  0.00000000000E+00 0.  1.
    2000013    1    1    2    0    0  0.50465487709E+03  0.75794687016E+03 -0.50145235124E+03  0.14082309695E+04  0.95000000000E+03 0.  0.
   -2000013    1    1    2    0    0 -0.50465487709E+03 -0.75794687016E+03  0.46941315858E+03  0.13971430551E+04  0.95000000000E+03 0.  0.
<mgrwt>
<rscale>  0 0.28051911E+04</rscale>
<asrwt>0</asrwt>
<pdfrwt beam="2">  1        1 0.21826255E+00 0.28051911E+04</pdfrwt>
<pdfrwt beam="1">  1       -1 0.21333345E+00 0.28051911E+04</pdfrwt>
<totfact> 0.78719932E-01</totfact>
</mgrwt>
</event>
<event>
 4    1  0.1343107E-008  0.2001672E+04  0.7816531E-02  0.8605839E-01
         -2   -1    0    0    0  501 -0.00000000000E+00  0.00000000000E+00  0.44600544190E+03  0.44600544190E+03  0.00000000000E+00 0. -1.
          2   -1    0    0  501    0  0.00000000000E+00 -0.00000000000E+00 -0.22458760455E+04  0.22458760455E+04  0.00000000000E+00 0.  1.
    2000013    1    1    2    0    0  0.43983750303E+02  0.30580048971E+03 -0.81786372423E+03  0.12910652893E+04  0.95000000000E+03 0.  0.
   -2000013    1    1    2    0    0 -0.43983750303E+02 -0.30580048971E+03 -0.98200687942E+03  0.14008161982E+04  0.95000000000E+03 0.  0.
<mgrwt>
<rscale>  0 0.20016722E+04</rscale>
<asrwt>0</asrwt>
<pdfrwt beam="2">  1        2 0.34551939E+00 0.20016722E+04</pdfrwt>
<pdfrwt beam="1">  1       -2 0.68616221E-01 0.20016722E+04</pdfrwt>
<totfact> 0.87760164E+00</totfact>
</mgrwt>
</event>
<event>
 4    1  0.1343107E-008  0.2570721E+04  0.7816531E-02  0.8378215E-01
         -2   -1    0    0    0  501 -0.00000000000E+00  0.00000000000E+00  0.18759249243E+04  0.18759249243E+04  0.00000000000E+00 0. -1.
          2   -1    0    0  501    0  0.00000000000E+00 -0.00000000000E+00 -0.88071323616E+03  0.88071323616E+03  0.00000000000E+00 0.  1.
    2000013    1    1    2    0    0  0.27984832596E+03 -0.78924283041E+03  0.73359583392E+03  0.14635170578E+04  0.95000000000E+03 0.  0.
   -2000013    1    1    2    0    0 -0.27984832596E+03  0.78924283041E+03  0.26161585418E+03  0.12931211026E+04  0.95000000000E+03 0.  0.
<mgrwt>
<rscale>  0 0.25707212E+04</rscale>
<asrwt>0</asrwt>
<pdfrwt beam="2">  1        2 0.13549434E+00 0.25707212E+04</pdfrwt>
<pdfrwt beam="1">  1       -2 0.28860383E+00 0.25707212E+04</pdfrwt>
<totfact> 0.10000485E+00</totfact>
</mgrwt>
</event>
<event>
 4    1  0.1343107E-008  0.3697912E+04  0.7816531E-02  0.8068425E-01
         -4   -1    0    0    0  501 -0.00000000000E+00  0.00000000000E+00  0.19779085016E+04  0.19779085016E+04  0.00000000000E+00 0.  1.
          4   -1    0    0  501    0  0.00000000000E+00 -0.00000000000E+00 -0.17284102866E+04  0.17284102866E+04  0.00000000000E+00 0. -1.
    2000013    1    1    2    0    0 -0.31872590580E+03 -0.15529651687E+04  0.71238759542E+02  0.18495572387E+04  0.95000000000E+03 0.  0.
   -2000013    1    1    2    0    0  0.31872590580E+03  0.15529651687E+04  0.17825945545E+03  0.18567615495E+04  0.95000000000E+03 0.  0.
<mgrwt>
<rscale>  0 0.36979115E+04</rscale>
<asrwt>0</asrwt>
<pdfrwt beam="2">  1        4 0.26590928E+00 0.36979115E+04</pdfrwt>
<pdfrwt beam="1">  1       -4 0.30429361E+00 0.36979115E+04</pdfrwt>
<totfact> 0.23217675E-03</totfact>
</mgrwt>
</event>
<event>
 4    1  0.1343107E-008  0.2446634E+04  0.7816531E-02  0.8422248E-01
         -2   -1    0    0    0  501 -0.00000000000E+00  0.00000000000E+00  0.11240876071E+04  0.11240876071E+04  0.00000000000E+00 0. -1.
          2   -1    0    0  501    0  0.00000000000E+00 -0.00000000000E+00 -0.13313061023E+04  0.13313061023E+04  0.00000000000E+00 0.  1.
    2000013    1    1    2    0    0  0.54797013794E+03 -0.14812376562E+03 -0.62681324201E+03  0.12718517061E+04  0.95000000000E+03 0.  0.
   -2000013    1    1    2    0    0 -0.54797013794E+03  0.14812376562E+03  0.41959474680E+03  0.11835420033E+04  0.95000000000E+03 0.  0.
<mgrwt>
<rscale>  0 0.24466342E+04</rscale>
<asrwt>0</asrwt>
<pdfrwt beam="2">  1        2 0.20481632E+00 0.24466342E+04</pdfrwt>
<pdfrwt beam="1">  1       -2 0.17293656E+00 0.24466342E+04</pdfrwt>
<totfact> 0.28852907E+00</totfact>
</mgrwt>
</event>
<event>
 4    1  0.1343107E-008  0.2665053E+04  0.7816531E-02  0.8346434E-01
          2   -1    0    0  501    0  0.00000000000E+00  0.00000000000E+00  0.31943620552E+04  0.31943620552E+04  0.00000000000E+00 0.  1.
         -2   -1    0    0    0  501 -0.00000000000E+00 -0.00000000000E+00 -0.55586292618E+03  0.55586292618E+03  0.00000000000E+00 0. -1.
    2000013    1    1    2    0    0 -0.58448242276E+03  0.55294608393E+03  0.19878602739E+04  0.23455186085E+04  0.95000000000E+03 0.  0.
   -2000013    1    1    2    0    0  0.58448242276E+03 -0.55294608393E+03  0.65063885511E+03  0.14047063729E+04  0.95000000000E+03 0.  0.
<mgrwt>
<rscale>  0 0.26650534E+04</rscale>
<asrwt>0</asrwt>
<pdfrwt beam="1">  1        2 0.49144030E+00 0.26650534E+04</pdfrwt>
<pdfrwt beam="2">  1       -2 0.85517375E-01 0.26650534E+04</pdfrwt>
<totfact> 0.13672398E+00</totfact>
</mgrwt>
</event>
<event>
 4    1  0.1343107E-008  0.2475802E+04  0.7816531E-02  0.8411657E-01
         -2   -1    0    0    0  501 -0.00000000000E+00  0.00000000000E+00  0.77096752774E+03  0.77096752774E+03  0.00000000000E+00 0. -1.
          2   -1    0    0  501    0  0.00000000000E+00 -0.00000000000E+00 -0.19876302098E+04  0.19876302098E+04  0.00000000000E+00 0.  1.
    2000013    1    1    2    0    0 -0.75034240172E+03  0.19001865954E+03 -0.41285712450E+03  0.12930861596E+04  0.95000000000E+03 0.  0.
   -2000013    1    1    2    0    0  0.75034240172E+03 -0.19001865954E+03 -0.80380555753E+03  0.14655115780E+04  0.95000000000E+03 0.  0.
<mgrwt>
<rscale>  0 0.24758016E+04</rscale>
<asrwt>0</asrwt>
<pdfrwt beam="2">  1        2 0.30578926E+00 0.24758016E+04</pdfrwt>
<pdfrwt beam="1">  1       -2 0.11861039E+00 0.24758016E+04</pdfrwt>
<totfact> 0.33156982E+00</totfact>
</mgrwt>
</event>
<event>
 4    1  0.1343107E-008  0.2210606E+04  0.7816531E-02  0.8514026E-01
         -2   -1    0    0    0  501 -0.00000000000E+00  0.00000000000E+00  0.12440543082E+04  0.12440543082E+04  0.00000000000E+00 0. -1.
          2   -1    0    0  501    0  0.00000000000E+00 -0.00000000000E+00 -0.98202717219E+03  0.98202717219E+03  0.00000000000E+00 0.  1.
    2000013    1    1    2    0    0  0.33396302810E+03  0.45390057412E+03  0.17177033368E+03  0.11178381291E+04  0.95000000000E+03 0.  0.
   -2000013    1    1    2    0    0 -0.33396302810E+03 -0.45390057412E+03  0.90256802323E+02  0.11082433513E+04  0.95000000000E+03 0.  0.
<mgrwt>
<rscale>  0 0.22106064E+04</rscale>
<asrwt>0</asrwt>
<pdfrwt beam="2">  1        2 0.15108110E+00 0.22106064E+04</pdfrwt>
<pdfrwt beam="1">  1       -2 0.19139297E+00 0.22106064E+04</pdfrwt>
<totfact> 0.35833830E+00</totfact>
</mgrwt>
</event>
<event>
 4    1  0.1343107E-008  0.4008643E+04  0.7816531E-02  0.8002805E-01
          2   -1    0    0  501    0  0.00000000000E+00  0.00000000000E+00  0.27139905536E+04  0.27139905536E+04  0.00000000000E+00 0.  1.
         -2   -1    0    0    0  501 -0.00000000000E+00 -0.00000000000E+00 -0.14802204885E+04  0.14802204885E+04  0.00000000000E+00 0. -1.
    2000013    1    1    2    0    0  0.11927613793E+04  0.11615693431E+04  0.12295525573E+04  0.22773279382E+04  0.95000000000E+03 0.  0.
   -2000013    1    1    2    0    0 -0.11927613793E+04 -0.11615693431E+04  0.42175078064E+01  0.19168831039E+04  0.95000000000E+03 0.  0.
<mgrwt>
<rscale>  0 0.40086429E+04</rscale>
<asrwt>0</asrwt>
<pdfrwt beam="1">  1        2 0.41753701E+00 0.40086429E+04</pdfrwt>
<pdfrwt beam="2">  1       -2 0.22772623E+00 0.40086429E+04</pdfrwt>
<totfact> 0.18140259E-01</totfact>
</mgrwt>
</event>
<event>
 4    1  0.1343107E-008  0.2114889E+04  0.7816531E-02  0.8554713E-01
         -2   -1    0    0    0  501 -0.00000000000E+00  0.00000000000E+00  0.39819846923E+03  0.39819846923E+03  0.00000000000E+00 0. -1.
          2   -1    0    0  501    0  0.00000000000E+00 -0.00000000000E+00 -0.28081186955E+04  0.28081186955E+04  0.00000000000E+00 0.  1.
    2000013    1    1    2    0    0  0.32265293127E+00 -0.13584906809E+03 -0.53165906063E+03  0.10970945402E+04  0.95000000000E+03 0.  0.
   -2000013    1    1    2    0    0 -0.32265293127E+00  0.13584906809E+03 -0.18782611657E+04  0.21092226245E+04  0.95000000000E+03 0.  0.
<mgrwt>
<rscale>  0 0.21148887E+04</rscale>
<asrwt>0</asrwt>
<pdfrwt beam="2">  1        2 0.43201825E+00 0.21148887E+04</pdfrwt>
<pdfrwt beam="1">  1       -2 0.61261304E-01 0.21148887E+04</pdfrwt>
<totfact> 0.52203446E+00</totfact>
</mgrwt>
</event>
<event>
 4    1  0.1343107E-008  0.2414133E+04  0.7816531E-02  0.8434231E-01
         -2   -1    0    0    0  501 -0.00000000000E+00  0.00000000000E+00  0.12703252952E+04  0.12703252952E+04  0.00000000000E+00 0. -1.
          2   -1    0    0  501    0  0.00000000000E+00 -0.00000000000E+00 -0.11469576856E+04  0.11469576856E+04  0.00000000000E+00 0.  1.
    2000013    1    1    2    0    0 -0.37760522876E+03  0.24192328811E+03  0.65693135726E+03  0.12390203365E+04  0.95000000000E+03 0.  0.
   -2000013    1    1    2    0    0  0.37760522876E+03 -0.24192328811E+03 -0.53356374768E+03  0.11782626443E+04  0.95000000000E+03 0.  0.
<mgrwt>
<rscale>  0 0.24141329E+04</rscale>
<asrwt>0</asrwt>
<pdfrwt beam="2">  1        2 0.17645503E+00 0.24141329E+04</pdfrwt>
<pdfrwt beam="1">  1       -2 0.19543466E+00 0.24141329E+04</pdfrwt>
<totfact> 0.26106709E+00</totfact>
</mgrwt>
</event>
<event>
 4    1  0.1343107E-008  0.2727100E+04  0.7816531E-02  0.8326265E-01
         -2   -1    0    0    0  501 -0.00000000000E+00  0.00000000000E+00  0.72185284761E+03  0.72185284761E+03  0.00000000000E+00 0. -1.
          2   -1    0    0  501    0  0.00000000000E+00 -0.00000000000E+00 -0.25756901127E+04  0.25756901127E+04  0.00000000000E+00 0.  1.
    2000013    1    1    2    0    0 -0.38684830133E+03  0.83399247931E+03 -0.52302112481E+03  0.14217053706E+04  0.95000000000E+03 0.  0.
   -2000013    1    1    2    0    0  0.38684830133E+03 -0.83399247931E+03 -0.13308161403E+04  0.18758375897E+04  0.95000000000E+03 0.  0.
<mgrwt>
<rscale>  0 0.27271005E+04</rscale>
<asrwt>0</asrwt>
<pdfrwt beam="2">  1        2 0.39626002E+00 0.27271005E+04</pdfrwt>
<pdfrwt beam="1">  1       -2 0.11105428E+00 0.27271005E+04</pdfrwt>
<totfact> 0.17668190E+00</totfact>
</mgrwt>
</event>
<event>
 4    1  0.1343107E-008  0.2962778E+04  0.7816531E-02  0.8254440E-01
          2   -1    0    0  501    0  0.00000000000E+00  0.00000000000E+00  0.24769979340E+04  0.24769979340E+04  0.00000000000E+00 0.  1.
         -2   -1    0    0    0  501 -0.00000000000E+00 -0.00000000000E+00 -0.88595682333E+03  0.88595682333E+03  0.00000000000E+00 0. -1.
    2000013    1    1    2    0    0  0.62331231180E+03 -0.90677987624E+03  0.47198583909E+03  0.15284104862E+04  0.95000000000E+03 0.  0.
   -2000013    1    1    2    0    0 -0.62331231180E+03  0.90677987624E+03  0.11190552716E+04  0.18345442712E+04  0.95000000000E+03 0.  0.
<mgrwt>
<rscale>  0 0.29627779E+04</rscale>
<asrwt>0</asrwt>
<pdfrwt beam="1">  1        2 0.38107660E+00 0.29627779E+04</pdfrwt>
<pdfrwt beam="2">  1       -2 0.13630105E+00 0.29627779E+04</pdfrwt>
<totfact> 0.11862108E+00</totfact>
</mgrwt>
</event>
<event>
 4    1  0.1343107E-008  0.3206039E+04  0.7816531E-02  0.8187224E-01
         -2   -1    0    0    0  501 -0.00000000000E+00  0.00000000000E+00  0.11797989067E+04  0.11797989067E+04  0.00000000000E+00 0. -1.
          2   -1    0    0  501    0  0.00000000000E+00 -0.00000000000E+00 -0.21780595691E+04  0.21780595691E+04  0.00000000000E+00 0.  1.
    2000013    1    1    2    0    0  0.48280417384E+03  0.11580465129E+04 -0.81853159789E+03  0.17738843178E+04  0.95000000000E+03 0.  0.
   -2000013    1    1    2    0    0 -0.48280417384E+03 -0.11580465129E+04 -0.17972906458E+03  0.15839741579E+04  0.95000000000E+03 0.  0.
<mgrwt>
<rscale>  0 0.32060395E+04</rscale>
<asrwt>0</asrwt>
<pdfrwt beam="2">  1        2 0.33508609E+00 0.32060395E+04</pdfrwt>
<pdfrwt beam="1">  1       -2 0.18150753E+00 0.32060395E+04</pdfrwt>
<totfact> 0.79160653E-01</totfact>
</mgrwt>
</event>
<event>
 4    1  0.1343107E-008  0.2047924E+04  0.7816531E-02  0.8584537E-01
          2   -1    0    0  501    0  0.00000000000E+00  0.00000000000E+00  0.59271279076E+03  0.59271279076E+03  0.00000000000E+00 0.  1.
         -2   -1    0    0    0  501 -0.00000000000E+00 -0.00000000000E+00 -0.17689816081E+04  0.17689816081E+04  0.00000000000E+00 0. -1.
    2000013    1    1    2    0    0  0.35006121721E+03  0.58213691911E+02 -0.42477508174E+03  0.10994842244E+04  0.95000000000E+03 0.  0.
   -2000013    1    1    2    0    0 -0.35006121721E+03 -0.58213691911E+02 -0.75149373556E+03  0.12622101744E+04  0.95000000000E+03 0.  0.
<mgrwt>
<rscale>  0 0.20479239E+04</rscale>
<asrwt>0</asrwt>
<pdfrwt beam="1">  1        2 0.91186583E-01 0.20479239E+04</pdfrwt>
<pdfrwt beam="2">  1       -2 0.27215102E+00 0.20479239E+04</pdfrwt>
<totfact> 0.21909692E+00</totfact>
</mgrwt>
</event>
<event>
 4    1  0.1343107E-008  0.2202693E+04  0.7816531E-02  0.8517308E-01
          2   -1    0    0  501    0  0.00000000000E+00  0.00000000000E+00  0.11910610135E+04  0.11910610135E+04  0.00000000000E+00 0.  1.
         -2   -1    0    0    0  501 -0.00000000000E+00 -0.00000000000E+00 -0.10183896991E+04  0.10183896991E+04  0.00000000000E+00 0. -1.
    2000013    1    1    2    0    0 -0.54941645039E+03 -0.36422767199E+02  0.75560652574E+00  0.10980371692E+04  0.95000000000E+03 0.  0.
   -2000013    1    1    2    0    0  0.54941645039E+03  0.36422767199E+02  0.17191570780E+03  0.11114135434E+04  0.95000000000E+03 0.  0.
<mgrwt>
<rscale>  0 0.22026931E+04</rscale>
<asrwt>0</asrwt>
<pdfrwt beam="1">  1        2 0.18324016E+00 0.22026931E+04</pdfrwt>
<pdfrwt beam="2">  1       -2 0.15667534E+00 0.22026931E+04</pdfrwt>
<totfact> 0.46733614E+00</totfact>
</mgrwt>
</event>
<event>
 4    1  0.1343107E-008  0.2763969E+04  0.7816531E-02  0.8314542E-01
          1   -1    0    0  501    0  0.00000000000E+00  0.00000000000E+00  0.91371118083E+03  0.91371118083E+03  0.00000000000E+00 0.  1.
         -1   -1    0    0    0  501 -0.00000000000E+00 -0.00000000000E+00 -0.20902466284E+04  0.20902466284E+04  0.00000000000E+00 0. -1.
    2000013    1    1    2    0    0  0.56469025847E+03  0.22257140829E+03  0.28049335183E+03  0.11617183997E+04  0.95000000000E+03 0.  0.
   -2000013    1    1    2    0    0 -0.56469025847E+03 -0.22257140829E+03 -0.14570287994E+04  0.18422394096E+04  0.95000000000E+03 0.  0.
<mgrwt>
<rscale>  0 0.27639694E+04</rscale>
<asrwt>0</asrwt>
<pdfrwt beam="1">  1        1 0.14057095E+00 0.27639694E+04</pdfrwt>
<pdfrwt beam="2">  1       -1 0.32157640E+00 0.27639694E+04</pdfrwt>
<totfact> 0.36804036E-01</totfact>
</mgrwt>
</event>
<event>
 4    1  0.1343107E-008  0.2152998E+04  0.7816531E-02  0.8538250E-01
          2   -1    0    0  501    0  0.00000000000E+00  0.00000000000E+00  0.73579137499E+03  0.73579137499E+03  0.00000000000E+00 0.  1.
         -2   -1    0    0    0  501 -0.00000000000E+00 -0.00000000000E+00 -0.15749717033E+04  0.15749717033E+04  0.00000000000E+00 0. -1.
    2000013    1    1    2    0    0 -0.42292839566E+03  0.95717468260E+01 -0.71816669211E+03  0.12638130573E+04  0.95000000000E+03 0.  0.
   -2000013    1    1    2    0    0  0.42292839566E+03 -0.95717468260E+01 -0.12101363616E+03  0.10469500209E+04  0.95000000000E+03 0.  0.
<mgrwt>
<rscale>  0 0.21529985E+04</rscale>
<asrwt>0</asrwt>
<pdfrwt beam="1">  1        2 0.11319867E+00 0.21529985E+04</pdfrwt>
<pdfrwt beam="2">  1       -2 0.24230334E+00 0.21529985E+04</pdfrwt>
<totfact> 0.25276912E+00</totfact>
</mgrwt>
</event>
<event>
 4    1  0.1343107E-008  0.2950792E+04  0.7816531E-02  0.8257924E-01
          2   -1    0    0  501    0  0.00000000000E+00  0.00000000000E+00  0.86431514416E+03  0.86431514416E+03  0.00000000000E+00 0.  1.
         -2   -1    0    0    0  501 -0.00000000000E+00 -0.00000000000E+00 -0.25185179788E+04  0.25185179788E+04  0.00000000000E+00 0. -1.
    2000013    1    1    2    0    0  0.68891742493E+03  0.85077786587E+03 -0.11428614039E+04  0.18458229558E+04  0.95000000000E+03 0.  0.
   -2000013    1    1    2    0    0 -0.68891742493E+03 -0.85077786587E+03 -0.51134143077E+03  0.15370101673E+04  0.95000000000E+03 0.  0.
<mgrwt>
<rscale>  0 0.29507919E+04</rscale>
<asrwt>0</asrwt>
<pdfrwt beam="1">  1        2 0.13297156E+00 0.29507919E+04</pdfrwt>
<pdfrwt beam="2">  1       -2 0.38746431E+00 0.29507919E+04</pdfrwt>
<totfact> 0.23870892E-01</totfact>
</mgrwt>
</event>
<event>
 4    1  0.1343107E-008  0.2967411E+04  0.7816531E-02  0.8253099E-01
          2   -1    0    0  501    0  0.00000000000E+00  0.00000000000E+00  0.12635987789E+04  0.12635987789E+04  0.00000000000E+00 0.  1.
         -2   -1    0    0    0  501 -0.00000000000E+00 -0.00000000000E+00 -0.17421523435E+04  0.17421523435E+04  0.00000000000E+00 0. -1.
    2000013    1    1    2    0    0 -0.61210077730E+03 -0.74197818678E+03 -0.85847084991E+03  0.16014590820E+04  0.95000000000E+03 0.  0.
   -2000013    1    1    2    0    0  0.61210077730E+03  0.74197818678E+03  0.37991728529E+03  0.14042920405E+04  0.95000000000E+03 0.  0.
<mgrwt>
<rscale>  0 0.29674107E+04</rscale>
<asrwt>0</asrwt>
<pdfrwt beam="1">  1        2 0.19439981E+00 0.29674107E+04</pdfrwt>
<pdfrwt beam="2">  1       -2 0.26802344E+00 0.29674107E+04</pdfrwt>
<totfact> 0.74269353E-01</totfact>
</mgrwt>
</event>
<event>
 4    1  0.1343107E-008  0.2277758E+04  0.7816531E-02  0.8486743E-01
         -2   -1    0    0    0  501 -0.00000000000E+00  0.00000000000E+00  0.14817479961E+04  0.14817479961E+04  0.00000000000E+00 0. -1.
          2   -1    0    0  501    0  0.00000000000E+00 -0.00000000000E+00 -0.87534817072E+03  0.87534817072E+03  0.00000000000E+00 0.  1.
    2000013    1    1    2    0    0 -0.31726825042E+03 -0.32308391713E+03  0.75368228900E+03  0.12944417148E+04  0.95000000000E+03 0.  0.
   -2000013    1    1    2    0    0  0.31726825042E+03  0.32308391713E+03 -0.14728246366E+03  0.10626544520E+04  0.95000000000E+03 0.  0.
<mgrwt>
<rscale>  0 0.22777580E+04</rscale>
<asrwt>0</asrwt>
<pdfrwt beam="2">  1        2 0.13466895E+00 0.22777580E+04</pdfrwt>
<pdfrwt beam="1">  1       -2 0.22796123E+00 0.22777580E+04</pdfrwt>
<totfact> 0.24369074E+00</totfact>
</mgrwt>
</event>
<event>
 4    1  0.1343107E-008  0.2803144E+04  0.7816531E-02  0.8302293E-01
         -2   -1    0    0    0  501 -0.00000000000E+00  0.00000000000E+00  0.41018467208E+03  0.41018467208E+03  0.00000000000E+00 0. -1.
          2   -1    0    0  501    0  0.00000000000E+00 -0.00000000000E+00 -0.47890707045E+04  0.47890707045E+04  0.00000000000E+00 0.  1.
    2000013    1    1    2    0    0 -0.11907661608E+03  0.99410166143E+03 -0.17370630591E+04  0.22186269233E+04  0.95000000000E+03 0.  0.
   -2000013    1    1    2    0    0  0.11907661608E+03 -0.99410166143E+03 -0.26418229733E+04  0.29806284532E+04  0.95000000000E+03 0.  0.
<mgrwt>
<rscale>  0 0.28031435E+04</rscale>
<asrwt>0</asrwt>
<pdfrwt beam="2">  1        2 0.73678013E+00 0.28031435E+04</pdfrwt>
<pdfrwt beam="1">  1       -2 0.63105333E-01 0.28031435E+04</pdfrwt>
<totfact> 0.12420200E-01</totfact>
</mgrwt>
</event>
<event>
 4    1  0.1343107E-008  0.2190054E+04  0.7816531E-02  0.8522579E-01
         -1   -1    0    0    0  501 -0.00000000000E+00  0.00000000000E+00  0.33626501231E+03  0.33626501231E+03  0.00000000000E+00 0. -1.
          1   -1    0    0  501    0  0.00000000000E+00 -0.00000000000E+00 -0.35658906365E+04  0.35658906365E+04  0.00000000000E+00 0.  1.
    2000013    1    1    2    0    0  0.31116703890E+03  0.23962802737E+03 -0.94259537033E+03  0.13947159387E+04  0.95000000000E+03 0.  0.
   -2000013    1    1    2    0    0 -0.31116703890E+03 -0.23962802737E+03 -0.22870302539E+04  0.25074397101E+04  0.95000000000E+03 0.  0.
<mgrwt>
<rscale>  0 0.21900541E+04</rscale>
<asrwt>0</asrwt>
<pdfrwt beam="2">  1        1 0.54859856E+00 0.21900541E+04</pdfrwt>
<pdfrwt beam="1">  1       -1 0.51733079E-01 0.21900541E+04</pdfrwt>
<totfact> 0.76258140E-01</totfact>
</mgrwt>
</event>
<event>
 4    1  0.1343107E-008  0.2198495E+04  0.7816531E-02  0.8519055E-01
          2   -1    0    0  501    0  0.00000000000E+00  0.00000000000E+00  0.11208351077E+04  0.11208351077E+04  0.00000000000E+00 0.  1.
         -2   -1    0    0    0  501 -0.00000000000E+00 -0.00000000000E+00 -0.10780753434E+04  0.10780753434E+04  0.00000000000E+00 0. -1.
    2000013    1    1    2    0    0  0.42781300089E+03 -0.32374632498E+03  0.15560305298E+03  0.11020653142E+04  0.95000000000E+03 0.  0.
   -2000013    1    1    2    0    0 -0.42781300089E+03  0.32374632498E+03 -0.11284328869E+03  0.10968451370E+04  0.95000000000E+03 0.  0.
<mgrwt>
<rscale>  0 0.21984947E+04</rscale>
<asrwt>0</asrwt>
<pdfrwt beam="1">  1        2 0.17243617E+00 0.21984947E+04</pdfrwt>
<pdfrwt beam="2">  1       -2 0.16585775E+00 0.21984947E+04</pdfrwt>
<totfact> 0.44129726E+00</totfact>
</mgrwt>
</event>
<event>
 4    1  0.1343107E-008  0.2840761E+04  0.7816531E-02  0.8290724E-01
          2   -1    0    0  501    0  0.00000000000E+00  0.00000000000E+00  0.18278247540E+04  0.18278247540E+04  0.00000000000E+00 0.  1.
         -2   -1    0    0    0  501 -0.00000000000E+00 -0.00000000000E+00 -0.11037607380E+04  0.11037607380E+04  0.00000000000E+00 0. -1.
    2000013    1    1    2    0    0  0.89183851709E+03  0.82380559099E+02 -0.21515184771E+03  0.13232357366E+04  0.95000000000E+03 0.  0.
   -2000013    1    1    2    0    0 -0.89183851709E+03 -0.82380559099E+02  0.93921586371E+03  0.16083497554E+04  0.95000000000E+03 0.  0.
<mgrwt>
<rscale>  0 0.28407613E+04</rscale>
<asrwt>0</asrwt>
<pdfrwt beam="1">  1        2 0.28120381E+00 0.28407613E+04</pdfrwt>
<pdfrwt beam="2">  1       -2 0.16980934E+00 0.28407613E+04</pdfrwt>
<totfact> 0.15442605E+00</totfact>
</mgrwt>
</event>
<event>
 4    1  0.1343107E-008  0.3196110E+04  0.7816531E-02  0.8189845E-01
         -1   -1    0    0    0  501 -0.00000000000E+00  0.00000000000E+00  0.54453955081E+03  0.54453955081E+03  0.00000000000E+00 0. -1.
          1   -1    0    0  501    0  0.00000000000E+00 -0.00000000000E+00 -0.46897967444E+04  0.46897967444E+04  0.00000000000E+00 0.  1.
    2000013    1    1    2    0    0  0.30301987417E+03  0.98695876559E+03 -0.33256415583E+04  0.36094737045E+04  0.95000000000E+03 0.  0.
   -2000013    1    1    2    0    0 -0.30301987417E+03 -0.98695876559E+03 -0.81961563529E+03  0.16248625907E+04  0.95000000000E+03 0.  0.
<mgrwt>
<rscale>  0 0.31961100E+04</rscale>
<asrwt>0</asrwt>
<pdfrwt beam="2">  1        1 0.72150718E+00 0.31961100E+04</pdfrwt>
<pdfrwt beam="1">  1       -1 0.83775316E-01 0.31961100E+04</pdfrwt>
<totfact> 0.23850068E-02</totfact>
</mgrwt>
</event>
<event>
 4    1  0.1343107E-008  0.4812704E+04  0.7816531E-02  0.7858067E-01
         -2   -1    0    0    0  501 -0.00000000000E+00  0.00000000000E+00  0.12447836549E+04  0.12447836549E+04  0.00000000000E+00 0. -1.
          2   -1    0    0  501    0  0.00000000000E+00 -0.00000000000E+00 -0.46518364722E+04  0.46518364722E+04  0.00000000000E+00 0.  1.
    2000013    1    1    2    0    0  0.12623739607E+03  0.20402542847E+04 -0.27355197780E+04  0.35445933310E+04  0.95000000000E+03 0.  0.
   -2000013    1    1    2    0    0 -0.12623739607E+03 -0.20402542847E+04 -0.67153303934E+03  0.23520267961E+04  0.95000000000E+03 0.  0.
<mgrwt>
<rscale>  0 0.48127040E+04</rscale>
<asrwt>0</asrwt>
<pdfrwt beam="2">  1        2 0.71566714E+00 0.48127040E+04</pdfrwt>
<pdfrwt beam="1">  1       -2 0.19150518E+00 0.48127040E+04</pdfrwt>
<totfact> 0.95530738E-03</totfact>
</mgrwt>
</event>
<event>
 4    1  0.1343107E-008  0.3171272E+04  0.7816531E-02  0.8196446E-01
          2   -1    0    0  501    0  0.00000000000E+00  0.00000000000E+00  0.12069200830E+04  0.12069200830E+04  0.00000000000E+00 0.  1.
         -2   -1    0    0    0  501 -0.00000000000E+00 -0.00000000000E+00 -0.20831875894E+04  0.20831875894E+04  0.00000000000E+00 0. -1.
    2000013    1    1    2    0    0  0.10633901122E+04 -0.38936180707E+02  0.28021878836E+03  0.14537321370E+04  0.95000000000E+03 0.  0.
   -2000013    1    1    2    0    0 -0.10633901122E+04  0.38936180707E+02 -0.11564862947E+04  0.18363755353E+04  0.95000000000E+03 0.  0.
<mgrwt>
<rscale>  0 0.31712716E+04</rscale>
<asrwt>0</asrwt>
<pdfrwt beam="1">  1        2 0.18568002E+00 0.31712716E+04</pdfrwt>
<pdfrwt beam="2">  1       -2 0.32049039E+00 0.31712716E+04</pdfrwt>
<totfact> 0.37645842E-01</totfact>
</mgrwt>
</event>
<event>
 4    1  0.1343107E-008  0.2771616E+04  0.7816531E-02  0.8312135E-01
         -2   -1    0    0    0  501 -0.00000000000E+00  0.00000000000E+00  0.83880177397E+03  0.83880177397E+03  0.00000000000E+00 0.  1.
          2   -1    0    0  501    0  0.00000000000E+00 -0.00000000000E+00 -0.22895325083E+04  0.22895325083E+04  0.00000000000E+00 0. -1.
    2000013    1    1    2    0    0 -0.75167111225E+03 -0.54774145425E+03 -0.28396592987E+03  0.13594729902E+04  0.95000000000E+03 0.  0.
   -2000013    1    1    2    0    0  0.75167111225E+03  0.54774145425E+03 -0.11667648044E+04  0.17688612921E+04  0.95000000000E+03 0.  0.
<mgrwt>
<rscale>  0 0.27716161E+04</rscale>
<asrwt>0</asrwt>
<pdfrwt beam="2">  1        2 0.35223577E+00 0.27716161E+04</pdfrwt>
<pdfrwt beam="1">  1       -2 0.12904643E+00 0.27716161E+04</pdfrwt>
<totfact> 0.17734887E+00</totfact>
</mgrwt>
</event>
<event>
 4    1  0.1343107E-008  0.2336429E+04  0.7816531E-02  0.8463695E-01
          2   -1    0    0  501    0  0.00000000000E+00  0.00000000000E+00  0.33937610722E+04  0.33937610722E+04  0.00000000000E+00 0.  1.
         -2   -1    0    0    0  501 -0.00000000000E+00 -0.00000000000E+00 -0.40212773321E+03  0.40212773321E+03  0.00000000000E+00 0. -1.
    2000013    1    1    2    0    0 -0.64882891143E+03  0.17844524403E+03  0.16533644178E+04  0.20221116585E+04  0.95000000000E+03 0.  0.
   -2000013    1    1    2    0    0  0.64882891143E+03 -0.17844524403E+03  0.13382689212E+04  0.17737771469E+04  0.95000000000E+03 0.  0.
<mgrwt>
<rscale>  0 0.23364293E+04</rscale>
<asrwt>0</asrwt>
<pdfrwt beam="1">  1        2 0.52211707E+00 0.23364293E+04</pdfrwt>
<pdfrwt beam="2">  1       -2 0.61865807E-01 0.23364293E+04</pdfrwt>
<totfact> 0.21162202E+00</totfact>
</mgrwt>
</event>
<event>
 4    1  0.1343107E-008  0.2157344E+04  0.7816531E-02  0.8536395E-01
         -2   -1    0    0    0  501 -0.00000000000E+00  0.00000000000E+00  0.32839040810E+03  0.32839040810E+03  0.00000000000E+00 0.  1.
          2   -1    0    0  501    0  0.00000000000E+00 -0.00000000000E+00 -0.35431400286E+04  0.35431400286E+04  0.00000000000E+00 0. -1.
    2000013    1    1    2    0    0  0.43823075664E+03 -0.16578358283E+03 -0.19729713112E+04  0.22393405698E+04  0.95000000000E+03 0.  0.
   -2000013    1    1    2    0    0 -0.43823075664E+03  0.16578358283E+03 -0.12417783093E+04  0.16321898670E+04  0.95000000000E+03 0.  0.
<mgrwt>
<rscale>  0 0.21573439E+04</rscale>
<asrwt>0</asrwt>
<pdfrwt beam="2">  1        2 0.54509846E+00 0.21573439E+04</pdfrwt>
<pdfrwt beam="1">  1       -2 0.50521602E-01 0.21573439E+04</pdfrwt>
<totfact> 0.25868099E+00</totfact>
</mgrwt>
</event>
<event>
 4    1  0.1343107E-008  0.2671234E+04  0.7816531E-02  0.8344399E-01
         -2   -1    0    0    0  501 -0.00000000000E+00  0.00000000000E+00  0.84883219174E+03  0.84883219174E+03  0.00000000000E+00 0. -1.
          2   -1    0    0  501    0  0.00000000000E+00 -0.00000000000E+00 -0.21015615219E+04  0.21015615219E+04  0.00000000000E+00 0.  1.
    2000013    1    1    2    0    0 -0.92227170843E+03  0.16604638998E+03 -0.68900645567E+03  0.15017943946E+04  0.95000000000E+03 0.  0.
   -2000013    1    1    2    0    0  0.92227170843E+03 -0.16604638998E+03 -0.56372287451E+03  0.14485993190E+04  0.95000000000E+03 0.  0.
<mgrwt>
<rscale>  0 0.26712342E+04</rscale>
<asrwt>0</asrwt>
<pdfrwt beam="2">  1        2 0.32331715E+00 0.26712342E+04</pdfrwt>
<pdfrwt beam="1">  1       -2 0.13058957E+00 0.26712342E+04</pdfrwt>
<totfact> 0.22139664E+00</totfact>
</mgrwt>
</event>
<event>
 4    1  0.1343107E-008  0.2109543E+04  0.7816531E-02  0.8557051E-01
         -1   -1    0    0    0  501 -0.00000000000E+00  0.00000000000E+00  0.75230419423E+03  0.75230419423E+03  0.00000000000E+00 0. -1.
          1   -1    0    0  501    0  0.00000000000E+00 -0.00000000000E+00 -0.14788464796E+04  0.14788464796E+04  0.00000000000E+00 0.  1.
    2000013    1    1    2    0    0  0.37345014009E+03  0.22747088483E+03 -0.50842096095E+03  0.11628412979E+04  0.95000000000E+03 0.  0.
   -2000013    1    1    2    0    0 -0.37345014009E+03 -0.22747088483E+03 -0.21812132445E+03  0.10683093760E+04  0.95000000000E+03 0.  0.
<mgrwt>
<rscale>  0 0.21095425E+04</rscale>
<asrwt>0</asrwt>
<pdfrwt beam="2">  1        1 0.22751484E+00 0.21095425E+04</pdfrwt>
<pdfrwt beam="1">  1       -1 0.11573911E+00 0.21095425E+04</pdfrwt>
<totfact> 0.42028839E+00</totfact>
</mgrwt>
</event>
<event>
 4    1  0.1343107E-008  0.2380830E+04  0.7816531E-02  0.8446716E-01
         -2   -1    0    0    0  501 -0.00000000000E+00  0.00000000000E+00  0.13720820715E+04  0.13720820715E+04  0.00000000000E+00 0.  1.
          2   -1    0    0  501    0  0.00000000000E+00 -0.00000000000E+00 -0.10328007067E+04  0.10328007067E+04  0.00000000000E+00 0. -1.
    2000013    1    1    2    0    0 -0.21022599413E+03  0.53736357222E+03  0.60013031291E+03  0.12631749561E+04  0.95000000000E+03 0.  0.
   -2000013    1    1    2    0    0  0.21022599413E+03 -0.53736357222E+03 -0.26084894807E+03  0.11417078221E+04  0.95000000000E+03 0.  0.
<mgrwt>
<rscale>  0 0.23808295E+04</rscale>
<asrwt>0</asrwt>
<pdfrwt beam="2">  1        2 0.15889242E+00 0.23808295E+04</pdfrwt>
<pdfrwt beam="1">  1       -2 0.21108955E+00 0.23808295E+04</pdfrwt>
<totfact> 0.24352373E+00</totfact>
</mgrwt>
</event>
<event>
 4    1  0.1343107E-008  0.2961084E+04  0.7816531E-02  0.8254932E-01
          2   -1    0    0  501    0  0.00000000000E+00  0.00000000000E+00  0.36236043094E+04  0.36236043094E+04  0.00000000000E+00 0.  1.
         -2   -1    0    0    0  501 -0.00000000000E+00 -0.00000000000E+00 -0.60492389080E+03  0.60492389080E+03  0.00000000000E+00 0. -1.
    2000013    1    1    2    0    0  0.32766200612E+03  0.41916242932E+03  0.76711769533E+02  0.10915329716E+04  0.95000000000E+03 0.  0.
   -2000013    1    1    2    0    0 -0.32766200612E+03 -0.41916242932E+03  0.29419686491E+04  0.31369952287E+04  0.95000000000E+03 0.  0.
<mgrwt>
<rscale>  0 0.29610841E+04</rscale>
<asrwt>0</asrwt>
<pdfrwt beam="1">  1        2 0.55747757E+00 0.29610841E+04</pdfrwt>
<pdfrwt beam="2">  1       -2 0.93065216E-01 0.29610841E+04</pdfrwt>
<totfact> 0.55709256E-01</totfact>
</mgrwt>
</event>
<event>
 4    1  0.1343107E-008  0.2204625E+04  0.7816531E-02  0.8516506E-01
          2   -1    0    0  501    0  0.00000000000E+00  0.00000000000E+00  0.14658288089E+04  0.14658288089E+04  0.00000000000E+00 0.  1.
         -2   -1    0    0    0  501 -0.00000000000E+00 -0.00000000000E+00 -0.82894580760E+03  0.82894580760E+03  0.00000000000E+00 0. -1.
    2000013    1    1    2    0    0  0.19239491939E+03  0.14349204161E+03  0.84405227426E+03  0.12932633192E+04  0.95000000000E+03 0.  0.
   -2000013    1    1    2    0    0 -0.19239491939E+03 -0.14349204161E+03 -0.20716927296E+03  0.10015112973E+04  0.95000000000E+03 0.  0.
<mgrwt>
<rscale>  0 0.22046248E+04</rscale>
<asrwt>0</asrwt>
<pdfrwt beam="1">  1        2 0.22551212E+00 0.22046248E+04</pdfrwt>
<pdfrwt beam="2">  1       -2 0.12753012E+00 0.22046248E+04</pdfrwt>
<totfact> 0.55295070E+00</totfact>
</mgrwt>
</event>
<event>
 4    1  0.1343107E-008  0.2376940E+04  0.7816531E-02  0.8448187E-01
          2   -1    0    0  501    0  0.00000000000E+00  0.00000000000E+00  0.26827326962E+04  0.26827326962E+04  0.00000000000E+00 0.  1.
         -2   -1    0    0    0  501 -0.00000000000E+00 -0.00000000000E+00 -0.52650099807E+03  0.52650099807E+03  0.00000000000E+00 0. -1.
    2000013    1    1    2    0    0  0.36185067474E+03  0.45857937113E+03  0.52351589013E+03  0.12319901938E+04  0.95000000000E+03 0.  0.
   -2000013    1    1    2    0    0 -0.36185067474E+03 -0.45857937113E+03  0.16327158080E+04  0.19772435005E+04  0.95000000000E+03 0.  0.
<mgrwt>
<rscale>  0 0.23769404E+04</rscale>
<asrwt>0</asrwt>
<pdfrwt beam="1">  1        2 0.41272810E+00 0.23769404E+04</pdfrwt>
<pdfrwt beam="2">  1       -2 0.81000155E-01 0.23769404E+04</pdfrwt>
<totfact> 0.32928976E+00</totfact>
</mgrwt>
</event>
<event>
 4    1  0.1343107E-008  0.2293209E+04  0.7816531E-02  0.8480604E-01
         -2   -1    0    0    0  501 -0.00000000000E+00  0.00000000000E+00  0.10513953828E+04  0.10513953828E+04  0.00000000000E+00 0. -1.
          2   -1    0    0  501    0  0.00000000000E+00 -0.00000000000E+00 -0.12504348486E+04  0.12504348486E+04  0.00000000000E+00 0.  1.
    2000013    1    1    2    0    0 -0.53193706875E+03  0.15705464682E+03 -0.42412110241E+03  0.11789834251E+04  0.95000000000E+03 0.  0.
   -2000013    1    1    2    0    0  0.53193706875E+03 -0.15705464682E+03  0.22508163660E+03  0.11228468063E+04  0.95000000000E+03 0.  0.
<mgrwt>
<rscale>  0 0.22932086E+04</rscale>
<asrwt>0</asrwt>
<pdfrwt beam="2">  1        2 0.19237459E+00 0.22932086E+04</pdfrwt>
<pdfrwt beam="1">  1       -2 0.16175314E+00 0.22932086E+04</pdfrwt>
<totfact> 0.39210345E+00</totfact>
</mgrwt>
</event>
<event>
 4    1  0.1343107E-008  0.2054835E+04  0.7816531E-02  0.8581404E-01
          2   -1    0    0  501    0  0.00000000000E+00  0.00000000000E+00  0.76683342661E+03  0.76683342661E+03  0.00000000000E+00 0.  1.
         -2   -1    0    0    0  501 -0.00000000000E+00 -0.00000000000E+00 -0.13765522466E+04  0.13765522466E+04  0.00000000000E+00 0. -1.
    2000013    1    1    2    0    0 -0.38264347950E+03  0.36865796047E+02 -0.22884113291E+03  0.10500682756E+04  0.95000000000E+03 0.  0.
   -2000013    1    1    2    0    0  0.38264347950E+03 -0.36865796047E+02 -0.38087768704E+03  0.10933173976E+04  0.95000000000E+03 0.  0.
<mgrwt>
<rscale>  0 0.20548346E+04</rscale>
<asrwt>0</asrwt>
<pdfrwt beam="1">  1        2 0.11797437E+00 0.20548346E+04</pdfrwt>
<pdfrwt beam="2">  1       -2 0.21177727E+00 0.20548346E+04</pdfrwt>
<totfact> 0.37561679E+00</totfact>
</mgrwt>
</event>
<event>
 4    1  0.1343107E-008  0.2049284E+04  0.7816531E-02  0.8583919E-01
         -2   -1    0    0    0  501 -0.00000000000E+00  0.00000000000E+00  0.35726328469E+03  0.35726328469E+03  0.00000000000E+00 0. -1.
          2   -1    0    0  501    0  0.00000000000E+00 -0.00000000000E+00 -0.29387046078E+04  0.29387046078E+04  0.00000000000E+00 0.  1.
    2000013    1    1    2    0    0 -0.15697901989E+03  0.16377373218E+03 -0.17888605015E+04  0.20381330039E+04  0.95000000000E+03 0.  0.
   -2000013    1    1    2    0    0  0.15697901989E+03 -0.16377373218E+03 -0.79258082164E+03  0.12578348886E+04  0.95000000000E+03 0.  0.
<mgrwt>
<rscale>  0 0.20492840E+04</rscale>
<asrwt>0</asrwt>
<pdfrwt beam="2">  1        2 0.45210838E+00 0.20492840E+04</pdfrwt>
<pdfrwt beam="1">  1       -2 0.54963585E-01 0.20492840E+04</pdfrwt>
<totfact> 0.54876532E+00</totfact>
</mgrwt>
</event>
<event>
 4    1  0.1343107E-008  0.2012767E+04  0.7816531E-02  0.8600675E-01
          2   -1    0    0  501    0  0.00000000000E+00  0.00000000000E+00  0.21152400188E+04  0.21152400188E+04  0.00000000000E+00 0.  1.
         -2   -1    0    0    0  501 -0.00000000000E+00 -0.00000000000E+00 -0.47881438137E+03  0.47881438137E+03  0.00000000000E+00 0. -1.
    2000013    1    1    2    0    0  0.24096381947E+03  0.73870133721E+02  0.53944144197E+03  0.11211678858E+04  0.95000000000E+03 0.  0.
   -2000013    1    1    2    0    0 -0.24096381947E+03 -0.73870133721E+02  0.10969841955E+04  0.14728865143E+04  0.95000000000E+03 0.  0.
<mgrwt>
<rscale>  0 0.20127666E+04</rscale>
<asrwt>0</asrwt>
<pdfrwt beam="1">  1        2 0.32542154E+00 0.20127666E+04</pdfrwt>
<pdfrwt beam="2">  1       -2 0.73663752E-01 0.20127666E+04</pdfrwt>
<totfact> 0.88852187E+00</totfact>
</mgrwt>
</event>
<event>
 4    1  0.1343107E-008  0.2048718E+04  0.7816531E-02  0.8584176E-01
         -1   -1    0    0    0  501 -0.00000000000E+00  0.00000000000E+00  0.20472813680E+04  0.20472813680E+04  0.00000000000E+00 0. -1.
          1   -1    0    0  501    0  0.00000000000E+00 -0.00000000000E+00 -0.51253869677E+03  0.51253869677E+03  0.00000000000E+00 0.  1.
    2000013    1    1    2    0    0  0.22063109952E+03  0.28444109763E+03  0.60338000846E+03  0.11815888687E+04  0.95000000000E+03 0.  0.
   -2000013    1    1    2    0    0 -0.22063109952E+03 -0.28444109763E+03  0.93136266272E+03  0.13782311960E+04  0.95000000000E+03 0.  0.
<mgrwt>
<rscale>  0 0.20487176E+04</rscale>
<asrwt>0</asrwt>
<pdfrwt beam="2">  1        1 0.78852108E-01 0.20487176E+04</pdfrwt>
<pdfrwt beam="1">  1       -1 0.31496636E+00 0.20487176E+04</pdfrwt>
<totfact> 0.10451478E+00</totfact>
</mgrwt>
</event>
<event>
 4    1  0.1343107E-008  0.2074145E+04  0.7816531E-02  0.8572719E-01
          2   -1    0    0  501    0  0.00000000000E+00  0.00000000000E+00  0.58566461139E+03  0.58566461139E+03  0.00000000000E+00 0.  1.
         -2   -1    0    0    0  501 -0.00000000000E+00 -0.00000000000E+00 -0.18364084683E+04  0.18364084683E+04  0.00000000000E+00 0. -1.
    2000013    1    1    2    0    0 -0.30763372321E+03  0.25571420703E+03 -0.75847024298E+03  0.12797677027E+04  0.95000000000E+03 0.  0.
   -2000013    1    1    2    0    0  0.30763372321E+03 -0.25571420703E+03 -0.49227361387E+03  0.11423053770E+04  0.95000000000E+03 0.  0.
<mgrwt>
<rscale>  0 0.20741451E+04</rscale>
<asrwt>0</asrwt>
<pdfrwt beam="1">  1        2 0.90102250E-01 0.20741451E+04</pdfrwt>
<pdfrwt beam="2">  1       -2 0.28252437E+00 0.20741451E+04</pdfrwt>
<totfact> 0.19176464E+00</totfact>
</mgrwt>
</event>
<event>
 4    1  0.1343107E-008  0.4124780E+04  0.7816531E-02  0.7979837E-01
         -2   -1    0    0    0  501 -0.00000000000E+00  0.00000000000E+00  0.17606555246E+04  0.17606555246E+04  0.00000000000E+00 0. -1.
          2   -1    0    0  501    0  0.00000000000E+00 -0.00000000000E+00 -0.24158347265E+04  0.24158347265E+04  0.00000000000E+00 0.  1.
    2000013    1    1    2    0    0 -0.12355496224E+04  0.13236325333E+04 -0.59997283290E+03  0.21309747425E+04  0.95000000000E+03 0.  0.
   -2000013    1    1    2    0    0  0.12355496224E+04 -0.13236325333E+04 -0.55206368997E+02  0.20455155086E+04  0.95000000000E+03 0.  0.
<mgrwt>
<rscale>  0 0.41247801E+04</rscale>
<asrwt>0</asrwt>
<pdfrwt beam="2">  1        2 0.37166688E+00 0.41247801E+04</pdfrwt>
<pdfrwt beam="1">  1       -2 0.27087008E+00 0.41247801E+04</pdfrwt>
<totfact> 0.14557778E-01</totfact>
</mgrwt>
</event>
<event>
 4    1  0.1343107E-008  0.2738843E+04  0.7816531E-02  0.8322511E-01
          2   -1    0    0  501    0  0.00000000000E+00  0.00000000000E+00  0.29742534071E+04  0.29742534071E+04  0.00000000000E+00 0.  1.
         -2   -1    0    0    0  501 -0.00000000000E+00 -0.00000000000E+00 -0.63051624575E+03  0.63051624575E+03  0.00000000000E+00 0. -1.
    2000013    1    1    2    0    0  0.67949139199E+03 -0.25989862219E+03  0.29529936057E+03  0.12324599620E+04  0.95000000000E+03 0.  0.
   -2000013    1    1    2    0    0 -0.67949139199E+03  0.25989862219E+03  0.20484378007E+04  0.23723096908E+04  0.95000000000E+03 0.  0.
<mgrwt>
<rscale>  0 0.27388429E+04</rscale>
<asrwt>0</asrwt>
<pdfrwt beam="1">  1        2 0.45757744E+00 0.27388429E+04</pdfrwt>
<pdfrwt beam="2">  1       -2 0.97002501E-01 0.27388429E+04</pdfrwt>
<totfact> 0.14019929E+00</totfact>
</mgrwt>
</event>
<event>
 4    1  0.1343107E-008  0.2817236E+04  0.7816531E-02  0.8297937E-01
          1   -1    0    0  501    0  0.00000000000E+00  0.00000000000E+00  0.21061753786E+04  0.21061753786E+04  0.00000000000E+00 0.  1.
         -1   -1    0    0    0  501 -0.00000000000E+00 -0.00000000000E+00 -0.94208900783E+03  0.94208900783E+03  0.00000000000E+00 0. -1.
    2000013    1    1    2    0    0  0.83083791013E+03 -0.21167157749E+03 -0.54970567038E+02  0.12808662119E+04  0.95000000000E+03 0.  0.
   -2000013    1    1    2    0    0 -0.83083791013E+03  0.21167157749E+03  0.12190569378E+04  0.17673981745E+04  0.95000000000E+03 0.  0.
<mgrwt>
<rscale>  0 0.28172360E+04</rscale>
<asrwt>0</asrwt>
<pdfrwt beam="1">  1        1 0.32402698E+00 0.28172360E+04</pdfrwt>
<pdfrwt beam="2">  1       -1 0.14493677E+00 0.28172360E+04</pdfrwt>
<totfact> 0.83446314E-01</totfact>
</mgrwt>
</event>
<event>
 4    1  0.1343107E-008  0.2327567E+04  0.7816531E-02  0.8467130E-01
         -2   -1    0    0    0  501 -0.00000000000E+00  0.00000000000E+00  0.13645667759E+04  0.13645667759E+04  0.00000000000E+00 0. -1.
          2   -1    0    0  501    0  0.00000000000E+00 -0.00000000000E+00 -0.99254402836E+03  0.99254402836E+03  0.00000000000E+00 0.  1.
    2000013    1    1    2    0    0 -0.38408292245E+03 -0.41902126162E+03 -0.17742274266E+03  0.11211946034E+04  0.95000000000E+03 0.  0.
   -2000013    1    1    2    0    0  0.38408292245E+03  0.41902126162E+03  0.54944549024E+03  0.12359162009E+04  0.95000000000E+03 0.  0.
<mgrwt>
<rscale>  0 0.23275675E+04</rscale>
<asrwt>0</asrwt>
<pdfrwt beam="2">  1        2 0.15269908E+00 0.23275675E+04</pdfrwt>
<pdfrwt beam="1">  1       -2 0.20993335E+00 0.23275675E+04</pdfrwt>
<totfact> 0.26401254E+00</totfact>
</mgrwt>
</event>
<event>
 4    1  0.1343107E-008  0.2281357E+04  0.7816531E-02  0.8485308E-01
         -2   -1    0    0    0  501 -0.00000000000E+00  0.00000000000E+00  0.10495401389E+04  0.10495401389E+04  0.00000000000E+00 0. -1.
          2   -1    0    0  501    0  0.00000000000E+00 -0.00000000000E+00 -0.12397314457E+04  0.12397314457E+04  0.00000000000E+00 0.  1.
    2000013    1    1    2    0    0  0.48266387161E+03  0.40329893899E+03 -0.39827673259E+02  0.11400441617E+04  0.95000000000E+03 0.  0.
   -2000013    1    1    2    0    0 -0.48266387161E+03 -0.40329893899E+03 -0.15036363353E+03  0.11492274228E+04  0.95000000000E+03 0.  0.
<mgrwt>
<rscale>  0 0.22813574E+04</rscale>
<asrwt>0</asrwt>
<pdfrwt beam="2">  1        2 0.19072792E+00 0.22813574E+04</pdfrwt>
<pdfrwt beam="1">  1       -2 0.16146771E+00 0.22813574E+04</pdfrwt>
<totfact> 0.40017208E+00</totfact>
</mgrwt>
</event>
<event>
 4    1  0.1343107E-008  0.2234386E+04  0.7816531E-02  0.8504251E-01
         -2   -1    0    0    0  501 -0.00000000000E+00  0.00000000000E+00  0.27561644387E+04  0.27561644387E+04  0.00000000000E+00 0. -1.
          2   -1    0    0  501    0  0.00000000000E+00 -0.00000000000E+00 -0.45284677838E+03  0.45284677838E+03  0.00000000000E+00 0.  1.
    2000013    1    1    2    0    0  0.11514679018E+03  0.55016814731E+03  0.13990696794E+04  0.17820885896E+04  0.95000000000E+03 0.  0.
   -2000013    1    1    2    0    0 -0.11514679018E+03 -0.55016814731E+03  0.90424798093E+03  0.14269226274E+04  0.95000000000E+03 0.  0.
<mgrwt>
<rscale>  0 0.22343860E+04</rscale>
<asrwt>0</asrwt>
<pdfrwt beam="2">  1        2 0.69668737E-01 0.22343860E+04</pdfrwt>
<pdfrwt beam="1">  1       -2 0.42402529E+00 0.22343860E+04</pdfrwt>
<totfact> 0.32489132E-01</totfact>
</mgrwt>
</event>
<event>
 4    1  0.1343107E-008  0.2493786E+04  0.7816531E-02  0.8405203E-01
          2   -1    0    0  501    0  0.00000000000E+00  0.00000000000E+00  0.20055075321E+04  0.20055075321E+04  0.00000000000E+00 0.  1.
         -2   -1    0    0    0  501 -0.00000000000E+00 -0.00000000000E+00 -0.77523633794E+03  0.77523633794E+03  0.00000000000E+00 0. -1.
    2000013    1    1    2    0    0  0.33243138291E+03  0.73568387027E+03  0.64009256749E+03  0.14014135279E+04  0.95000000000E+03 0.  0.
   -2000013    1    1    2    0    0 -0.33243138291E+03 -0.73568387027E+03  0.59017862669E+03  0.13793303421E+04  0.95000000000E+03 0.  0.
<mgrwt>
<rscale>  0 0.24937861E+04</rscale>
<asrwt>0</asrwt>
<pdfrwt beam="1">  1        2 0.30853962E+00 0.24937861E+04</pdfrwt>
<pdfrwt beam="2">  1       -2 0.11926713E+00 0.24937861E+04</pdfrwt>
<totfact> 0.31917409E+00</totfact>
</mgrwt>
</event>
<event>
 4    1  0.1343107E-008  0.2612672E+04  0.7816531E-02  0.8363909E-01
          2   -1    0    0  501    0  0.00000000000E+00  0.00000000000E+00  0.19907191145E+04  0.19907191145E+04  0.00000000000E+00 0.  1.
         -2   -1    0    0    0  501 -0.00000000000E+00 -0.00000000000E+00 -0.85723492739E+03  0.85723492739E+03  0.00000000000E+00 0. -1.
    2000013    1    1    2    0    0  0.57184012832E+03 -0.46044159948E+02  0.13179252348E+04  0.17229475098E+04  0.95000000000E+03 0.  0.
   -2000013    1    1    2    0    0 -0.57184012832E+03  0.46044159948E+02 -0.18444104774E+03  0.11250065320E+04  0.95000000000E+03 0.  0.
<mgrwt>
<rscale>  0 0.26126722E+04</rscale>
<asrwt>0</asrwt>
<pdfrwt beam="1">  1        2 0.30626448E+00 0.26126722E+04</pdfrwt>
<pdfrwt beam="2">  1       -2 0.13188230E+00 0.26126722E+04</pdfrwt>
<totfact> 0.25017995E+00</totfact>
</mgrwt>
</event>
<event>
 4    1  0.1343107E-008  0.2744351E+04  0.7816531E-02  0.8320756E-01
         -1   -1    0    0    0  501 -0.00000000000E+00  0.00000000000E+00  0.72606706266E+03  0.72606706266E+03  0.00000000000E+00 0. -1.
          1   -1    0    0  501    0  0.00000000000E+00 -0.00000000000E+00 -0.25932399661E+04  0.25932399661E+04  0.00000000000E+00 0.  1.
    2000013    1    1    2    0    0  0.54015367272E+03 -0.79911529112E+03 -0.66309262879E+03  0.15074956295E+04  0.95000000000E+03 0.  0.
   -2000013    1    1    2    0    0 -0.54015367272E+03  0.79911529112E+03 -0.12040802747E+04  0.18118113993E+04  0.95000000000E+03 0.  0.
<mgrwt>
<rscale>  0 0.27443514E+04</rscale>
<asrwt>0</asrwt>
<pdfrwt beam="2">  1        1 0.39896000E+00 0.27443514E+04</pdfrwt>
<pdfrwt beam="1">  1       -1 0.11170262E+00 0.27443514E+04</pdfrwt>
<totfact> 0.74628468E-01</totfact>
</mgrwt>
</event>
<event>
 4    1  0.1343107E-008  0.3498205E+04  0.7816531E-02  0.8114215E-01
         -2   -1    0    0    0  501 -0.00000000000E+00  0.00000000000E+00  0.15659942501E+04  0.15659942501E+04  0.00000000000E+00 0. -1.
          2   -1    0    0  501    0  0.00000000000E+00 -0.00000000000E+00 -0.19536217393E+04  0.19536217393E+04  0.00000000000E+00 0.  1.
    2000013    1    1    2    0    0  0.37185374306E+03  0.10392378837E+04  0.78091384525E+03  0.16524578720E+04  0.95000000000E+03 0.  0.
   -2000013    1    1    2    0    0 -0.37185374306E+03 -0.10392378837E+04 -0.11685413344E+04  0.18671581174E+04  0.95000000000E+03 0.  0.
<mgrwt>
<rscale>  0 0.34982055E+04</rscale>
<asrwt>0</asrwt>
<pdfrwt beam="2">  1        2 0.30055719E+00 0.34982055E+04</pdfrwt>
<pdfrwt beam="1">  1       -2 0.24092219E+00 0.34982055E+04</pdfrwt>
<totfact> 0.42601615E-01</totfact>
</mgrwt>
</event>
<event>
 4    1  0.1343107E-008  0.4179096E+04  0.7816531E-02  0.7969361E-01
          2   -1    0    0  501    0  0.00000000000E+00  0.00000000000E+00  0.27297687829E+04  0.27297687829E+04  0.00000000000E+00 0.  1.
         -2   -1    0    0    0  501 -0.00000000000E+00 -0.00000000000E+00 -0.15994800615E+04  0.15994800615E+04  0.00000000000E+00 0. -1.
    2000013    1    1    2    0    0 -0.93431058037E+03 -0.15593924329E+04  0.15197894035E+03  0.20567543895E+04  0.95000000000E+03 0.  0.
   -2000013    1    1    2    0    0  0.93431058037E+03  0.15593924329E+04  0.97830978106E+03  0.22724944550E+04  0.95000000000E+03 0.  0.
<mgrwt>
<rscale>  0 0.41790960E+04</rscale>
<asrwt>0</asrwt>
<pdfrwt beam="1">  1        2 0.41996443E+00 0.41790960E+04</pdfrwt>
<pdfrwt beam="2">  1       -2 0.24607385E+00 0.41790960E+04</pdfrwt>
<totfact> 0.13464000E-01</totfact>
</mgrwt>
</event>
<event>
 4    1  0.1343107E-008  0.4271578E+04  0.7816531E-02  0.7951895E-01
          2   -1    0    0  501    0  0.00000000000E+00  0.00000000000E+00  0.31523302359E+04  0.31523302359E+04  0.00000000000E+00 0.  1.
         -2   -1    0    0    0  501 -0.00000000000E+00 -0.00000000000E+00 -0.14470546643E+04  0.14470546643E+04  0.00000000000E+00 0. -1.
    2000013    1    1    2    0    0  0.74209814298E+03  0.57184380392E+03  0.26483698473E+04  0.29654810466E+04  0.95000000000E+03 0.  0.
   -2000013    1    1    2    0    0 -0.74209814298E+03 -0.57184380392E+03 -0.94309427574E+03  0.16339038536E+04  0.95000000000E+03 0.  0.
<mgrwt>
<rscale>  0 0.42715778E+04</rscale>
<asrwt>0</asrwt>
<pdfrwt beam="1">  1        2 0.48497388E+00 0.42715778E+04</pdfrwt>
<pdfrwt beam="2">  1       -2 0.22262379E+00 0.42715778E+04</pdfrwt>
<totfact> 0.10215821E-01</totfact>
</mgrwt>
</event>
<event>
 4    1  0.1343107E-008  0.2217269E+04  0.7816531E-02  0.8511275E-01
         -2   -1    0    0    0  501 -0.00000000000E+00  0.00000000000E+00  0.51579969964E+03  0.51579969964E+03  0.00000000000E+00 0. -1.
          2   -1    0    0  501    0  0.00000000000E+00 -0.00000000000E+00 -0.23828440657E+04  0.23828440657E+04  0.00000000000E+00 0.  1.
    2000013    1    1    2    0    0 -0.29908115964E+03  0.37439301794E+03 -0.13405758810E+04  0.17115090899E+04  0.95000000000E+03 0.  0.
   -2000013    1    1    2    0    0  0.29908115964E+03 -0.37439301794E+03 -0.52646848503E+03  0.11871346755E+04  0.95000000000E+03 0.  0.
<mgrwt>
<rscale>  0 0.22172688E+04</rscale>
<asrwt>0</asrwt>
<pdfrwt beam="2">  1        2 0.36659139E+00 0.22172688E+04</pdfrwt>
<pdfrwt beam="1">  1       -2 0.79353801E-01 0.22172688E+04</pdfrwt>
<totfact> 0.52248589E+00</totfact>
</mgrwt>
</event>
<event>
 4    1  0.1343107E-008  0.2347243E+04  0.7816531E-02  0.8459523E-01
          2   -1    0    0  501    0  0.00000000000E+00  0.00000000000E+00  0.25064628596E+04  0.25064628596E+04  0.00000000000E+00 0.  1.
         -2   -1    0    0    0  501 -0.00000000000E+00 -0.00000000000E+00 -0.54953431956E+03  0.54953431956E+03  0.00000000000E+00 0. -1.
    2000013    1    1    2    0    0  0.16074017373E+03 -0.49136454004E+03  0.38523861167E+03  0.11481225120E+04  0.95000000000E+03 0.  0.
   -2000013    1    1    2    0    0 -0.16074017373E+03  0.49136454004E+03  0.15716899284E+04  0.19078746672E+04  0.95000000000E+03 0.  0.
<mgrwt>
<rscale>  0 0.23472429E+04</rscale>
<asrwt>0</asrwt>
<pdfrwt beam="1">  1        2 0.38560966E+00 0.23472429E+04</pdfrwt>
<pdfrwt beam="2">  1       -2 0.84543743E-01 0.23472429E+04</pdfrwt>
<totfact> 0.38015960E+00</totfact>
</mgrwt>
</event>
<event>
 4    1  0.1343107E-008  0.2870523E+04  0.7816531E-02  0.8281702E-01
         -1   -1    0    0    0  501 -0.00000000000E+00  0.00000000000E+00  0.87631977293E+03  0.87631977293E+03  0.00000000000E+00 0. -1.
          1   -1    0    0  501    0  0.00000000000E+00 -0.00000000000E+00 -0.23507122761E+04  0.23507122761E+04  0.00000000000E+00 0.  1.
    2000013    1    1    2    0    0  0.95063980773E+03  0.65521901494E+02 -0.12986944190E+04  0.18700578487E+04  0.95000000000E+03 0.  0.
   -2000013    1    1    2    0    0 -0.95063980773E+03 -0.65521901494E+02 -0.17569808420E+03  0.13569742003E+04  0.95000000000E+03 0.  0.
<mgrwt>
<rscale>  0 0.28705231E+04</rscale>
<asrwt>0</asrwt>
<pdfrwt beam="2">  1        1 0.36164804E+00 0.28705231E+04</pdfrwt>
<pdfrwt beam="1">  1       -1 0.13481843E+00 0.28705231E+04</pdfrwt>
<totfact> 0.68306571E-01</totfact>
</mgrwt>
</event>
<event>
 4    1  0.1343107E-008  0.2779641E+04  0.7816531E-02  0.8309617E-01
         -2   -1    0    0    0  501 -0.00000000000E+00  0.00000000000E+00  0.77051951597E+03  0.77051951597E+03  0.00000000000E+00 0.  1.
          2   -1    0    0  501    0  0.00000000000E+00 -0.00000000000E+00 -0.25068817438E+04  0.25068817438E+04  0.00000000000E+00 0. -1.
    2000013    1    1    2    0    0  0.96628538000E+03 -0.89911381820E+02 -0.12165765128E+04  0.18232799850E+04  0.95000000000E+03 0.  0.
   -2000013    1    1    2    0    0 -0.96628538000E+03  0.89911381820E+02 -0.51978571502E+03  0.14541212748E+04  0.95000000000E+03 0.  0.
<mgrwt>
<rscale>  0 0.27796412E+04</rscale>
<asrwt>0</asrwt>
<pdfrwt beam="2">  1        2 0.38567412E+00 0.27796412E+04</pdfrwt>
<pdfrwt beam="1">  1       -2 0.11854146E+00 0.27796412E+04</pdfrwt>
<totfact> 0.16452617E+00</totfact>
</mgrwt>
</event>
<event>
 4    1  0.1343107E-008  0.2156106E+04  0.7816531E-02  0.8536923E-01
         -2   -1    0    0    0  501 -0.00000000000E+00  0.00000000000E+00  0.63537880594E+03  0.63537880594E+03  0.00000000000E+00 0. -1.
          2   -1    0    0  501    0  0.00000000000E+00 -0.00000000000E+00 -0.18291415528E+04  0.18291415528E+04  0.00000000000E+00 0.  1.
    2000013    1    1    2    0    0 -0.44218987640E+03 -0.24637499914E+03 -0.52959461627E+03  0.11996678643E+04  0.95000000000E+03 0.  0.
   -2000013    1    1    2    0    0  0.44218987640E+03  0.24637499914E+03 -0.66416813054E+03  0.12648524944E+04  0.95000000000E+03 0.  0.
<mgrwt>
<rscale>  0 0.21561055E+04</rscale>
<asrwt>0</asrwt>
<pdfrwt beam="2">  1        2 0.28140639E+00 0.21561055E+04</pdfrwt>
<pdfrwt beam="1">  1       -2 0.97750586E-01 0.21561055E+04</pdfrwt>
<totfact> 0.66469113E+00</totfact>
</mgrwt>
</event>
<event>
 4    1  0.1343107E-008  0.2548437E+04  0.7816531E-02  0.8385930E-01
          2   -1    0    0  501    0  0.00000000000E+00  0.00000000000E+00  0.96246184642E+03  0.96246184642E+03  0.00000000000E+00 0.  1.
         -2   -1    0    0    0  501 -0.00000000000E+00 -0.00000000000E+00 -0.16869585054E+04  0.16869585054E+04  0.00000000000E+00 0. -1.
    2000013    1    1    2    0    0  0.53094936263E+03 -0.66273963755E+03 -0.36377097460E+03  0.13251265505E+04  0.95000000000E+03 0.  0.
   -2000013    1    1    2    0    0 -0.53094936263E+03  0.66273963755E+03 -0.36072568438E+03  0.13242938013E+04  0.95000000000E+03 0.  0.
<mgrwt>
<rscale>  0 0.25484373E+04</rscale>
<asrwt>0</asrwt>
<pdfrwt beam="1">  1        2 0.14807105E+00 0.25484373E+04</pdfrwt>
<pdfrwt beam="2">  1       -2 0.25953208E+00 0.25484373E+04</pdfrwt>
<totfact> 0.13291027E+00</totfact>
</mgrwt>
</event>
<event>
 4    1  0.1343107E-008  0.2846446E+04  0.7816531E-02  0.8288992E-01
         -2   -1    0    0    0  501 -0.00000000000E+00  0.00000000000E+00  0.11062496719E+04  0.11062496719E+04  0.00000000000E+00 0. -1.
          2   -1    0    0  501    0  0.00000000000E+00 -0.00000000000E+00 -0.18310181420E+04  0.18310181420E+04  0.00000000000E+00 0.  1.
    2000013    1    1    2    0    0 -0.10148205486E+04 -0.31626753868E+02 -0.49047479640E+02  0.13913183146E+04  0.95000000000E+03 0.  0.
   -2000013    1    1    2    0    0  0.10148205486E+04  0.31626753868E+02 -0.67572099052E+03  0.15459494993E+04  0.95000000000E+03 0.  0.
<mgrwt>
<rscale>  0 0.28464457E+04</rscale>
<asrwt>0</asrwt>
<pdfrwt beam="2">  1        2 0.28169510E+00 0.28464457E+04</pdfrwt>
<pdfrwt beam="1">  1       -2 0.17019226E+00 0.28464457E+04</pdfrwt>
<totfact> 0.15276325E+00</totfact>
</mgrwt>
</event>
<event>
 4    1  0.1343107E-008  0.2029396E+04  0.7816531E-02  0.8592999E-01
          2   -1    0    0  501    0  0.00000000000E+00  0.00000000000E+00  0.79836771719E+03  0.79836771719E+03  0.00000000000E+00 0. -1.
         -2   -1    0    0    0  501 -0.00000000000E+00 -0.00000000000E+00 -0.12896458918E+04  0.12896458918E+04  0.00000000000E+00 0.  1.
    2000013    1    1    2    0    0  0.32506264173E+03 -0.44619311501E+02 -0.38914926392E+03  0.10777725890E+04  0.95000000000E+03 0.  0.
   -2000013    1    1    2    0    0 -0.32506264173E+03  0.44619311501E+02 -0.10212891067E+03  0.10102410200E+04  0.95000000000E+03 0.  0.
<mgrwt>
<rscale>  0 0.20293956E+04</rscale>
<asrwt>0</asrwt>
<pdfrwt beam="1">  1        2 0.12282580E+00 0.20293956E+04</pdfrwt>
<pdfrwt beam="2">  1       -2 0.19840706E+00 0.20293956E+04</pdfrwt>
<totfact> 0.43596393E+00</totfact>
</mgrwt>
</event>
<event>
 4    1  0.1343107E-008  0.2171087E+04  0.7816531E-02  0.8530559E-01
         -2   -1    0    0    0  501 -0.00000000000E+00  0.00000000000E+00  0.41228622835E+03  0.41228622835E+03  0.00000000000E+00 0. -1.
          2   -1    0    0  501    0  0.00000000000E+00 -0.00000000000E+00 -0.28582204580E+04  0.28582204580E+04  0.00000000000E+00 0.  1.
    2000013    1    1    2    0    0 -0.50786839927E+03  0.37504873142E+02 -0.10290693108E+04  0.14902417834E+04  0.95000000000E+03 0.  0.
   -2000013    1    1    2    0    0  0.50786839927E+03 -0.37504873142E+02 -0.14168649188E+04  0.17802649029E+04  0.95000000000E+03 0.  0.
<mgrwt>
<rscale>  0 0.21710872E+04</rscale>
<asrwt>0</asrwt>
<pdfrwt beam="2">  1        2 0.43972625E+00 0.21710872E+04</pdfrwt>
<pdfrwt beam="1">  1       -2 0.63428648E-01 0.21710872E+04</pdfrwt>
<totfact> 0.44971331E+00</totfact>
</mgrwt>
</event>
<event>
 4    1  0.1343107E-008  0.2904998E+04  0.7816531E-02  0.8271392E-01
          2   -1    0    0  501    0  0.00000000000E+00  0.00000000000E+00  0.71391936518E+03  0.71391936518E+03  0.00000000000E+00 0.  1.
         -2   -1    0    0    0  501 -0.00000000000E+00 -0.00000000000E+00 -0.29551710158E+04  0.29551710158E+04  0.00000000000E+00 0. -1.
    2000013    1    1    2    0    0  0.56338362225E+03  0.44978183047E+03 -0.21679095532E+04  0.24742749710E+04  0.95000000000E+03 0.  0.
   -2000013    1    1    2    0    0 -0.56338362225E+03 -0.44978183047E+03 -0.73342097409E+02  0.11948154101E+04  0.95000000000E+03 0.  0.
<mgrwt>
<rscale>  0 0.29049983E+04</rscale>
<asrwt>0</asrwt>
<pdfrwt beam="1">  1        2 0.10983375E+00 0.29049983E+04</pdfrwt>
<pdfrwt beam="2">  1       -2 0.45464169E+00 0.29049983E+04</pdfrwt>
<totfact> 0.11131544E-01</totfact>
</mgrwt>
</event>
<event>
 4    1  0.1343107E-008  0.2491631E+04  0.7816531E-02  0.8405973E-01
         -2   -1    0    0    0  501 -0.00000000000E+00  0.00000000000E+00  0.12458363396E+04  0.12458363396E+04  0.00000000000E+00 0. -1.
          2   -1    0    0  501    0  0.00000000000E+00 -0.00000000000E+00 -0.12457948794E+04  0.12457948794E+04  0.00000000000E+00 0.  1.
    2000013    1    1    2    0    0  0.24997805578E+03 -0.75326890815E+03 -0.14017005443E+03  0.12458132767E+04  0.95000000000E+03 0.  0.
   -2000013    1    1    2    0    0 -0.24997805578E+03  0.75326890815E+03  0.14021151457E+03  0.12458179422E+04  0.95000000000E+03 0.  0.
<mgrwt>
<rscale>  0 0.24916312E+04</rscale>
<asrwt>0</asrwt>
<pdfrwt beam="2">  1        2 0.19166075E+00 0.24916312E+04</pdfrwt>
<pdfrwt beam="1">  1       -2 0.19166713E+00 0.24916312E+04</pdfrwt>
<totfact> 0.23984385E+00</totfact>
</mgrwt>
</event>
<event>
 4    1  0.1343107E-008  0.2767038E+04  0.7816531E-02  0.8313575E-01
          2   -1    0    0  501    0  0.00000000000E+00  0.00000000000E+00  0.61243531432E+03  0.61243531432E+03  0.00000000000E+00 0.  1.
         -2   -1    0    0    0  501 -0.00000000000E+00 -0.00000000000E+00 -0.31254319386E+04  0.31254319386E+04  0.00000000000E+00 0. -1.
    2000013    1    1    2    0    0 -0.93382818650E+03  0.35117963811E+03 -0.14287663425E+04  0.19847507354E+04  0.95000000000E+03 0.  0.
   -2000013    1    1    2    0    0  0.93382818650E+03 -0.35117963811E+03 -0.10842302817E+04  0.17531165175E+04  0.95000000000E+03 0.  0.
<mgrwt>
<rscale>  0 0.27670380E+04</rscale>
<asrwt>0</asrwt>
<pdfrwt beam="1">  1        2 0.94220817E-01 0.27670380E+04</pdfrwt>
<pdfrwt beam="2">  1       -2 0.48083569E+00 0.27670380E+04</pdfrwt>
<totfact> 0.91815842E-02</totfact>
</mgrwt>
</event>
<event>
 4    1  0.1343107E-008  0.3029670E+04  0.7816531E-02  0.8235309E-01
         -2   -1    0    0    0  501 -0.00000000000E+00  0.00000000000E+00  0.92835265346E+03  0.92835265346E+03  0.00000000000E+00 0. -1.
          2   -1    0    0  501    0  0.00000000000E+00 -0.00000000000E+00 -0.24718239569E+04  0.24718239569E+04  0.00000000000E+00 0.  1.
    2000013    1    1    2    0    0  0.56300361155E+03  0.90227090352E+03 -0.13452684852E+04  0.19604369786E+04  0.95000000000E+03 0.  0.
   -2000013    1    1    2    0    0 -0.56300361155E+03 -0.90227090352E+03 -0.19820281822E+03  0.14397396317E+04  0.95000000000E+03 0.  0.
<mgrwt>
<rscale>  0 0.30296695E+04</rscale>
<asrwt>0</asrwt>
<pdfrwt beam="2">  1        2 0.38028061E+00 0.30296695E+04</pdfrwt>
<pdfrwt beam="1">  1       -2 0.14282349E+00 0.30296695E+04</pdfrwt>
<totfact> 0.10520746E+00</totfact>
</mgrwt>
</event>
<event>
 4    1  0.1343107E-008  0.2430155E+04  0.7816531E-02  0.8428299E-01
         -2   -1    0    0    0  501 -0.00000000000E+00  0.00000000000E+00  0.11546874903E+04  0.11546874903E+04  0.00000000000E+00 0. -1.
          2   -1    0    0  501    0  0.00000000000E+00 -0.00000000000E+00 -0.12786263680E+04  0.12786263680E+04  0.00000000000E+00 0.  1.
    2000013    1    1    2    0    0 -0.68705620354E+03  0.24034736001E+03 -0.27224425806E+03  0.12273671074E+04  0.95000000000E+03 0.  0.
   -2000013    1    1    2    0    0  0.68705620354E+03 -0.24034736001E+03  0.14830538038E+03  0.12059467510E+04  0.95000000000E+03 0.  0.
<mgrwt>
<rscale>  0 0.24301554E+04</rscale>
<asrwt>0</asrwt>
<pdfrwt beam="2">  1        2 0.19671175E+00 0.24301554E+04</pdfrwt>
<pdfrwt beam="1">  1       -2 0.17764423E+00 0.24301554E+04</pdfrwt>
<totfact> 0.28738144E+00</totfact>
</mgrwt>
</event>
<event>
 4    1  0.1343107E-008  0.3398520E+04  0.7816531E-02  0.8138270E-01
          2   -1    0    0  501    0  0.00000000000E+00  0.00000000000E+00  0.33591993101E+04  0.33591993101E+04  0.00000000000E+00 0.  1.
         -2   -1    0    0    0  501 -0.00000000000E+00 -0.00000000000E+00 -0.85957517235E+03  0.85957517235E+03  0.00000000000E+00 0. -1.
    2000013    1    1    2    0    0  0.95667696470E+03  0.10297058672E+04  0.13705453146E+04  0.21809216967E+04  0.95000000000E+03 0.  0.
   -2000013    1    1    2    0    0 -0.95667696470E+03 -0.10297058672E+04  0.11290788232E+04  0.20378527858E+04  0.95000000000E+03 0.  0.
<mgrwt>
<rscale>  0 0.33985199E+04</rscale>
<asrwt>0</asrwt>
<pdfrwt beam="1">  1        2 0.51679989E+00 0.33985199E+04</pdfrwt>
<pdfrwt beam="2">  1       -2 0.13224234E+00 0.33985199E+04</pdfrwt>
<totfact> 0.34971267E-01</totfact>
</mgrwt>
</event>
<event>
 4    1  0.1343107E-008  0.2612931E+04  0.7816531E-02  0.8363822E-01
         -2   -1    0    0    0  501 -0.00000000000E+00  0.00000000000E+00  0.12155389447E+04  0.12155389447E+04  0.00000000000E+00 0. -1.
          2   -1    0    0  501    0  0.00000000000E+00 -0.00000000000E+00 -0.14041939311E+04  0.14041939311E+04  0.00000000000E+00 0.  1.
    2000013    1    1    2    0    0 -0.71832963182E+03 -0.42409657460E+03 -0.42457381110E+03  0.13336484865E+04  0.95000000000E+03 0.  0.
   -2000013    1    1    2    0    0  0.71832963182E+03  0.42409657460E+03  0.23591882464E+03  0.12860843893E+04  0.95000000000E+03 0.  0.
<mgrwt>
<rscale>  0 0.26129312E+04</rscale>
<asrwt>0</asrwt>
<pdfrwt beam="2">  1        2 0.21602984E+00 0.26129312E+04</pdfrwt>
<pdfrwt beam="1">  1       -2 0.18700599E+00 0.26129312E+04</pdfrwt>
<totfact> 0.20649988E+00</totfact>
</mgrwt>
</event>
<event>
 4    1  0.1343107E-008  0.3115159E+04  0.7816531E-02  0.8211590E-01
          2   -1    0    0  501    0  0.00000000000E+00  0.00000000000E+00  0.73612505339E+03  0.73612505339E+03  0.00000000000E+00 0.  1.
         -2   -1    0    0    0  501 -0.00000000000E+00 -0.00000000000E+00 -0.32957088989E+04  0.32957088989E+04  0.00000000000E+00 0. -1.
    2000013    1    1    2    0    0 -0.93448485199E+03 -0.59217201131E+03 -0.57133914528E+03  0.15661602883E+04  0.95000000000E+03 0.  0.
   -2000013    1    1    2    0    0  0.93448485199E+03  0.59217201131E+03 -0.19882447002E+04  0.24656736641E+04  0.95000000000E+03 0.  0.
<mgrwt>
<rscale>  0 0.31151590E+04</rscale>
<asrwt>0</asrwt>
<pdfrwt beam="1">  1        2 0.11325001E+00 0.31151590E+04</pdfrwt>
<pdfrwt beam="2">  1       -2 0.50703214E+00 0.31151590E+04</pdfrwt>
<totfact> 0.48488237E-02</totfact>
</mgrwt>
</event>
<event>
 4    1  0.1343107E-008  0.2190230E+04  0.7816531E-02  0.8522506E-01
          2   -1    0    0  501    0  0.00000000000E+00  0.00000000000E+00  0.14242911146E+04  0.14242911146E+04  0.00000000000E+00 0.  1.
         -2   -1    0    0    0  501 -0.00000000000E+00 -0.00000000000E+00 -0.84201647494E+03  0.84201647494E+03  0.00000000000E+00 0. -1.
    2000013    1    1    2    0    0  0.42328405527E+03  0.27736569866E+03  0.49982433348E+03  0.11867710338E+04  0.95000000000E+03 0.  0.
   -2000013    1    1    2    0    0 -0.42328405527E+03 -0.27736569866E+03  0.82450306169E+02  0.10795365558E+04  0.95000000000E+03 0.  0.
<mgrwt>
<rscale>  0 0.21902297E+04</rscale>
<asrwt>0</asrwt>
<pdfrwt beam="1">  1        2 0.21912171E+00 0.21902297E+04</pdfrwt>
<pdfrwt beam="2">  1       -2 0.12954100E+00 0.21902297E+04</pdfrwt>
<totfact> 0.56191372E+00</totfact>
</mgrwt>
</event>
<event>
 4    1  0.1343107E-008  0.2616500E+04  0.7816531E-02  0.8362618E-01
         -2   -1    0    0    0  501 -0.00000000000E+00  0.00000000000E+00  0.59669874002E+03  0.59669874002E+03  0.00000000000E+00 0. -1.
          2   -1    0    0  501    0  0.00000000000E+00 -0.00000000000E+00 -0.28683126689E+04  0.28683126689E+04  0.00000000000E+00 0.  1.
    2000013    1    1    2    0    0  0.80839247743E+03  0.38158215345E+03 -0.12676736235E+04  0.18189556765E+04  0.95000000000E+03 0.  0.
   -2000013    1    1    2    0    0 -0.80839247743E+03 -0.38158215345E+03 -0.10039403054E+04  0.16460557324E+04  0.95000000000E+03 0.  0.
<mgrwt>
<rscale>  0 0.26165004E+04</rscale>
<asrwt>0</asrwt>
<pdfrwt beam="2">  1        2 0.44127886E+00 0.26165004E+04</pdfrwt>
<pdfrwt beam="1">  1       -2 0.91799810E-01 0.26165004E+04</pdfrwt>
<totfact> 0.18732642E+00</totfact>
</mgrwt>
</event>
<event>
 4    1  0.1343107E-008  0.2565447E+04  0.7816531E-02  0.8380034E-01
         -2   -1    0    0    0  501 -0.00000000000E+00  0.00000000000E+00  0.14299240815E+04  0.14299240815E+04  0.00000000000E+00 0. -1.
          2   -1    0    0  501    0  0.00000000000E+00 -0.00000000000E+00 -0.11506763820E+04  0.11506763820E+04  0.00000000000E+00 0.  1.
    2000013    1    1    2    0    0 -0.66773628189E+03 -0.33431845393E+03  0.57256039650E+03  0.13371484504E+04  0.95000000000E+03 0.  0.
   -2000013    1    1    2    0    0  0.66773628189E+03  0.33431845393E+03 -0.29331269703E+03  0.12434520132E+04  0.95000000000E+03 0.  0.
<mgrwt>
<rscale>  0 0.25654472E+04</rscale>
<asrwt>0</asrwt>
<pdfrwt beam="2">  1        2 0.17702714E+00 0.25654472E+04</pdfrwt>
<pdfrwt beam="1">  1       -2 0.21998832E+00 0.25654472E+04</pdfrwt>
<totfact> 0.17785194E+00</totfact>
</mgrwt>
</event>
<event>
 4    1  0.1343107E-008  0.5029327E+04  0.7816531E-02  0.7823999E-01
          2   -1    0    0  501    0  0.00000000000E+00  0.00000000000E+00  0.24494150831E+04  0.24494150831E+04  0.00000000000E+00 0. -1.
         -2   -1    0    0    0  501 -0.00000000000E+00 -0.00000000000E+00 -0.25816505173E+04  0.25816505173E+04  0.00000000000E+00 0.  1.
    2000013    1    1    2    0    0 -0.21618714451E+04  0.83365902010E+03  0.16278052522E+03  0.25095164886E+04  0.95000000000E+03 0.  0.
   -2000013    1    1    2    0    0  0.21618714451E+04 -0.83365902010E+03 -0.29501595941E+03  0.25215491118E+04  0.95000000000E+03 0.  0.
<mgrwt>
<rscale>  0 0.50293275E+04</rscale>
<asrwt>0</asrwt>
<pdfrwt beam="1">  1        2 0.37683309E+00 0.50293275E+04</pdfrwt>
<pdfrwt beam="2">  1       -2 0.39717700E+00 0.50293275E+04</pdfrwt>
<totfact> 0.20960537E-02</totfact>
</mgrwt>
</event>
<event>
 4    1  0.1343107E-008  0.3957036E+04  0.7816531E-02  0.8013270E-01
         -2   -1    0    0    0  501 -0.00000000000E+00  0.00000000000E+00  0.16113524114E+04  0.16113524114E+04  0.00000000000E+00 0.  1.
          2   -1    0    0  501    0  0.00000000000E+00 -0.00000000000E+00 -0.24293465775E+04  0.24293465775E+04  0.00000000000E+00 0. -1.
    2000013    1    1    2    0    0  0.12671056911E+04  0.75227467001E+03 -0.13452015669E+04  0.22098735862E+04  0.95000000000E+03 0.  0.
   -2000013    1    1    2    0    0 -0.12671056911E+04 -0.75227467001E+03  0.52720740075E+03  0.18308254027E+04  0.95000000000E+03 0.  0.
<mgrwt>
<rscale>  0 0.39570360E+04</rscale>
<asrwt>0</asrwt>
<pdfrwt beam="2">  1        2 0.37374562E+00 0.39570360E+04</pdfrwt>
<pdfrwt beam="1">  1       -2 0.24790037E+00 0.39570360E+04</pdfrwt>
<totfact> 0.20042456E-01</totfact>
</mgrwt>
</event>
<event>
 4    1  0.1343107E-008  0.2087240E+04  0.7816531E-02  0.8566885E-01
          2   -1    0    0  501    0  0.00000000000E+00  0.00000000000E+00  0.24570794356E+04  0.24570794356E+04  0.00000000000E+00 0.  1.
         -2   -1    0    0    0  501 -0.00000000000E+00 -0.00000000000E+00 -0.44326739731E+03  0.44326739731E+03  0.00000000000E+00 0. -1.
    2000013    1    1    2    0    0 -0.21229790775E+03 -0.36394572962E+03  0.11395803801E+04  0.15422938560E+04  0.95000000000E+03 0.  0.
   -2000013    1    1    2    0    0  0.21229790775E+03  0.36394572962E+03  0.87423165821E+03  0.13580529769E+04  0.95000000000E+03 0.  0.
<mgrwt>
<rscale>  0 0.20872405E+04</rscale>
<asrwt>0</asrwt>
<pdfrwt beam="1">  1        2 0.37801221E+00 0.20872405E+04</pdfrwt>
<pdfrwt beam="2">  1       -2 0.68194986E-01 0.20872405E+04</pdfrwt>
<totfact> 0.66932144E+00</totfact>
</mgrwt>
</event>
<event>
 4    1  0.1343107E-008  0.2201015E+04  0.7816531E-02  0.8518006E-01
         -2   -1    0    0    0  501 -0.00000000000E+00  0.00000000000E+00  0.87091092122E+03  0.87091092122E+03  0.00000000000E+00 0. -1.
          2   -1    0    0  501    0  0.00000000000E+00 -0.00000000000E+00 -0.13906319154E+04  0.13906319154E+04  0.00000000000E+00 0.  1.
    2000013    1    1    2    0    0  0.23896388282E+03  0.27597565046E+03  0.17040351502E+03  0.10318932381E+04  0.95000000000E+03 0.  0.
   -2000013    1    1    2    0    0 -0.23896388282E+03 -0.27597565046E+03 -0.69012450921E+03  0.12296495985E+04  0.95000000000E+03 0.  0.
<mgrwt>
<rscale>  0 0.22010148E+04</rscale>
<asrwt>0</asrwt>
<pdfrwt beam="2">  1        2 0.21394337E+00 0.22010148E+04</pdfrwt>
<pdfrwt beam="1">  1       -2 0.13398630E+00 0.22010148E+04</pdfrwt>
<totfact> 0.53863540E+00</totfact>
</mgrwt>
</event>
<event>
 4    1  0.1343107E-008  0.3228101E+04  0.7816531E-02  0.8181435E-01
         -2   -1    0    0    0  501 -0.00000000000E+00  0.00000000000E+00  0.75134392112E+03  0.75134392112E+03  0.00000000000E+00 0.  1.
          2   -1    0    0  501    0  0.00000000000E+00 -0.00000000000E+00 -0.34673316907E+04  0.34673316907E+04  0.00000000000E+00 0. -1.
    2000013    1    1    2    0    0  0.90255244638E+02 -0.12528366320E+04 -0.18198777492E+04  0.24066991207E+04  0.95000000000E+03 0.  0.
   -2000013    1    1    2    0    0 -0.90255244638E+02  0.12528366320E+04 -0.89611002031E+03  0.18119764910E+04  0.95000000000E+03 0.  0.
<mgrwt>
<rscale>  0 0.32281007E+04</rscale>
<asrwt>0</asrwt>
<pdfrwt beam="2">  1        2 0.53343564E+00 0.32281007E+04</pdfrwt>
<pdfrwt beam="1">  1       -2 0.11559137E+00 0.32281007E+04</pdfrwt>
<totfact> 0.41859840E-01</totfact>
</mgrwt>
</event>
<event>
 4    1  0.1343107E-008  0.2396375E+04  0.7816531E-02  0.8440862E-01
         -2   -1    0    0    0  501 -0.00000000000E+00  0.00000000000E+00  0.73167189492E+03  0.73167189492E+03  0.00000000000E+00 0. -1.
          2   -1    0    0  501    0  0.00000000000E+00 -0.00000000000E+00 -0.19621545939E+04  0.19621545939E+04  0.00000000000E+00 0.  1.
    2000013    1    1    2    0    0  0.65441313371E+03 -0.32203943497E+03 -0.65397759092E+03  0.13646071364E+04  0.95000000000E+03 0.  0.
   -2000013    1    1    2    0    0 -0.65441313371E+03  0.32203943497E+03 -0.57650510806E+03  0.13292193524E+04  0.95000000000E+03 0.  0.
<mgrwt>
<rscale>  0 0.23963751E+04</rscale>
<asrwt>0</asrwt>
<pdfrwt beam="2">  1        2 0.30186993E+00 0.23963751E+04</pdfrwt>
<pdfrwt beam="1">  1       -2 0.11256491E+00 0.23963751E+04</pdfrwt>
<totfact> 0.39189203E+00</totfact>
</mgrwt>
</event>
<event>
 4    1  0.1343107E-008  0.3192511E+04  0.7816531E-02  0.8190798E-01
         -2   -1    0    0    0  501 -0.00000000000E+00  0.00000000000E+00  0.15783446521E+04  0.15783446521E+04  0.00000000000E+00 0. -1.
          2   -1    0    0  501    0  0.00000000000E+00 -0.00000000000E+00 -0.16143698944E+04  0.16143698944E+04  0.00000000000E+00 0.  1.
    2000013    1    1    2    0    0 -0.91376290699E+03  0.74331357942E+03  0.49001023387E+03  0.15906249579E+04  0.95000000000E+03 0.  0.
   -2000013    1    1    2    0    0  0.91376290699E+03 -0.74331357942E+03 -0.52603547618E+03  0.16020895885E+04  0.95000000000E+03 0.  0.
<mgrwt>
<rscale>  0 0.31925113E+04</rscale>
<asrwt>0</asrwt>
<pdfrwt beam="2">  1        2 0.24836460E+00 0.31925113E+04</pdfrwt>
<pdfrwt beam="1">  1       -2 0.24282226E+00 0.31925113E+04</pdfrwt>
<totfact> 0.65637178E-01</totfact>
</mgrwt>
</event>
<event>
 4    1  0.1343107E-008  0.2535080E+04  0.7816531E-02  0.8390594E-01
          2   -1    0    0  501    0  0.00000000000E+00  0.00000000000E+00  0.24115293400E+04  0.24115293400E+04  0.00000000000E+00 0.  1.
         -2   -1    0    0    0  501 -0.00000000000E+00 -0.00000000000E+00 -0.66624002176E+03  0.66624002176E+03  0.00000000000E+00 0. -1.
    2000013    1    1    2    0    0  0.65084142745E+02  0.63536970710E+03  0.15334241868E+04  0.19135883431E+04  0.95000000000E+03 0.  0.
   -2000013    1    1    2    0    0 -0.65084142745E+02 -0.63536970710E+03  0.21186513152E+03  0.11641810187E+04  0.95000000000E+03 0.  0.
<mgrwt>
<rscale>  0 0.25350798E+04</rscale>
<asrwt>0</asrwt>
<pdfrwt beam="1">  1        2 0.37100451E+00 0.25350798E+04</pdfrwt>
<pdfrwt beam="2">  1       -2 0.10249847E+00 0.25350798E+04</pdfrwt>
<totfact> 0.27113379E+00</totfact>
</mgrwt>
</event>
<event>
 4    1  0.1343107E-008  0.3064190E+04  0.7816531E-02  0.8225635E-01
          2   -1    0    0  501    0  0.00000000000E+00  0.00000000000E+00  0.21075509843E+04  0.21075509843E+04  0.00000000000E+00 0.  1.
         -2   -1    0    0    0  501 -0.00000000000E+00 -0.00000000000E+00 -0.11137642530E+04  0.11137642530E+04  0.00000000000E+00 0. -1.
    2000013    1    1    2    0    0  0.11461944412E+04 -0.33218934244E+03  0.64815867632E+03  0.16573234826E+04  0.95000000000E+03 0.  0.
   -2000013    1    1    2    0    0 -0.11461944412E+04  0.33218934244E+03  0.34562805502E+03  0.15639917547E+04  0.95000000000E+03 0.  0.
<mgrwt>
<rscale>  0 0.30641899E+04</rscale>
<asrwt>0</asrwt>
<pdfrwt beam="1">  1        2 0.32423861E+00 0.30641899E+04</pdfrwt>
<pdfrwt beam="2">  1       -2 0.17134835E+00 0.30641899E+04</pdfrwt>
<totfact> 0.10330766E+00</totfact>
</mgrwt>
</event>
<event>
 4    1  0.1343107E-008  0.2466358E+04  0.7816531E-02  0.8415070E-01
         -2   -1    0    0    0  501 -0.00000000000E+00  0.00000000000E+00  0.18995307500E+04  0.18995307500E+04  0.00000000000E+00 0. -1.
          2   -1    0    0  501    0  0.00000000000E+00 -0.00000000000E+00 -0.80058196612E+03  0.80058196612E+03  0.00000000000E+00 0.  1.
    2000013    1    1    2    0    0 -0.38753371381E+03 -0.28309466872E+03 -0.13237518117E+03  0.10725428473E+04  0.95000000000E+03 0.  0.
   -2000013    1    1    2    0    0  0.38753371381E+03  0.28309466872E+03  0.12313239650E+04  0.16275698687E+04  0.95000000000E+03 0.  0.
<mgrwt>
<rscale>  0 0.24663577E+04</rscale>
<asrwt>0</asrwt>
<pdfrwt beam="2">  1        2 0.12316646E+00 0.24663577E+04</pdfrwt>
<pdfrwt beam="1">  1       -2 0.29223550E+00 0.24663577E+04</pdfrwt>
<totfact> 0.10914060E+00</totfact>
</mgrwt>
</event>
<event>
 4    1  0.1343107E-008  0.2562108E+04  0.7816531E-02  0.8381188E-01
         -2   -1    0    0    0  501 -0.00000000000E+00  0.00000000000E+00  0.14896699318E+04  0.14896699318E+04  0.00000000000E+00 0.  1.
          2   -1    0    0  501    0  0.00000000000E+00 -0.00000000000E+00 -0.11016525881E+04  0.11016525881E+04  0.00000000000E+00 0. -1.
    2000013    1    1    2    0    0  0.44476997698E+03  0.69242859443E+03 -0.56445858488E+02  0.12581589032E+04  0.95000000000E+03 0.  0.
   -2000013    1    1    2    0    0 -0.44476997698E+03 -0.69242859443E+03  0.44446320223E+03  0.13331636167E+04  0.95000000000E+03 0.  0.
<mgrwt>
<rscale>  0 0.25621075E+04</rscale>
<asrwt>0</asrwt>
<pdfrwt beam="2">  1        2 0.16948501E+00 0.25621075E+04</pdfrwt>
<pdfrwt beam="1">  1       -2 0.22917999E+00 0.25621075E+04</pdfrwt>
<totfact> 0.16684106E+00</totfact>
</mgrwt>
</event>
<event>
 4    1  0.1343107E-008  0.2509802E+04  0.7816531E-02  0.8399502E-01
         -2   -1    0    0    0  501 -0.00000000000E+00  0.00000000000E+00  0.94182867384E+03  0.94182867384E+03  0.00000000000E+00 0. -1.
          2   -1    0    0  501    0  0.00000000000E+00 -0.00000000000E+00 -0.16720415395E+04  0.16720415395E+04  0.00000000000E+00 0.  1.
    2000013    1    1    2    0    0 -0.42390780335E+03  0.72862897246E+02 -0.10920978830E+04  0.15100280175E+04  0.95000000000E+03 0.  0.
   -2000013    1    1    2    0    0  0.42390780335E+03 -0.72862897246E+02  0.36188501736E+03  0.11038421958E+04  0.95000000000E+03 0.  0.
<mgrwt>
<rscale>  0 0.25098021E+04</rscale>
<asrwt>0</asrwt>
<pdfrwt beam="2">  1        2 0.25723716E+00 0.25098021E+04</pdfrwt>
<pdfrwt beam="1">  1       -2 0.14489672E+00 0.25098021E+04</pdfrwt>
<totfact> 0.29743428E+00</totfact>
</mgrwt>
</event>
<event>
 4    1  0.1343107E-008  0.2617476E+04  0.7816531E-02  0.8362289E-01
          2   -1    0    0  501    0  0.00000000000E+00  0.00000000000E+00  0.28710139387E+04  0.28710139387E+04  0.00000000000E+00 0.  1.
         -2   -1    0    0    0  501 -0.00000000000E+00 -0.00000000000E+00 -0.59658179495E+03  0.59658179495E+03  0.00000000000E+00 0. -1.
    2000013    1    1    2    0    0  0.38373697291E+03 -0.28831501324E+03  0.21460693297E+04  0.23955152221E+04  0.95000000000E+03 0.  0.
   -2000013    1    1    2    0    0 -0.38373697291E+03  0.28831501324E+03  0.12836281401E+03  0.10720805116E+04  0.95000000000E+03 0.  0.
<mgrwt>
<rscale>  0 0.26174756E+04</rscale>
<asrwt>0</asrwt>
<pdfrwt beam="1">  1        2 0.44169444E+00 0.26174756E+04</pdfrwt>
<pdfrwt beam="2">  1       -2 0.91781816E-01 0.26174756E+04</pdfrwt>
<totfact> 0.18668362E+00</totfact>
</mgrwt>
</event>
<event>
 4    1  0.1343107E-008  0.4232978E+04  0.7816531E-02  0.7959129E-01
          1   -1    0    0  501    0  0.00000000000E+00  0.00000000000E+00  0.18297336831E+04  0.18297336831E+04  0.00000000000E+00 0. -1.
         -1   -1    0    0    0  501 -0.00000000000E+00 -0.00000000000E+00 -0.24481846606E+04  0.24481846606E+04  0.00000000000E+00 0.  1.
    2000013    1    1    2    0    0  0.16247853581E+04  0.76133291595E+03 -0.91346159423E+03  0.22263125012E+04  0.95000000000E+03 0.  0.
   -2000013    1    1    2    0    0 -0.16247853581E+04 -0.76133291595E+03  0.29501061679E+03  0.20516058425E+04  0.95000000000E+03 0.  0.
<mgrwt>
<rscale>  0 0.42329781E+04</rscale>
<asrwt>0</asrwt>
<pdfrwt beam="1">  1        1 0.28149749E+00 0.42329781E+04</pdfrwt>
<pdfrwt beam="2">  1       -1 0.37664380E+00 0.42329781E+04</pdfrwt>
<totfact> 0.30770778E-02</totfact>
</mgrwt>
</event>
<event>
 4    1  0.1343107E-008  0.2845540E+04  0.7816531E-02  0.8289268E-01
          2   -1    0    0  501    0  0.00000000000E+00  0.00000000000E+00  0.30109716479E+04  0.30109716479E+04  0.00000000000E+00 0.  1.
         -2   -1    0    0    0  501 -0.00000000000E+00 -0.00000000000E+00 -0.67229935441E+03  0.67229935441E+03  0.00000000000E+00 0. -1.
    2000013    1    1    2    0    0 -0.45537611556E+03 -0.85300105599E+03  0.17287753352E+04  0.21968482805E+04  0.95000000000E+03 0.  0.
   -2000013    1    1    2    0    0  0.45537611556E+03  0.85300105599E+03  0.60989695836E+03  0.14864227218E+04  0.95000000000E+03 0.  0.
<mgrwt>
<rscale>  0 0.28455399E+04</rscale>
<asrwt>0</asrwt>
<pdfrwt beam="1">  1        2 0.46322640E+00 0.28455399E+04</pdfrwt>
<pdfrwt beam="2">  1       -2 0.10343067E+00 0.28455399E+04</pdfrwt>
<totfact> 0.11317465E+00</totfact>
</mgrwt>
</event>
<event>
 4    1  0.1343107E-008  0.2373385E+04  0.7816531E-02  0.8449536E-01
         -2   -1    0    0    0  501 -0.00000000000E+00  0.00000000000E+00  0.15574438034E+04  0.15574438034E+04  0.00000000000E+00 0. -1.
          2   -1    0    0  501    0  0.00000000000E+00 -0.00000000000E+00 -0.90419881973E+03  0.90419881973E+03  0.00000000000E+00 0.  1.
    2000013    1    1    2    0    0 -0.38838394544E+03 -0.59507345476E+03  0.35567006839E+03  0.12385296537E+04  0.95000000000E+03 0.  0.
   -2000013    1    1    2    0    0  0.38838394544E+03  0.59507345476E+03  0.29757491526E+03  0.12231129694E+04  0.95000000000E+03 0.  0.
<mgrwt>
<rscale>  0 0.23733848E+04</rscale>
<asrwt>0</asrwt>
<pdfrwt beam="2">  1        2 0.13910751E+00 0.23733848E+04</pdfrwt>
<pdfrwt beam="1">  1       -2 0.23960674E+00 0.23733848E+04</pdfrwt>
<totfact> 0.19551748E+00</totfact>
</mgrwt>
</event>
<event>
 4    1  0.1343107E-008  0.2345820E+04  0.7816531E-02  0.8460071E-01
         -2   -1    0    0    0  501 -0.00000000000E+00  0.00000000000E+00  0.52476688679E+03  0.52476688679E+03  0.00000000000E+00 0. -1.
          2   -1    0    0  501    0  0.00000000000E+00 -0.00000000000E+00 -0.26215788918E+04  0.26215788918E+04  0.00000000000E+00 0.  1.
    2000013    1    1    2    0    0  0.26031425958E+03  0.63657681337E+03 -0.10283211460E+04  0.15597877844E+04  0.95000000000E+03 0.  0.
   -2000013    1    1    2    0    0 -0.26031425958E+03 -0.63657681337E+03 -0.10684908590E+04  0.15865579941E+04  0.95000000000E+03 0.  0.
<mgrwt>
<rscale>  0 0.23458199E+04</rscale>
<asrwt>0</asrwt>
<pdfrwt beam="2">  1        2 0.40331983E+00 0.23458199E+04</pdfrwt>
<pdfrwt beam="1">  1       -2 0.80733368E-01 0.23458199E+04</pdfrwt>
<totfact> 0.36150599E+00</totfact>
</mgrwt>
</event>
<event>
 4    1  0.1343107E-008  0.2411509E+04  0.7816531E-02  0.8435207E-01
         -2   -1    0    0    0  501 -0.00000000000E+00  0.00000000000E+00  0.41473030845E+03  0.41473030845E+03  0.00000000000E+00 0. -1.
          2   -1    0    0  501    0  0.00000000000E+00 -0.00000000000E+00 -0.35055177352E+04  0.35055177352E+04  0.00000000000E+00 0.  1.
    2000013    1    1    2    0    0 -0.40487838537E+03 -0.61970532684E+03 -0.14508371261E+04  0.18855740679E+04  0.95000000000E+03 0.  0.
   -2000013    1    1    2    0    0  0.40487838537E+03  0.61970532684E+03 -0.16399503006E+04  0.20346739758E+04  0.95000000000E+03 0.  0.
<mgrwt>
<rscale>  0 0.24115094E+04</rscale>
<asrwt>0</asrwt>
<pdfrwt beam="2">  1        2 0.53931044E+00 0.24115094E+04</pdfrwt>
<pdfrwt beam="1">  1       -2 0.63804661E-01 0.24115094E+04</pdfrwt>
<totfact> 0.16477822E+00</totfact>
</mgrwt>
</event>
<event>
 4    1  0.1343107E-008  0.2657908E+04  0.7816531E-02  0.8348793E-01
          2   -1    0    0  501    0  0.00000000000E+00  0.00000000000E+00  0.25029398229E+04  0.25029398229E+04  0.00000000000E+00 0.  1.
         -2   -1    0    0    0  501 -0.00000000000E+00 -0.00000000000E+00 -0.70561784407E+03  0.70561784407E+03  0.00000000000E+00 0. -1.
    2000013    1    1    2    0    0 -0.65900174584E+02 -0.70334915959E+03  0.16275543366E+04  0.20125794374E+04  0.95000000000E+03 0.  0.
   -2000013    1    1    2    0    0  0.65900174584E+02  0.70334915959E+03  0.16976764226E+03  0.11959782296E+04  0.95000000000E+03 0.  0.
<mgrwt>
<rscale>  0 0.26579082E+04</rscale>
<asrwt>0</asrwt>
<pdfrwt beam="1">  1        2 0.38506766E+00 0.26579082E+04</pdfrwt>
<pdfrwt beam="2">  1       -2 0.10855659E+00 0.26579082E+04</pdfrwt>
<totfact> 0.20702621E+00</totfact>
</mgrwt>
</event>
<event>
 4    1  0.1343107E-008  0.2530700E+04  0.7816531E-02  0.8392129E-01
          2   -1    0    0  501    0  0.00000000000E+00  0.00000000000E+00  0.14107407723E+04  0.14107407723E+04  0.00000000000E+00 0.  1.
         -2   -1    0    0    0  501 -0.00000000000E+00 -0.00000000000E+00 -0.11349433023E+04  0.11349433023E+04  0.00000000000E+00 0. -1.
    2000013    1    1    2    0    0 -0.42855330659E+03 -0.69363492014E+03 -0.47101713281E+02  0.12527992299E+04  0.95000000000E+03 0.  0.
   -2000013    1    1    2    0    0  0.42855330659E+03  0.69363492014E+03  0.32289918330E+03  0.12928848447E+04  0.95000000000E+03 0.  0.
<mgrwt>
<rscale>  0 0.25307001E+04</rscale>
<asrwt>0</asrwt>
<pdfrwt beam="1">  1        2 0.21703704E+00 0.25307001E+04</pdfrwt>
<pdfrwt beam="2">  1       -2 0.17460666E+00 0.25307001E+04</pdfrwt>
<totfact> 0.25100422E+00</totfact>
</mgrwt>
</event>
<event>
 4    1  0.1343107E-008  0.2425873E+04  0.7816531E-02  0.8429880E-01
          2   -1    0    0  501    0  0.00000000000E+00  0.00000000000E+00  0.27726096081E+04  0.27726096081E+04  0.00000000000E+00 0.  1.
         -2   -1    0    0    0  501 -0.00000000000E+00 -0.00000000000E+00 -0.53062443170E+03  0.53062443170E+03  0.00000000000E+00 0. -1.
    2000013    1    1    2    0    0 -0.86107800749E+02  0.52773973545E+03  0.39688372503E+03  0.11601467463E+04  0.95000000000E+03 0.  0.
   -2000013    1    1    2    0    0  0.86107800749E+02 -0.52773973545E+03  0.18451014513E+04  0.21430872935E+04  0.95000000000E+03 0.  0.
<mgrwt>
<rscale>  0 0.24258725E+04</rscale>
<asrwt>0</asrwt>
<pdfrwt beam="1">  1        2 0.42655531E+00 0.24258725E+04</pdfrwt>
<pdfrwt beam="2">  1       -2 0.81634530E-01 0.24258725E+04</pdfrwt>
<totfact> 0.28469207E+00</totfact>
</mgrwt>
</event>
<event>
 4    1  0.1343107E-008  0.3085858E+04  0.7816531E-02  0.8219630E-01
          2   -1    0    0  501    0  0.00000000000E+00  0.00000000000E+00  0.23450800502E+04  0.23450800502E+04  0.00000000000E+00 0.  1.
         -2   -1    0    0    0  501 -0.00000000000E+00 -0.00000000000E+00 -0.10151593836E+04  0.10151593836E+04  0.00000000000E+00 0. -1.
    2000013    1    1    2    0    0 -0.90670015703E+02 -0.42136924517E+03 -0.57293952442E+03  0.11901818311E+04  0.95000000000E+03 0.  0.
   -2000013    1    1    2    0    0  0.90670015703E+02  0.42136924517E+03  0.19028601910E+04  0.21700576027E+04  0.95000000000E+03 0.  0.
<mgrwt>
<rscale>  0 0.30858581E+04</rscale>
<asrwt>0</asrwt>
<pdfrwt beam="1">  1        2 0.36078155E+00 0.30858581E+04</pdfrwt>
<pdfrwt beam="2">  1       -2 0.15617837E+00 0.30858581E+04</pdfrwt>
<totfact> 0.97697595E-01</totfact>
</mgrwt>
</event>
<event>
 4    1  0.1343107E-008  0.2585076E+04  0.7816531E-02  0.8373288E-01
         -2   -1    0    0    0  501 -0.00000000000E+00  0.00000000000E+00  0.13065652409E+04  0.13065652409E+04  0.00000000000E+00 0. -1.
          2   -1    0    0  501    0  0.00000000000E+00 -0.00000000000E+00 -0.12786615695E+04  0.12786615695E+04  0.00000000000E+00 0.  1.
    2000013    1    1    2    0    0  0.82472982038E+03  0.29423625372E+03  0.51377429163E+02  0.12930173587E+04  0.95000000000E+03 0.  0.
   -2000013    1    1    2    0    0 -0.82472982038E+03 -0.29423625372E+03 -0.23473757746E+02  0.12922094516E+04  0.95000000000E+03 0.  0.
<mgrwt>
<rscale>  0 0.25850762E+04</rscale>
<asrwt>0</asrwt>
<pdfrwt beam="2">  1        2 0.19671716E+00 0.25850762E+04</pdfrwt>
<pdfrwt beam="1">  1       -2 0.20101004E+00 0.25850762E+04</pdfrwt>
<totfact> 0.19737555E+00</totfact>
</mgrwt>
</event>
<event>
 4    1  0.1343107E-008  0.2161284E+04  0.7816531E-02  0.8534717E-01
          1   -1    0    0  501    0  0.00000000000E+00  0.00000000000E+00  0.19684183398E+04  0.19684183398E+04  0.00000000000E+00 0.  1.
         -1   -1    0    0    0  501 -0.00000000000E+00 -0.00000000000E+00 -0.59326176954E+03  0.59326176954E+03  0.00000000000E+00 0. -1.
    2000013    1    1    2    0    0  0.11111039012E+03  0.47823218195E+03  0.87209757581E+03  0.13798933728E+04  0.95000000000E+03 0.  0.
   -2000013    1    1    2    0    0 -0.11111039012E+03 -0.47823218195E+03  0.50305899440E+03  0.11817867365E+04  0.95000000000E+03 0.  0.
<mgrwt>
<rscale>  0 0.21612842E+04</rscale>
<asrwt>0</asrwt>
<pdfrwt beam="1">  1        1 0.30283359E+00 0.21612842E+04</pdfrwt>
<pdfrwt beam="2">  1       -1 0.91271043E-01 0.21612842E+04</pdfrwt>
<totfact> 0.33532450E+00</totfact>
</mgrwt>
</event>
<event>
 4    1  0.1343107E-008  0.2821345E+04  0.7816531E-02  0.8296672E-01
          2   -1    0    0  501    0  0.00000000000E+00  0.00000000000E+00  0.17594978367E+04  0.17594978367E+04  0.00000000000E+00 0.  1.
         -2   -1    0    0    0  501 -0.00000000000E+00 -0.00000000000E+00 -0.11310030671E+04  0.11310030671E+04  0.00000000000E+00 0. -1.
    2000013    1    1    2    0    0  0.91919266050E+03  0.17876613866E+03 -0.15594087673E+03  0.13430152778E+04  0.95000000000E+03 0.  0.
   -2000013    1    1    2    0    0 -0.91919266050E+03 -0.17876613866E+03  0.78443564628E+03  0.15474856260E+04  0.95000000000E+03 0.  0.
<mgrwt>
<rscale>  0 0.28213454E+04</rscale>
<asrwt>0</asrwt>
<pdfrwt beam="1">  1        2 0.27069198E+00 0.28213454E+04</pdfrwt>
<pdfrwt beam="2">  1       -2 0.17400047E+00 0.28213454E+04</pdfrwt>
<totfact> 0.15765127E+00</totfact>
</mgrwt>
</event>
<event>
 4    1  0.1343107E-008  0.3148765E+04  0.7816531E-02  0.8202481E-01
         -2   -1    0    0    0  501 -0.00000000000E+00  0.00000000000E+00  0.95052401217E+03  0.95052401217E+03  0.00000000000E+00 0. -1.
          2   -1    0    0  501    0  0.00000000000E+00 -0.00000000000E+00 -0.26076983870E+04  0.26076983870E+04  0.00000000000E+00 0.  1.
    2000013    1    1    2    0    0  0.10831581205E+04 -0.59337027576E+03 -0.10834354186E+04  0.18978019139E+04  0.95000000000E+03 0.  0.
   -2000013    1    1    2    0    0 -0.10831581205E+04  0.59337027576E+03 -0.57373895626E+03  0.16604204853E+04  0.95000000000E+03 0.  0.
<mgrwt>
<rscale>  0 0.31487648E+04</rscale>
<asrwt>0</asrwt>
<pdfrwt beam="2">  1        2 0.40118436E+00 0.31487648E+04</pdfrwt>
<pdfrwt beam="1">  1       -2 0.14623446E+00 0.31487648E+04</pdfrwt>
<totfact> 0.81586197E-01</totfact>
</mgrwt>
</event>
<event>
 4    1  0.1343107E-008  0.2667390E+04  0.7816531E-02  0.8345664E-01
          1   -1    0    0  501    0  0.00000000000E+00  0.00000000000E+00  0.23749925100E+04  0.23749925100E+04  0.00000000000E+00 0.  1.
         -1   -1    0    0    0  501 -0.00000000000E+00 -0.00000000000E+00 -0.74894642184E+03  0.74894642184E+03  0.00000000000E+00 0. -1.
    2000013    1    1    2    0    0 -0.63357911465E+03  0.55796993153E+03  0.33947877923E+03  0.13154842381E+04  0.95000000000E+03 0.  0.
   -2000013    1    1    2    0    0  0.63357911465E+03 -0.55796993153E+03  0.12865673089E+04  0.18084546938E+04  0.95000000000E+03 0.  0.
<mgrwt>
<rscale>  0 0.26673898E+04</rscale>
<asrwt>0</asrwt>
<pdfrwt beam="1">  1        1 0.36538346E+00 0.26673898E+04</pdfrwt>
<pdfrwt beam="2">  1       -1 0.11522253E+00 0.26673898E+04</pdfrwt>
<totfact> 0.98850855E-01</totfact>
</mgrwt>
</event>
<event>
 4    1  0.1343107E-008  0.2762243E+04  0.7816531E-02  0.8315087E-01
         -2   -1    0    0    0  501 -0.00000000000E+00  0.00000000000E+00  0.91228238698E+03  0.91228238698E+03  0.00000000000E+00 0. -1.
          2   -1    0    0  501    0  0.00000000000E+00 -0.00000000000E+00 -0.20909055396E+04  0.20909055396E+04  0.00000000000E+00 0.  1.
    2000013    1    1    2    0    0 -0.27963926926E+03  0.87993060300E+03 -0.10139159869E+04  0.16682330819E+04  0.95000000000E+03 0.  0.
   -2000013    1    1    2    0    0  0.27963926926E+03 -0.87993060300E+03 -0.16470716577E+03  0.13349548447E+04  0.95000000000E+03 0.  0.
<mgrwt>
<rscale>  0 0.27622428E+04</rscale>
<asrwt>0</asrwt>
<pdfrwt beam="2">  1        2 0.32167777E+00 0.27622428E+04</pdfrwt>
<pdfrwt beam="1">  1       -2 0.14035114E+00 0.27622428E+04</pdfrwt>
<totfact> 0.18516479E+00</totfact>
</mgrwt>
</event>
<event>
 4    1  0.1343107E-008  0.2462946E+04  0.7816531E-02  0.8416307E-01
         -2   -1    0    0    0  501 -0.00000000000E+00  0.00000000000E+00  0.12059547506E+04  0.12059547506E+04  0.00000000000E+00 0. -1.
          2   -1    0    0  501    0  0.00000000000E+00 -0.00000000000E+00 -0.12575307810E+04  0.12575307810E+04  0.00000000000E+00 0.  1.
    2000013    1    1    2    0    0 -0.40297913073E+03  0.53068833600E+03 -0.43819252386E+03  0.12403769499E+04  0.95000000000E+03 0.  0.
   -2000013    1    1    2    0    0  0.40297913073E+03 -0.53068833600E+03  0.38661649342E+03  0.12231085818E+04  0.95000000000E+03 0.  0.
<mgrwt>
<rscale>  0 0.24629456E+04</rscale>
<asrwt>0</asrwt>
<pdfrwt beam="2">  1        2 0.19346627E+00 0.24629456E+04</pdfrwt>
<pdfrwt beam="1">  1       -2 0.18553150E+00 0.24629456E+04</pdfrwt>
<totfact> 0.26025629E+00</totfact>
</mgrwt>
</event>
<event>
 4    1  0.1343107E-008  0.3069538E+04  0.7816531E-02  0.8224148E-01
         -2   -1    0    0    0  501 -0.00000000000E+00  0.00000000000E+00  0.15240889497E+04  0.15240889497E+04  0.00000000000E+00 0. -1.
          2   -1    0    0  501    0  0.00000000000E+00 -0.00000000000E+00 -0.15455237115E+04  0.15455237115E+04  0.00000000000E+00 0.  1.
    2000013    1    1    2    0    0 -0.64145731037E+03 -0.10204366642E+04 -0.26753464850E+02  0.15349183088E+04  0.95000000000E+03 0.  0.
   -2000013    1    1    2    0    0  0.64145731037E+03  0.10204366642E+04  0.53187030249E+01  0.15346943524E+04  0.95000000000E+03 0.  0.
<mgrwt>
<rscale>  0 0.30695378E+04</rscale>
<asrwt>0</asrwt>
<pdfrwt beam="2">  1        2 0.23777288E+00 0.30695378E+04</pdfrwt>
<pdfrwt beam="1">  1       -2 0.23447522E+00 0.30695378E+04</pdfrwt>
<totfact> 0.81649007E-01</totfact>
</mgrwt>
</event>
<event>
 4    1  0.1343107E-008  0.2447337E+04  0.7816531E-02  0.8421991E-01
         -2   -1    0    0    0  501 -0.00000000000E+00  0.00000000000E+00  0.40116595687E+03  0.40116595687E+03  0.00000000000E+00 0. -1.
          2   -1    0    0  501    0  0.00000000000E+00 -0.00000000000E+00 -0.37325321371E+04  0.37325321371E+04  0.00000000000E+00 0.  1.
    2000013    1    1    2    0    0  0.55062442875E+03 -0.51595623297E+03 -0.19352282519E+04  0.22840767244E+04  0.95000000000E+03 0.  0.
   -2000013    1    1    2    0    0 -0.55062442875E+03  0.51595623297E+03 -0.13961379282E+04  0.18496213695E+04  0.95000000000E+03 0.  0.
<mgrwt>
<rscale>  0 0.24473372E+04</rscale>
<asrwt>0</asrwt>
<pdfrwt beam="2">  1        2 0.57423570E+00 0.24473372E+04</pdfrwt>
<pdfrwt beam="1">  1       -2 0.61717841E-01 0.24473372E+04</pdfrwt>
<totfact> 0.12095181E+00</totfact>
</mgrwt>
</event>
<event>
 4    1  0.1343107E-008  0.1982448E+04  0.7816531E-02  0.8614871E-01
         -2   -1    0    0    0  501 -0.00000000000E+00  0.00000000000E+00  0.10290011357E+04  0.10290011357E+04  0.00000000000E+00 0.  1.
          2   -1    0    0  501    0  0.00000000000E+00 -0.00000000000E+00 -0.95483386916E+03  0.95483386916E+03  0.00000000000E+00 0. -1.
    2000013    1    1    2    0    0  0.21747615495E+03  0.17330786344E+03 -0.14852985858E+02  0.98997581016E+03  0.95000000000E+03 0.  0.
   -2000013    1    1    2    0    0 -0.21747615495E+03 -0.17330786344E+03  0.89020252360E+02  0.99385919467E+03  0.95000000000E+03 0.  0.
<mgrwt>
<rscale>  0 0.19824481E+04</rscale>
<asrwt>0</asrwt>
<pdfrwt beam="2">  1        2 0.14689752E+00 0.19824481E+04</pdfrwt>
<pdfrwt beam="1">  1       -2 0.15830787E+00 0.19824481E+04</pdfrwt>
<totfact> 0.65002836E+00</totfact>
</mgrwt>
</event>
<event>
 4    1  0.1343107E-008  0.1954928E+04  0.7816531E-02  0.8627988E-01
          2   -1    0    0  501    0  0.00000000000E+00  0.00000000000E+00  0.93131850376E+03  0.93131850376E+03  0.00000000000E+00 0.  1.
         -2   -1    0    0    0  501 -0.00000000000E+00 -0.00000000000E+00 -0.10258959979E+04  0.10258959979E+04  0.00000000000E+00 0. -1.
    2000013    1    1    2    0    0  0.14001982183E+03 -0.15486617114E+03  0.49503405679E+02  0.97393001219E+03  0.95000000000E+03 0.  0.
   -2000013    1    1    2    0    0 -0.14001982183E+03  0.15486617114E+03 -0.14408089977E+03  0.98328448943E+03  0.95000000000E+03 0.  0.
<mgrwt>
<rscale>  0 0.19549281E+04</rscale>
<asrwt>0</asrwt>
<pdfrwt beam="1">  1        2 0.14327977E+00 0.19549281E+04</pdfrwt>
<pdfrwt beam="2">  1       -2 0.15783015E+00 0.19549281E+04</pdfrwt>
<totfact> 0.68078163E+00</totfact>
</mgrwt>
</event>
<event>
 4    1  0.1343107E-008  0.2382186E+04  0.7816531E-02  0.8446203E-01
          2   -1    0    0  501    0  0.00000000000E+00  0.00000000000E+00  0.55134860183E+03  0.55134860183E+03  0.00000000000E+00 0.  1.
         -2   -1    0    0    0  501 -0.00000000000E+00 -0.00000000000E+00 -0.25731501670E+04  0.25731501670E+04  0.00000000000E+00 0. -1.
    2000013    1    1    2    0    0 -0.48761009455E+03  0.52438470099E+03 -0.93375149726E+03  0.15123276026E+04  0.95000000000E+03 0.  0.
   -2000013    1    1    2    0    0  0.48761009455E+03 -0.52438470099E+03 -0.10880500679E+04  0.16121711662E+04  0.95000000000E+03 0.  0.
<mgrwt>
<rscale>  0 0.23821862E+04</rscale>
<asrwt>0</asrwt>
<pdfrwt beam="1">  1        2 0.84822863E-01 0.23821862E+04</pdfrwt>
<pdfrwt beam="2">  1       -2 0.39586925E+00 0.23821862E+04</pdfrwt>
<totfact> 0.39074868E-01</totfact>
</mgrwt>
</event>
<event>
 4    1  0.1343107E-008  0.2550967E+04  0.7816531E-02  0.8385050E-01
         -1   -1    0    0    0  501 -0.00000000000E+00  0.00000000000E+00  0.90973538965E+03  0.90973538965E+03  0.00000000000E+00 0.  1.
          1   -1    0    0  501    0  0.00000000000E+00 -0.00000000000E+00 -0.17882762717E+04  0.17882762717E+04  0.00000000000E+00 0. -1.
    2000013    1    1    2    0    0  0.29667578007E+03 -0.76729191156E+03 -0.20850837687E+03  0.12738638621E+04  0.95000000000E+03 0.  0.
   -2000013    1    1    2    0    0 -0.29667578007E+03  0.76729191156E+03 -0.67003250517E+03  0.14241477992E+04  0.95000000000E+03 0.  0.
<mgrwt>
<rscale>  0 0.25509670E+04</rscale>
<asrwt>0</asrwt>
<pdfrwt beam="2">  1        1 0.27511943E+00 0.25509670E+04</pdfrwt>
<pdfrwt beam="1">  1       -1 0.13995929E+00 0.25509670E+04</pdfrwt>
<totfact> 0.15394999E+00</totfact>
</mgrwt>
</event>
<event>
 4    1  0.1343107E-008  0.2836048E+04  0.7816531E-02  0.8292164E-01
         -2   -1    0    0    0  501 -0.00000000000E+00  0.00000000000E+00  0.41944434329E+03  0.41944434329E+03  0.00000000000E+00 0. -1.
          2   -1    0    0  501    0  0.00000000000E+00 -0.00000000000E+00 -0.47939415332E+04  0.47939415332E+04  0.00000000000E+00 0.  1.
    2000013    1    1    2    0    0 -0.86777036182E+03  0.38134975502E+03 -0.30293202530E+04  0.33132663992E+04  0.95000000000E+03 0.  0.
   -2000013    1    1    2    0    0  0.86777036182E+03 -0.38134975502E+03 -0.13451769368E+04  0.19001194773E+04  0.95000000000E+03 0.  0.
<mgrwt>
<rscale>  0 0.28360477E+04</rscale>
<asrwt>0</asrwt>
<pdfrwt beam="2">  1        2 0.73752943E+00 0.28360477E+04</pdfrwt>
<pdfrwt beam="1">  1       -2 0.64529902E-01 0.28360477E+04</pdfrwt>
<totfact> 0.11653766E-01</totfact>
</mgrwt>
</event>
<event>
 4    1  0.1343107E-008  0.2845523E+04  0.7816531E-02  0.8289273E-01
         -2   -1    0    0    0  501 -0.00000000000E+00  0.00000000000E+00  0.64471568694E+03  0.64471568694E+03  0.00000000000E+00 0. -1.
          2   -1    0    0  501    0  0.00000000000E+00 -0.00000000000E+00 -0.31397573868E+04  0.31397573868E+04  0.00000000000E+00 0.  1.
    2000013    1    1    2    0    0  0.10120933691E+04  0.18171448137E+03 -0.91001722807E+03  0.16697258745E+04  0.95000000000E+03 0.  0.
   -2000013    1    1    2    0    0 -0.10120933691E+04 -0.18171448137E+03 -0.15850244718E+04  0.21147471993E+04  0.95000000000E+03 0.  0.
<mgrwt>
<rscale>  0 0.28455234E+04</rscale>
<asrwt>0</asrwt>
<pdfrwt beam="2">  1        2 0.48303960E+00 0.28455234E+04</pdfrwt>
<pdfrwt beam="1">  1       -2 0.99187028E-01 0.28455234E+04</pdfrwt>
<totfact> 0.10354063E+00</totfact>
</mgrwt>
</event>
<event>
 4    1  0.1343107E-008  0.2730539E+04  0.7816531E-02  0.8325164E-01
         -2   -1    0    0    0  501 -0.00000000000E+00  0.00000000000E+00  0.11464710971E+04  0.11464710971E+04  0.00000000000E+00 0. -1.
          2   -1    0    0  501    0  0.00000000000E+00 -0.00000000000E+00 -0.16258245341E+04  0.16258245341E+04  0.00000000000E+00 0.  1.
    2000013    1    1    2    0    0  0.35678140944E+03 -0.72448781165E+03  0.32496215486E+03  0.12885169636E+04  0.95000000000E+03 0.  0.
   -2000013    1    1    2    0    0 -0.35678140944E+03  0.72448781165E+03 -0.80431559179E+03  0.14837786676E+04  0.95000000000E+03 0.  0.
<mgrwt>
<rscale>  0 0.27305390E+04</rscale>
<asrwt>0</asrwt>
<pdfrwt beam="2">  1        2 0.25012685E+00 0.27305390E+04</pdfrwt>
<pdfrwt beam="1">  1       -2 0.17638017E+00 0.27305390E+04</pdfrwt>
<totfact> 0.18141532E+00</totfact>
</mgrwt>
</event>
<event>
 4    1  0.1343107E-008  0.2211828E+04  0.7816531E-02  0.8513521E-01
          2   -1    0    0  501    0  0.00000000000E+00  0.00000000000E+00  0.17777522750E+04  0.17777522750E+04  0.00000000000E+00 0.  1.
         -2   -1    0    0    0  501 -0.00000000000E+00 -0.00000000000E+00 -0.68797321391E+03  0.68797321391E+03  0.00000000000E+00 0. -1.
    2000013    1    1    2    0    0 -0.18537963465E+03  0.49729001721E+03  0.32506655034E+03  0.11357073709E+04  0.95000000000E+03 0.  0.
   -2000013    1    1    2    0    0  0.18537963465E+03 -0.49729001721E+03  0.76471251075E+03  0.13300181180E+04  0.95000000000E+03 0.  0.
<mgrwt>
<rscale>  0 0.22118282E+04</rscale>
<asrwt>0</asrwt>
<pdfrwt beam="1">  1        2 0.27350035E+00 0.22118282E+04</pdfrwt>
<pdfrwt beam="2">  1       -2 0.10584203E+00 0.22118282E+04</pdfrwt>
<totfact> 0.58459991E+00</totfact>
</mgrwt>
</event>
<event>
 4    1  0.1343107E-008  0.2567390E+04  0.7816531E-02  0.8379363E-01
          2   -1    0    0  501    0  0.00000000000E+00  0.00000000000E+00  0.14653111855E+04  0.14653111855E+04  0.00000000000E+00 0.  1.
         -2   -1    0    0    0  501 -0.00000000000E+00 -0.00000000000E+00 -0.11245887644E+04  0.11245887644E+04  0.00000000000E+00 0. -1.
    2000013    1    1    2    0    0  0.81410629633E+03  0.22851921466E+03 -0.54725417337E+01  0.12718176135E+04  0.95000000000E+03 0.  0.
   -2000013    1    1    2    0    0 -0.81410629633E+03 -0.22851921466E+03  0.34619496283E+03  0.13180823364E+04  0.95000000000E+03 0.  0.
<mgrwt>
<rscale>  0 0.25673897E+04</rscale>
<asrwt>0</asrwt>
<pdfrwt beam="1">  1        2 0.22543249E+00 0.25673897E+04</pdfrwt>
<pdfrwt beam="2">  1       -2 0.17301365E+00 0.25673897E+04</pdfrwt>
<totfact> 0.23905868E+00</totfact>
</mgrwt>
</event>
<event>
 4    1  0.1343107E-008  0.2305959E+04  0.7816531E-02  0.8475575E-01
         -2   -1    0    0    0  501 -0.00000000000E+00  0.00000000000E+00  0.54081497693E+03  0.54081497693E+03  0.00000000000E+00 0. -1.
          2   -1    0    0  501    0  0.00000000000E+00 -0.00000000000E+00 -0.24580704880E+04  0.24580704880E+04  0.00000000000E+00 0.  1.
    2000013    1    1    2    0    0  0.28062248641E+03  0.15623440055E+02 -0.19159172258E+03  0.10090591954E+04  0.95000000000E+03 0.  0.
   -2000013    1    1    2    0    0 -0.28062248641E+03 -0.15623440055E+02 -0.17256637885E+04  0.19898262694E+04  0.95000000000E+03 0.  0.
<mgrwt>
<rscale>  0 0.23059587E+04</rscale>
<asrwt>0</asrwt>
<pdfrwt beam="2">  1        2 0.37816469E+00 0.23059587E+04</pdfrwt>
<pdfrwt beam="1">  1       -2 0.83202305E-01 0.23059587E+04</pdfrwt>
<totfact> 0.42192161E+00</totfact>
</mgrwt>
</event>
<event>
 4    1  0.1343107E-008  0.2241808E+04  0.7816531E-02  0.8501226E-01
         -2   -1    0    0    0  501 -0.00000000000E+00  0.00000000000E+00  0.95182216176E+03  0.95182216176E+03  0.00000000000E+00 0. -1.
          2   -1    0    0  501    0  0.00000000000E+00 -0.00000000000E+00 -0.13200214240E+04  0.13200214240E+04  0.00000000000E+00 0.  1.
    2000013    1    1    2    0    0 -0.14982196538E+03 -0.44921130759E+03  0.18084779821E+03  0.10767745104E+04  0.95000000000E+03 0.  0.
   -2000013    1    1    2    0    0  0.14982196538E+03  0.44921130759E+03 -0.54904706040E+03  0.11950690753E+04  0.95000000000E+03 0.  0.
<mgrwt>
<rscale>  0 0.22418079E+04</rscale>
<asrwt>0</asrwt>
<pdfrwt beam="2">  1        2 0.20308022E+00 0.22418079E+04</pdfrwt>
<pdfrwt beam="1">  1       -2 0.14643418E+00 0.22418079E+04</pdfrwt>
<totfact> 0.46815359E+00</totfact>
</mgrwt>
</event>
<event>
 4    1  0.1343107E-008  0.2099881E+04  0.7816531E-02  0.8561296E-01
         -2   -1    0    0    0  501 -0.00000000000E+00  0.00000000000E+00  0.66055648673E+03  0.66055648673E+03  0.00000000000E+00 0.  1.
          2   -1    0    0  501    0  0.00000000000E+00 -0.00000000000E+00 -0.16688583103E+04  0.16688583103E+04  0.00000000000E+00 0. -1.
    2000013    1    1    2    0    0  0.20397316578E+03 -0.23245036185E+03 -0.86229928881E+03  0.13197341727E+04  0.95000000000E+03 0.  0.
   -2000013    1    1    2    0    0 -0.20397316578E+03  0.23245036185E+03 -0.14600253481E+03  0.10096806244E+04  0.95000000000E+03 0.  0.
<mgrwt>
<rscale>  0 0.20998811E+04</rscale>
<asrwt>0</asrwt>
<pdfrwt beam="2">  1        2 0.25674743E+00 0.20998811E+04</pdfrwt>
<pdfrwt beam="1">  1       -2 0.10162408E+00 0.20998811E+04</pdfrwt>
<totfact> 0.74774549E+00</totfact>
</mgrwt>
</event>
<event>
 4    1  0.1343107E-008  0.2836747E+04  0.7816531E-02  0.8291950E-01
         -2   -1    0    0    0  501 -0.00000000000E+00  0.00000000000E+00  0.61152326206E+03  0.61152326206E+03  0.00000000000E+00 0. -1.
          2   -1    0    0  501    0  0.00000000000E+00 -0.00000000000E+00 -0.32897909840E+04  0.32897909840E+04  0.00000000000E+00 0.  1.
    2000013    1    1    2    0    0 -0.95833028776E+03 -0.42214752226E+03 -0.11842807871E+04  0.18443498729E+04  0.95000000000E+03 0.  0.
   -2000013    1    1    2    0    0  0.95833028776E+03  0.42214752226E+03 -0.14939869349E+04  0.20569643732E+04  0.95000000000E+03 0.  0.
<mgrwt>
<rscale>  0 0.28367472E+04</rscale>
<asrwt>0</asrwt>
<pdfrwt beam="2">  1        2 0.50612168E+00 0.28367472E+04</pdfrwt>
<pdfrwt beam="1">  1       -2 0.94080503E-01 0.28367472E+04</pdfrwt>
<totfact> 0.93547875E-01</totfact>
</mgrwt>
</event>
<event>
 4    1  0.1343107E-008  0.2695238E+04  0.7816531E-02  0.8336552E-01
         -2   -1    0    0    0  501 -0.00000000000E+00  0.00000000000E+00  0.84252849585E+03  0.84252849585E+03  0.00000000000E+00 0. -1.
          2   -1    0    0  501    0  0.00000000000E+00 -0.00000000000E+00 -0.21555088153E+04  0.21555088153E+04  0.00000000000E+00 0.  1.
    2000013    1    1    2    0    0 -0.81786154526E+03 -0.11452089053E+03 -0.12121591071E+03  0.12645971052E+04  0.95000000000E+03 0.  0.
   -2000013    1    1    2    0    0  0.81786154526E+03  0.11452089053E+03 -0.11917644088E+04  0.17334402059E+04  0.95000000000E+03 0.  0.
<mgrwt>
<rscale>  0 0.26952385E+04</rscale>
<asrwt>0</asrwt>
<pdfrwt beam="2">  1        2 0.33161673E+00 0.26952385E+04</pdfrwt>
<pdfrwt beam="1">  1       -2 0.12961977E+00 0.26952385E+04</pdfrwt>
<totfact> 0.21003280E+00</totfact>
</mgrwt>
</event>
<event>
 4    1  0.1343107E-008  0.2273267E+04  0.7816531E-02  0.8488537E-01
          2   -1    0    0  501    0  0.00000000000E+00  0.00000000000E+00  0.60513109672E+03  0.60513109672E+03  0.00000000000E+00 0.  1.
         -2   -1    0    0    0  501 -0.00000000000E+00 -0.00000000000E+00 -0.21349687456E+04  0.21349687456E+04  0.00000000000E+00 0. -1.
    2000013    1    1    2    0    0 -0.47973306294E+03 -0.39869311865E+03 -0.78701220730E+03  0.13823849786E+04  0.95000000000E+03 0.  0.
   -2000013    1    1    2    0    0  0.47973306294E+03  0.39869311865E+03 -0.74282544155E+03  0.13577148637E+04  0.95000000000E+03 0.  0.
<mgrwt>
<rscale>  0 0.22732672E+04</rscale>
<asrwt>0</asrwt>
<pdfrwt beam="1">  1        2 0.93097092E-01 0.22732672E+04</pdfrwt>
<pdfrwt beam="2">  1       -2 0.32845673E+00 0.22732672E+04</pdfrwt>
<totfact> 0.94732489E-01</totfact>
</mgrwt>
</event>
<event>
 4    1  0.1343107E-008  0.3236788E+04  0.7816531E-02  0.8179168E-01
         -1   -1    0    0    0  501 -0.00000000000E+00  0.00000000000E+00  0.14818426111E+04  0.14818426111E+04  0.00000000000E+00 0.  1.
          1   -1    0    0  501    0  0.00000000000E+00 -0.00000000000E+00 -0.17675289257E+04  0.17675289257E+04  0.00000000000E+00 0. -1.
    2000013    1    1    2    0    0 -0.21502351913E+03 -0.10667616459E+04  0.58970877227E+03  0.15602794490E+04  0.95000000000E+03 0.  0.
   -2000013    1    1    2    0    0  0.21502351913E+03  0.10667616459E+04 -0.87539508680E+03  0.16890920878E+04  0.95000000000E+03 0.  0.
<mgrwt>
<rscale>  0 0.32367883E+04</rscale>
<asrwt>0</asrwt>
<pdfrwt beam="2">  1        1 0.27192753E+00 0.32367883E+04</pdfrwt>
<pdfrwt beam="1">  1       -1 0.22797579E+00 0.32367883E+04</pdfrwt>
<totfact> 0.34810207E-01</totfact>
</mgrwt>
</event>
<event>
 4    1  0.1343107E-008  0.3524098E+04  0.7816531E-02  0.8108103E-01
          2   -1    0    0  501    0  0.00000000000E+00  0.00000000000E+00  0.10939847958E+04  0.10939847958E+04  0.00000000000E+00 0.  1.
         -2   -1    0    0    0  501 -0.00000000000E+00 -0.00000000000E+00 -0.28380801434E+04  0.28380801434E+04  0.00000000000E+00 0. -1.
    2000013    1    1    2    0    0 -0.14014340227E+04  0.44065220371E+02 -0.14144947526E+04  0.22066387264E+04  0.95000000000E+03 0.  0.
   -2000013    1    1    2    0    0  0.14014340227E+04 -0.44065220371E+02 -0.32960059511E+03  0.17254262128E+04  0.95000000000E+03 0.  0.
<mgrwt>
<rscale>  0 0.35240979E+04</rscale>
<asrwt>0</asrwt>
<pdfrwt beam="1">  1        2 0.16830535E+00 0.35240979E+04</pdfrwt>
<pdfrwt beam="2">  1       -2 0.43662771E+00 0.35240979E+04</pdfrwt>
<totfact> 0.76611214E-02</totfact>
</mgrwt>
</event>
<event>
 4    1  0.1343107E-008  0.3840467E+04  0.7816531E-02  0.8037526E-01
         -2   -1    0    0    0  501 -0.00000000000E+00  0.00000000000E+00  0.14744797193E+04  0.14744797193E+04  0.00000000000E+00 0. -1.
          2   -1    0    0  501    0  0.00000000000E+00 -0.00000000000E+00 -0.25007448163E+04  0.25007448163E+04  0.00000000000E+00 0.  1.
    2000013    1    1    2    0    0  0.15503723576E+04  0.61149890764E+03 -0.60103683700E+03  0.20103061062E+04  0.95000000000E+03 0.  0.
   -2000013    1    1    2    0    0 -0.15503723576E+04 -0.61149890764E+03 -0.42522826005E+03  0.19649184294E+04  0.95000000000E+03 0.  0.
<mgrwt>
<rscale>  0 0.38404674E+04</rscale>
<asrwt>0</asrwt>
<pdfrwt beam="2">  1        2 0.38472997E+00 0.38404674E+04</pdfrwt>
<pdfrwt beam="1">  1       -2 0.22684304E+00 0.38404674E+04</pdfrwt>
<totfact> 0.24869220E-01</totfact>
</mgrwt>
</event>
<event>
 4    1  0.1343107E-008  0.2678302E+04  0.7816531E-02  0.8342080E-01
         -2   -1    0    0    0  501 -0.00000000000E+00  0.00000000000E+00  0.75816351290E+03  0.75816351290E+03  0.00000000000E+00 0. -1.
          2   -1    0    0  501    0  0.00000000000E+00 -0.00000000000E+00 -0.23653549910E+04  0.23653549910E+04  0.00000000000E+00 0.  1.
    2000013    1    1    2    0    0 -0.81686130352E+03 -0.46833972658E+03 -0.87936808019E+03  0.16007475470E+04  0.95000000000E+03 0.  0.
   -2000013    1    1    2    0    0  0.81686130352E+03  0.46833972658E+03 -0.72782339787E+03  0.15227709569E+04  0.95000000000E+03 0.  0.
<mgrwt>
<rscale>  0 0.26783023E+04</rscale>
<asrwt>0</asrwt>
<pdfrwt beam="2">  1        2 0.36390076E+00 0.26783023E+04</pdfrwt>
<pdfrwt beam="1">  1       -2 0.11664054E+00 0.26783023E+04</pdfrwt>
<totfact> 0.20825893E+00</totfact>
</mgrwt>
</event>
<event>
 4    1  0.1343107E-008  0.2109760E+04  0.7816531E-02  0.8556956E-01
         -2   -1    0    0    0  501 -0.00000000000E+00  0.00000000000E+00  0.59809923635E+03  0.59809923635E+03  0.00000000000E+00 0. -1.
          2   -1    0    0  501    0  0.00000000000E+00 -0.00000000000E+00 -0.18605144080E+04  0.18605144080E+04  0.00000000000E+00 0.  1.
    2000013    1    1    2    0    0 -0.23549669233E+03  0.38848389564E+03 -0.55848908148E+03  0.11919683232E+04  0.95000000000E+03 0.  0.
   -2000013    1    1    2    0    0  0.23549669233E+03 -0.38848389564E+03 -0.70392609017E+03  0.12666453212E+04  0.95000000000E+03 0.  0.
<mgrwt>
<rscale>  0 0.21097604E+04</rscale>
<asrwt>0</asrwt>
<pdfrwt beam="2">  1        2 0.28623298E+00 0.21097604E+04</pdfrwt>
<pdfrwt beam="1">  1       -2 0.92015269E-01 0.21097604E+04</pdfrwt>
<totfact> 0.73831059E+00</totfact>
</mgrwt>
</event>
<event>
 4    1  0.1343107E-008  0.2485455E+04  0.7816531E-02  0.8408186E-01
          2   -1    0    0  501    0  0.00000000000E+00  0.00000000000E+00  0.24831231143E+04  0.24831231143E+04  0.00000000000E+00 0.  1.
         -2   -1    0    0    0  501 -0.00000000000E+00 -0.00000000000E+00 -0.62194725367E+03  0.62194725367E+03  0.00000000000E+00 0. -1.
    2000013    1    1    2    0    0  0.13864807063E+03 -0.62379813503E+03  0.32687358624E+03  0.11906694513E+04  0.95000000000E+03 0.  0.
   -2000013    1    1    2    0    0 -0.13864807063E+03  0.62379813503E+03  0.15343022744E+04  0.19144009167E+04  0.95000000000E+03 0.  0.
<mgrwt>
<rscale>  0 0.24854550E+04</rscale>
<asrwt>0</asrwt>
<pdfrwt beam="1">  1        2 0.38201894E+00 0.24854550E+04</pdfrwt>
<pdfrwt beam="2">  1       -2 0.95684194E-01 0.24854550E+04</pdfrwt>
<totfact> 0.29132361E+00</totfact>
</mgrwt>
</event>
<event>
 4    1  0.1343107E-008  0.4168001E+04  0.7816531E-02  0.7971487E-01
          1   -1    0    0  501    0  0.00000000000E+00  0.00000000000E+00  0.21598688341E+04  0.21598688341E+04  0.00000000000E+00 0.  1.
         -1   -1    0    0    0  501 -0.00000000000E+00 -0.00000000000E+00 -0.20107975983E+04  0.20107975983E+04  0.00000000000E+00 0. -1.
    2000013    1    1    2    0    0  0.38908134242E+03 -0.18135010724E+04  0.54809223253E+02  0.20846281399E+04  0.95000000000E+03 0.  0.
   -2000013    1    1    2    0    0 -0.38908134242E+03  0.18135010724E+04  0.94262012567E+02  0.20860382925E+04  0.95000000000E+03 0.  0.
<mgrwt>
<rscale>  0 0.41680015E+04</rscale>
<asrwt>0</asrwt>
<pdfrwt beam="1">  1        1 0.33228751E+00 0.41680015E+04</pdfrwt>
<pdfrwt beam="2">  1       -1 0.30935348E+00 0.41680015E+04</pdfrwt>
<totfact> 0.51430459E-02</totfact>
</mgrwt>
</event>
<event>
 4    1  0.1343107E-008  0.2003659E+04  0.7816531E-02  0.8604912E-01
         -2   -1    0    0    0  501 -0.00000000000E+00  0.00000000000E+00  0.10559966696E+04  0.10559966696E+04  0.00000000000E+00 0. -1.
          2   -1    0    0  501    0  0.00000000000E+00 -0.00000000000E+00 -0.95044060304E+03  0.95044060304E+03  0.00000000000E+00 0.  1.
    2000013    1    1    2    0    0  0.26530142188E+03 -0.95648584309E+02 -0.94492610283E+02  0.99547091848E+03  0.95000000000E+03 0.  0.
   -2000013    1    1    2    0    0 -0.26530142188E+03  0.95648584309E+02  0.20004867683E+03  0.10109663542E+04  0.95000000000E+03 0.  0.
<mgrwt>
<rscale>  0 0.20036588E+04</rscale>
<asrwt>0</asrwt>
<pdfrwt beam="2">  1        2 0.14622163E+00 0.20036588E+04</pdfrwt>
<pdfrwt beam="1">  1       -2 0.16246103E+00 0.20036588E+04</pdfrwt>
<totfact> 0.60868125E+00</totfact>
</mgrwt>
</event>
<event>
 4    1  0.1343107E-008  0.2343622E+04  0.7816531E-02  0.8460918E-01
         -1   -1    0    0    0  501 -0.00000000000E+00  0.00000000000E+00  0.27274761161E+04  0.27274761161E+04  0.00000000000E+00 0. -1.
          1   -1    0    0  501    0  0.00000000000E+00 -0.00000000000E+00 -0.50344729685E+03  0.50344729685E+03  0.00000000000E+00 0.  1.
    2000013    1    1    2    0    0  0.30758162311E+03 -0.56201222290E+03  0.14501974832E+04  0.18482524000E+04  0.95000000000E+03 0.  0.
   -2000013    1    1    2    0    0 -0.30758162311E+03  0.56201222290E+03  0.77383133601E+03  0.13826710130E+04  0.95000000000E+03 0.  0.
<mgrwt>
<rscale>  0 0.23436215E+04</rscale>
<asrwt>0</asrwt>
<pdfrwt beam="2">  1        1 0.77453432E-01 0.23436215E+04</pdfrwt>
<pdfrwt beam="1">  1       -1 0.41961170E+00 0.23436215E+04</pdfrwt>
<totfact> 0.20744095E-01</totfact>
</mgrwt>
</event>
<event>
 4    1  0.1343107E-008  0.2177303E+04  0.7816531E-02  0.8527935E-01
         -1   -1    0    0    0  501 -0.00000000000E+00  0.00000000000E+00  0.61979269466E+03  0.61979269466E+03  0.00000000000E+00 0. -1.
          1   -1    0    0  501    0  0.00000000000E+00 -0.00000000000E+00 -0.19121906451E+04  0.19121906451E+04  0.00000000000E+00 0.  1.
    2000013    1    1    2    0    0  0.20923069024E+03  0.46617138742E+03 -0.81698506129E+03  0.13531658563E+04  0.95000000000E+03 0.  0.
   -2000013    1    1    2    0    0 -0.20923069024E+03 -0.46617138742E+03 -0.47541288911E+03  0.11788174835E+04  0.95000000000E+03 0.  0.
<mgrwt>
<rscale>  0 0.21773027E+04</rscale>
<asrwt>0</asrwt>
<pdfrwt beam="2">  1        1 0.29418317E+00 0.21773027E+04</pdfrwt>
<pdfrwt beam="1">  1       -1 0.95352723E-01 0.21773027E+04</pdfrwt>
<totfact> 0.33154227E+00</totfact>
</mgrwt>
</event>
<event>
 4    1  0.1343107E-008  0.2169800E+04  0.7816531E-02  0.8531104E-01
         -2   -1    0    0    0  501 -0.00000000000E+00  0.00000000000E+00  0.72252204610E+03  0.72252204610E+03  0.00000000000E+00 0. -1.
          2   -1    0    0  501    0  0.00000000000E+00 -0.00000000000E+00 -0.16290265317E+04  0.16290265317E+04  0.00000000000E+00 0.  1.
    2000013    1    1    2    0    0 -0.43222404342E+03 -0.11651223553E+03 -0.15820811909E+03  0.10620369738E+04  0.95000000000E+03 0.  0.
   -2000013    1    1    2    0    0  0.43222404342E+03  0.11651223553E+03 -0.74829636647E+03  0.12895116040E+04  0.95000000000E+03 0.  0.
<mgrwt>
<rscale>  0 0.21697996E+04</rscale>
<asrwt>0</asrwt>
<pdfrwt beam="2">  1        2 0.25061946E+00 0.21697996E+04</pdfrwt>
<pdfrwt beam="1">  1       -2 0.11115724E+00 0.21697996E+04</pdfrwt>
<totfact> 0.63059694E+00</totfact>
</mgrwt>
</event>
<event>
 4    1  0.1343107E-008  0.1962946E+04  0.7816531E-02  0.8624143E-01
         -2   -1    0    0    0  501 -0.00000000000E+00  0.00000000000E+00  0.29359603065E+03  0.29359603065E+03  0.00000000000E+00 0. -1.
          2   -1    0    0  501    0  0.00000000000E+00 -0.00000000000E+00 -0.32810036962E+04  0.32810036962E+04  0.00000000000E+00 0.  1.
    2000013    1    1    2    0    0 -0.18491820055E+03 -0.15133238070E+03 -0.16043748727E+04  0.18797912019E+04  0.95000000000E+03 0.  0.
   -2000013    1    1    2    0    0  0.18491820055E+03  0.15133238070E+03 -0.13830327928E+04  0.16948085249E+04  0.95000000000E+03 0.  0.
<mgrwt>
<rscale>  0 0.19629464E+04</rscale>
<asrwt>0</asrwt>
<pdfrwt beam="2">  1        2 0.50476979E+00 0.19629464E+04</pdfrwt>
<pdfrwt beam="1">  1       -2 0.45168621E-01 0.19629464E+04</pdfrwt>
<totfact> 0.49890089E+00</totfact>
</mgrwt>
</event>
<event>
 4    1  0.1343107E-008  0.2145869E+04  0.7816531E-02  0.8541303E-01
         -2   -1    0    0    0  501 -0.00000000000E+00  0.00000000000E+00  0.62479603512E+03  0.62479603512E+03  0.00000000000E+00 0. -1.
          2   -1    0    0  501    0  0.00000000000E+00 -0.00000000000E+00 -0.18425024078E+04  0.18425024078E+04  0.00000000000E+00 0.  1.
    2000013    1    1    2    0    0 -0.45847368104E+03  0.18836930885E+03 -0.54580225949E+03  0.12025311718E+04  0.95000000000E+03 0.  0.
   -2000013    1    1    2    0    0  0.45847368104E+03 -0.18836930885E+03 -0.67190411320E+03  0.12647672711E+04  0.95000000000E+03 0.  0.
<mgrwt>
<rscale>  0 0.21458688E+04</rscale>
<asrwt>0</asrwt>
<pdfrwt beam="2">  1        2 0.28346190E+00 0.21458688E+04</pdfrwt>
<pdfrwt beam="1">  1       -2 0.96122469E-01 0.21458688E+04</pdfrwt>
<totfact> 0.68031139E+00</totfact>
</mgrwt>
</event>
<event>
 4    1  0.1343107E-008  0.1998857E+04  0.7816531E-02  0.8607155E-01
          2   -1    0    0  501    0  0.00000000000E+00  0.00000000000E+00  0.50356265892E+04  0.50356265892E+04  0.00000000000E+00 0.  1.
         -2   -1    0    0    0  501 -0.00000000000E+00 -0.00000000000E+00 -0.19835803723E+03  0.19835803723E+03  0.00000000000E+00 0. -1.
    2000013    1    1    2    0    0 -0.18416546998E+03 -0.19676367122E+03  0.20153177099E+04  0.22442456048E+04  0.95000000000E+03 0.  0.
   -2000013    1    1    2    0    0  0.18416546998E+03  0.19676367122E+03  0.28219508420E+04  0.29897390216E+04  0.95000000000E+03 0.  0.
<mgrwt>
<rscale>  0 0.19988567E+04</rscale>
<asrwt>0</asrwt>
<pdfrwt beam="1">  1        2 0.77471169E+00 0.19988567E+04</pdfrwt>
<pdfrwt beam="2">  1       -2 0.30516625E-01 0.19988567E+04</pdfrwt>
<totfact> 0.29280339E-01</totfact>
</mgrwt>
</event>
<event>
 4    1  0.1343107E-008  0.2186328E+04  0.7816531E-02  0.8524140E-01
          2   -1    0    0  501    0  0.00000000000E+00  0.00000000000E+00  0.20975530025E+04  0.20975530025E+04  0.00000000000E+00 0.  1.
         -2   -1    0    0    0  501 -0.00000000000E+00 -0.00000000000E+00 -0.56971488583E+03  0.56971488583E+03  0.00000000000E+00 0. -1.
    2000013    1    1    2    0    0  0.10587209678E+02  0.50315733506E+03  0.10055475992E+04  0.14720412247E+04  0.95000000000E+03 0.  0.
   -2000013    1    1    2    0    0 -0.10587209678E+02 -0.50315733506E+03  0.52229051741E+03  0.11952266636E+04  0.95000000000E+03 0.  0.
<mgrwt>
<rscale>  0 0.21863277E+04</rscale>
<asrwt>0</asrwt>
<pdfrwt beam="1">  1        2 0.32270046E+00 0.21863277E+04</pdfrwt>
<pdfrwt beam="2">  1       -2 0.87648445E-01 0.21863277E+04</pdfrwt>
<totfact> 0.60578249E+00</totfact>
</mgrwt>
</event>
<event>
 4    1  0.1343107E-008  0.1987851E+04  0.7816531E-02  0.8612322E-01
          1   -1    0    0  501    0  0.00000000000E+00  0.00000000000E+00  0.12360951232E+04  0.12360951232E+04  0.00000000000E+00 0.  1.
         -1   -1    0    0    0  501 -0.00000000000E+00 -0.00000000000E+00 -0.79920054805E+03  0.79920054805E+03  0.00000000000E+00 0. -1.
    2000013    1    1    2    0    0  0.32521046371E+02 -0.28040468887E+03  0.29577124918E+03  0.10342461215E+04  0.95000000000E+03 0.  0.
   -2000013    1    1    2    0    0 -0.32521046371E+02  0.28040468887E+03  0.14112332602E+03  0.10010495498E+04  0.95000000000E+03 0.  0.
<mgrwt>
<rscale>  0 0.19878510E+04</rscale>
<asrwt>0</asrwt>
<pdfrwt beam="1">  1        1 0.19016848E+00 0.19878510E+04</pdfrwt>
<pdfrwt beam="2">  1       -1 0.12295393E+00 0.19878510E+04</pdfrwt>
<totfact> 0.54459201E+00</totfact>
</mgrwt>
</event>
<event>
 4    1  0.1343107E-008  0.2726426E+04  0.7816531E-02  0.8326481E-01
         -2   -1    0    0    0  501 -0.00000000000E+00  0.00000000000E+00  0.44477524567E+03  0.44477524567E+03  0.00000000000E+00 0.  1.
          2   -1    0    0  501    0  0.00000000000E+00 -0.00000000000E+00 -0.41781784446E+04  0.41781784446E+04  0.00000000000E+00 0. -1.
    2000013    1    1    2    0    0 -0.22188909647E+03  0.85805187797E+03 -0.11668389537E+04  0.17462820334E+04  0.95000000000E+03 0.  0.
   -2000013    1    1    2    0    0  0.22188909647E+03 -0.85805187797E+03 -0.25665642453E+04  0.28766716569E+04  0.95000000000E+03 0.  0.
<mgrwt>
<rscale>  0 0.27264265E+04</rscale>
<asrwt>0</asrwt>
<pdfrwt beam="2">  1        2 0.64279666E+00 0.27264265E+04</pdfrwt>
<pdfrwt beam="1">  1       -2 0.68426964E-01 0.27264265E+04</pdfrwt>
<totfact> 0.41599777E-01</totfact>
</mgrwt>
</event>
<event>
 4    1  0.1343107E-008  0.2701037E+04  0.7816531E-02  0.8334669E-01
          2   -1    0    0  501    0  0.00000000000E+00  0.00000000000E+00  0.12638550470E+04  0.12638550470E+04  0.00000000000E+00 0.  1.
         -2   -1    0    0    0  501 -0.00000000000E+00 -0.00000000000E+00 -0.14431240726E+04  0.14431240726E+04  0.00000000000E+00 0. -1.
    2000013    1    1    2    0    0 -0.46495633082E+03  0.23074244758E+03 -0.89885953841E+03  0.14070802879E+04  0.95000000000E+03 0.  0.
   -2000013    1    1    2    0    0  0.46495633082E+03 -0.23074244758E+03  0.71959051273E+03  0.12998988317E+04  0.95000000000E+03 0.  0.
<mgrwt>
<rscale>  0 0.27010366E+04</rscale>
<asrwt>0</asrwt>
<pdfrwt beam="1">  1        2 0.19443924E+00 0.27010366E+04</pdfrwt>
<pdfrwt beam="2">  1       -2 0.22201909E+00 0.27010366E+04</pdfrwt>
<totfact> 0.14613198E+00</totfact>
</mgrwt>
</event>
<event>
 4    1  0.1343107E-008  0.2357182E+04  0.7816531E-02  0.8455710E-01
         -1   -1    0    0    0  501 -0.00000000000E+00  0.00000000000E+00  0.46353928816E+03  0.46353928816E+03  0.00000000000E+00 0. -1.
          1   -1    0    0  501    0  0.00000000000E+00 -0.00000000000E+00 -0.29966753871E+04  0.29966753871E+04  0.00000000000E+00 0.  1.
    2000013    1    1    2    0    0 -0.22760610010E+03  0.59363843606E+03 -0.84527627680E+03  0.14216902313E+04  0.95000000000E+03 0.  0.
   -2000013    1    1    2    0    0  0.22760610010E+03 -0.59363843606E+03 -0.16878598222E+04  0.20385244440E+04  0.95000000000E+03 0.  0.
<mgrwt>
<rscale>  0 0.23571820E+04</rscale>
<asrwt>0</asrwt>
<pdfrwt beam="2">  1        1 0.46102698E+00 0.23571820E+04</pdfrwt>
<pdfrwt beam="1">  1       -1 0.71313737E-01 0.23571820E+04</pdfrwt>
<totfact> 0.10739163E+00</totfact>
</mgrwt>
</event>
<event>
 4    1  0.1343107E-008  0.2642845E+04  0.7816531E-02  0.8353792E-01
         -2   -1    0    0    0  501 -0.00000000000E+00  0.00000000000E+00  0.60945665374E+03  0.60945665374E+03  0.00000000000E+00 0. -1.
          2   -1    0    0  501    0  0.00000000000E+00 -0.00000000000E+00 -0.28651053665E+04  0.28651053665E+04  0.00000000000E+00 0.  1.
    2000013    1    1    2    0    0 -0.37952343667E+03 -0.82830552472E+03 -0.12807458043E+04  0.18365559878E+04  0.95000000000E+03 0.  0.
   -2000013    1    1    2    0    0  0.37952343667E+03  0.82830552472E+03 -0.97490290851E+03  0.16380060324E+04  0.95000000000E+03 0.  0.
<mgrwt>
<rscale>  0 0.26428451E+04</rscale>
<asrwt>0</asrwt>
<pdfrwt beam="2">  1        2 0.44078544E+00 0.26428451E+04</pdfrwt>
<pdfrwt beam="1">  1       -2 0.93762562E-01 0.26428451E+04</pdfrwt>
<totfact> 0.17874280E+00</totfact>
</mgrwt>
</event>
<event>
 4    1  0.1343107E-008  0.2407638E+04  0.7816531E-02  0.8436649E-01
         -2   -1    0    0    0  501 -0.00000000000E+00  0.00000000000E+00  0.60635769958E+03  0.60635769958E+03  0.00000000000E+00 0. -1.
          2   -1    0    0  501    0  0.00000000000E+00 -0.00000000000E+00 -0.23899762260E+04  0.23899762260E+04  0.00000000000E+00 0.  1.
    2000013    1    1    2    0    0 -0.69838375429E+03 -0.15373087041E+03 -0.65796211527E+03  0.13589654866E+04  0.95000000000E+03 0.  0.
   -2000013    1    1    2    0    0  0.69838375429E+03  0.15373087041E+03 -0.11256564111E+04  0.16373684389E+04  0.95000000000E+03 0.  0.
<mgrwt>
<rscale>  0 0.24076383E+04</rscale>
<asrwt>0</asrwt>
<pdfrwt beam="2">  1        2 0.36768865E+00 0.24076383E+04</pdfrwt>
<pdfrwt beam="1">  1       -2 0.93285799E-01 0.24076383E+04</pdfrwt>
<totfact> 0.35200663E+00</totfact>
</mgrwt>
</event>
<event>
 4    1  0.1343107E-008  0.2732023E+04  0.7816531E-02  0.8324689E-01
          2   -1    0    0  501    0  0.00000000000E+00  0.00000000000E+00  0.18955888165E+04  0.18955888165E+04  0.00000000000E+00 0.  1.
         -2   -1    0    0    0  501 -0.00000000000E+00 -0.00000000000E+00 -0.98438397435E+03  0.98438397435E+03  0.00000000000E+00 0. -1.
    2000013    1    1    2    0    0 -0.10659944283E+03  0.91557680375E+03  0.99924357023E+02  0.13274521467E+04  0.95000000000E+03 0.  0.
   -2000013    1    1    2    0    0  0.10659944283E+03 -0.91557680375E+03  0.81128048510E+03  0.15525206441E+04  0.95000000000E+03 0.  0.
<mgrwt>
<rscale>  0 0.27320229E+04</rscale>
<asrwt>0</asrwt>
<pdfrwt beam="1">  1        2 0.29162905E+00 0.27320229E+04</pdfrwt>
<pdfrwt beam="2">  1       -2 0.15144369E+00 0.27320229E+04</pdfrwt>
<totfact> 0.19519108E+00</totfact>
</mgrwt>
</event>
<event>
 4    1  0.1343107E-008  0.2329701E+04  0.7816531E-02  0.8466302E-01
         -2   -1    0    0    0  501 -0.00000000000E+00  0.00000000000E+00  0.11052574244E+04  0.11052574244E+04  0.00000000000E+00 0.  1.
          2   -1    0    0  501    0  0.00000000000E+00 -0.00000000000E+00 -0.12276562329E+04  0.12276562329E+04  0.00000000000E+00 0. -1.
    2000013    1    1    2    0    0 -0.13978604939E+03  0.50900582142E+03  0.35860318982E+03  0.11444314368E+04  0.95000000000E+03 0.  0.
   -2000013    1    1    2    0    0  0.13978604939E+03 -0.50900582142E+03 -0.48100199830E+03  0.11884822204E+04  0.95000000000E+03 0.  0.
<mgrwt>
<rscale>  0 0.23297006E+04</rscale>
<asrwt>0</asrwt>
<pdfrwt beam="2">  1        2 0.18887019E+00 0.23297006E+04</pdfrwt>
<pdfrwt beam="1">  1       -2 0.17003960E+00 0.23297006E+04</pdfrwt>
<totfact> 0.35128970E+00</totfact>
</mgrwt>
</event>
<event>
 4    1  0.1343107E-008  0.2184997E+04  0.7816531E-02  0.8524699E-01
          1   -1    0    0  501    0  0.00000000000E+00  0.00000000000E+00  0.19335728546E+04  0.19335728546E+04  0.00000000000E+00 0.  1.
         -1   -1    0    0    0  501 -0.00000000000E+00 -0.00000000000E+00 -0.61727861109E+03  0.61727861109E+03  0.00000000000E+00 0. -1.
    2000013    1    1    2    0    0  0.11802487630E+03 -0.23584295552E+03  0.12075899681E+04  0.15589500640E+04  0.95000000000E+03 0.  0.
   -2000013    1    1    2    0    0 -0.11802487630E+03  0.23584295552E+03  0.10870427539E+03  0.99190140164E+03  0.95000000000E+03 0.  0.
<mgrwt>
<rscale>  0 0.21849972E+04</rscale>
<asrwt>0</asrwt>
<pdfrwt beam="1">  1        1 0.29747274E+00 0.21849972E+04</pdfrwt>
<pdfrwt beam="2">  1       -1 0.94965941E-01 0.21849972E+04</pdfrwt>
<totfact> 0.32337451E+00</totfact>
</mgrwt>
</event>
<event>
 4    1  0.1343107E-008  0.2416078E+04  0.7816531E-02  0.8433509E-01
         -2   -1    0    0    0  501 -0.00000000000E+00  0.00000000000E+00  0.59464971881E+03  0.59464971881E+03  0.00000000000E+00 0. -1.
          2   -1    0    0  501    0  0.00000000000E+00 -0.00000000000E+00 -0.24541468405E+04  0.24541468405E+04  0.00000000000E+00 0.  1.
    2000013    1    1    2    0    0 -0.42218822481E+03 -0.61293007589E+03 -0.99807149055E+03  0.15660692435E+04  0.95000000000E+03 0.  0.
   -2000013    1    1    2    0    0  0.42218822481E+03  0.61293007589E+03 -0.86142563109E+03  0.14827273158E+04  0.95000000000E+03 0.  0.
<mgrwt>
<rscale>  0 0.24160776E+04</rscale>
<asrwt>0</asrwt>
<pdfrwt beam="2">  1        2 0.37756104E+00 0.24160776E+04</pdfrwt>
<pdfrwt beam="1">  1       -2 0.91484575E-01 0.24160776E+04</pdfrwt>
<totfact> 0.33809615E+00</totfact>
</mgrwt>
</event>
<event>
 4    1  0.1343107E-008  0.2002016E+04  0.7816531E-02  0.8605679E-01
          2   -1    0    0  501    0  0.00000000000E+00  0.00000000000E+00  0.11758748332E+04  0.11758748332E+04  0.00000000000E+00 0.  1.
         -2   -1    0    0    0  501 -0.00000000000E+00 -0.00000000000E+00 -0.85214625542E+03  0.85214625542E+03  0.00000000000E+00 0. -1.
    2000013    1    1    2    0    0 -0.10355306603E+03 -0.19114807773E+03 -0.69701851769E+02  0.97704614694E+03  0.95000000000E+03 0.  0.
   -2000013    1    1    2    0    0  0.10355306603E+03  0.19114807773E+03  0.39343042951E+03  0.10509749416E+04  0.95000000000E+03 0.  0.
<mgrwt>
<rscale>  0 0.20020163E+04</rscale>
<asrwt>0</asrwt>
<pdfrwt beam="1">  1        2 0.18090382E+00 0.20020163E+04</pdfrwt>
<pdfrwt beam="2">  1       -2 0.13109942E+00 0.20020163E+04</pdfrwt>
<totfact> 0.77344407E+00</totfact>
</mgrwt>
</event>
<event>
 4    1  0.1343107E-008  0.2486697E+04  0.7816531E-02  0.8407740E-01
         -1   -1    0    0    0  501 -0.00000000000E+00  0.00000000000E+00  0.63330774471E+03  0.63330774471E+03  0.00000000000E+00 0. -1.
          1   -1    0    0  501    0  0.00000000000E+00 -0.00000000000E+00 -0.24410187371E+04  0.24410187371E+04  0.00000000000E+00 0.  1.
    2000013    1    1    2    0    0 -0.15829750049E+03 -0.74937908585E+03 -0.60923769411E+03  0.13639273004E+04  0.95000000000E+03 0.  0.
   -2000013    1    1    2    0    0  0.15829750049E+03  0.74937908585E+03 -0.11984732983E+04  0.17103991814E+04  0.95000000000E+03 0.  0.
<mgrwt>
<rscale>  0 0.24866975E+04</rscale>
<asrwt>0</asrwt>
<pdfrwt beam="2">  1        1 0.37554134E+00 0.24866975E+04</pdfrwt>
<pdfrwt beam="1">  1       -1 0.97431961E-01 0.24866975E+04</pdfrwt>
<totfact> 0.13384213E+00</totfact>
</mgrwt>
</event>
<event>
 4    1  0.1343107E-008  0.2080254E+04  0.7816531E-02  0.8569992E-01
         -2   -1    0    0    0  501 -0.00000000000E+00  0.00000000000E+00  0.67256076183E+03  0.67256076183E+03  0.00000000000E+00 0. -1.
          2   -1    0    0  501    0  0.00000000000E+00 -0.00000000000E+00 -0.16085753806E+04  0.16085753806E+04  0.00000000000E+00 0.  1.
    2000013    1    1    2    0    0 -0.20780446004E+03 -0.35716488343E+03 -0.56978868689E+03  0.11823318465E+04  0.95000000000E+03 0.  0.
   -2000013    1    1    2    0    0  0.20780446004E+03  0.35716488343E+03 -0.36622593190E+03  0.10988042959E+04  0.95000000000E+03 0.  0.
<mgrwt>
<rscale>  0 0.20802545E+04</rscale>
<asrwt>0</asrwt>
<pdfrwt beam="2">  1        2 0.24747313E+00 0.20802545E+04</pdfrwt>
<pdfrwt beam="1">  1       -2 0.10347089E+00 0.20802545E+04</pdfrwt>
<totfact> 0.77522179E+00</totfact>
</mgrwt>
</event>
<event>
 4    1  0.1343107E-008  0.2717504E+04  0.7816531E-02  0.8329348E-01
          2   -1    0    0  501    0  0.00000000000E+00  0.00000000000E+00  0.30151999839E+04  0.30151999839E+04  0.00000000000E+00 0.  1.
         -2   -1    0    0    0  501 -0.00000000000E+00 -0.00000000000E+00 -0.61229992703E+03  0.61229992703E+03  0.00000000000E+00 0. -1.
    2000013    1    1    2    0    0  0.25464108337E+02  0.75828189408E+03  0.39160742712E+03  0.12773003674E+04  0.95000000000E+03 0.  0.
   -2000013    1    1    2    0    0 -0.25464108337E+02 -0.75828189408E+03  0.20112926298E+04  0.23501995435E+04  0.95000000000E+03 0.  0.
<mgrwt>
<rscale>  0 0.27175038E+04</rscale>
<asrwt>0</asrwt>
<pdfrwt beam="1">  1        2 0.46387691E+00 0.27175038E+04</pdfrwt>
<pdfrwt beam="2">  1       -2 0.94199990E-01 0.27175038E+04</pdfrwt>
<totfact> 0.14180232E+00</totfact>
</mgrwt>
</event>
<event>
 4    1  0.1343107E-008  0.2315622E+04  0.7816531E-02  0.8471787E-01
         -2   -1    0    0    0  501 -0.00000000000E+00  0.00000000000E+00  0.13060972411E+04  0.13060972411E+04  0.00000000000E+00 0. -1.
          2   -1    0    0  501    0  0.00000000000E+00 -0.00000000000E+00 -0.10263602275E+04  0.10263602275E+04  0.00000000000E+00 0.  1.
    2000013    1    1    2    0    0 -0.53466497182E+03  0.10366201021E+03  0.51865283036E+03  0.12116572134E+04  0.95000000000E+03 0.  0.
   -2000013    1    1    2    0    0  0.53466497182E+03 -0.10366201021E+03 -0.23891581673E+03  0.11208002551E+04  0.95000000000E+03 0.  0.
<mgrwt>
<rscale>  0 0.23156220E+04</rscale>
<asrwt>0</asrwt>
<pdfrwt beam="2">  1        2 0.15790157E+00 0.23156220E+04</pdfrwt>
<pdfrwt beam="1">  1       -2 0.20093804E+00 0.23156220E+04</pdfrwt>
<totfact> 0.28761458E+00</totfact>
</mgrwt>
</event>
<event>
 4    1  0.1343107E-008  0.2314109E+04  0.7816531E-02  0.8472379E-01
          2   -1    0    0  501    0  0.00000000000E+00  0.00000000000E+00  0.28271137920E+04  0.28271137920E+04  0.00000000000E+00 0.  1.
         -2   -1    0    0    0  501 -0.00000000000E+00 -0.00000000000E+00 -0.47354845295E+03  0.47354845295E+03  0.00000000000E+00 0. -1.
    2000013    1    1    2    0    0 -0.56832573181E+03 -0.25380804403E+03  0.14920696033E+04  0.18751491572E+04  0.95000000000E+03 0.  0.
   -2000013    1    1    2    0    0  0.56832573181E+03  0.25380804403E+03  0.86149573577E+03  0.14255130878E+04  0.95000000000E+03 0.  0.
<mgrwt>
<rscale>  0 0.23141092E+04</rscale>
<asrwt>0</asrwt>
<pdfrwt beam="1">  1        2 0.43494057E+00 0.23141092E+04</pdfrwt>
<pdfrwt beam="2">  1       -2 0.72853610E-01 0.23141092E+04</pdfrwt>
<totfact> 0.34343773E+00</totfact>
</mgrwt>
</event>
<event>
 4    1  0.1343107E-008  0.2121280E+04  0.7816531E-02  0.8551927E-01
         -2   -1    0    0    0  501 -0.00000000000E+00  0.00000000000E+00  0.12931771837E+04  0.12931771837E+04  0.00000000000E+00 0. -1.
          2   -1    0    0  501    0  0.00000000000E+00 -0.00000000000E+00 -0.86991763581E+03  0.86991763581E+03  0.00000000000E+00 0.  1.
    2000013    1    1    2    0    0 -0.45562322649E+03  0.95277077952E+02  0.28920426507E+03  0.10967266537E+04  0.95000000000E+03 0.  0.
   -2000013    1    1    2    0    0  0.45562322649E+03 -0.95277077952E+02  0.13405528281E+03  0.10663681658E+04  0.95000000000E+03 0.  0.
<mgrwt>
<rscale>  0 0.21212804E+04</rscale>
<asrwt>0</asrwt>
<pdfrwt beam="2">  1        2 0.13383348E+00 0.21212804E+04</pdfrwt>
<pdfrwt beam="1">  1       -2 0.19895034E+00 0.21212804E+04</pdfrwt>
<totfact> 0.38203794E+00</totfact>
</mgrwt>
</event>
<event>
 4    1  0.1343107E-008  0.2428040E+04  0.7816531E-02  0.8429080E-01
         -2   -1    0    0    0  501 -0.00000000000E+00  0.00000000000E+00  0.92829302431E+03  0.92829302431E+03  0.00000000000E+00 0. -1.
          2   -1    0    0  501    0  0.00000000000E+00 -0.00000000000E+00 -0.15876936003E+04  0.15876936003E+04  0.00000000000E+00 0.  1.
    2000013    1    1    2    0    0  0.73608330357E+03 -0.20482573659E+02 -0.50648680414E+03  0.13043262814E+04  0.95000000000E+03 0.  0.
   -2000013    1    1    2    0    0 -0.73608330357E+03  0.20482573659E+02 -0.15291377183E+03  0.12116603432E+04  0.95000000000E+03 0.  0.
<mgrwt>
<rscale>  0 0.24280403E+04</rscale>
<asrwt>0</asrwt>
<pdfrwt beam="2">  1        2 0.24426055E+00 0.24280403E+04</pdfrwt>
<pdfrwt beam="1">  1       -2 0.14281431E+00 0.24280403E+04</pdfrwt>
<totfact> 0.34668153E+00</totfact>
</mgrwt>
</event>
<event>
 4    1  0.1343107E-008  0.2351718E+04  0.7816531E-02  0.8457804E-01
          2   -1    0    0  501    0  0.00000000000E+00  0.00000000000E+00  0.27070900725E+04  0.27070900725E+04  0.00000000000E+00 0.  1.
         -2   -1    0    0    0  501 -0.00000000000E+00 -0.00000000000E+00 -0.51074924296E+03  0.51074924296E+03  0.00000000000E+00 0. -1.
    2000013    1    1    2    0    0  0.68411443561E+03 -0.58197462597E+02  0.97021708766E+03  0.15215849312E+04  0.95000000000E+03 0.  0.
   -2000013    1    1    2    0    0 -0.68411443561E+03  0.58197462597E+02  0.12261237418E+04  0.16962543842E+04  0.95000000000E+03 0.  0.
<mgrwt>
<rscale>  0 0.23517178E+04</rscale>
<asrwt>0</asrwt>
<pdfrwt beam="1">  1        2 0.41647539E+00 0.23517178E+04</pdfrwt>
<pdfrwt beam="2">  1       -2 0.78576808E-01 0.23517178E+04</pdfrwt>
<totfact> 0.34172110E+00</totfact>
</mgrwt>
</event>
<event>
 4    1  0.1343107E-008  0.2741120E+04  0.7816531E-02  0.8321785E-01
          2   -1    0    0  501    0  0.00000000000E+00  0.00000000000E+00  0.16591923673E+04  0.16591923673E+04  0.00000000000E+00 0.  1.
         -2   -1    0    0    0  501 -0.00000000000E+00 -0.00000000000E+00 -0.11321382801E+04  0.11321382801E+04  0.00000000000E+00 0. -1.
    2000013    1    1    2    0    0 -0.96886152131E+02  0.71166451999E+03 -0.42719090839E+03  0.12652451888E+04  0.95000000000E+03 0.  0.
   -2000013    1    1    2    0    0  0.96886152131E+02 -0.71166451999E+03  0.95424499552E+03  0.15260854586E+04  0.95000000000E+03 0.  0.
<mgrwt>
<rscale>  0 0.27411203E+04</rscale>
<asrwt>0</asrwt>
<pdfrwt beam="1">  1        2 0.25526036E+00 0.27411203E+04</pdfrwt>
<pdfrwt beam="2">  1       -2 0.17417512E+00 0.27411203E+04</pdfrwt>
<totfact> 0.17994827E+00</totfact>
</mgrwt>
</event>
<event>
 4    1  0.1343107E-008  0.2775691E+04  0.7816531E-02  0.8310855E-01
          2   -1    0    0  501    0  0.00000000000E+00  0.00000000000E+00  0.46794849589E+04  0.46794849589E+04  0.00000000000E+00 0.  1.
         -2   -1    0    0    0  501 -0.00000000000E+00 -0.00000000000E+00 -0.41160839656E+03  0.41160839656E+03  0.00000000000E+00 0. -1.
    2000013    1    1    2    0    0 -0.72141131814E+03 -0.68887457323E+03  0.24443028134E+04  0.28057260577E+04  0.95000000000E+03 0.  0.
   -2000013    1    1    2    0    0  0.72141131814E+03  0.68887457323E+03  0.18235737489E+04  0.22853672977E+04  0.95000000000E+03 0.  0.
<mgrwt>
<rscale>  0 0.27756911E+04</rscale>
<asrwt>0</asrwt>
<pdfrwt beam="1">  1        2 0.71992073E+00 0.27756911E+04</pdfrwt>
<pdfrwt beam="2">  1       -2 0.63324372E-01 0.27756911E+04</pdfrwt>
<totfact> 0.16287404E-01</totfact>
</mgrwt>
</event>
<event>
 4    1  0.1343107E-008  0.3863553E+04  0.7816531E-02  0.8032653E-01
          2   -1    0    0  501    0  0.00000000000E+00  0.00000000000E+00  0.25159405068E+04  0.25159405068E+04  0.00000000000E+00 0.  1.
         -2   -1    0    0    0  501 -0.00000000000E+00 -0.00000000000E+00 -0.14832464732E+04  0.14832464732E+04  0.00000000000E+00 0. -1.
    2000013    1    1    2    0    0  0.81375116273E+03  0.12046489416E+04  0.13921531309E+04  0.22257493945E+04  0.95000000000E+03 0.  0.
   -2000013    1    1    2    0    0 -0.81375116273E+03 -0.12046489416E+04 -0.35945909725E+03  0.17734375855E+04  0.95000000000E+03 0.  0.
<mgrwt>
<rscale>  0 0.38635527E+04</rscale>
<asrwt>0</asrwt>
<pdfrwt beam="1">  1        2 0.38706777E+00 0.38635527E+04</pdfrwt>
<pdfrwt beam="2">  1       -2 0.22819176E+00 0.38635527E+04</pdfrwt>
<totfact> 0.23853786E-01</totfact>
</mgrwt>
</event>
<event>
 4    1  0.1343107E-008  0.3422867E+04  0.7816531E-02  0.8132317E-01
          2   -1    0    0  501    0  0.00000000000E+00  0.00000000000E+00  0.24424552051E+04  0.24424552051E+04  0.00000000000E+00 0.  1.
         -2   -1    0    0    0  501 -0.00000000000E+00 -0.00000000000E+00 -0.11992053288E+04  0.11992053288E+04  0.00000000000E+00 0. -1.
    2000013    1    1    2    0    0 -0.14028002674E+04 -0.17623256828E+03  0.44487698280E+03  0.17604891474E+04  0.95000000000E+03 0.  0.
   -2000013    1    1    2    0    0  0.14028002674E+04  0.17623256828E+03  0.79837289344E+03  0.18811713865E+04  0.95000000000E+03 0.  0.
<mgrwt>
<rscale>  0 0.34228674E+04</rscale>
<asrwt>0</asrwt>
<pdfrwt beam="1">  1        2 0.37576234E+00 0.34228674E+04</pdfrwt>
<pdfrwt beam="2">  1       -2 0.18449313E+00 0.34228674E+04</pdfrwt>
<totfact> 0.52480798E-01</totfact>
</mgrwt>
</event>
<event>
 4    1  0.1343107E-008  0.3334453E+04  0.7816531E-02  0.8154184E-01
          2   -1    0    0  501    0  0.00000000000E+00  0.00000000000E+00  0.17769251278E+04  0.17769251278E+04  0.00000000000E+00 0.  1.
         -2   -1    0    0    0  501 -0.00000000000E+00 -0.00000000000E+00 -0.15643000680E+04  0.15643000680E+04  0.00000000000E+00 0. -1.
    2000013    1    1    2    0    0  0.53381649329E+03  0.12422172143E+04  0.32830354072E+03  0.16847394074E+04  0.95000000000E+03 0.  0.
   -2000013    1    1    2    0    0 -0.53381649329E+03 -0.12422172143E+04 -0.11567848095E+03  0.16564857884E+04  0.95000000000E+03 0.  0.
<mgrwt>
<rscale>  0 0.33344529E+04</rscale>
<asrwt>0</asrwt>
<pdfrwt beam="1">  1        2 0.27337310E+00 0.33344529E+04</pdfrwt>
<pdfrwt beam="2">  1       -2 0.24066155E+00 0.33344529E+04</pdfrwt>
<totfact> 0.54318018E-01</totfact>
</mgrwt>
</event>
<event>
 4    1  0.1343107E-008  0.2607247E+04  0.7816531E-02  0.8365744E-01
          2   -1    0    0  501    0  0.00000000000E+00  0.00000000000E+00  0.14848672962E+04  0.14848672962E+04  0.00000000000E+00 0.  1.
         -2   -1    0    0    0  501 -0.00000000000E+00 -0.00000000000E+00 -0.11445027437E+04  0.11445027437E+04  0.00000000000E+00 0. -1.
    2000013    1    1    2    0    0 -0.18526413297E+03 -0.85083229471E+03 -0.28200610295E+02  0.12890049135E+04  0.95000000000E+03 0.  0.
   -2000013    1    1    2    0    0  0.18526413297E+03  0.85083229471E+03  0.36856516280E+03  0.13403651263E+04  0.95000000000E+03 0.  0.
<mgrwt>
<rscale>  0 0.26072474E+04</rscale>
<asrwt>0</asrwt>
<pdfrwt beam="1">  1        2 0.22844112E+00 0.26072474E+04</pdfrwt>
<pdfrwt beam="2">  1       -2 0.17607735E+00 0.26072474E+04</pdfrwt>
<totfact> 0.22102572E+00</totfact>
</mgrwt>
</event>
<event>
 4    1  0.1343107E-008  0.2289386E+04  0.7816531E-02  0.8482118E-01
          2   -1    0    0  501    0  0.00000000000E+00  0.00000000000E+00  0.20077667493E+04  0.20077667493E+04  0.00000000000E+00 0.  1.
         -2   -1    0    0    0  501 -0.00000000000E+00 -0.00000000000E+00 -0.65262639887E+03  0.65262639887E+03  0.00000000000E+00 0. -1.
    2000013    1    1    2    0    0 -0.45152026359E+03 -0.30160020238E+03  0.10681804981E+04  0.15291640876E+04  0.95000000000E+03 0.  0.
   -2000013    1    1    2    0    0  0.45152026359E+03  0.30160020238E+03  0.28695985237E+03  0.11312290605E+04  0.95000000000E+03 0.  0.
<mgrwt>
<rscale>  0 0.22893856E+04</rscale>
<asrwt>0</asrwt>
<pdfrwt beam="1">  1        2 0.30888719E+00 0.22893856E+04</pdfrwt>
<pdfrwt beam="2">  1       -2 0.10040406E+00 0.22893856E+04</pdfrwt>
<totfact> 0.49104927E+00</totfact>
</mgrwt>
</event>
<event>
 4    1  0.1343107E-008  0.2864247E+04  0.7816531E-02  0.8283595E-01
          2   -1    0    0  501    0  0.00000000000E+00  0.00000000000E+00  0.22076602398E+04  0.22076602398E+04  0.00000000000E+00 0. -1.
         -2   -1    0    0    0  501 -0.00000000000E+00 -0.00000000000E+00 -0.92902747541E+03  0.92902747541E+03  0.00000000000E+00 0.  1.
    2000013    1    1    2    0    0 -0.10077322666E+04  0.25370274779E+03  0.92611941335E+03  0.16852556403E+04  0.95000000000E+03 0.  0.
   -2000013    1    1    2    0    0  0.10077322666E+04 -0.25370274779E+03  0.35251335100E+03  0.14514320749E+04  0.95000000000E+03 0.  0.
<mgrwt>
<rscale>  0 0.28642465E+04</rscale>
<asrwt>0</asrwt>
<pdfrwt beam="1">  1        2 0.33964004E+00 0.28642465E+04</pdfrwt>
<pdfrwt beam="2">  1       -2 0.14292730E+00 0.28642465E+04</pdfrwt>
<totfact> 0.15058954E+00</totfact>
</mgrwt>
</event>
<event>
 4    1  0.1343107E-008  0.3949850E+04  0.7816531E-02  0.8014741E-01
          2   -1    0    0  501    0  0.00000000000E+00  0.00000000000E+00  0.26027690282E+04  0.26027690282E+04  0.00000000000E+00 0.  1.
         -2   -1    0    0    0  501 -0.00000000000E+00 -0.00000000000E+00 -0.14985301151E+04  0.14985301151E+04  0.00000000000E+00 0. -1.
    2000013    1    1    2    0    0  0.15513740190E+04  0.79293906463E+02 -0.24191024203E+03  0.18368640221E+04  0.95000000000E+03 0.  0.
   -2000013    1    1    2    0    0 -0.15513740190E+04 -0.79293906463E+02  0.13461491550E+04  0.22644351212E+04  0.95000000000E+03 0.  0.
<mgrwt>
<rscale>  0 0.39498495E+04</rscale>
<asrwt>0</asrwt>
<pdfrwt beam="1">  1        2 0.40042601E+00 0.39498495E+04</pdfrwt>
<pdfrwt beam="2">  1       -2 0.23054309E+00 0.39498495E+04</pdfrwt>
<totfact> 0.20370491E-01</totfact>
</mgrwt>
</event>
<event>
 4    1  0.1343107E-008  0.2543330E+04  0.7816531E-02  0.8387709E-01
          2   -1    0    0  501    0  0.00000000000E+00  0.00000000000E+00  0.18285323080E+04  0.18285323080E+04  0.00000000000E+00 0.  1.
         -2   -1    0    0    0  501 -0.00000000000E+00 -0.00000000000E+00 -0.88438814271E+03  0.88438814271E+03  0.00000000000E+00 0. -1.
    2000013    1    1    2    0    0  0.28291382036E+03 -0.73158452546E+03  0.13581196549E+03  0.12394357739E+04  0.95000000000E+03 0.  0.
   -2000013    1    1    2    0    0 -0.28291382036E+03  0.73158452546E+03  0.80833219982E+03  0.14734846768E+04  0.95000000000E+03 0.  0.
<mgrwt>
<rscale>  0 0.25433303E+04</rscale>
<asrwt>0</asrwt>
<pdfrwt beam="1">  1        2 0.28131266E+00 0.25433303E+04</pdfrwt>
<pdfrwt beam="2">  1       -2 0.13605971E+00 0.25433303E+04</pdfrwt>
<totfact> 0.28594615E+00</totfact>
</mgrwt>
</event>
<event>
 4    1  0.1343107E-008  0.3208907E+04  0.7816531E-02  0.8186469E-01
          2   -1    0    0  501    0  0.00000000000E+00  0.00000000000E+00  0.21689570468E+04  0.21689570468E+04  0.00000000000E+00 0.  1.
         -2   -1    0    0    0  501 -0.00000000000E+00 -0.00000000000E+00 -0.11868703125E+04  0.11868703125E+04  0.00000000000E+00 0. -1.
    2000013    1    1    2    0    0 -0.12784690451E+04 -0.92890328884E+02  0.31400265902E+03  0.16261025129E+04  0.95000000000E+03 0.  0.
   -2000013    1    1    2    0    0  0.12784690451E+04  0.92890328884E+02  0.66808407535E+03  0.17297248464E+04  0.95000000000E+03 0.  0.
<mgrwt>
<rscale>  0 0.32089068E+04</rscale>
<asrwt>0</asrwt>
<pdfrwt beam="1">  1        2 0.33368570E+00 0.32089068E+04</pdfrwt>
<pdfrwt beam="2">  1       -2 0.18259543E+00 0.32089068E+04</pdfrwt>
<totfact> 0.78713148E-01</totfact>
</mgrwt>
</event>
<event>
 4    1  0.1343107E-008  0.2273201E+04  0.7816531E-02  0.8488563E-01
         -2   -1    0    0    0  501 -0.00000000000E+00  0.00000000000E+00  0.78288788496E+03  0.78288788496E+03  0.00000000000E+00 0. -1.
          2   -1    0    0  501    0  0.00000000000E+00 -0.00000000000E+00 -0.16501219820E+04  0.16501219820E+04  0.00000000000E+00 0.  1.
    2000013    1    1    2    0    0  0.42973860446E+03  0.39970625247E+03 -0.66046072210E+03  0.12973622169E+04  0.95000000000E+03 0.  0.
   -2000013    1    1    2    0    0 -0.42973860446E+03 -0.39970625247E+03 -0.20677337490E+03  0.11356476500E+04  0.95000000000E+03 0.  0.
<mgrwt>
<rscale>  0 0.22732008E+04</rscale>
<asrwt>0</asrwt>
<pdfrwt beam="2">  1        2 0.25386492E+00 0.22732008E+04</pdfrwt>
<pdfrwt beam="1">  1       -2 0.12044429E+00 0.22732008E+04</pdfrwt>
<totfact> 0.49987512E+00</totfact>
</mgrwt>
</event>
<event>
 4    1  0.1343107E-008  0.2095443E+04  0.7816531E-02  0.8563253E-01
          2   -1    0    0  501    0  0.00000000000E+00  0.00000000000E+00  0.21843459940E+04  0.21843459940E+04  0.00000000000E+00 0.  1.
         -2   -1    0    0    0  501 -0.00000000000E+00 -0.00000000000E+00 -0.50253981569E+03  0.50253981569E+03  0.00000000000E+00 0. -1.
    2000013    1    1    2    0    0 -0.36221188313E+03  0.98347018970E+02  0.11398389552E+04  0.15305562480E+04  0.95000000000E+03 0.  0.
   -2000013    1    1    2    0    0  0.36221188313E+03 -0.98347018970E+02  0.54196722313E+03  0.11563295617E+04  0.95000000000E+03 0.  0.
<mgrwt>
<rscale>  0 0.20954435E+04</rscale>
<asrwt>0</asrwt>
<pdfrwt beam="1">  1        2 0.33605322E+00 0.20954435E+04</pdfrwt>
<pdfrwt beam="2">  1       -2 0.77313819E-01 0.20954435E+04</pdfrwt>
<totfact> 0.72493427E+00</totfact>
</mgrwt>
</event>
<event>
 4    1  0.1343107E-008  0.2632786E+04  0.7816531E-02  0.8357149E-01
         -2   -1    0    0    0  501 -0.00000000000E+00  0.00000000000E+00  0.11817645062E+04  0.11817645062E+04  0.00000000000E+00 0. -1.
          2   -1    0    0  501    0  0.00000000000E+00 -0.00000000000E+00 -0.14663585053E+04  0.14663585053E+04  0.00000000000E+00 0.  1.
    2000013    1    1    2    0    0  0.68597086411E+03  0.59362851578E+03 -0.22905253983E+03  0.13333851308E+04  0.95000000000E+03 0.  0.
   -2000013    1    1    2    0    0 -0.68597086411E+03 -0.59362851578E+03 -0.55541459270E+02  0.13147378807E+04  0.95000000000E+03 0.  0.
<mgrwt>
<rscale>  0 0.26327859E+04</rscale>
<asrwt>0</asrwt>
<pdfrwt beam="2">  1        2 0.22559362E+00 0.26327859E+04</pdfrwt>
<pdfrwt beam="1">  1       -2 0.18180992E+00 0.26327859E+04</pdfrwt>
<totfact> 0.20617644E+00</totfact>
</mgrwt>
</event>
<event>
 4    1  0.1343107E-008  0.2154917E+04  0.7816531E-02  0.8537430E-01
         -2   -1    0    0    0  501 -0.00000000000E+00  0.00000000000E+00  0.96395145751E+03  0.96395145751E+03  0.00000000000E+00 0. -1.
          2   -1    0    0  501    0  0.00000000000E+00 -0.00000000000E+00 -0.12043314631E+04  0.12043314631E+04  0.00000000000E+00 0.  1.
    2000013    1    1    2    0    0 -0.18121897505E+03 -0.25359375881E+03  0.28388134057E+03  0.10393453358E+04  0.95000000000E+03 0.  0.
   -2000013    1    1    2    0    0  0.18121897505E+03  0.25359375881E+03 -0.52426134615E+03  0.11289375849E+04  0.95000000000E+03 0.  0.
<mgrwt>
<rscale>  0 0.21549172E+04</rscale>
<asrwt>0</asrwt>
<pdfrwt beam="2">  1        2 0.18528176E+00 0.21549172E+04</pdfrwt>
<pdfrwt beam="1">  1       -2 0.14830023E+00 0.21549172E+04</pdfrwt>
<totfact> 0.53345584E+00</totfact>
</mgrwt>
</event>
<event>
 4    1  0.1343107E-008  0.2310160E+04  0.7816531E-02  0.8473926E-01
          2   -1    0    0  501    0  0.00000000000E+00  0.00000000000E+00  0.20453006948E+04  0.20453006948E+04  0.00000000000E+00 0.  1.
         -2   -1    0    0    0  501 -0.00000000000E+00 -0.00000000000E+00 -0.65232923408E+03  0.65232923408E+03  0.00000000000E+00 0. -1.
    2000013    1    1    2    0    0  0.14146178767E+03  0.45133460593E+03  0.16392775334E+03  0.10738187334E+04  0.95000000000E+03 0.  0.
   -2000013    1    1    2    0    0 -0.14146178767E+03 -0.45133460593E+03  0.12290437073E+04  0.16238111954E+04  0.95000000000E+03 0.  0.
<mgrwt>
<rscale>  0 0.23101597E+04</rscale>
<asrwt>0</asrwt>
<pdfrwt beam="1">  1        2 0.31466164E+00 0.23101597E+04</pdfrwt>
<pdfrwt beam="2">  1       -2 0.10035834E+00 0.23101597E+04</pdfrwt>
<totfact> 0.46767046E+00</totfact>
</mgrwt>
</event>
<event>
 4    1  0.1343107E-008  0.5127821E+04  0.7816531E-02  0.7809087E-01
          2   -1    0    0  501    0  0.00000000000E+00  0.00000000000E+00  0.13367333326E+04  0.13367333326E+04  0.00000000000E+00 0.  1.
         -2   -1    0    0    0  501 -0.00000000000E+00 -0.00000000000E+00 -0.49176881226E+04  0.49176881226E+04  0.00000000000E+00 0. -1.
    2000013    1    1    2    0    0  0.16540920184E+04 -0.17132089085E+04 -0.17974268653E+04  0.31311896310E+04  0.95000000000E+03 0.  0.
   -2000013    1    1    2    0    0 -0.16540920184E+04  0.17132089085E+04 -0.17835279246E+04  0.31232318241E+04  0.95000000000E+03 0.  0.
<mgrwt>
<rscale>  0 0.51278212E+04</rscale>
<asrwt>0</asrwt>
<pdfrwt beam="1">  1        2 0.20565128E+00 0.51278212E+04</pdfrwt>
<pdfrwt beam="2">  1       -2 0.75656740E+00 0.51278212E+04</pdfrwt>
<totfact> 0.15260852E-03</totfact>
</mgrwt>
</event>
<event>
 4    1  0.1343107E-008  0.2574480E+04  0.7816531E-02  0.8376922E-01
          2   -1    0    0  501    0  0.00000000000E+00  0.00000000000E+00  0.17873338164E+04  0.17873338164E+04  0.00000000000E+00 0.  1.
         -2   -1    0    0    0  501 -0.00000000000E+00 -0.00000000000E+00 -0.92707193607E+03  0.92707193607E+03  0.00000000000E+00 0. -1.
    2000013    1    1    2    0    0 -0.61641730364E+03 -0.59636491085E+03  0.28531352636E+03  0.13113066794E+04  0.95000000000E+03 0.  0.
   -2000013    1    1    2    0    0  0.61641730364E+03  0.59636491085E+03  0.57494835398E+03  0.14030990731E+04  0.95000000000E+03 0.  0.
<mgrwt>
<rscale>  0 0.25744802E+04</rscale>
<asrwt>0</asrwt>
<pdfrwt beam="1">  1        2 0.27497443E+00 0.25744802E+04</pdfrwt>
<pdfrwt beam="2">  1       -2 0.14262645E+00 0.25744802E+04</pdfrwt>
<totfact> 0.26602306E+00</totfact>
</mgrwt>
</event>
<event>
 4    1  0.1343107E-008  0.3188942E+04  0.7816531E-02  0.8191744E-01
         -2   -1    0    0    0  501 -0.00000000000E+00  0.00000000000E+00  0.98115400835E+03  0.98115400835E+03  0.00000000000E+00 0. -1.
          2   -1    0    0  501    0  0.00000000000E+00 -0.00000000000E+00 -0.25911710476E+04  0.25911710476E+04  0.00000000000E+00 0.  1.
    2000013    1    1    2    0    0  0.10773107590E+04  0.68790723129E+03 -0.71807008194E+03  0.17469801009E+04  0.95000000000E+03 0.  0.
   -2000013    1    1    2    0    0 -0.10773107590E+04 -0.68790723129E+03 -0.89194695735E+03  0.18253449551E+04  0.95000000000E+03 0.  0.
<mgrwt>
<rscale>  0 0.31889421E+04</rscale>
<asrwt>0</asrwt>
<pdfrwt beam="2">  1        2 0.39864169E+00 0.31889421E+04</pdfrwt>
<pdfrwt beam="1">  1       -2 0.15094677E+00 0.31889421E+04</pdfrwt>
<totfact> 0.76462801E-01</totfact>
</mgrwt>
</event>
<event>
 4    1  0.1343107E-008  0.2073133E+04  0.7816531E-02  0.8573172E-01
         -2   -1    0    0    0  501 -0.00000000000E+00  0.00000000000E+00  0.21329659829E+04  0.21329659829E+04  0.00000000000E+00 0. -1.
          2   -1    0    0  501    0  0.00000000000E+00 -0.00000000000E+00 -0.50374478975E+03  0.50374478975E+03  0.00000000000E+00 0.  1.
    2000013    1    1    2    0    0 -0.91781254849E+02 -0.38993247615E+03  0.67822384180E+03  0.12340821343E+04  0.95000000000E+03 0.  0.
   -2000013    1    1    2    0    0  0.91781254849E+02  0.38993247615E+03  0.95099735131E+03  0.14026286383E+04  0.95000000000E+03 0.  0.
<mgrwt>
<rscale>  0 0.20731334E+04</rscale>
<asrwt>0</asrwt>
<pdfrwt beam="2">  1        2 0.77499199E-01 0.20731334E+04</pdfrwt>
<pdfrwt beam="1">  1       -2 0.32814861E+00 0.20731334E+04</pdfrwt>
<totfact> 0.12036505E+00</totfact>
</mgrwt>
</event>
<event>
 4    1  0.1343107E-008  0.2057758E+04  0.7816531E-02  0.8580083E-01
          1   -1    0    0  501    0  0.00000000000E+00  0.00000000000E+00  0.34083633413E+04  0.34083633413E+04  0.00000000000E+00 0.  1.
         -1   -1    0    0    0  501 -0.00000000000E+00 -0.00000000000E+00 -0.31058668157E+03  0.31058668157E+03  0.00000000000E+00 0. -1.
    2000013    1    1    2    0    0 -0.37549692100E+03  0.85360924333E+02  0.17085833209E+04  0.19924962709E+04  0.95000000000E+03 0.  0.
   -2000013    1    1    2    0    0  0.37549692100E+03 -0.85360924333E+02  0.13891933389E+04  0.17264537520E+04  0.95000000000E+03 0.  0.
<mgrwt>
<rscale>  0 0.20577583E+04</rscale>
<asrwt>0</asrwt>
<pdfrwt beam="1">  1        1 0.52436357E+00 0.20577583E+04</pdfrwt>
<pdfrwt beam="2">  1       -1 0.47782569E-01 0.20577583E+04</pdfrwt>
<totfact> 0.11943605E+00</totfact>
</mgrwt>
</event>
<event>
 4    1  0.1343107E-008  0.2145663E+04  0.7816531E-02  0.8541391E-01
         -2   -1    0    0    0  501 -0.00000000000E+00  0.00000000000E+00  0.15101178390E+04  0.15101178390E+04  0.00000000000E+00 0. -1.
          2   -1    0    0  501    0  0.00000000000E+00 -0.00000000000E+00 -0.76217089799E+03  0.76217089799E+03  0.00000000000E+00 0.  1.
    2000013    1    1    2    0    0 -0.48328618559E+03 -0.42710157903E+02  0.25286473037E+03  0.10962801953E+04  0.95000000000E+03 0.  0.
   -2000013    1    1    2    0    0  0.48328618559E+03  0.42710157903E+02  0.49508221060E+03  0.11760085416E+04  0.95000000000E+03 0.  0.
<mgrwt>
<rscale>  0 0.21456634E+04</rscale>
<asrwt>0</asrwt>
<pdfrwt beam="2">  1        2 0.11725706E+00 0.21456634E+04</pdfrwt>
<pdfrwt beam="1">  1       -2 0.23232582E+00 0.21456634E+04</pdfrwt>
<totfact> 0.27865860E+00</totfact>
</mgrwt>
</event>
<event>
 4    1  0.1343107E-008  0.3425759E+04  0.7816531E-02  0.8131613E-01
         -2   -1    0    0    0  501 -0.00000000000E+00  0.00000000000E+00  0.11994200846E+04  0.11994200846E+04  0.00000000000E+00 0. -1.
          2   -1    0    0  501    0  0.00000000000E+00 -0.00000000000E+00 -0.24461449174E+04  0.24461449174E+04  0.00000000000E+00 0.  1.
    2000013    1    1    2    0    0  0.14067691650E+04  0.77164861460E+02 -0.85284055739E+03  0.19012603493E+04  0.95000000000E+03 0.  0.
   -2000013    1    1    2    0    0 -0.14067691650E+04 -0.77164861460E+02 -0.39388427539E+03  0.17443046528E+04  0.95000000000E+03 0.  0.
<mgrwt>
<rscale>  0 0.34257585E+04</rscale>
<asrwt>0</asrwt>
<pdfrwt beam="2">  1        2 0.37632999E+00 0.34257585E+04</pdfrwt>
<pdfrwt beam="1">  1       -2 0.18452617E+00 0.34257585E+04</pdfrwt>
<totfact> 0.52184994E-01</totfact>
</mgrwt>
</event>
<event>
 4    1  0.1343107E-008  0.2488709E+04  0.7816531E-02  0.8407019E-01
          2   -1    0    0  501    0  0.00000000000E+00  0.00000000000E+00  0.72946632708E+03  0.72946632708E+03  0.00000000000E+00 0.  1.
         -2   -1    0    0    0  501 -0.00000000000E+00 -0.00000000000E+00 -0.21226720247E+04  0.21226720247E+04  0.00000000000E+00 0. -1.
    2000013    1    1    2    0    0 -0.73400125638E+03  0.27544712621E+03 -0.49388546816E+03  0.13270462763E+04  0.95000000000E+03 0.  0.
   -2000013    1    1    2    0    0  0.73400125638E+03 -0.27544712621E+03 -0.89932022948E+03  0.15250920755E+04  0.95000000000E+03 0.  0.
<mgrwt>
<rscale>  0 0.24887087E+04</rscale>
<asrwt>0</asrwt>
<pdfrwt beam="1">  1        2 0.11222559E+00 0.24887087E+04</pdfrwt>
<pdfrwt beam="2">  1       -2 0.32656493E+00 0.24887087E+04</pdfrwt>
<totfact> 0.75690195E-01</totfact>
</mgrwt>
</event>
<event>
 4    1  0.1343107E-008  0.3389363E+04  0.7816531E-02  0.8140522E-01
         -2   -1    0    0    0  501 -0.00000000000E+00  0.00000000000E+00  0.18501042473E+04  0.18501042473E+04  0.00000000000E+00 0. -1.
          2   -1    0    0  501    0  0.00000000000E+00 -0.00000000000E+00 -0.15523156201E+04  0.15523156201E+04  0.00000000000E+00 0.  1.
    2000013    1    1    2    0    0 -0.31097434526E+02 -0.14025490576E+04  0.18557014050E+03  0.17044198974E+04  0.95000000000E+03 0.  0.
   -2000013    1    1    2    0    0  0.31097434526E+02  0.14025490576E+04  0.11221848670E+03  0.16979999700E+04  0.95000000000E+03 0.  0.
<mgrwt>
<rscale>  0 0.33893632E+04</rscale>
<asrwt>0</asrwt>
<pdfrwt beam="2">  1        2 0.23881779E+00 0.33893632E+04</pdfrwt>
<pdfrwt beam="1">  1       -2 0.28463142E+00 0.33893632E+04</pdfrwt>
<totfact> 0.38803521E-01</totfact>
</mgrwt>
</event>
<event>
 4    1  0.1343107E-008  0.2572558E+04  0.7816531E-02  0.8377583E-01
         -2   -1    0    0    0  501 -0.00000000000E+00  0.00000000000E+00  0.17219729673E+04  0.17219729673E+04  0.00000000000E+00 0. -1.
          2   -1    0    0  501    0  0.00000000000E+00 -0.00000000000E+00 -0.96082464793E+03  0.96082464793E+03  0.00000000000E+00 0.  1.
    2000013    1    1    2    0    0 -0.44410209216E+02  0.82215751048E+03  0.66444995431E+03  0.14219384588E+04  0.95000000000E+03 0.  0.
   -2000013    1    1    2    0    0  0.44410209216E+02 -0.82215751048E+03  0.96698365082E+02  0.12608591565E+04  0.95000000000E+03 0.  0.
<mgrwt>
<rscale>  0 0.25725583E+04</rscale>
<asrwt>0</asrwt>
<pdfrwt beam="2">  1        2 0.14781918E+00 0.25725583E+04</pdfrwt>
<pdfrwt beam="1">  1       -2 0.26491892E+00 0.25725583E+04</pdfrwt>
<totfact> 0.12326353E+00</totfact>
</mgrwt>
</event>
<event>
 4    1  0.1343107E-008  0.2257006E+04  0.7816531E-02  0.8495069E-01
          2   -1    0    0  501    0  0.00000000000E+00  0.00000000000E+00  0.28769412273E+04  0.28769412273E+04  0.00000000000E+00 0.  1.
         -2   -1    0    0    0  501 -0.00000000000E+00 -0.00000000000E+00 -0.44266430808E+03  0.44266430808E+03  0.00000000000E+00 0. -1.
    2000013    1    1    2    0    0 -0.12867277449E+03 -0.35946629480E+03  0.51909452161E+03  0.11479250073E+04  0.95000000000E+03 0.  0.
   -2000013    1    1    2    0    0  0.12867277449E+03  0.35946629480E+03  0.19151823977E+04  0.21716805281E+04  0.95000000000E+03 0.  0.
<mgrwt>
<rscale>  0 0.22570062E+04</rscale>
<asrwt>0</asrwt>
<pdfrwt beam="1">  1        2 0.44260633E+00 0.22570062E+04</pdfrwt>
<pdfrwt beam="2">  1       -2 0.68102203E-01 0.22570062E+04</pdfrwt>
<totfact> 0.37297533E+00</totfact>
</mgrwt>
</event>
<event>
 4    1  0.1343107E-008  0.2206809E+04  0.7816531E-02  0.8515600E-01
          2   -1    0    0  501    0  0.00000000000E+00  0.00000000000E+00  0.21635453611E+04  0.21635453611E+04  0.00000000000E+00 0.  1.
         -2   -1    0    0    0  501 -0.00000000000E+00 -0.00000000000E+00 -0.56273430983E+03  0.56273430983E+03  0.00000000000E+00 0. -1.
    2000013    1    1    2    0    0  0.34100096786E+03  0.44388945329E+03  0.85106723103E+03  0.13928872670E+04  0.95000000000E+03 0.  0.
   -2000013    1    1    2    0    0 -0.34100096786E+03 -0.44388945329E+03  0.74974382022E+03  0.13333924039E+04  0.95000000000E+03 0.  0.
<mgrwt>
<rscale>  0 0.22068087E+04</rscale>
<asrwt>0</asrwt>
<pdfrwt beam="1">  1        2 0.33285313E+00 0.22068087E+04</pdfrwt>
<pdfrwt beam="2">  1       -2 0.86574511E-01 0.22068087E+04</pdfrwt>
<totfact> 0.57132388E+00</totfact>
</mgrwt>
</event>
<event>
 4    1  0.1343107E-008  0.2078224E+04  0.7816531E-02  0.8570897E-01
         -2   -1    0    0    0  501 -0.00000000000E+00  0.00000000000E+00  0.69312497816E+03  0.69312497816E+03  0.00000000000E+00 0. -1.
          2   -1    0    0  501    0  0.00000000000E+00 -0.00000000000E+00 -0.15578058435E+04  0.15578058435E+04  0.00000000000E+00 0.  1.
    2000013    1    1    2    0    0  0.44004416018E+02  0.19940254222E+03 -0.33563808642E+02  0.97227788812E+03  0.95000000000E+03 0.  0.
   -2000013    1    1    2    0    0 -0.44004416018E+02 -0.19940254222E+03 -0.83111705666E+03  0.12786529335E+04  0.95000000000E+03 0.  0.
<mgrwt>
<rscale>  0 0.20782244E+04</rscale>
<asrwt>0</asrwt>
<pdfrwt beam="2">  1        2 0.23966244E+00 0.20782244E+04</pdfrwt>
<pdfrwt beam="1">  1       -2 0.10663461E+00 0.20782244E+04</pdfrwt>
<totfact> 0.77010341E+00</totfact>
</mgrwt>
</event>
<event>
 4    1  0.1343107E-008  0.2150705E+04  0.7816531E-02  0.8539230E-01
         -1   -1    0    0    0  501 -0.00000000000E+00  0.00000000000E+00  0.16739687318E+04  0.16739687318E+04  0.00000000000E+00 0. -1.
          1   -1    0    0  501    0  0.00000000000E+00 -0.00000000000E+00 -0.69080328531E+03  0.69080328531E+03  0.00000000000E+00 0.  1.
    2000013    1    1    2    0    0  0.35616326765E+03 -0.29957572085E+03  0.27926965220E+03  0.10941158185E+04  0.95000000000E+03 0.  0.
   -2000013    1    1    2    0    0 -0.35616326765E+03  0.29957572085E+03  0.70389579431E+03  0.12706561986E+04  0.95000000000E+03 0.  0.
<mgrwt>
<rscale>  0 0.21507051E+04</rscale>
<asrwt>0</asrwt>
<pdfrwt beam="2">  1        1 0.10627743E+00 0.21507051E+04</pdfrwt>
<pdfrwt beam="1">  1       -1 0.25753365E+00 0.21507051E+04</pdfrwt>
<totfact> 0.15846669E+00</totfact>
</mgrwt>
</event>
<event>
 4    1  0.1343107E-008  0.2042486E+04  0.7816531E-02  0.8587011E-01
         -2   -1    0    0    0  501 -0.00000000000E+00  0.00000000000E+00  0.98515842545E+03  0.98515842545E+03  0.00000000000E+00 0. -1.
          2   -1    0    0  501    0  0.00000000000E+00 -0.00000000000E+00 -0.10586491594E+04  0.10586491594E+04  0.00000000000E+00 0.  1.
    2000013    1    1    2    0    0  0.17692879564E+03 -0.11021568327E+03  0.27488166104E+03  0.10106983839E+04  0.95000000000E+03 0.  0.
   -2000013    1    1    2    0    0 -0.17692879564E+03  0.11021568327E+03 -0.34837239497E+03  0.10331092010E+04  0.95000000000E+03 0.  0.
<mgrwt>
<rscale>  0 0.20424859E+04</rscale>
<asrwt>0</asrwt>
<pdfrwt beam="2">  1        2 0.16286910E+00 0.20424859E+04</pdfrwt>
<pdfrwt beam="1">  1       -2 0.15156283E+00 0.20424859E+04</pdfrwt>
<totfact> 0.62382717E+00</totfact>
</mgrwt>
</event>
<event>
 4    1  0.1343107E-008  0.2559456E+04  0.7816531E-02  0.8382105E-01
         -2   -1    0    0    0  501 -0.00000000000E+00  0.00000000000E+00  0.48354967452E+03  0.48354967452E+03  0.00000000000E+00 0. -1.
          2   -1    0    0  501    0  0.00000000000E+00 -0.00000000000E+00 -0.33868370597E+04  0.33868370597E+04  0.00000000000E+00 0.  1.
    2000013    1    1    2    0    0 -0.20971447339E+03  0.77576358159E+03 -0.19038233698E+04  0.22743862289E+04  0.95000000000E+03 0.  0.
   -2000013    1    1    2    0    0  0.20971447339E+03 -0.77576358159E+03 -0.99946401534E+03  0.15960005053E+04  0.95000000000E+03 0.  0.
<mgrwt>
<rscale>  0 0.25594562E+04</rscale>
<asrwt>0</asrwt>
<pdfrwt beam="2">  1        2 0.52105185E+00 0.25594562E+04</pdfrwt>
<pdfrwt beam="1">  1       -2 0.74392259E-01 0.25594562E+04</pdfrwt>
<totfact> 0.14054460E+00</totfact>
</mgrwt>
</event>
<event>
 4    1  0.1343107E-008  0.2862208E+04  0.7816531E-02  0.8284211E-01
         -2   -1    0    0    0  501 -0.00000000000E+00  0.00000000000E+00  0.13948695560E+04  0.13948695560E+04  0.00000000000E+00 0. -1.
          2   -1    0    0  501    0  0.00000000000E+00 -0.00000000000E+00 -0.14682793537E+04  0.14682793537E+04  0.00000000000E+00 0.  1.
    2000013    1    1    2    0    0  0.61859472475E+02 -0.10641836948E+04  0.59475769193E+02  0.14291084275E+04  0.95000000000E+03 0.  0.
   -2000013    1    1    2    0    0 -0.61859472475E+02  0.10641836948E+04 -0.13288556684E+03  0.14340404821E+04  0.95000000000E+03 0.  0.
<mgrwt>
<rscale>  0 0.28622077E+04</rscale>
<asrwt>0</asrwt>
<pdfrwt beam="2">  1        2 0.22588913E+00 0.28622077E+04</pdfrwt>
<pdfrwt beam="1">  1       -2 0.21459532E+00 0.28622077E+04</pdfrwt>
<totfact> 0.12254770E+00</totfact>
</mgrwt>
</event>
<event>
 4    1  0.1343107E-008  0.2869097E+04  0.7816531E-02  0.8282132E-01
         -2   -1    0    0    0  501 -0.00000000000E+00  0.00000000000E+00  0.61754050815E+03  0.61754050815E+03  0.00000000000E+00 0. -1.
          2   -1    0    0  501    0  0.00000000000E+00 -0.00000000000E+00 -0.33324603311E+04  0.33324603311E+04  0.00000000000E+00 0.  1.
    2000013    1    1    2    0    0  0.68803120511E+03  0.82442769441E+03 -0.14243599022E+04  0.20209822101E+04  0.95000000000E+03 0.  0.
   -2000013    1    1    2    0    0 -0.68803120511E+03 -0.82442769441E+03 -0.12905599208E+04  0.19290186291E+04  0.95000000000E+03 0.  0.
<mgrwt>
<rscale>  0 0.28690969E+04</rscale>
<asrwt>0</asrwt>
<pdfrwt beam="2">  1        2 0.51268619E+00 0.28690969E+04</pdfrwt>
<pdfrwt beam="1">  1       -2 0.95006235E-01 0.28690969E+04</pdfrwt>
<totfact> 0.85380381E-01</totfact>
</mgrwt>
</event>
<event>
 4    1  0.1343107E-008  0.2641076E+04  0.7816531E-02  0.8354381E-01
         -2   -1    0    0    0  501 -0.00000000000E+00  0.00000000000E+00  0.16336781156E+04  0.16336781156E+04  0.00000000000E+00 0. -1.
          2   -1    0    0  501    0  0.00000000000E+00 -0.00000000000E+00 -0.10674203389E+04  0.10674203389E+04  0.00000000000E+00 0.  1.
    2000013    1    1    2    0    0 -0.88019516909E+03 -0.23325072637E+03  0.39596212133E+03  0.13742035652E+04  0.95000000000E+03 0.  0.
   -2000013    1    1    2    0    0  0.88019516909E+03  0.23325072637E+03  0.17029565535E+03  0.13268948893E+04  0.95000000000E+03 0.  0.
<mgrwt>
<rscale>  0 0.26410765E+04</rscale>
<asrwt>0</asrwt>
<pdfrwt beam="2">  1        2 0.16421851E+00 0.26410765E+04</pdfrwt>
<pdfrwt beam="1">  1       -2 0.25133510E+00 0.26410765E+04</pdfrwt>
<totfact> 0.12688142E+00</totfact>
</mgrwt>
</event>
<event>
 4    1  0.1343107E-008  0.2564971E+04  0.7816531E-02  0.8380198E-01
         -2   -1    0    0    0  501 -0.00000000000E+00  0.00000000000E+00  0.18832008905E+04  0.18832008905E+04  0.00000000000E+00 0. -1.
          2   -1    0    0  501    0  0.00000000000E+00 -0.00000000000E+00 -0.87338994748E+03  0.87338994748E+03  0.00000000000E+00 0.  1.
    2000013    1    1    2    0    0  0.83121993406E+03  0.18478541346E+03  0.36397337492E+03  0.13266683253E+04  0.95000000000E+03 0.  0.
   -2000013    1    1    2    0    0 -0.83121993406E+03 -0.18478541346E+03  0.64583756810E+03  0.14299225126E+04  0.95000000000E+03 0.  0.
<mgrwt>
<rscale>  0 0.25649707E+04</rscale>
<asrwt>0</asrwt>
<pdfrwt beam="2">  1        2 0.13436768E+00 0.25649707E+04</pdfrwt>
<pdfrwt beam="1">  1       -2 0.28972321E+00 0.25649707E+04</pdfrwt>
<totfact> 0.99637662E-01</totfact>
</mgrwt>
</event>
<event>
 4    1  0.1343107E-008  0.1975551E+04  0.7816531E-02  0.8618138E-01
         -2   -1    0    0    0  501 -0.00000000000E+00  0.00000000000E+00  0.88168416299E+03  0.88168416299E+03  0.00000000000E+00 0. -1.
          2   -1    0    0  501    0  0.00000000000E+00 -0.00000000000E+00 -0.11066322261E+04  0.11066322261E+04  0.00000000000E+00 0.  1.
    2000013    1    1    2    0    0 -0.18713194477E+03 -0.19120817148E+03 -0.15299807118E+03  0.99874287951E+03  0.95000000000E+03 0.  0.
   -2000013    1    1    2    0    0  0.18713194477E+03  0.19120817148E+03 -0.71949991976E+02  0.98957350962E+03  0.95000000000E+03 0.  0.
<mgrwt>
<rscale>  0 0.19755507E+04</rscale>
<asrwt>0</asrwt>
<pdfrwt beam="2">  1        2 0.17025111E+00 0.19755507E+04</pdfrwt>
<pdfrwt beam="1">  1       -2 0.13564372E+00 0.19755507E+04</pdfrwt>
<totfact> 0.78305209E+00</totfact>
</mgrwt>
</event>
<event>
 4    1  0.1343107E-008  0.2810992E+04  0.7816531E-02  0.8299864E-01
          2   -1    0    0  501    0  0.00000000000E+00  0.00000000000E+00  0.20413886517E+04  0.20413886517E+04  0.00000000000E+00 0.  1.
         -2   -1    0    0    0  501 -0.00000000000E+00 -0.00000000000E+00 -0.96768376200E+03  0.96768376200E+03  0.00000000000E+00 0. -1.
    2000013    1    1    2    0    0  0.88070055017E+03  0.14034028509E+03 -0.27141988054E+02  0.13032902755E+04  0.95000000000E+03 0.  0.
   -2000013    1    1    2    0    0 -0.88070055017E+03 -0.14034028509E+03  0.11008468777E+04  0.17057821382E+04  0.95000000000E+03 0.  0.
<mgrwt>
<rscale>  0 0.28109917E+04</rscale>
<asrwt>0</asrwt>
<pdfrwt beam="1">  1        2 0.31405979E+00 0.28109917E+04</pdfrwt>
<pdfrwt beam="2">  1       -2 0.14887443E+00 0.28109917E+04</pdfrwt>
<totfact> 0.16837085E+00</totfact>
</mgrwt>
</event>
<event>
 4    1  0.1343107E-008  0.2043839E+04  0.7816531E-02  0.8586394E-01
         -2   -1    0    0    0  501 -0.00000000000E+00  0.00000000000E+00  0.15885308323E+04  0.15885308323E+04  0.00000000000E+00 0. -1.
          2   -1    0    0  501    0  0.00000000000E+00 -0.00000000000E+00 -0.65741232282E+03  0.65741232282E+03  0.00000000000E+00 0.  1.
    2000013    1    1    2    0    0 -0.34676255318E+03  0.13862105123E+03  0.41217925183E+03  0.11008414054E+04  0.95000000000E+03 0.  0.
   -2000013    1    1    2    0    0  0.34676255318E+03 -0.13862105123E+03  0.51893925762E+03  0.11451017497E+04  0.95000000000E+03 0.  0.
<mgrwt>
<rscale>  0 0.20438393E+04</rscale>
<asrwt>0</asrwt>
<pdfrwt beam="2">  1        2 0.10114036E+00 0.20438393E+04</pdfrwt>
<pdfrwt beam="1">  1       -2 0.24438936E+00 0.20438393E+04</pdfrwt>
<totfact> 0.28552929E+00</totfact>
</mgrwt>
</event>
<event>
 4    1  0.1343107E-008  0.2247722E+04  0.7816531E-02  0.8498824E-01
         -2   -1    0    0    0  501 -0.00000000000E+00  0.00000000000E+00  0.47641740129E+03  0.47641740129E+03  0.00000000000E+00 0. -1.
          2   -1    0    0  501    0  0.00000000000E+00 -0.00000000000E+00 -0.26511700000E+04  0.26511700000E+04  0.00000000000E+00 0.  1.
    2000013    1    1    2    0    0  0.37897200475E+03 -0.45189777133E+03 -0.12443828101E+04  0.16729674098E+04  0.95000000000E+03 0.  0.
   -2000013    1    1    2    0    0 -0.37897200475E+03  0.45189777133E+03 -0.93036978862E+03  0.14546199915E+04  0.95000000000E+03 0.  0.
<mgrwt>
<rscale>  0 0.22477220E+04</rscale>
<asrwt>0</asrwt>
<pdfrwt beam="2">  1        2 0.40787231E+00 0.22477220E+04</pdfrwt>
<pdfrwt beam="1">  1       -2 0.73294985E-01 0.22477220E+04</pdfrwt>
<totfact> 0.43439866E+00</totfact>
</mgrwt>
</event>
<event>
 4    1  0.1343107E-008  0.2191634E+04  0.7816531E-02  0.8521918E-01
         -2   -1    0    0    0  501 -0.00000000000E+00  0.00000000000E+00  0.33949130023E+03  0.33949130023E+03  0.00000000000E+00 0. -1.
          2   -1    0    0  501    0  0.00000000000E+00 -0.00000000000E+00 -0.35371003051E+04  0.35371003051E+04  0.00000000000E+00 0.  1.
    2000013    1    1    2    0    0 -0.16585898644E+03  0.51650847474E+03 -0.14865918086E+04  0.18457370921E+04  0.95000000000E+03 0.  0.
   -2000013    1    1    2    0    0  0.16585898644E+03 -0.51650847474E+03 -0.17110171963E+04  0.20308545133E+04  0.95000000000E+03 0.  0.
<mgrwt>
<rscale>  0 0.21916339E+04</rscale>
<asrwt>0</asrwt>
<pdfrwt beam="2">  1        2 0.54416927E+00 0.21916339E+04</pdfrwt>
<pdfrwt beam="1">  1       -2 0.52229432E-01 0.21916339E+04</pdfrwt>
<totfact> 0.24321663E+00</totfact>
</mgrwt>
</event>
<event>
 4    1  0.1343107E-008  0.3335835E+04  0.7816531E-02  0.8153836E-01
          2   -1    0    0  501    0  0.00000000000E+00  0.00000000000E+00  0.76165599049E+03  0.76165599049E+03  0.00000000000E+00 0.  1.
         -2   -1    0    0    0  501 -0.00000000000E+00 -0.00000000000E+00 -0.36525011318E+04  0.36525011318E+04  0.00000000000E+00 0. -1.
    2000013    1    1    2    0    0 -0.16626393256E+03  0.13603890959E+04 -0.14902412380E+04  0.22364304449E+04  0.95000000000E+03 0.  0.
   -2000013    1    1    2    0    0  0.16626393256E+03 -0.13603890959E+04 -0.14006039034E+04  0.21777266774E+04  0.95000000000E+03 0.  0.
<mgrwt>
<rscale>  0 0.33358353E+04</rscale>
<asrwt>0</asrwt>
<pdfrwt beam="1">  1        2 0.11717784E+00 0.33358353E+04</pdfrwt>
<pdfrwt beam="2">  1       -2 0.56192325E+00 0.33358353E+04</pdfrwt>
<totfact> 0.22644431E-02</totfact>
</mgrwt>
</event>
<event>
 4    1  0.1343107E-008  0.2338998E+04  0.7816531E-02  0.8462701E-01
         -2   -1    0    0    0  501 -0.00000000000E+00  0.00000000000E+00  0.63202009013E+03  0.63202009013E+03  0.00000000000E+00 0. -1.
          2   -1    0    0  501    0  0.00000000000E+00 -0.00000000000E+00 -0.21640579195E+04  0.21640579195E+04  0.00000000000E+00 0.  1.
    2000013    1    1    2    0    0 -0.31655926440E+03  0.27810744811E+03 -0.14071844000E+04  0.17493488663E+04  0.95000000000E+03 0.  0.
   -2000013    1    1    2    0    0  0.31655926440E+03 -0.27810744811E+03 -0.12485342936E+03  0.10467291433E+04  0.95000000000E+03 0.  0.
<mgrwt>
<rscale>  0 0.23389981E+04</rscale>
<asrwt>0</asrwt>
<pdfrwt beam="2">  1        2 0.33293199E+00 0.23389981E+04</pdfrwt>
<pdfrwt beam="1">  1       -2 0.97233860E-01 0.23389981E+04</pdfrwt>
<totfact> 0.43142800E+00</totfact>
</mgrwt>
</event>
<event>
 4    1  0.1343107E-008  0.2926185E+04  0.7816531E-02  0.8265129E-01
         -2   -1    0    0    0  501 -0.00000000000E+00  0.00000000000E+00  0.14033264095E+04  0.14033264095E+04  0.00000000000E+00 0. -1.
          2   -1    0    0  501    0  0.00000000000E+00 -0.00000000000E+00 -0.15254037285E+04  0.15254037285E+04  0.00000000000E+00 0.  1.
    2000013    1    1    2    0    0 -0.52515735296E+03  0.82104599100E+03 -0.59837861973E+03  0.14867628383E+04  0.95000000000E+03 0.  0.
   -2000013    1    1    2    0    0  0.52515735296E+03 -0.82104599100E+03  0.47630130073E+03  0.14419672998E+04  0.95000000000E+03 0.  0.
<mgrwt>
<rscale>  0 0.29261848E+04</rscale>
<asrwt>0</asrwt>
<pdfrwt beam="2">  1        2 0.23467750E+00 0.29261848E+04</pdfrwt>
<pdfrwt beam="1">  1       -2 0.21589637E+00 0.29261848E+04</pdfrwt>
<totfact> 0.11102325E+00</totfact>
</mgrwt>
</event>
<event>
 4    1  0.1343107E-008  0.2947500E+04  0.7816531E-02  0.8258883E-01
         -2   -1    0    0    0  501 -0.00000000000E+00  0.00000000000E+00  0.76841049866E+03  0.76841049866E+03  0.00000000000E+00 0.  1.
          2   -1    0    0  501    0  0.00000000000E+00 -0.00000000000E+00 -0.28265353762E+04  0.28265353762E+04  0.00000000000E+00 0. -1.
    2000013    1    1    2    0    0  0.44256570908E+03  0.10230899361E+04 -0.12289602079E+04  0.19119154314E+04  0.95000000000E+03 0.  0.
   -2000013    1    1    2    0    0 -0.44256570908E+03 -0.10230899361E+04 -0.82916466968E+03  0.16830304435E+04  0.95000000000E+03 0.  0.
<mgrwt>
<rscale>  0 0.29475003E+04</rscale>
<asrwt>0</asrwt>
<pdfrwt beam="2">  1        2 0.43485158E+00 0.29475003E+04</pdfrwt>
<pdfrwt beam="1">  1       -2 0.11821700E+00 0.29475003E+04</pdfrwt>
<totfact> 0.10552333E+00</totfact>
</mgrwt>
</event>
<event>
 4    1  0.1343107E-008  0.2433912E+04  0.7816531E-02  0.8426915E-01
         -2   -1    0    0    0  501 -0.00000000000E+00  0.00000000000E+00  0.16886770511E+04  0.16886770511E+04  0.00000000000E+00 0. -1.
          2   -1    0    0  501    0  0.00000000000E+00 -0.00000000000E+00 -0.87700725104E+03  0.87700725104E+03  0.00000000000E+00 0.  1.
    2000013    1    1    2    0    0  0.68892921217E+03  0.30112244392E+02  0.74406739219E+03  0.13898440527E+04  0.95000000000E+03 0.  0.
   -2000013    1    1    2    0    0 -0.68892921217E+03 -0.30112244392E+02  0.67602407845E+02  0.11758402494E+04  0.95000000000E+03 0.  0.
<mgrwt>
<rscale>  0 0.24339121E+04</rscale>
<asrwt>0</asrwt>
<pdfrwt beam="2">  1        2 0.13492419E+00 0.24339121E+04</pdfrwt>
<pdfrwt beam="1">  1       -2 0.25979647E+00 0.24339121E+04</pdfrwt>
<totfact> 0.15251859E+00</totfact>
</mgrwt>
</event>
<event>
 4    1  0.1343107E-008  0.2440650E+04  0.7816531E-02  0.8424440E-01
         -2   -1    0    0    0  501 -0.00000000000E+00  0.00000000000E+00  0.81150626035E+03  0.81150626035E+03  0.00000000000E+00 0. -1.
          2   -1    0    0  501    0  0.00000000000E+00 -0.00000000000E+00 -0.18350977763E+04  0.18350977763E+04  0.00000000000E+00 0.  1.
    2000013    1    1    2    0    0  0.67064769708E+03  0.36330967190E+03 -0.43564844742E+03  0.12938515452E+04  0.95000000000E+03 0.  0.
   -2000013    1    1    2    0    0 -0.67064769708E+03 -0.36330967190E+03 -0.58794306856E+03  0.13527524915E+04  0.95000000000E+03 0.  0.
<mgrwt>
<rscale>  0 0.24406502E+04</rscale>
<asrwt>0</asrwt>
<pdfrwt beam="2">  1        2 0.28232273E+00 0.24406502E+04</pdfrwt>
<pdfrwt beam="1">  1       -2 0.12484712E+00 0.24406502E+04</pdfrwt>
<totfact> 0.35565716E+00</totfact>
</mgrwt>
</event>
<event>
 4    1  0.1343107E-008  0.2769929E+04  0.7816531E-02  0.8312666E-01
          2   -1    0    0  501    0  0.00000000000E+00  0.00000000000E+00  0.18115977331E+04  0.18115977331E+04  0.00000000000E+00 0.  1.
         -2   -1    0    0    0  501 -0.00000000000E+00 -0.00000000000E+00 -0.10588034981E+04  0.10588034981E+04  0.00000000000E+00 0. -1.
    2000013    1    1    2    0    0 -0.53920937594E+03  0.85025232987E+03  0.42216051224E+03  0.14472025683E+04  0.95000000000E+03 0.  0.
   -2000013    1    1    2    0    0  0.53920937594E+03 -0.85025232987E+03  0.33063372269E+03  0.14231986629E+04  0.95000000000E+03 0.  0.
<mgrwt>
<rscale>  0 0.27699285E+04</rscale>
<asrwt>0</asrwt>
<pdfrwt beam="1">  1        2 0.27870734E+00 0.27699285E+04</pdfrwt>
<pdfrwt beam="2">  1       -2 0.16289285E+00 0.27699285E+04</pdfrwt>
<totfact> 0.17789828E+00</totfact>
</mgrwt>
</event>
<event>
 4    1  0.1343107E-008  0.2375663E+04  0.7816531E-02  0.8448671E-01
         -2   -1    0    0    0  501 -0.00000000000E+00  0.00000000000E+00  0.23555877394E+04  0.23555877394E+04  0.00000000000E+00 0. -1.
          2   -1    0    0  501    0  0.00000000000E+00 -0.00000000000E+00 -0.59897757287E+03  0.59897757287E+03  0.00000000000E+00 0.  1.
    2000013    1    1    2    0    0 -0.62121004063E+03 -0.34961900518E+03  0.90016215304E+03  0.14902775799E+04  0.95000000000E+03 0.  0.
   -2000013    1    1    2    0    0  0.62121004063E+03  0.34961900518E+03  0.85644801349E+03  0.14642877324E+04  0.95000000000E+03 0.  0.
<mgrwt>
<rscale>  0 0.23756635E+04</rscale>
<asrwt>0</asrwt>
<pdfrwt beam="2">  1        2 0.92150397E-01 0.23756635E+04</pdfrwt>
<pdfrwt beam="1">  1       -2 0.36239811E+00 0.23756635E+04</pdfrwt>
<totfact> 0.58190854E-01</totfact>
</mgrwt>
</event>
<event>
 4    1  0.1343107E-008  0.2456204E+04  0.7816531E-02  0.8418756E-01
          2   -1    0    0  501    0  0.00000000000E+00  0.00000000000E+00  0.27444511404E+04  0.27444511404E+04  0.00000000000E+00 0. -1.
         -2   -1    0    0    0  501 -0.00000000000E+00 -0.00000000000E+00 -0.54955787966E+03  0.54955787966E+03  0.00000000000E+00 0.  1.
    2000013    1    1    2    0    0  0.37209410771E+03  0.64225850090E+03  0.78354748762E+03  0.14378444535E+04  0.95000000000E+03 0.  0.
   -2000013    1    1    2    0    0 -0.37209410771E+03 -0.64225850090E+03  0.14113457731E+04  0.18561645666E+04  0.95000000000E+03 0.  0.
<mgrwt>
<rscale>  0 0.24562042E+04</rscale>
<asrwt>0</asrwt>
<pdfrwt beam="1">  1        2 0.42222324E+00 0.24562042E+04</pdfrwt>
<pdfrwt beam="2">  1       -2 0.84547368E-01 0.24562042E+04</pdfrwt>
<totfact> 0.27268027E+00</totfact>
</mgrwt>
</event>
<event>
 4    1  0.1343107E-008  0.3578180E+04  0.7816531E-02  0.8095508E-01
          2   -1    0    0  501    0  0.00000000000E+00  0.00000000000E+00  0.23636656267E+04  0.23636656267E+04  0.00000000000E+00 0.  1.
         -2   -1    0    0    0  501 -0.00000000000E+00 -0.00000000000E+00 -0.13541860081E+04  0.13541860081E+04  0.00000000000E+00 0. -1.
    2000013    1    1    2    0    0  0.83541893470E+03 -0.93848841194E+03 -0.37670037011E+03  0.16195951545E+04  0.95000000000E+03 0.  0.
   -2000013    1    1    2    0    0 -0.83541893470E+03  0.93848841194E+03  0.13861799887E+04  0.20982564802E+04  0.95000000000E+03 0.  0.
<mgrwt>
<rscale>  0 0.35781799E+04</rscale>
<asrwt>0</asrwt>
<pdfrwt beam="1">  1        2 0.36364087E+00 0.35781799E+04</pdfrwt>
<pdfrwt beam="2">  1       -2 0.20833631E+00 0.35781799E+04</pdfrwt>
<totfact> 0.39966325E-01</totfact>
</mgrwt>
</event>
<event>
 4    1  0.1343107E-008  0.3777435E+04  0.7816531E-02  0.8051015E-01
          2   -1    0    0  501    0  0.00000000000E+00  0.00000000000E+00  0.18434352002E+04  0.18434352002E+04  0.00000000000E+00 0.  1.
         -2   -1    0    0    0  501 -0.00000000000E+00 -0.00000000000E+00 -0.19351125545E+04  0.19351125545E+04  0.00000000000E+00 0. -1.
    2000013    1    1    2    0    0 -0.15095143707E+04  0.32479321482E+03 -0.57574020419E+03  0.19021306607E+04  0.95000000000E+03 0.  0.
   -2000013    1    1    2    0    0  0.15095143707E+04 -0.32479321482E+03  0.48406284993E+03  0.18764170939E+04  0.95000000000E+03 0.  0.
<mgrwt>
<rscale>  0 0.37774354E+04</rscale>
<asrwt>0</asrwt>
<pdfrwt beam="1">  1        2 0.28360542E+00 0.37774354E+04</pdfrwt>
<pdfrwt beam="2">  1       -2 0.29770962E+00 0.37774354E+04</pdfrwt>
<totfact> 0.21524297E-01</totfact>
</mgrwt>
</event>
<event>
 4    1  0.1343107E-008  0.2360021E+04  0.7816531E-02  0.8454625E-01
         -2   -1    0    0    0  501 -0.00000000000E+00  0.00000000000E+00  0.10394978358E+04  0.10394978358E+04  0.00000000000E+00 0. -1.
          2   -1    0    0  501    0  0.00000000000E+00 -0.00000000000E+00 -0.13395163699E+04  0.13395163699E+04  0.00000000000E+00 0.  1.
    2000013    1    1    2    0    0 -0.60031443372E+03 -0.34744510690E+03 -0.24472741595E+03  0.12014520505E+04  0.95000000000E+03 0.  0.
   -2000013    1    1    2    0    0  0.60031443372E+03  0.34744510690E+03 -0.55291118159E+02  0.11775621552E+04  0.95000000000E+03 0.  0.
<mgrwt>
<rscale>  0 0.23600207E+04</rscale>
<asrwt>0</asrwt>
<pdfrwt beam="2">  1        2 0.20607944E+00 0.23600207E+04</pdfrwt>
<pdfrwt beam="1">  1       -2 0.15992274E+00 0.23600207E+04</pdfrwt>
<totfact> 0.35683079E+00</totfact>
</mgrwt>
</event>
<event>
 4    1  0.1343107E-008  0.2515953E+04  0.7816531E-02  0.8397324E-01
         -2   -1    0    0    0  501 -0.00000000000E+00  0.00000000000E+00  0.13793974501E+04  0.13793974501E+04  0.00000000000E+00 0. -1.
          2   -1    0    0  501    0  0.00000000000E+00 -0.00000000000E+00 -0.11472438079E+04  0.11472438079E+04  0.00000000000E+00 0.  1.
    2000013    1    1    2    0    0  0.44201405304E+03 -0.60647776338E+03 -0.22715496739E+03  0.12317836984E+04  0.95000000000E+03 0.  0.
   -2000013    1    1    2    0    0 -0.44201405304E+03  0.60647776338E+03  0.45930860958E+03  0.12948575595E+04  0.95000000000E+03 0.  0.
<mgrwt>
<rscale>  0 0.25159532E+04</rscale>
<asrwt>0</asrwt>
<pdfrwt beam="2">  1        2 0.17649905E+00 0.25159532E+04</pdfrwt>
<pdfrwt beam="1">  1       -2 0.21221499E+00 0.25159532E+04</pdfrwt>
<totfact> 0.20114705E+00</totfact>
</mgrwt>
</event>
<event>
 4    1  0.1343107E-008  0.2597281E+04  0.7816531E-02  0.8369125E-01
         -2   -1    0    0    0  501 -0.00000000000E+00  0.00000000000E+00  0.60888157530E+03  0.60888157530E+03  0.00000000000E+00 0. -1.
          2   -1    0    0  501    0  0.00000000000E+00 -0.00000000000E+00 -0.27697777374E+04  0.27697777374E+04  0.00000000000E+00 0.  1.
    2000013    1    1    2    0    0 -0.40960738637E+03 -0.63139803025E+03 -0.16871565636E+04  0.20773634621E+04  0.95000000000E+03 0.  0.
   -2000013    1    1    2    0    0  0.40960738637E+03  0.63139803025E+03 -0.47373959848E+03  0.13012958506E+04  0.95000000000E+03 0.  0.
<mgrwt>
<rscale>  0 0.25972806E+04</rscale>
<asrwt>0</asrwt>
<pdfrwt beam="2">  1        2 0.42611966E+00 0.25972806E+04</pdfrwt>
<pdfrwt beam="1">  1       -2 0.93674088E-01 0.25972806E+04</pdfrwt>
<totfact> 0.20546324E+00</totfact>
</mgrwt>
</event>
<event>
 4    1  0.1343107E-008  0.2259319E+04  0.7816531E-02  0.8494136E-01
         -2   -1    0    0    0  501 -0.00000000000E+00  0.00000000000E+00  0.25096466158E+04  0.25096466158E+04  0.00000000000E+00 0. -1.
          2   -1    0    0  501    0  0.00000000000E+00 -0.00000000000E+00 -0.50849009269E+03  0.50849009269E+03  0.00000000000E+00 0.  1.
    2000013    1    1    2    0    0  0.32232119281E+03  0.30082299748E+03  0.15661463783E+04  0.18840647296E+04  0.95000000000E+03 0.  0.
   -2000013    1    1    2    0    0 -0.32232119281E+03 -0.30082299748E+03  0.43501014481E+03  0.11340719789E+04  0.95000000000E+03 0.  0.
<mgrwt>
<rscale>  0 0.22593189E+04</rscale>
<asrwt>0</asrwt>
<pdfrwt beam="2">  1        2 0.78229246E-01 0.22593189E+04</pdfrwt>
<pdfrwt beam="1">  1       -2 0.38609947E+00 0.22593189E+04</pdfrwt>
<totfact> 0.50284587E-01</totfact>
</mgrwt>
</event>
<event>
 4    1  0.1343107E-008  0.3015981E+04  0.7816531E-02  0.8239182E-01
         -2   -1    0    0    0  501 -0.00000000000E+00  0.00000000000E+00  0.86520179362E+03  0.86520179362E+03  0.00000000000E+00 0. -1.
          2   -1    0    0  501    0  0.00000000000E+00 -0.00000000000E+00 -0.26283301147E+04  0.26283301147E+04  0.00000000000E+00 0.  1.
    2000013    1    1    2    0    0  0.10471526430E+04  0.40601490167E+03 -0.12660199343E+04  0.19407944848E+04  0.95000000000E+03 0.  0.
   -2000013    1    1    2    0    0 -0.10471526430E+04 -0.40601490167E+03 -0.49710838679E+03  0.15527374235E+04  0.95000000000E+03 0.  0.
<mgrwt>
<rscale>  0 0.30159814E+04</rscale>
<asrwt>0</asrwt>
<pdfrwt beam="2">  1        2 0.40435848E+00 0.30159814E+04</pdfrwt>
<pdfrwt beam="1">  1       -2 0.13310797E+00 0.30159814E+04</pdfrwt>
<totfact> 0.10236304E+00</totfact>
</mgrwt>
</event>
<event>
 4    1  0.1343107E-008  0.2213526E+04  0.7816531E-02  0.8512819E-01
          2   -1    0    0  501    0  0.00000000000E+00  0.00000000000E+00  0.37327695543E+04  0.37327695543E+04  0.00000000000E+00 0.  1.
         -2   -1    0    0    0  501 -0.00000000000E+00 -0.00000000000E+00 -0.32815433205E+03  0.32815433205E+03  0.00000000000E+00 0. -1.
    2000013    1    1    2    0    0 -0.49706327019E+03 -0.51863466338E+02  0.21968416805E+04  0.24450715906E+04  0.95000000000E+03 0.  0.
   -2000013    1    1    2    0    0  0.49706327019E+03  0.51863466338E+02  0.12077735417E+04  0.16158522958E+04  0.95000000000E+03 0.  0.
<mgrwt>
<rscale>  0 0.22135261E+04</rscale>
<asrwt>0</asrwt>
<pdfrwt beam="1">  1        2 0.57427221E+00 0.22135261E+04</pdfrwt>
<pdfrwt beam="2">  1       -2 0.50485285E-01 0.22135261E+04</pdfrwt>
<totfact> 0.18786864E+00</totfact>
</mgrwt>
</event>
<event>
 4    1  0.1343107E-008  0.2100115E+04  0.7816531E-02  0.8561193E-01
         -2   -1    0    0    0  501 -0.00000000000E+00  0.00000000000E+00  0.73567523586E+03  0.73567523586E+03  0.00000000000E+00 0. -1.
          2   -1    0    0  501    0  0.00000000000E+00 -0.00000000000E+00 -0.14987866627E+04  0.14987866627E+04  0.00000000000E+00 0.  1.
    2000013    1    1    2    0    0 -0.42314341459E+03 -0.23006579252E+02 -0.22906748230E+03  0.10651533051E+04  0.95000000000E+03 0.  0.
   -2000013    1    1    2    0    0  0.42314341459E+03  0.23006579252E+02 -0.53404394457E+03  0.11693085935E+04  0.95000000000E+03 0.  0.
<mgrwt>
<rscale>  0 0.21001145E+04</rscale>
<asrwt>0</asrwt>
<pdfrwt beam="2">  1        2 0.23058256E+00 0.21001145E+04</pdfrwt>
<pdfrwt beam="1">  1       -2 0.11318081E+00 0.21001145E+04</pdfrwt>
<totfact> 0.71837368E+00</totfact>
</mgrwt>
</event>
<event>
 4    1  0.1343107E-008  0.2684934E+04  0.7816531E-02  0.8339910E-01
         -2   -1    0    0    0  501 -0.00000000000E+00  0.00000000000E+00  0.39483671834E+04  0.39483671834E+04  0.00000000000E+00 0. -1.
          2   -1    0    0  501    0  0.00000000000E+00 -0.00000000000E+00 -0.45644636993E+03  0.45644636993E+03  0.00000000000E+00 0.  1.
    2000013    1    1    2    0    0 -0.70803126246E+03  0.36560839459E+02  0.71217828932E+03  0.13828748603E+04  0.95000000000E+03 0.  0.
   -2000013    1    1    2    0    0  0.70803126246E+03 -0.36560839459E+02  0.27797425241E+04  0.30219386930E+04  0.95000000000E+03 0.  0.
<mgrwt>
<rscale>  0 0.26849342E+04</rscale>
<asrwt>0</asrwt>
<pdfrwt beam="2">  1        2 0.70222521E-01 0.26849342E+04</pdfrwt>
<pdfrwt beam="1">  1       -2 0.60744108E+00 0.26849342E+04</pdfrwt>
<totfact> 0.28092953E-02</totfact>
</mgrwt>
</event>
<event>
 4    1  0.1343107E-008  0.2811647E+04  0.7816531E-02  0.8299662E-01
         -2   -1    0    0    0  501 -0.00000000000E+00  0.00000000000E+00  0.11552829425E+04  0.11552829425E+04  0.00000000000E+00 0. -1.
          2   -1    0    0  501    0  0.00000000000E+00 -0.00000000000E+00 -0.17106972733E+04  0.17106972733E+04  0.00000000000E+00 0.  1.
    2000013    1    1    2    0    0  0.22726330270E+02 -0.68685918944E+03 -0.10682899231E+04  0.15862015610E+04  0.95000000000E+03 0.  0.
   -2000013    1    1    2    0    0 -0.22726330270E+02  0.68685918944E+03  0.51287559232E+03  0.12797786548E+04  0.95000000000E+03 0.  0.
<mgrwt>
<rscale>  0 0.28116468E+04</rscale>
<asrwt>0</asrwt>
<pdfrwt beam="2">  1        2 0.26318419E+00 0.28116468E+04</pdfrwt>
<pdfrwt beam="1">  1       -2 0.17773584E+00 0.28116468E+04</pdfrwt>
<totfact> 0.15812625E+00</totfact>
</mgrwt>
</event>
<event>
 4    1  0.1343107E-008  0.2651048E+04  0.7816531E-02  0.8351065E-01
          2   -1    0    0  501    0  0.00000000000E+00  0.00000000000E+00  0.13045002526E+04  0.13045002526E+04  0.00000000000E+00 0.  1.
         -2   -1    0    0    0  501 -0.00000000000E+00 -0.00000000000E+00 -0.13468864743E+04  0.13468864743E+04  0.00000000000E+00 0. -1.
    2000013    1    1    2    0    0 -0.87300805900E+02  0.61641291158E+03  0.66221511193E+03  0.13147681023E+04  0.95000000000E+03 0.  0.
   -2000013    1    1    2    0    0  0.87300805900E+02 -0.61641291158E+03 -0.70460133369E+03  0.13366186246E+04  0.95000000000E+03 0.  0.
<mgrwt>
<rscale>  0 0.26510479E+04</rscale>
<asrwt>0</asrwt>
<pdfrwt beam="1">  1        2 0.20069235E+00 0.26510479E+04</pdfrwt>
<pdfrwt beam="2">  1       -2 0.20721330E+00 0.26510479E+04</pdfrwt>
<totfact> 0.17274977E+00</totfact>
</mgrwt>
</event>
<event>
 4    1  0.1343107E-008  0.2362455E+04  0.7816531E-02  0.8453695E-01
         -2   -1    0    0    0  501 -0.00000000000E+00  0.00000000000E+00  0.38588958248E+03  0.38588958248E+03  0.00000000000E+00 0. -1.
          2   -1    0    0  501    0  0.00000000000E+00 -0.00000000000E+00 -0.36157964948E+04  0.36157964948E+04  0.00000000000E+00 0.  1.
    2000013    1    1    2    0    0  0.24937741783E+02 -0.70131433023E+03 -0.15839728530E+04  0.19758374629E+04  0.95000000000E+03 0.  0.
   -2000013    1    1    2    0    0 -0.24937741783E+02  0.70131433023E+03 -0.16459340594E+04  0.20258486144E+04  0.95000000000E+03 0.  0.
<mgrwt>
<rscale>  0 0.23624548E+04</rscale>
<asrwt>0</asrwt>
<pdfrwt beam="2">  1        2 0.55627640E+00 0.23624548E+04</pdfrwt>
<pdfrwt beam="1">  1       -2 0.59367627E-01 0.23624548E+04</pdfrwt>
<totfact> 0.16111824E+00</totfact>
</mgrwt>
</event>
<event>
 4    1  0.1343107E-008  0.2527882E+04  0.7816531E-02  0.8393119E-01
          2   -1    0    0  501    0  0.00000000000E+00  0.00000000000E+00  0.21138250619E+04  0.21138250619E+04  0.00000000000E+00 0.  1.
         -2   -1    0    0    0  501 -0.00000000000E+00 -0.00000000000E+00 -0.75576138734E+03  0.75576138734E+03  0.00000000000E+00 0. -1.
    2000013    1    1    2    0    0 -0.47994093917E+03  0.29865273617E+03 -0.16590543110E+02  0.11055822032E+04  0.95000000000E+03 0.  0.
   -2000013    1    1    2    0    0  0.47994093917E+03 -0.29865273617E+03  0.13746542177E+04  0.17640042461E+04  0.95000000000E+03 0.  0.
<mgrwt>
<rscale>  0 0.25278824E+04</rscale>
<asrwt>0</asrwt>
<pdfrwt beam="1">  1        2 0.32520385E+00 0.25278824E+04</pdfrwt>
<pdfrwt beam="2">  1       -2 0.11627098E+00 0.25278824E+04</pdfrwt>
<totfact> 0.29480559E+00</totfact>
</mgrwt>
</event>
<event>
 4    1  0.1343107E-008  0.2862734E+04  0.7816531E-02  0.8284052E-01
         -2   -1    0    0    0  501 -0.00000000000E+00  0.00000000000E+00  0.10742483282E+04  0.10742483282E+04  0.00000000000E+00 0. -1.
          2   -1    0    0  501    0  0.00000000000E+00 -0.00000000000E+00 -0.19072045830E+04  0.19072045830E+04  0.00000000000E+00 0.  1.
    2000013    1    1    2    0    0 -0.79389964178E+03 -0.70969539643E+03 -0.53229759847E+03  0.15230840194E+04  0.95000000000E+03 0.  0.
   -2000013    1    1    2    0    0  0.79389964178E+03  0.70969539643E+03 -0.30065865637E+03  0.14583688918E+04  0.95000000000E+03 0.  0.
<mgrwt>
<rscale>  0 0.28627339E+04</rscale>
<asrwt>0</asrwt>
<pdfrwt beam="2">  1        2 0.29341609E+00 0.28627339E+04</pdfrwt>
<pdfrwt beam="1">  1       -2 0.16526898E+00 0.28627339E+04</pdfrwt>
<totfact> 0.15013797E+00</totfact>
</mgrwt>
</event>
<event>
 4    1  0.1343107E-008  0.3173496E+04  0.7816531E-02  0.8195852E-01
         -1   -1    0    0    0  501 -0.00000000000E+00  0.00000000000E+00  0.13731296040E+04  0.13731296040E+04  0.00000000000E+00 0. -1.
          1   -1    0    0  501    0  0.00000000000E+00 -0.00000000000E+00 -0.18335987728E+04  0.18335987728E+04  0.00000000000E+00 0.  1.
    2000013    1    1    2    0    0 -0.10942062064E+04  0.56759798557E+03  0.82545349852E+02  0.15584506506E+04  0.95000000000E+03 0.  0.
   -2000013    1    1    2    0    0  0.10942062064E+04 -0.56759798557E+03 -0.54301451867E+03  0.16482777263E+04  0.95000000000E+03 0.  0.
<mgrwt>
<rscale>  0 0.31734957E+04</rscale>
<asrwt>0</asrwt>
<pdfrwt beam="2">  1        1 0.28209212E+00 0.31734957E+04</pdfrwt>
<pdfrwt beam="1">  1       -1 0.21125071E+00 0.31734957E+04</pdfrwt>
<totfact> 0.40864970E-01</totfact>
</mgrwt>
</event>
<event>
 4    1  0.1343107E-008  0.3320715E+04  0.7816531E-02  0.8157644E-01
          2   -1    0    0  501    0  0.00000000000E+00  0.00000000000E+00  0.16263634416E+04  0.16263634416E+04  0.00000000000E+00 0.  1.
         -2   -1    0    0    0  501 -0.00000000000E+00 -0.00000000000E+00 -0.16950623528E+04  0.16950623528E+04  0.00000000000E+00 0. -1.
    2000013    1    1    2    0    0  0.88689528549E+03 -0.59704014550E+03  0.80918576458E+03  0.16432655855E+04  0.95000000000E+03 0.  0.
   -2000013    1    1    2    0    0 -0.88689528549E+03  0.59704014550E+03 -0.87788467581E+03  0.16781602089E+04  0.95000000000E+03 0.  0.
<mgrwt>
<rscale>  0 0.33207152E+04</rscale>
<asrwt>0</asrwt>
<pdfrwt beam="1">  1        2 0.25020976E+00 0.33207152E+04</pdfrwt>
<pdfrwt beam="2">  1       -2 0.26077882E+00 0.33207152E+04</pdfrwt>
<totfact> 0.49600204E-01</totfact>
</mgrwt>
</event>
<event>
 4    1  0.1343107E-008  0.2980000E+04  0.7816531E-02  0.8249465E-01
          1   -1    0    0  501    0  0.00000000000E+00  0.00000000000E+00  0.21230660541E+04  0.21230660541E+04  0.00000000000E+00 0. -1.
         -1   -1    0    0    0  501 -0.00000000000E+00 -0.00000000000E+00 -0.10457048107E+04  0.10457048107E+04  0.00000000000E+00 0.  1.
    2000013    1    1    2    0    0  0.81776958748E+03 -0.59893410682E+03 -0.34078176647E+02  0.13896512097E+04  0.95000000000E+03 0.  0.
   -2000013    1    1    2    0    0 -0.81776958748E+03  0.59893410682E+03  0.11114394201E+04  0.17791196551E+04  0.95000000000E+03 0.  0.
<mgrwt>
<rscale>  0 0.29800003E+04</rscale>
<asrwt>0</asrwt>
<pdfrwt beam="1">  1        1 0.32662555E+00 0.29800003E+04</pdfrwt>
<pdfrwt beam="2">  1       -1 0.16087766E+00 0.29800003E+04</pdfrwt>
<totfact> 0.60302311E-01</totfact>
</mgrwt>
</event>
<event>
 4    1  0.1343107E-008  0.5135141E+04  0.7816531E-02  0.7807992E-01
         -2   -1    0    0    0  501 -0.00000000000E+00  0.00000000000E+00  0.22605759950E+04  0.22605759950E+04  0.00000000000E+00 0. -1.
          2   -1    0    0  501    0  0.00000000000E+00 -0.00000000000E+00 -0.29162556880E+04  0.29162556880E+04  0.00000000000E+00 0.  1.
    2000013    1    1    2    0    0  0.23516942417E+02 -0.78941680073E+03 -0.25969325801E+04  0.28758113216E+04  0.95000000000E+03 0.  0.
   -2000013    1    1    2    0    0 -0.23516942417E+02  0.78941680073E+03  0.19412528871E+04  0.23010203614E+04  0.95000000000E+03 0.  0.
<mgrwt>
<rscale>  0 0.51351407E+04</rscale>
<asrwt>0</asrwt>
<pdfrwt beam="2">  1        2 0.44865472E+00 0.51351407E+04</pdfrwt>
<pdfrwt beam="1">  1       -2 0.34778092E+00 0.51351407E+04</pdfrwt>
<totfact> 0.22714397E-02</totfact>
</mgrwt>
</event>
<event>
 4    1  0.1343107E-008  0.2258489E+04  0.7816531E-02  0.8494471E-01
          2   -1    0    0  501    0  0.00000000000E+00  0.00000000000E+00  0.60998090023E+03  0.60998090023E+03  0.00000000000E+00 0.  1.
         -2   -1    0    0    0  501 -0.00000000000E+00 -0.00000000000E+00 -0.20905451496E+04  0.20905451496E+04  0.00000000000E+00 0. -1.
    2000013    1    1    2    0    0 -0.27691074579E+03 -0.51627662223E+03 -0.94555501876E+03  0.14628039531E+04  0.95000000000E+03 0.  0.
   -2000013    1    1    2    0    0  0.27691074579E+03  0.51627662223E+03 -0.53500923058E+03  0.12377220967E+04  0.95000000000E+03 0.  0.
<mgrwt>
<rscale>  0 0.22584885E+04</rscale>
<asrwt>0</asrwt>
<pdfrwt beam="1">  1        2 0.93843217E-01 0.22584885E+04</pdfrwt>
<pdfrwt beam="2">  1       -2 0.32162233E+00 0.22584885E+04</pdfrwt>
<totfact> 0.10355057E+00</totfact>
</mgrwt>
</event>
<event>
 4    1  0.1343107E-008  0.2302842E+04  0.7816531E-02  0.8476802E-01
         -2   -1    0    0    0  501 -0.00000000000E+00  0.00000000000E+00  0.53624724995E+03  0.53624724995E+03  0.00000000000E+00 0. -1.
          2   -1    0    0  501    0  0.00000000000E+00 -0.00000000000E+00 -0.24723110417E+04  0.24723110417E+04  0.00000000000E+00 0.  1.
    2000013    1    1    2    0    0  0.25742615447E+03 -0.40156230483E+03 -0.39000950982E+03  0.11323108793E+04  0.95000000000E+03 0.  0.
   -2000013    1    1    2    0    0 -0.25742615447E+03  0.40156230483E+03 -0.15460542820E+04  0.18762474124E+04  0.95000000000E+03 0.  0.
<mgrwt>
<rscale>  0 0.23028417E+04</rscale>
<asrwt>0</asrwt>
<pdfrwt beam="2">  1        2 0.38035554E+00 0.23028417E+04</pdfrwt>
<pdfrwt beam="1">  1       -2 0.82499578E-01 0.23028417E+04</pdfrwt>
<totfact> 0.42215852E+00</totfact>
</mgrwt>
</event>
<event>
 4    1  0.1343107E-008  0.2513804E+04  0.7816531E-02  0.8398084E-01
         -2   -1    0    0    0  501 -0.00000000000E+00  0.00000000000E+00  0.14247670664E+04  0.14247670664E+04  0.00000000000E+00 0. -1.
          2   -1    0    0  501    0  0.00000000000E+00 -0.00000000000E+00 -0.11088142449E+04  0.11088142449E+04  0.00000000000E+00 0.  1.
    2000013    1    1    2    0    0 -0.62592211855E+03 -0.52691467239E+03  0.68483388000E+02  0.12556303377E+04  0.95000000000E+03 0.  0.
   -2000013    1    1    2    0    0  0.62592211855E+03  0.52691467239E+03  0.24746943356E+03  0.12779509736E+04  0.95000000000E+03 0.  0.
<mgrwt>
<rscale>  0 0.25138035E+04</rscale>
<asrwt>0</asrwt>
<pdfrwt beam="2">  1        2 0.17058681E+00 0.25138035E+04</pdfrwt>
<pdfrwt beam="1">  1       -2 0.21919493E+00 0.25138035E+04</pdfrwt>
<totfact> 0.19165913E+00</totfact>
</mgrwt>
</event>
<event>
 4    1  0.1343107E-008  0.2921295E+04  0.7816531E-02  0.8266570E-01
          2   -1    0    0  501    0  0.00000000000E+00  0.00000000000E+00  0.33125474041E+04  0.33125474041E+04  0.00000000000E+00 0.  1.
         -2   -1    0    0    0  501 -0.00000000000E+00 -0.00000000000E+00 -0.64406376212E+03  0.64406376212E+03  0.00000000000E+00 0. -1.
    2000013    1    1    2    0    0  0.19285868766E+03  0.53923907644E+03  0.47189463368E+02  0.11102702826E+04  0.95000000000E+03 0.  0.
   -2000013    1    1    2    0    0 -0.19285868766E+03 -0.53923907644E+03  0.26212941786E+04  0.28463408837E+04  0.95000000000E+03 0.  0.
<mgrwt>
<rscale>  0 0.29212954E+04</rscale>
<asrwt>0</asrwt>
<pdfrwt beam="1">  1        2 0.50962267E+00 0.29212954E+04</pdfrwt>
<pdfrwt beam="2">  1       -2 0.99086735E-01 0.29212954E+04</pdfrwt>
<totfact> 0.79410360E-01</totfact>
</mgrwt>
</event>
<event>
 4    1  0.1343107E-008  0.2778021E+04  0.7816531E-02  0.8310125E-01
         -1   -1    0    0    0  501 -0.00000000000E+00  0.00000000000E+00  0.96088605732E+03  0.96088605732E+03  0.00000000000E+00 0. -1.
          1   -1    0    0  501    0  0.00000000000E+00 -0.00000000000E+00 -0.20078858945E+04  0.20078858945E+04  0.00000000000E+00 0.  1.
    2000013    1    1    2    0    0 -0.56417205807E+03 -0.79274084281E+03 -0.82599315090E+03  0.15910665732E+04  0.95000000000E+03 0.  0.
   -2000013    1    1    2    0    0  0.56417205807E+03  0.79274084281E+03 -0.22100668629E+03  0.13777053786E+04  0.95000000000E+03 0.  0.
<mgrwt>
<rscale>  0 0.27780206E+04</rscale>
<asrwt>0</asrwt>
<pdfrwt beam="2">  1        1 0.30890552E+00 0.27780206E+04</pdfrwt>
<pdfrwt beam="1">  1       -1 0.14782863E+00 0.27780206E+04</pdfrwt>
<totfact> 0.92630625E-01</totfact>
</mgrwt>
</event>
<event>
 4    1  0.1343107E-008  0.2494643E+04  0.7816531E-02  0.8404896E-01
          2   -1    0    0  501    0  0.00000000000E+00  0.00000000000E+00  0.17901920099E+04  0.17901920099E+04  0.00000000000E+00 0.  1.
         -2   -1    0    0    0  501 -0.00000000000E+00 -0.00000000000E+00 -0.86907510847E+03  0.86907510847E+03  0.00000000000E+00 0. -1.
    2000013    1    1    2    0    0 -0.48338545617E+03 -0.29168792375E+03  0.10771473284E+04  0.15432076047E+04  0.95000000000E+03 0.  0.
   -2000013    1    1    2    0    0  0.48338545617E+03  0.29168792375E+03 -0.15603042688E+03  0.11160595137E+04  0.95000000000E+03 0.  0.
<mgrwt>
<rscale>  0 0.24946433E+04</rscale>
<asrwt>0</asrwt>
<pdfrwt beam="1">  1        2 0.27541415E+00 0.24946433E+04</pdfrwt>
<pdfrwt beam="2">  1       -2 0.13370386E+00 0.24946433E+04</pdfrwt>
<totfact> 0.31529019E+00</totfact>
</mgrwt>
</event>
<event>
 4    1  0.1343107E-008  0.2558951E+04  0.7816531E-02  0.8382280E-01
          2   -1    0    0  501    0  0.00000000000E+00  0.00000000000E+00  0.35515216248E+04  0.35515216248E+04  0.00000000000E+00 0.  1.
         -2   -1    0    0    0  501 -0.00000000000E+00 -0.00000000000E+00 -0.46094542909E+03  0.46094542909E+03  0.00000000000E+00 0. -1.
    2000013    1    1    2    0    0 -0.46755949251E+03 -0.71208983361E+03  0.16929966072E+04  0.21200050288E+04  0.95000000000E+03 0.  0.
   -2000013    1    1    2    0    0  0.46755949251E+03  0.71208983361E+03  0.13975795885E+04  0.18924620251E+04  0.95000000000E+03 0.  0.
<mgrwt>
<rscale>  0 0.25589511E+04</rscale>
<asrwt>0</asrwt>
<pdfrwt beam="1">  1        2 0.54638793E+00 0.25589511E+04</pdfrwt>
<pdfrwt beam="2">  1       -2 0.70914684E-01 0.25589511E+04</pdfrwt>
<totfact> 0.12004104E+00</totfact>
</mgrwt>
</event>
<event>
 4    1  0.1343107E-008  0.3533366E+04  0.7816531E-02  0.8105928E-01
         -2   -1    0    0    0  501 -0.00000000000E+00  0.00000000000E+00  0.10496403592E+04  0.10496403592E+04  0.00000000000E+00 0. -1.
          2   -1    0    0  501    0  0.00000000000E+00 -0.00000000000E+00 -0.29735608700E+04  0.29735608700E+04  0.00000000000E+00 0.  1.
    2000013    1    1    2    0    0  0.82148881450E+03  0.11687006277E+04 -0.48161916959E+03  0.17818984410E+04  0.95000000000E+03 0.  0.
   -2000013    1    1    2    0    0 -0.82148881450E+03 -0.11687006277E+04 -0.14423013412E+04  0.22413027882E+04  0.95000000000E+03 0.  0.
<mgrwt>
<rscale>  0 0.35333664E+04</rscale>
<asrwt>0</asrwt>
<pdfrwt beam="2">  1        2 0.45747090E+00 0.35333664E+04</pdfrwt>
<pdfrwt beam="1">  1       -2 0.16148313E+00 0.35333664E+04</pdfrwt>
<totfact> 0.36383419E-01</totfact>
</mgrwt>
</event>
<event>
 4    1  0.1343107E-008  0.2889317E+04  0.7816531E-02  0.8276063E-01
         -2   -1    0    0    0  501 -0.00000000000E+00  0.00000000000E+00  0.10355063675E+04  0.10355063675E+04  0.00000000000E+00 0. -1.
          2   -1    0    0  501    0  0.00000000000E+00 -0.00000000000E+00 -0.20154755902E+04  0.20154755902E+04  0.00000000000E+00 0.  1.
    2000013    1    1    2    0    0 -0.61757339630E+03 -0.88352147474E+03 -0.33148363764E+03  0.14745807873E+04  0.95000000000E+03 0.  0.
   -2000013    1    1    2    0    0  0.61757339630E+03  0.88352147474E+03 -0.64848558510E+03  0.15764011705E+04  0.95000000000E+03 0.  0.
<mgrwt>
<rscale>  0 0.28893167E+04</rscale>
<asrwt>0</asrwt>
<pdfrwt beam="2">  1        2 0.31007316E+00 0.28893167E+04</pdfrwt>
<pdfrwt beam="1">  1       -2 0.15930867E+00 0.28893167E+04</pdfrwt>
<totfact> 0.14422130E+00</totfact>
</mgrwt>
</event>
<event>
 4    1  0.1343107E-008  0.2165461E+04  0.7816531E-02  0.8532943E-01
          1   -1    0    0  501    0  0.00000000000E+00  0.00000000000E+00  0.50455655930E+03  0.50455655930E+03  0.00000000000E+00 0.  1.
         -1   -1    0    0    0  501 -0.00000000000E+00 -0.00000000000E+00 -0.23234373114E+04  0.23234373114E+04  0.00000000000E+00 0. -1.
    2000013    1    1    2    0    0 -0.37891834589E+03  0.16864196086E+03 -0.50105790434E+03  0.11513375905E+04  0.95000000000E+03 0.  0.
   -2000013    1    1    2    0    0  0.37891834589E+03 -0.16864196086E+03 -0.13178228478E+04  0.16766562802E+04  0.95000000000E+03 0.  0.
<mgrwt>
<rscale>  0 0.21654612E+04</rscale>
<asrwt>0</asrwt>
<pdfrwt beam="1">  1        1 0.77624084E-01 0.21654612E+04</pdfrwt>
<pdfrwt beam="2">  1       -1 0.35745190E+00 0.21654612E+04</pdfrwt>
<totfact> 0.55546343E-01</totfact>
</mgrwt>
</event>
<event>
 4    1  0.1343107E-008  0.2791508E+04  0.7816531E-02  0.8305910E-01
          2   -1    0    0  501    0  0.00000000000E+00  0.00000000000E+00  0.11063930247E+04  0.11063930247E+04  0.00000000000E+00 0.  1.
         -2   -1    0    0    0  501 -0.00000000000E+00 -0.00000000000E+00 -0.17607931250E+04  0.17607931250E+04  0.00000000000E+00 0. -1.
    2000013    1    1    2    0    0  0.93031392316E+03  0.18037258500E+03  0.67417435069E+02  0.13435264700E+04  0.95000000000E+03 0.  0.
   -2000013    1    1    2    0    0 -0.93031392316E+03 -0.18037258500E+03 -0.72181753537E+03  0.15236596797E+04  0.95000000000E+03 0.  0.
<mgrwt>
<rscale>  0 0.27915080E+04</rscale>
<asrwt>0</asrwt>
<pdfrwt beam="1">  1        2 0.17021431E+00 0.27915080E+04</pdfrwt>
<pdfrwt beam="2">  1       -2 0.27089125E+00 0.27915080E+04</pdfrwt>
<totfact> 0.89974924E-01</totfact>
</mgrwt>
</event>
<event>
 4    1  0.1343107E-008  0.1980073E+04  0.7816531E-02  0.8615994E-01
          2   -1    0    0  501    0  0.00000000000E+00  0.00000000000E+00  0.12999311113E+04  0.12999311113E+04  0.00000000000E+00 0.  1.
         -2   -1    0    0    0  501 -0.00000000000E+00 -0.00000000000E+00 -0.75401858908E+03  0.75401858908E+03  0.00000000000E+00 0. -1.
    2000013    1    1    2    0    0 -0.17110341248E+03 -0.15493066556E+03  0.43496382354E+03  0.10700343063E+04  0.95000000000E+03 0.  0.
   -2000013    1    1    2    0    0  0.17110341248E+03  0.15493066556E+03  0.11094869866E+03  0.98391539404E+03  0.95000000000E+03 0.  0.
<mgrwt>
<rscale>  0 0.19800730E+04</rscale>
<asrwt>0</asrwt>
<pdfrwt beam="1">  1        2 0.19998940E+00 0.19800730E+04</pdfrwt>
<pdfrwt beam="2">  1       -2 0.11600286E+00 0.19800730E+04</pdfrwt>
<totfact> 0.88826200E+00</totfact>
</mgrwt>
</event>
<event>
 4    1  0.1343107E-008  0.2467790E+04  0.7816531E-02  0.8414551E-01
          2   -1    0    0  501    0  0.00000000000E+00  0.00000000000E+00  0.35522144964E+04  0.35522144964E+04  0.00000000000E+00 0.  1.
         -2   -1    0    0    0  501 -0.00000000000E+00 -0.00000000000E+00 -0.42860491278E+03  0.42860491278E+03  0.00000000000E+00 0. -1.
    2000013    1    1    2    0    0  0.73291392733E+03  0.24486412335E+03  0.13178283395E+04  0.17989699265E+04  0.95000000000E+03 0.  0.
   -2000013    1    1    2    0    0 -0.73291392733E+03 -0.24486412335E+03  0.18057812441E+04  0.21818494827E+04  0.95000000000E+03 0.  0.
<mgrwt>
<rscale>  0 0.24677898E+04</rscale>
<asrwt>0</asrwt>
<pdfrwt beam="1">  1        2 0.54649452E+00 0.24677898E+04</pdfrwt>
<pdfrwt beam="2">  1       -2 0.65939220E-01 0.24677898E+04</pdfrwt>
<totfact> 0.14160990E+00</totfact>
</mgrwt>
</event>
<event>
 4    1  0.1343107E-008  0.2802922E+04  0.7816531E-02  0.8302362E-01
         -2   -1    0    0    0  501 -0.00000000000E+00  0.00000000000E+00  0.10581078098E+04  0.10581078098E+04  0.00000000000E+00 0. -1.
          2   -1    0    0  501    0  0.00000000000E+00 -0.00000000000E+00 -0.18562310618E+04  0.18562310618E+04  0.00000000000E+00 0.  1.
    2000013    1    1    2    0    0 -0.54858817045E+03 -0.76555866727E+03 -0.83347764625E+03  0.15761389661E+04  0.95000000000E+03 0.  0.
   -2000013    1    1    2    0    0  0.54858817045E+03  0.76555866727E+03  0.35354394182E+02  0.13381999055E+04  0.95000000000E+03 0.  0.
<mgrwt>
<rscale>  0 0.28029217E+04</rscale>
<asrwt>0</asrwt>
<pdfrwt beam="2">  1        2 0.28557401E+00 0.28029217E+04</pdfrwt>
<pdfrwt beam="1">  1       -2 0.16278582E+00 0.28029217E+04</pdfrwt>
<totfact> 0.16788141E+00</totfact>
</mgrwt>
</event>
<event>
 4    1  0.1343107E-008  0.2440876E+04  0.7816531E-02  0.8424357E-01
         -2   -1    0    0    0  501 -0.00000000000E+00  0.00000000000E+00  0.24695004104E+04  0.24695004104E+04  0.00000000000E+00 0. -1.
          2   -1    0    0  501    0  0.00000000000E+00 -0.00000000000E+00 -0.60314593908E+03  0.60314593908E+03  0.00000000000E+00 0.  1.
    2000013    1    1    2    0    0 -0.67019474317E+02  0.31541371648E+03  0.58321043857E+02  0.10049272445E+04  0.95000000000E+03 0.  0.
   -2000013    1    1    2    0    0  0.67019474317E+02 -0.31541371648E+03  0.18080334274E+04  0.20677191050E+04  0.95000000000E+03 0.  0.
<mgrwt>
<rscale>  0 0.24408762E+04</rscale>
<asrwt>0</asrwt>
<pdfrwt beam="2">  1        2 0.92791684E-01 0.24408762E+04</pdfrwt>
<pdfrwt beam="1">  1       -2 0.37992314E+00 0.24408762E+04</pdfrwt>
<totfact> 0.44302887E-01</totfact>
</mgrwt>
</event>
<event>
 4    1  0.1343107E-008  0.3868000E+04  0.7816531E-02  0.8031718E-01
         -2   -1    0    0    0  501 -0.00000000000E+00  0.00000000000E+00  0.26790039249E+04  0.26790039249E+04  0.00000000000E+00 0. -1.
          2   -1    0    0  501    0  0.00000000000E+00 -0.00000000000E+00 -0.13961740370E+04  0.13961740370E+04  0.00000000000E+00 0.  1.
    2000013    1    1    2    0    0 -0.10917072797E+04 -0.10117408743E+04  0.14726022064E+04  0.22992393611E+04  0.95000000000E+03 0.  0.
   -2000013    1    1    2    0    0  0.10917072797E+04  0.10117408743E+04 -0.18977231844E+03  0.17759386009E+04  0.95000000000E+03 0.  0.
<mgrwt>
<rscale>  0 0.38679999E+04</rscale>
<asrwt>0</asrwt>
<pdfrwt beam="2">  1        2 0.21479601E+00 0.38679999E+04</pdfrwt>
<pdfrwt beam="1">  1       -2 0.41215445E+00 0.38679999E+04</pdfrwt>
<totfact> 0.71587457E-02</totfact>
</mgrwt>
</event>
<event>
 4    1  0.1343107E-008  0.2314576E+04  0.7816531E-02  0.8472196E-01
         -2   -1    0    0    0  501 -0.00000000000E+00  0.00000000000E+00  0.40628637935E+03  0.40628637935E+03  0.00000000000E+00 0. -1.
          2   -1    0    0  501    0  0.00000000000E+00 -0.00000000000E+00 -0.32964802698E+04  0.32964802698E+04  0.00000000000E+00 0.  1.
    2000013    1    1    2    0    0 -0.48678554225E+03  0.34167591281E+03 -0.98389833304E+03  0.14913948248E+04  0.95000000000E+03 0.  0.
   -2000013    1    1    2    0    0  0.48678554225E+03 -0.34167591281E+03 -0.19062955574E+04  0.22113718244E+04  0.95000000000E+03 0.  0.
<mgrwt>
<rscale>  0 0.23145756E+04</rscale>
<asrwt>0</asrwt>
<pdfrwt beam="2">  1        2 0.50715080E+00 0.23145756E+04</pdfrwt>
<pdfrwt beam="1">  1       -2 0.62505599E-01 0.23145756E+04</pdfrwt>
<totfact> 0.24117755E+00</totfact>
</mgrwt>
</event>
<event>
 4    1  0.1343107E-008  0.3602058E+04  0.7816531E-02  0.8090020E-01
          2   -1    0    0  501    0  0.00000000000E+00  0.00000000000E+00  0.24069391769E+04  0.24069391769E+04  0.00000000000E+00 0.  1.
         -2   -1    0    0    0  501 -0.00000000000E+00 -0.00000000000E+00 -0.13476474249E+04  0.13476474249E+04  0.00000000000E+00 0. -1.
    2000013    1    1    2    0    0  0.15154114147E+04  0.20694357110E+03  0.48411572807E+03  0.18644477562E+04  0.95000000000E+03 0.  0.
   -2000013    1    1    2    0    0 -0.15154114147E+04 -0.20694357110E+03  0.57517602390E+03  0.18901388457E+04  0.95000000000E+03 0.  0.
<mgrwt>
<rscale>  0 0.36020580E+04</rscale>
<asrwt>0</asrwt>
<pdfrwt beam="1">  1        2 0.37029833E+00 0.36020580E+04</pdfrwt>
<pdfrwt beam="2">  1       -2 0.20733037E+00 0.36020580E+04</pdfrwt>
<totfact> 0.38243972E-01</totfact>
</mgrwt>
</event>
<event>
 4    1  0.1343107E-008  0.2036445E+04  0.7816531E-02  0.8589768E-01
         -2   -1    0    0    0  501 -0.00000000000E+00  0.00000000000E+00  0.39235958280E+03  0.39235958280E+03  0.00000000000E+00 0.  1.
          2   -1    0    0  501    0  0.00000000000E+00 -0.00000000000E+00 -0.26424157127E+04  0.26424157127E+04  0.00000000000E+00 0. -1.
    2000013    1    1    2    0    0 -0.34458475023E+03  0.10235907777E+03 -0.10190109172E+04  0.14387839589E+04  0.95000000000E+03 0.  0.
   -2000013    1    1    2    0    0  0.34458475023E+03 -0.10235907777E+03 -0.12310452126E+04  0.15959913366E+04  0.95000000000E+03 0.  0.
<mgrwt>
<rscale>  0 0.20364451E+04</rscale>
<asrwt>0</asrwt>
<pdfrwt beam="2">  1        2 0.40652550E+00 0.20364451E+04</pdfrwt>
<pdfrwt beam="1">  1       -2 0.60363012E-01 0.20364451E+04</pdfrwt>
<totfact> 0.68107343E+00</totfact>
</mgrwt>
</event>
<event>
 4    1  0.1343107E-008  0.4588363E+04  0.7816531E-02  0.7895347E-01
         -2   -1    0    0    0  501 -0.00000000000E+00  0.00000000000E+00  0.32490107101E+04  0.32490107101E+04  0.00000000000E+00 0. -1.
          2   -1    0    0  501    0  0.00000000000E+00 -0.00000000000E+00 -0.16199601662E+04  0.16199601662E+04  0.00000000000E+00 0.  1.
    2000013    1    1    2    0    0  0.15225355760E+04  0.10384170938E+04  0.18565913846E+04  0.27831378353E+04  0.95000000000E+03 0.  0.
   -2000013    1    1    2    0    0 -0.15225355760E+04 -0.10384170938E+04 -0.22754084064E+03  0.20858330410E+04  0.95000000000E+03 0.  0.
<mgrwt>
<rscale>  0 0.45883626E+04</rscale>
<asrwt>0</asrwt>
<pdfrwt beam="2">  1        2 0.24922464E+00 0.45883626E+04</pdfrwt>
<pdfrwt beam="1">  1       -2 0.49984780E+00 0.45883626E+04</pdfrwt>
<totfact> 0.13577612E-02</totfact>
</mgrwt>
</event>
<event>
 4    1  0.1343107E-008  0.2378942E+04  0.7816531E-02  0.8447430E-01
         -2   -1    0    0    0  501 -0.00000000000E+00  0.00000000000E+00  0.85210551350E+03  0.85210551350E+03  0.00000000000E+00 0. -1.
          2   -1    0    0  501    0  0.00000000000E+00 -0.00000000000E+00 -0.16604059965E+04  0.16604059965E+04  0.00000000000E+00 0.  1.
    2000013    1    1    2    0    0 -0.96995744668E+02 -0.70214916289E+03 -0.29896162459E+03  0.12224155081E+04  0.95000000000E+03 0.  0.
   -2000013    1    1    2    0    0  0.96995744668E+02  0.70214916289E+03 -0.50933885838E+03  0.12900960019E+04  0.95000000000E+03 0.  0.
<mgrwt>
<rscale>  0 0.23789419E+04</rscale>
<asrwt>0</asrwt>
<pdfrwt beam="2">  1        2 0.25544707E+00 0.23789419E+04</pdfrwt>
<pdfrwt beam="1">  1       -2 0.13109316E+00 0.23789419E+04</pdfrwt>
<totfact> 0.39522465E+00</totfact>
</mgrwt>
</event>
<event>
 4    1  0.1343107E-008  0.2410074E+04  0.7816531E-02  0.8435742E-01
          2   -1    0    0  501    0  0.00000000000E+00  0.00000000000E+00  0.61710025646E+03  0.61710025646E+03  0.00000000000E+00 0.  1.
         -2   -1    0    0    0  501 -0.00000000000E+00 -0.00000000000E+00 -0.23531256940E+04  0.23531256940E+04  0.00000000000E+00 0. -1.
    2000013    1    1    2    0    0  0.87943224542E+02 -0.65258019064E+03 -0.12877955386E+04  0.17304659098E+04  0.95000000000E+03 0.  0.
   -2000013    1    1    2    0    0 -0.87943224542E+02  0.65258019064E+03 -0.44822989894E+03  0.12397600406E+04  0.95000000000E+03 0.  0.
<mgrwt>
<rscale>  0 0.24100742E+04</rscale>
<asrwt>0</asrwt>
<pdfrwt beam="1">  1        2 0.94938501E-01 0.24100742E+04</pdfrwt>
<pdfrwt beam="2">  1       -2 0.36201934E+00 0.24100742E+04</pdfrwt>
<totfact> 0.56266255E-01</totfact>
</mgrwt>
</event>
<event>
 4    1  0.1343107E-008  0.3095363E+04  0.7816531E-02  0.8217012E-01
          2   -1    0    0  501    0  0.00000000000E+00  0.00000000000E+00  0.21060824553E+04  0.21060824553E+04  0.00000000000E+00 0.  1.
         -2   -1    0    0    0  501 -0.00000000000E+00 -0.00000000000E+00 -0.11373338038E+04  0.11373338038E+04  0.00000000000E+00 0. -1.
    2000013    1    1    2    0    0  0.71530669535E+03  0.81850742779E+03 -0.10016174007E+03  0.14471179813E+04  0.95000000000E+03 0.  0.
   -2000013    1    1    2    0    0 -0.71530669535E+03 -0.81850742779E+03  0.10689103915E+04  0.17962982778E+04  0.95000000000E+03 0.  0.
<mgrwt>
<rscale>  0 0.30953635E+04</rscale>
<asrwt>0</asrwt>
<pdfrwt beam="1">  1        2 0.32401268E+00 0.30953635E+04</pdfrwt>
<pdfrwt beam="2">  1       -2 0.17497443E+00 0.30953635E+04</pdfrwt>
<totfact> 0.97334140E-01</totfact>
</mgrwt>
</event>
<event>
 4    1  0.1343107E-008  0.2592587E+04  0.7816531E-02  0.8370724E-01
         -2   -1    0    0    0  501 -0.00000000000E+00  0.00000000000E+00  0.51323072074E+03  0.51323072074E+03  0.00000000000E+00 0. -1.
          2   -1    0    0  501    0  0.00000000000E+00 -0.00000000000E+00 -0.32741155722E+04  0.32741155722E+04  0.00000000000E+00 0.  1.
    2000013    1    1    2    0    0  0.21220981259E+03 -0.83190655257E+03 -0.16754272196E+04  0.21087100049E+04  0.95000000000E+03 0.  0.
   -2000013    1    1    2    0    0 -0.21220981259E+03  0.83190655257E+03 -0.10854576318E+04  0.16786362880E+04  0.95000000000E+03 0.  0.
<mgrwt>
<rscale>  0 0.25925869E+04</rscale>
<asrwt>0</asrwt>
<pdfrwt beam="2">  1        2 0.50371009E+00 0.25925869E+04</pdfrwt>
<pdfrwt beam="1">  1       -2 0.78958572E-01 0.25925869E+04</pdfrwt>
<totfact> 0.14607394E+00</totfact>
</mgrwt>
</event>
<event>
 4    1  0.1343107E-008  0.4048385E+04  0.7816531E-02  0.7994856E-01
         -2   -1    0    0    0  501 -0.00000000000E+00  0.00000000000E+00  0.26660141513E+04  0.26660141513E+04  0.00000000000E+00 0. -1.
          2   -1    0    0  501    0  0.00000000000E+00 -0.00000000000E+00 -0.15368843425E+04  0.15368843425E+04  0.00000000000E+00 0.  1.
    2000013    1    1    2    0    0 -0.51020653941E+03 -0.16819569253E+04  0.90187418154E+03  0.21920690799E+04  0.95000000000E+03 0.  0.
   -2000013    1    1    2    0    0  0.51020653941E+03  0.16819569253E+04  0.22725562727E+03  0.20108294139E+04  0.95000000000E+03 0.  0.
<mgrwt>
<rscale>  0 0.40483851E+04</rscale>
<asrwt>0</asrwt>
<pdfrwt beam="2">  1        2 0.23644374E+00 0.40483851E+04</pdfrwt>
<pdfrwt beam="1">  1       -2 0.41015602E+00 0.40483851E+04</pdfrwt>
<totfact> 0.60512966E-02</totfact>
</mgrwt>
</event>
<event>
 4    1  0.1343107E-008  0.2362923E+04  0.7816531E-02  0.8453517E-01
         -2   -1    0    0    0  501 -0.00000000000E+00  0.00000000000E+00  0.60806378241E+03  0.60806378241E+03  0.00000000000E+00 0. -1.
          2   -1    0    0  501    0  0.00000000000E+00 -0.00000000000E+00 -0.22955663996E+04  0.22955663996E+04  0.00000000000E+00 0.  1.
    2000013    1    1    2    0    0 -0.33307976683E+03  0.61368132081E+03 -0.75013500012E+03  0.13974081054E+04  0.95000000000E+03 0.  0.
   -2000013    1    1    2    0    0  0.33307976683E+03 -0.61368132081E+03 -0.93736761705E+03  0.15062220766E+04  0.95000000000E+03 0.  0.
<mgrwt>
<rscale>  0 0.23629226E+04</rscale>
<asrwt>0</asrwt>
<pdfrwt beam="2">  1        2 0.35316406E+00 0.23629226E+04</pdfrwt>
<pdfrwt beam="1">  1       -2 0.93548275E-01 0.23629226E+04</pdfrwt>
<totfact> 0.39730502E+00</totfact>
</mgrwt>
</event>
<event>
 4    1  0.1343107E-008  0.2897255E+04  0.7816531E-02  0.8273695E-01
         -2   -1    0    0    0  501 -0.00000000000E+00  0.00000000000E+00  0.97786844729E+03  0.97786844729E+03  0.00000000000E+00 0.  1.
          2   -1    0    0  501    0  0.00000000000E+00 -0.00000000000E+00 -0.21460169853E+04  0.21460169853E+04  0.00000000000E+00 0. -1.
    2000013    1    1    2    0    0  0.54440087323E+03 -0.23793372655E+03  0.40591790658E+03  0.11917441487E+04  0.95000000000E+03 0.  0.
   -2000013    1    1    2    0    0 -0.54440087323E+03  0.23793372655E+03 -0.15740664446E+04  0.19321412839E+04  0.95000000000E+03 0.  0.
<mgrwt>
<rscale>  0 0.28972555E+04</rscale>
<asrwt>0</asrwt>
<pdfrwt beam="2">  1        2 0.33015646E+00 0.28972555E+04</pdfrwt>
<pdfrwt beam="1">  1       -2 0.15044130E+00 0.28972555E+04</pdfrwt>
<totfact> 0.14210974E+00</totfact>
</mgrwt>
</event>
<event>
 4    1  0.1343107E-008  0.2523582E+04  0.7816531E-02  0.8394632E-01
          2   -1    0    0  501    0  0.00000000000E+00  0.00000000000E+00  0.21411958327E+04  0.21411958327E+04  0.00000000000E+00 0.  1.
         -2   -1    0    0    0  501 -0.00000000000E+00 -0.00000000000E+00 -0.74356405796E+03  0.74356405796E+03  0.00000000000E+00 0. -1.
    2000013    1    1    2    0    0 -0.72198919853E+02  0.80636306749E+03  0.91016098316E+03  0.15447741246E+04  0.95000000000E+03 0.  0.
   -2000013    1    1    2    0    0  0.72198919853E+02 -0.80636306749E+03  0.48747079154E+03  0.13399857661E+04  0.95000000000E+03 0.  0.
<mgrwt>
<rscale>  0 0.25235818E+04</rscale>
<asrwt>0</asrwt>
<pdfrwt beam="1">  1        2 0.32941474E+00 0.25235818E+04</pdfrwt>
<pdfrwt beam="2">  1       -2 0.11439447E+00 0.25235818E+04</pdfrwt>
<totfact> 0.29622939E+00</totfact>
</mgrwt>
</event>
<event>
 4    1  0.1343107E-008  0.2919066E+04  0.7816531E-02  0.8267227E-01
          2   -1    0    0  501    0  0.00000000000E+00  0.00000000000E+00  0.19724230392E+04  0.19724230392E+04  0.00000000000E+00 0. -1.
         -2   -1    0    0    0  501 -0.00000000000E+00 -0.00000000000E+00 -0.10800103364E+04  0.10800103364E+04  0.00000000000E+00 0.  1.
    2000013    1    1    2    0    0  0.99072298448E+03  0.56700668030E+02 -0.69255646100E+02  0.13755156641E+04  0.95000000000E+03 0.  0.
   -2000013    1    1    2    0    0 -0.99072298448E+03 -0.56700668030E+02  0.96166834896E+03  0.16769177115E+04  0.95000000000E+03 0.  0.
<mgrwt>
<rscale>  0 0.29190665E+04</rscale>
<asrwt>0</asrwt>
<pdfrwt beam="1">  1        2 0.30344970E+00 0.29190665E+04</pdfrwt>
<pdfrwt beam="2">  1       -2 0.16615544E+00 0.29190665E+04</pdfrwt>
<totfact> 0.13546382E+00</totfact>
</mgrwt>
</event>
<event>
 4    1  0.1343107E-008  0.2767712E+04  0.7816531E-02  0.8313363E-01
         -2   -1    0    0    0  501 -0.00000000000E+00  0.00000000000E+00  0.14940182825E+04  0.14940182825E+04  0.00000000000E+00 0. -1.
          2   -1    0    0  501    0  0.00000000000E+00 -0.00000000000E+00 -0.12818169353E+04  0.12818169353E+04  0.00000000000E+00 0.  1.
    2000013    1    1    2    0    0  0.72040869439E+03 -0.69493608427E+03  0.20952017288E+03  0.13958236103E+04  0.95000000000E+03 0.  0.
   -2000013    1    1    2    0    0 -0.72040869439E+03  0.69493608427E+03  0.26811743414E+01  0.13800116075E+04  0.95000000000E+03 0.  0.
<mgrwt>
<rscale>  0 0.27677124E+04</rscale>
<asrwt>0</asrwt>
<pdfrwt beam="2">  1        2 0.19720260E+00 0.27677124E+04</pdfrwt>
<pdfrwt beam="1">  1       -2 0.22984897E+00 0.27677124E+04</pdfrwt>
<totfact> 0.12664940E+00</totfact>
</mgrwt>
</event>
<event>
 4    1  0.1343107E-008  0.2341615E+04  0.7816531E-02  0.8461691E-01
         -2   -1    0    0    0  501 -0.00000000000E+00  0.00000000000E+00  0.88270596598E+03  0.88270596598E+03  0.00000000000E+00 0. -1.
          2   -1    0    0  501    0  0.00000000000E+00 -0.00000000000E+00 -0.15529404820E+04  0.15529404820E+04  0.00000000000E+00 0.  1.
    2000013    1    1    2    0    0  0.59641813820E+03  0.25443714310E+03 -0.56261686997E+03  0.12804259439E+04  0.95000000000E+03 0.  0.
   -2000013    1    1    2    0    0 -0.59641813820E+03 -0.25443714310E+03 -0.10761764604E+03  0.11552205041E+04  0.95000000000E+03 0.  0.
<mgrwt>
<rscale>  0 0.23416147E+04</rscale>
<asrwt>0</asrwt>
<pdfrwt beam="2">  1        2 0.23891392E+00 0.23416147E+04</pdfrwt>
<pdfrwt beam="1">  1       -2 0.13580092E+00 0.23416147E+04</pdfrwt>
<totfact> 0.41615905E+00</totfact>
</mgrwt>
</event>
<event>
 4    1  0.1343107E-008  0.2197234E+04  0.7816531E-02  0.8519580E-01
          2   -1    0    0  501    0  0.00000000000E+00  0.00000000000E+00  0.58147733809E+03  0.58147733809E+03  0.00000000000E+00 0.  1.
         -2   -1    0    0    0  501 -0.00000000000E+00 -0.00000000000E+00 -0.20756774117E+04  0.20756774117E+04  0.00000000000E+00 0. -1.
    2000013    1    1    2    0    0  0.39493449750E+03 -0.19804913454E+03 -0.34736114085E+03  0.11037918641E+04  0.95000000000E+03 0.  0.
   -2000013    1    1    2    0    0 -0.39493449750E+03  0.19804913454E+03 -0.11468389327E+04  0.15533628857E+04  0.95000000000E+03 0.  0.
<mgrwt>
<rscale>  0 0.21972341E+04</rscale>
<asrwt>0</asrwt>
<pdfrwt beam="1">  1        2 0.89458051E-01 0.21972341E+04</pdfrwt>
<pdfrwt beam="2">  1       -2 0.31933499E+00 0.21972341E+04</pdfrwt>
<totfact> 0.11393714E+00</totfact>
</mgrwt>
</event>
<event>
 4    1  0.1343107E-008  0.3299758E+04  0.7816531E-02  0.8162957E-01
         -2   -1    0    0    0  501 -0.00000000000E+00  0.00000000000E+00  0.18588721768E+04  0.18588721768E+04  0.00000000000E+00 0. -1.
          2   -1    0    0  501    0  0.00000000000E+00 -0.00000000000E+00 -0.14643833866E+04  0.14643833866E+04  0.00000000000E+00 0.  1.
    2000013    1    1    2    0    0  0.13702451594E+03  0.12954613056E+04  0.54988890731E+03  0.17034886330E+04  0.95000000000E+03 0.  0.
   -2000013    1    1    2    0    0 -0.13702451594E+03 -0.12954613056E+04 -0.15540011706E+03  0.16197669304E+04  0.95000000000E+03 0.  0.
<mgrwt>
<rscale>  0 0.32997585E+04</rscale>
<asrwt>0</asrwt>
<pdfrwt beam="2">  1        2 0.22528975E+00 0.32997585E+04</pdfrwt>
<pdfrwt beam="1">  1       -2 0.28598034E+00 0.32997585E+04</pdfrwt>
<totfact> 0.42999245E-01</totfact>
</mgrwt>
</event>
<event>
 4    1  0.1343107E-008  0.2076794E+04  0.7816531E-02  0.8571535E-01
          2   -1    0    0  501    0  0.00000000000E+00  0.00000000000E+00  0.22748001174E+04  0.22748001174E+04  0.00000000000E+00 0.  1.
         -2   -1    0    0    0  501 -0.00000000000E+00 -0.00000000000E+00 -0.47400563288E+03  0.47400563288E+03  0.00000000000E+00 0. -1.
    2000013    1    1    2    0    0 -0.22267786028E+03  0.12649811977E+03  0.46105418019E+03  0.10865809500E+04  0.95000000000E+03 0.  0.
   -2000013    1    1    2    0    0  0.22267786028E+03 -0.12649811977E+03  0.13397403044E+04  0.16622248004E+04  0.95000000000E+03 0.  0.
<mgrwt>
<rscale>  0 0.20767937E+04</rscale>
<asrwt>0</asrwt>
<pdfrwt beam="1">  1        2 0.34996924E+00 0.20767937E+04</pdfrwt>
<pdfrwt beam="2">  1       -2 0.72923944E-01 0.20767937E+04</pdfrwt>
<totfact> 0.73504148E+00</totfact>
</mgrwt>
</event>
<event>
 4    1  0.1343107E-008  0.2704433E+04  0.7816531E-02  0.8333568E-01
         -2   -1    0    0    0  501 -0.00000000000E+00  0.00000000000E+00  0.43555372425E+03  0.43555372425E+03  0.00000000000E+00 0. -1.
          2   -1    0    0  501    0  0.00000000000E+00 -0.00000000000E+00 -0.41980802580E+04  0.41980802580E+04  0.00000000000E+00 0.  1.
    2000013    1    1    2    0    0 -0.39941165410E+03 -0.86797279916E+03 -0.16852886357E+04  0.21576849249E+04  0.95000000000E+03 0.  0.
   -2000013    1    1    2    0    0  0.39941165410E+03  0.86797279916E+03 -0.20772378981E+04  0.24759490574E+04  0.95000000000E+03 0.  0.
<mgrwt>
<rscale>  0 0.27044330E+04</rscale>
<asrwt>0</asrwt>
<pdfrwt beam="2">  1        2 0.64585849E+00 0.27044330E+04</pdfrwt>
<pdfrwt beam="1">  1       -2 0.67008266E-01 0.27044330E+04</pdfrwt>
<totfact> 0.41930424E-01</totfact>
</mgrwt>
</event>
<event>
 4    1  0.1343107E-008  0.2263089E+04  0.7816531E-02  0.8492619E-01
          2   -1    0    0  501    0  0.00000000000E+00  0.00000000000E+00  0.24848050230E+04  0.24848050230E+04  0.00000000000E+00 0.  1.
         -2   -1    0    0    0  501 -0.00000000000E+00 -0.00000000000E+00 -0.51528895331E+03  0.51528895331E+03  0.00000000000E+00 0. -1.
    2000013    1    1    2    0    0 -0.42055661738E+03  0.96709412156E+02  0.40437778244E+03  0.11190361789E+04  0.95000000000E+03 0.  0.
   -2000013    1    1    2    0    0  0.42055661738E+03 -0.96709412156E+02  0.15651382872E+04  0.18810577973E+04  0.95000000000E+03 0.  0.
<mgrwt>
<rscale>  0 0.22630887E+04</rscale>
<asrwt>0</asrwt>
<pdfrwt beam="1">  1        2 0.38227769E+00 0.22630887E+04</pdfrwt>
<pdfrwt beam="2">  1       -2 0.79275225E-01 0.22630887E+04</pdfrwt>
<totfact> 0.45576831E+00</totfact>
</mgrwt>
</event>
<event>
 4    1  0.1343107E-008  0.2232137E+04  0.7816531E-02  0.8505170E-01
          2   -1    0    0  501    0  0.00000000000E+00  0.00000000000E+00  0.44982910972E+03  0.44982910972E+03  0.00000000000E+00 0.  1.
         -2   -1    0    0    0  501 -0.00000000000E+00 -0.00000000000E+00 -0.27690704815E+04  0.27690704815E+04  0.00000000000E+00 0. -1.
    2000013    1    1    2    0    0 -0.43833522574E+03  0.36400601357E+03 -0.13556063692E+04  0.17506589549E+04  0.95000000000E+03 0.  0.
   -2000013    1    1    2    0    0  0.43833522574E+03 -0.36400601357E+03 -0.96363500254E+03  0.14682406363E+04  0.95000000000E+03 0.  0.
<mgrwt>
<rscale>  0 0.22321367E+04</rscale>
<asrwt>0</asrwt>
<pdfrwt beam="1">  1        2 0.69204479E-01 0.22321367E+04</pdfrwt>
<pdfrwt beam="2">  1       -2 0.42601084E+00 0.22321367E+04</pdfrwt>
<totfact> 0.31768471E-01</totfact>
</mgrwt>
</event>
<event>
 4    1  0.1343107E-008  0.2055981E+04  0.7816531E-02  0.8580886E-01
         -1   -1    0    0    0  501 -0.00000000000E+00  0.00000000000E+00  0.22509840894E+04  0.22509840894E+04  0.00000000000E+00 0. -1.
          1   -1    0    0  501    0  0.00000000000E+00 -0.00000000000E+00 -0.46946796395E+03  0.46946796395E+03  0.00000000000E+00 0.  1.
    2000013    1    1    2    0    0  0.31509647487E+03 -0.41700154328E+02  0.58544749837E+03  0.11602902502E+04  0.95000000000E+03 0.  0.
   -2000013    1    1    2    0    0 -0.31509647487E+03  0.41700154328E+02  0.11960686271E+04  0.15601618032E+04  0.95000000000E+03 0.  0.
<mgrwt>
<rscale>  0 0.20559814E+04</rscale>
<asrwt>0</asrwt>
<pdfrwt beam="2">  1        1 0.72225842E-01 0.20559814E+04</pdfrwt>
<pdfrwt beam="1">  1       -1 0.34630524E+00 0.20559814E+04</pdfrwt>
<totfact> 0.73447826E-01</totfact>
</mgrwt>
</event>
<event>
 4    1  0.1343107E-008  0.2453922E+04  0.7816531E-02  0.8419588E-01
         -1   -1    0    0    0  501 -0.00000000000E+00  0.00000000000E+00  0.98984006650E+03  0.98984006650E+03  0.00000000000E+00 0.  1.
          1   -1    0    0  501    0  0.00000000000E+00 -0.00000000000E+00 -0.15208850262E+04  0.15208850262E+04  0.00000000000E+00 0. -1.
    2000013    1    1    2    0    0 -0.68054208446E+03 -0.33954204953E+03 -0.42569205412E+03  0.12892401084E+04  0.95000000000E+03 0.  0.
   -2000013    1    1    2    0    0  0.68054208446E+03  0.33954204953E+03 -0.10535290553E+03  0.12214849843E+04  0.95000000000E+03 0.  0.
<mgrwt>
<rscale>  0 0.24539217E+04</rscale>
<asrwt>0</asrwt>
<pdfrwt beam="2">  1        1 0.23398231E+00 0.24539217E+04</pdfrwt>
<pdfrwt beam="1">  1       -1 0.15228309E+00 0.24539217E+04</pdfrwt>
<totfact> 0.18901591E+00</totfact>
</mgrwt>
</event>
<event>
 4    1  0.1343107E-008  0.2425611E+04  0.7816531E-02  0.8429977E-01
          2   -1    0    0  501    0  0.00000000000E+00  0.00000000000E+00  0.21368259984E+04  0.21368259984E+04  0.00000000000E+00 0.  1.
         -2   -1    0    0    0  501 -0.00000000000E+00 -0.00000000000E+00 -0.68835601141E+03  0.68835601141E+03  0.00000000000E+00 0. -1.
    2000013    1    1    2    0    0  0.60640322956E+02 -0.74739237656E+03  0.81538513798E+03  0.14593236572E+04  0.95000000000E+03 0.  0.
   -2000013    1    1    2    0    0 -0.60640322956E+02  0.74739237656E+03  0.63308484901E+03  0.13658583526E+04  0.95000000000E+03 0.  0.
<mgrwt>
<rscale>  0 0.24256109E+04</rscale>
<asrwt>0</asrwt>
<pdfrwt beam="1">  1        2 0.32874246E+00 0.24256109E+04</pdfrwt>
<pdfrwt beam="2">  1       -2 0.10590093E+00 0.24256109E+04</pdfrwt>
<totfact> 0.36206383E+00</totfact>
</mgrwt>
</event>
<event>
 4    1  0.1343107E-008  0.2019833E+04  0.7816531E-02  0.8597404E-01
         -2   -1    0    0    0  501 -0.00000000000E+00  0.00000000000E+00  0.10414925329E+04  0.10414925329E+04  0.00000000000E+00 0. -1.
          2   -1    0    0  501    0  0.00000000000E+00 -0.00000000000E+00 -0.97929764655E+03  0.97929764655E+03  0.00000000000E+00 0.  1.
    2000013    1    1    2    0    0  0.10553918896E+03  0.24925365226E+03 -0.17915754077E+03  0.10039239652E+04  0.95000000000E+03 0.  0.
   -2000013    1    1    2    0    0 -0.10553918896E+03 -0.24925365226E+03  0.24135242714E+03  0.10168662142E+04  0.95000000000E+03 0.  0.
<mgrwt>
<rscale>  0 0.20198329E+04</rscale>
<asrwt>0</asrwt>
<pdfrwt beam="2">  1        2 0.15066118E+00 0.20198329E+04</pdfrwt>
<pdfrwt beam="1">  1       -2 0.16022962E+00 0.20198329E+04</pdfrwt>
<totfact> 0.60447135E+00</totfact>
</mgrwt>
</event>
<event>
 4    1  0.1343107E-008  0.3631119E+04  0.7816531E-02  0.8083400E-01
          2   -1    0    0  501    0  0.00000000000E+00  0.00000000000E+00  0.13334114158E+04  0.13334114158E+04  0.00000000000E+00 0.  1.
         -2   -1    0    0    0  501 -0.00000000000E+00 -0.00000000000E+00 -0.24720478002E+04  0.24720478002E+04  0.00000000000E+00 0. -1.
    2000013    1    1    2    0    0 -0.11977471582E+04 -0.78368751126E+03  0.46243118050E+02  0.17185467105E+04  0.95000000000E+03 0.  0.
   -2000013    1    1    2    0    0  0.11977471582E+04  0.78368751126E+03 -0.11848795024E+04  0.20869125055E+04  0.95000000000E+03 0.  0.
<mgrwt>
<rscale>  0 0.36311193E+04</rscale>
<asrwt>0</asrwt>
<pdfrwt beam="1">  1        2 0.20514022E+00 0.36311193E+04</pdfrwt>
<pdfrwt beam="2">  1       -2 0.38031505E+00 0.36311193E+04</pdfrwt>
<totfact> 0.12798284E-01</totfact>
</mgrwt>
</event>
<event>
 4    1  0.1343107E-008  0.2894781E+04  0.7816531E-02  0.8274432E-01
          2   -1    0    0  501    0  0.00000000000E+00  0.00000000000E+00  0.23562855964E+04  0.23562855964E+04  0.00000000000E+00 0.  1.
         -2   -1    0    0    0  501 -0.00000000000E+00 -0.00000000000E+00 -0.88908548589E+03  0.88908548589E+03  0.00000000000E+00 0. -1.
    2000013    1    1    2    0    0  0.32422285375E+03  0.10033954261E+04  0.10517201063E+04  0.17665044642E+04  0.95000000000E+03 0.  0.
   -2000013    1    1    2    0    0 -0.32422285375E+03 -0.10033954261E+04  0.41548000413E+03  0.14788666180E+04  0.95000000000E+03 0.  0.
<mgrwt>
<rscale>  0 0.28947810E+04</rscale>
<asrwt>0</asrwt>
<pdfrwt beam="1">  1        2 0.36250547E+00 0.28947810E+04</pdfrwt>
<pdfrwt beam="2">  1       -2 0.13678238E+00 0.28947810E+04</pdfrwt>
<totfact> 0.13868851E+00</totfact>
</mgrwt>
</event>
<event>
 4    1  0.1343107E-008  0.2332270E+04  0.7816531E-02  0.8465305E-01
          2   -1    0    0  501    0  0.00000000000E+00  0.00000000000E+00  0.29729649036E+04  0.29729649036E+04  0.00000000000E+00 0.  1.
         -2   -1    0    0    0  501 -0.00000000000E+00 -0.00000000000E+00 -0.45741220706E+03  0.45741220706E+03  0.00000000000E+00 0. -1.
    2000013    1    1    2    0    0 -0.67253905942E+03  0.25119438613E+01  0.11531988223E+04  0.16385001129E+04  0.95000000000E+03 0.  0.
   -2000013    1    1    2    0    0  0.67253905942E+03 -0.25119438613E+01  0.13623538742E+04  0.17918769977E+04  0.95000000000E+03 0.  0.
<mgrwt>
<rscale>  0 0.23322697E+04</rscale>
<asrwt>0</asrwt>
<pdfrwt beam="1">  1        2 0.45737920E+00 0.23322697E+04</pdfrwt>
<pdfrwt beam="2">  1       -2 0.70371111E-01 0.23322697E+04</pdfrwt>
<totfact> 0.30098272E+00</totfact>
</mgrwt>
</event>
<event>
 4    1  0.1343107E-008  0.2965014E+04  0.7816531E-02  0.8253792E-01
          2   -1    0    0  501    0  0.00000000000E+00  0.00000000000E+00  0.18790684545E+04  0.18790684545E+04  0.00000000000E+00 0.  1.
         -2   -1    0    0    0  501 -0.00000000000E+00 -0.00000000000E+00 -0.11696365570E+04  0.11696365570E+04  0.00000000000E+00 0. -1.
    2000013    1    1    2    0    0  0.51821123683E+03  0.95935665130E+03  0.19288649194E+02  0.14462987666E+04  0.95000000000E+03 0.  0.
   -2000013    1    1    2    0    0 -0.51821123683E+03 -0.95935665130E+03  0.69014324836E+03  0.16024062449E+04  0.95000000000E+03 0.  0.
<mgrwt>
<rscale>  0 0.29650141E+04</rscale>
<asrwt>0</asrwt>
<pdfrwt beam="1">  1        2 0.28908745E+00 0.29650141E+04</pdfrwt>
<pdfrwt beam="2">  1       -2 0.17994409E+00 0.29650141E+04</pdfrwt>
<totfact> 0.12153182E+00</totfact>
</mgrwt>
</event>
<event>
 4    1  0.1343107E-008  0.3063542E+04  0.7816531E-02  0.8225815E-01
          1   -1    0    0  501    0  0.00000000000E+00  0.00000000000E+00  0.17896281548E+04  0.17896281548E+04  0.00000000000E+00 0.  1.
         -1   -1    0    0    0  501 -0.00000000000E+00 -0.00000000000E+00 -0.13110672205E+04  0.13110672205E+04  0.00000000000E+00 0. -1.
    2000013    1    1    2    0    0  0.53790194097E+02 -0.10443968154E+04 -0.35964311963E+03  0.14579098966E+04  0.95000000000E+03 0.  0.
   -2000013    1    1    2    0    0 -0.53790194097E+02  0.10443968154E+04  0.83820405388E+03  0.16427854787E+04  0.95000000000E+03 0.  0.
<mgrwt>
<rscale>  0 0.30635423E+04</rscale>
<asrwt>0</asrwt>
<pdfrwt beam="1">  1        1 0.27532741E+00 0.30635423E+04</pdfrwt>
<pdfrwt beam="2">  1       -1 0.20170265E+00 0.30635423E+04</pdfrwt>
<totfact> 0.51347182E-01</totfact>
</mgrwt>
</event>
<event>
 4    1  0.1343107E-008  0.2685192E+04  0.7816531E-02  0.8339826E-01
          2   -1    0    0  501    0  0.00000000000E+00  0.00000000000E+00  0.15045399636E+04  0.15045399636E+04  0.00000000000E+00 0.  1.
         -2   -1    0    0    0  501 -0.00000000000E+00 -0.00000000000E+00 -0.11980831911E+04  0.11980831911E+04  0.00000000000E+00 0. -1.
    2000013    1    1    2    0    0 -0.66351181919E+03  0.67746204747E+03  0.12369028957E+03  0.13479621833E+04  0.95000000000E+03 0.  0.
   -2000013    1    1    2    0    0  0.66351181919E+03 -0.67746204747E+03  0.18276648293E+03  0.13546609713E+04  0.95000000000E+03 0.  0.
<mgrwt>
<rscale>  0 0.26851920E+04</rscale>
<asrwt>0</asrwt>
<pdfrwt beam="1">  1        2 0.23146769E+00 0.26851920E+04</pdfrwt>
<pdfrwt beam="2">  1       -2 0.18432049E+00 0.26851920E+04</pdfrwt>
<totfact> 0.18773323E+00</totfact>
</mgrwt>
</event>
<event>
 4    1  0.1343107E-008  0.2497151E+04  0.7816531E-02  0.8404001E-01
          2   -1    0    0  501    0  0.00000000000E+00  0.00000000000E+00  0.32928277396E+04  0.32928277396E+04  0.00000000000E+00 0.  1.
         -2   -1    0    0    0  501 -0.00000000000E+00 -0.00000000000E+00 -0.47343527925E+03  0.47343527925E+03  0.00000000000E+00 0. -1.
    2000013    1    1    2    0    0 -0.61276275452E+03  0.30682462788E+03  0.20615932586E+04  0.23711360799E+04  0.95000000000E+03 0.  0.
   -2000013    1    1    2    0    0  0.61276275452E+03 -0.30682462788E+03  0.75779920179E+03  0.13951269390E+04  0.95000000000E+03 0.  0.
<mgrwt>
<rscale>  0 0.24971510E+04</rscale>
<asrwt>0</asrwt>
<pdfrwt beam="1">  1        2 0.50658887E+00 0.24971510E+04</pdfrwt>
<pdfrwt beam="2">  1       -2 0.72836199E-01 0.24971510E+04</pdfrwt>
<totfact> 0.17128600E+00</totfact>
</mgrwt>
</event>
<event>
 4    1  0.1343107E-008  0.2902492E+04  0.7816531E-02  0.8272137E-01
          2   -1    0    0  501    0  0.00000000000E+00  0.00000000000E+00  0.38783094851E+04  0.38783094851E+04  0.00000000000E+00 0.  1.
         -2   -1    0    0    0  501 -0.00000000000E+00 -0.00000000000E+00 -0.54304955679E+03  0.54304955679E+03  0.00000000000E+00 0. -1.
    2000013    1    1    2    0    0  0.63651629738E+03 -0.70080150973E+03  0.25121176178E+04  0.28477202599E+04  0.95000000000E+03 0.  0.
   -2000013    1    1    2    0    0 -0.63651629738E+03  0.70080150973E+03  0.82314231048E+03  0.15736387820E+04  0.95000000000E+03 0.  0.
<mgrwt>
<rscale>  0 0.29024915E+04</rscale>
<asrwt>0</asrwt>
<pdfrwt beam="1">  1        2 0.59666298E+00 0.29024915E+04</pdfrwt>
<pdfrwt beam="2">  1       -2 0.83546088E-01 0.29024915E+04</pdfrwt>
<totfact> 0.46213577E-01</totfact>
</mgrwt>
</event>
<event>
 4    1  0.1343107E-008  0.2875569E+04  0.7816531E-02  0.8280184E-01
          2   -1    0    0  501    0  0.00000000000E+00  0.00000000000E+00  0.48004371389E+04  0.48004371389E+04  0.00000000000E+00 0.  1.
         -2   -1    0    0    0  501 -0.00000000000E+00 -0.00000000000E+00 -0.43063249688E+03  0.43063249688E+03  0.00000000000E+00 0. -1.
    2000013    1    1    2    0    0 -0.21024474809E+03 -0.45907839781E+03  0.44977184994E+03  0.11660834217E+04  0.95000000000E+03 0.  0.
   -2000013    1    1    2    0    0  0.21024474809E+03  0.45907839781E+03  0.39200327921E+04  0.40649862141E+04  0.95000000000E+03 0.  0.
<mgrwt>
<rscale>  0 0.28755690E+04</rscale>
<asrwt>0</asrwt>
<pdfrwt beam="1">  1        2 0.73852875E+00 0.28755690E+04</pdfrwt>
<pdfrwt beam="2">  1       -2 0.66251157E-01 0.28755690E+04</pdfrwt>
<totfact> 0.10785126E-01</totfact>
</mgrwt>
</event>
<event>
 4    1  0.1343107E-008  0.2869014E+04  0.7816531E-02  0.8282157E-01
          2   -1    0    0  501    0  0.00000000000E+00  0.00000000000E+00  0.19851546111E+04  0.19851546111E+04  0.00000000000E+00 0.  1.
         -2   -1    0    0    0  501 -0.00000000000E+00 -0.00000000000E+00 -0.10365996410E+04  0.10365996410E+04  0.00000000000E+00 0. -1.
    2000013    1    1    2    0    0  0.86754711586E+03  0.56095538501E+03  0.78672118485E+03  0.16089559239E+04  0.95000000000E+03 0.  0.
   -2000013    1    1    2    0    0 -0.86754711586E+03 -0.56095538501E+03  0.16183378533E+03  0.14127983282E+04  0.95000000000E+03 0.  0.
<mgrwt>
<rscale>  0 0.28690142E+04</rscale>
<asrwt>0</asrwt>
<pdfrwt beam="1">  1        2 0.30540840E+00 0.28690142E+04</pdfrwt>
<pdfrwt beam="2">  1       -2 0.15947687E+00 0.28690142E+04</pdfrwt>
<totfact> 0.14975694E+00</totfact>
</mgrwt>
</event>
<event>
 4    1  0.1343107E-008  0.3626864E+04  0.7816531E-02  0.8084366E-01
         -1   -1    0    0    0  501 -0.00000000000E+00  0.00000000000E+00  0.19862099623E+04  0.19862099623E+04  0.00000000000E+00 0. -1.
          1   -1    0    0  501    0  0.00000000000E+00 -0.00000000000E+00 -0.16556841109E+04  0.16556841109E+04  0.00000000000E+00 0.  1.
    2000013    1    1    2    0    0 -0.12333890407E+04  0.89924276855E+03 -0.72679356401E+02  0.17993522088E+04  0.95000000000E+03 0.  0.
   -2000013    1    1    2    0    0  0.12333890407E+04 -0.89924276855E+03  0.40320520785E+03  0.18425418644E+04  0.95000000000E+03 0.  0.
<mgrwt>
<rscale>  0 0.36268644E+04</rscale>
<asrwt>0</asrwt>
<pdfrwt beam="2">  1        1 0.25472063E+00 0.36268644E+04</pdfrwt>
<pdfrwt beam="1">  1       -1 0.30557076E+00 0.36268644E+04</pdfrwt>
<totfact> 0.12533443E-01</totfact>
</mgrwt>
</event>
<event>
 4    1  0.1343107E-008  0.2045545E+04  0.7816531E-02  0.8585618E-01
         -2   -1    0    0    0  501 -0.00000000000E+00  0.00000000000E+00  0.72187183866E+03  0.72187183866E+03  0.00000000000E+00 0. -1.
          2   -1    0    0  501    0  0.00000000000E+00 -0.00000000000E+00 -0.14490992033E+04  0.14490992033E+04  0.00000000000E+00 0.  1.
    2000013    1    1    2    0    0  0.17623395876E+03 -0.28908669787E+03 -0.18308258971E+03  0.10250115910E+04  0.95000000000E+03 0.  0.
   -2000013    1    1    2    0    0 -0.17623395876E+03  0.28908669787E+03 -0.54414477494E+03  0.11459594509E+04  0.95000000000E+03 0.  0.
<mgrwt>
<rscale>  0 0.20455453E+04</rscale>
<asrwt>0</asrwt>
<pdfrwt beam="2">  1        2 0.22293834E+00 0.20455453E+04</pdfrwt>
<pdfrwt beam="1">  1       -2 0.11105721E+00 0.20455453E+04</pdfrwt>
<totfact> 0.80624247E+00</totfact>
</mgrwt>
</event>
<event>
 4    1  0.1343107E-008  0.2349680E+04  0.7816531E-02  0.8458587E-01
          2   -1    0    0  501    0  0.00000000000E+00  0.00000000000E+00  0.72858338352E+03  0.72858338352E+03  0.00000000000E+00 0.  1.
         -2   -1    0    0    0  501 -0.00000000000E+00 -0.00000000000E+00 -0.18944276885E+04  0.18944276885E+04  0.00000000000E+00 0. -1.
    2000013    1    1    2    0    0 -0.17625399419E+03  0.51881031019E+03 -0.10532642076E+04  0.15205574963E+04  0.95000000000E+03 0.  0.
   -2000013    1    1    2    0    0  0.17625399419E+03 -0.51881031019E+03 -0.11258009740E+03  0.11024535758E+04  0.95000000000E+03 0.  0.
<mgrwt>
<rscale>  0 0.23496796E+04</rscale>
<asrwt>0</asrwt>
<pdfrwt beam="1">  1        2 0.11208975E+00 0.23496796E+04</pdfrwt>
<pdfrwt beam="2">  1       -2 0.29145041E+00 0.23496796E+04</pdfrwt>
<totfact> 0.12605310E+00</totfact>
</mgrwt>
</event>
<event>
 4    1  0.1343107E-008  0.2025508E+04  0.7816531E-02  0.8594787E-01
         -2   -1    0    0    0  501 -0.00000000000E+00  0.00000000000E+00  0.14670641169E+04  0.14670641169E+04  0.00000000000E+00 0. -1.
          2   -1    0    0  501    0  0.00000000000E+00 -0.00000000000E+00 -0.69913146178E+03  0.69913146178E+03  0.00000000000E+00 0.  1.
    2000013    1    1    2    0    0  0.28900450085E+03 -0.14936326438E+03  0.24314793926E+03  0.10331766096E+04  0.95000000000E+03 0.  0.
   -2000013    1    1    2    0    0 -0.28900450085E+03  0.14936326438E+03  0.52478471581E+03  0.11330189690E+04  0.95000000000E+03 0.  0.
<mgrwt>
<rscale>  0 0.20255080E+04</rscale>
<asrwt>0</asrwt>
<pdfrwt beam="2">  1        2 0.10755869E+00 0.20255080E+04</pdfrwt>
<pdfrwt beam="1">  1       -2 0.22570217E+00 0.20255080E+04</pdfrwt>
<totfact> 0.34596985E+00</totfact>
</mgrwt>
</event>
<event>
 4    1  0.1343107E-008  0.3362199E+04  0.7816531E-02  0.8147247E-01
          2   -1    0    0  501    0  0.00000000000E+00  0.00000000000E+00  0.23803171840E+04  0.23803171840E+04  0.00000000000E+00 0.  1.
         -2   -1    0    0    0  501 -0.00000000000E+00 -0.00000000000E+00 -0.11872770256E+04  0.11872770256E+04  0.00000000000E+00 0. -1.
    2000013    1    1    2    0    0 -0.74043233326E+03  0.10547128683E+04  0.11406186111E+04  0.19657492441E+04  0.95000000000E+03 0.  0.
   -2000013    1    1    2    0    0  0.74043233326E+03 -0.10547128683E+04  0.52421547273E+02  0.16018449655E+04  0.95000000000E+03 0.  0.
<mgrwt>
<rscale>  0 0.33621992E+04</rscale>
<asrwt>0</asrwt>
<pdfrwt beam="1">  1        2 0.36620264E+00 0.33621992E+04</pdfrwt>
<pdfrwt beam="2">  1       -2 0.18265800E+00 0.33621992E+04</pdfrwt>
<totfact> 0.58937390E-01</totfact>
</mgrwt>
</event>
<event>
 4    1  0.1343107E-008  0.2573017E+04  0.7816531E-02  0.8377425E-01
         -2   -1    0    0    0  501 -0.00000000000E+00  0.00000000000E+00  0.21573633248E+04  0.21573633248E+04  0.00000000000E+00 0. -1.
          2   -1    0    0  501    0  0.00000000000E+00 -0.00000000000E+00 -0.76718841251E+03  0.76718841251E+03  0.00000000000E+00 0.  1.
    2000013    1    1    2    0    0  0.60617874914E+03  0.57489464643E+03  0.96079400102E+03  0.15885784975E+04  0.95000000000E+03 0.  0.
   -2000013    1    1    2    0    0 -0.60617874914E+03 -0.57489464643E+03  0.42938091125E+03  0.13359732398E+04  0.95000000000E+03 0.  0.
<mgrwt>
<rscale>  0 0.25730170E+04</rscale>
<asrwt>0</asrwt>
<pdfrwt beam="2">  1        2 0.11802899E+00 0.25730170E+04</pdfrwt>
<pdfrwt beam="1">  1       -2 0.33190205E+00 0.25730170E+04</pdfrwt>
<totfact> 0.65218033E-01</totfact>
</mgrwt>
</event>
<event>
 4    1  0.1343107E-008  0.2835947E+04  0.7816531E-02  0.8292194E-01
         -2   -1    0    0    0  501 -0.00000000000E+00  0.00000000000E+00  0.10992649533E+04  0.10992649533E+04  0.00000000000E+00 0. -1.
          2   -1    0    0  501    0  0.00000000000E+00 -0.00000000000E+00 -0.18290849993E+04  0.18290849993E+04  0.00000000000E+00 0.  1.
    2000013    1    1    2    0    0 -0.10139296048E+04  0.25274602063E+03 -0.23342188947E+03  0.14314047551E+04  0.95000000000E+03 0.  0.
   -2000013    1    1    2    0    0  0.10139296048E+04 -0.25274602063E+03 -0.49639815650E+03  0.14969451975E+04  0.95000000000E+03 0.  0.
<mgrwt>
<rscale>  0 0.28359471E+04</rscale>
<asrwt>0</asrwt>
<pdfrwt beam="2">  1        2 0.28139769E+00 0.28359471E+04</pdfrwt>
<pdfrwt beam="1">  1       -2 0.16911769E+00 0.28359471E+04</pdfrwt>
<totfact> 0.15600077E+00</totfact>
</mgrwt>
</event>
<event>
 4    1  0.1343107E-008  0.2120634E+04  0.7816531E-02  0.8552208E-01
          2   -1    0    0  501    0  0.00000000000E+00  0.00000000000E+00  0.23419149455E+04  0.23419149455E+04  0.00000000000E+00 0.  1.
         -2   -1    0    0    0  501 -0.00000000000E+00 -0.00000000000E+00 -0.48006544372E+03  0.48006544372E+03  0.00000000000E+00 0. -1.
    2000013    1    1    2    0    0  0.25519199417E+03 -0.38636277209E+03  0.10451912519E+04  0.14863794598E+04  0.95000000000E+03 0.  0.
   -2000013    1    1    2    0    0 -0.25519199417E+03  0.38636277209E+03  0.81665824992E+03  0.13356009294E+04  0.95000000000E+03 0.  0.
<mgrwt>
<rscale>  0 0.21206343E+04</rscale>
<asrwt>0</asrwt>
<pdfrwt beam="1">  1        2 0.36029460E+00 0.21206343E+04</pdfrwt>
<pdfrwt beam="2">  1       -2 0.73856224E-01 0.21206343E+04</pdfrwt>
<totfact> 0.65229643E+00</totfact>
</mgrwt>
</event>
<event>
 4    1  0.1343107E-008  0.2242632E+04  0.7816531E-02  0.8500890E-01
          2   -1    0    0  501    0  0.00000000000E+00  0.00000000000E+00  0.51825314876E+03  0.51825314876E+03  0.00000000000E+00 0.  1.
         -2   -1    0    0    0  501 -0.00000000000E+00 -0.00000000000E+00 -0.24261309542E+04  0.24261309542E+04  0.00000000000E+00 0. -1.
    2000013    1    1    2    0    0 -0.22277958038E+03 -0.49637768229E+03 -0.12723807390E+04  0.16785333746E+04  0.95000000000E+03 0.  0.
   -2000013    1    1    2    0    0  0.22277958038E+03  0.49637768229E+03 -0.63549706651E+03  0.12658507283E+04  0.95000000000E+03 0.  0.
<mgrwt>
<rscale>  0 0.22426324E+04</rscale>
<asrwt>0</asrwt>
<pdfrwt beam="1">  1        2 0.79731253E-01 0.22426324E+04</pdfrwt>
<pdfrwt beam="2">  1       -2 0.37325092E+00 0.22426324E+04</pdfrwt>
<totfact> 0.59606014E-01</totfact>
</mgrwt>
</event>
<event>
 4    1  0.1343107E-008  0.2060580E+04  0.7816531E-02  0.8578810E-01
          2   -1    0    0  501    0  0.00000000000E+00  0.00000000000E+00  0.20748536094E+04  0.20748536094E+04  0.00000000000E+00 0.  1.
         -2   -1    0    0    0  501 -0.00000000000E+00 -0.00000000000E+00 -0.51160095279E+03  0.51160095279E+03  0.00000000000E+00 0. -1.
    2000013    1    1    2    0    0 -0.38858596068E+03  0.84266157509E+02  0.74402769753E+03  0.12705026756E+04  0.95000000000E+03 0.  0.
   -2000013    1    1    2    0    0  0.38858596068E+03 -0.84266157509E+02  0.81922495909E+03  0.13159518866E+04  0.95000000000E+03 0.  0.
<mgrwt>
<rscale>  0 0.20605796E+04</rscale>
<asrwt>0</asrwt>
<pdfrwt beam="1">  1        2 0.31920824E+00 0.20605796E+04</pdfrwt>
<pdfrwt beam="2">  1       -2 0.78707840E-01 0.20605796E+04</pdfrwt>
<totfact> 0.80443961E+00</totfact>
</mgrwt>
</event>
<event>
 4    1  0.1343107E-008  0.2567499E+04  0.7816531E-02  0.8379325E-01
          2   -1    0    0  501    0  0.00000000000E+00  0.00000000000E+00  0.19597620286E+04  0.19597620286E+04  0.00000000000E+00 0.  1.
         -2   -1    0    0    0  501 -0.00000000000E+00 -0.00000000000E+00 -0.84092512578E+03  0.84092512578E+03  0.00000000000E+00 0. -1.
    2000013    1    1    2    0    0  0.69270344165E+03 -0.42922853837E+03  0.87071022526E+03  0.15247004600E+04  0.95000000000E+03 0.  0.
   -2000013    1    1    2    0    0 -0.69270344165E+03  0.42922853837E+03  0.24812667756E+03  0.12759866944E+04  0.95000000000E+03 0.  0.
<mgrwt>
<rscale>  0 0.25674993E+04</rscale>
<asrwt>0</asrwt>
<pdfrwt beam="1">  1        2 0.30150185E+00 0.25674993E+04</pdfrwt>
<pdfrwt beam="2">  1       -2 0.12937310E+00 0.25674993E+04</pdfrwt>
<totfact> 0.27432094E+00</totfact>
</mgrwt>
</event>
<event>
 4    1  0.1343107E-008  0.2598801E+04  0.7816531E-02  0.8368609E-01
          2   -1    0    0  501    0  0.00000000000E+00  0.00000000000E+00  0.12908228388E+04  0.12908228388E+04  0.00000000000E+00 0.  1.
         -2   -1    0    0    0  501 -0.00000000000E+00 -0.00000000000E+00 -0.13080353048E+04  0.13080353048E+04  0.00000000000E+00 0. -1.
    2000013    1    1    2    0    0  0.13701681624E+03  0.74419311416E+03 -0.47050904221E+03  0.13024882947E+04  0.95000000000E+03 0.  0.
   -2000013    1    1    2    0    0 -0.13701681624E+03 -0.74419311416E+03  0.45329657617E+03  0.12963698489E+04  0.95000000000E+03 0.  0.
<mgrwt>
<rscale>  0 0.25988011E+04</rscale>
<asrwt>0</asrwt>
<pdfrwt beam="1">  1        2 0.19858813E+00 0.25988011E+04</pdfrwt>
<pdfrwt beam="2">  1       -2 0.20123620E+00 0.25988011E+04</pdfrwt>
<totfact> 0.19328449E+00</totfact>
</mgrwt>
</event>
<event>
 4    1  0.1343107E-008  0.2535218E+04  0.7816531E-02  0.8390545E-01
          2   -1    0    0  501    0  0.00000000000E+00  0.00000000000E+00  0.11803562557E+04  0.11803562557E+04  0.00000000000E+00 0. -1.
         -2   -1    0    0    0  501 -0.00000000000E+00 -0.00000000000E+00 -0.13613117012E+04  0.13613117012E+04  0.00000000000E+00 0.  1.
    2000013    1    1    2    0    0 -0.69266687313E+02 -0.64768204956E+03 -0.62101479590E+03  0.13086058566E+04  0.95000000000E+03 0.  0.
   -2000013    1    1    2    0    0  0.69266687313E+02  0.64768204956E+03  0.44005935044E+03  0.12330621003E+04  0.95000000000E+03 0.  0.
<mgrwt>
<rscale>  0 0.25352182E+04</rscale>
<asrwt>0</asrwt>
<pdfrwt beam="1">  1        2 0.18159327E+00 0.25352182E+04</pdfrwt>
<pdfrwt beam="2">  1       -2 0.20943257E+00 0.25352182E+04</pdfrwt>
<totfact> 0.19985324E+00</totfact>
</mgrwt>
</event>
<event>
 4    1  0.1343107E-008  0.3943677E+04  0.7816531E-02  0.8016006E-01
          2   -1    0    0  501    0  0.00000000000E+00  0.00000000000E+00  0.25807070935E+04  0.25807070935E+04  0.00000000000E+00 0.  1.
         -2   -1    0    0    0  501 -0.00000000000E+00 -0.00000000000E+00 -0.15066208661E+04  0.15066208661E+04  0.00000000000E+00 0. -1.
    2000013    1    1    2    0    0  0.56508735336E+03  0.16092565548E+04  0.25016323281E+03  0.19682764082E+04  0.95000000000E+03 0.  0.
   -2000013    1    1    2    0    0 -0.56508735336E+03 -0.16092565548E+04  0.82392299467E+03  0.21190515514E+04  0.95000000000E+03 0.  0.
<mgrwt>
<rscale>  0 0.39436770E+04</rscale>
<asrwt>0</asrwt>
<pdfrwt beam="1">  1        2 0.39703186E+00 0.39436770E+04</pdfrwt>
<pdfrwt beam="2">  1       -2 0.23178783E+00 0.39436770E+04</pdfrwt>
<totfact> 0.20624813E-01</totfact>
</mgrwt>
</event>
<event>
 4    1  0.1343107E-008  0.3618358E+04  0.7816531E-02  0.8086299E-01
          2   -1    0    0  501    0  0.00000000000E+00  0.00000000000E+00  0.40733464694E+04  0.40733464694E+04  0.00000000000E+00 0.  1.
         -2   -1    0    0    0  501 -0.00000000000E+00 -0.00000000000E+00 -0.80354802859E+03  0.80354802859E+03  0.00000000000E+00 0. -1.
    2000013    1    1    2    0    0  0.12868005137E+04  0.84182637357E+03  0.15296111276E+04  0.23678550224E+04  0.95000000000E+03 0.  0.
   -2000013    1    1    2    0    0 -0.12868005137E+04 -0.84182637357E+03  0.17401873132E+04  0.25090394756E+04  0.95000000000E+03 0.  0.
<mgrwt>
<rscale>  0 0.36183585E+04</rscale>
<asrwt>0</asrwt>
<pdfrwt beam="1">  1        2 0.62666867E+00 0.36183585E+04</pdfrwt>
<pdfrwt beam="2">  1       -2 0.12362278E+00 0.36183585E+04</pdfrwt>
<totfact> 0.11911793E-01</totfact>
</mgrwt>
</event>
<event>
 4    1  0.1343107E-008  0.2115738E+04  0.7816531E-02  0.8554342E-01
          2   -1    0    0  501    0  0.00000000000E+00  0.00000000000E+00  0.11710659714E+04  0.11710659714E+04  0.00000000000E+00 0.  1.
         -2   -1    0    0    0  501 -0.00000000000E+00 -0.00000000000E+00 -0.95561397710E+03  0.95561397710E+03  0.00000000000E+00 0. -1.
    2000013    1    1    2    0    0 -0.40892194591E+03 -0.91977473803E+02  0.31103421642E+03  0.10839369434E+04  0.95000000000E+03 0.  0.
   -2000013    1    1    2    0    0  0.40892194591E+03  0.91977473803E+02 -0.95582222077E+02  0.10427430051E+04  0.95000000000E+03 0.  0.
<mgrwt>
<rscale>  0 0.21157382E+04</rscale>
<asrwt>0</asrwt>
<pdfrwt beam="1">  1        2 0.18016399E+00 0.21157382E+04</pdfrwt>
<pdfrwt beam="2">  1       -2 0.14701754E+00 0.21157382E+04</pdfrwt>
<totfact> 0.57336117E+00</totfact>
</mgrwt>
</event>
<event>
 4    1  0.1343107E-008  0.2318672E+04  0.7816531E-02  0.8470595E-01
         -2   -1    0    0    0  501 -0.00000000000E+00  0.00000000000E+00  0.13375293541E+04  0.13375293541E+04  0.00000000000E+00 0. -1.
          2   -1    0    0  501    0  0.00000000000E+00 -0.00000000000E+00 -0.10048822667E+04  0.10048822667E+04  0.00000000000E+00 0.  1.
    2000013    1    1    2    0    0  0.82467393294E+02 -0.65055930472E+03  0.27480665784E+03  0.11866115536E+04  0.95000000000E+03 0.  0.
   -2000013    1    1    2    0    0 -0.82467393294E+02  0.65055930472E+03  0.57840429577E+02  0.11558000671E+04  0.95000000000E+03 0.  0.
<mgrwt>
<rscale>  0 0.23186716E+04</rscale>
<asrwt>0</asrwt>
<pdfrwt beam="2">  1        2 0.15459727E+00 0.23186716E+04</pdfrwt>
<pdfrwt beam="1">  1       -2 0.20577375E+00 0.23186716E+04</pdfrwt>
<totfact> 0.27597953E+00</totfact>
</mgrwt>
</event>
<event>
 4    1  0.1343107E-008  0.2998542E+04  0.7816531E-02  0.8244147E-01
          2   -1    0    0  501    0  0.00000000000E+00  0.00000000000E+00  0.13135640181E+04  0.13135640181E+04  0.00000000000E+00 0.  1.
         -2   -1    0    0    0  501 -0.00000000000E+00 -0.00000000000E+00 -0.17112320232E+04  0.17112320232E+04  0.00000000000E+00 0. -1.
    2000013    1    1    2    0    0 -0.23419683146E+03  0.71923352526E+03  0.68816454046E+03  0.13957848883E+04  0.95000000000E+03 0.  0.
   -2000013    1    1    2    0    0  0.23419683146E+03 -0.71923352526E+03 -0.10858325456E+04  0.16290111530E+04  0.95000000000E+03 0.  0.
<mgrwt>
<rscale>  0 0.29985415E+04</rscale>
<asrwt>0</asrwt>
<pdfrwt beam="1">  1        2 0.20208677E+00 0.29985415E+04</pdfrwt>
<pdfrwt beam="2">  1       -2 0.26326646E+00 0.29985415E+04</pdfrwt>
<totfact> 0.74050839E-01</totfact>
</mgrwt>
</event>
<event>
 4    1  0.1343107E-008  0.3133465E+04  0.7816531E-02  0.8206613E-01
          2   -1    0    0  501    0  0.00000000000E+00  0.00000000000E+00  0.11729604140E+04  0.11729604140E+04  0.00000000000E+00 0.  1.
         -2   -1    0    0    0  501 -0.00000000000E+00 -0.00000000000E+00 -0.20926968993E+04  0.20926968993E+04  0.00000000000E+00 0. -1.
    2000013    1    1    2    0    0 -0.73347364955E+03 -0.86501690547E+03  0.77553676893E+02  0.14814696805E+04  0.95000000000E+03 0.  0.
   -2000013    1    1    2    0    0  0.73347364955E+03  0.86501690547E+03 -0.99729016218E+03  0.17841876328E+04  0.95000000000E+03 0.  0.
<mgrwt>
<rscale>  0 0.31334649E+04</rscale>
<asrwt>0</asrwt>
<pdfrwt beam="1">  1        2 0.18045545E+00 0.31334649E+04</pdfrwt>
<pdfrwt beam="2">  1       -2 0.32195336E+00 0.31334649E+04</pdfrwt>
<totfact> 0.38761872E-01</totfact>
</mgrwt>
</event>
<event>
 4    1  0.1343107E-008  0.2341365E+04  0.7816531E-02  0.8461788E-01
          2   -1    0    0  501    0  0.00000000000E+00  0.00000000000E+00  0.20435934674E+04  0.20435934674E+04  0.00000000000E+00 0.  1.
         -2   -1    0    0    0  501 -0.00000000000E+00 -0.00000000000E+00 -0.67063119581E+03  0.67063119581E+03  0.00000000000E+00 0. -1.
    2000013    1    1    2    0    0  0.66786227148E+03  0.14434426889E+03  0.72531595735E+03  0.13767565215E+04  0.95000000000E+03 0.  0.
   -2000013    1    1    2    0    0 -0.66786227148E+03 -0.14434426889E+03  0.64764631424E+03  0.13374681417E+04  0.95000000000E+03 0.  0.
<mgrwt>
<rscale>  0 0.23413650E+04</rscale>
<asrwt>0</asrwt>
<pdfrwt beam="1">  1        2 0.31439899E+00 0.23413650E+04</pdfrwt>
<pdfrwt beam="2">  1       -2 0.10317403E+00 0.23413650E+04</pdfrwt>
<totfact> 0.43762643E+00</totfact>
</mgrwt>
</event>
<event>
 4    1  0.1343107E-008  0.2023898E+04  0.7816531E-02  0.8595528E-01
         -2   -1    0    0    0  501 -0.00000000000E+00  0.00000000000E+00  0.59577609254E+03  0.59577609254E+03  0.00000000000E+00 0. -1.
          2   -1    0    0  501    0  0.00000000000E+00 -0.00000000000E+00 -0.17188356491E+04  0.17188356491E+04  0.00000000000E+00 0.  1.
    2000013    1    1    2    0    0 -0.30808212180E+03 -0.10452501554E+03 -0.70483257910E+03  0.12268370052E+04  0.95000000000E+03 0.  0.
   -2000013    1    1    2    0    0  0.30808212180E+03  0.10452501554E+03 -0.41822697745E+03  0.10877747365E+04  0.95000000000E+03 0.  0.
<mgrwt>
<rscale>  0 0.20238984E+04</rscale>
<asrwt>0</asrwt>
<pdfrwt beam="2">  1        2 0.26443625E+00 0.20238984E+04</pdfrwt>
<pdfrwt beam="1">  1       -2 0.91657860E-01 0.20238984E+04</pdfrwt>
<totfact> 0.89929337E+00</totfact>
</mgrwt>
</event>
<event>
 4    1  0.1343107E-008  0.2980881E+04  0.7816531E-02  0.8249211E-01
          2   -1    0    0  501    0  0.00000000000E+00  0.00000000000E+00  0.23446104359E+04  0.23446104359E+04  0.00000000000E+00 0.  1.
         -2   -1    0    0    0  501 -0.00000000000E+00 -0.00000000000E+00 -0.94745524533E+03  0.94745524533E+03  0.00000000000E+00 0. -1.
    2000013    1    1    2    0    0 -0.59501274631E+03  0.95817022139E+03  0.93745130892E+03  0.17474110272E+04  0.95000000000E+03 0.  0.
   -2000013    1    1    2    0    0  0.59501274631E+03 -0.95817022139E+03  0.45970388168E+03  0.15446546540E+04  0.95000000000E+03 0.  0.
<mgrwt>
<rscale>  0 0.29808814E+04</rscale>
<asrwt>0</asrwt>
<pdfrwt beam="1">  1        2 0.36070930E+00 0.29808814E+04</pdfrwt>
<pdfrwt beam="2">  1       -2 0.14576235E+00 0.29808814E+04</pdfrwt>
<totfact> 0.11847757E+00</totfact>
</mgrwt>
</event>
<event>
 4    1  0.1343107E-008  0.2834298E+04  0.7816531E-02  0.8292699E-01
         -2   -1    0    0    0  501 -0.00000000000E+00  0.00000000000E+00  0.12922782071E+04  0.12922782071E+04  0.00000000000E+00 0. -1.
          2   -1    0    0  501    0  0.00000000000E+00 -0.00000000000E+00 -0.15540856407E+04  0.15540856407E+04  0.00000000000E+00 0.  1.
    2000013    1    1    2    0    0  0.64640212447E+03  0.49075361281E+03  0.54062539720E+03  0.13614149386E+04  0.95000000000E+03 0.  0.
   -2000013    1    1    2    0    0 -0.64640212447E+03 -0.49075361281E+03 -0.80243283074E+03  0.14849489092E+04  0.95000000000E+03 0.  0.
<mgrwt>
<rscale>  0 0.28342978E+04</rscale>
<asrwt>0</asrwt>
<pdfrwt beam="2">  1        2 0.23909010E+00 0.28342978E+04</pdfrwt>
<pdfrwt beam="1">  1       -2 0.19881203E+00 0.28342978E+04</pdfrwt>
<totfact> 0.13906118E+00</totfact>
</mgrwt>
</event>
<event>
 4    1  0.1343107E-008  0.2235278E+04  0.7816531E-02  0.8503887E-01
          2   -1    0    0  501    0  0.00000000000E+00  0.00000000000E+00  0.46496224730E+04  0.46496224730E+04  0.00000000000E+00 0.  1.
         -2   -1    0    0    0  501 -0.00000000000E+00 -0.00000000000E+00 -0.26864901376E+03  0.26864901376E+03  0.00000000000E+00 0. -1.
    2000013    1    1    2    0    0 -0.58323925973E+03  0.27539720855E+02  0.20245135242E+04  0.23112943300E+04  0.95000000000E+03 0.  0.
   -2000013    1    1    2    0    0  0.58323925973E+03 -0.27539720855E+02  0.23564599351E+04  0.26069771568E+04  0.95000000000E+03 0.  0.
<mgrwt>
<rscale>  0 0.22352776E+04</rscale>
<asrwt>0</asrwt>
<pdfrwt beam="1">  1        2 0.71532648E+00 0.22352776E+04</pdfrwt>
<pdfrwt beam="2">  1       -2 0.41330621E-01 0.22352776E+04</pdfrwt>
<totfact> 0.44421751E-01</totfact>
</mgrwt>
</event>
<event>
 4    1  0.1343107E-008  0.2060171E+04  0.7816531E-02  0.8578994E-01
         -2   -1    0    0    0  501 -0.00000000000E+00  0.00000000000E+00  0.81499142266E+03  0.81499142266E+03  0.00000000000E+00 0. -1.
          2   -1    0    0  501    0  0.00000000000E+00 -0.00000000000E+00 -0.13019475646E+04  0.13019475646E+04  0.00000000000E+00 0.  1.
    2000013    1    1    2    0    0 -0.37948697995E+03  0.32334403194E+02 -0.12399760725E+03  0.10309855907E+04  0.95000000000E+03 0.  0.
   -2000013    1    1    2    0    0  0.37948697995E+03 -0.32334403194E+02 -0.36295853464E+03  0.10859533965E+04  0.95000000000E+03 0.  0.
<mgrwt>
<rscale>  0 0.20601710E+04</rscale>
<asrwt>0</asrwt>
<pdfrwt beam="2">  1        2 0.20029962E+00 0.20601710E+04</pdfrwt>
<pdfrwt beam="1">  1       -2 0.12538330E+00 0.20601710E+04</pdfrwt>
<totfact> 0.72544685E+00</totfact>
</mgrwt>
</event>
<event>
 4    1  0.1343107E-008  0.1991445E+04  0.7816531E-02  0.8610631E-01
         -2   -1    0    0    0  501 -0.00000000000E+00  0.00000000000E+00  0.92339624372E+03  0.92339624372E+03  0.00000000000E+00 0. -1.
          2   -1    0    0  501    0  0.00000000000E+00 -0.00000000000E+00 -0.10737136509E+04  0.10737136509E+04  0.00000000000E+00 0.  1.
    2000013    1    1    2    0    0  0.29258072599E+03  0.55983223179E+02 -0.60097672466E+02  0.99742134163E+03  0.95000000000E+03 0.  0.
   -2000013    1    1    2    0    0 -0.29258072599E+03 -0.55983223179E+02 -0.90219734742E+02  0.99968855302E+03  0.95000000000E+03 0.  0.
<mgrwt>
<rscale>  0 0.19914449E+04</rscale>
<asrwt>0</asrwt>
<pdfrwt beam="2">  1        2 0.16518672E+00 0.19914449E+04</pdfrwt>
<pdfrwt beam="1">  1       -2 0.14206096E+00 0.19914449E+04</pdfrwt>
<totfact> 0.72710518E+00</totfact>
</mgrwt>
</event>
<event>
 4    1  0.1343107E-008  0.3156737E+04  0.7816531E-02  0.8200337E-01
         -2   -1    0    0    0  501 -0.00000000000E+00  0.00000000000E+00  0.61772238321E+03  0.61772238321E+03  0.00000000000E+00 0. -1.
          2   -1    0    0  501    0  0.00000000000E+00 -0.00000000000E+00 -0.40329557325E+04  0.40329557325E+04  0.00000000000E+00 0.  1.
    2000013    1    1    2    0    0  0.85708418981E+03 -0.51644692461E+02 -0.34815557727E+03  0.13270164990E+04  0.95000000000E+03 0.  0.
   -2000013    1    1    2    0    0 -0.85708418981E+03  0.51644692461E+02 -0.30670777721E+04  0.33236616167E+04  0.95000000000E+03 0.  0.
<mgrwt>
<rscale>  0 0.31567369E+04</rscale>
<asrwt>0</asrwt>
<pdfrwt beam="2">  1        2 0.62045471E+00 0.31567369E+04</pdfrwt>
<pdfrwt beam="1">  1       -2 0.95034216E-01 0.31567369E+04</pdfrwt>
<totfact> 0.25271360E-01</totfact>
</mgrwt>
</event>
<event>
 4    1  0.1343107E-008  0.3647895E+04  0.7816531E-02  0.8079608E-01
          2   -1    0    0  501    0  0.00000000000E+00  0.00000000000E+00  0.16756639531E+04  0.16756639531E+04  0.00000000000E+00 0.  1.
         -2   -1    0    0    0  501 -0.00000000000E+00 -0.00000000000E+00 -0.19853526222E+04  0.19853526222E+04  0.00000000000E+00 0. -1.
    2000013    1    1    2    0    0 -0.59146533020E+03  0.91159645327E+03 -0.12739539071E+04  0.19251747682E+04  0.95000000000E+03 0.  0.
   -2000013    1    1    2    0    0  0.59146533020E+03 -0.91159645327E+03  0.96426523800E+03  0.17358418072E+04  0.95000000000E+03 0.  0.
<mgrwt>
<rscale>  0 0.36478946E+04</rscale>
<asrwt>0</asrwt>
<pdfrwt beam="1">  1        2 0.25779446E+00 0.36478946E+04</pdfrwt>
<pdfrwt beam="2">  1       -2 0.30543886E+00 0.36478946E+04</pdfrwt>
<totfact> 0.24175852E-01</totfact>
</mgrwt>
</event>
<event>
 4    1  0.1343107E-008  0.2597181E+04  0.7816531E-02  0.8369159E-01
          1   -1    0    0  501    0  0.00000000000E+00  0.00000000000E+00  0.16218738219E+04  0.16218738219E+04  0.00000000000E+00 0.  1.
         -1   -1    0    0    0  501 -0.00000000000E+00 -0.00000000000E+00 -0.10397465030E+04  0.10397465030E+04  0.00000000000E+00 0. -1.
    2000013    1    1    2    0    0 -0.78659562293E+03 -0.85095460026E+02 -0.11611500461E+03  0.12417554532E+04  0.95000000000E+03 0.  0.
   -2000013    1    1    2    0    0  0.78659562293E+03  0.85095460026E+02  0.69824232360E+03  0.14198648717E+04  0.95000000000E+03 0.  0.
<mgrwt>
<rscale>  0 0.25971813E+04</rscale>
<asrwt>0</asrwt>
<pdfrwt beam="1">  1        1 0.24951905E+00 0.25971813E+04</pdfrwt>
<pdfrwt beam="2">  1       -1 0.15996100E+00 0.25971813E+04</pdfrwt>
<totfact> 0.13887500E+00</totfact>
</mgrwt>
</event>
<event>
 4    1  0.1343107E-008  0.2144488E+04  0.7816531E-02  0.8541895E-01
          1   -1    0    0  501    0  0.00000000000E+00  0.00000000000E+00  0.22150888789E+04  0.22150888789E+04  0.00000000000E+00 0.  1.
         -1   -1    0    0    0  501 -0.00000000000E+00 -0.00000000000E+00 -0.51903416421E+03  0.51903416421E+03  0.00000000000E+00 0. -1.
    2000013    1    1    2    0    0 -0.27295729148E+03  0.31054363053E+03  0.12001173320E+04  0.15854730020E+04  0.95000000000E+03 0.  0.
   -2000013    1    1    2    0    0  0.27295729148E+03 -0.31054363053E+03  0.49593738267E+03  0.11486500411E+04  0.95000000000E+03 0.  0.
<mgrwt>
<rscale>  0 0.21444876E+04</rscale>
<asrwt>0</asrwt>
<pdfrwt beam="1">  1        1 0.34078290E+00 0.21444876E+04</pdfrwt>
<pdfrwt beam="2">  1       -1 0.79851411E-01 0.21444876E+04</pdfrwt>
<totfact> 0.30521354E+00</totfact>
</mgrwt>
</event>
<event>
 4    1  0.1343107E-008  0.3962167E+04  0.7816531E-02  0.8012222E-01
         -2   -1    0    0    0  501 -0.00000000000E+00  0.00000000000E+00  0.19279259402E+04  0.19279259402E+04  0.00000000000E+00 0. -1.
          2   -1    0    0  501    0  0.00000000000E+00 -0.00000000000E+00 -0.20357071597E+04  0.20357071597E+04  0.00000000000E+00 0.  1.
    2000013    1    1    2    0    0  0.33622152909E+03 -0.15147123835E+04  0.73048752239E+03  0.19604873225E+04  0.95000000000E+03 0.  0.
   -2000013    1    1    2    0    0 -0.33622152909E+03  0.15147123835E+04 -0.83826874192E+03  0.20031457773E+04  0.95000000000E+03 0.  0.
<mgrwt>
<rscale>  0 0.39621674E+04</rscale>
<asrwt>0</asrwt>
<pdfrwt beam="2">  1        2 0.31318572E+00 0.39621674E+04</pdfrwt>
<pdfrwt beam="1">  1       -2 0.29660399E+00 0.39621674E+04</pdfrwt>
<totfact> 0.16838506E-01</totfact>
</mgrwt>
</event>
<event>
 4    1  0.1343107E-008  0.1970601E+04  0.7816531E-02  0.8620490E-01
          2   -1    0    0  501    0  0.00000000000E+00  0.00000000000E+00  0.12590406609E+04  0.12590406609E+04  0.00000000000E+00 0.  1.
         -2   -1    0    0    0  501 -0.00000000000E+00 -0.00000000000E+00 -0.77107682124E+03  0.77107682124E+03  0.00000000000E+00 0. -1.
    2000013    1    1    2    0    0  0.25893464238E+03  0.20775588398E+02  0.27380972582E+03  0.10222282231E+04  0.95000000000E+03 0.  0.
   -2000013    1    1    2    0    0 -0.25893464238E+03 -0.20775588398E+02  0.21415411387E+03  0.10078892591E+04  0.95000000000E+03 0.  0.
<mgrwt>
<rscale>  0 0.19706010E+04</rscale>
<asrwt>0</asrwt>
<pdfrwt beam="1">  1        2 0.19369856E+00 0.19706010E+04</pdfrwt>
<pdfrwt beam="2">  1       -2 0.11862720E+00 0.19706010E+04</pdfrwt>
<totfact> 0.88919637E+00</totfact>
</mgrwt>
</event>
<event>
 4    1  0.1343107E-008  0.2401494E+04  0.7816531E-02  0.8438945E-01
          2   -1    0    0  501    0  0.00000000000E+00  0.00000000000E+00  0.22275760470E+04  0.22275760470E+04  0.00000000000E+00 0.  1.
         -2   -1    0    0    0  501 -0.00000000000E+00 -0.00000000000E+00 -0.64724750030E+03  0.64724750030E+03  0.00000000000E+00 0. -1.
    2000013    1    1    2    0    0 -0.66239106946E+03  0.10792139320E+03  0.11470602966E+04  0.16336022404E+04  0.95000000000E+03 0.  0.
   -2000013    1    1    2    0    0  0.66239106946E+03 -0.10792139320E+03  0.43326825011E+03  0.12412213068E+04  0.95000000000E+03 0.  0.
<mgrwt>
<rscale>  0 0.24014937E+04</rscale>
<asrwt>0</asrwt>
<pdfrwt beam="1">  1        2 0.34270400E+00 0.24014937E+04</pdfrwt>
<pdfrwt beam="2">  1       -2 0.99576539E-01 0.24014937E+04</pdfrwt>
<totfact> 0.37371670E+00</totfact>
</mgrwt>
</event>
<event>
 4    1  0.1343107E-008  0.2287608E+04  0.7816531E-02  0.8482823E-01
         -2   -1    0    0    0  501 -0.00000000000E+00  0.00000000000E+00  0.10184295482E+04  0.10184295482E+04  0.00000000000E+00 0.  1.
          2   -1    0    0  501    0  0.00000000000E+00 -0.00000000000E+00 -0.12846131000E+04  0.12846131000E+04  0.00000000000E+00 0. -1.
    2000013    1    1    2    0    0  0.30937099514E+03 -0.50769916997E+03 -0.36336866923E+03  0.11781365157E+04  0.95000000000E+03 0.  0.
   -2000013    1    1    2    0    0 -0.30937099514E+03  0.50769916997E+03  0.97185117466E+02  0.11249061325E+04  0.95000000000E+03 0.  0.
<mgrwt>
<rscale>  0 0.22876083E+04</rscale>
<asrwt>0</asrwt>
<pdfrwt beam="2">  1        2 0.19763279E+00 0.22876083E+04</pdfrwt>
<pdfrwt beam="1">  1       -2 0.15668147E+00 0.22876083E+04</pdfrwt>
<totfact> 0.40846155E+00</totfact>
</mgrwt>
</event>
<event>
 4    1  0.1343107E-008  0.3325859E+04  0.7816531E-02  0.8156347E-01
         -2   -1    0    0    0  501 -0.00000000000E+00  0.00000000000E+00  0.89283172376E+03  0.89283172376E+03  0.00000000000E+00 0. -1.
          2   -1    0    0  501    0  0.00000000000E+00 -0.00000000000E+00 -0.30972629334E+04  0.30972629334E+04  0.00000000000E+00 0.  1.
    2000013    1    1    2    0    0 -0.12831634526E+04  0.42513224820E+03 -0.87588900464E+03  0.18700073323E+04  0.95000000000E+03 0.  0.
   -2000013    1    1    2    0    0  0.12831634526E+04 -0.42513224820E+03 -0.13285422050E+04  0.21200873248E+04  0.95000000000E+03 0.  0.
<mgrwt>
<rscale>  0 0.33258590E+04</rscale>
<asrwt>0</asrwt>
<pdfrwt beam="2">  1        2 0.47650200E+00 0.33258590E+04</pdfrwt>
<pdfrwt beam="1">  1       -2 0.13735872E+00 0.33258590E+04</pdfrwt>
<totfact> 0.47478521E-01</totfact>
</mgrwt>
</event>
<event>
 4    1  0.1343107E-008  0.2031324E+04  0.7816531E-02  0.8592114E-01
         -2   -1    0    0    0  501 -0.00000000000E+00  0.00000000000E+00  0.24951611522E+03  0.24951611522E+03  0.00000000000E+00 0. -1.
          2   -1    0    0  501    0  0.00000000000E+00 -0.00000000000E+00 -0.41342778580E+04  0.41342778580E+04  0.00000000000E+00 0.  1.
    2000013    1    1    2    0    0  0.35494923809E+03 -0.10365315477E+02 -0.20600426801E+04  0.22961646817E+04  0.95000000000E+03 0.  0.
   -2000013    1    1    2    0    0 -0.35494923809E+03  0.10365315477E+02 -0.18247190627E+04  0.20876292916E+04  0.95000000000E+03 0.  0.
<mgrwt>
<rscale>  0 0.20313237E+04</rscale>
<asrwt>0</asrwt>
<pdfrwt beam="2">  1        2 0.63604275E+00 0.20313237E+04</pdfrwt>
<pdfrwt beam="1">  1       -2 0.38387095E-01 0.20313237E+04</pdfrwt>
<totfact> 0.15908038E+00</totfact>
</mgrwt>
</event>
<event>
 4    1  0.1343107E-008  0.2193839E+04  0.7816531E-02  0.8520997E-01
          1   -1    0    0  501    0  0.00000000000E+00  0.00000000000E+00  0.67557403813E+03  0.67557403813E+03  0.00000000000E+00 0.  1.
         -1   -1    0    0    0  501 -0.00000000000E+00 -0.00000000000E+00 -0.17810520791E+04  0.17810520791E+04  0.00000000000E+00 0. -1.
    2000013    1    1    2    0    0 -0.54492616838E+03  0.14676134015E+02 -0.61967014751E+03  0.12584319646E+04  0.95000000000E+03 0.  0.
   -2000013    1    1    2    0    0  0.54492616838E+03 -0.14676134015E+02 -0.48580789342E+03  0.11981941526E+04  0.95000000000E+03 0.  0.
<mgrwt>
<rscale>  0 0.21938391E+04</rscale>
<asrwt>0</asrwt>
<pdfrwt beam="1">  1        1 0.10393447E+00 0.21938391E+04</pdfrwt>
<pdfrwt beam="2">  1       -1 0.27400801E+00 0.21938391E+04</pdfrwt>
<totfact> 0.12764643E+00</totfact>
</mgrwt>
</event>
<event>
 4    1  0.1343107E-008  0.3434909E+04  0.7816531E-02  0.8129391E-01
         -2   -1    0    0    0  501 -0.00000000000E+00  0.00000000000E+00  0.83295169328E+03  0.83295169328E+03  0.00000000000E+00 0.  1.
          2   -1    0    0  501    0  0.00000000000E+00 -0.00000000000E+00 -0.35412026084E+04  0.35412026084E+04  0.00000000000E+00 0. -1.
    2000013    1    1    2    0    0  0.27805830959E+03  0.13373706937E+04 -0.81194175024E+03  0.18513849415E+04  0.95000000000E+03 0.  0.
   -2000013    1    1    2    0    0 -0.27805830959E+03 -0.13373706937E+04 -0.18963091649E+04  0.25227693602E+04  0.95000000000E+03 0.  0.
<mgrwt>
<rscale>  0 0.34349094E+04</rscale>
<asrwt>0</asrwt>
<pdfrwt beam="2">  1        2 0.54480040E+00 0.34349094E+04</pdfrwt>
<pdfrwt beam="1">  1       -2 0.12814641E+00 0.34349094E+04</pdfrwt>
<totfact> 0.28245240E-01</totfact>
</mgrwt>
</event>
<event>
 4    1  0.1343107E-008  0.2366435E+04  0.7816531E-02  0.8452178E-01
         -2   -1    0    0    0  501 -0.00000000000E+00  0.00000000000E+00  0.45642081878E+03  0.45642081878E+03  0.00000000000E+00 0. -1.
          2   -1    0    0  501    0  0.00000000000E+00 -0.00000000000E+00 -0.30673519896E+04  0.30673519896E+04  0.00000000000E+00 0.  1.
    2000013    1    1    2    0    0  0.42559397749E+03  0.41417681681E+03 -0.18721530350E+04  0.21817721365E+04  0.95000000000E+03 0.  0.
   -2000013    1    1    2    0    0 -0.42559397749E+03 -0.41417681681E+03 -0.73877813578E+03  0.13420006718E+04  0.95000000000E+03 0.  0.
<mgrwt>
<rscale>  0 0.23664347E+04</rscale>
<asrwt>0</asrwt>
<pdfrwt beam="2">  1        2 0.47190030E+00 0.23664347E+04</pdfrwt>
<pdfrwt beam="1">  1       -2 0.70218589E-01 0.23664347E+04</pdfrwt>
<totfact> 0.26302208E+00</totfact>
</mgrwt>
</event>
<event>
 4    1  0.1343107E-008  0.2990203E+04  0.7816531E-02  0.8246534E-01
          2   -1    0    0  501    0  0.00000000000E+00  0.00000000000E+00  0.12829632813E+04  0.12829632813E+04  0.00000000000E+00 0.  1.
         -2   -1    0    0    0  501 -0.00000000000E+00 -0.00000000000E+00 -0.17423171841E+04  0.17423171841E+04  0.00000000000E+00 0. -1.
    2000013    1    1    2    0    0  0.10957632329E+04  0.36347384648E+03 -0.22530515624E+03  0.15119764261E+04  0.95000000000E+03 0.  0.
   -2000013    1    1    2    0    0 -0.10957632329E+04 -0.36347384648E+03 -0.23404874660E+03  0.15133040393E+04  0.95000000000E+03 0.  0.
<mgrwt>
<rscale>  0 0.29902033E+04</rscale>
<asrwt>0</asrwt>
<pdfrwt beam="1">  1        2 0.19737897E+00 0.29902033E+04</pdfrwt>
<pdfrwt beam="2">  1       -2 0.26804880E+00 0.29902033E+04</pdfrwt>
<totfact> 0.72188501E-01</totfact>
</mgrwt>
</event>
<event>
 4    1  0.1343107E-008  0.2350553E+04  0.7816531E-02  0.8458251E-01
          2   -1    0    0  501    0  0.00000000000E+00  0.00000000000E+00  0.10519994383E+04  0.10519994383E+04  0.00000000000E+00 0.  1.
         -2   -1    0    0    0  501 -0.00000000000E+00 -0.00000000000E+00 -0.13129994930E+04  0.13129994930E+04  0.00000000000E+00 0. -1.
    2000013    1    1    2    0    0  0.66032014533E+03 -0.66101969583E+02  0.66618712343E+02  0.11607455438E+04  0.95000000000E+03 0.  0.
   -2000013    1    1    2    0    0 -0.66032014533E+03  0.66101969583E+02 -0.32761876702E+03  0.12042533875E+04  0.95000000000E+03 0.  0.
<mgrwt>
<rscale>  0 0.23505529E+04</rscale>
<asrwt>0</asrwt>
<pdfrwt beam="1">  1        2 0.16184607E+00 0.23505529E+04</pdfrwt>
<pdfrwt beam="2">  1       -2 0.20199992E+00 0.23505529E+04</pdfrwt>
<totfact> 0.27189752E+00</totfact>
</mgrwt>
</event>
<event>
 4    1  0.1343107E-008  0.2419434E+04  0.7816531E-02  0.8432264E-01
          2   -1    0    0  501    0  0.00000000000E+00  0.00000000000E+00  0.14333742949E+04  0.14333742949E+04  0.00000000000E+00 0.  1.
         -2   -1    0    0    0  501 -0.00000000000E+00 -0.00000000000E+00 -0.10209579240E+04  0.10209579240E+04  0.00000000000E+00 0. -1.
    2000013    1    1    2    0    0  0.27681798759E+03  0.60523367020E+03  0.55464313106E+03  0.12857157527E+04  0.95000000000E+03 0.  0.
   -2000013    1    1    2    0    0 -0.27681798759E+03 -0.60523367020E+03 -0.14222676010E+03  0.11686164662E+04  0.95000000000E+03 0.  0.
<mgrwt>
<rscale>  0 0.24194337E+04</rscale>
<asrwt>0</asrwt>
<pdfrwt beam="1">  1        2 0.22051912E+00 0.24194337E+04</pdfrwt>
<pdfrwt beam="2">  1       -2 0.15707045E+00 0.24194337E+04</pdfrwt>
<totfact> 0.32936321E+00</totfact>
</mgrwt>
</event>
<event>
 4    1  0.1343107E-008  0.1952554E+04  0.7816531E-02  0.8629130E-01
          2   -1    0    0  501    0  0.00000000000E+00  0.00000000000E+00  0.19867060349E+04  0.19867060349E+04  0.00000000000E+00 0.  1.
         -2   -1    0    0    0  501 -0.00000000000E+00 -0.00000000000E+00 -0.47974702823E+03  0.47974702823E+03  0.00000000000E+00 0. -1.
    2000013    1    1    2    0    0 -0.21459288543E+03  0.11754600450E+02  0.66942216572E+03  0.11818689915E+04  0.95000000000E+03 0.  0.
   -2000013    1    1    2    0    0  0.21459288543E+03 -0.11754600450E+02  0.83753684090E+03  0.12845840716E+04  0.95000000000E+03 0.  0.
<mgrwt>
<rscale>  0 0.19525535E+04</rscale>
<asrwt>0</asrwt>
<pdfrwt beam="1">  1        2 0.30564708E+00 0.19525535E+04</pdfrwt>
<pdfrwt beam="2">  1       -2 0.73807236E-01 0.19525535E+04</pdfrwt>
<totfact> 0.10485859E+01</totfact>
</mgrwt>
</event>
<event>
 4    1  0.1343107E-008  0.2473157E+04  0.7816531E-02  0.8412611E-01
          2   -1    0    0  501    0  0.00000000000E+00  0.00000000000E+00  0.36416264166E+04  0.36416264166E+04  0.00000000000E+00 0.  1.
         -2   -1    0    0    0  501 -0.00000000000E+00 -0.00000000000E+00 -0.41990193161E+03  0.41990193161E+03  0.00000000000E+00 0. -1.
    2000013    1    1    2    0    0 -0.38562450552E+03 -0.68983359593E+03  0.16852056483E+04  0.20897355638E+04  0.95000000000E+03 0.  0.
   -2000013    1    1    2    0    0  0.38562450552E+03  0.68983359593E+03  0.15365188367E+04  0.19717927844E+04  0.95000000000E+03 0.  0.
<mgrwt>
<rscale>  0 0.24731567E+04</rscale>
<asrwt>0</asrwt>
<pdfrwt beam="1">  1        2 0.56025020E+00 0.24731567E+04</pdfrwt>
<pdfrwt beam="2">  1       -2 0.64600299E-01 0.24731567E+04</pdfrwt>
<totfact> 0.12763652E+00</totfact>
</mgrwt>
</event>
<event>
 4    1  0.1343107E-008  0.2521349E+04  0.7816531E-02  0.8395419E-01
         -2   -1    0    0    0  501 -0.00000000000E+00  0.00000000000E+00  0.18665840648E+04  0.18665840648E+04  0.00000000000E+00 0. -1.
          2   -1    0    0  501    0  0.00000000000E+00 -0.00000000000E+00 -0.85144870111E+03  0.85144870111E+03  0.00000000000E+00 0.  1.
    2000013    1    1    2    0    0 -0.92838676342E+02 -0.79118366774E+03  0.26124842912E+03  0.12670206619E+04  0.95000000000E+03 0.  0.
   -2000013    1    1    2    0    0  0.92838676342E+02  0.79118366774E+03  0.75388693457E+03  0.14510121040E+04  0.95000000000E+03 0.  0.
<mgrwt>
<rscale>  0 0.25213493E+04</rscale>
<asrwt>0</asrwt>
<pdfrwt beam="2">  1        2 0.13099211E+00 0.25213493E+04</pdfrwt>
<pdfrwt beam="1">  1       -2 0.28716678E+00 0.25213493E+04</pdfrwt>
<totfact> 0.10735390E+00</totfact>
</mgrwt>
</event>
<event>
 4    1  0.1343107E-008  0.4097951E+04  0.7816531E-02  0.7985073E-01
          2   -1    0    0  501    0  0.00000000000E+00  0.00000000000E+00  0.34156774736E+04  0.34156774736E+04  0.00000000000E+00 0. -1.
         -2   -1    0    0    0  501 -0.00000000000E+00 -0.00000000000E+00 -0.12291269297E+04  0.12291269297E+04  0.00000000000E+00 0.  1.
    2000013    1    1    2    0    0  0.16509127409E+04 -0.37302755486E+03  0.34904186724E+03  0.19720529050E+04  0.95000000000E+03 0.  0.
   -2000013    1    1    2    0    0 -0.16509127409E+04  0.37302755486E+03  0.18375086767E+04  0.26727514983E+04  0.95000000000E+03 0.  0.
<mgrwt>
<rscale>  0 0.40979513E+04</rscale>
<asrwt>0</asrwt>
<pdfrwt beam="1">  1        2 0.52548884E+00 0.40979513E+04</pdfrwt>
<pdfrwt beam="2">  1       -2 0.18909645E+00 0.40979513E+04</pdfrwt>
<totfact> 0.11424773E-01</totfact>
</mgrwt>
</event>
<event>
 4    1  0.1343107E-008  0.3286624E+04  0.7816531E-02  0.8166307E-01
          2   -1    0    0  501    0  0.00000000000E+00  0.00000000000E+00  0.33136909859E+04  0.33136909859E+04  0.00000000000E+00 0.  1.
         -2   -1    0    0    0  501 -0.00000000000E+00 -0.00000000000E+00 -0.81494439120E+03  0.81494439120E+03  0.00000000000E+00 0. -1.
    2000013    1    1    2    0    0  0.91131829028E+03  0.84347817945E+03  0.18849841437E+04  0.24490042236E+04  0.95000000000E+03 0.  0.
   -2000013    1    1    2    0    0 -0.91131829028E+03 -0.84347817945E+03  0.61376245101E+03  0.16796311535E+04  0.95000000000E+03 0.  0.
<mgrwt>
<rscale>  0 0.32866237E+04</rscale>
<asrwt>0</asrwt>
<pdfrwt beam="1">  1        2 0.50979861E+00 0.32866237E+04</pdfrwt>
<pdfrwt beam="2">  1       -2 0.12537606E+00 0.32866237E+04</pdfrwt>
<totfact> 0.43344260E-01</totfact>
</mgrwt>
</event>
<event>
 4    1  0.1343107E-008  0.3711981E+04  0.7816531E-02  0.8065312E-01
         -1   -1    0    0    0  501 -0.00000000000E+00  0.00000000000E+00  0.16477183546E+04  0.16477183546E+04  0.00000000000E+00 0. -1.
          1   -1    0    0  501    0  0.00000000000E+00 -0.00000000000E+00 -0.20905883370E+04  0.20905883370E+04  0.00000000000E+00 0.  1.
    2000013    1    1    2    0    0  0.14192334676E+04  0.21426190588E+03 -0.92067097879E+03  0.19519904844E+04  0.95000000000E+03 0.  0.
   -2000013    1    1    2    0    0 -0.14192334676E+04 -0.21426190588E+03  0.47780099642E+03  0.17863162072E+04  0.95000000000E+03 0.  0.
<mgrwt>
<rscale>  0 0.37119810E+04</rscale>
<asrwt>0</asrwt>
<pdfrwt beam="2">  1        1 0.32162897E+00 0.37119810E+04</pdfrwt>
<pdfrwt beam="1">  1       -1 0.25349513E+00 0.37119810E+04</pdfrwt>
<totfact> 0.13713691E-01</totfact>
</mgrwt>
</event>
<event>
 4    1  0.1343107E-008  0.2654358E+04  0.7816531E-02  0.8349968E-01
          2   -1    0    0  501    0  0.00000000000E+00  0.00000000000E+00  0.27051899020E+04  0.27051899020E+04  0.00000000000E+00 0.  1.
         -2   -1    0    0    0  501 -0.00000000000E+00 -0.00000000000E+00 -0.65112022297E+03  0.65112022297E+03  0.00000000000E+00 0. -1.
    2000013    1    1    2    0    0  0.34678900279E+03 -0.71450050801E+03  0.16309752194E+04  0.20477679934E+04  0.95000000000E+03 0.  0.
   -2000013    1    1    2    0    0 -0.34678900279E+03  0.71450050801E+03  0.42309445964E+03  0.13085421316E+04  0.95000000000E+03 0.  0.
<mgrwt>
<rscale>  0 0.26543578E+04</rscale>
<asrwt>0</asrwt>
<pdfrwt beam="1">  1        2 0.41618306E+00 0.26543578E+04</pdfrwt>
<pdfrwt beam="2">  1       -2 0.10017234E+00 0.26543578E+04</pdfrwt>
<totfact> 0.19095209E+00</totfact>
</mgrwt>
</event>
<event>
 4    1  0.1343107E-008  0.2715367E+04  0.7816531E-02  0.8330036E-01
          2   -1    0    0  501    0  0.00000000000E+00  0.00000000000E+00  0.18306287651E+04  0.18306287651E+04  0.00000000000E+00 0.  1.
         -2   -1    0    0    0  501 -0.00000000000E+00 -0.00000000000E+00 -0.10069240266E+04  0.10069240266E+04  0.00000000000E+00 0. -1.
    2000013    1    1    2    0    0  0.76284705518E+03  0.31331696931E+03 -0.12171192026E+03  0.12638896093E+04  0.95000000000E+03 0.  0.
   -2000013    1    1    2    0    0 -0.76284705518E+03 -0.31331696931E+03  0.94541665880E+03  0.15736631824E+04  0.95000000000E+03 0.  0.
<mgrwt>
<rscale>  0 0.27153667E+04</rscale>
<asrwt>0</asrwt>
<pdfrwt beam="1">  1        2 0.28163519E+00 0.27153667E+04</pdfrwt>
<pdfrwt beam="2">  1       -2 0.15491139E+00 0.27153667E+04</pdfrwt>
<totfact> 0.19991927E+00</totfact>
</mgrwt>
</event>
<event>
 4    1  0.1343107E-008  0.3617692E+04  0.7816531E-02  0.8086451E-01
          2   -1    0    0  501    0  0.00000000000E+00  0.00000000000E+00  0.28576530200E+04  0.28576530200E+04  0.00000000000E+00 0.  1.
         -2   -1    0    0    0  501 -0.00000000000E+00 -0.00000000000E+00 -0.11449689501E+04  0.11449689501E+04  0.00000000000E+00 0. -1.
    2000013    1    1    2    0    0  0.53607126084E+03 -0.13267329595E+04  0.14840058226E+04  0.22698823811E+04  0.95000000000E+03 0.  0.
   -2000013    1    1    2    0    0 -0.53607126084E+03  0.13267329595E+04  0.22867824731E+03  0.17327395890E+04  0.95000000000E+03 0.  0.
<mgrwt>
<rscale>  0 0.36176921E+04</rscale>
<asrwt>0</asrwt>
<pdfrwt beam="1">  1        2 0.43963892E+00 0.36176921E+04</pdfrwt>
<pdfrwt beam="2">  1       -2 0.17614907E+00 0.36176921E+04</pdfrwt>
<totfact> 0.33464474E-01</totfact>
</mgrwt>
</event>
<event>
 4    1  0.1343107E-008  0.2130423E+04  0.7816531E-02  0.8547959E-01
          2   -1    0    0  501    0  0.00000000000E+00  0.00000000000E+00  0.24068898152E+04  0.24068898152E+04  0.00000000000E+00 0.  1.
         -2   -1    0    0    0  501 -0.00000000000E+00 -0.00000000000E+00 -0.47142828330E+03  0.47142828330E+03  0.00000000000E+00 0. -1.
    2000013    1    1    2    0    0  0.38053330172E+03 -0.29535560632E+03  0.95200935869E+03  0.14285875356E+04  0.95000000000E+03 0.  0.
   -2000013    1    1    2    0    0 -0.38053330172E+03  0.29535560632E+03  0.98345217318E+03  0.14497305628E+04  0.95000000000E+03 0.  0.
<mgrwt>
<rscale>  0 0.21304234E+04</rscale>
<asrwt>0</asrwt>
<pdfrwt beam="1">  1        2 0.37029073E+00 0.21304234E+04</pdfrwt>
<pdfrwt beam="2">  1       -2 0.72527429E-01 0.21304234E+04</pdfrwt>
<totfact> 0.62283292E+00</totfact>
</mgrwt>
</event>
<event>
 4    1  0.1343107E-008  0.2043870E+04  0.7816531E-02  0.8586380E-01
          2   -1    0    0  501    0  0.00000000000E+00  0.00000000000E+00  0.23265281374E+04  0.23265281374E+04  0.00000000000E+00 0.  1.
         -2   -1    0    0    0  501 -0.00000000000E+00 -0.00000000000E+00 -0.44888818328E+03  0.44888818328E+03  0.00000000000E+00 0. -1.
    2000013    1    1    2    0    0 -0.25066642864E+03 -0.45370349071E+02  0.56211251823E+03  0.11328559530E+04  0.95000000000E+03 0.  0.
   -2000013    1    1    2    0    0  0.25066642864E+03  0.45370349071E+02  0.13155274359E+04  0.16425603678E+04  0.95000000000E+03 0.  0.
<mgrwt>
<rscale>  0 0.20438698E+04</rscale>
<asrwt>0</asrwt>
<pdfrwt beam="1">  1        2 0.35792740E+00 0.20438698E+04</pdfrwt>
<pdfrwt beam="2">  1       -2 0.69059722E-01 0.20438698E+04</pdfrwt>
<totfact> 0.77625450E+00</totfact>
</mgrwt>
</event>
<event>
 4    1  0.1343107E-008  0.2496902E+04  0.7816531E-02  0.8404090E-01
          2   -1    0    0  501    0  0.00000000000E+00  0.00000000000E+00  0.24949202717E+04  0.24949202717E+04  0.00000000000E+00 0.  1.
         -2   -1    0    0    0  501 -0.00000000000E+00 -0.00000000000E+00 -0.62472142944E+03  0.62472142944E+03  0.00000000000E+00 0. -1.
    2000013    1    1    2    0    0  0.38459119465E+03  0.56178475024E+03  0.38675776216E+03  0.12310946589E+04  0.95000000000E+03 0.  0.
   -2000013    1    1    2    0    0 -0.38459119465E+03 -0.56178475024E+03  0.14834410801E+04  0.18885470423E+04  0.95000000000E+03 0.  0.
<mgrwt>
<rscale>  0 0.24969022E+04</rscale>
<asrwt>0</asrwt>
<pdfrwt beam="1">  1        2 0.38383388E+00 0.24969022E+04</pdfrwt>
<pdfrwt beam="2">  1       -2 0.96110990E-01 0.24969022E+04</pdfrwt>
<totfact> 0.28352994E+00</totfact>
</mgrwt>
</event>
<event>
 4    1  0.1343107E-008  0.1969576E+04  0.7816531E-02  0.8620978E-01
         -2   -1    0    0    0  501 -0.00000000000E+00  0.00000000000E+00  0.63458787875E+03  0.63458787875E+03  0.00000000000E+00 0. -1.
          2   -1    0    0  501    0  0.00000000000E+00 -0.00000000000E+00 -0.15282478339E+04  0.15282478339E+04  0.00000000000E+00 0.  1.
    2000013    1    1    2    0    0 -0.23520349995E+03  0.64759747633E+02 -0.54377024278E+03  0.11214725089E+04  0.95000000000E+03 0.  0.
   -2000013    1    1    2    0    0  0.23520349995E+03 -0.64759747633E+02 -0.34988971239E+03  0.10413632038E+04  0.95000000000E+03 0.  0.
<mgrwt>
<rscale>  0 0.19695761E+04</rscale>
<asrwt>0</asrwt>
<pdfrwt beam="2">  1        2 0.23511505E+00 0.19695761E+04</pdfrwt>
<pdfrwt beam="1">  1       -2 0.97628904E-01 0.19695761E+04</pdfrwt>
<totfact> 0.99631592E+00</totfact>
</mgrwt>
</event>
<event>
 4    1  0.1343107E-008  0.2833217E+04  0.7816531E-02  0.8293029E-01
          2   -1    0    0  501    0  0.00000000000E+00  0.00000000000E+00  0.21544879529E+04  0.21544879529E+04  0.00000000000E+00 0.  1.
         -2   -1    0    0    0  501 -0.00000000000E+00 -0.00000000000E+00 -0.93144170127E+03  0.93144170127E+03  0.00000000000E+00 0. -1.
    2000013    1    1    2    0    0 -0.49654674668E+03 -0.68497283338E+03  0.12904458901E+04  0.18120422316E+04  0.95000000000E+03 0.  0.
   -2000013    1    1    2    0    0  0.49654674668E+03  0.68497283338E+03 -0.67399638394E+02  0.12738874226E+04  0.95000000000E+03 0.  0.
<mgrwt>
<rscale>  0 0.28332172E+04</rscale>
<asrwt>0</asrwt>
<pdfrwt beam="1">  1        2 0.33145968E+00 0.28332172E+04</pdfrwt>
<pdfrwt beam="2">  1       -2 0.14329872E+00 0.28332172E+04</pdfrwt>
<totfact> 0.16063977E+00</totfact>
</mgrwt>
</event>
<event>
 4    1  0.1343107E-008  0.2866868E+04  0.7816531E-02  0.8282804E-01
         -2   -1    0    0    0  501 -0.00000000000E+00  0.00000000000E+00  0.91766859096E+03  0.91766859096E+03  0.00000000000E+00 0. -1.
          2   -1    0    0  501    0  0.00000000000E+00 -0.00000000000E+00 -0.22390800409E+04  0.22390800409E+04  0.00000000000E+00 0.  1.
    2000013    1    1    2    0    0 -0.10396876107E+04  0.54463713968E+02 -0.94850919568E+03  0.16988485272E+04  0.95000000000E+03 0.  0.
   -2000013    1    1    2    0    0  0.10396876107E+04 -0.54463713968E+02 -0.37290225428E+03  0.14579001047E+04  0.95000000000E+03 0.  0.
<mgrwt>
<rscale>  0 0.28668683E+04</rscale>
<asrwt>0</asrwt>
<pdfrwt beam="2">  1        2 0.34447385E+00 0.28668683E+04</pdfrwt>
<pdfrwt beam="1">  1       -2 0.14117979E+00 0.28668683E+04</pdfrwt>
<totfact> 0.14925503E+00</totfact>
</mgrwt>
</event>
<event>
 4    1  0.1343107E-008  0.3255814E+04  0.7816531E-02  0.8174230E-01
          2   -1    0    0  501    0  0.00000000000E+00  0.00000000000E+00  0.39341848339E+04  0.39341848339E+04  0.00000000000E+00 0.  1.
         -2   -1    0    0    0  501 -0.00000000000E+00 -0.00000000000E+00 -0.67360366351E+03  0.67360366351E+03  0.00000000000E+00 0. -1.
    2000013    1    1    2    0    0  0.51160759814E+03  0.10851663368E+04  0.84453658765E+03  0.17478759570E+04  0.95000000000E+03 0.  0.
   -2000013    1    1    2    0    0 -0.51160759814E+03 -0.10851663368E+04  0.24160445827E+04  0.28599125404E+04  0.95000000000E+03 0.  0.
<mgrwt>
<rscale>  0 0.32558141E+04</rscale>
<asrwt>0</asrwt>
<pdfrwt beam="1">  1        2 0.60525919E+00 0.32558141E+04</pdfrwt>
<pdfrwt beam="2">  1       -2 0.10363134E+00 0.32558141E+04</pdfrwt>
<totfact> 0.24519265E-01</totfact>
</mgrwt>
</event>
<event>
 4    1  0.1343107E-008  0.2352791E+04  0.7816531E-02  0.8457392E-01
          2   -1    0    0  501    0  0.00000000000E+00  0.00000000000E+00  0.82341283536E+03  0.82341283536E+03  0.00000000000E+00 0. -1.
         -2   -1    0    0    0  501 -0.00000000000E+00 -0.00000000000E+00 -0.16806959316E+04  0.16806959316E+04  0.00000000000E+00 0.  1.
    2000013    1    1    2    0    0 -0.64714587781E+03 -0.24662686690E+03 -0.38368761615E+03  0.12366643787E+04  0.95000000000E+03 0.  0.
   -2000013    1    1    2    0    0  0.64714587781E+03  0.24662686690E+03 -0.47359548006E+03  0.12674443883E+04  0.95000000000E+03 0.  0.
<mgrwt>
<rscale>  0 0.23527912E+04</rscale>
<asrwt>0</asrwt>
<pdfrwt beam="1">  1        2 0.12667890E+00 0.23527912E+04</pdfrwt>
<pdfrwt beam="2">  1       -2 0.25856860E+00 0.23527912E+04</pdfrwt>
<totfact> 0.17028806E+00</totfact>
</mgrwt>
</event>
<event>
 4    1  0.1343107E-008  0.2849548E+04  0.7816531E-02  0.8288049E-01
         -2   -1    0    0    0  501 -0.00000000000E+00  0.00000000000E+00  0.18507518707E+04  0.18507518707E+04  0.00000000000E+00 0. -1.
          2   -1    0    0  501    0  0.00000000000E+00 -0.00000000000E+00 -0.10968413452E+04  0.10968413452E+04  0.00000000000E+00 0.  1.
    2000013    1    1    2    0    0 -0.95893850928E+03  0.45333935838E+03  0.32626368311E+03  0.14608311433E+04  0.95000000000E+03 0.  0.
   -2000013    1    1    2    0    0  0.95893850928E+03 -0.45333935838E+03  0.42764684243E+03  0.14867620725E+04  0.95000000000E+03 0.  0.
<mgrwt>
<rscale>  0 0.28495482E+04</rscale>
<asrwt>0</asrwt>
<pdfrwt beam="2">  1        2 0.16874482E+00 0.28495482E+04</pdfrwt>
<pdfrwt beam="1">  1       -2 0.28473106E+00 0.28495482E+04</pdfrwt>
<totfact> 0.74731206E-01</totfact>
</mgrwt>
</event>
<event>
 4    1  0.1343107E-008  0.2435164E+04  0.7816531E-02  0.8426455E-01
         -2   -1    0    0    0  501 -0.00000000000E+00  0.00000000000E+00  0.15661460980E+04  0.15661460980E+04  0.00000000000E+00 0.  1.
          2   -1    0    0  501    0  0.00000000000E+00 -0.00000000000E+00 -0.94659482454E+03  0.94659482454E+03  0.00000000000E+00 0. -1.
    2000013    1    1    2    0    0 -0.50208110550E+03  0.44766247126E+03 -0.58697981192E+02  0.11655181584E+04  0.95000000000E+03 0.  0.
   -2000013    1    1    2    0    0  0.50208110550E+03 -0.44766247126E+03  0.67824925465E+03  0.13472227641E+04  0.95000000000E+03 0.  0.
<mgrwt>
<rscale>  0 0.24351639E+04</rscale>
<asrwt>0</asrwt>
<pdfrwt beam="2">  1        2 0.14562997E+00 0.24351639E+04</pdfrwt>
<pdfrwt beam="1">  1       -2 0.24094555E+00 0.24351639E+04</pdfrwt>
<totfact> 0.17880505E+00</totfact>
</mgrwt>
</event>
<event>
 4    1  0.1343107E-008  0.2535528E+04  0.7816531E-02  0.8390437E-01
         -2   -1    0    0    0  501 -0.00000000000E+00  0.00000000000E+00  0.13318173152E+04  0.13318173152E+04  0.00000000000E+00 0. -1.
          2   -1    0    0  501    0  0.00000000000E+00 -0.00000000000E+00 -0.12067917310E+04  0.12067917310E+04  0.00000000000E+00 0.  1.
    2000013    1    1    2    0    0 -0.14452108537E+03  0.73169639598E+03 -0.32326062949E+03  0.12503053205E+04  0.95000000000E+03 0.  0.
   -2000013    1    1    2    0    0  0.14452108537E+03 -0.73169639598E+03  0.44828621369E+03  0.12883037256E+04  0.95000000000E+03 0.  0.
<mgrwt>
<rscale>  0 0.25355284E+04</rscale>
<asrwt>0</asrwt>
<pdfrwt beam="2">  1        2 0.18566027E+00 0.25355284E+04</pdfrwt>
<pdfrwt beam="1">  1       -2 0.20489497E+00 0.25355284E+04</pdfrwt>
<totfact> 0.20616692E+00</totfact>
</mgrwt>
</event>
<event>
 4    1  0.1343107E-008  0.2833398E+04  0.7816531E-02  0.8292974E-01
         -2   -1    0    0    0  501 -0.00000000000E+00  0.00000000000E+00  0.91416700778E+03  0.91416700778E+03  0.00000000000E+00 0. -1.
          2   -1    0    0  501    0  0.00000000000E+00 -0.00000000000E+00 -0.21954811380E+04  0.21954811380E+04  0.00000000000E+00 0.  1.
    2000013    1    1    2    0    0  0.91340344638E+03 -0.51603888364E+03 -0.57181641868E+03  0.15264586473E+04  0.95000000000E+03 0.  0.
   -2000013    1    1    2    0    0 -0.91340344638E+03  0.51603888364E+03 -0.70949771151E+03  0.15831894984E+04  0.95000000000E+03 0.  0.
<mgrwt>
<rscale>  0 0.28333983E+04</rscale>
<asrwt>0</asrwt>
<pdfrwt beam="2">  1        2 0.33776633E+00 0.28333983E+04</pdfrwt>
<pdfrwt beam="1">  1       -2 0.14064108E+00 0.28333983E+04</pdfrwt>
<totfact> 0.15996774E+00</totfact>
</mgrwt>
</event>
<event>
 4    1  0.1343107E-008  0.4326267E+04  0.7816531E-02  0.7941779E-01
         -1   -1    0    0    0  501 -0.00000000000E+00  0.00000000000E+00  0.21784822245E+04  0.21784822245E+04  0.00000000000E+00 0. -1.
          1   -1    0    0  501    0  0.00000000000E+00 -0.00000000000E+00 -0.21478925151E+04  0.21478925151E+04  0.00000000000E+00 0.  1.
    2000013    1    1    2    0    0  0.16113004274E+04 -0.10324390011E+04 -0.32298317706E+03  0.21607955690E+04  0.95000000000E+03 0.  0.
   -2000013    1    1    2    0    0 -0.16113004274E+04  0.10324390011E+04  0.35357288641E+03  0.21655791706E+04  0.95000000000E+03 0.  0.
<mgrwt>
<rscale>  0 0.43262666E+04</rscale>
<asrwt>0</asrwt>
<pdfrwt beam="2">  1        1 0.33044500E+00 0.43262666E+04</pdfrwt>
<pdfrwt beam="1">  1       -1 0.33515111E+00 0.43262666E+04</pdfrwt>
<totfact> 0.35085083E-02</totfact>
</mgrwt>
</event>
<event>
 4    1  0.1343107E-008  0.2559146E+04  0.7816531E-02  0.8382212E-01
         -2   -1    0    0    0  501 -0.00000000000E+00  0.00000000000E+00  0.46116749137E+03  0.46116749137E+03  0.00000000000E+00 0. -1.
          2   -1    0    0  501    0  0.00000000000E+00 -0.00000000000E+00 -0.35503528522E+04  0.35503528522E+04  0.00000000000E+00 0.  1.
    2000013    1    1    2    0    0 -0.62202504860E+03 -0.31921354749E+03 -0.76713470057E+03  0.14070565372E+04  0.95000000000E+03 0.  0.
   -2000013    1    1    2    0    0  0.62202504860E+03  0.31921354749E+03 -0.23220506602E+04  0.26044638064E+04  0.95000000000E+03 0.  0.
<mgrwt>
<rscale>  0 0.25591462E+04</rscale>
<asrwt>0</asrwt>
<pdfrwt beam="2">  1        2 0.54620813E+00 0.25591462E+04</pdfrwt>
<pdfrwt beam="1">  1       -2 0.70948844E-01 0.25591462E+04</pdfrwt>
<totfact> 0.12014113E+00</totfact>
</mgrwt>
</event>
<event>
 4    1  0.1343107E-008  0.2053150E+04  0.7816531E-02  0.8582167E-01
          2   -1    0    0  501    0  0.00000000000E+00  0.00000000000E+00  0.18352853276E+04  0.18352853276E+04  0.00000000000E+00 0.  1.
         -2   -1    0    0    0  501 -0.00000000000E+00 -0.00000000000E+00 -0.57421941282E+03  0.57421941282E+03  0.00000000000E+00 0. -1.
    2000013    1    1    2    0    0  0.37770530347E+03 -0.91068156154E+02  0.60701014610E+03  0.11924412031E+04  0.95000000000E+03 0.  0.
   -2000013    1    1    2    0    0 -0.37770530347E+03  0.91068156154E+02  0.65405576865E+03  0.12170635373E+04  0.95000000000E+03 0.  0.
<mgrwt>
<rscale>  0 0.20531502E+04</rscale>
<asrwt>0</asrwt>
<pdfrwt beam="1">  1        2 0.28235159E+00 0.20531502E+04</pdfrwt>
<pdfrwt beam="2">  1       -2 0.88341449E-01 0.20531502E+04</pdfrwt>
<totfact> 0.84164250E+00</totfact>
</mgrwt>
</event>
<event>
 4    1  0.1343107E-008  0.2988752E+04  0.7816531E-02  0.8246950E-01
          2   -1    0    0  501    0  0.00000000000E+00  0.00000000000E+00  0.17089241657E+04  0.17089241657E+04  0.00000000000E+00 0.  1.
         -2   -1    0    0    0  501 -0.00000000000E+00 -0.00000000000E+00 -0.13067631471E+04  0.13067631471E+04  0.00000000000E+00 0. -1.
    2000013    1    1    2    0    0  0.40065796390E+03 -0.10797254973E+04  0.13472179768E+03  0.14989943016E+04  0.95000000000E+03 0.  0.
   -2000013    1    1    2    0    0 -0.40065796390E+03  0.10797254973E+04  0.26743922095E+03  0.15166930113E+04  0.95000000000E+03 0.  0.
<mgrwt>
<rscale>  0 0.29887517E+04</rscale>
<asrwt>0</asrwt>
<pdfrwt beam="1">  1        2 0.26291141E+00 0.29887517E+04</pdfrwt>
<pdfrwt beam="2">  1       -2 0.20104049E+00 0.29887517E+04</pdfrwt>
<totfact> 0.10877231E+00</totfact>
</mgrwt>
</event>
<event>
 4    1  0.1343107E-008  0.2290390E+04  0.7816531E-02  0.8481720E-01
          2   -1    0    0  501    0  0.00000000000E+00  0.00000000000E+00  0.23027841491E+04  0.23027841491E+04  0.00000000000E+00 0. -1.
         -2   -1    0    0    0  501 -0.00000000000E+00 -0.00000000000E+00 -0.56951585927E+03  0.56951585927E+03  0.00000000000E+00 0.  1.
    2000013    1    1    2    0    0 -0.45384187405E+03 -0.39526141461E+03  0.11378374379E+04  0.15998056343E+04  0.95000000000E+03 0.  0.
   -2000013    1    1    2    0    0  0.45384187405E+03  0.39526141461E+03  0.59543085192E+03  0.12724943740E+04  0.95000000000E+03 0.  0.
<mgrwt>
<rscale>  0 0.22903904E+04</rscale>
<asrwt>0</asrwt>
<pdfrwt beam="1">  1        2 0.35427448E+00 0.22903904E+04</pdfrwt>
<pdfrwt beam="2">  1       -2 0.87617826E-01 0.22903904E+04</pdfrwt>
<totfact> 0.46067277E+00</totfact>
</mgrwt>
</event>
<event>
 4    1  0.1343107E-008  0.3405344E+04  0.7816531E-02  0.8136596E-01
          2   -1    0    0  501    0  0.00000000000E+00  0.00000000000E+00  0.25717122176E+04  0.25717122176E+04  0.00000000000E+00 0.  1.
         -2   -1    0    0    0  501 -0.00000000000E+00 -0.00000000000E+00 -0.11273001993E+04  0.11273001993E+04  0.00000000000E+00 0. -1.
    2000013    1    1    2    0    0  0.52583915233E+03  0.11894281477E+04  0.13224400534E+04  0.20838891111E+04  0.95000000000E+03 0.  0.
   -2000013    1    1    2    0    0 -0.52583915233E+03 -0.11894281477E+04  0.12197196493E+03  0.16151233058E+04  0.95000000000E+03 0.  0.
<mgrwt>
<rscale>  0 0.34053439E+04</rscale>
<asrwt>0</asrwt>
<pdfrwt beam="1">  1        2 0.39564803E+00 0.34053439E+04</pdfrwt>
<pdfrwt beam="2">  1       -2 0.17343080E+00 0.34053439E+04</pdfrwt>
<totfact> 0.52756880E-01</totfact>
</mgrwt>
</event>
<event>
 4    1  0.1343107E-008  0.2274939E+04  0.7816531E-02  0.8487868E-01
         -2   -1    0    0    0  501 -0.00000000000E+00  0.00000000000E+00  0.78810647837E+03  0.78810647837E+03  0.00000000000E+00 0. -1.
          2   -1    0    0  501    0  0.00000000000E+00 -0.00000000000E+00 -0.16417030412E+04  0.16417030412E+04  0.00000000000E+00 0.  1.
    2000013    1    1    2    0    0 -0.51183501121E+03  0.27159303109E+03 -0.17495186539E+03  0.11264306496E+04  0.95000000000E+03 0.  0.
   -2000013    1    1    2    0    0  0.51183501121E+03 -0.27159303109E+03 -0.67864469744E+03  0.13033788699E+04  0.95000000000E+03 0.  0.
<mgrwt>
<rscale>  0 0.22749389E+04</rscale>
<asrwt>0</asrwt>
<pdfrwt beam="2">  1        2 0.25256970E+00 0.22749389E+04</pdfrwt>
<pdfrwt beam="1">  1       -2 0.12124715E+00 0.22749389E+04</pdfrwt>
<totfact> 0.49694751E+00</totfact>
</mgrwt>
</event>
<event>
 4    1  0.1343107E-008  0.1927504E+04  0.7816531E-02  0.8641286E-01
         -2   -1    0    0    0  501 -0.00000000000E+00  0.00000000000E+00  0.41969780408E+03  0.41969780408E+03  0.00000000000E+00 0. -1.
          2   -1    0    0  501    0  0.00000000000E+00 -0.00000000000E+00 -0.22130626588E+04  0.22130626588E+04  0.00000000000E+00 0.  1.
    2000013    1    1    2    0    0  0.20592951101E+02 -0.16060771972E+03 -0.91024738119E+03  0.13256203092E+04  0.95000000000E+03 0.  0.
   -2000013    1    1    2    0    0 -0.20592951101E+02  0.16060771972E+03 -0.88311747356E+03  0.13071401537E+04  0.95000000000E+03 0.  0.
<mgrwt>
<rscale>  0 0.19275036E+04</rscale>
<asrwt>0</asrwt>
<pdfrwt beam="2">  1        2 0.34047117E+00 0.19275036E+04</pdfrwt>
<pdfrwt beam="1">  1       -2 0.64568894E-01 0.19275036E+04</pdfrwt>
<totfact> 0.10508636E+01</totfact>
</mgrwt>
</event>
<event>
 4    1  0.1343107E-008  0.2300143E+04  0.7816531E-02  0.8477865E-01
         -2   -1    0    0    0  501 -0.00000000000E+00  0.00000000000E+00  0.44242618080E+03  0.44242618080E+03  0.00000000000E+00 0.  1.
          2   -1    0    0  501    0  0.00000000000E+00 -0.00000000000E+00 -0.29895698376E+04  0.29895698376E+04  0.00000000000E+00 0. -1.
    2000013    1    1    2    0    0  0.63902149282E+03 -0.10058098173E+03 -0.12120705679E+04  0.16703532751E+04  0.95000000000E+03 0.  0.
   -2000013    1    1    2    0    0 -0.63902149282E+03  0.10058098173E+03 -0.13350730889E+04  0.17616427433E+04  0.95000000000E+03 0.  0.
<mgrwt>
<rscale>  0 0.23001426E+04</rscale>
<asrwt>0</asrwt>
<pdfrwt beam="2">  1        2 0.45993380E+00 0.23001426E+04</pdfrwt>
<pdfrwt beam="1">  1       -2 0.68065569E-01 0.23001426E+04</pdfrwt>
<totfact> 0.31690135E+00</totfact>
</mgrwt>
</event>
<event>
 4    1  0.1343107E-008  0.2584818E+04  0.7816531E-02  0.8373376E-01
         -2   -1    0    0    0  501 -0.00000000000E+00  0.00000000000E+00  0.10921116046E+04  0.10921116046E+04  0.00000000000E+00 0. -1.
          2   -1    0    0  501    0  0.00000000000E+00 -0.00000000000E+00 -0.15294419636E+04  0.15294419636E+04  0.00000000000E+00 0.  1.
    2000013    1    1    2    0    0  0.67017775151E+03  0.30911810094E+03 -0.69774384804E+03  0.13906971980E+04  0.95000000000E+03 0.  0.
   -2000013    1    1    2    0    0 -0.67017775151E+03 -0.30911810094E+03  0.26041348899E+03  0.12308563703E+04  0.95000000000E+03 0.  0.
<mgrwt>
<rscale>  0 0.25848182E+04</rscale>
<asrwt>0</asrwt>
<pdfrwt beam="2">  1        2 0.23529876E+00 0.25848182E+04</pdfrwt>
<pdfrwt beam="1">  1       -2 0.16801717E+00 0.25848182E+04</pdfrwt>
<totfact> 0.23830807E+00</totfact>
</mgrwt>
</event>
<event>
 4    1  0.1343107E-008  0.2069356E+04  0.7816531E-02  0.8574864E-01
         -1   -1    0    0    0  501 -0.00000000000E+00  0.00000000000E+00  0.37526545873E+03  0.37526545873E+03  0.00000000000E+00 0. -1.
          1   -1    0    0  501    0  0.00000000000E+00 -0.00000000000E+00 -0.28528026139E+04  0.28528026139E+04  0.00000000000E+00 0.  1.
    2000013    1    1    2    0    0  0.46176742840E+02 -0.25078483364E+03 -0.17394893558E+04  0.19983364440E+04  0.95000000000E+03 0.  0.
   -2000013    1    1    2    0    0 -0.46176742840E+02  0.25078483364E+03 -0.73804779937E+03  0.12297316287E+04  0.95000000000E+03 0.  0.
<mgrwt>
<rscale>  0 0.20693557E+04</rscale>
<asrwt>0</asrwt>
<pdfrwt beam="2">  1        1 0.43889272E+00 0.20693557E+04</pdfrwt>
<pdfrwt beam="1">  1       -1 0.57733146E-01 0.20693557E+04</pdfrwt>
<totfact> 0.21431572E+00</totfact>
</mgrwt>
</event>
<event>
 4    1  0.1343107E-008  0.3294628E+04  0.7816531E-02  0.8164264E-01
          2   -1    0    0  501    0  0.00000000000E+00  0.00000000000E+00  0.13971035387E+04  0.13971035387E+04  0.00000000000E+00 0.  1.
         -2   -1    0    0    0  501 -0.00000000000E+00 -0.00000000000E+00 -0.19423355347E+04  0.19423355347E+04  0.00000000000E+00 0. -1.
    2000013    1    1    2    0    0 -0.12758670089E+02 -0.13416071489E+04 -0.16596452305E+03  0.16523064936E+04  0.95000000000E+03 0.  0.
   -2000013    1    1    2    0    0  0.12758670089E+02  0.13416071489E+04 -0.37926747302E+03  0.16871325798E+04  0.95000000000E+03 0.  0.
<mgrwt>
<rscale>  0 0.32946283E+04</rscale>
<asrwt>0</asrwt>
<pdfrwt beam="1">  1        2 0.21493901E+00 0.32946283E+04</pdfrwt>
<pdfrwt beam="2">  1       -2 0.29882085E+00 0.32946283E+04</pdfrwt>
<totfact> 0.39219962E-01</totfact>
</mgrwt>
</event>
<event>
 4    1  0.1343107E-008  0.3359739E+04  0.7816531E-02  0.8147859E-01
          2   -1    0    0  501    0  0.00000000000E+00  0.00000000000E+00  0.35540385614E+04  0.35540385614E+04  0.00000000000E+00 0.  1.
         -2   -1    0    0    0  501 -0.00000000000E+00 -0.00000000000E+00 -0.79401551947E+03  0.79401551947E+03  0.00000000000E+00 0. -1.
    2000013    1    1    2    0    0 -0.34495221129E+03 -0.13133978595E+04  0.17355083395E+04  0.23996864716E+04  0.95000000000E+03 0.  0.
   -2000013    1    1    2    0    0  0.34495221129E+03  0.13133978595E+04  0.10245147024E+04  0.19483676093E+04  0.95000000000E+03 0.  0.
<mgrwt>
<rscale>  0 0.33597391E+04</rscale>
<asrwt>0</asrwt>
<pdfrwt beam="1">  1        2 0.54677516E+00 0.33597391E+04</pdfrwt>
<pdfrwt beam="2">  1       -2 0.12215624E+00 0.33597391E+04</pdfrwt>
<totfact> 0.31388189E-01</totfact>
</mgrwt>
</event>
<event>
 4    1  0.1343107E-008  0.2787448E+04  0.7816531E-02  0.8307176E-01
          2   -1    0    0  501    0  0.00000000000E+00  0.00000000000E+00  0.11926528985E+04  0.11926528985E+04  0.00000000000E+00 0.  1.
         -2   -1    0    0    0  501 -0.00000000000E+00 -0.00000000000E+00 -0.16286938889E+04  0.16286938889E+04  0.00000000000E+00 0. -1.
    2000013    1    1    2    0    0 -0.97847419776E+03 -0.26695020070E+03 -0.32557815258E+03  0.14272964999E+04  0.95000000000E+03 0.  0.
   -2000013    1    1    2    0    0  0.97847419776E+03  0.26695020070E+03 -0.11046283790E+03  0.13940502874E+04  0.95000000000E+03 0.  0.
<mgrwt>
<rscale>  0 0.27874479E+04</rscale>
<asrwt>0</asrwt>
<pdfrwt beam="1">  1        2 0.18348506E+00 0.27874479E+04</pdfrwt>
<pdfrwt beam="2">  1       -2 0.25056829E+00 0.27874479E+04</pdfrwt>
<totfact> 0.10624040E+00</totfact>
</mgrwt>
</event>
<event>
 4    1  0.1343107E-008  0.2247461E+04  0.7816531E-02  0.8498929E-01
          2   -1    0    0  501    0  0.00000000000E+00  0.00000000000E+00  0.15272747151E+04  0.15272747151E+04  0.00000000000E+00 0.  1.
         -2   -1    0    0    0  501 -0.00000000000E+00 -0.00000000000E+00 -0.82681283624E+03  0.82681283624E+03  0.00000000000E+00 0. -1.
    2000013    1    1    2    0    0  0.58319590862E+03 -0.71800864695E+02  0.47850533116E+03  0.12152119914E+04  0.95000000000E+03 0.  0.
   -2000013    1    1    2    0    0 -0.58319590862E+03  0.71800864695E+02  0.22195654769E+03  0.11388755600E+04  0.95000000000E+03 0.  0.
<mgrwt>
<rscale>  0 0.22474611E+04</rscale>
<asrwt>0</asrwt>
<pdfrwt beam="1">  1        2 0.23496534E+00 0.22474611E+04</pdfrwt>
<pdfrwt beam="2">  1       -2 0.12720197E+00 0.22474611E+04</pdfrwt>
<totfact> 0.51196000E+00</totfact>
</mgrwt>
</event>
<event>
 4    1  0.1343107E-008  0.2176796E+04  0.7816531E-02  0.8528148E-01
          2   -1    0    0  501    0  0.00000000000E+00  0.00000000000E+00  0.27617932033E+04  0.27617932033E+04  0.00000000000E+00 0.  1.
         -2   -1    0    0    0  501 -0.00000000000E+00 -0.00000000000E+00 -0.42892809421E+03  0.42892809421E+03  0.00000000000E+00 0. -1.
    2000013    1    1    2    0    0  0.44970068056E+03  0.19796357841E+03  0.14621092594E+04  0.18115418203E+04  0.95000000000E+03 0.  0.
   -2000013    1    1    2    0    0 -0.44970068056E+03 -0.19796357841E+03  0.87075584973E+03  0.13791794772E+04  0.95000000000E+03 0.  0.
<mgrwt>
<rscale>  0 0.21767964E+04</rscale>
<asrwt>0</asrwt>
<pdfrwt beam="1">  1        2 0.42489125E+00 0.21767964E+04</pdfrwt>
<pdfrwt beam="2">  1       -2 0.65988939E-01 0.21767964E+04</pdfrwt>
<totfact> 0.47222738E+00</totfact>
</mgrwt>
</event>
<event>
 4    1  0.1343107E-008  0.2790191E+04  0.7816531E-02  0.8306320E-01
         -2   -1    0    0    0  501 -0.00000000000E+00  0.00000000000E+00  0.15537968124E+04  0.15537968124E+04  0.00000000000E+00 0. -1.
          2   -1    0    0  501    0  0.00000000000E+00 -0.00000000000E+00 -0.12526036925E+04  0.12526036925E+04  0.00000000000E+00 0.  1.
    2000013    1    1    2    0    0  0.75412213211E+03 -0.68340013766E+03  0.60321669894E+02  0.13935116225E+04  0.95000000000E+03 0.  0.
   -2000013    1    1    2    0    0 -0.75412213211E+03  0.68340013766E+03  0.24087144998E+03  0.14128888823E+04  0.95000000000E+03 0.  0.
<mgrwt>
<rscale>  0 0.27901911E+04</rscale>
<asrwt>0</asrwt>
<pdfrwt beam="2">  1        2 0.19270826E+00 0.27901911E+04</pdfrwt>
<pdfrwt beam="1">  1       -2 0.23904566E+00 0.27901911E+04</pdfrwt>
<totfact> 0.11525718E+00</totfact>
</mgrwt>
</event>
<event>
 4    1  0.1343107E-008  0.2253606E+04  0.7816531E-02  0.8496442E-01
         -1   -1    0    0    0  501 -0.00000000000E+00  0.00000000000E+00  0.21646486494E+04  0.21646486494E+04  0.00000000000E+00 0. -1.
          1   -1    0    0  501    0  0.00000000000E+00 -0.00000000000E+00 -0.58655458148E+03  0.58655458148E+03  0.00000000000E+00 0.  1.
    2000013    1    1    2    0    0  0.50152755620E+02  0.55185614173E+03  0.10883899501E+04  0.15473051359E+04  0.95000000000E+03 0.  0.
   -2000013    1    1    2    0    0 -0.50152755620E+02 -0.55185614173E+03  0.48970411778E+03  0.12038980950E+04  0.95000000000E+03 0.  0.
<mgrwt>
<rscale>  0 0.22536056E+04</rscale>
<asrwt>0</asrwt>
<pdfrwt beam="2">  1        1 0.90239168E-01 0.22536056E+04</pdfrwt>
<pdfrwt beam="1">  1       -1 0.33302286E+00 0.22536056E+04</pdfrwt>
<totfact> 0.64627274E-01</totfact>
</mgrwt>
</event>
<event>
 4    1  0.1343107E-008  0.3268328E+04  0.7816531E-02  0.8171001E-01
         -2   -1    0    0    0  501 -0.00000000000E+00  0.00000000000E+00  0.11392052256E+04  0.11392052256E+04  0.00000000000E+00 0.  1.
          2   -1    0    0  501    0  0.00000000000E+00 -0.00000000000E+00 -0.23441711742E+04  0.23441711742E+04  0.00000000000E+00 0. -1.
    2000013    1    1    2    0    0 -0.62486183576E+03 -0.59875326730E+03  0.47341021372E+03  0.13695163450E+04  0.95000000000E+03 0.  0.
   -2000013    1    1    2    0    0  0.62486183576E+03  0.59875326730E+03 -0.16783761623E+04  0.21138600547E+04  0.95000000000E+03 0.  0.
<mgrwt>
<rscale>  0 0.32683280E+04</rscale>
<asrwt>0</asrwt>
<pdfrwt beam="2">  1        2 0.36064171E+00 0.32683280E+04</pdfrwt>
<pdfrwt beam="1">  1       -2 0.17526235E+00 0.32683280E+04</pdfrwt>
<totfact> 0.70092496E-01</totfact>
</mgrwt>
</event>
<event>
 4    1  0.1343107E-008  0.2536980E+04  0.7816531E-02  0.8389928E-01
          2   -1    0    0  501    0  0.00000000000E+00  0.00000000000E+00  0.16766978256E+04  0.16766978256E+04  0.00000000000E+00 0.  1.
         -2   -1    0    0    0  501 -0.00000000000E+00 -0.00000000000E+00 -0.95966413458E+03  0.95966413458E+03  0.00000000000E+00 0. -1.
    2000013    1    1    2    0    0  0.78433231692E+01 -0.83864401749E+03  0.41713084817E+03  0.13341227268E+04  0.95000000000E+03 0.  0.
   -2000013    1    1    2    0    0 -0.78433231692E+01  0.83864401749E+03  0.29990284289E+03  0.13022392334E+04  0.95000000000E+03 0.  0.
<mgrwt>
<rscale>  0 0.25369799E+04</rscale>
<asrwt>0</asrwt>
<pdfrwt beam="1">  1        2 0.25795351E+00 0.25369799E+04</pdfrwt>
<pdfrwt beam="2">  1       -2 0.14764064E+00 0.25369799E+04</pdfrwt>
<totfact> 0.28077792E+00</totfact>
</mgrwt>
</event>
<event>
 4    1  0.1343107E-008  0.2457919E+04  0.7816531E-02  0.8418132E-01
         -2   -1    0    0    0  501 -0.00000000000E+00  0.00000000000E+00  0.63694149368E+03  0.63694149368E+03  0.00000000000E+00 0. -1.
          2   -1    0    0  501    0  0.00000000000E+00 -0.00000000000E+00 -0.23712403446E+04  0.23712403446E+04  0.00000000000E+00 0.  1.
    2000013    1    1    2    0    0  0.71597675212E+02  0.77611192425E+03 -0.89054497400E+03  0.15175790908E+04  0.95000000000E+03 0.  0.
   -2000013    1    1    2    0    0 -0.71597675212E+02 -0.77611192425E+03 -0.84375387695E+03  0.14906027475E+04  0.95000000000E+03 0.  0.
<mgrwt>
<rscale>  0 0.24579189E+04</rscale>
<asrwt>0</asrwt>
<pdfrwt beam="2">  1        2 0.36480620E+00 0.24579189E+04</pdfrwt>
<pdfrwt beam="1">  1       -2 0.97991002E-01 0.24579189E+04</pdfrwt>
<totfact> 0.32019092E+00</totfact>
</mgrwt>
</event>
<event>
 4    1  0.1343107E-008  0.2953142E+04  0.7816531E-02  0.8257239E-01
         -2   -1    0    0    0  501 -0.00000000000E+00  0.00000000000E+00  0.76189625972E+03  0.76189625972E+03  0.00000000000E+00 0. -1.
          2   -1    0    0  501    0  0.00000000000E+00 -0.00000000000E+00 -0.28616258123E+04  0.28616258123E+04  0.00000000000E+00 0.  1.
    2000013    1    1    2    0    0  0.10135727495E+04  0.30109897653E+03 -0.15403167517E+04  0.20959642191E+04  0.95000000000E+03 0.  0.
   -2000013    1    1    2    0    0 -0.10135727495E+04 -0.30109897653E+03 -0.55941280093E+03  0.15275578529E+04  0.95000000000E+03 0.  0.
<mgrwt>
<rscale>  0 0.29531421E+04</rscale>
<asrwt>0</asrwt>
<pdfrwt beam="2">  1        2 0.44025013E+00 0.29531421E+04</pdfrwt>
<pdfrwt beam="1">  1       -2 0.11721481E+00 0.29531421E+04</pdfrwt>
<totfact> 0.10251959E+00</totfact>
</mgrwt>
</event>
<event>
 4    1  0.1343107E-008  0.3768488E+04  0.7816531E-02  0.8052951E-01
          2   -1    0    0  501    0  0.00000000000E+00  0.00000000000E+00  0.22147995441E+04  0.22147995441E+04  0.00000000000E+00 0.  1.
         -2   -1    0    0    0  501 -0.00000000000E+00 -0.00000000000E+00 -0.16030233684E+04  0.16030233684E+04  0.00000000000E+00 0. -1.
    2000013    1    1    2    0    0  0.17766705881E+03 -0.15870508759E+04 -0.10578325806E+02  0.18582001958E+04  0.95000000000E+03 0.  0.
   -2000013    1    1    2    0    0 -0.17766705881E+03  0.15870508759E+04  0.62235450150E+03  0.19596227168E+04  0.95000000000E+03 0.  0.
<mgrwt>
<rscale>  0 0.37684880E+04</rscale>
<asrwt>0</asrwt>
<pdfrwt beam="1">  1        2 0.34073839E+00 0.37684880E+04</pdfrwt>
<pdfrwt beam="2">  1       -2 0.24661898E+00 0.37684880E+04</pdfrwt>
<totfact> 0.27456244E-01</totfact>
</mgrwt>
</event>
<event>
 4    1  0.1343107E-008  0.2145914E+04  0.7816531E-02  0.8541283E-01
         -2   -1    0    0    0  501 -0.00000000000E+00  0.00000000000E+00  0.12371278743E+04  0.12371278743E+04  0.00000000000E+00 0. -1.
          2   -1    0    0  501    0  0.00000000000E+00 -0.00000000000E+00 -0.93057195193E+03  0.93057195193E+03  0.00000000000E+00 0.  1.
    2000013    1    1    2    0    0  0.41176465603E+03  0.15532063142E+03  0.39031289225E+03  0.11173713726E+04  0.95000000000E+03 0.  0.
   -2000013    1    1    2    0    0 -0.41176465603E+03 -0.15532063142E+03 -0.83756969854E+02  0.10503284536E+04  0.95000000000E+03 0.  0.
<mgrwt>
<rscale>  0 0.21459138E+04</rscale>
<asrwt>0</asrwt>
<pdfrwt beam="2">  1        2 0.14316492E+00 0.21459138E+04</pdfrwt>
<pdfrwt beam="1">  1       -2 0.19032736E+00 0.21459138E+04</pdfrwt>
<totfact> 0.39585316E+00</totfact>
</mgrwt>
</event>
<event>
 4    1  0.1343107E-008  0.2459287E+04  0.7816531E-02  0.8417635E-01
          1   -1    0    0  501    0  0.00000000000E+00  0.00000000000E+00  0.78437297724E+03  0.78437297724E+03  0.00000000000E+00 0.  1.
         -1   -1    0    0    0  501 -0.00000000000E+00 -0.00000000000E+00 -0.19276846416E+04  0.19276846416E+04  0.00000000000E+00 0. -1.
    2000013    1    1    2    0    0  0.49865251109E+03 -0.31818762513E+03 -0.97497356501E+01  0.11191482247E+04  0.95000000000E+03 0.  0.
   -2000013    1    1    2    0    0 -0.49865251109E+03  0.31818762513E+03 -0.11335619288E+04  0.15929093941E+04  0.95000000000E+03 0.  0.
<mgrwt>
<rscale>  0 0.24592875E+04</rscale>
<asrwt>0</asrwt>
<pdfrwt beam="1">  1        1 0.12067277E+00 0.24592875E+04</pdfrwt>
<pdfrwt beam="2">  1       -1 0.29656687E+00 0.24592875E+04</pdfrwt>
<totfact> 0.70728140E-01</totfact>
</mgrwt>
</event>
<event>
 4    1  0.1343107E-008  0.2646708E+04  0.7816531E-02  0.8352506E-01
          2   -1    0    0  501    0  0.00000000000E+00  0.00000000000E+00  0.19765905550E+04  0.19765905550E+04  0.00000000000E+00 0.  1.
         -2   -1    0    0    0  501 -0.00000000000E+00 -0.00000000000E+00 -0.88600357081E+03  0.88600357081E+03  0.00000000000E+00 0. -1.
    2000013    1    1    2    0    0 -0.35087930821E+03  0.84986454659E+03  0.60817577574E+03  0.14552538647E+04  0.95000000000E+03 0.  0.
   -2000013    1    1    2    0    0  0.35087930821E+03 -0.84986454659E+03  0.48241120841E+03  0.14073402611E+04  0.95000000000E+03 0.  0.
<mgrwt>
<rscale>  0 0.26467084E+04</rscale>
<asrwt>0</asrwt>
<pdfrwt beam="1">  1        2 0.30409085E+00 0.26467084E+04</pdfrwt>
<pdfrwt beam="2">  1       -2 0.13630824E+00 0.26467084E+04</pdfrwt>
<totfact> 0.23350429E+00</totfact>
</mgrwt>
</event>
<event>
 4    1  0.1343107E-008  0.3507281E+04  0.7816531E-02  0.8112067E-01
         -2   -1    0    0    0  501 -0.00000000000E+00  0.00000000000E+00  0.10604995372E+04  0.10604995372E+04  0.00000000000E+00 0. -1.
          2   -1    0    0  501    0  0.00000000000E+00 -0.00000000000E+00 -0.28998180650E+04  0.28998180650E+04  0.00000000000E+00 0.  1.
    2000013    1    1    2    0    0 -0.58168755948E+03  0.13312114307E+04 -0.63788338810E+03  0.18492916230E+04  0.95000000000E+03 0.  0.
   -2000013    1    1    2    0    0  0.58168755948E+03 -0.13312114307E+04 -0.12014351397E+04  0.21110259792E+04  0.95000000000E+03 0.  0.
<mgrwt>
<rscale>  0 0.35072814E+04</rscale>
<asrwt>0</asrwt>
<pdfrwt beam="2">  1        2 0.44612585E+00 0.35072814E+04</pdfrwt>
<pdfrwt beam="1">  1       -2 0.16315378E+00 0.35072814E+04</pdfrwt>
<totfact> 0.39386740E-01</totfact>
</mgrwt>
</event>
<event>
 4    1  0.1343107E-008  0.2426234E+04  0.7816531E-02  0.8429747E-01
          1   -1    0    0  501    0  0.00000000000E+00  0.00000000000E+00  0.53323650521E+03  0.53323650521E+03  0.00000000000E+00 0. -1.
         -1   -1    0    0    0  501 -0.00000000000E+00 -0.00000000000E+00 -0.27598503754E+04  0.27598503754E+04  0.00000000000E+00 0.  1.
    2000013    1    1    2    0    0 -0.27766247311E+03  0.49929545571E+03 -0.17820504139E+04  0.20987129577E+04  0.95000000000E+03 0.  0.
   -2000013    1    1    2    0    0  0.27766247311E+03 -0.49929545571E+03 -0.44456345628E+03  0.11943739229E+04  0.95000000000E+03 0.  0.
<mgrwt>
<rscale>  0 0.24262341E+04</rscale>
<asrwt>0</asrwt>
<pdfrwt beam="1">  1        1 0.82036388E-01 0.24262341E+04</pdfrwt>
<pdfrwt beam="2">  1       -1 0.42459235E+00 0.24262341E+04</pdfrwt>
<totfact> 0.17558874E-01</totfact>
</mgrwt>
</event>
<event>
 4    1  0.1343107E-008  0.2428174E+04  0.7816531E-02  0.8429030E-01
         -2   -1    0    0    0  501 -0.00000000000E+00  0.00000000000E+00  0.52917950997E+03  0.52917950997E+03  0.00000000000E+00 0. -1.
          2   -1    0    0  501    0  0.00000000000E+00 -0.00000000000E+00 -0.27854571423E+04  0.27854571423E+04  0.00000000000E+00 0.  1.
    2000013    1    1    2    0    0  0.46073550692E+03  0.60207731333E+01 -0.31001252445E+03  0.11004186578E+04  0.95000000000E+03 0.  0.
   -2000013    1    1    2    0    0 -0.46073550692E+03 -0.60207731333E+01 -0.19462651078E+04  0.22142179945E+04  0.95000000000E+03 0.  0.
<mgrwt>
<rscale>  0 0.24281737E+04</rscale>
<asrwt>0</asrwt>
<pdfrwt beam="2">  1        2 0.42853187E+00 0.24281737E+04</pdfrwt>
<pdfrwt beam="1">  1       -2 0.81412232E-01 0.24281737E+04</pdfrwt>
<totfact> 0.28133258E+00</totfact>
</mgrwt>
</event>
<event>
 4    1  0.1343107E-008  0.2795758E+04  0.7816531E-02  0.8304587E-01
          1   -1    0    0  501    0  0.00000000000E+00  0.00000000000E+00  0.21738033134E+04  0.21738033134E+04  0.00000000000E+00 0.  1.
         -1   -1    0    0    0  501 -0.00000000000E+00 -0.00000000000E+00 -0.89891557240E+03  0.89891557240E+03  0.00000000000E+00 0. -1.
    2000013    1    1    2    0    0  0.31024041643E+03 -0.96085753033E+03  0.44062430399E+03  0.14546979366E+04  0.95000000000E+03 0.  0.
   -2000013    1    1    2    0    0 -0.31024041643E+03  0.96085753033E+03  0.83426343698E+03  0.16180209491E+04  0.95000000000E+03 0.  0.
<mgrwt>
<rscale>  0 0.27957580E+04</rscale>
<asrwt>0</asrwt>
<pdfrwt beam="1">  1        1 0.33443128E+00 0.27957580E+04</pdfrwt>
<pdfrwt beam="2">  1       -1 0.13829470E+00 0.27957580E+04</pdfrwt>
<totfact> 0.85067027E-01</totfact>
</mgrwt>
</event>
<event>
 4    1  0.1343107E-008  0.3328318E+04  0.7816531E-02  0.8155727E-01
          2   -1    0    0  501    0  0.00000000000E+00  0.00000000000E+00  0.21150959962E+04  0.21150959962E+04  0.00000000000E+00 0.  1.
         -2   -1    0    0    0  501 -0.00000000000E+00 -0.00000000000E+00 -0.13093617224E+04  0.13093617224E+04  0.00000000000E+00 0. -1.
    2000013    1    1    2    0    0 -0.11345590440E+04  0.75716608055E+03  0.48518463747E+03  0.17315971906E+04  0.95000000000E+03 0.  0.
   -2000013    1    1    2    0    0  0.11345590440E+04 -0.75716608055E+03  0.32054963639E+03  0.16928605280E+04  0.95000000000E+03 0.  0.
<mgrwt>
<rscale>  0 0.33283183E+04</rscale>
<asrwt>0</asrwt>
<pdfrwt beam="1">  1        2 0.32539938E+00 0.33283183E+04</pdfrwt>
<pdfrwt beam="2">  1       -2 0.20144027E+00 0.33283183E+04</pdfrwt>
<totfact> 0.62494377E-01</totfact>
</mgrwt>
</event>
<event>
 4    1  0.1343107E-008  0.4019820E+04  0.7816531E-02  0.8000560E-01
         -2   -1    0    0    0  501 -0.00000000000E+00  0.00000000000E+00  0.44775694920E+04  0.44775694920E+04  0.00000000000E+00 0. -1.
          2   -1    0    0  501    0  0.00000000000E+00 -0.00000000000E+00 -0.90221674461E+03  0.90221674461E+03  0.00000000000E+00 0.  1.
    2000013    1    1    2    0    0 -0.11299206245E+03  0.17652634383E+04  0.19097198464E+04  0.27710020037E+04  0.95000000000E+03 0.  0.
   -2000013    1    1    2    0    0  0.11299206245E+03 -0.17652634383E+04  0.16656329010E+04  0.26087842329E+04  0.95000000000E+03 0.  0.
<mgrwt>
<rscale>  0 0.40198200E+04</rscale>
<asrwt>0</asrwt>
<pdfrwt beam="2">  1        2 0.13880258E+00 0.40198200E+04</pdfrwt>
<pdfrwt beam="1">  1       -2 0.68885684E+00 0.40198200E+04</pdfrwt>
<totfact> 0.57255793E-03</totfact>
</mgrwt>
</event>
<event>
 4    1  0.1343107E-008  0.2625494E+04  0.7816531E-02  0.8359593E-01
         -2   -1    0    0    0  501 -0.00000000000E+00  0.00000000000E+00  0.64986458632E+03  0.64986458632E+03  0.00000000000E+00 0. -1.
          2   -1    0    0  501    0  0.00000000000E+00 -0.00000000000E+00 -0.26517899730E+04  0.26517899730E+04  0.00000000000E+00 0.  1.
    2000013    1    1    2    0    0 -0.13054555917E+03  0.68976932294E+03 -0.17211486892E+04  0.20875048916E+04  0.95000000000E+03 0.  0.
   -2000013    1    1    2    0    0  0.13054555917E+03 -0.68976932294E+03 -0.28077669746E+03  0.12141496678E+04  0.95000000000E+03 0.  0.
<mgrwt>
<rscale>  0 0.26254938E+04</rscale>
<asrwt>0</asrwt>
<pdfrwt beam="2">  1        2 0.40796769E+00 0.26254938E+04</pdfrwt>
<pdfrwt beam="1">  1       -2 0.99979166E-01 0.26254938E+04</pdfrwt>
<totfact> 0.20687101E+00</totfact>
</mgrwt>
</event>
<event>
 4    1  0.1343107E-008  0.2403786E+04  0.7816531E-02  0.8438087E-01
          2   -1    0    0  501    0  0.00000000000E+00  0.00000000000E+00  0.11804227937E+04  0.11804227937E+04  0.00000000000E+00 0.  1.
         -2   -1    0    0    0  501 -0.00000000000E+00 -0.00000000000E+00 -0.12237541337E+04  0.12237541337E+04  0.00000000000E+00 0. -1.
    2000013    1    1    2    0    0  0.67835639105E+02  0.73179599492E+03 -0.65493118251E+02  0.12028783815E+04  0.95000000000E+03 0.  0.
   -2000013    1    1    2    0    0 -0.67835639105E+02 -0.73179599492E+03  0.22161778295E+02  0.12012985460E+04  0.95000000000E+03 0.  0.
<mgrwt>
<rscale>  0 0.24037864E+04</rscale>
<asrwt>0</asrwt>
<pdfrwt beam="1">  1        2 0.18160351E+00 0.24037864E+04</pdfrwt>
<pdfrwt beam="2">  1       -2 0.18826987E+00 0.24037864E+04</pdfrwt>
<totfact> 0.27851887E+00</totfact>
</mgrwt>
</event>
<event>
 4    1  0.1343107E-008  0.2138817E+04  0.7816531E-02  0.8544335E-01
         -1   -1    0    0    0  501 -0.00000000000E+00  0.00000000000E+00  0.19333957247E+04  0.19333957247E+04  0.00000000000E+00 0. -1.
          1   -1    0    0  501    0  0.00000000000E+00 -0.00000000000E+00 -0.59151578861E+03  0.59151578861E+03  0.00000000000E+00 0.  1.
    2000013    1    1    2    0    0  0.47945304631E+03 -0.18690417610E+02  0.79424359959E+03  0.13279862389E+04  0.95000000000E+03 0.  0.
   -2000013    1    1    2    0    0 -0.47945304631E+03  0.18690417610E+02  0.54763633644E+03  0.11969252743E+04  0.95000000000E+03 0.  0.
<mgrwt>
<rscale>  0 0.21388166E+04</rscale>
<asrwt>0</asrwt>
<pdfrwt beam="2">  1        1 0.91002430E-01 0.21388166E+04</pdfrwt>
<pdfrwt beam="1">  1       -1 0.29744549E+00 0.21388166E+04</pdfrwt>
<totfact> 0.10998756E+00</totfact>
</mgrwt>
</event>
<event>
 4    1  0.1343107E-008  0.2190192E+04  0.7816531E-02  0.8522521E-01
          2   -1    0    0  501    0  0.00000000000E+00  0.00000000000E+00  0.12794257778E+04  0.12794257778E+04  0.00000000000E+00 0.  1.
         -2   -1    0    0    0  501 -0.00000000000E+00 -0.00000000000E+00 -0.93732334053E+03  0.93732334053E+03  0.00000000000E+00 0. -1.
    2000013    1    1    2    0    0 -0.52256296882E+03  0.39220241263E+02  0.20501669148E+02  0.10851408213E+04  0.95000000000E+03 0.  0.
   -2000013    1    1    2    0    0  0.52256296882E+03 -0.39220241263E+02  0.32160076808E+03  0.11316082970E+04  0.95000000000E+03 0.  0.
<mgrwt>
<rscale>  0 0.21901924E+04</rscale>
<asrwt>0</asrwt>
<pdfrwt beam="1">  1        2 0.19683473E+00 0.21901924E+04</pdfrwt>
<pdfrwt beam="2">  1       -2 0.14420359E+00 0.21901924E+04</pdfrwt>
<totfact> 0.51695548E+00</totfact>
</mgrwt>
</event>
<event>
 4    1  0.1343107E-008  0.2432376E+04  0.7816531E-02  0.8427481E-01
          2   -1    0    0  501    0  0.00000000000E+00  0.00000000000E+00  0.32474226139E+04  0.32474226139E+04  0.00000000000E+00 0.  1.
         -2   -1    0    0    0  501 -0.00000000000E+00 -0.00000000000E+00 -0.45547308475E+03  0.45547308475E+03  0.00000000000E+00 0. -1.
    2000013    1    1    2    0    0  0.43646985645E+03 -0.18711759918E+03  0.22980086109E+04  0.25315731290E+04  0.95000000000E+03 0.  0.
   -2000013    1    1    2    0    0 -0.43646985645E+03  0.18711759918E+03  0.49394091822E+03  0.11713225697E+04  0.95000000000E+03 0.  0.
<mgrwt>
<rscale>  0 0.24323763E+04</rscale>
<asrwt>0</asrwt>
<pdfrwt beam="1">  1        2 0.49960346E+00 0.24323763E+04</pdfrwt>
<pdfrwt beam="2">  1       -2 0.70072784E-01 0.24323763E+04</pdfrwt>
<totfact> 0.20096494E+00</totfact>
</mgrwt>
</event>
<event>
 4    1  0.1343107E-008  0.2409761E+04  0.7816531E-02  0.8435858E-01
         -2   -1    0    0    0  501 -0.00000000000E+00  0.00000000000E+00  0.11217398708E+04  0.11217398708E+04  0.00000000000E+00 0. -1.
          2   -1    0    0  501    0  0.00000000000E+00 -0.00000000000E+00 -0.12941831333E+04  0.12941831333E+04  0.00000000000E+00 0.  1.
    2000013    1    1    2    0    0  0.61381813034E+03 -0.31861555121E+03  0.18082063441E+03  0.11889006134E+04  0.95000000000E+03 0.  0.
   -2000013    1    1    2    0    0 -0.61381813034E+03  0.31861555121E+03 -0.35326389684E+03  0.12270223908E+04  0.95000000000E+03 0.  0.
<mgrwt>
<rscale>  0 0.24097608E+04</rscale>
<asrwt>0</asrwt>
<pdfrwt beam="2">  1        2 0.19910510E+00 0.24097608E+04</pdfrwt>
<pdfrwt beam="1">  1       -2 0.17257536E+00 0.24097608E+04</pdfrwt>
<totfact> 0.30595842E+00</totfact>
</mgrwt>
</event>
<event>
 4    1  0.1343107E-008  0.2524920E+04  0.7816531E-02  0.8394161E-01
         -2   -1    0    0    0  501 -0.00000000000E+00  0.00000000000E+00  0.70929475856E+03  0.70929475856E+03  0.00000000000E+00 0. -1.
          2   -1    0    0  501    0  0.00000000000E+00 -0.00000000000E+00 -0.22470283229E+04  0.22470283229E+04  0.00000000000E+00 0.  1.
    2000013    1    1    2    0    0  0.79651781981E+03  0.20312949952E+03 -0.91512181576E+03  0.15542362010E+04  0.95000000000E+03 0.  0.
   -2000013    1    1    2    0    0 -0.79651781981E+03 -0.20312949952E+03 -0.62261174859E+03  0.14020868805E+04  0.95000000000E+03 0.  0.
<mgrwt>
<rscale>  0 0.25249201E+04</rscale>
<asrwt>0</asrwt>
<pdfrwt beam="2">  1        2 0.34569666E+00 0.25249201E+04</pdfrwt>
<pdfrwt beam="1">  1       -2 0.10912227E+00 0.25249201E+04</pdfrwt>
<totfact> 0.28960567E+00</totfact>
</mgrwt>
</event>
<event>
 4    1  0.1343107E-008  0.3079321E+04  0.7816531E-02  0.8221436E-01
          2   -1    0    0  501    0  0.00000000000E+00  0.00000000000E+00  0.20131386083E+04  0.20131386083E+04  0.00000000000E+00 0.  1.
         -2   -1    0    0    0  501 -0.00000000000E+00 -0.00000000000E+00 -0.11775418428E+04  0.11775418428E+04  0.00000000000E+00 0. -1.
    2000013    1    1    2    0    0  0.10030980849E+04 -0.18776035621E+03 -0.25896413714E+03  0.14181051243E+04  0.95000000000E+03 0.  0.
   -2000013    1    1    2    0    0 -0.10030980849E+04  0.18776035621E+03  0.10945609027E+04  0.17725753267E+04  0.95000000000E+03 0.  0.
<mgrwt>
<rscale>  0 0.30793213E+04</rscale>
<asrwt>0</asrwt>
<pdfrwt beam="1">  1        2 0.30971363E+00 0.30793213E+04</pdfrwt>
<pdfrwt beam="2">  1       -2 0.18116028E+00 0.30793213E+04</pdfrwt>
<totfact> 0.99467941E-01</totfact>
</mgrwt>
</event>
<event>
 4    1  0.1343107E-008  0.2877485E+04  0.7816531E-02  0.8279608E-01
         -2   -1    0    0    0  501 -0.00000000000E+00  0.00000000000E+00  0.82741577983E+03  0.82741577983E+03  0.00000000000E+00 0. -1.
          2   -1    0    0  501    0  0.00000000000E+00 -0.00000000000E+00 -0.25017415168E+04  0.25017415168E+04  0.00000000000E+00 0.  1.
    2000013    1    1    2    0    0 -0.14171714972E+03  0.10324307153E+04 -0.11674228671E+04  0.18306755811E+04  0.95000000000E+03 0.  0.
   -2000013    1    1    2    0    0  0.14171714972E+03 -0.10324307153E+04 -0.50690286991E+03  0.14984817156E+04  0.95000000000E+03 0.  0.
<mgrwt>
<rscale>  0 0.28774853E+04</rscale>
<asrwt>0</asrwt>
<pdfrwt beam="2">  1        2 0.38488330E+00 0.28774853E+04</pdfrwt>
<pdfrwt beam="1">  1       -2 0.12729474E+00 0.28774853E+04</pdfrwt>
<totfact> 0.13751101E+00</totfact>
</mgrwt>
</event>
<event>
 4    1  0.1343107E-008  0.3160835E+04  0.7816531E-02  0.8199238E-01
         -1   -1    0    0    0  501 -0.00000000000E+00  0.00000000000E+00  0.12882197133E+04  0.12882197133E+04  0.00000000000E+00 0. -1.
          1   -1    0    0  501    0  0.00000000000E+00 -0.00000000000E+00 -0.19388920994E+04  0.19388920994E+04  0.00000000000E+00 0.  1.
    2000013    1    1    2    0    0  0.82447967377E+03  0.80458386968E+03 -0.85397406783E+03  0.17201434953E+04  0.95000000000E+03 0.  0.
   -2000013    1    1    2    0    0 -0.82447967377E+03 -0.80458386968E+03  0.20330168174E+03  0.15069683174E+04  0.95000000000E+03 0.  0.
<mgrwt>
<rscale>  0 0.31608347E+04</rscale>
<asrwt>0</asrwt>
<pdfrwt beam="2">  1        1 0.29829109E+00 0.31608347E+04</pdfrwt>
<pdfrwt beam="1">  1       -1 0.19818765E+00 0.31608347E+04</pdfrwt>
<totfact> 0.42637628E-01</totfact>
</mgrwt>
</event>
<event>
 4    1  0.1343107E-008  0.4082435E+04  0.7816531E-02  0.7988120E-01
          2   -1    0    0  501    0  0.00000000000E+00  0.00000000000E+00  0.16239844094E+04  0.16239844094E+04  0.00000000000E+00 0.  1.
         -2   -1    0    0    0  501 -0.00000000000E+00 -0.00000000000E+00 -0.25656457506E+04  0.25656457506E+04  0.00000000000E+00 0. -1.
    2000013    1    1    2    0    0  0.15749376432E+04 -0.56886238656E+03 -0.11668995028E+04  0.22512635218E+04  0.95000000000E+03 0.  0.
   -2000013    1    1    2    0    0 -0.15749376432E+04  0.56886238656E+03  0.22523816151E+03  0.19383666383E+04  0.95000000000E+03 0.  0.
<mgrwt>
<rscale>  0 0.40824349E+04</rscale>
<asrwt>0</asrwt>
<pdfrwt beam="1">  1        2 0.24984376E+00 0.40824349E+04</pdfrwt>
<pdfrwt beam="2">  1       -2 0.39471473E+00 0.40824349E+04</pdfrwt>
<totfact> 0.68070157E-02</totfact>
</mgrwt>
</event>
<event>
 4    1  0.1343107E-008  0.3581097E+04  0.7816531E-02  0.8094835E-01
          2   -1    0    0  501    0  0.00000000000E+00  0.00000000000E+00  0.22585972800E+04  0.22585972800E+04  0.00000000000E+00 0.  1.
         -2   -1    0    0    0  501 -0.00000000000E+00 -0.00000000000E+00 -0.14194931814E+04  0.14194931814E+04  0.00000000000E+00 0. -1.
    2000013    1    1    2    0    0 -0.13910730341E+04  0.45009097144E+03  0.83788888314E+03  0.19344828377E+04  0.95000000000E+03 0.  0.
   -2000013    1    1    2    0    0  0.13910730341E+04 -0.45009097144E+03  0.12152155024E+01  0.17436076237E+04  0.95000000000E+03 0.  0.
<mgrwt>
<rscale>  0 0.35810967E+04</rscale>
<asrwt>0</asrwt>
<pdfrwt beam="1">  1        2 0.34747650E+00 0.35810967E+04</pdfrwt>
<pdfrwt beam="2">  1       -2 0.21838357E+00 0.35810967E+04</pdfrwt>
<totfact> 0.39530786E-01</totfact>
</mgrwt>
</event>
<event>
 4    1  0.1343107E-008  0.2234994E+04  0.7816531E-02  0.8504002E-01
          2   -1    0    0  501    0  0.00000000000E+00  0.00000000000E+00  0.14238299413E+04  0.14238299413E+04  0.00000000000E+00 0.  1.
         -2   -1    0    0    0  501 -0.00000000000E+00 -0.00000000000E+00 -0.87707101598E+03  0.87707101598E+03  0.00000000000E+00 0. -1.
    2000013    1    1    2    0    0  0.54993238386E+03  0.13626906121E+03  0.43714609792E+03  0.11893660474E+04  0.95000000000E+03 0.  0.
   -2000013    1    1    2    0    0 -0.54993238386E+03 -0.13626906121E+03  0.10961282739E+03  0.11115349098E+04  0.95000000000E+03 0.  0.
<mgrwt>
<rscale>  0 0.22349944E+04</rscale>
<asrwt>0</asrwt>
<pdfrwt beam="1">  1        2 0.21905076E+00 0.22349944E+04</pdfrwt>
<pdfrwt beam="2">  1       -2 0.13493400E+00 0.22349944E+04</pdfrwt>
<totfact> 0.50496675E+00</totfact>
</mgrwt>
</event>
<event>
 4    1  0.1343107E-008  0.3472437E+04  0.7816531E-02  0.8120353E-01
         -2   -1    0    0    0  501 -0.00000000000E+00  0.00000000000E+00  0.86667250374E+03  0.86667250374E+03  0.00000000000E+00 0. -1.
          2   -1    0    0  501    0  0.00000000000E+00 -0.00000000000E+00 -0.34781934230E+04  0.34781934230E+04  0.00000000000E+00 0.  1.
    2000013    1    1    2    0    0  0.11473841249E+04  0.53830148620E+03 -0.41597219050E+03  0.16376176854E+04  0.95000000000E+03 0.  0.
   -2000013    1    1    2    0    0 -0.11473841249E+04 -0.53830148620E+03 -0.21955487288E+04  0.27072482414E+04  0.95000000000E+03 0.  0.
<mgrwt>
<rscale>  0 0.34724370E+04</rscale>
<asrwt>0</asrwt>
<pdfrwt beam="2">  1        2 0.53510669E+00 0.34724370E+04</pdfrwt>
<pdfrwt beam="1">  1       -2 0.13333423E+00 0.34724370E+04</pdfrwt>
<totfact> 0.28195021E-01</totfact>
</mgrwt>
</event>
<event>
 4    1  0.1343107E-008  0.3087581E+04  0.7816531E-02  0.8219154E-01
         -2   -1    0    0    0  501 -0.00000000000E+00  0.00000000000E+00  0.10147831956E+04  0.10147831956E+04  0.00000000000E+00 0. -1.
          2   -1    0    0  501    0  0.00000000000E+00 -0.00000000000E+00 -0.23485704495E+04  0.23485704495E+04  0.00000000000E+00 0.  1.
    2000013    1    1    2    0    0  0.97085869375E+03  0.45799359557E+03 -0.12912013648E+04  0.19292552193E+04  0.95000000000E+03 0.  0.
   -2000013    1    1    2    0    0 -0.97085869375E+03 -0.45799359557E+03 -0.42585889160E+02  0.14340984258E+04  0.95000000000E+03 0.  0.
<mgrwt>
<rscale>  0 0.30875815E+04</rscale>
<asrwt>0</asrwt>
<pdfrwt beam="2">  1        2 0.36131853E+00 0.30875815E+04</pdfrwt>
<pdfrwt beam="1">  1       -2 0.15612049E+00 0.30875815E+04</pdfrwt>
<totfact> 0.97334297E-01</totfact>
</mgrwt>
</event>
<event>
 4    1  0.1343107E-008  0.2216992E+04  0.7816531E-02  0.8511389E-01
         -2   -1    0    0    0  501 -0.00000000000E+00  0.00000000000E+00  0.92620460041E+03  0.92620460041E+03  0.00000000000E+00 0. -1.
          2   -1    0    0  501    0  0.00000000000E+00 -0.00000000000E+00 -0.13266646846E+04  0.13266646846E+04  0.00000000000E+00 0.  1.
    2000013    1    1    2    0    0  0.55355270087E+03  0.11186000940E+03 -0.11323100463E+03  0.11109700782E+04  0.95000000000E+03 0.  0.
   -2000013    1    1    2    0    0 -0.55355270087E+03 -0.11186000940E+03 -0.28722907960E+03  0.11418992068E+04  0.95000000000E+03 0.  0.
<mgrwt>
<rscale>  0 0.22169916E+04</rscale>
<asrwt>0</asrwt>
<pdfrwt beam="2">  1        2 0.20410226E+00 0.22169916E+04</pdfrwt>
<pdfrwt beam="1">  1       -2 0.14249302E+00 0.22169916E+04</pdfrwt>
<totfact> 0.49947188E+00</totfact>
</mgrwt>
</event>
<event>
 4    1  0.1343107E-008  0.2270081E+04  0.7816531E-02  0.8489812E-01
          1   -1    0    0  501    0  0.00000000000E+00  0.00000000000E+00  0.14190192360E+04  0.14190192360E+04  0.00000000000E+00 0.  1.
         -1   -1    0    0    0  501 -0.00000000000E+00 -0.00000000000E+00 -0.90789253231E+03  0.90789253231E+03  0.00000000000E+00 0. -1.
    2000013    1    1    2    0    0 -0.58903855548E+03  0.15432060795E+03  0.38125324299E+03  0.11910647779E+04  0.95000000000E+03 0.  0.
   -2000013    1    1    2    0    0  0.58903855548E+03 -0.15432060795E+03  0.12987346074E+03  0.11358469904E+04  0.95000000000E+03 0.  0.
<mgrwt>
<rscale>  0 0.22700810E+04</rscale>
<asrwt>0</asrwt>
<pdfrwt beam="1">  1        1 0.21831065E+00 0.22700810E+04</pdfrwt>
<pdfrwt beam="2">  1       -1 0.13967577E+00 0.22700810E+04</pdfrwt>
<totfact> 0.28473266E+00</totfact>
</mgrwt>
</event>
<event>
 4    1  0.1343107E-008  0.2229030E+04  0.7816531E-02  0.8506442E-01
          2   -1    0    0  501    0  0.00000000000E+00  0.00000000000E+00  0.37858869327E+04  0.37858869327E+04  0.00000000000E+00 0.  1.
         -2   -1    0    0    0  501 -0.00000000000E+00 -0.00000000000E+00 -0.32809835331E+03  0.32809835331E+03  0.00000000000E+00 0. -1.
    2000013    1    1    2    0    0 -0.36345769878E+03  0.58827214945E+02  0.25626682295E+04  0.27577763858E+04  0.95000000000E+03 0.  0.
   -2000013    1    1    2    0    0  0.36345769878E+03 -0.58827214945E+02  0.89512034993E+03  0.13562089002E+04  0.95000000000E+03 0.  0.
<mgrwt>
<rscale>  0 0.22290296E+04</rscale>
<asrwt>0</asrwt>
<pdfrwt beam="1">  1        2 0.58244411E+00 0.22290296E+04</pdfrwt>
<pdfrwt beam="2">  1       -2 0.50476672E-01 0.22290296E+04</pdfrwt>
<totfact> 0.17123660E+00</totfact>
</mgrwt>
</event>
<event>
 4    1  0.1343107E-008  0.2710168E+04  0.7816531E-02  0.8331713E-01
          2   -1    0    0  501    0  0.00000000000E+00  0.00000000000E+00  0.25482750336E+04  0.25482750336E+04  0.00000000000E+00 0.  1.
         -2   -1    0    0    0  501 -0.00000000000E+00 -0.00000000000E+00 -0.72058655084E+03  0.72058655084E+03  0.00000000000E+00 0. -1.
    2000013    1    1    2    0    0  0.65561120033E+03 -0.70881761422E+03  0.96062442097E+03  0.16605865634E+04  0.95000000000E+03 0.  0.
   -2000013    1    1    2    0    0 -0.65561120033E+03  0.70881761422E+03  0.86706406182E+03  0.16082750211E+04  0.95000000000E+03 0.  0.
<mgrwt>
<rscale>  0 0.27101681E+04</rscale>
<asrwt>0</asrwt>
<pdfrwt beam="1">  1        2 0.39204231E+00 0.27101681E+04</pdfrwt>
<pdfrwt beam="2">  1       -2 0.11085947E+00 0.27101681E+04</pdfrwt>
<totfact> 0.18436529E+00</totfact>
</mgrwt>
</event>
<event>
 4    1  0.1343107E-008  0.2564199E+04  0.7816531E-02  0.8380465E-01
         -2   -1    0    0    0  501 -0.00000000000E+00  0.00000000000E+00  0.59532014804E+03  0.59532014804E+03  0.00000000000E+00 0. -1.
          2   -1    0    0  501    0  0.00000000000E+00 -0.00000000000E+00 -0.27611679516E+04  0.27611679516E+04  0.00000000000E+00 0.  1.
    2000013    1    1    2    0    0 -0.15732294141E+03  0.75215164876E+03 -0.57461377641E+03  0.13502457564E+04  0.95000000000E+03 0.  0.
   -2000013    1    1    2    0    0  0.15732294141E+03 -0.75215164876E+03 -0.15912340271E+04  0.20062423432E+04  0.95000000000E+03 0.  0.
<mgrwt>
<rscale>  0 0.25641988E+04</rscale>
<asrwt>0</asrwt>
<pdfrwt beam="2">  1        2 0.42479507E+00 0.25641988E+04</pdfrwt>
<pdfrwt beam="1">  1       -2 0.91587714E-01 0.25641988E+04</pdfrwt>
<totfact> 0.21971870E+00</totfact>
</mgrwt>
</event>
<event>
 4    1  0.1343107E-008  0.2071454E+04  0.7816531E-02  0.8573924E-01
          2   -1    0    0  501    0  0.00000000000E+00  0.00000000000E+00  0.21734002602E+04  0.21734002602E+04  0.00000000000E+00 0.  1.
         -2   -1    0    0    0  501 -0.00000000000E+00 -0.00000000000E+00 -0.49357226749E+03  0.49357226749E+03  0.00000000000E+00 0. -1.
    2000013    1    1    2    0    0  0.12695934167E+03  0.23720532260E+03  0.12426428585E+04  0.15871503751E+04  0.95000000000E+03 0.  0.
   -2000013    1    1    2    0    0 -0.12695934167E+03 -0.23720532260E+03  0.43718513415E+03  0.10798221525E+04  0.95000000000E+03 0.  0.
<mgrwt>
<rscale>  0 0.20714537E+04</rscale>
<asrwt>0</asrwt>
<pdfrwt beam="1">  1        2 0.33436926E+00 0.20714537E+04</pdfrwt>
<pdfrwt beam="2">  1       -2 0.75934196E-01 0.20714537E+04</pdfrwt>
<totfact> 0.76690394E+00</totfact>
</mgrwt>
</event>
<event>
 4    1  0.1343107E-008  0.2944086E+04  0.7816531E-02  0.8259880E-01
         -2   -1    0    0    0  501 -0.00000000000E+00  0.00000000000E+00  0.14475121163E+04  0.14475121163E+04  0.00000000000E+00 0. -1.
          2   -1    0    0  501    0  0.00000000000E+00 -0.00000000000E+00 -0.14969899913E+04  0.14969899913E+04  0.00000000000E+00 0.  1.
    2000013    1    1    2    0    0  0.10206263776E+04 -0.39390799811E+03 -0.28471686159E+03  0.14766195870E+04  0.95000000000E+03 0.  0.
   -2000013    1    1    2    0    0 -0.10206263776E+04  0.39390799811E+03  0.23523898659E+03  0.14678825206E+04  0.95000000000E+03 0.  0.
<mgrwt>
<rscale>  0 0.29440864E+04</rscale>
<asrwt>0</asrwt>
<pdfrwt beam="2">  1        2 0.23030615E+00 0.29440864E+04</pdfrwt>
<pdfrwt beam="1">  1       -2 0.22269417E+00 0.29440864E+04</pdfrwt>
<totfact> 0.10415105E+00</totfact>
</mgrwt>
</event>
<event>
 4    1  0.1343107E-008  0.2394939E+04  0.7816531E-02  0.8441401E-01
         -2   -1    0    0    0  501 -0.00000000000E+00  0.00000000000E+00  0.40808714945E+03  0.40808714945E+03  0.00000000000E+00 0. -1.
          2   -1    0    0  501    0  0.00000000000E+00 -0.00000000000E+00 -0.35137917138E+04  0.35137917138E+04  0.00000000000E+00 0.  1.
    2000013    1    1    2    0    0  0.45488199277E+03 -0.44399450133E+03 -0.96838795953E+03  0.14981068002E+04  0.95000000000E+03 0.  0.
   -2000013    1    1    2    0    0 -0.45488199277E+03  0.44399450133E+03 -0.21373166048E+04  0.24237720631E+04  0.95000000000E+03 0.  0.
<mgrwt>
<rscale>  0 0.23949390E+04</rscale>
<asrwt>0</asrwt>
<pdfrwt beam="2">  1        2 0.54058336E+00 0.23949390E+04</pdfrwt>
<pdfrwt beam="1">  1       -2 0.62782636E-01 0.23949390E+04</pdfrwt>
<totfact> 0.16855998E+00</totfact>
</mgrwt>
</event>
<event>
 4    1  0.1343107E-008  0.2082344E+04  0.7816531E-02  0.8569061E-01
         -2   -1    0    0    0  501 -0.00000000000E+00  0.00000000000E+00  0.79696492790E+03  0.79696492790E+03  0.00000000000E+00 0. -1.
          2   -1    0    0  501    0  0.00000000000E+00 -0.00000000000E+00 -0.13602092229E+04  0.13602092229E+04  0.00000000000E+00 0.  1.
    2000013    1    1    2    0    0 -0.30968938281E+03  0.29117702384E+03 -0.31177965852E+03  0.10864612872E+04  0.95000000000E+03 0.  0.
   -2000013    1    1    2    0    0  0.30968938281E+03 -0.29117702384E+03 -0.25146463652E+03  0.10707128637E+04  0.95000000000E+03 0.  0.
<mgrwt>
<rscale>  0 0.20823439E+04</rscale>
<asrwt>0</asrwt>
<pdfrwt beam="2">  1        2 0.20926296E+00 0.20823439E+04</pdfrwt>
<pdfrwt beam="1">  1       -2 0.12260999E+00 0.20823439E+04</pdfrwt>
<totfact> 0.70855677E+00</totfact>
</mgrwt>
</event>
<event>
 4    1  0.1343107E-008  0.3399115E+04  0.7816531E-02  0.8138124E-01
         -2   -1    0    0    0  501 -0.00000000000E+00  0.00000000000E+00  0.88257604430E+03  0.88257604430E+03  0.00000000000E+00 0. -1.
          2   -1    0    0  501    0  0.00000000000E+00 -0.00000000000E+00 -0.32728013104E+04  0.32728013104E+04  0.00000000000E+00 0.  1.
    2000013    1    1    2    0    0 -0.26228783168E+03 -0.13074701095E+04 -0.63794366418E+03  0.17571980857E+04  0.95000000000E+03 0.  0.
   -2000013    1    1    2    0    0  0.26228783168E+03  0.13074701095E+04 -0.17522816019E+04  0.23981792690E+04  0.95000000000E+03 0.  0.
<mgrwt>
<rscale>  0 0.33991152E+04</rscale>
<asrwt>0</asrwt>
<pdfrwt beam="2">  1        2 0.50350791E+00 0.33991152E+04</pdfrwt>
<pdfrwt beam="1">  1       -2 0.13578093E+00 0.33991152E+04</pdfrwt>
<totfact> 0.37357647E-01</totfact>
</mgrwt>
</event>
<event>
 4    1  0.1343107E-008  0.2806335E+04  0.7816531E-02  0.8301304E-01
         -2   -1    0    0    0  501 -0.00000000000E+00  0.00000000000E+00  0.84997190076E+03  0.84997190076E+03  0.00000000000E+00 0. -1.
          2   -1    0    0  501    0  0.00000000000E+00 -0.00000000000E+00 -0.23164041203E+04  0.23164041203E+04  0.00000000000E+00 0.  1.
    2000013    1    1    2    0    0  0.19182659928E+03 -0.98273950682E+03 -0.10182175804E+04  0.17151797059E+04  0.95000000000E+03 0.  0.
   -2000013    1    1    2    0    0 -0.19182659928E+03  0.98273950682E+03 -0.44821463917E+03  0.14511963152E+04  0.95000000000E+03 0.  0.
<mgrwt>
<rscale>  0 0.28063346E+04</rscale>
<asrwt>0</asrwt>
<pdfrwt beam="2">  1        2 0.35636986E+00 0.28063346E+04</pdfrwt>
<pdfrwt beam="1">  1       -2 0.13076491E+00 0.28063346E+04</pdfrwt>
<totfact> 0.16510929E+00</totfact>
</mgrwt>
</event>
<event>
 4    1  0.1343107E-008  0.3070001E+04  0.7816531E-02  0.8224020E-01
          2   -1    0    0  501    0  0.00000000000E+00  0.00000000000E+00  0.91719027177E+03  0.91719027177E+03  0.00000000000E+00 0.  1.
         -2   -1    0    0    0  501 -0.00000000000E+00 -0.00000000000E+00 -0.25689609000E+04  0.25689609000E+04  0.00000000000E+00 0. -1.
    2000013    1    1    2    0    0  0.25035875069E+03 -0.78502054692E+03 -0.18254238155E+04  0.22166661610E+04  0.95000000000E+03 0.  0.
   -2000013    1    1    2    0    0 -0.25035875069E+03  0.78502054692E+03  0.17365318726E+03  0.12694850108E+04  0.95000000000E+03 0.  0.
<mgrwt>
<rscale>  0 0.30700006E+04</rscale>
<asrwt>0</asrwt>
<pdfrwt beam="1">  1        2 0.14110620E+00 0.30700006E+04</pdfrwt>
<pdfrwt beam="2">  1       -2 0.39522475E+00 0.30700006E+04</pdfrwt>
<totfact> 0.19364475E-01</totfact>
</mgrwt>
</event>
<event>
 4    1  0.1343107E-008  0.2314110E+04  0.7816531E-02  0.8472379E-01
         -2   -1    0    0    0  501 -0.00000000000E+00  0.00000000000E+00  0.71733880609E+03  0.71733880609E+03  0.00000000000E+00 0. -1.
          2   -1    0    0  501    0  0.00000000000E+00 -0.00000000000E+00 -0.18663089798E+04  0.18663089798E+04  0.00000000000E+00 0.  1.
    2000013    1    1    2    0    0 -0.53724784740E+03  0.37674575126E+03 -0.65880116178E+03  0.13293199695E+04  0.95000000000E+03 0.  0.
   -2000013    1    1    2    0    0  0.53724784740E+03 -0.37674575126E+03 -0.49016901194E+03  0.12543278164E+04  0.95000000000E+03 0.  0.
<mgrwt>
<rscale>  0 0.23141096E+04</rscale>
<asrwt>0</asrwt>
<pdfrwt beam="2">  1        2 0.28712446E+00 0.23141096E+04</pdfrwt>
<pdfrwt beam="1">  1       -2 0.11035982E+00 0.23141096E+04</pdfrwt>
<totfact> 0.46796283E+00</totfact>
</mgrwt>
</event>
<event>
 4    1  0.1343107E-008  0.2565342E+04  0.7816531E-02  0.8380070E-01
          1   -1    0    0  501    0  0.00000000000E+00  0.00000000000E+00  0.15185913025E+04  0.15185913025E+04  0.00000000000E+00 0.  1.
         -1   -1    0    0    0  501 -0.00000000000E+00 -0.00000000000E+00 -0.10834020349E+04  0.10834020349E+04  0.00000000000E+00 0. -1.
    2000013    1    1    2    0    0 -0.72216250016E+03 -0.29032566172E+03 -0.15774263848E+03  0.12382206615E+04  0.95000000000E+03 0.  0.
   -2000013    1    1    2    0    0  0.72216250016E+03  0.29032566172E+03  0.59293190605E+03  0.13637726760E+04  0.95000000000E+03 0.  0.
<mgrwt>
<rscale>  0 0.25653420E+04</rscale>
<asrwt>0</asrwt>
<pdfrwt beam="1">  1        1 0.23362943E+00 0.25653420E+04</pdfrwt>
<pdfrwt beam="2">  1       -1 0.16667724E+00 0.25653420E+04</pdfrwt>
<totfact> 0.14608063E+00</totfact>
</mgrwt>
</event>
<event>
 4    1  0.1343107E-008  0.2087060E+04  0.7816531E-02  0.8566965E-01
         -2   -1    0    0    0  501 -0.00000000000E+00  0.00000000000E+00  0.41113946316E+03  0.41113946316E+03  0.00000000000E+00 0. -1.
          2   -1    0    0  501    0  0.00000000000E+00 -0.00000000000E+00 -0.26486259071E+04  0.26486259071E+04  0.00000000000E+00 0.  1.
    2000013    1    1    2    0    0 -0.12901216228E+03 -0.40927326968E+03 -0.10483432997E+04  0.14784019823E+04  0.95000000000E+03 0.  0.
   -2000013    1    1    2    0    0  0.12901216228E+03  0.40927326968E+03 -0.11891431443E+04  0.15813633880E+04  0.95000000000E+03 0.  0.
<mgrwt>
<rscale>  0 0.20870598E+04</rscale>
<asrwt>0</asrwt>
<pdfrwt beam="2">  1        2 0.40748091E+00 0.20870598E+04</pdfrwt>
<pdfrwt beam="1">  1       -2 0.63252224E-01 0.20870598E+04</pdfrwt>
<totfact> 0.60872222E+00</totfact>
</mgrwt>
</event>
<event>
 4    1  0.1343107E-008  0.2817521E+04  0.7816531E-02  0.8297849E-01
          2   -1    0    0  501    0  0.00000000000E+00  0.00000000000E+00  0.23409555474E+04  0.23409555474E+04  0.00000000000E+00 0.  1.
         -2   -1    0    0    0  501 -0.00000000000E+00 -0.00000000000E+00 -0.84777637852E+03  0.84777637852E+03  0.00000000000E+00 0. -1.
    2000013    1    1    2    0    0  0.64294302497E+03  0.76250033303E+03  0.10810297223E+04  0.17509733726E+04  0.95000000000E+03 0.  0.
   -2000013    1    1    2    0    0 -0.64294302497E+03 -0.76250033303E+03  0.41214944660E+03  0.14377585533E+04  0.95000000000E+03 0.  0.
<mgrwt>
<rscale>  0 0.28175215E+04</rscale>
<asrwt>0</asrwt>
<pdfrwt beam="1">  1        2 0.36014700E+00 0.28175215E+04</pdfrwt>
<pdfrwt beam="2">  1       -2 0.13042714E+00 0.28175215E+04</pdfrwt>
<totfact> 0.16078363E+00</totfact>
</mgrwt>
</event>
<event>
 4    1  0.1343107E-008  0.3356803E+04  0.7816531E-02  0.8148590E-01
         -2   -1    0    0    0  501 -0.00000000000E+00  0.00000000000E+00  0.12016565133E+04  0.12016565133E+04  0.00000000000E+00 0. -1.
          2   -1    0    0  501    0  0.00000000000E+00 -0.00000000000E+00 -0.23442898129E+04  0.23442898129E+04  0.00000000000E+00 0.  1.
    2000013    1    1    2    0    0  0.32677060064E+02  0.89333520044E+03 -0.16869582171E+04  0.21324735864E+04  0.95000000000E+03 0.  0.
   -2000013    1    1    2    0    0 -0.32677060064E+02 -0.89333520044E+03  0.54432491745E+03  0.14134727399E+04  0.95000000000E+03 0.  0.
<mgrwt>
<rscale>  0 0.33568027E+04</rscale>
<asrwt>0</asrwt>
<pdfrwt beam="2">  1        2 0.36065996E+00 0.33568027E+04</pdfrwt>
<pdfrwt beam="1">  1       -2 0.18487024E+00 0.33568027E+04</pdfrwt>
<totfact> 0.59709700E-01</totfact>
</mgrwt>
</event>
<event>
 4    1  0.1343107E-008  0.2357080E+04  0.7816531E-02  0.8455749E-01
         -1   -1    0    0    0  501 -0.00000000000E+00  0.00000000000E+00  0.27521206228E+04  0.27521206228E+04  0.00000000000E+00 0. -1.
          1   -1    0    0  501    0  0.00000000000E+00 -0.00000000000E+00 -0.50468584707E+03  0.50468584707E+03  0.00000000000E+00 0.  1.
    2000013    1    1    2    0    0  0.87088687312E+01  0.47058429314E+03  0.18349046571E+04  0.21191744907E+04  0.95000000000E+03 0.  0.
   -2000013    1    1    2    0    0 -0.87088687312E+01 -0.47058429314E+03  0.41253011869E+03  0.11376319792E+04  0.95000000000E+03 0.  0.
<mgrwt>
<rscale>  0 0.23570798E+04</rscale>
<asrwt>0</asrwt>
<pdfrwt beam="2">  1        1 0.77643978E-01 0.23570798E+04</pdfrwt>
<pdfrwt beam="1">  1       -1 0.42340316E+00 0.23570798E+04</pdfrwt>
<totfact> 0.19440841E-01</totfact>
</mgrwt>
</event>
<event>
 4    1  0.1343107E-008  0.2236949E+04  0.7816531E-02  0.8503204E-01
          2   -1    0    0  501    0  0.00000000000E+00  0.00000000000E+00  0.22761450677E+04  0.22761450677E+04  0.00000000000E+00 0. -1.
         -2   -1    0    0    0  501 -0.00000000000E+00 -0.00000000000E+00 -0.54960713144E+03  0.54960713144E+03  0.00000000000E+00 0.  1.
    2000013    1    1    2    0    0  0.20932570828E+02 -0.58585419705E+03  0.77554813840E+03  0.13592785688E+04  0.95000000000E+03 0.  0.
   -2000013    1    1    2    0    0 -0.20932570828E+02  0.58585419705E+03  0.95098979784E+03  0.14664736303E+04  0.95000000000E+03 0.  0.
<mgrwt>
<rscale>  0 0.22369493E+04</rscale>
<asrwt>0</asrwt>
<pdfrwt beam="1">  1        2 0.35017616E+00 0.22369493E+04</pdfrwt>
<pdfrwt beam="2">  1       -2 0.84554944E-01 0.22369493E+04</pdfrwt>
<totfact> 0.51966585E+00</totfact>
</mgrwt>
</event>
<event>
 4    1  0.1343107E-008  0.2724947E+04  0.7816531E-02  0.8326956E-01
          2   -1    0    0  501    0  0.00000000000E+00  0.00000000000E+00  0.30968064140E+04  0.30968064140E+04  0.00000000000E+00 0. -1.
         -2   -1    0    0    0  501 -0.00000000000E+00 -0.00000000000E+00 -0.59943507772E+03  0.59943507772E+03  0.00000000000E+00 0.  1.
    2000013    1    1    2    0    0 -0.54406441051E+03  0.36452862705E+03  0.22314741196E+04  0.25121432979E+04  0.95000000000E+03 0.  0.
   -2000013    1    1    2    0    0  0.54406441051E+03 -0.36452862705E+03  0.26589721666E+03  0.11840981938E+04  0.95000000000E+03 0.  0.
<mgrwt>
<rscale>  0 0.27249473E+04</rscale>
<asrwt>0</asrwt>
<pdfrwt beam="1">  1        2 0.47643175E+00 0.27249473E+04</pdfrwt>
<pdfrwt beam="2">  1       -2 0.92220783E-01 0.27249473E+04</pdfrwt>
<totfact> 0.13217569E+00</totfact>
</mgrwt>
</event>
<event>
 4    1  0.1343107E-008  0.2314402E+04  0.7816531E-02  0.8472264E-01
         -2   -1    0    0    0  501 -0.00000000000E+00  0.00000000000E+00  0.15933576998E+04  0.15933576998E+04  0.00000000000E+00 0. -1.
          2   -1    0    0  501    0  0.00000000000E+00 -0.00000000000E+00 -0.84043524064E+03  0.84043524064E+03  0.00000000000E+00 0.  1.
    2000013    1    1    2    0    0  0.32683305359E+03  0.57019530370E+03  0.44833491349E+03  0.12391314393E+04  0.95000000000E+03 0.  0.
   -2000013    1    1    2    0    0 -0.32683305359E+03 -0.57019530370E+03  0.30458754568E+03  0.11946615011E+04  0.95000000000E+03 0.  0.
<mgrwt>
<rscale>  0 0.23144018E+04</rscale>
<asrwt>0</asrwt>
<pdfrwt beam="2">  1        2 0.12929773E+00 0.23144018E+04</pdfrwt>
<pdfrwt beam="1">  1       -2 0.24513195E+00 0.23144018E+04</pdfrwt>
<totfact> 0.20094167E+00</totfact>
</mgrwt>
</event>
<event>
 4    1  0.1343107E-008  0.2712892E+04  0.7816531E-02  0.8330834E-01
         -2   -1    0    0    0  501 -0.00000000000E+00  0.00000000000E+00  0.17278473767E+04  0.17278473767E+04  0.00000000000E+00 0. -1.
          2   -1    0    0  501    0  0.00000000000E+00 -0.00000000000E+00 -0.10648773967E+04  0.10648773967E+04  0.00000000000E+00 0.  1.
    2000013    1    1    2    0    0  0.90795390561E+03  0.24713928379E+03  0.96767690811E+02  0.13406424230E+04  0.95000000000E+03 0.  0.
   -2000013    1    1    2    0    0 -0.90795390561E+03 -0.24713928379E+03  0.56620228918E+03  0.14520823505E+04  0.95000000000E+03 0.  0.
<mgrwt>
<rscale>  0 0.27128919E+04</rscale>
<asrwt>0</asrwt>
<pdfrwt beam="2">  1        2 0.16382729E+00 0.27128919E+04</pdfrwt>
<pdfrwt beam="1">  1       -2 0.26582267E+00 0.27128919E+04</pdfrwt>
<totfact> 0.10319879E+00</totfact>
</mgrwt>
</event>
<event>
 4    1  0.1343107E-008  0.2383896E+04  0.7816531E-02  0.8445557E-01
         -2   -1    0    0    0  501 -0.00000000000E+00  0.00000000000E+00  0.12320313007E+04  0.12320313007E+04  0.00000000000E+00 0. -1.
          2   -1    0    0  501    0  0.00000000000E+00 -0.00000000000E+00 -0.11531692225E+04  0.11531692225E+04  0.00000000000E+00 0.  1.
    2000013    1    1    2    0    0 -0.57282699684E+03 -0.40149334823E+03 -0.13069991450E+03  0.11869752081E+04  0.95000000000E+03 0.  0.
   -2000013    1    1    2    0    0  0.57282699684E+03  0.40149334823E+03  0.20956199264E+03  0.11982253151E+04  0.95000000000E+03 0.  0.
<mgrwt>
<rscale>  0 0.23838965E+04</rscale>
<asrwt>0</asrwt>
<pdfrwt beam="2">  1        2 0.17741065E+00 0.23838965E+04</pdfrwt>
<pdfrwt beam="1">  1       -2 0.18954328E+00 0.23838965E+04</pdfrwt>
<totfact> 0.28408317E+00</totfact>
</mgrwt>
</event>
<event>
 4    1  0.1343107E-008  0.2497527E+04  0.7816531E-02  0.8403867E-01
         -2   -1    0    0    0  501 -0.00000000000E+00  0.00000000000E+00  0.88848480313E+03  0.88848480313E+03  0.00000000000E+00 0. -1.
          2   -1    0    0  501    0  0.00000000000E+00 -0.00000000000E+00 -0.17551343240E+04  0.17551343240E+04  0.00000000000E+00 0.  1.
    2000013    1    1    2    0    0 -0.61632322189E+03 -0.52498410603E+03 -0.39305256264E+03  0.13086072529E+04  0.95000000000E+03 0.  0.
   -2000013    1    1    2    0    0  0.61632322189E+03  0.52498410603E+03 -0.47359695824E+03  0.13350118742E+04  0.95000000000E+03 0.  0.
<mgrwt>
<rscale>  0 0.24975269E+04</rscale>
<asrwt>0</asrwt>
<pdfrwt beam="2">  1        2 0.27002066E+00 0.24975269E+04</pdfrwt>
<pdfrwt beam="1">  1       -2 0.13668997E+00 0.24975269E+04</pdfrwt>
<totfact> 0.31156067E+00</totfact>
</mgrwt>
</event>
<event>
 4    1  0.1343107E-008  0.2568842E+04  0.7816531E-02  0.8378862E-01
         -2   -1    0    0    0  501 -0.00000000000E+00  0.00000000000E+00  0.15177621866E+04  0.15177621866E+04  0.00000000000E+00 0.  1.
          2   -1    0    0  501    0  0.00000000000E+00 -0.00000000000E+00 -0.10869540197E+04  0.10869540197E+04  0.00000000000E+00 0. -1.
    2000013    1    1    2    0    0  0.72331843186E+03  0.46746461883E+03  0.29077235452E+03  0.13148236710E+04  0.95000000000E+03 0.  0.
   -2000013    1    1    2    0    0 -0.72331843186E+03 -0.46746461883E+03  0.14003581237E+03  0.12898925352E+04  0.95000000000E+03 0.  0.
<mgrwt>
<rscale>  0 0.25688423E+04</rscale>
<asrwt>0</asrwt>
<pdfrwt beam="2">  1        2 0.16722369E+00 0.25688423E+04</pdfrwt>
<pdfrwt beam="1">  1       -2 0.23350188E+00 0.25688423E+04</pdfrwt>
<totfact> 0.16000534E+00</totfact>
</mgrwt>
</event>
<event>
 4    1  0.1343107E-008  0.2467539E+04  0.7816531E-02  0.8414642E-01
         -1   -1    0    0    0  501 -0.00000000000E+00  0.00000000000E+00  0.11113571405E+04  0.11113571405E+04  0.00000000000E+00 0. -1.
          1   -1    0    0  501    0  0.00000000000E+00 -0.00000000000E+00 -0.13696649597E+04  0.13696649597E+04  0.00000000000E+00 0.  1.
    2000013    1    1    2    0    0 -0.12676463661E+03  0.77647930123E+03 -0.15570949062E+03  0.12432758438E+04  0.95000000000E+03 0.  0.
   -2000013    1    1    2    0    0  0.12676463661E+03 -0.77647930123E+03 -0.10259832856E+03  0.12377462565E+04  0.95000000000E+03 0.  0.
<mgrwt>
<rscale>  0 0.24675388E+04</rscale>
<asrwt>0</asrwt>
<pdfrwt beam="2">  1        1 0.21071769E+00 0.24675388E+04</pdfrwt>
<pdfrwt beam="1">  1       -1 0.17097802E+00 0.24675388E+04</pdfrwt>
<totfact> 0.17402947E+00</totfact>
</mgrwt>
</event>
<event>
 4    1  0.1343107E-008  0.3077128E+04  0.7816531E-02  0.8222043E-01
          4   -1    0    0  501    0  0.00000000000E+00  0.00000000000E+00  0.10244791527E+04  0.10244791527E+04  0.00000000000E+00 0.  1.
         -4   -1    0    0    0  501 -0.00000000000E+00 -0.00000000000E+00 -0.23106170947E+04  0.23106170947E+04  0.00000000000E+00 0. -1.
    2000013    1    1    2    0    0  0.50396389073E+03  0.16324758851E+03  0.53629479872E+03  0.12127413118E+04  0.95000000000E+03 0.  0.
   -2000013    1    1    2    0    0 -0.50396389073E+03 -0.16324758851E+03 -0.18224327407E+04  0.21223549356E+04  0.95000000000E+03 0.  0.
<mgrwt>
<rscale>  0 0.30771279E+04</rscale>
<asrwt>0</asrwt>
<pdfrwt beam="1">  1        4 0.15761218E+00 0.30771279E+04</pdfrwt>
<pdfrwt beam="2">  1       -4 0.35547955E+00 0.30771279E+04</pdfrwt>
<totfact> 0.60003031E-03</totfact>
</mgrwt>
</event>
<event>
 4    1  0.1343107E-008  0.2215644E+04  0.7816531E-02  0.8511945E-01
          2   -1    0    0  501    0  0.00000000000E+00  0.00000000000E+00  0.25346689292E+04  0.25346689292E+04  0.00000000000E+00 0.  1.
         -2   -1    0    0    0  501 -0.00000000000E+00 -0.00000000000E+00 -0.48419320050E+03  0.48419320050E+03  0.00000000000E+00 0. -1.
    2000013    1    1    2    0    0 -0.43040535863E+03  0.37021346401E+03  0.10928535185E+04  0.15553570634E+04  0.95000000000E+03 0.  0.
   -2000013    1    1    2    0    0  0.43040535863E+03 -0.37021346401E+03  0.95762221021E+03  0.14635050663E+04  0.95000000000E+03 0.  0.
<mgrwt>
<rscale>  0 0.22156439E+04</rscale>
<asrwt>0</asrwt>
<pdfrwt beam="1">  1        2 0.38994906E+00 0.22156439E+04</pdfrwt>
<pdfrwt beam="2">  1       -2 0.74491263E-01 0.22156439E+04</pdfrwt>
<totfact> 0.49184593E+00</totfact>
</mgrwt>
</event>
<event>
 4    1  0.1343107E-008  0.2437569E+04  0.7816531E-02  0.8425571E-01
         -2   -1    0    0    0  501 -0.00000000000E+00  0.00000000000E+00  0.12631475746E+04  0.12631475746E+04  0.00000000000E+00 0. -1.
          2   -1    0    0  501    0  0.00000000000E+00 -0.00000000000E+00 -0.11759793912E+04  0.11759793912E+04  0.00000000000E+00 0.  1.
    2000013    1    1    2    0    0 -0.64502863528E+03  0.37742686698E+03  0.19996109465E+03  0.12251519986E+04  0.95000000000E+03 0.  0.
   -2000013    1    1    2    0    0  0.64502863528E+03 -0.37742686698E+03 -0.11279291119E+03  0.12139749672E+04  0.95000000000E+03 0.  0.
<mgrwt>
<rscale>  0 0.24375689E+04</rscale>
<asrwt>0</asrwt>
<pdfrwt beam="2">  1        2 0.18091991E+00 0.24375689E+04</pdfrwt>
<pdfrwt beam="1">  1       -2 0.19433040E+00 0.24375689E+04</pdfrwt>
<totfact> 0.25451018E+00</totfact>
</mgrwt>
</event>
<event>
 4    1  0.1343107E-008  0.2886317E+04  0.7816531E-02  0.8276960E-01
         -2   -1    0    0    0  501 -0.00000000000E+00  0.00000000000E+00  0.66566268996E+03  0.66566268996E+03  0.00000000000E+00 0. -1.
          2   -1    0    0  501    0  0.00000000000E+00 -0.00000000000E+00 -0.31287714939E+04  0.31287714939E+04  0.00000000000E+00 0.  1.
    2000013    1    1    2    0    0 -0.36268410893E+03 -0.71560038166E+03 -0.21945434837E+04  0.25223292352E+04  0.95000000000E+03 0.  0.
   -2000013    1    1    2    0    0  0.36268410893E+03  0.71560038166E+03 -0.26856532027E+03  0.12721049486E+04  0.95000000000E+03 0.  0.
<mgrwt>
<rscale>  0 0.28863170E+04</rscale>
<asrwt>0</asrwt>
<pdfrwt beam="2">  1        2 0.48134946E+00 0.28863170E+04</pdfrwt>
<pdfrwt beam="1">  1       -2 0.10240964E+00 0.28863170E+04</pdfrwt>
<totfact> 0.97200369E-01</totfact>
</mgrwt>
</event>
<event>
 4    1  0.1343107E-008  0.2530641E+04  0.7816531E-02  0.8392150E-01
          2   -1    0    0  501    0  0.00000000000E+00  0.00000000000E+00  0.21287302053E+04  0.21287302053E+04  0.00000000000E+00 0. -1.
         -2   -1    0    0    0  501 -0.00000000000E+00 -0.00000000000E+00 -0.75210827914E+03  0.75210827914E+03  0.00000000000E+00 0.  1.
    2000013    1    1    2    0    0  0.57889527595E+03  0.47936026279E+03  0.27217067080E+03  0.12415646887E+04  0.95000000000E+03 0.  0.
   -2000013    1    1    2    0    0 -0.57889527595E+03 -0.47936026279E+03  0.11044512553E+04  0.16392737957E+04  0.95000000000E+03 0.  0.
<mgrwt>
<rscale>  0 0.25306407E+04</rscale>
<asrwt>0</asrwt>
<pdfrwt beam="1">  1        2 0.32749695E+00 0.25306407E+04</pdfrwt>
<pdfrwt beam="2">  1       -2 0.11570897E+00 0.25306407E+04</pdfrwt>
<totfact> 0.29257602E+00</totfact>
</mgrwt>
</event>
<event>
 4    1  0.1343107E-008  0.3570771E+04  0.7816531E-02  0.8097220E-01
         -2   -1    0    0    0  501 -0.00000000000E+00  0.00000000000E+00  0.76250809055E+03  0.76250809055E+03  0.00000000000E+00 0.  1.
          2   -1    0    0  501    0  0.00000000000E+00 -0.00000000000E+00 -0.41804168963E+04  0.41804168963E+04  0.00000000000E+00 0. -1.
    2000013    1    1    2    0    0  0.13751075090E+04 -0.62669647969E+03 -0.17613481396E+04  0.25076914499E+04  0.95000000000E+03 0.  0.
   -2000013    1    1    2    0    0 -0.13751075090E+04  0.62669647969E+03 -0.16565606661E+04  0.24352335369E+04  0.95000000000E+03 0.  0.
<mgrwt>
<rscale>  0 0.35707712E+04</rscale>
<asrwt>0</asrwt>
<pdfrwt beam="2">  1        2 0.64314106E+00 0.35707712E+04</pdfrwt>
<pdfrwt beam="1">  1       -2 0.11730894E+00 0.35707712E+04</pdfrwt>
<totfact> 0.11054987E-01</totfact>
</mgrwt>
</event>
<event>
 4    1  0.1343107E-008  0.2511614E+04  0.7816531E-02  0.8398860E-01
          2   -1    0    0  501    0  0.00000000000E+00  0.00000000000E+00  0.21724219875E+04  0.21724219875E+04  0.00000000000E+00 0.  1.
         -2   -1    0    0    0  501 -0.00000000000E+00 -0.00000000000E+00 -0.72594140801E+03  0.72594140801E+03  0.00000000000E+00 0. -1.
    2000013    1    1    2    0    0 -0.47258790250E+03  0.57522249580E+03  0.11235428973E+04  0.16489599411E+04  0.95000000000E+03 0.  0.
   -2000013    1    1    2    0    0  0.47258790250E+03 -0.57522249580E+03  0.32293768216E+03  0.12494034544E+04  0.95000000000E+03 0.  0.
<mgrwt>
<rscale>  0 0.25116139E+04</rscale>
<asrwt>0</asrwt>
<pdfrwt beam="1">  1        2 0.33421876E+00 0.25116139E+04</pdfrwt>
<pdfrwt beam="2">  1       -2 0.11168329E+00 0.25116139E+04</pdfrwt>
<totfact> 0.30192281E+00</totfact>
</mgrwt>
</event>
<event>
 4    1  0.1343107E-008  0.2419467E+04  0.7816531E-02  0.8432251E-01
          2   -1    0    0  501    0  0.00000000000E+00  0.00000000000E+00  0.85045085805E+03  0.85045085805E+03  0.00000000000E+00 0.  1.
         -2   -1    0    0    0  501 -0.00000000000E+00 -0.00000000000E+00 -0.17207988554E+04  0.17207988554E+04  0.00000000000E+00 0. -1.
    2000013    1    1    2    0    0 -0.39508735195E+02 -0.59417817934E+03 -0.91792462637E+03  0.14490321834E+04  0.95000000000E+03 0.  0.
   -2000013    1    1    2    0    0  0.39508735195E+02  0.59417817934E+03  0.47576629049E+02  0.11222175300E+04  0.95000000000E+03 0.  0.
<mgrwt>
<rscale>  0 0.24194668E+04</rscale>
<asrwt>0</asrwt>
<pdfrwt beam="1">  1        2 0.13083859E+00 0.24194668E+04</pdfrwt>
<pdfrwt beam="2">  1       -2 0.26473828E+00 0.24194668E+04</pdfrwt>
<totfact> 0.14860341E+00</totfact>
</mgrwt>
</event>
<event>
 4    1  0.1343107E-008  0.2384579E+04  0.7816531E-02  0.8445300E-01
          2   -1    0    0  501    0  0.00000000000E+00  0.00000000000E+00  0.13339982405E+04  0.13339982405E+04  0.00000000000E+00 0.  1.
         -2   -1    0    0    0  501 -0.00000000000E+00 -0.00000000000E+00 -0.10656340014E+04  0.10656340014E+04  0.00000000000E+00 0. -1.
    2000013    1    1    2    0    0  0.13828075029E+03 -0.56005826295E+03  0.56849334927E+03  0.12483875648E+04  0.95000000000E+03 0.  0.
   -2000013    1    1    2    0    0 -0.13828075029E+03  0.56005826295E+03 -0.30012911010E+03  0.11512446771E+04  0.95000000000E+03 0.  0.
<mgrwt>
<rscale>  0 0.23845787E+04</rscale>
<asrwt>0</asrwt>
<pdfrwt beam="1">  1        2 0.20523050E+00 0.23845787E+04</pdfrwt>
<pdfrwt beam="2">  1       -2 0.16394369E+00 0.23845787E+04</pdfrwt>
<totfact> 0.33516651E+00</totfact>
</mgrwt>
</event>
<event>
 4    1  0.1343107E-008  0.2288367E+04  0.7816531E-02  0.8482522E-01
          2   -1    0    0  501    0  0.00000000000E+00  0.00000000000E+00  0.22927971498E+04  0.22927971498E+04  0.00000000000E+00 0.  1.
         -2   -1    0    0    0  501 -0.00000000000E+00 -0.00000000000E+00 -0.57098624145E+03  0.57098624145E+03  0.00000000000E+00 0. -1.
    2000013    1    1    2    0    0 -0.17942619152E+03 -0.10124790002E+03  0.10565516351E+03  0.97780770555E+03  0.95000000000E+03 0.  0.
   -2000013    1    1    2    0    0  0.17942619152E+03  0.10124790002E+03  0.16161557448E+04  0.18859756857E+04  0.95000000000E+03 0.  0.
<mgrwt>
<rscale>  0 0.22883668E+04</rscale>
<asrwt>0</asrwt>
<pdfrwt beam="1">  1        2 0.35273802E+00 0.22883668E+04</pdfrwt>
<pdfrwt beam="2">  1       -2 0.87844039E-01 0.22883668E+04</pdfrwt>
<totfact> 0.46404636E+00</totfact>
</mgrwt>
</event>
<event>
 4    1  0.1343107E-008  0.2713936E+04  0.7816531E-02  0.8330497E-01
          2   -1    0    0  501    0  0.00000000000E+00  0.00000000000E+00  0.17885475108E+04  0.17885475108E+04  0.00000000000E+00 0.  1.
         -2   -1    0    0    0  501 -0.00000000000E+00 -0.00000000000E+00 -0.10295291654E+04  0.10295291654E+04  0.00000000000E+00 0. -1.
    2000013    1    1    2    0    0 -0.90823730130E+03 -0.33695537565E+03  0.35802952385E+03  0.14032530280E+04  0.95000000000E+03 0.  0.
   -2000013    1    1    2    0    0  0.90823730130E+03  0.33695537565E+03  0.40098882151E+03  0.14148236482E+04  0.95000000000E+03 0.  0.
<mgrwt>
<rscale>  0 0.27139358E+04</rscale>
<asrwt>0</asrwt>
<pdfrwt beam="1">  1        2 0.27516115E+00 0.27139358E+04</pdfrwt>
<pdfrwt beam="2">  1       -2 0.15838910E+00 0.27139358E+04</pdfrwt>
<totfact> 0.19869982E+00</totfact>
</mgrwt>
</event>
<event>
 4    1  0.1343107E-008  0.3152501E+04  0.7816531E-02  0.8201475E-01
         -2   -1    0    0    0  501 -0.00000000000E+00  0.00000000000E+00  0.11304448002E+04  0.11304448002E+04  0.00000000000E+00 0. -1.
          2   -1    0    0  501    0  0.00000000000E+00 -0.00000000000E+00 -0.21978661009E+04  0.21978661009E+04  0.00000000000E+00 0.  1.
    2000013    1    1    2    0    0  0.78084748076E+03 -0.97114688813E+03 -0.35324764655E+03  0.16062792305E+04  0.95000000000E+03 0.  0.
   -2000013    1    1    2    0    0 -0.78084748076E+03  0.97114688813E+03 -0.71417365412E+03  0.17220316707E+04  0.95000000000E+03 0.  0.
<mgrwt>
<rscale>  0 0.31525014E+04</rscale>
<asrwt>0</asrwt>
<pdfrwt beam="2">  1        2 0.33813324E+00 0.31525014E+04</pdfrwt>
<pdfrwt beam="1">  1       -2 0.17391459E+00 0.31525014E+04</pdfrwt>
<totfact> 0.87532419E-01</totfact>
</mgrwt>
</event>
<event>
 4    1  0.1343107E-008  0.2506496E+04  0.7816531E-02  0.8400675E-01
         -2   -1    0    0    0  501 -0.00000000000E+00  0.00000000000E+00  0.59104592410E+03  0.59104592410E+03  0.00000000000E+00 0. -1.
          2   -1    0    0  501    0  0.00000000000E+00 -0.00000000000E+00 -0.26573754433E+04  0.26573754433E+04  0.00000000000E+00 0.  1.
    2000013    1    1    2    0    0 -0.25667513397E+03 -0.64794400270E+03 -0.47963830074E+03  0.12721110229E+04  0.95000000000E+03 0.  0.
   -2000013    1    1    2    0    0  0.25667513397E+03  0.64794400270E+03 -0.15866912184E+04  0.19763103445E+04  0.95000000000E+03 0.  0.
<mgrwt>
<rscale>  0 0.25064963E+04</rscale>
<asrwt>0</asrwt>
<pdfrwt beam="2">  1        2 0.40882699E+00 0.25064963E+04</pdfrwt>
<pdfrwt beam="1">  1       -2 0.90930141E-01 0.25064963E+04</pdfrwt>
<totfact> 0.25891909E+00</totfact>
</mgrwt>
</event>
<event>
 4    1  0.1343107E-008  0.2241549E+04  0.7816531E-02  0.8501331E-01
         -1   -1    0    0    0  501 -0.00000000000E+00  0.00000000000E+00  0.18138437633E+04  0.18138437633E+04  0.00000000000E+00 0. -1.
          1   -1    0    0  501    0  0.00000000000E+00 -0.00000000000E+00 -0.69252652605E+03  0.69252652605E+03  0.00000000000E+00 0.  1.
    2000013    1    1    2    0    0  0.44298008736E+03 -0.38946447225E+03  0.47608545360E+03  0.12153482184E+04  0.95000000000E+03 0.  0.
   -2000013    1    1    2    0    0 -0.44298008736E+03  0.38946447225E+03  0.64523178364E+03  0.12910220709E+04  0.95000000000E+03 0.  0.
<mgrwt>
<rscale>  0 0.22415485E+04</rscale>
<asrwt>0</asrwt>
<pdfrwt beam="2">  1        1 0.10654254E+00 0.22415485E+04</pdfrwt>
<pdfrwt beam="1">  1       -1 0.27905288E+00 0.22415485E+04</pdfrwt>
<totfact> 0.11357227E+00</totfact>
</mgrwt>
</event>
<event>
 4    1  0.1343107E-008  0.3644340E+04  0.7816531E-02  0.8080410E-01
          2   -1    0    0  501    0  0.00000000000E+00  0.00000000000E+00  0.22305244282E+04  0.22305244282E+04  0.00000000000E+00 0. -1.
         -2   -1    0    0    0  501 -0.00000000000E+00 -0.00000000000E+00 -0.14885750866E+04  0.14885750866E+04  0.00000000000E+00 0.  1.
    2000013    1    1    2    0    0 -0.65314754782E+02 -0.13716447178E+04 -0.37346058197E+03  0.17110371286E+04  0.95000000000E+03 0.  0.
   -2000013    1    1    2    0    0  0.65314754782E+02  0.13716447178E+04  0.11154099236E+04  0.20080623862E+04  0.95000000000E+03 0.  0.
<mgrwt>
<rscale>  0 0.36443398E+04</rscale>
<asrwt>0</asrwt>
<pdfrwt beam="1">  1        2 0.34315760E+00 0.36443398E+04</pdfrwt>
<pdfrwt beam="2">  1       -2 0.22901155E+00 0.36443398E+04</pdfrwt>
<totfact> 0.34957669E-01</totfact>
</mgrwt>
</event>
<event>
 4    1  0.1343107E-008  0.2262031E+04  0.7816531E-02  0.8493044E-01
          2   -1    0    0  501    0  0.00000000000E+00  0.00000000000E+00  0.21438491279E+04  0.21438491279E+04  0.00000000000E+00 0.  1.
         -2   -1    0    0    0  501 -0.00000000000E+00 -0.00000000000E+00 -0.59668186145E+03  0.59668186145E+03  0.00000000000E+00 0. -1.
    2000013    1    1    2    0    0  0.45195397206E+03  0.41107925188E+03  0.70244942285E+03  0.13301066633E+04  0.95000000000E+03 0.  0.
   -2000013    1    1    2    0    0 -0.45195397206E+03 -0.41107925188E+03  0.84471784364E+03  0.14104243261E+04  0.95000000000E+03 0.  0.
<mgrwt>
<rscale>  0 0.22620308E+04</rscale>
<asrwt>0</asrwt>
<pdfrwt beam="1">  1        2 0.32982294E+00 0.22620308E+04</pdfrwt>
<pdfrwt beam="2">  1       -2 0.91797210E-01 0.22620308E+04</pdfrwt>
<totfact> 0.50974080E+00</totfact>
</mgrwt>
</event>
<event>
 4    1  0.1343107E-008  0.2384327E+04  0.7816531E-02  0.8445395E-01
          2   -1    0    0  501    0  0.00000000000E+00  0.00000000000E+00  0.11309327270E+04  0.11309327270E+04  0.00000000000E+00 0.  1.
         -2   -1    0    0    0  501 -0.00000000000E+00 -0.00000000000E+00 -0.12567094610E+04  0.12567094610E+04  0.00000000000E+00 0. -1.
    2000013    1    1    2    0    0 -0.47710544128E+03  0.22408346847E+03 -0.55439751395E+03  0.12197129197E+04  0.95000000000E+03 0.  0.
   -2000013    1    1    2    0    0  0.47710544128E+03 -0.22408346847E+03  0.42862077995E+03  0.11679292684E+04  0.95000000000E+03 0.  0.
<mgrwt>
<rscale>  0 0.23843270E+04</rscale>
<asrwt>0</asrwt>
<pdfrwt beam="1">  1        2 0.17398965E+00 0.23843270E+04</pdfrwt>
<pdfrwt beam="2">  1       -2 0.19333992E+00 0.23843270E+04</pdfrwt>
<totfact> 0.27639569E+00</totfact>
</mgrwt>
</event>
<event>
 4    1  0.1343107E-008  0.2950518E+04  0.7816531E-02  0.8258004E-01
         -2   -1    0    0    0  501 -0.00000000000E+00  0.00000000000E+00  0.82619771507E+03  0.82619771507E+03  0.00000000000E+00 0. -1.
          2   -1    0    0  501    0  0.00000000000E+00 -0.00000000000E+00 -0.26342231632E+04  0.26342231632E+04  0.00000000000E+00 0.  1.
    2000013    1    1    2    0    0 -0.89260377073E+03 -0.15595672219E+03 -0.16932288115E+04  0.21425657047E+04  0.95000000000E+03 0.  0.
   -2000013    1    1    2    0    0  0.89260377073E+03  0.15595672219E+03 -0.11479663658E+03  0.13178551736E+04  0.95000000000E+03 0.  0.
<mgrwt>
<rscale>  0 0.29505180E+04</rscale>
<asrwt>0</asrwt>
<pdfrwt beam="2">  1        2 0.40526510E+00 0.29505180E+04</pdfrwt>
<pdfrwt beam="1">  1       -2 0.12710734E+00 0.29505180E+04</pdfrwt>
<totfact> 0.11475705E+00</totfact>
</mgrwt>
</event>
<event>
 4    1  0.1343107E-008  0.2357236E+04  0.7816531E-02  0.8455689E-01
          2   -1    0    0  501    0  0.00000000000E+00  0.00000000000E+00  0.22523383053E+04  0.22523383053E+04  0.00000000000E+00 0.  1.
         -2   -1    0    0    0  501 -0.00000000000E+00 -0.00000000000E+00 -0.61675501266E+03  0.61675501266E+03  0.00000000000E+00 0. -1.
    2000013    1    1    2    0    0  0.68333498102E+03 -0.15156967081E+02  0.98760164591E+03  0.15313502019E+04  0.95000000000E+03 0.  0.
   -2000013    1    1    2    0    0 -0.68333498102E+03  0.15156967081E+02  0.64798164668E+03  0.13377431160E+04  0.95000000000E+03 0.  0.
<mgrwt>
<rscale>  0 0.23572365E+04</rscale>
<asrwt>0</asrwt>
<pdfrwt beam="1">  1        2 0.34651358E+00 0.23572365E+04</pdfrwt>
<pdfrwt beam="2">  1       -2 0.94885388E-01 0.23572365E+04</pdfrwt>
<totfact> 0.40683954E+00</totfact>
</mgrwt>
</event>
<event>
 4    1  0.1343107E-008  0.2973188E+04  0.7816531E-02  0.8251429E-01
          2   -1    0    0  501    0  0.00000000000E+00  0.00000000000E+00  0.23190723545E+04  0.23190723545E+04  0.00000000000E+00 0.  1.
         -2   -1    0    0    0  501 -0.00000000000E+00 -0.00000000000E+00 -0.95295066725E+03  0.95295066725E+03  0.00000000000E+00 0. -1.
    2000013    1    1    2    0    0 -0.71272644699E+03 -0.32398086064E+03  0.16002017197E+04  0.20189324233E+04  0.95000000000E+03 0.  0.
   -2000013    1    1    2    0    0  0.71272644699E+03  0.32398086064E+03 -0.23408003241E+03  0.12530905984E+04  0.95000000000E+03 0.  0.
<mgrwt>
<rscale>  0 0.29731879E+04</rscale>
<asrwt>0</asrwt>
<pdfrwt beam="1">  1        2 0.35678036E+00 0.29731879E+04</pdfrwt>
<pdfrwt beam="2">  1       -2 0.14660780E+00 0.29731879E+04</pdfrwt>
<totfact> 0.12073804E+00</totfact>
</mgrwt>
</event>
<event>
 4    1  0.1343107E-008  0.2674048E+04  0.7816531E-02  0.8343475E-01
         -2   -1    0    0    0  501 -0.00000000000E+00  0.00000000000E+00  0.15923980062E+04  0.15923980062E+04  0.00000000000E+00 0. -1.
          2   -1    0    0  501    0  0.00000000000E+00 -0.00000000000E+00 -0.11226043047E+04  0.11226043047E+04  0.00000000000E+00 0.  1.
    2000013    1    1    2    0    0 -0.71574506152E+03 -0.47232825817E+03 -0.15800256698E+03  0.12895153306E+04  0.95000000000E+03 0.  0.
   -2000013    1    1    2    0    0  0.71574506152E+03  0.47232825817E+03  0.62779626846E+03  0.14254869804E+04  0.95000000000E+03 0.  0.
<mgrwt>
<rscale>  0 0.26740478E+04</rscale>
<asrwt>0</asrwt>
<pdfrwt beam="2">  1        2 0.17270836E+00 0.26740478E+04</pdfrwt>
<pdfrwt beam="1">  1       -2 0.24498431E+00 0.26740478E+04</pdfrwt>
<totfact> 0.12799039E+00</totfact>
</mgrwt>
</event>
<event>
 4    1  0.1343107E-008  0.3245548E+04  0.7816531E-02  0.8176891E-01
          2   -1    0    0  501    0  0.00000000000E+00  0.00000000000E+00  0.23137539861E+04  0.23137539861E+04  0.00000000000E+00 0.  1.
         -2   -1    0    0    0  501 -0.00000000000E+00 -0.00000000000E+00 -0.11381485448E+04  0.11381485448E+04  0.00000000000E+00 0. -1.
    2000013    1    1    2    0    0 -0.10906741960E+04  0.72214553320E+03  0.73758026583E+03  0.17769606134E+04  0.95000000000E+03 0.  0.
   -2000013    1    1    2    0    0  0.10906741960E+04 -0.72214553320E+03  0.43802517540E+03  0.16749419176E+04  0.95000000000E+03 0.  0.
<mgrwt>
<rscale>  0 0.32455482E+04</rscale>
<asrwt>0</asrwt>
<pdfrwt beam="1">  1        2 0.35596215E+00 0.32455482E+04</pdfrwt>
<pdfrwt beam="2">  1       -2 0.17509978E+00 0.32455482E+04</pdfrwt>
<totfact> 0.73272312E-01</totfact>
</mgrwt>
</event>
<event>
 4    1  0.1343107E-008  0.2177945E+04  0.7816531E-02  0.8527664E-01
          2   -1    0    0  501    0  0.00000000000E+00  0.00000000000E+00  0.13959836628E+04  0.13959836628E+04  0.00000000000E+00 0.  1.
         -2   -1    0    0    0  501 -0.00000000000E+00 -0.00000000000E+00 -0.84948075974E+03  0.84948075974E+03  0.00000000000E+00 0. -1.
    2000013    1    1    2    0    0  0.28961220700E+03 -0.44008178248E+03  0.19463763626E+03  0.11035991189E+04  0.95000000000E+03 0.  0.
   -2000013    1    1    2    0    0 -0.28961220700E+03  0.44008178248E+03  0.35186526678E+03  0.11418653036E+04  0.95000000000E+03 0.  0.
<mgrwt>
<rscale>  0 0.21779451E+04</rscale>
<asrwt>0</asrwt>
<pdfrwt beam="1">  1        2 0.21476672E+00 0.21779451E+04</pdfrwt>
<pdfrwt beam="2">  1       -2 0.13068935E+00 0.21779451E+04</pdfrwt>
<totfact> 0.57093468E+00</totfact>
</mgrwt>
</event>
<event>
 4    1  0.1343107E-008  0.2099176E+04  0.7816531E-02  0.8561607E-01
         -2   -1    0    0    0  501 -0.00000000000E+00  0.00000000000E+00  0.87601192237E+03  0.87601192237E+03  0.00000000000E+00 0. -1.
          2   -1    0    0  501    0  0.00000000000E+00 -0.00000000000E+00 -0.12575568237E+04  0.12575568237E+04  0.00000000000E+00 0.  1.
    2000013    1    1    2    0    0 -0.15805553319E+03  0.18132652093E+03  0.19124993569E+03  0.99846752409E+03  0.95000000000E+03 0.  0.
   -2000013    1    1    2    0    0  0.15805553319E+03 -0.18132652093E+03 -0.57279483698E+03  0.11351012219E+04  0.95000000000E+03 0.  0.
<mgrwt>
<rscale>  0 0.20991758E+04</rscale>
<asrwt>0</asrwt>
<pdfrwt beam="2">  1        2 0.19347028E+00 0.20991758E+04</pdfrwt>
<pdfrwt beam="1">  1       -2 0.13477107E+00 0.20991758E+04</pdfrwt>
<totfact> 0.63939866E+00</totfact>
</mgrwt>
</event>
<event>
 4    1  0.1343107E-008  0.2507943E+04  0.7816531E-02  0.8400161E-01
          2   -1    0    0  501    0  0.00000000000E+00  0.00000000000E+00  0.11128442198E+04  0.11128442198E+04  0.00000000000E+00 0.  1.
         -2   -1    0    0    0  501 -0.00000000000E+00 -0.00000000000E+00 -0.14129958868E+04  0.14129958868E+04  0.00000000000E+00 0. -1.
    2000013    1    1    2    0    0 -0.66297713166E+03 -0.35090935274E+03 -0.47993140928E+03  0.13021175863E+04  0.95000000000E+03 0.  0.
   -2000013    1    1    2    0    0  0.66297713166E+03  0.35090935274E+03  0.17977974228E+03  0.12237225203E+04  0.95000000000E+03 0.  0.
<mgrwt>
<rscale>  0 0.25079428E+04</rscale>
<asrwt>0</asrwt>
<pdfrwt beam="1">  1        2 0.17120680E+00 0.25079428E+04</pdfrwt>
<pdfrwt beam="2">  1       -2 0.21738398E+00 0.25079428E+04</pdfrwt>
<totfact> 0.19578144E+00</totfact>
</mgrwt>
</event>
<event>
 4    1  0.1343107E-008  0.2489930E+04  0.7816531E-02  0.8406582E-01
          2   -1    0    0  501    0  0.00000000000E+00  0.00000000000E+00  0.14568123100E+04  0.14568123100E+04  0.00000000000E+00 0.  1.
         -2   -1    0    0    0  501 -0.00000000000E+00 -0.00000000000E+00 -0.10639244148E+04  0.10639244148E+04  0.00000000000E+00 0. -1.
    2000013    1    1    2    0    0 -0.28081305049E+03  0.45682046834E+03  0.80378072858E+03  0.13550292872E+04  0.95000000000E+03 0.  0.
   -2000013    1    1    2    0    0  0.28081305049E+03 -0.45682046834E+03 -0.41089283340E+03  0.11657074376E+04  0.95000000000E+03 0.  0.
<mgrwt>
<rscale>  0 0.24899303E+04</rscale>
<asrwt>0</asrwt>
<pdfrwt beam="1">  1        2 0.22412497E+00 0.24899303E+04</pdfrwt>
<pdfrwt beam="2">  1       -2 0.16368068E+00 0.24899303E+04</pdfrwt>
<totfact> 0.28377902E+00</totfact>
</mgrwt>
</event>
<event>
 4    1  0.1343107E-008  0.2986617E+04  0.7816531E-02  0.8247563E-01
         -2   -1    0    0    0  501 -0.00000000000E+00  0.00000000000E+00  0.81045360639E+03  0.81045360639E+03  0.00000000000E+00 0. -1.
          2   -1    0    0  501    0  0.00000000000E+00 -0.00000000000E+00 -0.27515080228E+04  0.27515080228E+04  0.00000000000E+00 0.  1.
    2000013    1    1    2    0    0 -0.50571589354E+03 -0.17431479120E+01  0.26414033490E+03  0.11081614143E+04  0.95000000000E+03 0.  0.
   -2000013    1    1    2    0    0  0.50571589354E+03  0.17431479120E+01 -0.22051947513E+04  0.24538002149E+04  0.95000000000E+03 0.  0.
<mgrwt>
<rscale>  0 0.29866165E+04</rscale>
<asrwt>0</asrwt>
<pdfrwt beam="2">  1        2 0.42330893E+00 0.29866165E+04</pdfrwt>
<pdfrwt beam="1">  1       -2 0.12468517E+00 0.29866165E+04</pdfrwt>
<totfact> 0.10224036E+00</totfact>
</mgrwt>
</event>
<event>
 4    1  0.1343107E-008  0.3309240E+04  0.7816531E-02  0.8160548E-01
          2   -1    0    0  501    0  0.00000000000E+00  0.00000000000E+00  0.18602204570E+04  0.18602204570E+04  0.00000000000E+00 0.  1.
         -2   -1    0    0    0  501 -0.00000000000E+00 -0.00000000000E+00 -0.14717430809E+04  0.14717430809E+04  0.00000000000E+00 0. -1.
    2000013    1    1    2    0    0  0.11458364917E+04  0.55254357754E+03  0.66329267419E+03  0.17206693007E+04  0.95000000000E+03 0.  0.
   -2000013    1    1    2    0    0 -0.11458364917E+04 -0.55254357754E+03 -0.27481529808E+03  0.16112942372E+04  0.95000000000E+03 0.  0.
<mgrwt>
<rscale>  0 0.33092395E+04</rscale>
<asrwt>0</asrwt>
<pdfrwt beam="1">  1        2 0.28618776E+00 0.33092395E+04</pdfrwt>
<pdfrwt beam="2">  1       -2 0.22642201E+00 0.33092395E+04</pdfrwt>
<totfact> 0.60036898E-01</totfact>
</mgrwt>
</event>
<event>
 4    1  0.1343107E-008  0.2322993E+04  0.7816531E-02  0.8468910E-01
          2   -1    0    0  501    0  0.00000000000E+00  0.00000000000E+00  0.18605505070E+04  0.18605505070E+04  0.00000000000E+00 0.  1.
         -2   -1    0    0    0  501 -0.00000000000E+00 -0.00000000000E+00 -0.72509403451E+03  0.72509403451E+03  0.00000000000E+00 0. -1.
    2000013    1    1    2    0    0  0.91322274803E+02  0.65028493776E+03  0.70569372588E+03  0.13534082506E+04  0.95000000000E+03 0.  0.
   -2000013    1    1    2    0    0 -0.91322274803E+02 -0.65028493776E+03  0.42976274662E+03  0.12322362909E+04  0.95000000000E+03 0.  0.
<mgrwt>
<rscale>  0 0.23229930E+04</rscale>
<asrwt>0</asrwt>
<pdfrwt beam="1">  1        2 0.28623854E+00 0.23229930E+04</pdfrwt>
<pdfrwt beam="2">  1       -2 0.11155293E+00 0.23229930E+04</pdfrwt>
<totfact> 0.45894261E+00</totfact>
</mgrwt>
</event>
<event>
 4    1  0.1343107E-008  0.2154095E+04  0.7816531E-02  0.8537781E-01
          2   -1    0    0  501    0  0.00000000000E+00  0.00000000000E+00  0.15169012761E+04  0.15169012761E+04  0.00000000000E+00 0.  1.
         -2   -1    0    0    0  501 -0.00000000000E+00 -0.00000000000E+00 -0.76473746031E+03  0.76473746031E+03  0.00000000000E+00 0. -1.
    2000013    1    1    2    0    0  0.11138734295E+03 -0.49488139684E+03  0.36049703349E+03  0.11356816668E+04  0.95000000000E+03 0.  0.
   -2000013    1    1    2    0    0 -0.11138734295E+03  0.49488139684E+03  0.39166678231E+03  0.11459570696E+04  0.95000000000E+03 0.  0.
<mgrwt>
<rscale>  0 0.21540949E+04</rscale>
<asrwt>0</asrwt>
<pdfrwt beam="1">  1        2 0.23336943E+00 0.21540949E+04</pdfrwt>
<pdfrwt beam="2">  1       -2 0.11765192E+00 0.21540949E+04</pdfrwt>
<totfact> 0.63541529E+00</totfact>
</mgrwt>
</event>
<event>
 4    1  0.1343107E-008  0.3424163E+04  0.7816531E-02  0.8132001E-01
         -2   -1    0    0    0  501 -0.00000000000E+00  0.00000000000E+00  0.97664389599E+03  0.97664389599E+03  0.00000000000E+00 0. -1.
          2   -1    0    0  501    0  0.00000000000E+00 -0.00000000000E+00 -0.30013229343E+04  0.30013229343E+04  0.00000000000E+00 0.  1.
    2000013    1    1    2    0    0  0.52518558805E+03  0.99788994731E+03 -0.20231945738E+04  0.25034816820E+04  0.95000000000E+03 0.  0.
   -2000013    1    1    2    0    0 -0.52518558805E+03 -0.99788994731E+03 -0.14844645288E+01  0.14744851483E+04  0.95000000000E+03 0.  0.
<mgrwt>
<rscale>  0 0.34241634E+04</rscale>
<asrwt>0</asrwt>
<pdfrwt beam="2">  1        2 0.46174198E+00 0.34241634E+04</pdfrwt>
<pdfrwt beam="1">  1       -2 0.15025291E+00 0.34241634E+04</pdfrwt>
<totfact> 0.42827465E-01</totfact>
</mgrwt>
</event>
<event>
 4    1  0.1343107E-008  0.3595549E+04  0.7816531E-02  0.8091512E-01
          2   -1    0    0  501    0  0.00000000000E+00  0.00000000000E+00  0.39123190317E+04  0.39123190317E+04  0.00000000000E+00 0.  1.
         -2   -1    0    0    0  501 -0.00000000000E+00 -0.00000000000E+00 -0.82610663911E+03  0.82610663911E+03  0.00000000000E+00 0. -1.
    2000013    1    1    2    0    0 -0.41517890289E+03  0.14640296405E+04  0.16975624926E+04  0.24698126905E+04  0.95000000000E+03 0.  0.
   -2000013    1    1    2    0    0  0.41517890289E+03 -0.14640296405E+04  0.13886499000E+04  0.22686129803E+04  0.95000000000E+03 0.  0.
<mgrwt>
<rscale>  0 0.35955488E+04</rscale>
<asrwt>0</asrwt>
<pdfrwt beam="1">  1        2 0.60189523E+00 0.35955488E+04</pdfrwt>
<pdfrwt beam="2">  1       -2 0.12709333E+00 0.35955488E+04</pdfrwt>
<totfact> 0.15032146E-01</totfact>
</mgrwt>
</event>
<event>
 4    1  0.1343107E-008  0.2560900E+04  0.7816531E-02  0.8381605E-01
          1   -1    0    0  501    0  0.00000000000E+00  0.00000000000E+00  0.10653370207E+04  0.10653370207E+04  0.00000000000E+00 0.  1.
         -1   -1    0    0    0  501 -0.00000000000E+00 -0.00000000000E+00 -0.15389982519E+04  0.15389982519E+04  0.00000000000E+00 0. -1.
    2000013    1    1    2    0    0  0.49396474748E+03 -0.61766028314E+03  0.10281978713E+03  0.12403940123E+04  0.95000000000E+03 0.  0.
   -2000013    1    1    2    0    0 -0.49396474748E+03  0.61766028314E+03 -0.57648101838E+03  0.13639412603E+04  0.95000000000E+03 0.  0.
<mgrwt>
<rscale>  0 0.25608997E+04</rscale>
<asrwt>0</asrwt>
<pdfrwt beam="1">  1        1 0.16389800E+00 0.25608997E+04</pdfrwt>
<pdfrwt beam="2">  1       -1 0.23676896E+00 0.25608997E+04</pdfrwt>
<totfact> 0.10135190E+00</totfact>
</mgrwt>
</event>
<event>
 4    1  0.1343107E-008  0.2470321E+04  0.7816531E-02  0.8413636E-01
          1   -1    0    0  501    0  0.00000000000E+00  0.00000000000E+00  0.15406081761E+04  0.15406081761E+04  0.00000000000E+00 0.  1.
         -1   -1    0    0    0  501 -0.00000000000E+00 -0.00000000000E+00 -0.99027182111E+03  0.99027182111E+03  0.00000000000E+00 0. -1.
    2000013    1    1    2    0    0 -0.62081642466E+03 -0.43037179733E+03  0.40449288070E+02  0.12144007007E+04  0.95000000000E+03 0.  0.
   -2000013    1    1    2    0    0  0.62081642466E+03  0.43037179733E+03  0.50988706697E+03  0.13164792965E+04  0.95000000000E+03 0.  0.
<mgrwt>
<rscale>  0 0.24703205E+04</rscale>
<asrwt>0</asrwt>
<pdfrwt beam="1">  1        1 0.23701664E+00 0.24703205E+04</pdfrwt>
<pdfrwt beam="2">  1       -1 0.15234951E+00 0.24703205E+04</pdfrwt>
<totfact> 0.18269380E+00</totfact>
</mgrwt>
</event>
<event>
 4    1  0.1343107E-008  0.2087142E+04  0.7816531E-02  0.8566929E-01
          2   -1    0    0  501    0  0.00000000000E+00  0.00000000000E+00  0.20825104871E+04  0.20825104871E+04  0.00000000000E+00 0.  1.
         -2   -1    0    0    0  501 -0.00000000000E+00 -0.00000000000E+00 -0.52294579480E+03  0.52294579480E+03  0.00000000000E+00 0. -1.
    2000013    1    1    2    0    0  0.22271652247E+03  0.24033118720E+03  0.42851713084E+03  0.10924690661E+04  0.95000000000E+03 0.  0.
   -2000013    1    1    2    0    0 -0.22271652247E+03 -0.24033118720E+03  0.11310475614E+04  0.15129872158E+04  0.95000000000E+03 0.  0.
<mgrwt>
<rscale>  0 0.20871417E+04</rscale>
<asrwt>0</asrwt>
<pdfrwt beam="1">  1        2 0.32038622E+00 0.20871417E+04</pdfrwt>
<pdfrwt beam="2">  1       -2 0.80453201E-01 0.20871417E+04</pdfrwt>
<totfact> 0.75658446E+00</totfact>
</mgrwt>
</event>
<event>
 4    1  0.1343107E-008  0.2339835E+04  0.7816531E-02  0.8462378E-01
         -2   -1    0    0    0  501 -0.00000000000E+00  0.00000000000E+00  0.77869952708E+03  0.77869952708E+03  0.00000000000E+00 0. -1.
          2   -1    0    0  501    0  0.00000000000E+00 -0.00000000000E+00 -0.17576827564E+04  0.17576827564E+04  0.00000000000E+00 0.  1.
    2000013    1    1    2    0    0  0.24831749119E+03  0.55184167343E+03 -0.83230998458E+03  0.14005108780E+04  0.95000000000E+03 0.  0.
   -2000013    1    1    2    0    0 -0.24831749119E+03 -0.55184167343E+03 -0.14667324469E+03  0.11358714054E+04  0.95000000000E+03 0.  0.
<mgrwt>
<rscale>  0 0.23398348E+04</rscale>
<asrwt>0</asrwt>
<pdfrwt beam="2">  1        2 0.27041273E+00 0.23398348E+04</pdfrwt>
<pdfrwt beam="1">  1       -2 0.11979993E+00 0.23398348E+04</pdfrwt>
<totfact> 0.43893782E+00</totfact>
</mgrwt>
</event>
<event>
 4    1  0.1343107E-008  0.2449027E+04  0.7816531E-02  0.8421374E-01
          1   -1    0    0  501    0  0.00000000000E+00  0.00000000000E+00  0.21009368846E+04  0.21009368846E+04  0.00000000000E+00 0.  1.
         -1   -1    0    0    0  501 -0.00000000000E+00 -0.00000000000E+00 -0.71369717237E+03  0.71369717237E+03  0.00000000000E+00 0. -1.
    2000013    1    1    2    0    0  0.61873614972E+03  0.46246040094E+03  0.67624058392E+03  0.13987513620E+04  0.95000000000E+03 0.  0.
   -2000013    1    1    2    0    0 -0.61873614972E+03 -0.46246040094E+03  0.71099912832E+03  0.14158826950E+04  0.95000000000E+03 0.  0.
<mgrwt>
<rscale>  0 0.24490265E+04</rscale>
<asrwt>0</asrwt>
<pdfrwt beam="1">  1        1 0.32322106E+00 0.24490265E+04</pdfrwt>
<pdfrwt beam="2">  1       -1 0.10979957E+00 0.24490265E+04</pdfrwt>
<totfact> 0.17400750E+00</totfact>
</mgrwt>
</event>
<event>
 4    1  0.1343107E-008  0.3506864E+04  0.7816531E-02  0.8112165E-01
         -2   -1    0    0    0  501 -0.00000000000E+00  0.00000000000E+00  0.39518674478E+04  0.39518674478E+04  0.00000000000E+00 0. -1.
          2   -1    0    0  501    0  0.00000000000E+00 -0.00000000000E+00 -0.77799274252E+03  0.77799274252E+03  0.00000000000E+00 0.  1.
    2000013    1    1    2    0    0 -0.18507419579E+03  0.12795421172E+04  0.25411613910E+04  0.30052423701E+04  0.95000000000E+03 0.  0.
   -2000013    1    1    2    0    0  0.18507419579E+03 -0.12795421172E+04  0.63271331422E+03  0.17246178202E+04  0.95000000000E+03 0.  0.
<mgrwt>
<rscale>  0 0.35068642E+04</rscale>
<asrwt>0</asrwt>
<pdfrwt beam="2">  1        2 0.11969119E+00 0.35068642E+04</pdfrwt>
<pdfrwt beam="1">  1       -2 0.60797960E+00 0.35068642E+04</pdfrwt>
<totfact> 0.13778907E-02</totfact>
</mgrwt>
</event>
<event>
 4    1  0.1343107E-008  0.3607305E+04  0.7816531E-02  0.8088821E-01
          2   -1    0    0  501    0  0.00000000000E+00  0.00000000000E+00  0.10657318281E+04  0.10657318281E+04  0.00000000000E+00 0.  1.
         -2   -1    0    0    0  501 -0.00000000000E+00 -0.00000000000E+00 -0.30525141521E+04  0.30525141521E+04  0.00000000000E+00 0. -1.
    2000013    1    1    2    0    0  0.84086066743E+03  0.10977133306E+04 -0.23728334818E+03  0.16943507918E+04  0.95000000000E+03 0.  0.
   -2000013    1    1    2    0    0 -0.84086066743E+03 -0.10977133306E+04 -0.17494989758E+04  0.24238951885E+04  0.95000000000E+03 0.  0.
<mgrwt>
<rscale>  0 0.36073045E+04</rscale>
<asrwt>0</asrwt>
<pdfrwt beam="1">  1        2 0.16395874E+00 0.36073045E+04</pdfrwt>
<pdfrwt beam="2">  1       -2 0.46961757E+00 0.36073045E+04</pdfrwt>
<totfact> 0.48025270E-02</totfact>
</mgrwt>
</event>
<event>
 4    1  0.1343107E-008  0.2163898E+04  0.7816531E-02  0.8533607E-01
          1   -1    0    0  501    0  0.00000000000E+00  0.00000000000E+00  0.15185500383E+04  0.15185500383E+04  0.00000000000E+00 0. -1.
         -1   -1    0    0    0  501 -0.00000000000E+00 -0.00000000000E+00 -0.77087563226E+03  0.77087563226E+03  0.00000000000E+00 0.  1.
    2000013    1    1    2    0    0 -0.12653610516E+03  0.27580935751E+03  0.81773650210E+03  0.12896802606E+04  0.95000000000E+03 0.  0.
   -2000013    1    1    2    0    0  0.12653610516E+03 -0.27580935751E+03 -0.70062096025E+02  0.99974541004E+03  0.95000000000E+03 0.  0.
<mgrwt>
<rscale>  0 0.21638976E+04</rscale>
<asrwt>0</asrwt>
<pdfrwt beam="1">  1        1 0.23362308E+00 0.21638976E+04</pdfrwt>
<pdfrwt beam="2">  1       -1 0.11859625E+00 0.21638976E+04</pdfrwt>
<totfact> 0.37009501E+00</totfact>
</mgrwt>
</event>
<event>
 4    1  0.1343107E-008  0.2297053E+04  0.7816531E-02  0.8479084E-01
         -2   -1    0    0    0  501 -0.00000000000E+00  0.00000000000E+00  0.97885286809E+03  0.97885286809E+03  0.00000000000E+00 0. -1.
          2   -1    0    0  501    0  0.00000000000E+00 -0.00000000000E+00 -0.13476110978E+04  0.13476110978E+04  0.00000000000E+00 0.  1.
    2000013    1    1    2    0    0 -0.49489398531E+03 -0.41353201491E+03 -0.15788690618E+03  0.11590328120E+04  0.95000000000E+03 0.  0.
   -2000013    1    1    2    0    0  0.49489398531E+03  0.41353201491E+03 -0.21087132350E+03  0.11674311539E+04  0.95000000000E+03 0.  0.
<mgrwt>
<rscale>  0 0.22970529E+04</rscale>
<asrwt>0</asrwt>
<pdfrwt beam="2">  1        2 0.20732478E+00 0.22970529E+04</pdfrwt>
<pdfrwt beam="1">  1       -2 0.15059275E+00 0.22970529E+04</pdfrwt>
<totfact> 0.41711370E+00</totfact>
</mgrwt>
</event>
<event>
 4    1  0.1343107E-008  0.2926449E+04  0.7816531E-02  0.8265051E-01
          2   -1    0    0  501    0  0.00000000000E+00  0.00000000000E+00  0.25516949680E+04  0.25516949680E+04  0.00000000000E+00 0.  1.
         -2   -1    0    0    0  501 -0.00000000000E+00 -0.00000000000E+00 -0.83906019133E+03  0.83906019133E+03  0.00000000000E+00 0. -1.
    2000013    1    1    2    0    0  0.67150536411E+03  0.38361450568E+03  0.17835672982E+04  0.21637217590E+04  0.95000000000E+03 0.  0.
   -2000013    1    1    2    0    0 -0.67150536411E+03 -0.38361450568E+03 -0.70932521542E+02  0.12270334004E+04  0.95000000000E+03 0.  0.
<mgrwt>
<rscale>  0 0.29264488E+04</rscale>
<asrwt>0</asrwt>
<pdfrwt beam="1">  1        2 0.39256845E+00 0.29264488E+04</pdfrwt>
<pdfrwt beam="2">  1       -2 0.12908618E+00 0.29264488E+04</pdfrwt>
<totfact> 0.12364348E+00</totfact>
</mgrwt>
</event>
<event>
 4    1  0.1343107E-008  0.3103061E+04  0.7816531E-02  0.8214898E-01
         -2   -1    0    0    0  501 -0.00000000000E+00  0.00000000000E+00  0.12983085068E+04  0.12983085068E+04  0.00000000000E+00 0. -1.
          2   -1    0    0  501    0  0.00000000000E+00 -0.00000000000E+00 -0.18541410144E+04  0.18541410144E+04  0.00000000000E+00 0.  1.
    2000013    1    1    2    0    0  0.31780309285E+03 -0.11667180858E+04 -0.68437535193E+02  0.15392899642E+04  0.95000000000E+03 0.  0.
   -2000013    1    1    2    0    0 -0.31780309285E+03  0.11667180858E+04 -0.48739497239E+03  0.16131595571E+04  0.95000000000E+03 0.  0.
<mgrwt>
<rscale>  0 0.31030611E+04</rscale>
<asrwt>0</asrwt>
<pdfrwt beam="2">  1        2 0.28525246E+00 0.31030611E+04</pdfrwt>
<pdfrwt beam="1">  1       -2 0.19973977E+00 0.31030611E+04</pdfrwt>
<totfact> 0.91266160E-01</totfact>
</mgrwt>
</event>
<event>
 4    1  0.1343107E-008  0.3286477E+04  0.7816531E-02  0.8166345E-01
          2   -1    0    0  501    0  0.00000000000E+00  0.00000000000E+00  0.28552399963E+04  0.28552399963E+04  0.00000000000E+00 0.  1.
         -2   -1    0    0    0  501 -0.00000000000E+00 -0.00000000000E+00 -0.94571110681E+03  0.94571110681E+03  0.00000000000E+00 0. -1.
    2000013    1    1    2    0    0  0.78290905530E+03 -0.40213674661E+03 -0.21504400173E+03  0.13127850070E+04  0.95000000000E+03 0.  0.
   -2000013    1    1    2    0    0 -0.78290905530E+03  0.40213674661E+03  0.21245728912E+04  0.24881660961E+04  0.95000000000E+03 0.  0.
<mgrwt>
<rscale>  0 0.32864766E+04</rscale>
<asrwt>0</asrwt>
<pdfrwt beam="1">  1        2 0.43926769E+00 0.32864766E+04</pdfrwt>
<pdfrwt beam="2">  1       -2 0.14549402E+00 0.32864766E+04</pdfrwt>
<totfact> 0.58084004E-01</totfact>
</mgrwt>
</event>
<event>
 4    1  0.1343107E-008  0.2427749E+04  0.7816531E-02  0.8429187E-01
         -1   -1    0    0    0  501 -0.00000000000E+00  0.00000000000E+00  0.85556717951E+03  0.85556717951E+03  0.00000000000E+00 0. -1.
          1   -1    0    0  501    0  0.00000000000E+00 -0.00000000000E+00 -0.17222392184E+04  0.17222392184E+04  0.00000000000E+00 0.  1.
    2000013    1    1    2    0    0 -0.30057102824E+02  0.46908196070E+03 -0.10615557453E+04  0.15001139676E+04  0.95000000000E+03 0.  0.
   -2000013    1    1    2    0    0  0.30057102824E+02 -0.46908196070E+03  0.19488370646E+03  0.10776924303E+04  0.95000000000E+03 0.  0.
<mgrwt>
<rscale>  0 0.24277490E+04</rscale>
<asrwt>0</asrwt>
<pdfrwt beam="2">  1        1 0.26495988E+00 0.24277490E+04</pdfrwt>
<pdfrwt beam="1">  1       -1 0.13162572E+00 0.24277490E+04</pdfrwt>
<totfact> 0.20217335E+00</totfact>
</mgrwt>
</event>
<event>
 4    1  0.1343107E-008  0.2933994E+04  0.7816531E-02  0.8262834E-01
          2   -1    0    0  501    0  0.00000000000E+00  0.00000000000E+00  0.10979235502E+04  0.10979235502E+04  0.00000000000E+00 0.  1.
         -2   -1    0    0    0  501 -0.00000000000E+00 -0.00000000000E+00 -0.19601369217E+04  0.19601369217E+04  0.00000000000E+00 0. -1.
    2000013    1    1    2    0    0 -0.10071593694E+04 -0.38056910318E+03 -0.74444776976E+03  0.16173760600E+04  0.95000000000E+03 0.  0.
   -2000013    1    1    2    0    0  0.10071593694E+04  0.38056910318E+03 -0.11776560179E+03  0.14406844119E+04  0.95000000000E+03 0.  0.
<mgrwt>
<rscale>  0 0.29339942E+04</rscale>
<asrwt>0</asrwt>
<pdfrwt beam="1">  1        2 0.16891132E+00 0.29339942E+04</pdfrwt>
<pdfrwt beam="2">  1       -2 0.30155952E+00 0.29339942E+04</pdfrwt>
<totfact> 0.58469058E-01</totfact>
</mgrwt>
</event>
<event>
 4    1  0.1343107E-008  0.2063131E+04  0.7816531E-02  0.8577660E-01
         -1   -1    0    0    0  501 -0.00000000000E+00  0.00000000000E+00  0.27848165260E+03  0.27848165260E+03  0.00000000000E+00 0. -1.
          1   -1    0    0  501    0  0.00000000000E+00 -0.00000000000E+00 -0.38211773797E+04  0.38211773797E+04  0.00000000000E+00 0.  1.
    2000013    1    1    2    0    0  0.30934884605E+03 -0.25674028809E+03 -0.17635227274E+04  0.20430674718E+04  0.95000000000E+03 0.  0.
   -2000013    1    1    2    0    0 -0.30934884605E+03  0.25674028809E+03 -0.17791729997E+04  0.20565915606E+04  0.95000000000E+03 0.  0.
<mgrwt>
<rscale>  0 0.20631314E+04</rscale>
<asrwt>0</asrwt>
<pdfrwt beam="2">  1        1 0.58787345E+00 0.20631314E+04</pdfrwt>
<pdfrwt beam="1">  1       -1 0.42843331E-01 0.20631314E+04</pdfrwt>
<totfact> 0.68136643E-01</totfact>
</mgrwt>
</event>
<event>
 4    1  0.1343107E-008  0.2202182E+04  0.7816531E-02  0.8517520E-01
         -2   -1    0    0    0  501 -0.00000000000E+00  0.00000000000E+00  0.51611723255E+03  0.51611723255E+03  0.00000000000E+00 0. -1.
          2   -1    0    0  501    0  0.00000000000E+00 -0.00000000000E+00 -0.23490813215E+04  0.23490813215E+04  0.00000000000E+00 0.  1.
    2000013    1    1    2    0    0 -0.19307858737E+03  0.51418471880E+03 -0.10345581241E+04  0.15081365250E+04  0.95000000000E+03 0.  0.
   -2000013    1    1    2    0    0  0.19307858737E+03 -0.51418471880E+03 -0.79840596486E+03  0.13570620290E+04  0.95000000000E+03 0.  0.
<mgrwt>
<rscale>  0 0.22021820E+04</rscale>
<asrwt>0</asrwt>
<pdfrwt beam="2">  1        2 0.36139713E+00 0.22021820E+04</pdfrwt>
<pdfrwt beam="1">  1       -2 0.79402650E-01 0.22021820E+04</pdfrwt>
<totfact> 0.54613651E+00</totfact>
</mgrwt>
</event>
<event>
 4    1  0.1343107E-008  0.4021514E+04  0.7816531E-02  0.8000221E-01
          4   -1    0    0  501    0  0.00000000000E+00  0.00000000000E+00  0.17620699674E+04  0.17620699674E+04  0.00000000000E+00 0.  1.
         -4   -1    0    0    0  501 -0.00000000000E+00 -0.00000000000E+00 -0.22945421308E+04  0.22945421308E+04  0.00000000000E+00 0. -1.
    2000013    1    1    2    0    0  0.16675259456E+04  0.59993159340E+03 -0.25704162775E+03  0.20270991822E+04  0.95000000000E+03 0.  0.
   -2000013    1    1    2    0    0 -0.16675259456E+04 -0.59993159340E+03 -0.27543053561E+03  0.20295129160E+04  0.95000000000E+03 0.  0.
<mgrwt>
<rscale>  0 0.40215140E+04</rscale>
<asrwt>0</asrwt>
<pdfrwt beam="1">  1        4 0.27108769E+00 0.40215140E+04</pdfrwt>
<pdfrwt beam="2">  1       -4 0.35300648E+00 0.40215140E+04</pdfrwt>
<totfact> 0.10197327E-03</totfact>
</mgrwt>
</event>
<event>
 4    1  0.1343107E-008  0.2903232E+04  0.7816531E-02  0.8271916E-01
         -2   -1    0    0    0  501 -0.00000000000E+00  0.00000000000E+00  0.14840294654E+04  0.14840294654E+04  0.00000000000E+00 0. -1.
          2   -1    0    0  501    0  0.00000000000E+00 -0.00000000000E+00 -0.14199105600E+04  0.14199105600E+04  0.00000000000E+00 0.  1.
    2000013    1    1    2    0    0  0.95305113636E+03 -0.53883112428E+03 -0.45700486228E+02  0.14502530757E+04  0.95000000000E+03 0.  0.
   -2000013    1    1    2    0    0 -0.95305113636E+03  0.53883112428E+03  0.10981939160E+03  0.14536869497E+04  0.95000000000E+03 0.  0.
<mgrwt>
<rscale>  0 0.29032321E+04</rscale>
<asrwt>0</asrwt>
<pdfrwt beam="2">  1        2 0.21844778E+00 0.29032321E+04</pdfrwt>
<pdfrwt beam="1">  1       -2 0.22831223E+00 0.29032321E+04</pdfrwt>
<totfact> 0.10655717E+00</totfact>
</mgrwt>
</event>
<event>
 4    1  0.1343107E-008  0.2346647E+04  0.7816531E-02  0.8459753E-01
          1   -1    0    0  501    0  0.00000000000E+00  0.00000000000E+00  0.99471025070E+03  0.99471025070E+03  0.00000000000E+00 0.  1.
         -1   -1    0    0    0  501 -0.00000000000E+00 -0.00000000000E+00 -0.13840087643E+04  0.13840087643E+04  0.00000000000E+00 0. -1.
    2000013    1    1    2    0    0  0.27061520720E+03  0.63127531571E+03 -0.24478830171E+03  0.11975652079E+04  0.95000000000E+03 0.  0.
   -2000013    1    1    2    0    0 -0.27061520720E+03 -0.63127531571E+03 -0.14451021188E+03  0.11811538071E+04  0.95000000000E+03 0.  0.
<mgrwt>
<rscale>  0 0.23466467E+04</rscale>
<asrwt>0</asrwt>
<pdfrwt beam="1">  1        1 0.15303235E+00 0.23466467E+04</pdfrwt>
<pdfrwt beam="2">  1       -1 0.21292443E+00 0.23466467E+04</pdfrwt>
<totfact> 0.16889895E+00</totfact>
</mgrwt>
</event>
<event>
 4    1  0.1343107E-008  0.3163692E+04  0.7816531E-02  0.8198472E-01
         -2   -1    0    0    0  501 -0.00000000000E+00  0.00000000000E+00  0.15256505743E+04  0.15256505743E+04  0.00000000000E+00 0.  1.
          2   -1    0    0  501    0  0.00000000000E+00 -0.00000000000E+00 -0.16401108395E+04  0.16401108395E+04  0.00000000000E+00 0. -1.
    2000013    1    1    2    0    0  0.90786670682E+03  0.87464249332E+03  0.45377658448E+02  0.15791708522E+04  0.95000000000E+03 0.  0.
   -2000013    1    1    2    0    0 -0.90786670682E+03 -0.87464249332E+03 -0.15983792359E+03  0.15865905616E+04  0.95000000000E+03 0.  0.
<mgrwt>
<rscale>  0 0.31636915E+04</rscale>
<asrwt>0</asrwt>
<pdfrwt beam="2">  1        2 0.25232475E+00 0.31636915E+04</pdfrwt>
<pdfrwt beam="1">  1       -2 0.23471547E+00 0.31636915E+04</pdfrwt>
<totfact> 0.71465096E-01</totfact>
</mgrwt>
</event>
<event>
 4    1  0.1343107E-008  0.4646521E+04  0.7816531E-02  0.7885476E-01
         -2   -1    0    0    0  501 -0.00000000000E+00  0.00000000000E+00  0.27319246900E+04  0.27319246900E+04  0.00000000000E+00 0. -1.
          2   -1    0    0  501    0  0.00000000000E+00 -0.00000000000E+00 -0.19757276266E+04  0.19757276266E+04  0.00000000000E+00 0.  1.
    2000013    1    1    2    0    0 -0.13266231961E+04 -0.12160261385E+04  0.15137335956E+04  0.25362448763E+04  0.95000000000E+03 0.  0.
   -2000013    1    1    2    0    0  0.13266231961E+04  0.12160261385E+04 -0.75753653222E+03  0.21714074403E+04  0.95000000000E+03 0.  0.
<mgrwt>
<rscale>  0 0.46465209E+04</rscale>
<asrwt>0</asrwt>
<pdfrwt beam="2">  1        2 0.30395810E+00 0.46465209E+04</pdfrwt>
<pdfrwt beam="1">  1       -2 0.42029611E+00 0.46465209E+04</pdfrwt>
<totfact> 0.28189668E-02</totfact>
</mgrwt>
</event>
<event>
 4    1  0.1343107E-008  0.2855690E+04  0.7816531E-02  0.8286185E-01
          2   -1    0    0  501    0  0.00000000000E+00  0.00000000000E+00  0.16422339842E+04  0.16422339842E+04  0.00000000000E+00 0.  1.
         -2   -1    0    0    0  501 -0.00000000000E+00 -0.00000000000E+00 -0.12414435471E+04  0.12414435471E+04  0.00000000000E+00 0. -1.
    2000013    1    1    2    0    0 -0.86052290937E+02 -0.64634496514E+03  0.10519117496E+04  0.15601875335E+04  0.95000000000E+03 0.  0.
   -2000013    1    1    2    0    0  0.86052290937E+02  0.64634496514E+03 -0.65112131244E+03  0.13234899978E+04  0.95000000000E+03 0.  0.
<mgrwt>
<rscale>  0 0.28556896E+04</rscale>
<asrwt>0</asrwt>
<pdfrwt beam="1">  1        2 0.25265138E+00 0.28556896E+04</pdfrwt>
<pdfrwt beam="2">  1       -2 0.19099132E+00 0.28556896E+04</pdfrwt>
<totfact> 0.13966777E+00</totfact>
</mgrwt>
</event>
<event>
 4    1  0.1343107E-008  0.2472103E+04  0.7816531E-02  0.8412992E-01
         -2   -1    0    0    0  501 -0.00000000000E+00  0.00000000000E+00  0.52342465286E+03  0.52342465286E+03  0.00000000000E+00 0. -1.
          2   -1    0    0  501    0  0.00000000000E+00 -0.00000000000E+00 -0.29188985195E+04  0.29188985195E+04  0.00000000000E+00 0.  1.
    2000013    1    1    2    0    0  0.70313580264E+03  0.31014483410E+03 -0.14572506943E+04  0.19017542852E+04  0.95000000000E+03 0.  0.
   -2000013    1    1    2    0    0 -0.70313580264E+03 -0.31014483410E+03 -0.93822317228E+03  0.15405688872E+04  0.95000000000E+03 0.  0.
<mgrwt>
<rscale>  0 0.24721031E+04</rscale>
<asrwt>0</asrwt>
<pdfrwt beam="2">  1        2 0.44906130E+00 0.24721031E+04</pdfrwt>
<pdfrwt beam="1">  1       -2 0.80526871E-01 0.24721031E+04</pdfrwt>
<totfact> 0.23816127E+00</totfact>
</mgrwt>
</event>
<event>
 4    1  0.1343107E-008  0.2256078E+04  0.7816531E-02  0.8495443E-01
         -1   -1    0    0    0  501 -0.00000000000E+00  0.00000000000E+00  0.14691233024E+04  0.14691233024E+04  0.00000000000E+00 0.  1.
          1   -1    0    0  501    0  0.00000000000E+00 -0.00000000000E+00 -0.86614391771E+03  0.86614391771E+03  0.00000000000E+00 0. -1.
    2000013    1    1    2    0    0 -0.54418780146E+03  0.99029828811E+02  0.39576706076E+02  0.11000061754E+04  0.95000000000E+03 0.  0.
   -2000013    1    1    2    0    0  0.54418780146E+03 -0.99029828811E+02  0.56340267857E+03  0.12352610447E+04  0.95000000000E+03 0.  0.
<mgrwt>
<rscale>  0 0.22560782E+04</rscale>
<asrwt>0</asrwt>
<pdfrwt beam="2">  1        1 0.13325291E+00 0.22560782E+04</pdfrwt>
<pdfrwt beam="1">  1       -1 0.22601897E+00 0.22560782E+04</pdfrwt>
<totfact> 0.17667138E+00</totfact>
</mgrwt>
</event>
<event>
 4    1  0.1343107E-008  0.2342910E+04  0.7816531E-02  0.8461192E-01
         -2   -1    0    0    0  501 -0.00000000000E+00  0.00000000000E+00  0.33935077724E+03  0.33935077724E+03  0.00000000000E+00 0. -1.
          2   -1    0    0  501    0  0.00000000000E+00 -0.00000000000E+00 -0.40439176327E+04  0.40439176327E+04  0.00000000000E+00 0.  1.
    2000013    1    1    2    0    0 -0.10157612259E+03 -0.44522959859E+03 -0.89601783329E+03  0.13834359623E+04  0.95000000000E+03 0.  0.
   -2000013    1    1    2    0    0  0.10157612259E+03  0.44522959859E+03 -0.28085490222E+04  0.29998324477E+04  0.95000000000E+03 0.  0.
<mgrwt>
<rscale>  0 0.23429098E+04</rscale>
<asrwt>0</asrwt>
<pdfrwt beam="2">  1        2 0.62214112E+00 0.23429098E+04</pdfrwt>
<pdfrwt beam="1">  1       -2 0.52207816E-01 0.23429098E+04</pdfrwt>
<totfact> 0.99113175E-01</totfact>
</mgrwt>
</event>
<event>
 4    1  0.1343107E-008  0.2603738E+04  0.7816531E-02  0.8366933E-01
         -1   -1    0    0    0  501 -0.00000000000E+00  0.00000000000E+00  0.50692514855E+03  0.50692514855E+03  0.00000000000E+00 0. -1.
          1   -1    0    0  501    0  0.00000000000E+00 -0.00000000000E+00 -0.33434174207E+04  0.33434174207E+04  0.00000000000E+00 0.  1.
    2000013    1    1    2    0    0 -0.42746877335E+03 -0.68113304679E+03 -0.85380596902E+03  0.15093562907E+04  0.95000000000E+03 0.  0.
   -2000013    1    1    2    0    0  0.42746877335E+03  0.68113304679E+03 -0.19826863031E+04  0.23409862785E+04  0.95000000000E+03 0.  0.
<mgrwt>
<rscale>  0 0.26037376E+04</rscale>
<asrwt>0</asrwt>
<pdfrwt beam="2">  1        1 0.51437194E+00 0.26037376E+04</pdfrwt>
<pdfrwt beam="1">  1       -1 0.77988481E-01 0.26037376E+04</pdfrwt>
<totfact> 0.47969991E-01</totfact>
</mgrwt>
</event>
<event>
 4    1  0.1343107E-008  0.2327374E+04  0.7816531E-02  0.8467205E-01
         -2   -1    0    0    0  501 -0.00000000000E+00  0.00000000000E+00  0.10651713603E+04  0.10651713603E+04  0.00000000000E+00 0. -1.
          2   -1    0    0  501    0  0.00000000000E+00 -0.00000000000E+00 -0.12713141686E+04  0.12713141686E+04  0.00000000000E+00 0.  1.
    2000013    1    1    2    0    0 -0.42111140486E+03  0.37850013501E+03 -0.46652504275E+03  0.12003094530E+04  0.95000000000E+03 0.  0.
   -2000013    1    1    2    0    0  0.42111140486E+03 -0.37850013501E+03  0.26038223446E+03  0.11361760759E+04  0.95000000000E+03 0.  0.
<mgrwt>
<rscale>  0 0.23273740E+04</rscale>
<asrwt>0</asrwt>
<pdfrwt beam="2">  1        2 0.19558680E+00 0.23273740E+04</pdfrwt>
<pdfrwt beam="1">  1       -2 0.16387252E+00 0.23273740E+04</pdfrwt>
<totfact> 0.36676220E+00</totfact>
</mgrwt>
</event>
<event>
 4    1  0.1343107E-008  0.2987996E+04  0.7816531E-02  0.8247167E-01
          2   -1    0    0  501    0  0.00000000000E+00  0.00000000000E+00  0.28508439498E+04  0.28508439498E+04  0.00000000000E+00 0.  1.
         -2   -1    0    0    0  501 -0.00000000000E+00 -0.00000000000E+00 -0.78293657165E+03  0.78293657165E+03  0.00000000000E+00 0. -1.
    2000013    1    1    2    0    0  0.34641909297E+03  0.10426662555E+04  0.14593735152E+04  0.20589876555E+04  0.95000000000E+03 0.  0.
   -2000013    1    1    2    0    0 -0.34641909297E+03 -0.10426662555E+04  0.60853386294E+03  0.15747928660E+04  0.95000000000E+03 0.  0.
<mgrwt>
<rscale>  0 0.29879960E+04</rscale>
<asrwt>0</asrwt>
<pdfrwt beam="1">  1        2 0.43859137E+00 0.29879960E+04</pdfrwt>
<pdfrwt beam="2">  1       -2 0.12045178E+00 0.29879960E+04</pdfrwt>
<totfact> 0.97024038E-01</totfact>
</mgrwt>
</event>
<event>
 4    1  0.1343107E-008  0.2137328E+04  0.7816531E-02  0.8544976E-01
          1   -1    0    0  501    0  0.00000000000E+00  0.00000000000E+00  0.91592712280E+03  0.91592712280E+03  0.00000000000E+00 0.  1.
         -1   -1    0    0    0  501 -0.00000000000E+00 -0.00000000000E+00 -0.12468708743E+04  0.12468708743E+04  0.00000000000E+00 0. -1.
    2000013    1    1    2    0    0 -0.25712292979E+03 -0.40449842119E+03 -0.26570618955E+03  0.10967365011E+04  0.95000000000E+03 0.  0.
   -2000013    1    1    2    0    0  0.25712292979E+03  0.40449842119E+03 -0.65237561985E+02  0.10660614960E+04  0.95000000000E+03 0.  0.
<mgrwt>
<rscale>  0 0.21373281E+04</rscale>
<asrwt>0</asrwt>
<pdfrwt beam="1">  1        1 0.14091187E+00 0.21373281E+04</pdfrwt>
<pdfrwt beam="2">  1       -1 0.19182629E+00 0.21373281E+04</pdfrwt>
<totfact> 0.27771594E+00</totfact>
</mgrwt>
</event>
<event>
 4    1  0.1343107E-008  0.2027892E+04  0.7816531E-02  0.8593690E-01
          1   -1    0    0  501    0  0.00000000000E+00  0.00000000000E+00  0.98320312484E+03  0.98320312484E+03  0.00000000000E+00 0.  1.
         -1   -1    0    0    0  501 -0.00000000000E+00 -0.00000000000E+00 -0.10456503662E+04  0.10456503662E+04  0.00000000000E+00 0. -1.
    2000013    1    1    2    0    0 -0.18792662888E+02  0.34524646576E+03  0.46520493919E+02  0.10120338150E+04  0.95000000000E+03 0.  0.
   -2000013    1    1    2    0    0  0.18792662888E+02 -0.34524646576E+03 -0.10896773528E+03  0.10168196761E+04  0.95000000000E+03 0.  0.
<mgrwt>
<rscale>  0 0.20278922E+04</rscale>
<asrwt>0</asrwt>
<pdfrwt beam="1">  1        1 0.15126202E+00 0.20278922E+04</pdfrwt>
<pdfrwt beam="2">  1       -1 0.16086929E+00 0.20278922E+04</pdfrwt>
<totfact> 0.41551256E+00</totfact>
</mgrwt>
</event>
<event>
 4    1  0.1343107E-008  0.3182632E+04  0.7816531E-02  0.8193419E-01
          2   -1    0    0  501    0  0.00000000000E+00  0.00000000000E+00  0.13087113492E+04  0.13087113492E+04  0.00000000000E+00 0.  1.
         -2   -1    0    0    0  501 -0.00000000000E+00 -0.00000000000E+00 -0.19349463233E+04  0.19349463233E+04  0.00000000000E+00 0. -1.
    2000013    1    1    2    0    0 -0.10977744406E+04 -0.55167922137E+03 -0.66665143194E+03  0.16900836717E+04  0.95000000000E+03 0.  0.
   -2000013    1    1    2    0    0  0.10977744406E+04  0.55167922137E+03  0.40416457904E+02  0.15535740008E+04  0.95000000000E+03 0.  0.
<mgrwt>
<rscale>  0 0.31826317E+04</rscale>
<asrwt>0</asrwt>
<pdfrwt beam="1">  1        2 0.20134021E+00 0.31826317E+04</pdfrwt>
<pdfrwt beam="2">  1       -2 0.29768405E+00 0.31826317E+04</pdfrwt>
<totfact> 0.45240653E-01</totfact>
</mgrwt>
</event>
<event>
 4    1  0.1343107E-008  0.2079419E+04  0.7816531E-02  0.8570364E-01
          2   -1    0    0  501    0  0.00000000000E+00  0.00000000000E+00  0.22932547050E+04  0.22932547050E+04  0.00000000000E+00 0.  1.
         -2   -1    0    0    0  501 -0.00000000000E+00 -0.00000000000E+00 -0.47138067932E+03  0.47138067932E+03  0.00000000000E+00 0. -1.
    2000013    1    1    2    0    0 -0.40820574929E+03 -0.52627020107E+02  0.10377265519E+04  0.14658710494E+04  0.95000000000E+03 0.  0.
   -2000013    1    1    2    0    0  0.40820574929E+03  0.52627020107E+02  0.78414747380E+03  0.12987643349E+04  0.95000000000E+03 0.  0.
<mgrwt>
<rscale>  0 0.20794191E+04</rscale>
<asrwt>0</asrwt>
<pdfrwt beam="1">  1        2 0.35280841E+00 0.20794191E+04</pdfrwt>
<pdfrwt beam="2">  1       -2 0.72520106E-01 0.20794191E+04</pdfrwt>
<totfact> 0.72624087E+00</totfact>
</mgrwt>
</event>
<event>
 4    1  0.1343107E-008  0.2256775E+04  0.7816531E-02  0.8495162E-01
         -2   -1    0    0    0  501 -0.00000000000E+00  0.00000000000E+00  0.76146501319E+03  0.76146501319E+03  0.00000000000E+00 0. -1.
          2   -1    0    0  501    0  0.00000000000E+00 -0.00000000000E+00 -0.16721159635E+04  0.16721159635E+04  0.00000000000E+00 0.  1.
    2000013    1    1    2    0    0 -0.37155923756E+03 -0.48232717758E+03 -0.44683246036E+03  0.12136123849E+04  0.95000000000E+03 0.  0.
   -2000013    1    1    2    0    0  0.37155923756E+03  0.48232717758E+03 -0.46381848995E+03  0.12199685918E+04  0.95000000000E+03 0.  0.
<mgrwt>
<rscale>  0 0.22567745E+04</rscale>
<asrwt>0</asrwt>
<pdfrwt beam="2">  1        2 0.25724861E+00 0.22567745E+04</pdfrwt>
<pdfrwt beam="1">  1       -2 0.11714846E+00 0.22567745E+04</pdfrwt>
<totfact> 0.52116968E+00</totfact>
</mgrwt>
</event>
<event>
 4    1  0.1343107E-008  0.2767666E+04  0.7816531E-02  0.8313378E-01
         -2   -1    0    0    0  501 -0.00000000000E+00  0.00000000000E+00  0.11243759689E+04  0.11243759689E+04  0.00000000000E+00 0. -1.
          2   -1    0    0  501    0  0.00000000000E+00 -0.00000000000E+00 -0.17031608653E+04  0.17031608653E+04  0.00000000000E+00 0.  1.
    2000013    1    1    2    0    0 -0.48823766715E+03 -0.87982738635E+03 -0.28472204748E+03  0.14128124057E+04  0.95000000000E+03 0.  0.
   -2000013    1    1    2    0    0  0.48823766715E+03  0.87982738635E+03 -0.29406284901E+03  0.14147244285E+04  0.95000000000E+03 0.  0.
<mgrwt>
<rscale>  0 0.27676655E+04</rscale>
<asrwt>0</asrwt>
<pdfrwt beam="2">  1        2 0.26202475E+00 0.27676655E+04</pdfrwt>
<pdfrwt beam="1">  1       -2 0.17298092E+00 0.27676655E+04</pdfrwt>
<totfact> 0.17303024E+00</totfact>
</mgrwt>
</event>
<event>
 4    1  0.1343107E-008  0.2497279E+04  0.7816531E-02  0.8403955E-01
          2   -1    0    0  501    0  0.00000000000E+00  0.00000000000E+00  0.99288822385E+03  0.99288822385E+03  0.00000000000E+00 0.  1.
         -2   -1    0    0    0  501 -0.00000000000E+00 -0.00000000000E+00 -0.15702684972E+04  0.15702684972E+04  0.00000000000E+00 0. -1.
    2000013    1    1    2    0    0 -0.28213427622E+03  0.75474509227E+03 -0.37675084765E+03  0.13014150396E+04  0.95000000000E+03 0.  0.
   -2000013    1    1    2    0    0  0.28213427622E+03 -0.75474509227E+03 -0.20062942565E+03  0.12617416814E+04  0.95000000000E+03 0.  0.
<mgrwt>
<rscale>  0 0.24972794E+04</rscale>
<asrwt>0</asrwt>
<pdfrwt beam="1">  1        2 0.15275204E+00 0.24972794E+04</pdfrwt>
<pdfrwt beam="2">  1       -2 0.24157977E+00 0.24972794E+04</pdfrwt>
<totfact> 0.16444580E+00</totfact>
</mgrwt>
</event>
<event>
 4    1  0.1343107E-008  0.1981689E+04  0.7816531E-02  0.8615230E-01
          1   -1    0    0  501    0  0.00000000000E+00  0.00000000000E+00  0.17429031038E+04  0.17429031038E+04  0.00000000000E+00 0.  1.
         -1   -1    0    0    0  501 -0.00000000000E+00 -0.00000000000E+00 -0.56329761961E+03  0.56329761961E+03  0.00000000000E+00 0. -1.
    2000013    1    1    2    0    0  0.73498169839E+02  0.25284670653E+03  0.47377846860E+03  0.10937547601E+04  0.95000000000E+03 0.  0.
   -2000013    1    1    2    0    0 -0.73498169839E+02 -0.25284670653E+03  0.70582701557E+03  0.12124459633E+04  0.95000000000E+03 0.  0.
<mgrwt>
<rscale>  0 0.19816893E+04</rscale>
<asrwt>0</asrwt>
<pdfrwt beam="1">  1        1 0.26813894E+00 0.19816893E+04</pdfrwt>
<pdfrwt beam="2">  1       -1 0.86661173E-01 0.19816893E+04</pdfrwt>
<totfact> 0.54329236E+00</totfact>
</mgrwt>
</event>
<event>
 4    1  0.1343107E-008  0.2632045E+04  0.7816531E-02  0.8357397E-01
         -2   -1    0    0    0  501 -0.00000000000E+00  0.00000000000E+00  0.16036348036E+04  0.16036348036E+04  0.00000000000E+00 0. -1.
          2   -1    0    0  501    0  0.00000000000E+00 -0.00000000000E+00 -0.10799938435E+04  0.10799938435E+04  0.00000000000E+00 0.  1.
    2000013    1    1    2    0    0  0.58386293172E+03 -0.54934704636E+03 -0.17877998450E+03  0.12558424994E+04  0.95000000000E+03 0.  0.
   -2000013    1    1    2    0    0 -0.58386293172E+03  0.54934704636E+03  0.70242094459E+03  0.14277861478E+04  0.95000000000E+03 0.  0.
<mgrwt>
<rscale>  0 0.26320454E+04</rscale>
<asrwt>0</asrwt>
<pdfrwt beam="2">  1        2 0.16615290E+00 0.26320454E+04</pdfrwt>
<pdfrwt beam="1">  1       -2 0.24671305E+00 0.26320454E+04</pdfrwt>
<totfact> 0.13315051E+00</totfact>
</mgrwt>
</event>
<event>
 4    1  0.1343107E-008  0.2411451E+04  0.7816531E-02  0.8435229E-01
          2   -1    0    0  501    0  0.00000000000E+00  0.00000000000E+00  0.88111896339E+03  0.88111896339E+03  0.00000000000E+00 0.  1.
         -2   -1    0    0    0  501 -0.00000000000E+00 -0.00000000000E+00 -0.16499185246E+04  0.16499185246E+04  0.00000000000E+00 0. -1.
    2000013    1    1    2    0    0  0.61871315845E+03 -0.32167550967E+03 -0.11681915341E+03  0.11842414537E+04  0.95000000000E+03 0.  0.
   -2000013    1    1    2    0    0 -0.61871315845E+03  0.32167550967E+03 -0.65198040781E+03  0.13467960343E+04  0.95000000000E+03 0.  0.
<mgrwt>
<rscale>  0 0.24114514E+04</rscale>
<asrwt>0</asrwt>
<pdfrwt beam="1">  1        2 0.13555676E+00 0.24114514E+04</pdfrwt>
<pdfrwt beam="2">  1       -2 0.25383362E+00 0.24114514E+04</pdfrwt>
<totfact> 0.16513664E+00</totfact>
</mgrwt>
</event>
<event>
 4    1  0.1343107E-008  0.2110186E+04  0.7816531E-02  0.8556770E-01
         -2   -1    0    0    0  501 -0.00000000000E+00  0.00000000000E+00  0.13250929840E+04  0.13250929840E+04  0.00000000000E+00 0. -1.
          2   -1    0    0  501    0  0.00000000000E+00 -0.00000000000E+00 -0.84010817552E+03  0.84010817552E+03  0.00000000000E+00 0.  1.
    2000013    1    1    2    0    0 -0.25721168769E+03 -0.32214898146E+03  0.44970703441E+03  0.11290147188E+04  0.95000000000E+03 0.  0.
   -2000013    1    1    2    0    0  0.25721168769E+03  0.32214898146E+03  0.35277774080E+02  0.10361864407E+04  0.95000000000E+03 0.  0.
<mgrwt>
<rscale>  0 0.21101862E+04</rscale>
<asrwt>0</asrwt>
<pdfrwt beam="2">  1        2 0.12924741E+00 0.21101862E+04</pdfrwt>
<pdfrwt beam="1">  1       -2 0.20386046E+00 0.21101862E+04</pdfrwt>
<totfact> 0.37246488E+00</totfact>
</mgrwt>
</event>
<event>
 4    1  0.1343107E-008  0.2124380E+04  0.7816531E-02  0.8550579E-01
          2   -1    0    0  501    0  0.00000000000E+00  0.00000000000E+00  0.11207763657E+04  0.11207763657E+04  0.00000000000E+00 0.  1.
         -2   -1    0    0    0  501 -0.00000000000E+00 -0.00000000000E+00 -0.10066662068E+04  0.10066662068E+04  0.00000000000E+00 0. -1.
    2000013    1    1    2    0    0 -0.26650010975E+03 -0.32099090403E+03  0.28473767273E+03  0.10759335534E+04  0.95000000000E+03 0.  0.
   -2000013    1    1    2    0    0  0.26650010975E+03  0.32099090403E+03 -0.17062751379E+03  0.10515090192E+04  0.95000000000E+03 0.  0.
<mgrwt>
<rscale>  0 0.21243801E+04</rscale>
<asrwt>0</asrwt>
<pdfrwt beam="1">  1        2 0.17242713E+00 0.21243801E+04</pdfrwt>
<pdfrwt beam="2">  1       -2 0.15487172E+00 0.21243801E+04</pdfrwt>
<totfact> 0.53528951E+00</totfact>
</mgrwt>
</event>
<event>
 4    1  0.1343107E-008  0.2530081E+04  0.7816531E-02  0.8392347E-01
         -2   -1    0    0    0  501 -0.00000000000E+00  0.00000000000E+00  0.92157315781E+03  0.92157315781E+03  0.00000000000E+00 0. -1.
          2   -1    0    0  501    0  0.00000000000E+00 -0.00000000000E+00 -0.17365168492E+04  0.17365168492E+04  0.00000000000E+00 0.  1.
    2000013    1    1    2    0    0 -0.92388501406E+02 -0.71515909199E+03  0.35574307444E+02  0.11932115040E+04  0.95000000000E+03 0.  0.
   -2000013    1    1    2    0    0  0.92388501406E+02  0.71515909199E+03 -0.85051799879E+03  0.14648785029E+04  0.95000000000E+03 0.  0.
<mgrwt>
<rscale>  0 0.25300809E+04</rscale>
<asrwt>0</asrwt>
<pdfrwt beam="2">  1        2 0.26715644E+00 0.25300809E+04</pdfrwt>
<pdfrwt beam="1">  1       -2 0.14178049E+00 0.25300809E+04</pdfrwt>
<totfact> 0.28939917E+00</totfact>
</mgrwt>
</event>
<event>
 4    1  0.1343107E-008  0.2441951E+04  0.7816531E-02  0.8423963E-01
          2   -1    0    0  501    0  0.00000000000E+00  0.00000000000E+00  0.32079614157E+04  0.32079614157E+04  0.00000000000E+00 0.  1.
         -2   -1    0    0    0  501 -0.00000000000E+00 -0.00000000000E+00 -0.46471299614E+03  0.46471299614E+03  0.00000000000E+00 0. -1.
    2000013    1    1    2    0    0  0.55888980124E+03  0.49422188132E+03  0.11039800842E+04  0.16364244878E+04  0.95000000000E+03 0.  0.
   -2000013    1    1    2    0    0 -0.55888980124E+03 -0.49422188132E+03  0.16392683354E+04  0.20362499241E+04  0.95000000000E+03 0.  0.
<mgrwt>
<rscale>  0 0.24419512E+04</rscale>
<asrwt>0</asrwt>
<pdfrwt beam="1">  1        2 0.49353251E+00 0.24419512E+04</pdfrwt>
<pdfrwt beam="2">  1       -2 0.71494309E-01 0.24419512E+04</pdfrwt>
<totfact> 0.20395135E+00</totfact>
</mgrwt>
</event>
<event>
 4    1  0.1343107E-008  0.3068027E+04  0.7816531E-02  0.8224568E-01
          1   -1    0    0  501    0  0.00000000000E+00  0.00000000000E+00  0.82658428057E+03  0.82658428057E+03  0.00000000000E+00 0.  1.
         -1   -1    0    0    0  501 -0.00000000000E+00 -0.00000000000E+00 -0.28468931188E+04  0.28468931188E+04  0.00000000000E+00 0. -1.
    2000013    1    1    2    0    0 -0.78939674768E+03  0.88323850651E+03 -0.12709431411E+04  0.19801651327E+04  0.95000000000E+03 0.  0.
   -2000013    1    1    2    0    0  0.78939674768E+03 -0.88323850651E+03 -0.74936569713E+03  0.16933122667E+04  0.95000000000E+03 0.  0.
<mgrwt>
<rscale>  0 0.30680268E+04</rscale>
<asrwt>0</asrwt>
<pdfrwt beam="1">  1        1 0.12716681E+00 0.30680268E+04</pdfrwt>
<pdfrwt beam="2">  1       -1 0.43798356E+00 0.30680268E+04</pdfrwt>
<totfact> 0.69423185E-02</totfact>
</mgrwt>
</event>
<event>
 4    1  0.1343107E-008  0.2597776E+04  0.7816531E-02  0.8368957E-01
         -2   -1    0    0    0  501 -0.00000000000E+00  0.00000000000E+00  0.72483127985E+03  0.72483127985E+03  0.00000000000E+00 0. -1.
          2   -1    0    0  501    0  0.00000000000E+00 -0.00000000000E+00 -0.23275898191E+04  0.23275898191E+04  0.00000000000E+00 0.  1.
    2000013    1    1    2    0    0 -0.11060781992E+03 -0.61843534316E+03 -0.15350934688E+04  0.19114675831E+04  0.95000000000E+03 0.  0.
   -2000013    1    1    2    0    0  0.11060781992E+03  0.61843534316E+03 -0.67665070485E+02  0.11409535158E+04  0.95000000000E+03 0.  0.
<mgrwt>
<rscale>  0 0.25977759E+04</rscale>
<asrwt>0</asrwt>
<pdfrwt beam="2">  1        2 0.35809074E+00 0.25977759E+04</pdfrwt>
<pdfrwt beam="1">  1       -2 0.11151250E+00 0.25977759E+04</pdfrwt>
<totfact> 0.24585475E+00</totfact>
</mgrwt>
</event>
<event>
 4    1  0.1343107E-008  0.2388417E+04  0.7816531E-02  0.8443853E-01
          2   -1    0    0  501    0  0.00000000000E+00  0.00000000000E+00  0.18580997376E+04  0.18580997376E+04  0.00000000000E+00 0. -1.
         -2   -1    0    0    0  501 -0.00000000000E+00 -0.00000000000E+00 -0.76752312635E+03  0.76752312635E+03  0.00000000000E+00 0.  1.
    2000013    1    1    2    0    0 -0.12750252441E+03  0.63235449085E+03  0.18484472798E+03  0.11630978761E+04  0.95000000000E+03 0.  0.
   -2000013    1    1    2    0    0  0.12750252441E+03 -0.63235449085E+03  0.90573188326E+03  0.14625249879E+04  0.95000000000E+03 0.  0.
<mgrwt>
<rscale>  0 0.23884175E+04</rscale>
<asrwt>0</asrwt>
<pdfrwt beam="1">  1        2 0.28586150E+00 0.23884175E+04</pdfrwt>
<pdfrwt beam="2">  1       -2 0.11808048E+00 0.23884175E+04</pdfrwt>
<totfact> 0.39853699E+00</totfact>
</mgrwt>
</event>
<event>
 4    1  0.1343107E-008  0.2955004E+04  0.7816531E-02  0.8256698E-01
          2   -1    0    0  501    0  0.00000000000E+00  0.00000000000E+00  0.21130116948E+04  0.21130116948E+04  0.00000000000E+00 0.  1.
         -2   -1    0    0    0  501 -0.00000000000E+00 -0.00000000000E+00 -0.10331282170E+04  0.10331282170E+04  0.00000000000E+00 0. -1.
    2000013    1    1    2    0    0 -0.85082335850E+03  0.48036307940E+02 -0.25273119988E+03  0.13009922881E+04  0.95000000000E+03 0.  0.
   -2000013    1    1    2    0    0  0.85082335850E+03 -0.48036307940E+02  0.13326146777E+04  0.18451476237E+04  0.95000000000E+03 0.  0.
<mgrwt>
<rscale>  0 0.29550039E+04</rscale>
<asrwt>0</asrwt>
<pdfrwt beam="1">  1        2 0.32507872E+00 0.29550039E+04</pdfrwt>
<pdfrwt beam="2">  1       -2 0.15894280E+00 0.29550039E+04</pdfrwt>
<totfact> 0.12733347E+00</totfact>
</mgrwt>
</event>
<event>
 4    1  0.1343107E-008  0.2578769E+04  0.7816531E-02  0.8375449E-01
         -2   -1    0    0    0  501 -0.00000000000E+00  0.00000000000E+00  0.10177630969E+04  0.10177630969E+04  0.00000000000E+00 0. -1.
          2   -1    0    0  501    0  0.00000000000E+00 -0.00000000000E+00 -0.16334968963E+04  0.16334968963E+04  0.00000000000E+00 0.  1.
    2000013    1    1    2    0    0 -0.49152056578E+03 -0.70546599319E+03 -0.45592240767E+03  0.13600146970E+04  0.95000000000E+03 0.  0.
   -2000013    1    1    2    0    0  0.49152056578E+03  0.70546599319E+03 -0.15981139176E+03  0.12912452962E+04  0.95000000000E+03 0.  0.
<mgrwt>
<rscale>  0 0.25787694E+04</rscale>
<asrwt>0</asrwt>
<pdfrwt beam="2">  1        2 0.25130721E+00 0.25787694E+04</pdfrwt>
<pdfrwt beam="1">  1       -2 0.15657894E+00 0.25787694E+04</pdfrwt>
<totfact> 0.25285854E+00</totfact>
</mgrwt>
</event>
<event>
 4    1  0.1343107E-008  0.2313855E+04  0.7816531E-02  0.8472478E-01
         -2   -1    0    0    0  501 -0.00000000000E+00  0.00000000000E+00  0.30388049525E+04  0.30388049525E+04  0.00000000000E+00 0. -1.
          2   -1    0    0  501    0  0.00000000000E+00 -0.00000000000E+00 -0.44046317964E+03  0.44046317964E+03  0.00000000000E+00 0.  1.
    2000013    1    1    2    0    0 -0.10143358154E+02  0.64492741760E+03  0.10867999116E+04  0.15810339368E+04  0.95000000000E+03 0.  0.
   -2000013    1    1    2    0    0  0.10143358154E+02 -0.64492741760E+03  0.15115418613E+04  0.18982341953E+04  0.95000000000E+03 0.  0.
<mgrwt>
<rscale>  0 0.23138554E+04</rscale>
<asrwt>0</asrwt>
<pdfrwt beam="2">  1        2 0.67763568E-01 0.23138554E+04</pdfrwt>
<pdfrwt beam="1">  1       -2 0.46750844E+00 0.23138554E+04</pdfrwt>
<totfact> 0.17160582E-01</totfact>
</mgrwt>
</event>
<event>
 4    1  0.1343107E-008  0.2767671E+04  0.7816531E-02  0.8313376E-01
         -2   -1    0    0    0  501 -0.00000000000E+00  0.00000000000E+00  0.13811457728E+04  0.13811457728E+04  0.00000000000E+00 0.  1.
          2   -1    0    0  501    0  0.00000000000E+00 -0.00000000000E+00 -0.13865303143E+04  0.13865303143E+04  0.00000000000E+00 0. -1.
    2000013    1    1    2    0    0  0.55398089213E+03 -0.78450628835E+03  0.29756741401E+03  0.13832538853E+04  0.95000000000E+03 0.  0.
   -2000013    1    1    2    0    0 -0.55398089213E+03  0.78450628835E+03 -0.30295195552E+03  0.13844222017E+04  0.95000000000E+03 0.  0.
<mgrwt>
<rscale>  0 0.27676708E+04</rscale>
<asrwt>0</asrwt>
<pdfrwt beam="2">  1        2 0.21331235E+00 0.27676708E+04</pdfrwt>
<pdfrwt beam="1">  1       -2 0.21248397E+00 0.27676708E+04</pdfrwt>
<totfact> 0.14185573E+00</totfact>
</mgrwt>
</event>
<event>
 4    1  0.1343107E-008  0.2346057E+04  0.7816531E-02  0.8459980E-01
         -2   -1    0    0    0  501 -0.00000000000E+00  0.00000000000E+00  0.11012159159E+04  0.11012159159E+04  0.00000000000E+00 0. -1.
          2   -1    0    0  501    0  0.00000000000E+00 -0.00000000000E+00 -0.12495236438E+04  0.12495236438E+04  0.00000000000E+00 0.  1.
    2000013    1    1    2    0    0 -0.61165342288E+01  0.68546797143E+03 -0.13420321710E+03  0.11791582826E+04  0.95000000000E+03 0.  0.
   -2000013    1    1    2    0    0  0.61165342288E+01 -0.68546797143E+03 -0.14104510767E+02  0.11715812772E+04  0.95000000000E+03 0.  0.
<mgrwt>
<rscale>  0 0.23460565E+04</rscale>
<asrwt>0</asrwt>
<pdfrwt beam="2">  1        2 0.19223441E+00 0.23460565E+04</pdfrwt>
<pdfrwt beam="1">  1       -2 0.16941783E+00 0.23460565E+04</pdfrwt>
<totfact> 0.34400791E+00</totfact>
</mgrwt>
</event>
<event>
 4    1  0.1343107E-008  0.2210625E+04  0.7816531E-02  0.8514019E-01
          2   -1    0    0  501    0  0.00000000000E+00  0.00000000000E+00  0.23766349342E+04  0.23766349342E+04  0.00000000000E+00 0.  1.
         -2   -1    0    0    0  501 -0.00000000000E+00 -0.00000000000E+00 -0.51405273500E+03  0.51405273500E+03  0.00000000000E+00 0. -1.
    2000013    1    1    2    0    0 -0.40587101229E+03 -0.34359099385E+03  0.68170894546E+03  0.12845283710E+04  0.95000000000E+03 0.  0.
   -2000013    1    1    2    0    0  0.40587101229E+03  0.34359099385E+03  0.11808732537E+04  0.16061592981E+04  0.95000000000E+03 0.  0.
<mgrwt>
<rscale>  0 0.22106250E+04</rscale>
<asrwt>0</asrwt>
<pdfrwt beam="1">  1        2 0.36563614E+00 0.22106250E+04</pdfrwt>
<pdfrwt beam="2">  1       -2 0.79085038E-01 0.22106250E+04</pdfrwt>
<totfact> 0.53109933E+00</totfact>
</mgrwt>
</event>
<event>
 4    1  0.1343107E-008  0.2239171E+04  0.7816531E-02  0.8502299E-01
         -1   -1    0    0    0  501 -0.00000000000E+00  0.00000000000E+00  0.80353902633E+03  0.80353902633E+03  0.00000000000E+00 0.  1.
          1   -1    0    0  501    0  0.00000000000E+00 -0.00000000000E+00 -0.15599387900E+04  0.15599387900E+04  0.00000000000E+00 0. -1.
    2000013    1    1    2    0    0 -0.11447604243E+03  0.26572076085E+03 -0.92387075279E+03  0.13563736413E+04  0.95000000000E+03 0.  0.
   -2000013    1    1    2    0    0  0.11447604243E+03 -0.26572076085E+03  0.16747098914E+03  0.10071041750E+04  0.95000000000E+03 0.  0.
<mgrwt>
<rscale>  0 0.22391710E+04</rscale>
<asrwt>0</asrwt>
<pdfrwt beam="2">  1        1 0.23999058E+00 0.22391710E+04</pdfrwt>
<pdfrwt beam="1">  1       -1 0.12362139E+00 0.22391710E+04</pdfrwt>
<totfact> 0.31080258E+00</totfact>
</mgrwt>
</event>
<event>
 4    1  0.1343107E-008  0.5110709E+04  0.7816531E-02  0.7811653E-01
          2   -1    0    0  501    0  0.00000000000E+00  0.00000000000E+00  0.31565648095E+04  0.31565648095E+04  0.00000000000E+00 0.  1.
         -2   -1    0    0    0  501 -0.00000000000E+00 -0.00000000000E+00 -0.20686527233E+04  0.20686527233E+04  0.00000000000E+00 0. -1.
    2000013    1    1    2    0    0 -0.16777795673E+04 -0.37408200357E+03 -0.11274363126E+04  0.22646179061E+04  0.95000000000E+03 0.  0.
   -2000013    1    1    2    0    0  0.16777795673E+04  0.37408200357E+03  0.22153483987E+04  0.29605996267E+04  0.95000000000E+03 0.  0.
<mgrwt>
<rscale>  0 0.51107089E+04</rscale>
<asrwt>0</asrwt>
<pdfrwt beam="1">  1        2 0.48562536E+00 0.51107089E+04</pdfrwt>
<pdfrwt beam="2">  1       -2 0.31825426E+00 0.51107089E+04</pdfrwt>
<totfact> 0.24493808E-02</totfact>
</mgrwt>
</event>
<event>
 4    1  0.1343107E-008  0.3110370E+04  0.7816531E-02  0.8212898E-01
          2   -1    0    0  501    0  0.00000000000E+00  0.00000000000E+00  0.23137958201E+04  0.23137958201E+04  0.00000000000E+00 0.  1.
         -2   -1    0    0    0  501 -0.00000000000E+00 -0.00000000000E+00 -0.10452957688E+04  0.10452957688E+04  0.00000000000E+00 0. -1.
    2000013    1    1    2    0    0 -0.76570668386E+03  0.58894759141E+03  0.14588053481E+04  0.19909241660E+04  0.95000000000E+03 0.  0.
   -2000013    1    1    2    0    0  0.76570668386E+03 -0.58894759141E+03 -0.19030529681E+03  0.13681674229E+04  0.95000000000E+03 0.  0.
<mgrwt>
<rscale>  0 0.31103704E+04</rscale>
<asrwt>0</asrwt>
<pdfrwt beam="1">  1        2 0.35596859E+00 0.31103704E+04</pdfrwt>
<pdfrwt beam="2">  1       -2 0.16081473E+00 0.31103704E+04</pdfrwt>
<totfact> 0.93824578E-01</totfact>
</mgrwt>
</event>
<event>
 4    1  0.1343107E-008  0.2284551E+04  0.7816531E-02  0.8484038E-01
          2   -1    0    0  501    0  0.00000000000E+00  0.00000000000E+00  0.30703755671E+04  0.30703755671E+04  0.00000000000E+00 0.  1.
         -2   -1    0    0    0  501 -0.00000000000E+00 -0.00000000000E+00 -0.42496205393E+03  0.42496205393E+03  0.00000000000E+00 0. -1.
    2000013    1    1    2    0    0  0.27535090037E+03 -0.26037810299E+03  0.21008655890E+04  0.23366110283E+04  0.95000000000E+03 0.  0.
   -2000013    1    1    2    0    0 -0.27535090037E+03  0.26037810299E+03  0.54454792419E+03  0.11587265927E+04  0.95000000000E+03 0.  0.
<mgrwt>
<rscale>  0 0.22845508E+04</rscale>
<asrwt>0</asrwt>
<pdfrwt beam="1">  1        2 0.47236546E+00 0.22845508E+04</pdfrwt>
<pdfrwt beam="2">  1       -2 0.65378780E-01 0.22845508E+04</pdfrwt>
<totfact> 0.30794446E+00</totfact>
</mgrwt>
</event>
<event>
 4    1  0.1343107E-008  0.3620399E+04  0.7816531E-02  0.8085835E-01
          2   -1    0    0  501    0  0.00000000000E+00  0.00000000000E+00  0.11335185961E+04  0.11335185961E+04  0.00000000000E+00 0.  1.
         -2   -1    0    0    0  501 -0.00000000000E+00 -0.00000000000E+00 -0.28908407810E+04  0.28908407810E+04  0.00000000000E+00 0. -1.
    2000013    1    1    2    0    0  0.18427546134E+03 -0.14308458602E+04 -0.14803986367E+04  0.22749411959E+04  0.95000000000E+03 0.  0.
   -2000013    1    1    2    0    0 -0.18427546134E+03  0.14308458602E+04 -0.27692354821E+03  0.17494181812E+04  0.95000000000E+03 0.  0.
<mgrwt>
<rscale>  0 0.36203988E+04</rscale>
<asrwt>0</asrwt>
<pdfrwt beam="1">  1        2 0.17438748E+00 0.36203988E+04</pdfrwt>
<pdfrwt beam="2">  1       -2 0.44474474E+00 0.36203988E+04</pdfrwt>
<totfact> 0.63512639E-02</totfact>
</mgrwt>
</event>
<event>
 4    1  0.1343107E-008  0.2567839E+04  0.7816531E-02  0.8379208E-01
         -2   -1    0    0    0  501 -0.00000000000E+00  0.00000000000E+00  0.10367556298E+04  0.10367556298E+04  0.00000000000E+00 0. -1.
          2   -1    0    0  501    0  0.00000000000E+00 -0.00000000000E+00 -0.15900072179E+04  0.15900072179E+04  0.00000000000E+00 0.  1.
    2000013    1    1    2    0    0  0.76786982682E+02 -0.85996338467E+03 -0.25339631739E+03  0.13084888067E+04  0.95000000000E+03 0.  0.
   -2000013    1    1    2    0    0 -0.76786982682E+02  0.85996338467E+03 -0.29985527079E+03  0.13182740410E+04  0.95000000000E+03 0.  0.
<mgrwt>
<rscale>  0 0.25678387E+04</rscale>
<asrwt>0</asrwt>
<pdfrwt beam="2">  1        2 0.24461649E+00 0.25678387E+04</pdfrwt>
<pdfrwt beam="1">  1       -2 0.15950087E+00 0.25678387E+04</pdfrwt>
<totfact> 0.25457188E+00</totfact>
</mgrwt>
</event>
<event>
 4    1  0.1343107E-008  0.2273028E+04  0.7816531E-02  0.8488632E-01
         -2   -1    0    0    0  501 -0.00000000000E+00  0.00000000000E+00  0.58393698030E+03  0.58393698030E+03  0.00000000000E+00 0. -1.
          2   -1    0    0  501    0  0.00000000000E+00 -0.00000000000E+00 -0.22119931209E+04  0.22119931209E+04  0.00000000000E+00 0.  1.
    2000013    1    1    2    0    0 -0.24550484437E+03 -0.57306322051E+03 -0.84127019708E+03  0.14138280050E+04  0.95000000000E+03 0.  0.
   -2000013    1    1    2    0    0  0.24550484437E+03  0.57306322051E+03 -0.78678594353E+03  0.13821020962E+04  0.95000000000E+03 0.  0.
<mgrwt>
<rscale>  0 0.22730284E+04</rscale>
<asrwt>0</asrwt>
<pdfrwt beam="2">  1        2 0.34030663E+00 0.22730284E+04</pdfrwt>
<pdfrwt beam="1">  1       -2 0.89836459E-01 0.22730284E+04</pdfrwt>
<totfact> 0.49018183E+00</totfact>
</mgrwt>
</event>
<event>
 4    1  0.1343107E-008  0.2498847E+04  0.7816531E-02  0.8403396E-01
         -2   -1    0    0    0  501 -0.00000000000E+00  0.00000000000E+00  0.11966881566E+04  0.11966881566E+04  0.00000000000E+00 0. -1.
          2   -1    0    0  501    0  0.00000000000E+00 -0.00000000000E+00 -0.13044831139E+04  0.13044831139E+04  0.00000000000E+00 0.  1.
    2000013    1    1    2    0    0 -0.50482566782E+03  0.57429348449E+03 -0.32599129686E+03  0.12623122779E+04  0.95000000000E+03 0.  0.
   -2000013    1    1    2    0    0  0.50482566782E+03 -0.57429348449E+03  0.21819633957E+03  0.12388589927E+04  0.95000000000E+03 0.  0.
<mgrwt>
<rscale>  0 0.24988473E+04</rscale>
<asrwt>0</asrwt>
<pdfrwt beam="2">  1        2 0.20068971E+00 0.24988473E+04</pdfrwt>
<pdfrwt beam="1">  1       -2 0.18410587E+00 0.24988473E+04</pdfrwt>
<totfact> 0.24906665E+00</totfact>
</mgrwt>
</event>
<event>
 4    1  0.1343107E-008  0.3334852E+04  0.7816531E-02  0.8154084E-01
          1   -1    0    0  501    0  0.00000000000E+00  0.00000000000E+00  0.15774764536E+04  0.15774764536E+04  0.00000000000E+00 0.  1.
         -1   -1    0    0    0  501 -0.00000000000E+00 -0.00000000000E+00 -0.17625040989E+04  0.17625040989E+04  0.00000000000E+00 0. -1.
    2000013    1    1    2    0    0 -0.12147946360E+04  0.41366873750E+03  0.38880921381E+03  0.16433260288E+04  0.95000000000E+03 0.  0.
   -2000013    1    1    2    0    0  0.12147946360E+04 -0.41366873750E+03 -0.57383685903E+03  0.16966545237E+04  0.95000000000E+03 0.  0.
<mgrwt>
<rscale>  0 0.33348516E+04</rscale>
<asrwt>0</asrwt>
<pdfrwt beam="1">  1        1 0.24268869E+00 0.33348516E+04</pdfrwt>
<pdfrwt beam="2">  1       -1 0.27115448E+00 0.33348516E+04</pdfrwt>
<totfact> 0.24292626E-01</totfact>
</mgrwt>
</event>
<event>
 4    1  0.1343107E-008  0.2051313E+04  0.7816531E-02  0.8582999E-01
         -1   -1    0    0    0  501 -0.00000000000E+00  0.00000000000E+00  0.98021612601E+03  0.98021612601E+03  0.00000000000E+00 0. -1.
          1   -1    0    0  501    0  0.00000000000E+00 -0.00000000000E+00 -0.10732029098E+04  0.10732029098E+04  0.00000000000E+00 0.  1.
    2000013    1    1    2    0    0  0.32624187318E+03 -0.83454691213E+02  0.14362887506E+03  0.10181000437E+04  0.95000000000E+03 0.  0.
   -2000013    1    1    2    0    0 -0.32624187318E+03  0.83454691213E+02 -0.23661565882E+03  0.10353189921E+04  0.95000000000E+03 0.  0.
<mgrwt>
<rscale>  0 0.20513126E+04</rscale>
<asrwt>0</asrwt>
<pdfrwt beam="2">  1        1 0.16510814E+00 0.20513126E+04</pdfrwt>
<pdfrwt beam="1">  1       -1 0.15080248E+00 0.20513126E+04</pdfrwt>
<totfact> 0.42200208E+00</totfact>
</mgrwt>
</event>
<event>
 4    1  0.1343107E-008  0.2711903E+04  0.7816531E-02  0.8331153E-01
         -2   -1    0    0    0  501 -0.00000000000E+00  0.00000000000E+00  0.10391862909E+04  0.10391862909E+04  0.00000000000E+00 0. -1.
          2   -1    0    0  501    0  0.00000000000E+00 -0.00000000000E+00 -0.17692736237E+04  0.17692736237E+04  0.00000000000E+00 0.  1.
    2000013    1    1    2    0    0 -0.55917081198E+03 -0.70912676181E+03 -0.54454737744E+01  0.13107487992E+04  0.95000000000E+03 0.  0.
   -2000013    1    1    2    0    0  0.55917081198E+03  0.70912676181E+03 -0.72464185908E+03  0.14977111154E+04  0.95000000000E+03 0.  0.
<mgrwt>
<rscale>  0 0.27119033E+04</rscale>
<asrwt>0</asrwt>
<pdfrwt beam="2">  1        2 0.27219594E+00 0.27119033E+04</pdfrwt>
<pdfrwt beam="1">  1       -2 0.15987481E+00 0.27119033E+04</pdfrwt>
<totfact> 0.19858442E+00</totfact>
</mgrwt>
</event>
<event>
 4    1  0.1343107E-008  0.2025212E+04  0.7816531E-02  0.8594923E-01
          2   -1    0    0  501    0  0.00000000000E+00  0.00000000000E+00  0.58180949675E+03  0.58180949675E+03  0.00000000000E+00 0.  1.
         -2   -1    0    0    0  501 -0.00000000000E+00 -0.00000000000E+00 -0.17623831732E+04  0.17623831732E+04  0.00000000000E+00 0. -1.
    2000013    1    1    2    0    0  0.11427280967E+02 -0.34858964141E+03 -0.54975853267E+03  0.11516856190E+04  0.95000000000E+03 0.  0.
   -2000013    1    1    2    0    0 -0.11427280967E+02  0.34858964141E+03 -0.63081514379E+03  0.11925070509E+04  0.95000000000E+03 0.  0.
<mgrwt>
<rscale>  0 0.20252124E+04</rscale>
<asrwt>0</asrwt>
<pdfrwt beam="1">  1        2 0.89509155E-01 0.20252124E+04</pdfrwt>
<pdfrwt beam="2">  1       -2 0.27113587E+00 0.20252124E+04</pdfrwt>
<totfact> 0.22769756E+00</totfact>
</mgrwt>
</event>
<event>
 4    1  0.1343107E-008  0.2622020E+04  0.7816531E-02  0.8360760E-01
         -2   -1    0    0    0  501 -0.00000000000E+00  0.00000000000E+00  0.46011330269E+03  0.46011330269E+03  0.00000000000E+00 0. -1.
          2   -1    0    0  501    0  0.00000000000E+00 -0.00000000000E+00 -0.37354865375E+04  0.37354865375E+04  0.00000000000E+00 0.  1.
    2000013    1    1    2    0    0  0.86701506625E+03 -0.24433385559E+03 -0.15264464770E+04  0.20109582306E+04  0.95000000000E+03 0.  0.
   -2000013    1    1    2    0    0 -0.86701506625E+03  0.24433385559E+03 -0.17489267578E+04  0.21846416096E+04  0.95000000000E+03 0.  0.
<mgrwt>
<rscale>  0 0.26220199E+04</rscale>
<asrwt>0</asrwt>
<pdfrwt beam="2">  1        2 0.57469023E+00 0.26220199E+04</pdfrwt>
<pdfrwt beam="1">  1       -2 0.70786662E-01 0.26220199E+04</pdfrwt>
<totfact> 0.88091322E-01</totfact>
</mgrwt>
</event>
<event>
 4    1  0.1343107E-008  0.2559419E+04  0.7816531E-02  0.8382118E-01
         -2   -1    0    0    0  501 -0.00000000000E+00  0.00000000000E+00  0.47748385174E+03  0.47748385174E+03  0.00000000000E+00 0. -1.
          2   -1    0    0  501    0  0.00000000000E+00 -0.00000000000E+00 -0.34297642135E+04  0.34297642135E+04  0.00000000000E+00 0.  1.
    2000013    1    1    2    0    0 -0.41345975086E+03 -0.73483649451E+03 -0.17137404647E+04  0.21331526011E+04  0.95000000000E+03 0.  0.
   -2000013    1    1    2    0    0  0.41345975086E+03  0.73483649451E+03 -0.12385398970E+04  0.17740954641E+04  0.95000000000E+03 0.  0.
<mgrwt>
<rscale>  0 0.25594195E+04</rscale>
<asrwt>0</asrwt>
<pdfrwt beam="2">  1        2 0.52765605E+00 0.25594195E+04</pdfrwt>
<pdfrwt beam="1">  1       -2 0.73459052E-01 0.25594195E+04</pdfrwt>
<totfact> 0.13507941E+00</totfact>
</mgrwt>
</event>
<event>
 4    1  0.1343107E-008  0.2220645E+04  0.7816531E-02  0.8509884E-01
          2   -1    0    0  501    0  0.00000000000E+00  0.00000000000E+00  0.97327375359E+03  0.97327375359E+03  0.00000000000E+00 0.  1.
         -2   -1    0    0    0  501 -0.00000000000E+00 -0.00000000000E+00 -0.12666692636E+04  0.12666692636E+04  0.00000000000E+00 0. -1.
    2000013    1    1    2    0    0 -0.34647042109E+03  0.45152712064E+03 -0.66018573185E+02  0.11094038694E+04  0.95000000000E+03 0.  0.
   -2000013    1    1    2    0    0  0.34647042109E+03 -0.45152712064E+03 -0.22737693683E+03  0.11305391478E+04  0.95000000000E+03 0.  0.
<mgrwt>
<rscale>  0 0.22206449E+04</rscale>
<asrwt>0</asrwt>
<pdfrwt beam="1">  1        2 0.14973442E+00 0.22206449E+04</pdfrwt>
<pdfrwt beam="2">  1       -2 0.19487219E+00 0.22206449E+04</pdfrwt>
<totfact> 0.34386252E+00</totfact>
</mgrwt>
</event>
<event>
 4    1  0.1343107E-008  0.2319965E+04  0.7816531E-02  0.8470091E-01
         -2   -1    0    0    0  501 -0.00000000000E+00  0.00000000000E+00  0.22465955380E+04  0.22465955380E+04  0.00000000000E+00 0. -1.
          2   -1    0    0  501    0  0.00000000000E+00 -0.00000000000E+00 -0.59893258137E+03  0.59893258137E+03  0.00000000000E+00 0.  1.
    2000013    1    1    2    0    0 -0.65192020694E+03  0.76608410570E+02  0.68840876257E+03  0.13443494446E+04  0.95000000000E+03 0.  0.
   -2000013    1    1    2    0    0  0.65192020694E+03 -0.76608410570E+02  0.95925419405E+03  0.15011786748E+04  0.95000000000E+03 0.  0.
<mgrwt>
<rscale>  0 0.23199649E+04</rscale>
<asrwt>0</asrwt>
<pdfrwt beam="2">  1        2 0.92143475E-01 0.23199649E+04</pdfrwt>
<pdfrwt beam="1">  1       -2 0.34563008E+00 0.23199649E+04</pdfrwt>
<totfact> 0.74643801E-01</totfact>
</mgrwt>
</event>
<event>
 4    1  0.1343107E-008  0.1978335E+04  0.7816531E-02  0.8616817E-01
         -2   -1    0    0    0  501 -0.00000000000E+00  0.00000000000E+00  0.93777546447E+03  0.93777546447E+03  0.00000000000E+00 0. -1.
          2   -1    0    0  501    0  0.00000000000E+00 -0.00000000000E+00 -0.10433759995E+04  0.10433759995E+04  0.00000000000E+00 0.  1.
    2000013    1    1    2    0    0  0.45297453771E+01  0.19187057979E+03 -0.25086346671E+03  0.10011330166E+04  0.95000000000E+03 0.  0.
   -2000013    1    1    2    0    0 -0.45297453771E+01 -0.19187057979E+03  0.14526293163E+03  0.98001844742E+03  0.95000000000E+03 0.  0.
<mgrwt>
<rscale>  0 0.19783351E+04</rscale>
<asrwt>0</asrwt>
<pdfrwt beam="2">  1        2 0.16051938E+00 0.19783351E+04</pdfrwt>
<pdfrwt beam="1">  1       -2 0.14427315E+00 0.19783351E+04</pdfrwt>
<totfact> 0.73032558E+00</totfact>
</mgrwt>
</event>
<event>
 4    1  0.1343107E-008  0.2578225E+04  0.7816531E-02  0.8375635E-01
          2   -1    0    0  501    0  0.00000000000E+00  0.00000000000E+00  0.16454970339E+04  0.16454970339E+04  0.00000000000E+00 0.  1.
         -2   -1    0    0    0  501 -0.00000000000E+00 -0.00000000000E+00 -0.10099146981E+04  0.10099146981E+04  0.00000000000E+00 0. -1.
    2000013    1    1    2    0    0 -0.77734707001E+03  0.14304386118E+03 -0.60045290961E+02  0.12372693524E+04  0.95000000000E+03 0.  0.
   -2000013    1    1    2    0    0  0.77734707001E+03 -0.14304386118E+03  0.69562762680E+03  0.14181423795E+04  0.95000000000E+03 0.  0.
<mgrwt>
<rscale>  0 0.25782255E+04</rscale>
<asrwt>0</asrwt>
<pdfrwt beam="1">  1        2 0.25315339E+00 0.25782255E+04</pdfrwt>
<pdfrwt beam="2">  1       -2 0.15537149E+00 0.25782255E+04</pdfrwt>
<totfact> 0.25425889E+00</totfact>
</mgrwt>
</event>
<event>
 4    1  0.1343107E-008  0.2374230E+04  0.7816531E-02  0.8449215E-01
         -2   -1    0    0    0  501 -0.00000000000E+00  0.00000000000E+00  0.68151812463E+03  0.68151812463E+03  0.00000000000E+00 0. -1.
          2   -1    0    0  501    0  0.00000000000E+00 -0.00000000000E+00 -0.20677983754E+04  0.20677983754E+04  0.00000000000E+00 0.  1.
    2000013    1    1    2    0    0  0.55481774649E+02  0.29950961771E+03 -0.14381808203E+04  0.17503280579E+04  0.95000000000E+03 0.  0.
   -2000013    1    1    2    0    0 -0.55481774649E+02 -0.29950961771E+03  0.51900569518E+02  0.99898844214E+03  0.95000000000E+03 0.  0.
<mgrwt>
<rscale>  0 0.23742300E+04</rscale>
<asrwt>0</asrwt>
<pdfrwt beam="2">  1        2 0.31812283E+00 0.23742300E+04</pdfrwt>
<pdfrwt beam="1">  1       -2 0.10484894E+00 0.23742300E+04</pdfrwt>
<totfact> 0.40705892E+00</totfact>
</mgrwt>
</event>
<event>
 4    1  0.1343107E-008  0.2201461E+04  0.7816531E-02  0.8517820E-01
          2   -1    0    0  501    0  0.00000000000E+00  0.00000000000E+00  0.13400873014E+04  0.13400873014E+04  0.00000000000E+00 0.  1.
         -2   -1    0    0    0  501 -0.00000000000E+00 -0.00000000000E+00 -0.90412571904E+03  0.90412571904E+03  0.00000000000E+00 0. -1.
    2000013    1    1    2    0    0 -0.47435698045E+03  0.28133827577E+03  0.14631894353E+03  0.11081854554E+04  0.95000000000E+03 0.  0.
   -2000013    1    1    2    0    0  0.47435698045E+03 -0.28133827577E+03  0.28964263884E+03  0.11360275650E+04  0.95000000000E+03 0.  0.
<mgrwt>
<rscale>  0 0.22014608E+04</rscale>
<asrwt>0</asrwt>
<pdfrwt beam="1">  1        2 0.20616728E+00 0.22014608E+04</pdfrwt>
<pdfrwt beam="2">  1       -2 0.13909626E+00 0.22014608E+04</pdfrwt>
<totfact> 0.52309801E+00</totfact>
</mgrwt>
</event>
<event>
 4    1  0.1343107E-008  0.2263065E+04  0.7816531E-02  0.8492628E-01
         -1   -1    0    0    0  501 -0.00000000000E+00  0.00000000000E+00  0.20479716092E+04  0.20479716092E+04  0.00000000000E+00 0. -1.
          1   -1    0    0  501    0  0.00000000000E+00 -0.00000000000E+00 -0.62518715332E+03  0.62518715332E+03  0.00000000000E+00 0.  1.
    2000013    1    1    2    0    0 -0.30935006982E+03 -0.51991804752E+03  0.58279032906E+03  0.12681312272E+04  0.95000000000E+03 0.  0.
   -2000013    1    1    2    0    0  0.30935006982E+03  0.51991804752E+03  0.83999412684E+03  0.14050275353E+04  0.95000000000E+03 0.  0.
<mgrwt>
<rscale>  0 0.22630648E+04</rscale>
<asrwt>0</asrwt>
<pdfrwt beam="2">  1        1 0.96182640E-01 0.22630648E+04</pdfrwt>
<pdfrwt beam="1">  1       -1 0.31507255E+00 0.22630648E+04</pdfrwt>
<totfact> 0.77118920E-01</totfact>
</mgrwt>
</event>
<event>
 4    1  0.1343107E-008  0.2858922E+04  0.7816531E-02  0.8285205E-01
          2   -1    0    0  501    0  0.00000000000E+00  0.00000000000E+00  0.31274094550E+04  0.31274094550E+04  0.00000000000E+00 0.  1.
         -2   -1    0    0    0  501 -0.00000000000E+00 -0.00000000000E+00 -0.65337111955E+03  0.65337111955E+03  0.00000000000E+00 0. -1.
    2000013    1    1    2    0    0  0.75384661130E+03  0.71336492004E+03  0.15707505241E+04  0.21087748651E+04  0.95000000000E+03 0.  0.
   -2000013    1    1    2    0    0 -0.75384661130E+03 -0.71336492004E+03  0.90328781135E+03  0.16720057095E+04  0.95000000000E+03 0.  0.
<mgrwt>
<rscale>  0 0.28589222E+04</rscale>
<asrwt>0</asrwt>
<pdfrwt beam="1">  1        2 0.48113991E+00 0.28589222E+04</pdfrwt>
<pdfrwt beam="2">  1       -2 0.10051864E+00 0.28589222E+04</pdfrwt>
<totfact> 0.10205783E+00</totfact>
</mgrwt>
</event>
<event>
 4    1  0.1343107E-008  0.2021002E+04  0.7816531E-02  0.8596864E-01
         -1   -1    0    0    0  501 -0.00000000000E+00  0.00000000000E+00  0.33563590945E+03  0.33563590945E+03  0.00000000000E+00 0. -1.
          1   -1    0    0  501    0  0.00000000000E+00 -0.00000000000E+00 -0.30423197983E+04  0.30423197983E+04  0.00000000000E+00 0.  1.
    2000013    1    1    2    0    0 -0.30222176783E+02  0.29470672815E+03 -0.10597871950E+04  0.14537586919E+04  0.95000000000E+03 0.  0.
   -2000013    1    1    2    0    0  0.30222176783E+02 -0.29470672815E+03 -0.16468966938E+04  0.19241970158E+04  0.95000000000E+03 0.  0.
<mgrwt>
<rscale>  0 0.20210015E+04</rscale>
<asrwt>0</asrwt>
<pdfrwt beam="2">  1        1 0.46804920E+00 0.20210015E+04</pdfrwt>
<pdfrwt beam="1">  1       -1 0.51636294E-01 0.20210015E+04</pdfrwt>
<totfact> 0.19488602E+00</totfact>
</mgrwt>
</event>
<event>
 4    1  0.1343107E-008  0.2349996E+04  0.7816531E-02  0.8458465E-01
         -2   -1    0    0    0  501 -0.00000000000E+00  0.00000000000E+00  0.16183634015E+04  0.16183634015E+04  0.00000000000E+00 0. -1.
          2   -1    0    0  501    0  0.00000000000E+00 -0.00000000000E+00 -0.85309648953E+03  0.85309648953E+03  0.00000000000E+00 0.  1.
    2000013    1    1    2    0    0  0.22703017138E+03 -0.65160027581E+03  0.33566508445E+03  0.12211865816E+04  0.95000000000E+03 0.  0.
   -2000013    1    1    2    0    0 -0.22703017138E+03  0.65160027581E+03  0.42960182756E+03  0.12502733095E+04  0.95000000000E+03 0.  0.
<mgrwt>
<rscale>  0 0.23499959E+04</rscale>
<asrwt>0</asrwt>
<pdfrwt beam="2">  1        2 0.13124561E+00 0.23499959E+04</pdfrwt>
<pdfrwt beam="1">  1       -2 0.24897898E+00 0.23499959E+04</pdfrwt>
<totfact> 0.18588341E+00</totfact>
</mgrwt>
</event>
<event>
 4    1  0.1343107E-008  0.3451171E+04  0.7816531E-02  0.8125460E-01
          2   -1    0    0  501    0  0.00000000000E+00  0.00000000000E+00  0.15971654267E+04  0.15971654267E+04  0.00000000000E+00 0.  1.
         -2   -1    0    0    0  501 -0.00000000000E+00 -0.00000000000E+00 -0.18643314900E+04  0.18643314900E+04  0.00000000000E+00 0. -1.
    2000013    1    1    2    0    0  0.64689993511E+02 -0.14373919379E+04 -0.63621765291E+02  0.17253486916E+04  0.95000000000E+03 0.  0.
   -2000013    1    1    2    0    0 -0.64689993511E+02  0.14373919379E+04 -0.20354429805E+03  0.17361482252E+04  0.95000000000E+03 0.  0.
<mgrwt>
<rscale>  0 0.34511713E+04</rscale>
<asrwt>0</asrwt>
<pdfrwt beam="1">  1        2 0.24571776E+00 0.34511713E+04</pdfrwt>
<pdfrwt beam="2">  1       -2 0.28682023E+00 0.34511713E+04</pdfrwt>
<totfact> 0.35330518E-01</totfact>
</mgrwt>
</event>
<event>
 4    1  0.1343107E-008  0.2428305E+04  0.7816531E-02  0.8428982E-01
         -2   -1    0    0    0  501 -0.00000000000E+00  0.00000000000E+00  0.86057744609E+03  0.86057744609E+03  0.00000000000E+00 0. -1.
          2   -1    0    0  501    0  0.00000000000E+00 -0.00000000000E+00 -0.17129965408E+04  0.17129965408E+04  0.00000000000E+00 0.  1.
    2000013    1    1    2    0    0  0.16509240826E+03 -0.61873869656E+03 -0.20132419609E+00  0.11456845632E+04  0.95000000000E+03 0.  0.
   -2000013    1    1    2    0    0 -0.16509240826E+03  0.61873869656E+03 -0.85221777054E+03  0.14278894237E+04  0.95000000000E+03 0.  0.
<mgrwt>
<rscale>  0 0.24283049E+04</rscale>
<asrwt>0</asrwt>
<pdfrwt beam="2">  1        2 0.26353793E+00 0.24283049E+04</pdfrwt>
<pdfrwt beam="1">  1       -2 0.13239653E+00 0.24283049E+04</pdfrwt>
<totfact> 0.35880831E+00</totfact>
</mgrwt>
</event>
<event>
 4    1  0.1343107E-008  0.2251377E+04  0.7816531E-02  0.8497343E-01
          2   -1    0    0  501    0  0.00000000000E+00  0.00000000000E+00  0.11197474645E+04  0.11197474645E+04  0.00000000000E+00 0.  1.
         -2   -1    0    0    0  501 -0.00000000000E+00 -0.00000000000E+00 -0.11316613952E+04  0.11316613952E+04  0.00000000000E+00 0. -1.
    2000013    1    1    2    0    0 -0.45517401578E+03  0.29630971106E+03  0.25803943639E+03  0.11243074225E+04  0.95000000000E+03 0.  0.
   -2000013    1    1    2    0    0  0.45517401578E+03 -0.29630971106E+03 -0.26995336711E+03  0.11271014373E+04  0.95000000000E+03 0.  0.
<mgrwt>
<rscale>  0 0.22513773E+04</rscale>
<asrwt>0</asrwt>
<pdfrwt beam="1">  1        2 0.17226884E+00 0.22513773E+04</pdfrwt>
<pdfrwt beam="2">  1       -2 0.17410175E+00 0.22513773E+04</pdfrwt>
<totfact> 0.38439249E+00</totfact>
</mgrwt>
</event>
<event>
 4    1  0.1343107E-008  0.2452628E+04  0.7816531E-02  0.8420059E-01
          2   -1    0    0  501    0  0.00000000000E+00  0.00000000000E+00  0.22248549489E+04  0.22248549489E+04  0.00000000000E+00 0.  1.
         -2   -1    0    0    0  501 -0.00000000000E+00 -0.00000000000E+00 -0.67593017499E+03  0.67593017499E+03  0.00000000000E+00 0. -1.
    2000013    1    1    2    0    0 -0.29893944912E+03  0.71274385174E+03  0.69986625292E+03  0.14105606561E+04  0.95000000000E+03 0.  0.
   -2000013    1    1    2    0    0  0.29893944912E+03 -0.71274385174E+03  0.84905852096E+03  0.14902244678E+04  0.95000000000E+03 0.  0.
<mgrwt>
<rscale>  0 0.24526285E+04</rscale>
<asrwt>0</asrwt>
<pdfrwt beam="1">  1        2 0.34228537E+00 0.24526285E+04</pdfrwt>
<pdfrwt beam="2">  1       -2 0.10398926E+00 0.24526285E+04</pdfrwt>
<totfact> 0.33676251E+00</totfact>
</mgrwt>
</event>
<event>
 4    1  0.1343107E-008  0.2626359E+04  0.7816531E-02  0.8359302E-01
          2   -1    0    0  501    0  0.00000000000E+00  0.00000000000E+00  0.28565790659E+04  0.28565790659E+04  0.00000000000E+00 0.  1.
         -2   -1    0    0    0  501 -0.00000000000E+00 -0.00000000000E+00 -0.60367330082E+03  0.60367330082E+03  0.00000000000E+00 0. -1.
    2000013    1    1    2    0    0  0.19987103627E+03  0.79398857504E+03  0.16393926241E+04  0.20640916802E+04  0.95000000000E+03 0.  0.
   -2000013    1    1    2    0    0 -0.19987103627E+03 -0.79398857504E+03  0.61351314103E+03  0.13961606865E+04  0.95000000000E+03 0.  0.
<mgrwt>
<rscale>  0 0.26263591E+04</rscale>
<asrwt>0</asrwt>
<pdfrwt beam="1">  1        2 0.43947369E+00 0.26263591E+04</pdfrwt>
<pdfrwt beam="2">  1       -2 0.92872818E-01 0.26263591E+04</pdfrwt>
<totfact> 0.18522144E+00</totfact>
</mgrwt>
</event>
<event>
 4    1  0.1343107E-008  0.2238529E+04  0.7816531E-02  0.8502560E-01
         -2   -1    0    0    0  501 -0.00000000000E+00  0.00000000000E+00  0.16929821282E+04  0.16929821282E+04  0.00000000000E+00 0. -1.
          2   -1    0    0  501    0  0.00000000000E+00 -0.00000000000E+00 -0.73996841678E+03  0.73996841678E+03  0.00000000000E+00 0.  1.
    2000013    1    1    2    0    0  0.31685257934E+03  0.49475479859E+03  0.39907721581E+03  0.11861452238E+04  0.95000000000E+03 0.  0.
   -2000013    1    1    2    0    0 -0.31685257934E+03 -0.49475479859E+03  0.55393649562E+03  0.12468053212E+04  0.95000000000E+03 0.  0.
<mgrwt>
<rscale>  0 0.22385293E+04</rscale>
<asrwt>0</asrwt>
<pdfrwt beam="2">  1        2 0.11384130E+00 0.22385293E+04</pdfrwt>
<pdfrwt beam="1">  1       -2 0.26045879E+00 0.22385293E+04</pdfrwt>
<totfact> 0.19272591E+00</totfact>
</mgrwt>
</event>
<event>
 4    1  0.1343107E-008  0.2537638E+04  0.7816531E-02  0.8389698E-01
          1   -1    0    0  501    0  0.00000000000E+00  0.00000000000E+00  0.10830953373E+04  0.10830953373E+04  0.00000000000E+00 0. -1.
         -1   -1    0    0    0  501 -0.00000000000E+00 -0.00000000000E+00 -0.14863896876E+04  0.14863896876E+04  0.00000000000E+00 0.  1.
    2000013    1    1    2    0    0 -0.82879127130E+03 -0.11845744616E+03 -0.28312190910E+03  0.12975304056E+04  0.95000000000E+03 0.  0.
   -2000013    1    1    2    0    0  0.82879127130E+03  0.11845744616E+03 -0.12017244116E+03  0.12719546193E+04  0.95000000000E+03 0.  0.
<mgrwt>
<rscale>  0 0.25376381E+04</rscale>
<asrwt>0</asrwt>
<pdfrwt beam="1">  1        1 0.16663005E+00 0.25376381E+04</pdfrwt>
<pdfrwt beam="2">  1       -1 0.22867534E+00 0.25376381E+04</pdfrwt>
<totfact> 0.11137243E+00</totfact>
</mgrwt>
</event>
<event>
 4    1  0.1343107E-008  0.2693671E+04  0.7816531E-02  0.8337061E-01
          2   -1    0    0  501    0  0.00000000000E+00  0.00000000000E+00  0.10535652881E+04  0.10535652881E+04  0.00000000000E+00 0.  1.
         -2   -1    0    0    0  501 -0.00000000000E+00 -0.00000000000E+00 -0.17217401852E+04  0.17217401852E+04  0.00000000000E+00 0. -1.
    2000013    1    1    2    0    0 -0.19580398412E+03 -0.67031603494E+03  0.33664331758E+03  0.12261694459E+04  0.95000000000E+03 0.  0.
   -2000013    1    1    2    0    0  0.19580398412E+03  0.67031603494E+03 -0.10048182146E+04  0.15491360274E+04  0.95000000000E+03 0.  0.
<mgrwt>
<rscale>  0 0.26936709E+04</rscale>
<asrwt>0</asrwt>
<pdfrwt beam="1">  1        2 0.16208697E+00 0.26936709E+04</pdfrwt>
<pdfrwt beam="2">  1       -2 0.26488310E+00 0.26936709E+04</pdfrwt>
<totfact> 0.10646260E+00</totfact>
</mgrwt>
</event>
<event>
 4    1  0.1343107E-008  0.2491961E+04  0.7816531E-02  0.8405855E-01
         -2   -1    0    0    0  501 -0.00000000000E+00  0.00000000000E+00  0.15839121571E+04  0.15839121571E+04  0.00000000000E+00 0. -1.
          2   -1    0    0  501    0  0.00000000000E+00 -0.00000000000E+00 -0.98014706710E+03  0.98014706710E+03  0.00000000000E+00 0.  1.
    2000013    1    1    2    0    0  0.30883276659E+03 -0.56134973023E+03  0.80540353069E+03  0.14005948895E+04  0.95000000000E+03 0.  0.
   -2000013    1    1    2    0    0 -0.30883276659E+03  0.56134973023E+03 -0.20163844066E+03  0.11634643347E+04  0.95000000000E+03 0.  0.
<mgrwt>
<rscale>  0 0.24919606E+04</rscale>
<asrwt>0</asrwt>
<pdfrwt beam="2">  1        2 0.15079186E+00 0.24919606E+04</pdfrwt>
<pdfrwt beam="1">  1       -2 0.24367879E+00 0.24919606E+04</pdfrwt>
<totfact> 0.16273885E+00</totfact>
</mgrwt>
</event>
<event>
 4    1  0.1343107E-008  0.3194350E+04  0.7816531E-02  0.8190311E-01
          2   -1    0    0  501    0  0.00000000000E+00  0.00000000000E+00  0.19703904269E+04  0.19703904269E+04  0.00000000000E+00 0.  1.
         -2   -1    0    0    0  501 -0.00000000000E+00 -0.00000000000E+00 -0.12946509597E+04  0.12946509597E+04  0.00000000000E+00 0. -1.
    2000013    1    1    2    0    0  0.82866959250E+03 -0.88545486889E+03 -0.93057526567E+02  0.15433351294E+04  0.95000000000E+03 0.  0.
   -2000013    1    1    2    0    0 -0.82866959250E+03  0.88545486889E+03  0.76879699381E+03  0.17217062572E+04  0.95000000000E+03 0.  0.
<mgrwt>
<rscale>  0 0.31943499E+04</rscale>
<asrwt>0</asrwt>
<pdfrwt beam="1">  1        2 0.30313699E+00 0.31943499E+04</pdfrwt>
<pdfrwt beam="2">  1       -2 0.19917707E+00 0.31943499E+04</pdfrwt>
<totfact> 0.78736320E-01</totfact>
</mgrwt>
</event>
<event>
 4    1  0.1343107E-008  0.3159907E+04  0.7816531E-02  0.8199487E-01
         -1   -1    0    0    0  501 -0.00000000000E+00  0.00000000000E+00  0.11911795704E+04  0.11911795704E+04  0.00000000000E+00 0. -1.
          1   -1    0    0  501    0  0.00000000000E+00 -0.00000000000E+00 -0.20956142374E+04  0.20956142374E+04  0.00000000000E+00 0.  1.
    2000013    1    1    2    0    0  0.17437075545E+03  0.93127317688E+03  0.41559760702E+03  0.14045982562E+04  0.95000000000E+03 0.  0.
   -2000013    1    1    2    0    0 -0.17437075545E+03 -0.93127317688E+03 -0.13200322740E+04  0.18821955517E+04  0.95000000000E+03 0.  0.
<mgrwt>
<rscale>  0 0.31599069E+04</rscale>
<asrwt>0</asrwt>
<pdfrwt beam="2">  1        1 0.32240219E+00 0.31599069E+04</pdfrwt>
<pdfrwt beam="1">  1       -1 0.18325840E+00 0.31599069E+04</pdfrwt>
<totfact> 0.42485401E-01</totfact>
</mgrwt>
</event>
<event>
 4    1  0.1343107E-008  0.2192046E+04  0.7816531E-02  0.8521746E-01
         -2   -1    0    0    0  501 -0.00000000000E+00  0.00000000000E+00  0.94962163932E+03  0.94962163932E+03  0.00000000000E+00 0. -1.
          2   -1    0    0  501    0  0.00000000000E+00 -0.00000000000E+00 -0.12649947532E+04  0.12649947532E+04  0.00000000000E+00 0.  1.
    2000013    1    1    2    0    0 -0.53759679682E+03  0.93539405148E+02 -0.12563522876E+03  0.11027439172E+04  0.95000000000E+03 0.  0.
   -2000013    1    1    2    0    0  0.53759679682E+03 -0.93539405148E+02 -0.18973788510E+03  0.11118724753E+04  0.95000000000E+03 0.  0.
<mgrwt>
<rscale>  0 0.21920460E+04</rscale>
<asrwt>0</asrwt>
<pdfrwt beam="2">  1        2 0.19461458E+00 0.21920460E+04</pdfrwt>
<pdfrwt beam="1">  1       -2 0.14609564E+00 0.21920460E+04</pdfrwt>
<totfact> 0.50931004E+00</totfact>
</mgrwt>
</event>
<event>
 4    1  0.1343107E-008  0.2237759E+04  0.7816531E-02  0.8502875E-01
          1   -1    0    0  501    0  0.00000000000E+00  0.00000000000E+00  0.29418547558E+04  0.29418547558E+04  0.00000000000E+00 0.  1.
         -1   -1    0    0    0  501 -0.00000000000E+00 -0.00000000000E+00 -0.42554473455E+03  0.42554473455E+03  0.00000000000E+00 0. -1.
    2000013    1    1    2    0    0  0.54653645474E+03 -0.15562843479E+03  0.10133354882E+04  0.15007568483E+04  0.95000000000E+03 0.  0.
   -2000013    1    1    2    0    0 -0.54653645474E+03  0.15562843479E+03  0.15029745331E+04  0.18666426421E+04  0.95000000000E+03 0.  0.
<mgrwt>
<rscale>  0 0.22377585E+04</rscale>
<asrwt>0</asrwt>
<pdfrwt beam="1">  1        1 0.45259303E+00 0.22377585E+04</pdfrwt>
<pdfrwt beam="2">  1       -1 0.65468422E-01 0.22377585E+04</pdfrwt>
<totfact> 0.14170731E+00</totfact>
</mgrwt>
</event>
<event>
 4    1  0.1343107E-008  0.2107069E+04  0.7816531E-02  0.8558136E-01
          2   -1    0    0  501    0  0.00000000000E+00  0.00000000000E+00  0.75778277578E+03  0.75778277578E+03  0.00000000000E+00 0.  1.
         -2   -1    0    0    0  501 -0.00000000000E+00 -0.00000000000E+00 -0.14647134224E+04  0.14647134224E+04  0.00000000000E+00 0. -1.
    2000013    1    1    2    0    0  0.39490304602E+03 -0.49017766322E+02 -0.58714979659E+03  0.11855783571E+04  0.95000000000E+03 0.  0.
   -2000013    1    1    2    0    0 -0.39490304602E+03  0.49017766322E+02 -0.11978085004E+03  0.10369178411E+04  0.95000000000E+03 0.  0.
<mgrwt>
<rscale>  0 0.21070687E+04</rscale>
<asrwt>0</asrwt>
<pdfrwt beam="1">  1        2 0.11658197E+00 0.21070687E+04</pdfrwt>
<pdfrwt beam="2">  1       -2 0.22534052E+00 0.21070687E+04</pdfrwt>
<totfact> 0.31150791E+00</totfact>
</mgrwt>
</event>
<event>
 4    1  0.1343107E-008  0.2552761E+04  0.7816531E-02  0.8384427E-01
         -2   -1    0    0    0  501 -0.00000000000E+00  0.00000000000E+00  0.11859111934E+04  0.11859111934E+04  0.00000000000E+00 0. -1.
          2   -1    0    0  501    0  0.00000000000E+00 -0.00000000000E+00 -0.13737511314E+04  0.13737511314E+04  0.00000000000E+00 0.  1.
    2000013    1    1    2    0    0 -0.40352961220E+03  0.74165726539E+03 -0.21151960140E+03  0.12884611709E+04  0.95000000000E+03 0.  0.
   -2000013    1    1    2    0    0  0.40352961220E+03 -0.74165726539E+03  0.23679663371E+02  0.12712011539E+04  0.95000000000E+03 0.  0.
<mgrwt>
<rscale>  0 0.25527607E+04</rscale>
<asrwt>0</asrwt>
<pdfrwt beam="2">  1        2 0.21134633E+00 0.25527607E+04</pdfrwt>
<pdfrwt beam="1">  1       -2 0.18244787E+00 0.25527607E+04</pdfrwt>
<totfact> 0.23207281E+00</totfact>
</mgrwt>
</event>
<event>
 4    1  0.1343107E-008  0.3118230E+04  0.7816531E-02  0.8210753E-01
          2   -1    0    0  501    0  0.00000000000E+00  0.00000000000E+00  0.22761805799E+04  0.22761805799E+04  0.00000000000E+00 0.  1.
         -2   -1    0    0    0  501 -0.00000000000E+00 -0.00000000000E+00 -0.10679465715E+04  0.10679465715E+04  0.00000000000E+00 0. -1.
    2000013    1    1    2    0    0  0.85274800060E+03 -0.16824163711E+03 -0.33869180900E+03  0.13314265066E+04  0.95000000000E+03 0.  0.
   -2000013    1    1    2    0    0 -0.85274800060E+03  0.16824163711E+03  0.15469258174E+04  0.20127006448E+04  0.95000000000E+03 0.  0.
<mgrwt>
<rscale>  0 0.31182298E+04</rscale>
<asrwt>0</asrwt>
<pdfrwt beam="1">  1        2 0.35018163E+00 0.31182298E+04</pdfrwt>
<pdfrwt beam="2">  1       -2 0.16429947E+00 0.31182298E+04</pdfrwt>
<totfact> 0.92868925E-01</totfact>
</mgrwt>
</event>
<event>
 4    1  0.1343107E-008  0.4182399E+04  0.7816531E-02  0.7968729E-01
         -2   -1    0    0    0  501 -0.00000000000E+00  0.00000000000E+00  0.13674404491E+04  0.13674404491E+04  0.00000000000E+00 0. -1.
          2   -1    0    0  501    0  0.00000000000E+00 -0.00000000000E+00 -0.31980300845E+04  0.31980300845E+04  0.00000000000E+00 0.  1.
    2000013    1    1    2    0    0 -0.64883449862E+03 -0.16198232810E+04 -0.20299320586E+03  0.19971279152E+04  0.95000000000E+03 0.  0.
   -2000013    1    1    2    0    0  0.64883449862E+03  0.16198232810E+04 -0.16275964295E+04  0.25683426184E+04  0.95000000000E+03 0.  0.
<mgrwt>
<rscale>  0 0.41823992E+04</rscale>
<asrwt>0</asrwt>
<pdfrwt beam="2">  1        2 0.49200462E+00 0.41823992E+04</pdfrwt>
<pdfrwt beam="1">  1       -2 0.21037546E+00 0.41823992E+04</pdfrwt>
<totfact> 0.11501872E-01</totfact>
</mgrwt>
</event>
<event>
 4    1  0.1343107E-008  0.2536558E+04  0.7816531E-02  0.8390076E-01
         -2   -1    0    0    0  501 -0.00000000000E+00  0.00000000000E+00  0.16001054391E+04  0.16001054391E+04  0.00000000000E+00 0. -1.
          2   -1    0    0  501    0  0.00000000000E+00 -0.00000000000E+00 -0.10052659098E+04  0.10052659098E+04  0.00000000000E+00 0.  1.
    2000013    1    1    2    0    0  0.78629749419E+03  0.26301819404E+03  0.15737902560E+03  0.12707125865E+04  0.95000000000E+03 0.  0.
   -2000013    1    1    2    0    0 -0.78629749419E+03 -0.26301819404E+03  0.43746050365E+03  0.13346587624E+04  0.95000000000E+03 0.  0.
<mgrwt>
<rscale>  0 0.25365579E+04</rscale>
<asrwt>0</asrwt>
<pdfrwt beam="2">  1        2 0.15465629E+00 0.25365579E+04</pdfrwt>
<pdfrwt beam="1">  1       -2 0.24617007E+00 0.25365579E+04</pdfrwt>
<totfact> 0.15077079E+00</totfact>
</mgrwt>
</event>
<event>
 4    1  0.1343107E-008  0.2025676E+04  0.7816531E-02  0.8594710E-01
         -2   -1    0    0    0  501 -0.00000000000E+00  0.00000000000E+00  0.57596244255E+03  0.57596244255E+03  0.00000000000E+00 0. -1.
          2   -1    0    0  501    0  0.00000000000E+00 -0.00000000000E+00 -0.17810890676E+04  0.17810890676E+04  0.00000000000E+00 0.  1.
    2000013    1    1    2    0    0 -0.29036342626E+03  0.19755411373E+03 -0.60097527398E+03  0.11777138138E+04  0.95000000000E+03 0.  0.
   -2000013    1    1    2    0    0  0.29036342626E+03 -0.19755411373E+03 -0.60415135108E+03  0.11793376964E+04  0.95000000000E+03 0.  0.
<mgrwt>
<rscale>  0 0.20256756E+04</rscale>
<asrwt>0</asrwt>
<pdfrwt beam="2">  1        2 0.27401370E+00 0.20256756E+04</pdfrwt>
<pdfrwt beam="1">  1       -2 0.88609606E-01 0.20256756E+04</pdfrwt>
<totfact> 0.89776555E+00</totfact>
</mgrwt>
</event>
<event>
 4    1  0.1343107E-008  0.2343912E+04  0.7816531E-02  0.8460806E-01
         -2   -1    0    0    0  501 -0.00000000000E+00  0.00000000000E+00  0.37586782057E+03  0.37586782057E+03  0.00000000000E+00 0. -1.
          2   -1    0    0  501    0  0.00000000000E+00 -0.00000000000E+00 -0.36541605627E+04  0.36541605627E+04  0.00000000000E+00 0.  1.
    2000013    1    1    2    0    0 -0.55370936451E+03  0.37912341442E+03 -0.18862366125E+04  0.22160138046E+04  0.95000000000E+03 0.  0.
   -2000013    1    1    2    0    0  0.55370936451E+03 -0.37912341442E+03 -0.13920561297E+04  0.18140145787E+04  0.95000000000E+03 0.  0.
<mgrwt>
<rscale>  0 0.23439124E+04</rscale>
<asrwt>0</asrwt>
<pdfrwt beam="2">  1        2 0.56217854E+00 0.23439124E+04</pdfrwt>
<pdfrwt beam="1">  1       -2 0.57825820E-01 0.23439124E+04</pdfrwt>
<totfact> 0.16002304E+00</totfact>
</mgrwt>
</event>
<event>
 4    1  0.1343107E-008  0.2279138E+04  0.7816531E-02  0.8486192E-01
         -2   -1    0    0    0  501 -0.00000000000E+00  0.00000000000E+00  0.57404661178E+03  0.57404661178E+03  0.00000000000E+00 0. -1.
          2   -1    0    0  501    0  0.00000000000E+00 -0.00000000000E+00 -0.22622161143E+04  0.22622161143E+04  0.00000000000E+00 0.  1.
    2000013    1    1    2    0    0  0.47610714670E+03 -0.31743469628E+03 -0.51796717683E+03  0.12240232015E+04  0.95000000000E+03 0.  0.
   -2000013    1    1    2    0    0 -0.47610714670E+03  0.31743469628E+03 -0.11702023257E+04  0.16122395246E+04  0.95000000000E+03 0.  0.
<mgrwt>
<rscale>  0 0.22791380E+04</rscale>
<asrwt>0</asrwt>
<pdfrwt beam="2">  1        2 0.34803325E+00 0.22791380E+04</pdfrwt>
<pdfrwt beam="1">  1       -2 0.88314863E-01 0.22791380E+04</pdfrwt>
<totfact> 0.47739578E+00</totfact>
</mgrwt>
</event>
<event>
 4    1  0.1343107E-008  0.2787027E+04  0.7816531E-02  0.8307307E-01
         -2   -1    0    0    0  501 -0.00000000000E+00  0.00000000000E+00  0.58570104285E+03  0.58570104285E+03  0.00000000000E+00 0. -1.
          2   -1    0    0  501    0  0.00000000000E+00 -0.00000000000E+00 -0.33154799653E+04  0.33154799653E+04  0.00000000000E+00 0.  1.
    2000013    1    1    2    0    0  0.98968300199E+03 -0.24277204070E+03 -0.13213083215E+04  0.19200954113E+04  0.95000000000E+03 0.  0.
   -2000013    1    1    2    0    0 -0.98968300199E+03  0.24277204070E+03 -0.14084706010E+04  0.19810855968E+04  0.95000000000E+03 0.  0.
<mgrwt>
<rscale>  0 0.27870271E+04</rscale>
<asrwt>0</asrwt>
<pdfrwt beam="2">  1        2 0.51007383E+00 0.27870271E+04</pdfrwt>
<pdfrwt beam="1">  1       -2 0.90107855E-01 0.27870271E+04</pdfrwt>
<totfact> 0.99816334E-01</totfact>
</mgrwt>
</event>
<event>
 4    1  0.1343107E-008  0.2930565E+04  0.7816531E-02  0.8263841E-01
         -2   -1    0    0    0  501 -0.00000000000E+00  0.00000000000E+00  0.20262322611E+04  0.20262322611E+04  0.00000000000E+00 0. -1.
          2   -1    0    0  501    0  0.00000000000E+00 -0.00000000000E+00 -0.10596284543E+04  0.10596284543E+04  0.00000000000E+00 0.  1.
    2000013    1    1    2    0    0 -0.88704517665E+03 -0.62630221942E+03  0.75269029606E+03  0.16273125997E+04  0.95000000000E+03 0.  0.
   -2000013    1    1    2    0    0  0.88704517665E+03  0.62630221942E+03  0.21391351074E+03  0.14585481156E+04  0.95000000000E+03 0.  0.
<mgrwt>
<rscale>  0 0.29305654E+04</rscale>
<asrwt>0</asrwt>
<pdfrwt beam="2">  1        2 0.16301976E+00 0.29305654E+04</pdfrwt>
<pdfrwt beam="1">  1       -2 0.31172804E+00 0.29305654E+04</pdfrwt>
<totfact> 0.53511165E-01</totfact>
</mgrwt>
</event>
<event>
 4    1  0.1343107E-008  0.3060392E+04  0.7816531E-02  0.8226693E-01
          2   -1    0    0  501    0  0.00000000000E+00  0.00000000000E+00  0.10100107543E+04  0.10100107543E+04  0.00000000000E+00 0.  1.
         -2   -1    0    0    0  501 -0.00000000000E+00 -0.00000000000E+00 -0.23182925989E+04  0.23182925989E+04  0.00000000000E+00 0. -1.
    2000013    1    1    2    0    0 -0.99244950227E+03 -0.66810332613E+03 -0.74946308488E+03  0.17016206935E+04  0.95000000000E+03 0.  0.
   -2000013    1    1    2    0    0  0.99244950227E+03  0.66810332613E+03 -0.55881875972E+03  0.16266826596E+04  0.95000000000E+03 0.  0.
<mgrwt>
<rscale>  0 0.30603924E+04</rscale>
<asrwt>0</asrwt>
<pdfrwt beam="1">  1        2 0.15538627E+00 0.30603924E+04</pdfrwt>
<pdfrwt beam="2">  1       -2 0.35666040E+00 0.30603924E+04</pdfrwt>
<totfact> 0.29839696E-01</totfact>
</mgrwt>
</event>
<event>
 4    1  0.1343107E-008  0.2017234E+04  0.7816531E-02  0.8598605E-01
         -2   -1    0    0    0  501 -0.00000000000E+00  0.00000000000E+00  0.61467831393E+03  0.61467831393E+03  0.00000000000E+00 0.  1.
          2   -1    0    0  501    0  0.00000000000E+00 -0.00000000000E+00 -0.16550258180E+04  0.16550258180E+04  0.00000000000E+00 0. -1.
    2000013    1    1    2    0    0 -0.25448980720E+03  0.13933036759E+03 -0.71709370461E+03  0.12251128089E+04  0.95000000000E+03 0.  0.
   -2000013    1    1    2    0    0  0.25448980720E+03 -0.13933036759E+03 -0.32325379945E+03  0.10445913230E+04  0.95000000000E+03 0.  0.
<mgrwt>
<rscale>  0 0.20172342E+04</rscale>
<asrwt>0</asrwt>
<pdfrwt beam="2">  1        2 0.25461936E+00 0.20172342E+04</pdfrwt>
<pdfrwt beam="1">  1       -2 0.94565895E-01 0.20172342E+04</pdfrwt>
<totfact> 0.90806761E+00</totfact>
</mgrwt>
</event>
<event>
 4    1  0.1343107E-008  0.3059452E+04  0.7816531E-02  0.8226955E-01
          2   -1    0    0  501    0  0.00000000000E+00  0.00000000000E+00  0.17761770234E+04  0.17761770234E+04  0.00000000000E+00 0.  1.
         -2   -1    0    0    0  501 -0.00000000000E+00 -0.00000000000E+00 -0.13174713748E+04  0.13174713748E+04  0.00000000000E+00 0. -1.
    2000013    1    1    2    0    0 -0.87306984409E+03  0.30993068823E+03 -0.54024159689E+03  0.14327138469E+04  0.95000000000E+03 0.  0.
   -2000013    1    1    2    0    0  0.87306984409E+03 -0.30993068823E+03  0.99894724557E+03  0.16609345513E+04  0.95000000000E+03 0.  0.
<mgrwt>
<rscale>  0 0.30594525E+04</rscale>
<asrwt>0</asrwt>
<pdfrwt beam="1">  1        2 0.27325800E+00 0.30594525E+04</pdfrwt>
<pdfrwt beam="2">  1       -2 0.20268790E+00 0.30594525E+04</pdfrwt>
<totfact> 0.96789568E-01</totfact>
</mgrwt>
</event>
<event>
 4    1  0.1343107E-008  0.2707528E+04  0.7816531E-02  0.8332566E-01
          2   -1    0    0  501    0  0.00000000000E+00  0.00000000000E+00  0.96180406308E+03  0.96180406308E+03  0.00000000000E+00 0.  1.
         -2   -1    0    0    0  501 -0.00000000000E+00 -0.00000000000E+00 -0.19054579419E+04  0.19054579419E+04  0.00000000000E+00 0. -1.
    2000013    1    1    2    0    0  0.57453180378E+03  0.69117818417E+03 -0.10138541863E+03  0.13117137946E+04  0.95000000000E+03 0.  0.
   -2000013    1    1    2    0    0 -0.57453180378E+03 -0.69117818417E+03 -0.84226846022E+03  0.15555482104E+04  0.95000000000E+03 0.  0.
<mgrwt>
<rscale>  0 0.27075282E+04</rscale>
<asrwt>0</asrwt>
<pdfrwt beam="1">  1        2 0.14796986E+00 0.27075282E+04</pdfrwt>
<pdfrwt beam="2">  1       -2 0.29314737E+00 0.27075282E+04</pdfrwt>
<totfact> 0.81849331E-01</totfact>
</mgrwt>
</event>
<event>
 4    1  0.1343107E-008  0.1925567E+04  0.7816531E-02  0.8642234E-01
         -2   -1    0    0    0  501 -0.00000000000E+00  0.00000000000E+00  0.40794452585E+03  0.40794452585E+03  0.00000000000E+00 0. -1.
          2   -1    0    0  501    0  0.00000000000E+00 -0.00000000000E+00 -0.22722496513E+04  0.22722496513E+04  0.00000000000E+00 0.  1.
    2000013    1    1    2    0    0 -0.13044102596E+03 -0.61279344758E+02 -0.84769529415E+03  0.12813498082E+04  0.95000000000E+03 0.  0.
   -2000013    1    1    2    0    0  0.13044102596E+03  0.61279344758E+02 -0.10166098313E+04  0.13988443689E+04  0.95000000000E+03 0.  0.
<mgrwt>
<rscale>  0 0.19255667E+04</rscale>
<asrwt>0</asrwt>
<pdfrwt beam="2">  1        2 0.34957688E+00 0.19255667E+04</pdfrwt>
<pdfrwt beam="1">  1       -2 0.62760695E-01 0.19255667E+04</pdfrwt>
<totfact> 0.10343294E+01</totfact>
</mgrwt>
</event>
<event>
 4    1  0.1343107E-008  0.2647247E+04  0.7816531E-02  0.8352327E-01
         -2   -1    0    0    0  501 -0.00000000000E+00  0.00000000000E+00  0.42912469884E+03  0.42912469884E+03  0.00000000000E+00 0. -1.
          2   -1    0    0  501    0  0.00000000000E+00 -0.00000000000E+00 -0.40826804996E+04  0.40826804996E+04  0.00000000000E+00 0.  1.
    2000013    1    1    2    0    0 -0.80426147900E+03 -0.23681237416E+03 -0.11742979150E+04  0.17275393542E+04  0.95000000000E+03 0.  0.
   -2000013    1    1    2    0    0  0.80426147900E+03  0.23681237416E+03 -0.24792578858E+04  0.27842658443E+04  0.95000000000E+03 0.  0.
<mgrwt>
<rscale>  0 0.26472469E+04</rscale>
<asrwt>0</asrwt>
<pdfrwt beam="2">  1        2 0.62810468E+00 0.26472469E+04</pdfrwt>
<pdfrwt beam="1">  1       -2 0.66019185E-01 0.26472469E+04</pdfrwt>
<totfact> 0.54545916E-01</totfact>
</mgrwt>
</event>
<event>
 4    1  0.1343107E-008  0.3278939E+04  0.7816531E-02  0.8168275E-01
          2   -1    0    0  501    0  0.00000000000E+00  0.00000000000E+00  0.27900853329E+04  0.27900853329E+04  0.00000000000E+00 0.  1.
         -2   -1    0    0    0  501 -0.00000000000E+00 -0.00000000000E+00 -0.96336117776E+03  0.96336117776E+03  0.00000000000E+00 0. -1.
    2000013    1    1    2    0    0  0.21471490629E+03  0.12110018191E+04  0.31554961133E+03  0.15857803928E+04  0.95000000000E+03 0.  0.
   -2000013    1    1    2    0    0 -0.21471490629E+03 -0.12110018191E+04  0.15111745438E+04  0.21676661179E+04  0.95000000000E+03 0.  0.
<mgrwt>
<rscale>  0 0.32789388E+04</rscale>
<asrwt>0</asrwt>
<pdfrwt beam="1">  1        2 0.42924389E+00 0.32789388E+04</pdfrwt>
<pdfrwt beam="2">  1       -2 0.14820941E+00 0.32789388E+04</pdfrwt>
<totfact> 0.60643471E-01</totfact>
</mgrwt>
</event>
<event>
 4    1  0.1343107E-008  0.2464828E+04  0.7816531E-02  0.8415624E-01
          2   -1    0    0  501    0  0.00000000000E+00  0.00000000000E+00  0.19931084544E+04  0.19931084544E+04  0.00000000000E+00 0.  1.
         -2   -1    0    0    0  501 -0.00000000000E+00 -0.00000000000E+00 -0.76204799343E+03  0.76204799343E+03  0.00000000000E+00 0. -1.
    2000013    1    1    2    0    0  0.40996619761E+02 -0.77360485567E+03  0.75779754142E+03  0.14411461790E+04  0.95000000000E+03 0.  0.
   -2000013    1    1    2    0    0 -0.40996619761E+02  0.77360485567E+03  0.47326291959E+03  0.13140102688E+04  0.95000000000E+03 0.  0.
<mgrwt>
<rscale>  0 0.24648280E+04</rscale>
<asrwt>0</asrwt>
<pdfrwt beam="1">  1        2 0.30663207E+00 0.24648280E+04</pdfrwt>
<pdfrwt beam="2">  1       -2 0.11723815E+00 0.24648280E+04</pdfrwt>
<totfact> 0.33911558E+00</totfact>
</mgrwt>
</event>
<event>
 4    1  0.1343107E-008  0.2164819E+04  0.7816531E-02  0.8533216E-01
          2   -1    0    0  501    0  0.00000000000E+00  0.00000000000E+00  0.75773099551E+03  0.75773099551E+03  0.00000000000E+00 0.  1.
         -2   -1    0    0    0  501 -0.00000000000E+00 -0.00000000000E+00 -0.15462088668E+04  0.15462088668E+04  0.00000000000E+00 0. -1.
    2000013    1    1    2    0    0  0.19791866607E+03  0.25116163944E+03 -0.82897031906E+03  0.13007481529E+04  0.95000000000E+03 0.  0.
   -2000013    1    1    2    0    0 -0.19791866607E+03 -0.25116163944E+03  0.40492447730E+02  0.10031917094E+04  0.95000000000E+03 0.  0.
<mgrwt>
<rscale>  0 0.21648191E+04</rscale>
<asrwt>0</asrwt>
<pdfrwt beam="1">  1        2 0.11657400E+00 0.21648191E+04</pdfrwt>
<pdfrwt beam="2">  1       -2 0.23787829E+00 0.21648191E+04</pdfrwt>
<totfact> 0.25890955E+00</totfact>
</mgrwt>
</event>
<event>
 4    1  0.1343107E-008  0.2148952E+04  0.7816531E-02  0.8539981E-01
          2   -1    0    0  501    0  0.00000000000E+00  0.00000000000E+00  0.21456164141E+04  0.21456164141E+04  0.00000000000E+00 0.  1.
         -2   -1    0    0    0  501 -0.00000000000E+00 -0.00000000000E+00 -0.53807326371E+03  0.53807326371E+03  0.00000000000E+00 0. -1.
    2000013    1    1    2    0    0  0.48773156152E+03  0.32589127372E+02  0.66108306992E+03  0.12563737313E+04  0.95000000000E+03 0.  0.
   -2000013    1    1    2    0    0 -0.48773156152E+03 -0.32589127372E+02  0.94646008049E+03  0.14273159466E+04  0.95000000000E+03 0.  0.
<mgrwt>
<rscale>  0 0.21489521E+04</rscale>
<asrwt>0</asrwt>
<pdfrwt beam="1">  1        2 0.33009483E+00 0.21489521E+04</pdfrwt>
<pdfrwt beam="2">  1       -2 0.82780503E-01 0.21489521E+04</pdfrwt>
<totfact> 0.65063686E+00</totfact>
</mgrwt>
</event>
<event>
 4    1  0.1343107E-008  0.2045545E+04  0.7816531E-02  0.8585618E-01
         -1   -1    0    0    0  501 -0.00000000000E+00  0.00000000000E+00  0.12248578083E+04  0.12248578083E+04  0.00000000000E+00 0.  1.
          1   -1    0    0  501    0  0.00000000000E+00 -0.00000000000E+00 -0.85402834136E+03  0.85402834136E+03  0.00000000000E+00 0. -1.
    2000013    1    1    2    0    0  0.27682057743E+03 -0.25850167939E+03  0.19609952327E+03  0.10413490161E+04  0.95000000000E+03 0.  0.
   -2000013    1    1    2    0    0 -0.27682057743E+03  0.25850167939E+03  0.17472994371E+03  0.10375371336E+04  0.95000000000E+03 0.  0.
<mgrwt>
<rscale>  0 0.20455447E+04</rscale>
<asrwt>0</asrwt>
<pdfrwt beam="2">  1        1 0.13138898E+00 0.20455447E+04</pdfrwt>
<pdfrwt beam="1">  1       -1 0.18843966E+00 0.20455447E+04</pdfrwt>
<totfact> 0.33273796E+00</totfact>
</mgrwt>
</event>
<event>
 4    1  0.1343107E-008  0.3734992E+04  0.7816531E-02  0.8060251E-01
          2   -1    0    0  501    0  0.00000000000E+00  0.00000000000E+00  0.19653457980E+04  0.19653457980E+04  0.00000000000E+00 0.  1.
         -2   -1    0    0    0  501 -0.00000000000E+00 -0.00000000000E+00 -0.17745179672E+04  0.17745179672E+04  0.00000000000E+00 0. -1.
    2000013    1    1    2    0    0 -0.11739868578E+03 -0.10726431140E+04 -0.10980701806E+04  0.18090339474E+04  0.95000000000E+03 0.  0.
   -2000013    1    1    2    0    0  0.11739868578E+03  0.10726431140E+04  0.12888980114E+04  0.19308298178E+04  0.95000000000E+03 0.  0.
<mgrwt>
<rscale>  0 0.37349921E+04</rscale>
<asrwt>0</asrwt>
<pdfrwt beam="1">  1        2 0.30236089E+00 0.37349921E+04</pdfrwt>
<pdfrwt beam="2">  1       -2 0.27300276E+00 0.37349921E+04</pdfrwt>
<totfact> 0.26160620E-01</totfact>
</mgrwt>
</event>
<event>
 4    1  0.1343107E-008  0.2849616E+04  0.7816531E-02  0.8288028E-01
         -2   -1    0    0    0  501 -0.00000000000E+00  0.00000000000E+00  0.57493559684E+03  0.57493559684E+03  0.00000000000E+00 0. -1.
          2   -1    0    0  501    0  0.00000000000E+00 -0.00000000000E+00 -0.35309649603E+04  0.35309649603E+04  0.00000000000E+00 0.  1.
    2000013    1    1    2    0    0 -0.95078066041E+03 -0.26110804213E+03 -0.20460433215E+04  0.24619005966E+04  0.95000000000E+03 0.  0.
   -2000013    1    1    2    0    0  0.95078066041E+03  0.26110804213E+03 -0.90998604198E+03  0.16439999606E+04  0.95000000000E+03 0.  0.
<mgrwt>
<rscale>  0 0.28496157E+04</rscale>
<asrwt>0</asrwt>
<pdfrwt beam="2">  1        2 0.54322537E+00 0.28496157E+04</pdfrwt>
<pdfrwt beam="1">  1       -2 0.88451631E-01 0.28496157E+04</pdfrwt>
<totfact> 0.73682461E-01</totfact>
</mgrwt>
</event>
<event>
 4    1  0.1343107E-008  0.3866585E+04  0.7816531E-02  0.8032015E-01
          2   -1    0    0  501    0  0.00000000000E+00  0.00000000000E+00  0.25814577393E+04  0.25814577393E+04  0.00000000000E+00 0.  1.
         -2   -1    0    0    0  501 -0.00000000000E+00 -0.00000000000E+00 -0.14478720140E+04  0.14478720140E+04  0.00000000000E+00 0. -1.
    2000013    1    1    2    0    0  0.87044601437E+03 -0.97627640619E+03 -0.53818056460E+03  0.17037987573E+04  0.95000000000E+03 0.  0.
   -2000013    1    1    2    0    0 -0.87044601437E+03  0.97627640619E+03  0.16717662899E+04  0.23255309960E+04  0.95000000000E+03 0.  0.
<mgrwt>
<rscale>  0 0.38665853E+04</rscale>
<asrwt>0</asrwt>
<pdfrwt beam="1">  1        2 0.39714734E+00 0.38665853E+04</pdfrwt>
<pdfrwt beam="2">  1       -2 0.22274954E+00 0.38665853E+04</pdfrwt>
<totfact> 0.23626961E-01</totfact>
</mgrwt>
</event>
<event>
 4    1  0.1343107E-008  0.2477694E+04  0.7816531E-02  0.8410976E-01
          2   -1    0    0  501    0  0.00000000000E+00  0.00000000000E+00  0.13416266175E+04  0.13416266175E+04  0.00000000000E+00 0.  1.
         -2   -1    0    0    0  501 -0.00000000000E+00 -0.00000000000E+00 -0.11439408591E+04  0.11439408591E+04  0.00000000000E+00 0. -1.
    2000013    1    1    2    0    0  0.53424044590E+03  0.53705988606E+03  0.34126207252E+03  0.12620641732E+04  0.95000000000E+03 0.  0.
   -2000013    1    1    2    0    0 -0.53424044590E+03 -0.53705988606E+03 -0.14357631413E+03  0.12235033033E+04  0.95000000000E+03 0.  0.
<mgrwt>
<rscale>  0 0.24776937E+04</rscale>
<asrwt>0</asrwt>
<pdfrwt beam="1">  1        2 0.20640410E+00 0.24776937E+04</pdfrwt>
<pdfrwt beam="2">  1       -2 0.17599090E+00 0.24776937E+04</pdfrwt>
<totfact> 0.27015655E+00</totfact>
</mgrwt>
</event>
<event>
 4    1  0.1343107E-008  0.3224899E+04  0.7816531E-02  0.8182272E-01
         -2   -1    0    0    0  501 -0.00000000000E+00  0.00000000000E+00  0.97956612024E+03  0.97956612024E+03  0.00000000000E+00 0. -1.
          2   -1    0    0  501    0  0.00000000000E+00 -0.00000000000E+00 -0.26542296165E+04  0.26542296165E+04  0.00000000000E+00 0.  1.
    2000013    1    1    2    0    0 -0.42759797128E+03 -0.12307112858E+04 -0.83932002347E+03  0.18178141808E+04  0.95000000000E+03 0.  0.
   -2000013    1    1    2    0    0  0.42759797128E+03  0.12307112858E+04 -0.83534347281E+03  0.18159815560E+04  0.95000000000E+03 0.  0.
<mgrwt>
<rscale>  0 0.32248990E+04</rscale>
<asrwt>0</asrwt>
<pdfrwt beam="2">  1        2 0.40834301E+00 0.32248990E+04</pdfrwt>
<pdfrwt beam="1">  1       -2 0.15070248E+00 0.32248990E+04</pdfrwt>
<totfact> 0.70280036E-01</totfact>
</mgrwt>
</event>
<event>
 4    1  0.1343107E-008  0.2094878E+04  0.7816531E-02  0.8563503E-01
          2   -1    0    0  501    0  0.00000000000E+00  0.00000000000E+00  0.16885459206E+04  0.16885459206E+04  0.00000000000E+00 0.  1.
         -2   -1    0    0    0  501 -0.00000000000E+00 -0.00000000000E+00 -0.64974755761E+03  0.64974755761E+03  0.00000000000E+00 0. -1.
    2000013    1    1    2    0    0  0.25142029297E+03 -0.24220691844E+03  0.21833199775E+03  0.10353961639E+04  0.95000000000E+03 0.  0.
   -2000013    1    1    2    0    0 -0.25142029297E+03  0.24220691844E+03  0.82046636526E+03  0.13028973143E+04  0.95000000000E+03 0.  0.
<mgrwt>
<rscale>  0 0.20948781E+04</rscale>
<asrwt>0</asrwt>
<pdfrwt beam="1">  1        2 0.25977629E+00 0.20948781E+04</pdfrwt>
<pdfrwt beam="2">  1       -2 0.99961163E-01 0.20948781E+04</pdfrwt>
<totfact> 0.75861280E+00</totfact>
</mgrwt>
</event>
<event>
 4    1  0.1343107E-008  0.2130772E+04  0.7816531E-02  0.8547808E-01
          2   -1    0    0  501    0  0.00000000000E+00  0.00000000000E+00  0.17160984245E+04  0.17160984245E+04  0.00000000000E+00 0.  1.
         -2   -1    0    0    0  501 -0.00000000000E+00 -0.00000000000E+00 -0.66141158006E+03  0.66141158006E+03  0.00000000000E+00 0. -1.
    2000013    1    1    2    0    0  0.27579470196E+03 -0.66269490138E+01  0.96867021070E+03  0.13845319105E+04  0.95000000000E+03 0.  0.
   -2000013    1    1    2    0    0 -0.27579470196E+03  0.66269490138E+01  0.86016633770E+02  0.99297809410E+03  0.95000000000E+03 0.  0.
<mgrwt>
<rscale>  0 0.21307720E+04</rscale>
<asrwt>0</asrwt>
<pdfrwt beam="1">  1        2 0.26401514E+00 0.21307720E+04</pdfrwt>
<pdfrwt beam="2">  1       -2 0.10175563E+00 0.21307720E+04</pdfrwt>
<totfact> 0.69984556E+00</totfact>
</mgrwt>
</event>
<event>
 4    1  0.1343107E-008  0.3212786E+04  0.7816531E-02  0.8185449E-01
          2   -1    0    0  501    0  0.00000000000E+00  0.00000000000E+00  0.29993853680E+04  0.29993853680E+04  0.00000000000E+00 0.  1.
         -2   -1    0    0    0  501 -0.00000000000E+00 -0.00000000000E+00 -0.86034234487E+03  0.86034234487E+03  0.00000000000E+00 0. -1.
    2000013    1    1    2    0    0 -0.32663663905E+03  0.11531972719E+04  0.16598340626E+04  0.22570123077E+04  0.95000000000E+03 0.  0.
   -2000013    1    1    2    0    0  0.32663663905E+03 -0.11531972719E+04  0.47920896055E+03  0.16027154051E+04  0.95000000000E+03 0.  0.
<mgrwt>
<rscale>  0 0.32127859E+04</rscale>
<asrwt>0</asrwt>
<pdfrwt beam="1">  1        2 0.46144390E+00 0.32127859E+04</pdfrwt>
<pdfrwt beam="2">  1       -2 0.13236036E+00 0.32127859E+04</pdfrwt>
<totfact> 0.60777074E-01</totfact>
</mgrwt>
</event>
<event>
 4    1  0.1343107E-008  0.2975385E+04  0.7816531E-02  0.8250795E-01
         -1   -1    0    0    0  501 -0.00000000000E+00  0.00000000000E+00  0.27493619316E+04  0.27493619316E+04  0.00000000000E+00 0.  1.
          1   -1    0    0  501    0  0.00000000000E+00 -0.00000000000E+00 -0.80499750097E+03  0.80499750097E+03  0.00000000000E+00 0. -1.
    2000013    1    1    2    0    0 -0.88990917495E+03  0.70010050198E+02  0.18285357539E+04  0.22456363797E+04  0.95000000000E+03 0.  0.
   -2000013    1    1    2    0    0  0.88990917495E+03 -0.70010050198E+02  0.11582867681E+03  0.13087230529E+04  0.95000000000E+03 0.  0.
<mgrwt>
<rscale>  0 0.29753853E+04</rscale>
<asrwt>0</asrwt>
<pdfrwt beam="2">  1        1 0.12384577E+00 0.29753853E+04</pdfrwt>
<pdfrwt beam="1">  1       -1 0.42297875E+00 0.29753853E+04</pdfrwt>
<totfact> 0.92751862E-02</totfact>
</mgrwt>
</event>
<event>
 4    1  0.1343107E-008  0.2994606E+04  0.7816531E-02  0.8245273E-01
          2   -1    0    0  501    0  0.00000000000E+00  0.00000000000E+00  0.39109490417E+04  0.39109490417E+04  0.00000000000E+00 0.  1.
         -2   -1    0    0    0  501 -0.00000000000E+00 -0.00000000000E+00 -0.57324097206E+03  0.57324097206E+03  0.00000000000E+00 0. -1.
    2000013    1    1    2    0    0 -0.32115869975E+02  0.10700752305E+04  0.23272497338E+04  0.27321573438E+04  0.95000000000E+03 0.  0.
   -2000013    1    1    2    0    0  0.32115869975E+02 -0.10700752305E+04  0.10104583359E+04  0.17520326700E+04  0.95000000000E+03 0.  0.
<mgrwt>
<rscale>  0 0.29946060E+04</rscale>
<asrwt>0</asrwt>
<pdfrwt beam="1">  1        2 0.60168445E+00 0.29946060E+04</pdfrwt>
<pdfrwt beam="2">  1       -2 0.88190921E-01 0.29946060E+04</pdfrwt>
<totfact> 0.38197163E-01</totfact>
</mgrwt>
</event>
<event>
 4    1  0.1343107E-008  0.2451734E+04  0.7816531E-02  0.8420385E-01
          2   -1    0    0  501    0  0.00000000000E+00  0.00000000000E+00  0.20972418478E+04  0.20972418478E+04  0.00000000000E+00 0.  1.
         -2   -1    0    0    0  501 -0.00000000000E+00 -0.00000000000E+00 -0.71653611517E+03  0.71653611517E+03  0.00000000000E+00 0. -1.
    2000013    1    1    2    0    0  0.73590176861E+03  0.52454090078E+02  0.41889421034E+03  0.12736856771E+04  0.95000000000E+03 0.  0.
   -2000013    1    1    2    0    0 -0.73590176861E+03 -0.52454090078E+02  0.96181152233E+03  0.15400922859E+04  0.95000000000E+03 0.  0.
<mgrwt>
<rscale>  0 0.24517337E+04</rscale>
<asrwt>0</asrwt>
<pdfrwt beam="1">  1        2 0.32265259E+00 0.24517337E+04</pdfrwt>
<pdfrwt beam="2">  1       -2 0.11023633E+00 0.24517337E+04</pdfrwt>
<totfact> 0.34508660E+00</totfact>
</mgrwt>
</event>
<event>
 4    1  0.1343107E-008  0.2177117E+04  0.7816531E-02  0.8528013E-01
         -2   -1    0    0    0  501 -0.00000000000E+00  0.00000000000E+00  0.29335252639E+03  0.29335252639E+03  0.00000000000E+00 0. -1.
          2   -1    0    0  501    0  0.00000000000E+00 -0.00000000000E+00 -0.40393723190E+04  0.40393723190E+04  0.00000000000E+00 0.  1.
    2000013    1    1    2    0    0 -0.23396470743E+03  0.47593368463E+03 -0.19421710271E+04  0.22261582727E+04  0.95000000000E+03 0.  0.
   -2000013    1    1    2    0    0  0.23396470743E+03 -0.47593368463E+03 -0.18038487655E+04  0.21065665728E+04  0.95000000000E+03 0.  0.
<mgrwt>
<rscale>  0 0.21771174E+04</rscale>
<asrwt>0</asrwt>
<pdfrwt beam="2">  1        2 0.62144185E+00 0.21771174E+04</pdfrwt>
<pdfrwt beam="1">  1       -2 0.45131161E-01 0.21771174E+04</pdfrwt>
<totfact> 0.13654642E+00</totfact>
</mgrwt>
</event>
<event>
 4    1  0.1343107E-008  0.2565339E+04  0.7816531E-02  0.8380071E-01
         -2   -1    0    0    0  501 -0.00000000000E+00  0.00000000000E+00  0.38717550129E+03  0.38717550129E+03  0.00000000000E+00 0. -1.
          2   -1    0    0  501    0  0.00000000000E+00 -0.00000000000E+00 -0.42493416006E+04  0.42493416006E+04  0.00000000000E+00 0.  1.
    2000013    1    1    2    0    0 -0.81888575434E+03  0.15494610859E+03 -0.15344536592E+04  0.19878707723E+04  0.95000000000E+03 0.  0.
   -2000013    1    1    2    0    0  0.81888575434E+03 -0.15494610859E+03 -0.23277124401E+04  0.26486463295E+04  0.95000000000E+03 0.  0.
<mgrwt>
<rscale>  0 0.25653389E+04</rscale>
<asrwt>0</asrwt>
<pdfrwt beam="2">  1        2 0.65374484E+00 0.25653389E+04</pdfrwt>
<pdfrwt beam="1">  1       -2 0.59565464E-01 0.25653389E+04</pdfrwt>
<totfact> 0.49297121E-01</totfact>
</mgrwt>
</event>
<event>
 4    1  0.1343107E-008  0.3007203E+04  0.7816531E-02  0.8241677E-01
         -2   -1    0    0    0  501 -0.00000000000E+00  0.00000000000E+00  0.15229900139E+04  0.15229900139E+04  0.00000000000E+00 0. -1.
          2   -1    0    0  501    0  0.00000000000E+00 -0.00000000000E+00 -0.14844594062E+04  0.14844594062E+04  0.00000000000E+00 0.  1.
    2000013    1    1    2    0    0  0.93192480111E+03  0.62122366638E+03  0.34164897649E+03  0.15078550002E+04  0.95000000000E+03 0.  0.
   -2000013    1    1    2    0    0 -0.93192480111E+03 -0.62122366638E+03 -0.30311836878E+03  0.14995944199E+04  0.95000000000E+03 0.  0.
<mgrwt>
<rscale>  0 0.30072026E+04</rscale>
<asrwt>0</asrwt>
<pdfrwt beam="2">  1        2 0.22837837E+00 0.30072026E+04</pdfrwt>
<pdfrwt beam="1">  1       -2 0.23430616E+00 0.30072026E+04</pdfrwt>
<totfact> 0.89060770E-01</totfact>
</mgrwt>
</event>
<event>
 4    1  0.1343107E-008  0.2581202E+04  0.7816531E-02  0.8374615E-01
          2   -1    0    0  501    0  0.00000000000E+00  0.00000000000E+00  0.82342107812E+03  0.82342107812E+03  0.00000000000E+00 0.  1.
         -2   -1    0    0    0  501 -0.00000000000E+00 -0.00000000000E+00 -0.20228415056E+04  0.20228415056E+04  0.00000000000E+00 0. -1.
    2000013    1    1    2    0    0 -0.57045251167E+03 -0.54081138492E+03 -0.10199740790E+04  0.16002312783E+04  0.95000000000E+03 0.  0.
   -2000013    1    1    2    0    0  0.57045251167E+03  0.54081138492E+03 -0.17944634847E+03  0.12460313054E+04  0.95000000000E+03 0.  0.
<mgrwt>
<rscale>  0 0.25812015E+04</rscale>
<asrwt>0</asrwt>
<pdfrwt beam="1">  1        2 0.12668017E+00 0.25812015E+04</pdfrwt>
<pdfrwt beam="2">  1       -2 0.31120638E+00 0.25812015E+04</pdfrwt>
<totfact> 0.79656527E-01</totfact>
</mgrwt>
</event>
<event>
 4    1  0.1343107E-008  0.2110674E+04  0.7816531E-02  0.8556556E-01
         -2   -1    0    0    0  501 -0.00000000000E+00  0.00000000000E+00  0.28947716577E+03  0.28947716577E+03  0.00000000000E+00 0. -1.
          2   -1    0    0  501    0  0.00000000000E+00 -0.00000000000E+00 -0.38474042795E+04  0.38474042795E+04  0.00000000000E+00 0.  1.
    2000013    1    1    2    0    0  0.17824782587E+03  0.37276047251E+03 -0.13844614113E+04  0.17291489400E+04  0.95000000000E+03 0.  0.
   -2000013    1    1    2    0    0 -0.17824782587E+03 -0.37276047251E+03 -0.21734657024E+04  0.24077325052E+04  0.95000000000E+03 0.  0.
<mgrwt>
<rscale>  0 0.21106735E+04</rscale>
<asrwt>0</asrwt>
<pdfrwt beam="2">  1        2 0.59190832E+00 0.21106735E+04</pdfrwt>
<pdfrwt beam="1">  1       -2 0.44534951E-01 0.21106735E+04</pdfrwt>
<totfact> 0.20030013E+00</totfact>
</mgrwt>
</event>
<event>
 4    1  0.1343107E-008  0.2743501E+04  0.7816531E-02  0.8321027E-01
         -2   -1    0    0    0  501 -0.00000000000E+00  0.00000000000E+00  0.17229246840E+04  0.17229246840E+04  0.00000000000E+00 0. -1.
          2   -1    0    0  501    0  0.00000000000E+00 -0.00000000000E+00 -0.10921539309E+04  0.10921539309E+04  0.00000000000E+00 0.  1.
    2000013    1    1    2    0    0 -0.49900156743E+03  0.85449858136E+03  0.30990020978E+03  0.14063102538E+04  0.95000000000E+03 0.  0.
   -2000013    1    1    2    0    0  0.49900156743E+03 -0.85449858136E+03  0.32087054337E+03  0.14087683612E+04  0.95000000000E+03 0.  0.
<mgrwt>
<rscale>  0 0.27435007E+04</rscale>
<asrwt>0</asrwt>
<pdfrwt beam="2">  1        2 0.16802368E+00 0.27435007E+04</pdfrwt>
<pdfrwt beam="1">  1       -2 0.26506534E+00 0.27435007E+04</pdfrwt>
<totfact> 0.10005275E+00</totfact>
</mgrwt>
</event>
<event>
 4    1  0.1343107E-008  0.3789700E+04  0.7816531E-02  0.8048369E-01
          2   -1    0    0  501    0  0.00000000000E+00  0.00000000000E+00  0.23893448056E+04  0.23893448056E+04  0.00000000000E+00 0.  1.
         -2   -1    0    0    0  501 -0.00000000000E+00 -0.00000000000E+00 -0.15026946240E+04  0.15026946240E+04  0.00000000000E+00 0. -1.
    2000013    1    1    2    0    0 -0.38354034707E+03  0.13781122855E+04 -0.37934285424E+03  0.17586067412E+04  0.95000000000E+03 0.  0.
   -2000013    1    1    2    0    0  0.38354034707E+03 -0.13781122855E+04  0.12659930359E+04  0.21334326884E+04  0.95000000000E+03 0.  0.
<mgrwt>
<rscale>  0 0.37896995E+04</rscale>
<asrwt>0</asrwt>
<pdfrwt beam="1">  1        2 0.36759151E+00 0.37896995E+04</pdfrwt>
<pdfrwt beam="2">  1       -2 0.23118379E+00 0.37896995E+04</pdfrwt>
<totfact> 0.27195491E-01</totfact>
</mgrwt>
</event>
<event>
 4    1  0.1343107E-008  0.2749547E+04  0.7816531E-02  0.8319105E-01
         -2   -1    0    0    0  501 -0.00000000000E+00  0.00000000000E+00  0.63304074334E+03  0.63304074334E+03  0.00000000000E+00 0. -1.
          2   -1    0    0  501    0  0.00000000000E+00 -0.00000000000E+00 -0.29855938375E+04  0.29855938375E+04  0.00000000000E+00 0.  1.
    2000013    1    1    2    0    0 -0.41959935572E+03  0.60611205048E+03 -0.29925989187E+03  0.12391496762E+04  0.95000000000E+03 0.  0.
   -2000013    1    1    2    0    0  0.41959935572E+03 -0.60611205048E+03 -0.20532932023E+04  0.23794849047E+04  0.95000000000E+03 0.  0.
<mgrwt>
<rscale>  0 0.27495473E+04</rscale>
<asrwt>0</asrwt>
<pdfrwt beam="2">  1        2 0.45932213E+00 0.27495473E+04</pdfrwt>
<pdfrwt beam="1">  1       -2 0.97390884E-01 0.27495473E+04</pdfrwt>
<totfact> 0.13651866E+00</totfact>
</mgrwt>
</event>
<event>
 4    1  0.1343107E-008  0.2532812E+04  0.7816531E-02  0.8391389E-01
         -2   -1    0    0    0  501 -0.00000000000E+00  0.00000000000E+00  0.68880936962E+03  0.68880936962E+03  0.00000000000E+00 0. -1.
          2   -1    0    0  501    0  0.00000000000E+00 -0.00000000000E+00 -0.23283423793E+04  0.23283423793E+04  0.00000000000E+00 0.  1.
    2000013    1    1    2    0    0 -0.29189938734E+03 -0.77780340998E+03 -0.69425937120E+03  0.14403747677E+04  0.95000000000E+03 0.  0.
   -2000013    1    1    2    0    0  0.29189938734E+03  0.77780340998E+03 -0.94527363845E+03  0.15767769812E+04  0.95000000000E+03 0.  0.
<mgrwt>
<rscale>  0 0.25328119E+04</rscale>
<asrwt>0</asrwt>
<pdfrwt beam="2">  1        2 0.35820652E+00 0.25328119E+04</pdfrwt>
<pdfrwt beam="1">  1       -2 0.10597067E+00 0.25328119E+04</pdfrwt>
<totfact> 0.27933001E+00</totfact>
</mgrwt>
</event>
<event>
 4    1  0.1343107E-008  0.2507729E+04  0.7816531E-02  0.8400237E-01
          4   -1    0    0  501    0  0.00000000000E+00  0.00000000000E+00  0.15700026902E+04  0.15700026902E+04  0.00000000000E+00 0.  1.
         -4   -1    0    0    0  501 -0.00000000000E+00 -0.00000000000E+00 -0.10013842962E+04  0.10013842962E+04  0.00000000000E+00 0. -1.
    2000013    1    1    2    0    0  0.71604864990E+03  0.34429210628E+03  0.83340805638E+02  0.12412527597E+04  0.95000000000E+03 0.  0.
   -2000013    1    1    2    0    0 -0.71604864990E+03 -0.34429210628E+03  0.48527758840E+03  0.13301342268E+04  0.95000000000E+03 0.  0.
<mgrwt>
<rscale>  0 0.25077289E+04</rscale>
<asrwt>0</asrwt>
<pdfrwt beam="1">  1        4 0.24153888E+00 0.25077289E+04</pdfrwt>
<pdfrwt beam="2">  1       -4 0.15405912E+00 0.25077289E+04</pdfrwt>
<totfact> 0.35156669E-02</totfact>
</mgrwt>
</event>
<event>
 4    1  0.1343107E-008  0.2896217E+04  0.7816531E-02  0.8274004E-01
          2   -1    0    0  501    0  0.00000000000E+00  0.00000000000E+00  0.24951873348E+04  0.24951873348E+04  0.00000000000E+00 0.  1.
         -2   -1    0    0    0  501 -0.00000000000E+00 -0.00000000000E+00 -0.84042498467E+03  0.84042498467E+03  0.00000000000E+00 0. -1.
    2000013    1    1    2    0    0  0.60349875862E+03 -0.89980763137E+03  0.66186564675E+03  0.15856956390E+04  0.95000000000E+03 0.  0.
   -2000013    1    1    2    0    0 -0.60349875862E+03  0.89980763137E+03  0.99289670341E+03  0.17499166805E+04  0.95000000000E+03 0.  0.
<mgrwt>
<rscale>  0 0.28962167E+04</rscale>
<asrwt>0</asrwt>
<pdfrwt beam="1">  1        2 0.38387497E+00 0.28962167E+04</pdfrwt>
<pdfrwt beam="2">  1       -2 0.12929615E+00 0.28962167E+04</pdfrwt>
<totfact> 0.13315419E+00</totfact>
</mgrwt>
</event>
<event>
 4    1  0.1343107E-008  0.2653303E+04  0.7816531E-02  0.8350317E-01
         -2   -1    0    0    0  501 -0.00000000000E+00  0.00000000000E+00  0.60475522813E+03  0.60475522813E+03  0.00000000000E+00 0. -1.
          2   -1    0    0  501    0  0.00000000000E+00 -0.00000000000E+00 -0.29102756649E+04  0.29102756649E+04  0.00000000000E+00 0.  1.
    2000013    1    1    2    0    0 -0.78563157008E+03  0.35574075835E+03 -0.15995376157E+04  0.20505582253E+04  0.95000000000E+03 0.  0.
   -2000013    1    1    2    0    0  0.78563157008E+03 -0.35574075835E+03 -0.70598282108E+03  0.14644726678E+04  0.95000000000E+03 0.  0.
<mgrwt>
<rscale>  0 0.26533032E+04</rscale>
<asrwt>0</asrwt>
<pdfrwt beam="2">  1        2 0.44773473E+00 0.26533032E+04</pdfrwt>
<pdfrwt beam="1">  1       -2 0.93039264E-01 0.26533032E+04</pdfrwt>
<totfact> 0.17057798E+00</totfact>
</mgrwt>
</event>
<event>
 4    1  0.1343107E-008  0.2546443E+04  0.7816531E-02  0.8386624E-01
          2   -1    0    0  501    0  0.00000000000E+00  0.00000000000E+00  0.10968827773E+04  0.10968827773E+04  0.00000000000E+00 0.  1.
         -2   -1    0    0    0  501 -0.00000000000E+00 -0.00000000000E+00 -0.14779088011E+04  0.14779088011E+04  0.00000000000E+00 0. -1.
    2000013    1    1    2    0    0  0.57468852032E+03  0.58306318221E+03  0.31851463059E+02  0.12544895717E+04  0.95000000000E+03 0.  0.
   -2000013    1    1    2    0    0 -0.57468852032E+03 -0.58306318221E+03 -0.41287748682E+03  0.13203020067E+04  0.95000000000E+03 0.  0.
<mgrwt>
<rscale>  0 0.25464428E+04</rscale>
<asrwt>0</asrwt>
<pdfrwt beam="1">  1        2 0.16875120E+00 0.25464428E+04</pdfrwt>
<pdfrwt beam="2">  1       -2 0.22737058E+00 0.25464428E+04</pdfrwt>
<totfact> 0.17264419E+00</totfact>
</mgrwt>
</event>
<event>
 4    1  0.1343107E-008  0.2749802E+04  0.7816531E-02  0.8319025E-01
         -2   -1    0    0    0  501 -0.00000000000E+00  0.00000000000E+00  0.87368923617E+03  0.87368923617E+03  0.00000000000E+00 0. -1.
          2   -1    0    0  501    0  0.00000000000E+00 -0.00000000000E+00 -0.21636435935E+04  0.21636435935E+04  0.00000000000E+00 0.  1.
    2000013    1    1    2    0    0 -0.91519251225E+03  0.38213693564E+03 -0.57300104351E+03  0.14880981715E+04  0.95000000000E+03 0.  0.
   -2000013    1    1    2    0    0  0.91519251225E+03 -0.38213693564E+03 -0.71695331387E+03  0.15492346582E+04  0.95000000000E+03 0.  0.
<mgrwt>
<rscale>  0 0.27498015E+04</rscale>
<asrwt>0</asrwt>
<pdfrwt beam="2">  1        2 0.33286824E+00 0.27498015E+04</pdfrwt>
<pdfrwt beam="1">  1       -2 0.13441373E+00 0.27498015E+04</pdfrwt>
<totfact> 0.18865558E+00</totfact>
</mgrwt>
</event>
<event>
 4    1  0.1343107E-008  0.2949025E+04  0.7816531E-02  0.8258439E-01
          2   -1    0    0  501    0  0.00000000000E+00  0.00000000000E+00  0.14622018966E+04  0.14622018966E+04  0.00000000000E+00 0.  1.
         -2   -1    0    0    0  501 -0.00000000000E+00 -0.00000000000E+00 -0.14869264164E+04  0.14869264164E+04  0.00000000000E+00 0. -1.
    2000013    1    1    2    0    0 -0.37057358921E+03 -0.96087521399E+03  0.44708904478E+03  0.14707122682E+04  0.95000000000E+03 0.  0.
   -2000013    1    1    2    0    0  0.37057358921E+03  0.96087521399E+03 -0.47181356461E+03  0.14784160448E+04  0.95000000000E+03 0.  0.
<mgrwt>
<rscale>  0 0.29490247E+04</rscale>
<asrwt>0</asrwt>
<pdfrwt beam="1">  1        2 0.22495414E+00 0.29490247E+04</pdfrwt>
<pdfrwt beam="2">  1       -2 0.22875791E+00 0.29490247E+04</pdfrwt>
<totfact> 0.99787084E-01</totfact>
</mgrwt>
</event>
<event>
 4    1  0.1343107E-008  0.2419900E+04  0.7816531E-02  0.8432091E-01
         -2   -1    0    0    0  501 -0.00000000000E+00  0.00000000000E+00  0.84857957155E+03  0.84857957155E+03  0.00000000000E+00 0. -1.
          2   -1    0    0  501    0  0.00000000000E+00 -0.00000000000E+00 -0.17252110330E+04  0.17252110330E+04  0.00000000000E+00 0.  1.
    2000013    1    1    2    0    0 -0.38952772043E+03 -0.46405558114E+03 -0.90726222023E+03  0.14466181817E+04  0.95000000000E+03 0.  0.
   -2000013    1    1    2    0    0  0.38952772043E+03  0.46405558114E+03  0.30630758806E+02  0.11271724228E+04  0.95000000000E+03 0.  0.
<mgrwt>
<rscale>  0 0.24198999E+04</rscale>
<asrwt>0</asrwt>
<pdfrwt beam="2">  1        2 0.26541708E+00 0.24198999E+04</pdfrwt>
<pdfrwt beam="1">  1       -2 0.13055070E+00 0.24198999E+04</pdfrwt>
<totfact> 0.36631826E+00</totfact>
</mgrwt>
</event>
<event>
 4    1  0.1343107E-008  0.2575776E+04  0.7816531E-02  0.8376476E-01
          2   -1    0    0  501    0  0.00000000000E+00  0.00000000000E+00  0.21856195306E+04  0.21856195306E+04  0.00000000000E+00 0.  1.
         -2   -1    0    0    0  501 -0.00000000000E+00 -0.00000000000E+00 -0.75889488445E+03  0.75889488445E+03  0.00000000000E+00 0. -1.
    2000013    1    1    2    0    0  0.16420047577E+01 -0.38565703557E+03  0.16043068249E+04  0.19039523192E+04  0.95000000000E+03 0.  0.
   -2000013    1    1    2    0    0 -0.16420047577E+01  0.38565703557E+03 -0.17758217871E+03  0.10405620959E+04  0.95000000000E+03 0.  0.
<mgrwt>
<rscale>  0 0.25757760E+04</rscale>
<asrwt>0</asrwt>
<pdfrwt beam="1">  1        2 0.33624916E+00 0.25757760E+04</pdfrwt>
<pdfrwt beam="2">  1       -2 0.11675306E+00 0.25757760E+04</pdfrwt>
<totfact> 0.26492945E+00</totfact>
</mgrwt>
</event>
<event>
 4    1  0.1343107E-008  0.3195070E+04  0.7816531E-02  0.8190120E-01
          2   -1    0    0  501    0  0.00000000000E+00  0.00000000000E+00  0.16035414666E+04  0.16035414666E+04  0.00000000000E+00 0.  1.
         -2   -1    0    0    0  501 -0.00000000000E+00 -0.00000000000E+00 -0.15915511060E+04  0.15915511060E+04  0.00000000000E+00 0. -1.
    2000013    1    1    2    0    0  0.68085261406E+03  0.97461664462E+03 -0.47999209821E+03  0.15957225011E+04  0.95000000000E+03 0.  0.
   -2000013    1    1    2    0    0 -0.68085261406E+03 -0.97461664462E+03  0.49198245875E+03  0.15993700716E+04  0.95000000000E+03 0.  0.
<mgrwt>
<rscale>  0 0.31950701E+04</rscale>
<asrwt>0</asrwt>
<pdfrwt beam="1">  1        2 0.24669869E+00 0.31950701E+04</pdfrwt>
<pdfrwt beam="2">  1       -2 0.24485402E+00 0.31950701E+04</pdfrwt>
<totfact> 0.64650396E-01</totfact>
</mgrwt>
</event>
<event>
 4    1  0.1343107E-008  0.2452534E+04  0.7816531E-02  0.8420094E-01
          2   -1    0    0  501    0  0.00000000000E+00  0.00000000000E+00  0.20274882821E+04  0.20274882821E+04  0.00000000000E+00 0.  1.
         -2   -1    0    0    0  501 -0.00000000000E+00 -0.00000000000E+00 -0.74167151383E+03  0.74167151383E+03  0.00000000000E+00 0. -1.
    2000013    1    1    2    0    0 -0.41362445225E+03  0.70450088228E+02  0.13791501163E+04  0.17264424247E+04  0.95000000000E+03 0.  0.
   -2000013    1    1    2    0    0  0.41362445225E+03 -0.70450088228E+02 -0.93333348041E+02  0.10427173712E+04  0.95000000000E+03 0.  0.
<mgrwt>
<rscale>  0 0.24525336E+04</rscale>
<asrwt>0</asrwt>
<pdfrwt beam="1">  1        2 0.31192127E+00 0.24525336E+04</pdfrwt>
<pdfrwt beam="2">  1       -2 0.11410331E+00 0.24525336E+04</pdfrwt>
<totfact> 0.34707940E+00</totfact>
</mgrwt>
</event>
<event>
 4    1  0.1343107E-008  0.2407046E+04  0.7816531E-02  0.8436870E-01
         -2   -1    0    0    0  501 -0.00000000000E+00  0.00000000000E+00  0.82515156843E+03  0.82515156843E+03  0.00000000000E+00 0. -1.
          2   -1    0    0  501    0  0.00000000000E+00 -0.00000000000E+00 -0.17553954728E+04  0.17553954728E+04  0.00000000000E+00 0.  1.
    2000013    1    1    2    0    0 -0.18542803703E+03  0.68970451301E+03 -0.26201585195E+03  0.12170571798E+04  0.95000000000E+03 0.  0.
   -2000013    1    1    2    0    0  0.18542803703E+03 -0.68970451301E+03 -0.66822805239E+03  0.13634898614E+04  0.95000000000E+03 0.  0.
<mgrwt>
<rscale>  0 0.24070458E+04</rscale>
<asrwt>0</asrwt>
<pdfrwt beam="2">  1        2 0.27006084E+00 0.24070458E+04</pdfrwt>
<pdfrwt beam="1">  1       -2 0.12694640E+00 0.24070458E+04</pdfrwt>
<totfact> 0.37868561E+00</totfact>
</mgrwt>
</event>
<event>
 4    1  0.1343107E-008  0.2457241E+04  0.7816531E-02  0.8418379E-01
          2   -1    0    0  501    0  0.00000000000E+00  0.00000000000E+00  0.22355487311E+04  0.22355487311E+04  0.00000000000E+00 0.  1.
         -2   -1    0    0    0  501 -0.00000000000E+00 -0.00000000000E+00 -0.67522968907E+03  0.67522968907E+03  0.00000000000E+00 0. -1.
    2000013    1    1    2    0    0  0.26730213451E+03  0.26030855777E+03 -0.30037139255E+02  0.10210843286E+04  0.95000000000E+03 0.  0.
   -2000013    1    1    2    0    0 -0.26730213451E+03 -0.26030855777E+03  0.15903561813E+04  0.18896940916E+04  0.95000000000E+03 0.  0.
<mgrwt>
<rscale>  0 0.24572414E+04</rscale>
<asrwt>0</asrwt>
<pdfrwt beam="1">  1        2 0.34393057E+00 0.24572414E+04</pdfrwt>
<pdfrwt beam="2">  1       -2 0.10388149E+00 0.24572414E+04</pdfrwt>
<totfact> 0.33281517E+00</totfact>
</mgrwt>
</event>
<event>
 4    1  0.1343107E-008  0.2416267E+04  0.7816531E-02  0.8433438E-01
         -2   -1    0    0    0  501 -0.00000000000E+00  0.00000000000E+00  0.67380604598E+03  0.67380604598E+03  0.00000000000E+00 0. -1.
          2   -1    0    0  501    0  0.00000000000E+00 -0.00000000000E+00 -0.21661819773E+04  0.21661819773E+04  0.00000000000E+00 0.  1.
    2000013    1    1    2    0    0  0.47346439078E+03 -0.50405546814E+03 -0.41615173833E+03  0.12465643640E+04  0.95000000000E+03 0.  0.
   -2000013    1    1    2    0    0 -0.47346439078E+03  0.50405546814E+03 -0.10762241930E+04  0.15934236592E+04  0.95000000000E+03 0.  0.
<mgrwt>
<rscale>  0 0.24162670E+04</rscale>
<asrwt>0</asrwt>
<pdfrwt beam="2">  1        2 0.33325877E+00 0.24162670E+04</pdfrwt>
<pdfrwt beam="1">  1       -2 0.10366247E+00 0.24162670E+04</pdfrwt>
<totfact> 0.36721925E+00</totfact>
</mgrwt>
</event>
<event>
 4    1  0.1343107E-008  0.2537044E+04  0.7816531E-02  0.8389906E-01
          2   -1    0    0  501    0  0.00000000000E+00  0.00000000000E+00  0.89371830000E+03  0.89371830000E+03  0.00000000000E+00 0.  1.
         -2   -1    0    0    0  501 -0.00000000000E+00 -0.00000000000E+00 -0.18005090377E+04  0.18005090377E+04  0.00000000000E+00 0. -1.
    2000013    1    1    2    0    0  0.42850298227E+03  0.72271414402E+03 -0.42495287086E+03  0.13375408339E+04  0.95000000000E+03 0.  0.
   -2000013    1    1    2    0    0 -0.42850298227E+03 -0.72271414402E+03 -0.48183786686E+03  0.13566865039E+04  0.95000000000E+03 0.  0.
<mgrwt>
<rscale>  0 0.25370439E+04</rscale>
<asrwt>0</asrwt>
<pdfrwt beam="1">  1        2 0.13749512E+00 0.25370439E+04</pdfrwt>
<pdfrwt beam="2">  1       -2 0.27700139E+00 0.25370439E+04</pdfrwt>
<totfact> 0.11564771E+00</totfact>
</mgrwt>
</event>
<event>
 4    1  0.1343107E-008  0.2203578E+04  0.7816531E-02  0.8516940E-01
         -2   -1    0    0    0  501 -0.00000000000E+00  0.00000000000E+00  0.82736286163E+03  0.82736286163E+03  0.00000000000E+00 0. -1.
          2   -1    0    0  501    0  0.00000000000E+00 -0.00000000000E+00 -0.14672388458E+04  0.14672388458E+04  0.00000000000E+00 0.  1.
    2000013    1    1    2    0    0  0.29572617251E+03 -0.26992567846E+03  0.84868232762E+02  0.10344159985E+04  0.95000000000E+03 0.  0.
   -2000013    1    1    2    0    0 -0.29572617251E+03  0.26992567846E+03 -0.72474421690E+03  0.12601857089E+04  0.95000000000E+03 0.  0.
<mgrwt>
<rscale>  0 0.22035779E+04</rscale>
<asrwt>0</asrwt>
<pdfrwt beam="2">  1        2 0.22572905E+00 0.22035779E+04</pdfrwt>
<pdfrwt beam="1">  1       -2 0.12728660E+00 0.22035779E+04</pdfrwt>
<totfact> 0.55464824E+00</totfact>
</mgrwt>
</event>
<event>
 4    1  0.1343107E-008  0.2290693E+04  0.7816531E-02  0.8481600E-01
          1   -1    0    0  501    0  0.00000000000E+00  0.00000000000E+00  0.12184747750E+04  0.12184747750E+04  0.00000000000E+00 0.  1.
         -1   -1    0    0    0  501 -0.00000000000E+00 -0.00000000000E+00 -0.10766074367E+04  0.10766074367E+04  0.00000000000E+00 0. -1.
    2000013    1    1    2    0    0  0.58681160533E+03  0.17556682054E+03  0.25607796634E+03  0.11589855450E+04  0.95000000000E+03 0.  0.
   -2000013    1    1    2    0    0 -0.58681160533E+03 -0.17556682054E+03 -0.11421062801E+03  0.11360966667E+04  0.95000000000E+03 0.  0.
<mgrwt>
<rscale>  0 0.22906933E+04</rscale>
<asrwt>0</asrwt>
<pdfrwt beam="1">  1        1 0.18745766E+00 0.22906933E+04</pdfrwt>
<pdfrwt beam="2">  1       -1 0.16563191E+00 0.22906933E+04</pdfrwt>
<totfact> 0.24842432E+00</totfact>
</mgrwt>
</event>
<event>
 4    1  0.1343107E-008  0.2350479E+04  0.7816531E-02  0.8458280E-01
         -2   -1    0    0    0  501 -0.00000000000E+00  0.00000000000E+00  0.61301451061E+03  0.61301451061E+03  0.00000000000E+00 0. -1.
          2   -1    0    0  501    0  0.00000000000E+00 -0.00000000000E+00 -0.22531087011E+04  0.22531087011E+04  0.00000000000E+00 0.  1.
    2000013    1    1    2    0    0  0.22153742951E+02  0.68961279059E+03 -0.75749241972E+03  0.13972656709E+04  0.95000000000E+03 0.  0.
   -2000013    1    1    2    0    0 -0.22153742951E+02 -0.68961279059E+03 -0.88260177073E+03  0.14688575407E+04  0.95000000000E+03 0.  0.
<mgrwt>
<rscale>  0 0.23504794E+04</rscale>
<asrwt>0</asrwt>
<pdfrwt beam="2">  1        2 0.34663210E+00 0.23504794E+04</pdfrwt>
<pdfrwt beam="1">  1       -2 0.94309926E-01 0.23504794E+04</pdfrwt>
<totfact> 0.41247859E+00</totfact>
</mgrwt>
</event>
<event>
 4    1  0.1343107E-008  0.2354615E+04  0.7816531E-02  0.8456693E-01
          1   -1    0    0  501    0  0.00000000000E+00  0.00000000000E+00  0.17633476902E+04  0.17633476902E+04  0.00000000000E+00 0.  1.
         -1   -1    0    0    0  501 -0.00000000000E+00 -0.00000000000E+00 -0.78603467982E+03  0.78603467982E+03  0.00000000000E+00 0. -1.
    2000013    1    1    2    0    0  0.45317898184E+03  0.38040463706E+03  0.88421687424E+03  0.14263303818E+04  0.95000000000E+03 0.  0.
   -2000013    1    1    2    0    0 -0.45317898184E+03 -0.38040463706E+03  0.93096136093E+02  0.11230519881E+04  0.95000000000E+03 0.  0.
<mgrwt>
<rscale>  0 0.23546146E+04</rscale>
<asrwt>0</asrwt>
<pdfrwt beam="1">  1        1 0.27128426E+00 0.23546146E+04</pdfrwt>
<pdfrwt beam="2">  1       -1 0.12092841E+00 0.23546146E+04</pdfrwt>
<totfact> 0.23578497E+00</totfact>
</mgrwt>
</event>
<event>
 4    1  0.1343107E-008  0.2331703E+04  0.7816531E-02  0.8465525E-01
          1   -1    0    0  501    0  0.00000000000E+00  0.00000000000E+00  0.45520439302E+04  0.45520439302E+04  0.00000000000E+00 0.  1.
         -1   -1    0    0    0  501 -0.00000000000E+00 -0.00000000000E+00 -0.29859335564E+03  0.29859335564E+03  0.00000000000E+00 0. -1.
    2000013    1    1    2    0    0 -0.27038531538E+03  0.54289177593E+03  0.27468856635E+04  0.29691279103E+04  0.95000000000E+03 0.  0.
   -2000013    1    1    2    0    0  0.27038531538E+03 -0.54289177593E+03  0.15065649111E+04  0.18815093756E+04  0.95000000000E+03 0.  0.
<mgrwt>
<rscale>  0 0.23317033E+04</rscale>
<asrwt>0</asrwt>
<pdfrwt beam="1">  1        1 0.70031440E+00 0.23317033E+04</pdfrwt>
<pdfrwt beam="2">  1       -1 0.45937443E-01 0.23317033E+04</pdfrwt>
<totfact> 0.12178900E-01</totfact>
</mgrwt>
</event>
<event>
 4    1  0.1343107E-008  0.1998475E+04  0.7816531E-02  0.8607334E-01
         -1   -1    0    0    0  501 -0.00000000000E+00  0.00000000000E+00  0.60504992283E+03  0.60504992283E+03  0.00000000000E+00 0. -1.
          1   -1    0    0  501    0  0.00000000000E+00 -0.00000000000E+00 -0.16502371725E+04  0.16502371725E+04  0.00000000000E+00 0.  1.
    2000013    1    1    2    0    0  0.16528899199E+03 -0.25467813597E+03 -0.59210863943E+03  0.11598594935E+04  0.95000000000E+03 0.  0.
   -2000013    1    1    2    0    0 -0.16528899199E+03  0.25467813597E+03 -0.45307861027E+03  0.10954276019E+04  0.95000000000E+03 0.  0.
<mgrwt>
<rscale>  0 0.19984753E+04</rscale>
<asrwt>0</asrwt>
<pdfrwt beam="2">  1        1 0.25388264E+00 0.19984753E+04</pdfrwt>
<pdfrwt beam="1">  1       -1 0.93084603E-01 0.19984753E+04</pdfrwt>
<totfact> 0.53592557E+00</totfact>
</mgrwt>
</event>
<event>
 4    1  0.1343107E-008  0.2949508E+04  0.7816531E-02  0.8258298E-01
          2   -1    0    0  501    0  0.00000000000E+00  0.00000000000E+00  0.21523307188E+04  0.21523307188E+04  0.00000000000E+00 0.  1.
         -2   -1    0    0    0  501 -0.00000000000E+00 -0.00000000000E+00 -0.10104857660E+04  0.10104857660E+04  0.00000000000E+00 0. -1.
    2000013    1    1    2    0    0  0.93103418488E+02 -0.66729627957E+03  0.15410295518E+04  0.19316378157E+04  0.95000000000E+03 0.  0.
   -2000013    1    1    2    0    0 -0.93103418488E+02  0.66729627957E+03 -0.39918459904E+03  0.12311786692E+04  0.95000000000E+03 0.  0.
<mgrwt>
<rscale>  0 0.29495081E+04</rscale>
<asrwt>0</asrwt>
<pdfrwt beam="1">  1        2 0.33112780E+00 0.29495081E+04</pdfrwt>
<pdfrwt beam="2">  1       -2 0.15545935E+00 0.29495081E+04</pdfrwt>
<totfact> 0.12857711E+00</totfact>
</mgrwt>
</event>
<event>
 4    1  0.1343107E-008  0.3309998E+04  0.7816531E-02  0.8160356E-01
          2   -1    0    0  501    0  0.00000000000E+00  0.00000000000E+00  0.22701915448E+04  0.22701915448E+04  0.00000000000E+00 0.  1.
         -2   -1    0    0    0  501 -0.00000000000E+00 -0.00000000000E+00 -0.12065156476E+04  0.12065156476E+04  0.00000000000E+00 0. -1.
    2000013    1    1    2    0    0 -0.10420490234E+04  0.82920626848E+03  0.79562904530E+03  0.18190587623E+04  0.95000000000E+03 0.  0.
   -2000013    1    1    2    0    0  0.10420490234E+04 -0.82920626848E+03  0.26804685192E+03  0.16576484301E+04  0.95000000000E+03 0.  0.
<mgrwt>
<rscale>  0 0.33099980E+04</rscale>
<asrwt>0</asrwt>
<pdfrwt beam="1">  1        2 0.34926024E+00 0.33099980E+04</pdfrwt>
<pdfrwt beam="2">  1       -2 0.18561779E+00 0.33099980E+04</pdfrwt>
<totfact> 0.65271423E-01</totfact>
</mgrwt>
</event>
<event>
 4    1  0.1343107E-008  0.2422082E+04  0.7816531E-02  0.8431283E-01
          2   -1    0    0  501    0  0.00000000000E+00  0.00000000000E+00  0.26456598671E+04  0.26456598671E+04  0.00000000000E+00 0.  1.
         -2   -1    0    0    0  501 -0.00000000000E+00 -0.00000000000E+00 -0.55434937530E+03  0.55434937530E+03  0.00000000000E+00 0. -1.
    2000013    1    1    2    0    0  0.53241337847E+03  0.25578749068E+03  0.43272297085E+03  0.11994333727E+04  0.95000000000E+03 0.  0.
   -2000013    1    1    2    0    0 -0.53241337847E+03 -0.25578749068E+03  0.16585875210E+04  0.20005758698E+04  0.95000000000E+03 0.  0.
<mgrwt>
<rscale>  0 0.24220817E+04</rscale>
<asrwt>0</asrwt>
<pdfrwt beam="1">  1        2 0.40702459E+00 0.24220817E+04</pdfrwt>
<pdfrwt beam="2">  1       -2 0.85284521E-01 0.24220817E+04</pdfrwt>
<totfact> 0.30698960E+00</totfact>
</mgrwt>
</event>
<event>
 4    1  0.1343107E-008  0.2529061E+04  0.7816531E-02  0.8392705E-01
          2   -1    0    0  501    0  0.00000000000E+00  0.00000000000E+00  0.29264346744E+04  0.29264346744E+04  0.00000000000E+00 0.  1.
         -2   -1    0    0    0  501 -0.00000000000E+00 -0.00000000000E+00 -0.54641164676E+03  0.54641164676E+03  0.00000000000E+00 0. -1.
    2000013    1    1    2    0    0  0.64370604418E+03  0.53053604419E+03  0.12266530360E+04  0.17615344551E+04  0.95000000000E+03 0.  0.
   -2000013    1    1    2    0    0 -0.64370604418E+03 -0.53053604419E+03  0.11533699916E+04  0.17113118661E+04  0.95000000000E+03 0.  0.
<mgrwt>
<rscale>  0 0.25290615E+04</rscale>
<asrwt>0</asrwt>
<pdfrwt beam="1">  1        2 0.45022071E+00 0.25290615E+04</pdfrwt>
<pdfrwt beam="2">  1       -2 0.84063332E-01 0.25290615E+04</pdfrwt>
<totfact> 0.21274237E+00</totfact>
</mgrwt>
</event>
<event>
 4    1  0.1343107E-008  0.2332743E+04  0.7816531E-02  0.8465122E-01
          2   -1    0    0  501    0  0.00000000000E+00  0.00000000000E+00  0.83176448653E+03  0.83176448653E+03  0.00000000000E+00 0.  1.
         -2   -1    0    0    0  501 -0.00000000000E+00 -0.00000000000E+00 -0.16355867297E+04  0.16355867297E+04  0.00000000000E+00 0. -1.
    2000013    1    1    2    0    0  0.48873758961E+03 -0.30312106633E+03 -0.77910690461E+03  0.13565597595E+04  0.95000000000E+03 0.  0.
   -2000013    1    1    2    0    0 -0.48873758961E+03  0.30312106633E+03 -0.24715338563E+02  0.11107914567E+04  0.95000000000E+03 0.  0.
<mgrwt>
<rscale>  0 0.23327434E+04</rscale>
<asrwt>0</asrwt>
<pdfrwt beam="1">  1        2 0.12796377E+00 0.23327434E+04</pdfrwt>
<pdfrwt beam="2">  1       -2 0.25162873E+00 0.23327434E+04</pdfrwt>
<totfact> 0.18558180E+00</totfact>
</mgrwt>
</event>
<event>
 4    1  0.1343107E-008  0.2218805E+04  0.7816531E-02  0.8510642E-01
         -2   -1    0    0    0  501 -0.00000000000E+00  0.00000000000E+00  0.37472548750E+03  0.37472548750E+03  0.00000000000E+00 0. -1.
          2   -1    0    0  501    0  0.00000000000E+00 -0.00000000000E+00 -0.32844666285E+04  0.32844666285E+04  0.00000000000E+00 0.  1.
    2000013    1    1    2    0    0 -0.47940348688E+02  0.55956022443E+03 -0.16419440368E+04  0.19783544025E+04  0.95000000000E+03 0.  0.
   -2000013    1    1    2    0    0  0.47940348688E+02 -0.55956022443E+03 -0.12677971042E+04  0.16808377135E+04  0.95000000000E+03 0.  0.
<mgrwt>
<rscale>  0 0.22188045E+04</rscale>
<asrwt>0</asrwt>
<pdfrwt beam="2">  1        2 0.50530259E+00 0.22188045E+04</pdfrwt>
<pdfrwt beam="1">  1       -2 0.57650072E-01 0.22188045E+04</pdfrwt>
<totfact> 0.29398551E+00</totfact>
</mgrwt>
</event>
<event>
 4    1  0.1343107E-008  0.4156095E+04  0.7816531E-02  0.7973777E-01
          1   -1    0    0  501    0  0.00000000000E+00  0.00000000000E+00  0.40764429006E+04  0.40764429006E+04  0.00000000000E+00 0. -1.
         -1   -1    0    0    0  501 -0.00000000000E+00 -0.00000000000E+00 -0.10593258768E+04  0.10593258768E+04  0.00000000000E+00 0.  1.
    2000013    1    1    2    0    0  0.18159478306E+04 -0.14352193716E+02  0.19328783766E+04  0.28171601530E+04  0.95000000000E+03 0.  0.
   -2000013    1    1    2    0    0 -0.18159478306E+04  0.14352193716E+02  0.10842386472E+04  0.23186086243E+04  0.95000000000E+03 0.  0.
<mgrwt>
<rscale>  0 0.41560950E+04</rscale>
<asrwt>0</asrwt>
<pdfrwt beam="1">  1        1 0.62714505E+00 0.41560950E+04</pdfrwt>
<pdfrwt beam="2">  1       -1 0.16297321E+00 0.41560950E+04</pdfrwt>
<totfact> 0.17528494E-02</totfact>
</mgrwt>
</event>
<event>
 4    1  0.1343107E-008  0.2058712E+04  0.7816531E-02  0.8579652E-01
         -2   -1    0    0    0  501 -0.00000000000E+00  0.00000000000E+00  0.44929495421E+03  0.44929495421E+03  0.00000000000E+00 0. -1.
          2   -1    0    0  501    0  0.00000000000E+00 -0.00000000000E+00 -0.23583026189E+04  0.23583026189E+04  0.00000000000E+00 0.  1.
    2000013    1    1    2    0    0  0.32315095834E+03  0.11771639891E+03 -0.12230988511E+04  0.15864282184E+04  0.95000000000E+03 0.  0.
   -2000013    1    1    2    0    0 -0.32315095834E+03 -0.11771639891E+03 -0.68590881363E+03  0.12211693548E+04  0.95000000000E+03 0.  0.
<mgrwt>
<rscale>  0 0.20587117E+04</rscale>
<asrwt>0</asrwt>
<pdfrwt beam="2">  1        2 0.36281578E+00 0.20587117E+04</pdfrwt>
<pdfrwt beam="1">  1       -2 0.69122302E-01 0.20587117E+04</pdfrwt>
<totfact> 0.74219852E+00</totfact>
</mgrwt>
</event>
<event>
 4    1  0.1343107E-008  0.3456020E+04  0.7816531E-02  0.8124292E-01
         -2   -1    0    0    0  501 -0.00000000000E+00  0.00000000000E+00  0.12952498838E+04  0.12952498838E+04  0.00000000000E+00 0. -1.
          2   -1    0    0  501    0  0.00000000000E+00 -0.00000000000E+00 -0.23053609868E+04  0.23053609868E+04  0.00000000000E+00 0.  1.
    2000013    1    1    2    0    0  0.14021532859E+04 -0.13131341231E+03 -0.83491104538E+03  0.18928427043E+04  0.95000000000E+03 0.  0.
   -2000013    1    1    2    0    0 -0.14021532859E+04  0.13131341231E+03 -0.17520005765E+03  0.17077681663E+04  0.95000000000E+03 0.  0.
<mgrwt>
<rscale>  0 0.34560200E+04</rscale>
<asrwt>0</asrwt>
<pdfrwt beam="2">  1        2 0.35467092E+00 0.34560200E+04</pdfrwt>
<pdfrwt beam="1">  1       -2 0.19926921E+00 0.34560200E+04</pdfrwt>
<totfact> 0.49926241E-01</totfact>
</mgrwt>
</event>
<event>
 4    1  0.1343107E-008  0.2206184E+04  0.7816531E-02  0.8515859E-01
          2   -1    0    0  501    0  0.00000000000E+00  0.00000000000E+00  0.14488867070E+04  0.14488867070E+04  0.00000000000E+00 0.  1.
         -2   -1    0    0    0  501 -0.00000000000E+00 -0.00000000000E+00 -0.83982563879E+03  0.83982563879E+03  0.00000000000E+00 0. -1.
    2000013    1    1    2    0    0  0.54814776878E+03  0.98366854876E+02  0.23753785520E+03  0.11265284050E+04  0.95000000000E+03 0.  0.
   -2000013    1    1    2    0    0 -0.54814776878E+03 -0.98366854876E+02  0.37152321304E+03  0.11621839409E+04  0.95000000000E+03 0.  0.
<mgrwt>
<rscale>  0 0.22061842E+04</rscale>
<asrwt>0</asrwt>
<pdfrwt beam="1">  1        2 0.22290565E+00 0.22061842E+04</pdfrwt>
<pdfrwt beam="2">  1       -2 0.12920395E+00 0.22061842E+04</pdfrwt>
<totfact> 0.54695018E+00</totfact>
</mgrwt>
</event>
<event>
 4    1  0.1343107E-008  0.2609419E+04  0.7816531E-02  0.8365009E-01
          2   -1    0    0  501    0  0.00000000000E+00  0.00000000000E+00  0.19284269413E+04  0.19284269413E+04  0.00000000000E+00 0.  1.
         -2   -1    0    0    0  501 -0.00000000000E+00 -0.00000000000E+00 -0.88272275917E+03  0.88272275917E+03  0.00000000000E+00 0. -1.
    2000013    1    1    2    0    0  0.81167564384E+02 -0.84855098420E+03  0.81420269968E+03  0.15139527676E+04  0.95000000000E+03 0.  0.
   -2000013    1    1    2    0    0 -0.81167564384E+02  0.84855098420E+03  0.23150148245E+03  0.12971969329E+04  0.95000000000E+03 0.  0.
<mgrwt>
<rscale>  0 0.26094186E+04</rscale>
<asrwt>0</asrwt>
<pdfrwt beam="1">  1        2 0.29668107E+00 0.26094186E+04</pdfrwt>
<pdfrwt beam="2">  1       -2 0.13580350E+00 0.26094186E+04</pdfrwt>
<totfact> 0.25150153E+00</totfact>
</mgrwt>
</event>
<event>
 4    1  0.1343107E-008  0.2521941E+04  0.7816531E-02  0.8395210E-01
          2   -1    0    0  501    0  0.00000000000E+00  0.00000000000E+00  0.16180832058E+04  0.16180832058E+04  0.00000000000E+00 0.  1.
         -2   -1    0    0    0  501 -0.00000000000E+00 -0.00000000000E+00 -0.98267331417E+03  0.98267331417E+03  0.00000000000E+00 0. -1.
    2000013    1    1    2    0    0 -0.43863685077E+03 -0.68563027587E+03  0.48094276197E+03  0.13402600876E+04  0.95000000000E+03 0.  0.
   -2000013    1    1    2    0    0  0.43863685077E+03  0.68563027587E+03  0.15446712970E+03  0.12604964324E+04  0.95000000000E+03 0.  0.
<mgrwt>
<rscale>  0 0.25219415E+04</rscale>
<asrwt>0</asrwt>
<pdfrwt beam="1">  1        2 0.24893588E+00 0.25219415E+04</pdfrwt>
<pdfrwt beam="2">  1       -2 0.15118051E+00 0.25219415E+04</pdfrwt>
<totfact> 0.28467332E+00</totfact>
</mgrwt>
</event>
<event>
 4    1  0.1343107E-008  0.2994337E+04  0.7816531E-02  0.8245350E-01
          2   -1    0    0  501    0  0.00000000000E+00  0.00000000000E+00  0.17018814837E+04  0.17018814837E+04  0.00000000000E+00 0.  1.
         -2   -1    0    0    0  501 -0.00000000000E+00 -0.00000000000E+00 -0.13170795814E+04  0.13170795814E+04  0.00000000000E+00 0. -1.
    2000013    1    1    2    0    0 -0.81868119478E+03  0.77784725028E+03 -0.62119313416E+02  0.14770389475E+04  0.95000000000E+03 0.  0.
   -2000013    1    1    2    0    0  0.81868119478E+03 -0.77784725028E+03  0.44692121576E+03  0.15419221175E+04  0.95000000000E+03 0.  0.
<mgrwt>
<rscale>  0 0.29943369E+04</rscale>
<asrwt>0</asrwt>
<pdfrwt beam="1">  1        2 0.26182792E+00 0.29943369E+04</pdfrwt>
<pdfrwt beam="2">  1       -2 0.20262763E+00 0.29943369E+04</pdfrwt>
<totfact> 0.10711509E+00</totfact>
</mgrwt>
</event>
<event>
 4    1  0.1343107E-008  0.3864447E+04  0.7816531E-02  0.8032464E-01
          2   -1    0    0  501    0  0.00000000000E+00  0.00000000000E+00  0.29361772089E+04  0.29361772089E+04  0.00000000000E+00 0.  1.
         -2   -1    0    0    0  501 -0.00000000000E+00 -0.00000000000E+00 -0.12715470867E+04  0.12715470867E+04  0.00000000000E+00 0. -1.
    2000013    1    1    2    0    0  0.71094732807E+03 -0.11949250884E+04  0.18639462184E+04  0.25119887689E+04  0.95000000000E+03 0.  0.
   -2000013    1    1    2    0    0 -0.71094732807E+03  0.11949250884E+04 -0.19931609611E+03  0.16957355267E+04  0.95000000000E+03 0.  0.
<mgrwt>
<rscale>  0 0.38644470E+04</rscale>
<asrwt>0</asrwt>
<pdfrwt beam="1">  1        2 0.45171957E+00 0.38644470E+04</pdfrwt>
<pdfrwt beam="2">  1       -2 0.19562263E+00 0.38644470E+04</pdfrwt>
<totfact> 0.21625326E-01</totfact>
</mgrwt>
</event>
<event>
 4    1  0.1343107E-008  0.4676686E+04  0.7816531E-02  0.7880414E-01
          2   -1    0    0  501    0  0.00000000000E+00  0.00000000000E+00  0.41465072199E+04  0.41465072199E+04  0.00000000000E+00 0.  1.
         -2   -1    0    0    0  501 -0.00000000000E+00 -0.00000000000E+00 -0.13186635792E+04  0.13186635792E+04  0.00000000000E+00 0. -1.
    2000013    1    1    2    0    0 -0.20250964499E+04  0.24575788295E+03  0.21566356783E+04  0.31168878738E+04  0.95000000000E+03 0.  0.
   -2000013    1    1    2    0    0  0.20250964499E+04 -0.24575788295E+03  0.67120796237E+03  0.23482829253E+04  0.95000000000E+03 0.  0.
<mgrwt>
<rscale>  0 0.46766860E+04</rscale>
<asrwt>0</asrwt>
<pdfrwt beam="1">  1        2 0.63792418E+00 0.46766860E+04</pdfrwt>
<pdfrwt beam="2">  1       -2 0.20287132E+00 0.46766860E+04</pdfrwt>
<totfact> 0.24459849E-02</totfact>
</mgrwt>
</event>
<event>
 4    1  0.1343107E-008  0.2798722E+04  0.7816531E-02  0.8303665E-01
          2   -1    0    0  501    0  0.00000000000E+00  0.00000000000E+00  0.19160120846E+04  0.19160120846E+04  0.00000000000E+00 0.  1.
         -2   -1    0    0    0  501 -0.00000000000E+00 -0.00000000000E+00 -0.10220245984E+04  0.10220245984E+04  0.00000000000E+00 0. -1.
    2000013    1    1    2    0    0  0.10191978894E+04  0.52880381328E+02  0.32211513404E+03  0.14310202067E+04  0.95000000000E+03 0.  0.
   -2000013    1    1    2    0    0 -0.10191978894E+04 -0.52880381328E+02  0.57187235216E+03  0.15070164762E+04  0.95000000000E+03 0.  0.
<mgrwt>
<rscale>  0 0.27987222E+04</rscale>
<asrwt>0</asrwt>
<pdfrwt beam="1">  1        2 0.29477109E+00 0.27987222E+04</pdfrwt>
<pdfrwt beam="2">  1       -2 0.15723455E+00 0.27987222E+04</pdfrwt>
<totfact> 0.17101229E+00</totfact>
</mgrwt>
</event>
<event>
 4    1  0.1343107E-008  0.2772586E+04  0.7816531E-02  0.8311830E-01
          2   -1    0    0  501    0  0.00000000000E+00  0.00000000000E+00  0.17441607463E+04  0.17441607463E+04  0.00000000000E+00 0.  1.
         -2   -1    0    0    0  501 -0.00000000000E+00 -0.00000000000E+00 -0.11018526833E+04  0.11018526833E+04  0.00000000000E+00 0. -1.
    2000013    1    1    2    0    0 -0.93477711819E+03 -0.25094644413E+03  0.26272989554E+02  0.13564559147E+04  0.95000000000E+03 0.  0.
   -2000013    1    1    2    0    0  0.93477711819E+03  0.25094644413E+03  0.61603507340E+03  0.14895575149E+04  0.95000000000E+03 0.  0.
<mgrwt>
<rscale>  0 0.27725859E+04</rscale>
<asrwt>0</asrwt>
<pdfrwt beam="1">  1        2 0.26833242E+00 0.27725859E+04</pdfrwt>
<pdfrwt beam="2">  1       -2 0.16951580E+00 0.27725859E+04</pdfrwt>
<totfact> 0.17366299E+00</totfact>
</mgrwt>
</event>
<event>
 4    1  0.1343107E-008  0.4494834E+04  0.7816531E-02  0.7911542E-01
          2   -1    0    0  501    0  0.00000000000E+00  0.00000000000E+00  0.24584812744E+04  0.24584812744E+04  0.00000000000E+00 0.  1.
         -2   -1    0    0    0  501 -0.00000000000E+00 -0.00000000000E+00 -0.20544732955E+04  0.20544732955E+04  0.00000000000E+00 0. -1.
    2000013    1    1    2    0    0 -0.16803341706E+04  0.10569069965E+04  0.65970221891E+03  0.22974512708E+04  0.95000000000E+03 0.  0.
   -2000013    1    1    2    0    0  0.16803341706E+04 -0.10569069965E+04 -0.25569424003E+03  0.22155032991E+04  0.95000000000E+03 0.  0.
<mgrwt>
<rscale>  0 0.44948344E+04</rscale>
<asrwt>0</asrwt>
<pdfrwt beam="1">  1        2 0.37822788E+00 0.44948344E+04</pdfrwt>
<pdfrwt beam="2">  1       -2 0.31607282E+00 0.44948344E+04</pdfrwt>
<totfact> 0.70610727E-02</totfact>
</mgrwt>
</event>
<event>
 4    1  0.1343107E-008  0.3689621E+04  0.7816531E-02  0.8070266E-01
         -2   -1    0    0    0  501 -0.00000000000E+00  0.00000000000E+00  0.18650355747E+04  0.18650355747E+04  0.00000000000E+00 0. -1.
          2   -1    0    0  501    0  0.00000000000E+00 -0.00000000000E+00 -0.18248048703E+04  0.18248048703E+04  0.00000000000E+00 0.  1.
    2000013    1    1    2    0    0 -0.94919173919E+03 -0.10144144963E+04  0.77568939779E+03  0.18531583229E+04  0.95000000000E+03 0.  0.
   -2000013    1    1    2    0    0  0.94919173919E+03  0.10144144963E+04 -0.73545869333E+03  0.18366821221E+04  0.95000000000E+03 0.  0.
<mgrwt>
<rscale>  0 0.36896211E+04</rscale>
<asrwt>0</asrwt>
<pdfrwt beam="2">  1        2 0.28073921E+00 0.36896211E+04</pdfrwt>
<pdfrwt beam="1">  1       -2 0.28692855E+00 0.36896211E+04</pdfrwt>
<totfact> 0.25840403E-01</totfact>
</mgrwt>
</event>
<event>
 4    1  0.1343107E-008  0.3989385E+04  0.7816531E-02  0.8006691E-01
          2   -1    0    0  501    0  0.00000000000E+00  0.00000000000E+00  0.18780260730E+04  0.18780260730E+04  0.00000000000E+00 0.  1.
         -2   -1    0    0    0  501 -0.00000000000E+00 -0.00000000000E+00 -0.21186061016E+04  0.21186061016E+04  0.00000000000E+00 0. -1.
    2000013    1    1    2    0    0 -0.23550057227E+03 -0.15905584517E+04  0.58166886335E+03  0.19560611888E+04  0.95000000000E+03 0.  0.
   -2000013    1    1    2    0    0  0.23550057227E+03  0.15905584517E+04 -0.82224889193E+03  0.20405709858E+04  0.95000000000E+03 0.  0.
<mgrwt>
<rscale>  0 0.39893847E+04</rscale>
<asrwt>0</asrwt>
<pdfrwt beam="1">  1        2 0.28892709E+00 0.39893847E+04</pdfrwt>
<pdfrwt beam="2">  1       -2 0.32593940E+00 0.39893847E+04</pdfrwt>
<totfact> 0.13564285E-01</totfact>
</mgrwt>
</event>
<event>
 4    1  0.1343107E-008  0.2750121E+04  0.7816531E-02  0.8318923E-01
          2   -1    0    0  501    0  0.00000000000E+00  0.00000000000E+00  0.18888950906E+04  0.18888950906E+04  0.00000000000E+00 0.  1.
         -2   -1    0    0    0  501 -0.00000000000E+00 -0.00000000000E+00 -0.10010038944E+04  0.10010038944E+04  0.00000000000E+00 0. -1.
    2000013    1    1    2    0    0 -0.77581871755E+03 -0.56479947704E+03  0.71675230670E+03  0.15287664965E+04  0.95000000000E+03 0.  0.
   -2000013    1    1    2    0    0  0.77581871755E+03  0.56479947704E+03  0.17113888954E+03  0.13611324885E+04  0.95000000000E+03 0.  0.
<mgrwt>
<rscale>  0 0.27501210E+04</rscale>
<asrwt>0</asrwt>
<pdfrwt beam="1">  1        2 0.29059924E+00 0.27501210E+04</pdfrwt>
<pdfrwt beam="2">  1       -2 0.15400060E+00 0.27501210E+04</pdfrwt>
<totfact> 0.18798832E+00</totfact>
</mgrwt>
</event>
<event>
 4    1  0.1343107E-008  0.2984156E+04  0.7816531E-02  0.8248270E-01
          1   -1    0    0  501    0  0.00000000000E+00  0.00000000000E+00  0.22880733040E+04  0.22880733040E+04  0.00000000000E+00 0.  1.
         -1   -1    0    0    0  501 -0.00000000000E+00 -0.00000000000E+00 -0.97300082817E+03  0.97300082817E+03  0.00000000000E+00 0. -1.
    2000013    1    1    2    0    0  0.10911288224E+04 -0.21838797528E+03  0.97715208802E+03  0.17594265026E+04  0.95000000000E+03 0.  0.
   -2000013    1    1    2    0    0 -0.10911288224E+04  0.21838797528E+03  0.33792038776E+03  0.15016476295E+04  0.95000000000E+03 0.  0.
<mgrwt>
<rscale>  0 0.29841563E+04</rscale>
<asrwt>0</asrwt>
<pdfrwt beam="1">  1        1 0.35201128E+00 0.29841563E+04</pdfrwt>
<pdfrwt beam="2">  1       -1 0.14969244E+00 0.29841563E+04</pdfrwt>
<totfact> 0.56690721E-01</totfact>
</mgrwt>
</event>
<event>
 4    1  0.1343107E-008  0.2930221E+04  0.7816531E-02  0.8263942E-01
         -2   -1    0    0    0  501 -0.00000000000E+00  0.00000000000E+00  0.58894001549E+03  0.58894001549E+03  0.00000000000E+00 0.  1.
          2   -1    0    0  501    0  0.00000000000E+00 -0.00000000000E+00 -0.36447657014E+04  0.36447657014E+04  0.00000000000E+00 0. -1.
    2000013    1    1    2    0    0  0.46588506834E+03 -0.78580890762E+03 -0.24525031096E+04  0.27842083325E+04  0.95000000000E+03 0.  0.
   -2000013    1    1    2    0    0 -0.46588506834E+03  0.78580890762E+03 -0.60332257626E+03  0.14494973843E+04  0.95000000000E+03 0.  0.
<mgrwt>
<rscale>  0 0.29302207E+04</rscale>
<asrwt>0</asrwt>
<pdfrwt beam="2">  1        2 0.56073318E+00 0.29302207E+04</pdfrwt>
<pdfrwt beam="1">  1       -2 0.90606157E-01 0.29302207E+04</pdfrwt>
<totfact> 0.57372929E-01</totfact>
</mgrwt>
</event>
<event>
 4    1  0.1343107E-008  0.2668713E+04  0.7816531E-02  0.8345228E-01
         -2   -1    0    0    0  501 -0.00000000000E+00  0.00000000000E+00  0.73489967105E+03  0.73489967105E+03  0.00000000000E+00 0. -1.
          2   -1    0    0  501    0  0.00000000000E+00 -0.00000000000E+00 -0.24227904576E+04  0.24227904576E+04  0.00000000000E+00 0.  1.
    2000013    1    1    2    0    0 -0.65265170966E+02  0.28670003137E+03 -0.18966514875E+04  0.21415516141E+04  0.95000000000E+03 0.  0.
   -2000013    1    1    2    0    0  0.65265170966E+02 -0.28670003137E+03  0.20876070100E+03  0.10161385146E+04  0.95000000000E+03 0.  0.
<mgrwt>
<rscale>  0 0.26687135E+04</rscale>
<asrwt>0</asrwt>
<pdfrwt beam="2">  1        2 0.37273699E+00 0.26687135E+04</pdfrwt>
<pdfrwt beam="1">  1       -2 0.11306149E+00 0.26687135E+04</pdfrwt>
<totfact> 0.20849019E+00</totfact>
</mgrwt>
</event>
<event>
 4    1  0.1343107E-008  0.2775725E+04  0.7816531E-02  0.8310845E-01
         -2   -1    0    0    0  501 -0.00000000000E+00  0.00000000000E+00  0.99666565938E+03  0.99666565938E+03  0.00000000000E+00 0. -1.
          2   -1    0    0  501    0  0.00000000000E+00 -0.00000000000E+00 -0.19326060794E+04  0.19326060794E+04  0.00000000000E+00 0.  1.
    2000013    1    1    2    0    0 -0.18303905809E+03 -0.98910411219E+03 -0.35317864975E+03  0.14279584728E+04  0.95000000000E+03 0.  0.
   -2000013    1    1    2    0    0  0.18303905809E+03  0.98910411219E+03 -0.58276177026E+03  0.15013132659E+04  0.95000000000E+03 0.  0.
<mgrwt>
<rscale>  0 0.27757249E+04</rscale>
<asrwt>0</asrwt>
<pdfrwt beam="2">  1        2 0.29732401E+00 0.27757249E+04</pdfrwt>
<pdfrwt beam="1">  1       -2 0.15333318E+00 0.27757249E+04</pdfrwt>
<totfact> 0.17946680E+00</totfact>
</mgrwt>
</event>
<event>
 4    1  0.1343107E-008  0.3258177E+04  0.7816531E-02  0.8173619E-01
          2   -1    0    0  501    0  0.00000000000E+00  0.00000000000E+00  0.29035479372E+04  0.29035479372E+04  0.00000000000E+00 0.  1.
         -2   -1    0    0    0  501 -0.00000000000E+00 -0.00000000000E+00 -0.91403007187E+03  0.91403007187E+03  0.00000000000E+00 0. -1.
    2000013    1    1    2    0    0  0.30790311734E+03 -0.12172251014E+04  0.14848969322E+04  0.21642227650E+04  0.95000000000E+03 0.  0.
   -2000013    1    1    2    0    0 -0.30790311734E+03  0.12172251014E+04  0.50462093309E+03  0.16533552441E+04  0.95000000000E+03 0.  0.
<mgrwt>
<rscale>  0 0.32581775E+04</rscale>
<asrwt>0</asrwt>
<pdfrwt beam="1">  1        2 0.44669968E+00 0.32581775E+04</pdfrwt>
<pdfrwt beam="2">  1       -2 0.14062001E+00 0.32581775E+04</pdfrwt>
<totfact> 0.59444287E-01</totfact>
</mgrwt>
</event>
<event>
 4    1  0.1343107E-008  0.3207061E+04  0.7816531E-02  0.8186955E-01
         -2   -1    0    0    0  501 -0.00000000000E+00  0.00000000000E+00  0.14742513116E+04  0.14742513116E+04  0.00000000000E+00 0. -1.
          2   -1    0    0  501    0  0.00000000000E+00 -0.00000000000E+00 -0.17441459296E+04  0.17441459296E+04  0.00000000000E+00 0.  1.
    2000013    1    1    2    0    0  0.40947661305E+03  0.98390902544E+03 -0.86763868739E+03  0.16706420798E+04  0.95000000000E+03 0.  0.
   -2000013    1    1    2    0    0 -0.40947661305E+03 -0.98390902544E+03  0.59774406947E+03  0.15477551614E+04  0.95000000000E+03 0.  0.
<mgrwt>
<rscale>  0 0.32070606E+04</rscale>
<asrwt>0</asrwt>
<pdfrwt beam="2">  1        2 0.26833014E+00 0.32070606E+04</pdfrwt>
<pdfrwt beam="1">  1       -2 0.22680789E+00 0.32070606E+04</pdfrwt>
<totfact> 0.69834999E-01</totfact>
</mgrwt>
</event>
<event>
 4    1  0.1343107E-008  0.2023107E+04  0.7816531E-02  0.8595893E-01
         -2   -1    0    0    0  501 -0.00000000000E+00  0.00000000000E+00  0.21314362945E+04  0.21314362945E+04  0.00000000000E+00 0. -1.
          2   -1    0    0  501    0  0.00000000000E+00 -0.00000000000E+00 -0.48007071221E+03  0.48007071221E+03  0.00000000000E+00 0.  1.
    2000013    1    1    2    0    0  0.14565793418E+03  0.30490998986E+03  0.93018347833E+03  0.13718336776E+04  0.95000000000E+03 0.  0.
   -2000013    1    1    2    0    0 -0.14565793418E+03 -0.30490998986E+03  0.72118210392E+03  0.12396733290E+04  0.95000000000E+03 0.  0.
<mgrwt>
<rscale>  0 0.20231067E+04</rscale>
<asrwt>0</asrwt>
<pdfrwt beam="2">  1        2 0.73857034E-01 0.20231067E+04</pdfrwt>
<pdfrwt beam="1">  1       -2 0.32791327E+00 0.20231067E+04</pdfrwt>
<totfact> 0.12826141E+00</totfact>
</mgrwt>
</event>
<event>
 4    1  0.1343107E-008  0.2305136E+04  0.7816531E-02  0.8475899E-01
         -2   -1    0    0    0  501 -0.00000000000E+00  0.00000000000E+00  0.12219387860E+04  0.12219387860E+04  0.00000000000E+00 0. -1.
          2   -1    0    0  501    0  0.00000000000E+00 -0.00000000000E+00 -0.10871351551E+04  0.10871351551E+04  0.00000000000E+00 0.  1.
    2000013    1    1    2    0    0 -0.39699435133E+03 -0.44279524143E+03  0.33663688789E+03  0.11702549018E+04  0.95000000000E+03 0.  0.
   -2000013    1    1    2    0    0  0.39699435133E+03  0.44279524143E+03 -0.20183325703E+03  0.11388190394E+04  0.95000000000E+03 0.  0.
<mgrwt>
<rscale>  0 0.23051357E+04</rscale>
<asrwt>0</asrwt>
<pdfrwt beam="2">  1        2 0.16725156E+00 0.23051357E+04</pdfrwt>
<pdfrwt beam="1">  1       -2 0.18799058E+00 0.23051357E+04</pdfrwt>
<totfact> 0.32151781E+00</totfact>
</mgrwt>
</event>
<event>
 4    1  0.1343107E-008  0.2470925E+04  0.7816531E-02  0.8413417E-01
         -2   -1    0    0    0  501 -0.00000000000E+00  0.00000000000E+00  0.13997147778E+04  0.13997147778E+04  0.00000000000E+00 0. -1.
          2   -1    0    0  501    0  0.00000000000E+00 -0.00000000000E+00 -0.10904850657E+04  0.10904850657E+04  0.00000000000E+00 0.  1.
    2000013    1    1    2    0    0  0.21281886819E+03 -0.71256631519E+03  0.42282129681E+03  0.12784054417E+04  0.95000000000E+03 0.  0.
   -2000013    1    1    2    0    0 -0.21281886819E+03  0.71256631519E+03 -0.11359158467E+03  0.12117944018E+04  0.95000000000E+03 0.  0.
<mgrwt>
<rscale>  0 0.24709254E+04</rscale>
<asrwt>0</asrwt>
<pdfrwt beam="2">  1        2 0.16776693E+00 0.24709254E+04</pdfrwt>
<pdfrwt beam="1">  1       -2 0.21534073E+00 0.24709254E+04</pdfrwt>
<totfact> 0.20889348E+00</totfact>
</mgrwt>
</event>
<event>
 4    1  0.1343107E-008  0.2376945E+04  0.7816531E-02  0.8448186E-01
         -2   -1    0    0    0  501 -0.00000000000E+00  0.00000000000E+00  0.70501138070E+03  0.70501138070E+03  0.00000000000E+00 0. -1.
          2   -1    0    0  501    0  0.00000000000E+00 -0.00000000000E+00 -0.20034673259E+04  0.20034673259E+04  0.00000000000E+00 0.  1.
    2000013    1    1    2    0    0  0.33749647250E+02 -0.61762175135E+03 -0.24255759886E+03  0.11592798865E+04  0.95000000000E+03 0.  0.
   -2000013    1    1    2    0    0 -0.33749647250E+02  0.61762175135E+03 -0.10558983463E+04  0.15491988201E+04  0.95000000000E+03 0.  0.
<mgrwt>
<rscale>  0 0.23769453E+04</rscale>
<asrwt>0</asrwt>
<pdfrwt beam="2">  1        2 0.30822574E+00 0.23769453E+04</pdfrwt>
<pdfrwt beam="1">  1       -2 0.10846329E+00 0.23769453E+04</pdfrwt>
<totfact> 0.40734913E+00</totfact>
</mgrwt>
</event>
<event>
 4    1  0.1343107E-008  0.2096229E+04  0.7816531E-02  0.8562906E-01
         -2   -1    0    0    0  501 -0.00000000000E+00  0.00000000000E+00  0.83280901278E+03  0.83280901278E+03  0.00000000000E+00 0. -1.
          2   -1    0    0  501    0  0.00000000000E+00 -0.00000000000E+00 -0.13190829481E+04  0.13190829481E+04  0.00000000000E+00 0.  1.
    2000013    1    1    2    0    0 -0.77806889458E+02 -0.25720945302E+03 -0.60438115932E+03  0.11575781617E+04  0.95000000000E+03 0.  0.
   -2000013    1    1    2    0    0  0.77806889458E+02  0.25720945302E+03  0.11810722403E+03  0.99431379913E+03  0.95000000000E+03 0.  0.
<mgrwt>
<rscale>  0 0.20962292E+04</rscale>
<asrwt>0</asrwt>
<pdfrwt beam="2">  1        2 0.20293584E+00 0.20962292E+04</pdfrwt>
<pdfrwt beam="1">  1       -2 0.12812446E+00 0.20962292E+04</pdfrwt>
<totfact> 0.66938955E+00</totfact>
</mgrwt>
</event>
<event>
 4    1  0.1343107E-008  0.3557821E+04  0.7816531E-02  0.8100222E-01
          1   -1    0    0  501    0  0.00000000000E+00  0.00000000000E+00  0.37177202582E+04  0.37177202582E+04  0.00000000000E+00 0. -1.
         -1   -1    0    0    0  501 -0.00000000000E+00 -0.00000000000E+00 -0.85119956771E+03  0.85119956771E+03  0.00000000000E+00 0.  1.
    2000013    1    1    2    0    0 -0.72467181966E+03  0.12653654457E+04  0.19063637641E+04  0.25812829676E+04  0.95000000000E+03 0.  0.
   -2000013    1    1    2    0    0  0.72467181966E+03 -0.12653654457E+04  0.96015692633E+03  0.19876368583E+04  0.95000000000E+03 0.  0.
<mgrwt>
<rscale>  0 0.35578206E+04</rscale>
<asrwt>0</asrwt>
<pdfrwt beam="1">  1        1 0.57195696E+00 0.35578206E+04</pdfrwt>
<pdfrwt beam="2">  1       -1 0.13095378E+00 0.35578206E+04</pdfrwt>
<totfact> 0.67302067E-02</totfact>
</mgrwt>
</event>
<event>
 4    1  0.1343107E-008  0.2195215E+04  0.7816531E-02  0.8520422E-01
          2   -1    0    0  501    0  0.00000000000E+00  0.00000000000E+00  0.69460041054E+03  0.69460041054E+03  0.00000000000E+00 0.  1.
         -2   -1    0    0    0  501 -0.00000000000E+00 -0.00000000000E+00 -0.17344396752E+04  0.17344396752E+04  0.00000000000E+00 0. -1.
    2000013    1    1    2    0    0 -0.51286974692E+03 -0.10694761164E+03 -0.33552836070E+03  0.11355846291E+04  0.95000000000E+03 0.  0.
   -2000013    1    1    2    0    0  0.51286974692E+03  0.10694761164E+03 -0.70431090396E+03  0.12934554567E+04  0.95000000000E+03 0.  0.
<mgrwt>
<rscale>  0 0.21952153E+04</rscale>
<asrwt>0</asrwt>
<pdfrwt beam="1">  1        2 0.10686160E+00 0.21952153E+04</pdfrwt>
<pdfrwt beam="2">  1       -2 0.26683687E+00 0.21952153E+04</pdfrwt>
<totfact> 0.19172159E+00</totfact>
</mgrwt>
</event>
<event>
 4    1  0.1343107E-008  0.2528092E+04  0.7816531E-02  0.8393046E-01
         -2   -1    0    0    0  501 -0.00000000000E+00  0.00000000000E+00  0.93154986354E+03  0.93154986354E+03  0.00000000000E+00 0. -1.
          2   -1    0    0  501    0  0.00000000000E+00 -0.00000000000E+00 -0.17152189222E+04  0.17152189222E+04  0.00000000000E+00 0.  1.
    2000013    1    1    2    0    0 -0.23540985130E+03  0.69298729486E+03 -0.81017029611E+03  0.14472474210E+04  0.95000000000E+03 0.  0.
   -2000013    1    1    2    0    0  0.23540985130E+03 -0.69298729486E+03  0.26501237430E+02  0.11995213648E+04  0.95000000000E+03 0.  0.
<mgrwt>
<rscale>  0 0.25280917E+04</rscale>
<asrwt>0</asrwt>
<pdfrwt beam="2">  1        2 0.26387983E+00 0.25280917E+04</pdfrwt>
<pdfrwt beam="1">  1       -2 0.14331536E+00 0.25280917E+04</pdfrwt>
<totfact> 0.28919375E+00</totfact>
</mgrwt>
</event>
<event>
 4    1  0.1343107E-008  0.3862518E+04  0.7816531E-02  0.8032870E-01
         -2   -1    0    0    0  501 -0.00000000000E+00  0.00000000000E+00  0.17995542633E+04  0.17995542633E+04  0.00000000000E+00 0. -1.
          2   -1    0    0  501    0  0.00000000000E+00 -0.00000000000E+00 -0.20726027862E+04  0.20726027862E+04  0.00000000000E+00 0.  1.
    2000013    1    1    2    0    0  0.13017811211E+04 -0.58108685278E+03  0.75730898437E+03  0.18730490958E+04  0.95000000000E+03 0.  0.
   -2000013    1    1    2    0    0 -0.13017811211E+04  0.58108685278E+03 -0.10303575072E+04  0.19991079536E+04  0.95000000000E+03 0.  0.
<mgrwt>
<rscale>  0 0.38625179E+04</rscale>
<asrwt>0</asrwt>
<pdfrwt beam="2">  1        2 0.31886197E+00 0.38625179E+04</pdfrwt>
<pdfrwt beam="1">  1       -2 0.27685450E+00 0.38625179E+04</pdfrwt>
<totfact> 0.21372786E-01</totfact>
</mgrwt>
</event>
<event>
 4    1  0.1343107E-008  0.2394097E+04  0.7816531E-02  0.8441717E-01
          2   -1    0    0  501    0  0.00000000000E+00  0.00000000000E+00  0.28186320465E+04  0.28186320465E+04  0.00000000000E+00 0.  1.
         -2   -1    0    0    0  501 -0.00000000000E+00 -0.00000000000E+00 -0.50837627732E+03  0.50837627732E+03  0.00000000000E+00 0. -1.
    2000013    1    1    2    0    0  0.59003959234E+03 -0.39930130765E+03  0.13651357233E+04  0.18093324178E+04  0.95000000000E+03 0.  0.
   -2000013    1    1    2    0    0 -0.59003959234E+03  0.39930130765E+03  0.94512004587E+03  0.15176759061E+04  0.95000000000E+03 0.  0.
<mgrwt>
<rscale>  0 0.23940975E+04</rscale>
<asrwt>0</asrwt>
<pdfrwt beam="1">  1        2 0.43363569E+00 0.23940975E+04</pdfrwt>
<pdfrwt beam="2">  1       -2 0.78211737E-01 0.23940975E+04</pdfrwt>
<totfact> 0.29482917E+00</totfact>
</mgrwt>
</event>
<event>
 4    1  0.1343107E-008  0.2422413E+04  0.7816531E-02  0.8431160E-01
         -2   -1    0    0    0  501 -0.00000000000E+00  0.00000000000E+00  0.44987096760E+03  0.44987096760E+03  0.00000000000E+00 0. -1.
          2   -1    0    0  501    0  0.00000000000E+00 -0.00000000000E+00 -0.32609811670E+04  0.32609811670E+04  0.00000000000E+00 0.  1.
    2000013    1    1    2    0    0  0.54266832266E+03 -0.51804111403E+03 -0.13430428582E+04  0.18080706909E+04  0.95000000000E+03 0.  0.
   -2000013    1    1    2    0    0 -0.54266832266E+03  0.51804111403E+03 -0.14680673412E+04  0.19027814437E+04  0.95000000000E+03 0.  0.
<mgrwt>
<rscale>  0 0.24224126E+04</rscale>
<asrwt>0</asrwt>
<pdfrwt beam="2">  1        2 0.50168941E+00 0.24224126E+04</pdfrwt>
<pdfrwt beam="1">  1       -2 0.69210918E-01 0.24224126E+04</pdfrwt>
<totfact> 0.20243753E+00</totfact>
</mgrwt>
</event>
<event>
 4    1  0.1343107E-008  0.2794543E+04  0.7816531E-02  0.8304965E-01
         -2   -1    0    0    0  501 -0.00000000000E+00  0.00000000000E+00  0.97078834267E+03  0.97078834267E+03  0.00000000000E+00 0. -1.
          2   -1    0    0  501    0  0.00000000000E+00 -0.00000000000E+00 -0.20111151233E+04  0.20111151233E+04  0.00000000000E+00 0.  1.
    2000013    1    1    2    0    0 -0.99511782201E+03 -0.12968969384E+03 -0.74088505235E+03  0.15679571286E+04  0.95000000000E+03 0.  0.
   -2000013    1    1    2    0    0  0.99511782201E+03  0.12968969384E+03 -0.29944172832E+03  0.14139463374E+04  0.95000000000E+03 0.  0.
<mgrwt>
<rscale>  0 0.27945426E+04</rscale>
<asrwt>0</asrwt>
<pdfrwt beam="2">  1        2 0.30940233E+00 0.27945426E+04</pdfrwt>
<pdfrwt beam="1">  1       -2 0.14935205E+00 0.27945426E+04</pdfrwt>
<totfact> 0.17379641E+00</totfact>
</mgrwt>
</event>
<event>
 4    1  0.1343107E-008  0.3088198E+04  0.7816531E-02  0.8218984E-01
          2   -1    0    0  501    0  0.00000000000E+00  0.00000000000E+00  0.19799106857E+04  0.19799106857E+04  0.00000000000E+00 0.  1.
         -2   -1    0    0    0  501 -0.00000000000E+00 -0.00000000000E+00 -0.12042171588E+04  0.12042171588E+04  0.00000000000E+00 0. -1.
    2000013    1    1    2    0    0  0.93165458419E+03 -0.70935789234E+02  0.11922943346E+04  0.17880374523E+04  0.95000000000E+03 0.  0.
   -2000013    1    1    2    0    0 -0.93165458419E+03  0.70935789234E+02 -0.41660080773E+03  0.13960903923E+04  0.95000000000E+03 0.  0.
<mgrwt>
<rscale>  0 0.30881985E+04</rscale>
<asrwt>0</asrwt>
<pdfrwt beam="1">  1        2 0.30460164E+00 0.30881985E+04</pdfrwt>
<pdfrwt beam="2">  1       -2 0.18526418E+00 0.30881985E+04</pdfrwt>
<totfact> 0.97220946E-01</totfact>
</mgrwt>
</event>
<event>
 4    1  0.1343107E-008  0.2330017E+04  0.7816531E-02  0.8466179E-01
          2   -1    0    0  501    0  0.00000000000E+00  0.00000000000E+00  0.18366094134E+04  0.18366094134E+04  0.00000000000E+00 0.  1.
         -2   -1    0    0    0  501 -0.00000000000E+00 -0.00000000000E+00 -0.73899497966E+03  0.73899497966E+03  0.00000000000E+00 0. -1.
    2000013    1    1    2    0    0 -0.61445703406E+02 -0.66163213472E+03  0.42174624153E+03  0.12336541446E+04  0.95000000000E+03 0.  0.
   -2000013    1    1    2    0    0  0.61445703406E+02  0.66163213472E+03  0.67586819220E+03  0.13419502485E+04  0.95000000000E+03 0.  0.
<mgrwt>
<rscale>  0 0.23300173E+04</rscale>
<asrwt>0</asrwt>
<pdfrwt beam="1">  1        2 0.28255529E+00 0.23300173E+04</pdfrwt>
<pdfrwt beam="2">  1       -2 0.11369154E+00 0.23300173E+04</pdfrwt>
<totfact> 0.45157452E+00</totfact>
</mgrwt>
</event>
<event>
 4    1  0.1343107E-008  0.2594827E+04  0.7816531E-02  0.8369960E-01
          2   -1    0    0  501    0  0.00000000000E+00  0.00000000000E+00  0.51454186751E+03  0.51454186751E+03  0.00000000000E+00 0.  1.
         -2   -1    0    0    0  501 -0.00000000000E+00 -0.00000000000E+00 -0.32714191192E+04  0.32714191192E+04  0.00000000000E+00 0. -1.
    2000013    1    1    2    0    0  0.59861835754E+03  0.39039768797E+03 -0.21366179432E+04  0.24450747490E+04  0.95000000000E+03 0.  0.
   -2000013    1    1    2    0    0 -0.59861835754E+03 -0.39039768797E+03 -0.62025930843E+03  0.13408862377E+04  0.95000000000E+03 0.  0.
<mgrwt>
<rscale>  0 0.25948272E+04</rscale>
<asrwt>0</asrwt>
<pdfrwt beam="1">  1        2 0.79160289E-01 0.25948272E+04</pdfrwt>
<pdfrwt beam="2">  1       -2 0.50329524E+00 0.25948272E+04</pdfrwt>
<totfact> 0.82589811E-02</totfact>
</mgrwt>
</event>
<event>
 4    1  0.1343107E-008  0.2250802E+04  0.7816531E-02  0.8497576E-01
          2   -1    0    0  501    0  0.00000000000E+00  0.00000000000E+00  0.22511153171E+04  0.22511153171E+04  0.00000000000E+00 0.  1.
         -2   -1    0    0    0  501 -0.00000000000E+00 -0.00000000000E+00 -0.56262203979E+03  0.56262203979E+03  0.00000000000E+00 0. -1.
    2000013    1    1    2    0    0  0.35626397438E+03 -0.42387735926E+03  0.54466187557E+03  0.12270911106E+04  0.95000000000E+03 0.  0.
   -2000013    1    1    2    0    0 -0.35626397438E+03  0.42387735926E+03  0.11438314018E+04  0.15866462463E+04  0.95000000000E+03 0.  0.
<mgrwt>
<rscale>  0 0.22508017E+04</rscale>
<asrwt>0</asrwt>
<pdfrwt beam="1">  1        2 0.34632543E+00 0.22508017E+04</pdfrwt>
<pdfrwt beam="2">  1       -2 0.86557238E-01 0.22508017E+04</pdfrwt>
<totfact> 0.50838228E+00</totfact>
</mgrwt>
</event>
<event>
 4    1  0.1343107E-008  0.2583627E+04  0.7816531E-02  0.8373784E-01
          2   -1    0    0  501    0  0.00000000000E+00  0.00000000000E+00  0.10297689748E+04  0.10297689748E+04  0.00000000000E+00 0.  1.
         -2   -1    0    0    0  501 -0.00000000000E+00 -0.00000000000E+00 -0.16205403694E+04  0.16205403694E+04  0.00000000000E+00 0. -1.
    2000013    1    1    2    0    0 -0.75141110284E+03  0.42027861464E+03 -0.13309550685E+03  0.12889791206E+04  0.95000000000E+03 0.  0.
   -2000013    1    1    2    0    0  0.75141110284E+03 -0.42027861464E+03 -0.45767588775E+03  0.13613302236E+04  0.95000000000E+03 0.  0.
<mgrwt>
<rscale>  0 0.25836271E+04</rscale>
<asrwt>0</asrwt>
<pdfrwt beam="1">  1        2 0.15842600E+00 0.25836271E+04</pdfrwt>
<pdfrwt beam="2">  1       -2 0.24931390E+00 0.25836271E+04</pdfrwt>
<totfact> 0.13855404E+00</totfact>
</mgrwt>
</event>
<event>
 4    1  0.1343107E-008  0.3062005E+04  0.7816531E-02  0.8226243E-01
          2   -1    0    0  501    0  0.00000000000E+00  0.00000000000E+00  0.13010406565E+04  0.13010406565E+04  0.00000000000E+00 0.  1.
         -2   -1    0    0    0  501 -0.00000000000E+00 -0.00000000000E+00 -0.18016107208E+04  0.18016107208E+04  0.00000000000E+00 0. -1.
    2000013    1    1    2    0    0 -0.76135254690E+03  0.51228973970E+03 -0.10347520465E+04  0.16778886363E+04  0.95000000000E+03 0.  0.
   -2000013    1    1    2    0    0  0.76135254690E+03 -0.51228973970E+03  0.53418198223E+03  0.14247627410E+04  0.95000000000E+03 0.  0.
<mgrwt>
<rscale>  0 0.30620051E+04</rscale>
<asrwt>0</asrwt>
<pdfrwt beam="1">  1        2 0.20016010E+00 0.30620051E+04</pdfrwt>
<pdfrwt beam="2">  1       -2 0.27717088E+00 0.30620051E+04</pdfrwt>
<totfact> 0.61607006E-01</totfact>
</mgrwt>
</event>
<event>
 4    1  0.1343107E-008  0.2104912E+04  0.7816531E-02  0.8559083E-01
         -2   -1    0    0    0  501 -0.00000000000E+00  0.00000000000E+00  0.19108153643E+04  0.19108153643E+04  0.00000000000E+00 0. -1.
          2   -1    0    0  501    0  0.00000000000E+00 -0.00000000000E+00 -0.57968086679E+03  0.57968086679E+03  0.00000000000E+00 0.  1.
    2000013    1    1    2    0    0  0.20391807298E+03 -0.15258644113E+03  0.22238981388E+03  0.10083761361E+04  0.95000000000E+03 0.  0.
   -2000013    1    1    2    0    0 -0.20391807298E+03  0.15258644113E+03  0.11087446836E+04  0.14821200950E+04  0.95000000000E+03 0.  0.
<mgrwt>
<rscale>  0 0.21049115E+04</rscale>
<asrwt>0</asrwt>
<pdfrwt beam="2">  1        2 0.89181673E-01 0.21049115E+04</pdfrwt>
<pdfrwt beam="1">  1       -2 0.29397159E+00 0.21049115E+04</pdfrwt>
<totfact> 0.16489594E+00</totfact>
</mgrwt>
</event>
<event>
 4    1  0.1343107E-008  0.3553799E+04  0.7816531E-02  0.8101157E-01
         -2   -1    0    0    0  501 -0.00000000000E+00  0.00000000000E+00  0.12009073156E+04  0.12009073156E+04  0.00000000000E+00 0. -1.
          2   -1    0    0  501    0  0.00000000000E+00 -0.00000000000E+00 -0.26291557889E+04  0.26291557889E+04  0.00000000000E+00 0.  1.
    2000013    1    1    2    0    0  0.54011188449E+03 -0.11954621070E+04  0.73451941786E+02  0.16213407060E+04  0.95000000000E+03 0.  0.
   -2000013    1    1    2    0    0 -0.54011188449E+03  0.11954621070E+04 -0.15017004151E+04  0.22087223985E+04  0.95000000000E+03 0.  0.
<mgrwt>
<rscale>  0 0.35537993E+04</rscale>
<asrwt>0</asrwt>
<pdfrwt beam="2">  1        2 0.40448550E+00 0.35537993E+04</pdfrwt>
<pdfrwt beam="1">  1       -2 0.18475498E+00 0.35537993E+04</pdfrwt>
<totfact> 0.40244402E-01</totfact>
</mgrwt>
</event>
<event>
 4    1  0.1343107E-008  0.2357684E+04  0.7816531E-02  0.8455518E-01
         -2   -1    0    0    0  501 -0.00000000000E+00  0.00000000000E+00  0.79766297174E+03  0.79766297174E+03  0.00000000000E+00 0. -1.
          2   -1    0    0  501    0  0.00000000000E+00 -0.00000000000E+00 -0.17421744824E+04  0.17421744824E+04  0.00000000000E+00 0.  1.
    2000013    1    1    2    0    0  0.58849326547E+03  0.20845726265E+03 -0.13607251679E+03  0.11448993334E+04  0.95000000000E+03 0.  0.
   -2000013    1    1    2    0    0 -0.58849326547E+03 -0.20845726265E+03 -0.80843899392E+03  0.13949381208E+04  0.95000000000E+03 0.  0.
<mgrwt>
<rscale>  0 0.23576837E+04</rscale>
<asrwt>0</asrwt>
<pdfrwt beam="2">  1        2 0.26802684E+00 0.23576837E+04</pdfrwt>
<pdfrwt beam="1">  1       -2 0.12271738E+00 0.23576837E+04</pdfrwt>
<totfact> 0.42104620E+00</totfact>
</mgrwt>
</event>
<event>
 4    1  0.1343107E-008  0.2393488E+04  0.7816531E-02  0.8441946E-01
          2   -1    0    0  501    0  0.00000000000E+00  0.00000000000E+00  0.25577974897E+04  0.25577974897E+04  0.00000000000E+00 0.  1.
         -2   -1    0    0    0  501 -0.00000000000E+00 -0.00000000000E+00 -0.55993324004E+03  0.55993324004E+03  0.00000000000E+00 0. -1.
    2000013    1    1    2    0    0 -0.20856329065E+03 -0.69571377391E+03  0.93812012831E+03  0.15198966006E+04  0.95000000000E+03 0.  0.
   -2000013    1    1    2    0    0  0.20856329065E+03  0.69571377391E+03  0.10597441213E+04  0.15978341291E+04  0.95000000000E+03 0.  0.
<mgrwt>
<rscale>  0 0.23934877E+04</rscale>
<asrwt>0</asrwt>
<pdfrwt beam="1">  1        2 0.39350730E+00 0.23934877E+04</pdfrwt>
<pdfrwt beam="2">  1       -2 0.86143576E-01 0.23934877E+04</pdfrwt>
<totfact> 0.33871949E+00</totfact>
</mgrwt>
</event>
<event>
 4    1  0.1343107E-008  0.2034906E+04  0.7816531E-02  0.8590473E-01
          2   -1    0    0  501    0  0.00000000000E+00  0.00000000000E+00  0.13617770991E+04  0.13617770991E+04  0.00000000000E+00 0.  1.
         -2   -1    0    0    0  501 -0.00000000000E+00 -0.00000000000E+00 -0.76019061628E+03  0.76019061628E+03  0.00000000000E+00 0. -1.
    2000013    1    1    2    0    0  0.30572181981E+03 -0.18786911937E+03  0.36632736575E+03  0.10795630487E+04  0.95000000000E+03 0.  0.
   -2000013    1    1    2    0    0 -0.30572181981E+03  0.18786911937E+03  0.23525911712E+03  0.10424046668E+04  0.95000000000E+03 0.  0.
<mgrwt>
<rscale>  0 0.20349056E+04</rscale>
<asrwt>0</asrwt>
<pdfrwt beam="1">  1        2 0.20950417E+00 0.20349056E+04</pdfrwt>
<pdfrwt beam="2">  1       -2 0.11695240E+00 0.20349056E+04</pdfrwt>
<totfact> 0.79809063E+00</totfact>
</mgrwt>
</event>
<event>
 4    1  0.1343107E-008  0.2561364E+04  0.7816531E-02  0.8381444E-01
          3   -1    0    0  501    0  0.00000000000E+00  0.00000000000E+00  0.75594929848E+03  0.75594929848E+03  0.00000000000E+00 0.  1.
         -3   -1    0    0    0  501 -0.00000000000E+00 -0.00000000000E+00 -0.21696520368E+04  0.21696520368E+04  0.00000000000E+00 0. -1.
    2000013    1    1    2    0    0 -0.58354472175E+03 -0.53396042761E+03 -0.32458177472E+03  0.12780811825E+04  0.95000000000E+03 0.  0.
   -2000013    1    1    2    0    0  0.58354472175E+03  0.53396042761E+03 -0.10891209636E+04  0.16475201528E+04  0.95000000000E+03 0.  0.
<mgrwt>
<rscale>  0 0.25613644E+04</rscale>
<asrwt>0</asrwt>
<pdfrwt beam="1">  1        3 0.11629989E+00 0.25613644E+04</pdfrwt>
<pdfrwt beam="2">  1       -3 0.33379262E+00 0.25613644E+04</pdfrwt>
<totfact> 0.34767398E-02</totfact>
</mgrwt>
</event>
<event>
 4    1  0.1343107E-008  0.3034902E+04  0.7816531E-02  0.8233834E-01
          2   -1    0    0  501    0  0.00000000000E+00  0.00000000000E+00  0.20280976427E+04  0.20280976427E+04  0.00000000000E+00 0.  1.
         -2   -1    0    0    0  501 -0.00000000000E+00 -0.00000000000E+00 -0.11353781823E+04  0.11353781823E+04  0.00000000000E+00 0. -1.
    2000013    1    1    2    0    0  0.15707848328E+03 -0.11723661936E+04  0.41271744071E+03  0.15722442011E+04  0.95000000000E+03 0.  0.
   -2000013    1    1    2    0    0 -0.15707848328E+03  0.11723661936E+04  0.48000201968E+03  0.15912316239E+04  0.95000000000E+03 0.  0.
<mgrwt>
<rscale>  0 0.30349022E+04</rscale>
<asrwt>0</asrwt>
<pdfrwt beam="1">  1        2 0.31201502E+00 0.30349022E+04</pdfrwt>
<pdfrwt beam="2">  1       -2 0.17467357E+00 0.30349022E+04</pdfrwt>
<totfact> 0.10866463E+00</totfact>
</mgrwt>
</event>
<event>
 4    1  0.1343107E-008  0.2398052E+04  0.7816531E-02  0.8440233E-01
         -2   -1    0    0    0  501 -0.00000000000E+00  0.00000000000E+00  0.98267435848E+03  0.98267435848E+03  0.00000000000E+00 0.  1.
          2   -1    0    0  501    0  0.00000000000E+00 -0.00000000000E+00 -0.14630103579E+04  0.14630103579E+04  0.00000000000E+00 0. -1.
    2000013    1    1    2    0    0  0.99076540431E+02  0.66823096736E+03  0.46146660945E+02  0.11666097466E+04  0.95000000000E+03 0.  0.
   -2000013    1    1    2    0    0 -0.99076540431E+02 -0.66823096736E+03 -0.52648266036E+03  0.12790749698E+04  0.95000000000E+03 0.  0.
<mgrwt>
<rscale>  0 0.23980515E+04</rscale>
<asrwt>0</asrwt>
<pdfrwt beam="2">  1        2 0.22507851E+00 0.23980515E+04</pdfrwt>
<pdfrwt beam="1">  1       -2 0.15118067E+00 0.23980515E+04</pdfrwt>
<totfact> 0.35162636E+00</totfact>
</mgrwt>
</event>
<event>
 4    1  0.1343107E-008  0.2479062E+04  0.7816531E-02  0.8410483E-01
         -2   -1    0    0    0  501 -0.00000000000E+00  0.00000000000E+00  0.65477019122E+03  0.65477019122E+03  0.00000000000E+00 0. -1.
          2   -1    0    0  501    0  0.00000000000E+00 -0.00000000000E+00 -0.23465281792E+04  0.23465281792E+04  0.00000000000E+00 0.  1.
    2000013    1    1    2    0    0  0.76253200215E+03 -0.18287690342E+02 -0.56941576151E+03  0.13448136686E+04  0.95000000000E+03 0.  0.
   -2000013    1    1    2    0    0 -0.76253200215E+03  0.18287690342E+02 -0.11223422265E+04  0.16564847018E+04  0.95000000000E+03 0.  0.
<mgrwt>
<rscale>  0 0.24790617E+04</rscale>
<asrwt>0</asrwt>
<pdfrwt beam="2">  1        2 0.36100433E+00 0.24790617E+04</pdfrwt>
<pdfrwt beam="1">  1       -2 0.10073388E+00 0.24790617E+04</pdfrwt>
<totfact> 0.30930422E+00</totfact>
</mgrwt>
</event>
<event>
 4    1  0.1343107E-008  0.2315596E+04  0.7816531E-02  0.8471797E-01
          1   -1    0    0  501    0  0.00000000000E+00  0.00000000000E+00  0.18944502854E+04  0.18944502854E+04  0.00000000000E+00 0.  1.
         -1   -1    0    0    0  501 -0.00000000000E+00 -0.00000000000E+00 -0.70759092912E+03  0.70759092912E+03  0.00000000000E+00 0. -1.
    2000013    1    1    2    0    0 -0.32627148279E+03  0.30966123271E+03  0.11389207295E+04  0.15498334064E+04  0.95000000000E+03 0.  0.
   -2000013    1    1    2    0    0  0.32627148279E+03 -0.30966123271E+03  0.47938626774E+02  0.10522078081E+04  0.95000000000E+03 0.  0.
<mgrwt>
<rscale>  0 0.23155957E+04</rscale>
<asrwt>0</asrwt>
<pdfrwt beam="1">  1        1 0.29145389E+00 0.23155957E+04</pdfrwt>
<pdfrwt beam="2">  1       -1 0.10886014E+00 0.23155957E+04</pdfrwt>
<totfact> 0.24810842E+00</totfact>
</mgrwt>
</event>
<event>
 4    1  0.1343107E-008  0.2350345E+04  0.7816531E-02  0.8458331E-01
         -2   -1    0    0    0  501 -0.00000000000E+00  0.00000000000E+00  0.13457373671E+04  0.13457373671E+04  0.00000000000E+00 0. -1.
          2   -1    0    0  501    0  0.00000000000E+00 -0.00000000000E+00 -0.10262260483E+04  0.10262260483E+04  0.00000000000E+00 0.  1.
    2000013    1    1    2    0    0 -0.11301305492E+02  0.46070515933E+03 -0.36089045864E+03  0.11158489533E+04  0.95000000000E+03 0.  0.
   -2000013    1    1    2    0    0  0.11301305492E+02 -0.46070515933E+03  0.68040177736E+03  0.12561144621E+04  0.95000000000E+03 0.  0.
<mgrwt>
<rscale>  0 0.23503453E+04</rscale>
<asrwt>0</asrwt>
<pdfrwt beam="2">  1        2 0.15788093E+00 0.23503453E+04</pdfrwt>
<pdfrwt beam="1">  1       -2 0.20703652E+00 0.23503453E+04</pdfrwt>
<totfact> 0.26178082E+00</totfact>
</mgrwt>
</event>
<event>
 4    1  0.1343107E-008  0.3412013E+04  0.7816531E-02  0.8134964E-01
         -1   -1    0    0    0  501 -0.00000000000E+00  0.00000000000E+00  0.17452313003E+04  0.17452313003E+04  0.00000000000E+00 0. -1.
          1   -1    0    0  501    0  0.00000000000E+00 -0.00000000000E+00 -0.16676632939E+04  0.16676632939E+04  0.00000000000E+00 0.  1.
    2000013    1    1    2    0    0  0.85940027366E+03  0.44703308544E+03  0.10732420932E+04  0.17299583812E+04  0.95000000000E+03 0.  0.
   -2000013    1    1    2    0    0 -0.85940027366E+03 -0.44703308544E+03 -0.99567408682E+03  0.16829362130E+04  0.95000000000E+03 0.  0.
<mgrwt>
<rscale>  0 0.34120130E+04</rscale>
<asrwt>0</asrwt>
<pdfrwt beam="2">  1        1 0.25656358E+00 0.34120130E+04</pdfrwt>
<pdfrwt beam="1">  1       -1 0.26849712E+00 0.34120130E+04</pdfrwt>
<totfact> 0.21778699E-01</totfact>
</mgrwt>
</event>
<event>
 4    1  0.1343107E-008  0.4221796E+04  0.7816531E-02  0.7961239E-01
         -1   -1    0    0    0  501 -0.00000000000E+00  0.00000000000E+00  0.19272730281E+04  0.19272730281E+04  0.00000000000E+00 0. -1.
          1   -1    0    0  501    0  0.00000000000E+00 -0.00000000000E+00 -0.23120180407E+04  0.23120180407E+04  0.00000000000E+00 0.  1.
    2000013    1    1    2    0    0 -0.31947264369E+03 -0.68822966803E+03  0.15403702237E+04  0.19623871361E+04  0.95000000000E+03 0.  0.
   -2000013    1    1    2    0    0  0.31947264369E+03  0.68822966803E+03 -0.19251152363E+04  0.22769039327E+04  0.95000000000E+03 0.  0.
<mgrwt>
<rscale>  0 0.42217958E+04</rscale>
<asrwt>0</asrwt>
<pdfrwt beam="2">  1        1 0.35569508E+00 0.42217958E+04</pdfrwt>
<pdfrwt beam="1">  1       -1 0.29650355E+00 0.42217958E+04</pdfrwt>
<totfact> 0.48841083E-02</totfact>
</mgrwt>
</event>
<event>
 4    1  0.1343107E-008  0.2684233E+04  0.7816531E-02  0.8340139E-01
         -2   -1    0    0    0  501 -0.00000000000E+00  0.00000000000E+00  0.10267716124E+04  0.10267716124E+04  0.00000000000E+00 0. -1.
          2   -1    0    0  501    0  0.00000000000E+00 -0.00000000000E+00 -0.17543108272E+04  0.17543108272E+04  0.00000000000E+00 0.  1.
    2000013    1    1    2    0    0 -0.18627983701E+03  0.89202906098E+03 -0.92877476054E+02  0.13196750543E+04  0.95000000000E+03 0.  0.
   -2000013    1    1    2    0    0  0.18627983701E+03 -0.89202906098E+03 -0.63466173880E+03  0.14614073854E+04  0.95000000000E+03 0.  0.
<mgrwt>
<rscale>  0 0.26842329E+04</rscale>
<asrwt>0</asrwt>
<pdfrwt beam="2">  1        2 0.26989397E+00 0.26842329E+04</pdfrwt>
<pdfrwt beam="1">  1       -2 0.15796487E+00 0.26842329E+04</pdfrwt>
<totfact> 0.20962062E+00</totfact>
</mgrwt>
</event>
<event>
 4    1  0.1343107E-008  0.2729354E+04  0.7816531E-02  0.8325543E-01
         -2   -1    0    0    0  501 -0.00000000000E+00  0.00000000000E+00  0.55201806371E+03  0.55201806371E+03  0.00000000000E+00 0. -1.
          2   -1    0    0  501    0  0.00000000000E+00 -0.00000000000E+00 -0.33737006089E+04  0.33737006089E+04  0.00000000000E+00 0.  1.
    2000013    1    1    2    0    0  0.45542103183E+03 -0.86271906902E+03 -0.15406994258E+04  0.20561972738E+04  0.95000000000E+03 0.  0.
   -2000013    1    1    2    0    0 -0.45542103183E+03  0.86271906902E+03 -0.12809831194E+04  0.18695213988E+04  0.95000000000E+03 0.  0.
<mgrwt>
<rscale>  0 0.27293543E+04</rscale>
<asrwt>0</asrwt>
<pdfrwt beam="2">  1        2 0.51903087E+00 0.27293543E+04</pdfrwt>
<pdfrwt beam="1">  1       -2 0.84925854E-01 0.27293543E+04</pdfrwt>
<totfact> 0.10497562E+00</totfact>
</mgrwt>
</event>
<event>
 4    1  0.1343107E-008  0.2886557E+04  0.7816531E-02  0.8276889E-01
         -2   -1    0    0    0  501 -0.00000000000E+00  0.00000000000E+00  0.13078763434E+04  0.13078763434E+04  0.00000000000E+00 0. -1.
          2   -1    0    0  501    0  0.00000000000E+00 -0.00000000000E+00 -0.15926982750E+04  0.15926982750E+04  0.00000000000E+00 0.  1.
    2000013    1    1    2    0    0 -0.67609080373E+03  0.57463568355E+03 -0.77255076246E+03  0.15121638880E+04  0.95000000000E+03 0.  0.
   -2000013    1    1    2    0    0  0.67609080373E+03 -0.57463568355E+03  0.48772883092E+03  0.13884107304E+04  0.95000000000E+03 0.  0.
<mgrwt>
<rscale>  0 0.28865567E+04</rscale>
<asrwt>0</asrwt>
<pdfrwt beam="2">  1        2 0.24503050E+00 0.28865567E+04</pdfrwt>
<pdfrwt beam="1">  1       -2 0.20121174E+00 0.28865567E+04</pdfrwt>
<totfact> 0.12703023E+00</totfact>
</mgrwt>
</event>
<event>
 4    1  0.1343107E-008  0.2869581E+04  0.7816531E-02  0.8281986E-01
         -2   -1    0    0    0  501 -0.00000000000E+00  0.00000000000E+00  0.11319312098E+04  0.11319312098E+04  0.00000000000E+00 0. -1.
          2   -1    0    0  501    0  0.00000000000E+00 -0.00000000000E+00 -0.18186826574E+04  0.18186826574E+04  0.00000000000E+00 0.  1.
    2000013    1    1    2    0    0 -0.64875318917E+03 -0.44291717143E+03 -0.10983208983E+04  0.16510194174E+04  0.95000000000E+03 0.  0.
   -2000013    1    1    2    0    0  0.64875318917E+03  0.44291717143E+03  0.41156945066E+03  0.12995944498E+04  0.95000000000E+03 0.  0.
<mgrwt>
<rscale>  0 0.28695809E+04</rscale>
<asrwt>0</asrwt>
<pdfrwt beam="2">  1        2 0.27979733E+00 0.28695809E+04</pdfrwt>
<pdfrwt beam="1">  1       -2 0.17414326E+00 0.28695809E+04</pdfrwt>
<totfact> 0.14524632E+00</totfact>
</mgrwt>
</event>
<event>
 4    1  0.1343107E-008  0.2279921E+04  0.7816531E-02  0.8485880E-01
          2   -1    0    0  501    0  0.00000000000E+00  0.00000000000E+00  0.99423504908E+03  0.99423504908E+03  0.00000000000E+00 0.  1.
         -2   -1    0    0    0  501 -0.00000000000E+00 -0.00000000000E+00 -0.13070450216E+04  0.13070450216E+04  0.00000000000E+00 0. -1.
    2000013    1    1    2    0    0 -0.49653952296E+03  0.31216010518E+03  0.76000930240E+02  0.11190494049E+04  0.95000000000E+03 0.  0.
   -2000013    1    1    2    0    0  0.49653952296E+03 -0.31216010518E+03 -0.38881090276E+03  0.11822306658E+04  0.95000000000E+03 0.  0.
<mgrwt>
<rscale>  0 0.22799210E+04</rscale>
<asrwt>0</asrwt>
<pdfrwt beam="1">  1        2 0.15295924E+00 0.22799210E+04</pdfrwt>
<pdfrwt beam="2">  1       -2 0.20108385E+00 0.22799210E+04</pdfrwt>
<totfact> 0.30177642E+00</totfact>
</mgrwt>
</event>
<event>
 4    1  0.1343107E-008  0.2164233E+04  0.7816531E-02  0.8533464E-01
          2   -1    0    0  501    0  0.00000000000E+00  0.00000000000E+00  0.13734753134E+04  0.13734753134E+04  0.00000000000E+00 0.  1.
         -2   -1    0    0    0  501 -0.00000000000E+00 -0.00000000000E+00 -0.85256408279E+03  0.85256408279E+03  0.00000000000E+00 0. -1.
    2000013    1    1    2    0    0  0.44275136089E+03 -0.99162513691E+02  0.30821561103E+01  0.10527922261E+04  0.95000000000E+03 0.  0.
   -2000013    1    1    2    0    0 -0.44275136089E+03  0.99162513691E+02  0.51782907451E+03  0.11732471701E+04  0.95000000000E+03 0.  0.
<mgrwt>
<rscale>  0 0.21642326E+04</rscale>
<asrwt>0</asrwt>
<pdfrwt beam="1">  1        2 0.21130389E+00 0.21642326E+04</pdfrwt>
<pdfrwt beam="2">  1       -2 0.13116370E+00 0.21642326E+04</pdfrwt>
<totfact> 0.58345883E+00</totfact>
</mgrwt>
</event>
<event>
 4    1  0.1343107E-008  0.3178642E+04  0.7816531E-02  0.8194481E-01
         -2   -1    0    0    0  501 -0.00000000000E+00  0.00000000000E+00  0.11662481904E+04  0.11662481904E+04  0.00000000000E+00 0. -1.
          2   -1    0    0  501    0  0.00000000000E+00 -0.00000000000E+00 -0.21658696049E+04  0.21658696049E+04  0.00000000000E+00 0.  1.
    2000013    1    1    2    0    0  0.41971365232E+03 -0.65374454137E+03 -0.15584731548E+04  0.19836532080E+04  0.95000000000E+03 0.  0.
   -2000013    1    1    2    0    0 -0.41971365232E+03  0.65374454137E+03  0.55885174041E+03  0.13484645873E+04  0.95000000000E+03 0.  0.
<mgrwt>
<rscale>  0 0.31786422E+04</rscale>
<asrwt>0</asrwt>
<pdfrwt beam="2">  1        2 0.33321071E+00 0.31786422E+04</pdfrwt>
<pdfrwt beam="1">  1       -2 0.17942280E+00 0.31786422E+04</pdfrwt>
<totfact> 0.83317376E-01</totfact>
</mgrwt>
</event>
<event>
 4    1  0.1343107E-008  0.2367155E+04  0.7816531E-02  0.8451904E-01
         -1   -1    0    0    0  501 -0.00000000000E+00  0.00000000000E+00  0.13541344343E+04  0.13541344343E+04  0.00000000000E+00 0.  1.
          1   -1    0    0  501    0  0.00000000000E+00 -0.00000000000E+00 -0.10345025154E+04  0.10345025154E+04  0.00000000000E+00 0. -1.
    2000013    1    1    2    0    0 -0.98649884642E+01  0.70377070980E+03  0.10487046759E+03  0.11869660252E+04  0.95000000000E+03 0.  0.
   -2000013    1    1    2    0    0  0.98649884642E+01 -0.70377070980E+03  0.21476145126E+03  0.12016709246E+04  0.95000000000E+03 0.  0.
<mgrwt>
<rscale>  0 0.23671548E+04</rscale>
<asrwt>0</asrwt>
<pdfrwt beam="2">  1        1 0.15915423E+00 0.23671548E+04</pdfrwt>
<pdfrwt beam="1">  1       -1 0.20832838E+00 0.23671548E+04</pdfrwt>
<totfact> 0.16869302E+00</totfact>
</mgrwt>
</event>
<event>
 4    1  0.1343107E-008  0.2359249E+04  0.7816531E-02  0.8454920E-01
          2   -1    0    0  501    0  0.00000000000E+00  0.00000000000E+00  0.24929723386E+04  0.24929723386E+04  0.00000000000E+00 0.  1.
         -2   -1    0    0    0  501 -0.00000000000E+00 -0.00000000000E+00 -0.55817470518E+03  0.55817470518E+03  0.00000000000E+00 0. -1.
    2000013    1    1    2    0    0  0.55769226368E+03  0.29811782926E+03  0.58132088854E+03  0.12807532458E+04  0.95000000000E+03 0.  0.
   -2000013    1    1    2    0    0 -0.55769226368E+03 -0.29811782926E+03  0.13534767448E+04  0.17703937980E+04  0.95000000000E+03 0.  0.
<mgrwt>
<rscale>  0 0.23592491E+04</rscale>
<asrwt>0</asrwt>
<pdfrwt beam="1">  1        2 0.38353420E+00 0.23592491E+04</pdfrwt>
<pdfrwt beam="2">  1       -2 0.85873033E-01 0.23592491E+04</pdfrwt>
<totfact> 0.37316794E+00</totfact>
</mgrwt>
</event>
<event>
 4    1  0.1343107E-008  0.2385558E+04  0.7816531E-02  0.8444930E-01
         -2   -1    0    0    0  501 -0.00000000000E+00  0.00000000000E+00  0.74412878519E+03  0.74412878519E+03  0.00000000000E+00 0. -1.
          2   -1    0    0  501    0  0.00000000000E+00 -0.00000000000E+00 -0.19119294393E+04  0.19119294393E+04  0.00000000000E+00 0.  1.
    2000013    1    1    2    0    0  0.18533750403E+03  0.12325742230E+03  0.17995336963E+03  0.99218224021E+03  0.95000000000E+03 0.  0.
   -2000013    1    1    2    0    0 -0.18533750403E+03 -0.12325742230E+03 -0.13477540238E+04  0.16638759843E+04  0.95000000000E+03 0.  0.
<mgrwt>
<rscale>  0 0.23855580E+04</rscale>
<asrwt>0</asrwt>
<pdfrwt beam="2">  1        2 0.29414299E+00 0.23855580E+04</pdfrwt>
<pdfrwt beam="1">  1       -2 0.11448135E+00 0.23855580E+04</pdfrwt>
<totfact> 0.40141777E+00</totfact>
</mgrwt>
</event>
<event>
 4    1  0.1343107E-008  0.2259775E+04  0.7816531E-02  0.8493952E-01
          2   -1    0    0  501    0  0.00000000000E+00  0.00000000000E+00  0.28401640002E+04  0.28401640002E+04  0.00000000000E+00 0.  1.
         -2   -1    0    0    0  501 -0.00000000000E+00 -0.00000000000E+00 -0.44949739654E+03  0.44949739654E+03  0.00000000000E+00 0. -1.
    2000013    1    1    2    0    0  0.32033454460E+03 -0.51786565452E+03  0.11111102263E+04  0.15836240058E+04  0.95000000000E+03 0.  0.
   -2000013    1    1    2    0    0 -0.32033454460E+03  0.51786565452E+03  0.12795563773E+04  0.17060373910E+04  0.95000000000E+03 0.  0.
<mgrwt>
<rscale>  0 0.22597755E+04</rscale>
<asrwt>0</asrwt>
<pdfrwt beam="1">  1        2 0.43694830E+00 0.22597755E+04</pdfrwt>
<pdfrwt beam="2">  1       -2 0.69153447E-01 0.22597755E+04</pdfrwt>
<totfact> 0.37979405E+00</totfact>
</mgrwt>
</event>
<event>
 4    1  0.1343107E-008  0.3583747E+04  0.7816531E-02  0.8094225E-01
          2   -1    0    0  501    0  0.00000000000E+00  0.00000000000E+00  0.27402226128E+04  0.27402226128E+04  0.00000000000E+00 0.  1.
         -2   -1    0    0    0  501 -0.00000000000E+00 -0.00000000000E+00 -0.11717333639E+04  0.11717333639E+04  0.00000000000E+00 0. -1.
    2000013    1    1    2    0    0  0.13888774257E+04  0.27956086479E+03  0.18518996974E+03  0.17157884793E+04  0.95000000000E+03 0.  0.
   -2000013    1    1    2    0    0 -0.13888774257E+04 -0.27956086479E+03  0.13832992792E+04  0.21961674974E+04  0.95000000000E+03 0.  0.
<mgrwt>
<rscale>  0 0.35837468E+04</rscale>
<asrwt>0</asrwt>
<pdfrwt beam="1">  1        2 0.42157271E+00 0.35837468E+04</pdfrwt>
<pdfrwt beam="2">  1       -2 0.18026667E+00 0.35837468E+04</pdfrwt>
<totfact> 0.37010498E-01</totfact>
</mgrwt>
</event>
<event>
 4    1  0.1343107E-008  0.3026679E+04  0.7816531E-02  0.8236153E-01
          2   -1    0    0  501    0  0.00000000000E+00  0.00000000000E+00  0.15392158391E+04  0.15392158391E+04  0.00000000000E+00 0.  1.
         -2   -1    0    0    0  501 -0.00000000000E+00 -0.00000000000E+00 -0.14878978661E+04  0.14878978661E+04  0.00000000000E+00 0. -1.
    2000013    1    1    2    0    0 -0.10054869149E+04 -0.52514619236E+03  0.34337350220E+03  0.15189429948E+04  0.95000000000E+03 0.  0.
   -2000013    1    1    2    0    0  0.10054869149E+04  0.52514619236E+03 -0.29205552925E+03  0.15081707104E+04  0.95000000000E+03 0.  0.
<mgrwt>
<rscale>  0 0.30266787E+04</rscale>
<asrwt>0</asrwt>
<pdfrwt beam="1">  1        2 0.23680244E+00 0.30266787E+04</pdfrwt>
<pdfrwt beam="2">  1       -2 0.22890736E+00 0.30266787E+04</pdfrwt>
<totfact> 0.89503389E-01</totfact>
</mgrwt>
</event>
<event>
 4    1  0.1343107E-008  0.1989441E+04  0.7816531E-02  0.8611573E-01
         -2   -1    0    0    0  501 -0.00000000000E+00  0.00000000000E+00  0.98202584012E+03  0.98202584012E+03  0.00000000000E+00 0. -1.
          2   -1    0    0  501    0  0.00000000000E+00 -0.00000000000E+00 -0.10075788471E+04  0.10075788471E+04  0.00000000000E+00 0.  1.
    2000013    1    1    2    0    0 -0.51444222967E+02 -0.27787721905E+03 -0.97081777784E+02  0.99588509805E+03  0.95000000000E+03 0.  0.
   -2000013    1    1    2    0    0  0.51444222967E+02  0.27787721905E+03  0.71528770768E+02  0.99371958921E+03  0.95000000000E+03 0.  0.
<mgrwt>
<rscale>  0 0.19894406E+04</rscale>
<asrwt>0</asrwt>
<pdfrwt beam="2">  1        2 0.15501213E+00 0.19894406E+04</pdfrwt>
<pdfrwt beam="1">  1       -2 0.15108090E+00 0.19894406E+04</pdfrwt>
<totfact> 0.68074574E+00</totfact>
</mgrwt>
</event>
<event>
 4    1  0.1343107E-008  0.2457878E+04  0.7816531E-02  0.8418147E-01
          2   -1    0    0  501    0  0.00000000000E+00  0.00000000000E+00  0.29261241909E+04  0.29261241909E+04  0.00000000000E+00 0.  1.
         -2   -1    0    0    0  501 -0.00000000000E+00 -0.00000000000E+00 -0.51614038661E+03  0.51614038661E+03  0.00000000000E+00 0. -1.
    2000013    1    1    2    0    0  0.74162578264E+03 -0.93748214121E+02  0.89499847458E+03  0.15041009935E+04  0.95000000000E+03 0.  0.
   -2000013    1    1    2    0    0 -0.74162578264E+03  0.93748214121E+02  0.15149853297E+04  0.19381635840E+04  0.95000000000E+03 0.  0.
<mgrwt>
<rscale>  0 0.24578778E+04</rscale>
<asrwt>0</asrwt>
<pdfrwt beam="1">  1        2 0.45017294E+00 0.24578778E+04</pdfrwt>
<pdfrwt beam="2">  1       -2 0.79406215E-01 0.24578778E+04</pdfrwt>
<totfact> 0.24357292E+00</totfact>
</mgrwt>
</event>
<event>
 4    1  0.1343107E-008  0.3063553E+04  0.7816531E-02  0.8225812E-01
         -2   -1    0    0    0  501 -0.00000000000E+00  0.00000000000E+00  0.12977632418E+04  0.12977632418E+04  0.00000000000E+00 0. -1.
          2   -1    0    0  501    0  0.00000000000E+00 -0.00000000000E+00 -0.18079872109E+04  0.18079872109E+04  0.00000000000E+00 0.  1.
    2000013    1    1    2    0    0 -0.76267220041E+02 -0.11881053030E+04 -0.41991947540E+03  0.15799503998E+04  0.95000000000E+03 0.  0.
   -2000013    1    1    2    0    0  0.76267220041E+02  0.11881053030E+04 -0.90304493679E+02  0.15258000529E+04  0.95000000000E+03 0.  0.
<mgrwt>
<rscale>  0 0.30635531E+04</rscale>
<asrwt>0</asrwt>
<pdfrwt beam="2">  1        2 0.27815188E+00 0.30635531E+04</pdfrwt>
<pdfrwt beam="1">  1       -2 0.19965588E+00 0.30635531E+04</pdfrwt>
<totfact> 0.97250834E-01</totfact>
</mgrwt>
</event>
<event>
 4    1  0.1343107E-008  0.3103748E+04  0.7816531E-02  0.8214710E-01
         -2   -1    0    0    0  501 -0.00000000000E+00  0.00000000000E+00  0.33899414529E+04  0.33899414529E+04  0.00000000000E+00 0. -1.
          2   -1    0    0  501    0  0.00000000000E+00 -0.00000000000E+00 -0.71042890544E+03  0.71042890544E+03  0.00000000000E+00 0.  1.
    2000013    1    1    2    0    0  0.30500743968E+03 -0.95905391669E+03  0.41215902299E+03  0.14440183564E+04  0.95000000000E+03 0.  0.
   -2000013    1    1    2    0    0 -0.30500743968E+03  0.95905391669E+03  0.22673535245E+04  0.26563520020E+04  0.95000000000E+03 0.  0.
<mgrwt>
<rscale>  0 0.31037477E+04</rscale>
<asrwt>0</asrwt>
<pdfrwt beam="2">  1        2 0.10929676E+00 0.31037477E+04</pdfrwt>
<pdfrwt beam="1">  1       -2 0.52152945E+00 0.31037477E+04</pdfrwt>
<totfact> 0.41591613E-02</totfact>
</mgrwt>
</event>
<event>
 4    1  0.1343107E-008  0.2530544E+04  0.7816531E-02  0.8392184E-01
          2   -1    0    0  501    0  0.00000000000E+00  0.00000000000E+00  0.19980879823E+04  0.19980879823E+04  0.00000000000E+00 0.  1.
         -2   -1    0    0    0  501 -0.00000000000E+00 -0.00000000000E+00 -0.80122275402E+03  0.80122275402E+03  0.00000000000E+00 0. -1.
    2000013    1    1    2    0    0  0.27237126871E+03 -0.78944610513E+03  0.63345413171E+03  0.14146290672E+04  0.95000000000E+03 0.  0.
   -2000013    1    1    2    0    0 -0.27237126871E+03  0.78944610513E+03  0.56341109657E+03  0.13846816691E+04  0.95000000000E+03 0.  0.
<mgrwt>
<rscale>  0 0.25305443E+04</rscale>
<asrwt>0</asrwt>
<pdfrwt beam="1">  1        2 0.30739815E+00 0.25305443E+04</pdfrwt>
<pdfrwt beam="2">  1       -2 0.12326504E+00 0.25305443E+04</pdfrwt>
<totfact> 0.29589338E+00</totfact>
</mgrwt>
</event>
<event>
 4    1  0.1343107E-008  0.2382337E+04  0.7816531E-02  0.8446146E-01
         -2   -1    0    0    0  501 -0.00000000000E+00  0.00000000000E+00  0.33711334075E+03  0.33711334075E+03  0.00000000000E+00 0. -1.
          2   -1    0    0  501    0  0.00000000000E+00 -0.00000000000E+00 -0.42089184996E+04  0.42089184996E+04  0.00000000000E+00 0.  1.
    2000013    1    1    2    0    0  0.64325871960E+03 -0.22033893808E+03 -0.14922599002E+04  0.18951703453E+04  0.95000000000E+03 0.  0.
   -2000013    1    1    2    0    0 -0.64325871960E+03  0.22033893808E+03 -0.23795452586E+04  0.26508614950E+04  0.95000000000E+03 0.  0.
<mgrwt>
<rscale>  0 0.23823372E+04</rscale>
<asrwt>0</asrwt>
<pdfrwt beam="2">  1        2 0.64752595E+00 0.23823372E+04</pdfrwt>
<pdfrwt beam="1">  1       -2 0.51863589E-01 0.23823372E+04</pdfrwt>
<totfact> 0.72654499E-01</totfact>
</mgrwt>
</event>
<event>
 4    1  0.1343107E-008  0.2125619E+04  0.7816531E-02  0.8550041E-01
         -2   -1    0    0    0  501 -0.00000000000E+00  0.00000000000E+00  0.27845144946E+03  0.27845144946E+03  0.00000000000E+00 0. -1.
          2   -1    0    0  501    0  0.00000000000E+00 -0.00000000000E+00 -0.40565908002E+04  0.40565908002E+04  0.00000000000E+00 0.  1.
    2000013    1    1    2    0    0 -0.18098329249E+03 -0.31485293174E+03 -0.12598934102E+04  0.16191722347E+04  0.95000000000E+03 0.  0.
   -2000013    1    1    2    0    0  0.18098329249E+03  0.31485293174E+03 -0.25182459406E+04  0.27158700150E+04  0.95000000000E+03 0.  0.
<mgrwt>
<rscale>  0 0.21256186E+04</rscale>
<asrwt>0</asrwt>
<pdfrwt beam="2">  1        2 0.62409081E+00 0.21256186E+04</pdfrwt>
<pdfrwt beam="1">  1       -2 0.42838690E-01 0.21256186E+04</pdfrwt>
<totfact> 0.14741267E+00</totfact>
</mgrwt>
</event>
<event>
 4    1  0.1343107E-008  0.3020537E+04  0.7816531E-02  0.8237890E-01
         -2   -1    0    0    0  501 -0.00000000000E+00  0.00000000000E+00  0.18052857751E+04  0.18052857751E+04  0.00000000000E+00 0. -1.
          2   -1    0    0  501    0  0.00000000000E+00 -0.00000000000E+00 -0.12634629411E+04  0.12634629411E+04  0.00000000000E+00 0.  1.
    2000013    1    1    2    0    0 -0.12216231695E+03  0.11610954383E+04  0.14505754606E+03  0.15121534116E+04  0.95000000000E+03 0.  0.
   -2000013    1    1    2    0    0  0.12216231695E+03 -0.11610954383E+04  0.39676528800E+03  0.15565953046E+04  0.95000000000E+03 0.  0.
<mgrwt>
<rscale>  0 0.30205375E+04</rscale>
<asrwt>0</asrwt>
<pdfrwt beam="2">  1        2 0.19437891E+00 0.30205375E+04</pdfrwt>
<pdfrwt beam="1">  1       -2 0.27773627E+00 0.30205375E+04</pdfrwt>
<totfact> 0.64519147E-01</totfact>
</mgrwt>
</event>
<event>
 4    1  0.1343107E-008  0.2584394E+04  0.7816531E-02  0.8373521E-01
          1   -1    0    0  501    0  0.00000000000E+00  0.00000000000E+00  0.87039881403E+03  0.87039881403E+03  0.00000000000E+00 0.  1.
         -1   -1    0    0    0  501 -0.00000000000E+00 -0.00000000000E+00 -0.19184006082E+04  0.19184006082E+04  0.00000000000E+00 0. -1.
    2000013    1    1    2    0    0 -0.36009838351E+03 -0.50184369720E+03  0.14621488047E+03  0.11425395982E+04  0.95000000000E+03 0.  0.
   -2000013    1    1    2    0    0  0.36009838351E+03  0.50184369720E+03 -0.11942166747E+04  0.16462598241E+04  0.95000000000E+03 0.  0.
<mgrwt>
<rscale>  0 0.25843944E+04</rscale>
<asrwt>0</asrwt>
<pdfrwt beam="1">  1        1 0.13390751E+00 0.25843944E+04</pdfrwt>
<pdfrwt beam="2">  1       -1 0.29513855E+00 0.25843944E+04</pdfrwt>
<totfact> 0.60298125E-01</totfact>
</mgrwt>
</event>
<event>
 4    1  0.1343107E-008  0.2169228E+04  0.7816531E-02  0.8531346E-01
          1   -1    0    0  501    0  0.00000000000E+00  0.00000000000E+00  0.16669938802E+04  0.16669938802E+04  0.00000000000E+00 0. -1.
         -1   -1    0    0    0  501 -0.00000000000E+00 -0.00000000000E+00 -0.70569415385E+03  0.70569415385E+03  0.00000000000E+00 0.  1.
    2000013    1    1    2    0    0 -0.47825147972E+03  0.85929194738E+02  0.26804966482E+03  0.11002085835E+04  0.95000000000E+03 0.  0.
   -2000013    1    1    2    0    0  0.47825147972E+03 -0.85929194738E+02  0.69325006157E+03  0.12724794506E+04  0.95000000000E+03 0.  0.
<mgrwt>
<rscale>  0 0.21692283E+04</rscale>
<asrwt>0</asrwt>
<pdfrwt beam="1">  1        1 0.25646060E+00 0.21692283E+04</pdfrwt>
<pdfrwt beam="2">  1       -1 0.10856833E+00 0.21692283E+04</pdfrwt>
<totfact> 0.36122000E+00</totfact>
</mgrwt>
</event>
<event>
 4    1  0.1343107E-008  0.2742237E+04  0.7816531E-02  0.8321429E-01
         -2   -1    0    0    0  501 -0.00000000000E+00  0.00000000000E+00  0.12113584767E+04  0.12113584767E+04  0.00000000000E+00 0. -1.
          2   -1    0    0  501    0  0.00000000000E+00 -0.00000000000E+00 -0.15519480695E+04  0.15519480695E+04  0.00000000000E+00 0.  1.
    2000013    1    1    2    0    0  0.64349930801E+03  0.14530008474E+02  0.58591305327E+03  0.12884473550E+04  0.95000000000E+03 0.  0.
   -2000013    1    1    2    0    0 -0.64349930801E+03 -0.14530008474E+02 -0.92650264609E+03  0.14748591912E+04  0.95000000000E+03 0.  0.
<mgrwt>
<rscale>  0 0.27422366E+04</rscale>
<asrwt>0</asrwt>
<pdfrwt beam="2">  1        2 0.23876124E+00 0.27422366E+04</pdfrwt>
<pdfrwt beam="1">  1       -2 0.18636284E+00 0.27422366E+04</pdfrwt>
<totfact> 0.17017775E+00</totfact>
</mgrwt>
</event>
<event>
 4    1  0.1343107E-008  0.2205668E+04  0.7816531E-02  0.8516073E-01
         -2   -1    0    0    0  501 -0.00000000000E+00  0.00000000000E+00  0.12564799215E+04  0.12564799215E+04  0.00000000000E+00 0. -1.
          2   -1    0    0  501    0  0.00000000000E+00 -0.00000000000E+00 -0.96797599587E+03  0.96797599587E+03  0.00000000000E+00 0.  1.
    2000013    1    1    2    0    0  0.52951977286E+03  0.41470672430E+02  0.32361911892E+03  0.11354912332E+04  0.95000000000E+03 0.  0.
   -2000013    1    1    2    0    0 -0.52951977286E+03 -0.41470672430E+02 -0.35115193322E+02  0.10889646841E+04  0.95000000000E+03 0.  0.
<mgrwt>
<rscale>  0 0.22056676E+04</rscale>
<asrwt>0</asrwt>
<pdfrwt beam="2">  1        2 0.14891938E+00 0.22056676E+04</pdfrwt>
<pdfrwt beam="1">  1       -2 0.19330460E+00 0.22056676E+04</pdfrwt>
<totfact> 0.35548621E+00</totfact>
</mgrwt>
</event>
<event>
 4    1  0.1343107E-008  0.2695210E+04  0.7816531E-02  0.8336561E-01
          1   -1    0    0  501    0  0.00000000000E+00  0.00000000000E+00  0.42565929061E+03  0.42565929061E+03  0.00000000000E+00 0. -1.
         -1   -1    0    0    0  501 -0.00000000000E+00 -0.00000000000E+00 -0.42664152012E+04  0.42664152012E+04  0.00000000000E+00 0.  1.
    2000013    1    1    2    0    0 -0.61494217220E+03  0.73161917746E+03 -0.19393506630E+04  0.23615675917E+04  0.95000000000E+03 0.  0.
   -2000013    1    1    2    0    0  0.61494217220E+03 -0.73161917746E+03 -0.19014052475E+04  0.23305069001E+04  0.95000000000E+03 0.  0.
<mgrwt>
<rscale>  0 0.26952100E+04</rscale>
<asrwt>0</asrwt>
<pdfrwt beam="1">  1        1 0.65486043E-01 0.26952100E+04</pdfrwt>
<pdfrwt beam="2">  1       -1 0.65637159E+00 0.26952100E+04</pdfrwt>
<totfact> 0.13263371E-02</totfact>
</mgrwt>
</event>
<event>
 4    1  0.1343107E-008  0.2196213E+04  0.7816531E-02  0.8520006E-01
         -2   -1    0    0    0  501 -0.00000000000E+00  0.00000000000E+00  0.48565896025E+03  0.48565896025E+03  0.00000000000E+00 0. -1.
          2   -1    0    0  501    0  0.00000000000E+00 -0.00000000000E+00 -0.24828913330E+04  0.24828913330E+04  0.00000000000E+00 0.  1.
    2000013    1    1    2    0    0  0.20230927661E+03 -0.51151555848E+03 -0.10359088169E+04  0.15093655246E+04  0.95000000000E+03 0.  0.
   -2000013    1    1    2    0    0 -0.20230927661E+03  0.51151555848E+03 -0.96132355583E+03  0.14591847686E+04  0.95000000000E+03 0.  0.
<mgrwt>
<rscale>  0 0.21962135E+04</rscale>
<asrwt>0</asrwt>
<pdfrwt beam="2">  1        2 0.38198327E+00 0.21962135E+04</pdfrwt>
<pdfrwt beam="1">  1       -2 0.74716765E-01 0.21962135E+04</pdfrwt>
<totfact> 0.52440879E+00</totfact>
</mgrwt>
</event>
<event>
 4    1  0.1343107E-008  0.2275782E+04  0.7816531E-02  0.8487532E-01
          2   -1    0    0  501    0  0.00000000000E+00  0.00000000000E+00  0.60645218403E+03  0.60645218403E+03  0.00000000000E+00 0.  1.
         -2   -1    0    0    0  501 -0.00000000000E+00 -0.00000000000E+00 -0.21350332717E+04  0.21350332717E+04  0.00000000000E+00 0. -1.
    2000013    1    1    2    0    0  0.79153491010E+02 -0.41556520178E+03 -0.20789032139E+03  0.10605084148E+04  0.95000000000E+03 0.  0.
   -2000013    1    1    2    0    0 -0.79153491010E+02  0.41556520178E+03 -0.13206907663E+04  0.16809770410E+04  0.95000000000E+03 0.  0.
<mgrwt>
<rscale>  0 0.22757817E+04</rscale>
<asrwt>0</asrwt>
<pdfrwt beam="1">  1        2 0.93300334E-01 0.22757817E+04</pdfrwt>
<pdfrwt beam="2">  1       -2 0.32846667E+00 0.22757817E+04</pdfrwt>
<totfact> 0.94448407E-01</totfact>
</mgrwt>
</event>
<event>
 4    1  0.1343107E-008  0.2443094E+04  0.7816531E-02  0.8423544E-01
          2   -1    0    0  501    0  0.00000000000E+00  0.00000000000E+00  0.19143407257E+04  0.19143407257E+04  0.00000000000E+00 0.  1.
         -2   -1    0    0    0  501 -0.00000000000E+00 -0.00000000000E+00 -0.77947294498E+03  0.77947294498E+03  0.00000000000E+00 0. -1.
    2000013    1    1    2    0    0  0.28578302787E+03 -0.72313485590E+02  0.13492678339E+04  0.16762830509E+04  0.95000000000E+03 0.  0.
   -2000013    1    1    2    0    0 -0.28578302787E+03  0.72313485590E+02 -0.21440005324E+03  0.10175306197E+04  0.95000000000E+03 0.  0.
<mgrwt>
<rscale>  0 0.24430938E+04</rscale>
<asrwt>0</asrwt>
<pdfrwt beam="1">  1        2 0.29451396E+00 0.24430938E+04</pdfrwt>
<pdfrwt beam="2">  1       -2 0.11991891E+00 0.24430938E+04</pdfrwt>
<totfact> 0.35534922E+00</totfact>
</mgrwt>
</event>
<event>
 4    1  0.1343107E-008  0.3380742E+04  0.7816531E-02  0.8142649E-01
          2   -1    0    0  501    0  0.00000000000E+00  0.00000000000E+00  0.41348742271E+04  0.41348742271E+04  0.00000000000E+00 0.  1.
         -2   -1    0    0    0  501 -0.00000000000E+00 -0.00000000000E+00 -0.69103789500E+03  0.69103789500E+03  0.00000000000E+00 0. -1.
    2000013    1    1    2    0    0 -0.68323319673E+03  0.11267816514E+04  0.10547982925E+04  0.19368902728E+04  0.95000000000E+03 0.  0.
   -2000013    1    1    2    0    0  0.68323319673E+03 -0.11267816514E+04  0.23890380396E+04  0.28890218493E+04  0.95000000000E+03 0.  0.
<mgrwt>
<rscale>  0 0.33807424E+04</rscale>
<asrwt>0</asrwt>
<pdfrwt beam="1">  1        2 0.63613448E+00 0.33807424E+04</pdfrwt>
<pdfrwt beam="2">  1       -2 0.10631352E+00 0.33807424E+04</pdfrwt>
<totfact> 0.15613396E-01</totfact>
</mgrwt>
</event>
<event>
 4    1  0.1343107E-008  0.2292521E+04  0.7816531E-02  0.8480876E-01
          2   -1    0    0  501    0  0.00000000000E+00  0.00000000000E+00  0.24209792508E+04  0.24209792508E+04  0.00000000000E+00 0.  1.
         -2   -1    0    0    0  501 -0.00000000000E+00 -0.00000000000E+00 -0.54271968168E+03  0.54271968168E+03  0.00000000000E+00 0. -1.
    2000013    1    1    2    0    0 -0.35909746804E+03 -0.40984938648E+03  0.13765472881E+04  0.17590650777E+04  0.95000000000E+03 0.  0.
   -2000013    1    1    2    0    0  0.35909746804E+03  0.40984938648E+03  0.50171228096E+03  0.12046338548E+04  0.95000000000E+03 0.  0.
<mgrwt>
<rscale>  0 0.22925210E+04</rscale>
<asrwt>0</asrwt>
<pdfrwt beam="1">  1        2 0.37245834E+00 0.22925210E+04</pdfrwt>
<pdfrwt beam="2">  1       -2 0.83495337E-01 0.22925210E+04</pdfrwt>
<totfact> 0.44015070E+00</totfact>
</mgrwt>
</event>
<event>
 4    1  0.1343107E-008  0.2176815E+04  0.7816531E-02  0.8528140E-01
          2   -1    0    0  501    0  0.00000000000E+00  0.00000000000E+00  0.18726162610E+04  0.18726162610E+04  0.00000000000E+00 0.  1.
         -2   -1    0    0    0  501 -0.00000000000E+00 -0.00000000000E+00 -0.63260762131E+03  0.63260762131E+03  0.00000000000E+00 0. -1.
    2000013    1    1    2    0    0  0.38007402531E+03 -0.23314389680E+03  0.28780640095E+03  0.10881842058E+04  0.95000000000E+03 0.  0.
   -2000013    1    1    2    0    0 -0.38007402531E+03  0.23314389680E+03  0.95220223876E+03  0.14170396765E+04  0.95000000000E+03 0.  0.
<mgrwt>
<rscale>  0 0.21768154E+04</rscale>
<asrwt>0</asrwt>
<pdfrwt beam="1">  1        2 0.28809481E+00 0.21768154E+04</pdfrwt>
<pdfrwt beam="2">  1       -2 0.97324250E-01 0.21768154E+04</pdfrwt>
<totfact> 0.63418087E+00</totfact>
</mgrwt>
</event>
<event>
 4    1  0.1343107E-008  0.2857663E+04  0.7816531E-02  0.8285587E-01
         -2   -1    0    0    0  501 -0.00000000000E+00  0.00000000000E+00  0.96216368636E+03  0.96216368636E+03  0.00000000000E+00 0. -1.
          2   -1    0    0  501    0  0.00000000000E+00 -0.00000000000E+00 -0.21218422788E+04  0.21218422788E+04  0.00000000000E+00 0.  1.
    2000013    1    1    2    0    0  0.11687301996E+03  0.10192421599E+04 -0.89732702553E+03  0.16613878759E+04  0.95000000000E+03 0.  0.
   -2000013    1    1    2    0    0 -0.11687301996E+03 -0.10192421599E+04 -0.26235156693E+03  0.14226180893E+04  0.95000000000E+03 0.  0.
<mgrwt>
<rscale>  0 0.28576631E+04</rscale>
<asrwt>0</asrwt>
<pdfrwt beam="2">  1        2 0.32643727E+00 0.28576631E+04</pdfrwt>
<pdfrwt beam="1">  1       -2 0.14802518E+00 0.28576631E+04</pdfrwt>
<totfact> 0.15353745E+00</totfact>
</mgrwt>
</event>
<event>
 4    1  0.1343107E-008  0.2507221E+04  0.7816531E-02  0.8400418E-01
          2   -1    0    0  501    0  0.00000000000E+00  0.00000000000E+00  0.39777127966E+04  0.39777127966E+04  0.00000000000E+00 0.  1.
         -2   -1    0    0    0  501 -0.00000000000E+00 -0.00000000000E+00 -0.39508609054E+03  0.39508609054E+03  0.00000000000E+00 0. -1.
    2000013    1    1    2    0    0  0.16511976064E+03  0.74542791069E+03  0.23031106526E+04  0.26057141024E+04  0.95000000000E+03 0.  0.
   -2000013    1    1    2    0    0 -0.16511976064E+03 -0.74542791069E+03  0.12795160535E+04  0.17670847848E+04  0.95000000000E+03 0.  0.
<mgrwt>
<rscale>  0 0.25072208E+04</rscale>
<asrwt>0</asrwt>
<pdfrwt beam="1">  1        2 0.61195579E+00 0.25072208E+04</pdfrwt>
<pdfrwt beam="2">  1       -2 0.60782478E-01 0.25072208E+04</pdfrwt>
<totfact> 0.80352767E-01</totfact>
</mgrwt>
</event>
<event>
 4    1  0.1343107E-008  0.2463367E+04  0.7816531E-02  0.8416154E-01
         -2   -1    0    0    0  501 -0.00000000000E+00  0.00000000000E+00  0.55074340308E+03  0.55074340308E+03  0.00000000000E+00 0. -1.
          2   -1    0    0  501    0  0.00000000000E+00 -0.00000000000E+00 -0.27545388980E+04  0.27545388980E+04  0.00000000000E+00 0.  1.
    2000013    1    1    2    0    0 -0.13932313242E+03 -0.76317430579E+03 -0.12530971343E+04  0.17534532741E+04  0.95000000000E+03 0.  0.
   -2000013    1    1    2    0    0  0.13932313242E+03  0.76317430579E+03 -0.95069836055E+03  0.15518290270E+04  0.95000000000E+03 0.  0.
<mgrwt>
<rscale>  0 0.24633669E+04</rscale>
<asrwt>0</asrwt>
<pdfrwt beam="2">  1        2 0.42377521E+00 0.24633669E+04</pdfrwt>
<pdfrwt beam="1">  1       -2 0.84729756E-01 0.24633669E+04</pdfrwt>
<totfact> 0.26742716E+00</totfact>
</mgrwt>
</event>
<event>
 4    1  0.1343107E-008  0.2348294E+04  0.7816531E-02  0.8459119E-01
         -2   -1    0    0    0  501 -0.00000000000E+00  0.00000000000E+00  0.29147936507E+03  0.29147936507E+03  0.00000000000E+00 0. -1.
          2   -1    0    0  501    0  0.00000000000E+00 -0.00000000000E+00 -0.47297379605E+04  0.47297379605E+04  0.00000000000E+00 0.  1.
    2000013    1    1    2    0    0  0.44760237639E+03 -0.32098649151E+03 -0.31078269686E+04  0.32961293485E+04  0.95000000000E+03 0.  0.
   -2000013    1    1    2    0    0 -0.44760237639E+03  0.32098649151E+03 -0.13304316269E+04  0.17250879771E+04  0.95000000000E+03 0.  0.
<mgrwt>
<rscale>  0 0.23482939E+04</rscale>
<asrwt>0</asrwt>
<pdfrwt beam="2">  1        2 0.72765197E+00 0.23482939E+04</pdfrwt>
<pdfrwt beam="1">  1       -2 0.44842981E-01 0.23482939E+04</pdfrwt>
<totfact> 0.30672015E-01</totfact>
</mgrwt>
</event>
<event>
 4    1  0.1343107E-008  0.3754869E+04  0.7816531E-02  0.8055910E-01
          2   -1    0    0  501    0  0.00000000000E+00  0.00000000000E+00  0.37208877539E+04  0.37208877539E+04  0.00000000000E+00 0.  1.
         -2   -1    0    0    0  501 -0.00000000000E+00 -0.00000000000E+00 -0.94729034572E+03  0.94729034572E+03  0.00000000000E+00 0. -1.
    2000013    1    1    2    0    0  0.11470388878E+04  0.63165914483E+03  0.20241467649E+03  0.16303874345E+04  0.95000000000E+03 0.  0.
   -2000013    1    1    2    0    0 -0.11470388878E+04 -0.63165914483E+03  0.25711827317E+04  0.30377906651E+04  0.95000000000E+03 0.  0.
<mgrwt>
<rscale>  0 0.37548694E+04</rscale>
<asrwt>0</asrwt>
<pdfrwt beam="1">  1        2 0.57244426E+00 0.37548694E+04</pdfrwt>
<pdfrwt beam="2">  1       -2 0.14573698E+00 0.37548694E+04</pdfrwt>
<totfact> 0.14622023E-01</totfact>
</mgrwt>
</event>
<event>
 4    1  0.1343107E-008  0.2750160E+04  0.7816531E-02  0.8318911E-01
          2   -1    0    0  501    0  0.00000000000E+00  0.00000000000E+00  0.16839137815E+04  0.16839137815E+04  0.00000000000E+00 0.  1.
         -2   -1    0    0    0  501 -0.00000000000E+00 -0.00000000000E+00 -0.11228873034E+04  0.11228873034E+04  0.00000000000E+00 0. -1.
    2000013    1    1    2    0    0  0.51100014501E+03 -0.39557522920E+03 -0.49052247431E+03  0.12492850787E+04  0.95000000000E+03 0.  0.
   -2000013    1    1    2    0    0 -0.51100014501E+03  0.39557522920E+03  0.10515489524E+04  0.15575160062E+04  0.95000000000E+03 0.  0.
<mgrwt>
<rscale>  0 0.27501603E+04</rscale>
<asrwt>0</asrwt>
<pdfrwt beam="1">  1        2 0.25906366E+00 0.27501603E+04</pdfrwt>
<pdfrwt beam="2">  1       -2 0.17275189E+00 0.27501603E+04</pdfrwt>
<totfact> 0.17826959E+00</totfact>
</mgrwt>
</event>
<event>
 4    1  0.1343107E-008  0.2416682E+04  0.7816531E-02  0.8433284E-01
          2   -1    0    0  501    0  0.00000000000E+00  0.00000000000E+00  0.21399596923E+04  0.21399596923E+04  0.00000000000E+00 0.  1.
         -2   -1    0    0    0  501 -0.00000000000E+00 -0.00000000000E+00 -0.68229714747E+03  0.68229714747E+03  0.00000000000E+00 0. -1.
    2000013    1    1    2    0    0  0.62498719831E+03  0.37980500240E+03  0.55277425854E+03  0.13201970379E+04  0.95000000000E+03 0.  0.
   -2000013    1    1    2    0    0 -0.62498719831E+03 -0.37980500240E+03  0.90488828633E+03  0.15020598019E+04  0.95000000000E+03 0.  0.
<mgrwt>
<rscale>  0 0.24166823E+04</rscale>
<asrwt>0</asrwt>
<pdfrwt beam="1">  1        2 0.32922456E+00 0.24166823E+04</pdfrwt>
<pdfrwt beam="2">  1       -2 0.10496879E+00 0.24166823E+04</pdfrwt>
<totfact> 0.36861938E+00</totfact>
</mgrwt>
</event>
<event>
 4    1  0.1343107E-008  0.2640343E+04  0.7816531E-02  0.8354625E-01
          2   -1    0    0  501    0  0.00000000000E+00  0.00000000000E+00  0.19210865755E+04  0.19210865755E+04  0.00000000000E+00 0.  1.
         -2   -1    0    0    0  501 -0.00000000000E+00 -0.00000000000E+00 -0.90722270216E+03  0.90722270216E+03  0.00000000000E+00 0. -1.
    2000013    1    1    2    0    0 -0.78248572248E+03  0.36269480184E+03  0.83972899239E+03  0.15334523813E+04  0.95000000000E+03 0.  0.
   -2000013    1    1    2    0    0  0.78248572248E+03 -0.36269480184E+03  0.17413488094E+03  0.12948568963E+04  0.95000000000E+03 0.  0.
<mgrwt>
<rscale>  0 0.26403434E+04</rscale>
<asrwt>0</asrwt>
<pdfrwt beam="1">  1        2 0.29555178E+00 0.26403434E+04</pdfrwt>
<pdfrwt beam="2">  1       -2 0.13957272E+00 0.26403434E+04</pdfrwt>
<totfact> 0.23593267E+00</totfact>
</mgrwt>
</event>
<event>
 4    1  0.1343107E-008  0.2542614E+04  0.7816531E-02  0.8387960E-01
         -2   -1    0    0    0  501 -0.00000000000E+00  0.00000000000E+00  0.82876404756E+03  0.82876404756E+03  0.00000000000E+00 0. -1.
          2   -1    0    0  501    0  0.00000000000E+00 -0.00000000000E+00 -0.19501582674E+04  0.19501582674E+04  0.00000000000E+00 0.  1.
    2000013    1    1    2    0    0  0.68562943056E+03  0.29943232075E+03 -0.13183349511E+03  0.12163994004E+04  0.95000000000E+03 0.  0.
   -2000013    1    1    2    0    0 -0.68562943056E+03 -0.29943232075E+03 -0.98956072475E+03  0.15625229146E+04  0.95000000000E+03 0.  0.
<mgrwt>
<rscale>  0 0.25426137E+04</rscale>
<asrwt>0</asrwt>
<pdfrwt beam="2">  1        2 0.30002435E+00 0.25426137E+04</pdfrwt>
<pdfrwt beam="1">  1       -2 0.12750216E+00 0.25426137E+04</pdfrwt>
<totfact> 0.28872084E+00</totfact>
</mgrwt>
</event>
<event>
 4    1  0.1343107E-008  0.2037488E+04  0.7816531E-02  0.8589292E-01
         -1   -1    0    0    0  501 -0.00000000000E+00  0.00000000000E+00  0.58126043510E+03  0.58126043510E+03  0.00000000000E+00 0. -1.
          1   -1    0    0  501    0  0.00000000000E+00 -0.00000000000E+00 -0.17854983537E+04  0.17854983537E+04  0.00000000000E+00 0.  1.
    2000013    1    1    2    0    0  0.20833322409E+03 -0.28476806131E+03 -0.48115582630E+03  0.11218317655E+04  0.95000000000E+03 0.  0.
   -2000013    1    1    2    0    0 -0.20833322409E+03  0.28476806131E+03 -0.72308209229E+03  0.12449270232E+04  0.95000000000E+03 0.  0.
<mgrwt>
<rscale>  0 0.20374882E+04</rscale>
<asrwt>0</asrwt>
<pdfrwt beam="2">  1        1 0.27469205E+00 0.20374882E+04</pdfrwt>
<pdfrwt beam="1">  1       -1 0.89424684E-01 0.20374882E+04</pdfrwt>
<totfact> 0.47208036E+00</totfact>
</mgrwt>
</event>
<event>
 4    1  0.1343107E-008  0.3000108E+04  0.7816531E-02  0.8243700E-01
         -2   -1    0    0    0  501 -0.00000000000E+00  0.00000000000E+00  0.12496394913E+04  0.12496394913E+04  0.00000000000E+00 0. -1.
          2   -1    0    0  501    0  0.00000000000E+00 -0.00000000000E+00 -0.18006488971E+04  0.18006488971E+04  0.00000000000E+00 0.  1.
    2000013    1    1    2    0    0 -0.92276461413E+03 -0.37717947186E+03  0.32934321436E+03  0.14158834133E+04  0.95000000000E+03 0.  0.
   -2000013    1    1    2    0    0  0.92276461413E+03  0.37717947186E+03 -0.88035262010E+03  0.16344049752E+04  0.95000000000E+03 0.  0.
<mgrwt>
<rscale>  0 0.30001080E+04</rscale>
<asrwt>0</asrwt>
<pdfrwt beam="2">  1        2 0.27702291E+00 0.30001080E+04</pdfrwt>
<pdfrwt beam="1">  1       -2 0.19225223E+00 0.30001080E+04</pdfrwt>
<totfact> 0.11050050E+00</totfact>
</mgrwt>
</event>
<event>
 4    1  0.1343107E-008  0.2821017E+04  0.7816531E-02  0.8296773E-01
         -2   -1    0    0    0  501 -0.00000000000E+00  0.00000000000E+00  0.98755117771E+03  0.98755117771E+03  0.00000000000E+00 0. -1.
          2   -1    0    0  501    0  0.00000000000E+00 -0.00000000000E+00 -0.20146142685E+04  0.20146142685E+04  0.00000000000E+00 0.  1.
    2000013    1    1    2    0    0 -0.71066753276E+03  0.75006087827E+03 -0.66174038229E+03  0.15517860667E+04  0.95000000000E+03 0.  0.
   -2000013    1    1    2    0    0  0.71066753276E+03 -0.75006087827E+03 -0.36532270851E+03  0.14503793795E+04  0.95000000000E+03 0.  0.
<mgrwt>
<rscale>  0 0.28210173E+04</rscale>
<asrwt>0</asrwt>
<pdfrwt beam="2">  1        2 0.30994066E+00 0.28210173E+04</pdfrwt>
<pdfrwt beam="1">  1       -2 0.15193095E+00 0.28210173E+04</pdfrwt>
<totfact> 0.16496628E+00</totfact>
</mgrwt>
</event>
<event>
 4    1  0.1343107E-008  0.2164806E+04  0.7816531E-02  0.8533221E-01
         -2   -1    0    0    0  501 -0.00000000000E+00  0.00000000000E+00  0.31430017473E+03  0.31430017473E+03  0.00000000000E+00 0. -1.
          2   -1    0    0  501    0  0.00000000000E+00 -0.00000000000E+00 -0.37276361521E+04  0.37276361521E+04  0.00000000000E+00 0.  1.
    2000013    1    1    2    0    0 -0.35571932633E+03 -0.35428713526E+02 -0.10048094801E+04  0.14282624143E+04  0.95000000000E+03 0.  0.
   -2000013    1    1    2    0    0  0.35571932633E+03  0.35428713526E+02 -0.24085264973E+04  0.26136739125E+04  0.95000000000E+03 0.  0.
<mgrwt>
<rscale>  0 0.21648064E+04</rscale>
<asrwt>0</asrwt>
<pdfrwt beam="2">  1        2 0.57348251E+00 0.21648064E+04</pdfrwt>
<pdfrwt beam="1">  1       -2 0.48353871E-01 0.21648064E+04</pdfrwt>
<totfact> 0.20789929E+00</totfact>
</mgrwt>
</event>
<event>
 4    1  0.1343107E-008  0.2689512E+04  0.7816531E-02  0.8338416E-01
         -2   -1    0    0    0  501 -0.00000000000E+00  0.00000000000E+00  0.89879289326E+03  0.89879289326E+03  0.00000000000E+00 0. -1.
          2   -1    0    0  501    0  0.00000000000E+00 -0.00000000000E+00 -0.20119969407E+04  0.20119969407E+04  0.00000000000E+00 0.  1.
    2000013    1    1    2    0    0  0.58997719312E+03  0.70069004934E+03 -0.83638391115E+03  0.15623948542E+04  0.95000000000E+03 0.  0.
   -2000013    1    1    2    0    0 -0.58997719312E+03 -0.70069004934E+03 -0.27682013634E+03  0.13483949798E+04  0.95000000000E+03 0.  0.
<mgrwt>
<rscale>  0 0.26895119E+04</rscale>
<asrwt>0</asrwt>
<pdfrwt beam="2">  1        2 0.30953799E+00 0.26895119E+04</pdfrwt>
<pdfrwt beam="1">  1       -2 0.13827583E+00 0.26895119E+04</pdfrwt>
<totfact> 0.21427808E+00</totfact>
</mgrwt>
</event>
<event>
 4    1  0.1343107E-008  0.3097894E+04  0.7816531E-02  0.8216316E-01
          2   -1    0    0  501    0  0.00000000000E+00  0.00000000000E+00  0.43493697894E+04  0.43493697894E+04  0.00000000000E+00 0.  1.
         -2   -1    0    0    0  501 -0.00000000000E+00 -0.00000000000E+00 -0.55162860522E+03  0.55162860522E+03  0.00000000000E+00 0. -1.
    2000013    1    1    2    0    0 -0.58023871095E+03 -0.98957767903E+03  0.12261848351E+04  0.19292408337E+04  0.95000000000E+03 0.  0.
   -2000013    1    1    2    0    0  0.58023871095E+03  0.98957767903E+03  0.25715563490E+04  0.29717575609E+04  0.95000000000E+03 0.  0.
<mgrwt>
<rscale>  0 0.30978940E+04</rscale>
<asrwt>0</asrwt>
<pdfrwt beam="1">  1        2 0.66913379E+00 0.30978940E+04</pdfrwt>
<pdfrwt beam="2">  1       -2 0.84865942E-01 0.30978940E+04</pdfrwt>
<totfact> 0.17535660E-01</totfact>
</mgrwt>
</event>
<event>
 4    1  0.1343107E-008  0.2520319E+04  0.7816531E-02  0.8395782E-01
          2   -1    0    0  501    0  0.00000000000E+00  0.00000000000E+00  0.34405099246E+04  0.34405099246E+04  0.00000000000E+00 0.  1.
         -2   -1    0    0    0  501 -0.00000000000E+00 -0.00000000000E+00 -0.46156021660E+03  0.46156021660E+03  0.00000000000E+00 0. -1.
    2000013    1    1    2    0    0 -0.11509142327E+03 -0.74593322044E+03  0.20164242949E+04  0.23533230424E+04  0.95000000000E+03 0.  0.
   -2000013    1    1    2    0    0  0.11509142327E+03  0.74593322044E+03  0.96252541313E+03  0.15487470988E+04  0.95000000000E+03 0.  0.
<mgrwt>
<rscale>  0 0.25203194E+04</rscale>
<asrwt>0</asrwt>
<pdfrwt beam="1">  1        2 0.52930920E+00 0.25203194E+04</pdfrwt>
<pdfrwt beam="2">  1       -2 0.71009266E-01 0.25203194E+04</pdfrwt>
<totfact> 0.14358593E+00</totfact>
</mgrwt>
</event>
<event>
 4    1  0.1343107E-008  0.3095419E+04  0.7816531E-02  0.8216996E-01
          2   -1    0    0  501    0  0.00000000000E+00  0.00000000000E+00  0.16208159628E+04  0.16208159628E+04  0.00000000000E+00 0.  1.
         -2   -1    0    0    0  501 -0.00000000000E+00 -0.00000000000E+00 -0.14779002416E+04  0.14779002416E+04  0.00000000000E+00 0. -1.
    2000013    1    1    2    0    0 -0.67134883273E+03 -0.99391237820E+03  0.30480106942E+03  0.15601201116E+04  0.95000000000E+03 0.  0.
   -2000013    1    1    2    0    0  0.67134883273E+03  0.99391237820E+03 -0.16188534827E+03  0.15385960928E+04  0.95000000000E+03 0.  0.
<mgrwt>
<rscale>  0 0.30954187E+04</rscale>
<asrwt>0</asrwt>
<pdfrwt beam="1">  1        2 0.24935630E+00 0.30954187E+04</pdfrwt>
<pdfrwt beam="2">  1       -2 0.22736927E+00 0.30954187E+04</pdfrwt>
<totfact> 0.81896039E-01</totfact>
</mgrwt>
</event>
<event>
 4    1  0.1343107E-008  0.2974102E+04  0.7816531E-02  0.8251165E-01
          2   -1    0    0  501    0  0.00000000000E+00  0.00000000000E+00  0.24439083527E+04  0.24439083527E+04  0.00000000000E+00 0.  1.
         -2   -1    0    0    0  501 -0.00000000000E+00 -0.00000000000E+00 -0.90482969230E+03  0.90482969230E+03  0.00000000000E+00 0. -1.
    2000013    1    1    2    0    0 -0.46202938510E+03  0.92547442794E+03  0.21925773176E+03  0.14214598209E+04  0.95000000000E+03 0.  0.
   -2000013    1    1    2    0    0  0.46202938510E+03 -0.92547442794E+03  0.13198209286E+04  0.19272782241E+04  0.95000000000E+03 0.  0.
<mgrwt>
<rscale>  0 0.29741021E+04</rscale>
<asrwt>0</asrwt>
<pdfrwt beam="1">  1        2 0.37598590E+00 0.29741021E+04</pdfrwt>
<pdfrwt beam="2">  1       -2 0.13920457E+00 0.29741021E+04</pdfrwt>
<totfact> 0.11727315E+00</totfact>
</mgrwt>
</event>
<event>
 4    1  0.1343107E-008  0.2928948E+04  0.7816531E-02  0.8264316E-01
          2   -1    0    0  501    0  0.00000000000E+00  0.00000000000E+00  0.27621184301E+04  0.27621184301E+04  0.00000000000E+00 0.  1.
         -2   -1    0    0    0  501 -0.00000000000E+00 -0.00000000000E+00 -0.77646344054E+03  0.77646344054E+03  0.00000000000E+00 0. -1.
    2000013    1    1    2    0    0 -0.57693072004E+03 -0.78107886776E+03  0.16537266625E+04  0.21401507255E+04  0.95000000000E+03 0.  0.
   -2000013    1    1    2    0    0  0.57693072004E+03  0.78107886776E+03  0.33192832697E+03  0.13984311451E+04  0.95000000000E+03 0.  0.
<mgrwt>
<rscale>  0 0.29289479E+04</rscale>
<asrwt>0</asrwt>
<pdfrwt beam="1">  1        2 0.42494129E+00 0.29289479E+04</pdfrwt>
<pdfrwt beam="2">  1       -2 0.11945592E+00 0.29289479E+04</pdfrwt>
<totfact> 0.11266283E+00</totfact>
</mgrwt>
</event>
<event>
 4    1  0.1343107E-008  0.3036007E+04  0.7816531E-02  0.8233523E-01
         -2   -1    0    0    0  501 -0.00000000000E+00  0.00000000000E+00  0.15857211050E+04  0.15857211050E+04  0.00000000000E+00 0.  1.
          2   -1    0    0  501    0  0.00000000000E+00 -0.00000000000E+00 -0.14531777635E+04  0.14531777635E+04  0.00000000000E+00 0. -1.
    2000013    1    1    2    0    0 -0.68434021164E+03 -0.74459444724E+03  0.68256280453E+03  0.15463293305E+04  0.95000000000E+03 0.  0.
   -2000013    1    1    2    0    0  0.68434021164E+03  0.74459444724E+03 -0.55001946305E+03  0.14925695380E+04  0.95000000000E+03 0.  0.
<mgrwt>
<rscale>  0 0.30360070E+04</rscale>
<asrwt>0</asrwt>
<pdfrwt beam="2">  1        2 0.22356581E+00 0.30360070E+04</pdfrwt>
<pdfrwt beam="1">  1       -2 0.24395709E+00 0.30360070E+04</pdfrwt>
<totfact> 0.80639783E-01</totfact>
</mgrwt>
</event>
<event>
 4    1  0.1343107E-008  0.2442970E+04  0.7816531E-02  0.8423589E-01
         -2   -1    0    0    0  501 -0.00000000000E+00  0.00000000000E+00  0.79982075064E+03  0.79982075064E+03  0.00000000000E+00 0.  1.
          2   -1    0    0  501    0  0.00000000000E+00 -0.00000000000E+00 -0.18654493667E+04  0.18654493667E+04  0.00000000000E+00 0. -1.
    2000013    1    1    2    0    0  0.11486795360E+03 -0.65505232833E+03 -0.95144543792E+03  0.15000122069E+04  0.95000000000E+03 0.  0.
   -2000013    1    1    2    0    0 -0.11486795360E+03  0.65505232833E+03 -0.11418317815E+03  0.11652579104E+04  0.95000000000E+03 0.  0.
<mgrwt>
<rscale>  0 0.24429696E+04</rscale>
<asrwt>0</asrwt>
<pdfrwt beam="2">  1        2 0.28699221E+00 0.24429696E+04</pdfrwt>
<pdfrwt beam="1">  1       -2 0.12304935E+00 0.24429696E+04</pdfrwt>
<totfact> 0.35472246E+00</totfact>
</mgrwt>
</event>
<event>
 4    1  0.1343107E-008  0.2144481E+04  0.7816531E-02  0.8541898E-01
         -2   -1    0    0    0  501 -0.00000000000E+00  0.00000000000E+00  0.45420992686E+03  0.45420992686E+03  0.00000000000E+00 0. -1.
          2   -1    0    0  501    0  0.00000000000E+00 -0.00000000000E+00 -0.25312082233E+04  0.25312082233E+04  0.00000000000E+00 0.  1.
    2000013    1    1    2    0    0  0.45483610003E+03  0.13868444097E+03 -0.12406743604E+04  0.16333652747E+04  0.95000000000E+03 0.  0.
   -2000013    1    1    2    0    0 -0.45483610003E+03 -0.13868444097E+03 -0.83632393607E+03  0.13520528755E+04  0.95000000000E+03 0.  0.
<mgrwt>
<rscale>  0 0.21444812E+04</rscale>
<asrwt>0</asrwt>
<pdfrwt beam="2">  1        2 0.38941665E+00 0.21444812E+04</pdfrwt>
<pdfrwt beam="1">  1       -2 0.69878450E-01 0.21444812E+04</pdfrwt>
<totfact> 0.57219516E+00</totfact>
</mgrwt>
</event>
<event>
 4    1  0.1343107E-008  0.4048932E+04  0.7816531E-02  0.7994747E-01
          2   -1    0    0  501    0  0.00000000000E+00  0.00000000000E+00  0.35867333423E+04  0.35867333423E+04  0.00000000000E+00 0.  1.
         -2   -1    0    0    0  501 -0.00000000000E+00 -0.00000000000E+00 -0.11426729661E+04  0.11426729661E+04  0.00000000000E+00 0. -1.
    2000013    1    1    2    0    0 -0.13367283567E+04 -0.10764702726E+04  0.63761090615E+03  0.20626872315E+04  0.95000000000E+03 0.  0.
   -2000013    1    1    2    0    0  0.13367283567E+04  0.10764702726E+04  0.18064494701E+04  0.26667190769E+04  0.95000000000E+03 0.  0.
<mgrwt>
<rscale>  0 0.40489323E+04</rscale>
<asrwt>0</asrwt>
<pdfrwt beam="1">  1        2 0.55180512E+00 0.40489323E+04</pdfrwt>
<pdfrwt beam="2">  1       -2 0.17579584E+00 0.40489323E+04</pdfrwt>
<totfact> 0.10733402E-01</totfact>
</mgrwt>
</event>
<event>
 4    1  0.1343107E-008  0.1983762E+04  0.7816531E-02  0.8614250E-01
          2   -1    0    0  501    0  0.00000000000E+00  0.00000000000E+00  0.21803825073E+04  0.21803825073E+04  0.00000000000E+00 0.  1.
         -2   -1    0    0    0  501 -0.00000000000E+00 -0.00000000000E+00 -0.45121817562E+03  0.45121817562E+03  0.00000000000E+00 0. -1.
    2000013    1    1    2    0    0  0.13284168348E+02 -0.18545454461E+03  0.57772877230E+03  0.11273155688E+04  0.95000000000E+03 0.  0.
   -2000013    1    1    2    0    0 -0.13284168348E+02  0.18545454461E+03  0.11514355594E+04  0.15042851141E+04  0.95000000000E+03 0.  0.
<mgrwt>
<rscale>  0 0.19837623E+04</rscale>
<asrwt>0</asrwt>
<pdfrwt beam="1">  1        2 0.33544346E+00 0.19837623E+04</pdfrwt>
<pdfrwt beam="2">  1       -2 0.69418182E-01 0.19837623E+04</pdfrwt>
<totfact> 0.93284689E+00</totfact>
</mgrwt>
</event>
<event>
 4    1  0.1343107E-008  0.3413701E+04  0.7816531E-02  0.8134552E-01
          2   -1    0    0  501    0  0.00000000000E+00  0.00000000000E+00  0.19866423846E+04  0.19866423846E+04  0.00000000000E+00 0. -1.
         -2   -1    0    0    0  501 -0.00000000000E+00 -0.00000000000E+00 -0.14664635541E+04  0.14664635541E+04  0.00000000000E+00 0.  1.
    2000013    1    1    2    0    0  0.13757648287E+04 -0.16944818233E+03  0.56253422840E+03  0.17721135146E+04  0.95000000000E+03 0.  0.
   -2000013    1    1    2    0    0 -0.13757648287E+04  0.16944818233E+03 -0.42355397877E+02  0.16809924242E+04  0.95000000000E+03 0.  0.
<mgrwt>
<rscale>  0 0.34137010E+04</rscale>
<asrwt>0</asrwt>
<pdfrwt beam="1">  1        2 0.30563729E+00 0.34137010E+04</pdfrwt>
<pdfrwt beam="2">  1       -2 0.22560978E+00 0.34137010E+04</pdfrwt>
<totfact> 0.51238036E-01</totfact>
</mgrwt>
</event>
<event>
 4    1  0.1343107E-008  0.2190904E+04  0.7816531E-02  0.8522223E-01
          2   -1    0    0  501    0  0.00000000000E+00  0.00000000000E+00  0.49495537214E+03  0.49495537214E+03  0.00000000000E+00 0.  1.
         -2   -1    0    0    0  501 -0.00000000000E+00 -0.00000000000E+00 -0.24244925003E+04  0.24244925003E+04  0.00000000000E+00 0. -1.
    2000013    1    1    2    0    0  0.63379110093E+02  0.31615782921E+03 -0.37854143652E+03  0.10722715625E+04  0.95000000000E+03 0.  0.
   -2000013    1    1    2    0    0 -0.63379110093E+02 -0.31615782921E+03 -0.15509956916E+04  0.18471763099E+04  0.95000000000E+03 0.  0.
<mgrwt>
<rscale>  0 0.21909045E+04</rscale>
<asrwt>0</asrwt>
<pdfrwt beam="1">  1        2 0.76146980E-01 0.21909045E+04</pdfrwt>
<pdfrwt beam="2">  1       -2 0.37299885E+00 0.21909045E+04</pdfrwt>
<totfact> 0.63413324E-01</totfact>
</mgrwt>
</event>
<event>
 4    1  0.1343107E-008  0.2710563E+04  0.7816531E-02  0.8331586E-01
          2   -1    0    0  501    0  0.00000000000E+00  0.00000000000E+00  0.81710144705E+03  0.81710144705E+03  0.00000000000E+00 0.  1.
         -2   -1    0    0    0  501 -0.00000000000E+00 -0.00000000000E+00 -0.22479318852E+04  0.22479318852E+04  0.00000000000E+00 0. -1.
    2000013    1    1    2    0    0 -0.26706831617E+03  0.81858208929E+03 -0.12120376192E+04  0.17643518109E+04  0.95000000000E+03 0.  0.
   -2000013    1    1    2    0    0  0.26706831617E+03 -0.81858208929E+03 -0.21879281904E+03  0.13006815214E+04  0.95000000000E+03 0.  0.
<mgrwt>
<rscale>  0 0.27105633E+04</rscale>
<asrwt>0</asrwt>
<pdfrwt beam="1">  1        2 0.12570792E+00 0.27105633E+04</pdfrwt>
<pdfrwt beam="2">  1       -2 0.34583567E+00 0.27105633E+04</pdfrwt>
<totfact> 0.48510204E-01</totfact>
</mgrwt>
</event>
<event>
 4    1  0.1343107E-008  0.2015980E+04  0.7816531E-02  0.8599186E-01
          2   -1    0    0  501    0  0.00000000000E+00  0.00000000000E+00  0.78984605225E+03  0.78984605225E+03  0.00000000000E+00 0.  1.
         -2   -1    0    0    0  501 -0.00000000000E+00 -0.00000000000E+00 -0.12863823373E+04  0.12863823373E+04  0.00000000000E+00 0. -1.
    2000013    1    1    2    0    0  0.30710811148E+03 -0.12532684787E+03 -0.30938643379E+03  0.10527308186E+04  0.95000000000E+03 0.  0.
   -2000013    1    1    2    0    0 -0.30710811148E+03  0.12532684787E+03 -0.18714985122E+03  0.10234975710E+04  0.95000000000E+03 0.  0.
<mgrwt>
<rscale>  0 0.20159802E+04</rscale>
<asrwt>0</asrwt>
<pdfrwt beam="1">  1        2 0.12151478E+00 0.20159802E+04</pdfrwt>
<pdfrwt beam="2">  1       -2 0.19790498E+00 0.20159802E+04</pdfrwt>
<totfact> 0.44609224E+00</totfact>
</mgrwt>
</event>
<event>
 4    1  0.1343107E-008  0.2302961E+04  0.7816531E-02  0.8476754E-01
         -2   -1    0    0    0  501 -0.00000000000E+00  0.00000000000E+00  0.18697240277E+04  0.18697240277E+04  0.00000000000E+00 0. -1.
          2   -1    0    0  501    0  0.00000000000E+00 -0.00000000000E+00 -0.70914610837E+03  0.70914610837E+03  0.00000000000E+00 0.  1.
    2000013    1    1    2    0    0 -0.50110583795E+03  0.78411382265E+02  0.10367416742E+04  0.14948540747E+04  0.95000000000E+03 0.  0.
   -2000013    1    1    2    0    0  0.50110583795E+03 -0.78411382265E+02  0.12383624517E+03  0.10840160614E+04  0.95000000000E+03 0.  0.
<mgrwt>
<rscale>  0 0.23029612E+04</rscale>
<asrwt>0</asrwt>
<pdfrwt beam="2">  1        2 0.10909940E+00 0.23029612E+04</pdfrwt>
<pdfrwt beam="1">  1       -2 0.28764985E+00 0.23029612E+04</pdfrwt>
<totfact> 0.13818511E+00</totfact>
</mgrwt>
</event>
<event>
 4    1  0.1343107E-008  0.2433230E+04  0.7816531E-02  0.8427167E-01
         -2   -1    0    0    0  501 -0.00000000000E+00  0.00000000000E+00  0.36868672785E+03  0.36868672785E+03  0.00000000000E+00 0. -1.
          2   -1    0    0  501    0  0.00000000000E+00 -0.00000000000E+00 -0.40146596581E+04  0.40146596581E+04  0.00000000000E+00 0.  1.
    2000013    1    1    2    0    0  0.32352041414E+03  0.60512485124E+03 -0.12342390436E+04  0.17019657931E+04  0.95000000000E+03 0.  0.
   -2000013    1    1    2    0    0 -0.32352041414E+03 -0.60512485124E+03 -0.24117338866E+04  0.26813805928E+04  0.95000000000E+03 0.  0.
<mgrwt>
<rscale>  0 0.24332297E+04</rscale>
<asrwt>0</asrwt>
<pdfrwt beam="2">  1        2 0.61763996E+00 0.24332297E+04</pdfrwt>
<pdfrwt beam="1">  1       -2 0.56721034E-01 0.24332297E+04</pdfrwt>
<totfact> 0.87397408E-01</totfact>
</mgrwt>
</event>
<event>
 4    1  0.1343107E-008  0.2783953E+04  0.7816531E-02  0.8308268E-01
          2   -1    0    0  501    0  0.00000000000E+00  0.00000000000E+00  0.20827808084E+04  0.20827808084E+04  0.00000000000E+00 0.  1.
         -2   -1    0    0    0  501 -0.00000000000E+00 -0.00000000000E+00 -0.93029411858E+03  0.93029411858E+03  0.00000000000E+00 0. -1.
    2000013    1    1    2    0    0  0.96891449793E+03  0.26144366241E+03  0.39529945629E+03  0.14373272950E+04  0.95000000000E+03 0.  0.
   -2000013    1    1    2    0    0 -0.96891449793E+03 -0.26144366241E+03  0.75718723350E+03  0.15757476319E+04  0.95000000000E+03 0.  0.
<mgrwt>
<rscale>  0 0.27839531E+04</rscale>
<asrwt>0</asrwt>
<pdfrwt beam="1">  1        2 0.32042782E+00 0.27839531E+04</pdfrwt>
<pdfrwt beam="2">  1       -2 0.14312217E+00 0.27839531E+04</pdfrwt>
<totfact> 0.17748698E+00</totfact>
</mgrwt>
</event>
<event>
 4    1  0.1343107E-008  0.2199206E+04  0.7816531E-02  0.8518759E-01
          2   -1    0    0  501    0  0.00000000000E+00  0.00000000000E+00  0.21266827995E+04  0.21266827995E+04  0.00000000000E+00 0.  1.
         -2   -1    0    0    0  501 -0.00000000000E+00 -0.00000000000E+00 -0.56855035900E+03  0.56855035900E+03  0.00000000000E+00 0. -1.
    2000013    1    1    2    0    0 -0.44220550517E+03 -0.45925089430E+02  0.37450255529E+03  0.11137355999E+04  0.95000000000E+03 0.  0.
   -2000013    1    1    2    0    0  0.44220550517E+03  0.45925089430E+02  0.11836298853E+04  0.15814975586E+04  0.95000000000E+03 0.  0.
<mgrwt>
<rscale>  0 0.21992056E+04</rscale>
<asrwt>0</asrwt>
<pdfrwt beam="1">  1        2 0.32718197E+00 0.21992056E+04</pdfrwt>
<pdfrwt beam="2">  1       -2 0.87469287E-01 0.21992056E+04</pdfrwt>
<totfact> 0.58558940E+00</totfact>
</mgrwt>
</event>
<event>
 4    1  0.1343107E-008  0.2913521E+04  0.7816531E-02  0.8268866E-01
          2   -1    0    0  501    0  0.00000000000E+00  0.00000000000E+00  0.33857905401E+04  0.33857905401E+04  0.00000000000E+00 0.  1.
         -2   -1    0    0    0  501 -0.00000000000E+00 -0.00000000000E+00 -0.62678149915E+03  0.62678149915E+03  0.00000000000E+00 0. -1.
    2000013    1    1    2    0    0  0.78511510971E+03 -0.76051009881E+03  0.15966938382E+04  0.21556234733E+04  0.95000000000E+03 0.  0.
   -2000013    1    1    2    0    0 -0.78511510971E+03  0.76051009881E+03  0.11623152028E+04  0.18569485659E+04  0.95000000000E+03 0.  0.
<mgrwt>
<rscale>  0 0.29135208E+04</rscale>
<asrwt>0</asrwt>
<pdfrwt beam="1">  1        2 0.52089084E+00 0.29135208E+04</pdfrwt>
<pdfrwt beam="2">  1       -2 0.96427925E-01 0.29135208E+04</pdfrwt>
<totfact> 0.75599638E-01</totfact>
</mgrwt>
</event>
<event>
 4    1  0.1343107E-008  0.2496466E+04  0.7816531E-02  0.8404246E-01
         -2   -1    0    0    0  501 -0.00000000000E+00  0.00000000000E+00  0.81654098605E+03  0.81654098605E+03  0.00000000000E+00 0. -1.
          2   -1    0    0  501    0  0.00000000000E+00 -0.00000000000E+00 -0.19081534129E+04  0.19081534129E+04  0.00000000000E+00 0.  1.
    2000013    1    1    2    0    0  0.63275894532E+03  0.25508174215E+03 -0.10217142897E+04  0.15530134152E+04  0.95000000000E+03 0.  0.
   -2000013    1    1    2    0    0 -0.63275894532E+03 -0.25508174215E+03 -0.69898137136E+02  0.11716809837E+04  0.95000000000E+03 0.  0.
<mgrwt>
<rscale>  0 0.24964659E+04</rscale>
<asrwt>0</asrwt>
<pdfrwt beam="2">  1        2 0.29356206E+00 0.24964659E+04</pdfrwt>
<pdfrwt beam="1">  1       -2 0.12562169E+00 0.24964659E+04</pdfrwt>
<totfact> 0.31748571E+00</totfact>
</mgrwt>
</event>
<event>
 4    1  0.1343107E-008  0.2619339E+04  0.7816531E-02  0.8361662E-01
         -2   -1    0    0    0  501 -0.00000000000E+00  0.00000000000E+00  0.38287515472E+03  0.38287515472E+03  0.00000000000E+00 0. -1.
          2   -1    0    0  501    0  0.00000000000E+00 -0.00000000000E+00 -0.44798784186E+04  0.44798784186E+04  0.00000000000E+00 0.  1.
    2000013    1    1    2    0    0 -0.34925841768E+03 -0.82547910692E+03 -0.18691138149E+04  0.22802376305E+04  0.95000000000E+03 0.  0.
   -2000013    1    1    2    0    0  0.34925841768E+03  0.82547910692E+03 -0.22278894490E+04  0.25825159429E+04  0.95000000000E+03 0.  0.
<mgrwt>
<rscale>  0 0.26193390E+04</rscale>
<asrwt>0</asrwt>
<pdfrwt beam="2">  1        2 0.68921208E+00 0.26193390E+04</pdfrwt>
<pdfrwt beam="1">  1       -2 0.58903869E-01 0.26193390E+04</pdfrwt>
<totfact> 0.30741622E-01</totfact>
</mgrwt>
</event>
<event>
 4    1  0.1343107E-008  0.2237133E+04  0.7816531E-02  0.8503130E-01
          2   -1    0    0  501    0  0.00000000000E+00  0.00000000000E+00  0.12211377015E+04  0.12211377015E+04  0.00000000000E+00 0.  1.
         -2   -1    0    0    0  501 -0.00000000000E+00 -0.00000000000E+00 -0.10246110956E+04  0.10246110956E+04  0.00000000000E+00 0. -1.
    2000013    1    1    2    0    0  0.21654669907E+03  0.54702016351E+03  0.47395616877E+02  0.11184229418E+04  0.95000000000E+03 0.  0.
   -2000013    1    1    2    0    0 -0.21654669907E+03 -0.54702016351E+03  0.14913098911E+03  0.11273258553E+04  0.95000000000E+03 0.  0.
<mgrwt>
<rscale>  0 0.22371332E+04</rscale>
<asrwt>0</asrwt>
<pdfrwt beam="1">  1        2 0.18786734E+00 0.22371332E+04</pdfrwt>
<pdfrwt beam="2">  1       -2 0.15763248E+00 0.22371332E+04</pdfrwt>
<totfact> 0.43982230E+00</totfact>
</mgrwt>
</event>
<event>
 4    1  0.1343107E-008  0.2650720E+04  0.7816531E-02  0.8351174E-01
         -2   -1    0    0    0  501 -0.00000000000E+00  0.00000000000E+00  0.87261075606E+03  0.87261075606E+03  0.00000000000E+00 0. -1.
          2   -1    0    0  501    0  0.00000000000E+00 -0.00000000000E+00 -0.20130155387E+04  0.20130155387E+04  0.00000000000E+00 0.  1.
    2000013    1    1    2    0    0  0.81629252338E+03  0.41108256541E+03 -0.42111054082E+03  0.13838917757E+04  0.95000000000E+03 0.  0.
   -2000013    1    1    2    0    0 -0.81629252338E+03 -0.41108256541E+03 -0.71929424180E+03  0.15017345190E+04  0.95000000000E+03 0.  0.
<mgrwt>
<rscale>  0 0.26507199E+04</rscale>
<asrwt>0</asrwt>
<pdfrwt beam="2">  1        2 0.30969469E+00 0.26507199E+04</pdfrwt>
<pdfrwt beam="1">  1       -2 0.13424781E+00 0.26507199E+04</pdfrwt>
<totfact> 0.23163186E+00</totfact>
</mgrwt>
</event>
<event>
 4    1  0.1343107E-008  0.2785262E+04  0.7816531E-02  0.8307859E-01
         -2   -1    0    0    0  501 -0.00000000000E+00  0.00000000000E+00  0.99210615641E+03  0.99210615641E+03  0.00000000000E+00 0. -1.
          2   -1    0    0  501    0  0.00000000000E+00 -0.00000000000E+00 -0.19548519418E+04  0.19548519418E+04  0.00000000000E+00 0.  1.
    2000013    1    1    2    0    0 -0.60944834638E+03  0.81450155656E+03 -0.43311153658E+03  0.14577124805E+04  0.95000000000E+03 0.  0.
   -2000013    1    1    2    0    0  0.60944834638E+03 -0.81450155656E+03 -0.52963424884E+03  0.14892456178E+04  0.95000000000E+03 0.  0.
<mgrwt>
<rscale>  0 0.27852617E+04</rscale>
<asrwt>0</asrwt>
<pdfrwt beam="2">  1        2 0.30074645E+00 0.27852617E+04</pdfrwt>
<pdfrwt beam="1">  1       -2 0.15263172E+00 0.27852617E+04</pdfrwt>
<totfact> 0.17643971E+00</totfact>
</mgrwt>
</event>
<event>
 4    1  0.1343107E-008  0.2935946E+04  0.7816531E-02  0.8262262E-01
         -2   -1    0    0    0  501 -0.00000000000E+00  0.00000000000E+00  0.61492675697E+03  0.61492675697E+03  0.00000000000E+00 0. -1.
          2   -1    0    0  501    0  0.00000000000E+00 -0.00000000000E+00 -0.35043921822E+04  0.35043921822E+04  0.00000000000E+00 0.  1.
    2000013    1    1    2    0    0 -0.97752135999E+03  0.10238534179E+03 -0.69384618948E+03  0.15329557404E+04  0.95000000000E+03 0.  0.
   -2000013    1    1    2    0    0  0.97752135999E+03 -0.10238534179E+03 -0.21956192358E+04  0.25863631988E+04  0.95000000000E+03 0.  0.
<mgrwt>
<rscale>  0 0.29359459E+04</rscale>
<asrwt>0</asrwt>
<pdfrwt beam="2">  1        2 0.53913726E+00 0.29359459E+04</pdfrwt>
<pdfrwt beam="1">  1       -2 0.94604116E-01 0.29359459E+04</pdfrwt>
<totfact> 0.65336801E-01</totfact>
</mgrwt>
</event>
<event>
 4    1  0.1343107E-008  0.2142249E+04  0.7816531E-02  0.8542857E-01
         -2   -1    0    0    0  501 -0.00000000000E+00  0.00000000000E+00  0.37597369912E+03  0.37597369912E+03  0.00000000000E+00 0. -1.
          2   -1    0    0  501    0  0.00000000000E+00 -0.00000000000E+00 -0.30515633333E+04  0.30515633333E+04  0.00000000000E+00 0.  1.
    2000013    1    1    2    0    0  0.40635710164E+03 -0.21945681313E+03 -0.10537371651E+04  0.14920286190E+04  0.95000000000E+03 0.  0.
   -2000013    1    1    2    0    0 -0.40635710164E+03  0.21945681313E+03 -0.16218524691E+04  0.19355084134E+04  0.95000000000E+03 0.  0.
<mgrwt>
<rscale>  0 0.21422489E+04</rscale>
<asrwt>0</asrwt>
<pdfrwt beam="2">  1        2 0.46947129E+00 0.21422489E+04</pdfrwt>
<pdfrwt beam="1">  1       -2 0.57842107E-01 0.21422489E+04</pdfrwt>
<totfact> 0.41586580E+00</totfact>
</mgrwt>
</event>
<event>
 4    1  0.1343107E-008  0.3307453E+04  0.7816531E-02  0.8161002E-01
          1   -1    0    0  501    0  0.00000000000E+00  0.00000000000E+00  0.19216059481E+04  0.19216059481E+04  0.00000000000E+00 0.  1.
         -1   -1    0    0    0  501 -0.00000000000E+00 -0.00000000000E+00 -0.14231905522E+04  0.14231905522E+04  0.00000000000E+00 0. -1.
    2000013    1    1    2    0    0 -0.61840286319E+03  0.37895923372E+03  0.14050378556E+04  0.18446310140E+04  0.95000000000E+03 0.  0.
   -2000013    1    1    2    0    0  0.61840286319E+03 -0.37895923372E+03 -0.90662245975E+03  0.15001654864E+04  0.95000000000E+03 0.  0.
<mgrwt>
<rscale>  0 0.33074531E+04</rscale>
<asrwt>0</asrwt>
<pdfrwt beam="1">  1        1 0.29563168E+00 0.33074531E+04</pdfrwt>
<pdfrwt beam="2">  1       -1 0.21895239E+00 0.33074531E+04</pdfrwt>
<totfact> 0.31238104E-01</totfact>
</mgrwt>
</event>
<event>
 4    1  0.1343107E-008  0.2170470E+04  0.7816531E-02  0.8530820E-01
          2   -1    0    0  501    0  0.00000000000E+00  0.00000000000E+00  0.99039478503E+03  0.99039478503E+03  0.00000000000E+00 0.  1.
         -2   -1    0    0    0  501 -0.00000000000E+00 -0.00000000000E+00 -0.11891575531E+04  0.11891575531E+04  0.00000000000E+00 0. -1.
    2000013    1    1    2    0    0 -0.80450128550E+02 -0.51507166299E+03 -0.15848680595E+03  0.10951662471E+04  0.95000000000E+03 0.  0.
   -2000013    1    1    2    0    0  0.80450128550E+02  0.51507166299E+03 -0.40275962106E+02  0.10843860910E+04  0.95000000000E+03 0.  0.
<mgrwt>
<rscale>  0 0.21704704E+04</rscale>
<asrwt>0</asrwt>
<pdfrwt beam="1">  1        2 0.15236843E+00 0.21704704E+04</pdfrwt>
<pdfrwt beam="2">  1       -2 0.18294731E+00 0.21704704E+04</pdfrwt>
<totfact> 0.40503340E+00</totfact>
</mgrwt>
</event>
<event>
 4    1  0.1343107E-008  0.2326401E+04  0.7816531E-02  0.8467584E-01
         -2   -1    0    0    0  501 -0.00000000000E+00  0.00000000000E+00  0.44635901361E+03  0.44635901361E+03  0.00000000000E+00 0. -1.
          2   -1    0    0  501    0  0.00000000000E+00 -0.00000000000E+00 -0.30312708745E+04  0.30312708745E+04  0.00000000000E+00 0.  1.
    2000013    1    1    2    0    0  0.34075723052E+03 -0.43056004519E+03 -0.71536159544E+03  0.13098624565E+04  0.95000000000E+03 0.  0.
   -2000013    1    1    2    0    0 -0.34075723052E+03  0.43056004519E+03 -0.18695502655E+04  0.21677674317E+04  0.95000000000E+03 0.  0.
<mgrwt>
<rscale>  0 0.23264007E+04</rscale>
<asrwt>0</asrwt>
<pdfrwt beam="2">  1        2 0.46634938E+00 0.23264007E+04</pdfrwt>
<pdfrwt beam="1">  1       -2 0.68670615E-01 0.23264007E+04</pdfrwt>
<totfact> 0.29202686E+00</totfact>
</mgrwt>
</event>
<event>
 4    1  0.1343107E-008  0.1951535E+04  0.7816531E-02  0.8629621E-01
          2   -1    0    0  501    0  0.00000000000E+00  0.00000000000E+00  0.56829284028E+03  0.56829284028E+03  0.00000000000E+00 0.  1.
         -2   -1    0    0    0  501 -0.00000000000E+00 -0.00000000000E+00 -0.16754085005E+04  0.16754085005E+04  0.00000000000E+00 0. -1.
    2000013    1    1    2    0    0 -0.95915968631E+02 -0.15647137774E+03 -0.69871076357E+03  0.11934738775E+04  0.95000000000E+03 0.  0.
   -2000013    1    1    2    0    0  0.95915968631E+02  0.15647137774E+03 -0.40840489665E+03  0.10502274633E+04  0.95000000000E+03 0.  0.
<mgrwt>
<rscale>  0 0.19515355E+04</rscale>
<asrwt>0</asrwt>
<pdfrwt beam="1">  1        2 0.87429670E-01 0.19515355E+04</pdfrwt>
<pdfrwt beam="2">  1       -2 0.25775515E+00 0.19515355E+04</pdfrwt>
<totfact> 0.28438326E+00</totfact>
</mgrwt>
</event>
<event>
 4    1  0.1343107E-008  0.2707452E+04  0.7816531E-02  0.8332591E-01
          2   -1    0    0  501    0  0.00000000000E+00  0.00000000000E+00  0.20726230992E+04  0.20726230992E+04  0.00000000000E+00 0.  1.
         -2   -1    0    0    0  501 -0.00000000000E+00 -0.00000000000E+00 -0.88418091372E+03  0.88418091372E+03  0.00000000000E+00 0. -1.
    2000013    1    1    2    0    0 -0.13288113076E+03  0.40475737897E+03 -0.35067313687E+03  0.10986162113E+04  0.95000000000E+03 0.  0.
   -2000013    1    1    2    0    0  0.13288113076E+03 -0.40475737897E+03  0.15391153224E+04  0.18581878017E+04  0.95000000000E+03 0.  0.
<mgrwt>
<rscale>  0 0.27074518E+04</rscale>
<asrwt>0</asrwt>
<pdfrwt beam="1">  1        2 0.31886509E+00 0.27074518E+04</pdfrwt>
<pdfrwt beam="2">  1       -2 0.13602783E+00 0.27074518E+04</pdfrwt>
<totfact> 0.20648464E+00</totfact>
</mgrwt>
</event>
<event>
 4    1  0.1343107E-008  0.2907647E+04  0.7816531E-02  0.8270606E-01
          2   -1    0    0  501    0  0.00000000000E+00  0.00000000000E+00  0.17085134441E+04  0.17085134441E+04  0.00000000000E+00 0.  1.
         -2   -1    0    0    0  501 -0.00000000000E+00 -0.00000000000E+00 -0.12371004570E+04  0.12371004570E+04  0.00000000000E+00 0. -1.
    2000013    1    1    2    0    0 -0.34545163173E+03  0.10325982801E+04  0.39750014902E+03  0.14987002390E+04  0.95000000000E+03 0.  0.
   -2000013    1    1    2    0    0  0.34545163173E+03 -0.10325982801E+04  0.73912838064E+02  0.14469136621E+04  0.95000000000E+03 0.  0.
<mgrwt>
<rscale>  0 0.29076470E+04</rscale>
<asrwt>0</asrwt>
<pdfrwt beam="1">  1        2 0.26284822E+00 0.29076470E+04</pdfrwt>
<pdfrwt beam="2">  1       -2 0.19032315E+00 0.29076470E+04</pdfrwt>
<totfact> 0.12905812E+00</totfact>
</mgrwt>
</event>
<event>
 4    1  0.1343107E-008  0.2970767E+04  0.7816531E-02  0.8252128E-01
         -2   -1    0    0    0  501 -0.00000000000E+00  0.00000000000E+00  0.84736417234E+03  0.84736417234E+03  0.00000000000E+00 0. -1.
          2   -1    0    0  501    0  0.00000000000E+00 -0.00000000000E+00 -0.26037966266E+04  0.26037966266E+04  0.00000000000E+00 0.  1.
    2000013    1    1    2    0    0 -0.70717803695E+03 -0.71962347230E+03 -0.25705020793E+03  0.14094444037E+04  0.95000000000E+03 0.  0.
   -2000013    1    1    2    0    0  0.70717803695E+03  0.71962347230E+03 -0.14993822463E+04  0.20417163952E+04  0.95000000000E+03 0.  0.
<mgrwt>
<rscale>  0 0.29707669E+04</rscale>
<asrwt>0</asrwt>
<pdfrwt beam="2">  1        2 0.40058410E+00 0.29707669E+04</pdfrwt>
<pdfrwt beam="1">  1       -2 0.13036372E+00 0.29707669E+04</pdfrwt>
<totfact> 0.11199899E+00</totfact>
</mgrwt>
</event>
<event>
 4    1  0.1343107E-008  0.2050101E+04  0.7816531E-02  0.8583549E-01
         -2   -1    0    0    0  501 -0.00000000000E+00  0.00000000000E+00  0.48441915706E+03  0.48441915706E+03  0.00000000000E+00 0. -1.
          2   -1    0    0  501    0  0.00000000000E+00 -0.00000000000E+00 -0.21690477293E+04  0.21690477293E+04  0.00000000000E+00 0.  1.
    2000013    1    1    2    0    0  0.86002749718E+01  0.23801387127E+03 -0.12338377615E+04  0.15753032055E+04  0.95000000000E+03 0.  0.
   -2000013    1    1    2    0    0 -0.86002749718E+01 -0.23801387127E+03 -0.45079081079E+03  0.10781636809E+04  0.95000000000E+03 0.  0.
<mgrwt>
<rscale>  0 0.20501008E+04</rscale>
<asrwt>0</asrwt>
<pdfrwt beam="2">  1        2 0.33369965E+00 0.20501008E+04</pdfrwt>
<pdfrwt beam="1">  1       -2 0.74526024E-01 0.20501008E+04</pdfrwt>
<totfact> 0.80537870E+00</totfact>
</mgrwt>
</event>
<event>
 4    1  0.1343107E-008  0.2067116E+04  0.7816531E-02  0.8575869E-01
         -2   -1    0    0    0  501 -0.00000000000E+00  0.00000000000E+00  0.44727712647E+03  0.44727712647E+03  0.00000000000E+00 0. -1.
          2   -1    0    0  501    0  0.00000000000E+00 -0.00000000000E+00 -0.23883220716E+04  0.23883220716E+04  0.00000000000E+00 0.  1.
    2000013    1    1    2    0    0  0.14609585682E+03  0.19494117189E+03 -0.52307480715E+03  0.11115094753E+04  0.95000000000E+03 0.  0.
   -2000013    1    1    2    0    0 -0.14609585682E+03 -0.19494117189E+03 -0.14179701380E+04  0.17240897228E+04  0.95000000000E+03 0.  0.
<mgrwt>
<rscale>  0 0.20671157E+04</rscale>
<asrwt>0</asrwt>
<pdfrwt beam="2">  1        2 0.36743416E+00 0.20671157E+04</pdfrwt>
<pdfrwt beam="1">  1       -2 0.68811866E-01 0.20671157E+04</pdfrwt>
<totfact> 0.71999817E+00</totfact>
</mgrwt>
</event>
<event>
 4    1  0.1343107E-008  0.2334361E+04  0.7816531E-02  0.8464495E-01
         -1   -1    0    0    0  501 -0.00000000000E+00  0.00000000000E+00  0.81449238784E+03  0.81449238784E+03  0.00000000000E+00 0. -1.
          1   -1    0    0  501    0  0.00000000000E+00 -0.00000000000E+00 -0.16725884875E+04  0.16725884875E+04  0.00000000000E+00 0.  1.
    2000013    1    1    2    0    0  0.36497935318E+02  0.52464226859E+03  0.27008744197E+02  0.10861910889E+04  0.95000000000E+03 0.  0.
   -2000013    1    1    2    0    0 -0.36497935318E+02 -0.52464226859E+03 -0.88510484390E+03  0.14008897865E+04  0.95000000000E+03 0.  0.
<mgrwt>
<rscale>  0 0.23343612E+04</rscale>
<asrwt>0</asrwt>
<pdfrwt beam="2">  1        1 0.25732130E+00 0.23343612E+04</pdfrwt>
<pdfrwt beam="1">  1       -1 0.12530652E+00 0.23343612E+04</pdfrwt>
<totfact> 0.24942356E+00</totfact>
</mgrwt>
</event>
<event>
 4    1  0.1343107E-008  0.2626103E+04  0.7816531E-02  0.8359388E-01
          2   -1    0    0  501    0  0.00000000000E+00  0.00000000000E+00  0.27266541736E+04  0.27266541736E+04  0.00000000000E+00 0.  1.
         -2   -1    0    0    0  501 -0.00000000000E+00 -0.00000000000E+00 -0.63231496526E+03  0.63231496526E+03  0.00000000000E+00 0. -1.
    2000013    1    1    2    0    0  0.17330901102E+03  0.88892956469E+03  0.10945548653E+04  0.17090295894E+04  0.95000000000E+03 0.  0.
   -2000013    1    1    2    0    0 -0.17330901102E+03 -0.88892956469E+03  0.99978434304E+03  0.16499395495E+04  0.95000000000E+03 0.  0.
<mgrwt>
<rscale>  0 0.26261030E+04</rscale>
<asrwt>0</asrwt>
<pdfrwt beam="1">  1        2 0.41948525E+00 0.26261030E+04</pdfrwt>
<pdfrwt beam="2">  1       -2 0.97279227E-01 0.26261030E+04</pdfrwt>
<totfact> 0.19914835E+00</totfact>
</mgrwt>
</event>
<event>
 4    1  0.1343107E-008  0.2904047E+04  0.7816531E-02  0.8271674E-01
          2   -1    0    0  501    0  0.00000000000E+00  0.00000000000E+00  0.19299866647E+04  0.19299866647E+04  0.00000000000E+00 0.  1.
         -2   -1    0    0    0  501 -0.00000000000E+00 -0.00000000000E+00 -0.10924284592E+04  0.10924284592E+04  0.00000000000E+00 0. -1.
    2000013    1    1    2    0    0  0.97466407310E+03 -0.35043152948E+03  0.39080005752E+02  0.14059870409E+04  0.95000000000E+03 0.  0.
   -2000013    1    1    2    0    0 -0.97466407310E+03  0.35043152948E+03  0.79847819971E+03  0.16164280830E+04  0.95000000000E+03 0.  0.
<mgrwt>
<rscale>  0 0.29040471E+04</rscale>
<asrwt>0</asrwt>
<pdfrwt beam="1">  1        2 0.29692102E+00 0.29040471E+04</pdfrwt>
<pdfrwt beam="2">  1       -2 0.16806592E+00 0.29040471E+04</pdfrwt>
<totfact> 0.13874008E+00</totfact>
</mgrwt>
</event>
<event>
 4    1  0.1343107E-008  0.2296021E+04  0.7816531E-02  0.8479492E-01
          1   -1    0    0  501    0  0.00000000000E+00  0.00000000000E+00  0.27098716736E+04  0.27098716736E+04  0.00000000000E+00 0.  1.
         -1   -1    0    0    0  501 -0.00000000000E+00 -0.00000000000E+00 -0.48634342168E+03  0.48634342168E+03  0.00000000000E+00 0. -1.
    2000013    1    1    2    0    0  0.16857460299E+03 -0.59421626106E+03  0.85538976136E+03  0.14197542060E+04  0.95000000000E+03 0.  0.
   -2000013    1    1    2    0    0 -0.16857460299E+03  0.59421626106E+03  0.13681384906E+04  0.17764608892E+04  0.95000000000E+03 0.  0.
<mgrwt>
<rscale>  0 0.22960211E+04</rscale>
<asrwt>0</asrwt>
<pdfrwt beam="1">  1        1 0.41690333E+00 0.22960211E+04</pdfrwt>
<pdfrwt beam="2">  1       -1 0.74822066E-01 0.22960211E+04</pdfrwt>
<totfact> 0.15691654E+00</totfact>
</mgrwt>
</event>
<event>
 4    1  0.1343107E-008  0.2209319E+04  0.7816531E-02  0.8514559E-01
         -2   -1    0    0    0  501 -0.00000000000E+00  0.00000000000E+00  0.39238770113E+03  0.39238770113E+03  0.00000000000E+00 0. -1.
          2   -1    0    0  501    0  0.00000000000E+00 -0.00000000000E+00 -0.31098640226E+04  0.31098640226E+04  0.00000000000E+00 0.  1.
    2000013    1    1    2    0    0  0.55454341475E+03 -0.10121075837E+03 -0.13638449679E+04  0.17550883490E+04  0.95000000000E+03 0.  0.
   -2000013    1    1    2    0    0 -0.55454341475E+03  0.10121075837E+03 -0.13536313536E+04  0.17471633747E+04  0.95000000000E+03 0.  0.
<mgrwt>
<rscale>  0 0.22093188E+04</rscale>
<asrwt>0</asrwt>
<pdfrwt beam="2">  1        2 0.47844060E+00 0.22093188E+04</pdfrwt>
<pdfrwt beam="1">  1       -2 0.60367341E-01 0.22093188E+04</pdfrwt>
<totfact> 0.34687155E+00</totfact>
</mgrwt>
</event>
<event>
 4    1  0.1343107E-008  0.2264870E+04  0.7816531E-02  0.8491903E-01
          2   -1    0    0  501    0  0.00000000000E+00  0.00000000000E+00  0.18523542387E+04  0.18523542387E+04  0.00000000000E+00 0.  1.
         -2   -1    0    0    0  501 -0.00000000000E+00 -0.00000000000E+00 -0.69231310600E+03  0.69231310600E+03  0.00000000000E+00 0. -1.
    2000013    1    1    2    0    0  0.59595766110E+03  0.94031721666E+02  0.72170051113E+03  0.13369215109E+04  0.95000000000E+03 0.  0.
   -2000013    1    1    2    0    0 -0.59595766110E+03 -0.94031721666E+02  0.43834062152E+03  0.12077458338E+04  0.95000000000E+03 0.  0.
<mgrwt>
<rscale>  0 0.22648701E+04</rscale>
<asrwt>0</asrwt>
<pdfrwt beam="1">  1        2 0.28497757E+00 0.22648701E+04</pdfrwt>
<pdfrwt beam="2">  1       -2 0.10650971E+00 0.22648701E+04</pdfrwt>
<totfact> 0.52116683E+00</totfact>
</mgrwt>
</event>
<event>
 4    1  0.1343107E-008  0.2107018E+04  0.7816531E-02  0.8558158E-01
         -2   -1    0    0    0  501 -0.00000000000E+00  0.00000000000E+00  0.75740744427E+03  0.75740744427E+03  0.00000000000E+00 0. -1.
          2   -1    0    0  501    0  0.00000000000E+00 -0.00000000000E+00 -0.14653680909E+04  0.14653680909E+04  0.00000000000E+00 0.  1.
    2000013    1    1    2    0    0 -0.54379086996E+02 -0.45197655103E+03 -0.36649871902E+03  0.11153749140E+04  0.95000000000E+03 0.  0.
   -2000013    1    1    2    0    0  0.54379086996E+02  0.45197655103E+03 -0.34146192766E+03  0.11074006212E+04  0.95000000000E+03 0.  0.
<mgrwt>
<rscale>  0 0.21070175E+04</rscale>
<asrwt>0</asrwt>
<pdfrwt beam="2">  1        2 0.22544124E+00 0.21070175E+04</pdfrwt>
<pdfrwt beam="1">  1       -2 0.11652422E+00 0.21070175E+04</pdfrwt>
<totfact> 0.69847710E+00</totfact>
</mgrwt>
</event>
<event>
 4    1  0.1343107E-008  0.2410781E+04  0.7816531E-02  0.8435478E-01
         -2   -1    0    0    0  501 -0.00000000000E+00  0.00000000000E+00  0.16763528642E+04  0.16763528642E+04  0.00000000000E+00 0. -1.
          2   -1    0    0  501    0  0.00000000000E+00 -0.00000000000E+00 -0.86674253973E+03  0.86674253973E+03  0.00000000000E+00 0.  1.
    2000013    1    1    2    0    0 -0.37582726538E+03 -0.44580776035E+03  0.88876108234E+03  0.14256180954E+04  0.95000000000E+03 0.  0.
   -2000013    1    1    2    0    0  0.37582726538E+03  0.44580776035E+03 -0.79150757837E+02  0.11174773085E+04  0.95000000000E+03 0.  0.
<mgrwt>
<rscale>  0 0.24107811E+04</rscale>
<asrwt>0</asrwt>
<pdfrwt beam="2">  1        2 0.13334501E+00 0.24107811E+04</pdfrwt>
<pdfrwt beam="1">  1       -2 0.25790044E+00 0.24107811E+04</pdfrwt>
<totfact> 0.15952459E+00</totfact>
</mgrwt>
</event>
<event>
 4    1  0.1343107E-008  0.2524361E+04  0.7816531E-02  0.8394358E-01
          2   -1    0    0  501    0  0.00000000000E+00  0.00000000000E+00  0.12622525383E+04  0.12622525383E+04  0.00000000000E+00 0.  1.
         -2   -1    0    0    0  501 -0.00000000000E+00 -0.00000000000E+00 -0.12621089098E+04  0.12621089098E+04  0.00000000000E+00 0. -1.
    2000013    1    1    2    0    0 -0.41750315315E+03  0.61827965013E+03  0.36616137554E+03  0.12622015535E+04  0.95000000000E+03 0.  0.
   -2000013    1    1    2    0    0  0.41750315315E+03 -0.61827965013E+03 -0.36601774705E+03  0.12621598947E+04  0.95000000000E+03 0.  0.
<mgrwt>
<rscale>  0 0.25243614E+04</rscale>
<asrwt>0</asrwt>
<pdfrwt beam="1">  1        2 0.19419270E+00 0.25243614E+04</pdfrwt>
<pdfrwt beam="2">  1       -2 0.19417060E+00 0.25243614E+04</pdfrwt>
<totfact> 0.22507021E+00</totfact>
</mgrwt>
</event>
<event>
 4    1  0.1343107E-008  0.3155798E+04  0.7816531E-02  0.8200589E-01
          1   -1    0    0  501    0  0.00000000000E+00  0.00000000000E+00  0.24989369781E+04  0.24989369781E+04  0.00000000000E+00 0.  1.
         -1   -1    0    0    0  501 -0.00000000000E+00 -0.00000000000E+00 -0.99632956629E+03  0.99632956629E+03  0.00000000000E+00 0. -1.
    2000013    1    1    2    0    0  0.16080039479E+03  0.11903758097E+04  0.11721998823E+04  0.19285756141E+04  0.95000000000E+03 0.  0.
   -2000013    1    1    2    0    0 -0.16080039479E+03 -0.11903758097E+04  0.33040752953E+03  0.15666909303E+04  0.95000000000E+03 0.  0.
<mgrwt>
<rscale>  0 0.31557977E+04</rscale>
<asrwt>0</asrwt>
<pdfrwt beam="1">  1        1 0.38445184E+00 0.31557977E+04</pdfrwt>
<pdfrwt beam="2">  1       -1 0.15328147E+00 0.31557977E+04</pdfrwt>
<totfact> 0.37482673E-01</totfact>
</mgrwt>
</event>
<event>
 4    1  0.1343107E-008  0.5170843E+04  0.7816531E-02  0.7802680E-01
         -2   -1    0    0    0  501 -0.00000000000E+00  0.00000000000E+00  0.14275005803E+04  0.14275005803E+04  0.00000000000E+00 0. -1.
          2   -1    0    0  501    0  0.00000000000E+00 -0.00000000000E+00 -0.46825926767E+04  0.46825926767E+04  0.00000000000E+00 0.  1.
    2000013    1    1    2    0    0  0.22672849598E+04 -0.60652887574E+03 -0.10096408988E+04  0.27258637367E+04  0.95000000000E+03 0.  0.
   -2000013    1    1    2    0    0 -0.22672849598E+04  0.60652887574E+03 -0.22454511975E+04  0.33842295204E+04  0.95000000000E+03 0.  0.
<mgrwt>
<rscale>  0 0.51708428E+04</rscale>
<asrwt>0</asrwt>
<pdfrwt beam="2">  1        2 0.72039887E+00 0.51708428E+04</pdfrwt>
<pdfrwt beam="1">  1       -2 0.21961547E+00 0.51708428E+04</pdfrwt>
<totfact> 0.56463596E-03</totfact>
</mgrwt>
</event>
<event>
 4    1  0.1343107E-008  0.4294129E+04  0.7816531E-02  0.7947705E-01
          2   -1    0    0  501    0  0.00000000000E+00  0.00000000000E+00  0.22705635910E+04  0.22705635910E+04  0.00000000000E+00 0.  1.
         -2   -1    0    0    0  501 -0.00000000000E+00 -0.00000000000E+00 -0.20302828320E+04  0.20302828320E+04  0.00000000000E+00 0. -1.
    2000013    1    1    2    0    0 -0.51723225075E+03 -0.18247617924E+04 -0.21219410402E+03  0.21318562658E+04  0.95000000000E+03 0.  0.
   -2000013    1    1    2    0    0  0.51723225075E+03  0.18247617924E+04  0.45247486307E+03  0.21689901572E+04  0.95000000000E+03 0.  0.
<mgrwt>
<rscale>  0 0.42941291E+04</rscale>
<asrwt>0</asrwt>
<pdfrwt beam="1">  1        2 0.34931748E+00 0.42941291E+04</pdfrwt>
<pdfrwt beam="2">  1       -2 0.31235120E+00 0.42941291E+04</pdfrwt>
<totfact> 0.96877392E-02</totfact>
</mgrwt>
</event>
<event>
 4    1  0.1343107E-008  0.2191189E+04  0.7816531E-02  0.8522104E-01
          2   -1    0    0  501    0  0.00000000000E+00  0.00000000000E+00  0.21126661241E+04  0.21126661241E+04  0.00000000000E+00 0.  1.
         -2   -1    0    0    0  501 -0.00000000000E+00 -0.00000000000E+00 -0.56815773852E+03  0.56815773852E+03  0.00000000000E+00 0. -1.
    2000013    1    1    2    0    0 -0.41740941125E+02 -0.53863357822E+03  0.86669969056E+03  0.13948250039E+04  0.95000000000E+03 0.  0.
   -2000013    1    1    2    0    0  0.41740941125E+02  0.53863357822E+03  0.67780869507E+03  0.12859988588E+04  0.95000000000E+03 0.  0.
<mgrwt>
<rscale>  0 0.21911893E+04</rscale>
<asrwt>0</asrwt>
<pdfrwt beam="1">  1        2 0.32502555E+00 0.21911893E+04</pdfrwt>
<pdfrwt beam="2">  1       -2 0.87408884E-01 0.21911893E+04</pdfrwt>
<totfact> 0.59760757E+00</totfact>
</mgrwt>
</event>
<event>
 4    1  0.1343107E-008  0.2353964E+04  0.7816531E-02  0.8456943E-01
          2   -1    0    0  501    0  0.00000000000E+00  0.00000000000E+00  0.14648297884E+04  0.14648297884E+04  0.00000000000E+00 0.  1.
         -2   -1    0    0    0  501 -0.00000000000E+00 -0.00000000000E+00 -0.94569772750E+03  0.94569772750E+03  0.00000000000E+00 0. -1.
    2000013    1    1    2    0    0  0.60004753437E+03  0.31033091473E+03  0.93105737993E+02  0.11694148103E+04  0.95000000000E+03 0.  0.
   -2000013    1    1    2    0    0 -0.60004753437E+03 -0.31033091473E+03  0.42602632291E+03  0.12411127056E+04  0.95000000000E+03 0.  0.
<mgrwt>
<rscale>  0 0.23539636E+04</rscale>
<asrwt>0</asrwt>
<pdfrwt beam="1">  1        2 0.22535843E+00 0.23539636E+04</pdfrwt>
<pdfrwt beam="2">  1       -2 0.14549196E+00 0.23539636E+04</pdfrwt>
<totfact> 0.38965183E+00</totfact>
</mgrwt>
</event>
<event>
 4    1  0.1343107E-008  0.2355152E+04  0.7816531E-02  0.8456487E-01
          2   -1    0    0  501    0  0.00000000000E+00  0.00000000000E+00  0.29740502041E+04  0.29740502041E+04  0.00000000000E+00 0.  1.
         -2   -1    0    0    0  501 -0.00000000000E+00 -0.00000000000E+00 -0.46626172110E+03  0.46626172110E+03  0.00000000000E+00 0. -1.
    2000013    1    1    2    0    0 -0.11655848760E+01 -0.44876649707E+03  0.20307012836E+04  0.22864033832E+04  0.95000000000E+03 0.  0.
   -2000013    1    1    2    0    0  0.11655848760E+01  0.44876649707E+03  0.47708719939E+03  0.11539085420E+04  0.95000000000E+03 0.  0.
<mgrwt>
<rscale>  0 0.23551525E+04</rscale>
<asrwt>0</asrwt>
<pdfrwt beam="1">  1        2 0.45754617E+00 0.23551525E+04</pdfrwt>
<pdfrwt beam="2">  1       -2 0.71732574E-01 0.23551525E+04</pdfrwt>
<totfact> 0.28758381E+00</totfact>
</mgrwt>
</event>
<event>
 4    1  0.1343107E-008  0.2007230E+04  0.7816531E-02  0.8603248E-01
         -2   -1    0    0    0  501 -0.00000000000E+00  0.00000000000E+00  0.48117528137E+03  0.48117528137E+03  0.00000000000E+00 0. -1.
          2   -1    0    0  501    0  0.00000000000E+00 -0.00000000000E+00 -0.20932982628E+04  0.20932982628E+04  0.00000000000E+00 0.  1.
    2000013    1    1    2    0    0  0.32220651580E+03  0.14518148095E+02 -0.77175187798E+03  0.12657522572E+04  0.95000000000E+03 0.  0.
   -2000013    1    1    2    0    0 -0.32220651580E+03 -0.14518148095E+02 -0.84037110346E+03  0.13087212870E+04  0.95000000000E+03 0.  0.
<mgrwt>
<rscale>  0 0.20072303E+04</rscale>
<asrwt>0</asrwt>
<pdfrwt beam="2">  1        2 0.32204588E+00 0.20072303E+04</pdfrwt>
<pdfrwt beam="1">  1       -2 0.74026968E-01 0.20072303E+04</pdfrwt>
<totfact> 0.90449693E+00</totfact>
</mgrwt>
</event>
<event>
 4    1  0.1343107E-008  0.3941109E+04  0.7816531E-02  0.8016533E-01
          1   -1    0    0  501    0  0.00000000000E+00  0.00000000000E+00  0.41568913783E+04  0.41568913783E+04  0.00000000000E+00 0.  1.
         -1   -1    0    0    0  501 -0.00000000000E+00 -0.00000000000E+00 -0.93413203022E+03  0.93413203022E+03  0.00000000000E+00 0. -1.
    2000013    1    1    2    0    0 -0.12931069208E+04  0.68430659035E+03  0.42731908560E+03  0.17959684349E+04  0.95000000000E+03 0.  0.
   -2000013    1    1    2    0    0  0.12931069208E+04 -0.68430659035E+03  0.27954402625E+04  0.32950549736E+04  0.95000000000E+03 0.  0.
<mgrwt>
<rscale>  0 0.39411092E+04</rscale>
<asrwt>0</asrwt>
<pdfrwt beam="1">  1        1 0.63952174E+00 0.39411092E+04</pdfrwt>
<pdfrwt beam="2">  1       -1 0.14371262E+00 0.39411092E+04</pdfrwt>
<totfact> 0.21247235E-02</totfact>
</mgrwt>
</event>
<event>
 4    1  0.1343107E-008  0.3528417E+04  0.7816531E-02  0.8107088E-01
         -2   -1    0    0    0  501 -0.00000000000E+00  0.00000000000E+00  0.13866156815E+04  0.13866156815E+04  0.00000000000E+00 0. -1.
          2   -1    0    0  501    0  0.00000000000E+00 -0.00000000000E+00 -0.22446249450E+04  0.22446249450E+04  0.00000000000E+00 0.  1.
    2000013    1    1    2    0    0 -0.95215144095E+03  0.11355057197E+04 -0.30738056292E+03  0.17868823175E+04  0.95000000000E+03 0.  0.
   -2000013    1    1    2    0    0  0.95215144095E+03 -0.11355057197E+04 -0.55062870062E+03  0.18443583090E+04  0.95000000000E+03 0.  0.
<mgrwt>
<rscale>  0 0.35284173E+04</rscale>
<asrwt>0</asrwt>
<pdfrwt beam="2">  1        2 0.34532691E+00 0.35284173E+04</pdfrwt>
<pdfrwt beam="1">  1       -2 0.21332549E+00 0.35284173E+04</pdfrwt>
<totfact> 0.43549994E-01</totfact>
</mgrwt>
</event>
<event>
 4    1  0.1343107E-008  0.2715214E+04  0.7816531E-02  0.8330085E-01
         -2   -1    0    0    0  501 -0.00000000000E+00  0.00000000000E+00  0.71503480657E+03  0.71503480657E+03  0.00000000000E+00 0. -1.
          2   -1    0    0  501    0  0.00000000000E+00 -0.00000000000E+00 -0.25776325571E+04  0.25776325571E+04  0.00000000000E+00 0.  1.
    2000013    1    1    2    0    0 -0.23745727098E+03  0.93262984969E+03 -0.10768833308E+04  0.17286879708E+04  0.95000000000E+03 0.  0.
   -2000013    1    1    2    0    0  0.23745727098E+03 -0.93262984969E+03 -0.78571441972E+03  0.15639793929E+04  0.95000000000E+03 0.  0.
<mgrwt>
<rscale>  0 0.27152142E+04</rscale>
<asrwt>0</asrwt>
<pdfrwt beam="2">  1        2 0.39655885E+00 0.27152142E+04</pdfrwt>
<pdfrwt beam="1">  1       -2 0.11000536E+00 0.27152142E+04</pdfrwt>
<totfact> 0.18049880E+00</totfact>
</mgrwt>
</event>
<event>
 4    1  0.1343107E-008  0.2601732E+04  0.7816531E-02  0.8367613E-01
         -1   -1    0    0    0  501 -0.00000000000E+00  0.00000000000E+00  0.84044479897E+03  0.84044479897E+03  0.00000000000E+00 0. -1.
          1   -1    0    0  501    0  0.00000000000E+00 -0.00000000000E+00 -0.20135196864E+04  0.20135196864E+04  0.00000000000E+00 0.  1.
    2000013    1    1    2    0    0 -0.61094421002E+03 -0.60603831205E+03 -0.34318086458E+03  0.13269545468E+04  0.95000000000E+03 0.  0.
   -2000013    1    1    2    0    0  0.61094421002E+03  0.60603831205E+03 -0.82989402289E+03  0.15270099386E+04  0.95000000000E+03 0.  0.
<mgrwt>
<rscale>  0 0.26017318E+04</rscale>
<asrwt>0</asrwt>
<pdfrwt beam="2">  1        1 0.30977226E+00 0.26017318E+04</pdfrwt>
<pdfrwt beam="1">  1       -1 0.12929920E+00 0.26017318E+04</pdfrwt>
<totfact> 0.13207216E+00</totfact>
</mgrwt>
</event>
<event>
 4    1  0.1343107E-008  0.3445278E+04  0.7816531E-02  0.8126882E-01
          2   -1    0    0  501    0  0.00000000000E+00  0.00000000000E+00  0.23979597174E+04  0.23979597174E+04  0.00000000000E+00 0.  1.
         -2   -1    0    0    0  501 -0.00000000000E+00 -0.00000000000E+00 -0.12375041314E+04  0.12375041314E+04  0.00000000000E+00 0. -1.
    2000013    1    1    2    0    0 -0.79800373829E+03  0.38862022945E+03  0.17727223833E+04  0.21983812902E+04  0.95000000000E+03 0.  0.
   -2000013    1    1    2    0    0  0.79800373829E+03 -0.38862022945E+03 -0.61226679725E+03  0.14370825585E+04  0.95000000000E+03 0.  0.
<mgrwt>
<rscale>  0 0.34452780E+04</rscale>
<asrwt>0</asrwt>
<pdfrwt beam="1">  1        2 0.36891688E+00 0.34452780E+04</pdfrwt>
<pdfrwt beam="2">  1       -2 0.19038525E+00 0.34452780E+04</pdfrwt>
<totfact> 0.50692011E-01</totfact>
</mgrwt>
</event>
<event>
 4    1  0.1343107E-008  0.2868609E+04  0.7816531E-02  0.8282279E-01
          2   -1    0    0  501    0  0.00000000000E+00  0.00000000000E+00  0.28134240206E+04  0.28134240206E+04  0.00000000000E+00 0.  1.
         -2   -1    0    0    0  501 -0.00000000000E+00 -0.00000000000E+00 -0.73121894438E+03  0.73121894438E+03  0.00000000000E+00 0. -1.
    2000013    1    1    2    0    0  0.27593914376E+03 -0.97536171032E+03  0.60030370673E+03  0.15133860768E+04  0.95000000000E+03 0.  0.
   -2000013    1    1    2    0    0 -0.27593914376E+03  0.97536171032E+03  0.14819013695E+04  0.20312568882E+04  0.95000000000E+03 0.  0.
<mgrwt>
<rscale>  0 0.28686087E+04</rscale>
<asrwt>0</asrwt>
<pdfrwt beam="1">  1        2 0.43283446E+00 0.28686087E+04</pdfrwt>
<pdfrwt beam="2">  1       -2 0.11249522E+00 0.28686087E+04</pdfrwt>
<totfact> 0.12212994E+00</totfact>
</mgrwt>
</event>
<event>
 4    1  0.1343107E-008  0.2049280E+04  0.7816531E-02  0.8583921E-01
         -2   -1    0    0    0  501 -0.00000000000E+00  0.00000000000E+00  0.52441531555E+03  0.52441531555E+03  0.00000000000E+00 0.  1.
          2   -1    0    0  501    0  0.00000000000E+00 -0.00000000000E+00 -0.20020141115E+04  0.20020141115E+04  0.00000000000E+00 0. -1.
    2000013    1    1    2    0    0 -0.36250588397E+03 -0.12626901104E+03 -0.74582581284E+03  0.12673241583E+04  0.95000000000E+03 0.  0.
   -2000013    1    1    2    0    0  0.36250588397E+03  0.12626901104E+03 -0.73177298312E+03  0.12591052688E+04  0.95000000000E+03 0.  0.
<mgrwt>
<rscale>  0 0.20492797E+04</rscale>
<asrwt>0</asrwt>
<pdfrwt beam="2">  1        2 0.30800218E+00 0.20492797E+04</pdfrwt>
<pdfrwt beam="1">  1       -2 0.80679278E-01 0.20492797E+04</pdfrwt>
<totfact> 0.83624623E+00</totfact>
</mgrwt>
</event>
<event>
 4    1  0.1343107E-008  0.3115228E+04  0.7816531E-02  0.8211571E-01
          2   -1    0    0  501    0  0.00000000000E+00  0.00000000000E+00  0.15086650803E+04  0.15086650803E+04  0.00000000000E+00 0.  1.
         -2   -1    0    0    0  501 -0.00000000000E+00 -0.00000000000E+00 -0.16081508731E+04  0.16081508731E+04  0.00000000000E+00 0. -1.
    2000013    1    1    2    0    0  0.17867678209E+03 -0.12172324324E+04  0.50711870757E+02  0.15552015563E+04  0.95000000000E+03 0.  0.
   -2000013    1    1    2    0    0 -0.17867678209E+03  0.12172324324E+04 -0.15019766364E+03  0.15616143971E+04  0.95000000000E+03 0.  0.
<mgrwt>
<rscale>  0 0.31152278E+04</rscale>
<asrwt>0</asrwt>
<pdfrwt beam="1">  1        2 0.23210232E+00 0.31152278E+04</pdfrwt>
<pdfrwt beam="2">  1       -2 0.24740783E+00 0.31152278E+04</pdfrwt>
<totfact> 0.70958689E-01</totfact>
</mgrwt>
</event>
<event>
 4    1  0.1343107E-008  0.2974918E+04  0.7816531E-02  0.8250930E-01
          1   -1    0    0  501    0  0.00000000000E+00  0.00000000000E+00  0.24414952986E+04  0.24414952986E+04  0.00000000000E+00 0. -1.
         -1   -1    0    0    0  501 -0.00000000000E+00 -0.00000000000E+00 -0.90622122343E+03  0.90622122343E+03  0.00000000000E+00 0.  1.
    2000013    1    1    2    0    0 -0.51899564368E+03  0.29348074474E+02  0.19151354424E+04  0.22001048953E+04  0.95000000000E+03 0.  0.
   -2000013    1    1    2    0    0  0.51899564368E+03 -0.29348074474E+02 -0.37986136718E+03  0.11476116268E+04  0.95000000000E+03 0.  0.
<mgrwt>
<rscale>  0 0.29749184E+04</rscale>
<asrwt>0</asrwt>
<pdfrwt beam="1">  1        1 0.37561466E+00 0.29749184E+04</pdfrwt>
<pdfrwt beam="2">  1       -1 0.13941865E+00 0.29749184E+04</pdfrwt>
<totfact> 0.53732505E-01</totfact>
</mgrwt>
</event>
<event>
 4    1  0.1343107E-008  0.2616358E+04  0.7816531E-02  0.8362666E-01
          2   -1    0    0  501    0  0.00000000000E+00  0.00000000000E+00  0.13770942908E+04  0.13770942908E+04  0.00000000000E+00 0.  1.
         -2   -1    0    0    0  501 -0.00000000000E+00 -0.00000000000E+00 -0.12427125263E+04  0.12427125263E+04  0.00000000000E+00 0. -1.
    2000013    1    1    2    0    0 -0.23191685272E+03 -0.26556333439E+03  0.89564053887E+03  0.13523983459E+04  0.95000000000E+03 0.  0.
   -2000013    1    1    2    0    0  0.23191685272E+03  0.26556333439E+03 -0.76125877435E+03  0.12674084711E+04  0.95000000000E+03 0.  0.
<mgrwt>
<rscale>  0 0.26163580E+04</rscale>
<asrwt>0</asrwt>
<pdfrwt beam="1">  1        2 0.21186066E+00 0.26163580E+04</pdfrwt>
<pdfrwt beam="2">  1       -2 0.19118654E+00 0.26163580E+04</pdfrwt>
<totfact> 0.20053734E+00</totfact>
</mgrwt>
</event>
<event>
 4    1  0.1343107E-008  0.2302969E+04  0.7816531E-02  0.8476751E-01
          2   -1    0    0  501    0  0.00000000000E+00  0.00000000000E+00  0.11202991271E+04  0.11202991271E+04  0.00000000000E+00 0.  1.
         -2   -1    0    0    0  501 -0.00000000000E+00 -0.00000000000E+00 -0.11835381216E+04  0.11835381216E+04  0.00000000000E+00 0. -1.
    2000013    1    1    2    0    0  0.37115855372E+03  0.53416445348E+03 -0.49692551305E+02  0.11524147192E+04  0.95000000000E+03 0.  0.
   -2000013    1    1    2    0    0 -0.37115855372E+03 -0.53416445348E+03 -0.13546443187E+02  0.11514225295E+04  0.95000000000E+03 0.  0.
<mgrwt>
<rscale>  0 0.23029691E+04</rscale>
<asrwt>0</asrwt>
<pdfrwt beam="1">  1        2 0.17235371E+00 0.23029691E+04</pdfrwt>
<pdfrwt beam="2">  1       -2 0.18208279E+00 0.23029691E+04</pdfrwt>
<totfact> 0.33656812E+00</totfact>
</mgrwt>
</event>
<event>
 4    1  0.1343107E-008  0.3644525E+04  0.7816531E-02  0.8080368E-01
          2   -1    0    0  501    0  0.00000000000E+00  0.00000000000E+00  0.17713230491E+04  0.17713230491E+04  0.00000000000E+00 0.  1.
         -2   -1    0    0    0  501 -0.00000000000E+00 -0.00000000000E+00 -0.18746668649E+04  0.18746668649E+04  0.00000000000E+00 0. -1.
    2000013    1    1    2    0    0  0.14678336829E+03 -0.10864679980E+04  0.10515780365E+04  0.17917238724E+04  0.95000000000E+03 0.  0.
   -2000013    1    1    2    0    0 -0.14678336829E+03  0.10864679980E+04 -0.11549218524E+04  0.18542660416E+04  0.95000000000E+03 0.  0.
<mgrwt>
<rscale>  0 0.36445250E+04</rscale>
<asrwt>0</asrwt>
<pdfrwt beam="1">  1        2 0.27251124E+00 0.36445250E+04</pdfrwt>
<pdfrwt beam="2">  1       -2 0.28841029E+00 0.36445250E+04</pdfrwt>
<totfact> 0.27198024E-01</totfact>
</mgrwt>
</event>
<event>
 4    1  0.1343107E-008  0.3912970E+04  0.7816531E-02  0.8022337E-01
          2   -1    0    0  501    0  0.00000000000E+00  0.00000000000E+00  0.25127675606E+04  0.25127675606E+04  0.00000000000E+00 0.  1.
         -2   -1    0    0    0  501 -0.00000000000E+00 -0.00000000000E+00 -0.15233535652E+04  0.15233535652E+04  0.00000000000E+00 0. -1.
    2000013    1    1    2    0    0 -0.57854453395E+03 -0.13693206783E+04 -0.37783619851E+03  0.18041654832E+04  0.95000000000E+03 0.  0.
   -2000013    1    1    2    0    0  0.57854453395E+03  0.13693206783E+04  0.13672501940E+04  0.22319556426E+04  0.95000000000E+03 0.  0.
<mgrwt>
<rscale>  0 0.39129699E+04</rscale>
<asrwt>0</asrwt>
<pdfrwt beam="1">  1        2 0.38657962E+00 0.39129699E+04</pdfrwt>
<pdfrwt beam="2">  1       -2 0.23436209E+00 0.39129699E+04</pdfrwt>
<totfact> 0.21830558E-01</totfact>
</mgrwt>
</event>
<event>
 4    1  0.1343107E-008  0.2412450E+04  0.7816531E-02  0.8434857E-01
         -2   -1    0    0    0  501 -0.00000000000E+00  0.00000000000E+00  0.78734689565E+03  0.78734689565E+03  0.00000000000E+00 0. -1.
          2   -1    0    0  501    0  0.00000000000E+00 -0.00000000000E+00 -0.18479520360E+04  0.18479520360E+04  0.00000000000E+00 0.  1.
    2000013    1    1    2    0    0  0.17231271269E+03 -0.56747678775E+03 -0.10197517601E+04  0.15146336943E+04  0.95000000000E+03 0.  0.
   -2000013    1    1    2    0    0 -0.17231271269E+03  0.56747678775E+03 -0.40853380235E+02  0.11206652374E+04  0.95000000000E+03 0.  0.
<mgrwt>
<rscale>  0 0.24124505E+04</rscale>
<asrwt>0</asrwt>
<pdfrwt beam="2">  1        2 0.28430031E+00 0.24124505E+04</pdfrwt>
<pdfrwt beam="1">  1       -2 0.12113029E+00 0.24124505E+04</pdfrwt>
<totfact> 0.37821883E+00</totfact>
</mgrwt>
</event>
<event>
 4    1  0.1343107E-008  0.2036281E+04  0.7816531E-02  0.8589843E-01
         -2   -1    0    0    0  501 -0.00000000000E+00  0.00000000000E+00  0.13680143437E+04  0.13680143437E+04  0.00000000000E+00 0. -1.
          2   -1    0    0  501    0  0.00000000000E+00 -0.00000000000E+00 -0.75774824665E+03  0.75774824665E+03  0.00000000000E+00 0.  1.
    2000013    1    1    2    0    0 -0.10578035291E+03  0.33763765489E+03  0.40373902554E+03  0.10911891998E+04  0.95000000000E+03 0.  0.
   -2000013    1    1    2    0    0  0.10578035291E+03 -0.33763765489E+03  0.20652707146E+03  0.10345733905E+04  0.95000000000E+03 0.  0.
<mgrwt>
<rscale>  0 0.20362814E+04</rscale>
<asrwt>0</asrwt>
<pdfrwt beam="2">  1        2 0.11657665E+00 0.20362814E+04</pdfrwt>
<pdfrwt beam="1">  1       -2 0.21046374E+00 0.20362814E+04</pdfrwt>
<totfact> 0.38959409E+00</totfact>
</mgrwt>
</event>
<event>
 4    1  0.1343107E-008  0.2504408E+04  0.7816531E-02  0.8401417E-01
          2   -1    0    0  501    0  0.00000000000E+00  0.00000000000E+00  0.10924139566E+04  0.10924139566E+04  0.00000000000E+00 0.  1.
         -2   -1    0    0    0  501 -0.00000000000E+00 -0.00000000000E+00 -0.14353664147E+04  0.14353664147E+04  0.00000000000E+00 0. -1.
    2000013    1    1    2    0    0  0.10231471285E+03  0.73981668388E+03 -0.50274234582E+03  0.13088341730E+04  0.95000000000E+03 0.  0.
   -2000013    1    1    2    0    0 -0.10231471285E+03 -0.73981668388E+03  0.15978988769E+03  0.12189461983E+04  0.95000000000E+03 0.  0.
<mgrwt>
<rscale>  0 0.25044076E+04</rscale>
<asrwt>0</asrwt>
<pdfrwt beam="1">  1        2 0.16806368E+00 0.25044076E+04</pdfrwt>
<pdfrwt beam="2">  1       -2 0.22082560E+00 0.25044076E+04</pdfrwt>
<totfact> 0.19171456E+00</totfact>
</mgrwt>
</event>
<event>
 4    1  0.1343107E-008  0.2295456E+04  0.7816531E-02  0.8479715E-01
         -1   -1    0    0    0  501 -0.00000000000E+00  0.00000000000E+00  0.61240499332E+03  0.61240499332E+03  0.00000000000E+00 0. -1.
          1   -1    0    0  501    0  0.00000000000E+00 -0.00000000000E+00 -0.21509933901E+04  0.21509933901E+04  0.00000000000E+00 0.  1.
    2000013    1    1    2    0    0  0.29238231078E+03  0.51922309382E+03 -0.10634370751E+04  0.15454703004E+04  0.95000000000E+03 0.  0.
   -2000013    1    1    2    0    0 -0.29238231078E+03 -0.51922309382E+03 -0.47515132168E+03  0.12179280830E+04  0.95000000000E+03 0.  0.
<mgrwt>
<rscale>  0 0.22954556E+04</rscale>
<asrwt>0</asrwt>
<pdfrwt beam="2">  1        1 0.33092206E+00 0.22954556E+04</pdfrwt>
<pdfrwt beam="1">  1       -1 0.94216153E-01 0.22954556E+04</pdfrwt>
<totfact> 0.23202801E+00</totfact>
</mgrwt>
</event>
<event>
 4    1  0.1343107E-008  0.3602764E+04  0.7816531E-02  0.8089859E-01
         -2   -1    0    0    0  501 -0.00000000000E+00  0.00000000000E+00  0.12333613327E+04  0.12333613327E+04  0.00000000000E+00 0. -1.
          2   -1    0    0  501    0  0.00000000000E+00 -0.00000000000E+00 -0.26310021954E+04  0.26310021954E+04  0.00000000000E+00 0.  1.
    2000013    1    1    2    0    0  0.10528504510E+04 -0.53664116355E+02  0.49129561182E+03  0.15017474115E+04  0.95000000000E+03 0.  0.
   -2000013    1    1    2    0    0 -0.10528504510E+04  0.53664116355E+02 -0.18889364745E+04  0.23626161166E+04  0.95000000000E+03 0.  0.
<mgrwt>
<rscale>  0 0.36027636E+04</rscale>
<asrwt>0</asrwt>
<pdfrwt beam="2">  1        2 0.40476957E+00 0.36027636E+04</pdfrwt>
<pdfrwt beam="1">  1       -2 0.18974790E+00 0.36027636E+04</pdfrwt>
<totfact> 0.36990837E-01</totfact>
</mgrwt>
</event>
<event>
 4    1  0.1343107E-008  0.3360291E+04  0.7816531E-02  0.8147721E-01
         -2   -1    0    0    0  501 -0.00000000000E+00  0.00000000000E+00  0.14831991520E+04  0.14831991520E+04  0.00000000000E+00 0. -1.
          2   -1    0    0  501    0  0.00000000000E+00 -0.00000000000E+00 -0.19032439003E+04  0.19032439003E+04  0.00000000000E+00 0.  1.
    2000013    1    1    2    0    0  0.87274436251E+03  0.10763828049E+04 -0.19959418398E+03  0.16919280431E+04  0.95000000000E+03 0.  0.
   -2000013    1    1    2    0    0 -0.87274436251E+03 -0.10763828049E+04 -0.22045056432E+03  0.16945150091E+04  0.95000000000E+03 0.  0.
<mgrwt>
<rscale>  0 0.33602915E+04</rscale>
<asrwt>0</asrwt>
<pdfrwt beam="2">  1        2 0.29280675E+00 0.33602915E+04</pdfrwt>
<pdfrwt beam="1">  1       -2 0.22818449E+00 0.33602915E+04</pdfrwt>
<totfact> 0.55166234E-01</totfact>
</mgrwt>
</event>
<event>
 4    1  0.1343107E-008  0.2175687E+04  0.7816531E-02  0.8528616E-01
         -1   -1    0    0    0  501 -0.00000000000E+00  0.00000000000E+00  0.10941347528E+04  0.10941347528E+04  0.00000000000E+00 0. -1.
          1   -1    0    0  501    0  0.00000000000E+00 -0.00000000000E+00 -0.10815881910E+04  0.10815881910E+04  0.00000000000E+00 0.  1.
    2000013    1    1    2    0    0  0.39383983898E+03  0.22636176330E+03 -0.26677660576E+03  0.10862868977E+04  0.95000000000E+03 0.  0.
   -2000013    1    1    2    0    0 -0.39383983898E+03 -0.22636176330E+03  0.27932316759E+03  0.10894360461E+04  0.95000000000E+03 0.  0.
<mgrwt>
<rscale>  0 0.21756868E+04</rscale>
<asrwt>0</asrwt>
<pdfrwt beam="2">  1        1 0.16639818E+00 0.21756868E+04</pdfrwt>
<pdfrwt beam="1">  1       -1 0.16832842E+00 0.21756868E+04</pdfrwt>
<totfact> 0.30282217E+00</totfact>
</mgrwt>
</event>
<event>
 4    1  0.1343107E-008  0.2358315E+04  0.7816531E-02  0.8455277E-01
          2   -1    0    0  501    0  0.00000000000E+00  0.00000000000E+00  0.10272967377E+04  0.10272967377E+04  0.00000000000E+00 0.  1.
         -2   -1    0    0    0  501 -0.00000000000E+00 -0.00000000000E+00 -0.13534670534E+04  0.13534670534E+04  0.00000000000E+00 0. -1.
    2000013    1    1    2    0    0  0.34093611330E+03  0.56332312866E+03  0.72247367654E+02  0.11581407785E+04  0.95000000000E+03 0.  0.
   -2000013    1    1    2    0    0 -0.34093611330E+03 -0.56332312866E+03 -0.39841768334E+03  0.12226230126E+04  0.95000000000E+03 0.  0.
<mgrwt>
<rscale>  0 0.23583149E+04</rscale>
<asrwt>0</asrwt>
<pdfrwt beam="1">  1        2 0.15804565E+00 0.23583149E+04</pdfrwt>
<pdfrwt beam="2">  1       -2 0.20822570E+00 0.23583149E+04</pdfrwt>
<totfact> 0.25661807E+00</totfact>
</mgrwt>
</event>
<event>
 4    1  0.1343107E-008  0.2191919E+04  0.7816531E-02  0.8521799E-01
          2   -1    0    0  501    0  0.00000000000E+00  0.00000000000E+00  0.69582687479E+03  0.69582687479E+03  0.00000000000E+00 0.  1.
         -2   -1    0    0    0  501 -0.00000000000E+00 -0.00000000000E+00 -0.17261871631E+04  0.17261871631E+04  0.00000000000E+00 0. -1.
    2000013    1    1    2    0    0 -0.18065803041E+03  0.49351994103E+03 -0.34969882656E+03  0.11406088398E+04  0.95000000000E+03 0.  0.
   -2000013    1    1    2    0    0  0.18065803041E+03 -0.49351994103E+03 -0.68066146174E+03  0.12814051981E+04  0.95000000000E+03 0.  0.
<mgrwt>
<rscale>  0 0.21919192E+04</rscale>
<asrwt>0</asrwt>
<pdfrwt beam="1">  1        2 0.10705029E+00 0.21919192E+04</pdfrwt>
<pdfrwt beam="2">  1       -2 0.26556725E+00 0.21919192E+04</pdfrwt>
<totfact> 0.19479355E+00</totfact>
</mgrwt>
</event>
<event>
 4    1  0.1343107E-008  0.2358421E+04  0.7816531E-02  0.8455236E-01
          1   -1    0    0  501    0  0.00000000000E+00  0.00000000000E+00  0.19990780270E+04  0.19990780270E+04  0.00000000000E+00 0. -1.
         -1   -1    0    0    0  501 -0.00000000000E+00 -0.00000000000E+00 -0.69558906667E+03  0.69558906667E+03  0.00000000000E+00 0.  1.
    2000013    1    1    2    0    0  0.33072892409E+03 -0.59425365646E+03  0.83426235473E+03  0.14356227589E+04  0.95000000000E+03 0.  0.
   -2000013    1    1    2    0    0 -0.33072892409E+03  0.59425365646E+03  0.46922660561E+03  0.12590443347E+04  0.95000000000E+03 0.  0.
<mgrwt>
<rscale>  0 0.23584205E+04</rscale>
<asrwt>0</asrwt>
<pdfrwt beam="1">  1        1 0.30755046E+00 0.23584205E+04</pdfrwt>
<pdfrwt beam="2">  1       -1 0.10701370E+00 0.23584205E+04</pdfrwt>
<totfact> 0.21852054E+00</totfact>
</mgrwt>
</event>
<event>
 4    1  0.1343107E-008  0.2450030E+04  0.7816531E-02  0.8421007E-01
         -2   -1    0    0    0  501 -0.00000000000E+00  0.00000000000E+00  0.95058042495E+03  0.95058042495E+03  0.00000000000E+00 0. -1.
          2   -1    0    0  501    0  0.00000000000E+00 -0.00000000000E+00 -0.15786800267E+04  0.15786800267E+04  0.00000000000E+00 0.  1.
    2000013    1    1    2    0    0  0.33590851597E+03 -0.69540100322E+03 -0.35717689300E+03  0.12753401191E+04  0.95000000000E+03 0.  0.
   -2000013    1    1    2    0    0 -0.33590851597E+03  0.69540100322E+03 -0.27092270875E+03  0.12539203326E+04  0.95000000000E+03 0.  0.
<mgrwt>
<rscale>  0 0.24500305E+04</rscale>
<asrwt>0</asrwt>
<pdfrwt beam="2">  1        2 0.24287385E+00 0.24500305E+04</pdfrwt>
<pdfrwt beam="1">  1       -2 0.14624314E+00 0.24500305E+04</pdfrwt>
<totfact> 0.32896758E+00</totfact>
</mgrwt>
</event>
<event>
 4    1  0.1343107E-008  0.3295313E+04  0.7816531E-02  0.8164089E-01
          2   -1    0    0  501    0  0.00000000000E+00  0.00000000000E+00  0.10115468049E+04  0.10115468049E+04  0.00000000000E+00 0.  1.
         -2   -1    0    0    0  501 -0.00000000000E+00 -0.00000000000E+00 -0.26837835146E+04  0.26837835146E+04  0.00000000000E+00 0. -1.
    2000013    1    1    2    0    0  0.20690699886E+03  0.13289591338E+04 -0.90082704297E+03  0.18769475877E+04  0.95000000000E+03 0.  0.
   -2000013    1    1    2    0    0 -0.20690699886E+03 -0.13289591338E+04 -0.77140966671E+03  0.18183827318E+04  0.95000000000E+03 0.  0.
<mgrwt>
<rscale>  0 0.32953134E+04</rscale>
<asrwt>0</asrwt>
<pdfrwt beam="1">  1        2 0.15562258E+00 0.32953134E+04</pdfrwt>
<pdfrwt beam="2">  1       -2 0.41288977E+00 0.32953134E+04</pdfrwt>
<totfact> 0.12624817E-01</totfact>
</mgrwt>
</event>
<event>
 4    1  0.1343107E-008  0.2486963E+04  0.7816531E-02  0.8407645E-01
         -2   -1    0    0    0  501 -0.00000000000E+00  0.00000000000E+00  0.90917190073E+03  0.90917190073E+03  0.00000000000E+00 0. -1.
          2   -1    0    0  501    0  0.00000000000E+00 -0.00000000000E+00 -0.17007192340E+04  0.17007192340E+04  0.00000000000E+00 0.  1.
    2000013    1    1    2    0    0 -0.68850282398E+03  0.31095252040E+03 -0.11219756669E+03  0.12189404836E+04  0.95000000000E+03 0.  0.
   -2000013    1    1    2    0    0  0.68850282398E+03 -0.31095252040E+03 -0.67934976661E+03  0.13909506512E+04  0.95000000000E+03 0.  0.
<mgrwt>
<rscale>  0 0.24869629E+04</rscale>
<asrwt>0</asrwt>
<pdfrwt beam="2">  1        2 0.26164911E+00 0.24869629E+04</pdfrwt>
<pdfrwt beam="1">  1       -2 0.13987260E+00 0.24869629E+04</pdfrwt>
<totfact> 0.31498207E+00</totfact>
</mgrwt>
</event>
<event>
 4    1  0.1343107E-008  0.2285100E+04  0.7816531E-02  0.8483819E-01
         -2   -1    0    0    0  501 -0.00000000000E+00  0.00000000000E+00  0.45929288282E+03  0.45929288282E+03  0.00000000000E+00 0. -1.
          2   -1    0    0  501    0  0.00000000000E+00 -0.00000000000E+00 -0.28422404747E+04  0.28422404747E+04  0.00000000000E+00 0.  1.
    2000013    1    1    2    0    0  0.12572835191E+03  0.15045042375E+03 -0.20637339024E+04  0.22803378189E+04  0.95000000000E+03 0.  0.
   -2000013    1    1    2    0    0 -0.12572835191E+03 -0.15045042375E+03 -0.31921368947E+03  0.10211955386E+04  0.95000000000E+03 0.  0.
<mgrwt>
<rscale>  0 0.22851003E+04</rscale>
<asrwt>0</asrwt>
<pdfrwt beam="2">  1        2 0.43726776E+00 0.22851003E+04</pdfrwt>
<pdfrwt beam="1">  1       -2 0.70660444E-01 0.22851003E+04</pdfrwt>
<totfact> 0.36048759E+00</totfact>
</mgrwt>
</event>
<event>
 4    1  0.1343107E-008  0.2182504E+04  0.7816531E-02  0.8525746E-01
          2   -1    0    0  501    0  0.00000000000E+00  0.00000000000E+00  0.17360908506E+04  0.17360908506E+04  0.00000000000E+00 0.  1.
         -2   -1    0    0    0  501 -0.00000000000E+00 -0.00000000000E+00 -0.68592648252E+03  0.68592648252E+03  0.00000000000E+00 0. -1.
    2000013    1    1    2    0    0 -0.51066616246E+03 -0.49235460488E+02  0.70099171386E+03  0.12872814156E+04  0.95000000000E+03 0.  0.
   -2000013    1    1    2    0    0  0.51066616246E+03  0.49235460488E+02  0.34917265422E+03  0.11347359175E+04  0.95000000000E+03 0.  0.
<mgrwt>
<rscale>  0 0.21825038E+04</rscale>
<asrwt>0</asrwt>
<pdfrwt beam="1">  1        2 0.26709090E+00 0.21825038E+04</pdfrwt>
<pdfrwt beam="2">  1       -2 0.10552715E+00 0.21825038E+04</pdfrwt>
<totfact> 0.62254825E+00</totfact>
</mgrwt>
</event>
<event>
 4    1  0.1343107E-008  0.2862874E+04  0.7816531E-02  0.8284010E-01
         -2   -1    0    0    0  501 -0.00000000000E+00  0.00000000000E+00  0.18663612350E+04  0.18663612350E+04  0.00000000000E+00 0. -1.
          2   -1    0    0  501    0  0.00000000000E+00 -0.00000000000E+00 -0.10978648603E+04  0.10978648603E+04  0.00000000000E+00 0.  1.
    2000013    1    1    2    0    0 -0.93049790320E+03 -0.34099975495E+03 -0.35575421595E+02  0.13732708369E+04  0.95000000000E+03 0.  0.
   -2000013    1    1    2    0    0  0.93049790320E+03  0.34099975495E+03  0.80407179631E+03  0.15909552584E+04  0.95000000000E+03 0.  0.
<mgrwt>
<rscale>  0 0.28628744E+04</rscale>
<asrwt>0</asrwt>
<pdfrwt beam="2">  1        2 0.16890229E+00 0.28628744E+04</pdfrwt>
<pdfrwt beam="1">  1       -2 0.28713250E+00 0.28628744E+04</pdfrwt>
<totfact> 0.72065542E-01</totfact>
</mgrwt>
</event>
<event>
 4    1  0.1343107E-008  0.2067486E+04  0.7816531E-02  0.8575703E-01
          2   -1    0    0  501    0  0.00000000000E+00  0.00000000000E+00  0.93732801171E+03  0.93732801171E+03  0.00000000000E+00 0.  1.
         -2   -1    0    0    0  501 -0.00000000000E+00 -0.00000000000E+00 -0.11400756868E+04  0.11400756868E+04  0.00000000000E+00 0. -1.
    2000013    1    1    2    0    0  0.37638904894E+03  0.12047279755E+03 -0.11836216112E+01  0.10289236182E+04  0.95000000000E+03 0.  0.
   -2000013    1    1    2    0    0 -0.37638904894E+03 -0.12047279755E+03 -0.20156405343E+03  0.10484800803E+04  0.95000000000E+03 0.  0.
<mgrwt>
<rscale>  0 0.20674863E+04</rscale>
<asrwt>0</asrwt>
<pdfrwt beam="1">  1        2 0.14420431E+00 0.20674863E+04</pdfrwt>
<pdfrwt beam="2">  1       -2 0.17539626E+00 0.20674863E+04</pdfrwt>
<totfact> 0.49914744E+00</totfact>
</mgrwt>
</event>
<event>
 4    1  0.1343107E-008  0.2146988E+04  0.7816531E-02  0.8540823E-01
         -2   -1    0    0    0  501 -0.00000000000E+00  0.00000000000E+00  0.78078801747E+03  0.78078801747E+03  0.00000000000E+00 0. -1.
          2   -1    0    0  501    0  0.00000000000E+00 -0.00000000000E+00 -0.14759308826E+04  0.14759308826E+04  0.00000000000E+00 0.  1.
    2000013    1    1    2    0    0  0.14533677351E+03 -0.47396405541E+03 -0.28006726180E+03  0.11075659686E+04  0.95000000000E+03 0.  0.
   -2000013    1    1    2    0    0 -0.14533677351E+03  0.47396405541E+03 -0.41507560334E+03  0.11491529315E+04  0.95000000000E+03 0.  0.
<mgrwt>
<rscale>  0 0.21469878E+04</rscale>
<asrwt>0</asrwt>
<pdfrwt beam="2">  1        2 0.22706629E+00 0.21469878E+04</pdfrwt>
<pdfrwt beam="1">  1       -2 0.12012124E+00 0.21469878E+04</pdfrwt>
<totfact> 0.63701327E+00</totfact>
</mgrwt>
</event>
<event>
 4    1  0.1343107E-008  0.2600466E+04  0.7816531E-02  0.8368043E-01
         -2   -1    0    0    0  501 -0.00000000000E+00  0.00000000000E+00  0.11487854358E+04  0.11487854358E+04  0.00000000000E+00 0. -1.
          2   -1    0    0  501    0  0.00000000000E+00 -0.00000000000E+00 -0.14716465824E+04  0.14716465824E+04  0.00000000000E+00 0.  1.
    2000013    1    1    2    0    0  0.14327767983E+03 -0.82280316600E+03  0.14183292199E+03  0.12728511780E+04  0.95000000000E+03 0.  0.
   -2000013    1    1    2    0    0 -0.14327767983E+03  0.82280316600E+03 -0.46469406858E+03  0.13475808402E+04  0.95000000000E+03 0.  0.
<mgrwt>
<rscale>  0 0.26004662E+04</rscale>
<asrwt>0</asrwt>
<pdfrwt beam="2">  1        2 0.22640716E+00 0.26004662E+04</pdfrwt>
<pdfrwt beam="1">  1       -2 0.17673622E+00 0.26004662E+04</pdfrwt>
<totfact> 0.22262237E+00</totfact>
</mgrwt>
</event>
<event>
 4    1  0.1343107E-008  0.2367154E+04  0.7816531E-02  0.8451904E-01
          2   -1    0    0  501    0  0.00000000000E+00  0.00000000000E+00  0.12008169292E+04  0.12008169292E+04  0.00000000000E+00 0.  1.
         -2   -1    0    0    0  501 -0.00000000000E+00 -0.00000000000E+00 -0.11665846341E+04  0.11665846341E+04  0.00000000000E+00 0. -1.
    2000013    1    1    2    0    0  0.42125608612E+03 -0.34441528553E+03  0.46691421467E+03  0.11902047987E+04  0.95000000000E+03 0.  0.
   -2000013    1    1    2    0    0 -0.42125608612E+03  0.34441528553E+03 -0.43268191959E+03  0.11771967646E+04  0.95000000000E+03 0.  0.
<mgrwt>
<rscale>  0 0.23671541E+04</rscale>
<asrwt>0</asrwt>
<pdfrwt beam="1">  1        2 0.18474107E+00 0.23671541E+04</pdfrwt>
<pdfrwt beam="2">  1       -2 0.17947456E+00 0.23671541E+04</pdfrwt>
<totfact> 0.31192588E+00</totfact>
</mgrwt>
</event>
<event>
 4    1  0.1343107E-008  0.2252292E+04  0.7816531E-02  0.8496973E-01
          4   -1    0    0  501    0  0.00000000000E+00  0.00000000000E+00  0.17149409563E+04  0.17149409563E+04  0.00000000000E+00 0.  1.
         -4   -1    0    0    0  501 -0.00000000000E+00 -0.00000000000E+00 -0.73950354199E+03  0.73950354199E+03  0.00000000000E+00 0. -1.
    2000013    1    1    2    0    0  0.42255384461E+03  0.36912816820E+03  0.73357253049E+03  0.13249286825E+04  0.95000000000E+03 0.  0.
   -2000013    1    1    2    0    0 -0.42255384461E+03 -0.36912816820E+03  0.24186488380E+03  0.11295158158E+04  0.95000000000E+03 0.  0.
<mgrwt>
<rscale>  0 0.22522921E+04</rscale>
<asrwt>0</asrwt>
<pdfrwt beam="1">  1        4 0.26383707E+00 0.22522921E+04</pdfrwt>
<pdfrwt beam="2">  1       -4 0.11376978E+00 0.22522921E+04</pdfrwt>
<totfact> 0.56921880E-02</totfact>
</mgrwt>
</event>
<event>
 4    1  0.1343107E-008  0.2271128E+04  0.7816531E-02  0.8489393E-01
          2   -1    0    0  501    0  0.00000000000E+00  0.00000000000E+00  0.30000167243E+04  0.30000167243E+04  0.00000000000E+00 0.  1.
         -2   -1    0    0    0  501 -0.00000000000E+00 -0.00000000000E+00 -0.42983268576E+03  0.42983268576E+03  0.00000000000E+00 0. -1.
    2000013    1    1    2    0    0  0.53885120522E+03  0.12592446596E+03  0.85584627606E+03  0.13932661055E+04  0.95000000000E+03 0.  0.
   -2000013    1    1    2    0    0 -0.53885120522E+03 -0.12592446596E+03  0.17143377625E+04  0.20365833045E+04  0.95000000000E+03 0.  0.
<mgrwt>
<rscale>  0 0.22711277E+04</rscale>
<asrwt>0</asrwt>
<pdfrwt beam="1">  1        2 0.46154102E+00 0.22711277E+04</pdfrwt>
<pdfrwt beam="2">  1       -2 0.66128108E-01 0.22711277E+04</pdfrwt>
<totfact> 0.33315019E+00</totfact>
</mgrwt>
</event>
<event>
 4    1  0.1343107E-008  0.3191182E+04  0.7816531E-02  0.8191150E-01
          2   -1    0    0  501    0  0.00000000000E+00  0.00000000000E+00  0.13009004606E+04  0.13009004606E+04  0.00000000000E+00 0.  1.
         -2   -1    0    0    0  501 -0.00000000000E+00 -0.00000000000E+00 -0.19570366991E+04  0.19570366991E+04  0.00000000000E+00 0. -1.
    2000013    1    1    2    0    0  0.57835793866E+02  0.12675348541E+04 -0.14143155225E+03  0.15913806802E+04  0.95000000000E+03 0.  0.
   -2000013    1    1    2    0    0 -0.57835793866E+02 -0.12675348541E+04 -0.51470468632E+03  0.16665564795E+04  0.95000000000E+03 0.  0.
<mgrwt>
<rscale>  0 0.31911816E+04</rscale>
<asrwt>0</asrwt>
<pdfrwt beam="1">  1        2 0.20013853E+00 0.31911816E+04</pdfrwt>
<pdfrwt beam="2">  1       -2 0.30108257E+00 0.31911816E+04</pdfrwt>
<totfact> 0.43548116E-01</totfact>
</mgrwt>
</event>
<event>
 4    1  0.1343107E-008  0.2992079E+04  0.7816531E-02  0.8245996E-01
          2   -1    0    0  501    0  0.00000000000E+00  0.00000000000E+00  0.35349379707E+04  0.35349379707E+04  0.00000000000E+00 0.  1.
         -2   -1    0    0    0  501 -0.00000000000E+00 -0.00000000000E+00 -0.63314651546E+03  0.63314651546E+03  0.00000000000E+00 0. -1.
    2000013    1    1    2    0    0  0.68300736847E+03 -0.54916705330E+03  0.40143636509E+03  0.13534159276E+04  0.95000000000E+03 0.  0.
   -2000013    1    1    2    0    0 -0.68300736847E+03  0.54916705330E+03  0.25003550901E+04  0.28146685586E+04  0.95000000000E+03 0.  0.
<mgrwt>
<rscale>  0 0.29920786E+04</rscale>
<asrwt>0</asrwt>
<pdfrwt beam="1">  1        2 0.54383660E+00 0.29920786E+04</pdfrwt>
<pdfrwt beam="2">  1       -2 0.97407158E-01 0.29920786E+04</pdfrwt>
<totfact> 0.57788641E-01</totfact>
</mgrwt>
</event>
<event>
 4    1  0.1343107E-008  0.2810016E+04  0.7816531E-02  0.8300166E-01
         -2   -1    0    0    0  501 -0.00000000000E+00  0.00000000000E+00  0.15784351016E+04  0.15784351016E+04  0.00000000000E+00 0. -1.
          2   -1    0    0  501    0  0.00000000000E+00 -0.00000000000E+00 -0.12506353905E+04  0.12506353905E+04  0.00000000000E+00 0.  1.
    2000013    1    1    2    0    0 -0.47412957839E+03  0.86083309255E+03 -0.16344233204E+03  0.13766066491E+04  0.95000000000E+03 0.  0.
   -2000013    1    1    2    0    0  0.47412957839E+03 -0.86083309255E+03  0.49124204312E+03  0.14524638430E+04  0.95000000000E+03 0.  0.
<mgrwt>
<rscale>  0 0.28100155E+04</rscale>
<asrwt>0</asrwt>
<pdfrwt beam="2">  1        2 0.19240544E+00 0.28100155E+04</pdfrwt>
<pdfrwt beam="1">  1       -2 0.24283617E+00 0.28100155E+04</pdfrwt>
<totfact> 0.10931016E+00</totfact>
</mgrwt>
</event>
<event>
 4    1  0.1343107E-008  0.2281503E+04  0.7816531E-02  0.8485250E-01
         -2   -1    0    0    0  501 -0.00000000000E+00  0.00000000000E+00  0.61861992920E+03  0.61861992920E+03  0.00000000000E+00 0. -1.
          2   -1    0    0  501    0  0.00000000000E+00 -0.00000000000E+00 -0.21035761981E+04  0.21035761981E+04  0.00000000000E+00 0.  1.
    2000013    1    1    2    0    0  0.51774862521E+02 -0.61843777508E+03 -0.60298441714E+03  0.12850043289E+04  0.95000000000E+03 0.  0.
   -2000013    1    1    2    0    0 -0.51774862521E+02  0.61843777508E+03 -0.88197185175E+03  0.14371917984E+04  0.95000000000E+03 0.  0.
<mgrwt>
<rscale>  0 0.22815032E+04</rscale>
<asrwt>0</asrwt>
<pdfrwt beam="2">  1        2 0.32362711E+00 0.22815032E+04</pdfrwt>
<pdfrwt beam="1">  1       -2 0.95172297E-01 0.22815032E+04</pdfrwt>
<totfact> 0.49281042E+00</totfact>
</mgrwt>
</event>
<event>
 4    1  0.1343107E-008  0.2275765E+04  0.7816531E-02  0.8487538E-01
          2   -1    0    0  501    0  0.00000000000E+00  0.00000000000E+00  0.13818425409E+04  0.13818425409E+04  0.00000000000E+00 0. -1.
         -2   -1    0    0    0  501 -0.00000000000E+00 -0.00000000000E+00 -0.93699312289E+03  0.93699312289E+03  0.00000000000E+00 0.  1.
    2000013    1    1    2    0    0 -0.21201567754E+03 -0.33112591052E+03 -0.27432839306E+03  0.10641198633E+04  0.95000000000E+03 0.  0.
   -2000013    1    1    2    0    0  0.21201567754E+03  0.33112591052E+03  0.71917781105E+03  0.12547158005E+04  0.95000000000E+03 0.  0.
<mgrwt>
<rscale>  0 0.22757653E+04</rscale>
<asrwt>0</asrwt>
<pdfrwt beam="1">  1        2 0.21259116E+00 0.22757653E+04</pdfrwt>
<pdfrwt beam="2">  1       -2 0.14415279E+00 0.22757653E+04</pdfrwt>
<totfact> 0.44811406E+00</totfact>
</mgrwt>
</event>
<event>
 4    1  0.1343107E-008  0.2605917E+04  0.7816531E-02  0.8366194E-01
          2   -1    0    0  501    0  0.00000000000E+00  0.00000000000E+00  0.26101395964E+04  0.26101395964E+04  0.00000000000E+00 0.  1.
         -2   -1    0    0    0  501 -0.00000000000E+00 -0.00000000000E+00 -0.65042526628E+03  0.65042526628E+03  0.00000000000E+00 0. -1.
    2000013    1    1    2    0    0 -0.62372693236E+03 -0.42211316208E+03  0.38242815677E+03  0.12712065540E+04  0.95000000000E+03 0.  0.
   -2000013    1    1    2    0    0  0.62372693236E+03  0.42211316208E+03  0.15772861733E+04  0.19893583087E+04  0.95000000000E+03 0.  0.
<mgrwt>
<rscale>  0 0.26059169E+04</rscale>
<asrwt>0</asrwt>
<pdfrwt beam="1">  1        2 0.40155993E+00 0.26059169E+04</pdfrwt>
<pdfrwt beam="2">  1       -2 0.10006543E+00 0.26059169E+04</pdfrwt>
<totfact> 0.21882773E+00</totfact>
</mgrwt>
</event>
<event>
 4    1  0.1343107E-008  0.2387337E+04  0.7816531E-02  0.8444260E-01
          2   -1    0    0  501    0  0.00000000000E+00  0.00000000000E+00  0.69342878471E+03  0.69342878471E+03  0.00000000000E+00 0.  1.
         -2   -1    0    0    0  501 -0.00000000000E+00 -0.00000000000E+00 -0.20547804281E+04  0.20547804281E+04  0.00000000000E+00 0. -1.
    2000013    1    1    2    0    0 -0.68255043590E+03 -0.64868988029E+02 -0.41751318504E+03  0.12437444845E+04  0.95000000000E+03 0.  0.
   -2000013    1    1    2    0    0  0.68255043590E+03  0.64868988029E+02 -0.94383845840E+03  0.15044647283E+04  0.95000000000E+03 0.  0.
<mgrwt>
<rscale>  0 0.23873365E+04</rscale>
<asrwt>0</asrwt>
<pdfrwt beam="1">  1        2 0.10668135E+00 0.23873365E+04</pdfrwt>
<pdfrwt beam="2">  1       -2 0.31612007E+00 0.23873365E+04</pdfrwt>
<totfact> 0.94484842E-01</totfact>
</mgrwt>
</event>
<event>
 4    1  0.1343107E-008  0.2255109E+04  0.7816531E-02  0.8495834E-01
         -2   -1    0    0    0  501 -0.00000000000E+00  0.00000000000E+00  0.49469745080E+03  0.49469745080E+03  0.00000000000E+00 0. -1.
          2   -1    0    0  501    0  0.00000000000E+00 -0.00000000000E+00 -0.25700144075E+04  0.25700144075E+04  0.00000000000E+00 0.  1.
    2000013    1    1    2    0    0 -0.46616411849E+03  0.38010289453E+03 -0.11521090690E+04  0.16098579138E+04  0.95000000000E+03 0.  0.
   -2000013    1    1    2    0    0  0.46616411849E+03 -0.38010289453E+03 -0.92320788763E+03  0.14548539444E+04  0.95000000000E+03 0.  0.
<mgrwt>
<rscale>  0 0.22551094E+04</rscale>
<asrwt>0</asrwt>
<pdfrwt beam="2">  1        2 0.39538683E+00 0.22551094E+04</pdfrwt>
<pdfrwt beam="1">  1       -2 0.76107301E-01 0.22551094E+04</pdfrwt>
<totfact> 0.44573687E+00</totfact>
</mgrwt>
</event>
<event>
 4    1  0.1343107E-008  0.2266879E+04  0.7816531E-02  0.8491096E-01
         -2   -1    0    0    0  501 -0.00000000000E+00  0.00000000000E+00  0.78062115378E+03  0.78062115378E+03  0.00000000000E+00 0. -1.
          2   -1    0    0  501    0  0.00000000000E+00 -0.00000000000E+00 -0.16457213567E+04  0.16457213567E+04  0.00000000000E+00 0.  1.
    2000013    1    1    2    0    0 -0.13088933722E+03 -0.58231494098E+03 -0.26008766929E+03  0.11516806436E+04  0.95000000000E+03 0.  0.
   -2000013    1    1    2    0    0  0.13088933722E+03  0.58231494098E+03 -0.60501253365E+03  0.12746618669E+04  0.95000000000E+03 0.  0.
<mgrwt>
<rscale>  0 0.22668788E+04</rscale>
<asrwt>0</asrwt>
<pdfrwt beam="2">  1        2 0.25318790E+00 0.22668788E+04</pdfrwt>
<pdfrwt beam="1">  1       -2 0.12009556E+00 0.22668788E+04</pdfrwt>
<totfact> 0.50661304E+00</totfact>
</mgrwt>
</event>
<event>
 4    1  0.1343107E-008  0.2459407E+04  0.7816531E-02  0.8417591E-01
         -1   -1    0    0    0  501 -0.00000000000E+00  0.00000000000E+00  0.97081385420E+03  0.97081385420E+03  0.00000000000E+00 0. -1.
          1   -1    0    0  501    0  0.00000000000E+00 -0.00000000000E+00 -0.15576323967E+04  0.15576323967E+04  0.00000000000E+00 0.  1.
    2000013    1    1    2    0    0 -0.61461530622E+03 -0.39080565664E+03 -0.58271606867E+03  0.13313673620E+04  0.95000000000E+03 0.  0.
   -2000013    1    1    2    0    0  0.61461530622E+03  0.39080565664E+03 -0.41024738076E+01  0.11970788889E+04  0.95000000000E+03 0.  0.
<mgrwt>
<rscale>  0 0.24594073E+04</rscale>
<asrwt>0</asrwt>
<pdfrwt beam="2">  1        1 0.23963575E+00 0.24594073E+04</pdfrwt>
<pdfrwt beam="1">  1       -1 0.14935598E+00 0.24594073E+04</pdfrwt>
<totfact> 0.18780428E+00</totfact>
</mgrwt>
</event>
<event>
 4    1  0.1343107E-008  0.2577125E+04  0.7816531E-02  0.8376013E-01
         -2   -1    0    0    0  501 -0.00000000000E+00  0.00000000000E+00  0.81403785781E+03  0.81403785781E+03  0.00000000000E+00 0. -1.
          2   -1    0    0  501    0  0.00000000000E+00 -0.00000000000E+00 -0.20397004304E+04  0.20397004304E+04  0.00000000000E+00 0.  1.
    2000013    1    1    2    0    0 -0.51634985547E+02 -0.60446469029E+03  0.78565278702E+02  0.11299186858E+04  0.95000000000E+03 0.  0.
   -2000013    1    1    2    0    0  0.51634985547E+02  0.60446469029E+03 -0.13042278513E+04  0.17238196024E+04  0.95000000000E+03 0.  0.
<mgrwt>
<rscale>  0 0.25771250E+04</rscale>
<asrwt>0</asrwt>
<pdfrwt beam="2">  1        2 0.31380006E+00 0.25771250E+04</pdfrwt>
<pdfrwt beam="1">  1       -2 0.12523659E+00 0.25771250E+04</pdfrwt>
<totfact> 0.26853140E+00</totfact>
</mgrwt>
</event>
<event>
 4    1  0.1343107E-008  0.2409393E+04  0.7816531E-02  0.8435995E-01
          2   -1    0    0  501    0  0.00000000000E+00  0.00000000000E+00  0.85560553717E+03  0.85560553717E+03  0.00000000000E+00 0.  1.
         -2   -1    0    0    0  501 -0.00000000000E+00 -0.00000000000E+00 -0.16962180078E+04  0.16962180078E+04  0.00000000000E+00 0. -1.
    2000013    1    1    2    0    0 -0.40761195545E+03  0.46696006911E+03  0.93789910497E+01  0.11343664213E+04  0.95000000000E+03 0.  0.
   -2000013    1    1    2    0    0  0.40761195545E+03 -0.46696006911E+03 -0.84999146164E+03  0.14174571236E+04  0.95000000000E+03 0.  0.
<mgrwt>
<rscale>  0 0.24093929E+04</rscale>
<asrwt>0</asrwt>
<pdfrwt beam="1">  1        2 0.13163162E+00 0.24093929E+04</pdfrwt>
<pdfrwt beam="2">  1       -2 0.26095661E+00 0.24093929E+04</pdfrwt>
<totfact> 0.15556117E+00</totfact>
</mgrwt>
</event>
<event>
 4    1  0.1343107E-008  0.1987046E+04  0.7816531E-02  0.8612701E-01
         -2   -1    0    0    0  501 -0.00000000000E+00  0.00000000000E+00  0.10535353872E+04  0.10535353872E+04  0.00000000000E+00 0. -1.
          2   -1    0    0  501    0  0.00000000000E+00 -0.00000000000E+00 -0.93692932292E+03  0.93692932292E+03  0.00000000000E+00 0.  1.
    2000013    1    1    2    0    0 -0.27124822509E+02 -0.34989583140E+02  0.34624871689E+03  0.10121008847E+04  0.95000000000E+03 0.  0.
   -2000013    1    1    2    0    0  0.27124822509E+02  0.34989583140E+02 -0.22964265261E+03  0.97836382539E+03  0.95000000000E+03 0.  0.
<mgrwt>
<rscale>  0 0.19870462E+04</rscale>
<asrwt>0</asrwt>
<pdfrwt beam="2">  1        2 0.14414297E+00 0.19870462E+04</pdfrwt>
<pdfrwt beam="1">  1       -2 0.16208237E+00 0.19870462E+04</pdfrwt>
<totfact> 0.62615354E+00</totfact>
</mgrwt>
</event>
<event>
 4    1  0.1343107E-008  0.2296468E+04  0.7816531E-02  0.8479315E-01
          1   -1    0    0  501    0  0.00000000000E+00  0.00000000000E+00  0.18044342038E+04  0.18044342038E+04  0.00000000000E+00 0. -1.
         -1   -1    0    0    0  501 -0.00000000000E+00 -0.00000000000E+00 -0.73066735733E+03  0.73066735733E+03  0.00000000000E+00 0.  1.
    2000013    1    1    2    0    0  0.20519798975E+02 -0.61161831835E+03  0.31215328231E+03  0.11723641504E+04  0.95000000000E+03 0.  0.
   -2000013    1    1    2    0    0 -0.20519798975E+02  0.61161831835E+03  0.76161356420E+03  0.13627374108E+04  0.95000000000E+03 0.  0.
<mgrwt>
<rscale>  0 0.22964679E+04</rscale>
<asrwt>0</asrwt>
<pdfrwt beam="1">  1        1 0.27760526E+00 0.22964679E+04</pdfrwt>
<pdfrwt beam="2">  1       -1 0.11241036E+00 0.22964679E+04</pdfrwt>
<totfact> 0.26512932E+00</totfact>
</mgrwt>
</event>
<event>
 4    1  0.1343107E-008  0.3481630E+04  0.7816531E-02  0.8118157E-01
          2   -1    0    0  501    0  0.00000000000E+00  0.00000000000E+00  0.22388784600E+04  0.22388784600E+04  0.00000000000E+00 0.  1.
         -2   -1    0    0    0  501 -0.00000000000E+00 -0.00000000000E+00 -0.13535516346E+04  0.13535516346E+04  0.00000000000E+00 0. -1.
    2000013    1    1    2    0    0 -0.14528125499E+04 -0.11628936285E+03  0.50585013253E+03  0.18117869294E+04  0.95000000000E+03 0.  0.
   -2000013    1    1    2    0    0  0.14528125499E+04  0.11628936285E+03  0.37947669288E+03  0.17806431651E+04  0.95000000000E+03 0.  0.
<mgrwt>
<rscale>  0 0.34816304E+04</rscale>
<asrwt>0</asrwt>
<pdfrwt beam="1">  1        2 0.34444284E+00 0.34816304E+04</pdfrwt>
<pdfrwt beam="2">  1       -2 0.20823871E+00 0.34816304E+04</pdfrwt>
<totfact> 0.47492237E-01</totfact>
</mgrwt>
</event>
<event>
 4    1  0.1343107E-008  0.1986114E+04  0.7816531E-02  0.8613141E-01
          2   -1    0    0  501    0  0.00000000000E+00  0.00000000000E+00  0.20935842556E+04  0.20935842556E+04  0.00000000000E+00 0.  1.
         -2   -1    0    0    0  501 -0.00000000000E+00 -0.00000000000E+00 -0.47104003146E+03  0.47104003146E+03  0.00000000000E+00 0. -1.
    2000013    1    1    2    0    0 -0.22523090749E+03  0.80990605487E+02  0.60156944631E+03  0.11496409172E+04  0.95000000000E+03 0.  0.
   -2000013    1    1    2    0    0  0.22523090749E+03 -0.80990605487E+02  0.10209747778E+04  0.14149833698E+04  0.95000000000E+03 0.  0.
<mgrwt>
<rscale>  0 0.19861138E+04</rscale>
<asrwt>0</asrwt>
<pdfrwt beam="1">  1        2 0.32208988E+00 0.19861138E+04</pdfrwt>
<pdfrwt beam="2">  1       -2 0.72467699E-01 0.19861138E+04</pdfrwt>
<totfact> 0.94930940E+00</totfact>
</mgrwt>
</event>
<event>
 4    1  0.1343107E-008  0.3570033E+04  0.7816531E-02  0.8097391E-01
         -2   -1    0    0    0  501 -0.00000000000E+00  0.00000000000E+00  0.16396380812E+04  0.16396380812E+04  0.00000000000E+00 0. -1.
          2   -1    0    0  501    0  0.00000000000E+00 -0.00000000000E+00 -0.19432843736E+04  0.19432843736E+04  0.00000000000E+00 0.  1.
    2000013    1    1    2    0    0 -0.75650743035E+03 -0.12556845415E+04 -0.52021235691E+03  0.18226815564E+04  0.95000000000E+03 0.  0.
   -2000013    1    1    2    0    0  0.75650743035E+03  0.12556845415E+04  0.21656606446E+03  0.17602408983E+04  0.95000000000E+03 0.  0.
<mgrwt>
<rscale>  0 0.35700325E+04</rscale>
<asrwt>0</asrwt>
<pdfrwt beam="2">  1        2 0.29896683E+00 0.35700325E+04</pdfrwt>
<pdfrwt beam="1">  1       -2 0.25225201E+00 0.35700325E+04</pdfrwt>
<totfact> 0.36539326E-01</totfact>
</mgrwt>
</event>
<event>
 4    1  0.1343107E-008  0.2394490E+04  0.7816531E-02  0.8441569E-01
         -2   -1    0    0    0  501 -0.00000000000E+00  0.00000000000E+00  0.18643773552E+04  0.18643773552E+04  0.00000000000E+00 0.  1.
          2   -1    0    0  501    0  0.00000000000E+00 -0.00000000000E+00 -0.76883345757E+03  0.76883345757E+03  0.00000000000E+00 0. -1.
    2000013    1    1    2    0    0  0.19924956366E+03  0.61644134881E+03  0.91447618394E+03  0.14691722214E+04  0.95000000000E+03 0.  0.
   -2000013    1    1    2    0    0 -0.19924956366E+03 -0.61644134881E+03  0.18106771364E+03  0.11640385913E+04  0.95000000000E+03 0.  0.
<mgrwt>
<rscale>  0 0.23944901E+04</rscale>
<asrwt>0</asrwt>
<pdfrwt beam="2">  1        2 0.11828207E+00 0.23944901E+04</pdfrwt>
<pdfrwt beam="1">  1       -2 0.28682729E+00 0.23944901E+04</pdfrwt>
<totfact> 0.12497918E+00</totfact>
</mgrwt>
</event>
<event>
 4    1  0.1343107E-008  0.2237866E+04  0.7816531E-02  0.8502831E-01
         -2   -1    0    0    0  501 -0.00000000000E+00  0.00000000000E+00  0.59690624206E+03  0.59690624206E+03  0.00000000000E+00 0. -1.
          2   -1    0    0  501    0  0.00000000000E+00 -0.00000000000E+00 -0.20975000762E+04  0.20975000762E+04  0.00000000000E+00 0.  1.
    2000013    1    1    2    0    0  0.19192714236E+03 -0.35661891163E+03 -0.12688562266E+04  0.16360040342E+04  0.95000000000E+03 0.  0.
   -2000013    1    1    2    0    0 -0.19192714236E+03  0.35661891163E+03 -0.23173760751E+03  0.10584022840E+04  0.95000000000E+03 0.  0.
<mgrwt>
<rscale>  0 0.22378658E+04</rscale>
<asrwt>0</asrwt>
<pdfrwt beam="2">  1        2 0.32269232E+00 0.22378658E+04</pdfrwt>
<pdfrwt beam="1">  1       -2 0.91831728E-01 0.22378658E+04</pdfrwt>
<totfact> 0.54172577E+00</totfact>
</mgrwt>
</event>
<event>
 4    1  0.1343107E-008  0.4113278E+04  0.7816531E-02  0.7982077E-01
         -2   -1    0    0    0  501 -0.00000000000E+00  0.00000000000E+00  0.19379909021E+04  0.19379909021E+04  0.00000000000E+00 0. -1.
          2   -1    0    0  501    0  0.00000000000E+00 -0.00000000000E+00 -0.21825510238E+04  0.21825510238E+04  0.00000000000E+00 0.  1.
    2000013    1    1    2    0    0  0.26256238601E+03 -0.16354557227E+04 -0.88757261092E+03  0.21056921824E+04  0.95000000000E+03 0.  0.
   -2000013    1    1    2    0    0 -0.26256238601E+03  0.16354557227E+04  0.64301248918E+03  0.20148497435E+04  0.95000000000E+03 0.  0.
<mgrwt>
<rscale>  0 0.41132780E+04</rscale>
<asrwt>0</asrwt>
<pdfrwt beam="2">  1        2 0.33577708E+00 0.41132780E+04</pdfrwt>
<pdfrwt beam="1">  1       -2 0.29815245E+00 0.41132780E+04</pdfrwt>
<totfact> 0.13469875E-01</totfact>
</mgrwt>
</event>
<event>
 4    1  0.1343107E-008  0.2242785E+04  0.7816531E-02  0.8500828E-01
         -2   -1    0    0    0  501 -0.00000000000E+00  0.00000000000E+00  0.99720207934E+03  0.99720207934E+03  0.00000000000E+00 0. -1.
          2   -1    0    0  501    0  0.00000000000E+00 -0.00000000000E+00 -0.12610494061E+04  0.12610494061E+04  0.00000000000E+00 0.  1.
    2000013    1    1    2    0    0 -0.35707933636E+03 -0.40224643100E+03 -0.39003740782E+03  0.11592829781E+04  0.95000000000E+03 0.  0.
   -2000013    1    1    2    0    0  0.35707933636E+03  0.40224643100E+03  0.12619008104E+03  0.10989685074E+04  0.95000000000E+03 0.  0.
<mgrwt>
<rscale>  0 0.22427850E+04</rscale>
<asrwt>0</asrwt>
<pdfrwt beam="2">  1        2 0.19400760E+00 0.22427850E+04</pdfrwt>
<pdfrwt beam="1">  1       -2 0.15341570E+00 0.22427850E+04</pdfrwt>
<totfact> 0.44789223E+00</totfact>
</mgrwt>
</event>
<event>
 4    1  0.1343107E-008  0.2801465E+04  0.7816531E-02  0.8302814E-01
         -2   -1    0    0    0  501 -0.00000000000E+00  0.00000000000E+00  0.91991828410E+03  0.91991828410E+03  0.00000000000E+00 0. -1.
          2   -1    0    0  501    0  0.00000000000E+00 -0.00000000000E+00 -0.21328548159E+04  0.21328548159E+04  0.00000000000E+00 0.  1.
    2000013    1    1    2    0    0 -0.42834534703E+03 -0.92891482067E+03 -0.48131963795E+03  0.14766621395E+04  0.95000000000E+03 0.  0.
   -2000013    1    1    2    0    0  0.42834534703E+03  0.92891482067E+03 -0.73161689384E+03  0.15761109605E+04  0.95000000000E+03 0.  0.
<mgrwt>
<rscale>  0 0.28014654E+04</rscale>
<asrwt>0</asrwt>
<pdfrwt beam="2">  1        2 0.32813151E+00 0.28014654E+04</pdfrwt>
<pdfrwt beam="1">  1       -2 0.14152589E+00 0.28014654E+04</pdfrwt>
<totfact> 0.17109907E+00</totfact>
</mgrwt>
</event>
<event>
 4    1  0.1343107E-008  0.2622288E+04  0.7816531E-02  0.8360670E-01
         -2   -1    0    0    0  501 -0.00000000000E+00  0.00000000000E+00  0.14399819428E+04  0.14399819428E+04  0.00000000000E+00 0. -1.
          2   -1    0    0  501    0  0.00000000000E+00 -0.00000000000E+00 -0.11938338655E+04  0.11938338655E+04  0.00000000000E+00 0.  1.
    2000013    1    1    2    0    0  0.31799551227E+03  0.68355882970E+03 -0.37733832891E+03  0.12701409504E+04  0.95000000000E+03 0.  0.
   -2000013    1    1    2    0    0 -0.31799551227E+03 -0.68355882970E+03  0.62348640622E+03  0.13636748580E+04  0.95000000000E+03 0.  0.
<mgrwt>
<rscale>  0 0.26222885E+04</rscale>
<asrwt>0</asrwt>
<pdfrwt beam="2">  1        2 0.18366675E+00 0.26222885E+04</pdfrwt>
<pdfrwt beam="1">  1       -2 0.22153568E+00 0.26222885E+04</pdfrwt>
<totfact> 0.16300256E+00</totfact>
</mgrwt>
</event>
<event>
 4    1  0.1343107E-008  0.4143842E+04  0.7816531E-02  0.7976141E-01
         -2   -1    0    0    0  501 -0.00000000000E+00  0.00000000000E+00  0.20228501385E+04  0.20228501385E+04  0.00000000000E+00 0. -1.
          2   -1    0    0  501    0  0.00000000000E+00 -0.00000000000E+00 -0.21221821635E+04  0.21221821635E+04  0.00000000000E+00 0.  1.
    2000013    1    1    2    0    0 -0.17748662785E+04 -0.47871659978E+03 -0.15475138487E+03  0.20750344288E+04  0.95000000000E+03 0.  0.
   -2000013    1    1    2    0    0  0.17748662785E+04  0.47871659978E+03  0.55419359835E+02  0.20699978732E+04  0.95000000000E+03 0.  0.
<mgrwt>
<rscale>  0 0.41438419E+04</rscale>
<asrwt>0</asrwt>
<pdfrwt beam="2">  1        2 0.32648956E+00 0.41438419E+04</pdfrwt>
<pdfrwt beam="1">  1       -2 0.31120771E+00 0.41438419E+04</pdfrwt>
<totfact> 0.12079308E-01</totfact>
</mgrwt>
</event>
<event>
 4    1  0.1343107E-008  0.2795627E+04  0.7816531E-02  0.8304627E-01
          1   -1    0    0  501    0  0.00000000000E+00  0.00000000000E+00  0.30676997265E+04  0.30676997265E+04  0.00000000000E+00 0.  1.
         -1   -1    0    0    0  501 -0.00000000000E+00 -0.00000000000E+00 -0.63692093595E+03  0.63692093595E+03  0.00000000000E+00 0. -1.
    2000013    1    1    2    0    0 -0.86754532962E+03  0.18005923326E+03  0.18992558626E+04  0.23010278264E+04  0.95000000000E+03 0.  0.
   -2000013    1    1    2    0    0  0.86754532962E+03 -0.18005923326E+03  0.53152292797E+03  0.14035928360E+04  0.95000000000E+03 0.  0.
<mgrwt>
<rscale>  0 0.27956267E+04</rscale>
<asrwt>0</asrwt>
<pdfrwt beam="1">  1        1 0.47195380E+00 0.27956267E+04</pdfrwt>
<pdfrwt beam="2">  1       -1 0.97987838E-01 0.27956267E+04</pdfrwt>
<totfact> 0.46071473E-01</totfact>
</mgrwt>
</event>
<event>
 4    1  0.1343107E-008  0.3589838E+04  0.7816531E-02  0.8092823E-01
          1   -1    0    0  501    0  0.00000000000E+00  0.00000000000E+00  0.16482738401E+04  0.16482738401E+04  0.00000000000E+00 0.  1.
         -1   -1    0    0    0  501 -0.00000000000E+00 -0.00000000000E+00 -0.19546114965E+04  0.19546114965E+04  0.00000000000E+00 0. -1.
    2000013    1    1    2    0    0 -0.28691168521E+03 -0.98514617855E+03 -0.12826048144E+04  0.18974736936E+04  0.95000000000E+03 0.  0.
   -2000013    1    1    2    0    0  0.28691168521E+03  0.98514617855E+03  0.97626715798E+03  0.17054116430E+04  0.95000000000E+03 0.  0.
<mgrwt>
<rscale>  0 0.35898384E+04</rscale>
<asrwt>0</asrwt>
<pdfrwt beam="1">  1        1 0.25358059E+00 0.35898384E+04</pdfrwt>
<pdfrwt beam="2">  1       -1 0.30070946E+00 0.35898384E+04</pdfrwt>
<totfact> 0.13679228E-01</totfact>
</mgrwt>
</event>
<event>
 4    1  0.1343107E-008  0.3053989E+04  0.7816531E-02  0.8228480E-01
         -2   -1    0    0    0  501 -0.00000000000E+00  0.00000000000E+00  0.87709680595E+03  0.87709680595E+03  0.00000000000E+00 0. -1.
          2   -1    0    0  501    0  0.00000000000E+00 -0.00000000000E+00 -0.26584432240E+04  0.26584432240E+04  0.00000000000E+00 0.  1.
    2000013    1    1    2    0    0 -0.18173846308E+02  0.11931730676E+04 -0.80703295435E+03  0.17256287107E+04  0.95000000000E+03 0.  0.
   -2000013    1    1    2    0    0  0.18173846308E+02 -0.11931730676E+04 -0.97431346371E+03  0.18099113192E+04  0.95000000000E+03 0.  0.
<mgrwt>
<rscale>  0 0.30539889E+04</rscale>
<asrwt>0</asrwt>
<pdfrwt beam="2">  1        2 0.40899126E+00 0.30539889E+04</pdfrwt>
<pdfrwt beam="1">  1       -2 0.13493797E+00 0.30539889E+04</pdfrwt>
<totfact> 0.94587218E-01</totfact>
</mgrwt>
</event>
<event>
 4    1  0.1343107E-008  0.3406030E+04  0.7816531E-02  0.8136428E-01
          2   -1    0    0  501    0  0.00000000000E+00  0.00000000000E+00  0.19942626792E+04  0.19942626792E+04  0.00000000000E+00 0.  1.
         -2   -1    0    0    0  501 -0.00000000000E+00 -0.00000000000E+00 -0.14543019600E+04  0.14543019600E+04  0.00000000000E+00 0. -1.
    2000013    1    1    2    0    0 -0.48609415901E+03  0.97873270367E+03 -0.63762629738E+03  0.15821733570E+04  0.95000000000E+03 0.  0.
   -2000013    1    1    2    0    0  0.48609415901E+03 -0.97873270367E+03  0.11775870165E+04  0.18663912822E+04  0.95000000000E+03 0.  0.
<mgrwt>
<rscale>  0 0.34060300E+04</rscale>
<asrwt>0</asrwt>
<pdfrwt beam="1">  1        2 0.30680964E+00 0.34060300E+04</pdfrwt>
<pdfrwt beam="2">  1       -2 0.22373876E+00 0.34060300E+04</pdfrwt>
<totfact> 0.52167743E-01</totfact>
</mgrwt>
</event>
<event>
 4    1  0.1343107E-008  0.2912656E+04  0.7816531E-02  0.8269122E-01
         -2   -1    0    0    0  501 -0.00000000000E+00  0.00000000000E+00  0.11083609313E+04  0.11083609313E+04  0.00000000000E+00 0. -1.
          2   -1    0    0  501    0  0.00000000000E+00 -0.00000000000E+00 -0.19135384121E+04  0.19135384121E+04  0.00000000000E+00 0.  1.
    2000013    1    1    2    0    0  0.74042826482E+03  0.71170941766E+03 -0.82226863204E+03  0.16227723235E+04  0.95000000000E+03 0.  0.
   -2000013    1    1    2    0    0 -0.74042826482E+03 -0.71170941766E+03  0.17091151262E+02  0.13991270200E+04  0.95000000000E+03 0.  0.
<mgrwt>
<rscale>  0 0.29126560E+04</rscale>
<asrwt>0</asrwt>
<pdfrwt beam="2">  1        2 0.29439052E+00 0.29126560E+04</pdfrwt>
<pdfrwt beam="1">  1       -2 0.17051707E+00 0.29126560E+04</pdfrwt>
<totfact> 0.13599882E+00</totfact>
</mgrwt>
</event>
<event>
 4    1  0.1343107E-008  0.2584936E+04  0.7816531E-02  0.8373336E-01
         -2   -1    0    0    0  501 -0.00000000000E+00  0.00000000000E+00  0.18851034940E+04  0.18851034940E+04  0.00000000000E+00 0. -1.
          2   -1    0    0  501    0  0.00000000000E+00 -0.00000000000E+00 -0.88614444673E+03  0.88614444673E+03  0.00000000000E+00 0.  1.
    2000013    1    1    2    0    0 -0.16182609636E+03  0.85919128588E+03  0.43536399410E+03  0.13625120765E+04  0.95000000000E+03 0.  0.
   -2000013    1    1    2    0    0  0.16182609636E+03 -0.85919128588E+03  0.56359505313E+03  0.14087358642E+04  0.95000000000E+03 0.  0.
<mgrwt>
<rscale>  0 0.25849364E+04</rscale>
<asrwt>0</asrwt>
<pdfrwt beam="2">  1        2 0.13632992E+00 0.25849364E+04</pdfrwt>
<pdfrwt beam="1">  1       -2 0.29001592E+00 0.25849364E+04</pdfrwt>
<totfact> 0.97088530E-01</totfact>
</mgrwt>
</event>
<event>
 4    1  0.1343107E-008  0.2434296E+04  0.7816531E-02  0.8426774E-01
          2   -1    0    0  501    0  0.00000000000E+00  0.00000000000E+00  0.23166610514E+04  0.23166610514E+04  0.00000000000E+00 0.  1.
         -2   -1    0    0    0  501 -0.00000000000E+00 -0.00000000000E+00 -0.63947590330E+03  0.63947590330E+03  0.00000000000E+00 0. -1.
    2000013    1    1    2    0    0 -0.45404729550E+03 -0.14038427544E+03  0.15601803094E+04  0.18874663677E+04  0.95000000000E+03 0.  0.
   -2000013    1    1    2    0    0  0.45404729550E+03  0.14038427544E+03  0.11700483875E+03  0.10686705871E+04  0.95000000000E+03 0.  0.
<mgrwt>
<rscale>  0 0.24342957E+04</rscale>
<asrwt>0</asrwt>
<pdfrwt beam="1">  1        2 0.35640939E+00 0.24342957E+04</pdfrwt>
<pdfrwt beam="2">  1       -2 0.98380909E-01 0.24342957E+04</pdfrwt>
<totfact> 0.34143393E+00</totfact>
</mgrwt>
</event>
<event>
 4    1  0.1343107E-008  0.3234811E+04  0.7816531E-02  0.8179684E-01
          2   -1    0    0  501    0  0.00000000000E+00  0.00000000000E+00  0.30210202638E+04  0.30210202638E+04  0.00000000000E+00 0.  1.
         -2   -1    0    0    0  501 -0.00000000000E+00 -0.00000000000E+00 -0.86593261673E+03  0.86593261673E+03  0.00000000000E+00 0. -1.
    2000013    1    1    2    0    0  0.59041533882E+03  0.10218134133E+04  0.39695882928E+03  0.15661319344E+04  0.95000000000E+03 0.  0.
   -2000013    1    1    2    0    0 -0.59041533882E+03 -0.10218134133E+04  0.17581288178E+04  0.23208209461E+04  0.95000000000E+03 0.  0.
<mgrwt>
<rscale>  0 0.32348106E+04</rscale>
<asrwt>0</asrwt>
<pdfrwt beam="1">  1        2 0.46477234E+00 0.32348106E+04</pdfrwt>
<pdfrwt beam="2">  1       -2 0.13322040E+00 0.32348106E+04</pdfrwt>
<totfact> 0.57832648E-01</totfact>
</mgrwt>
</event>
<event>
 4    1  0.1343107E-008  0.2527758E+04  0.7816531E-02  0.8393163E-01
         -2   -1    0    0    0  501 -0.00000000000E+00  0.00000000000E+00  0.12659370564E+04  0.12659370564E+04  0.00000000000E+00 0. -1.
          2   -1    0    0  501    0  0.00000000000E+00 -0.00000000000E+00 -0.12618242980E+04  0.12618242980E+04  0.00000000000E+00 0.  1.
    2000013    1    1    2    0    0  0.64429757806E+03 -0.38061443185E+03  0.36934887828E+03  0.12644782753E+04  0.95000000000E+03 0.  0.
   -2000013    1    1    2    0    0 -0.64429757806E+03  0.38061443185E+03 -0.36523611985E+03  0.12632830792E+04  0.95000000000E+03 0.  0.
<mgrwt>
<rscale>  0 0.25277580E+04</rscale>
<asrwt>0</asrwt>
<pdfrwt beam="2">  1        2 0.19412681E+00 0.25277580E+04</pdfrwt>
<pdfrwt beam="1">  1       -2 0.19475955E+00 0.25277580E+04</pdfrwt>
<totfact> 0.22311371E+00</totfact>
</mgrwt>
</event>
<event>
 4    1  0.1343107E-008  0.2492999E+04  0.7816531E-02  0.8405484E-01
         -2   -1    0    0    0  501 -0.00000000000E+00  0.00000000000E+00  0.91621607895E+03  0.91621607895E+03  0.00000000000E+00 0. -1.
          2   -1    0    0  501    0  0.00000000000E+00 -0.00000000000E+00 -0.16958455966E+04  0.16958455966E+04  0.00000000000E+00 0.  1.
    2000013    1    1    2    0    0 -0.65679216228E+03 -0.25810523036E+02 -0.88038397910E+03  0.14524524358E+04  0.95000000000E+03 0.  0.
   -2000013    1    1    2    0    0  0.65679216228E+03  0.25810523036E+02  0.10075446143E+03  0.11596092398E+04  0.95000000000E+03 0.  0.
<mgrwt>
<rscale>  0 0.24929990E+04</rscale>
<asrwt>0</asrwt>
<pdfrwt beam="2">  1        2 0.26089932E+00 0.24929990E+04</pdfrwt>
<pdfrwt beam="1">  1       -2 0.14095632E+00 0.24929990E+04</pdfrwt>
<totfact> 0.31049773E+00</totfact>
</mgrwt>
</event>
<event>
 4    1  0.1343107E-008  0.2834988E+04  0.7816531E-02  0.8292488E-01
          2   -1    0    0  501    0  0.00000000000E+00  0.00000000000E+00  0.18761242830E+04  0.18761242830E+04  0.00000000000E+00 0.  1.
         -2   -1    0    0    0  501 -0.00000000000E+00 -0.00000000000E+00 -0.10709787000E+04  0.10709787000E+04  0.00000000000E+00 0. -1.
    2000013    1    1    2    0    0  0.68152847427E+03  0.46154673809E+03  0.10836804869E+04  0.16596294316E+04  0.95000000000E+03 0.  0.
   -2000013    1    1    2    0    0 -0.68152847427E+03 -0.46154673809E+03 -0.27853490388E+03  0.12874735513E+04  0.95000000000E+03 0.  0.
<mgrwt>
<rscale>  0 0.28349879E+04</rscale>
<asrwt>0</asrwt>
<pdfrwt beam="1">  1        2 0.28863451E+00 0.28349879E+04</pdfrwt>
<pdfrwt beam="2">  1       -2 0.16476595E+00 0.28349879E+04</pdfrwt>
<totfact> 0.15790118E+00</totfact>
</mgrwt>
</event>
<event>
 4    1  0.1343107E-008  0.3547289E+04  0.7816531E-02  0.8102674E-01
          2   -1    0    0  501    0  0.00000000000E+00  0.00000000000E+00  0.26902699427E+04  0.26902699427E+04  0.00000000000E+00 0.  1.
         -2   -1    0    0    0  501 -0.00000000000E+00 -0.00000000000E+00 -0.11693304206E+04  0.11693304206E+04  0.00000000000E+00 0. -1.
    2000013    1    1    2    0    0 -0.23546134920E+02 -0.11368451870E+04 -0.30021419181E+03  0.15118200821E+04  0.95000000000E+03 0.  0.
   -2000013    1    1    2    0    0  0.23546134920E+02  0.11368451870E+04  0.18211537139E+04  0.23477802813E+04  0.95000000000E+03 0.  0.
<mgrwt>
<rscale>  0 0.35472888E+04</rscale>
<asrwt>0</asrwt>
<pdfrwt beam="1">  1        2 0.41388768E+00 0.35472888E+04</pdfrwt>
<pdfrwt beam="2">  1       -2 0.17989699E+00 0.35472888E+04</pdfrwt>
<totfact> 0.39998496E-01</totfact>
</mgrwt>
</event>
<event>
 4    1  0.1343107E-008  0.3369049E+04  0.7816531E-02  0.8145545E-01
          2   -1    0    0  501    0  0.00000000000E+00  0.00000000000E+00  0.84024051006E+03  0.84024051006E+03  0.00000000000E+00 0.  1.
         -2   -1    0    0    0  501 -0.00000000000E+00 -0.00000000000E+00 -0.33771560383E+04  0.33771560383E+04  0.00000000000E+00 0. -1.
    2000013    1    1    2    0    0  0.11587663374E+04 -0.73442650203E+02 -0.22275324895E+04  0.26856161750E+04  0.95000000000E+03 0.  0.
   -2000013    1    1    2    0    0 -0.11587663374E+04  0.73442650203E+02 -0.30938303880E+03  0.15317803734E+04  0.95000000000E+03 0.  0.
<mgrwt>
<rscale>  0 0.33690493E+04</rscale>
<asrwt>0</asrwt>
<pdfrwt beam="1">  1        2 0.12926777E+00 0.33690493E+04</pdfrwt>
<pdfrwt beam="2">  1       -2 0.51956247E+00 0.33690493E+04</pdfrwt>
<totfact> 0.33561738E-02</totfact>
</mgrwt>
</event>
<event>
 4    1  0.1343107E-008  0.2802121E+04  0.7816531E-02  0.8302610E-01
          2   -1    0    0  501    0  0.00000000000E+00  0.00000000000E+00  0.22188693904E+04  0.22188693904E+04  0.00000000000E+00 0.  1.
         -2   -1    0    0    0  501 -0.00000000000E+00 -0.00000000000E+00 -0.88467170051E+03  0.88467170051E+03  0.00000000000E+00 0. -1.
    2000013    1    1    2    0    0 -0.95796203130E+03  0.69741810804E+02  0.10784166903E+04  0.17285941489E+04  0.95000000000E+03 0.  0.
   -2000013    1    1    2    0    0  0.95796203130E+03 -0.69741810804E+02  0.25578099955E+03  0.13749469420E+04  0.95000000000E+03 0.  0.
<mgrwt>
<rscale>  0 0.28021213E+04</rscale>
<asrwt>0</asrwt>
<pdfrwt beam="1">  1        2 0.34136452E+00 0.28021213E+04</pdfrwt>
<pdfrwt beam="2">  1       -2 0.13610334E+00 0.28021213E+04</pdfrwt>
<totfact> 0.16937453E+00</totfact>
</mgrwt>
</event>
<event>
 4    1  0.1343107E-008  0.2225605E+04  0.7816531E-02  0.8507846E-01
         -2   -1    0    0    0  501 -0.00000000000E+00  0.00000000000E+00  0.28418860518E+04  0.28418860518E+04  0.00000000000E+00 0. -1.
          2   -1    0    0  501    0  0.00000000000E+00 -0.00000000000E+00 -0.43574217053E+03  0.43574217053E+03  0.00000000000E+00 0.  1.
    2000013    1    1    2    0    0  0.13721627949E+03 -0.56302211358E+03  0.11990688050E+04  0.16358753641E+04  0.95000000000E+03 0.  0.
   -2000013    1    1    2    0    0 -0.13721627949E+03  0.56302211358E+03  0.12070750762E+04  0.16417528582E+04  0.95000000000E+03 0.  0.
<mgrwt>
<rscale>  0 0.22256052E+04</rscale>
<asrwt>0</asrwt>
<pdfrwt beam="2">  1        2 0.67037259E-01 0.22256052E+04</pdfrwt>
<pdfrwt beam="1">  1       -2 0.43721323E+00 0.22256052E+04</pdfrwt>
<totfact> 0.27777777E-01</totfact>
</mgrwt>
</event>
<event>
 4    1  0.1343107E-008  0.2650470E+04  0.7816531E-02  0.8351257E-01
          2   -1    0    0  501    0  0.00000000000E+00  0.00000000000E+00  0.11486652619E+04  0.11486652619E+04  0.00000000000E+00 0.  1.
         -2   -1    0    0    0  501 -0.00000000000E+00 -0.00000000000E+00 -0.15289467693E+04  0.15289467693E+04  0.00000000000E+00 0. -1.
    2000013    1    1    2    0    0  0.12842120307E+03 -0.70355783324E+03 -0.78116368467E+03  0.14227446476E+04  0.95000000000E+03 0.  0.
   -2000013    1    1    2    0    0 -0.12842120307E+03  0.70355783324E+03  0.40088217727E+03  0.12548673835E+04  0.95000000000E+03 0.  0.
<mgrwt>
<rscale>  0 0.26504702E+04</rscale>
<asrwt>0</asrwt>
<pdfrwt beam="1">  1        2 0.17671773E+00 0.26504702E+04</pdfrwt>
<pdfrwt beam="2">  1       -2 0.23522258E+00 0.26504702E+04</pdfrwt>
<totfact> 0.14210186E+00</totfact>
</mgrwt>
</event>
<event>
 4    1  0.1343107E-008  0.2613772E+04  0.7816531E-02  0.8363538E-01
         -2   -1    0    0    0  501 -0.00000000000E+00  0.00000000000E+00  0.58568449191E+03  0.58568449191E+03  0.00000000000E+00 0. -1.
          2   -1    0    0  501    0  0.00000000000E+00 -0.00000000000E+00 -0.29161617280E+04  0.29161617280E+04  0.00000000000E+00 0.  1.
    2000013    1    1    2    0    0 -0.98092165141E+02  0.88908917971E+03 -0.10672517108E+04  0.16857128630E+04  0.95000000000E+03 0.  0.
   -2000013    1    1    2    0    0  0.98092165141E+02 -0.88908917971E+03 -0.12632255253E+04  0.18161333569E+04  0.95000000000E+03 0.  0.
<mgrwt>
<rscale>  0 0.26137718E+04</rscale>
<asrwt>0</asrwt>
<pdfrwt beam="2">  1        2 0.44864028E+00 0.26137718E+04</pdfrwt>
<pdfrwt beam="1">  1       -2 0.90105304E-01 0.26137718E+04</pdfrwt>
<totfact> 0.18281331E+00</totfact>
</mgrwt>
</event>
<event>
 4    1  0.1343107E-008  0.3206629E+04  0.7816531E-02  0.8187069E-01
         -2   -1    0    0    0  501 -0.00000000000E+00  0.00000000000E+00  0.14397388576E+04  0.14397388576E+04  0.00000000000E+00 0.  1.
          2   -1    0    0  501    0  0.00000000000E+00 -0.00000000000E+00 -0.17854748852E+04  0.17854748852E+04  0.00000000000E+00 0. -1.
    2000013    1    1    2    0    0 -0.94452932359E+03  0.88035089247E+03 -0.20410010689E+03  0.16159548851E+04  0.95000000000E+03 0.  0.
   -2000013    1    1    2    0    0  0.94452932359E+03 -0.88035089247E+03 -0.14163592074E+03  0.16092588577E+04  0.95000000000E+03 0.  0.
<mgrwt>
<rscale>  0 0.32066291E+04</rscale>
<asrwt>0</asrwt>
<pdfrwt beam="2">  1        2 0.27468844E+00 0.32066291E+04</pdfrwt>
<pdfrwt beam="1">  1       -2 0.22149829E+00 0.32066291E+04</pdfrwt>
<totfact> 0.71545544E-01</totfact>
</mgrwt>
</event>
<event>
 4    1  0.1343107E-008  0.2638738E+04  0.7816531E-02  0.8355160E-01
          2   -1    0    0  501    0  0.00000000000E+00  0.00000000000E+00  0.15190568124E+04  0.15190568124E+04  0.00000000000E+00 0.  1.
         -2   -1    0    0    0  501 -0.00000000000E+00 -0.00000000000E+00 -0.11459315135E+04  0.11459315135E+04  0.00000000000E+00 0. -1.
    2000013    1    1    2    0    0  0.39918218770E+03 -0.54918987086E+03  0.80690348632E+03  0.14193481495E+04  0.95000000000E+03 0.  0.
   -2000013    1    1    2    0    0 -0.39918218770E+03  0.54918987086E+03 -0.43377818735E+03  0.12456401764E+04  0.95000000000E+03 0.  0.
<mgrwt>
<rscale>  0 0.26387384E+04</rscale>
<asrwt>0</asrwt>
<pdfrwt beam="1">  1        2 0.23370105E+00 0.26387384E+04</pdfrwt>
<pdfrwt beam="2">  1       -2 0.17629715E+00 0.26387384E+04</pdfrwt>
<totfact> 0.21011447E+00</totfact>
</mgrwt>
</event>
<event>
 4    1  0.1343107E-008  0.2599933E+04  0.7816531E-02  0.8368224E-01
         -2   -1    0    0    0  501 -0.00000000000E+00  0.00000000000E+00  0.65245454462E+03  0.65245454462E+03  0.00000000000E+00 0. -1.
          2   -1    0    0  501    0  0.00000000000E+00 -0.00000000000E+00 -0.25900846702E+04  0.25900846702E+04  0.00000000000E+00 0.  1.
    2000013    1    1    2    0    0 -0.31874126361E+03 -0.82389602709E+03 -0.86438160214E+03  0.15588637563E+04  0.95000000000E+03 0.  0.
   -2000013    1    1    2    0    0  0.31874126361E+03  0.82389602709E+03 -0.10732485234E+04  0.16836754585E+04  0.95000000000E+03 0.  0.
<mgrwt>
<rscale>  0 0.25999327E+04</rscale>
<asrwt>0</asrwt>
<pdfrwt beam="2">  1        2 0.39847457E+00 0.25999327E+04</pdfrwt>
<pdfrwt beam="1">  1       -2 0.10037762E+00 0.25999327E+04</pdfrwt>
<totfact> 0.22329893E+00</totfact>
</mgrwt>
</event>
<event>
 4    1  0.1343107E-008  0.3155769E+04  0.7816531E-02  0.8200597E-01
         -2   -1    0    0    0  501 -0.00000000000E+00  0.00000000000E+00  0.12395283720E+04  0.12395283720E+04  0.00000000000E+00 0. -1.
          2   -1    0    0  501    0  0.00000000000E+00 -0.00000000000E+00 -0.20086016972E+04  0.20086016972E+04  0.00000000000E+00 0.  1.
    2000013    1    1    2    0    0  0.80604112333E+03  0.84571410021E+03 -0.86980563694E+03  0.17389641968E+04  0.95000000000E+03 0.  0.
   -2000013    1    1    2    0    0 -0.80604112333E+03 -0.84571410021E+03  0.10073231174E+03  0.15091658724E+04  0.95000000000E+03 0.  0.
<mgrwt>
<rscale>  0 0.31557686E+04</rscale>
<asrwt>0</asrwt>
<pdfrwt beam="2">  1        2 0.30901564E+00 0.31557686E+04</pdfrwt>
<pdfrwt beam="1">  1       -2 0.19069668E+00 0.31557686E+04</pdfrwt>
<totfact> 0.85641538E-01</totfact>
</mgrwt>
</event>
<event>
 4    1  0.1343107E-008  0.2289739E+04  0.7816531E-02  0.8481978E-01
         -2   -1    0    0    0  501 -0.00000000000E+00  0.00000000000E+00  0.46320913668E+03  0.46320913668E+03  0.00000000000E+00 0. -1.
          2   -1    0    0  501    0  0.00000000000E+00 -0.00000000000E+00 -0.28296646531E+04  0.28296646531E+04  0.00000000000E+00 0.  1.
    2000013    1    1    2    0    0 -0.57647469479E+03 -0.27529300844E+03 -0.11987969293E+04  0.16576258299E+04  0.95000000000E+03 0.  0.
   -2000013    1    1    2    0    0  0.57647469479E+03  0.27529300844E+03 -0.11676585871E+04  0.16352479599E+04  0.95000000000E+03 0.  0.
<mgrwt>
<rscale>  0 0.22897393E+04</rscale>
<asrwt>0</asrwt>
<pdfrwt beam="2">  1        2 0.43533303E+00 0.22897393E+04</pdfrwt>
<pdfrwt beam="1">  1       -2 0.71262944E-01 0.22897393E+04</pdfrwt>
<totfact> 0.35998482E+00</totfact>
</mgrwt>
</event>
<event>
 4    1  0.1343107E-008  0.2984181E+04  0.7816531E-02  0.8248263E-01
         -2   -1    0    0    0  501 -0.00000000000E+00  0.00000000000E+00  0.11384926462E+04  0.11384926462E+04  0.00000000000E+00 0. -1.
          2   -1    0    0  501    0  0.00000000000E+00 -0.00000000000E+00 -0.19555100452E+04  0.19555100452E+04  0.00000000000E+00 0.  1.
    2000013    1    1    2    0    0  0.43066034334E+03 -0.82614624230E+03  0.29150334349E+03  0.13621527610E+04  0.95000000000E+03 0.  0.
   -2000013    1    1    2    0    0 -0.43066034334E+03  0.82614624230E+03 -0.11085207425E+04  0.17318499304E+04  0.95000000000E+03 0.  0.
<mgrwt>
<rscale>  0 0.29841808E+04</rscale>
<asrwt>0</asrwt>
<pdfrwt beam="2">  1        2 0.30084770E+00 0.29841808E+04</pdfrwt>
<pdfrwt beam="1">  1       -2 0.17515271E+00 0.29841808E+04</pdfrwt>
<totfact> 0.11883198E+00</totfact>
</mgrwt>
</event>
<event>
 4    1  0.1343107E-008  0.1950182E+04  0.7816531E-02  0.8630273E-01
         -1   -1    0    0    0  501 -0.00000000000E+00  0.00000000000E+00  0.92459283877E+03  0.92459283877E+03  0.00000000000E+00 0. -1.
          1   -1    0    0  501    0  0.00000000000E+00 -0.00000000000E+00 -0.10283469981E+04  0.10283469981E+04  0.00000000000E+00 0.  1.
    2000013    1    1    2    0    0 -0.17871540774E+03  0.84784508309E+02 -0.14779698992E+03  0.98156587147E+03  0.95000000000E+03 0.  0.
   -2000013    1    1    2    0    0  0.17871540774E+03 -0.84784508309E+02  0.44042830539E+02  0.97137396544E+03  0.95000000000E+03 0.  0.
<mgrwt>
<rscale>  0 0.19501818E+04</rscale>
<asrwt>0</asrwt>
<pdfrwt beam="2">  1        1 0.15820723E+00 0.19501818E+04</pdfrwt>
<pdfrwt beam="1">  1       -1 0.14224505E+00 0.19501818E+04</pdfrwt>
<totfact> 0.53864765E+00</totfact>
</mgrwt>
</event>
<event>
 4    1  0.1343107E-008  0.2556024E+04  0.7816531E-02  0.8383294E-01
          2   -1    0    0  501    0  0.00000000000E+00  0.00000000000E+00  0.13796324044E+04  0.13796324044E+04  0.00000000000E+00 0.  1.
         -2   -1    0    0    0  501 -0.00000000000E+00 -0.00000000000E+00 -0.11838770376E+04  0.11838770376E+04  0.00000000000E+00 0. -1.
    2000013    1    1    2    0    0  0.55354395274E+03 -0.47899317768E+03 -0.34496916019E+03  0.12479379365E+04  0.95000000000E+03 0.  0.
   -2000013    1    1    2    0    0 -0.55354395274E+03  0.47899317768E+03  0.54072452701E+03  0.13155715055E+04  0.95000000000E+03 0.  0.
<mgrwt>
<rscale>  0 0.25560244E+04</rscale>
<asrwt>0</asrwt>
<pdfrwt beam="1">  1        2 0.21225114E+00 0.25560244E+04</pdfrwt>
<pdfrwt beam="2">  1       -2 0.18213493E+00 0.25560244E+04</pdfrwt>
<totfact> 0.23135254E+00</totfact>
</mgrwt>
</event>
<event>
 4    1  0.1343107E-008  0.2479974E+04  0.7816531E-02  0.8410155E-01
          2   -1    0    0  501    0  0.00000000000E+00  0.00000000000E+00  0.25232418136E+04  0.25232418136E+04  0.00000000000E+00 0.  1.
         -2   -1    0    0    0  501 -0.00000000000E+00 -0.00000000000E+00 -0.60936183421E+03  0.60936183421E+03  0.00000000000E+00 0. -1.
    2000013    1    1    2    0    0 -0.58818154905E+03 -0.42447262461E+03  0.54003455334E+03  0.13115913474E+04  0.95000000000E+03 0.  0.
   -2000013    1    1    2    0    0  0.58818154905E+03  0.42447262461E+03  0.13738454261E+04  0.18210123005E+04  0.95000000000E+03 0.  0.
<mgrwt>
<rscale>  0 0.24799736E+04</rscale>
<asrwt>0</asrwt>
<pdfrwt beam="1">  1        2 0.38819104E+00 0.24799736E+04</pdfrwt>
<pdfrwt beam="2">  1       -2 0.93747976E-01 0.24799736E+04</pdfrwt>
<totfact> 0.28976412E+00</totfact>
</mgrwt>
</event>
<event>
 4    1  0.1343107E-008  0.2871696E+04  0.7816531E-02  0.8281349E-01
         -2   -1    0    0    0  501 -0.00000000000E+00  0.00000000000E+00  0.75486927238E+03  0.75486927238E+03  0.00000000000E+00 0. -1.
          2   -1    0    0  501    0  0.00000000000E+00 -0.00000000000E+00 -0.27311478064E+04  0.27311478064E+04  0.00000000000E+00 0.  1.
    2000013    1    1    2    0    0 -0.10566727171E+04 -0.20305593008E+03 -0.10330809010E+04  0.17684866665E+04  0.95000000000E+03 0.  0.
   -2000013    1    1    2    0    0  0.10566727171E+04  0.20305593008E+03 -0.94319763302E+03  0.17175304122E+04  0.95000000000E+03 0.  0.
<mgrwt>
<rscale>  0 0.28716961E+04</rscale>
<asrwt>0</asrwt>
<pdfrwt beam="2">  1        2 0.42017659E+00 0.28716961E+04</pdfrwt>
<pdfrwt beam="1">  1       -2 0.11613373E+00 0.28716961E+04</pdfrwt>
<totfact> 0.12664705E+00</totfact>
</mgrwt>
</event>
<event>
 4    1  0.1343107E-008  0.2209742E+04  0.7816531E-02  0.8514384E-01
          2   -1    0    0  501    0  0.00000000000E+00  0.00000000000E+00  0.19872459371E+04  0.19872459371E+04  0.00000000000E+00 0.  1.
         -2   -1    0    0    0  501 -0.00000000000E+00 -0.00000000000E+00 -0.61428707691E+03  0.61428707691E+03  0.00000000000E+00 0. -1.
    2000013    1    1    2    0    0 -0.52301684512E+03 -0.19801456277E+03  0.59930254560E+03  0.12547589125E+04  0.95000000000E+03 0.  0.
   -2000013    1    1    2    0    0  0.52301684512E+03  0.19801456277E+03  0.77365631455E+03  0.13467741015E+04  0.95000000000E+03 0.  0.
<mgrwt>
<rscale>  0 0.22097416E+04</rscale>
<asrwt>0</asrwt>
<pdfrwt beam="1">  1        2 0.30573014E+00 0.22097416E+04</pdfrwt>
<pdfrwt beam="2">  1       -2 0.94505705E-01 0.22097416E+04</pdfrwt>
<totfact> 0.58513050E+00</totfact>
</mgrwt>
</event>
<event>
 4    1  0.1343107E-008  0.3979273E+04  0.7816531E-02  0.8008741E-01
         -2   -1    0    0    0  501 -0.00000000000E+00  0.00000000000E+00  0.10959761612E+04  0.10959761612E+04  0.00000000000E+00 0. -1.
          2   -1    0    0  501    0  0.00000000000E+00 -0.00000000000E+00 -0.36119884130E+04  0.36119884130E+04  0.00000000000E+00 0.  1.
    2000013    1    1    2    0    0 -0.71504233287E+03 -0.14100183281E+04 -0.21407735592E+04  0.28257474507E+04  0.95000000000E+03 0.  0.
   -2000013    1    1    2    0    0  0.71504233287E+03  0.14100183281E+04 -0.37523869259E+03  0.18822171235E+04  0.95000000000E+03 0.  0.
<mgrwt>
<rscale>  0 0.39792729E+04</rscale>
<asrwt>0</asrwt>
<pdfrwt beam="2">  1        2 0.55569053E+00 0.39792729E+04</pdfrwt>
<pdfrwt beam="1">  1       -2 0.16861172E+00 0.39792729E+04</pdfrwt>
<totfact> 0.11636365E-01</totfact>
</mgrwt>
</event>
<event>
 4    1  0.1343107E-008  0.2111858E+04  0.7816531E-02  0.8556038E-01
         -2   -1    0    0    0  501 -0.00000000000E+00  0.00000000000E+00  0.12033059256E+04  0.12033059256E+04  0.00000000000E+00 0. -1.
          2   -1    0    0  501    0  0.00000000000E+00 -0.00000000000E+00 -0.92660226272E+03  0.92660226272E+03  0.00000000000E+00 0.  1.
    2000013    1    1    2    0    0 -0.13025957335E+03  0.43587561347E+03  0.21335740853E+03  0.10746983254E+04  0.95000000000E+03 0.  0.
   -2000013    1    1    2    0    0  0.13025957335E+03 -0.43587561347E+03  0.63346254364E+02  0.10552098629E+04  0.95000000000E+03 0.  0.
<mgrwt>
<rscale>  0 0.21118579E+04</rscale>
<asrwt>0</asrwt>
<pdfrwt beam="2">  1        2 0.14255419E+00 0.21118579E+04</pdfrwt>
<pdfrwt beam="1">  1       -2 0.18512399E+00 0.21118579E+04</pdfrwt>
<totfact> 0.43307024E+00</totfact>
</mgrwt>
</event>
<event>
 4    1  0.1343107E-008  0.3719634E+04  0.7816531E-02  0.8063625E-01
          2   -1    0    0  501    0  0.00000000000E+00  0.00000000000E+00  0.29294083024E+04  0.29294083024E+04  0.00000000000E+00 0.  1.
         -2   -1    0    0    0  501 -0.00000000000E+00 -0.00000000000E+00 -0.11807571439E+04  0.11807571439E+04  0.00000000000E+00 0. -1.
    2000013    1    1    2    0    0  0.28908520192E+03 -0.13778987285E+04  0.36974603062E+02  0.16988355663E+04  0.95000000000E+03 0.  0.
   -2000013    1    1    2    0    0 -0.28908520192E+03  0.13778987285E+04  0.17116765554E+04  0.24113298801E+04  0.95000000000E+03 0.  0.
<mgrwt>
<rscale>  0 0.37196343E+04</rscale>
<asrwt>0</asrwt>
<pdfrwt beam="1">  1        2 0.45067820E+00 0.37196343E+04</pdfrwt>
<pdfrwt beam="2">  1       -2 0.18165495E+00 0.37196343E+04</pdfrwt>
<totfact> 0.27451770E-01</totfact>
</mgrwt>
</event>
<event>
 4    1  0.1343107E-008  0.2723893E+04  0.7816531E-02  0.8327294E-01
          2   -1    0    0  501    0  0.00000000000E+00  0.00000000000E+00  0.26030088326E+04  0.26030088326E+04  0.00000000000E+00 0.  1.
         -2   -1    0    0    0  501 -0.00000000000E+00 -0.00000000000E+00 -0.71259777660E+03  0.71259777660E+03  0.00000000000E+00 0. -1.
    2000013    1    1    2    0    0 -0.73858075338E+03 -0.61145821106E+03  0.72403219347E+03  0.15317001307E+04  0.95000000000E+03 0.  0.
   -2000013    1    1    2    0    0  0.73858075338E+03  0.61145821106E+03  0.11663788625E+04  0.17839064785E+04  0.95000000000E+03 0.  0.
<mgrwt>
<rscale>  0 0.27238930E+04</rscale>
<asrwt>0</asrwt>
<pdfrwt beam="1">  1        2 0.40046289E+00 0.27238930E+04</pdfrwt>
<pdfrwt beam="2">  1       -2 0.10963043E+00 0.27238930E+04</pdfrwt>
<totfact> 0.17573602E+00</totfact>
</mgrwt>
</event>
<event>
 4    1  0.1343107E-008  0.2772959E+04  0.7816531E-02  0.8311713E-01
         -2   -1    0    0    0  501 -0.00000000000E+00  0.00000000000E+00  0.11142115813E+04  0.11142115813E+04  0.00000000000E+00 0. -1.
          2   -1    0    0  501    0  0.00000000000E+00 -0.00000000000E+00 -0.17252785293E+04  0.17252785293E+04  0.00000000000E+00 0.  1.
    2000013    1    1    2    0    0 -0.20754793225E+03 -0.97348852966E+03 -0.48012127128E+03  0.14573168827E+04  0.95000000000E+03 0.  0.
   -2000013    1    1    2    0    0  0.20754793225E+03  0.97348852966E+03 -0.13094567676E+03  0.13821732279E+04  0.95000000000E+03 0.  0.
<mgrwt>
<rscale>  0 0.27729589E+04</rscale>
<asrwt>0</asrwt>
<pdfrwt beam="2">  1        2 0.26542746E+00 0.27729589E+04</pdfrwt>
<pdfrwt beam="1">  1       -2 0.17141717E+00 0.27729589E+04</pdfrwt>
<totfact> 0.17245513E+00</totfact>
</mgrwt>
</event>
<event>
 4    1  0.1343107E-008  0.2468507E+04  0.7816531E-02  0.8414292E-01
          1   -1    0    0  501    0  0.00000000000E+00  0.00000000000E+00  0.12195663403E+04  0.12195663403E+04  0.00000000000E+00 0. -1.
         -1   -1    0    0    0  501 -0.00000000000E+00 -0.00000000000E+00 -0.12491170974E+04  0.12491170974E+04  0.00000000000E+00 0.  1.
    2000013    1    1    2    0    0 -0.50011283885E+03 -0.56598438705E+03 -0.23935769325E+03  0.12370300252E+04  0.95000000000E+03 0.  0.
   -2000013    1    1    2    0    0  0.50011283885E+03  0.56598438705E+03  0.20980693614E+03  0.12316534125E+04  0.95000000000E+03 0.  0.
<mgrwt>
<rscale>  0 0.24685066E+04</rscale>
<asrwt>0</asrwt>
<pdfrwt beam="1">  1        1 0.18762559E+00 0.24685066E+04</pdfrwt>
<pdfrwt beam="2">  1       -1 0.19217186E+00 0.24685066E+04</pdfrwt>
<totfact> 0.15715310E+00</totfact>
</mgrwt>
</event>
<event>
 4    1  0.1343107E-008  0.2692046E+04  0.7816531E-02  0.8337590E-01
          2   -1    0    0  501    0  0.00000000000E+00  0.00000000000E+00  0.12607616356E+04  0.12607616356E+04  0.00000000000E+00 0.  1.
         -2   -1    0    0    0  501 -0.00000000000E+00 -0.00000000000E+00 -0.14370503348E+04  0.14370503348E+04  0.00000000000E+00 0. -1.
    2000013    1    1    2    0    0 -0.91628580589E+03  0.24706092301E+02 -0.35155302473E+03  0.13661184423E+04  0.95000000000E+03 0.  0.
   -2000013    1    1    2    0    0  0.91628580589E+03 -0.24706092301E+02  0.17526432555E+03  0.13316935281E+04  0.95000000000E+03 0.  0.
<mgrwt>
<rscale>  0 0.26920460E+04</rscale>
<asrwt>0</asrwt>
<pdfrwt beam="1">  1        2 0.19396333E+00 0.26920460E+04</pdfrwt>
<pdfrwt beam="2">  1       -2 0.22108467E+00 0.26920460E+04</pdfrwt>
<totfact> 0.14886591E+00</totfact>
</mgrwt>
</event>
<event>
 4    1  0.1343107E-008  0.2352507E+04  0.7816531E-02  0.8457501E-01
         -2   -1    0    0    0  501 -0.00000000000E+00  0.00000000000E+00  0.10569025322E+04  0.10569025322E+04  0.00000000000E+00 0. -1.
          2   -1    0    0  501    0  0.00000000000E+00 -0.00000000000E+00 -0.13090822622E+04  0.13090822622E+04  0.00000000000E+00 0.  1.
    2000013    1    1    2    0    0  0.26821783024E+03 -0.63575665016E+03 -0.55366045769E+02  0.11754542619E+04  0.95000000000E+03 0.  0.
   -2000013    1    1    2    0    0 -0.26821783024E+03  0.63575665016E+03 -0.19681368429E+03  0.11905305326E+04  0.95000000000E+03 0.  0.
<mgrwt>
<rscale>  0 0.23525071E+04</rscale>
<asrwt>0</asrwt>
<pdfrwt beam="2">  1        2 0.20139727E+00 0.23525071E+04</pdfrwt>
<pdfrwt beam="1">  1       -2 0.16260039E+00 0.23525071E+04</pdfrwt>
<totfact> 0.35537916E+00</totfact>
</mgrwt>
</event>
<event>
 4    1  0.1343107E-008  0.2599599E+04  0.7816531E-02  0.8368337E-01
         -2   -1    0    0    0  501 -0.00000000000E+00  0.00000000000E+00  0.14382546518E+04  0.14382546518E+04  0.00000000000E+00 0. -1.
          2   -1    0    0  501    0  0.00000000000E+00 -0.00000000000E+00 -0.11746730437E+04  0.11746730437E+04  0.00000000000E+00 0.  1.
    2000013    1    1    2    0    0 -0.82156774884E+03  0.27831028124E+03  0.31861685218E+03  0.13253101060E+04  0.95000000000E+03 0.  0.
   -2000013    1    1    2    0    0  0.82156774884E+03 -0.27831028124E+03 -0.55035244065E+02  0.12876175895E+04  0.95000000000E+03 0.  0.
<mgrwt>
<rscale>  0 0.25995992E+04</rscale>
<asrwt>0</asrwt>
<pdfrwt beam="2">  1        2 0.18071893E+00 0.25995992E+04</pdfrwt>
<pdfrwt beam="1">  1       -2 0.22126995E+00 0.25995992E+04</pdfrwt>
<totfact> 0.16834642E+00</totfact>
</mgrwt>
</event>
<event>
 4    1  0.1343107E-008  0.2785336E+04  0.7816531E-02  0.8307835E-01
         -2   -1    0    0    0  501 -0.00000000000E+00  0.00000000000E+00  0.90619985658E+03  0.90619985658E+03  0.00000000000E+00 0. -1.
          2   -1    0    0  501    0  0.00000000000E+00 -0.00000000000E+00 -0.21402835197E+04  0.21402835197E+04  0.00000000000E+00 0.  1.
    2000013    1    1    2    0    0  0.88229487312E+03 -0.49303052066E+03 -0.48086445429E+03  0.14680783224E+04  0.95000000000E+03 0.  0.
   -2000013    1    1    2    0    0 -0.88229487312E+03  0.49303052066E+03 -0.75321920882E+03  0.15784050538E+04  0.95000000000E+03 0.  0.
<mgrwt>
<rscale>  0 0.27853363E+04</rscale>
<asrwt>0</asrwt>
<pdfrwt beam="2">  1        2 0.32927439E+00 0.27853363E+04</pdfrwt>
<pdfrwt beam="1">  1       -2 0.13941536E+00 0.27853363E+04</pdfrwt>
<totfact> 0.17645878E+00</totfact>
</mgrwt>
</event>
<event>
 4    1  0.1343107E-008  0.2129915E+04  0.7816531E-02  0.8548179E-01
         -2   -1    0    0    0  501 -0.00000000000E+00  0.00000000000E+00  0.28862703008E+03  0.28862703008E+03  0.00000000000E+00 0. -1.
          2   -1    0    0  501    0  0.00000000000E+00 -0.00000000000E+00 -0.39294101465E+04  0.39294101465E+04  0.00000000000E+00 0.  1.
    2000013    1    1    2    0    0 -0.35893829658E+03 -0.17233882052E+03 -0.23558143403E+04  0.25711667732E+04  0.95000000000E+03 0.  0.
   -2000013    1    1    2    0    0  0.35893829658E+03  0.17233882052E+03 -0.12849687761E+04  0.16468704034E+04  0.95000000000E+03 0.  0.
<mgrwt>
<rscale>  0 0.21299145E+04</rscale>
<asrwt>0</asrwt>
<pdfrwt beam="2">  1        2 0.60452464E+00 0.21299145E+04</pdfrwt>
<pdfrwt beam="1">  1       -2 0.44404158E-01 0.21299145E+04</pdfrwt>
<totfact> 0.17363166E+00</totfact>
</mgrwt>
</event>
<event>
 4    1  0.1343107E-008  0.3090280E+04  0.7816531E-02  0.8218411E-01
         -2   -1    0    0    0  501 -0.00000000000E+00  0.00000000000E+00  0.14272243830E+04  0.14272243830E+04  0.00000000000E+00 0. -1.
          2   -1    0    0  501    0  0.00000000000E+00 -0.00000000000E+00 -0.16727977704E+04  0.16727977704E+04  0.00000000000E+00 0.  1.
    2000013    1    1    2    0    0 -0.57130096644E+03  0.90548251321E+03 -0.70657868300E+03  0.15962571257E+04  0.95000000000E+03 0.  0.
   -2000013    1    1    2    0    0  0.57130096644E+03 -0.90548251321E+03  0.46100529568E+03  0.15037650277E+04  0.95000000000E+03 0.  0.
<mgrwt>
<rscale>  0 0.30902801E+04</rscale>
<asrwt>0</asrwt>
<pdfrwt beam="2">  1        2 0.25735350E+00 0.30902801E+04</pdfrwt>
<pdfrwt beam="1">  1       -2 0.21957298E+00 0.30902801E+04</pdfrwt>
<totfact> 0.85823332E-01</totfact>
</mgrwt>
</event>
<event>
 4    1  0.1343107E-008  0.2057769E+04  0.7816531E-02  0.8580078E-01
          1   -1    0    0  501    0  0.00000000000E+00  0.00000000000E+00  0.10957765408E+04  0.10957765408E+04  0.00000000000E+00 0.  1.
         -1   -1    0    0    0  501 -0.00000000000E+00 -0.00000000000E+00 -0.96607584394E+03  0.96607584394E+03  0.00000000000E+00 0. -1.
    2000013    1    1    2    0    0  0.35316086834E+03  0.13769088526E+03  0.17652494967E+03  0.10379510762E+04  0.95000000000E+03 0.  0.
   -2000013    1    1    2    0    0 -0.35316086834E+03 -0.13769088526E+03 -0.46824252854E+02  0.10239013085E+04  0.95000000000E+03 0.  0.
<mgrwt>
<rscale>  0 0.20577689E+04</rscale>
<asrwt>0</asrwt>
<pdfrwt beam="1">  1        1 0.16858101E+00 0.20577689E+04</pdfrwt>
<pdfrwt beam="2">  1       -1 0.14862705E+00 0.20577689E+04</pdfrwt>
<totfact> 0.42168095E+00</totfact>
</mgrwt>
</event>
<event>
 4    1  0.1343107E-008  0.2483109E+04  0.7816531E-02  0.8409028E-01
          2   -1    0    0  501    0  0.00000000000E+00  0.00000000000E+00  0.10871899695E+04  0.10871899695E+04  0.00000000000E+00 0.  1.
         -2   -1    0    0    0  501 -0.00000000000E+00 -0.00000000000E+00 -0.14178361514E+04  0.14178361514E+04  0.00000000000E+00 0. -1.
    2000013    1    1    2    0    0 -0.74195951393E+03  0.18290426717E+03 -0.40191250249E+03  0.12837412321E+04  0.95000000000E+03 0.  0.
   -2000013    1    1    2    0    0  0.74195951393E+03 -0.18290426717E+03  0.71266320589E+02  0.12212848888E+04  0.95000000000E+03 0.  0.
<mgrwt>
<rscale>  0 0.24831087E+04</rscale>
<asrwt>0</asrwt>
<pdfrwt beam="1">  1        2 0.16726000E+00 0.24831087E+04</pdfrwt>
<pdfrwt beam="2">  1       -2 0.21812864E+00 0.24831087E+04</pdfrwt>
<totfact> 0.20126360E+00</totfact>
</mgrwt>
</event>
<event>
 4    1  0.1343107E-008  0.3003739E+04  0.7816531E-02  0.8242664E-01
          2   -1    0    0  501    0  0.00000000000E+00  0.00000000000E+00  0.27328999154E+04  0.27328999154E+04  0.00000000000E+00 0.  1.
         -2   -1    0    0    0  501 -0.00000000000E+00 -0.00000000000E+00 -0.82535477532E+03  0.82535477532E+03  0.00000000000E+00 0. -1.
    2000013    1    1    2    0    0  0.70676836809E+03  0.22555533978E+03 -0.10757002994E+03  0.12101520767E+04  0.95000000000E+03 0.  0.
   -2000013    1    1    2    0    0 -0.70676836809E+03 -0.22555533978E+03  0.20151151701E+04  0.23481026140E+04  0.95000000000E+03 0.  0.
<mgrwt>
<rscale>  0 0.30037390E+04</rscale>
<asrwt>0</asrwt>
<pdfrwt beam="1">  1        2 0.42044614E+00 0.30037390E+04</pdfrwt>
<pdfrwt beam="2">  1       -2 0.12697766E+00 0.30037390E+04</pdfrwt>
<totfact> 0.10006363E+00</totfact>
</mgrwt>
</event>
<event>
 4    1  0.1343107E-008  0.3176935E+04  0.7816531E-02  0.8194935E-01
          2   -1    0    0  501    0  0.00000000000E+00  0.00000000000E+00  0.21814995491E+04  0.21814995491E+04  0.00000000000E+00 0.  1.
         -2   -1    0    0    0  501 -0.00000000000E+00 -0.00000000000E+00 -0.11566487522E+04  0.11566487522E+04  0.00000000000E+00 0. -1.
    2000013    1    1    2    0    0 -0.62194185336E+03  0.10841737035E+04  0.76653290794E+03  0.17470881452E+04  0.95000000000E+03 0.  0.
   -2000013    1    1    2    0    0  0.62194185336E+03 -0.10841737035E+04  0.25831788896E+03  0.15910601560E+04  0.95000000000E+03 0.  0.
<mgrwt>
<rscale>  0 0.31769348E+04</rscale>
<asrwt>0</asrwt>
<pdfrwt beam="1">  1        2 0.33561532E+00 0.31769348E+04</pdfrwt>
<pdfrwt beam="2">  1       -2 0.17794596E+00 0.31769348E+04</pdfrwt>
<totfact> 0.83611530E-01</totfact>
</mgrwt>
</event>
<event>
 4    1  0.1343107E-008  0.2609328E+04  0.7816531E-02  0.8365040E-01
         -2   -1    0    0    0  501 -0.00000000000E+00  0.00000000000E+00  0.37230859856E+03  0.37230859856E+03  0.00000000000E+00 0. -1.
          2   -1    0    0  501    0  0.00000000000E+00 -0.00000000000E+00 -0.45718730393E+04  0.45718730393E+04  0.00000000000E+00 0.  1.
    2000013    1    1    2    0    0 -0.72567024162E+03  0.46902816682E+03 -0.16633051904E+04  0.21013492992E+04  0.95000000000E+03 0.  0.
   -2000013    1    1    2    0    0  0.72567024162E+03 -0.46902816682E+03 -0.25362592503E+04  0.28428323386E+04  0.95000000000E+03 0.  0.
<mgrwt>
<rscale>  0 0.26093276E+04</rscale>
<asrwt>0</asrwt>
<pdfrwt beam="2">  1        2 0.70336506E+00 0.26093276E+04</pdfrwt>
<pdfrwt beam="1">  1       -2 0.57278248E-01 0.26093276E+04</pdfrwt>
<totfact> 0.26469257E-01</totfact>
</mgrwt>
</event>
<event>
 4    1  0.1343107E-008  0.2143170E+04  0.7816531E-02  0.8542461E-01
          2   -1    0    0  501    0  0.00000000000E+00  0.00000000000E+00  0.19875656951E+04  0.19875656951E+04  0.00000000000E+00 0.  1.
         -2   -1    0    0    0  501 -0.00000000000E+00 -0.00000000000E+00 -0.57773929987E+03  0.57773929987E+03  0.00000000000E+00 0. -1.
    2000013    1    1    2    0    0 -0.43211510386E+03  0.23956968820E+03  0.65588551570E+03  0.12557081302E+04  0.95000000000E+03 0.  0.
   -2000013    1    1    2    0    0  0.43211510386E+03 -0.23956968820E+03  0.75394087958E+03  0.13095968648E+04  0.95000000000E+03 0.  0.
<mgrwt>
<rscale>  0 0.21431704E+04</rscale>
<asrwt>0</asrwt>
<pdfrwt beam="1">  1        2 0.30577934E+00 0.21431704E+04</pdfrwt>
<pdfrwt beam="2">  1       -2 0.88882970E-01 0.21431704E+04</pdfrwt>
<totfact> 0.67800275E+00</totfact>
</mgrwt>
</event>
<event>
 4    1  0.1343107E-008  0.2443750E+04  0.7816531E-02  0.8423303E-01
         -2   -1    0    0    0  501 -0.00000000000E+00  0.00000000000E+00  0.41232798550E+03  0.41232798550E+03  0.00000000000E+00 0. -1.
          2   -1    0    0  501    0  0.00000000000E+00 -0.00000000000E+00 -0.36208516504E+04  0.36208516504E+04  0.00000000000E+00 0.  1.
    2000013    1    1    2    0    0 -0.71727531004E+02  0.68438075301E+03 -0.10398407991E+04  0.15675747961E+04  0.95000000000E+03 0.  0.
   -2000013    1    1    2    0    0  0.71727531004E+02 -0.68438075301E+03 -0.21686828658E+04  0.24656048398E+04  0.95000000000E+03 0.  0.
<mgrwt>
<rscale>  0 0.24437500E+04</rscale>
<asrwt>0</asrwt>
<pdfrwt beam="2">  1        2 0.55705408E+00 0.24437500E+04</pdfrwt>
<pdfrwt beam="1">  1       -2 0.63435076E-01 0.24437500E+04</pdfrwt>
<totfact> 0.13775677E+00</totfact>
</mgrwt>
</event>
<event>
 4    1  0.1343107E-008  0.3477666E+04  0.7816531E-02  0.8119103E-01
         -2   -1    0    0    0  501 -0.00000000000E+00  0.00000000000E+00  0.19393254525E+04  0.19393254525E+04  0.00000000000E+00 0. -1.
          2   -1    0    0  501    0  0.00000000000E+00 -0.00000000000E+00 -0.15590678673E+04  0.15590678673E+04  0.00000000000E+00 0.  1.
    2000013    1    1    2    0    0  0.10887790470E+04 -0.81859630821E+03 -0.32820946243E+03  0.16928559243E+04  0.95000000000E+03 0.  0.
   -2000013    1    1    2    0    0 -0.10887790470E+04  0.81859630821E+03  0.70846704765E+03  0.18055373955E+04  0.95000000000E+03 0.  0.
<mgrwt>
<rscale>  0 0.34776659E+04</rscale>
<asrwt>0</asrwt>
<pdfrwt beam="2">  1        2 0.23985659E+00 0.34776659E+04</pdfrwt>
<pdfrwt beam="1">  1       -2 0.29835776E+00 0.34776659E+04</pdfrwt>
<totfact> 0.31480021E-01</totfact>
</mgrwt>
</event>
<event>
 4    1  0.1343107E-008  0.2323011E+04  0.7816531E-02  0.8468903E-01
          1   -1    0    0  501    0  0.00000000000E+00  0.00000000000E+00  0.60088568264E+03  0.60088568264E+03  0.00000000000E+00 0.  1.
         -1   -1    0    0    0  501 -0.00000000000E+00 -0.00000000000E+00 -0.22451783487E+04  0.22451783487E+04  0.00000000000E+00 0. -1.
    2000013    1    1    2    0    0  0.19856085805E+03 -0.60225864735E+03 -0.10804597389E+04  0.15722706955E+04  0.95000000000E+03 0.  0.
   -2000013    1    1    2    0    0 -0.19856085805E+03  0.60225864735E+03 -0.56383292719E+03  0.12737933358E+04  0.95000000000E+03 0.  0.
<mgrwt>
<rscale>  0 0.23230114E+04</rscale>
<asrwt>0</asrwt>
<pdfrwt beam="1">  1        1 0.92443953E-01 0.23230114E+04</pdfrwt>
<pdfrwt beam="2">  1       -1 0.34541205E+00 0.23230114E+04</pdfrwt>
<totfact> 0.51404493E-01</totfact>
</mgrwt>
</event>
<event>
 4    1  0.1343107E-008  0.2599864E+04  0.7816531E-02  0.8368247E-01
          1   -1    0    0  501    0  0.00000000000E+00  0.00000000000E+00  0.15090485221E+04  0.15090485221E+04  0.00000000000E+00 0.  1.
         -1   -1    0    0    0  501 -0.00000000000E+00 -0.00000000000E+00 -0.11197940675E+04  0.11197940675E+04  0.00000000000E+00 0. -1.
    2000013    1    1    2    0    0 -0.54654316479E+03 -0.43021368263E+03  0.75170387896E+03  0.13969080017E+04  0.95000000000E+03 0.  0.
   -2000013    1    1    2    0    0  0.54654316479E+03  0.43021368263E+03 -0.36244942432E+03  0.12319345879E+04  0.95000000000E+03 0.  0.
<mgrwt>
<rscale>  0 0.25998643E+04</rscale>
<asrwt>0</asrwt>
<pdfrwt beam="1">  1        1 0.23216131E+00 0.25998643E+04</pdfrwt>
<pdfrwt beam="2">  1       -1 0.17227601E+00 0.25998643E+04</pdfrwt>
<totfact> 0.13447408E+00</totfact>
</mgrwt>
</event>
<event>
 4    1  0.1343107E-008  0.2195959E+04  0.7816531E-02  0.8520112E-01
          1   -1    0    0  501    0  0.00000000000E+00  0.00000000000E+00  0.28540201679E+04  0.28540201679E+04  0.00000000000E+00 0.  1.
         -1   -1    0    0    0  501 -0.00000000000E+00 -0.00000000000E+00 -0.42240748340E+03  0.42240748340E+03  0.00000000000E+00 0. -1.
    2000013    1    1    2    0    0  0.18626499851E+03  0.47338521580E+03  0.90187315487E+03  0.14052271701E+04  0.95000000000E+03 0.  0.
   -2000013    1    1    2    0    0 -0.18626499851E+03 -0.47338521580E+03  0.15297395296E+04  0.18712004812E+04  0.95000000000E+03 0.  0.
<mgrwt>
<rscale>  0 0.21959595E+04</rscale>
<asrwt>0</asrwt>
<pdfrwt beam="1">  1        1 0.43908001E+00 0.21959595E+04</pdfrwt>
<pdfrwt beam="2">  1       -1 0.64985768E-01 0.21959595E+04</pdfrwt>
<totfact> 0.16703534E+00</totfact>
</mgrwt>
</event>
<event>
 4    1  0.1343107E-008  0.2730281E+04  0.7816531E-02  0.8325246E-01
         -4   -1    0    0    0  501 -0.00000000000E+00  0.00000000000E+00  0.22492486344E+04  0.22492486344E+04  0.00000000000E+00 0. -1.
          4   -1    0    0  501    0  0.00000000000E+00 -0.00000000000E+00 -0.82854736259E+03  0.82854736259E+03  0.00000000000E+00 0.  1.
    2000013    1    1    2    0    0 -0.30944737110E+03 -0.91747997716E+03  0.53724098694E+03  0.14589911110E+04  0.95000000000E+03 0.  0.
   -2000013    1    1    2    0    0  0.30944737110E+03  0.91747997716E+03  0.88346028489E+03  0.16188048860E+04  0.95000000000E+03 0.  0.
<mgrwt>
<rscale>  0 0.27302813E+04</rscale>
<asrwt>0</asrwt>
<pdfrwt beam="2">  1        4 0.12746883E+00 0.27302813E+04</pdfrwt>
<pdfrwt beam="1">  1       -4 0.34603825E+00 0.27302813E+04</pdfrwt>
<totfact> 0.12466195E-02</totfact>
</mgrwt>
</event>
<event>
 4    1  0.1343107E-008  0.2328640E+04  0.7816531E-02  0.8466713E-01
          2   -1    0    0  501    0  0.00000000000E+00  0.00000000000E+00  0.22643175148E+04  0.22643175148E+04  0.00000000000E+00 0.  1.
         -2   -1    0    0    0  501 -0.00000000000E+00 -0.00000000000E+00 -0.59869763625E+03  0.59869763625E+03  0.00000000000E+00 0. -1.
    2000013    1    1    2    0    0 -0.32131727701E+03  0.49309756279E+03  0.12345159224E+04  0.16652085640E+04  0.95000000000E+03 0.  0.
   -2000013    1    1    2    0    0  0.32131727701E+03 -0.49309756279E+03  0.43110395612E+03  0.11978065870E+04  0.95000000000E+03 0.  0.
<mgrwt>
<rscale>  0 0.23286404E+04</rscale>
<asrwt>0</asrwt>
<pdfrwt beam="1">  1        2 0.34835654E+00 0.23286404E+04</pdfrwt>
<pdfrwt beam="2">  1       -2 0.92107330E-01 0.23286404E+04</pdfrwt>
<totfact> 0.43026498E+00</totfact>
</mgrwt>
</event>
<event>
 4    1  0.1343107E-008  0.2361320E+04  0.7816531E-02  0.8454128E-01
         -2   -1    0    0    0  501 -0.00000000000E+00  0.00000000000E+00  0.54299369309E+03  0.54299369309E+03  0.00000000000E+00 0. -1.
          2   -1    0    0  501    0  0.00000000000E+00 -0.00000000000E+00 -0.25671711900E+04  0.25671711900E+04  0.00000000000E+00 0.  1.
    2000013    1    1    2    0    0  0.69497864230E+03  0.76645504165E+02 -0.10790932408E+04  0.15986907358E+04  0.95000000000E+03 0.  0.
   -2000013    1    1    2    0    0 -0.69497864230E+03 -0.76645504165E+02 -0.94508425609E+03  0.15114741472E+04  0.95000000000E+03 0.  0.
<mgrwt>
<rscale>  0 0.23613198E+04</rscale>
<asrwt>0</asrwt>
<pdfrwt beam="2">  1        2 0.39494940E+00 0.23613198E+04</pdfrwt>
<pdfrwt beam="1">  1       -2 0.83537494E-01 0.23613198E+04</pdfrwt>
<totfact> 0.35968221E+00</totfact>
</mgrwt>
</event>
<event>
 4    1  0.1343107E-008  0.2340603E+04  0.7816531E-02  0.8462082E-01
         -2   -1    0    0    0  501 -0.00000000000E+00  0.00000000000E+00  0.12809373217E+04  0.12809373217E+04  0.00000000000E+00 0. -1.
          2   -1    0    0  501    0  0.00000000000E+00 -0.00000000000E+00 -0.10692213692E+04  0.10692213692E+04  0.00000000000E+00 0.  1.
    2000013    1    1    2    0    0  0.59392788520E+03  0.33583883804E+02  0.44372445336E+03  0.12055163212E+04  0.95000000000E+03 0.  0.
   -2000013    1    1    2    0    0 -0.59392788520E+03 -0.33583883804E+02 -0.23200850090E+03  0.11446423697E+04  0.95000000000E+03 0.  0.
<mgrwt>
<rscale>  0 0.23406030E+04</rscale>
<asrwt>0</asrwt>
<pdfrwt beam="2">  1        2 0.16449559E+00 0.23406030E+04</pdfrwt>
<pdfrwt beam="1">  1       -2 0.19706728E+00 0.23406030E+04</pdfrwt>
<totfact> 0.28603533E+00</totfact>
</mgrwt>
</event>
<event>
 4    1  0.1343107E-008  0.3192976E+04  0.7816531E-02  0.8190675E-01
         -1   -1    0    0    0  501 -0.00000000000E+00  0.00000000000E+00  0.14222118186E+04  0.14222118186E+04  0.00000000000E+00 0. -1.
          1   -1    0    0  501    0  0.00000000000E+00 -0.00000000000E+00 -0.17921203211E+04  0.17921203211E+04  0.00000000000E+00 0.  1.
    2000013    1    1    2    0    0 -0.96720016651E+03 -0.76060219503E+03 -0.55109392148E+03  0.16493017830E+04  0.95000000000E+03 0.  0.
   -2000013    1    1    2    0    0  0.96720016651E+03  0.76060219503E+03  0.18118541899E+03  0.15650303567E+04  0.95000000000E+03 0.  0.
<mgrwt>
<rscale>  0 0.31929765E+04</rscale>
<asrwt>0</asrwt>
<pdfrwt beam="2">  1        1 0.27571082E+00 0.31929765E+04</pdfrwt>
<pdfrwt beam="1">  1       -1 0.21880182E+00 0.31929765E+04</pdfrwt>
<totfact> 0.38712304E-01</totfact>
</mgrwt>
</event>
<event>
 4    1  0.1343107E-008  0.2553204E+04  0.7816531E-02  0.8384273E-01
         -2   -1    0    0    0  501 -0.00000000000E+00  0.00000000000E+00  0.15620203423E+04  0.15620203423E+04  0.00000000000E+00 0. -1.
          2   -1    0    0  501    0  0.00000000000E+00 -0.00000000000E+00 -0.10433365481E+04  0.10433365481E+04  0.00000000000E+00 0.  1.
    2000013    1    1    2    0    0  0.69787167411E+03 -0.26057091878E+03 -0.16421597866E+03  0.12183550242E+04  0.95000000000E+03 0.  0.
   -2000013    1    1    2    0    0 -0.69787167411E+03  0.26057091878E+03  0.68289977290E+03  0.13870018663E+04  0.95000000000E+03 0.  0.
<mgrwt>
<rscale>  0 0.25532042E+04</rscale>
<asrwt>0</asrwt>
<pdfrwt beam="2">  1        2 0.16051332E+00 0.25532042E+04</pdfrwt>
<pdfrwt beam="1">  1       -2 0.24031082E+00 0.25532042E+04</pdfrwt>
<totfact> 0.15476718E+00</totfact>
</mgrwt>
</event>
<event>
 4    1  0.1343107E-008  0.2542047E+04  0.7816531E-02  0.8388157E-01
         -2   -1    0    0    0  501 -0.00000000000E+00  0.00000000000E+00  0.56457524827E+03  0.56457524827E+03  0.00000000000E+00 0. -1.
          2   -1    0    0  501    0  0.00000000000E+00 -0.00000000000E+00 -0.28614438829E+04  0.28614438829E+04  0.00000000000E+00 0.  1.
    2000013    1    1    2    0    0 -0.17077753675E+03 -0.68000383519E+03 -0.17826320544E+04  0.21381878365E+04  0.95000000000E+03 0.  0.
   -2000013    1    1    2    0    0  0.17077753675E+03  0.68000383519E+03 -0.51423658019E+03  0.12878312946E+04  0.95000000000E+03 0.  0.
<mgrwt>
<rscale>  0 0.25420467E+04</rscale>
<asrwt>0</asrwt>
<pdfrwt beam="2">  1        2 0.44022214E+00 0.25420467E+04</pdfrwt>
<pdfrwt beam="1">  1       -2 0.86857730E-01 0.25420467E+04</pdfrwt>
<totfact> 0.21623819E+00</totfact>
</mgrwt>
</event>
<event>
 4    1  0.1343107E-008  0.2502160E+04  0.7816531E-02  0.8402216E-01
          2   -1    0    0  501    0  0.00000000000E+00  0.00000000000E+00  0.24101443072E+04  0.24101443072E+04  0.00000000000E+00 0.  1.
         -2   -1    0    0    0  501 -0.00000000000E+00 -0.00000000000E+00 -0.64942217231E+03  0.64942217231E+03  0.00000000000E+00 0. -1.
    2000013    1    1    2    0    0  0.38701954948E+03  0.71282540349E+03  0.96505027133E+03  0.15785202608E+04  0.95000000000E+03 0.  0.
   -2000013    1    1    2    0    0 -0.38701954948E+03 -0.71282540349E+03  0.79567186357E+03  0.14810462187E+04  0.95000000000E+03 0.  0.
<mgrwt>
<rscale>  0 0.25021600E+04</rscale>
<asrwt>0</asrwt>
<pdfrwt beam="1">  1        2 0.37079143E+00 0.25021600E+04</pdfrwt>
<pdfrwt beam="2">  1       -2 0.99911105E-01 0.25021600E+04</pdfrwt>
<totfact> 0.28948692E+00</totfact>
</mgrwt>
</event>
<event>
 4    1  0.1343107E-008  0.2739045E+04  0.7816531E-02  0.8322446E-01
          2   -1    0    0  501    0  0.00000000000E+00  0.00000000000E+00  0.70792057475E+03  0.70792057475E+03  0.00000000000E+00 0.  1.
         -2   -1    0    0    0  501 -0.00000000000E+00 -0.00000000000E+00 -0.26494391308E+04  0.26494391308E+04  0.00000000000E+00 0. -1.
    2000013    1    1    2    0    0  0.47772084461E+03  0.83187839946E+03 -0.12525559797E+04  0.18416393130E+04  0.95000000000E+03 0.  0.
   -2000013    1    1    2    0    0 -0.47772084461E+03 -0.83187839946E+03 -0.68896257638E+03  0.15157203926E+04  0.95000000000E+03 0.  0.
<mgrwt>
<rscale>  0 0.27390454E+04</rscale>
<asrwt>0</asrwt>
<pdfrwt beam="1">  1        2 0.10891086E+00 0.27390454E+04</pdfrwt>
<pdfrwt beam="2">  1       -2 0.40760602E+00 0.27390454E+04</pdfrwt>
<totfact> 0.23363590E-01</totfact>
</mgrwt>
</event>
<event>
 4    1  0.1343107E-008  0.3033986E+04  0.7816531E-02  0.8234092E-01
         -2   -1    0    0    0  501 -0.00000000000E+00  0.00000000000E+00  0.16576683284E+04  0.16576683284E+04  0.00000000000E+00 0. -1.
          2   -1    0    0  501    0  0.00000000000E+00 -0.00000000000E+00 -0.13882560302E+04  0.13882560302E+04  0.00000000000E+00 0.  1.
    2000013    1    1    2    0    0  0.10258341167E+04  0.55872656259E+03 -0.51108723002E+02  0.15065268363E+04  0.95000000000E+03 0.  0.
   -2000013    1    1    2    0    0 -0.10258341167E+04 -0.55872656259E+03  0.32052102126E+03  0.15393975224E+04  0.95000000000E+03 0.  0.
<mgrwt>
<rscale>  0 0.30339862E+04</rscale>
<asrwt>0</asrwt>
<pdfrwt beam="2">  1        2 0.21357785E+00 0.30339862E+04</pdfrwt>
<pdfrwt beam="1">  1       -2 0.25502590E+00 0.30339862E+04</pdfrwt>
<totfact> 0.75086450E-01</totfact>
</mgrwt>
</event>
<event>
 4    1  0.1343107E-008  0.2776230E+04  0.7816531E-02  0.8310686E-01
          2   -1    0    0  501    0  0.00000000000E+00  0.00000000000E+00  0.16511066135E+04  0.16511066135E+04  0.00000000000E+00 0.  1.
         -2   -1    0    0    0  501 -0.00000000000E+00 -0.00000000000E+00 -0.11670130685E+04  0.11670130685E+04  0.00000000000E+00 0. -1.
    2000013    1    1    2    0    0 -0.29603172851E+03 -0.69001109591E+03 -0.44687842124E+03  0.12907170178E+04  0.95000000000E+03 0.  0.
   -2000013    1    1    2    0    0  0.29603172851E+03  0.69001109591E+03  0.93097196615E+03  0.15274026642E+04  0.95000000000E+03 0.  0.
<mgrwt>
<rscale>  0 0.27762298E+04</rscale>
<asrwt>0</asrwt>
<pdfrwt beam="1">  1        2 0.25401640E+00 0.27762298E+04</pdfrwt>
<pdfrwt beam="2">  1       -2 0.17954047E+00 0.27762298E+04</pdfrwt>
<totfact> 0.16631616E+00</totfact>
</mgrwt>
</event>
<event>
 4    1  0.1343107E-008  0.2786928E+04  0.7816531E-02  0.8307338E-01
         -1   -1    0    0    0  501 -0.00000000000E+00  0.00000000000E+00  0.46702337470E+03  0.46702337470E+03  0.00000000000E+00 0. -1.
          1   -1    0    0  501    0  0.00000000000E+00 -0.00000000000E+00 -0.41576962235E+04  0.41576962235E+04  0.00000000000E+00 0.  1.
    2000013    1    1    2    0    0  0.81576803779E+03  0.55187679323E+03 -0.14088208927E+04  0.19640065667E+04  0.95000000000E+03 0.  0.
   -2000013    1    1    2    0    0 -0.81576803779E+03 -0.55187679323E+03 -0.22818519561E+04  0.26607130315E+04  0.95000000000E+03 0.  0.
<mgrwt>
<rscale>  0 0.27869276E+04</rscale>
<asrwt>0</asrwt>
<pdfrwt beam="2">  1        1 0.63964557E+00 0.27869276E+04</pdfrwt>
<pdfrwt beam="1">  1       -1 0.71849750E-01 0.27869276E+04</pdfrwt>
<totfact> 0.11736460E-01</totfact>
</mgrwt>
</event>
<event>
 4    1  0.1343107E-008  0.3095875E+04  0.7816531E-02  0.8216871E-01
          2   -1    0    0  501    0  0.00000000000E+00  0.00000000000E+00  0.12284279854E+04  0.12284279854E+04  0.00000000000E+00 0.  1.
         -2   -1    0    0    0  501 -0.00000000000E+00 -0.00000000000E+00 -0.19505496869E+04  0.19505496869E+04  0.00000000000E+00 0. -1.
    2000013    1    1    2    0    0 -0.41988347977E+03  0.10812527768E+04  0.34240590196E+02  0.14996940095E+04  0.95000000000E+03 0.  0.
   -2000013    1    1    2    0    0  0.41988347977E+03 -0.10812527768E+04 -0.75636229165E+03  0.16792836628E+04  0.95000000000E+03 0.  0.
<mgrwt>
<rscale>  0 0.30958746E+04</rscale>
<asrwt>0</asrwt>
<pdfrwt beam="1">  1        2 0.18898892E+00 0.30958746E+04</pdfrwt>
<pdfrwt beam="2">  1       -2 0.30008457E+00 0.30958746E+04</pdfrwt>
<totfact> 0.49108740E-01</totfact>
</mgrwt>
</event>
<event>
 4    1  0.1343107E-008  0.2108365E+04  0.7816531E-02  0.8557568E-01
          2   -1    0    0  501    0  0.00000000000E+00  0.00000000000E+00  0.15904136000E+04  0.15904136000E+04  0.00000000000E+00 0.  1.
         -2   -1    0    0    0  501 -0.00000000000E+00 -0.00000000000E+00 -0.69874931747E+03  0.69874931747E+03  0.00000000000E+00 0. -1.
    2000013    1    1    2    0    0 -0.33817640345E+03 -0.22491674095E+03  0.21847229216E+03  0.10560212889E+04  0.95000000000E+03 0.  0.
   -2000013    1    1    2    0    0  0.33817640345E+03  0.22491674095E+03  0.67319199042E+03  0.12331416286E+04  0.95000000000E+03 0.  0.
<mgrwt>
<rscale>  0 0.21083647E+04</rscale>
<asrwt>0</asrwt>
<pdfrwt beam="1">  1        2 0.24467901E+00 0.21083647E+04</pdfrwt>
<pdfrwt beam="2">  1       -2 0.10749990E+00 0.21083647E+04</pdfrwt>
<totfact> 0.72229884E+00</totfact>
</mgrwt>
</event>
<event>
 4    1  0.1343107E-008  0.2421728E+04  0.7816531E-02  0.8431414E-01
         -2   -1    0    0    0  501 -0.00000000000E+00  0.00000000000E+00  0.46997787367E+03  0.46997787367E+03  0.00000000000E+00 0. -1.
          2   -1    0    0  501    0  0.00000000000E+00 -0.00000000000E+00 -0.31197023322E+04  0.31197023322E+04  0.00000000000E+00 0.  1.
    2000013    1    1    2    0    0 -0.50107832026E+03  0.53607999445E+03 -0.15603062141E+04  0.19686332125E+04  0.95000000000E+03 0.  0.
   -2000013    1    1    2    0    0  0.50107832026E+03 -0.53607999445E+03 -0.10894182444E+04  0.16210469934E+04  0.95000000000E+03 0.  0.
<mgrwt>
<rscale>  0 0.24217275E+04</rscale>
<asrwt>0</asrwt>
<pdfrwt beam="2">  1        2 0.47995420E+00 0.24217275E+04</pdfrwt>
<pdfrwt beam="1">  1       -2 0.72304289E-01 0.24217275E+04</pdfrwt>
<totfact> 0.22732074E+00</totfact>
</mgrwt>
</event>
<event>
 4    1  0.1343107E-008  0.3035303E+04  0.7816531E-02  0.8233721E-01
         -2   -1    0    0    0  501 -0.00000000000E+00  0.00000000000E+00  0.56681372663E+03  0.56681372663E+03  0.00000000000E+00 0. -1.
          2   -1    0    0  501    0  0.00000000000E+00 -0.00000000000E+00 -0.40635317419E+04  0.40635317419E+04  0.00000000000E+00 0.  1.
    2000013    1    1    2    0    0  0.83260202252E+02 -0.48247091362E+03 -0.33921167500E+04  0.35564963784E+04  0.95000000000E+03 0.  0.
   -2000013    1    1    2    0    0 -0.83260202252E+02  0.48247091362E+03 -0.10460126528E+03  0.10738490902E+04  0.95000000000E+03 0.  0.
<mgrwt>
<rscale>  0 0.30353027E+04</rscale>
<asrwt>0</asrwt>
<pdfrwt beam="2">  1        2 0.62515872E+00 0.30353027E+04</pdfrwt>
<pdfrwt beam="1">  1       -2 0.87202113E-01 0.30353027E+04</pdfrwt>
<totfact> 0.29416388E-01</totfact>
</mgrwt>
</event>
<event>
 4    1  0.1343107E-008  0.2014826E+04  0.7816531E-02  0.8599720E-01
          2   -1    0    0  501    0  0.00000000000E+00  0.00000000000E+00  0.12788841361E+04  0.12788841361E+04  0.00000000000E+00 0.  1.
         -2   -1    0    0    0  501 -0.00000000000E+00 -0.00000000000E+00 -0.79356794464E+03  0.79356794464E+03  0.00000000000E+00 0. -1.
    2000013    1    1    2    0    0  0.26691885617E+03  0.10447268828E+02  0.34314676298E+02  0.98743724774E+03  0.95000000000E+03 0.  0.
   -2000013    1    1    2    0    0 -0.26691885617E+03 -0.10447268828E+02  0.45100151520E+03  0.10850148330E+04  0.95000000000E+03 0.  0.
<mgrwt>
<rscale>  0 0.20148265E+04</rscale>
<asrwt>0</asrwt>
<pdfrwt beam="1">  1        2 0.19675141E+00 0.20148265E+04</pdfrwt>
<pdfrwt beam="2">  1       -2 0.12208738E+00 0.20148265E+04</pdfrwt>
<totfact> 0.80295478E+00</totfact>
</mgrwt>
</event>
<event>
 4    1  0.1343107E-008  0.4318876E+04  0.7816531E-02  0.7943137E-01
         -1   -1    0    0    0  501 -0.00000000000E+00  0.00000000000E+00  0.41484955885E+04  0.41484955885E+04  0.00000000000E+00 0. -1.
          1   -1    0    0  501    0  0.00000000000E+00 -0.00000000000E+00 -0.11240635356E+04  0.11240635356E+04  0.00000000000E+00 0.  1.
    2000013    1    1    2    0    0  0.13907051695E+04  0.10589885079E+04  0.25373793003E+04  0.32243311309E+04  0.95000000000E+03 0.  0.
   -2000013    1    1    2    0    0 -0.13907051695E+04 -0.10589885079E+04  0.48705275252E+03  0.20482279931E+04  0.95000000000E+03 0.  0.
<mgrwt>
<rscale>  0 0.43188761E+04</rscale>
<asrwt>0</asrwt>
<pdfrwt beam="2">  1        1 0.17293285E+00 0.43188761E+04</pdfrwt>
<pdfrwt beam="1">  1       -1 0.63823008E+00 0.43188761E+04</pdfrwt>
<totfact> 0.29804096E-03</totfact>
</mgrwt>
</event>
<event>
 4    1  0.1343107E-008  0.2516505E+04  0.7816531E-02  0.8397129E-01
          2   -1    0    0  501    0  0.00000000000E+00  0.00000000000E+00  0.12164918078E+04  0.12164918078E+04  0.00000000000E+00 0.  1.
         -2   -1    0    0    0  501 -0.00000000000E+00 -0.00000000000E+00 -0.13014463429E+04  0.13014463429E+04  0.00000000000E+00 0. -1.
    2000013    1    1    2    0    0 -0.63822773841E+03 -0.15146363750E+03  0.45823056485E+03  0.12420753319E+04  0.95000000000E+03 0.  0.
   -2000013    1    1    2    0    0  0.63822773841E+03  0.15146363750E+03 -0.54318509993E+03  0.12758628188E+04  0.95000000000E+03 0.  0.
<mgrwt>
<rscale>  0 0.25165046E+04</rscale>
<asrwt>0</asrwt>
<pdfrwt beam="1">  1        2 0.18715259E+00 0.25165046E+04</pdfrwt>
<pdfrwt beam="2">  1       -2 0.20022251E+00 0.25165046E+04</pdfrwt>
<totfact> 0.21859910E+00</totfact>
</mgrwt>
</event>
<event>
 4    1  0.1343107E-008  0.2043573E+04  0.7816531E-02  0.8586516E-01
         -2   -1    0    0    0  501 -0.00000000000E+00  0.00000000000E+00  0.15953536305E+04  0.15953536305E+04  0.00000000000E+00 0. -1.
          2   -1    0    0  501    0  0.00000000000E+00 -0.00000000000E+00 -0.65443003156E+03  0.65443003156E+03  0.00000000000E+00 0.  1.
    2000013    1    1    2    0    0 -0.32176059765E+03 -0.13419859769E+03  0.31473818589E+03  0.10597637810E+04  0.95000000000E+03 0.  0.
   -2000013    1    1    2    0    0  0.32176059765E+03  0.13419859769E+03  0.62618541303E+03  0.11900198811E+04  0.95000000000E+03 0.  0.
<mgrwt>
<rscale>  0 0.20435727E+04</rscale>
<asrwt>0</asrwt>
<pdfrwt beam="2">  1        2 0.10068154E+00 0.20435727E+04</pdfrwt>
<pdfrwt beam="1">  1       -2 0.24543902E+00 0.20435727E+04</pdfrwt>
<totfact> 0.28290817E+00</totfact>
</mgrwt>
</event>
<event>
 4    1  0.1343107E-008  0.4215166E+04  0.7816531E-02  0.7962494E-01
          2   -1    0    0  501    0  0.00000000000E+00  0.00000000000E+00  0.35457663418E+04  0.35457663418E+04  0.00000000000E+00 0.  1.
         -2   -1    0    0    0  501 -0.00000000000E+00 -0.00000000000E+00 -0.12527349589E+04  0.12527349589E+04  0.00000000000E+00 0. -1.
    2000013    1    1    2    0    0 -0.11138760675E+04  0.13250242461E+04  0.19853755323E+04  0.28001116318E+04  0.95000000000E+03 0.  0.
   -2000013    1    1    2    0    0  0.11138760675E+04 -0.13250242461E+04  0.30765585059E+03  0.19983896689E+04  0.95000000000E+03 0.  0.
<mgrwt>
<rscale>  0 0.42151657E+04</rscale>
<asrwt>0</asrwt>
<pdfrwt beam="1">  1        2 0.54550251E+00 0.42151657E+04</pdfrwt>
<pdfrwt beam="2">  1       -2 0.19272846E+00 0.42151657E+04</pdfrwt>
<totfact> 0.86793518E-02</totfact>
</mgrwt>
</event>
<event>
 4    1  0.1343107E-008  0.2365175E+04  0.7816531E-02  0.8452658E-01
         -2   -1    0    0    0  501 -0.00000000000E+00  0.00000000000E+00  0.63570503842E+03  0.63570503842E+03  0.00000000000E+00 0. -1.
          2   -1    0    0  501    0  0.00000000000E+00 -0.00000000000E+00 -0.21999407409E+04  0.21999407409E+04  0.00000000000E+00 0.  1.
    2000013    1    1    2    0    0 -0.50537609666E+03  0.37823152809E+03 -0.11565738570E+04  0.16243851682E+04  0.95000000000E+03 0.  0.
   -2000013    1    1    2    0    0  0.50537609666E+03 -0.37823152809E+03 -0.40766184556E+03  0.12112606112E+04  0.95000000000E+03 0.  0.
<mgrwt>
<rscale>  0 0.23651752E+04</rscale>
<asrwt>0</asrwt>
<pdfrwt beam="2">  1        2 0.33845242E+00 0.23651752E+04</pdfrwt>
<pdfrwt beam="1">  1       -2 0.97800774E-01 0.23651752E+04</pdfrwt>
<totfact> 0.40537568E+00</totfact>
</mgrwt>
</event>
<event>
 4    1  0.1343107E-008  0.2889308E+04  0.7816531E-02  0.8276066E-01
         -2   -1    0    0    0  501 -0.00000000000E+00  0.00000000000E+00  0.82208679891E+03  0.82208679891E+03  0.00000000000E+00 0. -1.
          2   -1    0    0  501    0  0.00000000000E+00 -0.00000000000E+00 -0.25386922964E+04  0.25386922964E+04  0.00000000000E+00 0.  1.
    2000013    1    1    2    0    0  0.57297325819E+03 -0.92103039804E+03 -0.96188485546E+03  0.17332968078E+04  0.95000000000E+03 0.  0.
   -2000013    1    1    2    0    0 -0.57297325819E+03  0.92103039804E+03 -0.75472064204E+03  0.16274822875E+04  0.95000000000E+03 0.  0.
<mgrwt>
<rscale>  0 0.28893082E+04</rscale>
<asrwt>0</asrwt>
<pdfrwt beam="2">  1        2 0.39056804E+00 0.28893082E+04</pdfrwt>
<pdfrwt beam="1">  1       -2 0.12647489E+00 0.28893082E+04</pdfrwt>
<totfact> 0.13288918E+00</totfact>
</mgrwt>
</event>
<event>
 4    1  0.1343107E-008  0.2456826E+04  0.7816531E-02  0.8418530E-01
         -2   -1    0    0    0  501 -0.00000000000E+00  0.00000000000E+00  0.10761756509E+04  0.10761756509E+04  0.00000000000E+00 0. -1.
          2   -1    0    0  501    0  0.00000000000E+00 -0.00000000000E+00 -0.14021865769E+04  0.14021865769E+04  0.00000000000E+00 0.  1.
    2000013    1    1    2    0    0  0.37261302990E+03  0.63676052776E+03 -0.41458000151E+03  0.12722739553E+04  0.95000000000E+03 0.  0.
   -2000013    1    1    2    0    0 -0.37261302990E+03 -0.63676052776E+03  0.88569075546E+02  0.12060882724E+04  0.95000000000E+03 0.  0.
<mgrwt>
<rscale>  0 0.24568265E+04</rscale>
<asrwt>0</asrwt>
<pdfrwt beam="2">  1        2 0.21572101E+00 0.24568265E+04</pdfrwt>
<pdfrwt beam="1">  1       -2 0.16556549E+00 0.24568265E+04</pdfrwt>
<totfact> 0.29622842E+00</totfact>
</mgrwt>
</event>
<event>
 4    1  0.1343107E-008  0.2102415E+04  0.7816531E-02  0.8560180E-01
         -2   -1    0    0    0  501 -0.00000000000E+00  0.00000000000E+00  0.10227982013E+04  0.10227982013E+04  0.00000000000E+00 0. -1.
          2   -1    0    0  501    0  0.00000000000E+00 -0.00000000000E+00 -0.10804058277E+04  0.10804058277E+04  0.00000000000E+00 0.  1.
    2000013    1    1    2    0    0  0.21239596383E+03 -0.30272795101E+03  0.22777028451E+03  0.10445743441E+04  0.95000000000E+03 0.  0.
   -2000013    1    1    2    0    0 -0.21239596383E+03  0.30272795101E+03 -0.28537791097E+03  0.10586296849E+04  0.95000000000E+03 0.  0.
<mgrwt>
<rscale>  0 0.21024149E+04</rscale>
<asrwt>0</asrwt>
<pdfrwt beam="2">  1        2 0.16621628E+00 0.21024149E+04</pdfrwt>
<pdfrwt beam="1">  1       -2 0.15735357E+00 0.21024149E+04</pdfrwt>
<totfact> 0.54405759E+00</totfact>
</mgrwt>
</event>
<event>
 4    1  0.1343107E-008  0.1982881E+04  0.7816531E-02  0.8614666E-01
          2   -1    0    0  501    0  0.00000000000E+00  0.00000000000E+00  0.18673946828E+04  0.18673946828E+04  0.00000000000E+00 0.  1.
         -2   -1    0    0    0  501 -0.00000000000E+00 -0.00000000000E+00 -0.52637741445E+03  0.52637741445E+03  0.00000000000E+00 0. -1.
    2000013    1    1    2    0    0 -0.25986467509E+03  0.50295754005E+01  0.53339787612E+03  0.11200751047E+04  0.95000000000E+03 0.  0.
   -2000013    1    1    2    0    0  0.25986467509E+03 -0.50295754005E+01  0.80761939219E+03  0.12736969925E+04  0.95000000000E+03 0.  0.
<mgrwt>
<rscale>  0 0.19828811E+04</rscale>
<asrwt>0</asrwt>
<pdfrwt beam="1">  1        2 0.28729149E+00 0.19828811E+04</pdfrwt>
<pdfrwt beam="2">  1       -2 0.80981141E-01 0.19828811E+04</pdfrwt>
<totfact> 0.99041586E+00</totfact>
</mgrwt>
</event>
<event>
 4    1  0.1343107E-008  0.2037457E+04  0.7816531E-02  0.8589306E-01
          1   -1    0    0  501    0  0.00000000000E+00  0.00000000000E+00  0.16721808968E+04  0.16721808968E+04  0.00000000000E+00 0.  1.
         -1   -1    0    0    0  501 -0.00000000000E+00 -0.00000000000E+00 -0.62063144670E+03  0.62063144670E+03  0.00000000000E+00 0. -1.
    2000013    1    1    2    0    0 -0.14245445461E+03  0.32590512585E+03  0.63134381841E+03  0.11948231835E+04  0.95000000000E+03 0.  0.
   -2000013    1    1    2    0    0  0.14245445461E+03 -0.32590512585E+03  0.42020563173E+03  0.10979891601E+04  0.95000000000E+03 0.  0.
<mgrwt>
<rscale>  0 0.20374573E+04</rscale>
<asrwt>0</asrwt>
<pdfrwt beam="1">  1        1 0.25725860E+00 0.20374573E+04</pdfrwt>
<pdfrwt beam="2">  1       -1 0.95481761E-01 0.20374573E+04</pdfrwt>
<totfact> 0.48736275E+00</totfact>
</mgrwt>
</event>
<event>
 4    1  0.1343107E-008  0.2251598E+04  0.7816531E-02  0.8497254E-01
          2   -1    0    0  501    0  0.00000000000E+00  0.00000000000E+00  0.19932615137E+04  0.19932615137E+04  0.00000000000E+00 0.  1.
         -2   -1    0    0    0  501 -0.00000000000E+00 -0.00000000000E+00 -0.63585379183E+03  0.63585379183E+03  0.00000000000E+00 0. -1.
    2000013    1    1    2    0    0 -0.84153586951E+02 -0.55543386931E+03  0.93805805260E+03  0.14484617770E+04  0.95000000000E+03 0.  0.
   -2000013    1    1    2    0    0  0.84153586951E+02  0.55543386931E+03  0.41934966929E+03  0.11806535286E+04  0.95000000000E+03 0.  0.
<mgrwt>
<rscale>  0 0.22515976E+04</rscale>
<asrwt>0</asrwt>
<pdfrwt beam="1">  1        2 0.30665561E+00 0.22515976E+04</pdfrwt>
<pdfrwt beam="2">  1       -2 0.97823661E-01 0.22515976E+04</pdfrwt>
<totfact> 0.53366719E+00</totfact>
</mgrwt>
</event>
<event>
 4    1  0.1343107E-008  0.2716321E+04  0.7816531E-02  0.8329729E-01
         -2   -1    0    0    0  501 -0.00000000000E+00  0.00000000000E+00  0.82535927287E+03  0.82535927287E+03  0.00000000000E+00 0. -1.
          2   -1    0    0  501    0  0.00000000000E+00 -0.00000000000E+00 -0.22349047315E+04  0.22349047315E+04  0.00000000000E+00 0.  1.
    2000013    1    1    2    0    0  0.26695388352E+03 -0.92000505400E+03 -0.52869634737E+03  0.14490319193E+04  0.95000000000E+03 0.  0.
   -2000013    1    1    2    0    0 -0.26695388352E+03  0.92000505400E+03 -0.88084911126E+03  0.16112320851E+04  0.95000000000E+03 0.  0.
<mgrwt>
<rscale>  0 0.27163206E+04</rscale>
<asrwt>0</asrwt>
<pdfrwt beam="2">  1        2 0.34383149E+00 0.27163206E+04</pdfrwt>
<pdfrwt beam="1">  1       -2 0.12697835E+00 0.27163206E+04</pdfrwt>
<totfact> 0.19926492E+00</totfact>
</mgrwt>
</event>
<event>
 4    1  0.1343107E-008  0.3022482E+04  0.7816531E-02  0.8237340E-01
          2   -1    0    0  501    0  0.00000000000E+00  0.00000000000E+00  0.17328041693E+04  0.17328041693E+04  0.00000000000E+00 0.  1.
         -2   -1    0    0    0  501 -0.00000000000E+00 -0.00000000000E+00 -0.13180074323E+04  0.13180074323E+04  0.00000000000E+00 0. -1.
    2000013    1    1    2    0    0 -0.94247910036E+03  0.77112087867E+01  0.91613531384E+03  0.16217676253E+04  0.95000000000E+03 0.  0.
   -2000013    1    1    2    0    0  0.94247910036E+03 -0.77112087867E+01 -0.50133857681E+03  0.14290439762E+04  0.95000000000E+03 0.  0.
<mgrwt>
<rscale>  0 0.30224816E+04</rscale>
<asrwt>0</asrwt>
<pdfrwt beam="1">  1        2 0.26658526E+00 0.30224816E+04</pdfrwt>
<pdfrwt beam="2">  1       -2 0.20277037E+00 0.30224816E+04</pdfrwt>
<totfact> 0.10249695E+00</totfact>
</mgrwt>
</event>
<event>
 4    1  0.1343107E-008  0.3107763E+04  0.7816531E-02  0.8213611E-01
         -2   -1    0    0    0  501 -0.00000000000E+00  0.00000000000E+00  0.73977986690E+03  0.73977986690E+03  0.00000000000E+00 0. -1.
          2   -1    0    0  501    0  0.00000000000E+00 -0.00000000000E+00 -0.32638740186E+04  0.32638740186E+04  0.00000000000E+00 0.  1.
    2000013    1    1    2    0    0  0.36882474780E+03 -0.71453098685E+03 -0.24605320680E+04  0.27574089801E+04  0.95000000000E+03 0.  0.
   -2000013    1    1    2    0    0 -0.36882474780E+03  0.71453098685E+03 -0.63562083681E+02  0.12462449054E+04  0.95000000000E+03 0.  0.
<mgrwt>
<rscale>  0 0.31077634E+04</rscale>
<asrwt>0</asrwt>
<pdfrwt beam="2">  1        2 0.50213447E+00 0.31077634E+04</pdfrwt>
<pdfrwt beam="1">  1       -2 0.11381229E+00 0.31077634E+04</pdfrwt>
<totfact> 0.60352865E-01</totfact>
</mgrwt>
</event>
<event>
 4    1  0.1343107E-008  0.3230677E+04  0.7816531E-02  0.8180762E-01
          2   -1    0    0  501    0  0.00000000000E+00  0.00000000000E+00  0.33550382703E+04  0.33550382703E+04  0.00000000000E+00 0.  1.
         -2   -1    0    0    0  501 -0.00000000000E+00 -0.00000000000E+00 -0.77773125519E+03  0.77773125519E+03  0.00000000000E+00 0. -1.
    2000013    1    1    2    0    0  0.58206254573E+03  0.11123867246E+04  0.17509788309E+04  0.23547033568E+04  0.95000000000E+03 0.  0.
   -2000013    1    1    2    0    0 -0.58206254573E+03 -0.11123867246E+04  0.82632818424E+03  0.17780661687E+04  0.95000000000E+03 0.  0.
<mgrwt>
<rscale>  0 0.32306768E+04</rscale>
<asrwt>0</asrwt>
<pdfrwt beam="1">  1        2 0.51615972E+00 0.32306768E+04</pdfrwt>
<pdfrwt beam="2">  1       -2 0.11965096E+00 0.32306768E+04</pdfrwt>
<totfact> 0.45901918E-01</totfact>
</mgrwt>
</event>
<event>
 4    1  0.1343107E-008  0.2204739E+04  0.7816531E-02  0.8516458E-01
         -2   -1    0    0    0  501 -0.00000000000E+00  0.00000000000E+00  0.83131737237E+03  0.83131737237E+03  0.00000000000E+00 0. -1.
          2   -1    0    0  501    0  0.00000000000E+00 -0.00000000000E+00 -0.14617991042E+04  0.14617991042E+04  0.00000000000E+00 0.  1.
    2000013    1    1    2    0    0 -0.51558061465E+03 -0.25062958551E+02 -0.53896184570E+03  0.12080692833E+04  0.95000000000E+03 0.  0.
   -2000013    1    1    2    0    0  0.51558061465E+03  0.25062958551E+02 -0.91519886140E+02  0.10850471933E+04  0.95000000000E+03 0.  0.
<mgrwt>
<rscale>  0 0.22047394E+04</rscale>
<asrwt>0</asrwt>
<pdfrwt beam="2">  1        2 0.22489217E+00 0.22047394E+04</pdfrwt>
<pdfrwt beam="1">  1       -2 0.12789498E+00 0.22047394E+04</pdfrwt>
<totfact> 0.55187236E+00</totfact>
</mgrwt>
</event>
<event>
 4    1  0.1343107E-008  0.2949398E+04  0.7816531E-02  0.8258330E-01
         -2   -1    0    0    0  501 -0.00000000000E+00  0.00000000000E+00  0.51764649378E+04  0.51764649378E+04  0.00000000000E+00 0.  1.
          2   -1    0    0  501    0  0.00000000000E+00 -0.00000000000E+00 -0.42012024929E+03  0.42012024929E+03  0.00000000000E+00 0. -1.
    2000013    1    1    2    0    0  0.12462205026E+03 -0.11121406445E+04  0.21108268288E+04  0.25710848624E+04  0.95000000000E+03 0.  0.
   -2000013    1    1    2    0    0 -0.12462205026E+03  0.11121406445E+04  0.26455178597E+04  0.30255003247E+04  0.95000000000E+03 0.  0.
<mgrwt>
<rscale>  0 0.29493984E+04</rscale>
<asrwt>0</asrwt>
<pdfrwt beam="2">  1        2 0.64633888E-01 0.29493984E+04</pdfrwt>
<pdfrwt beam="1">  1       -2 0.79637918E+00 0.29493984E+04</pdfrwt>
<totfact> 0.53494994E-03</totfact>
</mgrwt>
</event>
<event>
 4    1  0.1343107E-008  0.2107649E+04  0.7816531E-02  0.8557881E-01
          2   -1    0    0  501    0  0.00000000000E+00  0.00000000000E+00  0.22671995660E+04  0.22671995660E+04  0.00000000000E+00 0.  1.
         -2   -1    0    0    0  501 -0.00000000000E+00 -0.00000000000E+00 -0.48983154298E+03  0.48983154298E+03  0.00000000000E+00 0. -1.
    2000013    1    1    2    0    0  0.44689597843E+03  0.61748672800E+02  0.97659961137E+03  0.14351918740E+04  0.95000000000E+03 0.  0.
   -2000013    1    1    2    0    0 -0.44689597843E+03 -0.61748672800E+02  0.80076841163E+03  0.13218392350E+04  0.95000000000E+03 0.  0.
<mgrwt>
<rscale>  0 0.21076488E+04</rscale>
<asrwt>0</asrwt>
<pdfrwt beam="1">  1        2 0.34879993E+00 0.21076488E+04</pdfrwt>
<pdfrwt beam="2">  1       -2 0.75358700E-01 0.21076488E+04</pdfrwt>
<totfact> 0.68854123E+00</totfact>
</mgrwt>
</event>
<event>
 4    1  0.1343107E-008  0.2171039E+04  0.7816531E-02  0.8530580E-01
         -2   -1    0    0    0  501 -0.00000000000E+00  0.00000000000E+00  0.84162524608E+03  0.84162524608E+03  0.00000000000E+00 0. -1.
          2   -1    0    0  501    0  0.00000000000E+00 -0.00000000000E+00 -0.14000920513E+04  0.14000920513E+04  0.00000000000E+00 0.  1.
    2000013    1    1    2    0    0  0.67266841083E+02 -0.52081507400E+03 -0.27001829049E+03  0.11185629381E+04  0.95000000000E+03 0.  0.
   -2000013    1    1    2    0    0 -0.67266841083E+02  0.52081507400E+03 -0.28844851476E+03  0.11231543593E+04  0.95000000000E+03 0.  0.
<mgrwt>
<rscale>  0 0.21710392E+04</rscale>
<asrwt>0</asrwt>
<pdfrwt beam="2">  1        2 0.21539877E+00 0.21710392E+04</pdfrwt>
<pdfrwt beam="1">  1       -2 0.12948081E+00 0.21710392E+04</pdfrwt>
<totfact> 0.58170829E+00</totfact>
</mgrwt>
</event>
<event>
 4    1  0.1343107E-008  0.3164583E+04  0.7816531E-02  0.8198234E-01
          2   -1    0    0  501    0  0.00000000000E+00  0.00000000000E+00  0.36917257357E+04  0.36917257357E+04  0.00000000000E+00 0.  1.
         -2   -1    0    0    0  501 -0.00000000000E+00 -0.00000000000E+00 -0.67817789011E+03  0.67817789011E+03  0.00000000000E+00 0. -1.
    2000013    1    1    2    0    0 -0.12207619037E+04 -0.33133842400E+03  0.15526139508E+04  0.22165637498E+04  0.95000000000E+03 0.  0.
   -2000013    1    1    2    0    0  0.12207619037E+04  0.33133842400E+03  0.14609338948E+04  0.21533398760E+04  0.95000000000E+03 0.  0.
<mgrwt>
<rscale>  0 0.31645832E+04</rscale>
<asrwt>0</asrwt>
<pdfrwt beam="1">  1        2 0.56795779E+00 0.31645832E+04</pdfrwt>
<pdfrwt beam="2">  1       -2 0.10433506E+00 0.31645832E+04</pdfrwt>
<totfact> 0.37263767E-01</totfact>
</mgrwt>
</event>
<event>
 4    1  0.1343107E-008  0.2557514E+04  0.7816531E-02  0.8382778E-01
         -2   -1    0    0    0  501 -0.00000000000E+00  0.00000000000E+00  0.68676299025E+03  0.68676299025E+03  0.00000000000E+00 0. -1.
          2   -1    0    0  501    0  0.00000000000E+00 -0.00000000000E+00 -0.23810539831E+04  0.23810539831E+04  0.00000000000E+00 0.  1.
    2000013    1    1    2    0    0 -0.59330499067E+03 -0.52849266943E+03 -0.12291248355E+04  0.17448676668E+04  0.95000000000E+03 0.  0.
   -2000013    1    1    2    0    0  0.59330499067E+03  0.52849266943E+03 -0.46516615736E+03  0.13229493065E+04  0.95000000000E+03 0.  0.
<mgrwt>
<rscale>  0 0.25575142E+04</rscale>
<asrwt>0</asrwt>
<pdfrwt beam="2">  1        2 0.36631600E+00 0.25575142E+04</pdfrwt>
<pdfrwt beam="1">  1       -2 0.10565584E+00 0.25575142E+04</pdfrwt>
<totfact> 0.26196933E+00</totfact>
</mgrwt>
</event>
<event>
 4    1  0.1343107E-008  0.3200487E+04  0.7816531E-02  0.8188689E-01
          2   -1    0    0  501    0  0.00000000000E+00  0.00000000000E+00  0.21187349616E+04  0.21187349616E+04  0.00000000000E+00 0.  1.
         -2   -1    0    0    0  501 -0.00000000000E+00 -0.00000000000E+00 -0.12086357058E+04  0.12086357058E+04  0.00000000000E+00 0. -1.
    2000013    1    1    2    0    0 -0.12718760537E+04  0.34276124886E+01  0.24557135491E+03  0.16063890360E+04  0.95000000000E+03 0.  0.
   -2000013    1    1    2    0    0  0.12718760537E+04 -0.34276124886E+01  0.66452790091E+03  0.17209816314E+04  0.95000000000E+03 0.  0.
<mgrwt>
<rscale>  0 0.32004867E+04</rscale>
<asrwt>0</asrwt>
<pdfrwt beam="1">  1        2 0.32595922E+00 0.32004867E+04</pdfrwt>
<pdfrwt beam="2">  1       -2 0.18594396E+00 0.32004867E+04</pdfrwt>
<totfact> 0.79737270E-01</totfact>
</mgrwt>
</event>
<event>
 4    1  0.1343107E-008  0.2972218E+04  0.7816531E-02  0.8251709E-01
          2   -1    0    0  501    0  0.00000000000E+00  0.00000000000E+00  0.40859507785E+04  0.40859507785E+04  0.00000000000E+00 0. -1.
         -2   -1    0    0    0  501 -0.00000000000E+00 -0.00000000000E+00 -0.54051568724E+03  0.54051568724E+03  0.00000000000E+00 0.  1.
    2000013    1    1    2    0    0 -0.33630740302E+03 -0.10379676512E+04  0.12436188054E+04  0.19077649875E+04  0.95000000000E+03 0.  0.
   -2000013    1    1    2    0    0  0.33630740302E+03  0.10379676512E+04  0.23018162858E+04  0.27187014783E+04  0.95000000000E+03 0.  0.
<mgrwt>
<rscale>  0 0.29722184E+04</rscale>
<asrwt>0</asrwt>
<pdfrwt beam="1">  1        2 0.62860779E+00 0.29722184E+04</pdfrwt>
<pdfrwt beam="2">  1       -2 0.83156262E-01 0.29722184E+04</pdfrwt>
<totfact> 0.31582257E-01</totfact>
</mgrwt>
</event>
<event>
 4    1  0.1343107E-008  0.2149916E+04  0.7816531E-02  0.8539568E-01
          2   -1    0    0  501    0  0.00000000000E+00  0.00000000000E+00  0.21256533820E+04  0.21256533820E+04  0.00000000000E+00 0.  1.
         -2   -1    0    0    0  501 -0.00000000000E+00 -0.00000000000E+00 -0.54361364242E+03  0.54361364242E+03  0.00000000000E+00 0. -1.
    2000013    1    1    2    0    0 -0.42700226448E+03 -0.21646225145E+03  0.59928964752E+03  0.12209975110E+04  0.95000000000E+03 0.  0.
   -2000013    1    1    2    0    0  0.42700226448E+03  0.21646225145E+03  0.98275009210E+03  0.14482695135E+04  0.95000000000E+03 0.  0.
<mgrwt>
<rscale>  0 0.21499155E+04</rscale>
<asrwt>0</asrwt>
<pdfrwt beam="1">  1        2 0.32702359E+00 0.21499155E+04</pdfrwt>
<pdfrwt beam="2">  1       -2 0.83632869E-01 0.21499155E+04</pdfrwt>
<totfact> 0.65222236E+00</totfact>
</mgrwt>
</event>
<event>
 4    1  0.1343107E-008  0.2623753E+04  0.7816531E-02  0.8360177E-01
         -2   -1    0    0    0  501 -0.00000000000E+00  0.00000000000E+00  0.14418600545E+04  0.14418600545E+04  0.00000000000E+00 0. -1.
          2   -1    0    0  501    0  0.00000000000E+00 -0.00000000000E+00 -0.11936109745E+04  0.11936109745E+04  0.00000000000E+00 0.  1.
    2000013    1    1    2    0    0 -0.28361040595E+03  0.85547439284E+03  0.44722870796E+02  0.13102562476E+04  0.95000000000E+03 0.  0.
   -2000013    1    1    2    0    0  0.28361040595E+03 -0.85547439284E+03  0.20352620921E+03  0.13252147815E+04  0.95000000000E+03 0.  0.
<mgrwt>
<rscale>  0 0.26237530E+04</rscale>
<asrwt>0</asrwt>
<pdfrwt beam="2">  1        2 0.18363246E+00 0.26237530E+04</pdfrwt>
<pdfrwt beam="1">  1       -2 0.22182462E+00 0.26237530E+04</pdfrwt>
<totfact> 0.16234859E+00</totfact>
</mgrwt>
</event>
<event>
 4    1  0.1343107E-008  0.2158555E+04  0.7816531E-02  0.8535879E-01
         -2   -1    0    0    0  501 -0.00000000000E+00  0.00000000000E+00  0.24357660774E+04  0.24357660774E+04  0.00000000000E+00 0. -1.
          2   -1    0    0  501    0  0.00000000000E+00 -0.00000000000E+00 -0.47822311681E+03  0.47822311681E+03  0.00000000000E+00 0.  1.
    2000013    1    1    2    0    0  0.14292210798E+03  0.49118886435E+03  0.10130941365E+04  0.14800516744E+04  0.95000000000E+03 0.  0.
   -2000013    1    1    2    0    0 -0.14292210798E+03 -0.49118886435E+03  0.94444882404E+03  0.14339375198E+04  0.95000000000E+03 0.  0.
<mgrwt>
<rscale>  0 0.21585547E+04</rscale>
<asrwt>0</asrwt>
<pdfrwt beam="2">  1        2 0.73572788E-01 0.21585547E+04</pdfrwt>
<pdfrwt beam="1">  1       -2 0.37473324E+00 0.21585547E+04</pdfrwt>
<totfact> 0.64504434E-01</totfact>
</mgrwt>
</event>
<event>
 4    1  0.1343107E-008  0.2035993E+04  0.7816531E-02  0.8589975E-01
         -2   -1    0    0    0  501 -0.00000000000E+00  0.00000000000E+00  0.53481980098E+03  0.53481980098E+03  0.00000000000E+00 0. -1.
          2   -1    0    0  501    0  0.00000000000E+00 -0.00000000000E+00 -0.19376936005E+04  0.19376936005E+04  0.00000000000E+00 0.  1.
    2000013    1    1    2    0    0 -0.48835701557E+01 -0.26577200241E+03 -0.10066320165E+04  0.14094206694E+04  0.95000000000E+03 0.  0.
   -2000013    1    1    2    0    0  0.48835701557E+01  0.26577200241E+03 -0.39624178302E+03  0.10630927321E+04  0.95000000000E+03 0.  0.
<mgrwt>
<rscale>  0 0.20359930E+04</rscale>
<asrwt>0</asrwt>
<pdfrwt beam="2">  1        2 0.29810671E+00 0.20359930E+04</pdfrwt>
<pdfrwt beam="1">  1       -2 0.82279968E-01 0.20359930E+04</pdfrwt>
<totfact> 0.86953764E+00</totfact>
</mgrwt>
</event>
<event>
 4    1  0.1343107E-008  0.2971274E+04  0.7816531E-02  0.8251982E-01
         -2   -1    0    0    0  501 -0.00000000000E+00  0.00000000000E+00  0.10126930747E+04  0.10126930747E+04  0.00000000000E+00 0. -1.
          2   -1    0    0  501    0  0.00000000000E+00 -0.00000000000E+00 -0.21794539015E+04  0.21794539015E+04  0.00000000000E+00 0.  1.
    2000013    1    1    2    0    0  0.10340184734E+04 -0.55364547347E+02 -0.65512095878E+02  0.14067875714E+04  0.95000000000E+03 0.  0.
   -2000013    1    1    2    0    0 -0.10340184734E+04  0.55364547347E+02 -0.11012487309E+04  0.17853594047E+04  0.95000000000E+03 0.  0.
<mgrwt>
<rscale>  0 0.29712744E+04</rscale>
<asrwt>0</asrwt>
<pdfrwt beam="2">  1        2 0.33530060E+00 0.29712744E+04</pdfrwt>
<pdfrwt beam="1">  1       -2 0.15579894E+00 0.29712744E+04</pdfrwt>
<totfact> 0.12319505E+00</totfact>
</mgrwt>
</event>
<event>
 4    1  0.1343107E-008  0.2280948E+04  0.7816531E-02  0.8485471E-01
         -2   -1    0    0    0  501 -0.00000000000E+00  0.00000000000E+00  0.76629332481E+03  0.76629332481E+03  0.00000000000E+00 0. -1.
          2   -1    0    0  501    0  0.00000000000E+00 -0.00000000000E+00 -0.16973670143E+04  0.16973670143E+04  0.00000000000E+00 0.  1.
    2000013    1    1    2    0    0 -0.18558279519E+03  0.33587063345E+03  0.75519578551E+02  0.10273525505E+04  0.95000000000E+03 0.  0.
   -2000013    1    1    2    0    0  0.18558279519E+03 -0.33587063345E+03 -0.10065932680E+04  0.14363077886E+04  0.95000000000E+03 0.  0.
<mgrwt>
<rscale>  0 0.22809481E+04</rscale>
<asrwt>0</asrwt>
<pdfrwt beam="2">  1        2 0.26113338E+00 0.22809481E+04</pdfrwt>
<pdfrwt beam="1">  1       -2 0.11789128E+00 0.22809481E+04</pdfrwt>
<totfact> 0.49581110E+00</totfact>
</mgrwt>
</event>
<event>
 4    1  0.1343107E-008  0.2493353E+04  0.7816531E-02  0.8405358E-01
          2   -1    0    0  501    0  0.00000000000E+00  0.00000000000E+00  0.12422614498E+04  0.12422614498E+04  0.00000000000E+00 0.  1.
         -2   -1    0    0    0  501 -0.00000000000E+00 -0.00000000000E+00 -0.12511067736E+04  0.12511067736E+04  0.00000000000E+00 0. -1.
    2000013    1    1    2    0    0  0.13783550236E+03  0.76386589018E+03 -0.22626181490E+03  0.12474710950E+04  0.95000000000E+03 0.  0.
   -2000013    1    1    2    0    0 -0.13783550236E+03 -0.76386589018E+03  0.21741649110E+03  0.12458971284E+04  0.95000000000E+03 0.  0.
<mgrwt>
<rscale>  0 0.24933525E+04</rscale>
<asrwt>0</asrwt>
<pdfrwt beam="1">  1        2 0.19111715E+00 0.24933525E+04</pdfrwt>
<pdfrwt beam="2">  1       -2 0.19247796E+00 0.24933525E+04</pdfrwt>
<totfact> 0.23797283E+00</totfact>
</mgrwt>
</event>
<event>
 4    1  0.1343107E-008  0.3207448E+04  0.7816531E-02  0.8186853E-01
         -2   -1    0    0    0  501 -0.00000000000E+00  0.00000000000E+00  0.12373252310E+04  0.12373252310E+04  0.00000000000E+00 0. -1.
          2   -1    0    0  501    0  0.00000000000E+00 -0.00000000000E+00 -0.20786216493E+04  0.20786216493E+04  0.00000000000E+00 0.  1.
    2000013    1    1    2    0    0 -0.59952349006E+03 -0.85966191264E+03 -0.12018439706E+04  0.18561723920E+04  0.95000000000E+03 0.  0.
   -2000013    1    1    2    0    0  0.59952349006E+03  0.85966191264E+03  0.36054755230E+03  0.14597744883E+04  0.95000000000E+03 0.  0.
<mgrwt>
<rscale>  0 0.32074482E+04</rscale>
<asrwt>0</asrwt>
<pdfrwt beam="2">  1        2 0.31978795E+00 0.32074482E+04</pdfrwt>
<pdfrwt beam="1">  1       -2 0.19035773E+00 0.32074482E+04</pdfrwt>
<totfact> 0.78352675E-01</totfact>
</mgrwt>
</event>
<event>
 4    1  0.1343107E-008  0.2689936E+04  0.7816531E-02  0.8338278E-01
         -1   -1    0    0    0  501 -0.00000000000E+00  0.00000000000E+00  0.25115381936E+04  0.25115381936E+04  0.00000000000E+00 0. -1.
          1   -1    0    0  501    0  0.00000000000E+00 -0.00000000000E+00 -0.72025164124E+03  0.72025164124E+03  0.00000000000E+00 0.  1.
    2000013    1    1    2    0    0  0.43512770499E+03  0.61840750057E+03  0.15906885359E+04  0.20011381698E+04  0.95000000000E+03 0.  0.
   -2000013    1    1    2    0    0 -0.43512770499E+03 -0.61840750057E+03  0.20059801646E+03  0.12306516650E+04  0.95000000000E+03 0.  0.
<mgrwt>
<rscale>  0 0.26899364E+04</rscale>
<asrwt>0</asrwt>
<pdfrwt beam="2">  1        1 0.11080795E+00 0.26899364E+04</pdfrwt>
<pdfrwt beam="1">  1       -1 0.38639049E+00 0.26899364E+04</pdfrwt>
<totfact> 0.20179633E-01</totfact>
</mgrwt>
</event>
<event>
 4    1  0.1343107E-008  0.2111002E+04  0.7816531E-02  0.8556413E-01
         -2   -1    0    0    0  501 -0.00000000000E+00  0.00000000000E+00  0.26173068111E+03  0.26173068111E+03  0.00000000000E+00 0.  1.
          2   -1    0    0  501    0  0.00000000000E+00 -0.00000000000E+00 -0.42565966908E+04  0.42565966908E+04  0.00000000000E+00 0. -1.
    2000013    1    1    2    0    0 -0.36997424800E+03 -0.24084340680E+03 -0.22739923438E+04  0.25036828215E+04  0.95000000000E+03 0.  0.
   -2000013    1    1    2    0    0  0.36997424800E+03  0.24084340680E+03 -0.17208736659E+04  0.20146445505E+04  0.95000000000E+03 0.  0.
<mgrwt>
<rscale>  0 0.21110016E+04</rscale>
<asrwt>0</asrwt>
<pdfrwt beam="2">  1        2 0.65486097E+00 0.21110016E+04</pdfrwt>
<pdfrwt beam="1">  1       -2 0.40266262E-01 0.21110016E+04</pdfrwt>
<totfact> 0.11272850E+00</totfact>
</mgrwt>
</event>
<event>
 4    1  0.1343107E-008  0.3022568E+04  0.7816531E-02  0.8237316E-01
         -2   -1    0    0    0  501 -0.00000000000E+00  0.00000000000E+00  0.92615908403E+03  0.92615908403E+03  0.00000000000E+00 0. -1.
          2   -1    0    0  501    0  0.00000000000E+00 -0.00000000000E+00 -0.24660769164E+04  0.24660769164E+04  0.00000000000E+00 0.  1.
    2000013    1    1    2    0    0 -0.46057618169E+03  0.93486468884E+03 -0.13799147562E+04  0.19730096655E+04  0.95000000000E+03 0.  0.
   -2000013    1    1    2    0    0  0.46057618169E+03 -0.93486468884E+03 -0.16000307619E+03  0.14192263350E+04  0.95000000000E+03 0.  0.
<mgrwt>
<rscale>  0 0.30225681E+04</rscale>
<asrwt>0</asrwt>
<pdfrwt beam="2">  1        2 0.37939645E+00 0.30225681E+04</pdfrwt>
<pdfrwt beam="1">  1       -2 0.14248601E+00 0.30225681E+04</pdfrwt>
<totfact> 0.10673569E+00</totfact>
</mgrwt>
</event>
<event>
 4    1  0.1343107E-008  0.2174824E+04  0.7816531E-02  0.8528980E-01
          2   -1    0    0  501    0  0.00000000000E+00  0.00000000000E+00  0.23125423060E+04  0.23125423060E+04  0.00000000000E+00 0.  1.
         -2   -1    0    0    0  501 -0.00000000000E+00 -0.00000000000E+00 -0.51132686738E+03  0.51132686738E+03  0.00000000000E+00 0. -1.
    2000013    1    1    2    0    0  0.52172560407E+02 -0.51408355974E+03  0.75278476774E+03  0.13176451681E+04  0.95000000000E+03 0.  0.
   -2000013    1    1    2    0    0 -0.52172560407E+02  0.51408355974E+03  0.10484306709E+04  0.15062240053E+04  0.95000000000E+03 0.  0.
<mgrwt>
<rscale>  0 0.21748241E+04</rscale>
<asrwt>0</asrwt>
<pdfrwt beam="1">  1        2 0.35577573E+00 0.21748241E+04</pdfrwt>
<pdfrwt beam="2">  1       -2 0.78665673E-01 0.21748241E+04</pdfrwt>
<totfact> 0.58637377E+00</totfact>
</mgrwt>
</event>
<event>
 4    1  0.1343107E-008  0.3455692E+04  0.7816531E-02  0.8124371E-01
         -2   -1    0    0    0  501 -0.00000000000E+00  0.00000000000E+00  0.16551060298E+04  0.16551060298E+04  0.00000000000E+00 0. -1.
          2   -1    0    0  501    0  0.00000000000E+00 -0.00000000000E+00 -0.18037832838E+04  0.18037832838E+04  0.00000000000E+00 0.  1.
    2000013    1    1    2    0    0  0.85483775472E+03  0.97321057549E+03  0.56269824585E+03  0.17020621983E+04  0.95000000000E+03 0.  0.
   -2000013    1    1    2    0    0 -0.85483775472E+03 -0.97321057549E+03 -0.71137549978E+03  0.17568271152E+04  0.95000000000E+03 0.  0.
<mgrwt>
<rscale>  0 0.34556925E+04</rscale>
<asrwt>0</asrwt>
<pdfrwt beam="2">  1        2 0.27750512E+00 0.34556925E+04</pdfrwt>
<pdfrwt beam="1">  1       -2 0.25463170E+00 0.34556925E+04</pdfrwt>
<totfact> 0.42622660E-01</totfact>
</mgrwt>
</event>
<event>
 4    1  0.1343107E-008  0.2120109E+04  0.7816531E-02  0.8552436E-01
          2   -1    0    0  501    0  0.00000000000E+00  0.00000000000E+00  0.12360227982E+04  0.12360227982E+04  0.00000000000E+00 0.  1.
         -2   -1    0    0    0  501 -0.00000000000E+00 -0.00000000000E+00 -0.90913846484E+03  0.90913846484E+03  0.00000000000E+00 0. -1.
    2000013    1    1    2    0    0 -0.65828461526E+02  0.46566237860E+03  0.16992348380E+03  0.10735682687E+04  0.95000000000E+03 0.  0.
   -2000013    1    1    2    0    0  0.65828461526E+02 -0.46566237860E+03  0.15696084954E+03  0.10715929943E+04  0.95000000000E+03 0.  0.
<mgrwt>
<rscale>  0 0.21201093E+04</rscale>
<asrwt>0</asrwt>
<pdfrwt beam="1">  1        2 0.19015735E+00 0.21201093E+04</pdfrwt>
<pdfrwt beam="2">  1       -2 0.13986746E+00 0.21201093E+04</pdfrwt>
<totfact> 0.59725995E+00</totfact>
</mgrwt>
</event>
<event>
 4    1  0.1343107E-008  0.3780605E+04  0.7816531E-02  0.8050330E-01
         -1   -1    0    0    0  501 -0.00000000000E+00  0.00000000000E+00  0.77483574761E+03  0.77483574761E+03  0.00000000000E+00 0.  1.
          1   -1    0    0  501    0  0.00000000000E+00 -0.00000000000E+00 -0.46116146535E+04  0.46116146535E+04  0.00000000000E+00 0. -1.
    2000013    1    1    2    0    0  0.14401134117E+04 -0.44726013830E+03 -0.28158468222E+04  0.33324857983E+04  0.95000000000E+03 0.  0.
   -2000013    1    1    2    0    0 -0.14401134117E+04  0.44726013830E+03 -0.10209320837E+04  0.20539646028E+04  0.95000000000E+03 0.  0.
<mgrwt>
<rscale>  0 0.37806052E+04</rscale>
<asrwt>0</asrwt>
<pdfrwt beam="2">  1        1 0.70947918E+00 0.37806052E+04</pdfrwt>
<pdfrwt beam="1">  1       -1 0.11920550E+00 0.37806052E+04</pdfrwt>
<totfact> 0.12264423E-02</totfact>
</mgrwt>
</event>
<event>
 4    1  0.1343107E-008  0.1964473E+04  0.7816531E-02  0.8623413E-01
         -2   -1    0    0    0  501 -0.00000000000E+00  0.00000000000E+00  0.48028886496E+03  0.48028886496E+03  0.00000000000E+00 0. -1.
          2   -1    0    0  501    0  0.00000000000E+00 -0.00000000000E+00 -0.20087663843E+04  0.20087663843E+04  0.00000000000E+00 0.  1.
    2000013    1    1    2    0    0  0.17435810914E+03  0.15253341615E+03 -0.64659586235E+03  0.11722855465E+04  0.95000000000E+03 0.  0.
   -2000013    1    1    2    0    0 -0.17435810914E+03 -0.15253341615E+03 -0.88188165704E+03  0.13167697028E+04  0.95000000000E+03 0.  0.
<mgrwt>
<rscale>  0 0.19644726E+04</rscale>
<asrwt>0</asrwt>
<pdfrwt beam="2">  1        2 0.30904099E+00 0.19644726E+04</pdfrwt>
<pdfrwt beam="1">  1       -2 0.73890594E-01 0.19644726E+04</pdfrwt>
<totfact> 0.10158427E+01</totfact>
</mgrwt>
</event>
<event>
 4    1  0.1343107E-008  0.4516311E+04  0.7816531E-02  0.7907787E-01
         -2   -1    0    0    0  501 -0.00000000000E+00  0.00000000000E+00  0.34006400418E+04  0.34006400418E+04  0.00000000000E+00 0. -1.
          2   -1    0    0  501    0  0.00000000000E+00 -0.00000000000E+00 -0.14995016782E+04  0.14995016782E+04  0.00000000000E+00 0.  1.
    2000013    1    1    2    0    0 -0.15043867651E+04 -0.13862143995E+04  0.10694015910E+04  0.24961750065E+04  0.95000000000E+03 0.  0.
   -2000013    1    1    2    0    0  0.15043867651E+04  0.13862143995E+04  0.83173677257E+03  0.24039667134E+04  0.95000000000E+03 0.  0.
<mgrwt>
<rscale>  0 0.45163106E+04</rscale>
<asrwt>0</asrwt>
<pdfrwt beam="2">  1        2 0.23069257E+00 0.45163106E+04</pdfrwt>
<pdfrwt beam="1">  1       -2 0.52317539E+00 0.45163106E+04</pdfrwt>
<totfact> 0.11567204E-02</totfact>
</mgrwt>
</event>
<event>
 4    1  0.1343107E-008  0.2080449E+04  0.7816531E-02  0.8569905E-01
         -2   -1    0    0    0  501 -0.00000000000E+00  0.00000000000E+00  0.49811098018E+03  0.49811098018E+03  0.00000000000E+00 0. -1.
          2   -1    0    0  501    0  0.00000000000E+00 -0.00000000000E+00 -0.21723419721E+04  0.21723419721E+04  0.00000000000E+00 0.  1.
    2000013    1    1    2    0    0 -0.36075520129E+03 -0.19945776624E+03 -0.96314114321E+03  0.14142378080E+04  0.95000000000E+03 0.  0.
   -2000013    1    1    2    0    0  0.36075520129E+03  0.19945776624E+03 -0.71108984867E+03  0.12562151443E+04  0.95000000000E+03 0.  0.
<mgrwt>
<rscale>  0 0.20804494E+04</rscale>
<asrwt>0</asrwt>
<pdfrwt beam="2">  1        2 0.33420645E+00 0.20804494E+04</pdfrwt>
<pdfrwt beam="1">  1       -2 0.76632460E-01 0.20804494E+04</pdfrwt>
<totfact> 0.75189793E+00</totfact>
</mgrwt>
</event>
<event>
 4    1  0.1343107E-008  0.2651300E+04  0.7816531E-02  0.8350982E-01
          2   -1    0    0  501    0  0.00000000000E+00  0.00000000000E+00  0.36521201145E+04  0.36521201145E+04  0.00000000000E+00 0.  1.
         -2   -1    0    0    0  501 -0.00000000000E+00 -0.00000000000E+00 -0.48118566131E+03  0.48118566131E+03  0.00000000000E+00 0. -1.
    2000013    1    1    2    0    0  0.30733871546E+03  0.86100257739E+03  0.13702085879E+04  0.19015136336E+04  0.95000000000E+03 0.  0.
   -2000013    1    1    2    0    0 -0.30733871546E+03 -0.86100257739E+03  0.18007258653E+04  0.22317921423E+04  0.95000000000E+03 0.  0.
<mgrwt>
<rscale>  0 0.26512999E+04</rscale>
<asrwt>0</asrwt>
<pdfrwt beam="1">  1        2 0.56186462E+00 0.26512999E+04</pdfrwt>
<pdfrwt beam="2">  1       -2 0.74028566E-01 0.26512999E+04</pdfrwt>
<totfact> 0.91702732E-01</totfact>
</mgrwt>
</event>
<event>
 4    1  0.1343107E-008  0.2065893E+04  0.7816531E-02  0.8576418E-01
         -2   -1    0    0    0  501 -0.00000000000E+00  0.00000000000E+00  0.80624465812E+03  0.80624465812E+03  0.00000000000E+00 0. -1.
          2   -1    0    0  501    0  0.00000000000E+00 -0.00000000000E+00 -0.13233935511E+04  0.13233935511E+04  0.00000000000E+00 0.  1.
    2000013    1    1    2    0    0 -0.27186614156E+02 -0.26063702007E+03 -0.57765421790E+03  0.11423025710E+04  0.95000000000E+03 0.  0.
   -2000013    1    1    2    0    0  0.27186614156E+02  0.26063702007E+03  0.60505324908E+02  0.98733563825E+03  0.95000000000E+03 0.  0.
<mgrwt>
<rscale>  0 0.20658935E+04</rscale>
<asrwt>0</asrwt>
<pdfrwt beam="2">  1        2 0.20359901E+00 0.20658935E+04</pdfrwt>
<pdfrwt beam="1">  1       -2 0.12403764E+00 0.20658935E+04</pdfrwt>
<totfact> 0.72390455E+00</totfact>
</mgrwt>
</event>
<event>
 4    1  0.1343107E-008  0.2095002E+04  0.7816531E-02  0.8563448E-01
         -2   -1    0    0    0  501 -0.00000000000E+00  0.00000000000E+00  0.10873770129E+04  0.10873770129E+04  0.00000000000E+00 0. -1.
          2   -1    0    0  501    0  0.00000000000E+00 -0.00000000000E+00 -0.10090871339E+04  0.10090871339E+04  0.00000000000E+00 0.  1.
    2000013    1    1    2    0    0  0.32361770628E+03  0.29962387582E+03  0.23156721974E+02  0.10476350130E+04  0.95000000000E+03 0.  0.
   -2000013    1    1    2    0    0 -0.32361770628E+03 -0.29962387582E+03  0.55133157056E+02  0.10488291337E+04  0.95000000000E+03 0.  0.
<mgrwt>
<rscale>  0 0.20950018E+04</rscale>
<asrwt>0</asrwt>
<pdfrwt beam="2">  1        2 0.15524417E+00 0.20950018E+04</pdfrwt>
<pdfrwt beam="1">  1       -2 0.16728877E+00 0.20950018E+04</pdfrwt>
<totfact> 0.51055383E+00</totfact>
</mgrwt>
</event>
<event>
 4    1  0.1343107E-008  0.2072325E+04  0.7816531E-02  0.8573534E-01
          1   -1    0    0  501    0  0.00000000000E+00  0.00000000000E+00  0.84868520070E+03  0.84868520070E+03  0.00000000000E+00 0.  1.
         -1   -1    0    0    0  501 -0.00000000000E+00 -0.00000000000E+00 -0.12650535554E+04  0.12650535554E+04  0.00000000000E+00 0. -1.
    2000013    1    1    2    0    0  0.24850787232E+03 -0.20028781307E+03 -0.47661815336E+03  0.11097460226E+04  0.95000000000E+03 0.  0.
   -2000013    1    1    2    0    0 -0.24850787232E+03  0.20028781307E+03  0.60249798617E+02  0.10039927335E+04  0.95000000000E+03 0.  0.
<mgrwt>
<rscale>  0 0.20723245E+04</rscale>
<asrwt>0</asrwt>
<pdfrwt beam="1">  1        1 0.13056695E+00 0.20723245E+04</pdfrwt>
<pdfrwt beam="2">  1       -1 0.19462362E+00 0.20723245E+04</pdfrwt>
<totfact> 0.30356216E+00</totfact>
</mgrwt>
</event>
<event>
 4    1  0.1343107E-008  0.2919918E+04  0.7816531E-02  0.8266976E-01
         -2   -1    0    0    0  501 -0.00000000000E+00  0.00000000000E+00  0.89026764285E+03  0.89026764285E+03  0.00000000000E+00 0. -1.
          2   -1    0    0  501    0  0.00000000000E+00 -0.00000000000E+00 -0.23942021927E+04  0.23942021927E+04  0.00000000000E+00 0.  1.
    2000013    1    1    2    0    0 -0.83292751806E+03 -0.30400864216E+03 -0.15004712041E+04  0.19849693547E+04  0.95000000000E+03 0.  0.
   -2000013    1    1    2    0    0  0.83292751806E+03  0.30400864216E+03 -0.34633457072E+01  0.12995004808E+04  0.95000000000E+03 0.  0.
<mgrwt>
<rscale>  0 0.29199183E+04</rscale>
<asrwt>0</asrwt>
<pdfrwt beam="2">  1        2 0.36833879E+00 0.29199183E+04</pdfrwt>
<pdfrwt beam="1">  1       -2 0.13696426E+00 0.29199183E+04</pdfrwt>
<totfact> 0.13120764E+00</totfact>
</mgrwt>
</event>
<event>
 4    1  0.1343107E-008  0.2693725E+04  0.7816531E-02  0.8337044E-01
          2   -1    0    0  501    0  0.00000000000E+00  0.00000000000E+00  0.91739255595E+03  0.91739255595E+03  0.00000000000E+00 0.  1.
         -2   -1    0    0    0  501 -0.00000000000E+00 -0.00000000000E+00 -0.19773855324E+04  0.19773855324E+04  0.00000000000E+00 0. -1.
    2000013    1    1    2    0    0  0.62257340775E+03 -0.65216045881E+03 -0.86748717624E+03  0.15709694182E+04  0.95000000000E+03 0.  0.
   -2000013    1    1    2    0    0 -0.62257340775E+03  0.65216045881E+03 -0.19250580025E+03  0.13238086702E+04  0.95000000000E+03 0.  0.
<mgrwt>
<rscale>  0 0.26937251E+04</rscale>
<asrwt>0</asrwt>
<pdfrwt beam="1">  1        2 0.14113732E+00 0.26937251E+04</pdfrwt>
<pdfrwt beam="2">  1       -2 0.30421316E+00 0.26937251E+04</pdfrwt>
<totfact> 0.75028473E-01</totfact>
</mgrwt>
</event>
<event>
 4    1  0.1343107E-008  0.2205322E+04  0.7816531E-02  0.8516216E-01
         -2   -1    0    0    0  501 -0.00000000000E+00  0.00000000000E+00  0.41607907487E+03  0.41607907487E+03  0.00000000000E+00 0. -1.
          2   -1    0    0  501    0  0.00000000000E+00 -0.00000000000E+00 -0.29221891361E+04  0.29221891361E+04  0.00000000000E+00 0.  1.
    2000013    1    1    2    0    0 -0.53091774969E+03 -0.15750620943E+03 -0.13767732806E+04  0.17620120684E+04  0.95000000000E+03 0.  0.
   -2000013    1    1    2    0    0  0.53091774969E+03  0.15750620943E+03 -0.11293367806E+04  0.15762561426E+04  0.95000000000E+03 0.  0.
<mgrwt>
<rscale>  0 0.22053224E+04</rscale>
<asrwt>0</asrwt>
<pdfrwt beam="2">  1        2 0.44956755E+00 0.22053224E+04</pdfrwt>
<pdfrwt beam="1">  1       -2 0.64012166E-01 0.22053224E+04</pdfrwt>
<totfact> 0.40166951E+00</totfact>
</mgrwt>
</event>
<event>
 4    1  0.1343107E-008  0.2102292E+04  0.7816531E-02  0.8560234E-01
          2   -1    0    0  501    0  0.00000000000E+00  0.00000000000E+00  0.25543301276E+04  0.25543301276E+04  0.00000000000E+00 0.  1.
         -2   -1    0    0    0  501 -0.00000000000E+00 -0.00000000000E+00 -0.43256276747E+03  0.43256276747E+03  0.00000000000E+00 0. -1.
    2000013    1    1    2    0    0  0.23841363495E+03 -0.37551793464E+02  0.16003251211E+04  0.18766437306E+04  0.95000000000E+03 0.  0.
   -2000013    1    1    2    0    0 -0.23841363495E+03  0.37551793464E+02  0.52144223906E+03  0.11102491645E+04  0.95000000000E+03 0.  0.
<mgrwt>
<rscale>  0 0.21022922E+04</rscale>
<asrwt>0</asrwt>
<pdfrwt beam="1">  1        2 0.39297385E+00 0.21022922E+04</pdfrwt>
<pdfrwt beam="2">  1       -2 0.66548120E-01 0.21022922E+04</pdfrwt>
<totfact> 0.61905844E+00</totfact>
</mgrwt>
</event>
<event>
 4    1  0.1343107E-008  0.2726700E+04  0.7816531E-02  0.8326393E-01
          2   -1    0    0  501    0  0.00000000000E+00  0.00000000000E+00  0.16974927273E+04  0.16974927273E+04  0.00000000000E+00 0.  1.
         -2   -1    0    0    0  501 -0.00000000000E+00 -0.00000000000E+00 -0.10949815214E+04  0.10949815214E+04  0.00000000000E+00 0. -1.
    2000013    1    1    2    0    0  0.88426735899E+03  0.29474489011E+03 -0.15450937088E+01  0.13309040911E+04  0.95000000000E+03 0.  0.
   -2000013    1    1    2    0    0 -0.88426735899E+03 -0.29474489011E+03  0.60405629957E+03  0.14615701576E+04  0.95000000000E+03 0.  0.
<mgrwt>
<rscale>  0 0.27267000E+04</rscale>
<asrwt>0</asrwt>
<pdfrwt beam="1">  1        2 0.26115273E+00 0.27267000E+04</pdfrwt>
<pdfrwt beam="2">  1       -2 0.16845869E+00 0.27267000E+04</pdfrwt>
<totfact> 0.18830187E+00</totfact>
</mgrwt>
</event>
<event>
 4    1  0.1343107E-008  0.3586705E+04  0.7816531E-02  0.8093544E-01
          2   -1    0    0  501    0  0.00000000000E+00  0.00000000000E+00  0.22720311447E+04  0.22720311447E+04  0.00000000000E+00 0.  1.
         -2   -1    0    0    0  501 -0.00000000000E+00 -0.00000000000E+00 -0.14155237548E+04  0.14155237548E+04  0.00000000000E+00 0. -1.
    2000013    1    1    2    0    0 -0.74526308864E+03  0.13254748348E+04  0.39099314953E+03  0.18351229528E+04  0.95000000000E+03 0.  0.
   -2000013    1    1    2    0    0  0.74526308864E+03 -0.13254748348E+04  0.46551424046E+03  0.18524319467E+04  0.95000000000E+03 0.  0.
<mgrwt>
<rscale>  0 0.35867055E+04</rscale>
<asrwt>0</asrwt>
<pdfrwt beam="1">  1        2 0.34954325E+00 0.35867055E+04</pdfrwt>
<pdfrwt beam="2">  1       -2 0.21777289E+00 0.35867055E+04</pdfrwt>
<totfact> 0.39175587E-01</totfact>
</mgrwt>
</event>
<event>
 4    1  0.1343107E-008  0.2076474E+04  0.7816531E-02  0.8571678E-01
          2   -1    0    0  501    0  0.00000000000E+00  0.00000000000E+00  0.14512699051E+04  0.14512699051E+04  0.00000000000E+00 0.  1.
         -2   -1    0    0    0  501 -0.00000000000E+00 -0.00000000000E+00 -0.74275397159E+03  0.74275397159E+03  0.00000000000E+00 0. -1.
    2000013    1    1    2    0    0 -0.30689390789E+03 -0.28407973000E+03  0.32944849658E+03  0.10890002184E+04  0.95000000000E+03 0.  0.
   -2000013    1    1    2    0    0  0.30689390789E+03  0.28407973000E+03  0.37906743692E+03  0.11050236583E+04  0.95000000000E+03 0.  0.
<mgrwt>
<rscale>  0 0.20764744E+04</rscale>
<asrwt>0</asrwt>
<pdfrwt beam="1">  1        2 0.22327229E+00 0.20764744E+04</pdfrwt>
<pdfrwt beam="2">  1       -2 0.11426984E+00 0.20764744E+04</pdfrwt>
<totfact> 0.74815556E+00</totfact>
</mgrwt>
</event>
<event>
 4    1  0.1343107E-008  0.2526853E+04  0.7816531E-02  0.8393481E-01
         -2   -1    0    0    0  501 -0.00000000000E+00  0.00000000000E+00  0.18566179129E+04  0.18566179129E+04  0.00000000000E+00 0. -1.
          2   -1    0    0  501    0  0.00000000000E+00 -0.00000000000E+00 -0.85976026284E+03  0.85976026284E+03  0.00000000000E+00 0.  1.
    2000013    1    1    2    0    0  0.46872184540E+03  0.67225044411E+03  0.65833182195E+03  0.14168703595E+04  0.95000000000E+03 0.  0.
   -2000013    1    1    2    0    0 -0.46872184540E+03 -0.67225044411E+03  0.33852582806E+03  0.12995078161E+04  0.95000000000E+03 0.  0.
<mgrwt>
<rscale>  0 0.25268528E+04</rscale>
<asrwt>0</asrwt>
<pdfrwt beam="2">  1        2 0.13227081E+00 0.25268528E+04</pdfrwt>
<pdfrwt beam="1">  1       -2 0.28563352E+00 0.25268528E+04</pdfrwt>
<totfact> 0.10819119E+00</totfact>
</mgrwt>
</event>
<event>
 4    1  0.1343107E-008  0.2543784E+04  0.7816531E-02  0.8387551E-01
          2   -1    0    0  501    0  0.00000000000E+00  0.00000000000E+00  0.18554015796E+04  0.18554015796E+04  0.00000000000E+00 0.  1.
         -2   -1    0    0    0  501 -0.00000000000E+00 -0.00000000000E+00 -0.87189176160E+03  0.87189176160E+03  0.00000000000E+00 0. -1.
    2000013    1    1    2    0    0 -0.35187640360E+03 -0.65643256962E+03  0.92126536726E+03  0.15185356758E+04  0.95000000000E+03 0.  0.
   -2000013    1    1    2    0    0  0.35187640360E+03  0.65643256962E+03  0.62244450707E+02  0.12087576653E+04  0.95000000000E+03 0.  0.
<mgrwt>
<rscale>  0 0.25437841E+04</rscale>
<asrwt>0</asrwt>
<pdfrwt beam="1">  1        2 0.28544640E+00 0.25437841E+04</pdfrwt>
<pdfrwt beam="2">  1       -2 0.13413719E+00 0.25437841E+04</pdfrwt>
<totfact> 0.28652250E+00</totfact>
</mgrwt>
</event>
<event>
 4    1  0.1343107E-008  0.2183640E+04  0.7816531E-02  0.8525268E-01
          2   -1    0    0  501    0  0.00000000000E+00  0.00000000000E+00  0.21488973870E+04  0.21488973870E+04  0.00000000000E+00 0.  1.
         -2   -1    0    0    0  501 -0.00000000000E+00 -0.00000000000E+00 -0.55473627605E+03  0.55473627605E+03  0.00000000000E+00 0. -1.
    2000013    1    1    2    0    0 -0.36585074690E+03  0.32905097654E+03  0.52737808368E+03  0.11927904080E+04  0.95000000000E+03 0.  0.
   -2000013    1    1    2    0    0  0.36585074690E+03 -0.32905097654E+03  0.10667830272E+04  0.15108432551E+04  0.95000000000E+03 0.  0.
<mgrwt>
<rscale>  0 0.21836404E+04</rscale>
<asrwt>0</asrwt>
<pdfrwt beam="1">  1        2 0.33059959E+00 0.21836404E+04</pdfrwt>
<pdfrwt beam="2">  1       -2 0.85344043E-01 0.21836404E+04</pdfrwt>
<totfact> 0.60275328E+00</totfact>
</mgrwt>
</event>
<event>
 4    1  0.1343107E-008  0.2177643E+04  0.7816531E-02  0.8527792E-01
         -2   -1    0    0    0  501 -0.00000000000E+00  0.00000000000E+00  0.36081614154E+03  0.36081614154E+03  0.00000000000E+00 0. -1.
          2   -1    0    0  501    0  0.00000000000E+00 -0.00000000000E+00 -0.32856968061E+04  0.32856968061E+04  0.00000000000E+00 0.  1.
    2000013    1    1    2    0    0 -0.16461609901E+03 -0.48165620808E+03 -0.12033419301E+04  0.16154327481E+04  0.95000000000E+03 0.  0.
   -2000013    1    1    2    0    0  0.16461609901E+03  0.48165620808E+03 -0.17215387344E+04  0.20310801995E+04  0.95000000000E+03 0.  0.
<mgrwt>
<rscale>  0 0.21776432E+04</rscale>
<asrwt>0</asrwt>
<pdfrwt beam="2">  1        2 0.50549180E+00 0.21776432E+04</pdfrwt>
<pdfrwt beam="1">  1       -2 0.55510178E-01 0.21776432E+04</pdfrwt>
<totfact> 0.31878624E+00</totfact>
</mgrwt>
</event>
<event>
 4    1  0.1343107E-008  0.3366986E+04  0.7816531E-02  0.8146057E-01
          1   -1    0    0  501    0  0.00000000000E+00  0.00000000000E+00  0.15505879774E+04  0.15505879774E+04  0.00000000000E+00 0.  1.
         -1   -1    0    0    0  501 -0.00000000000E+00 -0.00000000000E+00 -0.18277894609E+04  0.18277894609E+04  0.00000000000E+00 0. -1.
    2000013    1    1    2    0    0  0.57983789467E+03  0.11067937548E+04  0.47209957174E+03  0.16390797435E+04  0.95000000000E+03 0.  0.
   -2000013    1    1    2    0    0 -0.57983789467E+03 -0.11067937548E+04 -0.74930105528E+03  0.17392976948E+04  0.95000000000E+03 0.  0.
<mgrwt>
<rscale>  0 0.33669858E+04</rscale>
<asrwt>0</asrwt>
<pdfrwt beam="1">  1        1 0.23855200E+00 0.33669858E+04</pdfrwt>
<pdfrwt beam="2">  1       -1 0.28119838E+00 0.33669858E+04</pdfrwt>
<totfact> 0.21765013E-01</totfact>
</mgrwt>
</event>
<event>
 4    1  0.1343107E-008  0.2505936E+04  0.7816531E-02  0.8400874E-01
         -1   -1    0    0    0  501 -0.00000000000E+00  0.00000000000E+00  0.19022443924E+04  0.19022443924E+04  0.00000000000E+00 0. -1.
          1   -1    0    0  501    0  0.00000000000E+00 -0.00000000000E+00 -0.82530322456E+03  0.82530322456E+03  0.00000000000E+00 0.  1.
    2000013    1    1    2    0    0 -0.18238959527E+03  0.61819513041E+03 -0.79163642342E+01  0.11480391337E+04  0.95000000000E+03 0.  0.
   -2000013    1    1    2    0    0  0.18238959527E+03 -0.61819513041E+03  0.10848575321E+04  0.15795084832E+04  0.95000000000E+03 0.  0.
<mgrwt>
<rscale>  0 0.25059357E+04</rscale>
<asrwt>0</asrwt>
<pdfrwt beam="2">  1        1 0.12696973E+00 0.25059357E+04</pdfrwt>
<pdfrwt beam="1">  1       -1 0.29265298E+00 0.25059357E+04</pdfrwt>
<totfact> 0.68793693E-01</totfact>
</mgrwt>
</event>
<event>
 4    1  0.1343107E-008  0.2327745E+04  0.7816531E-02  0.8467061E-01
         -2   -1    0    0    0  501 -0.00000000000E+00  0.00000000000E+00  0.73146740117E+03  0.73146740117E+03  0.00000000000E+00 0. -1.
          2   -1    0    0  501    0  0.00000000000E+00 -0.00000000000E+00 -0.18518931650E+04  0.18518931650E+04  0.00000000000E+00 0.  1.
    2000013    1    1    2    0    0 -0.17506535289E+03  0.64666736471E+03 -0.49672111343E+03  0.12641433554E+04  0.95000000000E+03 0.  0.
   -2000013    1    1    2    0    0  0.17506535289E+03 -0.64666736471E+03 -0.62370465037E+03  0.13192172108E+04  0.95000000000E+03 0.  0.
<mgrwt>
<rscale>  0 0.23277452E+04</rscale>
<asrwt>0</asrwt>
<pdfrwt beam="2">  1        2 0.28490665E+00 0.23277452E+04</pdfrwt>
<pdfrwt beam="1">  1       -2 0.11253344E+00 0.23277452E+04</pdfrwt>
<totfact> 0.45410362E+00</totfact>
</mgrwt>
</event>
<event>
 4    1  0.1343107E-008  0.2410753E+04  0.7816531E-02  0.8435489E-01
          2   -1    0    0  501    0  0.00000000000E+00  0.00000000000E+00  0.35976717326E+04  0.35976717326E+04  0.00000000000E+00 0.  1.
         -2   -1    0    0    0  501 -0.00000000000E+00 -0.00000000000E+00 -0.40385363460E+03  0.40385363460E+03  0.00000000000E+00 0. -1.
    2000013    1    1    2    0    0  0.23411291441E+03 -0.69246760717E+03  0.18076044761E+04  0.21689292717E+04  0.95000000000E+03 0.  0.
   -2000013    1    1    2    0    0 -0.23411291441E+03  0.69246760717E+03  0.13862136219E+04  0.18325960955E+04  0.95000000000E+03 0.  0.
<mgrwt>
<rscale>  0 0.24107532E+04</rscale>
<asrwt>0</asrwt>
<pdfrwt beam="1">  1        2 0.55348794E+00 0.24107532E+04</pdfrwt>
<pdfrwt beam="2">  1       -2 0.62131331E-01 0.24107532E+04</pdfrwt>
<totfact> 0.15008599E+00</totfact>
</mgrwt>
</event>
<event>
 4    1  0.1343107E-008  0.2185013E+04  0.7816531E-02  0.8524692E-01
         -1   -1    0    0    0  501 -0.00000000000E+00  0.00000000000E+00  0.32152422815E+03  0.32152422815E+03  0.00000000000E+00 0. -1.
          1   -1    0    0  501    0  0.00000000000E+00 -0.00000000000E+00 -0.37122272297E+04  0.37122272297E+04  0.00000000000E+00 0.  1.
    2000013    1    1    2    0    0  0.42644590692E+03  0.13714511894E+03 -0.22504293258E+04  0.24834647260E+04  0.95000000000E+03 0.  0.
   -2000013    1    1    2    0    0 -0.42644590692E+03 -0.13714511894E+03 -0.11402736758E+04  0.15502867318E+04  0.95000000000E+03 0.  0.
<mgrwt>
<rscale>  0 0.21850135E+04</rscale>
<asrwt>0</asrwt>
<pdfrwt beam="2">  1        1 0.57111189E+00 0.21850135E+04</pdfrwt>
<pdfrwt beam="1">  1       -1 0.49465265E-01 0.21850135E+04</pdfrwt>
<totfact> 0.63301310E-01</totfact>
</mgrwt>
</event>
<event>
 4    1  0.1343107E-008  0.2071181E+04  0.7816531E-02  0.8574046E-01
         -2   -1    0    0    0  501 -0.00000000000E+00  0.00000000000E+00  0.32963592900E+03  0.32963592900E+03  0.00000000000E+00 0. -1.
          2   -1    0    0  501    0  0.00000000000E+00 -0.00000000000E+00 -0.32534307508E+04  0.32534307508E+04  0.00000000000E+00 0.  1.
    2000013    1    1    2    0    0 -0.28130019304E+03 -0.29799761309E+03 -0.13842359015E+04  0.17281612792E+04  0.95000000000E+03 0.  0.
   -2000013    1    1    2    0    0  0.28130019304E+03  0.29799761309E+03 -0.15395589204E+04  0.18549054006E+04  0.95000000000E+03 0.  0.
<mgrwt>
<rscale>  0 0.20711810E+04</rscale>
<asrwt>0</asrwt>
<pdfrwt beam="2">  1        2 0.50052782E+00 0.20711810E+04</pdfrwt>
<pdfrwt beam="1">  1       -2 0.50713218E-01 0.20711810E+04</pdfrwt>
<totfact> 0.40747640E+00</totfact>
</mgrwt>
</event>
<event>
 4    1  0.1343107E-008  0.2771677E+04  0.7816531E-02  0.8312116E-01
          2   -1    0    0  501    0  0.00000000000E+00  0.00000000000E+00  0.20630947246E+04  0.20630947246E+04  0.00000000000E+00 0.  1.
         -2   -1    0    0    0  501 -0.00000000000E+00 -0.00000000000E+00 -0.93090665127E+03  0.93090665127E+03  0.00000000000E+00 0. -1.
    2000013    1    1    2    0    0 -0.40328838239E+03  0.36659076640E+03 -0.35114491725E+03  0.11501448006E+04  0.95000000000E+03 0.  0.
   -2000013    1    1    2    0    0  0.40328838239E+03 -0.36659076640E+03  0.14833329906E+04  0.18438565753E+04  0.95000000000E+03 0.  0.
<mgrwt>
<rscale>  0 0.27716772E+04</rscale>
<asrwt>0</asrwt>
<pdfrwt beam="1">  1        2 0.31739919E+00 0.27716772E+04</pdfrwt>
<pdfrwt beam="2">  1       -2 0.14321641E+00 0.27716772E+04</pdfrwt>
<totfact> 0.18190797E+00</totfact>
</mgrwt>
</event>
<event>
 4    1  0.1343107E-008  0.3333271E+04  0.7816531E-02  0.8154481E-01
         -2   -1    0    0    0  501 -0.00000000000E+00  0.00000000000E+00  0.12105740954E+04  0.12105740954E+04  0.00000000000E+00 0. -1.
          2   -1    0    0  501    0  0.00000000000E+00 -0.00000000000E+00 -0.22945092002E+04  0.22945092002E+04  0.00000000000E+00 0.  1.
    2000013    1    1    2    0    0 -0.11165266456E+04  0.78276907158E+03 -0.67420418391E+03  0.17934353770E+04  0.95000000000E+03 0.  0.
   -2000013    1    1    2    0    0  0.11165266456E+04 -0.78276907158E+03 -0.40973092085E+03  0.17116479186E+04  0.95000000000E+03 0.  0.
<mgrwt>
<rscale>  0 0.33332707E+04</rscale>
<asrwt>0</asrwt>
<pdfrwt beam="2">  1        2 0.35300141E+00 0.33332707E+04</pdfrwt>
<pdfrwt beam="1">  1       -2 0.18624217E+00 0.33332707E+04</pdfrwt>
<totfact> 0.62498740E-01</totfact>
</mgrwt>
</event>
<event>
 4    1  0.1343107E-008  0.2762103E+04  0.7816531E-02  0.8315131E-01
          2   -1    0    0  501    0  0.00000000000E+00  0.00000000000E+00  0.29593434043E+04  0.29593434043E+04  0.00000000000E+00 0.  1.
         -2   -1    0    0    0  501 -0.00000000000E+00 -0.00000000000E+00 -0.64450235065E+03  0.64450235065E+03  0.00000000000E+00 0. -1.
    2000013    1    1    2    0    0  0.74650830705E+03  0.57939861653E+03  0.15937337551E+04  0.20821778722E+04  0.95000000000E+03 0.  0.
   -2000013    1    1    2    0    0 -0.74650830705E+03 -0.57939861653E+03  0.72110729853E+03  0.15216678827E+04  0.95000000000E+03 0.  0.
<mgrwt>
<rscale>  0 0.27621034E+04</rscale>
<asrwt>0</asrwt>
<pdfrwt beam="1">  1        2 0.45528359E+00 0.27621034E+04</pdfrwt>
<pdfrwt beam="2">  1       -2 0.99154210E-01 0.27621034E+04</pdfrwt>
<totfact> 0.13575173E+00</totfact>
</mgrwt>
</event>
<event>
 4    1  0.1343107E-008  0.3469538E+04  0.7816531E-02  0.8121047E-01
          2   -1    0    0  501    0  0.00000000000E+00  0.00000000000E+00  0.24764265487E+04  0.24764265487E+04  0.00000000000E+00 0.  1.
         -2   -1    0    0    0  501 -0.00000000000E+00 -0.00000000000E+00 -0.12152284540E+04  0.12152284540E+04  0.00000000000E+00 0. -1.
    2000013    1    1    2    0    0  0.40579352114E+03  0.13246815398E+04  0.16989666600E+03  0.16884355010E+04  0.95000000000E+03 0.  0.
   -2000013    1    1    2    0    0 -0.40579352114E+03 -0.13246815398E+04  0.10913014288E+04  0.20032195018E+04  0.95000000000E+03 0.  0.
<mgrwt>
<rscale>  0 0.34695383E+04</rscale>
<asrwt>0</asrwt>
<pdfrwt beam="1">  1        2 0.38098870E+00 0.34695383E+04</pdfrwt>
<pdfrwt beam="2">  1       -2 0.18695823E+00 0.34695383E+04</pdfrwt>
<totfact> 0.48081235E-01</totfact>
</mgrwt>
</event>
<event>
 4    1  0.1343107E-008  0.2386300E+04  0.7816531E-02  0.8444650E-01
          1   -1    0    0  501    0  0.00000000000E+00  0.00000000000E+00  0.30880088515E+04  0.30880088515E+04  0.00000000000E+00 0.  1.
         -1   -1    0    0    0  501 -0.00000000000E+00 -0.00000000000E+00 -0.46101128119E+03  0.46101128119E+03  0.00000000000E+00 0. -1.
    2000013    1    1    2    0    0  0.63210338239E+03 -0.32135180613E+02  0.79718681568E+03  0.13923340745E+04  0.95000000000E+03 0.  0.
   -2000013    1    1    2    0    0 -0.63210338239E+03  0.32135180613E+02  0.18298107546E+04  0.21566860582E+04  0.95000000000E+03 0.  0.
<mgrwt>
<rscale>  0 0.23863000E+04</rscale>
<asrwt>0</asrwt>
<pdfrwt beam="1">  1        1 0.47507827E+00 0.23863000E+04</pdfrwt>
<pdfrwt beam="2">  1       -1 0.70924814E-01 0.23863000E+04</pdfrwt>
<totfact> 0.92841936E-01</totfact>
</mgrwt>
</event>
<event>
 4    1  0.1343107E-008  0.2453259E+04  0.7816531E-02  0.8419829E-01
         -2   -1    0    0    0  501 -0.00000000000E+00  0.00000000000E+00  0.60465536968E+03  0.60465536968E+03  0.00000000000E+00 0. -1.
          2   -1    0    0  501    0  0.00000000000E+00 -0.00000000000E+00 -0.24883921914E+04  0.24883921914E+04  0.00000000000E+00 0.  1.
    2000013    1    1    2    0    0 -0.67926905327E+03  0.23479341775E+03 -0.13107125023E+04  0.17711582819E+04  0.95000000000E+03 0.  0.
   -2000013    1    1    2    0    0  0.67926905327E+03 -0.23479341775E+03 -0.57302431933E+03  0.13218892791E+04  0.95000000000E+03 0.  0.
<mgrwt>
<rscale>  0 0.24532588E+04</rscale>
<asrwt>0</asrwt>
<pdfrwt beam="2">  1        2 0.38282956E+00 0.24532588E+04</pdfrwt>
<pdfrwt beam="1">  1       -2 0.93023905E-01 0.24532588E+04</pdfrwt>
<totfact> 0.30979774E+00</totfact>
</mgrwt>
</event>
<event>
 4    1  0.1343107E-008  0.3337439E+04  0.7816531E-02  0.8153434E-01
         -2   -1    0    0    0  501 -0.00000000000E+00  0.00000000000E+00  0.14190911223E+04  0.14190911223E+04  0.00000000000E+00 0. -1.
          2   -1    0    0  501    0  0.00000000000E+00 -0.00000000000E+00 -0.19622597026E+04  0.19622597026E+04  0.00000000000E+00 0.  1.
    2000013    1    1    2    0    0 -0.13223371308E+04 -0.29668402412E+02  0.97446496094E+02  0.16313955747E+04  0.95000000000E+03 0.  0.
   -2000013    1    1    2    0    0  0.13223371308E+04  0.29668402412E+02 -0.64061507643E+03  0.17499552502E+04  0.95000000000E+03 0.  0.
<mgrwt>
<rscale>  0 0.33374393E+04</rscale>
<asrwt>0</asrwt>
<pdfrwt beam="2">  1        2 0.30188611E+00 0.33374393E+04</pdfrwt>
<pdfrwt beam="1">  1       -2 0.21832171E+00 0.33374393E+04</pdfrwt>
<totfact> 0.59145164E-01</totfact>
</mgrwt>
</event>
<event>
 4    1  0.1343107E-008  0.2551539E+04  0.7816531E-02  0.8384851E-01
         -2   -1    0    0    0  501 -0.00000000000E+00  0.00000000000E+00  0.59606428818E+03  0.59606428818E+03  0.00000000000E+00 0. -1.
          2   -1    0    0  501    0  0.00000000000E+00 -0.00000000000E+00 -0.27305580271E+04  0.27305580271E+04  0.00000000000E+00 0.  1.
    2000013    1    1    2    0    0 -0.26443534765E+03  0.75960939481E+03 -0.14317333372E+04  0.18971802325E+04  0.95000000000E+03 0.  0.
   -2000013    1    1    2    0    0  0.26443534765E+03 -0.75960939481E+03 -0.70276040170E+03  0.14294420828E+04  0.95000000000E+03 0.  0.
<mgrwt>
<rscale>  0 0.25515392E+04</rscale>
<asrwt>0</asrwt>
<pdfrwt beam="2">  1        2 0.42008585E+00 0.25515392E+04</pdfrwt>
<pdfrwt beam="1">  1       -2 0.91702199E-01 0.25515392E+04</pdfrwt>
<totfact> 0.22879248E+00</totfact>
</mgrwt>
</event>
<event>
 4    1  0.1343107E-008  0.3760347E+04  0.7816531E-02  0.8054718E-01
          2   -1    0    0  501    0  0.00000000000E+00  0.00000000000E+00  0.15175298106E+04  0.15175298106E+04  0.00000000000E+00 0.  1.
         -2   -1    0    0    0  501 -0.00000000000E+00 -0.00000000000E+00 -0.23294776979E+04  0.23294776979E+04  0.00000000000E+00 0. -1.
    2000013    1    1    2    0    0  0.70810852788E+03 -0.15674951320E+03 -0.18908234802E+04  0.22368955117E+04  0.95000000000E+03 0.  0.
   -2000013    1    1    2    0    0 -0.70810852788E+03  0.15674951320E+03  0.10788755930E+04  0.16101119968E+04  0.95000000000E+03 0.  0.
<mgrwt>
<rscale>  0 0.37603467E+04</rscale>
<asrwt>0</asrwt>
<pdfrwt beam="1">  1        2 0.23346613E+00 0.37603467E+04</pdfrwt>
<pdfrwt beam="2">  1       -2 0.35838118E+00 0.37603467E+04</pdfrwt>
<totfact> 0.13737824E-01</totfact>
</mgrwt>
</event>
<event>
 4    1  0.1343107E-008  0.2751959E+04  0.7816531E-02  0.8318340E-01
          2   -1    0    0  501    0  0.00000000000E+00  0.00000000000E+00  0.32589911779E+04  0.32589911779E+04  0.00000000000E+00 0.  1.
         -2   -1    0    0    0  501 -0.00000000000E+00 -0.00000000000E+00 -0.58095253606E+03  0.58095253606E+03  0.00000000000E+00 0. -1.
    2000013    1    1    2    0    0  0.13074132906E+03  0.78746170871E+03  0.21687888175E+04  0.24986664789E+04  0.95000000000E+03 0.  0.
   -2000013    1    1    2    0    0 -0.13074132906E+03 -0.78746170871E+03  0.50924982441E+03  0.13412772351E+04  0.95000000000E+03 0.  0.
<mgrwt>
<rscale>  0 0.27519587E+04</rscale>
<asrwt>0</asrwt>
<pdfrwt beam="1">  1        2 0.50138325E+00 0.27519587E+04</pdfrwt>
<pdfrwt beam="2">  1       -2 0.89377315E-01 0.27519587E+04</pdfrwt>
<totfact> 0.11123406E+00</totfact>
</mgrwt>
</event>
<event>
 4    1  0.1343107E-008  0.2519309E+04  0.7816531E-02  0.8396139E-01
         -2   -1    0    0    0  501 -0.00000000000E+00  0.00000000000E+00  0.14057716159E+04  0.14057716159E+04  0.00000000000E+00 0. -1.
          2   -1    0    0  501    0  0.00000000000E+00 -0.00000000000E+00 -0.11287253163E+04  0.11287253163E+04  0.00000000000E+00 0.  1.
    2000013    1    1    2    0    0 -0.20030868753E+03 -0.45280995567E+03 -0.52809469229E+03  0.11943803541E+04  0.95000000000E+03 0.  0.
   -2000013    1    1    2    0    0  0.20030868753E+03  0.45280995567E+03  0.80514099185E+03  0.13401165781E+04  0.95000000000E+03 0.  0.
<mgrwt>
<rscale>  0 0.25193094E+04</rscale>
<asrwt>0</asrwt>
<pdfrwt beam="2">  1        2 0.17365005E+00 0.25193094E+04</pdfrwt>
<pdfrwt beam="1">  1       -2 0.21627256E+00 0.25193094E+04</pdfrwt>
<totfact> 0.19440638E+00</totfact>
</mgrwt>
</event>
<event>
 4    1  0.1343107E-008  0.2231560E+04  0.7816531E-02  0.8505406E-01
         -2   -1    0    0    0  501 -0.00000000000E+00  0.00000000000E+00  0.16504059501E+04  0.16504059501E+04  0.00000000000E+00 0. -1.
          2   -1    0    0  501    0  0.00000000000E+00 -0.00000000000E+00 -0.75433870333E+03  0.75433870333E+03  0.00000000000E+00 0.  1.
    2000013    1    1    2    0    0  0.31600539548E+03 -0.27376633962E+02  0.97798862312E+03  0.13998466477E+04  0.95000000000E+03 0.  0.
   -2000013    1    1    2    0    0 -0.31600539548E+03  0.27376633962E+02 -0.81921376348E+02  0.10048980057E+04  0.95000000000E+03 0.  0.
<mgrwt>
<rscale>  0 0.22315601E+04</rscale>
<asrwt>0</asrwt>
<pdfrwt beam="2">  1        2 0.11605211E+00 0.22315601E+04</pdfrwt>
<pdfrwt beam="1">  1       -2 0.25390861E+00 0.22315601E+04</pdfrwt>
<totfact> 0.20628454E+00</totfact>
</mgrwt>
</event>
<event>
 4    1  0.1343107E-008  0.3003704E+04  0.7816531E-02  0.8242674E-01
         -2   -1    0    0    0  501 -0.00000000000E+00  0.00000000000E+00  0.58843991488E+03  0.58843991488E+03  0.00000000000E+00 0. -1.
          2   -1    0    0  501    0  0.00000000000E+00 -0.00000000000E+00 -0.38331169658E+04  0.38331169658E+04  0.00000000000E+00 0.  1.
    2000013    1    1    2    0    0 -0.10254809075E+04  0.21072392105E+03 -0.23686520576E+04  0.27584467065E+04  0.95000000000E+03 0.  0.
   -2000013    1    1    2    0    0  0.10254809075E+04 -0.21072392105E+03 -0.87602499330E+03  0.16631101742E+04  0.95000000000E+03 0.  0.
<mgrwt>
<rscale>  0 0.30037037E+04</rscale>
<asrwt>0</asrwt>
<pdfrwt beam="2">  1        2 0.58971029E+00 0.30037037E+04</pdfrwt>
<pdfrwt beam="1">  1       -2 0.90529219E-01 0.30037037E+04</pdfrwt>
<totfact> 0.41305747E-01</totfact>
</mgrwt>
</event>
<event>
 4    1  0.1343107E-008  0.2493790E+04  0.7816531E-02  0.8405201E-01
          2   -1    0    0  501    0  0.00000000000E+00  0.00000000000E+00  0.37411270275E+04  0.37411270275E+04  0.00000000000E+00 0.  1.
         -2   -1    0    0    0  501 -0.00000000000E+00 -0.00000000000E+00 -0.41558257056E+03  0.41558257056E+03  0.00000000000E+00 0. -1.
    2000013    1    1    2    0    0 -0.66677969929E+03  0.45486338932E+03  0.17084601372E+04  0.21149070690E+04  0.95000000000E+03 0.  0.
   -2000013    1    1    2    0    0  0.66677969929E+03 -0.45486338932E+03  0.16170843198E+04  0.20418025291E+04  0.95000000000E+03 0.  0.
<mgrwt>
<rscale>  0 0.24937900E+04</rscale>
<asrwt>0</asrwt>
<pdfrwt beam="1">  1        2 0.57555798E+00 0.24937900E+04</pdfrwt>
<pdfrwt beam="2">  1       -2 0.63935782E-01 0.24937900E+04</pdfrwt>
<totfact> 0.11005454E+00</totfact>
</mgrwt>
</event>
<event>
 4    1  0.1343107E-008  0.3430379E+04  0.7816531E-02  0.8130490E-01
          2   -1    0    0  501    0  0.00000000000E+00  0.00000000000E+00  0.14209563373E+04  0.14209563373E+04  0.00000000000E+00 0.  1.
         -2   -1    0    0    0  501 -0.00000000000E+00 -0.00000000000E+00 -0.20703489276E+04  0.20703489276E+04  0.00000000000E+00 0. -1.
    2000013    1    1    2    0    0 -0.20454895260E+03 -0.10866548087E+04 -0.12444707596E+04  0.19167332676E+04  0.95000000000E+03 0.  0.
   -2000013    1    1    2    0    0  0.20454895260E+03  0.10866548087E+04  0.59507816928E+03  0.15745719974E+04  0.95000000000E+03 0.  0.
<mgrwt>
<rscale>  0 0.34303792E+04</rscale>
<asrwt>0</asrwt>
<pdfrwt beam="1">  1        2 0.21860867E+00 0.34303792E+04</pdfrwt>
<pdfrwt beam="2">  1       -2 0.31851522E+00 0.34303792E+04</pdfrwt>
<totfact> 0.28442216E-01</totfact>
</mgrwt>
</event>
<event>
 4    1  0.1343107E-008  0.2603748E+04  0.7816531E-02  0.8366929E-01
          1   -1    0    0  501    0  0.00000000000E+00  0.00000000000E+00  0.25112696964E+04  0.25112696964E+04  0.00000000000E+00 0.  1.
         -1   -1    0    0    0  501 -0.00000000000E+00 -0.00000000000E+00 -0.67490774368E+03  0.67490774368E+03  0.00000000000E+00 0. -1.
    2000013    1    1    2    0    0  0.79695584098E+03  0.38157240409E+03  0.10501991209E+04  0.16691777334E+04  0.95000000000E+03 0.  0.
   -2000013    1    1    2    0    0 -0.79695584098E+03 -0.38157240409E+03  0.78616283183E+03  0.15169997067E+04  0.95000000000E+03 0.  0.
<mgrwt>
<rscale>  0 0.26037476E+04</rscale>
<asrwt>0</asrwt>
<pdfrwt beam="1">  1        1 0.38634918E+00 0.26037476E+04</pdfrwt>
<pdfrwt beam="2">  1       -1 0.10383196E+00 0.26037476E+04</pdfrwt>
<totfact> 0.10232667E+00</totfact>
</mgrwt>
</event>
<event>
 4    1  0.1343107E-008  0.3796318E+04  0.7816531E-02  0.8046946E-01
         -2   -1    0    0    0  501 -0.00000000000E+00  0.00000000000E+00  0.17298057489E+04  0.17298057489E+04  0.00000000000E+00 0. -1.
          2   -1    0    0  501    0  0.00000000000E+00 -0.00000000000E+00 -0.20828969697E+04  0.20828969697E+04  0.00000000000E+00 0.  1.
    2000013    1    1    2    0    0  0.10867242636E+04 -0.82854123190E+03 -0.10932044555E+04  0.19912423709E+04  0.95000000000E+03 0.  0.
   -2000013    1    1    2    0    0 -0.10867242636E+04  0.82854123190E+03  0.74011323473E+03  0.18214603477E+04  0.95000000000E+03 0.  0.
<mgrwt>
<rscale>  0 0.37963178E+04</rscale>
<asrwt>0</asrwt>
<pdfrwt beam="2">  1        2 0.32044569E+00 0.37963178E+04</pdfrwt>
<pdfrwt beam="1">  1       -2 0.26612396E+00 0.37963178E+04</pdfrwt>
<totfact> 0.24660414E-01</totfact>
</mgrwt>
</event>
<event>
 4    1  0.1343107E-008  0.2224096E+04  0.7816531E-02  0.8508465E-01
          1   -1    0    0  501    0  0.00000000000E+00  0.00000000000E+00  0.29037431987E+04  0.29037431987E+04  0.00000000000E+00 0.  1.
         -1   -1    0    0    0  501 -0.00000000000E+00 -0.00000000000E+00 -0.42588164090E+03  0.42588164090E+03  0.00000000000E+00 0. -1.
    2000013    1    1    2    0    0  0.37856262255E+03  0.18590245090E+03  0.64710267710E+03  0.12243819891E+04  0.95000000000E+03 0.  0.
   -2000013    1    1    2    0    0 -0.37856262255E+03 -0.18590245090E+03  0.18307588807E+04  0.21052428505E+04  0.95000000000E+03 0.  0.
<mgrwt>
<rscale>  0 0.22240961E+04</rscale>
<asrwt>0</asrwt>
<pdfrwt beam="1">  1        1 0.44672971E+00 0.22240961E+04</pdfrwt>
<pdfrwt beam="2">  1       -1 0.65520254E-01 0.22240961E+04</pdfrwt>
<totfact> 0.15092542E+00</totfact>
</mgrwt>
</event>
<event>
 4    1  0.1343107E-008  0.2171755E+04  0.7816531E-02  0.8530277E-01
          2   -1    0    0  501    0  0.00000000000E+00  0.00000000000E+00  0.98518798171E+03  0.98518798171E+03  0.00000000000E+00 0.  1.
         -2   -1    0    0    0  501 -0.00000000000E+00 -0.00000000000E+00 -0.11968576522E+04  0.11968576522E+04  0.00000000000E+00 0. -1.
    2000013    1    1    2    0    0  0.37170190199E+03  0.11060874354E+03 -0.46281146570E+03  0.11256513896E+04  0.95000000000E+03 0.  0.
   -2000013    1    1    2    0    0 -0.37170190199E+03 -0.11060874354E+03  0.25114179524E+03  0.10563942443E+04  0.95000000000E+03 0.  0.
<mgrwt>
<rscale>  0 0.21717548E+04</rscale>
<asrwt>0</asrwt>
<pdfrwt beam="1">  1        2 0.15156738E+00 0.21717548E+04</pdfrwt>
<pdfrwt beam="2">  1       -2 0.18413195E+00 0.21717548E+04</pdfrwt>
<totfact> 0.40059668E+00</totfact>
</mgrwt>
</event>
<event>
 4    1  0.1343107E-008  0.2345702E+04  0.7816531E-02  0.8460116E-01
         -2   -1    0    0    0  501 -0.00000000000E+00  0.00000000000E+00  0.49929364163E+03  0.49929364163E+03  0.00000000000E+00 0. -1.
          2   -1    0    0  501    0  0.00000000000E+00 -0.00000000000E+00 -0.27550509033E+04  0.27550509033E+04  0.00000000000E+00 0.  1.
    2000013    1    1    2    0    0  0.59277972945E+03 -0.41206858692E+02 -0.64729417584E+03  0.12940539258E+04  0.95000000000E+03 0.  0.
   -2000013    1    1    2    0    0 -0.59277972945E+03  0.41206858692E+02 -0.16084630858E+04  0.19602906191E+04  0.95000000000E+03 0.  0.
<mgrwt>
<rscale>  0 0.23457019E+04</rscale>
<asrwt>0</asrwt>
<pdfrwt beam="2">  1        2 0.42385399E+00 0.23457019E+04</pdfrwt>
<pdfrwt beam="1">  1       -2 0.76814405E-01 0.23457019E+04</pdfrwt>
<totfact> 0.33668457E+00</totfact>
</mgrwt>
</event>
<event>
 4    1  0.1343107E-008  0.2612491E+04  0.7816531E-02  0.8363971E-01
         -2   -1    0    0    0  501 -0.00000000000E+00  0.00000000000E+00  0.24343312704E+04  0.24343312704E+04  0.00000000000E+00 0. -1.
          2   -1    0    0  501    0  0.00000000000E+00 -0.00000000000E+00 -0.70092236802E+03  0.70092236802E+03  0.00000000000E+00 0.  1.
    2000013    1    1    2    0    0 -0.60985007945E+03 -0.64662011713E+03  0.10073906329E+04  0.16454089408E+04  0.95000000000E+03 0.  0.
   -2000013    1    1    2    0    0  0.60985007945E+03  0.64662011713E+03  0.72601826943E+03  0.14898446976E+04  0.95000000000E+03 0.  0.
<mgrwt>
<rscale>  0 0.26124909E+04</rscale>
<asrwt>0</asrwt>
<pdfrwt beam="2">  1        2 0.10783421E+00 0.26124909E+04</pdfrwt>
<pdfrwt beam="1">  1       -2 0.37451250E+00 0.26124909E+04</pdfrwt>
<totfact> 0.39265872E-01</totfact>
</mgrwt>
</event>
<event>
 4    1  0.1343107E-008  0.2470704E+04  0.7816531E-02  0.8413497E-01
          2   -1    0    0  501    0  0.00000000000E+00  0.00000000000E+00  0.26554649430E+04  0.26554649430E+04  0.00000000000E+00 0.  1.
         -2   -1    0    0    0  501 -0.00000000000E+00 -0.00000000000E+00 -0.57469953835E+03  0.57469953835E+03  0.00000000000E+00 0. -1.
    2000013    1    1    2    0    0 -0.27748215586E+03  0.72877375648E+03  0.12030824073E+04  0.17198880236E+04  0.95000000000E+03 0.  0.
   -2000013    1    1    2    0    0  0.27748215586E+03 -0.72877375648E+03  0.87768299736E+03  0.15102764577E+04  0.95000000000E+03 0.  0.
<mgrwt>
<rscale>  0 0.24707039E+04</rscale>
<asrwt>0</asrwt>
<pdfrwt beam="1">  1        2 0.40853306E+00 0.24707039E+04</pdfrwt>
<pdfrwt beam="2">  1       -2 0.88415315E-01 0.24707039E+04</pdfrwt>
<totfact> 0.27777828E+00</totfact>
</mgrwt>
</event>
<event>
 4    1  0.1343107E-008  0.2703955E+04  0.7816531E-02  0.8333723E-01
          2   -1    0    0  501    0  0.00000000000E+00  0.00000000000E+00  0.18470385725E+04  0.18470385725E+04  0.00000000000E+00 0.  1.
         -2   -1    0    0    0  501 -0.00000000000E+00 -0.00000000000E+00 -0.98960754281E+03  0.98960754281E+03  0.00000000000E+00 0. -1.
    2000013    1    1    2    0    0  0.23711537860E+03  0.89645109296E+03  0.69719424351E+03  0.14994759345E+04  0.95000000000E+03 0.  0.
   -2000013    1    1    2    0    0 -0.23711537860E+03 -0.89645109296E+03  0.16023678616E+03  0.13371701808E+04  0.95000000000E+03 0.  0.
<mgrwt>
<rscale>  0 0.27039551E+04</rscale>
<asrwt>0</asrwt>
<pdfrwt beam="1">  1        2 0.28415978E+00 0.27039551E+04</pdfrwt>
<pdfrwt beam="2">  1       -2 0.15224731E+00 0.27039551E+04</pdfrwt>
<totfact> 0.20525322E+00</totfact>
</mgrwt>
</event>
<event>
 4    1  0.1343107E-008  0.2066654E+04  0.7816531E-02  0.8576077E-01
          2   -1    0    0  501    0  0.00000000000E+00  0.00000000000E+00  0.27259251789E+04  0.27259251789E+04  0.00000000000E+00 0.  1.
         -2   -1    0    0    0  501 -0.00000000000E+00 -0.00000000000E+00 -0.39170710002E+03  0.39170710002E+03  0.00000000000E+00 0. -1.
    2000013    1    1    2    0    0 -0.28697770955E+03  0.22499012164E+02  0.16001466811E+04  0.18830379211E+04  0.95000000000E+03 0.  0.
   -2000013    1    1    2    0    0  0.28697770955E+03 -0.22499012164E+02  0.73407139784E+03  0.12345943579E+04  0.95000000000E+03 0.  0.
<mgrwt>
<rscale>  0 0.20666536E+04</rscale>
<asrwt>0</asrwt>
<pdfrwt beam="1">  1        2 0.41937309E+00 0.20666536E+04</pdfrwt>
<pdfrwt beam="2">  1       -2 0.60262633E-01 0.20666536E+04</pdfrwt>
<totfact> 0.60820251E+00</totfact>
</mgrwt>
</event>
<event>
 4    1  0.1343107E-008  0.2869519E+04  0.7816531E-02  0.8282005E-01
         -1   -1    0    0    0  501 -0.00000000000E+00  0.00000000000E+00  0.13859315368E+04  0.13859315368E+04  0.00000000000E+00 0.  1.
          1   -1    0    0  501    0  0.00000000000E+00 -0.00000000000E+00 -0.14853081785E+04  0.14853081785E+04  0.00000000000E+00 0. -1.
    2000013    1    1    2    0    0  0.20500354907E+03 -0.10531538312E+04 -0.11955853835E+03  0.14380381397E+04  0.95000000000E+03 0.  0.
   -2000013    1    1    2    0    0 -0.20500354907E+03  0.10531538312E+04  0.20181896720E+02  0.14332015756E+04  0.95000000000E+03 0.  0.
<mgrwt>
<rscale>  0 0.28695194E+04</rscale>
<asrwt>0</asrwt>
<pdfrwt beam="2">  1        1 0.22850895E+00 0.28695194E+04</pdfrwt>
<pdfrwt beam="1">  1       -1 0.21322024E+00 0.28695194E+04</pdfrwt>
<totfact> 0.70464806E-01</totfact>
</mgrwt>
</event>
<event>
 4    1  0.1343107E-008  0.2292587E+04  0.7816531E-02  0.8480850E-01
         -2   -1    0    0    0  501 -0.00000000000E+00  0.00000000000E+00  0.22884993932E+04  0.22884993932E+04  0.00000000000E+00 0. -1.
          2   -1    0    0  501    0  0.00000000000E+00 -0.00000000000E+00 -0.57417029673E+03  0.57417029673E+03  0.00000000000E+00 0.  1.
    2000013    1    1    2    0    0 -0.51769706382E+03 -0.36924473272E+03  0.96264857259E+03  0.14945046660E+04  0.95000000000E+03 0.  0.
   -2000013    1    1    2    0    0  0.51769706382E+03  0.36924473272E+03  0.75168052385E+03  0.13681650238E+04  0.95000000000E+03 0.  0.
<mgrwt>
<rscale>  0 0.22925866E+04</rscale>
<asrwt>0</asrwt>
<pdfrwt beam="2">  1        2 0.88333893E-01 0.22925866E+04</pdfrwt>
<pdfrwt beam="1">  1       -2 0.35207682E+00 0.22925866E+04</pdfrwt>
<totfact> 0.71696640E-01</totfact>
</mgrwt>
</event>
<event>
 4    1  0.1343107E-008  0.2240529E+04  0.7816531E-02  0.8501746E-01
          2   -1    0    0  501    0  0.00000000000E+00  0.00000000000E+00  0.12052974481E+04  0.12052974481E+04  0.00000000000E+00 0.  1.
         -2   -1    0    0    0  501 -0.00000000000E+00 -0.00000000000E+00 -0.10412307831E+04  0.10412307831E+04  0.00000000000E+00 0. -1.
    2000013    1    1    2    0    0 -0.19587395103E+01 -0.49788259340E+03 -0.24225478631E+03  0.10995809633E+04  0.95000000000E+03 0.  0.
   -2000013    1    1    2    0    0  0.19587395103E+01  0.49788259340E+03  0.40632145132E+03  0.11469472679E+04  0.95000000000E+03 0.  0.
<mgrwt>
<rscale>  0 0.22405292E+04</rscale>
<asrwt>0</asrwt>
<pdfrwt beam="1">  1        2 0.18543038E+00 0.22405292E+04</pdfrwt>
<pdfrwt beam="2">  1       -2 0.16018935E+00 0.22405292E+04</pdfrwt>
<totfact> 0.43012614E+00</totfact>
</mgrwt>
</event>
<event>
 4    1  0.1343107E-008  0.2659572E+04  0.7816531E-02  0.8348243E-01
          2   -1    0    0  501    0  0.00000000000E+00  0.00000000000E+00  0.25709513583E+04  0.25709513583E+04  0.00000000000E+00 0.  1.
         -2   -1    0    0    0  501 -0.00000000000E+00 -0.00000000000E+00 -0.68781185796E+03  0.68781185796E+03  0.00000000000E+00 0. -1.
    2000013    1    1    2    0    0 -0.38332905200E+03 -0.32710372070E+03  0.19000402059E+04  0.21832523423E+04  0.95000000000E+03 0.  0.
   -2000013    1    1    2    0    0  0.38332905200E+03  0.32710372070E+03 -0.16900705517E+02  0.10755108740E+04  0.95000000000E+03 0.  0.
<mgrwt>
<rscale>  0 0.26595720E+04</rscale>
<asrwt>0</asrwt>
<pdfrwt beam="1">  1        2 0.39553097E+00 0.26595720E+04</pdfrwt>
<pdfrwt beam="2">  1       -2 0.10581721E+00 0.26595720E+04</pdfrwt>
<totfact> 0.20095187E+00</totfact>
</mgrwt>
</event>
<event>
 4    1  0.1343107E-008  0.2080080E+04  0.7816531E-02  0.8570069E-01
          2   -1    0    0  501    0  0.00000000000E+00  0.00000000000E+00  0.11047606992E+04  0.11047606992E+04  0.00000000000E+00 0.  1.
         -2   -1    0    0    0  501 -0.00000000000E+00 -0.00000000000E+00 -0.97911086914E+03  0.97911086914E+03  0.00000000000E+00 0. -1.
    2000013    1    1    2    0    0 -0.33436647804E+03  0.22664940096E+03 -0.63945520757E+02  0.10342919908E+04  0.95000000000E+03 0.  0.
   -2000013    1    1    2    0    0  0.33436647804E+03 -0.22664940096E+03  0.18959535084E+03  0.10495795776E+04  0.95000000000E+03 0.  0.
<mgrwt>
<rscale>  0 0.20800800E+04</rscale>
<asrwt>0</asrwt>
<pdfrwt beam="1">  1        2 0.16996318E+00 0.20800800E+04</pdfrwt>
<pdfrwt beam="2">  1       -2 0.15063244E+00 0.20800800E+04</pdfrwt>
<totfact> 0.59180816E+00</totfact>
</mgrwt>
</event>
<event>
 4    1  0.1343107E-008  0.3262102E+04  0.7816531E-02  0.8172606E-01
          2   -1    0    0  501    0  0.00000000000E+00  0.00000000000E+00  0.24997552265E+04  0.24997552265E+04  0.00000000000E+00 0.  1.
         -2   -1    0    0    0  501 -0.00000000000E+00 -0.00000000000E+00 -0.10642354221E+04  0.10642354221E+04  0.00000000000E+00 0. -1.
    2000013    1    1    2    0    0  0.11099068639E+04 -0.72406279462E+03  0.76237907911E+03  0.17999672323E+04  0.95000000000E+03 0.  0.
   -2000013    1    1    2    0    0 -0.11099068639E+04  0.72406279462E+03  0.67314072524E+03  0.17640234163E+04  0.95000000000E+03 0.  0.
<mgrwt>
<rscale>  0 0.32621024E+04</rscale>
<asrwt>0</asrwt>
<pdfrwt beam="1">  1        2 0.38457772E+00 0.32621024E+04</pdfrwt>
<pdfrwt beam="2">  1       -2 0.16372853E+00 0.32621024E+04</pdfrwt>
<totfact> 0.68983858E-01</totfact>
</mgrwt>
</event>
<event>
 4    1  0.1343107E-008  0.4002260E+04  0.7816531E-02  0.8004091E-01
         -2   -1    0    0    0  501 -0.00000000000E+00  0.00000000000E+00  0.14544218336E+04  0.14544218336E+04  0.00000000000E+00 0. -1.
          2   -1    0    0  501    0  0.00000000000E+00 -0.00000000000E+00 -0.27533417411E+04  0.27533417411E+04  0.00000000000E+00 0.  1.
    2000013    1    1    2    0    0  0.10829659177E+04 -0.13416522897E+04 -0.27159715426E+03  0.19872370416E+04  0.95000000000E+03 0.  0.
   -2000013    1    1    2    0    0 -0.10829659177E+04  0.13416522897E+04 -0.10273227532E+04  0.22205265332E+04  0.95000000000E+03 0.  0.
<mgrwt>
<rscale>  0 0.40022595E+04</rscale>
<asrwt>0</asrwt>
<pdfrwt beam="2">  1        2 0.42359103E+00 0.40022595E+04</pdfrwt>
<pdfrwt beam="1">  1       -2 0.22375721E+00 0.40022595E+04</pdfrwt>
<totfact> 0.18205967E-01</totfact>
</mgrwt>
</event>
<event>
 4    1  0.1343107E-008  0.2148173E+04  0.7816531E-02  0.8540315E-01
          2   -1    0    0  501    0  0.00000000000E+00  0.00000000000E+00  0.20882783026E+04  0.20882783026E+04  0.00000000000E+00 0.  1.
         -2   -1    0    0    0  501 -0.00000000000E+00 -0.00000000000E+00 -0.55244618161E+03  0.55244618161E+03  0.00000000000E+00 0. -1.
    2000013    1    1    2    0    0  0.32402329093E+03 -0.92926132154E+02  0.12238065794E+04  0.15855058823E+04  0.95000000000E+03 0.  0.
   -2000013    1    1    2    0    0 -0.32402329093E+03  0.92926132154E+02  0.31202554153E+03  0.10552186018E+04  0.95000000000E+03 0.  0.
<mgrwt>
<rscale>  0 0.21481726E+04</rscale>
<asrwt>0</asrwt>
<pdfrwt beam="1">  1        2 0.32127358E+00 0.21481726E+04</pdfrwt>
<pdfrwt beam="2">  1       -2 0.84991721E-01 0.21481726E+04</pdfrwt>
<totfact> 0.65984247E+00</totfact>
</mgrwt>
</event>
<event>
 4    1  0.1343107E-008  0.2147767E+04  0.7816531E-02  0.8540489E-01
          2   -1    0    0  501    0  0.00000000000E+00  0.00000000000E+00  0.17884662624E+04  0.17884662624E+04  0.00000000000E+00 0.  1.
         -2   -1    0    0    0  501 -0.00000000000E+00 -0.00000000000E+00 -0.64481250528E+03  0.64481250528E+03  0.00000000000E+00 0. -1.
    2000013    1    1    2    0    0  0.41510038208E+03 -0.27766321011E+03  0.61299195044E+03  0.12359871831E+04  0.95000000000E+03 0.  0.
   -2000013    1    1    2    0    0 -0.41510038208E+03  0.27766321011E+03  0.53066180666E+03  0.11972915846E+04  0.95000000000E+03 0.  0.
<mgrwt>
<rscale>  0 0.21477667E+04</rscale>
<asrwt>0</asrwt>
<pdfrwt beam="1">  1        2 0.27514865E+00 0.21477667E+04</pdfrwt>
<pdfrwt beam="2">  1       -2 0.99201925E-01 0.21477667E+04</pdfrwt>
<totfact> 0.67671452E+00</totfact>
</mgrwt>
</event>
<event>
 4    1  0.1343107E-008  0.2629447E+04  0.7816531E-02  0.8358267E-01
         -2   -1    0    0    0  501 -0.00000000000E+00  0.00000000000E+00  0.73718139842E+03  0.73718139842E+03  0.00000000000E+00 0. -1.
          2   -1    0    0  501    0  0.00000000000E+00 -0.00000000000E+00 -0.23447392781E+04  0.23447392781E+04  0.00000000000E+00 0.  1.
    2000013    1    1    2    0    0  0.55802533322E+03  0.26922508638E+03 -0.24435426353E+02  0.11344476672E+04  0.95000000000E+03 0.  0.
   -2000013    1    1    2    0    0 -0.55802533322E+03 -0.26922508638E+03 -0.15831224533E+04  0.19474730093E+04  0.95000000000E+03 0.  0.
<mgrwt>
<rscale>  0 0.26294472E+04</rscale>
<asrwt>0</asrwt>
<pdfrwt beam="2">  1        2 0.36072912E+00 0.26294472E+04</pdfrwt>
<pdfrwt beam="1">  1       -2 0.11341252E+00 0.26294472E+04</pdfrwt>
<totfact> 0.23009877E+00</totfact>
</mgrwt>
</event>
<event>
 4    1  0.1343107E-008  0.2202349E+04  0.7816531E-02  0.8517451E-01
         -4   -1    0    0    0  501 -0.00000000000E+00  0.00000000000E+00  0.12949986107E+04  0.12949986107E+04  0.00000000000E+00 0. -1.
          4   -1    0    0  501    0  0.00000000000E+00 -0.00000000000E+00 -0.93636038830E+03  0.93636038830E+03  0.00000000000E+00 0.  1.
    2000013    1    1    2    0    0  0.25192394969E+03  0.45890246238E+03 -0.12992232659E+02  0.10847699961E+04  0.95000000000E+03 0.  0.
   -2000013    1    1    2    0    0 -0.25192394969E+03 -0.45890246238E+03  0.37163045509E+03  0.11465890029E+04  0.95000000000E+03 0.  0.
<mgrwt>
<rscale>  0 0.22023491E+04</rscale>
<asrwt>0</asrwt>
<pdfrwt beam="2">  1        4 0.14405544E+00 0.22023491E+04</pdfrwt>
<pdfrwt beam="1">  1       -4 0.19923055E+00 0.22023491E+04</pdfrwt>
<totfact> 0.80629534E-02</totfact>
</mgrwt>
</event>
<event>
 4    1  0.1343107E-008  0.2997688E+04  0.7816531E-02  0.8244391E-01
          1   -1    0    0  501    0  0.00000000000E+00  0.00000000000E+00  0.19844952537E+04  0.19844952537E+04  0.00000000000E+00 0.  1.
         -1   -1    0    0    0  501 -0.00000000000E+00 -0.00000000000E+00 -0.11320426984E+04  0.11320426984E+04  0.00000000000E+00 0. -1.
    2000013    1    1    2    0    0  0.96834703254E+03 -0.51123684595E+03  0.30375539475E+02  0.14499937108E+04  0.95000000000E+03 0.  0.
   -2000013    1    1    2    0    0 -0.96834703254E+03  0.51123684595E+03  0.82207701586E+03  0.16665442413E+04  0.95000000000E+03 0.  0.
<mgrwt>
<rscale>  0 0.29976880E+04</rscale>
<asrwt>0</asrwt>
<pdfrwt beam="1">  1        1 0.30530696E+00 0.29976880E+04</pdfrwt>
<pdfrwt beam="2">  1       -1 0.17416042E+00 0.29976880E+04</pdfrwt>
<totfact> 0.59616925E-01</totfact>
</mgrwt>
</event>
<event>
 4    1  0.1343107E-008  0.3382051E+04  0.7816531E-02  0.8142326E-01
          2   -1    0    0  501    0  0.00000000000E+00  0.00000000000E+00  0.11282465388E+04  0.11282465388E+04  0.00000000000E+00 0.  1.
         -2   -1    0    0    0  501 -0.00000000000E+00 -0.00000000000E+00 -0.25345229162E+04  0.25345229162E+04  0.00000000000E+00 0. -1.
    2000013    1    1    2    0    0  0.92909327741E+03 -0.52652120168E+03  0.27554371001E+03  0.14556315571E+04  0.95000000000E+03 0.  0.
   -2000013    1    1    2    0    0 -0.92909327741E+03  0.52652120168E+03 -0.16818200874E+04  0.22071378979E+04  0.95000000000E+03 0.  0.
<mgrwt>
<rscale>  0 0.33820507E+04</rscale>
<asrwt>0</asrwt>
<pdfrwt beam="1">  1        2 0.17357639E+00 0.33820507E+04</pdfrwt>
<pdfrwt beam="2">  1       -2 0.38992660E+00 0.33820507E+04</pdfrwt>
<totfact> 0.14982761E-01</totfact>
</mgrwt>
</event>
<event>
 4    1  0.1343107E-008  0.2417134E+04  0.7816531E-02  0.8433117E-01
          1   -1    0    0  501    0  0.00000000000E+00  0.00000000000E+00  0.11410168417E+04  0.11410168417E+04  0.00000000000E+00 0.  1.
         -1   -1    0    0    0  501 -0.00000000000E+00 -0.00000000000E+00 -0.12801157825E+04  0.12801157825E+04  0.00000000000E+00 0. -1.
    2000013    1    1    2    0    0 -0.73652649863E+03  0.20189431306E+01  0.55790718746E+02  0.12033652661E+04  0.95000000000E+03 0.  0.
   -2000013    1    1    2    0    0  0.73652649863E+03 -0.20189431306E+01 -0.19488965955E+03  0.12177673582E+04  0.95000000000E+03 0.  0.
<mgrwt>
<rscale>  0 0.24171336E+04</rscale>
<asrwt>0</asrwt>
<pdfrwt beam="1">  1        1 0.17554105E+00 0.24171336E+04</pdfrwt>
<pdfrwt beam="2">  1       -1 0.19694089E+00 0.24171336E+04</pdfrwt>
<totfact> 0.16703486E+00</totfact>
</mgrwt>
</event>
<event>
 4    1  0.1343107E-008  0.2648332E+04  0.7816531E-02  0.8351967E-01
         -2   -1    0    0    0  501 -0.00000000000E+00  0.00000000000E+00  0.18873340245E+04  0.18873340245E+04  0.00000000000E+00 0. -1.
          2   -1    0    0  501    0  0.00000000000E+00 -0.00000000000E+00 -0.92904338473E+03  0.92904338473E+03  0.00000000000E+00 0.  1.
    2000013    1    1    2    0    0  0.50545563085E+03  0.76603887694E+03  0.38044312317E+03  0.13746046434E+04  0.95000000000E+03 0.  0.
   -2000013    1    1    2    0    0 -0.50545563085E+03 -0.76603887694E+03  0.57784751658E+03  0.14417727658E+04  0.95000000000E+03 0.  0.
<mgrwt>
<rscale>  0 0.26483317E+04</rscale>
<asrwt>0</asrwt>
<pdfrwt beam="2">  1        2 0.14292975E+00 0.26483317E+04</pdfrwt>
<pdfrwt beam="1">  1       -2 0.29035908E+00 0.26483317E+04</pdfrwt>
<totfact> 0.89915368E-01</totfact>
</mgrwt>
</event>
<event>
 4    1  0.1343107E-008  0.2162282E+04  0.7816531E-02  0.8534293E-01
         -2   -1    0    0    0  501 -0.00000000000E+00  0.00000000000E+00  0.58892788153E+03  0.58892788153E+03  0.00000000000E+00 0. -1.
          2   -1    0    0  501    0  0.00000000000E+00 -0.00000000000E+00 -0.19847350943E+04  0.19847350943E+04  0.00000000000E+00 0.  1.
    2000013    1    1    2    0    0  0.46897094995E+03  0.14836506148E+03 -0.88390286305E+03  0.13877068187E+04  0.95000000000E+03 0.  0.
   -2000013    1    1    2    0    0 -0.46897094995E+03 -0.14836506148E+03 -0.51190434971E+03  0.11859561571E+04  0.95000000000E+03 0.  0.
<mgrwt>
<rscale>  0 0.21622820E+04</rscale>
<asrwt>0</asrwt>
<pdfrwt beam="2">  1        2 0.30534386E+00 0.21622820E+04</pdfrwt>
<pdfrwt beam="1">  1       -2 0.90604289E-01 0.21622820E+04</pdfrwt>
<totfact> 0.64998213E+00</totfact>
</mgrwt>
</event>
<event>
 4    1  0.1343107E-008  0.2426146E+04  0.7816531E-02  0.8429779E-01
          2   -1    0    0  501    0  0.00000000000E+00  0.00000000000E+00  0.21744558059E+04  0.21744558059E+04  0.00000000000E+00 0.  1.
         -2   -1    0    0    0  501 -0.00000000000E+00 -0.00000000000E+00 -0.67674212918E+03  0.67674212918E+03  0.00000000000E+00 0. -1.
    2000013    1    1    2    0    0  0.64673094042E+03 -0.37705768350E+03  0.63979477082E+03  0.13683094514E+04  0.95000000000E+03 0.  0.
   -2000013    1    1    2    0    0 -0.64673094042E+03  0.37705768350E+03  0.85791890592E+03  0.14828884837E+04  0.95000000000E+03 0.  0.
<mgrwt>
<rscale>  0 0.24261458E+04</rscale>
<asrwt>0</asrwt>
<pdfrwt beam="1">  1        2 0.33453166E+00 0.24261458E+04</pdfrwt>
<pdfrwt beam="2">  1       -2 0.10411418E+00 0.24261458E+04</pdfrwt>
<totfact> 0.35925048E+00</totfact>
</mgrwt>
</event>
<event>
 4    1  0.1343107E-008  0.3023371E+04  0.7816531E-02  0.8237089E-01
          2   -1    0    0  501    0  0.00000000000E+00  0.00000000000E+00  0.22466976238E+04  0.22466976238E+04  0.00000000000E+00 0.  1.
         -2   -1    0    0    0  501 -0.00000000000E+00 -0.00000000000E+00 -0.10171341226E+04  0.10171341226E+04  0.00000000000E+00 0. -1.
    2000013    1    1    2    0    0  0.72320518710E+03 -0.73989294506E+02 -0.38295107027E+03  0.12560460503E+04  0.95000000000E+03 0.  0.
   -2000013    1    1    2    0    0 -0.72320518710E+03  0.73989294506E+02  0.16125145714E+04  0.20077856961E+04  0.95000000000E+03 0.  0.
<mgrwt>
<rscale>  0 0.30233708E+04</rscale>
<asrwt>0</asrwt>
<pdfrwt beam="1">  1        2 0.34564579E+00 0.30233708E+04</pdfrwt>
<pdfrwt beam="2">  1       -2 0.15648217E+00 0.30233708E+04</pdfrwt>
<totfact> 0.11109445E+00</totfact>
</mgrwt>
</event>
<event>
 4    1  0.1343107E-008  0.2505877E+04  0.7816531E-02  0.8400895E-01
          2   -1    0    0  501    0  0.00000000000E+00  0.00000000000E+00  0.99639851943E+03  0.99639851943E+03  0.00000000000E+00 0.  1.
         -2   -1    0    0    0  501 -0.00000000000E+00 -0.00000000000E+00 -0.15755296919E+04  0.15755296919E+04  0.00000000000E+00 0. -1.
    2000013    1    1    2    0    0  0.25457677955E+03 -0.17538680798E+03 -0.10656618885E+04  0.14607207569E+04  0.95000000000E+03 0.  0.
   -2000013    1    1    2    0    0 -0.25457677955E+03  0.17538680798E+03  0.48653071603E+03  0.11112074544E+04  0.95000000000E+03 0.  0.
<mgrwt>
<rscale>  0 0.25058775E+04</rscale>
<asrwt>0</asrwt>
<pdfrwt beam="1">  1        2 0.15329208E+00 0.25058775E+04</pdfrwt>
<pdfrwt beam="2">  1       -2 0.24238918E+00 0.25058775E+04</pdfrwt>
<totfact> 0.16160219E+00</totfact>
</mgrwt>
</event>
<event>
 4    1  0.1343107E-008  0.2354890E+04  0.7816531E-02  0.8456588E-01
          2   -1    0    0  501    0  0.00000000000E+00  0.00000000000E+00  0.26698879845E+04  0.26698879845E+04  0.00000000000E+00 0.  1.
         -2   -1    0    0    0  501 -0.00000000000E+00 -0.00000000000E+00 -0.51926415164E+03  0.51926415164E+03  0.00000000000E+00 0. -1.
    2000013    1    1    2    0    0 -0.64519139094E+03  0.22971911653E+03  0.91036723726E+03  0.14833446363E+04  0.95000000000E+03 0.  0.
   -2000013    1    1    2    0    0  0.64519139094E+03 -0.22971911653E+03  0.12402565956E+04  0.17058074998E+04  0.95000000000E+03 0.  0.
<mgrwt>
<rscale>  0 0.23548903E+04</rscale>
<asrwt>0</asrwt>
<pdfrwt beam="1">  1        2 0.41075199E+00 0.23548903E+04</pdfrwt>
<pdfrwt beam="2">  1       -2 0.79886794E-01 0.23548903E+04</pdfrwt>
<totfact> 0.34637741E+00</totfact>
</mgrwt>
</event>
<event>
 4    1  0.1343107E-008  0.2546112E+04  0.7816531E-02  0.8386740E-01
         -2   -1    0    0    0  501 -0.00000000000E+00  0.00000000000E+00  0.12492789657E+04  0.12492789657E+04  0.00000000000E+00 0. -1.
          2   -1    0    0  501    0  0.00000000000E+00 -0.00000000000E+00 -0.12972854206E+04  0.12972854206E+04  0.00000000000E+00 0.  1.
    2000013    1    1    2    0    0  0.60183985065E+03 -0.37105186067E+03 -0.49129146707E+03  0.12820912584E+04  0.95000000000E+03 0.  0.
   -2000013    1    1    2    0    0 -0.60183985065E+03  0.37105186067E+03  0.44328501220E+03  0.12644731279E+04  0.95000000000E+03 0.  0.
<mgrwt>
<rscale>  0 0.25461119E+04</rscale>
<asrwt>0</asrwt>
<pdfrwt beam="2">  1        2 0.19958237E+00 0.25461119E+04</pdfrwt>
<pdfrwt beam="1">  1       -2 0.19219676E+00 0.25461119E+04</pdfrwt>
<totfact> 0.22089617E+00</totfact>
</mgrwt>
</event>
<event>
 4    1  0.1343107E-008  0.3096284E+04  0.7816531E-02  0.8216758E-01
         -1   -1    0    0    0  501 -0.00000000000E+00  0.00000000000E+00  0.15148897448E+04  0.15148897448E+04  0.00000000000E+00 0. -1.
          1   -1    0    0  501    0  0.00000000000E+00 -0.00000000000E+00 -0.15821243567E+04  0.15821243567E+04  0.00000000000E+00 0.  1.
    2000013    1    1    2    0    0 -0.56094108184E+03  0.53520240264E+03  0.91167026650E+03  0.15279853350E+04  0.95000000000E+03 0.  0.
   -2000013    1    1    2    0    0  0.56094108184E+03 -0.53520240264E+03 -0.97890487847E+03  0.15690287665E+04  0.95000000000E+03 0.  0.
<mgrwt>
<rscale>  0 0.30962842E+04</rscale>
<asrwt>0</asrwt>
<pdfrwt beam="2">  1        1 0.24340375E+00 0.30962842E+04</pdfrwt>
<pdfrwt beam="1">  1       -1 0.23305996E+00 0.30962842E+04</pdfrwt>
<totfact> 0.43651622E-01</totfact>
</mgrwt>
</event>
<event>
 4    1  0.1343107E-008  0.3069080E+04  0.7816531E-02  0.8224275E-01
          2   -1    0    0  501    0  0.00000000000E+00  0.00000000000E+00  0.12777163628E+04  0.12777163628E+04  0.00000000000E+00 0.  1.
         -2   -1    0    0    0  501 -0.00000000000E+00 -0.00000000000E+00 -0.18429856889E+04  0.18429856889E+04  0.00000000000E+00 0. -1.
    2000013    1    1    2    0    0 -0.20330776967E+03  0.11411317521E+04 -0.61802693591E+03  0.16211024083E+04  0.95000000000E+03 0.  0.
   -2000013    1    1    2    0    0  0.20330776967E+03 -0.11411317521E+04  0.52757609815E+02  0.14995996433E+04  0.95000000000E+03 0.  0.
<mgrwt>
<rscale>  0 0.30690800E+04</rscale>
<asrwt>0</asrwt>
<pdfrwt beam="1">  1        2 0.19657175E+00 0.30690800E+04</pdfrwt>
<pdfrwt beam="2">  1       -2 0.28353626E+00 0.30690800E+04</pdfrwt>
<totfact> 0.58102243E-01</totfact>
</mgrwt>
</event>
<event>
 4    1  0.1343107E-008  0.2402221E+04  0.7816531E-02  0.8438673E-01
         -2   -1    0    0    0  501 -0.00000000000E+00  0.00000000000E+00  0.89736583092E+03  0.89736583092E+03  0.00000000000E+00 0. -1.
          2   -1    0    0  501    0  0.00000000000E+00 -0.00000000000E+00 -0.16076681057E+04  0.16076681057E+04  0.00000000000E+00 0.  1.
    2000013    1    1    2    0    0  0.62982521870E+03  0.16527026530E+03  0.27720775550E+00  0.11517352749E+04  0.95000000000E+03 0.  0.
   -2000013    1    1    2    0    0 -0.62982521870E+03 -0.16527026530E+03 -0.71057948254E+03  0.13532986617E+04  0.95000000000E+03 0.  0.
<mgrwt>
<rscale>  0 0.24022210E+04</rscale>
<asrwt>0</asrwt>
<pdfrwt beam="2">  1        2 0.24733355E+00 0.24022210E+04</pdfrwt>
<pdfrwt beam="1">  1       -2 0.13805628E+00 0.24022210E+04</pdfrwt>
<totfact> 0.36980325E+00</totfact>
</mgrwt>
</event>
<event>
 4    1  0.1343107E-008  0.2752991E+04  0.7816531E-02  0.8318013E-01
         -1   -1    0    0    0  501 -0.00000000000E+00  0.00000000000E+00  0.99908715540E+03  0.99908715540E+03  0.00000000000E+00 0. -1.
          1   -1    0    0  501    0  0.00000000000E+00 -0.00000000000E+00 -0.18964710837E+04  0.18964710837E+04  0.00000000000E+00 0.  1.
    2000013    1    1    2    0    0 -0.70489239324E+03 -0.36743149988E+03 -0.10800798188E+04  0.16434572121E+04  0.95000000000E+03 0.  0.
   -2000013    1    1    2    0    0  0.70489239324E+03  0.36743149988E+03  0.18269589056E+03  0.12521010269E+04  0.95000000000E+03 0.  0.
<mgrwt>
<rscale>  0 0.27529910E+04</rscale>
<asrwt>0</asrwt>
<pdfrwt beam="2">  1        1 0.29176478E+00 0.27529910E+04</pdfrwt>
<pdfrwt beam="1">  1       -1 0.15370572E+00 0.27529910E+04</pdfrwt>
<totfact> 0.99429376E-01</totfact>
</mgrwt>
</event>
<event>
 4    1  0.1343107E-008  0.2431051E+04  0.7816531E-02  0.8427969E-01
          2   -1    0    0  501    0  0.00000000000E+00  0.00000000000E+00  0.13849990573E+04  0.13849990573E+04  0.00000000000E+00 0.  1.
         -2   -1    0    0    0  501 -0.00000000000E+00 -0.00000000000E+00 -0.10667892511E+04  0.10667892511E+04  0.00000000000E+00 0. -1.
    2000013    1    1    2    0    0  0.36064553852E+03 -0.61846070201E+03  0.41112299160E+03  0.12586027803E+04  0.95000000000E+03 0.  0.
   -2000013    1    1    2    0    0 -0.36064553852E+03  0.61846070201E+03 -0.92913185340E+02  0.11931855281E+04  0.95000000000E+03 0.  0.
<mgrwt>
<rscale>  0 0.24310509E+04</rscale>
<asrwt>0</asrwt>
<pdfrwt beam="1">  1        2 0.21307678E+00 0.24310509E+04</pdfrwt>
<pdfrwt beam="2">  1       -2 0.16412142E+00 0.24310509E+04</pdfrwt>
<totfact> 0.31109040E+00</totfact>
</mgrwt>
</event>
<event>
 4    1  0.1343107E-008  0.2536879E+04  0.7816531E-02  0.8389964E-01
          2   -1    0    0  501    0  0.00000000000E+00  0.00000000000E+00  0.20451395279E+04  0.20451395279E+04  0.00000000000E+00 0.  1.
         -2   -1    0    0    0  501 -0.00000000000E+00 -0.00000000000E+00 -0.78671372764E+03  0.78671372764E+03  0.00000000000E+00 0. -1.
    2000013    1    1    2    0    0 -0.20910984403E+03  0.79401571555E+03  0.82968114612E+03  0.15050111919E+04  0.95000000000E+03 0.  0.
   -2000013    1    1    2    0    0  0.20910984403E+03 -0.79401571555E+03  0.42874465411E+03  0.13268420636E+04  0.95000000000E+03 0.  0.
<mgrwt>
<rscale>  0 0.25368795E+04</rscale>
<asrwt>0</asrwt>
<pdfrwt beam="1">  1        2 0.31463685E+00 0.25368795E+04</pdfrwt>
<pdfrwt beam="2">  1       -2 0.12103288E+00 0.25368795E+04</pdfrwt>
<totfact> 0.29141697E+00</totfact>
</mgrwt>
</event>
<event>
 4    1  0.1343107E-008  0.3095658E+04  0.7816531E-02  0.8216930E-01
          2   -1    0    0  501    0  0.00000000000E+00  0.00000000000E+00  0.20973383604E+04  0.20973383604E+04  0.00000000000E+00 0.  1.
         -2   -1    0    0    0  501 -0.00000000000E+00 -0.00000000000E+00 -0.11422931795E+04  0.11422931795E+04  0.00000000000E+00 0. -1.
    2000013    1    1    2    0    0 -0.79507579997E+03 -0.75761619372E+02  0.14454095831E+04  0.19051493940E+04  0.95000000000E+03 0.  0.
   -2000013    1    1    2    0    0  0.79507579997E+03  0.75761619372E+02 -0.49036440226E+03  0.13344821459E+04  0.95000000000E+03 0.  0.
<mgrwt>
<rscale>  0 0.30956584E+04</rscale>
<asrwt>0</asrwt>
<pdfrwt beam="1">  1        2 0.32266744E+00 0.30956584E+04</pdfrwt>
<pdfrwt beam="2">  1       -2 0.17573741E+00 0.30956584E+04</pdfrwt>
<totfact> 0.97228144E-01</totfact>
</mgrwt>
</event>
<event>
 4    1  0.1343107E-008  0.4285404E+04  0.7816531E-02  0.7949323E-01
          2   -1    0    0  501    0  0.00000000000E+00  0.00000000000E+00  0.38749900738E+04  0.38749900738E+04  0.00000000000E+00 0.  1.
         -2   -1    0    0    0  501 -0.00000000000E+00 -0.00000000000E+00 -0.11848213071E+04  0.11848213071E+04  0.00000000000E+00 0. -1.
    2000013    1    1    2    0    0  0.12845217844E+04 -0.94710149406E+03  0.26066607321E+04  0.32006526877E+04  0.95000000000E+03 0.  0.
   -2000013    1    1    2    0    0 -0.12845217844E+04  0.94710149406E+03  0.83508034573E+02  0.18591586932E+04  0.95000000000E+03 0.  0.
<mgrwt>
<rscale>  0 0.42854035E+04</rscale>
<asrwt>0</asrwt>
<pdfrwt beam="1">  1        2 0.59615231E+00 0.42854035E+04</pdfrwt>
<pdfrwt beam="2">  1       -2 0.18228020E+00 0.42854035E+04</pdfrwt>
<totfact> 0.57779590E-02</totfact>
</mgrwt>
</event>
<event>
 4    1  0.1343107E-008  0.2328451E+04  0.7816531E-02  0.8466787E-01
         -2   -1    0    0    0  501 -0.00000000000E+00  0.00000000000E+00  0.11014052169E+04  0.11014052169E+04  0.00000000000E+00 0. -1.
          2   -1    0    0  501    0  0.00000000000E+00 -0.00000000000E+00 -0.12306284965E+04  0.12306284965E+04  0.00000000000E+00 0.  1.
    2000013    1    1    2    0    0 -0.63948404278E+03  0.14963303513E+03 -0.21177569416E+03  0.11741715508E+04  0.95000000000E+03 0.  0.
   -2000013    1    1    2    0    0  0.63948404278E+03 -0.14963303513E+03  0.82552414546E+02  0.11578621625E+04  0.95000000000E+03 0.  0.
<mgrwt>
<rscale>  0 0.23284507E+04</rscale>
<asrwt>0</asrwt>
<pdfrwt beam="2">  1        2 0.18932746E+00 0.23284507E+04</pdfrwt>
<pdfrwt beam="1">  1       -2 0.16944696E+00 0.23284507E+04</pdfrwt>
<totfact> 0.35332155E+00</totfact>
</mgrwt>
</event>
<event>
 4    1  0.1343107E-008  0.2446582E+04  0.7816531E-02  0.8422267E-01
         -2   -1    0    0    0  501 -0.00000000000E+00  0.00000000000E+00  0.15106667360E+04  0.15106667360E+04  0.00000000000E+00 0. -1.
          2   -1    0    0  501    0  0.00000000000E+00 -0.00000000000E+00 -0.99058328063E+03  0.99058328063E+03  0.00000000000E+00 0.  1.
    2000013    1    1    2    0    0  0.53357084586E+03  0.45466656987E+03 -0.67302828803E+02  0.11825604458E+04  0.95000000000E+03 0.  0.
   -2000013    1    1    2    0    0 -0.53357084586E+03 -0.45466656987E+03  0.58738628420E+03  0.13186895708E+04  0.95000000000E+03 0.  0.
<mgrwt>
<rscale>  0 0.24465823E+04</rscale>
<asrwt>0</asrwt>
<pdfrwt beam="2">  1        2 0.15239743E+00 0.24465823E+04</pdfrwt>
<pdfrwt beam="1">  1       -2 0.23241027E+00 0.24465823E+04</pdfrwt>
<totfact> 0.18892824E+00</totfact>
</mgrwt>
</event>
<event>
 4    1  0.1343107E-008  0.2285905E+04  0.7816531E-02  0.8483499E-01
          2   -1    0    0  501    0  0.00000000000E+00  0.00000000000E+00  0.11430856192E+04  0.11430856192E+04  0.00000000000E+00 0.  1.
         -2   -1    0    0    0  501 -0.00000000000E+00 -0.00000000000E+00 -0.11428193609E+04  0.11428193609E+04  0.00000000000E+00 0. -1.
    2000013    1    1    2    0    0 -0.31204099900E+03 -0.53150903771E+03 -0.15468591018E+03  0.11429344570E+04  0.95000000000E+03 0.  0.
   -2000013    1    1    2    0    0  0.31204099900E+03  0.53150903771E+03  0.15495216851E+03  0.11429705231E+04  0.95000000000E+03 0.  0.
<mgrwt>
<rscale>  0 0.22859050E+04</rscale>
<asrwt>0</asrwt>
<pdfrwt beam="1">  1        2 0.17585933E+00 0.22859050E+04</pdfrwt>
<pdfrwt beam="2">  1       -2 0.17581836E+00 0.22859050E+04</pdfrwt>
<totfact> 0.36077111E+00</totfact>
</mgrwt>
</event>
<event>
 4    1  0.1343107E-008  0.2595985E+04  0.7816531E-02  0.8369566E-01
          2   -1    0    0  501    0  0.00000000000E+00  0.00000000000E+00  0.92464234113E+03  0.92464234113E+03  0.00000000000E+00 0.  1.
         -2   -1    0    0    0  501 -0.00000000000E+00 -0.00000000000E+00 -0.18220930199E+04  0.18220930199E+04  0.00000000000E+00 0. -1.
    2000013    1    1    2    0    0 -0.45988783905E+03  0.73988943946E+03 -0.61040998725E+03  0.14261954844E+04  0.95000000000E+03 0.  0.
   -2000013    1    1    2    0    0  0.45988783905E+03 -0.73988943946E+03 -0.28704069148E+03  0.13205398766E+04  0.95000000000E+03 0.  0.
<mgrwt>
<rscale>  0 0.25959849E+04</rscale>
<asrwt>0</asrwt>
<pdfrwt beam="1">  1        2 0.14225267E+00 0.25959849E+04</pdfrwt>
<pdfrwt beam="2">  1       -2 0.28032200E+00 0.25959849E+04</pdfrwt>
<totfact> 0.10469356E+00</totfact>
</mgrwt>
</event>
<event>
 4    1  0.1343107E-008  0.2215198E+04  0.7816531E-02  0.8512129E-01
          2   -1    0    0  501    0  0.00000000000E+00  0.00000000000E+00  0.71029054185E+03  0.71029054185E+03  0.00000000000E+00 0.  1.
         -2   -1    0    0    0  501 -0.00000000000E+00 -0.00000000000E+00 -0.17271458606E+04  0.17271458606E+04  0.00000000000E+00 0. -1.
    2000013    1    1    2    0    0 -0.51200225357E+03 -0.18060127644E+03 -0.69745379844E+03  0.12975765602E+04  0.95000000000E+03 0.  0.
   -2000013    1    1    2    0    0  0.51200225357E+03  0.18060127644E+03 -0.31940152032E+03  0.11398598422E+04  0.95000000000E+03 0.  0.
<mgrwt>
<rscale>  0 0.22151978E+04</rscale>
<asrwt>0</asrwt>
<pdfrwt beam="1">  1        2 0.10927547E+00 0.22151978E+04</pdfrwt>
<pdfrwt beam="2">  1       -2 0.26571475E+00 0.22151978E+04</pdfrwt>
<totfact> 0.18901092E+00</totfact>
</mgrwt>
</event>
<event>
 4    1  0.1343107E-008  0.2117433E+04  0.7816531E-02  0.8553603E-01
          2   -1    0    0  501    0  0.00000000000E+00  0.00000000000E+00  0.94755504254E+03  0.94755504254E+03  0.00000000000E+00 0.  1.
         -2   -1    0    0    0  501 -0.00000000000E+00 -0.00000000000E+00 -0.11829188641E+04  0.11829188641E+04  0.00000000000E+00 0. -1.
    2000013    1    1    2    0    0 -0.33236171761E+03 -0.12522906971E+03 -0.42325301705E+03  0.10989948806E+04  0.95000000000E+03 0.  0.
   -2000013    1    1    2    0    0  0.33236171761E+03  0.12522906971E+03  0.18788919551E+03  0.10314790260E+04  0.95000000000E+03 0.  0.
<mgrwt>
<rscale>  0 0.21174331E+04</rscale>
<asrwt>0</asrwt>
<pdfrwt beam="1">  1        2 0.14577770E+00 0.21174331E+04</pdfrwt>
<pdfrwt beam="2">  1       -2 0.18198752E+00 0.21174331E+04</pdfrwt>
<totfact> 0.44047458E+00</totfact>
</mgrwt>
</event>
<event>
 4    1  0.1343107E-008  0.2221033E+04  0.7816531E-02  0.8509724E-01
         -1   -1    0    0    0  501 -0.00000000000E+00  0.00000000000E+00  0.23479603119E+04  0.23479603119E+04  0.00000000000E+00 0. -1.
          1   -1    0    0  501    0  0.00000000000E+00 -0.00000000000E+00 -0.52524175208E+03  0.52524175208E+03  0.00000000000E+00 0.  1.
    2000013    1    1    2    0    0 -0.13637560975E+02  0.42079449617E+03  0.14181809521E+04  0.17581214987E+04  0.95000000000E+03 0.  0.
   -2000013    1    1    2    0    0  0.13637560975E+02 -0.42079449617E+03  0.40453760766E+03  0.11150805653E+04  0.95000000000E+03 0.  0.
<mgrwt>
<rscale>  0 0.22210329E+04</rscale>
<asrwt>0</asrwt>
<pdfrwt beam="2">  1        1 0.80806425E-01 0.22210329E+04</pdfrwt>
<pdfrwt beam="1">  1       -1 0.36122466E+00 0.22210329E+04</pdfrwt>
<totfact> 0.49318558E-01</totfact>
</mgrwt>
</event>
<event>
 4    1  0.1343107E-008  0.2598805E+04  0.7816531E-02  0.8368607E-01
         -2   -1    0    0    0  501 -0.00000000000E+00  0.00000000000E+00  0.11891983098E+04  0.11891983098E+04  0.00000000000E+00 0. -1.
          2   -1    0    0  501    0  0.00000000000E+00 -0.00000000000E+00 -0.14198189452E+04  0.14198189452E+04  0.00000000000E+00 0.  1.
    2000013    1    1    2    0    0  0.78212844783E+03  0.24768938321E+02 -0.53361049457E+03  0.13414837193E+04  0.95000000000E+03 0.  0.
   -2000013    1    1    2    0    0 -0.78212844783E+03 -0.24768938321E+02  0.30298985917E+03  0.12675335356E+04  0.95000000000E+03 0.  0.
<mgrwt>
<rscale>  0 0.25988046E+04</rscale>
<asrwt>0</asrwt>
<pdfrwt beam="2">  1        2 0.21843368E+00 0.25988046E+04</pdfrwt>
<pdfrwt beam="1">  1       -2 0.18295359E+00 0.25988046E+04</pdfrwt>
<totfact> 0.21582388E+00</totfact>
</mgrwt>
</event>
<event>
 4    1  0.1343107E-008  0.2908094E+04  0.7816531E-02  0.8270473E-01
          2   -1    0    0  501    0  0.00000000000E+00  0.00000000000E+00  0.15131324124E+04  0.15131324124E+04  0.00000000000E+00 0.  1.
         -2   -1    0    0    0  501 -0.00000000000E+00 -0.00000000000E+00 -0.13972685875E+04  0.13972685875E+04  0.00000000000E+00 0. -1.
    2000013    1    1    2    0    0 -0.23295119182E+03  0.10554745856E+04 -0.15070297511E+03  0.14468946905E+04  0.95000000000E+03 0.  0.
   -2000013    1    1    2    0    0  0.23295119182E+03 -0.10554745856E+04  0.26656680003E+03  0.14635063094E+04  0.95000000000E+03 0.  0.
<mgrwt>
<rscale>  0 0.29080938E+04</rscale>
<asrwt>0</asrwt>
<pdfrwt beam="1">  1        2 0.23278960E+00 0.29080938E+04</pdfrwt>
<pdfrwt beam="2">  1       -2 0.21496440E+00 0.29080938E+04</pdfrwt>
<totfact> 0.11453358E+00</totfact>
</mgrwt>
</event>
<event>
 4    1  0.1343107E-008  0.2919396E+04  0.7816531E-02  0.8267130E-01
         -2   -1    0    0    0  501 -0.00000000000E+00  0.00000000000E+00  0.82048976978E+03  0.82048976978E+03  0.00000000000E+00 0. -1.
          2   -1    0    0  501    0  0.00000000000E+00 -0.00000000000E+00 -0.25968854989E+04  0.25968854989E+04  0.00000000000E+00 0.  1.
    2000013    1    1    2    0    0 -0.10756245580E+04  0.26583971562E+03 -0.91636575432E+03  0.17233296666E+04  0.95000000000E+03 0.  0.
   -2000013    1    1    2    0    0  0.10756245580E+04 -0.26583971562E+03 -0.86002997481E+03  0.16940456020E+04  0.95000000000E+03 0.  0.
<mgrwt>
<rscale>  0 0.29193958E+04</rscale>
<asrwt>0</asrwt>
<pdfrwt beam="2">  1        2 0.39952085E+00 0.29193958E+04</pdfrwt>
<pdfrwt beam="1">  1       -2 0.12622920E+00 0.29193958E+04</pdfrwt>
<totfact> 0.12316179E+00</totfact>
</mgrwt>
</event>
<event>
 4    1  0.1343107E-008  0.3094658E+04  0.7816531E-02  0.8217205E-01
          2   -1    0    0  501    0  0.00000000000E+00  0.00000000000E+00  0.35358472145E+04  0.35358472145E+04  0.00000000000E+00 0.  1.
         -2   -1    0    0    0  501 -0.00000000000E+00 -0.00000000000E+00 -0.67712980593E+03  0.67712980593E+03  0.00000000000E+00 0. -1.
    2000013    1    1    2    0    0  0.44833849428E+03 -0.11357615798E+04  0.13916861952E+04  0.20809258126E+04  0.95000000000E+03 0.  0.
   -2000013    1    1    2    0    0 -0.44833849428E+03  0.11357615798E+04  0.14670312134E+04  0.21320512078E+04  0.95000000000E+03 0.  0.
<mgrwt>
<rscale>  0 0.30946583E+04</rscale>
<asrwt>0</asrwt>
<pdfrwt beam="1">  1        2 0.54397648E+00 0.30946583E+04</pdfrwt>
<pdfrwt beam="2">  1       -2 0.10417382E+00 0.30946583E+04</pdfrwt>
<totfact> 0.48760144E-01</totfact>
</mgrwt>
</event>
<event>
 4    1  0.1343107E-008  0.3268209E+04  0.7816531E-02  0.8171032E-01
          1   -1    0    0  501    0  0.00000000000E+00  0.00000000000E+00  0.18161123433E+04  0.18161123433E+04  0.00000000000E+00 0.  1.
         -1   -1    0    0    0  501 -0.00000000000E+00 -0.00000000000E+00 -0.14703369689E+04  0.14703369689E+04  0.00000000000E+00 0. -1.
    2000013    1    1    2    0    0  0.76911862392E+03 -0.10673682882E+04  0.36625914312E+03  0.16635697401E+04  0.95000000000E+03 0.  0.
   -2000013    1    1    2    0    0 -0.76911862392E+03  0.10673682882E+04 -0.20483768736E+02  0.16228795720E+04  0.95000000000E+03 0.  0.
<mgrwt>
<rscale>  0 0.32682088E+04</rscale>
<asrwt>0</asrwt>
<pdfrwt beam="1">  1        1 0.27940190E+00 0.32682088E+04</pdfrwt>
<pdfrwt beam="2">  1       -1 0.22620569E+00 0.32682088E+04</pdfrwt>
<totfact> 0.33058303E-01</totfact>
</mgrwt>
</event>
<event>
 4    1  0.1343107E-008  0.3611352E+04  0.7816531E-02  0.8087896E-01
          2   -1    0    0  501    0  0.00000000000E+00  0.00000000000E+00  0.19502377332E+04  0.19502377332E+04  0.00000000000E+00 0.  1.
         -2   -1    0    0    0  501 -0.00000000000E+00 -0.00000000000E+00 -0.16718295346E+04  0.16718295346E+04  0.00000000000E+00 0. -1.
    2000013    1    1    2    0    0  0.21570824110E+03 -0.14603735568E+04  0.56323993866E+03  0.18436269143E+04  0.95000000000E+03 0.  0.
   -2000013    1    1    2    0    0 -0.21570824110E+03  0.14603735568E+04 -0.28483174000E+03  0.17784403535E+04  0.95000000000E+03 0.  0.
<mgrwt>
<rscale>  0 0.36113516E+04</rscale>
<asrwt>0</asrwt>
<pdfrwt beam="1">  1        2 0.30003657E+00 0.36113516E+04</pdfrwt>
<pdfrwt beam="2">  1       -2 0.25720455E+00 0.36113516E+04</pdfrwt>
<totfact> 0.33653623E-01</totfact>
</mgrwt>
</event>
<event>
 4    1  0.1343107E-008  0.2304707E+04  0.7816531E-02  0.8476068E-01
          2   -1    0    0  501    0  0.00000000000E+00  0.00000000000E+00  0.16765866287E+04  0.16765866287E+04  0.00000000000E+00 0.  1.
         -2   -1    0    0    0  501 -0.00000000000E+00 -0.00000000000E+00 -0.79203674098E+03  0.79203674098E+03  0.00000000000E+00 0. -1.
    2000013    1    1    2    0    0 -0.12902077665E+03  0.62213622997E+03  0.60012788941E+03  0.12908730895E+04  0.95000000000E+03 0.  0.
   -2000013    1    1    2    0    0  0.12902077665E+03 -0.62213622997E+03  0.28442199832E+03  0.11777502802E+04  0.95000000000E+03 0.  0.
<mgrwt>
<rscale>  0 0.23047067E+04</rscale>
<asrwt>0</asrwt>
<pdfrwt beam="1">  1        2 0.25793640E+00 0.23047067E+04</pdfrwt>
<pdfrwt beam="2">  1       -2 0.12185181E+00 0.23047067E+04</pdfrwt>
<totfact> 0.46816850E+00</totfact>
</mgrwt>
</event>
<event>
 4    1  0.1343107E-008  0.2130741E+04  0.7816531E-02  0.8547821E-01
          2   -1    0    0  501    0  0.00000000000E+00  0.00000000000E+00  0.33739096258E+04  0.33739096258E+04  0.00000000000E+00 0. -1.
         -2   -1    0    0    0  501 -0.00000000000E+00 -0.00000000000E+00 -0.33640928713E+03  0.33640928713E+03  0.00000000000E+00 0.  1.
    2000013    1    1    2    0    0 -0.22812907614E+03 -0.32823770315E+03  0.10491347976E+04  0.14707027874E+04  0.95000000000E+03 0.  0.
   -2000013    1    1    2    0    0  0.22812907614E+03  0.32823770315E+03  0.19883655410E+04  0.22396161256E+04  0.95000000000E+03 0.  0.
<mgrwt>
<rscale>  0 0.21307412E+04</rscale>
<asrwt>0</asrwt>
<pdfrwt beam="1">  1        2 0.51906300E+00 0.21307412E+04</pdfrwt>
<pdfrwt beam="2">  1       -2 0.51755277E-01 0.21307412E+04</pdfrwt>
<totfact> 0.32302386E+00</totfact>
</mgrwt>
</event>
<event>
 4    1  0.1343107E-008  0.2175219E+04  0.7816531E-02  0.8528814E-01
         -2   -1    0    0    0  501 -0.00000000000E+00  0.00000000000E+00  0.80407508537E+03  0.80407508537E+03  0.00000000000E+00 0. -1.
          2   -1    0    0  501    0  0.00000000000E+00 -0.00000000000E+00 -0.14711248285E+04  0.14711248285E+04  0.00000000000E+00 0.  1.
    2000013    1    1    2    0    0 -0.21553537565E+03 -0.14719542537E+03 -0.81543239579E+03  0.12788870097E+04  0.95000000000E+03 0.  0.
   -2000013    1    1    2    0    0  0.21553537565E+03  0.14719542537E+03  0.14838265268E+03  0.99631290417E+03  0.95000000000E+03 0.  0.
<mgrwt>
<rscale>  0 0.21752194E+04</rscale>
<asrwt>0</asrwt>
<pdfrwt beam="2">  1        2 0.22632689E+00 0.21752194E+04</pdfrwt>
<pdfrwt beam="1">  1       -2 0.12370386E+00 0.21752194E+04</pdfrwt>
<totfact> 0.59428797E+00</totfact>
</mgrwt>
</event>
<event>
 4    1  0.1343107E-008  0.3322051E+04  0.7816531E-02  0.8157307E-01
          2   -1    0    0  501    0  0.00000000000E+00  0.00000000000E+00  0.15377899625E+04  0.15377899625E+04  0.00000000000E+00 0.  1.
         -2   -1    0    0    0  501 -0.00000000000E+00 -0.00000000000E+00 -0.17941366872E+04  0.17941366872E+04  0.00000000000E+00 0. -1.
    2000013    1    1    2    0    0 -0.72469949749E+02 -0.11931077857E+04 -0.78414158935E+03  0.17164312145E+04  0.95000000000E+03 0.  0.
   -2000013    1    1    2    0    0  0.72469949749E+02  0.11931077857E+04  0.52779486462E+03  0.16154954352E+04  0.95000000000E+03 0.  0.
<mgrwt>
<rscale>  0 0.33220508E+04</rscale>
<asrwt>0</asrwt>
<pdfrwt beam="1">  1        2 0.23658307E+00 0.33220508E+04</pdfrwt>
<pdfrwt beam="2">  1       -2 0.27602103E+00 0.33220508E+04</pdfrwt>
<totfact> 0.44870999E-01</totfact>
</mgrwt>
</event>
<event>
 4    1  0.1343107E-008  0.3689615E+04  0.7816531E-02  0.8070267E-01
         -2   -1    0    0    0  501 -0.00000000000E+00  0.00000000000E+00  0.24663714767E+04  0.24663714767E+04  0.00000000000E+00 0. -1.
          2   -1    0    0  501    0  0.00000000000E+00 -0.00000000000E+00 -0.13798870130E+04  0.13798870130E+04  0.00000000000E+00 0.  1.
    2000013    1    1    2    0    0  0.24412628434E+03  0.13955674837E+04 -0.18915794123E+03  0.17162421073E+04  0.95000000000E+03 0.  0.
   -2000013    1    1    2    0    0 -0.24412628434E+03 -0.13955674837E+04  0.12756424049E+04  0.21300163824E+04  0.95000000000E+03 0.  0.
<mgrwt>
<rscale>  0 0.36896146E+04</rscale>
<asrwt>0</asrwt>
<pdfrwt beam="2">  1        2 0.21229031E+00 0.36896146E+04</pdfrwt>
<pdfrwt beam="1">  1       -2 0.37944176E+00 0.36896146E+04</pdfrwt>
<totfact> 0.12130827E-01</totfact>
</mgrwt>
</event>
<event>
 4    1  0.1343107E-008  0.2151703E+04  0.7816531E-02  0.8538804E-01
          2   -1    0    0  501    0  0.00000000000E+00  0.00000000000E+00  0.12522464589E+04  0.12522464589E+04  0.00000000000E+00 0.  1.
         -2   -1    0    0    0  501 -0.00000000000E+00 -0.00000000000E+00 -0.92430420499E+03  0.92430420499E+03  0.00000000000E+00 0. -1.
    2000013    1    1    2    0    0  0.35039923343E+03  0.42072610045E+02 -0.20131801840E+03  0.10332369873E+04  0.95000000000E+03 0.  0.
   -2000013    1    1    2    0    0 -0.35039923343E+03 -0.42072610045E+02  0.52926027229E+03  0.11433136766E+04  0.95000000000E+03 0.  0.
<mgrwt>
<rscale>  0 0.21517032E+04</rscale>
<asrwt>0</asrwt>
<pdfrwt beam="1">  1        2 0.19265330E+00 0.21517032E+04</pdfrwt>
<pdfrwt beam="2">  1       -2 0.14220065E+00 0.21517032E+04</pdfrwt>
<totfact> 0.55810619E+00</totfact>
</mgrwt>
</event>
<event>
 4    1  0.1343107E-008  0.2231211E+04  0.7816531E-02  0.8505548E-01
         -2   -1    0    0    0  501 -0.00000000000E+00  0.00000000000E+00  0.61448412965E+03  0.61448412965E+03  0.00000000000E+00 0. -1.
          2   -1    0    0  501    0  0.00000000000E+00 -0.00000000000E+00 -0.20253996268E+04  0.20253996268E+04  0.00000000000E+00 0.  1.
    2000013    1    1    2    0    0  0.30134412993E+03 -0.47635393898E+03 -0.89010137296E+03  0.14186267352E+04  0.95000000000E+03 0.  0.
   -2000013    1    1    2    0    0 -0.30134412993E+03  0.47635393898E+03 -0.52081412414E+03  0.12212570212E+04  0.95000000000E+03 0.  0.
<mgrwt>
<rscale>  0 0.22312113E+04</rscale>
<asrwt>0</asrwt>
<pdfrwt beam="2">  1        2 0.31159994E+00 0.22312113E+04</pdfrwt>
<pdfrwt beam="1">  1       -2 0.94536020E-01 0.22312113E+04</pdfrwt>
<totfact> 0.55579742E+00</totfact>
</mgrwt>
</event>
<event>
 4    1  0.1343107E-008  0.3203066E+04  0.7816531E-02  0.8188008E-01
         -2   -1    0    0    0  501 -0.00000000000E+00  0.00000000000E+00  0.75192907649E+03  0.75192907649E+03  0.00000000000E+00 0. -1.
          2   -1    0    0  501    0  0.00000000000E+00 -0.00000000000E+00 -0.34111036848E+04  0.34111036848E+04  0.00000000000E+00 0.  1.
    2000013    1    1    2    0    0 -0.47566755075E+03 -0.11724437077E+04 -0.16519663750E+04  0.22874389108E+04  0.95000000000E+03 0.  0.
   -2000013    1    1    2    0    0  0.47566755075E+03  0.11724437077E+04 -0.10072082333E+04  0.18755938505E+04  0.95000000000E+03 0.  0.
<mgrwt>
<rscale>  0 0.32030661E+04</rscale>
<asrwt>0</asrwt>
<pdfrwt beam="2">  1        2 0.52478518E+00 0.32030661E+04</pdfrwt>
<pdfrwt beam="1">  1       -2 0.11568140E+00 0.32030661E+04</pdfrwt>
<totfact> 0.45784109E-01</totfact>
</mgrwt>
</event>
<event>
 4    1  0.1343107E-008  0.2185541E+04  0.7816531E-02  0.8524471E-01
          2   -1    0    0  501    0  0.00000000000E+00  0.00000000000E+00  0.31647958714E+04  0.31647958714E+04  0.00000000000E+00 0.  1.
         -2   -1    0    0    0  501 -0.00000000000E+00 -0.00000000000E+00 -0.37732200498E+03  0.37732200498E+03  0.00000000000E+00 0. -1.
    2000013    1    1    2    0    0 -0.65003557320E+02  0.20665622283E+03  0.21954782640E+04  0.24019902299E+04  0.95000000000E+03 0.  0.
   -2000013    1    1    2    0    0  0.65003557320E+02 -0.20665622283E+03  0.59199560237E+03  0.11401276464E+04  0.95000000000E+03 0.  0.
<mgrwt>
<rscale>  0 0.21855408E+04</rscale>
<asrwt>0</asrwt>
<pdfrwt beam="1">  1        2 0.48689166E+00 0.21855408E+04</pdfrwt>
<pdfrwt beam="2">  1       -2 0.58049541E-01 0.21855408E+04</pdfrwt>
<totfact> 0.34807239E+00</totfact>
</mgrwt>
</event>
<event>
 4    1  0.1343107E-008  0.2689655E+04  0.7816531E-02  0.8338369E-01
         -2   -1    0    0    0  501 -0.00000000000E+00  0.00000000000E+00  0.89038936014E+03  0.89038936014E+03  0.00000000000E+00 0. -1.
          2   -1    0    0  501    0  0.00000000000E+00 -0.00000000000E+00 -0.20312019129E+04  0.20312019129E+04  0.00000000000E+00 0.  1.
    2000013    1    1    2    0    0  0.31300846551E+03  0.86033889295E+03 -0.85345959455E+03  0.15713212879E+04  0.95000000000E+03 0.  0.
   -2000013    1    1    2    0    0 -0.31300846551E+03 -0.86033889295E+03 -0.28735295820E+03  0.13502699851E+04  0.95000000000E+03 0.  0.
<mgrwt>
<rscale>  0 0.26896547E+04</rscale>
<asrwt>0</asrwt>
<pdfrwt beam="2">  1        2 0.31249259E+00 0.26896547E+04</pdfrwt>
<pdfrwt beam="1">  1       -2 0.13698298E+00 0.26896547E+04</pdfrwt>
<totfact> 0.21420385E+00</totfact>
</mgrwt>
</event>
<event>
 4    1  0.1343107E-008  0.1983575E+04  0.7816531E-02  0.8614339E-01
          1   -1    0    0  501    0  0.00000000000E+00  0.00000000000E+00  0.53989577840E+03  0.53989577840E+03  0.00000000000E+00 0. -1.
         -1   -1    0    0    0  501 -0.00000000000E+00 -0.00000000000E+00 -0.18219118189E+04  0.18219118189E+04  0.00000000000E+00 0.  1.
    2000013    1    1    2    0    0  0.44990941907E+02  0.16264444654E+03 -0.91425623224E+03  0.13292260376E+04  0.95000000000E+03 0.  0.
   -2000013    1    1    2    0    0 -0.44990941907E+02 -0.16264444654E+03 -0.36775980825E+03  0.10325815597E+04  0.95000000000E+03 0.  0.
<mgrwt>
<rscale>  0 0.19835751E+04</rscale>
<asrwt>0</asrwt>
<pdfrwt beam="1">  1        1 0.83060889E-01 0.19835751E+04</pdfrwt>
<pdfrwt beam="2">  1       -1 0.28029412E+00 0.19835751E+04</pdfrwt>
<totfact> 0.16397802E+00</totfact>
</mgrwt>
</event>
<event>
 4    1  0.1343107E-008  0.2337250E+04  0.7816531E-02  0.8463377E-01
         -2   -1    0    0    0  501 -0.00000000000E+00  0.00000000000E+00  0.12231121271E+04  0.12231121271E+04  0.00000000000E+00 0. -1.
          2   -1    0    0  501    0  0.00000000000E+00 -0.00000000000E+00 -0.11165655751E+04  0.11165655751E+04  0.00000000000E+00 0.  1.
    2000013    1    1    2    0    0  0.62895445037E+03  0.13979108062E+03  0.27272605455E+03  0.11798325083E+04  0.95000000000E+03 0.  0.
   -2000013    1    1    2    0    0 -0.62895445037E+03 -0.13979108062E+03 -0.16617950254E+03  0.11598451939E+04  0.95000000000E+03 0.  0.
<mgrwt>
<rscale>  0 0.23372504E+04</rscale>
<asrwt>0</asrwt>
<pdfrwt beam="2">  1        2 0.17177932E+00 0.23372504E+04</pdfrwt>
<pdfrwt beam="1">  1       -2 0.18817110E+00 0.23372504E+04</pdfrwt>
<totfact> 0.30667893E+00</totfact>
</mgrwt>
</event>
<event>
 4    1  0.1343107E-008  0.2629926E+04  0.7816531E-02  0.8358106E-01
         -2   -1    0    0    0  501 -0.00000000000E+00  0.00000000000E+00  0.37856410462E+03  0.37856410462E+03  0.00000000000E+00 0. -1.
          2   -1    0    0  501    0  0.00000000000E+00 -0.00000000000E+00 -0.45675968317E+04  0.45675968317E+04  0.00000000000E+00 0.  1.
    2000013    1    1    2    0    0 -0.44359637659E+03  0.36423401051E+03 -0.34206376364E+04  0.35962071686E+04  0.95000000000E+03 0.  0.
   -2000013    1    1    2    0    0  0.44359637659E+03 -0.36423401051E+03 -0.76839509072E+03  0.13499537678E+04  0.95000000000E+03 0.  0.
<mgrwt>
<rscale>  0 0.26299264E+04</rscale>
<asrwt>0</asrwt>
<pdfrwt beam="2">  1        2 0.70270722E+00 0.26299264E+04</pdfrwt>
<pdfrwt beam="1">  1       -2 0.58240630E-01 0.26299264E+04</pdfrwt>
<totfact> 0.25760929E-01</totfact>
</mgrwt>
</event>
<event>
 4    1  0.1343107E-008  0.2759088E+04  0.7816531E-02  0.8316083E-01
          2   -1    0    0  501    0  0.00000000000E+00  0.00000000000E+00  0.44408442054E+04  0.44408442054E+04  0.00000000000E+00 0.  1.
         -2   -1    0    0    0  501 -0.00000000000E+00 -0.00000000000E+00 -0.42855415092E+03  0.42855415092E+03  0.00000000000E+00 0. -1.
    2000013    1    1    2    0    0  0.66824137457E+03  0.49308157233E+03  0.10219836601E+04  0.16237692487E+04  0.95000000000E+03 0.  0.
   -2000013    1    1    2    0    0 -0.66824137457E+03 -0.49308157233E+03  0.29903063944E+04  0.32456291076E+04  0.95000000000E+03 0.  0.
<mgrwt>
<rscale>  0 0.27590884E+04</rscale>
<asrwt>0</asrwt>
<pdfrwt beam="1">  1        2 0.68320677E+00 0.27590884E+04</pdfrwt>
<pdfrwt beam="2">  1       -2 0.65931411E-01 0.27590884E+04</pdfrwt>
<totfact> 0.26001699E-01</totfact>
</mgrwt>
</event>
<event>
 4    1  0.1343107E-008  0.2251307E+04  0.7816531E-02  0.8497372E-01
         -2   -1    0    0    0  501 -0.00000000000E+00  0.00000000000E+00  0.17237499174E+04  0.17237499174E+04  0.00000000000E+00 0.  1.
          2   -1    0    0  501    0  0.00000000000E+00 -0.00000000000E+00 -0.73508075004E+03  0.73508075004E+03  0.00000000000E+00 0. -1.
    2000013    1    1    2    0    0 -0.74135862306E+02  0.54622817262E+03  0.22517487142E+03  0.11211891301E+04  0.95000000000E+03 0.  0.
   -2000013    1    1    2    0    0  0.74135862306E+02 -0.54622817262E+03  0.76349429597E+03  0.13376415374E+04  0.95000000000E+03 0.  0.
<mgrwt>
<rscale>  0 0.22513066E+04</rscale>
<asrwt>0</asrwt>
<pdfrwt beam="2">  1        2 0.11308935E+00 0.22513066E+04</pdfrwt>
<pdfrwt beam="1">  1       -2 0.26519229E+00 0.22513066E+04</pdfrwt>
<totfact> 0.18167225E+00</totfact>
</mgrwt>
</event>
<event>
 4    1  0.1343107E-008  0.2191765E+04  0.7816531E-02  0.8521863E-01
         -2   -1    0    0    0  501 -0.00000000000E+00  0.00000000000E+00  0.11311808437E+04  0.11311808437E+04  0.00000000000E+00 0. -1.
          2   -1    0    0  501    0  0.00000000000E+00 -0.00000000000E+00 -0.10616857609E+04  0.10616857609E+04  0.00000000000E+00 0.  1.
    2000013    1    1    2    0    0  0.50450524849E+03  0.18543741766E+03 -0.63005260696E+02  0.10933353760E+04  0.95000000000E+03 0.  0.
   -2000013    1    1    2    0    0 -0.50450524849E+03 -0.18543741766E+03  0.13250034344E+03  0.10995312286E+04  0.95000000000E+03 0.  0.
<mgrwt>
<rscale>  0 0.21917651E+04</rscale>
<asrwt>0</asrwt>
<pdfrwt beam="2">  1        2 0.16333627E+00 0.21917651E+04</pdfrwt>
<pdfrwt beam="1">  1       -2 0.17402782E+00 0.21917651E+04</pdfrwt>
<totfact> 0.42013895E+00</totfact>
</mgrwt>
</event>
<event>
 4    1  0.1343107E-008  0.2230939E+04  0.7816531E-02  0.8505660E-01
         -2   -1    0    0    0  501 -0.00000000000E+00  0.00000000000E+00  0.74589871568E+03  0.74589871568E+03  0.00000000000E+00 0. -1.
          2   -1    0    0  501    0  0.00000000000E+00 -0.00000000000E+00 -0.16681519089E+04  0.16681519089E+04  0.00000000000E+00 0.  1.
    2000013    1    1    2    0    0  0.52795197832E+03 -0.13081618410E+03 -0.22923291765E+03  0.11184336797E+04  0.95000000000E+03 0.  0.
   -2000013    1    1    2    0    0 -0.52795197832E+03  0.13081618410E+03 -0.69302027560E+03  0.12956169449E+04  0.95000000000E+03 0.  0.
<mgrwt>
<rscale>  0 0.22309391E+04</rscale>
<asrwt>0</asrwt>
<pdfrwt beam="2">  1        2 0.25663875E+00 0.22309391E+04</pdfrwt>
<pdfrwt beam="1">  1       -2 0.11475365E+00 0.22309391E+04</pdfrwt>
<totfact> 0.55214869E+00</totfact>
</mgrwt>
</event>
<event>
 4    1  0.1343107E-008  0.2539497E+04  0.7816531E-02  0.8389048E-01
         -2   -1    0    0    0  501 -0.00000000000E+00  0.00000000000E+00  0.22358493450E+04  0.22358493450E+04  0.00000000000E+00 0.  1.
          2   -1    0    0  501    0  0.00000000000E+00 -0.00000000000E+00 -0.72109549267E+03  0.72109549267E+03  0.00000000000E+00 0. -1.
    2000013    1    1    2    0    0 -0.16933245102E+03  0.78029648615E+03  0.44445302110E+03  0.13181709196E+04  0.95000000000E+03 0.  0.
   -2000013    1    1    2    0    0  0.16933245102E+03 -0.78029648615E+03  0.10703008312E+04  0.16387739181E+04  0.95000000000E+03 0.  0.
<mgrwt>
<rscale>  0 0.25394967E+04</rscale>
<asrwt>0</asrwt>
<pdfrwt beam="2">  1        2 0.11093777E+00 0.25394967E+04</pdfrwt>
<pdfrwt beam="1">  1       -2 0.34397682E+00 0.25394967E+04</pdfrwt>
<totfact> 0.59564719E-01</totfact>
</mgrwt>
</event>
<event>
 4    1  0.1343107E-008  0.2321457E+04  0.7816531E-02  0.8469509E-01
         -2   -1    0    0    0  501 -0.00000000000E+00  0.00000000000E+00  0.35144250547E+03  0.35144250547E+03  0.00000000000E+00 0. -1.
          2   -1    0    0  501    0  0.00000000000E+00 -0.00000000000E+00 -0.38336030016E+04  0.38336030016E+04  0.00000000000E+00 0.  1.
    2000013    1    1    2    0    0 -0.45263759074E+03  0.45669582086E+03 -0.20602217684E+04  0.23580639508E+04  0.95000000000E+03 0.  0.
   -2000013    1    1    2    0    0  0.45263759074E+03 -0.45669582086E+03 -0.14219387278E+04  0.18269815562E+04  0.95000000000E+03 0.  0.
<mgrwt>
<rscale>  0 0.23214573E+04</rscale>
<asrwt>0</asrwt>
<pdfrwt beam="2">  1        2 0.58978504E+00 0.23214573E+04</pdfrwt>
<pdfrwt beam="1">  1       -2 0.54068081E-01 0.23214573E+04</pdfrwt>
<totfact> 0.13555060E+00</totfact>
</mgrwt>
</event>
<event>
 4    1  0.1343107E-008  0.2865999E+04  0.7816531E-02  0.8283066E-01
          2   -1    0    0  501    0  0.00000000000E+00  0.00000000000E+00  0.16789711391E+04  0.16789711391E+04  0.00000000000E+00 0.  1.
         -2   -1    0    0    0  501 -0.00000000000E+00 -0.00000000000E+00 -0.12230632193E+04  0.12230632193E+04  0.00000000000E+00 0. -1.
    2000013    1    1    2    0    0 -0.97436262640E+03  0.15904845102E+03  0.65312494071E+03  0.15178112945E+04  0.95000000000E+03 0.  0.
   -2000013    1    1    2    0    0  0.97436262640E+03 -0.15904845102E+03 -0.19721702093E+03  0.13842230640E+04  0.95000000000E+03 0.  0.
<mgrwt>
<rscale>  0 0.28659992E+04</rscale>
<asrwt>0</asrwt>
<pdfrwt beam="1">  1        2 0.25830325E+00 0.28659992E+04</pdfrwt>
<pdfrwt beam="2">  1       -2 0.18816357E+00 0.28659992E+04</pdfrwt>
<totfact> 0.13907677E+00</totfact>
</mgrwt>
</event>
<event>
 4    1  0.1343107E-008  0.2141084E+04  0.7816531E-02  0.8543358E-01
          2   -1    0    0  501    0  0.00000000000E+00  0.00000000000E+00  0.71275013169E+03  0.71275013169E+03  0.00000000000E+00 0.  1.
         -2   -1    0    0    0  501 -0.00000000000E+00 -0.00000000000E+00 -0.16079416615E+04  0.16079416615E+04  0.00000000000E+00 0. -1.
    2000013    1    1    2    0    0  0.41427082367E+03  0.16632714124E+03 -0.67566457166E+03  0.12483219323E+04  0.95000000000E+03 0.  0.
   -2000013    1    1    2    0    0 -0.41427082367E+03 -0.16632714124E+03 -0.21952695818E+03  0.10723698609E+04  0.95000000000E+03 0.  0.
<mgrwt>
<rscale>  0 0.21410844E+04</rscale>
<asrwt>0</asrwt>
<pdfrwt beam="1">  1        2 0.10965387E+00 0.21410844E+04</pdfrwt>
<pdfrwt beam="2">  1       -2 0.24737564E+00 0.21410844E+04</pdfrwt>
<totfact> 0.24524742E+00</totfact>
</mgrwt>
</event>
<event>
 4    1  0.1343107E-008  0.2503780E+04  0.7816531E-02  0.8401640E-01
          2   -1    0    0  501    0  0.00000000000E+00  0.00000000000E+00  0.12223235951E+04  0.12223235951E+04  0.00000000000E+00 0. -1.
         -2   -1    0    0    0  501 -0.00000000000E+00 -0.00000000000E+00 -0.12821720500E+04  0.12821720500E+04  0.00000000000E+00 0.  1.
    2000013    1    1    2    0    0  0.11356151849E+03  0.80685051642E+03 -0.11901562487E+01  0.12515611814E+04  0.95000000000E+03 0.  0.
   -2000013    1    1    2    0    0 -0.11356151849E+03 -0.80685051642E+03 -0.58658298576E+02  0.12529344637E+04  0.95000000000E+03 0.  0.
<mgrwt>
<rscale>  0 0.25037805E+04</rscale>
<asrwt>0</asrwt>
<pdfrwt beam="1">  1        2 0.18804978E+00 0.25037805E+04</pdfrwt>
<pdfrwt beam="2">  1       -2 0.19725724E+00 0.25037805E+04</pdfrwt>
<totfact> 0.22708054E+00</totfact>
</mgrwt>
</event>
<event>
 4    1  0.1343107E-008  0.2467463E+04  0.7816531E-02  0.8414669E-01
          2   -1    0    0  501    0  0.00000000000E+00  0.00000000000E+00  0.33196679022E+04  0.33196679022E+04  0.00000000000E+00 0.  1.
         -2   -1    0    0    0  501 -0.00000000000E+00 -0.00000000000E+00 -0.45850789711E+03  0.45850789711E+03  0.00000000000E+00 0. -1.
    2000013    1    1    2    0    0  0.38562668042E+03 -0.27332276245E+03  0.46679961823E+03  0.11592304140E+04  0.95000000000E+03 0.  0.
   -2000013    1    1    2    0    0 -0.38562668042E+03  0.27332276245E+03  0.23943603869E+04  0.26189453853E+04  0.95000000000E+03 0.  0.
<mgrwt>
<rscale>  0 0.24674634E+04</rscale>
<asrwt>0</asrwt>
<pdfrwt beam="1">  1        2 0.51071812E+00 0.24674634E+04</pdfrwt>
<pdfrwt beam="2">  1       -2 0.70539678E-01 0.24674634E+04</pdfrwt>
<totfact> 0.17680994E+00</totfact>
</mgrwt>
</event>
<event>
 4    1  0.1343107E-008  0.2695382E+04  0.7816531E-02  0.8336505E-01
          2   -1    0    0  501    0  0.00000000000E+00  0.00000000000E+00  0.19676572041E+04  0.19676572041E+04  0.00000000000E+00 0.  1.
         -2   -1    0    0    0  501 -0.00000000000E+00 -0.00000000000E+00 -0.92306244520E+03  0.92306244520E+03  0.00000000000E+00 0. -1.
    2000013    1    1    2    0    0 -0.29975602311E+02  0.80691914588E+03  0.10709935190E+04  0.16436374791E+04  0.95000000000E+03 0.  0.
   -2000013    1    1    2    0    0  0.29975602311E+02 -0.80691914588E+03 -0.26398760174E+02  0.12470821702E+04  0.95000000000E+03 0.  0.
<mgrwt>
<rscale>  0 0.26953816E+04</rscale>
<asrwt>0</asrwt>
<pdfrwt beam="1">  1        2 0.30271649E+00 0.26953816E+04</pdfrwt>
<pdfrwt beam="2">  1       -2 0.14200961E+00 0.26953816E+04</pdfrwt>
<totfact> 0.21151727E+00</totfact>
</mgrwt>
</event>
<event>
 4    1  0.1343107E-008  0.2284821E+04  0.7816531E-02  0.8483930E-01
         -2   -1    0    0    0  501 -0.00000000000E+00  0.00000000000E+00  0.60816146499E+03  0.60816146499E+03  0.00000000000E+00 0. -1.
          2   -1    0    0  501    0  0.00000000000E+00 -0.00000000000E+00 -0.21459794342E+04  0.21459794342E+04  0.00000000000E+00 0.  1.
    2000013    1    1    2    0    0  0.21515087987E+03 -0.55795428416E+03 -0.51320593665E+03  0.12342946236E+04  0.95000000000E+03 0.  0.
   -2000013    1    1    2    0    0 -0.21515087987E+03  0.55795428416E+03 -0.10246120326E+04  0.15198462756E+04  0.95000000000E+03 0.  0.
<mgrwt>
<rscale>  0 0.22848212E+04</rscale>
<asrwt>0</asrwt>
<pdfrwt beam="2">  1        2 0.33015068E+00 0.22848212E+04</pdfrwt>
<pdfrwt beam="1">  1       -2 0.93563302E-01 0.22848212E+04</pdfrwt>
<totfact> 0.48540367E+00</totfact>
</mgrwt>
</event>
<event>
 4    1  0.1343107E-008  0.2080958E+04  0.7816531E-02  0.8569678E-01
          1   -1    0    0  501    0  0.00000000000E+00  0.00000000000E+00  0.12553382112E+04  0.12553382112E+04  0.00000000000E+00 0. -1.
         -1   -1    0    0    0  501 -0.00000000000E+00 -0.00000000000E+00 -0.86239448484E+03  0.86239448484E+03  0.00000000000E+00 0.  1.
    2000013    1    1    2    0    0  0.34145787531E+03  0.25173701912E+03  0.20815261315E+03  0.10610337025E+04  0.95000000000E+03 0.  0.
   -2000013    1    1    2    0    0 -0.34145787531E+03 -0.25173701912E+03  0.18479111316E+03  0.10566989935E+04  0.95000000000E+03 0.  0.
<mgrwt>
<rscale>  0 0.20809582E+04</rscale>
<asrwt>0</asrwt>
<pdfrwt beam="1">  1        1 0.19312895E+00 0.20809582E+04</pdfrwt>
<pdfrwt beam="2">  1       -1 0.13267608E+00 0.20809582E+04</pdfrwt>
<totfact> 0.43211314E+00</totfact>
</mgrwt>
</event>
<event>
 4    1  0.1343107E-008  0.2318153E+04  0.7816531E-02  0.8470798E-01
          2   -1    0    0  501    0  0.00000000000E+00  0.00000000000E+00  0.16598663199E+04  0.16598663199E+04  0.00000000000E+00 0.  1.
         -2   -1    0    0    0  501 -0.00000000000E+00 -0.00000000000E+00 -0.80937752023E+03  0.80937752023E+03  0.00000000000E+00 0. -1.
    2000013    1    1    2    0    0  0.60180280229E+02  0.62265092150E+03  0.66257259435E+03  0.13163655567E+04  0.95000000000E+03 0.  0.
   -2000013    1    1    2    0    0 -0.60180280229E+02 -0.62265092150E+03  0.18791620535E+03  0.11528782834E+04  0.95000000000E+03 0.  0.
<mgrwt>
<rscale>  0 0.23181531E+04</rscale>
<asrwt>0</asrwt>
<pdfrwt beam="1">  1        2 0.25536405E+00 0.23181531E+04</pdfrwt>
<pdfrwt beam="2">  1       -2 0.12451962E+00 0.23181531E+04</pdfrwt>
<totfact> 0.45258918E+00</totfact>
</mgrwt>
</event>
<event>
 4    1  0.1343107E-008  0.3233849E+04  0.7816531E-02  0.8179935E-01
         -1   -1    0    0    0  501 -0.00000000000E+00  0.00000000000E+00  0.21694018376E+04  0.21694018376E+04  0.00000000000E+00 0.  1.
          1   -1    0    0  501    0  0.00000000000E+00 -0.00000000000E+00 -0.12051452354E+04  0.12051452354E+04  0.00000000000E+00 0. -1.
    2000013    1    1    2    0    0 -0.10735524017E+04 -0.59124220425E+03  0.40897799815E+01  0.15506768940E+04  0.95000000000E+03 0.  0.
   -2000013    1    1    2    0    0  0.10735524017E+04  0.59124220425E+03  0.96016682216E+03  0.18238701790E+04  0.95000000000E+03 0.  0.
<mgrwt>
<rscale>  0 0.32338487E+04</rscale>
<asrwt>0</asrwt>
<pdfrwt beam="2">  1        1 0.18540696E+00 0.32338487E+04</pdfrwt>
<pdfrwt beam="1">  1       -1 0.33375413E+00 0.32338487E+04</pdfrwt>
<totfact> 0.17572250E-01</totfact>
</mgrwt>
</event>
<event>
 4    1  0.1343107E-008  0.2483058E+04  0.7816531E-02  0.8409046E-01
          2   -1    0    0  501    0  0.00000000000E+00  0.00000000000E+00  0.65529230976E+03  0.65529230976E+03  0.00000000000E+00 0.  1.
         -2   -1    0    0    0  501 -0.00000000000E+00 -0.00000000000E+00 -0.23522243618E+04  0.23522243618E+04  0.00000000000E+00 0. -1.
    2000013    1    1    2    0    0  0.72973753054E+03  0.73365795768E+02 -0.46354524338E+03  0.12865743648E+04  0.95000000000E+03 0.  0.
   -2000013    1    1    2    0    0 -0.72973753054E+03 -0.73365795768E+02 -0.12333868087E+04  0.17209423068E+04  0.95000000000E+03 0.  0.
<mgrwt>
<rscale>  0 0.24830582E+04</rscale>
<asrwt>0</asrwt>
<pdfrwt beam="1">  1        2 0.10081420E+00 0.24830582E+04</pdfrwt>
<pdfrwt beam="2">  1       -2 0.36188067E+00 0.24830582E+04</pdfrwt>
<totfact> 0.52037348E-01</totfact>
</mgrwt>
</event>
<event>
 4    1  0.1343107E-008  0.2621815E+04  0.7816531E-02  0.8360829E-01
          1   -1    0    0  501    0  0.00000000000E+00  0.00000000000E+00  0.15741788094E+04  0.15741788094E+04  0.00000000000E+00 0.  1.
         -1   -1    0    0    0  501 -0.00000000000E+00 -0.00000000000E+00 -0.10916664321E+04  0.10916664321E+04  0.00000000000E+00 0. -1.
    2000013    1    1    2    0    0 -0.18909448178E+03 -0.86259503691E+03  0.47928281069E+02  0.12979306764E+04  0.95000000000E+03 0.  0.
   -2000013    1    1    2    0    0  0.18909448178E+03  0.86259503691E+03  0.43458409626E+03  0.13679145651E+04  0.95000000000E+03 0.  0.
<mgrwt>
<rscale>  0 0.26218148E+04</rscale>
<asrwt>0</asrwt>
<pdfrwt beam="1">  1        1 0.24218136E+00 0.26218148E+04</pdfrwt>
<pdfrwt beam="2">  1       -1 0.16794868E+00 0.26218148E+04</pdfrwt>
<totfact> 0.13020994E+00</totfact>
</mgrwt>
</event>
<event>
 4    1  0.1343107E-008  0.3338409E+04  0.7816531E-02  0.8153190E-01
         -2   -1    0    0    0  501 -0.00000000000E+00  0.00000000000E+00  0.12226284890E+04  0.12226284890E+04  0.00000000000E+00 0. -1.
          2   -1    0    0  501    0  0.00000000000E+00 -0.00000000000E+00 -0.22788965660E+04  0.22788965660E+04  0.00000000000E+00 0.  1.
    2000013    1    1    2    0    0 -0.10231045512E+04 -0.37819740271E+03 -0.14018842588E+04  0.20143375271E+04  0.95000000000E+03 0.  0.
   -2000013    1    1    2    0    0  0.10231045512E+04  0.37819740271E+03  0.34561618174E+03  0.14871875279E+04  0.95000000000E+03 0.  0.
<mgrwt>
<rscale>  0 0.33384091E+04</rscale>
<asrwt>0</asrwt>
<pdfrwt beam="2">  1        2 0.35059947E+00 0.33384091E+04</pdfrwt>
<pdfrwt beam="1">  1       -2 0.18809669E+00 0.33384091E+04</pdfrwt>
<totfact> 0.61943152E-01</totfact>
</mgrwt>
</event>
<event>
 4    1  0.1343107E-008  0.2407512E+04  0.7816531E-02  0.8436697E-01
         -2   -1    0    0    0  501 -0.00000000000E+00  0.00000000000E+00  0.72439962109E+03  0.72439962109E+03  0.00000000000E+00 0. -1.
          2   -1    0    0  501    0  0.00000000000E+00 -0.00000000000E+00 -0.20003164194E+04  0.20003164194E+04  0.00000000000E+00 0.  1.
    2000013    1    1    2    0    0  0.34716516235E+03 -0.58275381687E+03 -0.30528605989E+03  0.12065758324E+04  0.95000000000E+03 0.  0.
   -2000013    1    1    2    0    0 -0.34716516235E+03  0.58275381687E+03 -0.97063073846E+03  0.15181402081E+04  0.95000000000E+03 0.  0.
<mgrwt>
<rscale>  0 0.24075120E+04</rscale>
<asrwt>0</asrwt>
<pdfrwt beam="2">  1        2 0.30774099E+00 0.24075120E+04</pdfrwt>
<pdfrwt beam="1">  1       -2 0.11144610E+00 0.24075120E+04</pdfrwt>
<totfact> 0.38201734E+00</totfact>
</mgrwt>
</event>
<event>
 4    1  0.1343107E-008  0.2204224E+04  0.7816531E-02  0.8516672E-01
         -1   -1    0    0    0  501 -0.00000000000E+00  0.00000000000E+00  0.82114707434E+03  0.82114707434E+03  0.00000000000E+00 0. -1.
          1   -1    0    0  501    0  0.00000000000E+00 -0.00000000000E+00 -0.14792124918E+04  0.14792124918E+04  0.00000000000E+00 0.  1.
    2000013    1    1    2    0    0 -0.90234903460E+01  0.55386239208E+03 -0.40505222803E+03  0.11719267384E+04  0.95000000000E+03 0.  0.
   -2000013    1    1    2    0    0  0.90234903460E+01 -0.55386239208E+03 -0.25301318946E+03  0.11284328278E+04  0.95000000000E+03 0.  0.
<mgrwt>
<rscale>  0 0.22042241E+04</rscale>
<asrwt>0</asrwt>
<pdfrwt beam="2">  1        1 0.22757115E+00 0.22042241E+04</pdfrwt>
<pdfrwt beam="1">  1       -1 0.12633032E+00 0.22042241E+04</pdfrwt>
<totfact> 0.33593691E+00</totfact>
</mgrwt>
</event>
<event>
 4    1  0.1343107E-008  0.3452700E+04  0.7816531E-02  0.8125092E-01
         -2   -1    0    0    0  501 -0.00000000000E+00  0.00000000000E+00  0.19411335302E+04  0.19411335302E+04  0.00000000000E+00 0. -1.
          2   -1    0    0  501    0  0.00000000000E+00 -0.00000000000E+00 -0.15353317482E+04  0.15353317482E+04  0.00000000000E+00 0.  1.
    2000013    1    1    2    0    0 -0.43562367966E+03 -0.13525580221E+04  0.44664720219E+03  0.17666847247E+04  0.95000000000E+03 0.  0.
   -2000013    1    1    2    0    0  0.43562367966E+03  0.13525580221E+04 -0.40845420203E+02  0.17097805537E+04  0.95000000000E+03 0.  0.
<mgrwt>
<rscale>  0 0.34526998E+04</rscale>
<asrwt>0</asrwt>
<pdfrwt beam="2">  1        2 0.23620488E+00 0.34526998E+04</pdfrwt>
<pdfrwt beam="1">  1       -2 0.29863593E+00 0.34526998E+04</pdfrwt>
<totfact> 0.32401551E-01</totfact>
</mgrwt>
</event>
<event>
 4    1  0.1343107E-008  0.3189445E+04  0.7816531E-02  0.8191610E-01
         -2   -1    0    0    0  501 -0.00000000000E+00  0.00000000000E+00  0.17204783684E+04  0.17204783684E+04  0.00000000000E+00 0. -1.
          2   -1    0    0  501    0  0.00000000000E+00 -0.00000000000E+00 -0.14781585103E+04  0.14781585103E+04  0.00000000000E+00 0.  1.
    2000013    1    1    2    0    0  0.38696562183E+03  0.11679412142E+04  0.47829107730E+03  0.16263737046E+04  0.95000000000E+03 0.  0.
   -2000013    1    1    2    0    0 -0.38696562183E+03 -0.11679412142E+04 -0.23597121921E+03  0.15722631741E+04  0.95000000000E+03 0.  0.
<mgrwt>
<rscale>  0 0.31894449E+04</rscale>
<asrwt>0</asrwt>
<pdfrwt beam="2">  1        2 0.22740900E+00 0.31894449E+04</pdfrwt>
<pdfrwt beam="1">  1       -2 0.26468898E+00 0.31894449E+04</pdfrwt>
<totfact> 0.57488256E-01</totfact>
</mgrwt>
</event>
<event>
 4    1  0.1343107E-008  0.2181591E+04  0.7816531E-02  0.8526130E-01
          2   -1    0    0  501    0  0.00000000000E+00  0.00000000000E+00  0.28410241148E+04  0.28410241148E+04  0.00000000000E+00 0.  1.
         -2   -1    0    0    0  501 -0.00000000000E+00 -0.00000000000E+00 -0.41880487181E+03  0.41880487181E+03  0.00000000000E+00 0. -1.
    2000013    1    1    2    0    0 -0.28846869226E+03 -0.44376408088E+03  0.10843717108E+04  0.15357417599E+04  0.95000000000E+03 0.  0.
   -2000013    1    1    2    0    0  0.28846869226E+03  0.44376408088E+03  0.13378475322E+04  0.17240872267E+04  0.95000000000E+03 0.  0.
<mgrwt>
<rscale>  0 0.21815909E+04</rscale>
<asrwt>0</asrwt>
<pdfrwt beam="1">  1        2 0.43708062E+00 0.21815909E+04</pdfrwt>
<pdfrwt beam="2">  1       -2 0.64431521E-01 0.21815909E+04</pdfrwt>
<totfact> 0.44504938E+00</totfact>
</mgrwt>
</event>
<event>
 4    1  0.1343107E-008  0.2662795E+04  0.7816531E-02  0.8347178E-01
         -2   -1    0    0    0  501 -0.00000000000E+00  0.00000000000E+00  0.75790468225E+03  0.75790468225E+03  0.00000000000E+00 0. -1.
          2   -1    0    0  501    0  0.00000000000E+00 -0.00000000000E+00 -0.23388428761E+04  0.23388428761E+04  0.00000000000E+00 0.  1.
    2000013    1    1    2    0    0 -0.83853397857E+02 -0.20940968663E+03 -0.18430913469E+04  0.20857539457E+04  0.95000000000E+03 0.  0.
   -2000013    1    1    2    0    0  0.83853397857E+02  0.20940968663E+03  0.26215315300E+03  0.10109936126E+04  0.95000000000E+03 0.  0.
<mgrwt>
<rscale>  0 0.26627955E+04</rscale>
<asrwt>0</asrwt>
<pdfrwt beam="2">  1        2 0.35982198E+00 0.26627955E+04</pdfrwt>
<pdfrwt beam="1">  1       -2 0.11660072E+00 0.26627955E+04</pdfrwt>
<totfact> 0.21610119E+00</totfact>
</mgrwt>
</event>
<event>
 4    1  0.1343107E-008  0.2330253E+04  0.7816531E-02  0.8466087E-01
          2   -1    0    0  501    0  0.00000000000E+00  0.00000000000E+00  0.18450679040E+04  0.18450679040E+04  0.00000000000E+00 0.  1.
         -2   -1    0    0    0  501 -0.00000000000E+00 -0.00000000000E+00 -0.73575614925E+03  0.73575614925E+03  0.00000000000E+00 0. -1.
    2000013    1    1    2    0    0 -0.26308971269E+03  0.34962779438E+03 -0.13933232902E+02  0.10460162171E+04  0.95000000000E+03 0.  0.
   -2000013    1    1    2    0    0  0.26308971269E+03 -0.34962779438E+03  0.11232449876E+04  0.15348078361E+04  0.95000000000E+03 0.  0.
<mgrwt>
<rscale>  0 0.23302533E+04</rscale>
<asrwt>0</asrwt>
<pdfrwt beam="1">  1        2 0.28385660E+00 0.23302533E+04</pdfrwt>
<pdfrwt beam="2">  1       -2 0.11319325E+00 0.23302533E+04</pdfrwt>
<totfact> 0.45151644E+00</totfact>
</mgrwt>
</event>
<event>
 4    1  0.1343107E-008  0.2273149E+04  0.7816531E-02  0.8488584E-01
         -2   -1    0    0    0  501 -0.00000000000E+00  0.00000000000E+00  0.12767457427E+04  0.12767457427E+04  0.00000000000E+00 0. -1.
          2   -1    0    0  501    0  0.00000000000E+00 -0.00000000000E+00 -0.10117921049E+04  0.10117921049E+04  0.00000000000E+00 0.  1.
    2000013    1    1    2    0    0 -0.35518408044E+03 -0.47081116968E+03  0.33752789462E+03  0.11680085480E+04  0.95000000000E+03 0.  0.
   -2000013    1    1    2    0    0  0.35518408044E+03  0.47081116968E+03 -0.72574256838E+02  0.11205292996E+04  0.95000000000E+03 0.  0.
<mgrwt>
<rscale>  0 0.22731487E+04</rscale>
<asrwt>0</asrwt>
<pdfrwt beam="2">  1        2 0.15566032E+00 0.22731487E+04</pdfrwt>
<pdfrwt beam="1">  1       -2 0.19642242E+00 0.22731487E+04</pdfrwt>
<totfact> 0.31577328E+00</totfact>
</mgrwt>
</event>
<event>
 4    1  0.1343107E-008  0.2879387E+04  0.7816531E-02  0.8279037E-01
          2   -1    0    0  501    0  0.00000000000E+00  0.00000000000E+00  0.25469363917E+04  0.25469363917E+04  0.00000000000E+00 0.  1.
         -2   -1    0    0    0  501 -0.00000000000E+00 -0.00000000000E+00 -0.81380830978E+03  0.81380830978E+03  0.00000000000E+00 0. -1.
    2000013    1    1    2    0    0  0.77227541058E+03 -0.27905074263E+03  0.44605879798E+02  0.12564904740E+04  0.95000000000E+03 0.  0.
   -2000013    1    1    2    0    0 -0.77227541058E+03  0.27905074263E+03  0.16885222021E+04  0.21042542275E+04  0.95000000000E+03 0.  0.
<mgrwt>
<rscale>  0 0.28793874E+04</rscale>
<asrwt>0</asrwt>
<pdfrwt beam="1">  1        2 0.39183637E+00 0.28793874E+04</pdfrwt>
<pdfrwt beam="2">  1       -2 0.12520128E+00 0.28793874E+04</pdfrwt>
<totfact> 0.13492435E+00</totfact>
</mgrwt>
</event>
<event>
 4    1  0.1343107E-008  0.2290824E+04  0.7816531E-02  0.8481548E-01
          2   -1    0    0  501    0  0.00000000000E+00  0.00000000000E+00  0.29282728149E+04  0.29282728149E+04  0.00000000000E+00 0.  1.
         -2   -1    0    0    0  501 -0.00000000000E+00 -0.00000000000E+00 -0.44803503704E+03  0.44803503704E+03  0.00000000000E+00 0. -1.
    2000013    1    1    2    0    0 -0.36730480714E+03 -0.45637898814E+03  0.86069681918E+03  0.14094302454E+04  0.95000000000E+03 0.  0.
   -2000013    1    1    2    0    0  0.36730480714E+03  0.45637898814E+03  0.16195409587E+04  0.19668776065E+04  0.95000000000E+03 0.  0.
<mgrwt>
<rscale>  0 0.22908241E+04</rscale>
<asrwt>0</asrwt>
<pdfrwt beam="1">  1        2 0.45050350E+00 0.22908241E+04</pdfrwt>
<pdfrwt beam="2">  1       -2 0.68928469E-01 0.22908241E+04</pdfrwt>
<totfact> 0.33686418E+00</totfact>
</mgrwt>
</event>
<event>
 4    1  0.1343107E-008  0.2352469E+04  0.7816531E-02  0.8457516E-01
         -2   -1    0    0    0  501 -0.00000000000E+00  0.00000000000E+00  0.15257893401E+04  0.15257893401E+04  0.00000000000E+00 0. -1.
          2   -1    0    0  501    0  0.00000000000E+00 -0.00000000000E+00 -0.90676220115E+03  0.90676220115E+03  0.00000000000E+00 0.  1.
    2000013    1    1    2    0    0  0.50362086472E+03  0.36522837428E+03  0.62654873815E+03  0.12969537625E+04  0.95000000000E+03 0.  0.
   -2000013    1    1    2    0    0 -0.50362086472E+03 -0.36522837428E+03 -0.75215991545E+01  0.11355977788E+04  0.95000000000E+03 0.  0.
<mgrwt>
<rscale>  0 0.23524694E+04</rscale>
<asrwt>0</asrwt>
<pdfrwt beam="2">  1        2 0.13950188E+00 0.23524694E+04</pdfrwt>
<pdfrwt beam="1">  1       -2 0.23473682E+00 0.23524694E+04</pdfrwt>
<totfact> 0.20914463E+00</totfact>
</mgrwt>
</event>
<event>
 4    1  0.1343107E-008  0.2186988E+04  0.7816531E-02  0.8523864E-01
          2   -1    0    0  501    0  0.00000000000E+00  0.00000000000E+00  0.21346279717E+04  0.21346279717E+04  0.00000000000E+00 0.  1.
         -2   -1    0    0    0  501 -0.00000000000E+00 -0.00000000000E+00 -0.56015803194E+03  0.56015803194E+03  0.00000000000E+00 0. -1.
    2000013    1    1    2    0    0 -0.51392321170E+03  0.61877965751E+02  0.98316123805E+03  0.14618659207E+04  0.95000000000E+03 0.  0.
   -2000013    1    1    2    0    0  0.51392321170E+03 -0.61877965751E+02  0.59130870173E+03  0.12329200829E+04  0.95000000000E+03 0.  0.
<mgrwt>
<rscale>  0 0.21869879E+04</rscale>
<asrwt>0</asrwt>
<pdfrwt beam="1">  1        2 0.32840430E+00 0.21869879E+04</pdfrwt>
<pdfrwt beam="2">  1       -2 0.86178160E-01 0.21869879E+04</pdfrwt>
<totfact> 0.60030483E+00</totfact>
</mgrwt>
</event>
<event>
 4    1  0.1343107E-008  0.2708410E+04  0.7816531E-02  0.8332281E-01
          2   -1    0    0  501    0  0.00000000000E+00  0.00000000000E+00  0.26638038979E+04  0.26638038979E+04  0.00000000000E+00 0.  1.
         -2   -1    0    0    0  501 -0.00000000000E+00 -0.00000000000E+00 -0.68844078750E+03  0.68844078750E+03  0.00000000000E+00 0. -1.
    2000013    1    1    2    0    0  0.31515834739E+03 -0.38325430556E+03 -0.36832970575E+02  0.10724109820E+04  0.95000000000E+03 0.  0.
   -2000013    1    1    2    0    0 -0.31515834739E+03  0.38325430556E+03  0.20121960810E+04  0.22798337033E+04  0.95000000000E+03 0.  0.
<mgrwt>
<rscale>  0 0.27084101E+04</rscale>
<asrwt>0</asrwt>
<pdfrwt beam="1">  1        2 0.40981598E+00 0.27084101E+04</pdfrwt>
<pdfrwt beam="2">  1       -2 0.10591397E+00 0.27084101E+04</pdfrwt>
<totfact> 0.17606484E+00</totfact>
</mgrwt>
</event>
<event>
 4    1  0.1343107E-008  0.2930111E+04  0.7816531E-02  0.8263975E-01
         -1   -1    0    0    0  501 -0.00000000000E+00  0.00000000000E+00  0.73539506801E+03  0.73539506801E+03  0.00000000000E+00 0. -1.
          1   -1    0    0  501    0  0.00000000000E+00 -0.00000000000E+00 -0.29186859358E+04  0.29186859358E+04  0.00000000000E+00 0.  1.
    2000013    1    1    2    0    0  0.20427365849E+03 -0.27924216860E+03  0.23060191677E+03  0.10370058632E+04  0.95000000000E+03 0.  0.
   -2000013    1    1    2    0    0 -0.20427365849E+03  0.27924216860E+03 -0.24138927845E+04  0.26170751406E+04  0.95000000000E+03 0.  0.
<mgrwt>
<rscale>  0 0.29301107E+04</rscale>
<asrwt>0</asrwt>
<pdfrwt beam="2">  1        1 0.44902860E+00 0.29301107E+04</pdfrwt>
<pdfrwt beam="1">  1       -1 0.11313770E+00 0.29301107E+04</pdfrwt>
<totfact> 0.41824670E-01</totfact>
</mgrwt>
</event>
<event>
 4    1  0.1343107E-008  0.2265912E+04  0.7816531E-02  0.8491484E-01
         -2   -1    0    0    0  501 -0.00000000000E+00  0.00000000000E+00  0.68697795850E+03  0.68697795850E+03  0.00000000000E+00 0. -1.
          2   -1    0    0  501    0  0.00000000000E+00 -0.00000000000E+00 -0.18684576982E+04  0.18684576982E+04  0.00000000000E+00 0.  1.
    2000013    1    1    2    0    0 -0.58938834506E+03 -0.17820211360E+03 -0.64060022400E+03  0.13007702570E+04  0.95000000000E+03 0.  0.
   -2000013    1    1    2    0    0  0.58938834506E+03  0.17820211360E+03 -0.54087951566E+03  0.12546653996E+04  0.95000000000E+03 0.  0.
<mgrwt>
<rscale>  0 0.22659120E+04</rscale>
<asrwt>0</asrwt>
<pdfrwt beam="2">  1        2 0.28745503E+00 0.22659120E+04</pdfrwt>
<pdfrwt beam="1">  1       -2 0.10568892E+00 0.22659120E+04</pdfrwt>
<totfact> 0.52009980E+00</totfact>
</mgrwt>
</event>
<event>
 4    1  0.1343107E-008  0.2444493E+04  0.7816531E-02  0.8423031E-01
         -2   -1    0    0    0  501 -0.00000000000E+00  0.00000000000E+00  0.84168922864E+03  0.84168922864E+03  0.00000000000E+00 0. -1.
          2   -1    0    0  501    0  0.00000000000E+00 -0.00000000000E+00 -0.17748675523E+04  0.17748675523E+04  0.00000000000E+00 0.  1.
    2000013    1    1    2    0    0  0.43970533575E+03  0.37785675809E+03 -0.10073951958E+04  0.15011534207E+04  0.95000000000E+03 0.  0.
   -2000013    1    1    2    0    0 -0.43970533575E+03 -0.37785675809E+03  0.74216872152E+02  0.11154033602E+04  0.95000000000E+03 0.  0.
<mgrwt>
<rscale>  0 0.24444933E+04</rscale>
<asrwt>0</asrwt>
<pdfrwt beam="2">  1        2 0.27305654E+00 0.24444933E+04</pdfrwt>
<pdfrwt beam="1">  1       -2 0.12949065E+00 0.24444933E+04</pdfrwt>
<totfact> 0.35022967E+00</totfact>
</mgrwt>
</event>
<event>
 4    1  0.1343107E-008  0.2421094E+04  0.7816531E-02  0.8431648E-01
          2   -1    0    0  501    0  0.00000000000E+00  0.00000000000E+00  0.68805215317E+03  0.68805215317E+03  0.00000000000E+00 0.  1.
         -2   -1    0    0    0  501 -0.00000000000E+00 -0.00000000000E+00 -0.21298160719E+04  0.21298160719E+04  0.00000000000E+00 0. -1.
    2000013    1    1    2    0    0  0.67559172075E+03 -0.19314378262E+03 -0.41472160720E+03  0.12522869900E+04  0.95000000000E+03 0.  0.
   -2000013    1    1    2    0    0 -0.67559172075E+03  0.19314378262E+03 -0.10270423116E+04  0.15655812351E+04  0.95000000000E+03 0.  0.
<mgrwt>
<rscale>  0 0.24210944E+04</rscale>
<asrwt>0</asrwt>
<pdfrwt beam="1">  1        2 0.10585418E+00 0.24210944E+04</pdfrwt>
<pdfrwt beam="2">  1       -2 0.32766401E+00 0.24210944E+04</pdfrwt>
<totfact> 0.80727559E-01</totfact>
</mgrwt>
</event>
<event>
 4    1  0.1343107E-008  0.2510147E+04  0.7816531E-02  0.8399379E-01
          2   -1    0    0  501    0  0.00000000000E+00  0.00000000000E+00  0.10543083114E+04  0.10543083114E+04  0.00000000000E+00 0.  1.
         -2   -1    0    0    0  501 -0.00000000000E+00 -0.00000000000E+00 -0.14940695699E+04  0.14940695699E+04  0.00000000000E+00 0. -1.
    2000013    1    1    2    0    0  0.21787277032E+03  0.78471927204E+03 -0.12115196481E+03  0.12571518120E+04  0.95000000000E+03 0.  0.
   -2000013    1    1    2    0    0 -0.21787277032E+03 -0.78471927204E+03 -0.31860929359E+03  0.12912260693E+04  0.95000000000E+03 0.  0.
<mgrwt>
<rscale>  0 0.25101474E+04</rscale>
<asrwt>0</asrwt>
<pdfrwt beam="1">  1        2 0.16220128E+00 0.25101474E+04</pdfrwt>
<pdfrwt beam="2">  1       -2 0.22985686E+00 0.25101474E+04</pdfrwt>
<totfact> 0.17758397E+00</totfact>
</mgrwt>
</event>
<event>
 4    1  0.1343107E-008  0.2501224E+04  0.7816531E-02  0.8402549E-01
         -1   -1    0    0    0  501 -0.00000000000E+00  0.00000000000E+00  0.79525223283E+03  0.79525223283E+03  0.00000000000E+00 0. -1.
          1   -1    0    0  501    0  0.00000000000E+00 -0.00000000000E+00 -0.19667104709E+04  0.19667104709E+04  0.00000000000E+00 0.  1.
    2000013    1    1    2    0    0  0.65124268412E+03 -0.18428106707E+03 -0.10838085857E+04  0.15922366645E+04  0.95000000000E+03 0.  0.
   -2000013    1    1    2    0    0 -0.65124268412E+03  0.18428106707E+03 -0.87649652361E+02  0.11697260392E+04  0.95000000000E+03 0.  0.
<mgrwt>
<rscale>  0 0.25012244E+04</rscale>
<asrwt>0</asrwt>
<pdfrwt beam="2">  1        1 0.30257084E+00 0.25012244E+04</pdfrwt>
<pdfrwt beam="1">  1       -1 0.12234650E+00 0.25012244E+04</pdfrwt>
<totfact> 0.16456600E+00</totfact>
</mgrwt>
</event>
<event>
 4    1  0.1343107E-008  0.2695978E+04  0.7816531E-02  0.8336311E-01
         -2   -1    0    0    0  501 -0.00000000000E+00  0.00000000000E+00  0.20682430695E+04  0.20682430695E+04  0.00000000000E+00 0. -1.
          2   -1    0    0  501    0  0.00000000000E+00 -0.00000000000E+00 -0.87855934334E+03  0.87855934334E+03  0.00000000000E+00 0.  1.
    2000013    1    1    2    0    0 -0.58967454856E+03  0.75289814746E+03  0.59659731842E+03  0.14741099192E+04  0.95000000000E+03 0.  0.
   -2000013    1    1    2    0    0  0.58967454856E+03 -0.75289814746E+03  0.59308640774E+03  0.14726924936E+04  0.95000000000E+03 0.  0.
<mgrwt>
<rscale>  0 0.26959779E+04</rscale>
<asrwt>0</asrwt>
<pdfrwt beam="2">  1        2 0.13516298E+00 0.26959779E+04</pdfrwt>
<pdfrwt beam="1">  1       -2 0.31819124E+00 0.26959779E+04</pdfrwt>
<totfact> 0.65388640E-01</totfact>
</mgrwt>
</event>
<event>
 4    1  0.1343107E-008  0.2404617E+04  0.7816531E-02  0.8437777E-01
         -2   -1    0    0    0  501 -0.00000000000E+00  0.00000000000E+00  0.63195246614E+03  0.63195246614E+03  0.00000000000E+00 0. -1.
          2   -1    0    0  501    0  0.00000000000E+00 -0.00000000000E+00 -0.22874285373E+04  0.22874285373E+04  0.00000000000E+00 0.  1.
    2000013    1    1    2    0    0  0.70235571716E+03  0.87921904179E+02 -0.57889070380E+03  0.13185781212E+04  0.95000000000E+03 0.  0.
   -2000013    1    1    2    0    0 -0.70235571716E+03 -0.87921904179E+02 -0.10765853674E+04  0.16008028823E+04  0.95000000000E+03 0.  0.
<mgrwt>
<rscale>  0 0.24046173E+04</rscale>
<asrwt>0</asrwt>
<pdfrwt beam="2">  1        2 0.35191209E+00 0.24046173E+04</pdfrwt>
<pdfrwt beam="1">  1       -2 0.97223454E-01 0.24046173E+04</pdfrwt>
<totfact> 0.36565643E+00</totfact>
</mgrwt>
</event>
<event>
 4    1  0.1343107E-008  0.2506566E+04  0.7816531E-02  0.8400650E-01
         -2   -1    0    0    0  501 -0.00000000000E+00  0.00000000000E+00  0.12557016086E+04  0.12557016086E+04  0.00000000000E+00 0. -1.
          2   -1    0    0  501    0  0.00000000000E+00 -0.00000000000E+00 -0.12508689029E+04  0.12508689029E+04  0.00000000000E+00 0.  1.
    2000013    1    1    2    0    0  0.67392172111E+03 -0.42748720238E+03 -0.17450853369E+03  0.12529441419E+04  0.95000000000E+03 0.  0.
   -2000013    1    1    2    0    0 -0.67392172111E+03  0.42748720238E+03  0.17934123937E+03  0.12536263696E+04  0.95000000000E+03 0.  0.
<mgrwt>
<rscale>  0 0.25065659E+04</rscale>
<asrwt>0</asrwt>
<pdfrwt beam="2">  1        2 0.19244137E+00 0.25065659E+04</pdfrwt>
<pdfrwt beam="1">  1       -2 0.19318486E+00 0.25065659E+04</pdfrwt>
<totfact> 0.23240315E+00</totfact>
</mgrwt>
</event>
<event>
 4    1  0.1343107E-008  0.2587517E+04  0.7816531E-02  0.8372454E-01
         -2   -1    0    0    0  501 -0.00000000000E+00  0.00000000000E+00  0.10176314150E+04  0.10176314150E+04  0.00000000000E+00 0. -1.
          2   -1    0    0  501    0  0.00000000000E+00 -0.00000000000E+00 -0.16448110035E+04  0.16448110035E+04  0.00000000000E+00 0.  1.
    2000013    1    1    2    0    0  0.35254814146E+03  0.77590408002E+03 -0.53184989451E+03  0.13826357596E+04  0.95000000000E+03 0.  0.
   -2000013    1    1    2    0    0 -0.35254814146E+03 -0.77590408002E+03 -0.95329693973E+02  0.12798066588E+04  0.95000000000E+03 0.  0.
<mgrwt>
<rscale>  0 0.25875172E+04</rscale>
<asrwt>0</asrwt>
<pdfrwt beam="2">  1        2 0.25304784E+00 0.25875172E+04</pdfrwt>
<pdfrwt beam="1">  1       -2 0.15655868E+00 0.25875172E+04</pdfrwt>
<totfact> 0.24911377E+00</totfact>
</mgrwt>
</event>
<event>
 4    1  0.1343107E-008  0.2695246E+04  0.7816531E-02  0.8336549E-01
          4   -1    0    0  501    0  0.00000000000E+00  0.00000000000E+00  0.16604271256E+04  0.16604271256E+04  0.00000000000E+00 0.  1.
         -4   -1    0    0    0  501 -0.00000000000E+00 -0.00000000000E+00 -0.10937475727E+04  0.10937475727E+04  0.00000000000E+00 0. -1.
    2000013    1    1    2    0    0 -0.60618909544E+03  0.46117238394E+03  0.87341013400E+03  0.14984960625E+04  0.95000000000E+03 0.  0.
   -2000013    1    1    2    0    0  0.60618909544E+03 -0.46117238394E+03 -0.30673058102E+03  0.12556786358E+04  0.95000000000E+03 0.  0.
<mgrwt>
<rscale>  0 0.26952463E+04</rscale>
<asrwt>0</asrwt>
<pdfrwt beam="1">  1        4 0.25545033E+00 0.26952463E+04</pdfrwt>
<pdfrwt beam="2">  1       -4 0.16826886E+00 0.26952463E+04</pdfrwt>
<totfact> 0.22215621E-02</totfact>
</mgrwt>
</event>
<event>
 4    1  0.1343107E-008  0.2734091E+04  0.7816531E-02  0.8324028E-01
         -2   -1    0    0    0  501 -0.00000000000E+00  0.00000000000E+00  0.11594113288E+04  0.11594113288E+04  0.00000000000E+00 0. -1.
          2   -1    0    0  501    0  0.00000000000E+00 -0.00000000000E+00 -0.16118641215E+04  0.16118641215E+04  0.00000000000E+00 0.  1.
    2000013    1    1    2    0    0  0.73703875473E+03 -0.63235843254E+03 -0.38064735651E+03  0.14108492915E+04  0.95000000000E+03 0.  0.
   -2000013    1    1    2    0    0 -0.73703875473E+03  0.63235843254E+03 -0.71805436152E+02  0.13604261589E+04  0.95000000000E+03 0.  0.
<mgrwt>
<rscale>  0 0.27340911E+04</rscale>
<asrwt>0</asrwt>
<pdfrwt beam="2">  1        2 0.24797910E+00 0.27340911E+04</pdfrwt>
<pdfrwt beam="1">  1       -2 0.17837097E+00 0.27340911E+04</pdfrwt>
<totfact> 0.17884276E+00</totfact>
</mgrwt>
</event>
<event>
 4    1  0.1343107E-008  0.2037164E+04  0.7816531E-02  0.8589440E-01
          2   -1    0    0  501    0  0.00000000000E+00  0.00000000000E+00  0.31763250502E+04  0.31763250502E+04  0.00000000000E+00 0.  1.
         -2   -1    0    0    0  501 -0.00000000000E+00 -0.00000000000E+00 -0.32663823713E+03  0.32663823713E+03  0.00000000000E+00 0. -1.
    2000013    1    1    2    0    0  0.26467893664E+03 -0.18796749150E+03  0.11288919750E+04  0.15107229424E+04  0.95000000000E+03 0.  0.
   -2000013    1    1    2    0    0 -0.26467893664E+03  0.18796749150E+03  0.17207948380E+04  0.19922403449E+04  0.95000000000E+03 0.  0.
<mgrwt>
<rscale>  0 0.20371639E+04</rscale>
<asrwt>0</asrwt>
<pdfrwt beam="1">  1        2 0.48866537E+00 0.20371639E+04</pdfrwt>
<pdfrwt beam="2">  1       -2 0.50252039E-01 0.20371639E+04</pdfrwt>
<totfact> 0.46760014E+00</totfact>
</mgrwt>
</event>
<event>
 4    1  0.1343107E-008  0.2236125E+04  0.7816531E-02  0.8503541E-01
         -2   -1    0    0    0  501 -0.00000000000E+00  0.00000000000E+00  0.17564353616E+04  0.17564353616E+04  0.00000000000E+00 0. -1.
          2   -1    0    0  501    0  0.00000000000E+00 -0.00000000000E+00 -0.71170515462E+03  0.71170515462E+03  0.00000000000E+00 0.  1.
    2000013    1    1    2    0    0  0.27083612104E+03  0.49326598784E+03  0.71638976233E+03  0.13161982490E+04  0.95000000000E+03 0.  0.
   -2000013    1    1    2    0    0 -0.27083612104E+03 -0.49326598784E+03  0.32834044460E+03  0.11519422671E+04  0.95000000000E+03 0.  0.
<mgrwt>
<rscale>  0 0.22361253E+04</rscale>
<asrwt>0</asrwt>
<pdfrwt beam="2">  1        2 0.10949310E+00 0.22361253E+04</pdfrwt>
<pdfrwt beam="1">  1       -2 0.27022082E+00 0.22361253E+04</pdfrwt>
<totfact> 0.17665495E+00</totfact>
</mgrwt>
</event>
<event>
 4    1  0.1343107E-008  0.2413365E+04  0.7816531E-02  0.8434517E-01
         -2   -1    0    0    0  501 -0.00000000000E+00  0.00000000000E+00  0.79039450813E+03  0.79039450813E+03  0.00000000000E+00 0. -1.
          2   -1    0    0  501    0  0.00000000000E+00 -0.00000000000E+00 -0.18422224259E+04  0.18422224259E+04  0.00000000000E+00 0.  1.
    2000013    1    1    2    0    0  0.48979602255E+03  0.32820565701E+03 -0.10209760847E+04  0.15141041122E+04  0.95000000000E+03 0.  0.
   -2000013    1    1    2    0    0 -0.48979602255E+03 -0.32820565701E+03 -0.30851833059E+02  0.11185128218E+04  0.95000000000E+03 0.  0.
<mgrwt>
<rscale>  0 0.24133649E+04</rscale>
<asrwt>0</asrwt>
<pdfrwt beam="2">  1        2 0.28341883E+00 0.24133649E+04</pdfrwt>
<pdfrwt beam="1">  1       -2 0.12159916E+00 0.24133649E+04</pdfrwt>
<totfact> 0.37731706E+00</totfact>
</mgrwt>
</event>
<event>
 4    1  0.1343107E-008  0.2467341E+04  0.7816531E-02  0.8414714E-01
         -4   -1    0    0    0  501 -0.00000000000E+00  0.00000000000E+00  0.81194585272E+03  0.81194585272E+03  0.00000000000E+00 0. -1.
          4   -1    0    0  501    0  0.00000000000E+00 -0.00000000000E+00 -0.18744383686E+04  0.18744383686E+04  0.00000000000E+00 0.  1.
    2000013    1    1    2    0    0 -0.30473922316E+03 -0.64734778582E+03 -0.88825447329E+03  0.14843925220E+04  0.95000000000E+03 0.  0.
   -2000013    1    1    2    0    0  0.30473922316E+03  0.64734778582E+03 -0.17423804264E+03  0.12019916994E+04  0.95000000000E+03 0.  0.
<mgrwt>
<rscale>  0 0.24673406E+04</rscale>
<asrwt>0</asrwt>
<pdfrwt beam="2">  1        4 0.28837513E+00 0.24673406E+04</pdfrwt>
<pdfrwt beam="1">  1       -4 0.12491475E+00 0.24673406E+04</pdfrwt>
<totfact> 0.31174673E-02</totfact>
</mgrwt>
</event>
<event>
 4    1  0.1343107E-008  0.2229676E+04  0.7816531E-02  0.8506177E-01
         -2   -1    0    0    0  501 -0.00000000000E+00  0.00000000000E+00  0.36883937032E+03  0.36883937032E+03  0.00000000000E+00 0. -1.
          2   -1    0    0  501    0  0.00000000000E+00 -0.00000000000E+00 -0.33696620447E+04  0.33696620447E+04  0.00000000000E+00 0.  1.
    2000013    1    1    2    0    0  0.56446528188E+03  0.14596327618E+03 -0.15354898534E+04  0.18974075531E+04  0.95000000000E+03 0.  0.
   -2000013    1    1    2    0    0 -0.56446528188E+03 -0.14596327618E+03 -0.14653328210E+04  0.18410938620E+04  0.95000000000E+03 0.  0.
<mgrwt>
<rscale>  0 0.22296762E+04</rscale>
<asrwt>0</asrwt>
<pdfrwt beam="2">  1        2 0.51840955E+00 0.22296762E+04</pdfrwt>
<pdfrwt beam="1">  1       -2 0.56744518E-01 0.22296762E+04</pdfrwt>
<totfact> 0.26623164E+00</totfact>
</mgrwt>
</event>
<event>
 4    1  0.1343107E-008  0.2776315E+04  0.7816531E-02  0.8310659E-01
         -2   -1    0    0    0  501 -0.00000000000E+00  0.00000000000E+00  0.16920797572E+04  0.16920797572E+04  0.00000000000E+00 0. -1.
          2   -1    0    0  501    0  0.00000000000E+00 -0.00000000000E+00 -0.11388244302E+04  0.11388244302E+04  0.00000000000E+00 0.  1.
    2000013    1    1    2    0    0 -0.30809587260E+03 -0.96170147297E+03  0.34645015747E+03  0.14290977928E+04  0.95000000000E+03 0.  0.
   -2000013    1    1    2    0    0  0.30809587260E+03  0.96170147297E+03  0.20680516956E+03  0.14018063946E+04  0.95000000000E+03 0.  0.
<mgrwt>
<rscale>  0 0.27763154E+04</rscale>
<asrwt>0</asrwt>
<pdfrwt beam="2">  1        2 0.17520376E+00 0.27763154E+04</pdfrwt>
<pdfrwt beam="1">  1       -2 0.26031996E+00 0.27763154E+04</pdfrwt>
<totfact> 0.99860655E-01</totfact>
</mgrwt>
</event>
<event>
 4    1  0.1343107E-008  0.2615934E+04  0.7816531E-02  0.8362809E-01
          2   -1    0    0  501    0  0.00000000000E+00  0.00000000000E+00  0.12553063563E+04  0.12553063563E+04  0.00000000000E+00 0.  1.
         -2   -1    0    0    0  501 -0.00000000000E+00 -0.00000000000E+00 -0.13628367437E+04  0.13628367437E+04  0.00000000000E+00 0. -1.
    2000013    1    1    2    0    0  0.89118758001E+03  0.11745609506E+03 -0.70100432889E+02  0.13097424585E+04  0.95000000000E+03 0.  0.
   -2000013    1    1    2    0    0 -0.89118758001E+03 -0.11745609506E+03 -0.37429954440E+02  0.13084006414E+04  0.95000000000E+03 0.  0.
<mgrwt>
<rscale>  0 0.26159340E+04</rscale>
<asrwt>0</asrwt>
<pdfrwt beam="1">  1        2 0.19312406E+00 0.26159340E+04</pdfrwt>
<pdfrwt beam="2">  1       -2 0.20966719E+00 0.26159340E+04</pdfrwt>
<totfact> 0.17851781E+00</totfact>
</mgrwt>
</event>
<event>
 4    1  0.1343107E-008  0.1937633E+04  0.7816531E-02  0.8636348E-01
         -1   -1    0    0    0  501 -0.00000000000E+00  0.00000000000E+00  0.34751968125E+03  0.34751968125E+03  0.00000000000E+00 0. -1.
          1   -1    0    0  501    0  0.00000000000E+00 -0.00000000000E+00 -0.27008688342E+04  0.27008688342E+04  0.00000000000E+00 0.  1.
    2000013    1    1    2    0    0 -0.16483403092E+03 -0.91731978721E+02 -0.12125524529E+04  0.15518918985E+04  0.95000000000E+03 0.  0.
   -2000013    1    1    2    0    0  0.16483403092E+03  0.91731978721E+02 -0.11407967001E+04  0.14964966170E+04  0.95000000000E+03 0.  0.
<mgrwt>
<rscale>  0 0.19376327E+04</rscale>
<asrwt>0</asrwt>
<pdfrwt beam="2">  1        1 0.41551830E+00 0.19376327E+04</pdfrwt>
<pdfrwt beam="1">  1       -1 0.53464565E-01 0.19376327E+04</pdfrwt>
<totfact> 0.32296294E+00</totfact>
</mgrwt>
</event>
<event>
 4    1  0.1343107E-008  0.3183630E+04  0.7816531E-02  0.8193154E-01
         -2   -1    0    0    0  501 -0.00000000000E+00  0.00000000000E+00  0.21359947383E+04  0.21359947383E+04  0.00000000000E+00 0. -1.
          2   -1    0    0  501    0  0.00000000000E+00 -0.00000000000E+00 -0.11862736379E+04  0.11862736379E+04  0.00000000000E+00 0.  1.
    2000013    1    1    2    0    0  0.12563178525E+04 -0.18634656816E+03  0.33363554379E+03  0.16207628655E+04  0.95000000000E+03 0.  0.
   -2000013    1    1    2    0    0 -0.12563178525E+04  0.18634656816E+03  0.61608555660E+03  0.17015055108E+04  0.95000000000E+03 0.  0.
<mgrwt>
<rscale>  0 0.31836295E+04</rscale>
<asrwt>0</asrwt>
<pdfrwt beam="2">  1        2 0.18250364E+00 0.31836295E+04</pdfrwt>
<pdfrwt beam="1">  1       -2 0.32861458E+00 0.31836295E+04</pdfrwt>
<totfact> 0.34455969E-01</totfact>
</mgrwt>
</event>
<event>
 4    1  0.1343107E-008  0.2773865E+04  0.7816531E-02  0.8311428E-01
          2   -1    0    0  501    0  0.00000000000E+00  0.00000000000E+00  0.75393507633E+03  0.75393507633E+03  0.00000000000E+00 0.  1.
         -2   -1    0    0    0  501 -0.00000000000E+00 -0.00000000000E+00 -0.25513897833E+04  0.25513897833E+04  0.00000000000E+00 0. -1.
    2000013    1    1    2    0    0  0.42772533702E+03 -0.44117009096E+02 -0.19883609200E+04  0.22452114428E+04  0.95000000000E+03 0.  0.
   -2000013    1    1    2    0    0 -0.42772533702E+03  0.44117009096E+02  0.19090621305E+03  0.10601134169E+04  0.95000000000E+03 0.  0.
<mgrwt>
<rscale>  0 0.27738654E+04</rscale>
<asrwt>0</asrwt>
<pdfrwt beam="1">  1        2 0.11599001E+00 0.27738654E+04</pdfrwt>
<pdfrwt beam="2">  1       -2 0.39252151E+00 0.27738654E+04</pdfrwt>
<totfact> 0.26966742E-01</totfact>
</mgrwt>
</event>
<event>
 4    1  0.1343107E-008  0.2366683E+04  0.7816531E-02  0.8452083E-01
         -2   -1    0    0    0  501 -0.00000000000E+00  0.00000000000E+00  0.45033218556E+03  0.45033218556E+03  0.00000000000E+00 0. -1.
          2   -1    0    0  501    0  0.00000000000E+00 -0.00000000000E+00 -0.31094763308E+04  0.31094763308E+04  0.00000000000E+00 0.  1.
    2000013    1    1    2    0    0  0.62301124836E+03 -0.15305137529E+03 -0.17712589917E+04  0.21098403150E+04  0.95000000000E+03 0.  0.
   -2000013    1    1    2    0    0 -0.62301124836E+03  0.15305137529E+03 -0.88788515353E+03  0.14499682013E+04  0.95000000000E+03 0.  0.
<mgrwt>
<rscale>  0 0.23666831E+04</rscale>
<asrwt>0</asrwt>
<pdfrwt beam="2">  1        2 0.47838099E+00 0.23666831E+04</pdfrwt>
<pdfrwt beam="1">  1       -2 0.69281873E-01 0.23666831E+04</pdfrwt>
<totfact> 0.25461779E+00</totfact>
</mgrwt>
</event>
<event>
 4    1  0.1343107E-008  0.2434653E+04  0.7816531E-02  0.8426643E-01
         -2   -1    0    0    0  501 -0.00000000000E+00  0.00000000000E+00  0.96387916241E+03  0.96387916241E+03  0.00000000000E+00 0. -1.
          2   -1    0    0  501    0  0.00000000000E+00 -0.00000000000E+00 -0.15374170150E+04  0.15374170150E+04  0.00000000000E+00 0.  1.
    2000013    1    1    2    0    0  0.44670238289E+03  0.38949273544E+03 -0.77747957546E+03  0.13631662041E+04  0.95000000000E+03 0.  0.
   -2000013    1    1    2    0    0 -0.44670238289E+03 -0.38949273544E+03  0.20394172284E+03  0.11381299733E+04  0.95000000000E+03 0.  0.
<mgrwt>
<rscale>  0 0.24346533E+04</rscale>
<asrwt>0</asrwt>
<pdfrwt beam="2">  1        2 0.23652569E+00 0.24346533E+04</pdfrwt>
<pdfrwt beam="1">  1       -2 0.14828910E+00 0.24346533E+04</pdfrwt>
<totfact> 0.33493720E+00</totfact>
</mgrwt>
</event>
<event>
 4    1  0.1343107E-008  0.2251495E+04  0.7816531E-02  0.8497295E-01
          1   -1    0    0  501    0  0.00000000000E+00  0.00000000000E+00  0.24155237073E+04  0.24155237073E+04  0.00000000000E+00 0.  1.
         -1   -1    0    0    0  501 -0.00000000000E+00 -0.00000000000E+00 -0.52465102428E+03  0.52465102428E+03  0.00000000000E+00 0. -1.
    2000013    1    1    2    0    0  0.54289713239E+03 -0.26190987434E+03  0.99555392506E+03  0.15023187732E+04  0.95000000000E+03 0.  0.
   -2000013    1    1    2    0    0 -0.54289713239E+03  0.26190987434E+03  0.89531875791E+03  0.14378559583E+04  0.95000000000E+03 0.  0.
<mgrwt>
<rscale>  0 0.22514946E+04</rscale>
<asrwt>0</asrwt>
<pdfrwt beam="1">  1        1 0.37161902E+00 0.22514946E+04</pdfrwt>
<pdfrwt beam="2">  1       -1 0.80715544E-01 0.22514946E+04</pdfrwt>
<totfact> 0.21530223E+00</totfact>
</mgrwt>
</event>
<event>
 4    1  0.1343107E-008  0.2679289E+04  0.7816531E-02  0.8341756E-01
         -2   -1    0    0    0  501 -0.00000000000E+00  0.00000000000E+00  0.11389510699E+04  0.11389510699E+04  0.00000000000E+00 0. -1.
          2   -1    0    0  501    0  0.00000000000E+00 -0.00000000000E+00 -0.15757018224E+04  0.15757018224E+04  0.00000000000E+00 0.  1.
    2000013    1    1    2    0    0 -0.58624815599E+03  0.39785785631E+03  0.41450469254E+03  0.12555046453E+04  0.95000000000E+03 0.  0.
   -2000013    1    1    2    0    0  0.58624815599E+03 -0.39785785631E+03 -0.85125544502E+03  0.14591482471E+04  0.95000000000E+03 0.  0.
<mgrwt>
<rscale>  0 0.26792889E+04</rscale>
<asrwt>0</asrwt>
<pdfrwt beam="2">  1        2 0.24241566E+00 0.26792889E+04</pdfrwt>
<pdfrwt beam="1">  1       -2 0.17522324E+00 0.26792889E+04</pdfrwt>
<totfact> 0.19800135E+00</totfact>
</mgrwt>
</event>
<event>
 4    1  0.1343107E-008  0.2544684E+04  0.7816531E-02  0.8387237E-01
         -2   -1    0    0    0  501 -0.00000000000E+00  0.00000000000E+00  0.76091609096E+03  0.76091609096E+03  0.00000000000E+00 0. -1.
          2   -1    0    0  501    0  0.00000000000E+00 -0.00000000000E+00 -0.21275065382E+04  0.21275065382E+04  0.00000000000E+00 0.  1.
    2000013    1    1    2    0    0  0.41427871065E+03  0.50420920435E+03 -0.71508405438E+02  0.11547585132E+04  0.95000000000E+03 0.  0.
   -2000013    1    1    2    0    0 -0.41427871065E+03 -0.50420920435E+03 -0.12950820418E+04  0.17336641159E+04  0.95000000000E+03 0.  0.
<mgrwt>
<rscale>  0 0.25446838E+04</rscale>
<asrwt>0</asrwt>
<pdfrwt beam="2">  1        2 0.32730870E+00 0.25446838E+04</pdfrwt>
<pdfrwt beam="1">  1       -2 0.11706401E+00 0.25446838E+04</pdfrwt>
<totfact> 0.28447101E+00</totfact>
</mgrwt>
</event>
<event>
 4    1  0.1343107E-008  0.2632086E+04  0.7816531E-02  0.8357383E-01
         -2   -1    0    0    0  501 -0.00000000000E+00  0.00000000000E+00  0.68019588866E+03  0.68019588866E+03  0.00000000000E+00 0. -1.
          2   -1    0    0  501    0  0.00000000000E+00 -0.00000000000E+00 -0.25462806668E+04  0.25462806668E+04  0.00000000000E+00 0.  1.
    2000013    1    1    2    0    0 -0.34974667377E+03 -0.56858423277E+03 -0.17356618029E+03  0.11739829575E+04  0.95000000000E+03 0.  0.
   -2000013    1    1    2    0    0  0.34974667377E+03  0.56858423277E+03 -0.16925185978E+04  0.20524935979E+04  0.95000000000E+03 0.  0.
<mgrwt>
<rscale>  0 0.26320864E+04</rscale>
<asrwt>0</asrwt>
<pdfrwt beam="2">  1        2 0.39173549E+00 0.26320864E+04</pdfrwt>
<pdfrwt beam="1">  1       -2 0.10464552E+00 0.26320864E+04</pdfrwt>
<totfact> 0.21385977E+00</totfact>
</mgrwt>
</event>
<event>
 4    1  0.1343107E-008  0.2405410E+04  0.7816531E-02  0.8437481E-01
         -2   -1    0    0    0  501 -0.00000000000E+00  0.00000000000E+00  0.47003289976E+03  0.47003289976E+03  0.00000000000E+00 0. -1.
          2   -1    0    0  501    0  0.00000000000E+00 -0.00000000000E+00 -0.30774415390E+04  0.30774415390E+04  0.00000000000E+00 0.  1.
    2000013    1    1    2    0    0 -0.71412731099E+03 -0.22004222270E+02 -0.10336252990E+04  0.15752280028E+04  0.95000000000E+03 0.  0.
   -2000013    1    1    2    0    0  0.71412731099E+03  0.22004222270E+02 -0.15737833402E+04  0.19722464359E+04  0.95000000000E+03 0.  0.
<mgrwt>
<rscale>  0 0.24054095E+04</rscale>
<asrwt>0</asrwt>
<pdfrwt beam="2">  1        2 0.47345254E+00 0.24054095E+04</pdfrwt>
<pdfrwt beam="1">  1       -2 0.72312754E-01 0.24054095E+04</pdfrwt>
<totfact> 0.24216966E+00</totfact>
</mgrwt>
</event>
<event>
 4    1  0.1343107E-008  0.2338019E+04  0.7816531E-02  0.8463080E-01
         -2   -1    0    0    0  501 -0.00000000000E+00  0.00000000000E+00  0.48961105741E+03  0.48961105741E+03  0.00000000000E+00 0.  1.
          2   -1    0    0  501    0  0.00000000000E+00 -0.00000000000E+00 -0.27911612105E+04  0.27911612105E+04  0.00000000000E+00 0. -1.
    2000013    1    1    2    0    0 -0.66983328944E+03  0.81173093854E+02 -0.12825416664E+04  0.17328239475E+04  0.95000000000E+03 0.  0.
   -2000013    1    1    2    0    0  0.66983328944E+03 -0.81173093854E+02 -0.10190084866E+04  0.15479483204E+04  0.95000000000E+03 0.  0.
<mgrwt>
<rscale>  0 0.23380192E+04</rscale>
<asrwt>0</asrwt>
<pdfrwt beam="2">  1        2 0.42940941E+00 0.23380192E+04</pdfrwt>
<pdfrwt beam="1">  1       -2 0.75324779E-01 0.23380192E+04</pdfrwt>
<totfact> 0.33472384E+00</totfact>
</mgrwt>
</event>
<event>
 4    1  0.1343107E-008  0.2241629E+04  0.7816531E-02  0.8501298E-01
         -2   -1    0    0    0  501 -0.00000000000E+00  0.00000000000E+00  0.10608289277E+04  0.10608289277E+04  0.00000000000E+00 0. -1.
          2   -1    0    0  501    0  0.00000000000E+00 -0.00000000000E+00 -0.11841915322E+04  0.11841915322E+04  0.00000000000E+00 0.  1.
    2000013    1    1    2    0    0 -0.18421017304E+03  0.55045437595E+03 -0.19145833831E+03  0.11296414047E+04  0.95000000000E+03 0.  0.
   -2000013    1    1    2    0    0  0.18421017304E+03 -0.55045437595E+03  0.68095733804E+02  0.11153790552E+04  0.95000000000E+03 0.  0.
<mgrwt>
<rscale>  0 0.22416285E+04</rscale>
<asrwt>0</asrwt>
<pdfrwt beam="2">  1        2 0.18218331E+00 0.22416285E+04</pdfrwt>
<pdfrwt beam="1">  1       -2 0.16320445E+00 0.22416285E+04</pdfrwt>
<totfact> 0.42076646E+00</totfact>
</mgrwt>
</event>
<event>
 4    1  0.1343107E-008  0.2765100E+04  0.7816531E-02  0.8314186E-01
          2   -1    0    0  501    0  0.00000000000E+00  0.00000000000E+00  0.13968813985E+04  0.13968813985E+04  0.00000000000E+00 0.  1.
         -2   -1    0    0    0  501 -0.00000000000E+00 -0.00000000000E+00 -0.13683652772E+04  0.13683652772E+04  0.00000000000E+00 0. -1.
    2000013    1    1    2    0    0 -0.15860819098E+03  0.76035263178E+03 -0.62268342985E+03  0.13760549904E+04  0.95000000000E+03 0.  0.
   -2000013    1    1    2    0    0  0.15860819098E+03 -0.76035263178E+03  0.65119955117E+03  0.13891916852E+04  0.95000000000E+03 0.  0.
<mgrwt>
<rscale>  0 0.27650996E+04</rscale>
<asrwt>0</asrwt>
<pdfrwt beam="1">  1        2 0.21490483E+00 0.27650996E+04</pdfrwt>
<pdfrwt beam="2">  1       -2 0.21051774E+00 0.27650996E+04</pdfrwt>
<totfact> 0.14409463E+00</totfact>
</mgrwt>
</event>
<event>
 4    1  0.1343107E-008  0.4176615E+04  0.7816531E-02  0.7969835E-01
         -2   -1    0    0    0  501 -0.00000000000E+00  0.00000000000E+00  0.12899977507E+04  0.12899977507E+04  0.00000000000E+00 0. -1.
          2   -1    0    0  501    0  0.00000000000E+00 -0.00000000000E+00 -0.33806482705E+04  0.33806482705E+04  0.00000000000E+00 0.  1.
    2000013    1    1    2    0    0 -0.16212612156E+04  0.55709839112E+03 -0.18514854994E+04  0.26961723055E+04  0.95000000000E+03 0.  0.
   -2000013    1    1    2    0    0  0.16212612156E+04 -0.55709839112E+03 -0.23916502048E+03  0.19744737156E+04  0.95000000000E+03 0.  0.
<mgrwt>
<rscale>  0 0.41766152E+04</rscale>
<asrwt>0</asrwt>
<pdfrwt beam="2">  1        2 0.52009973E+00 0.41766152E+04</pdfrwt>
<pdfrwt beam="1">  1       -2 0.19846120E+00 0.41766152E+04</pdfrwt>
<totfact> 0.10390646E-01</totfact>
</mgrwt>
</event>
<event>
 4    1  0.1343107E-008  0.2457858E+04  0.7816531E-02  0.8418154E-01
          3   -1    0    0  501    0  0.00000000000E+00  0.00000000000E+00  0.14375575445E+04  0.14375575445E+04  0.00000000000E+00 0.  1.
         -3   -1    0    0    0  501 -0.00000000000E+00 -0.00000000000E+00 -0.10505782260E+04  0.10505782260E+04  0.00000000000E+00 0. -1.
    2000013    1    1    2    0    0  0.50247638372E+03  0.16838020061E+03 -0.38533382333E+03  0.11540435709E+04  0.95000000000E+03 0.  0.
   -2000013    1    1    2    0    0 -0.50247638372E+03 -0.16838020061E+03  0.77231314181E+03  0.13340921996E+04  0.95000000000E+03 0.  0.
<mgrwt>
<rscale>  0 0.24578581E+04</rscale>
<asrwt>0</asrwt>
<pdfrwt beam="1">  1        3 0.22116270E+00 0.24578581E+04</pdfrwt>
<pdfrwt beam="2">  1       -3 0.16162742E+00 0.24578581E+04</pdfrwt>
<totfact> 0.67416333E-02</totfact>
</mgrwt>
</event>
<event>
 4    1  0.1343107E-008  0.2567643E+04  0.7816531E-02  0.8379276E-01
         -2   -1    0    0    0  501 -0.00000000000E+00  0.00000000000E+00  0.95728392251E+03  0.95728392251E+03  0.00000000000E+00 0. -1.
          2   -1    0    0  501    0  0.00000000000E+00 -0.00000000000E+00 -0.17217442705E+04  0.17217442705E+04  0.00000000000E+00 0.  1.
    2000013    1    1    2    0    0  0.21773364971E+03 -0.42503139284E+03  0.36845157972E+03  0.11253071553E+04  0.95000000000E+03 0.  0.
   -2000013    1    1    2    0    0 -0.21773364971E+03  0.42503139284E+03 -0.11329119277E+04  0.15537210377E+04  0.95000000000E+03 0.  0.
<mgrwt>
<rscale>  0 0.25676434E+04</rscale>
<asrwt>0</asrwt>
<pdfrwt beam="2">  1        2 0.26488373E+00 0.25676434E+04</pdfrwt>
<pdfrwt beam="1">  1       -2 0.14727445E+00 0.25676434E+04</pdfrwt>
<totfact> 0.26609106E+00</totfact>
</mgrwt>
</event>
<event>
 4    1  0.1343107E-008  0.2554511E+04  0.7816531E-02  0.8383819E-01
          2   -1    0    0  501    0  0.00000000000E+00  0.00000000000E+00  0.10200425593E+04  0.10200425593E+04  0.00000000000E+00 0.  1.
         -2   -1    0    0    0  501 -0.00000000000E+00 -0.00000000000E+00 -0.15993276206E+04  0.15993276206E+04  0.00000000000E+00 0. -1.
    2000013    1    1    2    0    0  0.79343864199E+03  0.23641972361E+03 -0.75920497196E+02  0.12624195365E+04  0.95000000000E+03 0.  0.
   -2000013    1    1    2    0    0 -0.79343864199E+03 -0.23641972361E+03 -0.50336456409E+03  0.13569506434E+04  0.95000000000E+03 0.  0.
<mgrwt>
<rscale>  0 0.25545115E+04</rscale>
<asrwt>0</asrwt>
<pdfrwt beam="1">  1        2 0.15692962E+00 0.25545115E+04</pdfrwt>
<pdfrwt beam="2">  1       -2 0.24605040E+00 0.25545115E+04</pdfrwt>
<totfact> 0.14755675E+00</totfact>
</mgrwt>
</event>
<event>
 4    1  0.1343107E-008  0.3142767E+04  0.7816531E-02  0.8204098E-01
         -2   -1    0    0    0  501 -0.00000000000E+00  0.00000000000E+00  0.11898277967E+04  0.11898277967E+04  0.00000000000E+00 0. -1.
          2   -1    0    0  501    0  0.00000000000E+00 -0.00000000000E+00 -0.20752967085E+04  0.20752967085E+04  0.00000000000E+00 0.  1.
    2000013    1    1    2    0    0  0.15982660896E+03 -0.99918276918E+03 -0.12081926936E+04  0.18401468246E+04  0.95000000000E+03 0.  0.
   -2000013    1    1    2    0    0 -0.15982660896E+03  0.99918276918E+03  0.32272378175E+03  0.14249776807E+04  0.95000000000E+03 0.  0.
<mgrwt>
<rscale>  0 0.31427667E+04</rscale>
<asrwt>0</asrwt>
<pdfrwt beam="2">  1        2 0.31927641E+00 0.31427667E+04</pdfrwt>
<pdfrwt beam="1">  1       -2 0.18305043E+00 0.31427667E+04</pdfrwt>
<totfact> 0.88666192E-01</totfact>
</mgrwt>
</event>
<event>
 4    1  0.1343107E-008  0.1951637E+04  0.7816531E-02  0.8629572E-01
         -2   -1    0    0    0  501 -0.00000000000E+00  0.00000000000E+00  0.79503972573E+03  0.79503972573E+03  0.00000000000E+00 0. -1.
          2   -1    0    0  501    0  0.00000000000E+00 -0.00000000000E+00 -0.11977028675E+04  0.11977028675E+04  0.00000000000E+00 0.  1.
    2000013    1    1    2    0    0 -0.21793846601E+03 -0.45891777133E+02 -0.21242921434E+03  0.99861373978E+03  0.95000000000E+03 0.  0.
   -2000013    1    1    2    0    0  0.21793846601E+03  0.45891777133E+02 -0.19023392745E+03  0.99412885348E+03  0.95000000000E+03 0.  0.
<mgrwt>
<rscale>  0 0.19516366E+04</rscale>
<asrwt>0</asrwt>
<pdfrwt beam="2">  1        2 0.18426198E+00 0.19516366E+04</pdfrwt>
<pdfrwt beam="1">  1       -2 0.12231381E+00 0.19516366E+04</pdfrwt>
<totfact> 0.89741309E+00</totfact>
</mgrwt>
</event>
<event>
 4    1  0.1343107E-008  0.2124421E+04  0.7816531E-02  0.8550562E-01
         -2   -1    0    0    0  501 -0.00000000000E+00  0.00000000000E+00  0.87850267366E+03  0.87850267366E+03  0.00000000000E+00 0. -1.
          2   -1    0    0  501    0  0.00000000000E+00 -0.00000000000E+00 -0.12843337612E+04  0.12843337612E+04  0.00000000000E+00 0.  1.
    2000013    1    1    2    0    0 -0.54713513621E+02 -0.39533995454E+03 -0.46546135624E+03  0.11306818838E+04  0.95000000000E+03 0.  0.
   -2000013    1    1    2    0    0  0.54713513621E+02  0.39533995454E+03  0.59630268726E+02  0.10321545510E+04  0.95000000000E+03 0.  0.
<mgrwt>
<rscale>  0 0.21244205E+04</rscale>
<asrwt>0</asrwt>
<pdfrwt beam="2">  1        2 0.19758981E+00 0.21244205E+04</pdfrwt>
<pdfrwt beam="1">  1       -2 0.13515426E+00 0.21244205E+04</pdfrwt>
<totfact> 0.61092683E+00</totfact>
</mgrwt>
</event>
<event>
 4    1  0.1343107E-008  0.2410188E+04  0.7816531E-02  0.8435699E-01
          1   -1    0    0  501    0  0.00000000000E+00  0.00000000000E+00  0.13175385036E+04  0.13175385036E+04  0.00000000000E+00 0.  1.
         -1   -1    0    0    0  501 -0.00000000000E+00 -0.00000000000E+00 -0.11022459091E+04  0.11022459091E+04  0.00000000000E+00 0. -1.
    2000013    1    1    2    0    0 -0.37658330831E+03  0.51076706946E+03 -0.27735603919E+03  0.11756378523E+04  0.95000000000E+03 0.  0.
   -2000013    1    1    2    0    0  0.37658330831E+03 -0.51076706946E+03  0.49264863370E+03  0.12441465603E+04  0.95000000000E+03 0.  0.
<mgrwt>
<rscale>  0 0.24101879E+04</rscale>
<asrwt>0</asrwt>
<pdfrwt beam="1">  1        1 0.20269823E+00 0.24101879E+04</pdfrwt>
<pdfrwt beam="2">  1       -1 0.16957629E+00 0.24101879E+04</pdfrwt>
<totfact> 0.19502391E+00</totfact>
</mgrwt>
</event>
<event>
 4    1  0.1343107E-008  0.2151173E+04  0.7816531E-02  0.8539030E-01
         -2   -1    0    0    0  501 -0.00000000000E+00  0.00000000000E+00  0.17341822338E+04  0.17341822338E+04  0.00000000000E+00 0. -1.
          2   -1    0    0  501    0  0.00000000000E+00 -0.00000000000E+00 -0.66710754198E+03  0.66710754198E+03  0.00000000000E+00 0.  1.
    2000013    1    1    2    0    0  0.28087021817E+03  0.19426503237E+03  0.94785112568E+03  0.13847558408E+04  0.95000000000E+03 0.  0.
   -2000013    1    1    2    0    0 -0.28087021817E+03 -0.19426503237E+03  0.11922356617E+03  0.10165339350E+04  0.95000000000E+03 0.  0.
<mgrwt>
<rscale>  0 0.21511727E+04</rscale>
<asrwt>0</asrwt>
<pdfrwt beam="2">  1        2 0.10263193E+00 0.21511727E+04</pdfrwt>
<pdfrwt beam="1">  1       -2 0.26679727E+00 0.21511727E+04</pdfrwt>
<totfact> 0.20255513E+00</totfact>
</mgrwt>
</event>
<event>
 4    1  0.1343107E-008  0.3074583E+04  0.7816531E-02  0.8222748E-01
          1   -1    0    0  501    0  0.00000000000E+00  0.00000000000E+00  0.17965991731E+04  0.17965991731E+04  0.00000000000E+00 0.  1.
         -1   -1    0    0    0  501 -0.00000000000E+00 -0.00000000000E+00 -0.13154101919E+04  0.13154101919E+04  0.00000000000E+00 0. -1.
    2000013    1    1    2    0    0  0.11398626217E+03  0.99651569978E+03  0.92313866835E+03  0.16615418770E+04  0.95000000000E+03 0.  0.
   -2000013    1    1    2    0    0 -0.11398626217E+03 -0.99651569978E+03 -0.44194968720E+03  0.14504674881E+04  0.95000000000E+03 0.  0.
<mgrwt>
<rscale>  0 0.30745828E+04</rscale>
<asrwt>0</asrwt>
<pdfrwt beam="1">  1        1 0.27639987E+00 0.30745828E+04</pdfrwt>
<pdfrwt beam="2">  1       -1 0.20237080E+00 0.30745828E+04</pdfrwt>
<totfact> 0.50207607E-01</totfact>
</mgrwt>
</event>
<event>
 4    1  0.1343107E-008  0.2285472E+04  0.7816531E-02  0.8483671E-01
         -2   -1    0    0    0  501 -0.00000000000E+00  0.00000000000E+00  0.10451214061E+04  0.10451214061E+04  0.00000000000E+00 0. -1.
          2   -1    0    0  501    0  0.00000000000E+00 -0.00000000000E+00 -0.12494680049E+04  0.12494680049E+04  0.00000000000E+00 0.  1.
    2000013    1    1    2    0    0  0.38855948748E+03  0.46663838365E+03  0.84622399819E+02  0.11306594567E+04  0.95000000000E+03 0.  0.
   -2000013    1    1    2    0    0 -0.38855948748E+03 -0.46663838365E+03 -0.28896899857E+03  0.11639299543E+04  0.95000000000E+03 0.  0.
<mgrwt>
<rscale>  0 0.22854722E+04</rscale>
<asrwt>0</asrwt>
<pdfrwt beam="2">  1        2 0.19222585E+00 0.22854722E+04</pdfrwt>
<pdfrwt beam="1">  1       -2 0.16078791E+00 0.22854722E+04</pdfrwt>
<totfact> 0.39934839E+00</totfact>
</mgrwt>
</event>
<event>
 4    1  0.1343107E-008  0.3547269E+04  0.7816531E-02  0.8102678E-01
          2   -1    0    0  501    0  0.00000000000E+00  0.00000000000E+00  0.33674985328E+04  0.33674985328E+04  0.00000000000E+00 0.  1.
         -2   -1    0    0    0  501 -0.00000000000E+00 -0.00000000000E+00 -0.93415926032E+03  0.93415926032E+03  0.00000000000E+00 0. -1.
    2000013    1    1    2    0    0  0.14626510584E+04 -0.12668954861E+03  0.85717648812E+03  0.19474726935E+04  0.95000000000E+03 0.  0.
   -2000013    1    1    2    0    0 -0.14626510584E+04  0.12668954861E+03  0.15761627844E+04  0.23541850996E+04  0.95000000000E+03 0.  0.
<mgrwt>
<rscale>  0 0.35472693E+04</rscale>
<asrwt>0</asrwt>
<pdfrwt beam="1">  1        2 0.51807669E+00 0.35472693E+04</pdfrwt>
<pdfrwt beam="2">  1       -2 0.14371681E+00 0.35472693E+04</pdfrwt>
<totfact> 0.27506303E-01</totfact>
</mgrwt>
</event>
<event>
 4    1  0.1343107E-008  0.2927237E+04  0.7816531E-02  0.8264820E-01
          2   -1    0    0  501    0  0.00000000000E+00  0.00000000000E+00  0.17257627190E+04  0.17257627190E+04  0.00000000000E+00 0.  1.
         -2   -1    0    0    0  501 -0.00000000000E+00 -0.00000000000E+00 -0.12412940273E+04  0.12412940273E+04  0.00000000000E+00 0. -1.
    2000013    1    1    2    0    0 -0.97860115938E+03  0.49308612878E+03  0.44210907811E+03  0.15161644358E+04  0.95000000000E+03 0.  0.
   -2000013    1    1    2    0    0  0.97860115938E+03 -0.49308612878E+03  0.42359613556E+02  0.14508923104E+04  0.95000000000E+03 0.  0.
<mgrwt>
<rscale>  0 0.29272369E+04</rscale>
<asrwt>0</asrwt>
<pdfrwt beam="1">  1        2 0.26550196E+00 0.29272369E+04</pdfrwt>
<pdfrwt beam="2">  1       -2 0.19096831E+00 0.29272369E+04</pdfrwt>
<totfact> 0.12478571E+00</totfact>
</mgrwt>
</event>
<event>
 4    1  0.1343107E-008  0.2704821E+04  0.7816531E-02  0.8333442E-01
          2   -1    0    0  501    0  0.00000000000E+00  0.00000000000E+00  0.19641468568E+04  0.19641468568E+04  0.00000000000E+00 0.  1.
         -2   -1    0    0    0  501 -0.00000000000E+00 -0.00000000000E+00 -0.93120033133E+03  0.93120033133E+03  0.00000000000E+00 0. -1.
    2000013    1    1    2    0    0  0.51370626972E+03  0.45673521741E+03  0.12377405981E+04  0.17049935421E+04  0.95000000000E+03 0.  0.
   -2000013    1    1    2    0    0 -0.51370626972E+03 -0.45673521741E+03 -0.20479407267E+03  0.11903536460E+04  0.95000000000E+03 0.  0.
<mgrwt>
<rscale>  0 0.27048210E+04</rscale>
<asrwt>0</asrwt>
<pdfrwt beam="1">  1        2 0.30217644E+00 0.27048210E+04</pdfrwt>
<pdfrwt beam="2">  1       -2 0.14326159E+00 0.27048210E+04</pdfrwt>
<totfact> 0.20748898E+00</totfact>
</mgrwt>
</event>
<event>
 4    1  0.1343107E-008  0.2921830E+04  0.7816531E-02  0.8266412E-01
         -2   -1    0    0    0  501 -0.00000000000E+00  0.00000000000E+00  0.12601964250E+04  0.12601964250E+04  0.00000000000E+00 0. -1.
          2   -1    0    0  501    0  0.00000000000E+00 -0.00000000000E+00 -0.16936027771E+04  0.16936027771E+04  0.00000000000E+00 0.  1.
    2000013    1    1    2    0    0 -0.37234676513E+03  0.10214252430E+04  0.89441653278E+01  0.14437907184E+04  0.95000000000E+03 0.  0.
   -2000013    1    1    2    0    0  0.37234676513E+03 -0.10214252430E+04 -0.44235051751E+03  0.15100084837E+04  0.95000000000E+03 0.  0.
<mgrwt>
<rscale>  0 0.29218297E+04</rscale>
<asrwt>0</asrwt>
<pdfrwt beam="2">  1        2 0.26055427E+00 0.29218297E+04</pdfrwt>
<pdfrwt beam="1">  1       -2 0.19387637E+00 0.29218297E+04</pdfrwt>
<totfact> 0.12439568E+00</totfact>
</mgrwt>
</event>
<event>
 4    1  0.1343107E-008  0.2347031E+04  0.7816531E-02  0.8459605E-01
         -1   -1    0    0    0  501 -0.00000000000E+00  0.00000000000E+00  0.88312821579E+03  0.88312821579E+03  0.00000000000E+00 0. -1.
          1   -1    0    0  501    0  0.00000000000E+00 -0.00000000000E+00 -0.15593870670E+04  0.15593870670E+04  0.00000000000E+00 0.  1.
    2000013    1    1    2    0    0  0.14136730951E+03 -0.55241800797E+03 -0.74049620685E+03  0.13326608736E+04  0.95000000000E+03 0.  0.
   -2000013    1    1    2    0    0 -0.14136730951E+03  0.55241800797E+03  0.64237355627E+02  0.11098544092E+04  0.95000000000E+03 0.  0.
<mgrwt>
<rscale>  0 0.23470311E+04</rscale>
<asrwt>0</asrwt>
<pdfrwt beam="2">  1        1 0.23990570E+00 0.23470311E+04</pdfrwt>
<pdfrwt beam="1">  1       -1 0.13586588E+00 0.23470311E+04</pdfrwt>
<totfact> 0.24276486E+00</totfact>
</mgrwt>
</event>
<event>
 4    1  0.1343107E-008  0.3657683E+04  0.7816531E-02  0.8077405E-01
         -2   -1    0    0    0  501 -0.00000000000E+00  0.00000000000E+00  0.16159772365E+04  0.16159772365E+04  0.00000000000E+00 0. -1.
          2   -1    0    0  501    0  0.00000000000E+00 -0.00000000000E+00 -0.20697455279E+04  0.20697455279E+04  0.00000000000E+00 0.  1.
    2000013    1    1    2    0    0 -0.81729002007E+03  0.96549513555E+03 -0.11515338095E+04  0.19566997593E+04  0.95000000000E+03 0.  0.
   -2000013    1    1    2    0    0  0.81729002007E+03 -0.96549513555E+03  0.69776551814E+03  0.17290230050E+04  0.95000000000E+03 0.  0.
<mgrwt>
<rscale>  0 0.36576832E+04</rscale>
<asrwt>0</asrwt>
<pdfrwt beam="2">  1        2 0.31842239E+00 0.36576832E+04</pdfrwt>
<pdfrwt beam="1">  1       -2 0.24861188E+00 0.36576832E+04</pdfrwt>
<totfact> 0.32481516E-01</totfact>
</mgrwt>
</event>
<event>
 4    1  0.1343107E-008  0.2645450E+04  0.7816531E-02  0.8352925E-01
          2   -1    0    0  501    0  0.00000000000E+00  0.00000000000E+00  0.35410830392E+04  0.35410830392E+04  0.00000000000E+00 0.  1.
         -2   -1    0    0    0  501 -0.00000000000E+00 -0.00000000000E+00 -0.49408636192E+03  0.49408636192E+03  0.00000000000E+00 0. -1.
    2000013    1    1    2    0    0  0.61130380647E+03 -0.54298655300E+03  0.87892621872E+03  0.15308618613E+04  0.95000000000E+03 0.  0.
   -2000013    1    1    2    0    0 -0.61130380647E+03  0.54298655300E+03  0.21680704585E+04  0.25043075398E+04  0.95000000000E+03 0.  0.
<mgrwt>
<rscale>  0 0.26454496E+04</rscale>
<asrwt>0</asrwt>
<pdfrwt beam="1">  1        2 0.54478199E+00 0.26454496E+04</pdfrwt>
<pdfrwt beam="2">  1       -2 0.76013289E-01 0.26454496E+04</pdfrwt>
<totfact> 0.10393948E+00</totfact>
</mgrwt>
</event>
<event>
 4    1  0.1343107E-008  0.2316746E+04  0.7816531E-02  0.8471348E-01
          2   -1    0    0  501    0  0.00000000000E+00  0.00000000000E+00  0.20806403910E+04  0.20806403910E+04  0.00000000000E+00 0.  1.
         -2   -1    0    0    0  501 -0.00000000000E+00 -0.00000000000E+00 -0.64491082951E+03  0.64491082951E+03  0.00000000000E+00 0. -1.
    2000013    1    1    2    0    0  0.12108486305E+03  0.64727751873E+03  0.80666810621E+03  0.14095542430E+04  0.95000000000E+03 0.  0.
   -2000013    1    1    2    0    0 -0.12108486305E+03 -0.64727751873E+03  0.62906145523E+03  0.13159969775E+04  0.95000000000E+03 0.  0.
<mgrwt>
<rscale>  0 0.23167456E+04</rscale>
<asrwt>0</asrwt>
<pdfrwt beam="1">  1        2 0.32009852E+00 0.23167456E+04</pdfrwt>
<pdfrwt beam="2">  1       -2 0.99217052E-01 0.23167456E+04</pdfrwt>
<totfact> 0.45893060E+00</totfact>
</mgrwt>
</event>
<event>
 4    1  0.1343107E-008  0.2387924E+04  0.7816531E-02  0.8444039E-01
         -2   -1    0    0    0  501 -0.00000000000E+00  0.00000000000E+00  0.48608113402E+03  0.48608113402E+03  0.00000000000E+00 0. -1.
          2   -1    0    0  501    0  0.00000000000E+00 -0.00000000000E+00 -0.29327299515E+04  0.29327299515E+04  0.00000000000E+00 0.  1.
    2000013    1    1    2    0    0  0.27281166365E+02 -0.43801891903E+03 -0.40032237964E+03  0.11204297582E+04  0.95000000000E+03 0.  0.
   -2000013    1    1    2    0    0 -0.27281166365E+02  0.43801891903E+03 -0.20463264378E+04  0.22983813273E+04  0.95000000000E+03 0.  0.
<mgrwt>
<rscale>  0 0.23879235E+04</rscale>
<asrwt>0</asrwt>
<pdfrwt beam="2">  1        2 0.45118922E+00 0.23879235E+04</pdfrwt>
<pdfrwt beam="1">  1       -2 0.74781713E-01 0.23879235E+04</pdfrwt>
<totfact> 0.27752242E+00</totfact>
</mgrwt>
</event>
<event>
 4    1  0.1343107E-008  0.3359914E+04  0.7816531E-02  0.8147815E-01
         -1   -1    0    0    0  501 -0.00000000000E+00  0.00000000000E+00  0.22900827495E+04  0.22900827495E+04  0.00000000000E+00 0. -1.
          1   -1    0    0  501    0  0.00000000000E+00 -0.00000000000E+00 -0.12323815515E+04  0.12323815515E+04  0.00000000000E+00 0.  1.
    2000013    1    1    2    0    0 -0.13046721109E+04  0.89568924672E+02  0.10087791412E+04  0.19053417711E+04  0.95000000000E+03 0.  0.
   -2000013    1    1    2    0    0  0.13046721109E+04 -0.89568924672E+02  0.48922056799E+02  0.16171225299E+04  0.95000000000E+03 0.  0.
<mgrwt>
<rscale>  0 0.33599141E+04</rscale>
<asrwt>0</asrwt>
<pdfrwt beam="2">  1        1 0.18959716E+00 0.33599141E+04</pdfrwt>
<pdfrwt beam="1">  1       -1 0.35232042E+00 0.33599141E+04</pdfrwt>
<totfact> 0.12521885E-01</totfact>
</mgrwt>
</event>
<event>
 4    1  0.1343107E-008  0.4050117E+04  0.7816531E-02  0.7994512E-01
          2   -1    0    0  501    0  0.00000000000E+00  0.00000000000E+00  0.24860743131E+04  0.24860743131E+04  0.00000000000E+00 0.  1.
         -2   -1    0    0    0  501 -0.00000000000E+00 -0.00000000000E+00 -0.16495333664E+04  0.16495333664E+04  0.00000000000E+00 0. -1.
    2000013    1    1    2    0    0 -0.16432348556E+04  0.16039968082E+03  0.11201021497E+04  0.22097686924E+04  0.95000000000E+03 0.  0.
   -2000013    1    1    2    0    0  0.16432348556E+04 -0.16039968082E+03 -0.28356120297E+03  0.19258389870E+04  0.95000000000E+03 0.  0.
<mgrwt>
<rscale>  0 0.40501173E+04</rscale>
<asrwt>0</asrwt>
<pdfrwt beam="1">  1        2 0.38247297E+00 0.40501173E+04</pdfrwt>
<pdfrwt beam="2">  1       -2 0.25377436E+00 0.40501173E+04</pdfrwt>
<totfact> 0.16974617E-01</totfact>
</mgrwt>
</event>
<event>
 4    1  0.1343107E-008  0.3027246E+04  0.7816531E-02  0.8235993E-01
         -2   -1    0    0    0  501 -0.00000000000E+00  0.00000000000E+00  0.10278419792E+04  0.10278419792E+04  0.00000000000E+00 0. -1.
          2   -1    0    0  501    0  0.00000000000E+00 -0.00000000000E+00 -0.22289952671E+04  0.22289952671E+04  0.00000000000E+00 0.  1.
    2000013    1    1    2    0    0  0.37202528838E+03 -0.50036369483E+03 -0.16763042876E+04  0.20251574524E+04  0.95000000000E+03 0.  0.
   -2000013    1    1    2    0    0 -0.37202528838E+03  0.50036369483E+03  0.47515099975E+03  0.12316797940E+04  0.95000000000E+03 0.  0.
<mgrwt>
<rscale>  0 0.30272462E+04</rscale>
<asrwt>0</asrwt>
<pdfrwt beam="2">  1        2 0.34292235E+00 0.30272462E+04</pdfrwt>
<pdfrwt beam="1">  1       -2 0.15812954E+00 0.30272462E+04</pdfrwt>
<totfact> 0.11046699E+00</totfact>
</mgrwt>
</event>
<event>
 4    1  0.1343107E-008  0.2271828E+04  0.7816531E-02  0.8489113E-01
         -2   -1    0    0    0  501 -0.00000000000E+00  0.00000000000E+00  0.54357790239E+03  0.54357790239E+03  0.00000000000E+00 0. -1.
          2   -1    0    0  501    0  0.00000000000E+00 -0.00000000000E+00 -0.23737176251E+04  0.23737176251E+04  0.00000000000E+00 0.  1.
    2000013    1    1    2    0    0  0.55701272259E+03 -0.17109833145E+03 -0.11971746921E+04  0.16356237512E+04  0.95000000000E+03 0.  0.
   -2000013    1    1    2    0    0 -0.55701272259E+03  0.17109833145E+03 -0.63296503068E+03  0.12816717763E+04  0.95000000000E+03 0.  0.
<mgrwt>
<rscale>  0 0.22718279E+04</rscale>
<asrwt>0</asrwt>
<pdfrwt beam="2">  1        2 0.36518732E+00 0.22718279E+04</pdfrwt>
<pdfrwt beam="1">  1       -2 0.83627370E-01 0.22718279E+04</pdfrwt>
<totfact> 0.46759081E+00</totfact>
</mgrwt>
</event>
<event>
 4    1  0.1343107E-008  0.2106784E+04  0.7816531E-02  0.8558261E-01
         -2   -1    0    0    0  501 -0.00000000000E+00  0.00000000000E+00  0.31974636110E+03  0.31974636110E+03  0.00000000000E+00 0. -1.
          2   -1    0    0  501    0  0.00000000000E+00 -0.00000000000E+00 -0.34703597351E+04  0.34703597351E+04  0.00000000000E+00 0.  1.
    2000013    1    1    2    0    0 -0.10932760022E+03 -0.42114386837E+03 -0.13351538134E+04  0.16954204161E+04  0.95000000000E+03 0.  0.
   -2000013    1    1    2    0    0  0.10932760022E+03  0.42114386837E+03 -0.18154595606E+04  0.20946856801E+04  0.95000000000E+03 0.  0.
<mgrwt>
<rscale>  0 0.21067842E+04</rscale>
<asrwt>0</asrwt>
<pdfrwt beam="2">  1        2 0.53390148E+00 0.21067842E+04</pdfrwt>
<pdfrwt beam="1">  1       -2 0.49191750E-01 0.21067842E+04</pdfrwt>
<totfact> 0.30854483E+00</totfact>
</mgrwt>
</event>
<event>
 4    1  0.1343107E-008  0.2237659E+04  0.7816531E-02  0.8502915E-01
          2   -1    0    0  501    0  0.00000000000E+00  0.00000000000E+00  0.34856744381E+04  0.34856744381E+04  0.00000000000E+00 0.  1.
         -2   -1    0    0    0  501 -0.00000000000E+00 -0.00000000000E+00 -0.35912101690E+03  0.35912101690E+03  0.00000000000E+00 0. -1.
    2000013    1    1    2    0    0 -0.53173917620E+02 -0.24261849626E+03  0.64184190495E+03  0.11730951501E+04  0.95000000000E+03 0.  0.
   -2000013    1    1    2    0    0  0.53173917620E+02  0.24261849626E+03  0.24847115162E+04  0.26717003049E+04  0.95000000000E+03 0.  0.
<mgrwt>
<rscale>  0 0.22376586E+04</rscale>
<asrwt>0</asrwt>
<pdfrwt beam="1">  1        2 0.53625758E+00 0.22376586E+04</pdfrwt>
<pdfrwt beam="2">  1       -2 0.55249389E-01 0.22376586E+04</pdfrwt>
<totfact> 0.23420550E+00</totfact>
</mgrwt>
</event>
<event>
 4    1  0.1343107E-008  0.3474572E+04  0.7816531E-02  0.8119843E-01
         -2   -1    0    0    0  501 -0.00000000000E+00  0.00000000000E+00  0.14243285481E+04  0.14243285481E+04  0.00000000000E+00 0. -1.
          2   -1    0    0  501    0  0.00000000000E+00 -0.00000000000E+00 -0.21190072672E+04  0.21190072672E+04  0.00000000000E+00 0.  1.
    2000013    1    1    2    0    0 -0.14474317512E+04 -0.83974705577E+02 -0.22862189759E+03  0.17483930901E+04  0.95000000000E+03 0.  0.
   -2000013    1    1    2    0    0  0.14474317512E+04  0.83974705577E+02 -0.46605682159E+03  0.17949427251E+04  0.95000000000E+03 0.  0.
<mgrwt>
<rscale>  0 0.34745719E+04</rscale>
<asrwt>0</asrwt>
<pdfrwt beam="2">  1        2 0.32600112E+00 0.34745719E+04</pdfrwt>
<pdfrwt beam="1">  1       -2 0.21912747E+00 0.34745719E+04</pdfrwt>
<totfact> 0.47263553E-01</totfact>
</mgrwt>
</event>
<event>
 4    1  0.1343107E-008  0.2338110E+04  0.7816531E-02  0.8463045E-01
         -2   -1    0    0    0  501 -0.00000000000E+00  0.00000000000E+00  0.11014747667E+04  0.11014747667E+04  0.00000000000E+00 0.  1.
          2   -1    0    0  501    0  0.00000000000E+00 -0.00000000000E+00 -0.12407819422E+04  0.12407819422E+04  0.00000000000E+00 0. -1.
    2000013    1    1    2    0    0 -0.50216913745E+03 -0.23873386710E+03 -0.46408053047E+03  0.11945871423E+04  0.95000000000E+03 0.  0.
   -2000013    1    1    2    0    0  0.50216913745E+03  0.23873386710E+03  0.32477335502E+03  0.11476695666E+04  0.95000000000E+03 0.  0.
<mgrwt>
<rscale>  0 0.23381103E+04</rscale>
<asrwt>0</asrwt>
<pdfrwt beam="2">  1        2 0.19088953E+00 0.23381103E+04</pdfrwt>
<pdfrwt beam="1">  1       -2 0.16945766E+00 0.23381103E+04</pdfrwt>
<totfact> 0.34812416E+00</totfact>
</mgrwt>
</event>
<event>
 4    1  0.1343107E-008  0.2590554E+04  0.7816531E-02  0.8371417E-01
         -2   -1    0    0    0  501 -0.00000000000E+00  0.00000000000E+00  0.22309506356E+04  0.22309506356E+04  0.00000000000E+00 0. -1.
          2   -1    0    0  501    0  0.00000000000E+00 -0.00000000000E+00 -0.75203015307E+03  0.75203015307E+03  0.00000000000E+00 0.  1.
    2000013    1    1    2    0    0  0.64201324450E+03 -0.35371430201E+03  0.17776819363E+03  0.12130112713E+04  0.95000000000E+03 0.  0.
   -2000013    1    1    2    0    0 -0.64201324450E+03  0.35371430201E+03  0.13011522889E+04  0.17699695174E+04  0.95000000000E+03 0.  0.
<mgrwt>
<rscale>  0 0.25905537E+04</rscale>
<asrwt>0</asrwt>
<pdfrwt beam="2">  1        2 0.11569695E+00 0.25905537E+04</pdfrwt>
<pdfrwt beam="1">  1       -2 0.34322317E+00 0.25905537E+04</pdfrwt>
<totfact> 0.56793073E-01</totfact>
</mgrwt>
</event>
<event>
 4    1  0.1343107E-008  0.2310452E+04  0.7816531E-02  0.8473811E-01
         -1   -1    0    0    0  501 -0.00000000000E+00  0.00000000000E+00  0.51189494962E+03  0.51189494962E+03  0.00000000000E+00 0.  1.
          1   -1    0    0  501    0  0.00000000000E+00 -0.00000000000E+00 -0.26070733634E+04  0.26070733634E+04  0.00000000000E+00 0. -1.
    2000013    1    1    2    0    0 -0.33003244571E+03  0.56567389219E+03 -0.11232257627E+04  0.16102932906E+04  0.95000000000E+03 0.  0.
   -2000013    1    1    2    0    0  0.33003244571E+03 -0.56567389219E+03 -0.97195265102E+03  0.15086750224E+04  0.95000000000E+03 0.  0.
<mgrwt>
<rscale>  0 0.23104525E+04</rscale>
<asrwt>0</asrwt>
<pdfrwt beam="2">  1        1 0.40108821E+00 0.23104525E+04</pdfrwt>
<pdfrwt beam="1">  1       -1 0.78753069E-01 0.23104525E+04</pdfrwt>
<totfact> 0.16615569E+00</totfact>
</mgrwt>
</event>
<event>
 4    1  0.1343107E-008  0.2699969E+04  0.7816531E-02  0.8335015E-01
         -2   -1    0    0    0  501 -0.00000000000E+00  0.00000000000E+00  0.11752128441E+04  0.11752128441E+04  0.00000000000E+00 0. -1.
          2   -1    0    0  501    0  0.00000000000E+00 -0.00000000000E+00 -0.15507470634E+04  0.15507470634E+04  0.00000000000E+00 0.  1.
    2000013    1    1    2    0    0  0.99130634020E+02 -0.86143964511E+03  0.22612152013E+03  0.13059617478E+04  0.95000000000E+03 0.  0.
   -2000013    1    1    2    0    0 -0.99130634020E+02  0.86143964511E+03 -0.60165573949E+03  0.14199981597E+04  0.95000000000E+03 0.  0.
<mgrwt>
<rscale>  0 0.26999688E+04</rscale>
<asrwt>0</asrwt>
<pdfrwt beam="2">  1        2 0.23857647E+00 0.26999688E+04</pdfrwt>
<pdfrwt beam="1">  1       -2 0.18080198E+00 0.26999688E+04</pdfrwt>
<totfact> 0.18669049E+00</totfact>
</mgrwt>
</event>
<event>
 4    1  0.1343107E-008  0.2467886E+04  0.7816531E-02  0.8414516E-01
          2   -1    0    0  501    0  0.00000000000E+00  0.00000000000E+00  0.97104974931E+03  0.97104974931E+03  0.00000000000E+00 0.  1.
         -2   -1    0    0    0  501 -0.00000000000E+00 -0.00000000000E+00 -0.15680096375E+04  0.15680096375E+04  0.00000000000E+00 0. -1.
    2000013    1    1    2    0    0 -0.25232370040E+02 -0.73787962133E+03 -0.58026254028E+03  0.13357797811E+04  0.95000000000E+03 0.  0.
   -2000013    1    1    2    0    0  0.25232370040E+02  0.73787962133E+03 -0.16697347946E+02  0.12032796057E+04  0.95000000000E+03 0.  0.
<mgrwt>
<rscale>  0 0.24678860E+04</rscale>
<asrwt>0</asrwt>
<pdfrwt beam="1">  1        2 0.14939227E+00 0.24678860E+04</pdfrwt>
<pdfrwt beam="2">  1       -2 0.24123225E+00 0.24678860E+04</pdfrwt>
<totfact> 0.17115551E+00</totfact>
</mgrwt>
</event>
<event>
 4    1  0.1343107E-008  0.2192056E+04  0.7816531E-02  0.8521742E-01
         -4   -1    0    0    0  501 -0.00000000000E+00  0.00000000000E+00  0.20823128641E+04  0.20823128641E+04  0.00000000000E+00 0. -1.
          4   -1    0    0  501    0  0.00000000000E+00 -0.00000000000E+00 -0.57689577923E+03  0.57689577923E+03  0.00000000000E+00 0.  1.
    2000013    1    1    2    0    0  0.46662176695E+03  0.18297149073E+03  0.48814155537E+03  0.11798290630E+04  0.95000000000E+03 0.  0.
   -2000013    1    1    2    0    0 -0.46662176695E+03 -0.18297149073E+03  0.10172755295E+04  0.14793795804E+04  0.95000000000E+03 0.  0.
<mgrwt>
<rscale>  0 0.21920561E+04</rscale>
<asrwt>0</asrwt>
<pdfrwt beam="2">  1        4 0.88753198E-01 0.21920561E+04</pdfrwt>
<pdfrwt beam="1">  1       -4 0.32035582E+00 0.21920561E+04</pdfrwt>
<totfact> 0.46027914E-02</totfact>
</mgrwt>
</event>
<event>
 4    1  0.1343107E-008  0.3115135E+04  0.7816531E-02  0.8211597E-01
         -2   -1    0    0    0  501 -0.00000000000E+00  0.00000000000E+00  0.18680136805E+04  0.18680136805E+04  0.00000000000E+00 0. -1.
          2   -1    0    0  501    0  0.00000000000E+00 -0.00000000000E+00 -0.12987142628E+04  0.12987142628E+04  0.00000000000E+00 0.  1.
    2000013    1    1    2    0    0 -0.37210502529E+03  0.10721330756E+04 -0.20875956737E+03  0.14946611785E+04  0.95000000000E+03 0.  0.
   -2000013    1    1    2    0    0  0.37210502529E+03 -0.10721330756E+04  0.77805898505E+03  0.16720667648E+04  0.95000000000E+03 0.  0.
<mgrwt>
<rscale>  0 0.31151347E+04</rscale>
<asrwt>0</asrwt>
<pdfrwt beam="2">  1        2 0.19980219E+00 0.31151347E+04</pdfrwt>
<pdfrwt beam="1">  1       -2 0.28738672E+00 0.31151347E+04</pdfrwt>
<totfact> 0.53301072E-01</totfact>
</mgrwt>
</event>
<event>
 4    1  0.1343107E-008  0.2354251E+04  0.7816531E-02  0.8456833E-01
          2   -1    0    0  501    0  0.00000000000E+00  0.00000000000E+00  0.34604373891E+04  0.34604373891E+04  0.00000000000E+00 0.  1.
         -2   -1    0    0    0  501 -0.00000000000E+00 -0.00000000000E+00 -0.40041884623E+03  0.40041884623E+03  0.00000000000E+00 0. -1.
    2000013    1    1    2    0    0 -0.65600866114E+03  0.45523849060E+02  0.11607304496E+04  0.16377469160E+04  0.95000000000E+03 0.  0.
   -2000013    1    1    2    0    0  0.65600866114E+03 -0.45523849060E+02  0.18992880932E+04  0.22231093193E+04  0.95000000000E+03 0.  0.
<mgrwt>
<rscale>  0 0.23542509E+04</rscale>
<asrwt>0</asrwt>
<pdfrwt beam="1">  1        2 0.53237496E+00 0.23542509E+04</pdfrwt>
<pdfrwt beam="2">  1       -2 0.61602902E-01 0.23542509E+04</pdfrwt>
<totfact> 0.19189313E+00</totfact>
</mgrwt>
</event>
<event>
 4    1  0.1343107E-008  0.3204314E+04  0.7816531E-02  0.8187679E-01
          2   -1    0    0  501    0  0.00000000000E+00  0.00000000000E+00  0.14521411065E+04  0.14521411065E+04  0.00000000000E+00 0.  1.
         -2   -1    0    0    0  501 -0.00000000000E+00 -0.00000000000E+00 -0.17676704839E+04  0.17676704839E+04  0.00000000000E+00 0. -1.
    2000013    1    1    2    0    0  0.53792231760E+03 -0.94254055586E+03 -0.85875165661E+03  0.16785998710E+04  0.95000000000E+03 0.  0.
   -2000013    1    1    2    0    0 -0.53792231760E+03  0.94254055586E+03  0.54322227928E+03  0.15412117194E+04  0.95000000000E+03 0.  0.
<mgrwt>
<rscale>  0 0.32043139E+04</rscale>
<asrwt>0</asrwt>
<pdfrwt beam="1">  1        2 0.22340632E+00 0.32043139E+04</pdfrwt>
<pdfrwt beam="2">  1       -2 0.27194930E+00 0.32043139E+04</pdfrwt>
<totfact> 0.53634597E-01</totfact>
</mgrwt>
</event>
<event>
 4    1  0.1343107E-008  0.2707997E+04  0.7816531E-02  0.8332415E-01
          1   -1    0    0  501    0  0.00000000000E+00  0.00000000000E+00  0.20155838569E+04  0.20155838569E+04  0.00000000000E+00 0.  1.
         -1   -1    0    0    0  501 -0.00000000000E+00 -0.00000000000E+00 -0.90956880262E+03  0.90956880262E+03  0.00000000000E+00 0. -1.
    2000013    1    1    2    0    0 -0.94263910555E+03 -0.12032267667E+03  0.37301342278E+03  0.13945196461E+04  0.95000000000E+03 0.  0.
   -2000013    1    1    2    0    0  0.94263910555E+03  0.12032267667E+03  0.73300163146E+03  0.15306330134E+04  0.95000000000E+03 0.  0.
<mgrwt>
<rscale>  0 0.27079972E+04</rscale>
<asrwt>0</asrwt>
<pdfrwt beam="1">  1        1 0.31008982E+00 0.27079972E+04</pdfrwt>
<pdfrwt beam="2">  1       -1 0.13993366E+00 0.27079972E+04</pdfrwt>
<totfact> 0.10648527E+00</totfact>
</mgrwt>
</event>
<event>
 4    1  0.1343107E-008  0.2344349E+04  0.7816531E-02  0.8460638E-01
         -2   -1    0    0    0  501 -0.00000000000E+00  0.00000000000E+00  0.24668363348E+04  0.24668363348E+04  0.00000000000E+00 0. -1.
          2   -1    0    0  501    0  0.00000000000E+00 -0.00000000000E+00 -0.55698569266E+03  0.55698569266E+03  0.00000000000E+00 0.  1.
    2000013    1    1    2    0    0 -0.16248743525E+03 -0.43839815126E+03  0.30628154042E+03  0.11022266045E+04  0.95000000000E+03 0.  0.
   -2000013    1    1    2    0    0  0.16248743525E+03  0.43839815126E+03  0.16035691017E+04  0.19215954230E+04  0.95000000000E+03 0.  0.
<mgrwt>
<rscale>  0 0.23443486E+04</rscale>
<asrwt>0</asrwt>
<pdfrwt beam="2">  1        2 0.85690108E-01 0.23443486E+04</pdfrwt>
<pdfrwt beam="1">  1       -2 0.37951328E+00 0.23443486E+04</pdfrwt>
<totfact> 0.49456409E-01</totfact>
</mgrwt>
</event>
<event>
 4    1  0.1343107E-008  0.2378314E+04  0.7816531E-02  0.8447667E-01
          3   -1    0    0  501    0  0.00000000000E+00  0.00000000000E+00  0.29945198383E+04  0.29945198383E+04  0.00000000000E+00 0.  1.
         -3   -1    0    0    0  501 -0.00000000000E+00 -0.00000000000E+00 -0.47222728345E+03  0.47222728345E+03  0.00000000000E+00 0. -1.
    2000013    1    1    2    0    0 -0.18531571328E+02 -0.64486931237E+03  0.17113549269E+04  0.20609307449E+04  0.95000000000E+03 0.  0.
   -2000013    1    1    2    0    0  0.18531571328E+02  0.64486931237E+03  0.81093762792E+03  0.14058163769E+04  0.95000000000E+03 0.  0.
<mgrwt>
<rscale>  0 0.23783137E+04</rscale>
<asrwt>0</asrwt>
<pdfrwt beam="1">  1        3 0.46069535E+00 0.23783137E+04</pdfrwt>
<pdfrwt beam="2">  1       -3 0.72650353E-01 0.23783137E+04</pdfrwt>
<totfact> 0.22774377E-02</totfact>
</mgrwt>
</event>
<event>
 4    1  0.1343107E-008  0.2822612E+04  0.7816531E-02  0.8296282E-01
          2   -1    0    0  501    0  0.00000000000E+00  0.00000000000E+00  0.19861443818E+04  0.19861443818E+04  0.00000000000E+00 0.  1.
         -2   -1    0    0    0  501 -0.00000000000E+00 -0.00000000000E+00 -0.10028396991E+04  0.10028396991E+04  0.00000000000E+00 0. -1.
    2000013    1    1    2    0    0 -0.52283847669E+03 -0.89733618613E+03  0.38205238857E+03  0.14584362623E+04  0.95000000000E+03 0.  0.
   -2000013    1    1    2    0    0  0.52283847669E+03  0.89733618613E+03  0.60125229416E+03  0.15305478186E+04  0.95000000000E+03 0.  0.
<mgrwt>
<rscale>  0 0.28226119E+04</rscale>
<asrwt>0</asrwt>
<pdfrwt beam="1">  1        2 0.30556067E+00 0.28226119E+04</pdfrwt>
<pdfrwt beam="2">  1       -2 0.15428303E+00 0.28226119E+04</pdfrwt>
<totfact> 0.16419962E+00</totfact>
</mgrwt>
</event>
<event>
 4    1  0.1343107E-008  0.2794820E+04  0.7816531E-02  0.8304878E-01
         -2   -1    0    0    0  501 -0.00000000000E+00  0.00000000000E+00  0.82292604511E+03  0.82292604511E+03  0.00000000000E+00 0. -1.
          2   -1    0    0  501    0  0.00000000000E+00 -0.00000000000E+00 -0.23729412104E+04  0.23729412104E+04  0.00000000000E+00 0.  1.
    2000013    1    1    2    0    0  0.62003875212E+03 -0.31775726944E+03 -0.16344099815E+04  0.20147490474E+04  0.95000000000E+03 0.  0.
   -2000013    1    1    2    0    0 -0.62003875212E+03  0.31775726944E+03  0.84394816250E+02  0.11811182081E+04  0.95000000000E+03 0.  0.
<mgrwt>
<rscale>  0 0.27948203E+04</rscale>
<asrwt>0</asrwt>
<pdfrwt beam="2">  1        2 0.36506787E+00 0.27948203E+04</pdfrwt>
<pdfrwt beam="1">  1       -2 0.12660401E+00 0.27948203E+04</pdfrwt>
<totfact> 0.16650977E+00</totfact>
</mgrwt>
</event>
<event>
 4    1  0.1343107E-008  0.3713282E+04  0.7816531E-02  0.8065025E-01
         -1   -1    0    0    0  501 -0.00000000000E+00  0.00000000000E+00  0.21295995540E+04  0.21295995540E+04  0.00000000000E+00 0. -1.
          1   -1    0    0  501    0  0.00000000000E+00 -0.00000000000E+00 -0.16186683407E+04  0.16186683407E+04  0.00000000000E+00 0.  1.
    2000013    1    1    2    0    0 -0.89644816068E+03  0.12146459463E+04 -0.26478469283E+03  0.18032179605E+04  0.95000000000E+03 0.  0.
   -2000013    1    1    2    0    0  0.89644816068E+03 -0.12146459463E+04  0.77571590612E+03  0.19450499342E+04  0.95000000000E+03 0.  0.
<mgrwt>
<rscale>  0 0.37132818E+04</rscale>
<asrwt>0</asrwt>
<pdfrwt beam="2">  1        1 0.24902590E+00 0.37132818E+04</pdfrwt>
<pdfrwt beam="1">  1       -1 0.32763070E+00 0.37132818E+04</pdfrwt>
<totfact> 0.94708761E-02</totfact>
</mgrwt>
</event>
<event>
 4    1  0.1343107E-008  0.2447121E+04  0.7816531E-02  0.8422070E-01
         -2   -1    0    0    0  501 -0.00000000000E+00  0.00000000000E+00  0.53841825456E+03  0.53841825456E+03  0.00000000000E+00 0. -1.
          2   -1    0    0  501    0  0.00000000000E+00 -0.00000000000E+00 -0.27805529313E+04  0.27805529313E+04  0.00000000000E+00 0.  1.
    2000013    1    1    2    0    0 -0.66698306375E+03  0.31441795344E+03 -0.14269831538E+04  0.18661473624E+04  0.95000000000E+03 0.  0.
   -2000013    1    1    2    0    0  0.66698306375E+03 -0.31441795344E+03 -0.81515152289E+03  0.14528238235E+04  0.95000000000E+03 0.  0.
<mgrwt>
<rscale>  0 0.24471211E+04</rscale>
<asrwt>0</asrwt>
<pdfrwt beam="2">  1        2 0.42777737E+00 0.24471211E+04</pdfrwt>
<pdfrwt beam="1">  1       -2 0.82833579E-01 0.24471211E+04</pdfrwt>
<totfact> 0.27193843E+00</totfact>
</mgrwt>
</event>
<event>
 4    1  0.1343107E-008  0.2637344E+04  0.7816531E-02  0.8355626E-01
          2   -1    0    0  501    0  0.00000000000E+00  0.00000000000E+00  0.35692163936E+04  0.35692163936E+04  0.00000000000E+00 0.  1.
         -2   -1    0    0    0  501 -0.00000000000E+00 -0.00000000000E+00 -0.48719255764E+03  0.48719255764E+03  0.00000000000E+00 0. -1.
    2000013    1    1    2    0    0 -0.81932593153E+02  0.58032636308E+03  0.46118000759E+03  0.12077576896E+04  0.95000000000E+03 0.  0.
   -2000013    1    1    2    0    0  0.81932593153E+02 -0.58032636308E+03  0.26208438284E+04  0.28486512616E+04  0.95000000000E+03 0.  0.
<mgrwt>
<rscale>  0 0.26373439E+04</rscale>
<asrwt>0</asrwt>
<pdfrwt beam="1">  1        2 0.54911020E+00 0.26373439E+04</pdfrwt>
<pdfrwt beam="2">  1       -2 0.74952703E-01 0.26373439E+04</pdfrwt>
<totfact> 0.10249157E+00</totfact>
</mgrwt>
</event>
<event>
 4    1  0.1343107E-008  0.2407584E+04  0.7816531E-02  0.8436670E-01
         -2   -1    0    0    0  501 -0.00000000000E+00  0.00000000000E+00  0.10353581460E+04  0.10353581460E+04  0.00000000000E+00 0. -1.
          2   -1    0    0  501    0  0.00000000000E+00 -0.00000000000E+00 -0.13996275030E+04  0.13996275030E+04  0.00000000000E+00 0.  1.
    2000013    1    1    2    0    0  0.31259930534E+03  0.32287936476E+03  0.41161269428E+03  0.11286693138E+04  0.95000000000E+03 0.  0.
   -2000013    1    1    2    0    0 -0.31259930534E+03 -0.32287936476E+03 -0.77588205130E+03  0.13063163351E+04  0.95000000000E+03 0.  0.
<mgrwt>
<rscale>  0 0.24075845E+04</rscale>
<asrwt>0</asrwt>
<pdfrwt beam="2">  1        2 0.21532731E+00 0.24075845E+04</pdfrwt>
<pdfrwt beam="1">  1       -2 0.15928587E+00 0.24075845E+04</pdfrwt>
<totfact> 0.33179522E+00</totfact>
</mgrwt>
</event>
<event>
 4    1  0.1343107E-008  0.2493881E+04  0.7816531E-02  0.8405169E-01
          2   -1    0    0  501    0  0.00000000000E+00  0.00000000000E+00  0.14761225538E+04  0.14761225538E+04  0.00000000000E+00 0.  1.
         -2   -1    0    0    0  501 -0.00000000000E+00 -0.00000000000E+00 -0.10533408397E+04  0.10533408397E+04  0.00000000000E+00 0. -1.
    2000013    1    1    2    0    0 -0.18709254751E+03 -0.78571699600E+03  0.20904458423E+03  0.12643395340E+04  0.95000000000E+03 0.  0.
   -2000013    1    1    2    0    0  0.18709254751E+03  0.78571699600E+03  0.21373712993E+03  0.12651238595E+04  0.95000000000E+03 0.  0.
<mgrwt>
<rscale>  0 0.24938806E+04</rscale>
<asrwt>0</asrwt>
<pdfrwt beam="1">  1        2 0.22709578E+00 0.24938806E+04</pdfrwt>
<pdfrwt beam="2">  1       -2 0.16205244E+00 0.24938806E+04</pdfrwt>
<totfact> 0.28430949E+00</totfact>
</mgrwt>
</event>
<event>
 4    1  0.1343107E-008  0.2296262E+04  0.7816531E-02  0.8479396E-01
          2   -1    0    0  501    0  0.00000000000E+00  0.00000000000E+00  0.14199836691E+04  0.14199836691E+04  0.00000000000E+00 0.  1.
         -2   -1    0    0    0  501 -0.00000000000E+00 -0.00000000000E+00 -0.92832397246E+03  0.92832397246E+03  0.00000000000E+00 0. -1.
    2000013    1    1    2    0    0  0.11003501172E+03  0.53112309371E+03  0.60230674814E+03  0.12487885583E+04  0.95000000000E+03 0.  0.
   -2000013    1    1    2    0    0 -0.11003501172E+03 -0.53112309371E+03 -0.11064705148E+03  0.10995190833E+04  0.95000000000E+03 0.  0.
<mgrwt>
<rscale>  0 0.22962621E+04</rscale>
<asrwt>0</asrwt>
<pdfrwt beam="1">  1        2 0.21845903E+00 0.22962621E+04</pdfrwt>
<pdfrwt beam="2">  1       -2 0.14281907E+00 0.22962621E+04</pdfrwt>
<totfact> 0.43589875E+00</totfact>
</mgrwt>
</event>
<event>
 4    1  0.1343107E-008  0.3799527E+04  0.7816531E-02  0.8046256E-01
         -2   -1    0    0    0  501 -0.00000000000E+00  0.00000000000E+00  0.35103153473E+04  0.35103153473E+04  0.00000000000E+00 0. -1.
          2   -1    0    0  501    0  0.00000000000E+00 -0.00000000000E+00 -0.10281418984E+04  0.10281418984E+04  0.00000000000E+00 0.  1.
    2000013    1    1    2    0    0  0.15226912466E+04  0.60398510611E+03  0.14230857346E+04  0.23687675380E+04  0.95000000000E+03 0.  0.
   -2000013    1    1    2    0    0 -0.15226912466E+04 -0.60398510611E+03  0.10590877143E+04  0.21696897077E+04  0.95000000000E+03 0.  0.
<mgrwt>
<rscale>  0 0.37995275E+04</rscale>
<asrwt>0</asrwt>
<pdfrwt beam="2">  1        2 0.15817568E+00 0.37995275E+04</pdfrwt>
<pdfrwt beam="1">  1       -2 0.54004851E+00 0.37995275E+04</pdfrwt>
<totfact> 0.18657875E-02</totfact>
</mgrwt>
</event>
<event>
 4    1  0.1343107E-008  0.3072338E+04  0.7816531E-02  0.8223371E-01
          2   -1    0    0  501    0  0.00000000000E+00  0.00000000000E+00  0.14337622530E+04  0.14337622530E+04  0.00000000000E+00 0.  1.
         -2   -1    0    0    0  501 -0.00000000000E+00 -0.00000000000E+00 -0.16458897815E+04  0.16458897815E+04  0.00000000000E+00 0. -1.
    2000013    1    1    2    0    0 -0.27286284417E+03 -0.10975469244E+04  0.31713950098E+03  0.15106756257E+04  0.95000000000E+03 0.  0.
   -2000013    1    1    2    0    0  0.27286284417E+03  0.10975469244E+04 -0.52926702948E+03  0.15689764088E+04  0.95000000000E+03 0.  0.
<mgrwt>
<rscale>  0 0.30723376E+04</rscale>
<asrwt>0</asrwt>
<pdfrwt beam="1">  1        2 0.22057881E+00 0.30723376E+04</pdfrwt>
<pdfrwt beam="2">  1       -2 0.25321381E+00 0.30723376E+04</pdfrwt>
<totfact> 0.72325047E-01</totfact>
</mgrwt>
</event>
<event>
 4    1  0.1343107E-008  0.2503432E+04  0.7816531E-02  0.8401764E-01
          2   -1    0    0  501    0  0.00000000000E+00  0.00000000000E+00  0.22015421086E+04  0.22015421086E+04  0.00000000000E+00 0.  1.
         -2   -1    0    0    0  501 -0.00000000000E+00 -0.00000000000E+00 -0.71167976846E+03  0.71167976846E+03  0.00000000000E+00 0. -1.
    2000013    1    1    2    0    0  0.66073433285E+03 -0.29389640380E+02  0.19066787643E+03  0.11731529519E+04  0.95000000000E+03 0.  0.
   -2000013    1    1    2    0    0 -0.66073433285E+03  0.29389640380E+02  0.12991944637E+04  0.17400689251E+04  0.95000000000E+03 0.  0.
<mgrwt>
<rscale>  0 0.25034320E+04</rscale>
<asrwt>0</asrwt>
<pdfrwt beam="1">  1        2 0.33869878E+00 0.25034320E+04</pdfrwt>
<pdfrwt beam="2">  1       -2 0.10948920E+00 0.25034320E+04</pdfrwt>
<totfact> 0.30528732E+00</totfact>
</mgrwt>
</event>
<event>
 4    1  0.1343107E-008  0.2228273E+04  0.7816531E-02  0.8506751E-01
          2   -1    0    0  501    0  0.00000000000E+00  0.00000000000E+00  0.26259969019E+04  0.26259969019E+04  0.00000000000E+00 0.  1.
         -2   -1    0    0    0  501 -0.00000000000E+00 -0.00000000000E+00 -0.47269691850E+03  0.47269691850E+03  0.00000000000E+00 0. -1.
    2000013    1    1    2    0    0  0.12166782712E+02 -0.49047041051E+03  0.15121875610E+04  0.18520044476E+04  0.95000000000E+03 0.  0.
   -2000013    1    1    2    0    0 -0.12166782712E+02  0.49047041051E+03  0.64111242240E+03  0.12466893728E+04  0.95000000000E+03 0.  0.
<mgrwt>
<rscale>  0 0.22282735E+04</rscale>
<asrwt>0</asrwt>
<pdfrwt beam="1">  1        2 0.40399952E+00 0.22282735E+04</pdfrwt>
<pdfrwt beam="2">  1       -2 0.72722604E-01 0.22282735E+04</pdfrwt>
<totfact> 0.45810079E+00</totfact>
</mgrwt>
</event>
<event>
 4    1  0.1343107E-008  0.2233966E+04  0.7816531E-02  0.8504422E-01
          2   -1    0    0  501    0  0.00000000000E+00  0.00000000000E+00  0.16580366844E+04  0.16580366844E+04  0.00000000000E+00 0.  1.
         -2   -1    0    0    0  501 -0.00000000000E+00 -0.00000000000E+00 -0.75248716008E+03  0.75248716008E+03  0.00000000000E+00 0. -1.
    2000013    1    1    2    0    0 -0.11162066374E+03  0.31058101555E+03 -0.71674882466E+02  0.10082445282E+04  0.95000000000E+03 0.  0.
   -2000013    1    1    2    0    0  0.11162066374E+03 -0.31058101555E+03  0.97722440682E+03  0.14022793164E+04  0.95000000000E+03 0.  0.
<mgrwt>
<rscale>  0 0.22339663E+04</rscale>
<asrwt>0</asrwt>
<pdfrwt beam="1">  1        2 0.25508257E+00 0.22339663E+04</pdfrwt>
<pdfrwt beam="2">  1       -2 0.11576726E+00 0.22339663E+04</pdfrwt>
<totfact> 0.54733780E+00</totfact>
</mgrwt>
</event>
<event>
 4    1  0.1343107E-008  0.2577958E+04  0.7816531E-02  0.8375727E-01
         -2   -1    0    0    0  501 -0.00000000000E+00  0.00000000000E+00  0.79294401202E+03  0.79294401202E+03  0.00000000000E+00 0. -1.
          2   -1    0    0  501    0  0.00000000000E+00 -0.00000000000E+00 -0.20953144248E+04  0.20953144248E+04  0.00000000000E+00 0.  1.
    2000013    1    1    2    0    0  0.38745267395E+03  0.25153819191E+03 -0.14787229604E+04  0.18172816595E+04  0.95000000000E+03 0.  0.
   -2000013    1    1    2    0    0 -0.38745267395E+03 -0.25153819191E+03  0.17635254754E+03  0.10709767773E+04  0.95000000000E+03 0.  0.
<mgrwt>
<rscale>  0 0.25779581E+04</rscale>
<asrwt>0</asrwt>
<pdfrwt beam="2">  1        2 0.32235606E+00 0.25779581E+04</pdfrwt>
<pdfrwt beam="1">  1       -2 0.12199139E+00 0.25779581E+04</pdfrwt>
<totfact> 0.26697500E+00</totfact>
</mgrwt>
</event>
<event>
 4    1  0.1343107E-008  0.2594542E+04  0.7816531E-02  0.8370058E-01
         -2   -1    0    0    0  501 -0.00000000000E+00  0.00000000000E+00  0.77940748650E+03  0.77940748650E+03  0.00000000000E+00 0. -1.
          2   -1    0    0  501    0  0.00000000000E+00 -0.00000000000E+00 -0.21592195380E+04  0.21592195380E+04  0.00000000000E+00 0.  1.
    2000013    1    1    2    0    0 -0.53195936336E+03 -0.68391703883E+03 -0.49475151631E+03  0.13776800583E+04  0.95000000000E+03 0.  0.
   -2000013    1    1    2    0    0  0.53195936336E+03  0.68391703883E+03 -0.88506053522E+03  0.15609469662E+04  0.95000000000E+03 0.  0.
<mgrwt>
<rscale>  0 0.25945419E+04</rscale>
<asrwt>0</asrwt>
<pdfrwt beam="2">  1        2 0.33218761E+00 0.25945419E+04</pdfrwt>
<pdfrwt beam="1">  1       -2 0.11990885E+00 0.25945419E+04</pdfrwt>
<totfact> 0.25627427E+00</totfact>
</mgrwt>
</event>
<event>
 4    1  0.1343107E-008  0.2154646E+04  0.7816531E-02  0.8537546E-01
         -2   -1    0    0    0  501 -0.00000000000E+00  0.00000000000E+00  0.18987082082E+04  0.18987082082E+04  0.00000000000E+00 0. -1.
          2   -1    0    0  501    0  0.00000000000E+00 -0.00000000000E+00 -0.61127079704E+03  0.61127079704E+03  0.00000000000E+00 0.  1.
    2000013    1    1    2    0    0  0.41147090462E+03  0.28173354868E+03  0.53051930250E+03  0.11969264088E+04  0.95000000000E+03 0.  0.
   -2000013    1    1    2    0    0 -0.41147090462E+03 -0.28173354868E+03  0.75691810867E+03  0.13130525964E+04  0.95000000000E+03 0.  0.
<mgrwt>
<rscale>  0 0.21546460E+04</rscale>
<asrwt>0</asrwt>
<pdfrwt beam="2">  1        2 0.94041662E-01 0.21546460E+04</pdfrwt>
<pdfrwt beam="1">  1       -2 0.29210895E+00 0.21546460E+04</pdfrwt>
<totfact> 0.15808574E+00</totfact>
</mgrwt>
</event>
<event>
 4    1  0.1343107E-008  0.2881544E+04  0.7816531E-02  0.8278390E-01
         -2   -1    0    0    0  501 -0.00000000000E+00  0.00000000000E+00  0.71134823337E+03  0.71134823337E+03  0.00000000000E+00 0. -1.
          2   -1    0    0  501    0  0.00000000000E+00 -0.00000000000E+00 -0.29181546989E+04  0.29181546989E+04  0.00000000000E+00 0.  1.
    2000013    1    1    2    0    0 -0.10274096020E+04 -0.33801388600E+03 -0.11779236481E+04  0.18600612888E+04  0.95000000000E+03 0.  0.
   -2000013    1    1    2    0    0  0.10274096020E+04  0.33801388600E+03 -0.10288828175E+04  0.17694416434E+04  0.95000000000E+03 0.  0.
<mgrwt>
<rscale>  0 0.28815442E+04</rscale>
<asrwt>0</asrwt>
<pdfrwt beam="2">  1        2 0.44894688E+00 0.28815442E+04</pdfrwt>
<pdfrwt beam="1">  1       -2 0.10943819E+00 0.28815442E+04</pdfrwt>
<totfact> 0.11252537E+00</totfact>
</mgrwt>
</event>
<event>
 4    1  0.1343107E-008  0.2557364E+04  0.7816531E-02  0.8382830E-01
          1   -1    0    0  501    0  0.00000000000E+00  0.00000000000E+00  0.13447800928E+04  0.13447800928E+04  0.00000000000E+00 0.  1.
         -1   -1    0    0    0  501 -0.00000000000E+00 -0.00000000000E+00 -0.12158328206E+04  0.12158328206E+04  0.00000000000E+00 0. -1.
    2000013    1    1    2    0    0  0.72058398748E+03  0.10036825347E+03  0.51583750979E+03  0.13030362258E+04  0.95000000000E+03 0.  0.
   -2000013    1    1    2    0    0 -0.72058398748E+03 -0.10036825347E+03 -0.38689023757E+03  0.12575766876E+04  0.95000000000E+03 0.  0.
<mgrwt>
<rscale>  0 0.25573641E+04</rscale>
<asrwt>0</asrwt>
<pdfrwt beam="1">  1        1 0.20688924E+00 0.25573641E+04</pdfrwt>
<pdfrwt beam="2">  1       -1 0.18705120E+00 0.25573641E+04</pdfrwt>
<totfact> 0.13772824E+00</totfact>
</mgrwt>
</event>
<event>
 4    1  0.1343107E-008  0.2953340E+04  0.7816531E-02  0.8257182E-01
         -1   -1    0    0    0  501 -0.00000000000E+00  0.00000000000E+00  0.20596928951E+04  0.20596928951E+04  0.00000000000E+00 0. -1.
          1   -1    0    0  501    0  0.00000000000E+00 -0.00000000000E+00 -0.10586794794E+04  0.10586794794E+04  0.00000000000E+00 0.  1.
    2000013    1    1    2    0    0 -0.49449609051E+03  0.75890623536E+03 -0.21374706301E+03  0.13299070887E+04  0.95000000000E+03 0.  0.
   -2000013    1    1    2    0    0  0.49449609051E+03 -0.75890623536E+03  0.12147604787E+04  0.17884652857E+04  0.95000000000E+03 0.  0.
<mgrwt>
<rscale>  0 0.29533402E+04</rscale>
<asrwt>0</asrwt>
<pdfrwt beam="2">  1        1 0.16287377E+00 0.29533402E+04</pdfrwt>
<pdfrwt beam="1">  1       -1 0.31687583E+00 0.29533402E+04</pdfrwt>
<totfact> 0.29867115E-01</totfact>
</mgrwt>
</event>
<event>
 4    1  0.1343107E-008  0.2393403E+04  0.7816531E-02  0.8441977E-01
          2   -1    0    0  501    0  0.00000000000E+00  0.00000000000E+00  0.96406338773E+03  0.96406338773E+03  0.00000000000E+00 0.  1.
         -2   -1    0    0    0  501 -0.00000000000E+00 -0.00000000000E+00 -0.14854777691E+04  0.14854777691E+04  0.00000000000E+00 0. -1.
    2000013    1    1    2    0    0 -0.25002255832E+02  0.57445427246E+03 -0.71723238757E+03  0.13219474731E+04  0.95000000000E+03 0.  0.
   -2000013    1    1    2    0    0  0.25002255832E+02 -0.57445427246E+03  0.19581800621E+03  0.11275936837E+04  0.95000000000E+03 0.  0.
<mgrwt>
<rscale>  0 0.23934032E+04</rscale>
<asrwt>0</asrwt>
<pdfrwt beam="1">  1        2 0.14831744E+00 0.23934032E+04</pdfrwt>
<pdfrwt beam="2">  1       -2 0.22853504E+00 0.23934032E+04</pdfrwt>
<totfact> 0.20877904E+00</totfact>
</mgrwt>
</event>
<event>
 4    1  0.1343107E-008  0.2372770E+04  0.7816531E-02  0.8449769E-01
         -2   -1    0    0    0  501 -0.00000000000E+00  0.00000000000E+00  0.17910629141E+04  0.17910629141E+04  0.00000000000E+00 0. -1.
          2   -1    0    0  501    0  0.00000000000E+00 -0.00000000000E+00 -0.78585132708E+03  0.78585132708E+03  0.00000000000E+00 0.  1.
    2000013    1    1    2    0    0 -0.46534987933E+03  0.19681071293E+02 -0.80294615370E+02  0.10610773205E+04  0.95000000000E+03 0.  0.
   -2000013    1    1    2    0    0  0.46534987933E+03 -0.19681071293E+02  0.10855062024E+04  0.15158369207E+04  0.95000000000E+03 0.  0.
<mgrwt>
<rscale>  0 0.23727698E+04</rscale>
<asrwt>0</asrwt>
<pdfrwt beam="2">  1        2 0.12090020E+00 0.23727698E+04</pdfrwt>
<pdfrwt beam="1">  1       -2 0.27554814E+00 0.23727698E+04</pdfrwt>
<totfact> 0.14251596E+00</totfact>
</mgrwt>
</event>
<event>
 4    1  0.1343107E-008  0.2191207E+04  0.7816531E-02  0.8522097E-01
         -2   -1    0    0    0  501 -0.00000000000E+00  0.00000000000E+00  0.46744813321E+03  0.46744813321E+03  0.00000000000E+00 0.  1.
          2   -1    0    0  501    0  0.00000000000E+00 -0.00000000000E+00 -0.25678721403E+04  0.25678721403E+04  0.00000000000E+00 0. -1.
    2000013    1    1    2    0    0 -0.50071612550E+03  0.17186395023E+03 -0.12339476066E+04  0.16448041074E+04  0.95000000000E+03 0.  0.
   -2000013    1    1    2    0    0  0.50071612550E+03 -0.17186395023E+03 -0.86647640043E+03  0.13905161661E+04  0.95000000000E+03 0.  0.
<mgrwt>
<rscale>  0 0.21912070E+04</rscale>
<asrwt>0</asrwt>
<pdfrwt beam="2">  1        2 0.39505724E+00 0.21912070E+04</pdfrwt>
<pdfrwt beam="1">  1       -2 0.71915099E-01 0.21912070E+04</pdfrwt>
<totfact> 0.50945080E+00</totfact>
</mgrwt>
</event>
<event>
 4    1  0.1343107E-008  0.3857307E+04  0.7816531E-02  0.8033968E-01
         -2   -1    0    0    0  501 -0.00000000000E+00  0.00000000000E+00  0.19501352550E+04  0.19501352550E+04  0.00000000000E+00 0. -1.
          2   -1    0    0  501    0  0.00000000000E+00 -0.00000000000E+00 -0.19074081708E+04  0.19074081708E+04  0.00000000000E+00 0.  1.
    2000013    1    1    2    0    0 -0.21868714943E+03  0.16639962653E+04  0.43642234758E+02  0.19290184771E+04  0.95000000000E+03 0.  0.
   -2000013    1    1    2    0    0  0.21868714943E+03 -0.16639962653E+04 -0.91515053240E+00  0.19285249487E+04  0.95000000000E+03 0.  0.
<mgrwt>
<rscale>  0 0.38573068E+04</rscale>
<asrwt>0</asrwt>
<pdfrwt beam="2">  1        2 0.29344741E+00 0.38573068E+04</pdfrwt>
<pdfrwt beam="1">  1       -2 0.30002081E+00 0.38573068E+04</pdfrwt>
<totfact> 0.19073775E-01</totfact>
</mgrwt>
</event>
<event>
 4    1  0.1343107E-008  0.2103142E+04  0.7816531E-02  0.8559861E-01
          2   -1    0    0  501    0  0.00000000000E+00  0.00000000000E+00  0.12209655254E+04  0.12209655254E+04  0.00000000000E+00 0.  1.
         -2   -1    0    0    0  501 -0.00000000000E+00 -0.00000000000E+00 -0.90567778906E+03  0.90567778906E+03  0.00000000000E+00 0. -1.
    2000013    1    1    2    0    0 -0.23326469837E+03  0.37917224677E+03  0.85308872173E+02  0.10525975565E+04  0.95000000000E+03 0.  0.
   -2000013    1    1    2    0    0  0.23326469837E+03 -0.37917224677E+03  0.22997886413E+03  0.10740457580E+04  0.95000000000E+03 0.  0.
<mgrwt>
<rscale>  0 0.21031418E+04</rscale>
<asrwt>0</asrwt>
<pdfrwt beam="1">  1        2 0.18784085E+00 0.21031418E+04</pdfrwt>
<pdfrwt beam="2">  1       -2 0.13933504E+00 0.21031418E+04</pdfrwt>
<totfact> 0.61660946E+00</totfact>
</mgrwt>
</event>
<event>
 4    1  0.1343107E-008  0.2231852E+04  0.7816531E-02  0.8505286E-01
          2   -1    0    0  501    0  0.00000000000E+00  0.00000000000E+00  0.24750566320E+04  0.24750566320E+04  0.00000000000E+00 0.  1.
         -2   -1    0    0    0  501 -0.00000000000E+00 -0.00000000000E+00 -0.50313618122E+03  0.50313618122E+03  0.00000000000E+00 0. -1.
    2000013    1    1    2    0    0 -0.35882291354E+03 -0.99990975182E+02  0.38320151749E+03  0.10899979272E+04  0.95000000000E+03 0.  0.
   -2000013    1    1    2    0    0  0.35882291354E+03  0.99990975182E+02  0.15887189333E+04  0.18881948860E+04  0.95000000000E+03 0.  0.
<mgrwt>
<rscale>  0 0.22318517E+04</rscale>
<asrwt>0</asrwt>
<pdfrwt beam="1">  1        2 0.38077794E+00 0.22318517E+04</pdfrwt>
<pdfrwt beam="2">  1       -2 0.77405568E-01 0.22318517E+04</pdfrwt>
<totfact> 0.48834354E+00</totfact>
</mgrwt>
</event>
<event>
 4    1  0.1343107E-008  0.3010510E+04  0.7816531E-02  0.8240736E-01
         -2   -1    0    0    0  501 -0.00000000000E+00  0.00000000000E+00  0.55444202757E+03  0.55444202757E+03  0.00000000000E+00 0. -1.
          2   -1    0    0  501    0  0.00000000000E+00 -0.00000000000E+00 -0.40866179510E+04  0.40866179510E+04  0.00000000000E+00 0.  1.
    2000013    1    1    2    0    0  0.28209696618E+03 -0.96258543978E+03 -0.84479371803E+03  0.16193597047E+04  0.95000000000E+03 0.  0.
   -2000013    1    1    2    0    0 -0.28209696618E+03  0.96258543978E+03 -0.26873822054E+04  0.30217002738E+04  0.95000000000E+03 0.  0.
<mgrwt>
<rscale>  0 0.30105101E+04</rscale>
<asrwt>0</asrwt>
<pdfrwt beam="2">  1        2 0.62871046E+00 0.30105101E+04</pdfrwt>
<pdfrwt beam="1">  1       -2 0.85298772E-01 0.30105101E+04</pdfrwt>
<totfact> 0.29667354E-01</totfact>
</mgrwt>
</event>
<event>
 4    1  0.1343107E-008  0.2639277E+04  0.7816531E-02  0.8354981E-01
          2   -1    0    0  501    0  0.00000000000E+00  0.00000000000E+00  0.16262588133E+04  0.16262588133E+04  0.00000000000E+00 0.  1.
         -2   -1    0    0    0  501 -0.00000000000E+00 -0.00000000000E+00 -0.10708292133E+04  0.10708292133E+04  0.00000000000E+00 0. -1.
    2000013    1    1    2    0    0  0.89213627420E+03 -0.12164794922E+03  0.10598596290E+03  0.13131787310E+04  0.95000000000E+03 0.  0.
   -2000013    1    1    2    0    0 -0.89213627420E+03  0.12164794922E+03  0.44944363710E+03  0.13839092955E+04  0.95000000000E+03 0.  0.
<mgrwt>
<rscale>  0 0.26392768E+04</rscale>
<asrwt>0</asrwt>
<pdfrwt beam="1">  1        2 0.25019367E+00 0.26392768E+04</pdfrwt>
<pdfrwt beam="2">  1       -2 0.16474295E+00 0.26392768E+04</pdfrwt>
<totfact> 0.22105569E+00</totfact>
</mgrwt>
</event>
<event>
 4    1  0.1343107E-008  0.2548035E+04  0.7816531E-02  0.8386070E-01
          2   -1    0    0  501    0  0.00000000000E+00  0.00000000000E+00  0.16462793528E+04  0.16462793528E+04  0.00000000000E+00 0.  1.
         -2   -1    0    0    0  501 -0.00000000000E+00 -0.00000000000E+00 -0.98593295666E+03  0.98593295666E+03  0.00000000000E+00 0. -1.
    2000013    1    1    2    0    0 -0.57417829301E+03 -0.55462712783E+03  0.62837744582E+03  0.13909170275E+04  0.95000000000E+03 0.  0.
   -2000013    1    1    2    0    0  0.57417829301E+03  0.55462712783E+03  0.31968950308E+02  0.12412952819E+04  0.95000000000E+03 0.  0.
<mgrwt>
<rscale>  0 0.25480354E+04</rscale>
<asrwt>0</asrwt>
<pdfrwt beam="1">  1        2 0.25327375E+00 0.25480354E+04</pdfrwt>
<pdfrwt beam="2">  1       -2 0.15168199E+00 0.25480354E+04</pdfrwt>
<totfact> 0.27153873E+00</totfact>
</mgrwt>
</event>
<event>
 4    1  0.1343107E-008  0.2222736E+04  0.7816531E-02  0.8509024E-01
         -2   -1    0    0    0  501 -0.00000000000E+00  0.00000000000E+00  0.62123321646E+03  0.62123321646E+03  0.00000000000E+00 0. -1.
          2   -1    0    0  501    0  0.00000000000E+00 -0.00000000000E+00 -0.19882055057E+04  0.19882055057E+04  0.00000000000E+00 0.  1.
    2000013    1    1    2    0    0 -0.25939566891E+03 -0.23862615126E+03 -0.12194298727E+04  0.15854771419E+04  0.95000000000E+03 0.  0.
   -2000013    1    1    2    0    0  0.25939566891E+03  0.23862615126E+03 -0.14754241653E+03  0.10239615802E+04  0.95000000000E+03 0.  0.
<mgrwt>
<rscale>  0 0.22227364E+04</rscale>
<asrwt>0</asrwt>
<pdfrwt beam="2">  1        2 0.30587777E+00 0.22227364E+04</pdfrwt>
<pdfrwt beam="1">  1       -2 0.95574342E-01 0.22227364E+04</pdfrwt>
<totfact> 0.56863260E+00</totfact>
</mgrwt>
</event>
<event>
 4    1  0.1343107E-008  0.3320680E+04  0.7816531E-02  0.8157653E-01
          2   -1    0    0  501    0  0.00000000000E+00  0.00000000000E+00  0.17026053805E+04  0.17026053805E+04  0.00000000000E+00 0.  1.
         -2   -1    0    0    0  501 -0.00000000000E+00 -0.00000000000E+00 -0.16191241038E+04  0.16191241038E+04  0.00000000000E+00 0. -1.
    2000013    1    1    2    0    0 -0.13192465272E+04 -0.92918495067E+02  0.36616419201E+03  0.16690181130E+04  0.95000000000E+03 0.  0.
   -2000013    1    1    2    0    0  0.13192465272E+04  0.92918495067E+02 -0.28268291523E+03  0.16527113713E+04  0.95000000000E+03 0.  0.
<mgrwt>
<rscale>  0 0.33206803E+04</rscale>
<asrwt>0</asrwt>
<pdfrwt beam="1">  1        2 0.26193929E+00 0.33206803E+04</pdfrwt>
<pdfrwt beam="2">  1       -2 0.24909602E+00 0.33206803E+04</pdfrwt>
<totfact> 0.53049784E-01</totfact>
</mgrwt>
</event>
<event>
 4    1  0.1343107E-008  0.2024303E+04  0.7816531E-02  0.8595342E-01
         -1   -1    0    0    0  501 -0.00000000000E+00  0.00000000000E+00  0.22430391418E+04  0.22430391418E+04  0.00000000000E+00 0. -1.
          1   -1    0    0  501    0  0.00000000000E+00 -0.00000000000E+00 -0.45672429250E+03  0.45672429250E+03  0.00000000000E+00 0.  1.
    2000013    1    1    2    0    0  0.30793617049E+02 -0.31829641624E+03  0.10802983561E+04  0.14737046494E+04  0.95000000000E+03 0.  0.
   -2000013    1    1    2    0    0 -0.30793617049E+02  0.31829641624E+03  0.70601649323E+03  0.12260587849E+04  0.95000000000E+03 0.  0.
<mgrwt>
<rscale>  0 0.20243028E+04</rscale>
<asrwt>0</asrwt>
<pdfrwt beam="2">  1        1 0.70265277E-01 0.20243028E+04</pdfrwt>
<pdfrwt beam="1">  1       -1 0.34508294E+00 0.20243028E+04</pdfrwt>
<totfact> 0.77909608E-01</totfact>
</mgrwt>
</event>
<event>
 4    1  0.1343107E-008  0.2082540E+04  0.7816531E-02  0.8568974E-01
          2   -1    0    0  501    0  0.00000000000E+00  0.00000000000E+00  0.20251439415E+04  0.20251439415E+04  0.00000000000E+00 0.  1.
         -2   -1    0    0    0  501 -0.00000000000E+00 -0.00000000000E+00 -0.53539066476E+03  0.53539066476E+03  0.00000000000E+00 0. -1.
    2000013    1    1    2    0    0 -0.39765179696E+03  0.15258212724E+03  0.72237586670E+03  0.12671760533E+04  0.95000000000E+03 0.  0.
   -2000013    1    1    2    0    0  0.39765179696E+03 -0.15258212724E+03  0.76737741007E+03  0.12933585530E+04  0.95000000000E+03 0.  0.
<mgrwt>
<rscale>  0 0.20825400E+04</rscale>
<asrwt>0</asrwt>
<pdfrwt beam="1">  1        2 0.31156060E+00 0.20825400E+04</pdfrwt>
<pdfrwt beam="2">  1       -2 0.82367796E-01 0.20825400E+04</pdfrwt>
<totfact> 0.77257954E+00</totfact>
</mgrwt>
</event>
<event>
 4    1  0.1343107E-008  0.3228398E+04  0.7816531E-02  0.8181357E-01
         -2   -1    0    0    0  501 -0.00000000000E+00  0.00000000000E+00  0.12682958695E+04  0.12682958695E+04  0.00000000000E+00 0. -1.
          2   -1    0    0  501    0  0.00000000000E+00 -0.00000000000E+00 -0.20544400132E+04  0.20544400132E+04  0.00000000000E+00 0.  1.
    2000013    1    1    2    0    0 -0.11535928834E+04 -0.42042417304E+03  0.62124005053E+02  0.15536706272E+04  0.95000000000E+03 0.  0.
   -2000013    1    1    2    0    0  0.11535928834E+04  0.42042417304E+03 -0.84826814878E+03  0.17690652555E+04  0.95000000000E+03 0.  0.
<mgrwt>
<rscale>  0 0.32283976E+04</rscale>
<asrwt>0</asrwt>
<pdfrwt beam="2">  1        2 0.31606769E+00 0.32283976E+04</pdfrwt>
<pdfrwt beam="1">  1       -2 0.19512244E+00 0.32283976E+04</pdfrwt>
<totfact> 0.74983823E-01</totfact>
</mgrwt>
</event>
<event>
 4    1  0.1343107E-008  0.2848863E+04  0.7816531E-02  0.8288257E-01
         -2   -1    0    0    0  501 -0.00000000000E+00  0.00000000000E+00  0.14418270398E+04  0.14418270398E+04  0.00000000000E+00 0. -1.
          2   -1    0    0  501    0  0.00000000000E+00 -0.00000000000E+00 -0.14072462206E+04  0.14072462206E+04  0.00000000000E+00 0.  1.
    2000013    1    1    2    0    0 -0.10559625574E+04  0.58569065094E+02  0.10684249421E+03  0.14256235747E+04  0.95000000000E+03 0.  0.
   -2000013    1    1    2    0    0  0.10559625574E+04 -0.58569065094E+02 -0.72261674960E+02  0.14234496857E+04  0.95000000000E+03 0.  0.
<mgrwt>
<rscale>  0 0.28488634E+04</rscale>
<asrwt>0</asrwt>
<pdfrwt beam="2">  1        2 0.21649942E+00 0.28488634E+04</pdfrwt>
<pdfrwt beam="1">  1       -2 0.22181955E+00 0.28488634E+04</pdfrwt>
<totfact> 0.11956772E+00</totfact>
</mgrwt>
</event>
<event>
 4    1  0.1343107E-008  0.1995481E+04  0.7816531E-02  0.8608736E-01
          2   -1    0    0  501    0  0.00000000000E+00  0.00000000000E+00  0.16975035030E+04  0.16975035030E+04  0.00000000000E+00 0. -1.
         -2   -1    0    0    0  501 -0.00000000000E+00 -0.00000000000E+00 -0.58644121660E+03  0.58644121660E+03  0.00000000000E+00 0.  1.
    2000013    1    1    2    0    0 -0.29920724297E+02 -0.25065645443E+03  0.75132129394E+03  0.12372176828E+04  0.95000000000E+03 0.  0.
   -2000013    1    1    2    0    0  0.29920724297E+02  0.25065645443E+03  0.35974099243E+03  0.10467270368E+04  0.95000000000E+03 0.  0.
<mgrwt>
<rscale>  0 0.19954809E+04</rscale>
<asrwt>0</asrwt>
<pdfrwt beam="1">  1        2 0.26115438E+00 0.19954809E+04</pdfrwt>
<pdfrwt beam="2">  1       -2 0.90221726E-01 0.19954809E+04</pdfrwt>
<totfact> 0.96083865E+00</totfact>
</mgrwt>
</event>
<event>
 4    1  0.1343107E-008  0.2660327E+04  0.7816531E-02  0.8347993E-01
         -2   -1    0    0    0  501 -0.00000000000E+00  0.00000000000E+00  0.48117904361E+03  0.48117904361E+03  0.00000000000E+00 0. -1.
          2   -1    0    0  501    0  0.00000000000E+00 -0.00000000000E+00 -0.36770825950E+04  0.36770825950E+04  0.00000000000E+00 0.  1.
    2000013    1    1    2    0    0 -0.30494043566E+02  0.91873849589E+03 -0.13670370301E+04  0.19016573172E+04  0.95000000000E+03 0.  0.
   -2000013    1    1    2    0    0  0.30494043566E+02 -0.91873849589E+03 -0.18288665213E+04  0.22566043214E+04  0.95000000000E+03 0.  0.
<mgrwt>
<rscale>  0 0.26603271E+04</rscale>
<asrwt>0</asrwt>
<pdfrwt beam="2">  1        2 0.56570500E+00 0.26603271E+04</pdfrwt>
<pdfrwt beam="1">  1       -2 0.74027547E-01 0.26603271E+04</pdfrwt>
<totfact> 0.87862286E-01</totfact>
</mgrwt>
</event>
<event>
 4    1  0.1343107E-008  0.3085291E+04  0.7816531E-02  0.8219786E-01
         -2   -1    0    0    0  501 -0.00000000000E+00  0.00000000000E+00  0.14506321575E+04  0.14506321575E+04  0.00000000000E+00 0. -1.
          2   -1    0    0  501    0  0.00000000000E+00 -0.00000000000E+00 -0.16404947881E+04  0.16404947881E+04  0.00000000000E+00 0.  1.
    2000013    1    1    2    0    0  0.62432977360E+02 -0.11877984553E+04 -0.34538709408E+03  0.15609469216E+04  0.95000000000E+03 0.  0.
   -2000013    1    1    2    0    0 -0.62432977360E+02  0.11877984553E+04  0.15552446343E+03  0.15301800240E+04  0.95000000000E+03 0.  0.
<mgrwt>
<rscale>  0 0.30852906E+04</rscale>
<asrwt>0</asrwt>
<pdfrwt beam="2">  1        2 0.25238381E+00 0.30852906E+04</pdfrwt>
<pdfrwt beam="1">  1       -2 0.22317418E+00 0.30852906E+04</pdfrwt>
<totfact> 0.84921891E-01</totfact>
</mgrwt>
</event>
<event>
 4    1  0.1343107E-008  0.2773744E+04  0.7816531E-02  0.8311467E-01
         -2   -1    0    0    0  501 -0.00000000000E+00  0.00000000000E+00  0.92327428909E+03  0.92327428909E+03  0.00000000000E+00 0. -1.
          2   -1    0    0  501    0  0.00000000000E+00 -0.00000000000E+00 -0.20832526704E+04  0.20832526704E+04  0.00000000000E+00 0.  1.
    2000013    1    1    2    0    0  0.71512372543E+03  0.51781006256E+03 -0.11125306013E+04  0.17087286334E+04  0.95000000000E+03 0.  0.
   -2000013    1    1    2    0    0 -0.71512372543E+03 -0.51781006256E+03 -0.47447780004E+02  0.12977983262E+04  0.95000000000E+03 0.  0.
<mgrwt>
<rscale>  0 0.27737438E+04</rscale>
<asrwt>0</asrwt>
<pdfrwt beam="2">  1        2 0.32050041E+00 0.27737438E+04</pdfrwt>
<pdfrwt beam="1">  1       -2 0.14204220E+00 0.27737438E+04</pdfrwt>
<totfact> 0.18107830E+00</totfact>
</mgrwt>
</event>
<event>
 4    1  0.1343107E-008  0.2371376E+04  0.7816531E-02  0.8450298E-01
         -2   -1    0    0    0  501 -0.00000000000E+00  0.00000000000E+00  0.12191265278E+04  0.12191265278E+04  0.00000000000E+00 0.  1.
          2   -1    0    0  501    0  0.00000000000E+00 -0.00000000000E+00 -0.11531665225E+04  0.11531665225E+04  0.00000000000E+00 0. -1.
    2000013    1    1    2    0    0  0.70593228012E+03 -0.70413157049E+02  0.25394078019E+02  0.11859356036E+04  0.95000000000E+03 0.  0.
   -2000013    1    1    2    0    0 -0.70593228012E+03  0.70413157049E+02  0.40565927332E+02  0.11863574467E+04  0.95000000000E+03 0.  0.
<mgrwt>
<rscale>  0 0.23713759E+04</rscale>
<asrwt>0</asrwt>
<pdfrwt beam="2">  1        2 0.17741023E+00 0.23713759E+04</pdfrwt>
<pdfrwt beam="1">  1       -2 0.18755793E+00 0.23713759E+04</pdfrwt>
<totfact> 0.29327903E+00</totfact>
</mgrwt>
</event>
<event>
 4    1  0.1343107E-008  0.2745318E+04  0.7816531E-02  0.8320449E-01
         -1   -1    0    0    0  501 -0.00000000000E+00  0.00000000000E+00  0.60121551836E+03  0.60121551836E+03  0.00000000000E+00 0. -1.
          1   -1    0    0  501    0  0.00000000000E+00 -0.00000000000E+00 -0.31339722389E+04  0.31339722389E+04  0.00000000000E+00 0.  1.
    2000013    1    1    2    0    0  0.67354727837E+03 -0.64095814378E+02 -0.28157015234E+03  0.11998149692E+04  0.95000000000E+03 0.  0.
   -2000013    1    1    2    0    0 -0.67354727837E+03  0.64095814378E+02 -0.22511865682E+04  0.25353727881E+04  0.95000000000E+03 0.  0.
<mgrwt>
<rscale>  0 0.27453180E+04</rscale>
<asrwt>0</asrwt>
<pdfrwt beam="2">  1        1 0.48214958E+00 0.27453180E+04</pdfrwt>
<pdfrwt beam="1">  1       -1 0.92494695E-01 0.27453180E+04</pdfrwt>
<totfact> 0.47063912E-01</totfact>
</mgrwt>
</event>
<event>
 4    1  0.1343107E-008  0.2501764E+04  0.7816531E-02  0.8402357E-01
          2   -1    0    0  501    0  0.00000000000E+00  0.00000000000E+00  0.71375266954E+03  0.71375266954E+03  0.00000000000E+00 0.  1.
         -2   -1    0    0    0  501 -0.00000000000E+00 -0.00000000000E+00 -0.21922240084E+04  0.21922240084E+04  0.00000000000E+00 0. -1.
    2000013    1    1    2    0    0 -0.21380429643E+03 -0.78472195571E+03 -0.70839572138E+03  0.14372979242E+04  0.95000000000E+03 0.  0.
   -2000013    1    1    2    0    0  0.21380429643E+03  0.78472195571E+03 -0.77007561751E+03  0.14686787537E+04  0.95000000000E+03 0.  0.
<mgrwt>
<rscale>  0 0.25017640E+04</rscale>
<asrwt>0</asrwt>
<pdfrwt beam="1">  1        2 0.10980810E+00 0.25017640E+04</pdfrwt>
<pdfrwt beam="2">  1       -2 0.33726523E+00 0.25017640E+04</pdfrwt>
<totfact> 0.66694987E-01</totfact>
</mgrwt>
</event>
<event>
 4    1  0.1343107E-008  0.2491599E+04  0.7816531E-02  0.8405984E-01
         -2   -1    0    0    0  501 -0.00000000000E+00  0.00000000000E+00  0.14605059525E+04  0.14605059525E+04  0.00000000000E+00 0. -1.
          2   -1    0    0  501    0  0.00000000000E+00 -0.00000000000E+00 -0.10626569330E+04  0.10626569330E+04  0.00000000000E+00 0.  1.
    2000013    1    1    2    0    0 -0.18560662217E+03  0.70024343331E+03 -0.15871520844E+03  0.12051892804E+04  0.95000000000E+03 0.  0.
   -2000013    1    1    2    0    0  0.18560662217E+03 -0.70024343331E+03  0.55656422798E+03  0.13179736052E+04  0.95000000000E+03 0.  0.
<mgrwt>
<rscale>  0 0.24915993E+04</rscale>
<asrwt>0</asrwt>
<pdfrwt beam="2">  1        2 0.16348568E+00 0.24915993E+04</pdfrwt>
<pdfrwt beam="1">  1       -2 0.22469322E+00 0.24915993E+04</pdfrwt>
<totfact> 0.18933522E+00</totfact>
</mgrwt>
</event>
<event>
 4    1  0.1343107E-008  0.2710753E+04  0.7816531E-02  0.8331524E-01
          2   -1    0    0  501    0  0.00000000000E+00  0.00000000000E+00  0.38058984698E+04  0.38058984698E+04  0.00000000000E+00 0.  1.
         -2   -1    0    0    0  501 -0.00000000000E+00 -0.00000000000E+00 -0.48268395214E+03  0.48268395214E+03  0.00000000000E+00 0. -1.
    2000013    1    1    2    0    0  0.45545370720E+03 -0.53346395839E+03  0.60917956182E+03  0.13287669520E+04  0.95000000000E+03 0.  0.
   -2000013    1    1    2    0    0 -0.45545370720E+03  0.53346395839E+03  0.27140349558E+04  0.29598154699E+04  0.95000000000E+03 0.  0.
<mgrwt>
<rscale>  0 0.27107535E+04</rscale>
<asrwt>0</asrwt>
<pdfrwt beam="1">  1        2 0.58552282E+00 0.27107535E+04</pdfrwt>
<pdfrwt beam="2">  1       -2 0.74259072E-01 0.27107535E+04</pdfrwt>
<totfact> 0.69603374E-01</totfact>
</mgrwt>
</event>
<event>
 4    1  0.1343107E-008  0.2709206E+04  0.7816531E-02  0.8332024E-01
         -2   -1    0    0    0  501 -0.00000000000E+00  0.00000000000E+00  0.71057738910E+03  0.71057738910E+03  0.00000000000E+00 0. -1.
          2   -1    0    0  501    0  0.00000000000E+00 -0.00000000000E+00 -0.25823359430E+04  0.25823359430E+04  0.00000000000E+00 0.  1.
    2000013    1    1    2    0    0  0.72377522598E+03 -0.23213898521E+03 -0.21198485207E+03  0.12349804305E+04  0.95000000000E+03 0.  0.
   -2000013    1    1    2    0    0 -0.72377522598E+03  0.23213898521E+03 -0.16597737018E+04  0.20579329016E+04  0.95000000000E+03 0.  0.
<mgrwt>
<rscale>  0 0.27092062E+04</rscale>
<asrwt>0</asrwt>
<pdfrwt beam="2">  1        2 0.39728245E+00 0.27092062E+04</pdfrwt>
<pdfrwt beam="1">  1       -2 0.10931960E+00 0.27092062E+04</pdfrwt>
<totfact> 0.18218358E+00</totfact>
</mgrwt>
</event>
<event>
 4    1  0.1343107E-008  0.2506999E+04  0.7816531E-02  0.8400496E-01
         -4   -1    0    0    0  501 -0.00000000000E+00  0.00000000000E+00  0.22176818975E+04  0.22176818975E+04  0.00000000000E+00 0. -1.
          4   -1    0    0  501    0  0.00000000000E+00 -0.00000000000E+00 -0.70851515000E+03  0.70851515000E+03  0.00000000000E+00 0.  1.
    2000013    1    1    2    0    0 -0.59062309065E+03  0.14293922825E+02  0.94596738555E+02  0.11227147876E+04  0.95000000000E+03 0.  0.
   -2000013    1    1    2    0    0  0.59062309065E+03 -0.14293922825E+02  0.14145700089E+04  0.18034822599E+04  0.95000000000E+03 0.  0.
<mgrwt>
<rscale>  0 0.25069992E+04</rscale>
<asrwt>0</asrwt>
<pdfrwt beam="2">  1        4 0.10900233E+00 0.25069992E+04</pdfrwt>
<pdfrwt beam="1">  1       -4 0.34118183E+00 0.25069992E+04</pdfrwt>
<totfact> 0.20180562E-02</totfact>
</mgrwt>
</event>
<event>
 4    1  0.1343107E-008  0.2301549E+04  0.7816531E-02  0.8477311E-01
         -2   -1    0    0    0  501 -0.00000000000E+00  0.00000000000E+00  0.61582728255E+03  0.61582728255E+03  0.00000000000E+00 0. -1.
          2   -1    0    0  501    0  0.00000000000E+00 -0.00000000000E+00 -0.21504112766E+04  0.21504112766E+04  0.00000000000E+00 0.  1.
    2000013    1    1    2    0    0  0.40349997998E+03  0.49930199724E+03 -0.88546549398E+03  0.14486765889E+04  0.95000000000E+03 0.  0.
   -2000013    1    1    2    0    0 -0.40349997998E+03 -0.49930199724E+03 -0.64911850011E+03  0.13175619703E+04  0.95000000000E+03 0.  0.
<mgrwt>
<rscale>  0 0.23015490E+04</rscale>
<asrwt>0</asrwt>
<pdfrwt beam="2">  1        2 0.33083250E+00 0.23015490E+04</pdfrwt>
<pdfrwt beam="1">  1       -2 0.94742660E-01 0.23015490E+04</pdfrwt>
<totfact> 0.46808747E+00</totfact>
</mgrwt>
</event>
<event>
 4    1  0.1343107E-008  0.2360225E+04  0.7816531E-02  0.8454547E-01
         -2   -1    0    0    0  501 -0.00000000000E+00  0.00000000000E+00  0.14715735863E+04  0.14715735863E+04  0.00000000000E+00 0. -1.
          2   -1    0    0  501    0  0.00000000000E+00 -0.00000000000E+00 -0.94637809804E+03  0.94637809804E+03  0.00000000000E+00 0.  1.
    2000013    1    1    2    0    0 -0.54091963222E+03 -0.18836388265E+03 -0.14985330836E+03  0.11193886791E+04  0.95000000000E+03 0.  0.
   -2000013    1    1    2    0    0  0.54091963222E+03  0.18836388265E+03  0.67504879658E+03  0.12985630052E+04  0.95000000000E+03 0.  0.
<mgrwt>
<rscale>  0 0.23602246E+04</rscale>
<asrwt>0</asrwt>
<pdfrwt beam="2">  1        2 0.14559663E+00 0.23602246E+04</pdfrwt>
<pdfrwt beam="1">  1       -2 0.22639594E+00 0.23602246E+04</pdfrwt>
<totfact> 0.22177003E+00</totfact>
</mgrwt>
</event>
<event>
 4    1  0.1343107E-008  0.2330823E+04  0.7816531E-02  0.8465866E-01
         -2   -1    0    0    0  501 -0.00000000000E+00  0.00000000000E+00  0.78055229422E+03  0.78055229422E+03  0.00000000000E+00 0. -1.
          2   -1    0    0  501    0  0.00000000000E+00 -0.00000000000E+00 -0.17400292045E+04  0.17400292045E+04  0.00000000000E+00 0.  1.
    2000013    1    1    2    0    0  0.31297793860E+03  0.59664633196E+03 -0.43460644808E+03  0.12431109364E+04  0.95000000000E+03 0.  0.
   -2000013    1    1    2    0    0 -0.31297793860E+03 -0.59664633196E+03 -0.52487046221E+03  0.12774705623E+04  0.95000000000E+03 0.  0.
<mgrwt>
<rscale>  0 0.23308228E+04</rscale>
<asrwt>0</asrwt>
<pdfrwt beam="2">  1        2 0.26769680E+00 0.23308228E+04</pdfrwt>
<pdfrwt beam="1">  1       -2 0.12008497E+00 0.23308228E+04</pdfrwt>
<totfact> 0.44665194E+00</totfact>
</mgrwt>
</event>
<event>
 4    1  0.1343107E-008  0.3049603E+04  0.7816531E-02  0.8229706E-01
          2   -1    0    0  501    0  0.00000000000E+00  0.00000000000E+00  0.10246818072E+04  0.10246818072E+04  0.00000000000E+00 0.  1.
         -2   -1    0    0    0  501 -0.00000000000E+00 -0.00000000000E+00 -0.22690168577E+04  0.22690168577E+04  0.00000000000E+00 0. -1.
    2000013    1    1    2    0    0  0.89392495090E+03 -0.64271795209E+01  0.23057110945E+03  0.13246909689E+04  0.95000000000E+03 0.  0.
   -2000013    1    1    2    0    0 -0.89392495090E+03  0.64271795209E+01 -0.14749061599E+04  0.19690076960E+04  0.95000000000E+03 0.  0.
<mgrwt>
<rscale>  0 0.30496034E+04</rscale>
<asrwt>0</asrwt>
<pdfrwt beam="1">  1        2 0.15764336E+00 0.30496034E+04</pdfrwt>
<pdfrwt beam="2">  1       -2 0.34907951E+00 0.30496034E+04</pdfrwt>
<totfact> 0.32640124E-01</totfact>
</mgrwt>
</event>
<event>
 4    1  0.1343107E-008  0.2386055E+04  0.7816531E-02  0.8444743E-01
          3   -1    0    0  501    0  0.00000000000E+00  0.00000000000E+00  0.10737020852E+04  0.10737020852E+04  0.00000000000E+00 0. -1.
         -3   -1    0    0    0  501 -0.00000000000E+00 -0.00000000000E+00 -0.13256146456E+04  0.13256146456E+04  0.00000000000E+00 0.  1.
    2000013    1    1    2    0    0 -0.43934108514E+03 -0.56672469843E+03 -0.44154685239E+02  0.11910697331E+04  0.95000000000E+03 0.  0.
   -2000013    1    1    2    0    0  0.43934108514E+03  0.56672469843E+03 -0.20775787513E+03  0.12082469978E+04  0.95000000000E+03 0.  0.
<mgrwt>
<rscale>  0 0.23860555E+04</rscale>
<asrwt>0</asrwt>
<pdfrwt beam="1">  1        3 0.16518494E+00 0.23860555E+04</pdfrwt>
<pdfrwt beam="2">  1       -3 0.20394071E+00 0.23860555E+04</pdfrwt>
<totfact> 0.81414223E-02</totfact>
</mgrwt>
</event>
<event>
 4    1  0.1343107E-008  0.2527986E+04  0.7816531E-02  0.8393083E-01
         -2   -1    0    0    0  501 -0.00000000000E+00  0.00000000000E+00  0.11988977843E+04  0.11988977843E+04  0.00000000000E+00 0. -1.
          2   -1    0    0  501    0  0.00000000000E+00 -0.00000000000E+00 -0.13326221844E+04  0.13326221844E+04  0.00000000000E+00 0.  1.
    2000013    1    1    2    0    0 -0.80750494728E+03  0.17176056765E+03  0.49970757059E+02  0.12595884284E+04  0.95000000000E+03 0.  0.
   -2000013    1    1    2    0    0  0.80750494728E+03 -0.17176056765E+03 -0.18369515713E+03  0.12719315403E+04  0.95000000000E+03 0.  0.
<mgrwt>
<rscale>  0 0.25279856E+04</rscale>
<asrwt>0</asrwt>
<pdfrwt beam="2">  1        2 0.20501880E+00 0.25279856E+04</pdfrwt>
<pdfrwt beam="1">  1       -2 0.18444581E+00 0.25279856E+04</pdfrwt>
<totfact> 0.23800837E+00</totfact>
</mgrwt>
</event>
<event>
 4    1  0.1343107E-008  0.2342652E+04  0.7816531E-02  0.8461291E-01
         -2   -1    0    0    0  501 -0.00000000000E+00  0.00000000000E+00  0.84652503644E+03  0.84652503644E+03  0.00000000000E+00 0. -1.
          2   -1    0    0  501    0  0.00000000000E+00 -0.00000000000E+00 -0.16207496553E+04  0.16207496553E+04  0.00000000000E+00 0.  1.
    2000013    1    1    2    0    0 -0.67476296392E+03  0.11499491958E+03 -0.42001982171E+03  0.12439636408E+04  0.95000000000E+03 0.  0.
   -2000013    1    1    2    0    0  0.67476296392E+03 -0.11499491958E+03 -0.35420479714E+03  0.12233110509E+04  0.95000000000E+03 0.  0.
<mgrwt>
<rscale>  0 0.23426525E+04</rscale>
<asrwt>0</asrwt>
<pdfrwt beam="2">  1        2 0.24934610E+00 0.23426525E+04</pdfrwt>
<pdfrwt beam="1">  1       -2 0.13023462E+00 0.23426525E+04</pdfrwt>
<totfact> 0.42415259E+00</totfact>
</mgrwt>
</event>
<event>
 4    1  0.1343107E-008  0.2297562E+04  0.7816531E-02  0.8478883E-01
          2   -1    0    0  501    0  0.00000000000E+00  0.00000000000E+00  0.14720382215E+04  0.14720382215E+04  0.00000000000E+00 0.  1.
         -2   -1    0    0    0  501 -0.00000000000E+00 -0.00000000000E+00 -0.89651038447E+03  0.89651038447E+03  0.00000000000E+00 0. -1.
    2000013    1    1    2    0    0 -0.40396682670E+03  0.36977485759E+03  0.64079882912E+03  0.12700573931E+04  0.95000000000E+03 0.  0.
   -2000013    1    1    2    0    0  0.40396682670E+03 -0.36977485759E+03 -0.65270992077E+02  0.10984912129E+04  0.95000000000E+03 0.  0.
<mgrwt>
<rscale>  0 0.22975618E+04</rscale>
<asrwt>0</asrwt>
<pdfrwt beam="1">  1        2 0.22646742E+00 0.22975618E+04</pdfrwt>
<pdfrwt beam="2">  1       -2 0.13792467E+00 0.22975618E+04</pdfrwt>
<totfact> 0.44579312E+00</totfact>
</mgrwt>
</event>
<event>
 4    1  0.1343107E-008  0.2242603E+04  0.7816531E-02  0.8500902E-01
          2   -1    0    0  501    0  0.00000000000E+00  0.00000000000E+00  0.23930267859E+04  0.23930267859E+04  0.00000000000E+00 0.  1.
         -2   -1    0    0    0  501 -0.00000000000E+00 -0.00000000000E+00 -0.52540859867E+03  0.52540859867E+03  0.00000000000E+00 0. -1.
    2000013    1    1    2    0    0  0.47804309097E+03  0.35412102844E+03  0.97263133894E+03  0.14840615287E+04  0.95000000000E+03 0.  0.
   -2000013    1    1    2    0    0 -0.47804309097E+03 -0.35412102844E+03  0.89498684825E+03  0.14343738558E+04  0.95000000000E+03 0.  0.
<mgrwt>
<rscale>  0 0.22426028E+04</rscale>
<asrwt>0</asrwt>
<pdfrwt beam="1">  1        2 0.36815796E+00 0.22426028E+04</pdfrwt>
<pdfrwt beam="2">  1       -2 0.80832093E-01 0.22426028E+04</pdfrwt>
<totfact> 0.49350360E+00</totfact>
</mgrwt>
</event>
<event>
 4    1  0.1343107E-008  0.4547368E+04  0.7816531E-02  0.7902396E-01
          2   -1    0    0  501    0  0.00000000000E+00  0.00000000000E+00  0.23605448500E+04  0.23605448500E+04  0.00000000000E+00 0.  1.
         -2   -1    0    0    0  501 -0.00000000000E+00 -0.00000000000E+00 -0.21900193544E+04  0.21900193544E+04  0.00000000000E+00 0. -1.
    2000013    1    1    2    0    0  0.24073432863E+03 -0.10431547036E+03 -0.19651537913E+04  0.21984458505E+04  0.95000000000E+03 0.  0.
   -2000013    1    1    2    0    0 -0.24073432863E+03  0.10431547036E+03  0.21356792869E+04  0.23521183539E+04  0.95000000000E+03 0.  0.
<mgrwt>
<rscale>  0 0.45473680E+04</rscale>
<asrwt>0</asrwt>
<pdfrwt beam="1">  1        2 0.36316075E+00 0.45473680E+04</pdfrwt>
<pdfrwt beam="2">  1       -2 0.33692605E+00 0.45473680E+04</pdfrwt>
<totfact> 0.59408884E-02</totfact>
</mgrwt>
</event>
<event>
 4    1  0.1343107E-008  0.2336539E+04  0.7816531E-02  0.8463652E-01
          2   -1    0    0  501    0  0.00000000000E+00  0.00000000000E+00  0.37557755512E+03  0.37557755512E+03  0.00000000000E+00 0.  1.
         -2   -1    0    0    0  501 -0.00000000000E+00 -0.00000000000E+00 -0.36340136708E+04  0.36340136708E+04  0.00000000000E+00 0. -1.
    2000013    1    1    2    0    0  0.39809825496E+03 -0.53311170547E+03 -0.13885828484E+04  0.18092409010E+04  0.95000000000E+03 0.  0.
   -2000013    1    1    2    0    0 -0.39809825496E+03  0.53311170547E+03 -0.18698532673E+04  0.22003503249E+04  0.95000000000E+03 0.  0.
<mgrwt>
<rscale>  0 0.23365393E+04</rscale>
<asrwt>0</asrwt>
<pdfrwt beam="1">  1        2 0.57781162E-01 0.23365393E+04</pdfrwt>
<pdfrwt beam="2">  1       -2 0.55907903E+00 0.23365393E+04</pdfrwt>
<totfact> 0.58509930E-02</totfact>
</mgrwt>
</event>
<event>
 4    1  0.1343107E-008  0.4595678E+04  0.7816531E-02  0.7894097E-01
         -2   -1    0    0    0  501 -0.00000000000E+00  0.00000000000E+00  0.19652284461E+04  0.19652284461E+04  0.00000000000E+00 0. -1.
          2   -1    0    0  501    0  0.00000000000E+00 -0.00000000000E+00 -0.26867436087E+04  0.26867436087E+04  0.00000000000E+00 0.  1.
    2000013    1    1    2    0    0 -0.16715533790E+03 -0.19238779817E+04  0.45428700065E+03  0.21995736120E+04  0.95000000000E+03 0.  0.
   -2000013    1    1    2    0    0  0.16715533790E+03  0.19238779817E+04 -0.11758021632E+04  0.24523984428E+04  0.95000000000E+03 0.  0.
<mgrwt>
<rscale>  0 0.45956784E+04</rscale>
<asrwt>0</asrwt>
<pdfrwt beam="2">  1        2 0.41334517E+00 0.45956784E+04</pdfrwt>
<pdfrwt beam="1">  1       -2 0.30234284E+00 0.45956784E+04</pdfrwt>
<totfact> 0.62517846E-02</totfact>
</mgrwt>
</event>
<event>
 4    1  0.1343107E-008  0.2598231E+04  0.7816531E-02  0.8368802E-01
         -2   -1    0    0    0  501 -0.00000000000E+00  0.00000000000E+00  0.63171897836E+03  0.63171897836E+03  0.00000000000E+00 0.  1.
          2   -1    0    0  501    0  0.00000000000E+00 -0.00000000000E+00 -0.26716012825E+04  0.26716012825E+04  0.00000000000E+00 0. -1.
    2000013    1    1    2    0    0  0.57027413878E+03 -0.39926036490E+03 -0.32290902215E+03  0.12212254783E+04  0.95000000000E+03 0.  0.
   -2000013    1    1    2    0    0 -0.57027413878E+03  0.39926036490E+03 -0.17169732820E+04  0.20820947825E+04  0.95000000000E+03 0.  0.
<mgrwt>
<rscale>  0 0.25982311E+04</rscale>
<asrwt>0</asrwt>
<pdfrwt beam="2">  1        2 0.41101558E+00 0.25982311E+04</pdfrwt>
<pdfrwt beam="1">  1       -2 0.97187536E-01 0.25982311E+04</pdfrwt>
<totfact> 0.21575778E+00</totfact>
</mgrwt>
</event>
<event>
 4    1  0.1343107E-008  0.2392975E+04  0.7816531E-02  0.8442138E-01
          2   -1    0    0  501    0  0.00000000000E+00  0.00000000000E+00  0.25441927103E+04  0.25441927103E+04  0.00000000000E+00 0.  1.
         -2   -1    0    0    0  501 -0.00000000000E+00 -0.00000000000E+00 -0.56268624889E+03  0.56268624889E+03  0.00000000000E+00 0. -1.
    2000013    1    1    2    0    0 -0.66760120242E+03  0.39823869222E+02  0.61940960963E+03  0.13166038017E+04  0.95000000000E+03 0.  0.
   -2000013    1    1    2    0    0  0.66760120242E+03 -0.39823869222E+02  0.13620968518E+04  0.17902751575E+04  0.95000000000E+03 0.  0.
<mgrwt>
<rscale>  0 0.23929749E+04</rscale>
<asrwt>0</asrwt>
<pdfrwt beam="1">  1        2 0.39141426E+00 0.23929749E+04</pdfrwt>
<pdfrwt beam="2">  1       -2 0.86567117E-01 0.23929749E+04</pdfrwt>
<totfact> 0.34113474E+00</totfact>
</mgrwt>
</event>
<event>
 4    1  0.1343107E-008  0.2085006E+04  0.7816531E-02  0.8567877E-01
         -2   -1    0    0    0  501 -0.00000000000E+00  0.00000000000E+00  0.83711601576E+03  0.83711601576E+03  0.00000000000E+00 0.  1.
          2   -1    0    0  501    0  0.00000000000E+00 -0.00000000000E+00 -0.12982818106E+04  0.12982818106E+04  0.00000000000E+00 0. -1.
    2000013    1    1    2    0    0 -0.17641765826E+03  0.16510498695E+02 -0.63107961549E+03  0.11541911747E+04  0.95000000000E+03 0.  0.
   -2000013    1    1    2    0    0  0.17641765826E+03 -0.16510498695E+02  0.16991382068E+03  0.98120665161E+03  0.95000000000E+03 0.  0.
<mgrwt>
<rscale>  0 0.20850060E+04</rscale>
<asrwt>0</asrwt>
<pdfrwt beam="2">  1        2 0.19973566E+00 0.20850060E+04</pdfrwt>
<pdfrwt beam="1">  1       -2 0.12878708E+00 0.20850060E+04</pdfrwt>
<totfact> 0.68004171E+00</totfact>
</mgrwt>
</event>
<event>
 4    1  0.1343107E-008  0.2605284E+04  0.7816531E-02  0.8366408E-01
          4   -1    0    0  501    0  0.00000000000E+00  0.00000000000E+00  0.70234054811E+03  0.70234054811E+03  0.00000000000E+00 0.  1.
         -4   -1    0    0    0  501 -0.00000000000E+00 -0.00000000000E+00 -0.24160311684E+04  0.24160311684E+04  0.00000000000E+00 0. -1.
    2000013    1    1    2    0    0  0.59977629658E+03 -0.64209538085E+03 -0.67786932093E+03  0.14608302093E+04  0.95000000000E+03 0.  0.
   -2000013    1    1    2    0    0 -0.59977629658E+03  0.64209538085E+03 -0.10358212994E+04  0.16575415073E+04  0.95000000000E+03 0.  0.
<mgrwt>
<rscale>  0 0.26052844E+04</rscale>
<asrwt>0</asrwt>
<pdfrwt beam="1">  1        4 0.10805239E+00 0.26052844E+04</pdfrwt>
<pdfrwt beam="2">  1       -4 0.37169710E+00 0.26052844E+04</pdfrwt>
<totfact> 0.12857702E-02</totfact>
</mgrwt>
</event>
<event>
 4    1  0.1343107E-008  0.2698882E+04  0.7816531E-02  0.8335368E-01
          2   -1    0    0  501    0  0.00000000000E+00  0.00000000000E+00  0.31860167135E+04  0.31860167135E+04  0.00000000000E+00 0.  1.
         -2   -1    0    0    0  501 -0.00000000000E+00 -0.00000000000E+00 -0.57155727881E+03  0.57155727881E+03  0.00000000000E+00 0. -1.
    2000013    1    1    2    0    0  0.81071770414E+03  0.49489802491E+03  0.11294558355E+04  0.17550947938E+04  0.95000000000E+03 0.  0.
   -2000013    1    1    2    0    0 -0.81071770414E+03 -0.49489802491E+03  0.14850035991E+04  0.20024791985E+04  0.95000000000E+03 0.  0.
<mgrwt>
<rscale>  0 0.26988820E+04</rscale>
<asrwt>0</asrwt>
<pdfrwt beam="1">  1        2 0.49015641E+00 0.26988820E+04</pdfrwt>
<pdfrwt beam="2">  1       -2 0.87931891E-01 0.26988820E+04</pdfrwt>
<totfact> 0.12952190E+00</totfact>
</mgrwt>
</event>
<event>
 4    1  0.1343107E-008  0.2695670E+04  0.7816531E-02  0.8336411E-01
         -2   -1    0    0    0  501 -0.00000000000E+00  0.00000000000E+00  0.15977640534E+04  0.15977640534E+04  0.00000000000E+00 0. -1.
          2   -1    0    0  501    0  0.00000000000E+00 -0.00000000000E+00 -0.11370011066E+04  0.11370011066E+04  0.00000000000E+00 0.  1.
    2000013    1    1    2    0    0 -0.47180451335E+03 -0.81072597983E+03  0.41822451638E+03  0.13990310430E+04  0.95000000000E+03 0.  0.
   -2000013    1    1    2    0    0  0.47180451335E+03  0.81072597983E+03  0.42538430462E+02  0.13357341170E+04  0.95000000000E+03 0.  0.
<mgrwt>
<rscale>  0 0.26956702E+04</rscale>
<asrwt>0</asrwt>
<pdfrwt beam="2">  1        2 0.17492325E+00 0.26956702E+04</pdfrwt>
<pdfrwt beam="1">  1       -2 0.24580985E+00 0.26956702E+04</pdfrwt>
<totfact> 0.12374115E+00</totfact>
</mgrwt>
</event>
<event>
 4    1  0.1343107E-008  0.3996123E+04  0.7816531E-02  0.8005329E-01
         -1   -1    0    0    0  501 -0.00000000000E+00  0.00000000000E+00  0.11480231191E+04  0.11480231191E+04  0.00000000000E+00 0. -1.
          1   -1    0    0  501    0  0.00000000000E+00 -0.00000000000E+00 -0.34774996210E+04  0.34774996210E+04  0.00000000000E+00 0.  1.
    2000013    1    1    2    0    0 -0.76567225080E+03 -0.18236891504E+03  0.65450729839E+03  0.13965644348E+04  0.95000000000E+03 0.  0.
   -2000013    1    1    2    0    0  0.76567225080E+03  0.18236891504E+03 -0.29839838003E+04  0.32289583053E+04  0.95000000000E+03 0.  0.
<mgrwt>
<rscale>  0 0.39961231E+04</rscale>
<asrwt>0</asrwt>
<pdfrwt beam="2">  1        1 0.53499994E+00 0.39961231E+04</pdfrwt>
<pdfrwt beam="1">  1       -1 0.17661894E+00 0.39961231E+04</pdfrwt>
<totfact> 0.44794279E-02</totfact>
</mgrwt>
</event>
<event>
 4    1  0.1343107E-008  0.3259346E+04  0.7816531E-02  0.8173318E-01
          1   -1    0    0  501    0  0.00000000000E+00  0.00000000000E+00  0.19571034793E+04  0.19571034793E+04  0.00000000000E+00 0.  1.
         -1   -1    0    0    0  501 -0.00000000000E+00 -0.00000000000E+00 -0.13570225103E+04  0.13570225103E+04  0.00000000000E+00 0. -1.
    2000013    1    1    2    0    0  0.79191978533E+03 -0.29294393224E+03  0.13371740161E+04  0.18448543149E+04  0.95000000000E+03 0.  0.
   -2000013    1    1    2    0    0 -0.79191978533E+03  0.29294393224E+03 -0.73709304713E+03  0.14692716747E+04  0.95000000000E+03 0.  0.
<mgrwt>
<rscale>  0 0.32593456E+04</rscale>
<asrwt>0</asrwt>
<pdfrwt beam="1">  1        1 0.30109284E+00 0.32593456E+04</pdfrwt>
<pdfrwt beam="2">  1       -1 0.20877269E+00 0.32593456E+04</pdfrwt>
<totfact> 0.34766717E-01</totfact>
</mgrwt>
</event>
<event>
 4    1  0.1343107E-008  0.3001244E+04  0.7816531E-02  0.8243376E-01
          2   -1    0    0  501    0  0.00000000000E+00  0.00000000000E+00  0.28220510953E+04  0.28220510953E+04  0.00000000000E+00 0.  1.
         -2   -1    0    0    0  501 -0.00000000000E+00 -0.00000000000E+00 -0.79795379958E+03  0.79795379958E+03  0.00000000000E+00 0. -1.
    2000013    1    1    2    0    0  0.82520419094E+03 -0.75342674259E+03  0.62919222065E+03  0.15959312842E+04  0.95000000000E+03 0.  0.
   -2000013    1    1    2    0    0 -0.82520419094E+03  0.75342674259E+03  0.13949050751E+04  0.20240736107E+04  0.95000000000E+03 0.  0.
<mgrwt>
<rscale>  0 0.30012440E+04</rscale>
<asrwt>0</asrwt>
<pdfrwt beam="1">  1        2 0.43416170E+00 0.30012440E+04</pdfrwt>
<pdfrwt beam="2">  1       -2 0.12276212E+00 0.30012440E+04</pdfrwt>
<totfact> 0.96241413E-01</totfact>
</mgrwt>
</event>
<event>
 4    1  0.1343107E-008  0.3119440E+04  0.7816531E-02  0.8210423E-01
         -2   -1    0    0    0  501 -0.00000000000E+00  0.00000000000E+00  0.86753232709E+03  0.86753232709E+03  0.00000000000E+00 0. -1.
          2   -1    0    0  501    0  0.00000000000E+00 -0.00000000000E+00 -0.28041903647E+04  0.28041903647E+04  0.00000000000E+00 0.  1.
    2000013    1    1    2    0    0 -0.68559564185E+03  0.61039413221E+03 -0.19443570924E+04  0.23506694543E+04  0.95000000000E+03 0.  0.
   -2000013    1    1    2    0    0  0.68559564185E+03 -0.61039413221E+03  0.76990547889E+01  0.13210532375E+04  0.95000000000E+03 0.  0.
<mgrwt>
<rscale>  0 0.31194396E+04</rscale>
<asrwt>0</asrwt>
<pdfrwt beam="2">  1        2 0.43141390E+00 0.31194396E+04</pdfrwt>
<pdfrwt beam="1">  1       -2 0.13346651E+00 0.31194396E+04</pdfrwt>
<totfact> 0.79118033E-01</totfact>
</mgrwt>
</event>
<event>
 4    1  0.1343107E-008  0.4025172E+04  0.7816531E-02  0.7999488E-01
         -2   -1    0    0    0  501 -0.00000000000E+00  0.00000000000E+00  0.20721878635E+04  0.20721878635E+04  0.00000000000E+00 0. -1.
          2   -1    0    0  501    0  0.00000000000E+00 -0.00000000000E+00 -0.19546985922E+04  0.19546985922E+04  0.00000000000E+00 0.  1.
    2000013    1    1    2    0    0  0.31503910414E+03  0.15488769776E+04 -0.74765894064E+03  0.19899154305E+04  0.95000000000E+03 0.  0.
   -2000013    1    1    2    0    0 -0.31503910414E+03 -0.15488769776E+04  0.86514821188E+03  0.20369710252E+04  0.95000000000E+03 0.  0.
<mgrwt>
<rscale>  0 0.40251721E+04</rscale>
<asrwt>0</asrwt>
<pdfrwt beam="2">  1        2 0.30072286E+00 0.40251721E+04</pdfrwt>
<pdfrwt beam="1">  1       -2 0.31879814E+00 0.40251721E+04</pdfrwt>
<totfact> 0.13576416E-01</totfact>
</mgrwt>
</event>
<event>
 4    1  0.1343107E-008  0.2512667E+04  0.7816531E-02  0.8398487E-01
          1   -1    0    0  501    0  0.00000000000E+00  0.00000000000E+00  0.20909983936E+04  0.20909983936E+04  0.00000000000E+00 0. -1.
         -1   -1    0    0    0  501 -0.00000000000E+00 -0.00000000000E+00 -0.75484211400E+03  0.75484211400E+03  0.00000000000E+00 0.  1.
    2000013    1    1    2    0    0 -0.20768546515E+03 -0.74602424641E+03  0.98070015746E+03  0.15697000438E+04  0.95000000000E+03 0.  0.
   -2000013    1    1    2    0    0  0.20768546515E+03  0.74602424641E+03  0.35545612219E+03  0.12761404638E+04  0.95000000000E+03 0.  0.
<mgrwt>
<rscale>  0 0.25126668E+04</rscale>
<asrwt>0</asrwt>
<pdfrwt beam="1">  1        1 0.32169206E+00 0.25126668E+04</pdfrwt>
<pdfrwt beam="2">  1       -1 0.11612956E+00 0.25126668E+04</pdfrwt>
<totfact> 0.15374457E+00</totfact>
</mgrwt>
</event>
<event>
 4    1  0.1343107E-008  0.2737878E+04  0.7816531E-02  0.8322819E-01
         -2   -1    0    0    0  501 -0.00000000000E+00  0.00000000000E+00  0.81211593308E+03  0.81211593308E+03  0.00000000000E+00 0. -1.
          2   -1    0    0  501    0  0.00000000000E+00 -0.00000000000E+00 -0.23075445060E+04  0.23075445060E+04  0.00000000000E+00 0.  1.
    2000013    1    1    2    0    0 -0.16826171818E+03  0.92935623465E+03 -0.42648251478E+03  0.14058457782E+04  0.95000000000E+03 0.  0.
   -2000013    1    1    2    0    0  0.16826171818E+03 -0.92935623465E+03 -0.10689460582E+04  0.17138146609E+04  0.95000000000E+03 0.  0.
<mgrwt>
<rscale>  0 0.27378778E+04</rscale>
<asrwt>0</asrwt>
<pdfrwt beam="2">  1        2 0.35500684E+00 0.27378778E+04</pdfrwt>
<pdfrwt beam="1">  1       -2 0.12494092E+00 0.27378778E+04</pdfrwt>
<totfact> 0.18844823E+00</totfact>
</mgrwt>
</event>
<event>
 4    1  0.1343107E-008  0.2877328E+04  0.7816531E-02  0.8279655E-01
          2   -1    0    0  501    0  0.00000000000E+00  0.00000000000E+00  0.23934959949E+04  0.23934959949E+04  0.00000000000E+00 0.  1.
         -2   -1    0    0    0  501 -0.00000000000E+00 -0.00000000000E+00 -0.86474099512E+03  0.86474099512E+03  0.00000000000E+00 0. -1.
    2000013    1    1    2    0    0 -0.68657037100E+03 -0.56238159158E+03  0.14620597050E+04  0.19564688880E+04  0.95000000000E+03 0.  0.
   -2000013    1    1    2    0    0  0.68657037100E+03  0.56238159158E+03  0.66695294743E+02  0.13017681019E+04  0.95000000000E+03 0.  0.
<mgrwt>
<rscale>  0 0.28773280E+04</rscale>
<asrwt>0</asrwt>
<pdfrwt beam="1">  1        2 0.36823015E+00 0.28773280E+04</pdfrwt>
<pdfrwt beam="2">  1       -2 0.13303708E+00 0.28773280E+04</pdfrwt>
<totfact> 0.14197230E+00</totfact>
</mgrwt>
</event>
<event>
 4    1  0.1343107E-008  0.4454857E+04  0.7816531E-02  0.7918588E-01
          2   -1    0    0  501    0  0.00000000000E+00  0.00000000000E+00  0.17646516686E+04  0.17646516686E+04  0.00000000000E+00 0.  1.
         -2   -1    0    0    0  501 -0.00000000000E+00 -0.00000000000E+00 -0.28115683136E+04  0.28115683136E+04  0.00000000000E+00 0. -1.
    2000013    1    1    2    0    0 -0.98179441798E+03 -0.13521295528E+04  0.63270970923E+03  0.20236096914E+04  0.95000000000E+03 0.  0.
   -2000013    1    1    2    0    0  0.98179441798E+03  0.13521295528E+04 -0.16796263542E+04  0.25526102908E+04  0.95000000000E+03 0.  0.
<mgrwt>
<rscale>  0 0.44548574E+04</rscale>
<asrwt>0</asrwt>
<pdfrwt beam="1">  1        2 0.27148488E+00 0.44548574E+04</pdfrwt>
<pdfrwt beam="2">  1       -2 0.43254896E+00 0.44548574E+04</pdfrwt>
<totfact> 0.31112847E-02</totfact>
</mgrwt>
</event>
<event>
 4    1  0.1343107E-008  0.3489406E+04  0.7816531E-02  0.8116305E-01
          1   -1    0    0  501    0  0.00000000000E+00  0.00000000000E+00  0.27767075336E+04  0.27767075336E+04  0.00000000000E+00 0.  1.
         -1   -1    0    0    0  501 -0.00000000000E+00 -0.00000000000E+00 -0.10962584373E+04  0.10962584373E+04  0.00000000000E+00 0. -1.
    2000013    1    1    2    0    0 -0.10805501933E+04 -0.86737764095E+03  0.31778714547E+03  0.17098015563E+04  0.95000000000E+03 0.  0.
   -2000013    1    1    2    0    0  0.10805501933E+04  0.86737764095E+03  0.13626619509E+04  0.21631644146E+04  0.95000000000E+03 0.  0.
<mgrwt>
<rscale>  0 0.34894063E+04</rscale>
<asrwt>0</asrwt>
<pdfrwt beam="1">  1        1 0.42718577E+00 0.34894063E+04</pdfrwt>
<pdfrwt beam="2">  1       -1 0.16865515E+00 0.34894063E+04</pdfrwt>
<totfact> 0.17790966E-01</totfact>
</mgrwt>
</event>
<event>
 4    1  0.1343107E-008  0.1963826E+04  0.7816531E-02  0.8623722E-01
         -2   -1    0    0    0  501 -0.00000000000E+00  0.00000000000E+00  0.47934011056E+03  0.47934011056E+03  0.00000000000E+00 0. -1.
          2   -1    0    0  501    0  0.00000000000E+00 -0.00000000000E+00 -0.20114177700E+04  0.20114177700E+04  0.00000000000E+00 0.  1.
    2000013    1    1    2    0    0  0.24488742798E+03  0.20205783200E+02 -0.81132847801E+03  0.12732368300E+04  0.95000000000E+03 0.  0.
   -2000013    1    1    2    0    0 -0.24488742798E+03 -0.20205783200E+02 -0.72074918146E+03  0.12175210506E+04  0.95000000000E+03 0.  0.
<mgrwt>
<rscale>  0 0.19638261E+04</rscale>
<asrwt>0</asrwt>
<pdfrwt beam="2">  1        2 0.30944889E+00 0.19638261E+04</pdfrwt>
<pdfrwt beam="1">  1       -2 0.73744632E-01 0.19638261E+04</pdfrwt>
<totfact> 0.10168866E+01</totfact>
</mgrwt>
</event>
<event>
 4    1  0.1343107E-008  0.1964903E+04  0.7816531E-02  0.8623208E-01
          2   -1    0    0  501    0  0.00000000000E+00  0.00000000000E+00  0.13846529457E+04  0.13846529457E+04  0.00000000000E+00 0. -1.
         -2   -1    0    0    0  501 -0.00000000000E+00 -0.00000000000E+00 -0.69707759735E+03  0.69707759735E+03  0.00000000000E+00 0.  1.
    2000013    1    1    2    0    0  0.21846744395E+02 -0.22086627780E+03  0.46666351883E+03  0.10814499677E+04  0.95000000000E+03 0.  0.
   -2000013    1    1    2    0    0 -0.21846744395E+02  0.22086627780E+03  0.22091182950E+03  0.10002805753E+04  0.95000000000E+03 0.  0.
<mgrwt>
<rscale>  0 0.19649026E+04</rscale>
<asrwt>0</asrwt>
<pdfrwt beam="1">  1        2 0.21302353E+00 0.19649026E+04</pdfrwt>
<pdfrwt beam="2">  1       -2 0.10724271E+00 0.19649026E+04</pdfrwt>
<totfact> 0.96133783E+00</totfact>
</mgrwt>
</event>
<event>
 4    1  0.1343107E-008  0.2440952E+04  0.7816531E-02  0.8424329E-01
          2   -1    0    0  501    0  0.00000000000E+00  0.00000000000E+00  0.17372361038E+04  0.17372361038E+04  0.00000000000E+00 0.  1.
         -2   -1    0    0    0  501 -0.00000000000E+00 -0.00000000000E+00 -0.85743179507E+03  0.85743179507E+03  0.00000000000E+00 0. -1.
    2000013    1    1    2    0    0  0.45447480199E+03 -0.30081947649E+03 -0.13254824900E+03  0.11032265141E+04  0.95000000000E+03 0.  0.
   -2000013    1    1    2    0    0 -0.45447480199E+03  0.30081947649E+03  0.10123525577E+04  0.14914413848E+04  0.95000000000E+03 0.  0.
<mgrwt>
<rscale>  0 0.24409518E+04</rscale>
<asrwt>0</asrwt>
<pdfrwt beam="1">  1        2 0.26726709E+00 0.24409518E+04</pdfrwt>
<pdfrwt beam="2">  1       -2 0.13191258E+00 0.24409518E+04</pdfrwt>
<totfact> 0.35073049E+00</totfact>
</mgrwt>
</event>
<event>
 4    1  0.1343107E-008  0.3939749E+04  0.7816531E-02  0.8016813E-01
         -2   -1    0    0    0  501 -0.00000000000E+00  0.00000000000E+00  0.12193835748E+04  0.12193835748E+04  0.00000000000E+00 0. -1.
          2   -1    0    0  501    0  0.00000000000E+00 -0.00000000000E+00 -0.31822685743E+04  0.31822685743E+04  0.00000000000E+00 0.  1.
    2000013    1    1    2    0    0  0.18090367701E+03 -0.15449356389E+04 -0.14660516969E+03  0.18285363940E+04  0.95000000000E+03 0.  0.
   -2000013    1    1    2    0    0 -0.18090367701E+03  0.15449356389E+04 -0.18162798298E+04  0.25731157550E+04  0.95000000000E+03 0.  0.
<mgrwt>
<rscale>  0 0.39397492E+04</rscale>
<asrwt>0</asrwt>
<pdfrwt beam="2">  1        2 0.48957976E+00 0.39397492E+04</pdfrwt>
<pdfrwt beam="1">  1       -2 0.18759748E+00 0.39397492E+04</pdfrwt>
<totfact> 0.16968270E-01</totfact>
</mgrwt>
</event>
<event>
 4    1  0.1343107E-008  0.3685933E+04  0.7816531E-02  0.8071087E-01
         -2   -1    0    0    0  501 -0.00000000000E+00  0.00000000000E+00  0.16333380817E+04  0.16333380817E+04  0.00000000000E+00 0. -1.
          2   -1    0    0  501    0  0.00000000000E+00 -0.00000000000E+00 -0.20794988391E+04  0.20794988391E+04  0.00000000000E+00 0.  1.
    2000013    1    1    2    0    0 -0.14420854120E+04  0.53464171353E+03 -0.58426780076E+03  0.18998212969E+04  0.95000000000E+03 0.  0.
   -2000013    1    1    2    0    0  0.14420854120E+04 -0.53464171353E+03  0.13810704337E+03  0.18130156240E+04  0.95000000000E+03 0.  0.
<mgrwt>
<rscale>  0 0.36859325E+04</rscale>
<asrwt>0</asrwt>
<pdfrwt beam="2">  1        2 0.31992290E+00 0.36859325E+04</pdfrwt>
<pdfrwt beam="1">  1       -2 0.25128278E+00 0.36859325E+04</pdfrwt>
<totfact> 0.30813749E-01</totfact>
</mgrwt>
</event>
<event>
 4    1  0.1343107E-008  0.2946178E+04  0.7816531E-02  0.8259269E-01
          2   -1    0    0  501    0  0.00000000000E+00  0.00000000000E+00  0.22951169028E+04  0.22951169028E+04  0.00000000000E+00 0.  1.
         -2   -1    0    0    0  501 -0.00000000000E+00 -0.00000000000E+00 -0.94548163982E+03  0.94548163982E+03  0.00000000000E+00 0. -1.
    2000013    1    1    2    0    0  0.34231684351E+03 -0.74793040681E+03 -0.17070846511E+03  0.12681569677E+04  0.95000000000E+03 0.  0.
   -2000013    1    1    2    0    0 -0.34231684351E+03  0.74793040681E+03  0.15203437281E+04  0.19724415749E+04  0.95000000000E+03 0.  0.
<mgrwt>
<rscale>  0 0.29461778E+04</rscale>
<asrwt>0</asrwt>
<pdfrwt beam="1">  1        2 0.35309491E+00 0.29461778E+04</pdfrwt>
<pdfrwt beam="2">  1       -2 0.14545871E+00 0.29461778E+04</pdfrwt>
<totfact> 0.12747309E+00</totfact>
</mgrwt>
</event>
<event>
 4    1  0.1343107E-008  0.3629534E+04  0.7816531E-02  0.8083760E-01
          2   -1    0    0  501    0  0.00000000000E+00  0.00000000000E+00  0.19468175052E+04  0.19468175052E+04  0.00000000000E+00 0.  1.
         -2   -1    0    0    0  501 -0.00000000000E+00 -0.00000000000E+00 -0.16916735616E+04  0.16916735616E+04  0.00000000000E+00 0. -1.
    2000013    1    1    2    0    0  0.14855403040E+04 -0.25953310729E+03  0.47001747456E+03  0.18432590309E+04  0.95000000000E+03 0.  0.
   -2000013    1    1    2    0    0 -0.14855403040E+04  0.25953310729E+03 -0.21487353101E+03  0.17952320359E+04  0.95000000000E+03 0.  0.
<mgrwt>
<rscale>  0 0.36295342E+04</rscale>
<asrwt>0</asrwt>
<pdfrwt beam="1">  1        2 0.29951039E+00 0.36295342E+04</pdfrwt>
<pdfrwt beam="2">  1       -2 0.26025747E+00 0.36295342E+04</pdfrwt>
<totfact> 0.32328717E-01</totfact>
</mgrwt>
</event>
<event>
 4    1  0.1343107E-008  0.2680311E+04  0.7816531E-02  0.8341422E-01
          2   -1    0    0  501    0  0.00000000000E+00  0.00000000000E+00  0.29687321916E+04  0.29687321916E+04  0.00000000000E+00 0.  1.
         -2   -1    0    0    0  501 -0.00000000000E+00 -0.00000000000E+00 -0.60497791306E+03  0.60497791306E+03  0.00000000000E+00 0. -1.
    2000013    1    1    2    0    0 -0.17587183612E+02 -0.82509912791E+03  0.17963904174E+04  0.21933117452E+04  0.95000000000E+03 0.  0.
   -2000013    1    1    2    0    0  0.17587183612E+02  0.82509912791E+03  0.56736386116E+03  0.13803983595E+04  0.95000000000E+03 0.  0.
<mgrwt>
<rscale>  0 0.26803115E+04</rscale>
<asrwt>0</asrwt>
<pdfrwt beam="1">  1        2 0.45672802E+00 0.26803115E+04</pdfrwt>
<pdfrwt beam="2">  1       -2 0.93073527E-01 0.26803115E+04</pdfrwt>
<totfact> 0.15642484E+00</totfact>
</mgrwt>
</event>
<event>
 4    1  0.1343107E-008  0.2631365E+04  0.7816531E-02  0.8357625E-01
         -2   -1    0    0    0  501 -0.00000000000E+00  0.00000000000E+00  0.10353584053E+04  0.10353584053E+04  0.00000000000E+00 0. -1.
          2   -1    0    0  501    0  0.00000000000E+00 -0.00000000000E+00 -0.16719043639E+04  0.16719043639E+04  0.00000000000E+00 0.  1.
    2000013    1    1    2    0    0 -0.30963608759E+03 -0.61718203820E+03  0.29190330100E+03  0.12101635064E+04  0.95000000000E+03 0.  0.
   -2000013    1    1    2    0    0  0.30963608759E+03  0.61718203820E+03 -0.92844925961E+03  0.14970992628E+04  0.95000000000E+03 0.  0.
<mgrwt>
<rscale>  0 0.26313648E+04</rscale>
<asrwt>0</asrwt>
<pdfrwt beam="2">  1        2 0.25721605E+00 0.26313648E+04</pdfrwt>
<pdfrwt beam="1">  1       -2 0.15928591E+00 0.26313648E+04</pdfrwt>
<totfact> 0.22875131E+00</totfact>
</mgrwt>
</event>
<event>
 4    1  0.1343107E-008  0.2224778E+04  0.7816531E-02  0.8508185E-01
         -2   -1    0    0    0  501 -0.00000000000E+00  0.00000000000E+00  0.16096393835E+04  0.16096393835E+04  0.00000000000E+00 0.  1.
          2   -1    0    0  501    0  0.00000000000E+00 -0.00000000000E+00 -0.76874968490E+03  0.76874968490E+03  0.00000000000E+00 0. -1.
    2000013    1    1    2    0    0 -0.30912039727E+03  0.11972992792E+03 -0.86669406438E+02  0.10099021050E+04  0.95000000000E+03 0.  0.
   -2000013    1    1    2    0    0  0.30912039727E+03 -0.11972992792E+03  0.92755910502E+03  0.13684869634E+04  0.95000000000E+03 0.  0.
<mgrwt>
<rscale>  0 0.22247784E+04</rscale>
<asrwt>0</asrwt>
<pdfrwt beam="2">  1        2 0.11826918E+00 0.22247784E+04</pdfrwt>
<pdfrwt beam="1">  1       -2 0.24763683E+00 0.22247784E+04</pdfrwt>
<totfact> 0.22005313E+00</totfact>
</mgrwt>
</event>
<event>
 4    1  0.1343107E-008  0.2414558E+04  0.7816531E-02  0.8434073E-01
         -2   -1    0    0    0  501 -0.00000000000E+00  0.00000000000E+00  0.13408252242E+04  0.13408252242E+04  0.00000000000E+00 0. -1.
          2   -1    0    0  501    0  0.00000000000E+00 -0.00000000000E+00 -0.10870342820E+04  0.10870342820E+04  0.00000000000E+00 0.  1.
    2000013    1    1    2    0    0  0.32364678425E+03 -0.66544908480E+03  0.21370331503E+03  0.12230040197E+04  0.95000000000E+03 0.  0.
   -2000013    1    1    2    0    0 -0.32364678425E+03  0.66544908480E+03  0.40087627256E+02  0.12048554865E+04  0.95000000000E+03 0.  0.
<mgrwt>
<rscale>  0 0.24145583E+04</rscale>
<asrwt>0</asrwt>
<pdfrwt beam="2">  1        2 0.16723604E+00 0.24145583E+04</pdfrwt>
<pdfrwt beam="1">  1       -2 0.20628080E+00 0.24145583E+04</pdfrwt>
<totfact> 0.24119514E+00</totfact>
</mgrwt>
</event>
<event>
 4    1  0.1343107E-008  0.2428377E+04  0.7816531E-02  0.8428956E-01
          2   -1    0    0  501    0  0.00000000000E+00  0.00000000000E+00  0.33652815749E+04  0.33652815749E+04  0.00000000000E+00 0.  1.
         -2   -1    0    0    0  501 -0.00000000000E+00 -0.00000000000E+00 -0.43807719857E+03  0.43807719857E+03  0.00000000000E+00 0. -1.
    2000013    1    1    2    0    0  0.67447017565E+03 -0.30140548062E+03  0.17161362303E+04  0.20960388456E+04  0.95000000000E+03 0.  0.
   -2000013    1    1    2    0    0 -0.67447017565E+03  0.30140548062E+03  0.12110681461E+04  0.17073199279E+04  0.95000000000E+03 0.  0.
<mgrwt>
<rscale>  0 0.24283765E+04</rscale>
<asrwt>0</asrwt>
<pdfrwt beam="1">  1        2 0.51773561E+00 0.24283765E+04</pdfrwt>
<pdfrwt beam="2">  1       -2 0.67396494E-01 0.24283765E+04</pdfrwt>
<totfact> 0.18257446E+00</totfact>
</mgrwt>
</event>
<event>
 4    1  0.1343107E-008  0.3207985E+04  0.7816531E-02  0.8186712E-01
         -1   -1    0    0    0  501 -0.00000000000E+00  0.00000000000E+00  0.87212512434E+03  0.87212512434E+03  0.00000000000E+00 0. -1.
          1   -1    0    0  501    0  0.00000000000E+00 -0.00000000000E+00 -0.29500255881E+04  0.29500255881E+04  0.00000000000E+00 0.  1.
    2000013    1    1    2    0    0  0.10047272283E+04 -0.69214173327E+03 -0.15468968217E+04  0.21872189554E+04  0.95000000000E+03 0.  0.
   -2000013    1    1    2    0    0 -0.10047272283E+04  0.69214173327E+03 -0.53100364209E+03  0.16349317570E+04  0.95000000000E+03 0.  0.
<mgrwt>
<rscale>  0 0.32079847E+04</rscale>
<asrwt>0</asrwt>
<pdfrwt beam="2">  1        1 0.45385009E+00 0.32079847E+04</pdfrwt>
<pdfrwt beam="1">  1       -1 0.13417310E+00 0.32079847E+04</pdfrwt>
<totfact> 0.25410599E-01</totfact>
</mgrwt>
</event>
<event>
 4    1  0.1343107E-008  0.2645363E+04  0.7816531E-02  0.8352954E-01
          1   -1    0    0  501    0  0.00000000000E+00  0.00000000000E+00  0.17980820244E+04  0.17980820244E+04  0.00000000000E+00 0.  1.
         -1   -1    0    0    0  501 -0.00000000000E+00 -0.00000000000E+00 -0.97297393854E+03  0.97297393854E+03  0.00000000000E+00 0. -1.
    2000013    1    1    2    0    0  0.30389544211E+03 -0.86281948890E+03  0.51822865558E+03  0.14169935955E+04  0.95000000000E+03 0.  0.
   -2000013    1    1    2    0    0 -0.30389544211E+03  0.86281948890E+03  0.30687943023E+03  0.13540623674E+04  0.95000000000E+03 0.  0.
<mgrwt>
<rscale>  0 0.26453635E+04</rscale>
<asrwt>0</asrwt>
<pdfrwt beam="1">  1        1 0.27662800E+00 0.26453635E+04</pdfrwt>
<pdfrwt beam="2">  1       -1 0.14968830E+00 0.26453635E+04</pdfrwt>
<totfact> 0.12577449E+00</totfact>
</mgrwt>
</event>
<event>
 4    1  0.1343107E-008  0.2938535E+04  0.7816531E-02  0.8261504E-01
         -2   -1    0    0    0  501 -0.00000000000E+00  0.00000000000E+00  0.20019353995E+04  0.20019353995E+04  0.00000000000E+00 0. -1.
          2   -1    0    0  501    0  0.00000000000E+00 -0.00000000000E+00 -0.10783302880E+04  0.10783302880E+04  0.00000000000E+00 0.  1.
    2000013    1    1    2    0    0  0.10957891356E+04  0.12827938596E+03  0.25469218824E+03  0.14780316442E+04  0.95000000000E+03 0.  0.
   -2000013    1    1    2    0    0 -0.10957891356E+04 -0.12827938596E+03  0.66891292320E+03  0.16022340433E+04  0.95000000000E+03 0.  0.
<mgrwt>
<rscale>  0 0.29385354E+04</rscale>
<asrwt>0</asrwt>
<pdfrwt beam="2">  1        2 0.16589697E+00 0.29385354E+04</pdfrwt>
<pdfrwt beam="1">  1       -2 0.30799006E+00 0.29385354E+04</pdfrwt>
<totfact> 0.54885293E-01</totfact>
</mgrwt>
</event>
<event>
 4    1  0.1343107E-008  0.3166916E+04  0.7816531E-02  0.8197610E-01
          2   -1    0    0  501    0  0.00000000000E+00  0.00000000000E+00  0.12968063988E+04  0.12968063988E+04  0.00000000000E+00 0.  1.
         -2   -1    0    0    0  501 -0.00000000000E+00 -0.00000000000E+00 -0.19334717287E+04  0.19334717287E+04  0.00000000000E+00 0. -1.
    2000013    1    1    2    0    0 -0.30419222106E+03 -0.11678978190E+04  0.74496490949E+02  0.15377151720E+04  0.95000000000E+03 0.  0.
   -2000013    1    1    2    0    0  0.30419222106E+03  0.11678978190E+04 -0.71116182080E+03  0.16925629555E+04  0.95000000000E+03 0.  0.
<mgrwt>
<rscale>  0 0.31669155E+04</rscale>
<asrwt>0</asrwt>
<pdfrwt beam="1">  1        2 0.19950868E+00 0.31669155E+04</pdfrwt>
<pdfrwt beam="2">  1       -2 0.29745719E+00 0.31669155E+04</pdfrwt>
<totfact> 0.46177187E-01</totfact>
</mgrwt>
</event>
<event>
 4    1  0.1343107E-008  0.2197721E+04  0.7816531E-02  0.8519377E-01
          2   -1    0    0  501    0  0.00000000000E+00  0.00000000000E+00  0.20776119849E+04  0.20776119849E+04  0.00000000000E+00 0.  1.
         -2   -1    0    0    0  501 -0.00000000000E+00 -0.00000000000E+00 -0.58119325129E+03  0.58119325129E+03  0.00000000000E+00 0. -1.
    2000013    1    1    2    0    0  0.42917527580E+03  0.11075174089E+03  0.34964145447E+03  0.11050821291E+04  0.95000000000E+03 0.  0.
   -2000013    1    1    2    0    0 -0.42917527580E+03 -0.11075174089E+03  0.11467772792E+04  0.15537231071E+04  0.95000000000E+03 0.  0.
<mgrwt>
<rscale>  0 0.21977207E+04</rscale>
<asrwt>0</asrwt>
<pdfrwt beam="1">  1        2 0.31963261E+00 0.21977207E+04</pdfrwt>
<pdfrwt beam="2">  1       -2 0.89414347E-01 0.21977207E+04</pdfrwt>
<totfact> 0.59309379E+00</totfact>
</mgrwt>
</event>
<event>
 4    1  0.1343107E-008  0.2211181E+04  0.7816531E-02  0.8513789E-01
          2   -1    0    0  501    0  0.00000000000E+00  0.00000000000E+00  0.22179753036E+04  0.22179753036E+04  0.00000000000E+00 0.  1.
         -2   -1    0    0    0  501 -0.00000000000E+00 -0.00000000000E+00 -0.55110195385E+03  0.55110195385E+03  0.00000000000E+00 0. -1.
    2000013    1    1    2    0    0  0.48545721154E+03  0.27725712354E+03  0.94036275494E+03  0.14489038366E+04  0.95000000000E+03 0.  0.
   -2000013    1    1    2    0    0 -0.48545721154E+03 -0.27725712354E+03  0.72651059479E+03  0.13201734209E+04  0.95000000000E+03 0.  0.
<mgrwt>
<rscale>  0 0.22111812E+04</rscale>
<asrwt>0</asrwt>
<pdfrwt beam="1">  1        2 0.34122696E+00 0.22111812E+04</pdfrwt>
<pdfrwt beam="2">  1       -2 0.84784917E-01 0.22111812E+04</pdfrwt>
<totfact> 0.55824105E+00</totfact>
</mgrwt>
</event>
<event>
 4    1  0.1343107E-008  0.2736735E+04  0.7816531E-02  0.8323183E-01
          2   -1    0    0  501    0  0.00000000000E+00  0.00000000000E+00  0.28708302230E+04  0.28708302230E+04  0.00000000000E+00 0.  1.
         -2   -1    0    0    0  501 -0.00000000000E+00 -0.00000000000E+00 -0.65222578442E+03  0.65222578442E+03  0.00000000000E+00 0. -1.
    2000013    1    1    2    0    0  0.98392181696E+03 -0.18765261648E+02  0.10598580824E+04  0.17303911210E+04  0.95000000000E+03 0.  0.
   -2000013    1    1    2    0    0 -0.98392181696E+03  0.18765261648E+02  0.11587463562E+04  0.17926648864E+04  0.95000000000E+03 0.  0.
<mgrwt>
<rscale>  0 0.27367349E+04</rscale>
<asrwt>0</asrwt>
<pdfrwt beam="1">  1        2 0.44166618E+00 0.27367349E+04</pdfrwt>
<pdfrwt beam="2">  1       -2 0.10034243E+00 0.27367349E+04</pdfrwt>
<totfact> 0.14999241E+00</totfact>
</mgrwt>
</event>
<event>
 4    1  0.1343107E-008  0.2230646E+04  0.7816531E-02  0.8505780E-01
         -2   -1    0    0    0  501 -0.00000000000E+00  0.00000000000E+00  0.86076731801E+03  0.86076731801E+03  0.00000000000E+00 0. -1.
          2   -1    0    0  501    0  0.00000000000E+00 -0.00000000000E+00 -0.14451582929E+04  0.14451582929E+04  0.00000000000E+00 0.  1.
    2000013    1    1    2    0    0  0.46338100443E+03 -0.17658591146E+03  0.27332152490E+02  0.10719848814E+04  0.95000000000E+03 0.  0.
   -2000013    1    1    2    0    0 -0.46338100443E+03  0.17658591146E+03 -0.61172312741E+03  0.12339407295E+04  0.95000000000E+03 0.  0.
<mgrwt>
<rscale>  0 0.22306457E+04</rscale>
<asrwt>0</asrwt>
<pdfrwt beam="2">  1        2 0.22233204E+00 0.22306457E+04</pdfrwt>
<pdfrwt beam="1">  1       -2 0.13242574E+00 0.22306457E+04</pdfrwt>
<totfact> 0.51528708E+00</totfact>
</mgrwt>
</event>
<event>
 4    1  0.1343107E-008  0.2585695E+04  0.7816531E-02  0.8373077E-01
         -2   -1    0    0    0  501 -0.00000000000E+00  0.00000000000E+00  0.83798264731E+03  0.83798264731E+03  0.00000000000E+00 0. -1.
          2   -1    0    0  501    0  0.00000000000E+00 -0.00000000000E+00 -0.19946169628E+04  0.19946169628E+04  0.00000000000E+00 0.  1.
    2000013    1    1    2    0    0  0.77874010802E+03  0.38411213898E+03 -0.71237970386E+03  0.14710415132E+04  0.95000000000E+03 0.  0.
   -2000013    1    1    2    0    0 -0.77874010802E+03 -0.38411213898E+03 -0.44425461158E+03  0.13615580968E+04  0.95000000000E+03 0.  0.
<mgrwt>
<rscale>  0 0.25856948E+04</rscale>
<asrwt>0</asrwt>
<pdfrwt beam="2">  1        2 0.30686415E+00 0.25856948E+04</pdfrwt>
<pdfrwt beam="1">  1       -2 0.12892041E+00 0.25856948E+04</pdfrwt>
<totfact> 0.26428146E+00</totfact>
</mgrwt>
</event>
<event>
 4    1  0.1343107E-008  0.2440666E+04  0.7816531E-02  0.8424434E-01
         -2   -1    0    0    0  501 -0.00000000000E+00  0.00000000000E+00  0.16778527359E+04  0.16778527359E+04  0.00000000000E+00 0. -1.
          2   -1    0    0  501    0  0.00000000000E+00 -0.00000000000E+00 -0.88757058873E+03  0.88757058873E+03  0.00000000000E+00 0.  1.
    2000013    1    1    2    0    0  0.72533743006E+03 -0.22343214056E+03  0.28653259359E+03  0.12492546722E+04  0.95000000000E+03 0.  0.
   -2000013    1    1    2    0    0 -0.72533743006E+03  0.22343214056E+03  0.50374955360E+03  0.13161686524E+04  0.95000000000E+03 0.  0.
<mgrwt>
<rscale>  0 0.24406661E+04</rscale>
<asrwt>0</asrwt>
<pdfrwt beam="2">  1        2 0.13654932E+00 0.24406661E+04</pdfrwt>
<pdfrwt beam="1">  1       -2 0.25813119E+00 0.24406661E+04</pdfrwt>
<totfact> 0.15347669E+00</totfact>
</mgrwt>
</event>
<event>
 4    1  0.1343107E-008  0.2473944E+04  0.7816531E-02  0.8412327E-01
          2   -1    0    0  501    0  0.00000000000E+00  0.00000000000E+00  0.19737225610E+04  0.19737225610E+04  0.00000000000E+00 0.  1.
         -2   -1    0    0    0  501 -0.00000000000E+00 -0.00000000000E+00 -0.77523564382E+03  0.77523564382E+03  0.00000000000E+00 0. -1.
    2000013    1    1    2    0    0  0.49969737323E+03  0.24936737501E+02 -0.83268962903E+02  0.10769183005E+04  0.95000000000E+03 0.  0.
   -2000013    1    1    2    0    0 -0.49969737323E+03 -0.24936737501E+02  0.12817558801E+04  0.16720399044E+04  0.95000000000E+03 0.  0.
<mgrwt>
<rscale>  0 0.24739443E+04</rscale>
<asrwt>0</asrwt>
<pdfrwt beam="1">  1        2 0.30364962E+00 0.24739443E+04</pdfrwt>
<pdfrwt beam="2">  1       -2 0.11926702E+00 0.24739443E+04</pdfrwt>
<totfact> 0.33298796E+00</totfact>
</mgrwt>
</event>
<event>
 4    1  0.1343107E-008  0.2010211E+04  0.7816531E-02  0.8601862E-01
         -2   -1    0    0    0  501 -0.00000000000E+00  0.00000000000E+00  0.28189415065E+03  0.28189415065E+03  0.00000000000E+00 0. -1.
          2   -1    0    0  501    0  0.00000000000E+00 -0.00000000000E+00 -0.35837460069E+04  0.35837460069E+04  0.00000000000E+00 0.  1.
    2000013    1    1    2    0    0 -0.87317778330E+02 -0.30343529753E+03 -0.14785015391E+04  0.17855431037E+04  0.95000000000E+03 0.  0.
   -2000013    1    1    2    0    0  0.87317778330E+02  0.30343529753E+03 -0.18233503172E+04  0.20800970538E+04  0.95000000000E+03 0.  0.
<mgrwt>
<rscale>  0 0.20102110E+04</rscale>
<asrwt>0</asrwt>
<pdfrwt beam="2">  1        2 0.55134551E+00 0.20102110E+04</pdfrwt>
<pdfrwt beam="1">  1       -2 0.43368333E-01 0.20102110E+04</pdfrwt>
<totfact> 0.33396897E+00</totfact>
</mgrwt>
</event>
<event>
 4    1  0.1343107E-008  0.3178270E+04  0.7816531E-02  0.8194580E-01
          1   -1    0    0  501    0  0.00000000000E+00  0.00000000000E+00  0.15321163301E+04  0.15321163301E+04  0.00000000000E+00 0.  1.
         -1   -1    0    0    0  501 -0.00000000000E+00 -0.00000000000E+00 -0.16482759242E+04  0.16482759242E+04  0.00000000000E+00 0. -1.
    2000013    1    1    2    0    0 -0.93940483559E+03  0.20270454049E+03  0.77870808195E+03  0.15596335636E+04  0.95000000000E+03 0.  0.
   -2000013    1    1    2    0    0  0.93940483559E+03 -0.20270454049E+03 -0.89486767604E+03  0.16207586907E+04  0.95000000000E+03 0.  0.
<mgrwt>
<rscale>  0 0.31782703E+04</rscale>
<asrwt>0</asrwt>
<pdfrwt beam="1">  1        1 0.23571021E+00 0.31782703E+04</pdfrwt>
<pdfrwt beam="2">  1       -1 0.25358091E+00 0.31782703E+04</pdfrwt>
<totfact> 0.34415604E-01</totfact>
</mgrwt>
</event>
<event>
 4    1  0.1343107E-008  0.2451443E+04  0.7816531E-02  0.8420491E-01
         -2   -1    0    0    0  501 -0.00000000000E+00  0.00000000000E+00  0.56648912825E+03  0.56648912825E+03  0.00000000000E+00 0. -1.
          2   -1    0    0  501    0  0.00000000000E+00 -0.00000000000E+00 -0.26521128355E+04  0.26521128355E+04  0.00000000000E+00 0.  1.
    2000013    1    1    2    0    0  0.54873486361E+03  0.48298536300E+03 -0.70676984224E+03  0.13915489288E+04  0.95000000000E+03 0.  0.
   -2000013    1    1    2    0    0 -0.54873486361E+03 -0.48298536300E+03 -0.13788538650E+04  0.18270530350E+04  0.95000000000E+03 0.  0.
<mgrwt>
<rscale>  0 0.24514429E+04</rscale>
<asrwt>0</asrwt>
<pdfrwt beam="2">  1        2 0.40801736E+00 0.24514429E+04</pdfrwt>
<pdfrwt beam="1">  1       -2 0.87152173E-01 0.24514429E+04</pdfrwt>
<totfact> 0.28888817E+00</totfact>
</mgrwt>
</event>
<event>
 4    1  0.1343107E-008  0.2579669E+04  0.7816531E-02  0.8375140E-01
         -2   -1    0    0    0  501 -0.00000000000E+00  0.00000000000E+00  0.62482138196E+03  0.62482138196E+03  0.00000000000E+00 0. -1.
          2   -1    0    0  501    0  0.00000000000E+00 -0.00000000000E+00 -0.26626384930E+04  0.26626384930E+04  0.00000000000E+00 0.  1.
    2000013    1    1    2    0    0 -0.78115939628E+03  0.68646414428E+02 -0.53155287104E+03  0.13416298995E+04  0.95000000000E+03 0.  0.
   -2000013    1    1    2    0    0  0.78115939628E+03 -0.68646414428E+02 -0.15062642400E+04  0.19458299755E+04  0.95000000000E+03 0.  0.
<mgrwt>
<rscale>  0 0.25796693E+04</rscale>
<asrwt>0</asrwt>
<pdfrwt beam="2">  1        2 0.40963669E+00 0.25796693E+04</pdfrwt>
<pdfrwt beam="1">  1       -2 0.96126366E-01 0.25796693E+04</pdfrwt>
<totfact> 0.22446832E+00</totfact>
</mgrwt>
</event>
<event>
 4    1  0.1343107E-008  0.2411806E+04  0.7816531E-02  0.8435097E-01
          2   -1    0    0  501    0  0.00000000000E+00  0.00000000000E+00  0.11913301591E+04  0.11913301591E+04  0.00000000000E+00 0.  1.
         -2   -1    0    0    0  501 -0.00000000000E+00 -0.00000000000E+00 -0.12206544676E+04  0.12206544676E+04  0.00000000000E+00 0. -1.
    2000013    1    1    2    0    0  0.19316989795E+03 -0.69407787989E+03 -0.19535137386E+03  0.12081890879E+04  0.95000000000E+03 0.  0.
   -2000013    1    1    2    0    0 -0.19316989795E+03  0.69407787989E+03  0.16602706538E+03  0.12037955388E+04  0.95000000000E+03 0.  0.
<mgrwt>
<rscale>  0 0.24118064E+04</rscale>
<asrwt>0</asrwt>
<pdfrwt beam="1">  1        2 0.18328156E+00 0.24118064E+04</pdfrwt>
<pdfrwt beam="2">  1       -2 0.18779299E+00 0.24118064E+04</pdfrwt>
<totfact> 0.27620937E+00</totfact>
</mgrwt>
</event>
<event>
 4    1  0.1343107E-008  0.2084801E+04  0.7816531E-02  0.8567968E-01
         -2   -1    0    0    0  501 -0.00000000000E+00  0.00000000000E+00  0.62331101590E+03  0.62331101590E+03  0.00000000000E+00 0. -1.
          2   -1    0    0  501    0  0.00000000000E+00 -0.00000000000E+00 -0.17432698101E+04  0.17432698101E+04  0.00000000000E+00 0.  1.
    2000013    1    1    2    0    0 -0.28239621542E+03  0.30809126129E+02 -0.92500393336E+03  0.13560343290E+04  0.95000000000E+03 0.  0.
   -2000013    1    1    2    0    0  0.28239621542E+03 -0.30809126129E+02 -0.19495486079E+03  0.10105464969E+04  0.95000000000E+03 0.  0.
<mgrwt>
<rscale>  0 0.20848015E+04</rscale>
<asrwt>0</asrwt>
<pdfrwt beam="2">  1        2 0.26819535E+00 0.20848015E+04</pdfrwt>
<pdfrwt beam="1">  1       -2 0.95894003E-01 0.20848015E+04</pdfrwt>
<totfact> 0.78057916E+00</totfact>
</mgrwt>
</event>
<event>
 4    1  0.1343107E-008  0.2809254E+04  0.7816531E-02  0.8300401E-01
          2   -1    0    0  501    0  0.00000000000E+00  0.00000000000E+00  0.12154272377E+04  0.12154272377E+04  0.00000000000E+00 0.  1.
         -2   -1    0    0    0  501 -0.00000000000E+00 -0.00000000000E+00 -0.16232790902E+04  0.16232790902E+04  0.00000000000E+00 0. -1.
    2000013    1    1    2    0    0 -0.76896434514E+03 -0.62061434172E+03 -0.51374973560E+03  0.14638671784E+04  0.95000000000E+03 0.  0.
   -2000013    1    1    2    0    0  0.76896434514E+03  0.62061434172E+03  0.10589788305E+03  0.13748391495E+04  0.95000000000E+03 0.  0.
<mgrwt>
<rscale>  0 0.28092544E+04</rscale>
<asrwt>0</asrwt>
<pdfrwt beam="1">  1        2 0.18698881E+00 0.28092544E+04</pdfrwt>
<pdfrwt beam="2">  1       -2 0.24973525E+00 0.28092544E+04</pdfrwt>
<totfact> 0.10399887E+00</totfact>
</mgrwt>
</event>
<event>
 4    1  0.1343107E-008  0.2753546E+04  0.7816531E-02  0.8317837E-01
          1   -1    0    0  501    0  0.00000000000E+00  0.00000000000E+00  0.12607692710E+04  0.12607692710E+04  0.00000000000E+00 0. -1.
         -1   -1    0    0    0  501 -0.00000000000E+00 -0.00000000000E+00 -0.15034498529E+04  0.15034498529E+04  0.00000000000E+00 0.  1.
    2000013    1    1    2    0    0  0.67969656280E+03  0.62725015744E+03  0.25100606353E+03  0.13494199574E+04  0.95000000000E+03 0.  0.
   -2000013    1    1    2    0    0 -0.67969656280E+03 -0.62725015744E+03 -0.49368664542E+03  0.14147991664E+04  0.95000000000E+03 0.  0.
<mgrwt>
<rscale>  0 0.27535456E+04</rscale>
<asrwt>0</asrwt>
<pdfrwt beam="1">  1        1 0.19396450E+00 0.27535456E+04</pdfrwt>
<pdfrwt beam="2">  1       -1 0.23129998E+00 0.27535456E+04</pdfrwt>
<totfact> 0.77633221E-01</totfact>
</mgrwt>
</event>
<event>
 4    1  0.1343107E-008  0.3879684E+04  0.7816531E-02  0.8029268E-01
         -2   -1    0    0    0  501 -0.00000000000E+00  0.00000000000E+00  0.26842290993E+04  0.26842290993E+04  0.00000000000E+00 0. -1.
          2   -1    0    0  501    0  0.00000000000E+00 -0.00000000000E+00 -0.14018876814E+04  0.14018876814E+04  0.00000000000E+00 0.  1.
    2000013    1    1    2    0    0 -0.45627135880E+02  0.16901932315E+04  0.59835401529E+03  0.20296212757E+04  0.95000000000E+03 0.  0.
   -2000013    1    1    2    0    0  0.45627135880E+02 -0.16901932315E+04  0.68398740265E+03  0.20564955050E+04  0.95000000000E+03 0.  0.
<mgrwt>
<rscale>  0 0.38796844E+04</rscale>
<asrwt>0</asrwt>
<pdfrwt beam="2">  1        2 0.21567503E+00 0.38796844E+04</pdfrwt>
<pdfrwt beam="1">  1       -2 0.41295832E+00 0.38796844E+04</pdfrwt>
<totfact> 0.70122546E-02</totfact>
</mgrwt>
</event>
<event>
 4    1  0.1343107E-008  0.2245575E+04  0.7816531E-02  0.8499695E-01
          2   -1    0    0  501    0  0.00000000000E+00  0.00000000000E+00  0.23592371392E+04  0.23592371392E+04  0.00000000000E+00 0.  1.
         -2   -1    0    0    0  501 -0.00000000000E+00 -0.00000000000E+00 -0.53434728504E+03  0.53434728504E+03  0.00000000000E+00 0. -1.
    2000013    1    1    2    0    0  0.38360474016E+03  0.43587544803E+03  0.10992298487E+04  0.15645914046E+04  0.95000000000E+03 0.  0.
   -2000013    1    1    2    0    0 -0.38360474016E+03 -0.43587544803E+03  0.72566000543E+03  0.13289930197E+04  0.95000000000E+03 0.  0.
<mgrwt>
<rscale>  0 0.22455752E+04</rscale>
<asrwt>0</asrwt>
<pdfrwt beam="1">  1        2 0.36295955E+00 0.22455752E+04</pdfrwt>
<pdfrwt beam="2">  1       -2 0.82207276E-01 0.22455752E+04</pdfrwt>
<totfact> 0.49652650E+00</totfact>
</mgrwt>
</event>
<event>
 4    1  0.1343107E-008  0.2127443E+04  0.7816531E-02  0.8549250E-01
         -2   -1    0    0    0  501 -0.00000000000E+00  0.00000000000E+00  0.10480284481E+04  0.10480284481E+04  0.00000000000E+00 0. -1.
          2   -1    0    0  501    0  0.00000000000E+00 -0.00000000000E+00 -0.10796498356E+04  0.10796498356E+04  0.00000000000E+00 0.  1.
    2000013    1    1    2    0    0 -0.24735525669E+03 -0.66258792933E+02  0.38849735304E+03  0.10578303474E+04  0.95000000000E+03 0.  0.
   -2000013    1    1    2    0    0  0.24735525669E+03  0.66258792933E+02 -0.42011874054E+03  0.10698479363E+04  0.95000000000E+03 0.  0.
<mgrwt>
<rscale>  0 0.21274433E+04</rscale>
<asrwt>0</asrwt>
<pdfrwt beam="2">  1        2 0.16609997E+00 0.21274433E+04</pdfrwt>
<pdfrwt beam="1">  1       -2 0.16123515E+00 0.21274433E+04</pdfrwt>
<totfact> 0.50865342E+00</totfact>
</mgrwt>
</event>
<event>
 4    1  0.1343107E-008  0.2885150E+04  0.7816531E-02  0.8277310E-01
         -2   -1    0    0    0  501 -0.00000000000E+00  0.00000000000E+00  0.10383027643E+04  0.10383027643E+04  0.00000000000E+00 0. -1.
          2   -1    0    0  501    0  0.00000000000E+00 -0.00000000000E+00 -0.20042538356E+04  0.20042538356E+04  0.00000000000E+00 0.  1.
    2000013    1    1    2    0    0  0.14958192520E+02 -0.10854921434E+04 -0.48053473504E+03  0.15205033944E+04  0.95000000000E+03 0.  0.
   -2000013    1    1    2    0    0 -0.14958192520E+02  0.10854921434E+04 -0.48541633618E+03  0.15220532055E+04  0.95000000000E+03 0.  0.
<mgrwt>
<rscale>  0 0.28851498E+04</rscale>
<asrwt>0</asrwt>
<pdfrwt beam="2">  1        2 0.30834674E+00 0.28851498E+04</pdfrwt>
<pdfrwt beam="1">  1       -2 0.15973889E+00 0.28851498E+04</pdfrwt>
<totfact> 0.14529116E+00</totfact>
</mgrwt>
</event>
<event>
 4    1  0.1343107E-008  0.2828026E+04  0.7816531E-02  0.8294620E-01
          2   -1    0    0  501    0  0.00000000000E+00  0.00000000000E+00  0.18393696759E+04  0.18393696759E+04  0.00000000000E+00 0.  1.
         -2   -1    0    0    0  501 -0.00000000000E+00 -0.00000000000E+00 -0.10870206174E+04  0.10870206174E+04  0.00000000000E+00 0. -1.
    2000013    1    1    2    0    0  0.98590559529E+03 -0.24635487710E+03  0.11391865594E+03  0.13957714815E+04  0.95000000000E+03 0.  0.
   -2000013    1    1    2    0    0 -0.98590559529E+03  0.24635487710E+03  0.63843040257E+03  0.15306188119E+04  0.95000000000E+03 0.  0.
<mgrwt>
<rscale>  0 0.28280260E+04</rscale>
<asrwt>0</asrwt>
<pdfrwt beam="1">  1        2 0.28297995E+00 0.28280260E+04</pdfrwt>
<pdfrwt beam="2">  1       -2 0.16723394E+00 0.28280260E+04</pdfrwt>
<totfact> 0.15892844E+00</totfact>
</mgrwt>
</event>
<event>
 4    1  0.1343107E-008  0.2290604E+04  0.7816531E-02  0.8481635E-01
         -2   -1    0    0    0  501 -0.00000000000E+00  0.00000000000E+00  0.12549683763E+04  0.12549683763E+04  0.00000000000E+00 0. -1.
          2   -1    0    0  501    0  0.00000000000E+00 -0.00000000000E+00 -0.10452185773E+04  0.10452185773E+04  0.00000000000E+00 0.  1.
    2000013    1    1    2    0    0  0.54614353339E+03 -0.94785994911E+02  0.42552119120E+03  0.11793326198E+04  0.95000000000E+03 0.  0.
   -2000013    1    1    2    0    0 -0.54614353339E+03  0.94785994911E+02 -0.21577139226E+03  0.11208543338E+04  0.95000000000E+03 0.  0.
<mgrwt>
<rscale>  0 0.22906036E+04</rscale>
<asrwt>0</asrwt>
<pdfrwt beam="2">  1        2 0.16080286E+00 0.22906036E+04</pdfrwt>
<pdfrwt beam="1">  1       -2 0.19307206E+00 0.22906036E+04</pdfrwt>
<totfact> 0.31610113E+00</totfact>
</mgrwt>
</event>
<event>
 4    1  0.1343107E-008  0.2369097E+04  0.7816531E-02  0.8451165E-01
          2   -1    0    0  501    0  0.00000000000E+00  0.00000000000E+00  0.68245731480E+03  0.68245731480E+03  0.00000000000E+00 0.  1.
         -2   -1    0    0    0  501 -0.00000000000E+00 -0.00000000000E+00 -0.20560327300E+04  0.20560327300E+04  0.00000000000E+00 0. -1.
    2000013    1    1    2    0    0  0.50878358718E+02  0.70361073937E+03 -0.62349747385E+03  0.13374998242E+04  0.95000000000E+03 0.  0.
   -2000013    1    1    2    0    0 -0.50878358718E+02 -0.70361073937E+03 -0.75007794130E+03  0.14009902205E+04  0.95000000000E+03 0.  0.
<mgrwt>
<rscale>  0 0.23690965E+04</rscale>
<asrwt>0</asrwt>
<pdfrwt beam="1">  1        2 0.10499343E+00 0.23690965E+04</pdfrwt>
<pdfrwt beam="2">  1       -2 0.31631273E+00 0.23690965E+04</pdfrwt>
<totfact> 0.96288499E-01</totfact>
</mgrwt>
</event>
<event>
 4    1  0.1343107E-008  0.2886226E+04  0.7816531E-02  0.8276988E-01
         -2   -1    0    0    0  501 -0.00000000000E+00  0.00000000000E+00  0.93470149181E+03  0.93470149181E+03  0.00000000000E+00 0. -1.
          2   -1    0    0  501    0  0.00000000000E+00 -0.00000000000E+00 -0.22280636958E+04  0.22280636958E+04  0.00000000000E+00 0.  1.
    2000013    1    1    2    0    0  0.31022565236E+03 -0.10309552471E+04 -0.80535015622E+03  0.16462677641E+04  0.95000000000E+03 0.  0.
   -2000013    1    1    2    0    0 -0.31022565236E+03  0.10309552471E+04 -0.48801204777E+03  0.15164974236E+04  0.95000000000E+03 0.  0.
<mgrwt>
<rscale>  0 0.28862255E+04</rscale>
<asrwt>0</asrwt>
<pdfrwt beam="2">  1        2 0.34277903E+00 0.28862255E+04</pdfrwt>
<pdfrwt beam="1">  1       -2 0.14380023E+00 0.28862255E+04</pdfrwt>
<totfact> 0.14407262E+00</totfact>
</mgrwt>
</event>
<event>
 4    1  0.1343107E-008  0.2895379E+04  0.7816531E-02  0.8274254E-01
          2   -1    0    0  501    0  0.00000000000E+00  0.00000000000E+00  0.17554280806E+04  0.17554280806E+04  0.00000000000E+00 0.  1.
         -2   -1    0    0    0  501 -0.00000000000E+00 -0.00000000000E+00 -0.11938997453E+04  0.11938997453E+04  0.00000000000E+00 0. -1.
    2000013    1    1    2    0    0 -0.10137713116E+04 -0.39251949521E+03  0.39000658294E+03  0.14954627916E+04  0.95000000000E+03 0.  0.
   -2000013    1    1    2    0    0  0.10137713116E+04  0.39251949521E+03  0.17152175234E+03  0.14538650343E+04  0.95000000000E+03 0.  0.
<mgrwt>
<rscale>  0 0.28953792E+04</rscale>
<asrwt>0</asrwt>
<pdfrwt beam="1">  1        2 0.27006586E+00 0.28953792E+04</pdfrwt>
<pdfrwt beam="2">  1       -2 0.18367688E+00 0.28953792E+04</pdfrwt>
<totfact> 0.13494346E+00</totfact>
</mgrwt>
</event>
<event>
 4    1  0.1343107E-008  0.4589974E+04  0.7816531E-02  0.7895072E-01
          2   -1    0    0  501    0  0.00000000000E+00  0.00000000000E+00  0.26948148199E+04  0.26948148199E+04  0.00000000000E+00 0.  1.
         -2   -1    0    0    0  501 -0.00000000000E+00 -0.00000000000E+00 -0.19544815164E+04  0.19544815164E+04  0.00000000000E+00 0. -1.
    2000013    1    1    2    0    0  0.20509435529E+04  0.14587448299E+03  0.74483491902E+03  0.23843086793E+04  0.95000000000E+03 0.  0.
   -2000013    1    1    2    0    0 -0.20509435529E+04 -0.14587448299E+03 -0.45016155166E+01  0.22649876570E+04  0.95000000000E+03 0.  0.
<mgrwt>
<rscale>  0 0.45899742E+04</rscale>
<asrwt>0</asrwt>
<pdfrwt beam="1">  1        2 0.41458690E+00 0.45899742E+04</pdfrwt>
<pdfrwt beam="2">  1       -2 0.30068946E+00 0.45899742E+04</pdfrwt>
<totfact> 0.63317613E-02</totfact>
</mgrwt>
</event>
<event>
 4    1  0.1343107E-008  0.2873082E+04  0.7816531E-02  0.8280932E-01
         -2   -1    0    0    0  501 -0.00000000000E+00  0.00000000000E+00  0.24953171932E+04  0.24953171932E+04  0.00000000000E+00 0. -1.
          2   -1    0    0  501    0  0.00000000000E+00 -0.00000000000E+00 -0.82700922043E+03  0.82700922043E+03  0.00000000000E+00 0.  1.
    2000013    1    1    2    0    0  0.51898357797E+03 -0.94284156350E+03  0.77235442316E+03  0.16301305233E+04  0.95000000000E+03 0.  0.
   -2000013    1    1    2    0    0 -0.51898357797E+03  0.94284156350E+03  0.89595354958E+03  0.16921958903E+04  0.95000000000E+03 0.  0.
<mgrwt>
<rscale>  0 0.28730822E+04</rscale>
<asrwt>0</asrwt>
<pdfrwt beam="2">  1        2 0.12723219E+00 0.28730822E+04</pdfrwt>
<pdfrwt beam="1">  1       -2 0.38389495E+00 0.28730822E+04</pdfrwt>
<totfact> 0.26914020E-01</totfact>
</mgrwt>
</event>
<event>
 4    1  0.1343107E-008  0.2131393E+04  0.7816531E-02  0.8547539E-01
          2   -1    0    0  501    0  0.00000000000E+00  0.00000000000E+00  0.25529934505E+04  0.25529934505E+04  0.00000000000E+00 0.  1.
         -2   -1    0    0    0  501 -0.00000000000E+00 -0.00000000000E+00 -0.44485383128E+03  0.44485383128E+03  0.00000000000E+00 0. -1.
    2000013    1    1    2    0    0 -0.44510608564E+03 -0.14003149490E+03  0.12290709492E+04  0.16219875602E+04  0.95000000000E+03 0.  0.
   -2000013    1    1    2    0    0  0.44510608564E+03  0.14003149490E+03  0.87906866998E+03  0.13758597216E+04  0.95000000000E+03 0.  0.
<mgrwt>
<rscale>  0 0.21313929E+04</rscale>
<asrwt>0</asrwt>
<pdfrwt beam="1">  1        2 0.39276821E+00 0.21313929E+04</pdfrwt>
<pdfrwt beam="2">  1       -2 0.68439052E-01 0.21313929E+04</pdfrwt>
<totfact> 0.58216701E+00</totfact>
</mgrwt>
</event>
<event>
 4    1  0.1343107E-008  0.2635146E+04  0.7816531E-02  0.8356360E-01
          2   -1    0    0  501    0  0.00000000000E+00  0.00000000000E+00  0.17754092173E+04  0.17754092173E+04  0.00000000000E+00 0.  1.
         -2   -1    0    0    0  501 -0.00000000000E+00 -0.00000000000E+00 -0.97780220823E+03  0.97780220823E+03  0.00000000000E+00 0. -1.
    2000013    1    1    2    0    0  0.70726021090E+03 -0.39838220537E+03 -0.37736643281E+02  0.12501397689E+04  0.95000000000E+03 0.  0.
   -2000013    1    1    2    0    0 -0.70726021090E+03  0.39838220537E+03  0.83534365232E+03  0.15030716566E+04  0.95000000000E+03 0.  0.
<mgrwt>
<rscale>  0 0.26351463E+04</rscale>
<asrwt>0</asrwt>
<pdfrwt beam="1">  1        2 0.27313988E+00 0.26351463E+04</pdfrwt>
<pdfrwt beam="2">  1       -2 0.15043111E+00 0.26351463E+04</pdfrwt>
<totfact> 0.23355833E+00</totfact>
</mgrwt>
</event>
<event>
 4    1  0.1343107E-008  0.2229463E+04  0.7816531E-02  0.8506264E-01
          1   -1    0    0  501    0  0.00000000000E+00  0.00000000000E+00  0.86668106889E+03  0.86668106889E+03  0.00000000000E+00 0.  1.
         -1   -1    0    0    0  501 -0.00000000000E+00 -0.00000000000E+00 -0.14337758077E+04  0.14337758077E+04  0.00000000000E+00 0. -1.
    2000013    1    1    2    0    0 -0.32232930374E+03  0.46974507926E+03 -0.15479525699E+03  0.11184892450E+04  0.95000000000E+03 0.  0.
   -2000013    1    1    2    0    0  0.32232930374E+03 -0.46974507926E+03 -0.41229948185E+03  0.11819676317E+04  0.95000000000E+03 0.  0.
<mgrwt>
<rscale>  0 0.22294630E+04</rscale>
<asrwt>0</asrwt>
<pdfrwt beam="1">  1        1 0.13333555E+00 0.22294630E+04</pdfrwt>
<pdfrwt beam="2">  1       -1 0.22058089E+00 0.22294630E+04</pdfrwt>
<totfact> 0.19231804E+00</totfact>
</mgrwt>
</event>
<event>
 4    1  0.1343107E-008  0.2016787E+04  0.7816531E-02  0.8598812E-01
          2   -1    0    0  501    0  0.00000000000E+00  0.00000000000E+00  0.85162941541E+03  0.85162941541E+03  0.00000000000E+00 0.  1.
         -2   -1    0    0    0  501 -0.00000000000E+00 -0.00000000000E+00 -0.11940139418E+04  0.11940139418E+04  0.00000000000E+00 0. -1.
    2000013    1    1    2    0    0  0.12514486692E+03 -0.31197492495E+03 -0.13367926396E+03  0.10165430326E+04  0.95000000000E+03 0.  0.
   -2000013    1    1    2    0    0 -0.12514486692E+03  0.31197492495E+03 -0.20870526240E+03  0.10291003246E+04  0.95000000000E+03 0.  0.
<mgrwt>
<rscale>  0 0.20167869E+04</rscale>
<asrwt>0</asrwt>
<pdfrwt beam="1">  1        2 0.13101991E+00 0.20167869E+04</pdfrwt>
<pdfrwt beam="2">  1       -2 0.18369445E+00 0.20167869E+04</pdfrwt>
<totfact> 0.50208367E+00</totfact>
</mgrwt>
</event>
<event>
 4    1  0.1343107E-008  0.3098456E+04  0.7816531E-02  0.8216162E-01
          2   -1    0    0  501    0  0.00000000000E+00  0.00000000000E+00  0.49607421453E+04  0.49607421453E+04  0.00000000000E+00 0.  1.
         -2   -1    0    0    0  501 -0.00000000000E+00 -0.00000000000E+00 -0.48382021669E+03  0.48382021669E+03  0.00000000000E+00 0. -1.
    2000013    1    1    2    0    0  0.62520076786E+03  0.10060594847E+04  0.27788509874E+04  0.31666298327E+04  0.95000000000E+03 0.  0.
   -2000013    1    1    2    0    0 -0.62520076786E+03 -0.10060594847E+04  0.16980709412E+04  0.22779325293E+04  0.95000000000E+03 0.  0.
<mgrwt>
<rscale>  0 0.30984560E+04</rscale>
<asrwt>0</asrwt>
<pdfrwt beam="1">  1        2 0.76319107E+00 0.30984560E+04</pdfrwt>
<pdfrwt beam="2">  1       -2 0.74433883E-01 0.30984560E+04</pdfrwt>
<totfact> 0.52888371E-02</totfact>
</mgrwt>
</event>
<event>
 4    1  0.1343107E-008  0.2362245E+04  0.7816531E-02  0.8453775E-01
          2   -1    0    0  501    0  0.00000000000E+00  0.00000000000E+00  0.98034013657E+03  0.98034013657E+03  0.00000000000E+00 0.  1.
         -2   -1    0    0    0  501 -0.00000000000E+00 -0.00000000000E+00 -0.14230273587E+04  0.14230273587E+04  0.00000000000E+00 0. -1.
    2000013    1    1    2    0    0  0.66003144231E+03  0.23704982566E+03 -0.19410612336E+03  0.11966667505E+04  0.95000000000E+03 0.  0.
   -2000013    1    1    2    0    0 -0.66003144231E+03 -0.23704982566E+03 -0.24858109875E+03  0.12067007447E+04  0.95000000000E+03 0.  0.
<mgrwt>
<rscale>  0 0.23622454E+04</rscale>
<asrwt>0</asrwt>
<pdfrwt beam="1">  1        2 0.15082156E+00 0.23622454E+04</pdfrwt>
<pdfrwt beam="2">  1       -2 0.21892729E+00 0.23622454E+04</pdfrwt>
<totfact> 0.23482712E+00</totfact>
</mgrwt>
</event>
<event>
 4    1  0.1343107E-008  0.2940147E+04  0.7816531E-02  0.8261032E-01
         -2   -1    0    0    0  501 -0.00000000000E+00  0.00000000000E+00  0.90222903571E+03  0.90222903571E+03  0.00000000000E+00 0. -1.
          2   -1    0    0  501    0  0.00000000000E+00 -0.00000000000E+00 -0.23953077392E+04  0.23953077392E+04  0.00000000000E+00 0.  1.
    2000013    1    1    2    0    0  0.86819414841E+03 -0.48654634228E+02 -0.15415690850E+04  0.20087467727E+04  0.95000000000E+03 0.  0.
   -2000013    1    1    2    0    0 -0.86819414841E+03  0.48654634228E+02  0.48490381554E+02  0.12887900022E+04  0.95000000000E+03 0.  0.
<mgrwt>
<rscale>  0 0.29401471E+04</rscale>
<asrwt>0</asrwt>
<pdfrwt beam="2">  1        2 0.36850889E+00 0.29401471E+04</pdfrwt>
<pdfrwt beam="1">  1       -2 0.13880447E+00 0.29401471E+04</pdfrwt>
<totfact> 0.12635627E+00</totfact>
</mgrwt>
</event>
<event>
 4    1  0.1343107E-008  0.4032275E+04  0.7816531E-02  0.7998067E-01
         -2   -1    0    0    0  501 -0.00000000000E+00  0.00000000000E+00  0.10379901749E+04  0.10379901749E+04  0.00000000000E+00 0. -1.
          2   -1    0    0  501    0  0.00000000000E+00 -0.00000000000E+00 -0.39160387523E+04  0.39160387523E+04  0.00000000000E+00 0.  1.
    2000013    1    1    2    0    0  0.13280042260E+04 -0.95131970506E+03 -0.23022857334E+04  0.29785271534E+04  0.95000000000E+03 0.  0.
   -2000013    1    1    2    0    0 -0.13280042260E+04  0.95131970506E+03 -0.57576284406E+03  0.19755017738E+04  0.95000000000E+03 0.  0.
<mgrwt>
<rscale>  0 0.40322747E+04</rscale>
<asrwt>0</asrwt>
<pdfrwt beam="2">  1        2 0.60246749E+00 0.40322747E+04</pdfrwt>
<pdfrwt beam="1">  1       -2 0.15969080E+00 0.40322747E+04</pdfrwt>
<totfact> 0.79293106E-02</totfact>
</mgrwt>
</event>
<event>
 4    1  0.1343107E-008  0.2698420E+04  0.7816531E-02  0.8335518E-01
         -2   -1    0    0    0  501 -0.00000000000E+00  0.00000000000E+00  0.12905131423E+04  0.12905131423E+04  0.00000000000E+00 0. -1.
          2   -1    0    0  501    0  0.00000000000E+00 -0.00000000000E+00 -0.14105766214E+04  0.14105766214E+04  0.00000000000E+00 0.  1.
    2000013    1    1    2    0    0 -0.29231001369E+03 -0.88594281495E+03 -0.27825626689E+03  0.13602449653E+04  0.95000000000E+03 0.  0.
   -2000013    1    1    2    0    0  0.29231001369E+03  0.88594281495E+03  0.15819278773E+03  0.13408447985E+04  0.95000000000E+03 0.  0.
<mgrwt>
<rscale>  0 0.26984200E+04</rscale>
<asrwt>0</asrwt>
<pdfrwt beam="2">  1        2 0.21701179E+00 0.26984200E+04</pdfrwt>
<pdfrwt beam="1">  1       -2 0.19854048E+00 0.26984200E+04</pdfrwt>
<totfact> 0.17026822E+00</totfact>
</mgrwt>
</event>
<event>
 4    1  0.1343107E-008  0.2115216E+04  0.7816531E-02  0.8554570E-01
         -2   -1    0    0    0  501 -0.00000000000E+00  0.00000000000E+00  0.53324386254E+03  0.53324386254E+03  0.00000000000E+00 0. -1.
          2   -1    0    0  501    0  0.00000000000E+00 -0.00000000000E+00 -0.20976035276E+04  0.20976035276E+04  0.00000000000E+00 0.  1.
    2000013    1    1    2    0    0 -0.38445701604E+03  0.25337627642E+03 -0.86111259746E+03  0.13623588515E+04  0.95000000000E+03 0.  0.
   -2000013    1    1    2    0    0  0.38445701604E+03 -0.25337627642E+03 -0.70324706758E+03  0.12684885387E+04  0.95000000000E+03 0.  0.
<mgrwt>
<rscale>  0 0.21152156E+04</rscale>
<asrwt>0</asrwt>
<pdfrwt beam="2">  1        2 0.32270823E+00 0.21152156E+04</pdfrwt>
<pdfrwt beam="1">  1       -2 0.82037517E-01 0.21152156E+04</pdfrwt>
<totfact> 0.70842718E+00</totfact>
</mgrwt>
</event>
<event>
 4    1  0.1343107E-008  0.2243441E+04  0.7816531E-02  0.8500561E-01
          2   -1    0    0  501    0  0.00000000000E+00  0.00000000000E+00  0.24244570630E+04  0.24244570630E+04  0.00000000000E+00 0.  1.
         -2   -1    0    0    0  501 -0.00000000000E+00 -0.00000000000E+00 -0.51898503362E+03  0.51898503362E+03  0.00000000000E+00 0. -1.
    2000013    1    1    2    0    0 -0.55250615828E+03 -0.21182612243E+03  0.10511250858E+04  0.15354143763E+04  0.95000000000E+03 0.  0.
   -2000013    1    1    2    0    0  0.55250615828E+03  0.21182612243E+03  0.85434694361E+03  0.14080277203E+04  0.95000000000E+03 0.  0.
<mgrwt>
<rscale>  0 0.22434410E+04</rscale>
<asrwt>0</asrwt>
<pdfrwt beam="1">  1        2 0.37299339E+00 0.22434410E+04</pdfrwt>
<pdfrwt beam="2">  1       -2 0.79843853E-01 0.22434410E+04</pdfrwt>
<totfact> 0.48670520E+00</totfact>
</mgrwt>
</event>
<event>
 4    1  0.1343107E-008  0.1946514E+04  0.7816531E-02  0.8632044E-01
         -2   -1    0    0    0  501 -0.00000000000E+00  0.00000000000E+00  0.26367949425E+03  0.26367949425E+03  0.00000000000E+00 0. -1.
          2   -1    0    0  501    0  0.00000000000E+00 -0.00000000000E+00 -0.35923496308E+04  0.35923496308E+04  0.00000000000E+00 0.  1.
    2000013    1    1    2    0    0 -0.19484560018E+03  0.32663737276E+02 -0.18138600644E+04  0.20570901927E+04  0.95000000000E+03 0.  0.
   -2000013    1    1    2    0    0  0.19484560018E+03 -0.32663737276E+02 -0.15148100722E+04  0.17989389324E+04  0.95000000000E+03 0.  0.
<mgrwt>
<rscale>  0 0.19465137E+04</rscale>
<asrwt>0</asrwt>
<pdfrwt beam="2">  1        2 0.55266913E+00 0.19465137E+04</pdfrwt>
<pdfrwt beam="1">  1       -2 0.40566079E-01 0.19465137E+04</pdfrwt>
<totfact> 0.37802381E+00</totfact>
</mgrwt>
</event>
<event>
 4    1  0.1343107E-008  0.3676129E+04  0.7816531E-02  0.8073273E-01
          2   -1    0    0  501    0  0.00000000000E+00  0.00000000000E+00  0.17491951335E+04  0.17491951335E+04  0.00000000000E+00 0.  1.
         -2   -1    0    0    0  501 -0.00000000000E+00 -0.00000000000E+00 -0.19314490186E+04  0.19314490186E+04  0.00000000000E+00 0. -1.
    2000013    1    1    2    0    0 -0.10811402498E+04 -0.25292653049E+03  0.10252066709E+04  0.17850447579E+04  0.95000000000E+03 0.  0.
   -2000013    1    1    2    0    0  0.10811402498E+04  0.25292653049E+03 -0.12074605560E+04  0.18955993943E+04  0.95000000000E+03 0.  0.
<mgrwt>
<rscale>  0 0.36761291E+04</rscale>
<asrwt>0</asrwt>
<pdfrwt beam="1">  1        2 0.26910695E+00 0.36761291E+04</pdfrwt>
<pdfrwt beam="2">  1       -2 0.29714600E+00 0.36761291E+04</pdfrwt>
<totfact> 0.24677212E-01</totfact>
</mgrwt>
</event>
<event>
 4    1  0.1343107E-008  0.1926951E+04  0.7816531E-02  0.8641556E-01
          2   -1    0    0  501    0  0.00000000000E+00  0.00000000000E+00  0.74413206185E+03  0.74413206185E+03  0.00000000000E+00 0.  1.
         -2   -1    0    0    0  501 -0.00000000000E+00 -0.00000000000E+00 -0.12474735561E+04  0.12474735561E+04  0.00000000000E+00 0. -1.
    2000013    1    1    2    0    0 -0.30150762691E+02 -0.15572451425E+03 -0.22581381440E+03  0.98926794732E+03  0.95000000000E+03 0.  0.
   -2000013    1    1    2    0    0  0.30150762691E+02  0.15572451425E+03 -0.27752767981E+03  0.10023376706E+04  0.95000000000E+03 0.  0.
<mgrwt>
<rscale>  0 0.19269510E+04</rscale>
<asrwt>0</asrwt>
<pdfrwt beam="1">  1        2 0.11448186E+00 0.19269510E+04</pdfrwt>
<pdfrwt beam="2">  1       -2 0.19191901E+00 0.19269510E+04</pdfrwt>
<totfact> 0.53242913E+00</totfact>
</mgrwt>
</event>
<event>
 4    1  0.1343107E-008  0.2777334E+04  0.7816531E-02  0.8310340E-01
         -2   -1    0    0    0  501 -0.00000000000E+00  0.00000000000E+00  0.12470758845E+04  0.12470758845E+04  0.00000000000E+00 0. -1.
          2   -1    0    0  501    0  0.00000000000E+00 -0.00000000000E+00 -0.15463345563E+04  0.15463345563E+04  0.00000000000E+00 0.  1.
    2000013    1    1    2    0    0  0.36934144845E+03  0.82417547843E+03  0.31152017457E+03  0.13473021725E+04  0.95000000000E+03 0.  0.
   -2000013    1    1    2    0    0 -0.36934144845E+03 -0.82417547843E+03 -0.61077884635E+03  0.14461082684E+04  0.95000000000E+03 0.  0.
<mgrwt>
<rscale>  0 0.27773344E+04</rscale>
<asrwt>0</asrwt>
<pdfrwt beam="2">  1        2 0.23789762E+00 0.27773344E+04</pdfrwt>
<pdfrwt beam="1">  1       -2 0.19185783E+00 0.27773344E+04</pdfrwt>
<totfact> 0.15696768E+00</totfact>
</mgrwt>
</event>
<event>
 4    1  0.1343107E-008  0.2660511E+04  0.7816531E-02  0.8347933E-01
         -2   -1    0    0    0  501 -0.00000000000E+00  0.00000000000E+00  0.49263977574E+03  0.49263977574E+03  0.00000000000E+00 0. -1.
          2   -1    0    0  501    0  0.00000000000E+00 -0.00000000000E+00 -0.35920363191E+04  0.35920363191E+04  0.00000000000E+00 0.  1.
    2000013    1    1    2    0    0 -0.38938276185E+03  0.73938979370E+03 -0.91898476186E+03  0.15637612333E+04  0.95000000000E+03 0.  0.
   -2000013    1    1    2    0    0  0.38938276185E+03 -0.73938979370E+03 -0.21804117815E+04  0.25209148616E+04  0.95000000000E+03 0.  0.
<mgrwt>
<rscale>  0 0.26605112E+04</rscale>
<asrwt>0</asrwt>
<pdfrwt beam="2">  1        2 0.55262098E+00 0.26605112E+04</pdfrwt>
<pdfrwt beam="1">  1       -2 0.75790734E-01 0.26605112E+04</pdfrwt>
<totfact> 0.96109071E-01</totfact>
</mgrwt>
</event>
<event>
 4    1  0.1343107E-008  0.2277177E+04  0.7816531E-02  0.8486975E-01
          2   -1    0    0  501    0  0.00000000000E+00  0.00000000000E+00  0.21403737458E+04  0.21403737458E+04  0.00000000000E+00 0.  1.
         -2   -1    0    0    0  501 -0.00000000000E+00 -0.00000000000E+00 -0.60568087285E+03  0.60568087285E+03  0.00000000000E+00 0. -1.
    2000013    1    1    2    0    0  0.56895407894E+02 -0.47903616091E+03  0.12514691900E+04  0.16435899320E+04  0.95000000000E+03 0.  0.
   -2000013    1    1    2    0    0 -0.56895407894E+02  0.47903616091E+03  0.28322368299E+03  0.11024646867E+04  0.95000000000E+03 0.  0.
<mgrwt>
<rscale>  0 0.22771767E+04</rscale>
<asrwt>0</asrwt>
<pdfrwt beam="1">  1        2 0.32928827E+00 0.22771767E+04</pdfrwt>
<pdfrwt beam="2">  1       -2 0.93181673E-01 0.22771767E+04</pdfrwt>
<totfact> 0.49391499E+00</totfact>
</mgrwt>
</event>
<event>
 4    1  0.1343107E-008  0.2860016E+04  0.7816531E-02  0.8284874E-01
         -1   -1    0    0    0  501 -0.00000000000E+00  0.00000000000E+00  0.74077630523E+03  0.74077630523E+03  0.00000000000E+00 0. -1.
          1   -1    0    0  501    0  0.00000000000E+00 -0.00000000000E+00 -0.27605126284E+04  0.27605126284E+04  0.00000000000E+00 0.  1.
    2000013    1    1    2    0    0  0.36410706463E+02  0.26344550548E+03  0.25747654921E+03  0.10195702268E+04  0.95000000000E+03 0.  0.
   -2000013    1    1    2    0    0 -0.36410706463E+02 -0.26344550548E+03 -0.22772128724E+04  0.24817187069E+04  0.95000000000E+03 0.  0.
<mgrwt>
<rscale>  0 0.28600156E+04</rscale>
<asrwt>0</asrwt>
<pdfrwt beam="2">  1        1 0.42469426E+00 0.28600156E+04</pdfrwt>
<pdfrwt beam="1">  1       -1 0.11396558E+00 0.28600156E+04</pdfrwt>
<totfact> 0.53686179E-01</totfact>
</mgrwt>
</event>
<event>
 4    1  0.1343107E-008  0.2406024E+04  0.7816531E-02  0.8437252E-01
          2   -1    0    0  501    0  0.00000000000E+00  0.00000000000E+00  0.99873976532E+03  0.99873976532E+03  0.00000000000E+00 0.  1.
         -2   -1    0    0    0  501 -0.00000000000E+00 -0.00000000000E+00 -0.14490642345E+04  0.14490642345E+04  0.00000000000E+00 0. -1.
    2000013    1    1    2    0    0  0.27360717730E+03  0.46966284527E+03  0.28280133438E+03  0.11304515339E+04  0.95000000000E+03 0.  0.
   -2000013    1    1    2    0    0 -0.27360717730E+03 -0.46966284527E+03 -0.73312580353E+03  0.13173524659E+04  0.95000000000E+03 0.  0.
<mgrwt>
<rscale>  0 0.24060242E+04</rscale>
<asrwt>0</asrwt>
<pdfrwt beam="1">  1        2 0.15365227E+00 0.24060242E+04</pdfrwt>
<pdfrwt beam="2">  1       -2 0.22293296E+00 0.24060242E+04</pdfrwt>
<totfact> 0.21475579E+00</totfact>
</mgrwt>
</event>
<event>
 4    1  0.1343107E-008  0.3278900E+04  0.7816531E-02  0.8168285E-01
          2   -1    0    0  501    0  0.00000000000E+00  0.00000000000E+00  0.25657448243E+04  0.25657448243E+04  0.00000000000E+00 0.  1.
         -2   -1    0    0    0  501 -0.00000000000E+00 -0.00000000000E+00 -0.10475693486E+04  0.10475693486E+04  0.00000000000E+00 0. -1.
    2000013    1    1    2    0    0  0.51588316513E+03 -0.47297034975E+01  0.21173267342E+04  0.23773368103E+04  0.95000000000E+03 0.  0.
   -2000013    1    1    2    0    0 -0.51588316513E+03  0.47297034975E+01 -0.59915125849E+03  0.12359773625E+04  0.95000000000E+03 0.  0.
<mgrwt>
<rscale>  0 0.32788996E+04</rscale>
<asrwt>0</asrwt>
<pdfrwt beam="1">  1        2 0.39472997E+00 0.32788996E+04</pdfrwt>
<pdfrwt beam="2">  1       -2 0.16116452E+00 0.32788996E+04</pdfrwt>
<totfact> 0.65838092E-01</totfact>
</mgrwt>
</event>
<event>
 4    1  0.1343107E-008  0.2758694E+04  0.7816531E-02  0.8316208E-01
         -2   -1    0    0    0  501 -0.00000000000E+00  0.00000000000E+00  0.52575918398E+03  0.52575918398E+03  0.00000000000E+00 0. -1.
          2   -1    0    0  501    0  0.00000000000E+00 -0.00000000000E+00 -0.36187624314E+04  0.36187624314E+04  0.00000000000E+00 0.  1.
    2000013    1    1    2    0    0 -0.12910329424E+03  0.98867270646E+03 -0.14305556562E+04  0.19857318214E+04  0.95000000000E+03 0.  0.
   -2000013    1    1    2    0    0  0.12910329424E+03 -0.98867270646E+03 -0.16624475912E+04  0.21587897940E+04  0.95000000000E+03 0.  0.
<mgrwt>
<rscale>  0 0.27586936E+04</rscale>
<asrwt>0</asrwt>
<pdfrwt beam="2">  1        2 0.55673269E+00 0.27586936E+04</pdfrwt>
<pdfrwt beam="1">  1       -2 0.80886028E-01 0.27586936E+04</pdfrwt>
<totfact> 0.78799944E-01</totfact>
</mgrwt>
</event>
<event>
 4    1  0.1343107E-008  0.3136326E+04  0.7816531E-02  0.8205839E-01
         -2   -1    0    0    0  501 -0.00000000000E+00  0.00000000000E+00  0.79130710777E+03  0.79130710777E+03  0.00000000000E+00 0. -1.
          2   -1    0    0  501    0  0.00000000000E+00 -0.00000000000E+00 -0.31076876224E+04  0.31076876224E+04  0.00000000000E+00 0.  1.
    2000013    1    1    2    0    0  0.95684588990E+03 -0.79673258959E+03 -0.12568517141E+04  0.20081118265E+04  0.95000000000E+03 0.  0.
   -2000013    1    1    2    0    0 -0.95684588990E+03  0.79673258959E+03 -0.10595288005E+04  0.18908829037E+04  0.95000000000E+03 0.  0.
<mgrwt>
<rscale>  0 0.31363261E+04</rscale>
<asrwt>0</asrwt>
<pdfrwt beam="2">  1        2 0.47810579E+00 0.31363261E+04</pdfrwt>
<pdfrwt beam="1">  1       -2 0.12173955E+00 0.31363261E+04</pdfrwt>
<totfact> 0.64471301E-01</totfact>
</mgrwt>
</event>
<event>
 4    1  0.1343107E-008  0.2507313E+04  0.7816531E-02  0.8400385E-01
          2   -1    0    0  501    0  0.00000000000E+00  0.00000000000E+00  0.35658613661E+04  0.35658613661E+04  0.00000000000E+00 0. -1.
         -2   -1    0    0    0  501 -0.00000000000E+00 -0.00000000000E+00 -0.44075045291E+03  0.44075045291E+03  0.00000000000E+00 0.  1.
    2000013    1    1    2    0    0 -0.17833136593E+03 -0.67932614644E+03  0.22326918638E+04  0.25260045622E+04  0.95000000000E+03 0.  0.
   -2000013    1    1    2    0    0  0.17833136593E+03  0.67932614644E+03  0.89241904936E+03  0.14806072568E+04  0.95000000000E+03 0.  0.
<mgrwt>
<rscale>  0 0.25073133E+04</rscale>
<asrwt>0</asrwt>
<pdfrwt beam="1">  1        2 0.54859404E+00 0.25073133E+04</pdfrwt>
<pdfrwt beam="2">  1       -2 0.67807764E-01 0.25073133E+04</pdfrwt>
<totfact> 0.12989725E+00</totfact>
</mgrwt>
</event>
<event>
 4    1  0.1343107E-008  0.3006693E+04  0.7816531E-02  0.8241822E-01
          2   -1    0    0  501    0  0.00000000000E+00  0.00000000000E+00  0.20361634727E+04  0.20361634727E+04  0.00000000000E+00 0.  1.
         -2   -1    0    0    0  501 -0.00000000000E+00 -0.00000000000E+00 -0.11099555929E+04  0.11099555929E+04  0.00000000000E+00 0. -1.
    2000013    1    1    2    0    0  0.10756932681E+04  0.30902975358E+03  0.80206322997E+03  0.16728481164E+04  0.95000000000E+03 0.  0.
   -2000013    1    1    2    0    0 -0.10756932681E+04 -0.30902975358E+03  0.12414464986E+03  0.14732709492E+04  0.95000000000E+03 0.  0.
<mgrwt>
<rscale>  0 0.30066932E+04</rscale>
<asrwt>0</asrwt>
<pdfrwt beam="1">  1        2 0.31325592E+00 0.30066932E+04</pdfrwt>
<pdfrwt beam="2">  1       -2 0.17076240E+00 0.30066932E+04</pdfrwt>
<totfact> 0.11487242E+00</totfact>
</mgrwt>
</event>
<event>
 4    1  0.1343107E-008  0.2609439E+04  0.7816531E-02  0.8365002E-01
         -2   -1    0    0    0  501 -0.00000000000E+00  0.00000000000E+00  0.82160388758E+03  0.82160388758E+03  0.00000000000E+00 0. -1.
          2   -1    0    0  501    0  0.00000000000E+00 -0.00000000000E+00 -0.20719151536E+04  0.20719151536E+04  0.00000000000E+00 0.  1.
    2000013    1    1    2    0    0 -0.57042123822E+03 -0.64106542325E+03 -0.90446728046E+03  0.15674521770E+04  0.95000000000E+03 0.  0.
   -2000013    1    1    2    0    0  0.57042123822E+03  0.64106542325E+03 -0.34584398561E+03  0.13260668642E+04  0.95000000000E+03 0.  0.
<mgrwt>
<rscale>  0 0.26094394E+04</rscale>
<asrwt>0</asrwt>
<pdfrwt beam="2">  1        2 0.31875618E+00 0.26094394E+04</pdfrwt>
<pdfrwt beam="1">  1       -2 0.12640060E+00 0.26094394E+04</pdfrwt>
<totfact> 0.25104353E+00</totfact>
</mgrwt>
</event>
<event>
 4    1  0.1343107E-008  0.2255505E+04  0.7816531E-02  0.8495675E-01
          2   -1    0    0  501    0  0.00000000000E+00  0.00000000000E+00  0.98194083936E+03  0.98194083936E+03  0.00000000000E+00 0.  1.
         -2   -1    0    0    0  501 -0.00000000000E+00 -0.00000000000E+00 -0.12952157802E+04  0.12952157802E+04  0.00000000000E+00 0. -1.
    2000013    1    1    2    0    0 -0.21695372035E+03 -0.44658592230E+03  0.19717983726E+03  0.10899026521E+04  0.95000000000E+03 0.  0.
   -2000013    1    1    2    0    0  0.21695372035E+03  0.44658592230E+03 -0.51045477807E+03  0.11872539674E+04  0.95000000000E+03 0.  0.
<mgrwt>
<rscale>  0 0.22555046E+04</rscale>
<asrwt>0</asrwt>
<pdfrwt beam="1">  1        2 0.15106782E+00 0.22555046E+04</pdfrwt>
<pdfrwt beam="2">  1       -2 0.19926397E+00 0.22555046E+04</pdfrwt>
<totfact> 0.31655952E+00</totfact>
</mgrwt>
</event>
<event>
 4    1  0.1343107E-008  0.2125009E+04  0.7816531E-02  0.8550306E-01
          1   -1    0    0  501    0  0.00000000000E+00  0.00000000000E+00  0.13435088479E+04  0.13435088479E+04  0.00000000000E+00 0.  1.
         -1   -1    0    0    0  501 -0.00000000000E+00 -0.00000000000E+00 -0.84027454532E+03  0.84027454532E+03  0.00000000000E+00 0. -1.
    2000013    1    1    2    0    0 -0.47025429845E+03 -0.81739392733E+01  0.17743782510E+03  0.10747977020E+04  0.95000000000E+03 0.  0.
   -2000013    1    1    2    0    0  0.47025429845E+03  0.81739392733E+01  0.32579647745E+03  0.11089856912E+04  0.95000000000E+03 0.  0.
<mgrwt>
<rscale>  0 0.21250094E+04</rscale>
<asrwt>0</asrwt>
<pdfrwt beam="1">  1        1 0.20669367E+00 0.21250094E+04</pdfrwt>
<pdfrwt beam="2">  1       -1 0.12927301E+00 0.21250094E+04</pdfrwt>
<totfact> 0.39758840E+00</totfact>
</mgrwt>
</event>
<event>
 4    1  0.1343107E-008  0.2697509E+04  0.7816531E-02  0.8335814E-01
         -1   -1    0    0    0  501 -0.00000000000E+00  0.00000000000E+00  0.75959145857E+03  0.75959145857E+03  0.00000000000E+00 0.  1.
          1   -1    0    0  501    0  0.00000000000E+00 -0.00000000000E+00 -0.23948917169E+04  0.23948917169E+04  0.00000000000E+00 0. -1.
    2000013    1    1    2    0    0 -0.77033106417E+03 -0.24401622363E+03 -0.21715663526E+03  0.12659426804E+04  0.95000000000E+03 0.  0.
   -2000013    1    1    2    0    0  0.77033106417E+03  0.24401622363E+03 -0.14181436230E+04  0.18885404950E+04  0.95000000000E+03 0.  0.
<mgrwt>
<rscale>  0 0.26975094E+04</rscale>
<asrwt>0</asrwt>
<pdfrwt beam="2">  1        1 0.36844487E+00 0.26975094E+04</pdfrwt>
<pdfrwt beam="1">  1       -1 0.11686023E+00 0.26975094E+04</pdfrwt>
<totfact> 0.92335695E-01</totfact>
</mgrwt>
</event>
<event>
 4    1  0.1343107E-008  0.2831872E+04  0.7816531E-02  0.8293441E-01
         -2   -1    0    0    0  501 -0.00000000000E+00  0.00000000000E+00  0.55242012829E+03  0.55242012829E+03  0.00000000000E+00 0. -1.
          2   -1    0    0  501    0  0.00000000000E+00 -0.00000000000E+00 -0.36292585191E+04  0.36292585191E+04  0.00000000000E+00 0.  1.
    2000013    1    1    2    0    0 -0.84725261221E+03 -0.43125313294E+03 -0.88042513933E+03  0.16066937106E+04  0.95000000000E+03 0.  0.
   -2000013    1    1    2    0    0  0.84725261221E+03  0.43125313294E+03 -0.21964132515E+04  0.25749849368E+04  0.95000000000E+03 0.  0.
<mgrwt>
<rscale>  0 0.28318725E+04</rscale>
<asrwt>0</asrwt>
<pdfrwt beam="2">  1        2 0.55834747E+00 0.28318725E+04</pdfrwt>
<pdfrwt beam="1">  1       -2 0.84987711E-01 0.28318725E+04</pdfrwt>
<totfact> 0.68781974E-01</totfact>
</mgrwt>
</event>
<event>
 4    1  0.1343107E-008  0.2170488E+04  0.7816531E-02  0.8530813E-01
          2   -1    0    0  501    0  0.00000000000E+00  0.00000000000E+00  0.92378004262E+03  0.92378004262E+03  0.00000000000E+00 0.  1.
         -2   -1    0    0    0  501 -0.00000000000E+00 -0.00000000000E+00 -0.12749293583E+04  0.12749293583E+04  0.00000000000E+00 0. -1.
    2000013    1    1    2    0    0 -0.35955412298E+03  0.13380046124E+03  0.18695082921E+03  0.10414568370E+04  0.95000000000E+03 0.  0.
   -2000013    1    1    2    0    0  0.35955412298E+03 -0.13380046124E+03 -0.53810014488E+03  0.11572525639E+04  0.95000000000E+03 0.  0.
<mgrwt>
<rscale>  0 0.21704878E+04</rscale>
<asrwt>0</asrwt>
<pdfrwt beam="1">  1        2 0.14212001E+00 0.21704878E+04</pdfrwt>
<pdfrwt beam="2">  1       -2 0.19614298E+00 0.21704878E+04</pdfrwt>
<totfact> 0.36506471E+00</totfact>
</mgrwt>
</event>
<event>
 4    1  0.1343107E-008  0.2493571E+04  0.7816531E-02  0.8405280E-01
          2   -1    0    0  501    0  0.00000000000E+00  0.00000000000E+00  0.30809788864E+04  0.30809788864E+04  0.00000000000E+00 0.  1.
         -2   -1    0    0    0  501 -0.00000000000E+00 -0.00000000000E+00 -0.50453883041E+03  0.50453883041E+03  0.00000000000E+00 0. -1.
    2000013    1    1    2    0    0  0.53577678172E+03 -0.20419588127E+03  0.47073492809E+03  0.12053398236E+04  0.95000000000E+03 0.  0.
   -2000013    1    1    2    0    0 -0.53577678172E+03  0.20419588127E+03  0.21057051279E+04  0.23801778932E+04  0.95000000000E+03 0.  0.
<mgrwt>
<rscale>  0 0.24935705E+04</rscale>
<asrwt>0</asrwt>
<pdfrwt beam="1">  1        2 0.47399674E+00 0.24935705E+04</pdfrwt>
<pdfrwt beam="2">  1       -2 0.77621360E-01 0.24935705E+04</pdfrwt>
<totfact> 0.20432558E+00</totfact>
</mgrwt>
</event>
<event>
 4    1  0.1343107E-008  0.2916003E+04  0.7816531E-02  0.8268132E-01
         -4   -1    0    0    0  501 -0.00000000000E+00  0.00000000000E+00  0.28795985035E+04  0.28795985035E+04  0.00000000000E+00 0. -1.
          4   -1    0    0  501    0  0.00000000000E+00 -0.00000000000E+00 -0.73821685585E+03  0.73821685585E+03  0.00000000000E+00 0.  1.
    2000013    1    1    2    0    0  0.37475369197E+03 -0.96815516255E+03  0.15439456293E+04  0.20890267722E+04  0.95000000000E+03 0.  0.
   -2000013    1    1    2    0    0 -0.37475369197E+03  0.96815516255E+03  0.59743601836E+03  0.15287885872E+04  0.95000000000E+03 0.  0.
<mgrwt>
<rscale>  0 0.29160028E+04</rscale>
<asrwt>0</asrwt>
<pdfrwt beam="2">  1        4 0.11357183E+00 0.29160028E+04</pdfrwt>
<pdfrwt beam="1">  1       -4 0.44301515E+00 0.29160028E+04</pdfrwt>
<totfact> 0.34644689E-03</totfact>
</mgrwt>
</event>
<event>
 4    1  0.1343107E-008  0.2891693E+04  0.7816531E-02  0.8275353E-01
          2   -1    0    0  501    0  0.00000000000E+00  0.00000000000E+00  0.20582592349E+04  0.20582592349E+04  0.00000000000E+00 0.  1.
         -2   -1    0    0    0  501 -0.00000000000E+00 -0.00000000000E+00 -0.10156506084E+04  0.10156506084E+04  0.00000000000E+00 0. -1.
    2000013    1    1    2    0    0 -0.50744439284E+03 -0.13177946994E+03  0.15370843398E+04  0.18814871533E+04  0.95000000000E+03 0.  0.
   -2000013    1    1    2    0    0  0.50744439284E+03  0.13177946994E+03 -0.49447571324E+03  0.11924226899E+04  0.95000000000E+03 0.  0.
<mgrwt>
<rscale>  0 0.28916931E+04</rscale>
<asrwt>0</asrwt>
<pdfrwt beam="1">  1        2 0.31665527E+00 0.28916931E+04</pdfrwt>
<pdfrwt beam="2">  1       -2 0.15625394E+00 0.28916931E+04</pdfrwt>
<totfact> 0.14384346E+00</totfact>
</mgrwt>
</event>
<event>
 4    1  0.1343107E-008  0.2646213E+04  0.7816531E-02  0.8352671E-01
          2   -1    0    0  501    0  0.00000000000E+00  0.00000000000E+00  0.25541759640E+04  0.25541759640E+04  0.00000000000E+00 0.  1.
         -2   -1    0    0    0  501 -0.00000000000E+00 -0.00000000000E+00 -0.68539158746E+03  0.68539158746E+03  0.00000000000E+00 0. -1.
    2000013    1    1    2    0    0 -0.83114416422E+03 -0.82244355706E+02  0.14093956884E+04  0.18937953855E+04  0.95000000000E+03 0.  0.
   -2000013    1    1    2    0    0  0.83114416422E+03  0.82244355706E+02  0.45938868810E+03  0.13457721659E+04  0.95000000000E+03 0.  0.
<mgrwt>
<rscale>  0 0.26462129E+04</rscale>
<asrwt>0</asrwt>
<pdfrwt beam="1">  1        2 0.39295014E+00 0.26462129E+04</pdfrwt>
<pdfrwt beam="2">  1       -2 0.10544486E+00 0.26462129E+04</pdfrwt>
<totfact> 0.20752388E+00</totfact>
</mgrwt>
</event>
<event>
 4    1  0.1343107E-008  0.2474790E+04  0.7816531E-02  0.8412022E-01
          3   -1    0    0  501    0  0.00000000000E+00  0.00000000000E+00  0.17149623919E+04  0.17149623919E+04  0.00000000000E+00 0. -1.
         -3   -1    0    0    0  501 -0.00000000000E+00 -0.00000000000E+00 -0.89281597428E+03  0.89281597428E+03  0.00000000000E+00 0.  1.
    2000013    1    1    2    0    0 -0.10256718021E+01 -0.75110211206E+03  0.14347704219E+03  0.12195249470E+04  0.95000000000E+03 0.  0.
   -2000013    1    1    2    0    0  0.10256718021E+01  0.75110211206E+03  0.67866937548E+03  0.13882534192E+04  0.95000000000E+03 0.  0.
<mgrwt>
<rscale>  0 0.24747895E+04</rscale>
<asrwt>0</asrwt>
<pdfrwt beam="1">  1        3 0.26384037E+00 0.24747895E+04</pdfrwt>
<pdfrwt beam="2">  1       -3 0.13735630E+00 0.24747895E+04</pdfrwt>
<totfact> 0.57972117E-02</totfact>
</mgrwt>
</event>
<event>
 4    1  0.1343107E-008  0.2120926E+04  0.7816531E-02  0.8552081E-01
         -2   -1    0    0    0  501 -0.00000000000E+00  0.00000000000E+00  0.48146544807E+03  0.48146544807E+03  0.00000000000E+00 0. -1.
          2   -1    0    0  501    0  0.00000000000E+00 -0.00000000000E+00 -0.23357476010E+04  0.23357476010E+04  0.00000000000E+00 0.  1.
    2000013    1    1    2    0    0 -0.43833945980E+03  0.76336605248E+02 -0.72087877746E+03  0.12728452267E+04  0.95000000000E+03 0.  0.
   -2000013    1    1    2    0    0  0.43833945980E+03 -0.76336605248E+02 -0.11334033755E+04  0.15443678224E+04  0.95000000000E+03 0.  0.
<mgrwt>
<rscale>  0 0.21209260E+04</rscale>
<asrwt>0</asrwt>
<pdfrwt beam="2">  1        2 0.35934578E+00 0.21209260E+04</pdfrwt>
<pdfrwt beam="1">  1       -2 0.74071609E-01 0.21209260E+04</pdfrwt>
<totfact> 0.65335252E+00</totfact>
</mgrwt>
</event>
<event>
 4    1  0.1343107E-008  0.2015677E+04  0.7816531E-02  0.8599326E-01
         -1   -1    0    0    0  501 -0.00000000000E+00  0.00000000000E+00  0.29364882729E+03  0.29364882729E+03  0.00000000000E+00 0. -1.
          1   -1    0    0  501    0  0.00000000000E+00 -0.00000000000E+00 -0.34590252436E+04  0.34590252436E+04  0.00000000000E+00 0.  1.
    2000013    1    1    2    0    0  0.90466332592E+02  0.32361333274E+03 -0.16164551191E+04  0.19048193874E+04  0.95000000000E+03 0.  0.
   -2000013    1    1    2    0    0 -0.90466332592E+02 -0.32361333274E+03 -0.15489212972E+04  0.18478546835E+04  0.95000000000E+03 0.  0.
<mgrwt>
<rscale>  0 0.20156773E+04</rscale>
<asrwt>0</asrwt>
<pdfrwt beam="2">  1        1 0.53215777E+00 0.20156773E+04</pdfrwt>
<pdfrwt beam="1">  1       -1 0.45176739E-01 0.20156773E+04</pdfrwt>
<totfact> 0.12170254E+00</totfact>
</mgrwt>
</event>
<event>
 4    1  0.1343107E-008  0.1963423E+04  0.7816531E-02  0.8623915E-01
         -2   -1    0    0    0  501 -0.00000000000E+00  0.00000000000E+00  0.17035790530E+04  0.17035790530E+04  0.00000000000E+00 0. -1.
          2   -1    0    0  501    0  0.00000000000E+00 -0.00000000000E+00 -0.56572535525E+03  0.56572535525E+03  0.00000000000E+00 0.  1.
    2000013    1    1    2    0    0  0.62107807430E+02 -0.23760395868E+03  0.60445387458E+03  0.11524658379E+04  0.95000000000E+03 0.  0.
   -2000013    1    1    2    0    0 -0.62107807430E+02  0.23760395868E+03  0.53339982314E+03  0.11168385704E+04  0.95000000000E+03 0.  0.
<mgrwt>
<rscale>  0 0.19634234E+04</rscale>
<asrwt>0</asrwt>
<pdfrwt beam="2">  1        2 0.87034671E-01 0.19634234E+04</pdfrwt>
<pdfrwt beam="1">  1       -2 0.26208908E+00 0.19634234E+04</pdfrwt>
<totfact> 0.26875001E+00</totfact>
</mgrwt>
</event>
<event>
 4    1  0.1343107E-008  0.2838341E+04  0.7816531E-02  0.8291463E-01
          2   -1    0    0  501    0  0.00000000000E+00  0.00000000000E+00  0.15142410502E+04  0.15142410502E+04  0.00000000000E+00 0.  1.
         -2   -1    0    0    0  501 -0.00000000000E+00 -0.00000000000E+00 -0.13300693205E+04  0.13300693205E+04  0.00000000000E+00 0. -1.
    2000013    1    1    2    0    0  0.55817599540E+03 -0.62636742955E+03 -0.54773075320E+03  0.13807264670E+04  0.95000000000E+03 0.  0.
   -2000013    1    1    2    0    0 -0.55817599540E+03  0.62636742955E+03  0.73190248290E+03  0.14635839037E+04  0.95000000000E+03 0.  0.
<mgrwt>
<rscale>  0 0.28383415E+04</rscale>
<asrwt>0</asrwt>
<pdfrwt beam="1">  1        2 0.23296016E+00 0.28383415E+04</pdfrwt>
<pdfrwt beam="2">  1       -2 0.20462605E+00 0.28383415E+04</pdfrwt>
<totfact> 0.13410116E+00</totfact>
</mgrwt>
</event>
<event>
 4    1  0.1343107E-008  0.3214437E+04  0.7816531E-02  0.8185015E-01
         -2   -1    0    0    0  501 -0.00000000000E+00  0.00000000000E+00  0.15129507202E+04  0.15129507202E+04  0.00000000000E+00 0. -1.
          2   -1    0    0  501    0  0.00000000000E+00 -0.00000000000E+00 -0.17073598061E+04  0.17073598061E+04  0.00000000000E+00 0.  1.
    2000013    1    1    2    0    0 -0.68795240764E+03  0.93966173333E+03  0.47340494764E+03  0.15757077561E+04  0.95000000000E+03 0.  0.
   -2000013    1    1    2    0    0  0.68795240764E+03 -0.93966173333E+03 -0.66781403351E+03  0.16446027702E+04  0.95000000000E+03 0.  0.
<mgrwt>
<rscale>  0 0.32144370E+04</rscale>
<asrwt>0</asrwt>
<pdfrwt beam="2">  1        2 0.26267074E+00 0.32144370E+04</pdfrwt>
<pdfrwt beam="1">  1       -2 0.23276165E+00 0.32144370E+04</pdfrwt>
<totfact> 0.67140167E-01</totfact>
</mgrwt>
</event>
<event>
 4    1  0.1343107E-008  0.2824752E+04  0.7816531E-02  0.8295625E-01
         -2   -1    0    0    0  501 -0.00000000000E+00  0.00000000000E+00  0.80657047218E+03  0.80657047218E+03  0.00000000000E+00 0. -1.
          2   -1    0    0  501    0  0.00000000000E+00 -0.00000000000E+00 -0.24731948252E+04  0.24731948252E+04  0.00000000000E+00 0.  1.
    2000013    1    1    2    0    0  0.20981075323E+03  0.10232466459E+04 -0.79223439940E+03  0.16190088308E+04  0.95000000000E+03 0.  0.
   -2000013    1    1    2    0    0 -0.20981075323E+03 -0.10232466459E+04 -0.87438995365E+03  0.16607564667E+04  0.95000000000E+03 0.  0.
<mgrwt>
<rscale>  0 0.28247520E+04</rscale>
<asrwt>0</asrwt>
<pdfrwt beam="2">  1        2 0.38049151E+00 0.28247520E+04</pdfrwt>
<pdfrwt beam="1">  1       -2 0.12408777E+00 0.28247520E+04</pdfrwt>
<totfact> 0.15297679E+00</totfact>
</mgrwt>
</event>
<event>
 4    1  0.1343107E-008  0.2199615E+04  0.7816531E-02  0.8518589E-01
          2   -1    0    0  501    0  0.00000000000E+00  0.00000000000E+00  0.32404250906E+04  0.32404250906E+04  0.00000000000E+00 0.  1.
         -2   -1    0    0    0  501 -0.00000000000E+00 -0.00000000000E+00 -0.37327699276E+03  0.37327699276E+03  0.00000000000E+00 0. -1.
    2000013    1    1    2    0    0  0.88086406595E+02 -0.43173669698E+03  0.88150698334E+03  0.13688354000E+04  0.95000000000E+03 0.  0.
   -2000013    1    1    2    0    0 -0.88086406595E+02  0.43173669698E+03  0.19856411145E+04  0.22448666834E+04  0.95000000000E+03 0.  0.
<mgrwt>
<rscale>  0 0.21996146E+04</rscale>
<asrwt>0</asrwt>
<pdfrwt beam="1">  1        2 0.49852692E+00 0.21996146E+04</pdfrwt>
<pdfrwt beam="2">  1       -2 0.57427232E-01 0.21996146E+04</pdfrwt>
<totfact> 0.31745162E+00</totfact>
</mgrwt>
</event>
<event>
 4    1  0.1343107E-008  0.2899734E+04  0.7816531E-02  0.8272957E-01
          2   -1    0    0  501    0  0.00000000000E+00  0.00000000000E+00  0.44375915272E+04  0.44375915272E+04  0.00000000000E+00 0.  1.
         -2   -1    0    0    0  501 -0.00000000000E+00 -0.00000000000E+00 -0.47370601923E+03  0.47370601923E+03  0.00000000000E+00 0. -1.
    2000013    1    1    2    0    0 -0.59191020312E+03  0.55516999650E+03  0.32277584238E+04  0.34611408316E+04  0.95000000000E+03 0.  0.
   -2000013    1    1    2    0    0  0.59191020312E+03 -0.55516999650E+03  0.73612708417E+03  0.14501567148E+04  0.95000000000E+03 0.  0.
<mgrwt>
<rscale>  0 0.28997337E+04</rscale>
<asrwt>0</asrwt>
<pdfrwt beam="1">  1        2 0.68270636E+00 0.28997337E+04</pdfrwt>
<pdfrwt beam="2">  1       -2 0.72877852E-01 0.28997337E+04</pdfrwt>
<totfact> 0.20772598E-01</totfact>
</mgrwt>
</event>
<event>
 4    1  0.1343107E-008  0.2871990E+04  0.7816531E-02  0.8281260E-01
         -2   -1    0    0    0  501 -0.00000000000E+00  0.00000000000E+00  0.74250435121E+03  0.74250435121E+03  0.00000000000E+00 0. -1.
          2   -1    0    0  501    0  0.00000000000E+00 -0.00000000000E+00 -0.27771975145E+04  0.27771975145E+04  0.00000000000E+00 0.  1.
    2000013    1    1    2    0    0 -0.52747075782E+03  0.69143188060E+03 -0.23908579089E+03  0.13099486483E+04  0.95000000000E+03 0.  0.
   -2000013    1    1    2    0    0  0.52747075782E+03 -0.69143188060E+03 -0.17956073724E+04  0.22097532173E+04  0.95000000000E+03 0.  0.
<mgrwt>
<rscale>  0 0.28719897E+04</rscale>
<asrwt>0</asrwt>
<pdfrwt beam="2">  1        2 0.42726115E+00 0.28719897E+04</pdfrwt>
<pdfrwt beam="1">  1       -2 0.11423144E+00 0.28719897E+04</pdfrwt>
<totfact> 0.12371485E+00</totfact>
</mgrwt>
</event>
<event>
 4    1  0.1343107E-008  0.2132557E+04  0.7816531E-02  0.8547036E-01
          2   -1    0    0  501    0  0.00000000000E+00  0.00000000000E+00  0.28176431211E+04  0.28176431211E+04  0.00000000000E+00 0.  1.
         -2   -1    0    0    0  501 -0.00000000000E+00 -0.00000000000E+00 -0.40351077449E+03  0.40351077449E+03  0.00000000000E+00 0. -1.
    2000013    1    1    2    0    0 -0.42269578166E+03  0.21903910396E+03  0.10736696710E+04  0.15106013423E+04  0.95000000000E+03 0.  0.
   -2000013    1    1    2    0    0  0.42269578166E+03 -0.21903910396E+03  0.13404626756E+04  0.17105525533E+04  0.95000000000E+03 0.  0.
<mgrwt>
<rscale>  0 0.21325565E+04</rscale>
<asrwt>0</asrwt>
<pdfrwt beam="1">  1        2 0.43348354E+00 0.21325565E+04</pdfrwt>
<pdfrwt beam="2">  1       -2 0.62078582E-01 0.21325565E+04</pdfrwt>
<totfact> 0.50005580E+00</totfact>
</mgrwt>
</event>
