<event>
 4    1  0.2043502E-008  0.2380992E+04  0.7816531E-02  0.8446654E-01
         -2   -1    0    0    0  501 -0.00000000000E+00  0.00000000000E+00  0.65291169675E+03  0.65291169675E+03  0.00000000000E+00 0. -1.
          2   -1    0    0  501    0  0.00000000000E+00 -0.00000000000E+00 -0.21707079433E+04  0.21707079433E+04  0.00000000000E+00 0.  1.
    2000013    1    1    2    0    0  0.69703504564E+03  0.19238159597E+02 -0.55851024484E+03  0.13040941896E+04  0.95000000000E+03 0.  0.
   -2000013    1    1    2    0    0 -0.69703504564E+03 -0.19238159597E+02 -0.95928600175E+03  0.15195254505E+04  0.95000000000E+03 0.  0.
<mgrwt>
<rscale>  0 0.23809919E+04</rscale>
<asrwt>0</asrwt>
<pdfrwt beam="2">  1        2 0.33395508E+00 0.23809919E+04</pdfrwt>
<pdfrwt beam="1">  1       -2 0.10044795E+00 0.23809919E+04</pdfrwt>
<totfact> 0.39474091E+00</totfact>
</mgrwt>
</event>
<event>
 4    1  0.2043502E-008  0.2638049E+04  0.7816531E-02  0.8355390E-01
          2   -1    0    0  501    0  0.00000000000E+00  0.00000000000E+00  0.21539600628E+04  0.21539600628E+04  0.00000000000E+00 0.  1.
         -2   -1    0    0    0  501 -0.00000000000E+00 -0.00000000000E+00 -0.80773372370E+03  0.80773372370E+03  0.00000000000E+00 0. -1.
    2000013    1    1    2    0    0  0.66587563153E+03 -0.16872782502E+03 -0.55920061659E+01  0.11723441074E+04  0.95000000000E+03 0.  0.
   -2000013    1    1    2    0    0 -0.66587563153E+03  0.16872782502E+03  0.13518183453E+04  0.17893496792E+04  0.95000000000E+03 0.  0.
<mgrwt>
<rscale>  0 0.26380494E+04</rscale>
<asrwt>0</asrwt>
<pdfrwt beam="1">  1        2 0.33137847E+00 0.26380494E+04</pdfrwt>
<pdfrwt beam="2">  1       -2 0.12426673E+00 0.26380494E+04</pdfrwt>
<totfact> 0.23516363E+00</totfact>
</mgrwt>
</event>
<event>
 4    1  0.2043502E-008  0.2413182E+04  0.7816531E-02  0.8434585E-01
         -2   -1    0    0    0  501 -0.00000000000E+00  0.00000000000E+00  0.91520988516E+03  0.91520988516E+03  0.00000000000E+00 0. -1.
          2   -1    0    0  501    0  0.00000000000E+00 -0.00000000000E+00 -0.15907413976E+04  0.15907413976E+04  0.00000000000E+00 0.  1.
    2000013    1    1    2    0    0  0.13177197350E+02  0.74358091086E+03 -0.32051253071E+03  0.12483246741E+04  0.95000000000E+03 0.  0.
   -2000013    1    1    2    0    0 -0.13177197350E+02 -0.74358091086E+03 -0.35501898174E+03  0.12576266087E+04  0.95000000000E+03 0.  0.
<mgrwt>
<rscale>  0 0.24131823E+04</rscale>
<asrwt>0</asrwt>
<pdfrwt beam="2">  1        2 0.24472944E+00 0.24131823E+04</pdfrwt>
<pdfrwt beam="1">  1       -2 0.14080152E+00 0.24131823E+04</pdfrwt>
<totfact> 0.35879416E+00</totfact>
</mgrwt>
</event>
<event>
 4    1  0.2043502E-008  0.2746609E+04  0.7816531E-02  0.8320039E-01
          2   -1    0    0  501    0  0.00000000000E+00  0.00000000000E+00  0.23993638626E+04  0.23993638626E+04  0.00000000000E+00 0.  1.
         -2   -1    0    0    0  501 -0.00000000000E+00 -0.00000000000E+00 -0.78602715014E+03  0.78602715014E+03  0.00000000000E+00 0. -1.
    2000013    1    1    2    0    0  0.92700761665E+02 -0.62045998992E+03  0.16974177401E+04  0.20438422186E+04  0.95000000000E+03 0.  0.
   -2000013    1    1    2    0    0 -0.92700761665E+02  0.62045998992E+03 -0.84081027554E+02  0.11415487942E+04  0.95000000000E+03 0.  0.
<mgrwt>
<rscale>  0 0.27466089E+04</rscale>
<asrwt>0</asrwt>
<pdfrwt beam="1">  1        2 0.36913290E+00 0.27466089E+04</pdfrwt>
<pdfrwt beam="2">  1       -2 0.12092726E+00 0.27466089E+04</pdfrwt>
<totfact> 0.18111008E+00</totfact>
</mgrwt>
</event>
<event>
 4    1  0.2043502E-008  0.2410110E+04  0.7816531E-02  0.8435728E-01
          2   -1    0    0  501    0  0.00000000000E+00  0.00000000000E+00  0.14179185817E+04  0.14179185817E+04  0.00000000000E+00 0.  1.
         -2   -1    0    0    0  501 -0.00000000000E+00 -0.00000000000E+00 -0.10241476411E+04  0.10241476411E+04  0.00000000000E+00 0. -1.
    2000013    1    1    2    0    0  0.52140501428E+03  0.45356635720E+03  0.46890796873E+03  0.12648953761E+04  0.95000000000E+03 0.  0.
   -2000013    1    1    2    0    0 -0.52140501428E+03 -0.45356635720E+03 -0.75137028094E+02  0.11771708467E+04  0.95000000000E+03 0.  0.
<mgrwt>
<rscale>  0 0.24101103E+04</rscale>
<asrwt>0</asrwt>
<pdfrwt beam="1">  1        2 0.21814132E+00 0.24101103E+04</pdfrwt>
<pdfrwt beam="2">  1       -2 0.15756117E+00 0.24101103E+04</pdfrwt>
<totfact> 0.33354732E+00</totfact>
</mgrwt>
</event>
<event>
 4    1  0.2043502E-008  0.2972500E+04  0.7816531E-02  0.8251628E-01
         -1   -1    0    0    0  501 -0.00000000000E+00  0.00000000000E+00  0.18544250293E+04  0.18544250293E+04  0.00000000000E+00 0. -1.
          1   -1    0    0  501    0  0.00000000000E+00 -0.00000000000E+00 -0.11911717751E+04  0.11911717751E+04  0.00000000000E+00 0.  1.
    2000013    1    1    2    0    0 -0.86991676731E+03 -0.54690855698E+03 -0.18125731258E+03  0.14111053700E+04  0.95000000000E+03 0.  0.
   -2000013    1    1    2    0    0  0.86991676731E+03  0.54690855698E+03  0.84451056679E+03  0.16344914344E+04  0.95000000000E+03 0.  0.
<mgrwt>
<rscale>  0 0.29724998E+04</rscale>
<asrwt>0</asrwt>
<pdfrwt beam="2">  1        1 0.18325720E+00 0.29724998E+04</pdfrwt>
<pdfrwt beam="1">  1       -1 0.28529616E+00 0.29724998E+04</pdfrwt>
<totfact> 0.38049588E-01</totfact>
</mgrwt>
</event>
<event>
 4    1  0.2043502E-008  0.2486008E+04  0.7816531E-02  0.8407987E-01
         -2   -1    0    0    0  501 -0.00000000000E+00  0.00000000000E+00  0.67027185946E+03  0.67027185946E+03  0.00000000000E+00 0. -1.
          2   -1    0    0  501    0  0.00000000000E+00 -0.00000000000E+00 -0.23051235918E+04  0.23051235918E+04  0.00000000000E+00 0.  1.
    2000013    1    1    2    0    0 -0.30110748099E+03  0.74243172629E+03 -0.84883948323E+03  0.15049581561E+04  0.95000000000E+03 0.  0.
   -2000013    1    1    2    0    0  0.30110748099E+03 -0.74243172629E+03 -0.78601224914E+03  0.14704372952E+04  0.95000000000E+03 0.  0.
<mgrwt>
<rscale>  0 0.24860084E+04</rscale>
<asrwt>0</asrwt>
<pdfrwt beam="2">  1        2 0.35463440E+00 0.24860084E+04</pdfrwt>
<pdfrwt beam="1">  1       -2 0.10311875E+00 0.24860084E+04</pdfrwt>
<totfact> 0.30863077E+00</totfact>
</mgrwt>
</event>
<event>
 4    1  0.2043502E-008  0.2138537E+04  0.7816531E-02  0.8544455E-01
          2   -1    0    0  501    0  0.00000000000E+00  0.00000000000E+00  0.10086024483E+04  0.10086024483E+04  0.00000000000E+00 0.  1.
         -2   -1    0    0    0  501 -0.00000000000E+00 -0.00000000000E+00 -0.11335830824E+04  0.11335830824E+04  0.00000000000E+00 0. -1.
    2000013    1    1    2    0    0 -0.41926980525E+03 -0.24751540244E+03 -0.12410647695E+03  0.10746876112E+04  0.95000000000E+03 0.  0.
   -2000013    1    1    2    0    0  0.41926980525E+03  0.24751540244E+03 -0.87415722241E+00  0.10674979195E+04  0.95000000000E+03 0.  0.
<mgrwt>
<rscale>  0 0.21385366E+04</rscale>
<asrwt>0</asrwt>
<pdfrwt beam="1">  1        2 0.15516961E+00 0.21385366E+04</pdfrwt>
<pdfrwt beam="2">  1       -2 0.17439740E+00 0.21385366E+04</pdfrwt>
<totfact> 0.45321149E+00</totfact>
</mgrwt>
</event>
<event>
 4    1  0.2043502E-008  0.2964729E+04  0.7816531E-02  0.8253875E-01
         -1   -1    0    0    0  501 -0.00000000000E+00  0.00000000000E+00  0.11319536067E+04  0.11319536067E+04  0.00000000000E+00 0. -1.
          1   -1    0    0  501    0  0.00000000000E+00 -0.00000000000E+00 -0.19412490352E+04  0.19412490352E+04  0.00000000000E+00 0.  1.
    2000013    1    1    2    0    0  0.89582729739E+03 -0.68773115190E+03 -0.54911391030E+03  0.15746449665E+04  0.95000000000E+03 0.  0.
   -2000013    1    1    2    0    0 -0.89582729739E+03  0.68773115190E+03 -0.26018151814E+03  0.14985576754E+04  0.95000000000E+03 0.  0.
<mgrwt>
<rscale>  0 0.29647286E+04</rscale>
<asrwt>0</asrwt>
<pdfrwt beam="2">  1        1 0.29865370E+00 0.29647286E+04</pdfrwt>
<pdfrwt beam="1">  1       -1 0.17414671E+00 0.29647286E+04</pdfrwt>
<totfact> 0.63980671E-01</totfact>
</mgrwt>
</event>
<event>
 4    1  0.2043502E-008  0.3735986E+04  0.7816531E-02  0.8060033E-01
          2   -1    0    0  501    0  0.00000000000E+00  0.00000000000E+00  0.17976532283E+04  0.17976532283E+04  0.00000000000E+00 0.  1.
         -2   -1    0    0    0  501 -0.00000000000E+00 -0.00000000000E+00 -0.19410854780E+04  0.19410854780E+04  0.00000000000E+00 0. -1.
    2000013    1    1    2    0    0 -0.12735816434E+04  0.20224586763E+03  0.89023340149E+03  0.18324653073E+04  0.95000000000E+03 0.  0.
   -2000013    1    1    2    0    0  0.12735816434E+04 -0.20224586763E+03 -0.10336656511E+04  0.19062733990E+04  0.95000000000E+03 0.  0.
<mgrwt>
<rscale>  0 0.37359864E+04</rscale>
<asrwt>0</asrwt>
<pdfrwt beam="1">  1        2 0.27656203E+00 0.37359864E+04</pdfrwt>
<pdfrwt beam="2">  1       -2 0.29862854E+00 0.37359864E+04</pdfrwt>
<totfact> 0.22604058E-01</totfact>
</mgrwt>
</event>
<event>
 4    1  0.2043502E-008  0.2805330E+04  0.7816531E-02  0.8301615E-01
         -2   -1    0    0    0  501 -0.00000000000E+00  0.00000000000E+00  0.16289333515E+04  0.16289333515E+04  0.00000000000E+00 0. -1.
          2   -1    0    0  501    0  0.00000000000E+00 -0.00000000000E+00 -0.12078268733E+04  0.12078268733E+04  0.00000000000E+00 0.  1.
    2000013    1    1    2    0    0  0.90730374181E+03  0.39181244922E+03 -0.89848123021E+02  0.13737866503E+04  0.95000000000E+03 0.  0.
   -2000013    1    1    2    0    0 -0.90730374181E+03 -0.39181244922E+03  0.51095460116E+03  0.14629735745E+04  0.95000000000E+03 0.  0.
<mgrwt>
<rscale>  0 0.28053303E+04</rscale>
<asrwt>0</asrwt>
<pdfrwt beam="2">  1        2 0.18581952E+00 0.28053303E+04</pdfrwt>
<pdfrwt beam="1">  1       -2 0.25060513E+00 0.28053303E+04</pdfrwt>
<totfact> 0.10383593E+00</totfact>
</mgrwt>
</event>
<event>
 4    1  0.2043502E-008  0.2056009E+04  0.7816531E-02  0.8580873E-01
          2   -1    0    0  501    0  0.00000000000E+00  0.00000000000E+00  0.23185807908E+04  0.23185807908E+04  0.00000000000E+00 0.  1.
         -2   -1    0    0    0  501 -0.00000000000E+00 -0.00000000000E+00 -0.45579309242E+03  0.45579309242E+03  0.00000000000E+00 0. -1.
    2000013    1    1    2    0    0 -0.18230889856E+03  0.30158389730E+03  0.69726758277E+03  0.12299883998E+04  0.95000000000E+03 0.  0.
   -2000013    1    1    2    0    0  0.18230889856E+03 -0.30158389730E+03  0.11655201156E+04  0.15443854835E+04  0.95000000000E+03 0.  0.
<mgrwt>
<rscale>  0 0.20560089E+04</rscale>
<asrwt>0</asrwt>
<pdfrwt beam="1">  1        2 0.35670473E+00 0.20560089E+04</pdfrwt>
<pdfrwt beam="2">  1       -2 0.70122016E-01 0.20560089E+04</pdfrwt>
<totfact> 0.75789231E+00</totfact>
</mgrwt>
</event>
<event>
 4    1  0.2043502E-008  0.2702667E+04  0.7816531E-02  0.8334140E-01
         -2   -1    0    0    0  501 -0.00000000000E+00  0.00000000000E+00  0.14064225527E+04  0.14064225527E+04  0.00000000000E+00 0. -1.
          2   -1    0    0  501    0  0.00000000000E+00 -0.00000000000E+00 -0.12984023893E+04  0.12984023893E+04  0.00000000000E+00 0.  1.
    2000013    1    1    2    0    0 -0.84948553132E+03 -0.42714864202E+03 -0.85818226535E+02  0.13468282735E+04  0.95000000000E+03 0.  0.
   -2000013    1    1    2    0    0  0.84948553132E+03  0.42714864202E+03  0.19383838998E+03  0.13579966685E+04  0.95000000000E+03 0.  0.
<mgrwt>
<rscale>  0 0.27026671E+04</rscale>
<asrwt>0</asrwt>
<pdfrwt beam="2">  1        2 0.19975421E+00 0.27026671E+04</pdfrwt>
<pdfrwt beam="1">  1       -2 0.21637270E+00 0.27026671E+04</pdfrwt>
<totfact> 0.15145462E+00</totfact>
</mgrwt>
</event>
<event>
 4    1  0.2043502E-008  0.2480769E+04  0.7816531E-02  0.8409869E-01
         -2   -1    0    0    0  501 -0.00000000000E+00  0.00000000000E+00  0.10386355917E+04  0.10386355917E+04  0.00000000000E+00 0.  1.
          2   -1    0    0  501    0  0.00000000000E+00 -0.00000000000E+00 -0.14813216043E+04  0.14813216043E+04  0.00000000000E+00 0. -1.
    2000013    1    1    2    0    0  0.69766774444E+03  0.11259275938E+03 -0.59682520106E+03  0.13259403198E+04  0.95000000000E+03 0.  0.
   -2000013    1    1    2    0    0 -0.69766774444E+03 -0.11259275938E+03  0.15413918853E+03  0.11940168762E+04  0.95000000000E+03 0.  0.
<mgrwt>
<rscale>  0 0.24807687E+04</rscale>
<asrwt>0</asrwt>
<pdfrwt beam="2">  1        2 0.22789563E+00 0.24807687E+04</pdfrwt>
<pdfrwt beam="1">  1       -2 0.15979009E+00 0.24807687E+04</pdfrwt>
<totfact> 0.29375916E+00</totfact>
</mgrwt>
</event>
<event>
 4    1  0.2043502E-008  0.2200981E+04  0.7816531E-02  0.8518020E-01
          2   -1    0    0  501    0  0.00000000000E+00  0.00000000000E+00  0.14512755070E+04  0.14512755070E+04  0.00000000000E+00 0.  1.
         -2   -1    0    0    0  501 -0.00000000000E+00 -0.00000000000E+00 -0.83449295371E+03  0.83449295371E+03  0.00000000000E+00 0. -1.
    2000013    1    1    2    0    0 -0.23528764050E+03 -0.34022185371E+03  0.69344096748E+03  0.12467844878E+04  0.95000000000E+03 0.  0.
   -2000013    1    1    2    0    0  0.23528764050E+03  0.34022185371E+03 -0.76658414235E+02  0.10389839729E+04  0.95000000000E+03 0.  0.
<mgrwt>
<rscale>  0 0.22009809E+04</rscale>
<asrwt>0</asrwt>
<pdfrwt beam="1">  1        2 0.22327315E+00 0.22009809E+04</pdfrwt>
<pdfrwt beam="2">  1       -2 0.12838353E+00 0.22009809E+04</pdfrwt>
<totfact> 0.55433350E+00</totfact>
</mgrwt>
</event>
<event>
 4    1  0.2043502E-008  0.2223934E+04  0.7816531E-02  0.8508532E-01
          2   -1    0    0  501    0  0.00000000000E+00  0.00000000000E+00  0.35712259427E+04  0.35712259427E+04  0.00000000000E+00 0.  1.
         -2   -1    0    0    0  501 -0.00000000000E+00 -0.00000000000E+00 -0.34623129064E+03  0.34623129064E+03  0.00000000000E+00 0. -1.
    2000013    1    1    2    0    0 -0.51190400540E+03 -0.83602729819E+02  0.11636258550E+04  0.15892011382E+04  0.95000000000E+03 0.  0.
   -2000013    1    1    2    0    0  0.51190400540E+03  0.83602729819E+02  0.20613687970E+04  0.23282560951E+04  0.95000000000E+03 0.  0.
<mgrwt>
<rscale>  0 0.22239336E+04</rscale>
<asrwt>0</asrwt>
<pdfrwt beam="1">  1        2 0.54941935E+00 0.22239336E+04</pdfrwt>
<pdfrwt beam="2">  1       -2 0.53266355E-01 0.22239336E+04</pdfrwt>
<totfact> 0.22024957E+00</totfact>
</mgrwt>
</event>
<event>
 4    1  0.2043502E-008  0.2245729E+04  0.7816531E-02  0.8499632E-01
         -2   -1    0    0    0  501 -0.00000000000E+00  0.00000000000E+00  0.40890418235E+03  0.40890418235E+03  0.00000000000E+00 0. -1.
          2   -1    0    0  501    0  0.00000000000E+00 -0.00000000000E+00 -0.30834224870E+04  0.30834224870E+04  0.00000000000E+00 0.  1.
    2000013    1    1    2    0    0 -0.53261085790E+03  0.27120923274E+03 -0.13887320982E+04  0.17855827101E+04  0.95000000000E+03 0.  0.
   -2000013    1    1    2    0    0  0.53261085790E+03 -0.27120923274E+03 -0.12857862064E+04  0.17067439593E+04  0.95000000000E+03 0.  0.
<mgrwt>
<rscale>  0 0.22457287E+04</rscale>
<asrwt>0</asrwt>
<pdfrwt beam="2">  1        2 0.47437269E+00 0.22457287E+04</pdfrwt>
<pdfrwt beam="1">  1       -2 0.62908336E-01 0.22457287E+04</pdfrwt>
<totfact> 0.32925982E+00</totfact>
</mgrwt>
</event>
<event>
 4    1  0.2043502E-008  0.2648482E+04  0.7816531E-02  0.8351917E-01
          2   -1    0    0  501    0  0.00000000000E+00  0.00000000000E+00  0.15387349730E+04  0.15387349730E+04  0.00000000000E+00 0.  1.
         -2   -1    0    0    0  501 -0.00000000000E+00 -0.00000000000E+00 -0.11396468555E+04  0.11396468555E+04  0.00000000000E+00 0. -1.
    2000013    1    1    2    0    0  0.15461954041E+03 -0.56634940278E+03  0.91923516057E+03  0.14464273673E+04  0.95000000000E+03 0.  0.
   -2000013    1    1    2    0    0 -0.15461954041E+03  0.56634940278E+03 -0.52014704300E+03  0.12319544613E+04  0.95000000000E+03 0.  0.
<mgrwt>
<rscale>  0 0.26484822E+04</rscale>
<asrwt>0</asrwt>
<pdfrwt beam="1">  1        2 0.23672846E+00 0.26484822E+04</pdfrwt>
<pdfrwt beam="2">  1       -2 0.17533029E+00 0.26484822E+04</pdfrwt>
<totfact> 0.20787159E+00</totfact>
</mgrwt>
</event>
<event>
 4    1  0.2043502E-008  0.3637380E+04  0.7816531E-02  0.8081983E-01
         -2   -1    0    0    0  501 -0.00000000000E+00  0.00000000000E+00  0.22104472708E+04  0.22104472708E+04  0.00000000000E+00 0. -1.
          2   -1    0    0  501    0  0.00000000000E+00 -0.00000000000E+00 -0.14963639136E+04  0.14963639136E+04  0.00000000000E+00 0.  1.
    2000013    1    1    2    0    0 -0.12909096593E+04 -0.57272359534E+03  0.10101122241E+04  0.19792136748E+04  0.95000000000E+03 0.  0.
   -2000013    1    1    2    0    0  0.12909096593E+04  0.57272359534E+03 -0.29602886694E+03  0.17275975096E+04  0.95000000000E+03 0.  0.
<mgrwt>
<rscale>  0 0.36373801E+04</rscale>
<asrwt>0</asrwt>
<pdfrwt beam="2">  1        2 0.23020983E+00 0.36373801E+04</pdfrwt>
<pdfrwt beam="1">  1       -2 0.34006881E+00 0.36373801E+04</pdfrwt>
<totfact> 0.18609543E-01</totfact>
</mgrwt>
</event>
<event>
 4    1  0.2043502E-008  0.2823978E+04  0.7816531E-02  0.8295863E-01
          2   -1    0    0  501    0  0.00000000000E+00  0.00000000000E+00  0.22965255216E+04  0.22965255216E+04  0.00000000000E+00 0.  1.
         -2   -1    0    0    0  501 -0.00000000000E+00 -0.00000000000E+00 -0.86814304791E+03  0.86814304791E+03  0.00000000000E+00 0. -1.
    2000013    1    1    2    0    0  0.93377030036E+03 -0.21970115064E+03  0.25075848988E+03  0.13731625503E+04  0.95000000000E+03 0.  0.
   -2000013    1    1    2    0    0 -0.93377030036E+03  0.21970115064E+03  0.11776239838E+04  0.17915060191E+04  0.95000000000E+03 0.  0.
<mgrwt>
<rscale>  0 0.28239778E+04</rscale>
<asrwt>0</asrwt>
<pdfrwt beam="1">  1        2 0.35331162E+00 0.28239778E+04</pdfrwt>
<pdfrwt beam="2">  1       -2 0.13356047E+00 0.28239778E+04</pdfrwt>
<totfact> 0.16035072E+00</totfact>
</mgrwt>
</event>
<event>
 4    1  0.2043502E-008  0.3219124E+04  0.7816531E-02  0.8183785E-01
         -2   -1    0    0    0  501 -0.00000000000E+00  0.00000000000E+00  0.73838870688E+03  0.73838870688E+03  0.00000000000E+00 0. -1.
          2   -1    0    0  501    0  0.00000000000E+00 -0.00000000000E+00 -0.35085711866E+04  0.35085711866E+04  0.00000000000E+00 0.  1.
    2000013    1    1    2    0    0  0.87291525709E+03  0.70236693034E+03 -0.22531093080E+04  0.26896657608E+04  0.95000000000E+03 0.  0.
   -2000013    1    1    2    0    0 -0.87291525709E+03 -0.70236693034E+03 -0.51707317172E+03  0.15572941327E+04  0.95000000000E+03 0.  0.
<mgrwt>
<rscale>  0 0.32191237E+04</rscale>
<asrwt>0</asrwt>
<pdfrwt beam="2">  1        2 0.53978019E+00 0.32191237E+04</pdfrwt>
<pdfrwt beam="1">  1       -2 0.11359826E+00 0.32191237E+04</pdfrwt>
<totfact> 0.40902053E-01</totfact>
</mgrwt>
</event>
<event>
 4    1  0.2043502E-008  0.2118489E+04  0.7816531E-02  0.8553142E-01
         -2   -1    0    0    0  501 -0.00000000000E+00  0.00000000000E+00  0.20508414038E+04  0.20508414038E+04  0.00000000000E+00 0. -1.
          2   -1    0    0  501    0  0.00000000000E+00 -0.00000000000E+00 -0.54709194681E+03  0.54709194681E+03  0.00000000000E+00 0.  1.
    2000013    1    1    2    0    0  0.22946656111E+03  0.29523510848E+03  0.10980347156E+04  0.14993328211E+04  0.95000000000E+03 0.  0.
   -2000013    1    1    2    0    0 -0.22946656111E+03 -0.29523510848E+03  0.40571474143E+03  0.10986005295E+04  0.95000000000E+03 0.  0.
<mgrwt>
<rscale>  0 0.21184889E+04</rscale>
<asrwt>0</asrwt>
<pdfrwt beam="2">  1        2 0.84167993E-01 0.21184889E+04</pdfrwt>
<pdfrwt beam="1">  1       -2 0.31551406E+00 0.21184889E+04</pdfrwt>
<totfact> 0.13023319E+00</totfact>
</mgrwt>
</event>
<event>
 4    1  0.2043502E-008  0.3378398E+04  0.7816531E-02  0.8143229E-01
          2   -1    0    0  501    0  0.00000000000E+00  0.00000000000E+00  0.37295610893E+04  0.37295610893E+04  0.00000000000E+00 0.  1.
         -2   -1    0    0    0  501 -0.00000000000E+00 -0.00000000000E+00 -0.76507470340E+03  0.76507470340E+03  0.00000000000E+00 0. -1.
    2000013    1    1    2    0    0  0.28413943982E+03  0.12332270888E+04  0.22685433224E+04  0.27659307799E+04  0.95000000000E+03 0.  0.
   -2000013    1    1    2    0    0 -0.28413943982E+03 -0.12332270888E+04  0.69594306357E+03  0.17287050128E+04  0.95000000000E+03 0.  0.
<mgrwt>
<rscale>  0 0.33783978E+04</rscale>
<asrwt>0</asrwt>
<pdfrwt beam="1">  1        2 0.57377862E+00 0.33783978E+04</pdfrwt>
<pdfrwt beam="2">  1       -2 0.11770380E+00 0.33783978E+04</pdfrwt>
<totfact> 0.25605192E-01</totfact>
</mgrwt>
</event>
<event>
 4    1  0.2043502E-008  0.2903304E+04  0.7816531E-02  0.8271895E-01
         -2   -1    0    0    0  501 -0.00000000000E+00  0.00000000000E+00  0.67622935713E+03  0.67622935713E+03  0.00000000000E+00 0. -1.
          2   -1    0    0  501    0  0.00000000000E+00 -0.00000000000E+00 -0.31162408315E+04  0.31162408315E+04  0.00000000000E+00 0.  1.
    2000013    1    1    2    0    0 -0.96520034023E+03 -0.12192254674E+03 -0.18839107225E+04  0.23233803852E+04  0.95000000000E+03 0.  0.
   -2000013    1    1    2    0    0  0.96520034023E+03  0.12192254674E+03 -0.55610075188E+03  0.14690898034E+04  0.95000000000E+03 0.  0.
<mgrwt>
<rscale>  0 0.29033040E+04</rscale>
<asrwt>0</asrwt>
<pdfrwt beam="2">  1        2 0.47942168E+00 0.29033040E+04</pdfrwt>
<pdfrwt beam="1">  1       -2 0.10403528E+00 0.29033040E+04</pdfrwt>
<totfact> 0.95220229E-01</totfact>
</mgrwt>
</event>
<event>
 4    1  0.2043502E-008  0.3310346E+04  0.7816531E-02  0.8160268E-01
         -2   -1    0    0    0  501 -0.00000000000E+00  0.00000000000E+00  0.15856857273E+04  0.15856857273E+04  0.00000000000E+00 0. -1.
          2   -1    0    0  501    0  0.00000000000E+00 -0.00000000000E+00 -0.17277049828E+04  0.17277049828E+04  0.00000000000E+00 0.  1.
    2000013    1    1    2    0    0 -0.13016132487E+04 -0.22618863196E+03 -0.37417234931E+03  0.16696895799E+04  0.95000000000E+03 0.  0.
   -2000013    1    1    2    0    0  0.13016132487E+04  0.22618863196E+03  0.23215309379E+03  0.16437011302E+04  0.95000000000E+03 0.  0.
<mgrwt>
<rscale>  0 0.33103457E+04</rscale>
<asrwt>0</asrwt>
<pdfrwt beam="2">  1        2 0.26580077E+00 0.33103457E+04</pdfrwt>
<pdfrwt beam="1">  1       -2 0.24395165E+00 0.33103457E+04</pdfrwt>
<totfact> 0.55310054E-01</totfact>
</mgrwt>
</event>
<event>
 4    1  0.2043502E-008  0.2149224E+04  0.7816531E-02  0.8539864E-01
          2   -1    0    0  501    0  0.00000000000E+00  0.00000000000E+00  0.74135653546E+03  0.74135653546E+03  0.00000000000E+00 0.  1.
         -2   -1    0    0    0  501 -0.00000000000E+00 -0.00000000000E+00 -0.15576734440E+04  0.15576734440E+04  0.00000000000E+00 0. -1.
    2000013    1    1    2    0    0 -0.40165240741E+03 -0.33771834919E+02 -0.87557824257E+02  0.10356792775E+04  0.95000000000E+03 0.  0.
   -2000013    1    1    2    0    0  0.40165240741E+03  0.33771834919E+02 -0.72875908426E+03  0.12633507019E+04  0.95000000000E+03 0.  0.
<mgrwt>
<rscale>  0 0.21492244E+04</rscale>
<asrwt>0</asrwt>
<pdfrwt beam="1">  1        2 0.11405485E+00 0.21492244E+04</pdfrwt>
<pdfrwt beam="2">  1       -2 0.23964207E+00 0.21492244E+04</pdfrwt>
<totfact> 0.26007115E+00</totfact>
</mgrwt>
</event>
<event>
 4    1  0.2043502E-008  0.2026697E+04  0.7816531E-02  0.8594240E-01
          2   -1    0    0  501    0  0.00000000000E+00  0.00000000000E+00  0.13787744519E+04  0.13787744519E+04  0.00000000000E+00 0.  1.
         -2   -1    0    0    0  501 -0.00000000000E+00 -0.00000000000E+00 -0.74477411474E+03  0.74477411474E+03  0.00000000000E+00 0. -1.
    2000013    1    1    2    0    0 -0.13621972980E+02 -0.33909996490E+03  0.41750686699E+03  0.10917812640E+04  0.95000000000E+03 0.  0.
   -2000013    1    1    2    0    0  0.13621972980E+02  0.33909996490E+03  0.21649347022E+03  0.10317673027E+04  0.95000000000E+03 0.  0.
<mgrwt>
<rscale>  0 0.20266973E+04</rscale>
<asrwt>0</asrwt>
<pdfrwt beam="1">  1        2 0.21211915E+00 0.20266973E+04</pdfrwt>
<pdfrwt beam="2">  1       -2 0.11458063E+00 0.20266973E+04</pdfrwt>
<totfact> 0.82096350E+00</totfact>
</mgrwt>
</event>
<event>
 4    1  0.2043502E-008  0.3355045E+04  0.7816531E-02  0.8149029E-01
          2   -1    0    0  501    0  0.00000000000E+00  0.00000000000E+00  0.22820219494E+04  0.22820219494E+04  0.00000000000E+00 0.  1.
         -2   -1    0    0    0  501 -0.00000000000E+00 -0.00000000000E+00 -0.12331529835E+04  0.12331529835E+04  0.00000000000E+00 0. -1.
    2000013    1    1    2    0    0 -0.82588509997E+03  0.58137031808E+03 -0.46482526051E+03  0.14624090289E+04  0.95000000000E+03 0.  0.
   -2000013    1    1    2    0    0  0.82588509997E+03 -0.58137031808E+03  0.15136942264E+04  0.20527659039E+04  0.95000000000E+03 0.  0.
<mgrwt>
<rscale>  0 0.33550453E+04</rscale>
<asrwt>0</asrwt>
<pdfrwt beam="1">  1        2 0.35108030E+00 0.33550453E+04</pdfrwt>
<pdfrwt beam="2">  1       -2 0.18971584E+00 0.33550453E+04</pdfrwt>
<totfact> 0.60079632E-01</totfact>
</mgrwt>
</event>
<event>
 4    1  0.2043502E-008  0.2421071E+04  0.7816531E-02  0.8431657E-01
         -2   -1    0    0    0  501 -0.00000000000E+00  0.00000000000E+00  0.31536218930E+04  0.31536218930E+04  0.00000000000E+00 0. -1.
          2   -1    0    0  501    0  0.00000000000E+00 -0.00000000000E+00 -0.46467077528E+03  0.46467077528E+03  0.00000000000E+00 0.  1.
    2000013    1    1    2    0    0  0.66186119424E+03  0.15790177822E+03  0.18168483323E+04  0.21601923698E+04  0.95000000000E+03 0.  0.
   -2000013    1    1    2    0    0 -0.66186119424E+03 -0.15790177822E+03  0.87210278541E+03  0.14581002984E+04  0.95000000000E+03 0.  0.
<mgrwt>
<rscale>  0 0.24210708E+04</rscale>
<asrwt>0</asrwt>
<pdfrwt beam="2">  1        2 0.71487813E-01 0.24210708E+04</pdfrwt>
<pdfrwt beam="1">  1       -2 0.48517259E+00 0.24210708E+04</pdfrwt>
<totfact> 0.12276000E-01</totfact>
</mgrwt>
</event>
<event>
 4    1  0.2043502E-008  0.3003703E+04  0.7816531E-02  0.8242674E-01
          2   -1    0    0  501    0  0.00000000000E+00  0.00000000000E+00  0.28076797499E+04  0.28076797499E+04  0.00000000000E+00 0.  1.
         -2   -1    0    0    0  501 -0.00000000000E+00 -0.00000000000E+00 -0.80335299874E+03  0.80335299874E+03  0.00000000000E+00 0. -1.
    2000013    1    1    2    0    0 -0.19018830715E+03  0.93998635498E+03  0.17935246583E+04  0.22447665000E+04  0.95000000000E+03 0.  0.
   -2000013    1    1    2    0    0  0.19018830715E+03 -0.93998635498E+03  0.21080209284E+03  0.13662662486E+04  0.95000000000E+03 0.  0.
<mgrwt>
<rscale>  0 0.30037030E+04</rscale>
<asrwt>0</asrwt>
<pdfrwt beam="1">  1        2 0.43195073E+00 0.30037030E+04</pdfrwt>
<pdfrwt beam="2">  1       -2 0.12359277E+00 0.30037030E+04</pdfrwt>
<totfact> 0.96531948E-01</totfact>
</mgrwt>
</event>
<event>
 4    1  0.2043502E-008  0.2991440E+04  0.7816531E-02  0.8246179E-01
          2   -1    0    0  501    0  0.00000000000E+00  0.00000000000E+00  0.24469051342E+04  0.24469051342E+04  0.00000000000E+00 0.  1.
         -2   -1    0    0    0  501 -0.00000000000E+00 -0.00000000000E+00 -0.91428924587E+03  0.91428924587E+03  0.00000000000E+00 0. -1.
    2000013    1    1    2    0    0 -0.89931919588E+03 -0.37578770447E+03  0.14632029860E+04  0.19983629283E+04  0.95000000000E+03 0.  0.
   -2000013    1    1    2    0    0  0.89931919588E+03  0.37578770447E+03  0.69412902319E+02  0.13628314518E+04  0.95000000000E+03 0.  0.
<mgrwt>
<rscale>  0 0.29914405E+04</rscale>
<asrwt>0</asrwt>
<pdfrwt beam="1">  1        2 0.37644694E+00 0.29914405E+04</pdfrwt>
<pdfrwt beam="2">  1       -2 0.14065989E+00 0.29914405E+04</pdfrwt>
<totfact> 0.11352890E+00</totfact>
</mgrwt>
</event>
<event>
 4    1  0.2043502E-008  0.2584633E+04  0.7816531E-02  0.8373440E-01
         -2   -1    0    0    0  501 -0.00000000000E+00  0.00000000000E+00  0.10585378800E+04  0.10585378800E+04  0.00000000000E+00 0. -1.
          2   -1    0    0  501    0  0.00000000000E+00 -0.00000000000E+00 -0.15777253740E+04  0.15777253740E+04  0.00000000000E+00 0.  1.
    2000013    1    1    2    0    0 -0.29934592612E+03  0.57002425479E+03 -0.86564002806E+03  0.14374867974E+04  0.95000000000E+03 0.  0.
   -2000013    1    1    2    0    0  0.29934592612E+03 -0.57002425479E+03  0.34645253408E+03  0.11987764566E+04  0.95000000000E+03 0.  0.
<mgrwt>
<rscale>  0 0.25846331E+04</rscale>
<asrwt>0</asrwt>
<pdfrwt beam="2">  1        2 0.24272698E+00 0.25846331E+04</pdfrwt>
<pdfrwt beam="1">  1       -2 0.16285198E+00 0.25846331E+04</pdfrwt>
<totfact> 0.24401490E+00</totfact>
</mgrwt>
</event>
<event>
 4    1  0.2043502E-008  0.2186806E+04  0.7816531E-02  0.8523940E-01
         -2   -1    0    0    0  501 -0.00000000000E+00  0.00000000000E+00  0.14713443086E+04  0.14713443086E+04  0.00000000000E+00 0. -1.
          2   -1    0    0  501    0  0.00000000000E+00 -0.00000000000E+00 -0.81254270428E+03  0.81254270428E+03  0.00000000000E+00 0.  1.
    2000013    1    1    2    0    0  0.49035098567E+03  0.22931323833E+03  0.33065101804E+03  0.11423041391E+04  0.95000000000E+03 0.  0.
   -2000013    1    1    2    0    0 -0.49035098567E+03 -0.22931323833E+03  0.32815058623E+03  0.11415828738E+04  0.95000000000E+03 0.  0.
<mgrwt>
<rscale>  0 0.21868060E+04</rscale>
<asrwt>0</asrwt>
<pdfrwt beam="2">  1        2 0.12500657E+00 0.21868060E+04</pdfrwt>
<pdfrwt beam="1">  1       -2 0.22636066E+00 0.21868060E+04</pdfrwt>
<totfact> 0.27807676E+00</totfact>
</mgrwt>
</event>
<event>
 4    1  0.2043502E-008  0.2058834E+04  0.7816531E-02  0.8579597E-01
         -2   -1    0    0    0  501 -0.00000000000E+00  0.00000000000E+00  0.13297304647E+04  0.13297304647E+04  0.00000000000E+00 0. -1.
          2   -1    0    0  501    0  0.00000000000E+00 -0.00000000000E+00 -0.79692762537E+03  0.79692762537E+03  0.00000000000E+00 0.  1.
    2000013    1    1    2    0    0  0.35753048673E+03  0.16867546630E+03  0.23507956148E+03  0.10554818151E+04  0.95000000000E+03 0.  0.
   -2000013    1    1    2    0    0 -0.35753048673E+03 -0.16867546630E+03  0.29772327789E+03  0.10711762750E+04  0.95000000000E+03 0.  0.
<mgrwt>
<rscale>  0 0.20588336E+04</rscale>
<asrwt>0</asrwt>
<pdfrwt beam="2">  1        2 0.12260425E+00 0.20588336E+04</pdfrwt>
<pdfrwt beam="1">  1       -2 0.20457392E+00 0.20588336E+04</pdfrwt>
<totfact> 0.39725530E+00</totfact>
</mgrwt>
</event>
<event>
 4    1  0.2043502E-008  0.2899684E+04  0.7816531E-02  0.8272971E-01
         -2   -1    0    0    0  501 -0.00000000000E+00  0.00000000000E+00  0.10966187800E+04  0.10966187800E+04  0.00000000000E+00 0. -1.
          2   -1    0    0  501    0  0.00000000000E+00 -0.00000000000E+00 -0.19168395419E+04  0.19168395419E+04  0.00000000000E+00 0.  1.
    2000013    1    1    2    0    0 -0.63807568032E+03  0.66590827950E+03 -0.10240238620E+04  0.16738277332E+04  0.95000000000E+03 0.  0.
   -2000013    1    1    2    0    0  0.63807568032E+03 -0.66590827950E+03  0.20380310012E+03  0.13396305887E+04  0.95000000000E+03 0.  0.
<mgrwt>
<rscale>  0 0.28996843E+04</rscale>
<asrwt>0</asrwt>
<pdfrwt beam="2">  1        2 0.29489839E+00 0.28996843E+04</pdfrwt>
<pdfrwt beam="1">  1       -2 0.16871058E+00 0.28996843E+04</pdfrwt>
<totfact> 0.13965109E+00</totfact>
</mgrwt>
</event>
<event>
 4    1  0.2043502E-008  0.2438987E+04  0.7816531E-02  0.8425050E-01
         -2   -1    0    0    0  501 -0.00000000000E+00  0.00000000000E+00  0.64062193071E+03  0.64062193071E+03  0.00000000000E+00 0. -1.
          2   -1    0    0  501    0  0.00000000000E+00 -0.00000000000E+00 -0.23214383495E+04  0.23214383495E+04  0.00000000000E+00 0.  1.
    2000013    1    1    2    0    0  0.68191153460E+03  0.27979246270E+03 -0.59336966034E+03  0.13408485064E+04  0.95000000000E+03 0.  0.
   -2000013    1    1    2    0    0 -0.68191153460E+03 -0.27979246270E+03 -0.10874467584E+04  0.16212117738E+04  0.95000000000E+03 0.  0.
<mgrwt>
<rscale>  0 0.24389869E+04</rscale>
<asrwt>0</asrwt>
<pdfrwt beam="2">  1        2 0.35714435E+00 0.24389869E+04</pdfrwt>
<pdfrwt beam="1">  1       -2 0.98557222E-01 0.24389869E+04</pdfrwt>
<totfact> 0.33774358E+00</totfact>
</mgrwt>
</event>
<event>
 4    1  0.2043502E-008  0.2919657E+04  0.7816531E-02  0.8267053E-01
          2   -1    0    0  501    0  0.00000000000E+00  0.00000000000E+00  0.20648968764E+04  0.20648968764E+04  0.00000000000E+00 0.  1.
         -2   -1    0    0    0  501 -0.00000000000E+00 -0.00000000000E+00 -0.10320607125E+04  0.10320607125E+04  0.00000000000E+00 0. -1.
    2000013    1    1    2    0    0  0.78633546209E+02  0.81155449339E+03  0.13128782662E+04  0.18140984737E+04  0.95000000000E+03 0.  0.
   -2000013    1    1    2    0    0 -0.78633546209E+02 -0.81155449339E+03 -0.28004210228E+03  0.12828591152E+04  0.95000000000E+03 0.  0.
<mgrwt>
<rscale>  0 0.29196568E+04</rscale>
<asrwt>0</asrwt>
<pdfrwt beam="1">  1        2 0.31767644E+00 0.29196568E+04</pdfrwt>
<pdfrwt beam="2">  1       -2 0.15877857E+00 0.29196568E+04</pdfrwt>
<totfact> 0.13624559E+00</totfact>
</mgrwt>
</event>
<event>
 4    1  0.2043502E-008  0.2170474E+04  0.7816531E-02  0.8530819E-01
         -2   -1    0    0    0  501 -0.00000000000E+00  0.00000000000E+00  0.58692418351E+03  0.58692418351E+03  0.00000000000E+00 0. -1.
          2   -1    0    0  501    0  0.00000000000E+00 -0.00000000000E+00 -0.20066292342E+04  0.20066292342E+04  0.00000000000E+00 0.  1.
    2000013    1    1    2    0    0  0.42031247158E+03 -0.20404527935E+03 -0.99499220554E+03  0.14528615002E+04  0.95000000000E+03 0.  0.
   -2000013    1    1    2    0    0 -0.42031247158E+03  0.20404527935E+03 -0.42471284517E+03  0.11406919175E+04  0.95000000000E+03 0.  0.
<mgrwt>
<rscale>  0 0.21704739E+04</rscale>
<asrwt>0</asrwt>
<pdfrwt beam="2">  1        2 0.30871219E+00 0.21704739E+04</pdfrwt>
<pdfrwt beam="1">  1       -2 0.90296029E-01 0.21704739E+04</pdfrwt>
<totfact> 0.63656803E+00</totfact>
</mgrwt>
</event>
<event>
 4    1  0.2043502E-008  0.2118256E+04  0.7816531E-02  0.8553244E-01
         -2   -1    0    0    0  501 -0.00000000000E+00  0.00000000000E+00  0.73555820679E+03  0.73555820679E+03  0.00000000000E+00 0. -1.
          2   -1    0    0  501    0  0.00000000000E+00 -0.00000000000E+00 -0.15250353352E+04  0.15250353352E+04  0.00000000000E+00 0.  1.
    2000013    1    1    2    0    0 -0.25046949577E+03 -0.34546920231E+03 -0.60048412208E+03  0.12021502065E+04  0.95000000000E+03 0.  0.
   -2000013    1    1    2    0    0  0.25046949577E+03  0.34546920231E+03 -0.18899300633E+03  0.10584433355E+04  0.95000000000E+03 0.  0.
<mgrwt>
<rscale>  0 0.21182561E+04</rscale>
<asrwt>0</asrwt>
<pdfrwt beam="2">  1        2 0.23462082E+00 0.21182561E+04</pdfrwt>
<pdfrwt beam="1">  1       -2 0.11316280E+00 0.21182561E+04</pdfrwt>
<totfact> 0.69351463E+00</totfact>
</mgrwt>
</event>
<event>
 4    1  0.2043502E-008  0.2387848E+04  0.7816531E-02  0.8444067E-01
         -2   -1    0    0    0  501 -0.00000000000E+00  0.00000000000E+00  0.72064387556E+03  0.72064387556E+03  0.00000000000E+00 0. -1.
          2   -1    0    0  501    0  0.00000000000E+00 -0.00000000000E+00 -0.19780290934E+04  0.19780290934E+04  0.00000000000E+00 0.  1.
    2000013    1    1    2    0    0  0.50954037942E+03  0.46800067512E+03 -0.39082341960E+03  0.12385067523E+04  0.95000000000E+03 0.  0.
   -2000013    1    1    2    0    0 -0.50954037942E+03 -0.46800067512E+03 -0.86656179827E+03  0.14601662167E+04  0.95000000000E+03 0.  0.
<mgrwt>
<rscale>  0 0.23878480E+04</rscale>
<asrwt>0</asrwt>
<pdfrwt beam="2">  1        2 0.30431217E+00 0.23878480E+04</pdfrwt>
<pdfrwt beam="1">  1       -2 0.11086829E+00 0.23878480E+04</pdfrwt>
<totfact> 0.39872081E+00</totfact>
</mgrwt>
</event>
<event>
 4    1  0.2043502E-008  0.2248297E+04  0.7816531E-02  0.8498591E-01
         -2   -1    0    0    0  501 -0.00000000000E+00  0.00000000000E+00  0.13221760471E+04  0.13221760471E+04  0.00000000000E+00 0. -1.
          2   -1    0    0  501    0  0.00000000000E+00 -0.00000000000E+00 -0.95578016261E+03  0.95578016261E+03  0.00000000000E+00 0.  1.
    2000013    1    1    2    0    0  0.13698611820E+03  0.57116321925E+03  0.31222393858E+03  0.11597311790E+04  0.95000000000E+03 0.  0.
   -2000013    1    1    2    0    0 -0.13698611820E+03 -0.57116321925E+03  0.54171945867E+02  0.11182250307E+04  0.95000000000E+03 0.  0.
<mgrwt>
<rscale>  0 0.22482968E+04</rscale>
<asrwt>0</asrwt>
<pdfrwt beam="2">  1        2 0.14704310E+00 0.22482968E+04</pdfrwt>
<pdfrwt beam="1">  1       -2 0.20341170E+00 0.22482968E+04</pdfrwt>
<totfact> 0.30946309E+00</totfact>
</mgrwt>
</event>
<event>
 4    1  0.2043502E-008  0.2622420E+04  0.7816531E-02  0.8360625E-01
          2   -1    0    0  501    0  0.00000000000E+00  0.00000000000E+00  0.82004281904E+03  0.82004281904E+03  0.00000000000E+00 0.  1.
         -2   -1    0    0    0  501 -0.00000000000E+00 -0.00000000000E+00 -0.20965625081E+04  0.20965625081E+04  0.00000000000E+00 0. -1.
    2000013    1    1    2    0    0  0.90246524537E+03  0.45341307063E+02 -0.65659148410E+03  0.14663259291E+04  0.95000000000E+03 0.  0.
   -2000013    1    1    2    0    0 -0.90246524537E+03 -0.45341307063E+02 -0.61992820499E+03  0.14502793981E+04  0.95000000000E+03 0.  0.
<mgrwt>
<rscale>  0 0.26224195E+04</rscale>
<asrwt>0</asrwt>
<pdfrwt beam="1">  1        2 0.12616043E+00 0.26224195E+04</pdfrwt>
<pdfrwt beam="2">  1       -2 0.32254808E+00 0.26224195E+04</pdfrwt>
<totfact> 0.67947854E-01</totfact>
</mgrwt>
</event>
<event>
 4    1  0.2043502E-008  0.2989523E+04  0.7816531E-02  0.8246729E-01
         -2   -1    0    0    0  501 -0.00000000000E+00  0.00000000000E+00  0.12911073652E+04  0.12911073652E+04  0.00000000000E+00 0. -1.
          2   -1    0    0  501    0  0.00000000000E+00 -0.00000000000E+00 -0.17305388872E+04  0.17305388872E+04  0.00000000000E+00 0.  1.
    2000013    1    1    2    0    0 -0.11054416842E+04  0.89018995636E+02  0.10290967340E+03  0.14639044025E+04  0.95000000000E+03 0.  0.
   -2000013    1    1    2    0    0  0.11054416842E+04 -0.89018995636E+02 -0.54234119536E+03  0.15577418499E+04  0.95000000000E+03 0.  0.
<mgrwt>
<rscale>  0 0.29895227E+04</rscale>
<asrwt>0</asrwt>
<pdfrwt beam="2">  1        2 0.26623675E+00 0.29895227E+04</pdfrwt>
<pdfrwt beam="1">  1       -2 0.19863190E+00 0.29895227E+04</pdfrwt>
<totfact> 0.10972460E+00</totfact>
</mgrwt>
</event>
<event>
 4    1  0.2043502E-008  0.2006054E+04  0.7816531E-02  0.8603795E-01
         -2   -1    0    0    0  501 -0.00000000000E+00  0.00000000000E+00  0.32771489830E+03  0.32771489830E+03  0.00000000000E+00 0. -1.
          2   -1    0    0  501    0  0.00000000000E+00 -0.00000000000E+00 -0.30699345590E+04  0.30699345590E+04  0.00000000000E+00 0.  1.
    2000013    1    1    2    0    0  0.29194182625E+01  0.31117886032E+03 -0.12322422509E+04  0.15867456541E+04  0.95000000000E+03 0.  0.
   -2000013    1    1    2    0    0 -0.29194182625E+01 -0.31117886032E+03 -0.15099774099E+04  0.18109038032E+04  0.95000000000E+03 0.  0.
<mgrwt>
<rscale>  0 0.20060541E+04</rscale>
<asrwt>0</asrwt>
<pdfrwt beam="2">  1        2 0.47229763E+00 0.20060541E+04</pdfrwt>
<pdfrwt beam="1">  1       -2 0.50417676E-01 0.20060541E+04</pdfrwt>
<totfact> 0.54484575E+00</totfact>
</mgrwt>
</event>
<event>
 4    1  0.2043502E-008  0.2612174E+04  0.7816531E-02  0.8364078E-01
         -2   -1    0    0    0  501 -0.00000000000E+00  0.00000000000E+00  0.85980012176E+03  0.85980012176E+03  0.00000000000E+00 0. -1.
          2   -1    0    0  501    0  0.00000000000E+00 -0.00000000000E+00 -0.19840224302E+04  0.19840224302E+04  0.00000000000E+00 0.  1.
    2000013    1    1    2    0    0  0.24241136913E+03 -0.72700875414E+03 -0.56070557432E+02  0.12218628842E+04  0.95000000000E+03 0.  0.
   -2000013    1    1    2    0    0 -0.24241136913E+03  0.72700875414E+03 -0.10681517510E+04  0.16219596677E+04  0.95000000000E+03 0.  0.
<mgrwt>
<rscale>  0 0.26121736E+04</rscale>
<asrwt>0</asrwt>
<pdfrwt beam="2">  1        2 0.30523422E+00 0.26121736E+04</pdfrwt>
<pdfrwt beam="1">  1       -2 0.13227694E+00 0.26121736E+04</pdfrwt>
<totfact> 0.25043602E+00</totfact>
</mgrwt>
</event>
<event>
 4    1  0.2043502E-008  0.3983077E+04  0.7816531E-02  0.8007969E-01
          2   -1    0    0  501    0  0.00000000000E+00  0.00000000000E+00  0.48185891498E+04  0.48185891498E+04  0.00000000000E+00 0.  1.
         -2   -1    0    0    0  501 -0.00000000000E+00 -0.00000000000E+00 -0.82310935964E+03  0.82310935964E+03  0.00000000000E+00 0. -1.
    2000013    1    1    2    0    0  0.44680091618E+03  0.15049789416E+04  0.30940990212E+04  0.35972964051E+04  0.95000000000E+03 0.  0.
   -2000013    1    1    2    0    0 -0.44680091618E+03 -0.15049789416E+04  0.90138076897E+03  0.20444021043E+04  0.95000000000E+03 0.  0.
<mgrwt>
<rscale>  0 0.39830771E+04</rscale>
<asrwt>0</asrwt>
<pdfrwt beam="1">  1        2 0.74132139E+00 0.39830771E+04</pdfrwt>
<pdfrwt beam="2">  1       -2 0.12663221E+00 0.39830771E+04</pdfrwt>
<totfact> 0.20580721E-02</totfact>
</mgrwt>
</event>
<event>
 4    1  0.2043502E-008  0.2843337E+04  0.7816531E-02  0.8289939E-01
         -2   -1    0    0    0  501 -0.00000000000E+00  0.00000000000E+00  0.70018483286E+03  0.70018483286E+03  0.00000000000E+00 0. -1.
          2   -1    0    0  501    0  0.00000000000E+00 -0.00000000000E+00 -0.28865827085E+04  0.28865827085E+04  0.00000000000E+00 0.  1.
    2000013    1    1    2    0    0 -0.67515472097E+03 -0.73960321092E+03 -0.15224576142E+04  0.20550484165E+04  0.95000000000E+03 0.  0.
   -2000013    1    1    2    0    0  0.67515472097E+03  0.73960321092E+03 -0.66394026140E+03  0.15317191249E+04  0.95000000000E+03 0.  0.
<mgrwt>
<rscale>  0 0.28433371E+04</rscale>
<asrwt>0</asrwt>
<pdfrwt beam="2">  1        2 0.44408964E+00 0.28433371E+04</pdfrwt>
<pdfrwt beam="1">  1       -2 0.10772074E+00 0.28433371E+04</pdfrwt>
<totfact> 0.12265732E+00</totfact>
</mgrwt>
</event>
<event>
 4    1  0.2043502E-008  0.4365261E+04  0.7816531E-02  0.7934660E-01
         -2   -1    0    0    0  501 -0.00000000000E+00  0.00000000000E+00  0.10671191118E+04  0.10671191118E+04  0.00000000000E+00 0. -1.
          2   -1    0    0  501    0  0.00000000000E+00 -0.00000000000E+00 -0.44642392250E+04  0.44642392250E+04  0.00000000000E+00 0.  1.
    2000013    1    1    2    0    0 -0.16697535121E+04  0.88171269371E+03 -0.23878153475E+04  0.31889898399E+04  0.95000000000E+03 0.  0.
   -2000013    1    1    2    0    0  0.16697535121E+04 -0.88171269371E+03 -0.10093047656E+04  0.23423684969E+04  0.95000000000E+03 0.  0.
<mgrwt>
<rscale>  0 0.43652606E+04</rscale>
<asrwt>0</asrwt>
<pdfrwt beam="2">  1        2 0.68680604E+00 0.43652606E+04</pdfrwt>
<pdfrwt beam="1">  1       -2 0.16417217E+00 0.43652606E+04</pdfrwt>
<totfact> 0.23786141E-02</totfact>
</mgrwt>
</event>
<event>
 4    1  0.2043502E-008  0.2063807E+04  0.7816531E-02  0.8577356E-01
         -1   -1    0    0    0  501 -0.00000000000E+00  0.00000000000E+00  0.36398095560E+03  0.36398095560E+03  0.00000000000E+00 0. -1.
          1   -1    0    0  501    0  0.00000000000E+00 -0.00000000000E+00 -0.29254962377E+04  0.29254962377E+04  0.00000000000E+00 0.  1.
    2000013    1    1    2    0    0 -0.36790177758E+03  0.31926944037E+01 -0.15424806637E+04  0.18485422660E+04  0.95000000000E+03 0.  0.
   -2000013    1    1    2    0    0  0.36790177758E+03 -0.31926944037E+01 -0.10190346184E+04  0.14409349273E+04  0.95000000000E+03 0.  0.
<mgrwt>
<rscale>  0 0.20638071E+04</rscale>
<asrwt>0</asrwt>
<pdfrwt beam="2">  1        1 0.45007635E+00 0.20638071E+04</pdfrwt>
<pdfrwt beam="1">  1       -1 0.55997069E-01 0.20638071E+04</pdfrwt>
<totfact> 0.20180969E+00</totfact>
</mgrwt>
</event>
<event>
 4    1  0.2043502E-008  0.2348687E+04  0.7816531E-02  0.8458968E-01
          2   -1    0    0  501    0  0.00000000000E+00  0.00000000000E+00  0.10088506178E+04  0.10088506178E+04  0.00000000000E+00 0. -1.
         -2   -1    0    0    0  501 -0.00000000000E+00 -0.00000000000E+00 -0.13669837428E+04  0.13669837428E+04  0.00000000000E+00 0.  1.
    2000013    1    1    2    0    0  0.32467559744E+03 -0.58794777355E+03 -0.17579329640E+02  0.11635746048E+04  0.95000000000E+03 0.  0.
   -2000013    1    1    2    0    0 -0.32467559744E+03  0.58794777355E+03 -0.34055379540E+03  0.12122597558E+04  0.95000000000E+03 0.  0.
<mgrwt>
<rscale>  0 0.23486868E+04</rscale>
<asrwt>0</asrwt>
<pdfrwt beam="1">  1        2 0.15520779E+00 0.23486868E+04</pdfrwt>
<pdfrwt beam="2">  1       -2 0.21030519E+00 0.23486868E+04</pdfrwt>
<totfact> 0.25585688E+00</totfact>
</mgrwt>
</event>
<event>
 4    1  0.2043502E-008  0.2232608E+04  0.7816531E-02  0.8504977E-01
          2   -1    0    0  501    0  0.00000000000E+00  0.00000000000E+00  0.27936470188E+04  0.27936470188E+04  0.00000000000E+00 0.  1.
         -2   -1    0    0    0  501 -0.00000000000E+00 -0.00000000000E+00 -0.44606012446E+03  0.44606012446E+03  0.00000000000E+00 0. -1.
    2000013    1    1    2    0    0 -0.12580549050E+03 -0.48876846582E+03  0.74110461634E+03  0.13063145437E+04  0.95000000000E+03 0.  0.
   -2000013    1    1    2    0    0  0.12580549050E+03  0.48876846582E+03  0.16064822780E+04  0.19333925996E+04  0.95000000000E+03 0.  0.
<mgrwt>
<rscale>  0 0.22326079E+04</rscale>
<asrwt>0</asrwt>
<pdfrwt beam="1">  1        2 0.42979184E+00 0.22326079E+04</pdfrwt>
<pdfrwt beam="2">  1       -2 0.68624636E-01 0.22326079E+04</pdfrwt>
<totfact> 0.41305796E+00</totfact>
</mgrwt>
</event>
<event>
 4    1  0.2043502E-008  0.2335093E+04  0.7816531E-02  0.8464211E-01
         -2   -1    0    0    0  501 -0.00000000000E+00  0.00000000000E+00  0.12373667535E+04  0.12373667535E+04  0.00000000000E+00 0. -1.
          2   -1    0    0  501    0  0.00000000000E+00 -0.00000000000E+00 -0.11016663183E+04  0.11016663183E+04  0.00000000000E+00 0.  1.
    2000013    1    1    2    0    0  0.45247917040E+03 -0.48700973326E+03 -0.69309236401E+02  0.11615591462E+04  0.95000000000E+03 0.  0.
   -2000013    1    1    2    0    0 -0.45247917040E+03  0.48700973326E+03  0.20500967155E+03  0.11774739256E+04  0.95000000000E+03 0.  0.
<mgrwt>
<rscale>  0 0.23350934E+04</rscale>
<asrwt>0</asrwt>
<pdfrwt beam="2">  1        2 0.16948713E+00 0.23350934E+04</pdfrwt>
<pdfrwt beam="1">  1       -2 0.19036412E+00 0.23350934E+04</pdfrwt>
<totfact> 0.30281103E+00</totfact>
</mgrwt>
</event>
<event>
 4    1  0.2043502E-008  0.2190408E+04  0.7816531E-02  0.8522431E-01
          2   -1    0    0  501    0  0.00000000000E+00  0.00000000000E+00  0.22070177260E+04  0.22070177260E+04  0.00000000000E+00 0.  1.
         -2   -1    0    0    0  501 -0.00000000000E+00 -0.00000000000E+00 -0.54348073595E+03  0.54348073595E+03  0.00000000000E+00 0. -1.
    2000013    1    1    2    0    0  0.23038345392E+03 -0.48984992942E+03  0.75292754898E+03  0.13275652086E+04  0.95000000000E+03 0.  0.
   -2000013    1    1    2    0    0 -0.23038345392E+03  0.48984992942E+03  0.91060944105E+03  0.14229332533E+04  0.95000000000E+03 0.  0.
<mgrwt>
<rscale>  0 0.21904078E+04</rscale>
<asrwt>0</asrwt>
<pdfrwt beam="1">  1        2 0.33954119E+00 0.21904078E+04</pdfrwt>
<pdfrwt beam="2">  1       -2 0.83612422E-01 0.21904078E+04</pdfrwt>
<totfact> 0.58546029E+00</totfact>
</mgrwt>
</event>
<event>
 4    1  0.2043502E-008  0.2507756E+04  0.7816531E-02  0.8400228E-01
         -1   -1    0    0    0  501 -0.00000000000E+00  0.00000000000E+00  0.93184894213E+03  0.93184894213E+03  0.00000000000E+00 0. -1.
          1   -1    0    0  501    0  0.00000000000E+00 -0.00000000000E+00 -0.16871935071E+04  0.16871935071E+04  0.00000000000E+00 0.  1.
    2000013    1    1    2    0    0  0.50095896062E+03 -0.53462108225E+03  0.31029392708E+01  0.11997038010E+04  0.95000000000E+03 0.  0.
   -2000013    1    1    2    0    0 -0.50095896062E+03  0.53462108225E+03 -0.75844750427E+03  0.14193386483E+04  0.95000000000E+03 0.  0.
<mgrwt>
<rscale>  0 0.25077556E+04</rscale>
<asrwt>0</asrwt>
<pdfrwt beam="2">  1        1 0.25956823E+00 0.25077556E+04</pdfrwt>
<pdfrwt beam="1">  1       -1 0.14336138E+00 0.25077556E+04</pdfrwt>
<totfact> 0.17000548E+00</totfact>
</mgrwt>
</event>
<event>
 4    1  0.2043502E-008  0.2705456E+04  0.7816531E-02  0.8333237E-01
          2   -1    0    0  501    0  0.00000000000E+00  0.00000000000E+00  0.13244648791E+04  0.13244648791E+04  0.00000000000E+00 0.  1.
         -2   -1    0    0    0  501 -0.00000000000E+00 -0.00000000000E+00 -0.13815943101E+04  0.13815943101E+04  0.00000000000E+00 0. -1.
    2000013    1    1    2    0    0  0.57552351514E+03 -0.77076390282E+03  0.16929822629E+02  0.13520691289E+04  0.95000000000E+03 0.  0.
   -2000013    1    1    2    0    0 -0.57552351514E+03  0.77076390282E+03 -0.74059253679E+02  0.13539900603E+04  0.95000000000E+03 0.  0.
<mgrwt>
<rscale>  0 0.27054561E+04</rscale>
<asrwt>0</asrwt>
<pdfrwt beam="1">  1        2 0.20376383E+00 0.27054561E+04</pdfrwt>
<pdfrwt beam="2">  1       -2 0.21255297E+00 0.27054561E+04</pdfrwt>
<totfact> 0.15468525E+00</totfact>
</mgrwt>
</event>
<event>
 4    1  0.2043502E-008  0.3051775E+04  0.7816531E-02  0.8229099E-01
          2   -1    0    0  501    0  0.00000000000E+00  0.00000000000E+00  0.13505525440E+04  0.13505525440E+04  0.00000000000E+00 0. -1.
         -2   -1    0    0    0  501 -0.00000000000E+00 -0.00000000000E+00 -0.17239857064E+04  0.17239857064E+04  0.00000000000E+00 0.  1.
    2000013    1    1    2    0    0 -0.71202761408E+03  0.94006760196E+03 -0.37552540264E+03  0.15602018291E+04  0.95000000000E+03 0.  0.
   -2000013    1    1    2    0    0  0.71202761408E+03 -0.94006760196E+03  0.20922402878E+01  0.15143364213E+04  0.95000000000E+03 0.  0.
<mgrwt>
<rscale>  0 0.30517754E+04</rscale>
<asrwt>0</asrwt>
<pdfrwt beam="1">  1        2 0.20777731E+00 0.30517754E+04</pdfrwt>
<pdfrwt beam="2">  1       -2 0.26522857E+00 0.30517754E+04</pdfrwt>
<totfact> 0.68262901E-01</totfact>
</mgrwt>
</event>
<event>
 4    1  0.2043502E-008  0.2539250E+04  0.7816531E-02  0.8389134E-01
          2   -1    0    0  501    0  0.00000000000E+00  0.00000000000E+00  0.15398817670E+04  0.15398817670E+04  0.00000000000E+00 0.  1.
         -2   -1    0    0    0  501 -0.00000000000E+00 -0.00000000000E+00 -0.10467999515E+04  0.10467999515E+04  0.00000000000E+00 0. -1.
    2000013    1    1    2    0    0  0.75719447555E+03  0.14690136966E+03 -0.98195373508E+02  0.12276260903E+04  0.95000000000E+03 0.  0.
   -2000013    1    1    2    0    0 -0.75719447555E+03 -0.14690136966E+03  0.59127718896E+03  0.13590556281E+04  0.95000000000E+03 0.  0.
<mgrwt>
<rscale>  0 0.25392504E+04</rscale>
<asrwt>0</asrwt>
<pdfrwt beam="1">  1        2 0.23690489E+00 0.25392504E+04</pdfrwt>
<pdfrwt beam="2">  1       -2 0.16104615E+00 0.25392504E+04</pdfrwt>
<totfact> 0.26519291E+00</totfact>
</mgrwt>
</event>
<event>
 4    1  0.2043502E-008  0.2545131E+04  0.7816531E-02  0.8387081E-01
          2   -1    0    0  501    0  0.00000000000E+00  0.00000000000E+00  0.11788903012E+04  0.11788903012E+04  0.00000000000E+00 0.  1.
         -2   -1    0    0    0  501 -0.00000000000E+00 -0.00000000000E+00 -0.13736843057E+04  0.13736843057E+04  0.00000000000E+00 0. -1.
    2000013    1    1    2    0    0 -0.70696747382E+03  0.67645032627E+01  0.36987797517E+03  0.12406282618E+04  0.95000000000E+03 0.  0.
   -2000013    1    1    2    0    0  0.70696747382E+03 -0.67645032627E+01 -0.56467197970E+03  0.13119463450E+04  0.95000000000E+03 0.  0.
<mgrwt>
<rscale>  0 0.25451311E+04</rscale>
<asrwt>0</asrwt>
<pdfrwt beam="1">  1        2 0.18136774E+00 0.25451311E+04</pdfrwt>
<pdfrwt beam="2">  1       -2 0.21133604E+00 0.25451311E+04</pdfrwt>
<totfact> 0.19452800E+00</totfact>
</mgrwt>
</event>
<event>
 4    1  0.2043502E-008  0.2834065E+04  0.7816531E-02  0.8292770E-01
         -2   -1    0    0    0  501 -0.00000000000E+00  0.00000000000E+00  0.12650013957E+04  0.12650013957E+04  0.00000000000E+00 0. -1.
          2   -1    0    0  501    0  0.00000000000E+00 -0.00000000000E+00 -0.15873347108E+04  0.15873347108E+04  0.00000000000E+00 0.  1.
    2000013    1    1    2    0    0  0.88752159302E+01  0.98445904668E+03 -0.53265640593E+03  0.14681489130E+04  0.95000000000E+03 0.  0.
   -2000013    1    1    2    0    0 -0.88752159302E+01 -0.98445904668E+03  0.21032309079E+03  0.13841871935E+04  0.95000000000E+03 0.  0.
<mgrwt>
<rscale>  0 0.28340647E+04</rscale>
<asrwt>0</asrwt>
<pdfrwt beam="2">  1        2 0.24420534E+00 0.28340647E+04</pdfrwt>
<pdfrwt beam="1">  1       -2 0.19461560E+00 0.28340647E+04</pdfrwt>
<totfact> 0.14202044E+00</totfact>
</mgrwt>
</event>
<event>
 4    1  0.2043502E-008  0.2167141E+04  0.7816531E-02  0.8532230E-01
         -2   -1    0    0    0  501 -0.00000000000E+00  0.00000000000E+00  0.30346410976E+03  0.30346410976E+03  0.00000000000E+00 0. -1.
          2   -1    0    0  501    0  0.00000000000E+00 -0.00000000000E+00 -0.38690752933E+04  0.38690752933E+04  0.00000000000E+00 0.  1.
    2000013    1    1    2    0    0  0.43755179907E+03 -0.79119194806E+02 -0.23062574409E+04  0.25335814191E+04  0.95000000000E+03 0.  0.
   -2000013    1    1    2    0    0 -0.43755179907E+03  0.79119194806E+02 -0.12593537426E+04  0.16389579839E+04  0.95000000000E+03 0.  0.
<mgrwt>
<rscale>  0 0.21671414E+04</rscale>
<asrwt>0</asrwt>
<pdfrwt beam="2">  1        2 0.59524231E+00 0.21671414E+04</pdfrwt>
<pdfrwt beam="1">  1       -2 0.46686790E-01 0.21671414E+04</pdfrwt>
<totfact> 0.17436918E+00</totfact>
</mgrwt>
</event>
<event>
 4    1  0.2043502E-008  0.2781467E+04  0.7816531E-02  0.8309045E-01
         -1   -1    0    0    0  501 -0.00000000000E+00  0.00000000000E+00  0.88796042671E+03  0.88796042671E+03  0.00000000000E+00 0. -1.
          1   -1    0    0  501    0  0.00000000000E+00 -0.00000000000E+00 -0.21781830222E+04  0.21781830222E+04  0.00000000000E+00 0.  1.
    2000013    1    1    2    0    0  0.14779651335E+03 -0.74862245853E+03 -0.13840631451E+04  0.18440201149E+04  0.95000000000E+03 0.  0.
   -2000013    1    1    2    0    0 -0.14779651335E+03  0.74862245853E+03  0.93840549543E+02  0.12221233340E+04  0.95000000000E+03 0.  0.
<mgrwt>
<rscale>  0 0.27814675E+04</rscale>
<asrwt>0</asrwt>
<pdfrwt beam="2">  1        1 0.33510508E+00 0.27814675E+04</pdfrwt>
<pdfrwt beam="1">  1       -1 0.13660930E+00 0.27814675E+04</pdfrwt>
<totfact> 0.87324425E-01</totfact>
</mgrwt>
</event>
<event>
 4    1  0.2043502E-008  0.2257720E+04  0.7816531E-02  0.8494780E-01
         -2   -1    0    0    0  501 -0.00000000000E+00  0.00000000000E+00  0.68519063584E+03  0.68519063584E+03  0.00000000000E+00 0. -1.
          2   -1    0    0  501    0  0.00000000000E+00 -0.00000000000E+00 -0.18598115283E+04  0.18598115283E+04  0.00000000000E+00 0.  1.
    2000013    1    1    2    0    0 -0.46656244689E+02 -0.59959817880E+03 -0.70076891175E+03  0.13248667287E+04  0.95000000000E+03 0.  0.
   -2000013    1    1    2    0    0  0.46656244689E+02  0.59959817880E+03 -0.47385198075E+03  0.12201354355E+04  0.95000000000E+03 0.  0.
<mgrwt>
<rscale>  0 0.22577205E+04</rscale>
<asrwt>0</asrwt>
<pdfrwt beam="2">  1        2 0.28612485E+00 0.22577205E+04</pdfrwt>
<pdfrwt beam="1">  1       -2 0.10541394E+00 0.22577205E+04</pdfrwt>
<totfact> 0.52953851E+00</totfact>
</mgrwt>
</event>
<event>
 4    1  0.2043502E-008  0.2630612E+04  0.7816531E-02  0.8357877E-01
         -2   -1    0    0    0  501 -0.00000000000E+00  0.00000000000E+00  0.17266398082E+04  0.17266398082E+04  0.00000000000E+00 0. -1.
          2   -1    0    0  501    0  0.00000000000E+00 -0.00000000000E+00 -0.10019634387E+04  0.10019634387E+04  0.00000000000E+00 0.  1.
    2000013    1    1    2    0    0  0.68191747158E+03  0.60167166937E+03  0.33892011682E+03  0.13580821335E+04  0.95000000000E+03 0.  0.
   -2000013    1    1    2    0    0 -0.68191747158E+03 -0.60167166937E+03  0.38575625263E+03  0.13705211134E+04  0.95000000000E+03 0.  0.
<mgrwt>
<rscale>  0 0.26306121E+04</rscale>
<asrwt>0</asrwt>
<pdfrwt beam="2">  1        2 0.15414822E+00 0.26306121E+04</pdfrwt>
<pdfrwt beam="1">  1       -2 0.26563689E+00 0.26306121E+04</pdfrwt>
<totfact> 0.11419760E+00</totfact>
</mgrwt>
</event>
<event>
 4    1  0.2043502E-008  0.2484333E+04  0.7816531E-02  0.8408588E-01
          2   -1    0    0  501    0  0.00000000000E+00  0.00000000000E+00  0.23846926872E+04  0.23846926872E+04  0.00000000000E+00 0.  1.
         -2   -1    0    0    0  501 -0.00000000000E+00 -0.00000000000E+00 -0.64703435034E+03  0.64703435034E+03  0.00000000000E+00 0. -1.
    2000013    1    1    2    0    0 -0.23770280609E+03 -0.67999540376E+03  0.44331468496E+03  0.12719765261E+04  0.95000000000E+03 0.  0.
   -2000013    1    1    2    0    0  0.23770280609E+03  0.67999540376E+03  0.12943436519E+04  0.17597505114E+04  0.95000000000E+03 0.  0.
<mgrwt>
<rscale>  0 0.24843334E+04</rscale>
<asrwt>0</asrwt>
<pdfrwt beam="1">  1        2 0.36687579E+00 0.24843334E+04</pdfrwt>
<pdfrwt beam="2">  1       -2 0.99543747E-01 0.24843334E+04</pdfrwt>
<totfact> 0.30244496E+00</totfact>
</mgrwt>
</event>
<event>
 4    1  0.2043502E-008  0.2465864E+04  0.7816531E-02  0.8415248E-01
         -1   -1    0    0    0  501 -0.00000000000E+00  0.00000000000E+00  0.12727910185E+04  0.12727910185E+04  0.00000000000E+00 0. -1.
          1   -1    0    0  501    0  0.00000000000E+00 -0.00000000000E+00 -0.11943215542E+04  0.11943215542E+04  0.00000000000E+00 0.  1.
    2000013    1    1    2    0    0 -0.47598616634E+03  0.16291537991E+03 -0.56482373151E+03  0.12143434849E+04  0.95000000000E+03 0.  0.
   -2000013    1    1    2    0    0  0.47598616634E+03 -0.16291537991E+03  0.64329319580E+03  0.12527690878E+04  0.95000000000E+03 0.  0.
<mgrwt>
<rscale>  0 0.24658643E+04</rscale>
<asrwt>0</asrwt>
<pdfrwt beam="2">  1        1 0.18374178E+00 0.24658643E+04</pdfrwt>
<pdfrwt beam="1">  1       -1 0.19581400E+00 0.24658643E+04</pdfrwt>
<totfact> 0.15467998E+00</totfact>
</mgrwt>
</event>
<event>
 4    1  0.2043502E-008  0.2335920E+04  0.7816531E-02  0.8463891E-01
          2   -1    0    0  501    0  0.00000000000E+00  0.00000000000E+00  0.11974659764E+04  0.11974659764E+04  0.00000000000E+00 0.  1.
         -2   -1    0    0    0  501 -0.00000000000E+00 -0.00000000000E+00 -0.11391812090E+04  0.11391812090E+04  0.00000000000E+00 0. -1.
    2000013    1    1    2    0    0 -0.56835337578E+03 -0.11047177777E+02  0.40139143399E+03  0.11776088838E+04  0.95000000000E+03 0.  0.
   -2000013    1    1    2    0    0  0.56835337578E+03  0.11047177777E+02 -0.34310666668E+03  0.11590383016E+04  0.95000000000E+03 0.  0.
<mgrwt>
<rscale>  0 0.23359202E+04</rscale>
<asrwt>0</asrwt>
<pdfrwt beam="1">  1        2 0.18422554E+00 0.23359202E+04</pdfrwt>
<pdfrwt beam="2">  1       -2 0.17525865E+00 0.23359202E+04</pdfrwt>
<totfact> 0.33617719E+00</totfact>
</mgrwt>
</event>
<event>
 4    1  0.2043502E-008  0.2303863E+04  0.7816531E-02  0.8476399E-01
         -2   -1    0    0    0  501 -0.00000000000E+00  0.00000000000E+00  0.61510031508E+03  0.61510031508E+03  0.00000000000E+00 0. -1.
          2   -1    0    0  501    0  0.00000000000E+00 -0.00000000000E+00 -0.21572845269E+04  0.21572845269E+04  0.00000000000E+00 0.  1.
    2000013    1    1    2    0    0  0.32404484072E+03 -0.56161381688E+03 -0.69468796101E+03  0.13436913713E+04  0.95000000000E+03 0.  0.
   -2000013    1    1    2    0    0 -0.32404484072E+03  0.56161381688E+03 -0.84749625085E+03  0.14286934707E+04  0.95000000000E+03 0.  0.
<mgrwt>
<rscale>  0 0.23038632E+04</rscale>
<asrwt>0</asrwt>
<pdfrwt beam="2">  1        2 0.33188993E+00 0.23038632E+04</pdfrwt>
<pdfrwt beam="1">  1       -2 0.94630817E-01 0.23038632E+04</pdfrwt>
<totfact> 0.46514318E+00</totfact>
</mgrwt>
</event>
<event>
 4    1  0.2043502E-008  0.2315236E+04  0.7816531E-02  0.8471938E-01
         -2   -1    0    0    0  501 -0.00000000000E+00  0.00000000000E+00  0.13501422830E+04  0.13501422830E+04  0.00000000000E+00 0. -1.
          2   -1    0    0  501    0  0.00000000000E+00 -0.00000000000E+00 -0.99254714173E+03  0.99254714173E+03  0.00000000000E+00 0.  1.
    2000013    1    1    2    0    0  0.45303749397E+03  0.48197272515E+03  0.18513160872E+03  0.11723115590E+04  0.95000000000E+03 0.  0.
   -2000013    1    1    2    0    0 -0.45303749397E+03 -0.48197272515E+03  0.17246353260E+03  0.11703778658E+04  0.95000000000E+03 0.  0.
<mgrwt>
<rscale>  0 0.23152364E+04</rscale>
<asrwt>0</asrwt>
<pdfrwt beam="2">  1        2 0.15269956E+00 0.23152364E+04</pdfrwt>
<pdfrwt beam="1">  1       -2 0.20771420E+00 0.23152364E+04</pdfrwt>
<totfact> 0.27313085E+00</totfact>
</mgrwt>
</event>
<event>
 4    1  0.2043502E-008  0.3072042E+04  0.7816531E-02  0.8223453E-01
          2   -1    0    0  501    0  0.00000000000E+00  0.00000000000E+00  0.18665336811E+04  0.18665336811E+04  0.00000000000E+00 0.  1.
         -2   -1    0    0    0  501 -0.00000000000E+00 -0.00000000000E+00 -0.12640329204E+04  0.12640329204E+04  0.00000000000E+00 0. -1.
    2000013    1    1    2    0    0 -0.11030755338E+04 -0.13739247562E+03  0.78053772144E+03  0.16575257042E+04  0.95000000000E+03 0.  0.
   -2000013    1    1    2    0    0  0.11030755338E+04  0.13739247562E+03 -0.17803696069E+03  0.14730408972E+04  0.95000000000E+03 0.  0.
<mgrwt>
<rscale>  0 0.30720417E+04</rscale>
<asrwt>0</asrwt>
<pdfrwt beam="1">  1        2 0.28715903E+00 0.30720417E+04</pdfrwt>
<pdfrwt beam="2">  1       -2 0.19446660E+00 0.30720417E+04</pdfrwt>
<totfact> 0.97596618E-01</totfact>
</mgrwt>
</event>
<event>
 4    1  0.2043502E-008  0.2621616E+04  0.7816531E-02  0.8360895E-01
          2   -1    0    0  501    0  0.00000000000E+00  0.00000000000E+00  0.17238687091E+04  0.17238687091E+04  0.00000000000E+00 0.  1.
         -2   -1    0    0    0  501 -0.00000000000E+00 -0.00000000000E+00 -0.99672221697E+03  0.99672221697E+03  0.00000000000E+00 0. -1.
    2000013    1    1    2    0    0  0.28000237472E+01 -0.40663686880E+03  0.12004662725E+04  0.15839762166E+04  0.95000000000E+03 0.  0.
   -2000013    1    1    2    0    0 -0.28000237472E+01  0.40663686880E+03 -0.47331978044E+03  0.11366147095E+04  0.95000000000E+03 0.  0.
<mgrwt>
<rscale>  0 0.26216165E+04</rscale>
<asrwt>0</asrwt>
<pdfrwt beam="1">  1        2 0.26521057E+00 0.26216165E+04</pdfrwt>
<pdfrwt beam="2">  1       -2 0.15334188E+00 0.26216165E+04</pdfrwt>
<totfact> 0.23733206E+00</totfact>
</mgrwt>
</event>
<event>
 4    1  0.2043502E-008  0.3308318E+04  0.7816531E-02  0.8160782E-01
         -2   -1    0    0    0  501 -0.00000000000E+00  0.00000000000E+00  0.13741479748E+04  0.13741479748E+04  0.00000000000E+00 0. -1.
          2   -1    0    0  501    0  0.00000000000E+00 -0.00000000000E+00 -0.19912278440E+04  0.19912278440E+04  0.00000000000E+00 0.  1.
    2000013    1    1    2    0    0 -0.78969602933E+03 -0.67579083054E+03  0.57443303437E+03  0.15207847896E+04  0.95000000000E+03 0.  0.
   -2000013    1    1    2    0    0  0.78969602933E+03  0.67579083054E+03 -0.11915129036E+04  0.18445910291E+04  0.95000000000E+03 0.  0.
<mgrwt>
<rscale>  0 0.33083178E+04</rscale>
<asrwt>0</asrwt>
<pdfrwt beam="2">  1        2 0.30634274E+00 0.33083178E+04</pdfrwt>
<pdfrwt beam="1">  1       -2 0.21140738E+00 0.33083178E+04</pdfrwt>
<totfact> 0.63248452E-01</totfact>
</mgrwt>
</event>
<event>
 4    1  0.2043502E-008  0.3600753E+04  0.7816531E-02  0.8090319E-01
         -2   -1    0    0    0  501 -0.00000000000E+00  0.00000000000E+00  0.94328867579E+03  0.94328867579E+03  0.00000000000E+00 0. -1.
          2   -1    0    0  501    0  0.00000000000E+00 -0.00000000000E+00 -0.34362287518E+04  0.34362287518E+04  0.00000000000E+00 0.  1.
    2000013    1    1    2    0    0  0.13194630457E+04 -0.86823554052E+01 -0.30607574035E+03  0.16544607796E+04  0.95000000000E+03 0.  0.
   -2000013    1    1    2    0    0 -0.13194630457E+04  0.86823554052E+01 -0.21868643357E+04  0.27250566480E+04  0.95000000000E+03 0.  0.
<mgrwt>
<rscale>  0 0.36007531E+04</rscale>
<asrwt>0</asrwt>
<pdfrwt beam="2">  1        2 0.52865059E+00 0.36007531E+04</pdfrwt>
<pdfrwt beam="1">  1       -2 0.14512133E+00 0.36007531E+04</pdfrwt>
<totfact> 0.23953890E-01</totfact>
</mgrwt>
</event>
<event>
 4    1  0.2043502E-008  0.2211180E+04  0.7816531E-02  0.8513789E-01
          2   -1    0    0  501    0  0.00000000000E+00  0.00000000000E+00  0.67166577896E+03  0.67166577896E+03  0.00000000000E+00 0.  1.
         -2   -1    0    0    0  501 -0.00000000000E+00 -0.00000000000E+00 -0.18198473184E+04  0.18198473184E+04  0.00000000000E+00 0. -1.
    2000013    1    1    2    0    0 -0.32025589091E+03  0.26803170805E+03 -0.10037831317E+04  0.14437747081E+04  0.95000000000E+03 0.  0.
   -2000013    1    1    2    0    0  0.32025589091E+03 -0.26803170805E+03 -0.14439840770E+03  0.10477383893E+04  0.95000000000E+03 0.  0.
<mgrwt>
<rscale>  0 0.22111799E+04</rscale>
<asrwt>0</asrwt>
<pdfrwt beam="1">  1        2 0.10333320E+00 0.22111799E+04</pdfrwt>
<pdfrwt beam="2">  1       -2 0.27997650E+00 0.22111799E+04</pdfrwt>
<totfact> 0.16607893E+00</totfact>
</mgrwt>
</event>
<event>
 4    1  0.2043502E-008  0.3033938E+04  0.7816531E-02  0.8234106E-01
         -2   -1    0    0    0  501 -0.00000000000E+00  0.00000000000E+00  0.78460867411E+03  0.78460867411E+03  0.00000000000E+00 0. -1.
          2   -1    0    0  501    0  0.00000000000E+00 -0.00000000000E+00 -0.29329199063E+04  0.29329199063E+04  0.00000000000E+00 0.  1.
    2000013    1    1    2    0    0  0.99592992189E+03 -0.76910727752E+02 -0.29832453736E+03  0.14104216387E+04  0.95000000000E+03 0.  0.
   -2000013    1    1    2    0    0 -0.99592992189E+03  0.76910727752E+02 -0.18499866948E+04  0.23071069417E+04  0.95000000000E+03 0.  0.
<mgrwt>
<rscale>  0 0.30339376E+04</rscale>
<asrwt>0</asrwt>
<pdfrwt beam="2">  1        2 0.45121843E+00 0.30339376E+04</pdfrwt>
<pdfrwt beam="1">  1       -2 0.12070903E+00 0.30339376E+04</pdfrwt>
<totfact> 0.85587353E-01</totfact>
</mgrwt>
</event>
<event>
 4    1  0.2043502E-008  0.2018874E+04  0.7816531E-02  0.8597847E-01
          2   -1    0    0  501    0  0.00000000000E+00  0.00000000000E+00  0.21374107332E+04  0.21374107332E+04  0.00000000000E+00 0.  1.
         -2   -1    0    0    0  501 -0.00000000000E+00 -0.00000000000E+00 -0.47672778816E+03  0.47672778816E+03  0.00000000000E+00 0. -1.
    2000013    1    1    2    0    0 -0.12204111290E+03  0.31248946948E+03  0.91140557642E+03  0.13585668281E+04  0.95000000000E+03 0.  0.
   -2000013    1    1    2    0    0  0.12204111290E+03 -0.31248946948E+03  0.74927736866E+03  0.12555716933E+04  0.95000000000E+03 0.  0.
<mgrwt>
<rscale>  0 0.20188740E+04</rscale>
<asrwt>0</asrwt>
<pdfrwt beam="1">  1        2 0.32883241E+00 0.20188740E+04</pdfrwt>
<pdfrwt beam="2">  1       -2 0.73342738E-01 0.20188740E+04</pdfrwt>
<totfact> 0.87142673E+00</totfact>
</mgrwt>
</event>
<event>
 4    1  0.2043502E-008  0.2584947E+04  0.7816531E-02  0.8373332E-01
         -2   -1    0    0    0  501 -0.00000000000E+00  0.00000000000E+00  0.59400472740E+03  0.59400472740E+03  0.00000000000E+00 0. -1.
          2   -1    0    0  501    0  0.00000000000E+00 -0.00000000000E+00 -0.28122464463E+04  0.28122464463E+04  0.00000000000E+00 0.  1.
    2000013    1    1    2    0    0  0.66185662591E+03  0.23564627382E+03 -0.17993932614E+04  0.21526494068E+04  0.95000000000E+03 0.  0.
   -2000013    1    1    2    0    0 -0.66185662591E+03 -0.23564627382E+03 -0.41884845757E+03  0.12536017669E+04  0.95000000000E+03 0.  0.
<mgrwt>
<rscale>  0 0.25849470E+04</rscale>
<asrwt>0</asrwt>
<pdfrwt beam="2">  1        2 0.43265330E+00 0.25849470E+04</pdfrwt>
<pdfrwt beam="1">  1       -2 0.91385342E-01 0.25849470E+04</pdfrwt>
<totfact> 0.20534316E+00</totfact>
</mgrwt>
</event>
<event>
 4    1  0.2043502E-008  0.3063470E+04  0.7816531E-02  0.8225835E-01
         -2   -1    0    0    0  501 -0.00000000000E+00  0.00000000000E+00  0.21044219324E+04  0.21044219324E+04  0.00000000000E+00 0. -1.
          2   -1    0    0  501    0  0.00000000000E+00 -0.00000000000E+00 -0.11148964069E+04  0.11148964069E+04  0.00000000000E+00 0.  1.
    2000013    1    1    2    0    0  0.33547530041E+03  0.10138396491E+04 -0.83979223409E+02  0.14317705896E+04  0.95000000000E+03 0.  0.
   -2000013    1    1    2    0    0 -0.33547530041E+03 -0.10138396491E+04  0.10735047489E+04  0.17875477496E+04  0.95000000000E+03 0.  0.
<mgrwt>
<rscale>  0 0.30634702E+04</rscale>
<asrwt>0</asrwt>
<pdfrwt beam="2">  1        2 0.17152252E+00 0.30634702E+04</pdfrwt>
<pdfrwt beam="1">  1       -2 0.32375722E+00 0.30634702E+04</pdfrwt>
<totfact> 0.41218595E-01</totfact>
</mgrwt>
</event>
<event>
 4    1  0.2043502E-008  0.2230382E+04  0.7816531E-02  0.8505888E-01
          2   -1    0    0  501    0  0.00000000000E+00  0.00000000000E+00  0.17129425474E+04  0.17129425474E+04  0.00000000000E+00 0.  1.
         -2   -1    0    0    0  501 -0.00000000000E+00 -0.00000000000E+00 -0.72603159761E+03  0.72603159761E+03  0.00000000000E+00 0. -1.
    2000013    1    1    2    0    0  0.49151957249E+03  0.31294433514E+03  0.44937729793E+03  0.12016511985E+04  0.95000000000E+03 0.  0.
   -2000013    1    1    2    0    0 -0.49151957249E+03 -0.31294433514E+03  0.53753365190E+03  0.12373229465E+04  0.95000000000E+03 0.  0.
<mgrwt>
<rscale>  0 0.22303815E+04</rscale>
<asrwt>0</asrwt>
<pdfrwt beam="1">  1        2 0.26352962E+00 0.22303815E+04</pdfrwt>
<pdfrwt beam="2">  1       -2 0.11169717E+00 0.22303815E+04</pdfrwt>
<totfact> 0.55678297E+00</totfact>
</mgrwt>
</event>
<event>
 4    1  0.2043502E-008  0.2853572E+04  0.7816531E-02  0.8286827E-01
         -2   -1    0    0    0  501 -0.00000000000E+00  0.00000000000E+00  0.61510506686E+03  0.61510506686E+03  0.00000000000E+00 0. -1.
          2   -1    0    0  501    0  0.00000000000E+00 -0.00000000000E+00 -0.33095463238E+04  0.33095463238E+04  0.00000000000E+00 0.  1.
    2000013    1    1    2    0    0  0.24211544504E+03  0.91237258233E+03 -0.67039476542E+03  0.14976557546E+04  0.95000000000E+03 0.  0.
   -2000013    1    1    2    0    0 -0.24211544504E+03 -0.91237258233E+03 -0.20240464915E+04  0.24269956361E+04  0.95000000000E+03 0.  0.
<mgrwt>
<rscale>  0 0.28535723E+04</rscale>
<asrwt>0</asrwt>
<pdfrwt beam="2">  1        2 0.50916099E+00 0.28535723E+04</pdfrwt>
<pdfrwt beam="1">  1       -2 0.94631546E-01 0.28535723E+04</pdfrwt>
<totfact> 0.89394113E-01</totfact>
</mgrwt>
</event>
<event>
 4    1  0.2043502E-008  0.3129737E+04  0.7816531E-02  0.8207624E-01
         -2   -1    0    0    0  501 -0.00000000000E+00  0.00000000000E+00  0.84766941390E+03  0.84766941390E+03  0.00000000000E+00 0.  1.
          2   -1    0    0  501    0  0.00000000000E+00 -0.00000000000E+00 -0.28888785004E+04  0.28888785004E+04  0.00000000000E+00 0. -1.
    2000013    1    1    2    0    0  0.53281241935E+03 -0.49850369084E+03  0.18156102015E+03  0.12115524784E+04  0.95000000000E+03 0.  0.
   -2000013    1    1    2    0    0 -0.53281241935E+03  0.49850369084E+03 -0.22227701066E+04  0.25249954358E+04  0.95000000000E+03 0.  0.
<mgrwt>
<rscale>  0 0.31297373E+04</rscale>
<asrwt>0</asrwt>
<pdfrwt beam="2">  1        2 0.44444285E+00 0.31297373E+04</pdfrwt>
<pdfrwt beam="1">  1       -2 0.13041068E+00 0.31297373E+04</pdfrwt>
<totfact> 0.74432715E-01</totfact>
</mgrwt>
</event>
<event>
 4    1  0.2043502E-008  0.2770495E+04  0.7816531E-02  0.8312488E-01
          2   -1    0    0  501    0  0.00000000000E+00  0.00000000000E+00  0.15894337257E+04  0.15894337257E+04  0.00000000000E+00 0.  1.
         -2   -1    0    0    0  501 -0.00000000000E+00 -0.00000000000E+00 -0.12072915823E+04  0.12072915823E+04  0.00000000000E+00 0. -1.
    2000013    1    1    2    0    0  0.52545844399E+03 -0.71195306067E+02 -0.67450549341E+03  0.12800910158E+04  0.95000000000E+03 0.  0.
   -2000013    1    1    2    0    0 -0.52545844399E+03  0.71195306067E+02  0.10566476368E+04  0.15166342922E+04  0.95000000000E+03 0.  0.
<mgrwt>
<rscale>  0 0.27704945E+04</rscale>
<asrwt>0</asrwt>
<pdfrwt beam="1">  1        2 0.24452827E+00 0.27704945E+04</pdfrwt>
<pdfrwt beam="2">  1       -2 0.18573717E+00 0.27704945E+04</pdfrwt>
<totfact> 0.16334609E+00</totfact>
</mgrwt>
</event>
<event>
 4    1  0.2043502E-008  0.4200021E+04  0.7816531E-02  0.7965368E-01
         -2   -1    0    0    0  501 -0.00000000000E+00  0.00000000000E+00  0.11529574336E+04  0.11529574336E+04  0.00000000000E+00 0. -1.
          2   -1    0    0  501    0  0.00000000000E+00 -0.00000000000E+00 -0.38249840125E+04  0.38249840125E+04  0.00000000000E+00 0.  1.
    2000013    1    1    2    0    0 -0.14246716911E+04 -0.10113156085E+04 -0.21355702370E+04  0.29181516281E+04  0.95000000000E+03 0.  0.
   -2000013    1    1    2    0    0  0.14246716911E+04  0.10113156085E+04 -0.53645634189E+03  0.20597898179E+04  0.95000000000E+03 0.  0.
<mgrwt>
<rscale>  0 0.42000208E+04</rscale>
<asrwt>0</asrwt>
<pdfrwt beam="2">  1        2 0.58845909E+00 0.42000208E+04</pdfrwt>
<pdfrwt beam="1">  1       -2 0.17737806E+00 0.42000208E+04</pdfrwt>
<totfact> 0.68777571E-02</totfact>
</mgrwt>
</event>
<event>
 4    1  0.2043502E-008  0.2409146E+04  0.7816531E-02  0.8436087E-01
         -2   -1    0    0    0  501 -0.00000000000E+00  0.00000000000E+00  0.12778621539E+04  0.12778621539E+04  0.00000000000E+00 0. -1.
          2   -1    0    0  501    0  0.00000000000E+00 -0.00000000000E+00 -0.11354874291E+04  0.11354874291E+04  0.00000000000E+00 0.  1.
    2000013    1    1    2    0    0 -0.50244013818E+01  0.67184371444E+03 -0.24096052727E+03  0.11882597346E+04  0.95000000000E+03 0.  0.
   -2000013    1    1    2    0    0  0.50244013818E+01 -0.67184371444E+03  0.38333525203E+03  0.12250898484E+04  0.95000000000E+03 0.  0.
<mgrwt>
<rscale>  0 0.24091462E+04</rscale>
<asrwt>0</asrwt>
<pdfrwt beam="2">  1        2 0.17469037E+00 0.24091462E+04</pdfrwt>
<pdfrwt beam="1">  1       -2 0.19659418E+00 0.24091462E+04</pdfrwt>
<totfact> 0.26074775E+00</totfact>
</mgrwt>
</event>
<event>
 4    1  0.2043502E-008  0.2125102E+04  0.7816531E-02  0.8550266E-01
          2   -1    0    0  501    0  0.00000000000E+00  0.00000000000E+00  0.16078401492E+04  0.16078401492E+04  0.00000000000E+00 0.  1.
         -2   -1    0    0    0  501 -0.00000000000E+00 -0.00000000000E+00 -0.70219347681E+03  0.70219347681E+03  0.00000000000E+00 0. -1.
    2000013    1    1    2    0    0  0.24517803569E+03 -0.19175153735E+03  0.84420262716E+03  0.13084567234E+04  0.95000000000E+03 0.  0.
   -2000013    1    1    2    0    0 -0.24517803569E+03  0.19175153735E+03  0.61444045266E+02  0.10015769027E+04  0.95000000000E+03 0.  0.
<mgrwt>
<rscale>  0 0.21251022E+04</rscale>
<asrwt>0</asrwt>
<pdfrwt beam="1">  1        2 0.24736002E+00 0.21251022E+04</pdfrwt>
<pdfrwt beam="2">  1       -2 0.10802977E+00 0.21251022E+04</pdfrwt>
<totfact> 0.69695790E+00</totfact>
</mgrwt>
</event>
<event>
 4    1  0.2043502E-008  0.2290419E+04  0.7816531E-02  0.8481708E-01
         -2   -1    0    0    0  501 -0.00000000000E+00  0.00000000000E+00  0.78034457099E+03  0.78034457099E+03  0.00000000000E+00 0. -1.
          2   -1    0    0  501    0  0.00000000000E+00 -0.00000000000E+00 -0.16806739780E+04  0.16806739780E+04  0.00000000000E+00 0.  1.
    2000013    1    1    2    0    0 -0.59406677377E+03 -0.10345189729E+03 -0.67907566150E+03  0.13142531647E+04  0.95000000000E+03 0.  0.
   -2000013    1    1    2    0    0  0.59406677377E+03  0.10345189729E+03 -0.22125374548E+03  0.11467653843E+04  0.95000000000E+03 0.  0.
<mgrwt>
<rscale>  0 0.22904190E+04</rscale>
<asrwt>0</asrwt>
<pdfrwt beam="2">  1        2 0.25856522E+00 0.22904190E+04</pdfrwt>
<pdfrwt beam="1">  1       -2 0.12005301E+00 0.22904190E+04</pdfrwt>
<totfact> 0.48387010E+00</totfact>
</mgrwt>
</event>
<event>
 4    1  0.2043502E-008  0.2505666E+04  0.7816531E-02  0.8400970E-01
          2   -1    0    0  501    0  0.00000000000E+00  0.00000000000E+00  0.23575827103E+04  0.23575827103E+04  0.00000000000E+00 0.  1.
         -2   -1    0    0    0  501 -0.00000000000E+00 -0.00000000000E+00 -0.66576288223E+03  0.66576288223E+03  0.00000000000E+00 0. -1.
    2000013    1    1    2    0    0  0.11290525635E+03 -0.63361000969E+03  0.14526788558E+04  0.18512117922E+04  0.95000000000E+03 0.  0.
   -2000013    1    1    2    0    0 -0.11290525635E+03  0.63361000969E+03  0.23914097219E+03  0.11721338003E+04  0.95000000000E+03 0.  0.
<mgrwt>
<rscale>  0 0.25056664E+04</rscale>
<asrwt>0</asrwt>
<pdfrwt beam="1">  1        2 0.36270503E+00 0.25056664E+04</pdfrwt>
<pdfrwt beam="2">  1       -2 0.10242506E+00 0.25056664E+04</pdfrwt>
<totfact> 0.29232887E+00</totfact>
</mgrwt>
</event>
<event>
 4    1  0.2043502E-008  0.3815760E+04  0.7816531E-02  0.8042781E-01
         -2   -1    0    0    0  501 -0.00000000000E+00  0.00000000000E+00  0.20129459233E+04  0.20129459233E+04  0.00000000000E+00 0. -1.
          2   -1    0    0  501    0  0.00000000000E+00 -0.00000000000E+00 -0.18082981209E+04  0.18082981209E+04  0.00000000000E+00 0.  1.
    2000013    1    1    2    0    0  0.10342744407E+04 -0.12805106045E+04  0.27012157669E+03  0.19196084739E+04  0.95000000000E+03 0.  0.
   -2000013    1    1    2    0    0 -0.10342744407E+04  0.12805106045E+04 -0.65473774324E+02  0.19016355703E+04  0.95000000000E+03 0.  0.
<mgrwt>
<rscale>  0 0.38157601E+04</rscale>
<asrwt>0</asrwt>
<pdfrwt beam="2">  1        2 0.27819971E+00 0.38157601E+04</pdfrwt>
<pdfrwt beam="1">  1       -2 0.30968399E+00 0.38157601E+04</pdfrwt>
<totfact> 0.18949817E-01</totfact>
</mgrwt>
</event>
<event>
 4    1  0.2043502E-008  0.2818322E+04  0.7816531E-02  0.8297603E-01
          2   -1    0    0  501    0  0.00000000000E+00  0.00000000000E+00  0.32212926585E+04  0.32212926585E+04  0.00000000000E+00 0.  1.
         -2   -1    0    0    0  501 -0.00000000000E+00 -0.00000000000E+00 -0.61644014758E+03  0.61644014758E+03  0.00000000000E+00 0. -1.
    2000013    1    1    2    0    0  0.29462179337E+03 -0.99818122056E+03  0.12913325839E+04  0.19113365984E+04  0.95000000000E+03 0.  0.
   -2000013    1    1    2    0    0 -0.29462179337E+03  0.99818122056E+03  0.13135199271E+04  0.19263962077E+04  0.95000000000E+03 0.  0.
<mgrwt>
<rscale>  0 0.28183216E+04</rscale>
<asrwt>0</asrwt>
<pdfrwt beam="1">  1        2 0.49558348E+00 0.28183216E+04</pdfrwt>
<pdfrwt beam="2">  1       -2 0.94836947E-01 0.28183216E+04</pdfrwt>
<totfact> 0.10206019E+00</totfact>
</mgrwt>
</event>
<event>
 4    1  0.2043502E-008  0.3210747E+04  0.7816531E-02  0.8185985E-01
         -2   -1    0    0    0  501 -0.00000000000E+00  0.00000000000E+00  0.11770199712E+04  0.11770199712E+04  0.00000000000E+00 0. -1.
          2   -1    0    0  501    0  0.00000000000E+00 -0.00000000000E+00 -0.21896175713E+04  0.21896175713E+04  0.00000000000E+00 0.  1.
    2000013    1    1    2    0    0  0.60251255682E+03 -0.74986303544E+03  0.40141592142E+03  0.14103016326E+04  0.95000000000E+03 0.  0.
   -2000013    1    1    2    0    0 -0.60251255682E+03  0.74986303544E+03 -0.14140135215E+04  0.19563359098E+04  0.95000000000E+03 0.  0.
<mgrwt>
<rscale>  0 0.32107467E+04</rscale>
<asrwt>0</asrwt>
<pdfrwt beam="2">  1        2 0.33686424E+00 0.32107467E+04</pdfrwt>
<pdfrwt beam="1">  1       -2 0.18108000E+00 0.32107467E+04</pdfrwt>
<totfact> 0.78484582E-01</totfact>
</mgrwt>
</event>
<event>
 4    1  0.2043502E-008  0.2409601E+04  0.7816531E-02  0.8435918E-01
         -2   -1    0    0    0  501 -0.00000000000E+00  0.00000000000E+00  0.20413171370E+04  0.20413171370E+04  0.00000000000E+00 0. -1.
          2   -1    0    0  501    0  0.00000000000E+00 -0.00000000000E+00 -0.71108197185E+03  0.71108197185E+03  0.00000000000E+00 0.  1.
    2000013    1    1    2    0    0 -0.66562205825E+03  0.27992016459E+03  0.47522749462E+03  0.12844256283E+04  0.95000000000E+03 0.  0.
   -2000013    1    1    2    0    0  0.66562205825E+03 -0.27992016459E+03  0.85500767055E+03  0.14679734806E+04  0.95000000000E+03 0.  0.
<mgrwt>
<rscale>  0 0.24096006E+04</rscale>
<asrwt>0</asrwt>
<pdfrwt beam="2">  1        2 0.10939723E+00 0.24096006E+04</pdfrwt>
<pdfrwt beam="1">  1       -2 0.31404879E+00 0.24096006E+04</pdfrwt>
<totfact> 0.94068657E-01</totfact>
</mgrwt>
</event>
<event>
 4    1  0.2043502E-008  0.5100744E+04  0.7816531E-02  0.7813152E-01
          2   -1    0    0  501    0  0.00000000000E+00  0.00000000000E+00  0.23751803362E+04  0.23751803362E+04  0.00000000000E+00 0.  1.
         -2   -1    0    0    0  501 -0.00000000000E+00 -0.00000000000E+00 -0.27384855958E+04  0.27384855958E+04  0.00000000000E+00 0. -1.
    2000013    1    1    2    0    0 -0.10500707848E+03 -0.18346691754E+04 -0.16770277265E+04  0.26630733120E+04  0.95000000000E+03 0.  0.
   -2000013    1    1    2    0    0  0.10500707848E+03  0.18346691754E+04  0.13137224668E+04  0.24505926200E+04  0.95000000000E+03 0.  0.
<mgrwt>
<rscale>  0 0.51007439E+04</rscale>
<asrwt>0</asrwt>
<pdfrwt beam="1">  1        2 0.36541236E+00 0.51007439E+04</pdfrwt>
<pdfrwt beam="2">  1       -2 0.42130548E+00 0.51007439E+04</pdfrwt>
<totfact> 0.15970868E-02</totfact>
</mgrwt>
</event>
<event>
 4    1  0.2043502E-008  0.2224332E+04  0.7816531E-02  0.8508368E-01
         -2   -1    0    0    0  501 -0.00000000000E+00  0.00000000000E+00  0.51960272316E+03  0.51960272316E+03  0.00000000000E+00 0. -1.
          2   -1    0    0  501    0  0.00000000000E+00 -0.00000000000E+00 -0.23804981356E+04  0.23804981356E+04  0.00000000000E+00 0.  1.
    2000013    1    1    2    0    0  0.56493317678E+03 -0.95228275660E+02 -0.82782393363E+03  0.13842002687E+04  0.95000000000E+03 0.  0.
   -2000013    1    1    2    0    0 -0.56493317678E+03  0.95228275660E+02 -0.10330714788E+04  0.15159005901E+04  0.95000000000E+03 0.  0.
<mgrwt>
<rscale>  0 0.22243321E+04</rscale>
<asrwt>0</asrwt>
<pdfrwt beam="2">  1        2 0.36623047E+00 0.22243321E+04</pdfrwt>
<pdfrwt beam="1">  1       -2 0.79938882E-01 0.22243321E+04</pdfrwt>
<totfact> 0.51521294E+00</totfact>
</mgrwt>
</event>
<event>
 4    1  0.2043502E-008  0.2477294E+04  0.7816531E-02  0.8411120E-01
          4   -1    0    0  501    0  0.00000000000E+00  0.00000000000E+00  0.21240761715E+04  0.21240761715E+04  0.00000000000E+00 0. -1.
         -4   -1    0    0    0  501 -0.00000000000E+00 -0.00000000000E+00 -0.72231217035E+03  0.72231217035E+03  0.00000000000E+00 0.  1.
    2000013    1    1    2    0    0 -0.58472504494E+03 -0.21274396911E+03  0.12691190015E+04  0.17030344725E+04  0.95000000000E+03 0.  0.
   -2000013    1    1    2    0    0  0.58472504494E+03  0.21274396911E+03  0.13264499963E+03  0.11433538693E+04  0.95000000000E+03 0.  0.
<mgrwt>
<rscale>  0 0.24772937E+04</rscale>
<asrwt>0</asrwt>
<pdfrwt beam="1">  1        4 0.32678095E+00 0.24772937E+04</pdfrwt>
<pdfrwt beam="2">  1       -4 0.11112495E+00 0.24772937E+04</pdfrwt>
<totfact> 0.23886145E-02</totfact>
</mgrwt>
</event>
<event>
 4    1  0.2043502E-008  0.2320574E+04  0.7816531E-02  0.8469853E-01
          1   -1    0    0  501    0  0.00000000000E+00  0.00000000000E+00  0.22804721940E+04  0.22804721940E+04  0.00000000000E+00 0. -1.
         -1   -1    0    0    0  501 -0.00000000000E+00 -0.00000000000E+00 -0.59034502178E+03  0.59034502178E+03  0.00000000000E+00 0.  1.
    2000013    1    1    2    0    0 -0.19204122521E+03  0.60776115965E+03  0.60545906421E+03  0.12943469928E+04  0.95000000000E+03 0.  0.
   -2000013    1    1    2    0    0  0.19204122521E+03 -0.60776115965E+03  0.10846681080E+04  0.15764702229E+04  0.95000000000E+03 0.  0.
<mgrwt>
<rscale>  0 0.23205736E+04</rscale>
<asrwt>0</asrwt>
<pdfrwt beam="1">  1        1 0.35084187E+00 0.23205736E+04</pdfrwt>
<pdfrwt beam="2">  1       -1 0.90822312E-01 0.23205736E+04</pdfrwt>
<totfact> 0.20498198E+00</totfact>
</mgrwt>
</event>
<event>
 4    1  0.2043502E-008  0.2707696E+04  0.7816531E-02  0.8332512E-01
         -2   -1    0    0    0  501 -0.00000000000E+00  0.00000000000E+00  0.15983268922E+04  0.15983268922E+04  0.00000000000E+00 0. -1.
          2   -1    0    0  501    0  0.00000000000E+00 -0.00000000000E+00 -0.11467648280E+04  0.11467648280E+04  0.00000000000E+00 0.  1.
    2000013    1    1    2    0    0 -0.58125062293E+03  0.75141982970E+03  0.56377488081E+02  0.13446793180E+04  0.95000000000E+03 0.  0.
   -2000013    1    1    2    0    0  0.58125062293E+03 -0.75141982970E+03  0.39518457608E+03  0.14004124022E+04  0.95000000000E+03 0.  0.
<mgrwt>
<rscale>  0 0.27076965E+04</rscale>
<asrwt>0</asrwt>
<pdfrwt beam="2">  1        2 0.17642536E+00 0.27076965E+04</pdfrwt>
<pdfrwt beam="1">  1       -2 0.24589644E+00 0.27076965E+04</pdfrwt>
<totfact> 0.12178898E+00</totfact>
</mgrwt>
</event>
<event>
 4    1  0.2043502E-008  0.3276911E+04  0.7816531E-02  0.8168795E-01
          1   -1    0    0  501    0  0.00000000000E+00  0.00000000000E+00  0.19904162076E+04  0.19904162076E+04  0.00000000000E+00 0.  1.
         -1   -1    0    0    0  501 -0.00000000000E+00 -0.00000000000E+00 -0.13487314338E+04  0.13487314338E+04  0.00000000000E+00 0. -1.
    2000013    1    1    2    0    0  0.11852526817E+04 -0.22157275330E+03  0.90453782147E+03  0.17817427073E+04  0.95000000000E+03 0.  0.
   -2000013    1    1    2    0    0 -0.11852526817E+04  0.22157275330E+03 -0.26285304770E+03  0.15574049342E+04  0.95000000000E+03 0.  0.
<mgrwt>
<rscale>  0 0.32769113E+04</rscale>
<asrwt>0</asrwt>
<pdfrwt beam="1">  1        1 0.30621788E+00 0.32769113E+04</pdfrwt>
<pdfrwt beam="2">  1       -1 0.20749714E+00 0.32769113E+04</pdfrwt>
<totfact> 0.33619733E-01</totfact>
</mgrwt>
</event>
<event>
 4    1  0.2043502E-008  0.1952417E+04  0.7816531E-02  0.8629196E-01
         -1   -1    0    0    0  501 -0.00000000000E+00  0.00000000000E+00  0.54745374097E+03  0.54745374097E+03  0.00000000000E+00 0.  1.
          1   -1    0    0  501    0  0.00000000000E+00 -0.00000000000E+00 -0.17407549026E+04  0.17407549026E+04  0.00000000000E+00 0. -1.
    2000013    1    1    2    0    0  0.48546251945E+02  0.20355854054E+03 -0.69251005428E+03  0.11940950520E+04  0.95000000000E+03 0.  0.
   -2000013    1    1    2    0    0 -0.48546251945E+02 -0.20355854054E+03 -0.50079110738E+03  0.10941135916E+04  0.95000000000E+03 0.  0.
<mgrwt>
<rscale>  0 0.19524167E+04</rscale>
<asrwt>0</asrwt>
<pdfrwt beam="2">  1        1 0.26780844E+00 0.19524167E+04</pdfrwt>
<pdfrwt beam="1">  1       -1 0.84223654E-01 0.19524167E+04</pdfrwt>
<totfact> 0.58148693E+00</totfact>
</mgrwt>
</event>
<event>
 4    1  0.2043502E-008  0.4468047E+04  0.7816531E-02  0.7916255E-01
          2   -1    0    0  501    0  0.00000000000E+00  0.00000000000E+00  0.31324078662E+04  0.31324078662E+04  0.00000000000E+00 0.  1.
         -2   -1    0    0    0  501 -0.00000000000E+00 -0.00000000000E+00 -0.15932987856E+04  0.15932987856E+04  0.00000000000E+00 0. -1.
    2000013    1    1    2    0    0  0.12279551613E+03 -0.19988741794E+04  0.10645373564E+04  0.24589258848E+04  0.95000000000E+03 0.  0.
   -2000013    1    1    2    0    0 -0.12279551613E+03  0.19988741794E+04  0.47457172412E+03  0.22667807669E+04  0.95000000000E+03 0.  0.
<mgrwt>
<rscale>  0 0.44680473E+04</rscale>
<asrwt>0</asrwt>
<pdfrwt beam="1">  1        2 0.48190890E+00 0.44680473E+04</pdfrwt>
<pdfrwt beam="2">  1       -2 0.24512289E+00 0.44680473E+04</pdfrwt>
<totfact> 0.74984038E-02</totfact>
</mgrwt>
</event>
<event>
 4    1  0.2043502E-008  0.2340544E+04  0.7816531E-02  0.8462105E-01
          2   -1    0    0  501    0  0.00000000000E+00  0.00000000000E+00  0.86051400832E+03  0.86051400832E+03  0.00000000000E+00 0.  1.
         -2   -1    0    0    0  501 -0.00000000000E+00 -0.00000000000E+00 -0.15915327376E+04  0.15915327376E+04  0.00000000000E+00 0. -1.
    2000013    1    1    2    0    0 -0.38135410866E+03 -0.54641706139E+03 -0.20651072432E+03  0.11786217546E+04  0.95000000000E+03 0.  0.
   -2000013    1    1    2    0    0  0.38135410866E+03  0.54641706139E+03 -0.52450800492E+03  0.12734249913E+04  0.95000000000E+03 0.  0.
<mgrwt>
<rscale>  0 0.23405437E+04</rscale>
<asrwt>0</asrwt>
<pdfrwt beam="1">  1        2 0.13238677E+00 0.23405437E+04</pdfrwt>
<pdfrwt beam="2">  1       -2 0.24485119E+00 0.23405437E+04</pdfrwt>
<totfact> 0.19491634E+00</totfact>
</mgrwt>
</event>
<event>
 4    1  0.2043502E-008  0.2225812E+04  0.7816531E-02  0.8507761E-01
          2   -1    0    0  501    0  0.00000000000E+00  0.00000000000E+00  0.17427929995E+04  0.17427929995E+04  0.00000000000E+00 0.  1.
         -2   -1    0    0    0  501 -0.00000000000E+00 -0.00000000000E+00 -0.71067491714E+03  0.71067491714E+03  0.00000000000E+00 0. -1.
    2000013    1    1    2    0    0  0.37542060375E+03  0.23685763618E+02  0.29857737628E+02  0.10222001417E+04  0.95000000000E+03 0.  0.
   -2000013    1    1    2    0    0 -0.37542060375E+03 -0.23685763618E+02  0.10022603448E+04  0.14312677750E+04  0.95000000000E+03 0.  0.
<mgrwt>
<rscale>  0 0.22258116E+04</rscale>
<asrwt>0</asrwt>
<pdfrwt beam="1">  1        2 0.26812200E+00 0.22258116E+04</pdfrwt>
<pdfrwt beam="2">  1       -2 0.10933460E+00 0.22258116E+04</pdfrwt>
<totfact> 0.56462657E+00</totfact>
</mgrwt>
</event>
<event>
 4    1  0.2043502E-008  0.1995349E+04  0.7816531E-02  0.8608798E-01
          2   -1    0    0  501    0  0.00000000000E+00  0.00000000000E+00  0.23835348033E+04  0.23835348033E+04  0.00000000000E+00 0.  1.
         -2   -1    0    0    0  501 -0.00000000000E+00 -0.00000000000E+00 -0.41759609740E+03  0.41759609740E+03  0.00000000000E+00 0. -1.
    2000013    1    1    2    0    0  0.88613702014E+02  0.25675214432E+03  0.78905386066E+03  0.12644682862E+04  0.95000000000E+03 0.  0.
   -2000013    1    1    2    0    0 -0.88613702014E+02 -0.25675214432E+03  0.11768848452E+04  0.15366626144E+04  0.95000000000E+03 0.  0.
<mgrwt>
<rscale>  0 0.19953494E+04</rscale>
<asrwt>0</asrwt>
<pdfrwt beam="1">  1        2 0.36669765E+00 0.19953494E+04</pdfrwt>
<pdfrwt beam="2">  1       -2 0.64245555E-01 0.19953494E+04</pdfrwt>
<totfact> 0.84556891E+00</totfact>
</mgrwt>
</event>
<event>
 4    1  0.2043502E-008  0.2195258E+04  0.7816531E-02  0.8520404E-01
          2   -1    0    0  501    0  0.00000000000E+00  0.00000000000E+00  0.25602143949E+04  0.25602143949E+04  0.00000000000E+00 0.  1.
         -2   -1    0    0    0  501 -0.00000000000E+00 -0.00000000000E+00 -0.47058144233E+03  0.47058144233E+03  0.00000000000E+00 0. -1.
    2000013    1    1    2    0    0 -0.21968262526E+03  0.20663851526E+03  0.16794910980E+04  0.19529849667E+04  0.95000000000E+03 0.  0.
   -2000013    1    1    2    0    0  0.21968262526E+03 -0.20663851526E+03  0.41014185460E+03  0.10778108706E+04  0.95000000000E+03 0.  0.
<mgrwt>
<rscale>  0 0.21952580E+04</rscale>
<asrwt>0</asrwt>
<pdfrwt beam="1">  1        2 0.39387913E+00 0.21952580E+04</pdfrwt>
<pdfrwt beam="2">  1       -2 0.72397147E-01 0.21952580E+04</pdfrwt>
<totfact> 0.50703940E+00</totfact>
</mgrwt>
</event>
<event>
 4    1  0.2043502E-008  0.2568418E+04  0.7816531E-02  0.8379009E-01
         -2   -1    0    0    0  501 -0.00000000000E+00  0.00000000000E+00  0.15364617135E+04  0.15364617135E+04  0.00000000000E+00 0. -1.
          2   -1    0    0  501    0  0.00000000000E+00 -0.00000000000E+00 -0.10733708121E+04  0.10733708121E+04  0.00000000000E+00 0.  1.
    2000013    1    1    2    0    0 -0.11861828848E+03 -0.82432392023E+03 -0.26330523981E+01  0.12633634302E+04  0.95000000000E+03 0.  0.
   -2000013    1    1    2    0    0  0.11861828848E+03  0.82432392023E+03  0.46572395372E+03  0.13464690954E+04  0.95000000000E+03 0.  0.
<mgrwt>
<rscale>  0 0.25684183E+04</rscale>
<asrwt>0</asrwt>
<pdfrwt beam="2">  1        2 0.16513397E+00 0.25684183E+04</pdfrwt>
<pdfrwt beam="1">  1       -2 0.23637873E+00 0.25684183E+04</pdfrwt>
<totfact> 0.15656179E+00</totfact>
</mgrwt>
</event>
<event>
 4    1  0.2043502E-008  0.3248600E+04  0.7816531E-02  0.8176099E-01
         -1   -1    0    0    0  501 -0.00000000000E+00  0.00000000000E+00  0.16865790089E+04  0.16865790089E+04  0.00000000000E+00 0. -1.
          1   -1    0    0  501    0  0.00000000000E+00 -0.00000000000E+00 -0.15643207298E+04  0.15643207298E+04  0.00000000000E+00 0.  1.
    2000013    1    1    2    0    0 -0.17835062682E+03 -0.87074575056E+03  0.10343624226E+04  0.16620507602E+04  0.95000000000E+03 0.  0.
   -2000013    1    1    2    0    0  0.17835062682E+03  0.87074575056E+03 -0.91210414346E+03  0.15888489786E+04  0.95000000000E+03 0.  0.
<mgrwt>
<rscale>  0 0.32486000E+04</rscale>
<asrwt>0</asrwt>
<pdfrwt beam="2">  1        1 0.24066473E+00 0.32486000E+04</pdfrwt>
<pdfrwt beam="1">  1       -1 0.25947369E+00 0.32486000E+04</pdfrwt>
<totfact> 0.29753327E-01</totfact>
</mgrwt>
</event>
<event>
 4    1  0.2043502E-008  0.2099285E+04  0.7816531E-02  0.8561558E-01
         -2   -1    0    0    0  501 -0.00000000000E+00  0.00000000000E+00  0.14257631125E+04  0.14257631125E+04  0.00000000000E+00 0. -1.
          2   -1    0    0  501    0  0.00000000000E+00 -0.00000000000E+00 -0.77274359511E+03  0.77274359511E+03  0.00000000000E+00 0.  1.
    2000013    1    1    2    0    0 -0.65731854296E+02  0.32417131435E+03  0.12606999346E+02  0.10060152355E+04  0.95000000000E+03 0.  0.
   -2000013    1    1    2    0    0  0.65731854296E+02 -0.32417131435E+03  0.64041251806E+03  0.11924914721E+04  0.95000000000E+03 0.  0.
<mgrwt>
<rscale>  0 0.20992849E+04</rscale>
<asrwt>0</asrwt>
<pdfrwt beam="2">  1        2 0.11888363E+00 0.20992849E+04</pdfrwt>
<pdfrwt beam="1">  1       -2 0.21934817E+00 0.20992849E+04</pdfrwt>
<totfact> 0.33148787E+00</totfact>
</mgrwt>
</event>
<event>
 4    1  0.2043502E-008  0.4014515E+04  0.7816531E-02  0.8001625E-01
          1   -1    0    0  501    0  0.00000000000E+00  0.00000000000E+00  0.22904718468E+04  0.22904718468E+04  0.00000000000E+00 0.  1.
         -1   -1    0    0    0  501 -0.00000000000E+00 -0.00000000000E+00 -0.17590619762E+04  0.17590619762E+04  0.00000000000E+00 0. -1.
    2000013    1    1    2    0    0  0.14480099589E+04  0.92400005841E+03  0.68897577320E+03  0.20803116509E+04  0.95000000000E+03 0.  0.
   -2000013    1    1    2    0    0 -0.14480099589E+04 -0.92400005841E+03 -0.15756590260E+03  0.19692221720E+04  0.95000000000E+03 0.  0.
<mgrwt>
<rscale>  0 0.40145146E+04</rscale>
<asrwt>0</asrwt>
<pdfrwt beam="1">  1        1 0.35238029E+00 0.40145146E+04</pdfrwt>
<pdfrwt beam="2">  1       -1 0.27062492E+00 0.40145146E+04</pdfrwt>
<totfact> 0.75607715E-02</totfact>
</mgrwt>
</event>
<event>
 4    1  0.2043502E-008  0.2081876E+04  0.7816531E-02  0.8569269E-01
          2   -1    0    0  501    0  0.00000000000E+00  0.00000000000E+00  0.15034870183E+04  0.15034870183E+04  0.00000000000E+00 0.  1.
         -2   -1    0    0    0  501 -0.00000000000E+00 -0.00000000000E+00 -0.72069246276E+03  0.72069246276E+03  0.00000000000E+00 0. -1.
    2000013    1    1    2    0    0  0.38606751764E+03  0.21769021292E+02  0.58110072460E+03  0.11788554070E+04  0.95000000000E+03 0.  0.
   -2000013    1    1    2    0    0 -0.38606751764E+03 -0.21769021292E+02  0.20169383098E+03  0.10453240741E+04  0.95000000000E+03 0.  0.
<mgrwt>
<rscale>  0 0.20818758E+04</rscale>
<asrwt>0</asrwt>
<pdfrwt beam="1">  1        2 0.23130569E+00 0.20818758E+04</pdfrwt>
<pdfrwt beam="2">  1       -2 0.11087576E+00 0.20818758E+04</pdfrwt>
<totfact> 0.75174060E+00</totfact>
</mgrwt>
</event>
<event>
 4    1  0.2043502E-008  0.3159219E+04  0.7816531E-02  0.8199671E-01
         -2   -1    0    0    0  501 -0.00000000000E+00  0.00000000000E+00  0.15996833889E+04  0.15996833889E+04  0.00000000000E+00 0. -1.
          2   -1    0    0  501    0  0.00000000000E+00 -0.00000000000E+00 -0.15597878282E+04  0.15597878282E+04  0.00000000000E+00 0.  1.
    2000013    1    1    2    0    0  0.99686637256E+03  0.75635293589E+03  0.18383381732E+03  0.15818050451E+04  0.95000000000E+03 0.  0.
   -2000013    1    1    2    0    0 -0.99686637256E+03 -0.75635293589E+03 -0.14393825659E+03  0.15776661719E+04  0.95000000000E+03 0.  0.
<mgrwt>
<rscale>  0 0.31592193E+04</rscale>
<asrwt>0</asrwt>
<pdfrwt beam="2">  1        2 0.23996736E+00 0.31592193E+04</pdfrwt>
<pdfrwt beam="1">  1       -2 0.24610514E+00 0.31592193E+04</pdfrwt>
<totfact> 0.67402013E-01</totfact>
</mgrwt>
</event>
<event>
 4    1  0.2043502E-008  0.2551771E+04  0.7816531E-02  0.8384770E-01
         -2   -1    0    0    0  501 -0.00000000000E+00  0.00000000000E+00  0.69614811542E+03  0.69614811542E+03  0.00000000000E+00 0. -1.
          2   -1    0    0  501    0  0.00000000000E+00 -0.00000000000E+00 -0.23384165361E+04  0.23384165361E+04  0.00000000000E+00 0.  1.
    2000013    1    1    2    0    0 -0.82879431317E+03 -0.11755061290E+03 -0.63436515587E+03  0.14162052503E+04  0.95000000000E+03 0.  0.
   -2000013    1    1    2    0    0  0.82879431317E+03  0.11755061290E+03 -0.10079032648E+04  0.16183594012E+04  0.95000000000E+03 0.  0.
<mgrwt>
<rscale>  0 0.25517714E+04</rscale>
<asrwt>0</asrwt>
<pdfrwt beam="2">  1        2 0.35975638E+00 0.25517714E+04</pdfrwt>
<pdfrwt beam="1">  1       -2 0.10709971E+00 0.25517714E+04</pdfrwt>
<totfact> 0.26829349E+00</totfact>
</mgrwt>
</event>
<event>
 4    1  0.2043502E-008  0.4062398E+04  0.7816531E-02  0.7992076E-01
         -2   -1    0    0    0  501 -0.00000000000E+00  0.00000000000E+00  0.51705901568E+04  0.51705901568E+04  0.00000000000E+00 0. -1.
          2   -1    0    0  501    0  0.00000000000E+00 -0.00000000000E+00 -0.79793010568E+03  0.79793010568E+03  0.00000000000E+00 0.  1.
    2000013    1    1    2    0    0 -0.54648209012E+03  0.16790905014E+04  0.17096124299E+04  0.26350070677E+04  0.95000000000E+03 0.  0.
   -2000013    1    1    2    0    0  0.54648209012E+03 -0.16790905014E+04  0.26630476213E+04  0.33335131948E+04  0.95000000000E+03 0.  0.
<mgrwt>
<rscale>  0 0.40623981E+04</rscale>
<asrwt>0</asrwt>
<pdfrwt beam="2">  1        2 0.12275848E+00 0.40623981E+04</pdfrwt>
<pdfrwt beam="1">  1       -2 0.79547539E+00 0.40623981E+04</pdfrwt>
<totfact> 0.22637522E-03</totfact>
</mgrwt>
</event>
<event>
 4    1  0.2043502E-008  0.3348989E+04  0.7816531E-02  0.8150541E-01
         -2   -1    0    0    0  501 -0.00000000000E+00  0.00000000000E+00  0.87587085396E+03  0.87587085396E+03  0.00000000000E+00 0. -1.
          2   -1    0    0  501    0  0.00000000000E+00 -0.00000000000E+00 -0.32013079780E+04  0.32013079780E+04  0.00000000000E+00 0.  1.
    2000013    1    1    2    0    0 -0.62588220704E+03  0.11378005696E+04 -0.59806767659E+03  0.17165382661E+04  0.95000000000E+03 0.  0.
   -2000013    1    1    2    0    0  0.62588220704E+03 -0.11378005696E+04 -0.17273694475E+04  0.23606405659E+04  0.95000000000E+03 0.  0.
<mgrwt>
<rscale>  0 0.33489893E+04</rscale>
<asrwt>0</asrwt>
<pdfrwt beam="2">  1        2 0.49250891E+00 0.33489893E+04</pdfrwt>
<pdfrwt beam="1">  1       -2 0.13474936E+00 0.33489893E+04</pdfrwt>
<totfact> 0.42633954E-01</totfact>
</mgrwt>
</event>
<event>
 4    1  0.2043502E-008  0.2463786E+04  0.7816531E-02  0.8416002E-01
          2   -1    0    0  501    0  0.00000000000E+00  0.00000000000E+00  0.14247925092E+04  0.14247925092E+04  0.00000000000E+00 0.  1.
         -2   -1    0    0    0  501 -0.00000000000E+00 -0.00000000000E+00 -0.10651099793E+04  0.10651099793E+04  0.00000000000E+00 0. -1.
    2000013    1    1    2    0    0 -0.69891686499E+03 -0.22205161956E+03  0.46076083196E+03  0.12855318939E+04  0.95000000000E+03 0.  0.
   -2000013    1    1    2    0    0  0.69891686499E+03  0.22205161956E+03 -0.10107830211E+03  0.12043705946E+04  0.95000000000E+03 0.  0.
<mgrwt>
<rscale>  0 0.24637863E+04</rscale>
<asrwt>0</asrwt>
<pdfrwt beam="1">  1        2 0.21919885E+00 0.24637863E+04</pdfrwt>
<pdfrwt beam="2">  1       -2 0.16386307E+00 0.24637863E+04</pdfrwt>
<totfact> 0.29567773E+00</totfact>
</mgrwt>
</event>
<event>
 4    1  0.2043502E-008  0.3129067E+04  0.7816531E-02  0.8207806E-01
          2   -1    0    0  501    0  0.00000000000E+00  0.00000000000E+00  0.26295968128E+04  0.26295968128E+04  0.00000000000E+00 0.  1.
         -2   -1    0    0    0  501 -0.00000000000E+00 -0.00000000000E+00 -0.93085210167E+03  0.93085210167E+03  0.00000000000E+00 0. -1.
    2000013    1    1    2    0    0 -0.73798402340E+03  0.78323402743E+03  0.15574025357E+04  0.21180365008E+04  0.95000000000E+03 0.  0.
   -2000013    1    1    2    0    0  0.73798402340E+03 -0.78323402743E+03  0.14134217544E+03  0.14424124137E+04  0.95000000000E+03 0.  0.
<mgrwt>
<rscale>  0 0.31290674E+04</rscale>
<asrwt>0</asrwt>
<pdfrwt beam="1">  1        2 0.40455335E+00 0.31290674E+04</pdfrwt>
<pdfrwt beam="2">  1       -2 0.14320802E+00 0.31290674E+04</pdfrwt>
<totfact> 0.83803072E-01</totfact>
</mgrwt>
</event>
<event>
 4    1  0.2043502E-008  0.2132918E+04  0.7816531E-02  0.8546880E-01
         -2   -1    0    0    0  501 -0.00000000000E+00  0.00000000000E+00  0.38147337577E+03  0.38147337577E+03  0.00000000000E+00 0. -1.
          2   -1    0    0  501    0  0.00000000000E+00 -0.00000000000E+00 -0.29814255188E+04  0.29814255188E+04  0.00000000000E+00 0.  1.
    2000013    1    1    2    0    0 -0.15429468609E+03 -0.45928211920E+03 -0.12852241631E+04  0.16700443301E+04  0.95000000000E+03 0.  0.
   -2000013    1    1    2    0    0  0.15429468609E+03  0.45928211920E+03 -0.13147279799E+04  0.16928545644E+04  0.95000000000E+03 0.  0.
<mgrwt>
<rscale>  0 0.21329177E+04</rscale>
<asrwt>0</asrwt>
<pdfrwt beam="2">  1        2 0.45868084E+00 0.21329177E+04</pdfrwt>
<pdfrwt beam="1">  1       -2 0.58688212E-01 0.21329177E+04</pdfrwt>
<totfact> 0.44673934E+00</totfact>
</mgrwt>
</event>
<event>
 4    1  0.2043502E-008  0.1997064E+04  0.7816531E-02  0.8607995E-01
          2   -1    0    0  501    0  0.00000000000E+00  0.00000000000E+00  0.11505995469E+04  0.11505995469E+04  0.00000000000E+00 0.  1.
         -2   -1    0    0    0  501 -0.00000000000E+00 -0.00000000000E+00 -0.86656194010E+03  0.86656194010E+03  0.00000000000E+00 0. -1.
    2000013    1    1    2    0    0 -0.18299543093E+03  0.23600814981E+03  0.21609581176E+03  0.10190115673E+04  0.95000000000E+03 0.  0.
   -2000013    1    1    2    0    0  0.18299543093E+03 -0.23600814981E+03  0.67941795004E+02  0.99814991961E+03  0.95000000000E+03 0.  0.
<mgrwt>
<rscale>  0 0.19970636E+04</rscale>
<asrwt>0</asrwt>
<pdfrwt beam="1">  1        2 0.17701532E+00 0.19970636E+04</pdfrwt>
<pdfrwt beam="2">  1       -2 0.13331722E+00 0.19970636E+04</pdfrwt>
<totfact> 0.76797749E+00</totfact>
</mgrwt>
</event>
<event>
 4    1  0.2043502E-008  0.2880431E+04  0.7816531E-02  0.8278724E-01
          1   -1    0    0  501    0  0.00000000000E+00  0.00000000000E+00  0.34552560277E+04  0.34552560277E+04  0.00000000000E+00 0.  1.
         -1   -1    0    0    0  501 -0.00000000000E+00 -0.00000000000E+00 -0.60030867602E+03  0.60030867602E+03  0.00000000000E+00 0. -1.
    2000013    1    1    2    0    0  0.76775004182E+02 -0.97577151554E+03  0.20783400331E+04  0.24859649525E+04  0.95000000000E+03 0.  0.
   -2000013    1    1    2    0    0 -0.76775004182E+02  0.97577151554E+03  0.77660731857E+03  0.15695997512E+04  0.95000000000E+03 0.  0.
<mgrwt>
<rscale>  0 0.28804306E+04</rscale>
<asrwt>0</asrwt>
<pdfrwt beam="1">  1        1 0.53157784E+00 0.28804306E+04</pdfrwt>
<pdfrwt beam="2">  1       -1 0.92355183E-01 0.28804306E+04</pdfrwt>
<totfact> 0.26558628E-01</totfact>
</mgrwt>
</event>
<event>
 4    1  0.2043502E-008  0.2470338E+04  0.7816531E-02  0.8413630E-01
         -2   -1    0    0    0  501 -0.00000000000E+00  0.00000000000E+00  0.13411822468E+04  0.13411822468E+04  0.00000000000E+00 0. -1.
          2   -1    0    0  501    0  0.00000000000E+00 -0.00000000000E+00 -0.11375356519E+04  0.11375356519E+04  0.00000000000E+00 0.  1.
    2000013    1    1    2    0    0 -0.69440397364E+03  0.34933192666E+03 -0.36167559616E+02  0.12280218915E+04  0.95000000000E+03 0.  0.
   -2000013    1    1    2    0    0  0.69440397364E+03 -0.34933192666E+03  0.23981415454E+03  0.12506960072E+04  0.95000000000E+03 0.  0.
<mgrwt>
<rscale>  0 0.24703381E+04</rscale>
<asrwt>0</asrwt>
<pdfrwt beam="2">  1        2 0.17500548E+00 0.24703381E+04</pdfrwt>
<pdfrwt beam="1">  1       -2 0.20633573E+00 0.24703381E+04</pdfrwt>
<totfact> 0.22334098E+00</totfact>
</mgrwt>
</event>
<event>
 4    1  0.2043502E-008  0.2282138E+04  0.7816531E-02  0.8484997E-01
          1   -1    0    0  501    0  0.00000000000E+00  0.00000000000E+00  0.18733140166E+04  0.18733140166E+04  0.00000000000E+00 0. -1.
         -1   -1    0    0    0  501 -0.00000000000E+00 -0.00000000000E+00 -0.69504570500E+03  0.69504570500E+03  0.00000000000E+00 0.  1.
    2000013    1    1    2    0    0 -0.59969799240E+03  0.19957599565E+03  0.59859042880E+03  0.12885180486E+04  0.95000000000E+03 0.  0.
   -2000013    1    1    2    0    0  0.59969799240E+03 -0.19957599565E+03  0.57967788281E+03  0.12798416730E+04  0.95000000000E+03 0.  0.
<mgrwt>
<rscale>  0 0.22821383E+04</rscale>
<asrwt>0</asrwt>
<pdfrwt beam="1">  1        1 0.28820216E+00 0.22821383E+04</pdfrwt>
<pdfrwt beam="2">  1       -1 0.10693011E+00 0.22821383E+04</pdfrwt>
<totfact> 0.26824295E+00</totfact>
</mgrwt>
</event>
<event>
 4    1  0.2043502E-008  0.2128010E+04  0.7816531E-02  0.8549004E-01
          1   -1    0    0  501    0  0.00000000000E+00  0.00000000000E+00  0.22622618788E+04  0.22622618788E+04  0.00000000000E+00 0. -1.
         -1   -1    0    0    0  501 -0.00000000000E+00 -0.00000000000E+00 -0.50043147316E+03  0.50043147316E+03  0.00000000000E+00 0.  1.
    2000013    1    1    2    0    0  0.30540929464E+03  0.36912942811E+03  0.86962169827E+03  0.13741445594E+04  0.95000000000E+03 0.  0.
   -2000013    1    1    2    0    0 -0.30540929464E+03 -0.36912942811E+03  0.89220870740E+03  0.13885487926E+04  0.95000000000E+03 0.  0.
<mgrwt>
<rscale>  0 0.21280104E+04</rscale>
<asrwt>0</asrwt>
<pdfrwt beam="1">  1        1 0.34804028E+00 0.21280104E+04</pdfrwt>
<pdfrwt beam="2">  1       -1 0.76989459E-01 0.21280104E+04</pdfrwt>
<totfact> 0.30663719E+00</totfact>
</mgrwt>
</event>
<event>
 4    1  0.2043502E-008  0.2824116E+04  0.7816531E-02  0.8295820E-01
          2   -1    0    0  501    0  0.00000000000E+00  0.00000000000E+00  0.19958969690E+04  0.19958969690E+04  0.00000000000E+00 0.  1.
         -2   -1    0    0    0  501 -0.00000000000E+00 -0.00000000000E+00 -0.99900365399E+03  0.99900365399E+03  0.00000000000E+00 0. -1.
    2000013    1    1    2    0    0 -0.25672491453E+03  0.10071923582E+04  0.38689897385E+03  0.14603201512E+04  0.95000000000E+03 0.  0.
   -2000013    1    1    2    0    0  0.25672491453E+03 -0.10071923582E+04  0.60999434117E+03  0.15345804718E+04  0.95000000000E+03 0.  0.
<mgrwt>
<rscale>  0 0.28241164E+04</rscale>
<asrwt>0</asrwt>
<pdfrwt beam="1">  1        2 0.30706107E+00 0.28241164E+04</pdfrwt>
<pdfrwt beam="2">  1       -2 0.15369287E+00 0.28241164E+04</pdfrwt>
<totfact> 0.16381129E+00</totfact>
</mgrwt>
</event>
<event>
 4    1  0.2043502E-008  0.2169867E+04  0.7816531E-02  0.8531076E-01
         -2   -1    0    0    0  501 -0.00000000000E+00  0.00000000000E+00  0.12093912060E+04  0.12093912060E+04  0.00000000000E+00 0. -1.
          2   -1    0    0  501    0  0.00000000000E+00 -0.00000000000E+00 -0.97328364308E+03  0.97328364308E+03  0.00000000000E+00 0.  1.
    2000013    1    1    2    0    0 -0.14485823189E+03 -0.50333899054E+03  0.13385100641E+03  0.10930462656E+04  0.95000000000E+03 0.  0.
   -2000013    1    1    2    0    0  0.14485823189E+03  0.50333899054E+03  0.10225655656E+03  0.10896285836E+04  0.95000000000E+03 0.  0.
<mgrwt>
<rscale>  0 0.21698670E+04</rscale>
<asrwt>0</asrwt>
<pdfrwt beam="2">  1        2 0.14973595E+00 0.21698670E+04</pdfrwt>
<pdfrwt beam="1">  1       -2 0.18606019E+00 0.21698670E+04</pdfrwt>
<totfact> 0.39570586E+00</totfact>
</mgrwt>
</event>
<event>
 4    1  0.2043502E-008  0.2487749E+04  0.7816531E-02  0.8407363E-01
         -2   -1    0    0    0  501 -0.00000000000E+00  0.00000000000E+00  0.60140905013E+03  0.60140905013E+03  0.00000000000E+00 0. -1.
          2   -1    0    0  501    0  0.00000000000E+00 -0.00000000000E+00 -0.25726653481E+04  0.25726653481E+04  0.00000000000E+00 0.  1.
    2000013    1    1    2    0    0  0.27945986082E+03 -0.75128940026E+03 -0.10453449640E+04  0.16241242780E+04  0.95000000000E+03 0.  0.
   -2000013    1    1    2    0    0 -0.27945986082E+03  0.75128940026E+03 -0.92591133401E+03  0.15499501202E+04  0.95000000000E+03 0.  0.
<mgrwt>
<rscale>  0 0.24877494E+04</rscale>
<asrwt>0</asrwt>
<pdfrwt beam="2">  1        2 0.39579468E+00 0.24877494E+04</pdfrwt>
<pdfrwt beam="1">  1       -2 0.92524466E-01 0.24877494E+04</pdfrwt>
<totfact> 0.27938691E+00</totfact>
</mgrwt>
</event>
<event>
 4    1  0.2043502E-008  0.2574208E+04  0.7816531E-02  0.8377015E-01
         -2   -1    0    0    0  501 -0.00000000000E+00  0.00000000000E+00  0.78611912343E+03  0.78611912343E+03  0.00000000000E+00 0. -1.
          2   -1    0    0  501    0  0.00000000000E+00 -0.00000000000E+00 -0.21073611256E+04  0.21073611256E+04  0.00000000000E+00 0.  1.
    2000013    1    1    2    0    0  0.33288845721E+02  0.59827477855E+03  0.45905071070E+02  0.11241210493E+04  0.95000000000E+03 0.  0.
   -2000013    1    1    2    0    0 -0.33288845721E+02 -0.59827477855E+03 -0.13671470733E+04  0.17693591998E+04  0.95000000000E+03 0.  0.
<mgrwt>
<rscale>  0 0.25742081E+04</rscale>
<asrwt>0</asrwt>
<pdfrwt beam="2">  1        2 0.32420940E+00 0.25742081E+04</pdfrwt>
<pdfrwt beam="1">  1       -2 0.12094141E+00 0.25742081E+04</pdfrwt>
<totfact> 0.26867791E+00</totfact>
</mgrwt>
</event>
<event>
 4    1  0.2043502E-008  0.2491240E+04  0.7816531E-02  0.8406113E-01
          2   -1    0    0  501    0  0.00000000000E+00  0.00000000000E+00  0.31077848880E+04  0.31077848880E+04  0.00000000000E+00 0. -1.
         -2   -1    0    0    0  501 -0.00000000000E+00 -0.00000000000E+00 -0.49925230306E+03  0.49925230306E+03  0.00000000000E+00 0.  1.
    2000013    1    1    2    0    0  0.10070844408E+03  0.52441930006E+03  0.21777055030E+04  0.24351712570E+04  0.95000000000E+03 0.  0.
   -2000013    1    1    2    0    0 -0.10070844408E+03 -0.52441930006E+03  0.43082708196E+03  0.11718659341E+04  0.95000000000E+03 0.  0.
<mgrwt>
<rscale>  0 0.24912397E+04</rscale>
<asrwt>0</asrwt>
<pdfrwt beam="1">  1        2 0.47812074E+00 0.24912397E+04</pdfrwt>
<pdfrwt beam="2">  1       -2 0.76808048E-01 0.24912397E+04</pdfrwt>
<totfact> 0.20114961E+00</totfact>
</mgrwt>
</event>
<event>
 4    1  0.2043502E-008  0.2678607E+04  0.7816531E-02  0.8341980E-01
         -2   -1    0    0    0  501 -0.00000000000E+00  0.00000000000E+00  0.10052297870E+04  0.10052297870E+04  0.00000000000E+00 0. -1.
          2   -1    0    0  501    0  0.00000000000E+00 -0.00000000000E+00 -0.17844016119E+04  0.17844016119E+04  0.00000000000E+00 0.  1.
    2000013    1    1    2    0    0 -0.79728724522E+03  0.33970733264E+03  0.31891670789E+00  0.12859113986E+04  0.95000000000E+03 0.  0.
   -2000013    1    1    2    0    0  0.79728724522E+03 -0.33970733264E+03 -0.77949074154E+03  0.15037200003E+04  0.95000000000E+03 0.  0.
<mgrwt>
<rscale>  0 0.26786068E+04</rscale>
<asrwt>0</asrwt>
<pdfrwt beam="2">  1        2 0.27452332E+00 0.26786068E+04</pdfrwt>
<pdfrwt beam="1">  1       -2 0.15465074E+00 0.26786068E+04</pdfrwt>
<totfact> 0.21369325E+00</totfact>
</mgrwt>
</event>
<event>
 4    1  0.2043502E-008  0.2501764E+04  0.7816531E-02  0.8402357E-01
         -2   -1    0    0    0  501 -0.00000000000E+00  0.00000000000E+00  0.93581029461E+03  0.93581029461E+03  0.00000000000E+00 0. -1.
          2   -1    0    0  501    0  0.00000000000E+00 -0.00000000000E+00 -0.16720331312E+04  0.16720331312E+04  0.00000000000E+00 0.  1.
    2000013    1    1    2    0    0  0.13697588487E+03 -0.79564431578E+03 -0.26183985805E+03  0.12739200844E+04  0.95000000000E+03 0.  0.
   -2000013    1    1    2    0    0 -0.13697588487E+03  0.79564431578E+03 -0.47438297850E+03  0.13339233413E+04  0.95000000000E+03 0.  0.
<mgrwt>
<rscale>  0 0.25017640E+04</rscale>
<asrwt>0</asrwt>
<pdfrwt beam="2">  1        2 0.25723587E+00 0.25017640E+04</pdfrwt>
<pdfrwt beam="1">  1       -2 0.14397081E+00 0.25017640E+04</pdfrwt>
<totfact> 0.30268426E+00</totfact>
</mgrwt>
</event>
<event>
 4    1  0.2043502E-008  0.2521452E+04  0.7816531E-02  0.8395383E-01
         -2   -1    0    0    0  501 -0.00000000000E+00  0.00000000000E+00  0.11352159415E+04  0.11352159415E+04  0.00000000000E+00 0. -1.
          2   -1    0    0  501    0  0.00000000000E+00 -0.00000000000E+00 -0.14001130046E+04  0.14001130046E+04  0.00000000000E+00 0.  1.
    2000013    1    1    2    0    0 -0.14518849684E+03 -0.47366775512E+03 -0.80055219284E+03  0.13374694970E+04  0.95000000000E+03 0.  0.
   -2000013    1    1    2    0    0  0.14518849684E+03  0.47366775512E+03  0.53565512969E+03  0.11978594491E+04  0.95000000000E+03 0.  0.
<mgrwt>
<rscale>  0 0.25214524E+04</rscale>
<asrwt>0</asrwt>
<pdfrwt beam="2">  1        2 0.21540200E+00 0.25214524E+04</pdfrwt>
<pdfrwt beam="1">  1       -2 0.17464860E+00 0.25214524E+04</pdfrwt>
<totfact> 0.25456588E+00</totfact>
</mgrwt>
</event>
<event>
 4    1  0.2043502E-008  0.1985119E+04  0.7816531E-02  0.8613610E-01
          2   -1    0    0  501    0  0.00000000000E+00  0.00000000000E+00  0.67133434262E+03  0.67133434262E+03  0.00000000000E+00 0.  1.
         -2   -1    0    0    0  501 -0.00000000000E+00 -0.00000000000E+00 -0.14674874104E+04  0.14674874104E+04  0.00000000000E+00 0. -1.
    2000013    1    1    2    0    0  0.57583290174E+02 -0.26966805567E+03 -0.48585876383E+03  0.11020868541E+04  0.95000000000E+03 0.  0.
   -2000013    1    1    2    0    0 -0.57583290174E+02  0.26966805567E+03 -0.31029430392E+03  0.10367348989E+04  0.95000000000E+03 0.  0.
<mgrwt>
<rscale>  0 0.19851193E+04</rscale>
<asrwt>0</asrwt>
<pdfrwt beam="1">  1        2 0.10328221E+00 0.19851193E+04</pdfrwt>
<pdfrwt beam="2">  1       -2 0.22576729E+00 0.19851193E+04</pdfrwt>
<totfact> 0.36495040E+00</totfact>
</mgrwt>
</event>
<event>
 4    1  0.2043502E-008  0.3074438E+04  0.7816531E-02  0.8222788E-01
         -2   -1    0    0    0  501 -0.00000000000E+00  0.00000000000E+00  0.12868727503E+04  0.12868727503E+04  0.00000000000E+00 0. -1.
          2   -1    0    0  501    0  0.00000000000E+00 -0.00000000000E+00 -0.18362673898E+04  0.18362673898E+04  0.00000000000E+00 0.  1.
    2000013    1    1    2    0    0 -0.80574650894E+02 -0.10554543621E+04  0.31769238116E+03  0.14573622178E+04  0.95000000000E+03 0.  0.
   -2000013    1    1    2    0    0  0.80574650894E+02  0.10554543621E+04 -0.86708702070E+03  0.16657779223E+04  0.95000000000E+03 0.  0.
<mgrwt>
<rscale>  0 0.30744381E+04</rscale>
<asrwt>0</asrwt>
<pdfrwt beam="2">  1        2 0.28250267E+00 0.30744381E+04</pdfrwt>
<pdfrwt beam="1">  1       -2 0.19798042E+00 0.30744381E+04</pdfrwt>
<totfact> 0.96127482E-01</totfact>
</mgrwt>
</event>
<event>
 4    1  0.2043502E-008  0.2108651E+04  0.7816531E-02  0.8557442E-01
          2   -1    0    0  501    0  0.00000000000E+00  0.00000000000E+00  0.19383377418E+04  0.19383377418E+04  0.00000000000E+00 0.  1.
         -2   -1    0    0    0  501 -0.00000000000E+00 -0.00000000000E+00 -0.57348244434E+03  0.57348244434E+03  0.00000000000E+00 0. -1.
    2000013    1    1    2    0    0  0.63136490443E+02  0.43072964877E+03  0.84914601944E+03  0.13465003561E+04  0.95000000000E+03 0.  0.
   -2000013    1    1    2    0    0 -0.63136490443E+02 -0.43072964877E+03  0.51570927802E+03  0.11653198300E+04  0.95000000000E+03 0.  0.
<mgrwt>
<rscale>  0 0.21086514E+04</rscale>
<asrwt>0</asrwt>
<pdfrwt beam="1">  1        2 0.29820580E+00 0.21086514E+04</pdfrwt>
<pdfrwt beam="2">  1       -2 0.88228070E-01 0.21086514E+04</pdfrwt>
<totfact> 0.73658155E+00</totfact>
</mgrwt>
</event>
<event>
 4    1  0.2043502E-008  0.2587111E+04  0.7816531E-02  0.8372592E-01
          3   -1    0    0  501    0  0.00000000000E+00  0.00000000000E+00  0.14593628898E+04  0.14593628898E+04  0.00000000000E+00 0.  1.
         -3   -1    0    0    0  501 -0.00000000000E+00 -0.00000000000E+00 -0.11465868867E+04  0.11465868867E+04  0.00000000000E+00 0. -1.
    2000013    1    1    2    0    0 -0.47256969398E+03  0.58387016558E+03 -0.30140999047E+03  0.12480282322E+04  0.95000000000E+03 0.  0.
   -2000013    1    1    2    0    0  0.47256969398E+03 -0.58387016558E+03  0.61418599351E+03  0.13579215443E+04  0.95000000000E+03 0.  0.
<mgrwt>
<rscale>  0 0.25871114E+04</rscale>
<asrwt>0</asrwt>
<pdfrwt beam="1">  1        3 0.22451737E+00 0.25871114E+04</pdfrwt>
<pdfrwt beam="2">  1       -3 0.17639798E+00 0.25871114E+04</pdfrwt>
<totfact> 0.50194595E-02</totfact>
</mgrwt>
</event>
<event>
 4    1  0.2043502E-008  0.2900562E+04  0.7816531E-02  0.8272710E-01
         -2   -1    0    0    0  501 -0.00000000000E+00  0.00000000000E+00  0.92447426404E+03  0.92447426404E+03  0.00000000000E+00 0. -1.
          2   -1    0    0  501    0  0.00000000000E+00 -0.00000000000E+00 -0.22751470254E+04  0.22751470254E+04  0.00000000000E+00 0.  1.
    2000013    1    1    2    0    0 -0.72740288820E+03  0.78505326838E+03 -0.93495576776E+03  0.17094051257E+04  0.95000000000E+03 0.  0.
   -2000013    1    1    2    0    0  0.72740288820E+03 -0.78505326838E+03 -0.41571699356E+03  0.14902161637E+04  0.95000000000E+03 0.  0.
<mgrwt>
<rscale>  0 0.29005619E+04</rscale>
<asrwt>0</asrwt>
<pdfrwt beam="2">  1        2 0.35002262E+00 0.29005619E+04</pdfrwt>
<pdfrwt beam="1">  1       -2 0.14222681E+00 0.29005619E+04</pdfrwt>
<totfact> 0.13929912E+00</totfact>
</mgrwt>
</event>
<event>
 4    1  0.2043502E-008  0.2661093E+04  0.7816531E-02  0.8347740E-01
          2   -1    0    0  501    0  0.00000000000E+00  0.00000000000E+00  0.14668444835E+04  0.14668444835E+04  0.00000000000E+00 0.  1.
         -2   -1    0    0    0  501 -0.00000000000E+00 -0.00000000000E+00 -0.12069131598E+04  0.12069131598E+04  0.00000000000E+00 0. -1.
    2000013    1    1    2    0    0  0.74565345190E+03 -0.12224596694E+03 -0.41752279519E+03  0.12836543270E+04  0.95000000000E+03 0.  0.
   -2000013    1    1    2    0    0 -0.74565345190E+03  0.12224596694E+03  0.67745411886E+03  0.13901033163E+04  0.95000000000E+03 0.  0.
<mgrwt>
<rscale>  0 0.26610929E+04</rscale>
<asrwt>0</asrwt>
<pdfrwt beam="1">  1        2 0.22566838E+00 0.26610929E+04</pdfrwt>
<pdfrwt beam="2">  1       -2 0.18567895E+00 0.26610929E+04</pdfrwt>
<totfact> 0.19341596E+00</totfact>
</mgrwt>
</event>
<event>
 4    1  0.2043502E-008  0.3117879E+04  0.7816531E-02  0.8210848E-01
          2   -1    0    0  501    0  0.00000000000E+00  0.00000000000E+00  0.19138690444E+04  0.19138690444E+04  0.00000000000E+00 0.  1.
         -2   -1    0    0    0  501 -0.00000000000E+00 -0.00000000000E+00 -0.12698318461E+04  0.12698318461E+04  0.00000000000E+00 0. -1.
    2000013    1    1    2    0    0  0.25115467469E+03  0.11658063275E+04  0.65385429140E+03  0.16589781488E+04  0.95000000000E+03 0.  0.
   -2000013    1    1    2    0    0 -0.25115467469E+03 -0.11658063275E+04 -0.98170930370E+01  0.15247227417E+04  0.95000000000E+03 0.  0.
<mgrwt>
<rscale>  0 0.31178787E+04</rscale>
<asrwt>0</asrwt>
<pdfrwt beam="1">  1        2 0.29444139E+00 0.31178787E+04</pdfrwt>
<pdfrwt beam="2">  1       -2 0.19535874E+00 0.31178787E+04</pdfrwt>
<totfact> 0.90277588E-01</totfact>
</mgrwt>
</event>
<event>
 4    1  0.2043502E-008  0.2046800E+04  0.7816531E-02  0.8585048E-01
         -2   -1    0    0    0  501 -0.00000000000E+00  0.00000000000E+00  0.16896851048E+04  0.16896851048E+04  0.00000000000E+00 0. -1.
          2   -1    0    0  501    0  0.00000000000E+00 -0.00000000000E+00 -0.61984754423E+03  0.61984754423E+03  0.00000000000E+00 0.  1.
    2000013    1    1    2    0    0 -0.33650223695E+03 -0.57278789042E+02  0.34498964380E+03  0.10667860467E+04  0.95000000000E+03 0.  0.
   -2000013    1    1    2    0    0  0.33650223695E+03  0.57278789042E+02  0.72484791681E+03  0.12427466023E+04  0.95000000000E+03 0.  0.
<mgrwt>
<rscale>  0 0.20467996E+04</rscale>
<asrwt>0</asrwt>
<pdfrwt beam="2">  1        2 0.95361161E-01 0.20467996E+04</pdfrwt>
<pdfrwt beam="1">  1       -2 0.25995155E+00 0.20467996E+04</pdfrwt>
<totfact> 0.24632303E+00</totfact>
</mgrwt>
</event>
<event>
 4    1  0.2043502E-008  0.3699471E+04  0.7816531E-02  0.8068079E-01
         -2   -1    0    0    0  501 -0.00000000000E+00  0.00000000000E+00  0.12031482055E+04  0.12031482055E+04  0.00000000000E+00 0. -1.
          2   -1    0    0  501    0  0.00000000000E+00 -0.00000000000E+00 -0.28438066294E+04  0.28438066294E+04  0.00000000000E+00 0.  1.
    2000013    1    1    2    0    0  0.11299833037E+04  0.10368819696E+04 -0.12674158316E+04  0.22047288667E+04  0.95000000000E+03 0.  0.
   -2000013    1    1    2    0    0 -0.11299833037E+04 -0.10368819696E+04 -0.37324259225E+03  0.18422259682E+04  0.95000000000E+03 0.  0.
<mgrwt>
<rscale>  0 0.36994707E+04</rscale>
<asrwt>0</asrwt>
<pdfrwt beam="2">  1        2 0.43750871E+00 0.36994707E+04</pdfrwt>
<pdfrwt beam="1">  1       -2 0.18509972E+00 0.36994707E+04</pdfrwt>
<totfact> 0.29401537E-01</totfact>
</mgrwt>
</event>
<event>
 4    1  0.2043502E-008  0.2290372E+04  0.7816531E-02  0.8481727E-01
         -2   -1    0    0    0  501 -0.00000000000E+00  0.00000000000E+00  0.67882057504E+03  0.67882057504E+03  0.00000000000E+00 0. -1.
          2   -1    0    0  501    0  0.00000000000E+00 -0.00000000000E+00 -0.19319548712E+04  0.19319548712E+04  0.00000000000E+00 0.  1.
    2000013    1    1    2    0    0 -0.45895520348E+03 -0.74261026600E+02 -0.12605721449E+03  0.10651502242E+04  0.95000000000E+03 0.  0.
   -2000013    1    1    2    0    0  0.45895520348E+03  0.74261026600E+02 -0.11270770816E+04  0.15456252220E+04  0.95000000000E+03 0.  0.
<mgrwt>
<rscale>  0 0.22903718E+04</rscale>
<asrwt>0</asrwt>
<pdfrwt beam="2">  1        2 0.29722382E+00 0.22903718E+04</pdfrwt>
<pdfrwt beam="1">  1       -2 0.10443394E+00 0.22903718E+04</pdfrwt>
<totfact> 0.49251211E+00</totfact>
</mgrwt>
</event>
<event>
 4    1  0.2043502E-008  0.3356264E+04  0.7816531E-02  0.8148725E-01
         -2   -1    0    0    0  501 -0.00000000000E+00  0.00000000000E+00  0.13345799502E+04  0.13345799502E+04  0.00000000000E+00 0. -1.
          2   -1    0    0  501    0  0.00000000000E+00 -0.00000000000E+00 -0.21101225778E+04  0.21101225778E+04  0.00000000000E+00 0.  1.
    2000013    1    1    2    0    0 -0.10731792710E+04 -0.26253613280E+03 -0.12421660107E+04  0.19147102566E+04  0.95000000000E+03 0.  0.
   -2000013    1    1    2    0    0  0.10731792710E+04  0.26253613280E+03  0.46662338309E+03  0.15299922713E+04  0.95000000000E+03 0.  0.
<mgrwt>
<rscale>  0 0.33562642E+04</rscale>
<asrwt>0</asrwt>
<pdfrwt beam="2">  1        2 0.32463424E+00 0.33562642E+04</pdfrwt>
<pdfrwt beam="1">  1       -2 0.20531999E+00 0.33562642E+04</pdfrwt>
<totfact> 0.59201329E-01</totfact>
</mgrwt>
</event>
<event>
 4    1  0.2043502E-008  0.2423661E+04  0.7816531E-02  0.8430698E-01
          2   -1    0    0  501    0  0.00000000000E+00  0.00000000000E+00  0.35459895490E+04  0.35459895490E+04  0.00000000000E+00 0.  1.
         -2   -1    0    0    0  501 -0.00000000000E+00 -0.00000000000E+00 -0.41413919516E+03  0.41413919516E+03  0.00000000000E+00 0. -1.
    2000013    1    1    2    0    0  0.87859262905E+01  0.69628996716E+03  0.20313452838E+04  0.23481398112E+04  0.95000000000E+03 0.  0.
   -2000013    1    1    2    0    0 -0.87859262905E+01 -0.69628996716E+03  0.11005050701E+04  0.16119889330E+04  0.95000000000E+03 0.  0.
<mgrwt>
<rscale>  0 0.24236611E+04</rscale>
<asrwt>0</asrwt>
<pdfrwt beam="1">  1        2 0.54553683E+00 0.24236611E+04</pdfrwt>
<pdfrwt beam="2">  1       -2 0.63713725E-01 0.24236611E+04</pdfrwt>
<totfact> 0.15462672E+00</totfact>
</mgrwt>
</event>
<event>
 4    1  0.2043502E-008  0.2960255E+04  0.7816531E-02  0.8255172E-01
         -2   -1    0    0    0  501 -0.00000000000E+00  0.00000000000E+00  0.92212524226E+03  0.92212524226E+03  0.00000000000E+00 0. -1.
          2   -1    0    0  501    0  0.00000000000E+00 -0.00000000000E+00 -0.23757908707E+04  0.23757908707E+04  0.00000000000E+00 0.  1.
    2000013    1    1    2    0    0 -0.89358439330E+03  0.33811549253E+03 -0.14094752772E+04  0.19498553052E+04  0.95000000000E+03 0.  0.
   -2000013    1    1    2    0    0  0.89358439330E+03 -0.33811549253E+03 -0.44190351228E+02  0.13480608077E+04  0.95000000000E+03 0.  0.
<mgrwt>
<rscale>  0 0.29602545E+04</rscale>
<asrwt>0</asrwt>
<pdfrwt beam="2">  1        2 0.36550628E+00 0.29602545E+04</pdfrwt>
<pdfrwt beam="1">  1       -2 0.14186542E+00 0.29602545E+04</pdfrwt>
<totfact> 0.12229389E+00</totfact>
</mgrwt>
</event>
<event>
 4    1  0.2043502E-008  0.2497033E+04  0.7816531E-02  0.8404043E-01
          2   -1    0    0  501    0  0.00000000000E+00  0.00000000000E+00  0.25161127834E+04  0.25161127834E+04  0.00000000000E+00 0.  1.
         -2   -1    0    0    0  501 -0.00000000000E+00 -0.00000000000E+00 -0.61952471111E+03  0.61952471111E+03  0.00000000000E+00 0. -1.
    2000013    1    1    2    0    0  0.21387424378E+03  0.75152921365E+03  0.67968287252E+03  0.14053494791E+04  0.95000000000E+03 0.  0.
   -2000013    1    1    2    0    0 -0.21387424378E+03 -0.75152921365E+03  0.12169051998E+04  0.17302880154E+04  0.95000000000E+03 0.  0.
<mgrwt>
<rscale>  0 0.24970335E+04</rscale>
<asrwt>0</asrwt>
<pdfrwt beam="1">  1        2 0.38709427E+00 0.24970335E+04</pdfrwt>
<pdfrwt beam="2">  1       -2 0.95311495E-01 0.24970335E+04</pdfrwt>
<totfact> 0.28105633E+00</totfact>
</mgrwt>
</event>
<event>
 4    1  0.2043502E-008  0.2529194E+04  0.7816531E-02  0.8392658E-01
          1   -1    0    0  501    0  0.00000000000E+00  0.00000000000E+00  0.16230509003E+04  0.16230509003E+04  0.00000000000E+00 0.  1.
         -1   -1    0    0    0  501 -0.00000000000E+00 -0.00000000000E+00 -0.98530838636E+03  0.98530838636E+03  0.00000000000E+00 0. -1.
    2000013    1    1    2    0    0  0.81743841415E+03 -0.14754742444E+03  0.23426776719E+03  0.12834941333E+04  0.95000000000E+03 0.  0.
   -2000013    1    1    2    0    0 -0.81743841415E+03  0.14754742444E+03  0.40347474675E+03  0.13248651534E+04  0.95000000000E+03 0.  0.
<mgrwt>
<rscale>  0 0.25291941E+04</rscale>
<asrwt>0</asrwt>
<pdfrwt beam="1">  1        1 0.24970014E+00 0.25291941E+04</pdfrwt>
<pdfrwt beam="2">  1       -1 0.15158591E+00 0.25291941E+04</pdfrwt>
<totfact> 0.16168659E+00</totfact>
</mgrwt>
</event>
<event>
 4    1  0.2043502E-008  0.2096316E+04  0.7816531E-02  0.8562868E-01
         -2   -1    0    0    0  501 -0.00000000000E+00  0.00000000000E+00  0.17468063116E+04  0.17468063116E+04  0.00000000000E+00 0. -1.
          2   -1    0    0  501    0  0.00000000000E+00 -0.00000000000E+00 -0.62893934834E+03  0.62893934834E+03  0.00000000000E+00 0.  1.
    2000013    1    1    2    0    0 -0.38169669014E+03  0.12981109734E+01  0.81346161156E+03  0.13076367393E+04  0.95000000000E+03 0.  0.
   -2000013    1    1    2    0    0  0.38169669014E+03 -0.12981109734E+01  0.30440535173E+03  0.10681089207E+04  0.95000000000E+03 0.  0.
<mgrwt>
<rscale>  0 0.20963160E+04</rscale>
<asrwt>0</asrwt>
<pdfrwt beam="2">  1        2 0.96759900E-01 0.20963160E+04</pdfrwt>
<pdfrwt beam="1">  1       -2 0.26873943E+00 0.20963160E+04</pdfrwt>
<totfact> 0.21297851E+00</totfact>
</mgrwt>
</event>
<event>
 4    1  0.2043502E-008  0.2868374E+04  0.7816531E-02  0.8282350E-01
          2   -1    0    0  501    0  0.00000000000E+00  0.00000000000E+00  0.21473964637E+04  0.21473964637E+04  0.00000000000E+00 0.  1.
         -2   -1    0    0    0  501 -0.00000000000E+00 -0.00000000000E+00 -0.95785407893E+03  0.95785407893E+03  0.00000000000E+00 0. -1.
    2000013    1    1    2    0    0 -0.70549960229E+03  0.80385466164E+03  0.70559956226E+03  0.15950807967E+04  0.95000000000E+03 0.  0.
   -2000013    1    1    2    0    0  0.70549960229E+03 -0.80385466164E+03  0.48394282248E+03  0.15101697459E+04  0.95000000000E+03 0.  0.
<mgrwt>
<rscale>  0 0.28683741E+04</rscale>
<asrwt>0</asrwt>
<pdfrwt beam="1">  1        2 0.33036869E+00 0.28683741E+04</pdfrwt>
<pdfrwt beam="2">  1       -2 0.14736217E+00 0.28683741E+04</pdfrwt>
<totfact> 0.15019553E+00</totfact>
</mgrwt>
</event>
<event>
 4    1  0.2043502E-008  0.2439334E+04  0.7816531E-02  0.8424922E-01
          2   -1    0    0  501    0  0.00000000000E+00  0.00000000000E+00  0.13599808281E+04  0.13599808281E+04  0.00000000000E+00 0.  1.
         -2   -1    0    0    0  501 -0.00000000000E+00 -0.00000000000E+00 -0.10938301809E+04  0.10938301809E+04  0.00000000000E+00 0. -1.
    2000013    1    1    2    0    0  0.34412807005E+03 -0.62031173967E+03  0.42091556259E+03  0.12581258656E+04  0.95000000000E+03 0.  0.
   -2000013    1    1    2    0    0 -0.34412807005E+03  0.62031173967E+03 -0.15476491534E+03  0.11956851433E+04  0.95000000000E+03 0.  0.
<mgrwt>
<rscale>  0 0.24393344E+04</rscale>
<asrwt>0</asrwt>
<pdfrwt beam="1">  1        2 0.20922782E+00 0.24393344E+04</pdfrwt>
<pdfrwt beam="2">  1       -2 0.16828157E+00 0.24393344E+04</pdfrwt>
<totfact> 0.29987838E+00</totfact>
</mgrwt>
</event>
<event>
 4    1  0.2043502E-008  0.2437973E+04  0.7816531E-02  0.8425422E-01
         -2   -1    0    0    0  501 -0.00000000000E+00  0.00000000000E+00  0.69643345548E+03  0.69643345548E+03  0.00000000000E+00 0. -1.
          2   -1    0    0  501    0  0.00000000000E+00 -0.00000000000E+00 -0.21336260200E+04  0.21336260200E+04  0.00000000000E+00 0.  1.
    2000013    1    1    2    0    0  0.76368449930E+03 -0.14335652335E+02 -0.71511062957E+03  0.14132596145E+04  0.95000000000E+03 0.  0.
   -2000013    1    1    2    0    0 -0.76368449930E+03  0.14335652335E+02 -0.72208193499E+03  0.14167998610E+04  0.95000000000E+03 0.  0.
<mgrwt>
<rscale>  0 0.24379734E+04</rscale>
<asrwt>0</asrwt>
<pdfrwt beam="2">  1        2 0.32825016E+00 0.24379734E+04</pdfrwt>
<pdfrwt beam="1">  1       -2 0.10714361E+00 0.24379734E+04</pdfrwt>
<totfact> 0.35312803E+00</totfact>
</mgrwt>
</event>
<event>
 4    1  0.2043502E-008  0.2907690E+04  0.7816531E-02  0.8270593E-01
         -2   -1    0    0    0  501 -0.00000000000E+00  0.00000000000E+00  0.14186957922E+04  0.14186957922E+04  0.00000000000E+00 0.  1.
          2   -1    0    0  501    0  0.00000000000E+00 -0.00000000000E+00 -0.14898654801E+04  0.14898654801E+04  0.00000000000E+00 0. -1.
    2000013    1    1    2    0    0 -0.91286376745E+03  0.60670452331E+03 -0.13438309904E+03  0.14566981341E+04  0.95000000000E+03 0.  0.
   -2000013    1    1    2    0    0  0.91286376745E+03 -0.60670452331E+03  0.63213411145E+02  0.14518631381E+04  0.95000000000E+03 0.  0.
<mgrwt>
<rscale>  0 0.29076904E+04</rscale>
<asrwt>0</asrwt>
<pdfrwt beam="2">  1        2 0.22921007E+00 0.29076904E+04</pdfrwt>
<pdfrwt beam="1">  1       -2 0.21826089E+00 0.29076904E+04</pdfrwt>
<totfact> 0.11248056E+00</totfact>
</mgrwt>
</event>
<event>
 4    1  0.2043502E-008  0.2204121E+04  0.7816531E-02  0.8516715E-01
          2   -1    0    0  501    0  0.00000000000E+00  0.00000000000E+00  0.89401262144E+03  0.89401262144E+03  0.00000000000E+00 0.  1.
         -2   -1    0    0    0  501 -0.00000000000E+00 -0.00000000000E+00 -0.13585234801E+04  0.13585234801E+04  0.00000000000E+00 0. -1.
    2000013    1    1    2    0    0 -0.43378925827E+03 -0.27817464518E+03 -0.45259012886E+03  0.11717047745E+04  0.95000000000E+03 0.  0.
   -2000013    1    1    2    0    0  0.43378925827E+03  0.27817464518E+03 -0.11920729835E+02  0.10808313271E+04  0.95000000000E+03 0.  0.
<mgrwt>
<rscale>  0 0.22041208E+04</rscale>
<asrwt>0</asrwt>
<pdfrwt beam="1">  1        2 0.13754040E+00 0.22041208E+04</pdfrwt>
<pdfrwt beam="2">  1       -2 0.20900361E+00 0.22041208E+04</pdfrwt>
<totfact> 0.31418115E+00</totfact>
</mgrwt>
</event>
<event>
 4    1  0.2043502E-008  0.2209773E+04  0.7816531E-02  0.8514372E-01
          2   -1    0    0  501    0  0.00000000000E+00  0.00000000000E+00  0.13520748613E+04  0.13520748613E+04  0.00000000000E+00 0.  1.
         -2   -1    0    0    0  501 -0.00000000000E+00 -0.00000000000E+00 -0.90288908942E+03  0.90288908942E+03  0.00000000000E+00 0. -1.
    2000013    1    1    2    0    0 -0.75098844612E+02  0.48738309963E+03 -0.55039506398E+02  0.10717795807E+04  0.95000000000E+03 0.  0.
   -2000013    1    1    2    0    0  0.75098844612E+02 -0.48738309963E+03  0.50422527826E+03  0.11831843700E+04  0.95000000000E+03 0.  0.
<mgrwt>
<rscale>  0 0.22097725E+04</rscale>
<asrwt>0</asrwt>
<pdfrwt beam="1">  1        2 0.20801152E+00 0.22097725E+04</pdfrwt>
<pdfrwt beam="2">  1       -2 0.13890601E+00 0.22097725E+04</pdfrwt>
<totfact> 0.51629230E+00</totfact>
</mgrwt>
</event>
<event>
 4    1  0.2043502E-008  0.2714232E+04  0.7816531E-02  0.8330402E-01
         -2   -1    0    0    0  501 -0.00000000000E+00  0.00000000000E+00  0.71347060689E+03  0.71347060689E+03  0.00000000000E+00 0. -1.
          2   -1    0    0  501    0  0.00000000000E+00 -0.00000000000E+00 -0.25814146646E+04  0.25814146646E+04  0.00000000000E+00 0.  1.
    2000013    1    1    2    0    0 -0.56331039292E+02  0.69497960417E+03 -0.17510948883E+04  0.21106878367E+04  0.95000000000E+03 0.  0.
   -2000013    1    1    2    0    0  0.56331039292E+02 -0.69497960417E+03 -0.11684916943E+03  0.11841974348E+04  0.95000000000E+03 0.  0.
<mgrwt>
<rscale>  0 0.27142317E+04</rscale>
<asrwt>0</asrwt>
<pdfrwt beam="2">  1        2 0.39714071E+00 0.27142317E+04</pdfrwt>
<pdfrwt beam="1">  1       -2 0.10976471E+00 0.27142317E+04</pdfrwt>
<totfact> 0.18054976E+00</totfact>
</mgrwt>
</event>
<event>
 4    1  0.2043502E-008  0.3159929E+04  0.7816531E-02  0.8199481E-01
         -2   -1    0    0    0  501 -0.00000000000E+00  0.00000000000E+00  0.10281321412E+04  0.10281321412E+04  0.00000000000E+00 0. -1.
          2   -1    0    0  501    0  0.00000000000E+00 -0.00000000000E+00 -0.24279833771E+04  0.24279833771E+04  0.00000000000E+00 0.  1.
    2000013    1    1    2    0    0  0.63084676780E+03  0.42651737741E+03  0.40138326548E+03  0.12819880044E+04  0.95000000000E+03 0.  0.
   -2000013    1    1    2    0    0 -0.63084676780E+03 -0.42651737741E+03 -0.18012345014E+04  0.21741275139E+04  0.95000000000E+03 0.  0.
<mgrwt>
<rscale>  0 0.31599290E+04</rscale>
<asrwt>0</asrwt>
<pdfrwt beam="2">  1        2 0.37353590E+00 0.31599290E+04</pdfrwt>
<pdfrwt beam="1">  1       -2 0.15817418E+00 0.31599290E+04</pdfrwt>
<totfact> 0.84101912E-01</totfact>
</mgrwt>
</event>
<event>
 4    1  0.2043502E-008  0.3293827E+04  0.7816531E-02  0.8164468E-01
         -2   -1    0    0    0  501 -0.00000000000E+00  0.00000000000E+00  0.15953859429E+04  0.15953859429E+04  0.00000000000E+00 0. -1.
          2   -1    0    0  501    0  0.00000000000E+00 -0.00000000000E+00 -0.17001047997E+04  0.17001047997E+04  0.00000000000E+00 0.  1.
    2000013    1    1    2    0    0  0.51051819612E+03 -0.11619299307E+04 -0.49880602363E+03  0.16619318402E+04  0.95000000000E+03 0.  0.
   -2000013    1    1    2    0    0 -0.51051819612E+03  0.11619299307E+04  0.39408716689E+03  0.16335589024E+04  0.95000000000E+03 0.  0.
<mgrwt>
<rscale>  0 0.32938265E+04</rscale>
<asrwt>0</asrwt>
<pdfrwt beam="2">  1        2 0.26155458E+00 0.32938265E+04</pdfrwt>
<pdfrwt beam="1">  1       -2 0.24544399E+00 0.32938265E+04</pdfrwt>
<totfact> 0.56174062E-01</totfact>
</mgrwt>
</event>
<event>
 4    1  0.2043502E-008  0.5734096E+04  0.7816531E-02  0.7724274E-01
          2   -1    0    0  501    0  0.00000000000E+00  0.00000000000E+00  0.19029378995E+04  0.19029378995E+04  0.00000000000E+00 0.  1.
         -2   -1    0    0    0  501 -0.00000000000E+00 -0.00000000000E+00 -0.43196172480E+04  0.43196172480E+04  0.00000000000E+00 0. -1.
    2000013    1    1    2    0    0  0.20566301975E+04  0.13689330723E+04 -0.24038954523E+04  0.35756004910E+04  0.95000000000E+03 0.  0.
   -2000013    1    1    2    0    0 -0.20566301975E+04 -0.13689330723E+04 -0.12783896230E+02  0.26469546565E+04  0.95000000000E+03 0.  0.
<mgrwt>
<rscale>  0 0.57340957E+04</rscale>
<asrwt>0</asrwt>
<pdfrwt beam="1">  1        2 0.29275968E+00 0.57340957E+04</pdfrwt>
<pdfrwt beam="2">  1       -2 0.66455649E+00 0.57340957E+04</pdfrwt>
<totfact> 0.15898858E-03</totfact>
</mgrwt>
</event>
<event>
 4    1  0.2043502E-008  0.2232398E+04  0.7816531E-02  0.8505063E-01
          2   -1    0    0  501    0  0.00000000000E+00  0.00000000000E+00  0.41412553753E+04  0.41412553753E+04  0.00000000000E+00 0.  1.
         -2   -1    0    0    0  501 -0.00000000000E+00 -0.00000000000E+00 -0.30085086272E+03  0.30085086272E+03  0.00000000000E+00 0. -1.
    2000013    1    1    2    0    0  0.56435369259E+03  0.15369335199E+03  0.19914904958E+04  0.22826850707E+04  0.95000000000E+03 0.  0.
   -2000013    1    1    2    0    0 -0.56435369259E+03 -0.15369335199E+03  0.18489140168E+04  0.21594211674E+04  0.95000000000E+03 0.  0.
<mgrwt>
<rscale>  0 0.22323980E+04</rscale>
<asrwt>0</asrwt>
<pdfrwt beam="1">  1        2 0.63711617E+00 0.22323980E+04</pdfrwt>
<pdfrwt beam="2">  1       -2 0.46284751E-01 0.22323980E+04</pdfrwt>
<totfact> 0.10620776E+00</totfact>
</mgrwt>
</event>
<event>
 4    1  0.2043502E-008  0.2241491E+04  0.7816531E-02  0.8501354E-01
          2   -1    0    0  501    0  0.00000000000E+00  0.00000000000E+00  0.10736069054E+04  0.10736069054E+04  0.00000000000E+00 0.  1.
         -2   -1    0    0    0  501 -0.00000000000E+00 -0.00000000000E+00 -0.11699539451E+04  0.11699539451E+04  0.00000000000E+00 0. -1.
    2000013    1    1    2    0    0  0.52539881789E+03 -0.26033490912E+03  0.50672168380E+02  0.11175356153E+04  0.95000000000E+03 0.  0.
   -2000013    1    1    2    0    0 -0.52539881789E+03  0.26033490912E+03 -0.14701920811E+03  0.11260252352E+04  0.95000000000E+03 0.  0.
<mgrwt>
<rscale>  0 0.22414911E+04</rscale>
<asrwt>0</asrwt>
<pdfrwt beam="1">  1        2 0.16517029E+00 0.22414911E+04</pdfrwt>
<pdfrwt beam="2">  1       -2 0.17999291E+00 0.22414911E+04</pdfrwt>
<totfact> 0.37370207E+00</totfact>
</mgrwt>
</event>
<event>
 4    1  0.2043502E-008  0.2413217E+04  0.7816531E-02  0.8434572E-01
         -2   -1    0    0    0  501 -0.00000000000E+00  0.00000000000E+00  0.55470587572E+03  0.55470587572E+03  0.00000000000E+00 0. -1.
          2   -1    0    0  501    0  0.00000000000E+00 -0.00000000000E+00 -0.26246419309E+04  0.26246419309E+04  0.00000000000E+00 0.  1.
    2000013    1    1    2    0    0 -0.71210248851E+03  0.21511711388E+03 -0.10267431690E+04  0.15843190531E+04  0.95000000000E+03 0.  0.
   -2000013    1    1    2    0    0  0.71210248851E+03 -0.21511711388E+03 -0.10431928861E+04  0.15950287535E+04  0.95000000000E+03 0.  0.
<mgrwt>
<rscale>  0 0.24132172E+04</rscale>
<asrwt>0</asrwt>
<pdfrwt beam="2">  1        2 0.40379107E+00 0.24132172E+04</pdfrwt>
<pdfrwt beam="1">  1       -2 0.85339364E-01 0.24132172E+04</pdfrwt>
<totfact> 0.31565561E+00</totfact>
</mgrwt>
</event>
<event>
 4    1  0.2043502E-008  0.2856132E+04  0.7816531E-02  0.8286050E-01
          2   -1    0    0  501    0  0.00000000000E+00  0.00000000000E+00  0.10155907611E+04  0.10155907611E+04  0.00000000000E+00 0.  1.
         -2   -1    0    0    0  501 -0.00000000000E+00 -0.00000000000E+00 -0.20080654838E+04  0.20080654838E+04  0.00000000000E+00 0. -1.
    2000013    1    1    2    0    0 -0.19659827527E+03  0.82944335248E+03 -0.11743097768E+04  0.17343963240E+04  0.95000000000E+03 0.  0.
   -2000013    1    1    2    0    0  0.19659827527E+03 -0.82944335248E+03  0.18183505416E+03  0.12892599209E+04  0.95000000000E+03 0.  0.
<mgrwt>
<rscale>  0 0.28561322E+04</rscale>
<asrwt>0</asrwt>
<pdfrwt beam="1">  1        2 0.15624473E+00 0.28561322E+04</pdfrwt>
<pdfrwt beam="2">  1       -2 0.30893315E+00 0.28561322E+04</pdfrwt>
<totfact> 0.59728583E-01</totfact>
</mgrwt>
</event>
<event>
 4    1  0.2043502E-008  0.2635998E+04  0.7816531E-02  0.8356075E-01
          2   -1    0    0  501    0  0.00000000000E+00  0.00000000000E+00  0.14019589537E+04  0.14019589537E+04  0.00000000000E+00 0.  1.
         -2   -1    0    0    0  501 -0.00000000000E+00 -0.00000000000E+00 -0.12390673897E+04  0.12390673897E+04  0.00000000000E+00 0. -1.
    2000013    1    1    2    0    0  0.59373539318E+03  0.36562815085E+02  0.77613918086E+03  0.13633600348E+04  0.95000000000E+03 0.  0.
   -2000013    1    1    2    0    0 -0.59373539318E+03 -0.36562815085E+02 -0.61324761686E+03  0.12776663086E+04  0.95000000000E+03 0.  0.
<mgrwt>
<rscale>  0 0.26359982E+04</rscale>
<asrwt>0</asrwt>
<pdfrwt beam="1">  1        2 0.21568599E+00 0.26359982E+04</pdfrwt>
<pdfrwt beam="2">  1       -2 0.19062575E+00 0.26359982E+04</pdfrwt>
<totfact> 0.19542468E+00</totfact>
</mgrwt>
</event>
<event>
 4    1  0.2043502E-008  0.2290208E+04  0.7816531E-02  0.8481792E-01
          2   -1    0    0  501    0  0.00000000000E+00  0.00000000000E+00  0.24020854093E+04  0.24020854093E+04  0.00000000000E+00 0.  1.
         -2   -1    0    0    0  501 -0.00000000000E+00 -0.00000000000E+00 -0.54588551037E+03  0.54588551037E+03  0.00000000000E+00 0. -1.
    2000013    1    1    2    0    0  0.18916696555E+03  0.59301631956E+03  0.74018931187E+03  0.13556668889E+04  0.95000000000E+03 0.  0.
   -2000013    1    1    2    0    0 -0.18916696555E+03 -0.59301631956E+03  0.11160105871E+04  0.15923040308E+04  0.95000000000E+03 0.  0.
<mgrwt>
<rscale>  0 0.22902084E+04</rscale>
<asrwt>0</asrwt>
<pdfrwt beam="1">  1        2 0.36955160E+00 0.22902084E+04</pdfrwt>
<pdfrwt beam="2">  1       -2 0.83982387E-01 0.22902084E+04</pdfrwt>
<totfact> 0.44544024E+00</totfact>
</mgrwt>
</event>
<event>
 4    1  0.2043502E-008  0.1961412E+04  0.7816531E-02  0.8624877E-01
          2   -1    0    0  501    0  0.00000000000E+00  0.00000000000E+00  0.23232793498E+04  0.23232793498E+04  0.00000000000E+00 0.  1.
         -2   -1    0    0    0  501 -0.00000000000E+00 -0.00000000000E+00 -0.41397708905E+03  0.41397708905E+03  0.00000000000E+00 0. -1.
    2000013    1    1    2    0    0  0.15712499926E+03 -0.97579818930E+02  0.11756353897E+04  0.15227700601E+04  0.95000000000E+03 0.  0.
   -2000013    1    1    2    0    0 -0.15712499926E+03  0.97579818930E+02  0.73366687103E+03  0.12144863787E+04  0.95000000000E+03 0.  0.
<mgrwt>
<rscale>  0 0.19614122E+04</rscale>
<asrwt>0</asrwt>
<pdfrwt beam="1">  1        2 0.35742758E+00 0.19614122E+04</pdfrwt>
<pdfrwt beam="2">  1       -2 0.63688785E-01 0.19614122E+04</pdfrwt>
<totfact> 0.93500053E+00</totfact>
</mgrwt>
</event>
<event>
 4    1  0.2043502E-008  0.3443116E+04  0.7816531E-02  0.8127405E-01
         -2   -1    0    0    0  501 -0.00000000000E+00  0.00000000000E+00  0.99553776239E+03  0.99553776239E+03  0.00000000000E+00 0. -1.
          2   -1    0    0  501    0  0.00000000000E+00 -0.00000000000E+00 -0.29770453924E+04  0.29770453924E+04  0.00000000000E+00 0.  1.
    2000013    1    1    2    0    0  0.31107734786E+03  0.11737090068E+04 -0.18746538426E+04  0.24271771626E+04  0.95000000000E+03 0.  0.
   -2000013    1    1    2    0    0 -0.31107734786E+03 -0.11737090068E+04 -0.10685378748E+03  0.15454059923E+04  0.95000000000E+03 0.  0.
<mgrwt>
<rscale>  0 0.34431155E+04</rscale>
<asrwt>0</asrwt>
<pdfrwt beam="2">  1        2 0.45800698E+00 0.34431155E+04</pdfrwt>
<pdfrwt beam="1">  1       -2 0.15315966E+00 0.34431155E+04</pdfrwt>
<totfact> 0.42083027E-01</totfact>
</mgrwt>
</event>
<event>
 4    1  0.2043502E-008  0.2227517E+04  0.7816531E-02  0.8507061E-01
         -2   -1    0    0    0  501 -0.00000000000E+00  0.00000000000E+00  0.29796269520E+03  0.29796269520E+03  0.00000000000E+00 0. -1.
          2   -1    0    0  501    0  0.00000000000E+00 -0.00000000000E+00 -0.41631327667E+04  0.41631327667E+04  0.00000000000E+00 0.  1.
    2000013    1    1    2    0    0  0.68017960912E+02 -0.57734895282E+03 -0.19327000772E+04  0.22306474048E+04  0.95000000000E+03 0.  0.
   -2000013    1    1    2    0    0 -0.68017960912E+02  0.57734895282E+03 -0.19324699943E+04  0.22304480570E+04  0.95000000000E+03 0.  0.
<mgrwt>
<rscale>  0 0.22275172E+04</rscale>
<asrwt>0</asrwt>
<pdfrwt beam="2">  1        2 0.64048193E+00 0.22275172E+04</pdfrwt>
<pdfrwt beam="1">  1       -2 0.45840417E-01 0.22275172E+04</pdfrwt>
<totfact> 0.10379847E+00</totfact>
</mgrwt>
</event>
<event>
 4    1  0.2043502E-008  0.2503741E+04  0.7816531E-02  0.8401654E-01
          2   -1    0    0  501    0  0.00000000000E+00  0.00000000000E+00  0.34361153208E+04  0.34361153208E+04  0.00000000000E+00 0.  1.
         -2   -1    0    0    0  501 -0.00000000000E+00 -0.00000000000E+00 -0.45609041221E+03  0.45609041221E+03  0.00000000000E+00 0. -1.
    2000013    1    1    2    0    0 -0.73871319158E+03  0.16137877933E+03  0.10160920938E+04  0.15832509065E+04  0.95000000000E+03 0.  0.
   -2000013    1    1    2    0    0  0.73871319158E+03 -0.16137877933E+03  0.19639328148E+04  0.23089548265E+04  0.95000000000E+03 0.  0.
<mgrwt>
<rscale>  0 0.25037406E+04</rscale>
<asrwt>0</asrwt>
<pdfrwt beam="1">  1        2 0.52863311E+00 0.25037406E+04</pdfrwt>
<pdfrwt beam="2">  1       -2 0.70167758E-01 0.25037406E+04</pdfrwt>
<totfact> 0.14863215E+00</totfact>
</mgrwt>
</event>
<event>
 4    1  0.2043502E-008  0.2496865E+04  0.7816531E-02  0.8404103E-01
         -1   -1    0    0    0  501 -0.00000000000E+00  0.00000000000E+00  0.22051214016E+04  0.22051214016E+04  0.00000000000E+00 0. -1.
          1   -1    0    0  501    0  0.00000000000E+00 -0.00000000000E+00 -0.70680152582E+03  0.70680152582E+03  0.00000000000E+00 0.  1.
    2000013    1    1    2    0    0  0.55265584375E+03  0.56460617886E+03  0.54094737180E+03  0.13488264076E+04  0.95000000000E+03 0.  0.
   -2000013    1    1    2    0    0 -0.55265584375E+03 -0.56460617886E+03  0.95737250398E+03  0.15630965198E+04  0.95000000000E+03 0.  0.
<mgrwt>
<rscale>  0 0.24968646E+04</rscale>
<asrwt>0</asrwt>
<pdfrwt beam="2">  1        1 0.10873870E+00 0.24968646E+04</pdfrwt>
<pdfrwt beam="1">  1       -1 0.33924944E+00 0.24968646E+04</pdfrwt>
<totfact> 0.43670468E-01</totfact>
</mgrwt>
</event>
<event>
 4    1  0.2043502E-008  0.3677347E+04  0.7816531E-02  0.8073001E-01
          2   -1    0    0  501    0  0.00000000000E+00  0.00000000000E+00  0.35550998803E+04  0.35550998803E+04  0.00000000000E+00 0.  1.
         -2   -1    0    0    0  501 -0.00000000000E+00 -0.00000000000E+00 -0.95094946205E+03  0.95094946205E+03  0.00000000000E+00 0. -1.
    2000013    1    1    2    0    0 -0.82884424598E+03  0.12768846648E+04  0.17934450727E+04  0.25369987111E+04  0.95000000000E+03 0.  0.
   -2000013    1    1    2    0    0  0.82884424598E+03 -0.12768846648E+04  0.81070534554E+03  0.19690506313E+04  0.95000000000E+03 0.  0.
<mgrwt>
<rscale>  0 0.36773470E+04</rscale>
<asrwt>0</asrwt>
<pdfrwt beam="1">  1        2 0.54693843E+00 0.36773470E+04</pdfrwt>
<pdfrwt beam="2">  1       -2 0.14629992E+00 0.36773470E+04</pdfrwt>
<totfact> 0.19234018E-01</totfact>
</mgrwt>
</event>
<event>
 4    1  0.2043502E-008  0.2514241E+04  0.7816531E-02  0.8397930E-01
          2   -1    0    0  501    0  0.00000000000E+00  0.00000000000E+00  0.23329482632E+04  0.23329482632E+04  0.00000000000E+00 0.  1.
         -2   -1    0    0    0  501 -0.00000000000E+00 -0.00000000000E+00 -0.67740550091E+03  0.67740550091E+03  0.00000000000E+00 0. -1.
    2000013    1    1    2    0    0 -0.67381470938E+03 -0.46609024525E+03  0.92493608885E+03  0.15586125714E+04  0.95000000000E+03 0.  0.
   -2000013    1    1    2    0    0  0.67381470938E+03  0.46609024525E+03  0.73060667343E+03  0.14517411927E+04  0.95000000000E+03 0.  0.
<mgrwt>
<rscale>  0 0.25142410E+04</rscale>
<asrwt>0</asrwt>
<pdfrwt beam="1">  1        2 0.35891511E+00 0.25142410E+04</pdfrwt>
<pdfrwt beam="2">  1       -2 0.10421623E+00 0.25142410E+04</pdfrwt>
<totfact> 0.28945597E+00</totfact>
</mgrwt>
</event>
<event>
 4    1  0.2043502E-008  0.2258923E+04  0.7816531E-02  0.8494295E-01
         -2   -1    0    0    0  501 -0.00000000000E+00  0.00000000000E+00  0.76198540420E+03  0.76198540420E+03  0.00000000000E+00 0. -1.
          2   -1    0    0  501    0  0.00000000000E+00 -0.00000000000E+00 -0.16741573782E+04  0.16741573782E+04  0.00000000000E+00 0.  1.
    2000013    1    1    2    0    0 -0.35629531744E+03  0.10629318026E+03  0.66645589714E+02  0.10223434981E+04  0.95000000000E+03 0.  0.
   -2000013    1    1    2    0    0  0.35629531744E+03 -0.10629318026E+03 -0.97881756374E+03  0.14137992844E+04  0.95000000000E+03 0.  0.
<mgrwt>
<rscale>  0 0.22589232E+04</rscale>
<asrwt>0</asrwt>
<pdfrwt beam="2">  1        2 0.25756267E+00 0.22589232E+04</pdfrwt>
<pdfrwt beam="1">  1       -2 0.11722852E+00 0.22589232E+04</pdfrwt>
<totfact> 0.51884458E+00</totfact>
</mgrwt>
</event>
<event>
 4    1  0.2043502E-008  0.2335270E+04  0.7816531E-02  0.8464143E-01
          2   -1    0    0  501    0  0.00000000000E+00  0.00000000000E+00  0.11051908949E+04  0.11051908949E+04  0.00000000000E+00 0.  1.
         -2   -1    0    0    0  501 -0.00000000000E+00 -0.00000000000E+00 -0.12336074520E+04  0.12336074520E+04  0.00000000000E+00 0. -1.
    2000013    1    1    2    0    0 -0.63553997872E+03  0.23209983722E+03 -0.11988295591E+03  0.11724561067E+04  0.95000000000E+03 0.  0.
   -2000013    1    1    2    0    0  0.63553997872E+03 -0.23209983722E+03 -0.85336011293E+01  0.11663422402E+04  0.95000000000E+03 0.  0.
<mgrwt>
<rscale>  0 0.23352702E+04</rscale>
<asrwt>0</asrwt>
<pdfrwt beam="1">  1        2 0.17002937E+00 0.23352702E+04</pdfrwt>
<pdfrwt beam="2">  1       -2 0.18978576E+00 0.23352702E+04</pdfrwt>
<totfact> 0.30400140E+00</totfact>
</mgrwt>
</event>
<event>
 4    1  0.2043502E-008  0.2126985E+04  0.7816531E-02  0.8549449E-01
          2   -1    0    0  501    0  0.00000000000E+00  0.00000000000E+00  0.23388962215E+04  0.23388962215E+04  0.00000000000E+00 0.  1.
         -2   -1    0    0    0  501 -0.00000000000E+00 -0.00000000000E+00 -0.48356829924E+03  0.48356829924E+03  0.00000000000E+00 0. -1.
    2000013    1    1    2    0    0  0.25466184063E+03  0.37645310028E+03  0.73108070377E+03  0.12820095886E+04  0.95000000000E+03 0.  0.
   -2000013    1    1    2    0    0 -0.25466184063E+03 -0.37645310028E+03  0.11242472185E+04  0.15404549322E+04  0.95000000000E+03 0.  0.
<mgrwt>
<rscale>  0 0.21269848E+04</rscale>
<asrwt>0</asrwt>
<pdfrwt beam="1">  1        2 0.35983018E+00 0.21269848E+04</pdfrwt>
<pdfrwt beam="2">  1       -2 0.74395124E-01 0.21269848E+04</pdfrwt>
<totfact> 0.64408829E+00</totfact>
</mgrwt>
</event>
<event>
 4    1  0.2043502E-008  0.2885581E+04  0.7816531E-02  0.8277180E-01
         -2   -1    0    0    0  501 -0.00000000000E+00  0.00000000000E+00  0.13985398386E+04  0.13985398386E+04  0.00000000000E+00 0. -1.
          2   -1    0    0  501    0  0.00000000000E+00 -0.00000000000E+00 -0.14884416760E+04  0.14884416760E+04  0.00000000000E+00 0.  1.
    2000013    1    1    2    0    0 -0.11605061672E+03  0.73800952580E+03 -0.83338099081E+03  0.14680428065E+04  0.95000000000E+03 0.  0.
   -2000013    1    1    2    0    0  0.11605061672E+03 -0.73800952580E+03  0.74347915336E+03  0.14189387081E+04  0.95000000000E+03 0.  0.
<mgrwt>
<rscale>  0 0.28855814E+04</rscale>
<asrwt>0</asrwt>
<pdfrwt beam="2">  1        2 0.22899103E+00 0.28855814E+04</pdfrwt>
<pdfrwt beam="1">  1       -2 0.21515997E+00 0.28855814E+04</pdfrwt>
<totfact> 0.11815100E+00</totfact>
</mgrwt>
</event>
<event>
 4    1  0.2043502E-008  0.2458726E+04  0.7816531E-02  0.8417839E-01
          2   -1    0    0  501    0  0.00000000000E+00  0.00000000000E+00  0.22674596853E+04  0.22674596853E+04  0.00000000000E+00 0.  1.
         -2   -1    0    0    0  501 -0.00000000000E+00 -0.00000000000E+00 -0.66653140315E+03  0.66653140315E+03  0.00000000000E+00 0. -1.
    2000013    1    1    2    0    0 -0.49092359573E+03  0.32465819658E+03  0.14117588139E+04  0.18005476583E+04  0.95000000000E+03 0.  0.
   -2000013    1    1    2    0    0  0.49092359573E+03 -0.32465819658E+03  0.18916946825E+03  0.11334434301E+04  0.95000000000E+03 0.  0.
<mgrwt>
<rscale>  0 0.24587258E+04</rscale>
<asrwt>0</asrwt>
<pdfrwt beam="1">  1        2 0.34883995E+00 0.24587258E+04</pdfrwt>
<pdfrwt beam="2">  1       -2 0.10254329E+00 0.24587258E+04</pdfrwt>
<totfact> 0.32929807E+00</totfact>
</mgrwt>
</event>
<event>
 4    1  0.2043502E-008  0.2211722E+04  0.7816531E-02  0.8513565E-01
         -2   -1    0    0    0  501 -0.00000000000E+00  0.00000000000E+00  0.43522692380E+03  0.43522692380E+03  0.00000000000E+00 0. -1.
          2   -1    0    0  501    0  0.00000000000E+00 -0.00000000000E+00 -0.28098632446E+04  0.28098632446E+04  0.00000000000E+00 0.  1.
    2000013    1    1    2    0    0 -0.32624151269E+03 -0.46140756110E+03 -0.12359289907E+04  0.16581166823E+04  0.95000000000E+03 0.  0.
   -2000013    1    1    2    0    0  0.32624151269E+03  0.46140756110E+03 -0.11387073301E+04  0.15869734862E+04  0.95000000000E+03 0.  0.
<mgrwt>
<rscale>  0 0.22117216E+04</rscale>
<asrwt>0</asrwt>
<pdfrwt beam="2">  1        2 0.43228664E+00 0.22117216E+04</pdfrwt>
<pdfrwt beam="1">  1       -2 0.66957990E-01 0.22117216E+04</pdfrwt>
<totfact> 0.42674012E+00</totfact>
</mgrwt>
</event>
<event>
 4    1  0.2043502E-008  0.3201961E+04  0.7816531E-02  0.8188299E-01
          2   -1    0    0  501    0  0.00000000000E+00  0.00000000000E+00  0.62739007374E+03  0.62739007374E+03  0.00000000000E+00 0.  1.
         -2   -1    0    0    0  501 -0.00000000000E+00 -0.00000000000E+00 -0.40853990947E+04  0.40853990947E+04  0.00000000000E+00 0. -1.
    2000013    1    1    2    0    0 -0.33121561820E+03 -0.12344562500E+04 -0.14869193182E+04  0.21787645760E+04  0.95000000000E+03 0.  0.
   -2000013    1    1    2    0    0  0.33121561820E+03  0.12344562500E+04 -0.19710897028E+04  0.25340245925E+04  0.95000000000E+03 0.  0.
<mgrwt>
<rscale>  0 0.32019612E+04</rscale>
<asrwt>0</asrwt>
<pdfrwt beam="1">  1        2 0.96521552E-01 0.32019612E+04</pdfrwt>
<pdfrwt beam="2">  1       -2 0.62852293E+00 0.32019612E+04</pdfrwt>
<totfact> 0.15566080E-02</totfact>
</mgrwt>
</event>
<event>
 4    1  0.2043502E-008  0.2242928E+04  0.7816531E-02  0.8500770E-01
         -2   -1    0    0    0  501 -0.00000000000E+00  0.00000000000E+00  0.76189663378E+03  0.76189663378E+03  0.00000000000E+00 0. -1.
          2   -1    0    0  501    0  0.00000000000E+00 -0.00000000000E+00 -0.16507245396E+04  0.16507245396E+04  0.00000000000E+00 0.  1.
    2000013    1    1    2    0    0 -0.47464219616E+03  0.30567462152E+03 -0.23902463130E+03  0.11306436056E+04  0.95000000000E+03 0.  0.
   -2000013    1    1    2    0    0  0.47464219616E+03 -0.30567462152E+03 -0.64980327452E+03  0.12819775677E+04  0.95000000000E+03 0.  0.
<mgrwt>
<rscale>  0 0.22429280E+04</rscale>
<asrwt>0</asrwt>
<pdfrwt beam="2">  1        2 0.25395762E+00 0.22429280E+04</pdfrwt>
<pdfrwt beam="1">  1       -2 0.11721487E+00 0.22429280E+04</pdfrwt>
<totfact> 0.53554831E+00</totfact>
</mgrwt>
</event>
<event>
 4    1  0.2043502E-008  0.2014373E+04  0.7816531E-02  0.8599930E-01
          2   -1    0    0  501    0  0.00000000000E+00  0.00000000000E+00  0.21970182514E+04  0.21970182514E+04  0.00000000000E+00 0.  1.
         -2   -1    0    0    0  501 -0.00000000000E+00 -0.00000000000E+00 -0.46172801375E+03  0.46172801375E+03  0.00000000000E+00 0. -1.
    2000013    1    1    2    0    0  0.20431076115E+03  0.25071791131E+03  0.75470009687E+03  0.12556570369E+04  0.95000000000E+03 0.  0.
   -2000013    1    1    2    0    0 -0.20431076115E+03 -0.25071791131E+03  0.98059014078E+03  0.14030892282E+04  0.95000000000E+03 0.  0.
<mgrwt>
<rscale>  0 0.20143732E+04</rscale>
<asrwt>0</asrwt>
<pdfrwt beam="1">  1        2 0.33800280E+00 0.20143732E+04</pdfrwt>
<pdfrwt beam="2">  1       -2 0.71035081E-01 0.20143732E+04</pdfrwt>
<totfact> 0.86594941E+00</totfact>
</mgrwt>
</event>
<event>
 4    1  0.2043502E-008  0.2987721E+04  0.7816531E-02  0.8247246E-01
         -2   -1    0    0    0  501 -0.00000000000E+00  0.00000000000E+00  0.51980913098E+03  0.51980913098E+03  0.00000000000E+00 0. -1.
          2   -1    0    0  501    0  0.00000000000E+00 -0.00000000000E+00 -0.42931511354E+04  0.42931511354E+04  0.00000000000E+00 0.  1.
    2000013    1    1    2    0    0 -0.81436674924E+03 -0.69532152743E+03 -0.25747667174E+04  0.29459444797E+04  0.95000000000E+03 0.  0.
   -2000013    1    1    2    0    0  0.81436674924E+03  0.69532152743E+03 -0.11985752870E+04  0.18670157866E+04  0.95000000000E+03 0.  0.
<mgrwt>
<rscale>  0 0.29877210E+04</rscale>
<asrwt>0</asrwt>
<pdfrwt beam="2">  1        2 0.66048477E+00 0.29877210E+04</pdfrwt>
<pdfrwt beam="1">  1       -2 0.79970638E-01 0.29877210E+04</pdfrwt>
<totfact> 0.22794456E-01</totfact>
</mgrwt>
</event>
<event>
 4    1  0.2043502E-008  0.3629061E+04  0.7816531E-02  0.8083867E-01
         -2   -1    0    0    0  501 -0.00000000000E+00  0.00000000000E+00  0.15535779448E+04  0.15535779448E+04  0.00000000000E+00 0. -1.
          2   -1    0    0  501    0  0.00000000000E+00 -0.00000000000E+00 -0.21193148164E+04  0.21193148164E+04  0.00000000000E+00 0.  1.
    2000013    1    1    2    0    0  0.13392824400E+04  0.76373074179E+03 -0.39852312473E+03  0.18542607101E+04  0.95000000000E+03 0.  0.
   -2000013    1    1    2    0    0 -0.13392824400E+04 -0.76373074179E+03 -0.16721374687E+03  0.18186320511E+04  0.95000000000E+03 0.  0.
<mgrwt>
<rscale>  0 0.36290609E+04</rscale>
<asrwt>0</asrwt>
<pdfrwt beam="2">  1        2 0.32604843E+00 0.36290609E+04</pdfrwt>
<pdfrwt beam="1">  1       -2 0.23901199E+00 0.36290609E+04</pdfrwt>
<totfact> 0.35013425E-01</totfact>
</mgrwt>
</event>
<event>
 4    1  0.2043502E-008  0.2420143E+04  0.7816531E-02  0.8432000E-01
          2   -1    0    0  501    0  0.00000000000E+00  0.00000000000E+00  0.18910594586E+04  0.18910594586E+04  0.00000000000E+00 0.  1.
         -2   -1    0    0    0  501 -0.00000000000E+00 -0.00000000000E+00 -0.77431388606E+03  0.77431388606E+03  0.00000000000E+00 0. -1.
    2000013    1    1    2    0    0 -0.68378943429E+03 -0.18054543453E+03  0.83173523459E+03  0.14472208349E+04  0.95000000000E+03 0.  0.
   -2000013    1    1    2    0    0  0.68378943429E+03  0.18054543453E+03  0.28501033794E+03  0.12181525098E+04  0.95000000000E+03 0.  0.
<mgrwt>
<rscale>  0 0.24201435E+04</rscale>
<asrwt>0</asrwt>
<pdfrwt beam="1">  1        2 0.29093222E+00 0.24201435E+04</pdfrwt>
<pdfrwt beam="2">  1       -2 0.11912521E+00 0.24201435E+04</pdfrwt>
<totfact> 0.37288221E+00</totfact>
</mgrwt>
</event>
<event>
 4    1  0.2043502E-008  0.2349129E+04  0.7816531E-02  0.8458798E-01
         -2   -1    0    0    0  501 -0.00000000000E+00  0.00000000000E+00  0.11704965355E+04  0.11704965355E+04  0.00000000000E+00 0. -1.
          2   -1    0    0  501    0  0.00000000000E+00 -0.00000000000E+00 -0.11786467285E+04  0.11786467285E+04  0.00000000000E+00 0.  1.
    2000013    1    1    2    0    0  0.68011686253E+03 -0.10564756524E+03  0.54076415236E+02  0.11743698793E+04  0.95000000000E+03 0.  0.
   -2000013    1    1    2    0    0 -0.68011686253E+03  0.10564756524E+03 -0.62226608279E+02  0.11747733847E+04  0.95000000000E+03 0.  0.
<mgrwt>
<rscale>  0 0.23491291E+04</rscale>
<asrwt>0</asrwt>
<pdfrwt beam="2">  1        2 0.18133027E+00 0.23491291E+04</pdfrwt>
<pdfrwt beam="1">  1       -2 0.18007639E+00 0.23491291E+04</pdfrwt>
<totfact> 0.31902733E+00</totfact>
</mgrwt>
</event>
<event>
 4    1  0.2043502E-008  0.3360305E+04  0.7816531E-02  0.8147718E-01
          2   -1    0    0  501    0  0.00000000000E+00  0.00000000000E+00  0.10228428248E+04  0.10228428248E+04  0.00000000000E+00 0.  1.
         -2   -1    0    0    0  501 -0.00000000000E+00 -0.00000000000E+00 -0.27598684341E+04  0.27598684341E+04  0.00000000000E+00 0. -1.
    2000013    1    1    2    0    0  0.32264050455E+03  0.13382367916E+04 -0.10480513364E+04  0.19737999416E+04  0.95000000000E+03 0.  0.
   -2000013    1    1    2    0    0 -0.32264050455E+03 -0.13382367916E+04 -0.68897427292E+03  0.18089113174E+04  0.95000000000E+03 0.  0.
<mgrwt>
<rscale>  0 0.33603045E+04</rscale>
<asrwt>0</asrwt>
<pdfrwt beam="1">  1        2 0.15736044E+00 0.33603045E+04</pdfrwt>
<pdfrwt beam="2">  1       -2 0.42459513E+00 0.33603045E+04</pdfrwt>
<totfact> 0.10337080E-01</totfact>
</mgrwt>
</event>
<event>
 4    1  0.2043502E-008  0.2605618E+04  0.7816531E-02  0.8366295E-01
         -2   -1    0    0    0  501 -0.00000000000E+00  0.00000000000E+00  0.68865954951E+03  0.68865954951E+03  0.00000000000E+00 0. -1.
          2   -1    0    0  501    0  0.00000000000E+00 -0.00000000000E+00 -0.24646592463E+04  0.24646592463E+04  0.00000000000E+00 0.  1.
    2000013    1    1    2    0    0  0.36858945444E+03  0.81056432696E+03 -0.83471788500E+03  0.15466501420E+04  0.95000000000E+03 0.  0.
   -2000013    1    1    2    0    0 -0.36858945444E+03 -0.81056432696E+03 -0.94128181178E+03  0.16066686538E+04  0.95000000000E+03 0.  0.
<mgrwt>
<rscale>  0 0.26056179E+04</rscale>
<asrwt>0</asrwt>
<pdfrwt beam="2">  1        2 0.37917834E+00 0.26056179E+04</pdfrwt>
<pdfrwt beam="1">  1       -2 0.10594762E+00 0.26056179E+04</pdfrwt>
<totfact> 0.23204064E+00</totfact>
</mgrwt>
</event>
<event>
 4    1  0.2043502E-008  0.3304329E+04  0.7816531E-02  0.8161795E-01
         -2   -1    0    0    0  501 -0.00000000000E+00  0.00000000000E+00  0.22676421249E+04  0.22676421249E+04  0.00000000000E+00 0. -1.
          2   -1    0    0  501    0  0.00000000000E+00 -0.00000000000E+00 -0.12037384549E+04  0.12037384549E+04  0.00000000000E+00 0.  1.
    2000013    1    1    2    0    0 -0.87109485711E+03 -0.84236369489E+03 -0.97299366310E+02  0.15428382972E+04  0.95000000000E+03 0.  0.
   -2000013    1    1    2    0    0  0.87109485711E+03  0.84236369489E+03  0.11612030363E+04  0.19285422827E+04  0.95000000000E+03 0.  0.
<mgrwt>
<rscale>  0 0.33043293E+04</rscale>
<asrwt>0</asrwt>
<pdfrwt beam="2">  1        2 0.18519053E+00 0.33043293E+04</pdfrwt>
<pdfrwt beam="1">  1       -2 0.34886802E+00 0.33043293E+04</pdfrwt>
<totfact> 0.24872474E-01</totfact>
</mgrwt>
</event>
<event>
 4    1  0.2043502E-008  0.2219296E+04  0.7816531E-02  0.8510439E-01
         -2   -1    0    0    0  501 -0.00000000000E+00  0.00000000000E+00  0.10733239882E+04  0.10733239882E+04  0.00000000000E+00 0. -1.
          2   -1    0    0  501    0  0.00000000000E+00 -0.00000000000E+00 -0.11472015569E+04  0.11472015569E+04  0.00000000000E+00 0.  1.
    2000013    1    1    2    0    0  0.16426771761E+03  0.54633300575E+03  0.21018374744E+02  0.11083345200E+04  0.95000000000E+03 0.  0.
   -2000013    1    1    2    0    0 -0.16426771761E+03 -0.54633300575E+03 -0.94895943415E+02  0.11121910251E+04  0.95000000000E+03 0.  0.
<mgrwt>
<rscale>  0 0.22192962E+04</rscale>
<asrwt>0</asrwt>
<pdfrwt beam="2">  1        2 0.17649255E+00 0.22192962E+04</pdfrwt>
<pdfrwt beam="1">  1       -2 0.16512677E+00 0.22192962E+04</pdfrwt>
<totfact> 0.42972505E+00</totfact>
</mgrwt>
</event>
<event>
 4    1  0.2043502E-008  0.2268732E+04  0.7816531E-02  0.8490353E-01
          2   -1    0    0  501    0  0.00000000000E+00  0.00000000000E+00  0.15286136255E+04  0.15286136255E+04  0.00000000000E+00 0.  1.
         -2   -1    0    0    0  501 -0.00000000000E+00 -0.00000000000E+00 -0.84179959461E+03  0.84179959461E+03  0.00000000000E+00 0. -1.
    2000013    1    1    2    0    0 -0.21077392232E+02  0.60236246551E+03  0.19199290342E+03  0.11413352142E+04  0.95000000000E+03 0.  0.
   -2000013    1    1    2    0    0  0.21077392232E+02 -0.60236246551E+03  0.49482112750E+03  0.12290780059E+04  0.95000000000E+03 0.  0.
<mgrwt>
<rscale>  0 0.22687321E+04</rscale>
<asrwt>0</asrwt>
<pdfrwt beam="1">  1        2 0.23517133E+00 0.22687321E+04</pdfrwt>
<pdfrwt beam="2">  1       -2 0.12950763E+00 0.22687321E+04</pdfrwt>
<totfact> 0.48754412E+00</totfact>
</mgrwt>
</event>
<event>
 4    1  0.2043502E-008  0.2920592E+04  0.7816531E-02  0.8266777E-01
         -2   -1    0    0    0  501 -0.00000000000E+00  0.00000000000E+00  0.78812003598E+03  0.78812003598E+03  0.00000000000E+00 0. -1.
          2   -1    0    0  501    0  0.00000000000E+00 -0.00000000000E+00 -0.27057618229E+04  0.27057618229E+04  0.00000000000E+00 0.  1.
    2000013    1    1    2    0    0  0.10473621471E+04  0.32270114574E+03 -0.11620554338E+04  0.18584876453E+04  0.95000000000E+03 0.  0.
   -2000013    1    1    2    0    0 -0.10473621471E+04 -0.32270114574E+03 -0.75558635310E+03  0.16353942135E+04  0.95000000000E+03 0.  0.
<mgrwt>
<rscale>  0 0.29205925E+04</rscale>
<asrwt>0</asrwt>
<pdfrwt beam="2">  1        2 0.41627105E+00 0.29205925E+04</pdfrwt>
<pdfrwt beam="1">  1       -2 0.12124924E+00 0.29205925E+04</pdfrwt>
<totfact> 0.11742391E+00</totfact>
</mgrwt>
</event>
<event>
 4    1  0.2043502E-008  0.2007482E+04  0.7816531E-02  0.8603131E-01
         -2   -1    0    0    0  501 -0.00000000000E+00  0.00000000000E+00  0.11191538434E+04  0.11191538434E+04  0.00000000000E+00 0. -1.
          2   -1    0    0  501    0  0.00000000000E+00 -0.00000000000E+00 -0.90022979025E+03  0.90022979025E+03  0.00000000000E+00 0.  1.
    2000013    1    1    2    0    0  0.12089446740E+03  0.26679097333E+03  0.24885753612E+03  0.10248038685E+04  0.95000000000E+03 0.  0.
   -2000013    1    1    2    0    0 -0.12089446740E+03 -0.26679097333E+03 -0.29933483001E+02  0.99457976508E+03  0.95000000000E+03 0.  0.
<mgrwt>
<rscale>  0 0.20074816E+04</rscale>
<asrwt>0</asrwt>
<pdfrwt beam="2">  1        2 0.13849689E+00 0.20074816E+04</pdfrwt>
<pdfrwt beam="1">  1       -2 0.17217751E+00 0.20074816E+04</pdfrwt>
<totfact> 0.55959275E+00</totfact>
</mgrwt>
</event>
<event>
 4    1  0.2043502E-008  0.2680650E+04  0.7816531E-02  0.8341311E-01
         -2   -1    0    0    0  501 -0.00000000000E+00  0.00000000000E+00  0.18114018129E+04  0.18114018129E+04  0.00000000000E+00 0. -1.
          2   -1    0    0  501    0  0.00000000000E+00 -0.00000000000E+00 -0.99175737500E+03  0.99175737500E+03  0.00000000000E+00 0.  1.
    2000013    1    1    2    0    0 -0.48096523446E+02 -0.58479303254E+03  0.11851058534E+04  0.16282727199E+04  0.95000000000E+03 0.  0.
   -2000013    1    1    2    0    0  0.48096523446E+02  0.58479303254E+03 -0.36546141554E+03  0.11748864680E+04  0.95000000000E+03 0.  0.
<mgrwt>
<rscale>  0 0.26806500E+04</rscale>
<asrwt>0</asrwt>
<pdfrwt beam="2">  1        2 0.15257806E+00 0.26806500E+04</pdfrwt>
<pdfrwt beam="1">  1       -2 0.27867720E+00 0.26806500E+04</pdfrwt>
<totfact> 0.96121425E-01</totfact>
</mgrwt>
</event>
<event>
 4    1  0.2043502E-008  0.2418342E+04  0.7816531E-02  0.8432668E-01
          2   -1    0    0  501    0  0.00000000000E+00  0.00000000000E+00  0.10080499521E+04  0.10080499521E+04  0.00000000000E+00 0.  1.
         -2   -1    0    0    0  501 -0.00000000000E+00 -0.00000000000E+00 -0.14504184130E+04  0.14504184130E+04  0.00000000000E+00 0. -1.
    2000013    1    1    2    0    0  0.16721342903E+03 -0.61948745481E+03 -0.61210232521E+03  0.12995746589E+04  0.95000000000E+03 0.  0.
   -2000013    1    1    2    0    0 -0.16721342903E+03  0.61948745481E+03  0.16973386435E+03  0.11588937062E+04  0.95000000000E+03 0.  0.
<mgrwt>
<rscale>  0 0.24183418E+04</rscale>
<asrwt>0</asrwt>
<pdfrwt beam="1">  1        2 0.15508461E+00 0.24183418E+04</pdfrwt>
<pdfrwt beam="2">  1       -2 0.22314129E+00 0.24183418E+04</pdfrwt>
<totfact> 0.21096609E+00</totfact>
</mgrwt>
</event>
<event>
 4    1  0.2043502E-008  0.2535360E+04  0.7816531E-02  0.8390496E-01
          2   -1    0    0  501    0  0.00000000000E+00  0.00000000000E+00  0.25856429172E+04  0.25856429172E+04  0.00000000000E+00 0. -1.
         -2   -1    0    0    0  501 -0.00000000000E+00 -0.00000000000E+00 -0.62151353556E+03  0.62151353556E+03  0.00000000000E+00 0.  1.
    2000013    1    1    2    0    0 -0.28982331591E+02  0.83046349071E+03  0.11317513715E+04  0.16952494660E+04  0.95000000000E+03 0.  0.
   -2000013    1    1    2    0    0  0.28982331591E+02 -0.83046349071E+03  0.83237801012E+03  0.15119069868E+04  0.95000000000E+03 0.  0.
<mgrwt>
<rscale>  0 0.25353596E+04</rscale>
<asrwt>0</asrwt>
<pdfrwt beam="1">  1        2 0.39779121E+00 0.25353596E+04</pdfrwt>
<pdfrwt beam="2">  1       -2 0.95617468E-01 0.25353596E+04</pdfrwt>
<totfact> 0.25325579E+00</totfact>
</mgrwt>
</event>
<event>
 4    1  0.2043502E-008  0.2420085E+04  0.7816531E-02  0.8432022E-01
         -2   -1    0    0    0  501 -0.00000000000E+00  0.00000000000E+00  0.13134036879E+04  0.13134036879E+04  0.00000000000E+00 0. -1.
          2   -1    0    0  501    0  0.00000000000E+00 -0.00000000000E+00 -0.11148152828E+04  0.11148152828E+04  0.00000000000E+00 0.  1.
    2000013    1    1    2    0    0  0.19750378004E+02  0.74105789638E+03 -0.11283390525E+02  0.12050660555E+04  0.95000000000E+03 0.  0.
   -2000013    1    1    2    0    0 -0.19750378004E+02 -0.74105789638E+03  0.20987179565E+03  0.12231529151E+04  0.95000000000E+03 0.  0.
<mgrwt>
<rscale>  0 0.24200847E+04</rscale>
<asrwt>0</asrwt>
<pdfrwt beam="2">  1        2 0.17151004E+00 0.24200847E+04</pdfrwt>
<pdfrwt beam="1">  1       -2 0.20206210E+00 0.24200847E+04</pdfrwt>
<totfact> 0.24688250E+00</totfact>
</mgrwt>
</event>
<event>
 4    1  0.2043502E-008  0.3997085E+04  0.7816531E-02  0.8005135E-01
         -2   -1    0    0    0  501 -0.00000000000E+00  0.00000000000E+00  0.89881687382E+03  0.89881687382E+03  0.00000000000E+00 0. -1.
          2   -1    0    0  501    0  0.00000000000E+00 -0.00000000000E+00 -0.44438100673E+04  0.44438100673E+04  0.00000000000E+00 0.  1.
    2000013    1    1    2    0    0 -0.56375831594E+03  0.10830556878E+04 -0.34636587447E+04  0.37934502713E+04  0.95000000000E+03 0.  0.
   -2000013    1    1    2    0    0  0.56375831594E+03 -0.10830556878E+04 -0.81334448838E+02  0.15491766698E+04  0.95000000000E+03 0.  0.
<mgrwt>
<rscale>  0 0.39970847E+04</rscale>
<asrwt>0</asrwt>
<pdfrwt beam="2">  1        2 0.68366310E+00 0.39970847E+04</pdfrwt>
<pdfrwt beam="1">  1       -2 0.13827952E+00 0.39970847E+04</pdfrwt>
<totfact> 0.40550597E-02</totfact>
</mgrwt>
</event>
<event>
 4    1  0.2043502E-008  0.2501863E+04  0.7816531E-02  0.8402322E-01
          2   -1    0    0  501    0  0.00000000000E+00  0.00000000000E+00  0.15798027023E+04  0.15798027023E+04  0.00000000000E+00 0.  1.
         -2   -1    0    0    0  501 -0.00000000000E+00 -0.00000000000E+00 -0.99052248334E+03  0.99052248334E+03  0.00000000000E+00 0. -1.
    2000013    1    1    2    0    0  0.48693336433E+03 -0.53776255325E+03 -0.84285267827E+02  0.11982890600E+04  0.95000000000E+03 0.  0.
   -2000013    1    1    2    0    0 -0.48693336433E+03  0.53776255325E+03  0.67356548675E+03  0.13720361256E+04  0.95000000000E+03 0.  0.
<mgrwt>
<rscale>  0 0.25018634E+04</rscale>
<asrwt>0</asrwt>
<pdfrwt beam="1">  1        2 0.24304657E+00 0.25018634E+04</pdfrwt>
<pdfrwt beam="2">  1       -2 0.15238807E+00 0.25018634E+04</pdfrwt>
<totfact> 0.29329172E+00</totfact>
</mgrwt>
</event>
<event>
 4    1  0.2043502E-008  0.2532582E+04  0.7816531E-02  0.8391469E-01
         -2   -1    0    0    0  501 -0.00000000000E+00  0.00000000000E+00  0.37110499186E+03  0.37110499186E+03  0.00000000000E+00 0. -1.
          2   -1    0    0  501    0  0.00000000000E+00 -0.00000000000E+00 -0.43208599940E+04  0.43208599940E+04  0.00000000000E+00 0.  1.
    2000013    1    1    2    0    0 -0.79228002724E+03  0.26567408513E+03 -0.20711854683E+04  0.24270557482E+04  0.95000000000E+03 0.  0.
   -2000013    1    1    2    0    0  0.79228002724E+03 -0.26567408513E+03 -0.18785695339E+04  0.22649092377E+04  0.95000000000E+03 0.  0.
<mgrwt>
<rscale>  0 0.25325819E+04</rscale>
<asrwt>0</asrwt>
<pdfrwt beam="2">  1        2 0.66474769E+00 0.25325819E+04</pdfrwt>
<pdfrwt beam="1">  1       -2 0.57093076E-01 0.25325819E+04</pdfrwt>
<totfact> 0.46662115E-01</totfact>
</mgrwt>
</event>
<event>
 4    1  0.2043502E-008  0.2081311E+04  0.7816531E-02  0.8569521E-01
          1   -1    0    0  501    0  0.00000000000E+00  0.00000000000E+00  0.12870527241E+04  0.12870527241E+04  0.00000000000E+00 0.  1.
         -1   -1    0    0    0  501 -0.00000000000E+00 -0.00000000000E+00 -0.84142969092E+03  0.84142969092E+03  0.00000000000E+00 0. -1.
    2000013    1    1    2    0    0  0.71504939409E+02 -0.40630699642E+03  0.11919367330E+03  0.10425475833E+04  0.95000000000E+03 0.  0.
   -2000013    1    1    2    0    0 -0.71504939409E+02  0.40630699642E+03  0.32642935986E+03  0.10859348317E+04  0.95000000000E+03 0.  0.
<mgrwt>
<rscale>  0 0.20813115E+04</rscale>
<asrwt>0</asrwt>
<pdfrwt beam="1">  1        1 0.19800811E+00 0.20813115E+04</pdfrwt>
<pdfrwt beam="2">  1       -1 0.12945072E+00 0.20813115E+04</pdfrwt>
<totfact> 0.43638109E+00</totfact>
</mgrwt>
</event>
<event>
 4    1  0.2043502E-008  0.2927917E+04  0.7816531E-02  0.8264620E-01
         -2   -1    0    0    0  501 -0.00000000000E+00  0.00000000000E+00  0.10814677757E+04  0.10814677757E+04  0.00000000000E+00 0. -1.
          2   -1    0    0  501    0  0.00000000000E+00 -0.00000000000E+00 -0.19817268978E+04  0.19817268978E+04  0.00000000000E+00 0.  1.
    2000013    1    1    2    0    0  0.88192046602E+03  0.39319970344E+03  0.13075715820E+03  0.13608773455E+04  0.95000000000E+03 0.  0.
   -2000013    1    1    2    0    0 -0.88192046602E+03 -0.39319970344E+03 -0.10310162803E+04  0.17023173281E+04  0.95000000000E+03 0.  0.
<mgrwt>
<rscale>  0 0.29279165E+04</rscale>
<asrwt>0</asrwt>
<pdfrwt beam="2">  1        2 0.30488106E+00 0.29279165E+04</pdfrwt>
<pdfrwt beam="1">  1       -2 0.16637966E+00 0.29279165E+04</pdfrwt>
<totfact> 0.13326419E+00</totfact>
</mgrwt>
</event>
<event>
 4    1  0.2043502E-008  0.2665805E+04  0.7816531E-02  0.8346186E-01
          2   -1    0    0  501    0  0.00000000000E+00  0.00000000000E+00  0.14647083492E+04  0.14647083492E+04  0.00000000000E+00 0.  1.
         -2   -1    0    0    0  501 -0.00000000000E+00 -0.00000000000E+00 -0.12129571142E+04  0.12129571142E+04  0.00000000000E+00 0. -1.
    2000013    1    1    2    0    0  0.49208331990E+03  0.78403353247E+03  0.25789036505E+03  0.13512446167E+04  0.95000000000E+03 0.  0.
   -2000013    1    1    2    0    0 -0.49208331990E+03 -0.78403353247E+03 -0.61391300143E+01  0.13264208467E+04  0.95000000000E+03 0.  0.
<mgrwt>
<rscale>  0 0.26658045E+04</rscale>
<asrwt>0</asrwt>
<pdfrwt beam="1">  1        2 0.22533975E+00 0.26658045E+04</pdfrwt>
<pdfrwt beam="2">  1       -2 0.18660879E+00 0.26658045E+04</pdfrwt>
<totfact> 0.19108313E+00</totfact>
</mgrwt>
</event>
<event>
 4    1  0.2043502E-008  0.2148920E+04  0.7816531E-02  0.8539995E-01
         -2   -1    0    0    0  501 -0.00000000000E+00  0.00000000000E+00  0.87331118563E+03  0.87331118563E+03  0.00000000000E+00 0. -1.
          2   -1    0    0  501    0  0.00000000000E+00 -0.00000000000E+00 -0.13219394852E+04  0.13219394852E+04  0.00000000000E+00 0.  1.
    2000013    1    1    2    0    0 -0.17907843666E+03 -0.26664721067E+03 -0.61836981992E+03  0.11781557858E+04  0.95000000000E+03 0.  0.
   -2000013    1    1    2    0    0  0.17907843666E+03  0.26664721067E+03  0.16974152035E+03  0.10170948850E+04  0.95000000000E+03 0.  0.
<mgrwt>
<rscale>  0 0.21489202E+04</rscale>
<asrwt>0</asrwt>
<pdfrwt beam="2">  1        2 0.20337530E+00 0.21489202E+04</pdfrwt>
<pdfrwt beam="1">  1       -2 0.13435557E+00 0.21489202E+04</pdfrwt>
<totfact> 0.58851859E+00</totfact>
</mgrwt>
</event>
<event>
 4    1  0.2043502E-008  0.2165187E+04  0.7816531E-02  0.8533059E-01
          2   -1    0    0  501    0  0.00000000000E+00  0.00000000000E+00  0.27904077257E+04  0.27904077257E+04  0.00000000000E+00 0.  1.
         -2   -1    0    0    0  501 -0.00000000000E+00 -0.00000000000E+00 -0.42001330601E+03  0.42001330601E+03  0.00000000000E+00 0. -1.
    2000013    1    1    2    0    0 -0.91260576672E+02  0.49397654176E+03  0.99092326102E+03  0.14617695529E+04  0.95000000000E+03 0.  0.
   -2000013    1    1    2    0    0  0.91260576672E+02 -0.49397654176E+03  0.13794711587E+04  0.17486514788E+04  0.95000000000E+03 0.  0.
<mgrwt>
<rscale>  0 0.21651867E+04</rscale>
<asrwt>0</asrwt>
<pdfrwt beam="1">  1        2 0.42929348E+00 0.21651867E+04</pdfrwt>
<pdfrwt beam="2">  1       -2 0.64617433E-01 0.21651867E+04</pdfrwt>
<totfact> 0.47534047E+00</totfact>
</mgrwt>
</event>
<event>
 4    1  0.2043502E-008  0.2600208E+04  0.7816531E-02  0.8368131E-01
         -2   -1    0    0    0  501 -0.00000000000E+00  0.00000000000E+00  0.52784423810E+03  0.52784423810E+03  0.00000000000E+00 0. -1.
          2   -1    0    0  501    0  0.00000000000E+00 -0.00000000000E+00 -0.32022146327E+04  0.32022146327E+04  0.00000000000E+00 0.  1.
    2000013    1    1    2    0    0 -0.40071754705E+03  0.75915751234E+03 -0.10136187582E+04  0.16330393957E+04  0.95000000000E+03 0.  0.
   -2000013    1    1    2    0    0  0.40071754705E+03 -0.75915751234E+03 -0.16607516364E+04  0.20970194751E+04  0.95000000000E+03 0.  0.
<mgrwt>
<rscale>  0 0.26002081E+04</rscale>
<asrwt>0</asrwt>
<pdfrwt beam="2">  1        2 0.49264840E+00 0.26002081E+04</pdfrwt>
<pdfrwt beam="1">  1       -2 0.81206806E-01 0.26002081E+04</pdfrwt>
<totfact> 0.15280512E+00</totfact>
</mgrwt>
</event>
<event>
 4    1  0.2043502E-008  0.3425003E+04  0.7816531E-02  0.8131797E-01
          1   -1    0    0  501    0  0.00000000000E+00  0.00000000000E+00  0.23521609852E+04  0.23521609852E+04  0.00000000000E+00 0.  1.
         -1   -1    0    0    0  501 -0.00000000000E+00 -0.00000000000E+00 -0.12467942781E+04  0.12467942781E+04  0.00000000000E+00 0. -1.
    2000013    1    1    2    0    0  0.97662747228E+03 -0.36795803674E+03  0.15719847451E+04  0.21125412127E+04  0.95000000000E+03 0.  0.
   -2000013    1    1    2    0    0 -0.97662747228E+03  0.36795803674E+03 -0.46661803797E+03  0.14864140506E+04  0.95000000000E+03 0.  0.
<mgrwt>
<rscale>  0 0.34250027E+04</rscale>
<asrwt>0</asrwt>
<pdfrwt beam="1">  1        1 0.36187092E+00 0.34250027E+04</pdfrwt>
<pdfrwt beam="2">  1       -1 0.19181450E+00 0.34250027E+04</pdfrwt>
<totfact> 0.24142611E-01</totfact>
</mgrwt>
</event>
<event>
 4    1  0.2043502E-008  0.2515406E+04  0.7816531E-02  0.8397518E-01
         -2   -1    0    0    0  501 -0.00000000000E+00  0.00000000000E+00  0.62597185034E+03  0.62597185034E+03  0.00000000000E+00 0. -1.
          2   -1    0    0  501    0  0.00000000000E+00 -0.00000000000E+00 -0.25269777155E+04  0.25269777155E+04  0.00000000000E+00 0.  1.
    2000013    1    1    2    0    0  0.13532877583E+03 -0.65110997467E+03 -0.34021188748E+03  0.12085123934E+04  0.95000000000E+03 0.  0.
   -2000013    1    1    2    0    0 -0.13532877583E+03  0.65110997467E+03 -0.15607939776E+04  0.19444371724E+04  0.95000000000E+03 0.  0.
<mgrwt>
<rscale>  0 0.25154061E+04</rscale>
<asrwt>0</asrwt>
<pdfrwt beam="2">  1        2 0.38876580E+00 0.25154061E+04</pdfrwt>
<pdfrwt beam="1">  1       -2 0.96303362E-01 0.25154061E+04</pdfrwt>
<totfact> 0.26994452E+00</totfact>
</mgrwt>
</event>
<event>
 4    1  0.2043502E-008  0.2317005E+04  0.7816531E-02  0.8471246E-01
          1   -1    0    0  501    0  0.00000000000E+00  0.00000000000E+00  0.96024976217E+03  0.96024976217E+03  0.00000000000E+00 0.  1.
         -1   -1    0    0    0  501 -0.00000000000E+00 -0.00000000000E+00 -0.13976867826E+04  0.13976867826E+04  0.00000000000E+00 0. -1.
    2000013    1    1    2    0    0 -0.57265373247E+03  0.27784354766E+03 -0.40773894377E+03  0.12140347526E+04  0.95000000000E+03 0.  0.
   -2000013    1    1    2    0    0  0.57265373247E+03 -0.27784354766E+03 -0.29698076638E+02  0.11439017921E+04  0.95000000000E+03 0.  0.
<mgrwt>
<rscale>  0 0.23170053E+04</rscale>
<asrwt>0</asrwt>
<pdfrwt beam="1">  1        1 0.14773073E+00 0.23170053E+04</pdfrwt>
<pdfrwt beam="2">  1       -1 0.21502873E+00 0.23170053E+04</pdfrwt>
<totfact> 0.17448214E+00</totfact>
</mgrwt>
</event>
<event>
 4    1  0.2043502E-008  0.2417034E+04  0.7816531E-02  0.8433154E-01
          2   -1    0    0  501    0  0.00000000000E+00  0.00000000000E+00  0.19049126251E+04  0.19049126251E+04  0.00000000000E+00 0.  1.
         -2   -1    0    0    0  501 -0.00000000000E+00 -0.00000000000E+00 -0.76670877947E+03  0.76670877947E+03  0.00000000000E+00 0. -1.
    2000013    1    1    2    0    0 -0.60759966933E+02  0.64144047373E+03  0.15129929047E+03  0.11578122172E+04  0.95000000000E+03 0.  0.
   -2000013    1    1    2    0    0  0.60759966933E+02 -0.64144047373E+03  0.98690455520E+03  0.15138091874E+04  0.95000000000E+03 0.  0.
<mgrwt>
<rscale>  0 0.24170339E+04</rscale>
<asrwt>0</asrwt>
<pdfrwt beam="1">  1        2 0.29306348E+00 0.24170339E+04</pdfrwt>
<pdfrwt beam="2">  1       -2 0.11795520E+00 0.24170339E+04</pdfrwt>
<totfact> 0.37548052E+00</totfact>
</mgrwt>
</event>
<event>
 4    1  0.2043502E-008  0.2418917E+04  0.7816531E-02  0.8432455E-01
         -1   -1    0    0    0  501 -0.00000000000E+00  0.00000000000E+00  0.11656975349E+04  0.11656975349E+04  0.00000000000E+00 0. -1.
          1   -1    0    0  501    0  0.00000000000E+00 -0.00000000000E+00 -0.12548623236E+04  0.12548623236E+04  0.00000000000E+00 0.  1.
    2000013    1    1    2    0    0 -0.56250726836E+03 -0.46279823839E+03  0.12785201951E+03  0.12039280607E+04  0.95000000000E+03 0.  0.
   -2000013    1    1    2    0    0  0.56250726836E+03  0.46279823839E+03 -0.21701680822E+03  0.12166317978E+04  0.95000000000E+03 0.  0.
<mgrwt>
<rscale>  0 0.24189170E+04</rscale>
<asrwt>0</asrwt>
<pdfrwt beam="2">  1        1 0.19305574E+00 0.24189170E+04</pdfrwt>
<pdfrwt beam="1">  1       -1 0.17933808E+00 0.24189170E+04</pdfrwt>
<totfact> 0.18349980E+00</totfact>
</mgrwt>
</event>
<event>
 4    1  0.2043502E-008  0.2298973E+04  0.7816531E-02  0.8478326E-01
          2   -1    0    0  501    0  0.00000000000E+00  0.00000000000E+00  0.45390728509E+03  0.45390728509E+03  0.00000000000E+00 0.  1.
         -2   -1    0    0    0  501 -0.00000000000E+00 -0.00000000000E+00 -0.29109904829E+04  0.29109904829E+04  0.00000000000E+00 0. -1.
    2000013    1    1    2    0    0 -0.19451161994E+03  0.61442739036E+03 -0.11423972546E+04  0.16195453916E+04  0.95000000000E+03 0.  0.
   -2000013    1    1    2    0    0  0.19451161994E+03 -0.61442739036E+03 -0.13146859433E+04  0.17453523764E+04  0.95000000000E+03 0.  0.
<mgrwt>
<rscale>  0 0.22989735E+04</rscale>
<asrwt>0</asrwt>
<pdfrwt beam="1">  1        2 0.69831892E-01 0.22989735E+04</pdfrwt>
<pdfrwt beam="2">  1       -2 0.44784467E+00 0.22989735E+04</pdfrwt>
<totfact> 0.22391865E-01</totfact>
</mgrwt>
</event>
<event>
 4    1  0.2043502E-008  0.3125905E+04  0.7816531E-02  0.8208664E-01
         -1   -1    0    0    0  501 -0.00000000000E+00  0.00000000000E+00  0.85940945729E+03  0.85940945729E+03  0.00000000000E+00 0.  1.
          1   -1    0    0  501    0  0.00000000000E+00 -0.00000000000E+00 -0.28424401845E+04  0.28424401845E+04  0.00000000000E+00 0. -1.
    2000013    1    1    2    0    0  0.94140003259E+03  0.70889752481E+03 -0.53049364789E+03  0.16039617304E+04  0.95000000000E+03 0.  0.
   -2000013    1    1    2    0    0 -0.94140003259E+03 -0.70889752481E+03 -0.14525370793E+04  0.20978879114E+04  0.95000000000E+03 0.  0.
<mgrwt>
<rscale>  0 0.31259047E+04</rscale>
<asrwt>0</asrwt>
<pdfrwt beam="2">  1        1 0.43729849E+00 0.31259047E+04</pdfrwt>
<pdfrwt beam="1">  1       -1 0.13221684E+00 0.31259047E+04</pdfrwt>
<totfact> 0.31767936E-01</totfact>
</mgrwt>
</event>
<event>
 4    1  0.2043502E-008  0.2308377E+04  0.7816531E-02  0.8474626E-01
         -2   -1    0    0    0  501 -0.00000000000E+00  0.00000000000E+00  0.68221034871E+03  0.68221034871E+03  0.00000000000E+00 0. -1.
          2   -1    0    0  501    0  0.00000000000E+00 -0.00000000000E+00 -0.19526980169E+04  0.19526980169E+04  0.00000000000E+00 0.  1.
    2000013    1    1    2    0    0 -0.38773374464E+02 -0.63176363868E+03 -0.44078690065E+03  0.12236918573E+04  0.95000000000E+03 0.  0.
   -2000013    1    1    2    0    0  0.38773374464E+02  0.63176363868E+03 -0.82970076749E+03  0.14112165083E+04  0.95000000000E+03 0.  0.
<mgrwt>
<rscale>  0 0.23083767E+04</rscale>
<asrwt>0</asrwt>
<pdfrwt beam="2">  1        2 0.30041508E+00 0.23083767E+04</pdfrwt>
<pdfrwt beam="1">  1       -2 0.10495544E+00 0.23083767E+04</pdfrwt>
<totfact> 0.47321100E+00</totfact>
</mgrwt>
</event>
<event>
 4    1  0.2043502E-008  0.2078389E+04  0.7816531E-02  0.8570823E-01
         -2   -1    0    0    0  501 -0.00000000000E+00  0.00000000000E+00  0.41769252269E+03  0.41769252269E+03  0.00000000000E+00 0.  1.
          2   -1    0    0  501    0  0.00000000000E+00 -0.00000000000E+00 -0.25854548844E+04  0.25854548844E+04  0.00000000000E+00 0. -1.
    2000013    1    1    2    0    0  0.39295428581E+03 -0.14430568434E+03 -0.10162930138E+04  0.14527865263E+04  0.95000000000E+03 0.  0.
   -2000013    1    1    2    0    0 -0.39295428581E+03  0.14430568434E+03 -0.11514693479E+04  0.15503608807E+04  0.95000000000E+03 0.  0.
<mgrwt>
<rscale>  0 0.20783890E+04</rscale>
<asrwt>0</asrwt>
<pdfrwt beam="2">  1        2 0.39776228E+00 0.20783890E+04</pdfrwt>
<pdfrwt beam="1">  1       -2 0.64260389E-01 0.20783890E+04</pdfrwt>
<totfact> 0.64144712E+00</totfact>
</mgrwt>
</event>
<event>
 4    1  0.2043502E-008  0.2582577E+04  0.7816531E-02  0.8374144E-01
         -2   -1    0    0    0  501 -0.00000000000E+00  0.00000000000E+00  0.15234416981E+04  0.15234416981E+04  0.00000000000E+00 0. -1.
          2   -1    0    0  501    0  0.00000000000E+00 -0.00000000000E+00 -0.10945121451E+04  0.10945121451E+04  0.00000000000E+00 0.  1.
    2000013    1    1    2    0    0 -0.42960082610E+03  0.16330362757E+03 -0.53983891704E+03  0.11853906533E+04  0.95000000000E+03 0.  0.
   -2000013    1    1    2    0    0  0.42960082610E+03 -0.16330362757E+03  0.96876846998E+03  0.14325631899E+04  0.95000000000E+03 0.  0.
<mgrwt>
<rscale>  0 0.25825766E+04</rscale>
<asrwt>0</asrwt>
<pdfrwt beam="2">  1        2 0.16838648E+00 0.25825766E+04</pdfrwt>
<pdfrwt beam="1">  1       -2 0.23437565E+00 0.25825766E+04</pdfrwt>
<totfact> 0.15613881E+00</totfact>
</mgrwt>
</event>
<event>
 4    1  0.2043502E-008  0.2635338E+04  0.7816531E-02  0.8356296E-01
          2   -1    0    0  501    0  0.00000000000E+00  0.00000000000E+00  0.28775356319E+04  0.28775356319E+04  0.00000000000E+00 0.  1.
         -2   -1    0    0    0  501 -0.00000000000E+00 -0.00000000000E+00 -0.60338134774E+03  0.60338134774E+03  0.00000000000E+00 0. -1.
    2000013    1    1    2    0    0 -0.63066319002E+03  0.59978080771E+03  0.15018795853E+04  0.19787913900E+04  0.95000000000E+03 0.  0.
   -2000013    1    1    2    0    0  0.63066319002E+03 -0.59978080771E+03  0.77227469893E+03  0.15021255897E+04  0.95000000000E+03 0.  0.
<mgrwt>
<rscale>  0 0.26353378E+04</rscale>
<asrwt>0</asrwt>
<pdfrwt beam="1">  1        2 0.44269778E+00 0.26353378E+04</pdfrwt>
<pdfrwt beam="2">  1       -2 0.92827901E-01 0.26353378E+04</pdfrwt>
<totfact> 0.17989538E+00</totfact>
</mgrwt>
</event>
<event>
 4    1  0.2043502E-008  0.2645071E+04  0.7816531E-02  0.8353051E-01
         -1   -1    0    0    0  501 -0.00000000000E+00  0.00000000000E+00  0.11164626187E+04  0.11164626187E+04  0.00000000000E+00 0. -1.
          1   -1    0    0  501    0  0.00000000000E+00 -0.00000000000E+00 -0.15666445348E+04  0.15666445348E+04  0.00000000000E+00 0.  1.
    2000013    1    1    2    0    0  0.70515296157E+03 -0.55564540589E+03 -0.42952702699E+03  0.13758546374E+04  0.95000000000E+03 0.  0.
   -2000013    1    1    2    0    0 -0.70515296157E+03  0.55564540589E+03 -0.20654889103E+02  0.13072525161E+04  0.95000000000E+03 0.  0.
<mgrwt>
<rscale>  0 0.26450709E+04</rscale>
<asrwt>0</asrwt>
<pdfrwt beam="2">  1        1 0.24102224E+00 0.26450709E+04</pdfrwt>
<pdfrwt beam="1">  1       -1 0.17176348E+00 0.26450709E+04</pdfrwt>
<totfact> 0.12327469E+00</totfact>
</mgrwt>
</event>
<event>
 4    1  0.2043502E-008  0.2880635E+04  0.7816531E-02  0.8278663E-01
          2   -1    0    0  501    0  0.00000000000E+00  0.00000000000E+00  0.28828113670E+04  0.28828113670E+04  0.00000000000E+00 0.  1.
         -2   -1    0    0    0  501 -0.00000000000E+00 -0.00000000000E+00 -0.71961482227E+03  0.71961482227E+03  0.00000000000E+00 0. -1.
    2000013    1    1    2    0    0 -0.56202473791E+03  0.91766969118E+03  0.12296958176E+04  0.18901431882E+04  0.95000000000E+03 0.  0.
   -2000013    1    1    2    0    0  0.56202473791E+03 -0.91766969118E+03  0.93350072713E+03  0.17122830011E+04  0.95000000000E+03 0.  0.
<mgrwt>
<rscale>  0 0.28806345E+04</rscale>
<asrwt>0</asrwt>
<pdfrwt beam="1">  1        2 0.44350943E+00 0.28806345E+04</pdfrwt>
<pdfrwt beam="2">  1       -2 0.11070997E+00 0.28806345E+04</pdfrwt>
<totfact> 0.11505340E+00</totfact>
</mgrwt>
</event>
<event>
 4    1  0.2043502E-008  0.2436354E+04  0.7816531E-02  0.8426017E-01
          2   -1    0    0  501    0  0.00000000000E+00  0.00000000000E+00  0.17707815853E+04  0.17707815853E+04  0.00000000000E+00 0.  1.
         -2   -1    0    0    0  501 -0.00000000000E+00 -0.00000000000E+00 -0.83802261409E+03  0.83802261409E+03  0.00000000000E+00 0. -1.
    2000013    1    1    2    0    0  0.75159598455E+03 -0.11113394640E+03  0.53583797176E+03  0.13292364763E+04  0.95000000000E+03 0.  0.
   -2000013    1    1    2    0    0 -0.75159598455E+03  0.11113394640E+03  0.39692099942E+03  0.12795677230E+04  0.95000000000E+03 0.  0.
<mgrwt>
<rscale>  0 0.24363538E+04</rscale>
<asrwt>0</asrwt>
<pdfrwt beam="1">  1        2 0.27242793E+00 0.24363538E+04</pdfrwt>
<pdfrwt beam="2">  1       -2 0.12892656E+00 0.24363538E+04</pdfrwt>
<totfact> 0.35621443E+00</totfact>
</mgrwt>
</event>
<event>
 4    1  0.2043502E-008  0.2433803E+04  0.7816531E-02  0.8426955E-01
          2   -1    0    0  501    0  0.00000000000E+00  0.00000000000E+00  0.20123608848E+04  0.20123608848E+04  0.00000000000E+00 0.  1.
         -2   -1    0    0    0  501 -0.00000000000E+00 -0.00000000000E+00 -0.73587681492E+03  0.73587681492E+03  0.00000000000E+00 0. -1.
    2000013    1    1    2    0    0 -0.40630223324E+03 -0.52156753473E+03  0.10626082203E+04  0.15712257724E+04  0.95000000000E+03 0.  0.
   -2000013    1    1    2    0    0  0.40630223324E+03  0.52156753473E+03  0.21387584960E+03  0.11770119273E+04  0.95000000000E+03 0.  0.
<mgrwt>
<rscale>  0 0.24338034E+04</rscale>
<asrwt>0</asrwt>
<pdfrwt beam="1">  1        2 0.30959398E+00 0.24338034E+04</pdfrwt>
<pdfrwt beam="2">  1       -2 0.11321182E+00 0.24338034E+04</pdfrwt>
<totfact> 0.36126924E+00</totfact>
</mgrwt>
</event>
<event>
 4    1  0.2043502E-008  0.2438147E+04  0.7816531E-02  0.8425358E-01
         -2   -1    0    0    0  501 -0.00000000000E+00  0.00000000000E+00  0.11640077188E+04  0.11640077188E+04  0.00000000000E+00 0. -1.
          2   -1    0    0  501    0  0.00000000000E+00 -0.00000000000E+00 -0.12767442647E+04  0.12767442647E+04  0.00000000000E+00 0.  1.
    2000013    1    1    2    0    0 -0.23624736902E+03 -0.69527023815E+03 -0.26736979022E+03  0.12301219973E+04  0.95000000000E+03 0.  0.
   -2000013    1    1    2    0    0  0.23624736902E+03  0.69527023815E+03  0.15463324425E+03  0.12106299863E+04  0.95000000000E+03 0.  0.
<mgrwt>
<rscale>  0 0.24381470E+04</rscale>
<asrwt>0</asrwt>
<pdfrwt beam="2">  1        2 0.19642219E+00 0.24381470E+04</pdfrwt>
<pdfrwt beam="1">  1       -2 0.17907811E+00 0.24381470E+04</pdfrwt>
<totfact> 0.28139065E+00</totfact>
</mgrwt>
</event>
<event>
 4    1  0.2043502E-008  0.2242054E+04  0.7816531E-02  0.8501126E-01
          2   -1    0    0  501    0  0.00000000000E+00  0.00000000000E+00  0.10524316747E+04  0.10524316747E+04  0.00000000000E+00 0.  1.
         -2   -1    0    0    0  501 -0.00000000000E+00 -0.00000000000E+00 -0.11940927815E+04  0.11940927815E+04  0.00000000000E+00 0. -1.
    2000013    1    1    2    0    0 -0.20329247078E+03 -0.55930028077E+03 -0.63303381934E+02  0.11227875805E+04  0.95000000000E+03 0.  0.
   -2000013    1    1    2    0    0  0.20329247078E+03  0.55930028077E+03 -0.78357724826E+02  0.11237368757E+04  0.95000000000E+03 0.  0.
<mgrwt>
<rscale>  0 0.22420536E+04</rscale>
<asrwt>0</asrwt>
<pdfrwt beam="1">  1        2 0.16191256E+00 0.22420536E+04</pdfrwt>
<pdfrwt beam="2">  1       -2 0.18370658E+00 0.22420536E+04</pdfrwt>
<totfact> 0.36326616E+00</totfact>
</mgrwt>
</event>
<event>
 4    1  0.2043502E-008  0.2295760E+04  0.7816531E-02  0.8479595E-01
          2   -1    0    0  501    0  0.00000000000E+00  0.00000000000E+00  0.11144726218E+04  0.11144726218E+04  0.00000000000E+00 0.  1.
         -2   -1    0    0    0  501 -0.00000000000E+00 -0.00000000000E+00 -0.11822883447E+04  0.11822883447E+04  0.00000000000E+00 0. -1.
    2000013    1    1    2    0    0 -0.48900733688E+03  0.90492808748E+02 -0.44373379594E+03  0.11604812819E+04  0.95000000000E+03 0.  0.
   -2000013    1    1    2    0    0  0.48900733688E+03 -0.90492808748E+02  0.37591807307E+03  0.11362796846E+04  0.95000000000E+03 0.  0.
<mgrwt>
<rscale>  0 0.22957596E+04</rscale>
<asrwt>0</asrwt>
<pdfrwt beam="1">  1        2 0.17145733E+00 0.22957596E+04</pdfrwt>
<pdfrwt beam="2">  1       -2 0.18189051E+00 0.22957596E+04</pdfrwt>
<totfact> 0.34058571E+00</totfact>
</mgrwt>
</event>
<event>
 4    1  0.2043502E-008  0.2539239E+04  0.7816531E-02  0.8389138E-01
         -2   -1    0    0    0  501 -0.00000000000E+00  0.00000000000E+00  0.79642693175E+03  0.79642693175E+03  0.00000000000E+00 0. -1.
          2   -1    0    0  501    0  0.00000000000E+00 -0.00000000000E+00 -0.20239572496E+04  0.20239572496E+04  0.00000000000E+00 0.  1.
    2000013    1    1    2    0    0 -0.60814013102E+03  0.11123200867E+03 -0.12491388954E+04  0.16867290710E+04  0.95000000000E+03 0.  0.
   -2000013    1    1    2    0    0  0.60814013102E+03 -0.11123200867E+03  0.21608577581E+02  0.11336551104E+04  0.95000000000E+03 0.  0.
<mgrwt>
<rscale>  0 0.25392393E+04</rscale>
<asrwt>0</asrwt>
<pdfrwt beam="2">  1        2 0.31137804E+00 0.25392393E+04</pdfrwt>
<pdfrwt beam="1">  1       -2 0.12252722E+00 0.25392393E+04</pdfrwt>
<totfact> 0.29036024E+00</totfact>
</mgrwt>
</event>
<event>
 4    1  0.2043502E-008  0.3116807E+04  0.7816531E-02  0.8211141E-01
         -2   -1    0    0    0  501 -0.00000000000E+00  0.00000000000E+00  0.14714545552E+04  0.14714545552E+04  0.00000000000E+00 0. -1.
          2   -1    0    0  501    0  0.00000000000E+00 -0.00000000000E+00 -0.16504901794E+04  0.16504901794E+04  0.00000000000E+00 0.  1.
    2000013    1    1    2    0    0 -0.10279078425E+04  0.36844638757E+02  0.59583902648E+03  0.15216688883E+04  0.95000000000E+03 0.  0.
   -2000013    1    1    2    0    0  0.10279078425E+04 -0.36844638757E+02 -0.77487465060E+03  0.16002758463E+04  0.95000000000E+03 0.  0.
<mgrwt>
<rscale>  0 0.31168069E+04</rscale>
<asrwt>0</asrwt>
<pdfrwt beam="2">  1        2 0.25392157E+00 0.31168069E+04</pdfrwt>
<pdfrwt beam="1">  1       -2 0.22637762E+00 0.31168069E+04</pdfrwt>
<totfact> 0.79826918E-01</totfact>
</mgrwt>
</event>
<event>
 4    1  0.2043502E-008  0.2457504E+04  0.7816531E-02  0.8418283E-01
         -2   -1    0    0    0  501 -0.00000000000E+00  0.00000000000E+00  0.49021008680E+03  0.49021008680E+03  0.00000000000E+00 0. -1.
          2   -1    0    0  501    0  0.00000000000E+00 -0.00000000000E+00 -0.30799680327E+04  0.30799680327E+04  0.00000000000E+00 0.  1.
    2000013    1    1    2    0    0  0.15843676274E+02 -0.74085313488E+03 -0.16454052657E+04  0.20393559958E+04  0.95000000000E+03 0.  0.
   -2000013    1    1    2    0    0 -0.15843676274E+02  0.74085313488E+03 -0.94435268022E+03  0.15308221236E+04  0.95000000000E+03 0.  0.
<mgrwt>
<rscale>  0 0.24575039E+04</rscale>
<asrwt>0</asrwt>
<pdfrwt beam="2">  1        2 0.47384124E+00 0.24575039E+04</pdfrwt>
<pdfrwt beam="1">  1       -2 0.75416935E-01 0.24575039E+04</pdfrwt>
<totfact> 0.21887578E+00</totfact>
</mgrwt>
</event>
<event>
 4    1  0.2043502E-008  0.2214364E+04  0.7816531E-02  0.8512473E-01
          2   -1    0    0  501    0  0.00000000000E+00  0.00000000000E+00  0.16828035683E+04  0.16828035683E+04  0.00000000000E+00 0.  1.
         -2   -1    0    0    0  501 -0.00000000000E+00 -0.00000000000E+00 -0.72845840531E+03  0.72845840531E+03  0.00000000000E+00 0. -1.
    2000013    1    1    2    0    0  0.52583303813E+03  0.12946739059E+03  0.66606214059E+03  0.12803909420E+04  0.95000000000E+03 0.  0.
   -2000013    1    1    2    0    0 -0.52583303813E+03 -0.12946739059E+03  0.28828302245E+03  0.11308710317E+04  0.95000000000E+03 0.  0.
<mgrwt>
<rscale>  0 0.22143644E+04</rscale>
<asrwt>0</asrwt>
<pdfrwt beam="1">  1        2 0.25889286E+00 0.22143644E+04</pdfrwt>
<pdfrwt beam="2">  1       -2 0.11207052E+00 0.22143644E+04</pdfrwt>
<totfact> 0.57480062E+00</totfact>
</mgrwt>
</event>
<event>
 4    1  0.2043502E-008  0.2218912E+04  0.7816531E-02  0.8510598E-01
         -2   -1    0    0    0  501 -0.00000000000E+00  0.00000000000E+00  0.44900108163E+03  0.44900108163E+03  0.00000000000E+00 0.  1.
          2   -1    0    0  501    0  0.00000000000E+00 -0.00000000000E+00 -0.27414017576E+04  0.27414017576E+04  0.00000000000E+00 0. -1.
    2000013    1    1    2    0    0 -0.41373595475E+03  0.32890084283E+03 -0.14646031951E+04  0.18239834768E+04  0.95000000000E+03 0.  0.
   -2000013    1    1    2    0    0  0.41373595475E+03 -0.32890084283E+03 -0.82779748095E+03  0.13664193625E+04  0.95000000000E+03 0.  0.
<mgrwt>
<rscale>  0 0.22189118E+04</rscale>
<asrwt>0</asrwt>
<pdfrwt beam="2">  1        2 0.42175412E+00 0.22189118E+04</pdfrwt>
<pdfrwt beam="1">  1       -2 0.69077089E-01 0.22189118E+04</pdfrwt>
<totfact> 0.43825028E+00</totfact>
</mgrwt>
</event>
<event>
 4    1  0.2043502E-008  0.4425718E+04  0.7816531E-02  0.7923772E-01
          2   -1    0    0  501    0  0.00000000000E+00  0.00000000000E+00  0.20750258978E+04  0.20750258978E+04  0.00000000000E+00 0.  1.
         -2   -1    0    0    0  501 -0.00000000000E+00 -0.00000000000E+00 -0.23598480783E+04  0.23598480783E+04  0.00000000000E+00 0. -1.
    2000013    1    1    2    0    0 -0.19661661480E+04  0.74830606496E+02 -0.49361714291E+03  0.22399925949E+04  0.95000000000E+03 0.  0.
   -2000013    1    1    2    0    0  0.19661661480E+04 -0.74830606496E+02  0.20879496242E+03  0.21948813812E+04  0.95000000000E+03 0.  0.
<mgrwt>
<rscale>  0 0.44257184E+04</rscale>
<asrwt>0</asrwt>
<pdfrwt beam="1">  1        2 0.31923475E+00 0.44257184E+04</pdfrwt>
<pdfrwt beam="2">  1       -2 0.36305355E+00 0.44257184E+04</pdfrwt>
<totfact> 0.59471656E-02</totfact>
</mgrwt>
</event>
<event>
 4    1  0.2043502E-008  0.2880832E+04  0.7816531E-02  0.8278603E-01
         -2   -1    0    0    0  501 -0.00000000000E+00  0.00000000000E+00  0.19266675484E+04  0.19266675484E+04  0.00000000000E+00 0. -1.
          2   -1    0    0  501    0  0.00000000000E+00 -0.00000000000E+00 -0.10768844312E+04  0.10768844312E+04  0.00000000000E+00 0.  1.
    2000013    1    1    2    0    0 -0.14847373934E+03  0.10097094174E+04  0.47907777683E+02  0.13951174553E+04  0.95000000000E+03 0.  0.
   -2000013    1    1    2    0    0  0.14847373934E+03 -0.10097094174E+04  0.80187533952E+03  0.16084345243E+04  0.95000000000E+03 0.  0.
<mgrwt>
<rscale>  0 0.28808320E+04</rscale>
<asrwt>0</asrwt>
<pdfrwt beam="2">  1        2 0.16567453E+00 0.28808320E+04</pdfrwt>
<pdfrwt beam="1">  1       -2 0.29641039E+00 0.28808320E+04</pdfrwt>
<totfact> 0.65073711E-01</totfact>
</mgrwt>
</event>
<event>
 4    1  0.2043502E-008  0.2167193E+04  0.7816531E-02  0.8532208E-01
         -2   -1    0    0    0  501 -0.00000000000E+00  0.00000000000E+00  0.11843302517E+04  0.11843302517E+04  0.00000000000E+00 0. -1.
          2   -1    0    0  501    0  0.00000000000E+00 -0.00000000000E+00 -0.99143079529E+03  0.99143079529E+03  0.00000000000E+00 0.  1.
    2000013    1    1    2    0    0 -0.39825027052E+03  0.33578588692E+03  0.78321667238E+02  0.10862733189E+04  0.95000000000E+03 0.  0.
   -2000013    1    1    2    0    0  0.39825027052E+03 -0.33578588692E+03  0.11457778915E+03  0.10894877281E+04  0.95000000000E+03 0.  0.
<mgrwt>
<rscale>  0 0.21671931E+04</rscale>
<asrwt>0</asrwt>
<pdfrwt beam="2">  1        2 0.15252781E+00 0.21671931E+04</pdfrwt>
<pdfrwt beam="1">  1       -2 0.18220465E+00 0.21671931E+04</pdfrwt>
<totfact> 0.40929300E+00</totfact>
</mgrwt>
</event>
<event>
 4    1  0.2043502E-008  0.2191881E+04  0.7816531E-02  0.8521815E-01
         -2   -1    0    0    0  501 -0.00000000000E+00  0.00000000000E+00  0.56437387457E+03  0.56437387457E+03  0.00000000000E+00 0. -1.
          2   -1    0    0  501    0  0.00000000000E+00 -0.00000000000E+00 -0.21281728207E+04  0.21281728207E+04  0.00000000000E+00 0.  1.
    2000013    1    1    2    0    0  0.13914498507E+03 -0.52841131063E+03 -0.78472763512E+03  0.13479159104E+04  0.95000000000E+03 0.  0.
   -2000013    1    1    2    0    0 -0.13914498507E+03  0.52841131063E+03 -0.77907131099E+03  0.13446307849E+04  0.95000000000E+03 0.  0.
<mgrwt>
<rscale>  0 0.21918806E+04</rscale>
<asrwt>0</asrwt>
<pdfrwt beam="2">  1        2 0.32741121E+00 0.21918806E+04</pdfrwt>
<pdfrwt beam="1">  1       -2 0.86826749E-01 0.21918806E+04</pdfrwt>
<totfact> 0.59478659E+00</totfact>
</mgrwt>
</event>
<event>
 4    1  0.2043502E-008  0.3379028E+04  0.7816531E-02  0.8143073E-01
          2   -1    0    0  501    0  0.00000000000E+00  0.00000000000E+00  0.30774031479E+04  0.30774031479E+04  0.00000000000E+00 0.  1.
         -2   -1    0    0    0  501 -0.00000000000E+00 -0.00000000000E+00 -0.92755398908E+03  0.92755398908E+03  0.00000000000E+00 0. -1.
    2000013    1    1    2    0    0 -0.12896750598E+04 -0.35352241442E+03  0.15544966801E+04  0.22599114553E+04  0.95000000000E+03 0.  0.
   -2000013    1    1    2    0    0  0.12896750598E+04  0.35352241442E+03  0.59535247872E+03  0.17450456817E+04  0.95000000000E+03 0.  0.
<mgrwt>
<rscale>  0 0.33790280E+04</rscale>
<asrwt>0</asrwt>
<pdfrwt beam="1">  1        2 0.47344663E+00 0.33790280E+04</pdfrwt>
<pdfrwt beam="2">  1       -2 0.14270061E+00 0.33790280E+04</pdfrwt>
<totfact> 0.44075682E-01</totfact>
</mgrwt>
</event>
<event>
 4    1  0.2043502E-008  0.2142608E+04  0.7816531E-02  0.8542703E-01
          2   -1    0    0  501    0  0.00000000000E+00  0.00000000000E+00  0.11600355163E+04  0.11600355163E+04  0.00000000000E+00 0.  1.
         -2   -1    0    0    0  501 -0.00000000000E+00 -0.00000000000E+00 -0.98936004400E+03  0.98936004400E+03  0.00000000000E+00 0. -1.
    2000013    1    1    2    0    0  0.45990063483E+03  0.17475547479E+03  0.29082300855E+02  0.10702307462E+04  0.95000000000E+03 0.  0.
   -2000013    1    1    2    0    0 -0.45990063483E+03 -0.17475547479E+03  0.14159317149E+03  0.10791648141E+04  0.95000000000E+03 0.  0.
<mgrwt>
<rscale>  0 0.21426085E+04</rscale>
<asrwt>0</asrwt>
<pdfrwt beam="1">  1        2 0.17846700E+00 0.21426085E+04</pdfrwt>
<pdfrwt beam="2">  1       -2 0.15220924E+00 0.21426085E+04</pdfrwt>
<totfact> 0.52986608E+00</totfact>
</mgrwt>
</event>
<event>
 4    1  0.2043502E-008  0.2673291E+04  0.7816531E-02  0.8343723E-01
          2   -1    0    0  501    0  0.00000000000E+00  0.00000000000E+00  0.96417616256E+03  0.96417616256E+03  0.00000000000E+00 0.  1.
         -2   -1    0    0    0  501 -0.00000000000E+00 -0.00000000000E+00 -0.18530033523E+04  0.18530033523E+04  0.00000000000E+00 0. -1.
    2000013    1    1    2    0    0  0.57264923700E+03 -0.59691066313E+03  0.26743920761E+02  0.12599383817E+04  0.95000000000E+03 0.  0.
   -2000013    1    1    2    0    0 -0.57264923700E+03  0.59691066313E+03 -0.91557111049E+03  0.15572411331E+04  0.95000000000E+03 0.  0.
<mgrwt>
<rscale>  0 0.26732914E+04</rscale>
<asrwt>0</asrwt>
<pdfrwt beam="1">  1        2 0.14833480E+00 0.26732914E+04</pdfrwt>
<pdfrwt beam="2">  1       -2 0.28507744E+00 0.26732914E+04</pdfrwt>
<totfact> 0.91617577E-01</totfact>
</mgrwt>
</event>
<event>
 4    1  0.2043502E-008  0.2751260E+04  0.7816531E-02  0.8318562E-01
         -2   -1    0    0    0  501 -0.00000000000E+00  0.00000000000E+00  0.14613624845E+04  0.14613624845E+04  0.00000000000E+00 0. -1.
          2   -1    0    0  501    0  0.00000000000E+00 -0.00000000000E+00 -0.12949267278E+04  0.12949267278E+04  0.00000000000E+00 0.  1.
    2000013    1    1    2    0    0 -0.23857182738E+03  0.86141166719E+03  0.52095000464E+03  0.14045766211E+04  0.95000000000E+03 0.  0.
   -2000013    1    1    2    0    0  0.23857182738E+03 -0.86141166719E+03 -0.35451424788E+03  0.13517125912E+04  0.95000000000E+03 0.  0.
<mgrwt>
<rscale>  0 0.27512596E+04</rscale>
<asrwt>0</asrwt>
<pdfrwt beam="2">  1        2 0.19921950E+00 0.27512596E+04</pdfrwt>
<pdfrwt beam="1">  1       -2 0.22482500E+00 0.27512596E+04</pdfrwt>
<totfact> 0.13398153E+00</totfact>
</mgrwt>
</event>
<event>
 4    1  0.2043502E-008  0.2965184E+04  0.7816531E-02  0.8253743E-01
          2   -1    0    0  501    0  0.00000000000E+00  0.00000000000E+00  0.31422034683E+04  0.31422034683E+04  0.00000000000E+00 0.  1.
         -2   -1    0    0    0  501 -0.00000000000E+00 -0.00000000000E+00 -0.69953450813E+03  0.69953450813E+03  0.00000000000E+00 0. -1.
    2000013    1    1    2    0    0  0.74089812951E+03 -0.39389763280E+03  0.22489407221E+03  0.12873083264E+04  0.95000000000E+03 0.  0.
   -2000013    1    1    2    0    0 -0.74089812951E+03  0.39389763280E+03  0.22177748880E+04  0.25544296501E+04  0.95000000000E+03 0.  0.
<mgrwt>
<rscale>  0 0.29651845E+04</rscale>
<asrwt>0</asrwt>
<pdfrwt beam="1">  1        2 0.48341591E+00 0.29651845E+04</pdfrwt>
<pdfrwt beam="2">  1       -2 0.10762069E+00 0.29651845E+04</pdfrwt>
<totfact> 0.84017619E-01</totfact>
</mgrwt>
</event>
<event>
 4    1  0.2043502E-008  0.3785084E+04  0.7816531E-02  0.8049364E-01
          1   -1    0    0  501    0  0.00000000000E+00  0.00000000000E+00  0.31113041153E+04  0.31113041153E+04  0.00000000000E+00 0.  1.
         -1   -1    0    0    0  501 -0.00000000000E+00 -0.00000000000E+00 -0.11511938989E+04  0.11511938989E+04  0.00000000000E+00 0. -1.
    2000013    1    1    2    0    0 -0.84538994504E+03 -0.13963503581E+04  0.84335272944E+03  0.20683864020E+04  0.95000000000E+03 0.  0.
   -2000013    1    1    2    0    0  0.84538994504E+03  0.13963503581E+04  0.11167574870E+04  0.21941116122E+04  0.95000000000E+03 0.  0.
<mgrwt>
<rscale>  0 0.37850835E+04</rscale>
<asrwt>0</asrwt>
<pdfrwt beam="1">  1        1 0.47866217E+00 0.37850835E+04</pdfrwt>
<pdfrwt beam="2">  1       -1 0.17710675E+00 0.37850835E+04</pdfrwt>
<totfact> 0.86043338E-02</totfact>
</mgrwt>
</event>
<event>
 4    1  0.2043502E-008  0.2156532E+04  0.7816531E-02  0.8536741E-01
          2   -1    0    0  501    0  0.00000000000E+00  0.00000000000E+00  0.18147835313E+04  0.18147835313E+04  0.00000000000E+00 0.  1.
         -2   -1    0    0    0  501 -0.00000000000E+00 -0.00000000000E+00 -0.64065907460E+03  0.64065907460E+03  0.00000000000E+00 0. -1.
    2000013    1    1    2    0    0  0.38685216528E+03 -0.25387832279E+02  0.96445233988E+03  0.14081787726E+04  0.95000000000E+03 0.  0.
   -2000013    1    1    2    0    0 -0.38685216528E+03  0.25387832279E+02  0.20967211678E+03  0.10472638332E+04  0.95000000000E+03 0.  0.
<mgrwt>
<rscale>  0 0.21565320E+04</rscale>
<asrwt>0</asrwt>
<pdfrwt beam="1">  1        2 0.27919746E+00 0.21565320E+04</pdfrwt>
<pdfrwt beam="2">  1       -2 0.98562936E-01 0.21565320E+04</pdfrwt>
<totfact> 0.66390375E+00</totfact>
</mgrwt>
</event>
<event>
 4    1  0.2043502E-008  0.2059560E+04  0.7816531E-02  0.8579270E-01
          1   -1    0    0  501    0  0.00000000000E+00  0.00000000000E+00  0.94291054361E+03  0.94291054361E+03  0.00000000000E+00 0.  1.
         -1   -1    0    0    0  501 -0.00000000000E+00 -0.00000000000E+00 -0.11246524477E+04  0.11246524477E+04  0.00000000000E+00 0. -1.
    2000013    1    1    2    0    0  0.29487419656E+03 -0.68155161434E+00  0.17661404641E+03  0.10102691610E+04  0.95000000000E+03 0.  0.
   -2000013    1    1    2    0    0 -0.29487419656E+03  0.68155161434E+00 -0.35835595050E+03  0.10572938303E+04  0.95000000000E+03 0.  0.
<mgrwt>
<rscale>  0 0.20595598E+04</rscale>
<asrwt>0</asrwt>
<pdfrwt beam="1">  1        1 0.14506316E+00 0.20595598E+04</pdfrwt>
<pdfrwt beam="2">  1       -1 0.17302345E+00 0.20595598E+04</pdfrwt>
<totfact> 0.36239381E+00</totfact>
</mgrwt>
</event>
<event>
 4    1  0.2043502E-008  0.2346941E+04  0.7816531E-02  0.8459640E-01
         -2   -1    0    0    0  501 -0.00000000000E+00  0.00000000000E+00  0.59734223168E+03  0.59734223168E+03  0.00000000000E+00 0. -1.
          2   -1    0    0  501    0  0.00000000000E+00 -0.00000000000E+00 -0.23052662016E+04  0.23052662016E+04  0.00000000000E+00 0.  1.
    2000013    1    1    2    0    0  0.25294939421E+03 -0.61447111437E+03 -0.10785449466E+04  0.15834510880E+04  0.95000000000E+03 0.  0.
   -2000013    1    1    2    0    0 -0.25294939421E+03  0.61447111437E+03 -0.62937902330E+03  0.13191573452E+04  0.95000000000E+03 0.  0.
<mgrwt>
<rscale>  0 0.23469409E+04</rscale>
<asrwt>0</asrwt>
<pdfrwt beam="2">  1        2 0.35465635E+00 0.23469409E+04</pdfrwt>
<pdfrwt beam="1">  1       -2 0.91898803E-01 0.23469409E+04</pdfrwt>
<totfact> 0.40940616E+00</totfact>
</mgrwt>
</event>
<event>
 4    1  0.2043502E-008  0.3449572E+04  0.7816531E-02  0.8125846E-01
          2   -1    0    0  501    0  0.00000000000E+00  0.00000000000E+00  0.25986649598E+04  0.25986649598E+04  0.00000000000E+00 0.  1.
         -2   -1    0    0    0  501 -0.00000000000E+00 -0.00000000000E+00 -0.11447747304E+04  0.11447747304E+04  0.00000000000E+00 0. -1.
    2000013    1    1    2    0    0 -0.72136243406E+03  0.77663790895E+03  0.17840200748E+04  0.22822703236E+04  0.95000000000E+03 0.  0.
   -2000013    1    1    2    0    0  0.72136243406E+03 -0.77663790895E+03 -0.33012984540E+03  0.14611693665E+04  0.95000000000E+03 0.  0.
<mgrwt>
<rscale>  0 0.34495716E+04</rscale>
<asrwt>0</asrwt>
<pdfrwt beam="1">  1        2 0.39979461E+00 0.34495716E+04</pdfrwt>
<pdfrwt beam="2">  1       -2 0.17611919E+00 0.34495716E+04</pdfrwt>
<totfact> 0.48528662E-01</totfact>
</mgrwt>
</event>
<event>
 4    1  0.2043502E-008  0.1927313E+04  0.7816531E-02  0.8641379E-01
          2   -1    0    0  501    0  0.00000000000E+00  0.00000000000E+00  0.18346333325E+04  0.18346333325E+04  0.00000000000E+00 0.  1.
         -2   -1    0    0    0  501 -0.00000000000E+00 -0.00000000000E+00 -0.50616839724E+03  0.50616839724E+03  0.00000000000E+00 0. -1.
    2000013    1    1    2    0    0 -0.12550760475E+03  0.10106668044E+03  0.64854743785E+03  0.11614992087E+04  0.95000000000E+03 0.  0.
   -2000013    1    1    2    0    0  0.12550760475E+03 -0.10106668044E+03  0.67991749739E+03  0.11793025210E+04  0.95000000000E+03 0.  0.
<mgrwt>
<rscale>  0 0.19273125E+04</rscale>
<asrwt>0</asrwt>
<pdfrwt beam="1">  1        2 0.28225128E+00 0.19273125E+04</pdfrwt>
<pdfrwt beam="2">  1       -2 0.77872061E-01 0.19273125E+04</pdfrwt>
<totfact> 0.11327989E+01</totfact>
</mgrwt>
</event>
<event>
 4    1  0.2043502E-008  0.2087544E+04  0.7816531E-02  0.8566750E-01
          2   -1    0    0  501    0  0.00000000000E+00  0.00000000000E+00  0.23930893666E+04  0.23930893666E+04  0.00000000000E+00 0.  1.
         -2   -1    0    0    0  501 -0.00000000000E+00 -0.00000000000E+00 -0.45525273903E+03  0.45525273903E+03  0.00000000000E+00 0. -1.
    2000013    1    1    2    0    0 -0.15827356727E+03 -0.25357289271E+03  0.54262821299E+03  0.11341495102E+04  0.95000000000E+03 0.  0.
   -2000013    1    1    2    0    0  0.15827356727E+03  0.25357289271E+03  0.13952084145E+04  0.17141925954E+04  0.95000000000E+03 0.  0.
<mgrwt>
<rscale>  0 0.20875445E+04</rscale>
<asrwt>0</asrwt>
<pdfrwt beam="1">  1        2 0.36816759E+00 0.20875445E+04</pdfrwt>
<pdfrwt beam="2">  1       -2 0.70038884E-01 0.20875445E+04</pdfrwt>
<totfact> 0.68724535E+00</totfact>
</mgrwt>
</event>
<event>
 4    1  0.2043502E-008  0.3056750E+04  0.7816531E-02  0.8227709E-01
          2   -1    0    0  501    0  0.00000000000E+00  0.00000000000E+00  0.31054862393E+04  0.31054862393E+04  0.00000000000E+00 0.  1.
         -2   -1    0    0    0  501 -0.00000000000E+00 -0.00000000000E+00 -0.75219477062E+03  0.75219477062E+03  0.00000000000E+00 0. -1.
    2000013    1    1    2    0    0 -0.11741563600E+04  0.21808581219E+03  0.10693670987E+04  0.18633975880E+04  0.95000000000E+03 0.  0.
   -2000013    1    1    2    0    0  0.11741563600E+04 -0.21808581219E+03  0.12839243700E+04  0.19942834219E+04  0.95000000000E+03 0.  0.
<mgrwt>
<rscale>  0 0.30567502E+04</rscale>
<asrwt>0</asrwt>
<pdfrwt beam="1">  1        2 0.47776711E+00 0.30567502E+04</pdfrwt>
<pdfrwt beam="2">  1       -2 0.11572227E+00 0.30567502E+04</pdfrwt>
<totfact> 0.73802742E-01</totfact>
</mgrwt>
</event>
<event>
 4    1  0.2043502E-008  0.1979629E+04  0.7816531E-02  0.8616204E-01
          2   -1    0    0  501    0  0.00000000000E+00  0.00000000000E+00  0.60182340869E+03  0.60182340869E+03  0.00000000000E+00 0.  1.
         -2   -1    0    0    0  501 -0.00000000000E+00 -0.00000000000E+00 -0.16279412622E+04  0.16279412622E+04  0.00000000000E+00 0. -1.
    2000013    1    1    2    0    0  0.14840480246E+03 -0.20168647425E+03 -0.37727950812E+03  0.10523978556E+04  0.95000000000E+03 0.  0.
   -2000013    1    1    2    0    0 -0.14840480246E+03  0.20168647425E+03 -0.64883834543E+03  0.11773668153E+04  0.95000000000E+03 0.  0.
<mgrwt>
<rscale>  0 0.19796294E+04</rscale>
<asrwt>0</asrwt>
<pdfrwt beam="1">  1        2 0.92588218E-01 0.19796294E+04</pdfrwt>
<pdfrwt beam="2">  1       -2 0.25045250E+00 0.19796294E+04</pdfrwt>
<totfact> 0.29356363E+00</totfact>
</mgrwt>
</event>
<event>
 4    1  0.2043502E-008  0.2548078E+04  0.7816531E-02  0.8386055E-01
         -2   -1    0    0    0  501 -0.00000000000E+00  0.00000000000E+00  0.15043383593E+04  0.15043383593E+04  0.00000000000E+00 0. -1.
          2   -1    0    0  501    0  0.00000000000E+00 -0.00000000000E+00 -0.10789966208E+04  0.10789966208E+04  0.00000000000E+00 0.  1.
    2000013    1    1    2    0    0 -0.89680178631E+02 -0.79213164945E+03  0.50853212659E+03  0.13403805461E+04  0.95000000000E+03 0.  0.
   -2000013    1    1    2    0    0  0.89680178631E+02  0.79213164945E+03 -0.83190388099E+02  0.12429544341E+04  0.95000000000E+03 0.  0.
<mgrwt>
<rscale>  0 0.25480785E+04</rscale>
<asrwt>0</asrwt>
<pdfrwt beam="2">  1        2 0.16599948E+00 0.25480785E+04</pdfrwt>
<pdfrwt beam="1">  1       -2 0.23143667E+00 0.25480785E+04</pdfrwt>
<totfact> 0.16700146E+00</totfact>
</mgrwt>
</event>
<event>
 4    1  0.2043502E-008  0.2278328E+04  0.7816531E-02  0.8486515E-01
         -2   -1    0    0    0  501 -0.00000000000E+00  0.00000000000E+00  0.64716378479E+03  0.64716378479E+03  0.00000000000E+00 0. -1.
          2   -1    0    0  501    0  0.00000000000E+00 -0.00000000000E+00 -0.20052036263E+04  0.20052036263E+04  0.00000000000E+00 0.  1.
    2000013    1    1    2    0    0 -0.50041999298E+03 -0.34287578151E+03 -0.48698015467E+03  0.12278573378E+04  0.95000000000E+03 0.  0.
   -2000013    1    1    2    0    0  0.50041999298E+03  0.34287578151E+03 -0.87105968685E+03  0.14245100733E+04  0.95000000000E+03 0.  0.
<mgrwt>
<rscale>  0 0.22783285E+04</rscale>
<asrwt>0</asrwt>
<pdfrwt beam="2">  1        2 0.30849286E+00 0.22783285E+04</pdfrwt>
<pdfrwt beam="1">  1       -2 0.99563661E-01 0.22783285E+04</pdfrwt>
<totfact> 0.50304167E+00</totfact>
</mgrwt>
</event>
<event>
 4    1  0.2043502E-008  0.3666004E+04  0.7816531E-02  0.8075538E-01
          2   -1    0    0  501    0  0.00000000000E+00  0.00000000000E+00  0.25877701485E+04  0.25877701485E+04  0.00000000000E+00 0.  1.
         -2   -1    0    0    0  501 -0.00000000000E+00 -0.00000000000E+00 -0.12983754077E+04  0.12983754077E+04  0.00000000000E+00 0. -1.
    2000013    1    1    2    0    0  0.14782961746E+03 -0.12651017764E+04 -0.32399344895E+03  0.16216682322E+04  0.95000000000E+03 0.  0.
   -2000013    1    1    2    0    0 -0.14782961746E+03  0.12651017764E+04  0.16133881897E+04  0.22644773240E+04  0.95000000000E+03 0.  0.
<mgrwt>
<rscale>  0 0.36660044E+04</rscale>
<asrwt>0</asrwt>
<pdfrwt beam="1">  1        2 0.39811848E+00 0.36660044E+04</pdfrwt>
<pdfrwt beam="2">  1       -2 0.19975006E+00 0.36660044E+04</pdfrwt>
<totfact> 0.33479785E-01</totfact>
</mgrwt>
</event>
<event>
 4    1  0.2043502E-008  0.2292791E+04  0.7816531E-02  0.8480769E-01
         -2   -1    0    0    0  501 -0.00000000000E+00  0.00000000000E+00  0.91371401066E+03  0.91371401066E+03  0.00000000000E+00 0. -1.
          2   -1    0    0  501    0  0.00000000000E+00 -0.00000000000E+00 -0.14383304251E+04  0.14383304251E+04  0.00000000000E+00 0.  1.
    2000013    1    1    2    0    0  0.38095998739E+03 -0.50651478408E+03 -0.15954490065E+03  0.11531011724E+04  0.95000000000E+03 0.  0.
   -2000013    1    1    2    0    0 -0.38095998739E+03  0.50651478408E+03 -0.36507151374E+03  0.11989432633E+04  0.95000000000E+03 0.  0.
<mgrwt>
<rscale>  0 0.22927910E+04</rscale>
<asrwt>0</asrwt>
<pdfrwt beam="2">  1        2 0.22128160E+00 0.22927910E+04</pdfrwt>
<pdfrwt beam="1">  1       -2 0.14057139E+00 0.22927910E+04</pdfrwt>
<totfact> 0.44363433E+00</totfact>
</mgrwt>
</event>
<event>
 4    1  0.2043502E-008  0.4578210E+04  0.7816531E-02  0.7897086E-01
         -2   -1    0    0    0  501 -0.00000000000E+00  0.00000000000E+00  0.23682525319E+04  0.23682525319E+04  0.00000000000E+00 0. -1.
          2   -1    0    0  501    0  0.00000000000E+00 -0.00000000000E+00 -0.22126029013E+04  0.22126029013E+04  0.00000000000E+00 0.  1.
    2000013    1    1    2    0    0  0.52919576589E+03  0.12854655228E+04  0.16295375889E+04  0.23431522619E+04  0.95000000000E+03 0.  0.
   -2000013    1    1    2    0    0 -0.52919576589E+03 -0.12854655228E+04 -0.14738879583E+04  0.22377031713E+04  0.95000000000E+03 0.  0.
<mgrwt>
<rscale>  0 0.45782103E+04</rscale>
<asrwt>0</asrwt>
<pdfrwt beam="2">  1        2 0.34040045E+00 0.45782103E+04</pdfrwt>
<pdfrwt beam="1">  1       -2 0.36434654E+00 0.45782103E+04</pdfrwt>
<totfact> 0.48262072E-02</totfact>
</mgrwt>
</event>
<event>
 4    1  0.2043502E-008  0.2994078E+04  0.7816531E-02  0.8245424E-01
          2   -1    0    0  501    0  0.00000000000E+00  0.00000000000E+00  0.16713116557E+04  0.16713116557E+04  0.00000000000E+00 0.  1.
         -2   -1    0    0    0  501 -0.00000000000E+00 -0.00000000000E+00 -0.13409383995E+04  0.13409383995E+04  0.00000000000E+00 0. -1.
    2000013    1    1    2    0    0 -0.11631165181E+03  0.82151965369E+03  0.97643228866E+03  0.15950996696E+04  0.95000000000E+03 0.  0.
   -2000013    1    1    2    0    0  0.11631165181E+03 -0.82151965369E+03 -0.64605903250E+03  0.14171503855E+04  0.95000000000E+03 0.  0.
<mgrwt>
<rscale>  0 0.29940781E+04</rscale>
<asrwt>0</asrwt>
<pdfrwt beam="1">  1        2 0.25712487E+00 0.29940781E+04</pdfrwt>
<pdfrwt beam="2">  1       -2 0.20629821E+00 0.29940781E+04</pdfrwt>
<totfact> 0.10543889E+00</totfact>
</mgrwt>
</event>
<event>
 4    1  0.2043502E-008  0.2089895E+04  0.7816531E-02  0.8565708E-01
          2   -1    0    0  501    0  0.00000000000E+00  0.00000000000E+00  0.99154018835E+03  0.99154018835E+03  0.00000000000E+00 0.  1.
         -2   -1    0    0    0  501 -0.00000000000E+00 -0.00000000000E+00 -0.11012319524E+04  0.11012319524E+04  0.00000000000E+00 0. -1.
    2000013    1    1    2    0    0  0.28245231539E+03  0.31927541856E+03 -0.14271422408E+03  0.10509916523E+04  0.95000000000E+03 0.  0.
   -2000013    1    1    2    0    0 -0.28245231539E+03 -0.31927541856E+03  0.33022460014E+02  0.10417804885E+04  0.95000000000E+03 0.  0.
<mgrwt>
<rscale>  0 0.20898954E+04</rscale>
<asrwt>0</asrwt>
<pdfrwt beam="1">  1        2 0.15254464E+00 0.20898954E+04</pdfrwt>
<pdfrwt beam="2">  1       -2 0.16942030E+00 0.20898954E+04</pdfrwt>
<totfact> 0.50609495E+00</totfact>
</mgrwt>
</event>
<event>
 4    1  0.2043502E-008  0.2140864E+04  0.7816531E-02  0.8543453E-01
         -2   -1    0    0    0  501 -0.00000000000E+00  0.00000000000E+00  0.88770997843E+03  0.88770997843E+03  0.00000000000E+00 0. -1.
          2   -1    0    0  501    0  0.00000000000E+00 -0.00000000000E+00 -0.12907650478E+04  0.12907650478E+04  0.00000000000E+00 0.  1.
    2000013    1    1    2    0    0 -0.16306957444E+02 -0.47098148013E+03 -0.53243256189E+02  0.10618023902E+04  0.95000000000E+03 0.  0.
   -2000013    1    1    2    0    0  0.16306957444E+02  0.47098148013E+03 -0.34981181321E+03  0.11166726361E+04  0.95000000000E+03 0.  0.
<mgrwt>
<rscale>  0 0.21408643E+04</rscale>
<asrwt>0</asrwt>
<pdfrwt beam="2">  1        2 0.19857924E+00 0.21408643E+04</pdfrwt>
<pdfrwt beam="1">  1       -2 0.13657077E+00 0.21408643E+04</pdfrwt>
<totfact> 0.58889646E+00</totfact>
</mgrwt>
</event>
<event>
 4    1  0.2043502E-008  0.2132328E+04  0.7816531E-02  0.8547135E-01
         -2   -1    0    0    0  501 -0.00000000000E+00  0.00000000000E+00  0.10834003080E+04  0.10834003080E+04  0.00000000000E+00 0. -1.
          2   -1    0    0  501    0  0.00000000000E+00 -0.00000000000E+00 -0.10492019240E+04  0.10492019240E+04  0.00000000000E+00 0.  1.
    2000013    1    1    2    0    0  0.43800993829E+03  0.11566924563E+03  0.18733743608E+03  0.10690310545E+04  0.95000000000E+03 0.  0.
   -2000013    1    1    2    0    0 -0.43800993829E+03 -0.11566924563E+03 -0.15313905216E+03  0.10635711776E+04  0.95000000000E+03 0.  0.
<mgrwt>
<rscale>  0 0.21323280E+04</rscale>
<asrwt>0</asrwt>
<pdfrwt beam="2">  1        2 0.16141568E+00 0.21323280E+04</pdfrwt>
<pdfrwt beam="1">  1       -2 0.16667697E+00 0.21323280E+04</pdfrwt>
<totfact> 0.48490426E+00</totfact>
</mgrwt>
</event>
<event>
 4    1  0.2043502E-008  0.2221809E+04  0.7816531E-02  0.8509405E-01
         -2   -1    0    0    0  501 -0.00000000000E+00  0.00000000000E+00  0.37606028582E+03  0.37606028582E+03  0.00000000000E+00 0. -1.
          2   -1    0    0  501    0  0.00000000000E+00 -0.00000000000E+00 -0.32816788174E+04  0.32816788174E+04  0.00000000000E+00 0.  1.
    2000013    1    1    2    0    0  0.48453883446E+02 -0.49863555573E+03 -0.98535643073E+03  0.14575364461E+04  0.95000000000E+03 0.  0.
   -2000013    1    1    2    0    0 -0.48453883446E+02  0.49863555573E+03 -0.19202621009E+04  0.22002026571E+04  0.95000000000E+03 0.  0.
<mgrwt>
<rscale>  0 0.22218092E+04</rscale>
<asrwt>0</asrwt>
<pdfrwt beam="2">  1        2 0.50487365E+00 0.22218092E+04</pdfrwt>
<pdfrwt beam="1">  1       -2 0.57855430E-01 0.22218092E+04</pdfrwt>
<totfact> 0.29296349E+00</totfact>
</mgrwt>
</event>
<event>
 4    1  0.2043502E-008  0.2082116E+04  0.7816531E-02  0.8569163E-01
         -1   -1    0    0    0  501 -0.00000000000E+00  0.00000000000E+00  0.48734850327E+03  0.48734850327E+03  0.00000000000E+00 0. -1.
          1   -1    0    0  501    0  0.00000000000E+00 -0.00000000000E+00 -0.22238734509E+04  0.22238734509E+04  0.00000000000E+00 0.  1.
    2000013    1    1    2    0    0  0.40143695283E+03 -0.30356245065E+00 -0.68342318703E+03  0.12372222807E+04  0.95000000000E+03 0.  0.
   -2000013    1    1    2    0    0 -0.40143695283E+03  0.30356245065E+00 -0.10531017606E+04  0.14739996735E+04  0.95000000000E+03 0.  0.
<mgrwt>
<rscale>  0 0.20821157E+04</rscale>
<asrwt>0</asrwt>
<pdfrwt beam="2">  1        1 0.34213437E+00 0.20821157E+04</pdfrwt>
<pdfrwt beam="1">  1       -1 0.74976694E-01 0.20821157E+04</pdfrwt>
<totfact> 0.34577629E+00</totfact>
</mgrwt>
</event>
<event>
 4    1  0.2043502E-008  0.2968762E+04  0.7816531E-02  0.8252708E-01
         -2   -1    0    0    0  501 -0.00000000000E+00  0.00000000000E+00  0.14882354137E+04  0.14882354137E+04  0.00000000000E+00 0. -1.
          2   -1    0    0  501    0  0.00000000000E+00 -0.00000000000E+00 -0.14805363859E+04  0.14805363859E+04  0.00000000000E+00 0.  1.
    2000013    1    1    2    0    0 -0.67560937670E+03  0.87755387097E+03  0.27650012237E+03  0.14850929749E+04  0.95000000000E+03 0.  0.
   -2000013    1    1    2    0    0  0.67560937670E+03 -0.87755387097E+03 -0.26880109456E+03  0.14836788247E+04  0.95000000000E+03 0.  0.
<mgrwt>
<rscale>  0 0.29687618E+04</rscale>
<asrwt>0</asrwt>
<pdfrwt beam="2">  1        2 0.22777483E+00 0.29687618E+04</pdfrwt>
<pdfrwt beam="1">  1       -2 0.22895929E+00 0.29687618E+04</pdfrwt>
<totfact> 0.96985984E-01</totfact>
</mgrwt>
</event>
<event>
 4    1  0.2043502E-008  0.5133180E+04  0.7816531E-02  0.7808285E-01
         -2   -1    0    0    0  501 -0.00000000000E+00  0.00000000000E+00  0.15702538807E+04  0.15702538807E+04  0.00000000000E+00 0. -1.
          2   -1    0    0  501    0  0.00000000000E+00 -0.00000000000E+00 -0.41951074368E+04  0.41951074368E+04  0.00000000000E+00 0.  1.
    2000013    1    1    2    0    0  0.12778132030E+04 -0.19793799365E+04 -0.90108141544E+03  0.26954033523E+04  0.95000000000E+03 0.  0.
   -2000013    1    1    2    0    0 -0.12778132030E+04  0.19793799365E+04 -0.17237721407E+04  0.30699579651E+04  0.95000000000E+03 0.  0.
<mgrwt>
<rscale>  0 0.51331798E+04</rscale>
<asrwt>0</asrwt>
<pdfrwt beam="2">  1        2 0.64540114E+00 0.51331798E+04</pdfrwt>
<pdfrwt beam="1">  1       -2 0.24157752E+00 0.51331798E+04</pdfrwt>
<totfact> 0.12172928E-02</totfact>
</mgrwt>
</event>
<event>
 4    1  0.2043502E-008  0.4486016E+04  0.7816531E-02  0.7913090E-01
          2   -1    0    0  501    0  0.00000000000E+00  0.00000000000E+00  0.31304663307E+04  0.31304663307E+04  0.00000000000E+00 0.  1.
         -2   -1    0    0    0  501 -0.00000000000E+00 -0.00000000000E+00 -0.16071356456E+04  0.16071356456E+04  0.00000000000E+00 0. -1.
    2000013    1    1    2    0    0  0.18023656425E+04  0.89558535990E+03  0.10565922621E+04  0.24636319235E+04  0.95000000000E+03 0.  0.
   -2000013    1    1    2    0    0 -0.18023656425E+04 -0.89558535990E+03  0.46673842301E+03  0.22739700529E+04  0.95000000000E+03 0.  0.
<mgrwt>
<rscale>  0 0.44860156E+04</rscale>
<asrwt>0</asrwt>
<pdfrwt beam="1">  1        2 0.48161021E+00 0.44860156E+04</pdfrwt>
<pdfrwt beam="2">  1       -2 0.24725164E+00 0.44860156E+04</pdfrwt>
<totfact> 0.72856811E-02</totfact>
</mgrwt>
</event>
<event>
 4    1  0.2043502E-008  0.4332742E+04  0.7816531E-02  0.7940591E-01
         -2   -1    0    0    0  501 -0.00000000000E+00  0.00000000000E+00  0.10413068870E+04  0.10413068870E+04  0.00000000000E+00 0. -1.
          2   -1    0    0  501    0  0.00000000000E+00 -0.00000000000E+00 -0.45069931420E+04  0.45069931420E+04  0.00000000000E+00 0.  1.
    2000013    1    1    2    0    0 -0.17683358002E+04 -0.24247966963E+02 -0.69010634249E+03  0.21228156374E+04  0.95000000000E+03 0.  0.
   -2000013    1    1    2    0    0  0.17683358002E+04  0.24247966963E+02 -0.27755799125E+04  0.34254843916E+04  0.95000000000E+03 0.  0.
<mgrwt>
<rscale>  0 0.43327419E+04</rscale>
<asrwt>0</asrwt>
<pdfrwt beam="2">  1        2 0.69338357E+00 0.43327419E+04</pdfrwt>
<pdfrwt beam="1">  1       -2 0.16020106E+00 0.43327419E+04</pdfrwt>
<totfact> 0.23164609E-02</totfact>
</mgrwt>
</event>
<event>
 4    1  0.2043502E-008  0.2785935E+04  0.7816531E-02  0.8307648E-01
         -2   -1    0    0    0  501 -0.00000000000E+00  0.00000000000E+00  0.82535549650E+03  0.82535549650E+03  0.00000000000E+00 0. -1.
          2   -1    0    0  501    0  0.00000000000E+00 -0.00000000000E+00 -0.23509358654E+04  0.23509358654E+04  0.00000000000E+00 0.  1.
    2000013    1    1    2    0    0  0.91339081721E+03  0.23828559644E+03 -0.11996127812E+04  0.17979526232E+04  0.95000000000E+03 0.  0.
   -2000013    1    1    2    0    0 -0.91339081721E+03 -0.23828559644E+03 -0.32596758771E+03  0.13783387387E+04  0.95000000000E+03 0.  0.
<mgrwt>
<rscale>  0 0.27859346E+04</rscale>
<asrwt>0</asrwt>
<pdfrwt beam="2">  1        2 0.36168244E+00 0.27859346E+04</pdfrwt>
<pdfrwt beam="1">  1       -2 0.12697777E+00 0.27859346E+04</pdfrwt>
<totfact> 0.17025605E+00</totfact>
</mgrwt>
</event>
<event>
 4    1  0.2043502E-008  0.5270717E+04  0.7816531E-02  0.7788051E-01
         -2   -1    0    0    0  501 -0.00000000000E+00  0.00000000000E+00  0.15169695509E+04  0.15169695509E+04  0.00000000000E+00 0. -1.
          2   -1    0    0  501    0  0.00000000000E+00 -0.00000000000E+00 -0.45782823075E+04  0.45782823075E+04  0.00000000000E+00 0.  1.
    2000013    1    1    2    0    0 -0.21483175523E+04  0.94529932875E+03 -0.23755328555E+04  0.34719613296E+04  0.95000000000E+03 0.  0.
   -2000013    1    1    2    0    0  0.21483175523E+04 -0.94529932875E+03 -0.68577990105E+03  0.26232905289E+04  0.95000000000E+03 0.  0.
<mgrwt>
<rscale>  0 0.52707172E+04</rscale>
<asrwt>0</asrwt>
<pdfrwt beam="2">  1        2 0.70435111E+00 0.52707172E+04</pdfrwt>
<pdfrwt beam="1">  1       -2 0.23337993E+00 0.52707172E+04</pdfrwt>
<totfact> 0.59000265E-03</totfact>
</mgrwt>
</event>
<event>
 4    1  0.2043502E-008  0.2682897E+04  0.7816531E-02  0.8340576E-01
          2   -1    0    0  501    0  0.00000000000E+00  0.00000000000E+00  0.22400504306E+04  0.22400504306E+04  0.00000000000E+00 0.  1.
         -2   -1    0    0    0  501 -0.00000000000E+00 -0.00000000000E+00 -0.80332329555E+03  0.80332329555E+03  0.00000000000E+00 0. -1.
    2000013    1    1    2    0    0 -0.89013897613E+03  0.32099862761E+03  0.76369797216E+03  0.15430884966E+04  0.95000000000E+03 0.  0.
   -2000013    1    1    2    0    0  0.89013897613E+03 -0.32099862761E+03  0.67302916285E+03  0.15002852295E+04  0.95000000000E+03 0.  0.
<mgrwt>
<rscale>  0 0.26828975E+04</rscale>
<asrwt>0</asrwt>
<pdfrwt beam="1">  1        2 0.34462314E+00 0.26828975E+04</pdfrwt>
<pdfrwt beam="2">  1       -2 0.12358820E+00 0.26828975E+04</pdfrwt>
<totfact> 0.21244378E+00</totfact>
</mgrwt>
</event>
<event>
 4    1  0.2043502E-008  0.2120442E+04  0.7816531E-02  0.8552292E-01
         -2   -1    0    0    0  501 -0.00000000000E+00  0.00000000000E+00  0.16201886595E+04  0.16201886595E+04  0.00000000000E+00 0. -1.
          2   -1    0    0  501    0  0.00000000000E+00 -0.00000000000E+00 -0.69378857978E+03  0.69378857978E+03  0.00000000000E+00 0.  1.
    2000013    1    1    2    0    0  0.49776457809E+02 -0.44097418696E+03  0.29192794466E+03  0.10884198887E+04  0.95000000000E+03 0.  0.
   -2000013    1    1    2    0    0 -0.49776457809E+02  0.44097418696E+03  0.63447213505E+03  0.12255573505E+04  0.95000000000E+03 0.  0.
<mgrwt>
<rscale>  0 0.21204418E+04</rscale>
<asrwt>0</asrwt>
<pdfrwt beam="2">  1        2 0.10673670E+00 0.21204418E+04</pdfrwt>
<pdfrwt beam="1">  1       -2 0.24925979E+00 0.21204418E+04</pdfrwt>
<totfact> 0.24752182E+00</totfact>
</mgrwt>
</event>
<event>
 4    1  0.2043502E-008  0.2672473E+04  0.7816531E-02  0.8343992E-01
         -2   -1    0    0    0  501 -0.00000000000E+00  0.00000000000E+00  0.94741377729E+03  0.94741377729E+03  0.00000000000E+00 0. -1.
          2   -1    0    0  501    0  0.00000000000E+00 -0.00000000000E+00 -0.18846342159E+04  0.18846342159E+04  0.00000000000E+00 0.  1.
    2000013    1    1    2    0    0  0.12815403655E+03  0.82668061741E+03 -0.92219121362E+03  0.15661292842E+04  0.95000000000E+03 0.  0.
   -2000013    1    1    2    0    0 -0.12815403655E+03 -0.82668061741E+03 -0.15029225014E+02  0.12659187090E+04  0.95000000000E+03 0.  0.
<mgrwt>
<rscale>  0 0.26724733E+04</rscale>
<asrwt>0</asrwt>
<pdfrwt beam="2">  1        2 0.28994372E+00 0.26724733E+04</pdfrwt>
<pdfrwt beam="1">  1       -2 0.14575597E+00 0.26724733E+04</pdfrwt>
<totfact> 0.22011677E+00</totfact>
</mgrwt>
</event>
<event>
 4    1  0.2043502E-008  0.2365013E+04  0.7816531E-02  0.8452720E-01
         -2   -1    0    0    0  501 -0.00000000000E+00  0.00000000000E+00  0.16151689916E+04  0.16151689916E+04  0.00000000000E+00 0. -1.
          2   -1    0    0  501    0  0.00000000000E+00 -0.00000000000E+00 -0.86574317975E+03  0.86574317975E+03  0.00000000000E+00 0.  1.
    2000013    1    1    2    0    0 -0.33325083948E+03  0.56978282173E+03  0.63190753837E+03  0.13181485967E+04  0.95000000000E+03 0.  0.
   -2000013    1    1    2    0    0  0.33325083948E+03 -0.56978282173E+03  0.11751827349E+03  0.11627635747E+04  0.95000000000E+03 0.  0.
<mgrwt>
<rscale>  0 0.23650129E+04</rscale>
<asrwt>0</asrwt>
<pdfrwt beam="2">  1        2 0.13319126E+00 0.23650129E+04</pdfrwt>
<pdfrwt beam="1">  1       -2 0.24848754E+00 0.23650129E+04</pdfrwt>
<totfact> 0.18321048E+00</totfact>
</mgrwt>
</event>
<event>
 4    1  0.2043502E-008  0.2756914E+04  0.7816531E-02  0.8316771E-01
          2   -1    0    0  501    0  0.00000000000E+00  0.00000000000E+00  0.23926169733E+04  0.23926169733E+04  0.00000000000E+00 0.  1.
         -2   -1    0    0    0  501 -0.00000000000E+00 -0.00000000000E+00 -0.79416944236E+03  0.79416944236E+03  0.00000000000E+00 0. -1.
    2000013    1    1    2    0    0 -0.20078266501E+03  0.84037616256E+03  0.13784536925E+04  0.18839268445E+04  0.95000000000E+03 0.  0.
   -2000013    1    1    2    0    0  0.20078266501E+03 -0.84037616256E+03  0.21999383844E+03  0.13028595711E+04  0.95000000000E+03 0.  0.
<mgrwt>
<rscale>  0 0.27569137E+04</rscale>
<asrwt>0</asrwt>
<pdfrwt beam="1">  1        2 0.36809492E+00 0.27569137E+04</pdfrwt>
<pdfrwt beam="2">  1       -2 0.12217992E+00 0.27569137E+04</pdfrwt>
<totfact> 0.17794114E+00</totfact>
</mgrwt>
</event>
<event>
 4    1  0.2043502E-008  0.2822622E+04  0.7816531E-02  0.8296279E-01
         -2   -1    0    0    0  501 -0.00000000000E+00  0.00000000000E+00  0.88244090457E+03  0.88244090457E+03  0.00000000000E+00 0. -1.
          2   -1    0    0  501    0  0.00000000000E+00 -0.00000000000E+00 -0.22571474344E+04  0.22571474344E+04  0.00000000000E+00 0.  1.
    2000013    1    1    2    0    0  0.49276153086E+03 -0.12907887084E+03 -0.17005946336E+04  0.20134540941E+04  0.95000000000E+03 0.  0.
   -2000013    1    1    2    0    0 -0.49276153086E+03  0.12907887084E+03  0.32588810381E+03  0.11261342448E+04  0.95000000000E+03 0.  0.
<mgrwt>
<rscale>  0 0.28226223E+04</rscale>
<asrwt>0</asrwt>
<pdfrwt beam="2">  1        2 0.34725345E+00 0.28226223E+04</pdfrwt>
<pdfrwt beam="1">  1       -2 0.13576014E+00 0.28226223E+04</pdfrwt>
<totfact> 0.16192226E+00</totfact>
</mgrwt>
</event>
<event>
 4    1  0.2043502E-008  0.4277674E+04  0.7816531E-02  0.7950759E-01
          2   -1    0    0  501    0  0.00000000000E+00  0.00000000000E+00  0.28339134689E+04  0.28339134689E+04  0.00000000000E+00 0.  1.
         -2   -1    0    0    0  501 -0.00000000000E+00 -0.00000000000E+00 -0.16142426822E+04  0.16142426822E+04  0.00000000000E+00 0. -1.
    2000013    1    1    2    0    0  0.46908457571E+03  0.15175896097E+04 -0.50480141372E+03  0.19184480785E+04  0.95000000000E+03 0.  0.
   -2000013    1    1    2    0    0 -0.46908457571E+03 -0.15175896097E+04  0.17244722005E+04  0.25297080726E+04  0.95000000000E+03 0.  0.
<mgrwt>
<rscale>  0 0.42776742E+04</rscale>
<asrwt>0</asrwt>
<pdfrwt beam="1">  1        2 0.43598669E+00 0.42776742E+04</pdfrwt>
<pdfrwt beam="2">  1       -2 0.24834503E+00 0.42776742E+04</pdfrwt>
<totfact> 0.11188742E-01</totfact>
</mgrwt>
</event>
<event>
 4    1  0.2043502E-008  0.2796692E+04  0.7816531E-02  0.8304296E-01
         -2   -1    0    0    0  501 -0.00000000000E+00  0.00000000000E+00  0.85524926950E+03  0.85524926950E+03  0.00000000000E+00 0.  1.
          2   -1    0    0  501    0  0.00000000000E+00 -0.00000000000E+00 -0.22863175776E+04  0.22863175776E+04  0.00000000000E+00 0. -1.
    2000013    1    1    2    0    0  0.40656627695E+02  0.87989274788E+03 -0.13067515814E+04  0.18400988845E+04  0.95000000000E+03 0.  0.
   -2000013    1    1    2    0    0 -0.40656627695E+02 -0.87989274788E+03 -0.12431672666E+03  0.13014679626E+04  0.95000000000E+03 0.  0.
<mgrwt>
<rscale>  0 0.27966919E+04</rscale>
<asrwt>0</asrwt>
<pdfrwt beam="2">  1        2 0.35174116E+00 0.27966919E+04</pdfrwt>
<pdfrwt beam="1">  1       -2 0.13157681E+00 0.27966919E+04</pdfrwt>
<totfact> 0.16919128E+00</totfact>
</mgrwt>
</event>
<event>
 4    1  0.2043502E-008  0.2120854E+04  0.7816531E-02  0.8552112E-01
          2   -1    0    0  501    0  0.00000000000E+00  0.00000000000E+00  0.13432581123E+04  0.13432581123E+04  0.00000000000E+00 0.  1.
         -2   -1    0    0    0  501 -0.00000000000E+00 -0.00000000000E+00 -0.83714791318E+03  0.83714791318E+03  0.00000000000E+00 0. -1.
    2000013    1    1    2    0    0 -0.34260672511E+03  0.81408267955E+02  0.57489321628E+03  0.11649072428E+04  0.95000000000E+03 0.  0.
   -2000013    1    1    2    0    0  0.34260672511E+03 -0.81408267955E+02 -0.68783017159E+02  0.10154987827E+04  0.95000000000E+03 0.  0.
<mgrwt>
<rscale>  0 0.21208543E+04</rscale>
<asrwt>0</asrwt>
<pdfrwt beam="1">  1        2 0.20665509E+00 0.21208543E+04</pdfrwt>
<pdfrwt beam="2">  1       -2 0.12879199E+00 0.21208543E+04</pdfrwt>
<totfact> 0.63837654E+00</totfact>
</mgrwt>
</event>
<event>
 4    1  0.2043502E-008  0.3142146E+04  0.7816531E-02  0.8204266E-01
         -2   -1    0    0    0  501 -0.00000000000E+00  0.00000000000E+00  0.17073329215E+04  0.17073329215E+04  0.00000000000E+00 0. -1.
          2   -1    0    0  501    0  0.00000000000E+00 -0.00000000000E+00 -0.14456876485E+04  0.14456876485E+04  0.00000000000E+00 0.  1.
    2000013    1    1    2    0    0 -0.38972396421E+03 -0.58588261519E+03 -0.90746944817E+03  0.14903502965E+04  0.95000000000E+03 0.  0.
   -2000013    1    1    2    0    0  0.38972396421E+03  0.58588261519E+03  0.11691147211E+04  0.16626702735E+04  0.95000000000E+03 0.  0.
<mgrwt>
<rscale>  0 0.31421458E+04</rscale>
<asrwt>0</asrwt>
<pdfrwt beam="2">  1        2 0.22241348E+00 0.31421458E+04</pdfrwt>
<pdfrwt beam="1">  1       -2 0.26266660E+00 0.31421458E+04</pdfrwt>
<totfact> 0.61954514E-01</totfact>
</mgrwt>
</event>
<event>
 4    1  0.2043502E-008  0.2448397E+04  0.7816531E-02  0.8421604E-01
         -2   -1    0    0    0  501 -0.00000000000E+00  0.00000000000E+00  0.65603139604E+03  0.65603139604E+03  0.00000000000E+00 0. -1.
          2   -1    0    0  501    0  0.00000000000E+00 -0.00000000000E+00 -0.22844360189E+04  0.22844360189E+04  0.00000000000E+00 0.  1.
    2000013    1    1    2    0    0  0.48313608258E+03 -0.56735922322E+03 -0.57148380675E+03  0.13358183648E+04  0.95000000000E+03 0.  0.
   -2000013    1    1    2    0    0 -0.48313608258E+03  0.56735922322E+03 -0.10569208161E+04  0.16046490501E+04  0.95000000000E+03 0.  0.
<mgrwt>
<rscale>  0 0.24483968E+04</rscale>
<asrwt>0</asrwt>
<pdfrwt beam="2">  1        2 0.35145170E+00 0.24483968E+04</pdfrwt>
<pdfrwt beam="1">  1       -2 0.10092791E+00 0.24483968E+04</pdfrwt>
<totfact> 0.33481079E+00</totfact>
</mgrwt>
</event>
<event>
 4    1  0.2043502E-008  0.2010806E+04  0.7816531E-02  0.8601585E-01
         -2   -1    0    0    0  501 -0.00000000000E+00  0.00000000000E+00  0.49774642569E+03  0.49774642569E+03  0.00000000000E+00 0. -1.
          2   -1    0    0  501    0  0.00000000000E+00 -0.00000000000E+00 -0.20308228599E+04  0.20308228599E+04  0.00000000000E+00 0.  1.
    2000013    1    1    2    0    0 -0.17424960366E+03  0.22140183690E+03 -0.55256842438E+03  0.11345543448E+04  0.95000000000E+03 0.  0.
   -2000013    1    1    2    0    0  0.17424960366E+03 -0.22140183690E+03 -0.98050800987E+03  0.13940149408E+04  0.95000000000E+03 0.  0.
<mgrwt>
<rscale>  0 0.20108056E+04</rscale>
<asrwt>0</asrwt>
<pdfrwt beam="2">  1        2 0.31243429E+00 0.20108056E+04</pdfrwt>
<pdfrwt beam="1">  1       -2 0.76576372E-01 0.20108056E+04</pdfrwt>
<totfact> 0.90881641E+00</totfact>
</mgrwt>
</event>
<event>
 4    1  0.2043502E-008  0.2392982E+04  0.7816531E-02  0.8442136E-01
          2   -1    0    0  501    0  0.00000000000E+00  0.00000000000E+00  0.47998172198E+04  0.47998172198E+04  0.00000000000E+00 0.  1.
         -2   -1    0    0    0  501 -0.00000000000E+00 -0.00000000000E+00 -0.29825939976E+03  0.29825939976E+03  0.00000000000E+00 0. -1.
    2000013    1    1    2    0    0  0.57881426345E+03 -0.32600973411E+03  0.16195739072E+04  0.19916897196E+04  0.95000000000E+03 0.  0.
   -2000013    1    1    2    0    0 -0.57881426345E+03  0.32600973411E+03  0.28819839128E+04  0.31063869000E+04  0.95000000000E+03 0.  0.
<mgrwt>
<rscale>  0 0.23929819E+04</rscale>
<asrwt>0</asrwt>
<pdfrwt beam="1">  1        2 0.73843336E+00 0.23929819E+04</pdfrwt>
<pdfrwt beam="2">  1       -2 0.45886065E-01 0.23929819E+04</pdfrwt>
<totfact> 0.24383481E-01</totfact>
</mgrwt>
</event>
<event>
 4    1  0.2043502E-008  0.3446552E+04  0.7816531E-02  0.8126575E-01
         -2   -1    0    0    0  501 -0.00000000000E+00  0.00000000000E+00  0.17024695229E+04  0.17024695229E+04  0.00000000000E+00 0. -1.
          2   -1    0    0  501    0  0.00000000000E+00 -0.00000000000E+00 -0.17443363235E+04  0.17443363235E+04  0.00000000000E+00 0.  1.
    2000013    1    1    2    0    0  0.75739970942E+03  0.64746023187E+02 -0.12414057793E+04  0.17382274524E+04  0.95000000000E+03 0.  0.
   -2000013    1    1    2    0    0 -0.75739970942E+03 -0.64746023187E+02  0.11995389787E+04  0.17085783941E+04  0.95000000000E+03 0.  0.
<mgrwt>
<rscale>  0 0.34465516E+04</rscale>
<asrwt>0</asrwt>
<pdfrwt beam="2">  1        2 0.26835944E+00 0.34465516E+04</pdfrwt>
<pdfrwt beam="1">  1       -2 0.26191839E+00 0.34465516E+04</pdfrwt>
<totfact> 0.41527540E-01</totfact>
</mgrwt>
</event>
<event>
 4    1  0.2043502E-008  0.2504394E+04  0.7816531E-02  0.8401422E-01
          2   -1    0    0  501    0  0.00000000000E+00  0.00000000000E+00  0.14345513747E+04  0.14345513747E+04  0.00000000000E+00 0.  1.
         -2   -1    0    0    0  501 -0.00000000000E+00 -0.00000000000E+00 -0.10930224767E+04  0.10930224767E+04  0.00000000000E+00 0. -1.
    2000013    1    1    2    0    0  0.66565940476E+03  0.43334105439E+03 -0.16995067384E+02  0.12384166282E+04  0.95000000000E+03 0.  0.
   -2000013    1    1    2    0    0 -0.66565940476E+03 -0.43334105439E+03  0.35852396531E+03  0.12891572233E+04  0.95000000000E+03 0.  0.
<mgrwt>
<rscale>  0 0.25043937E+04</rscale>
<asrwt>0</asrwt>
<pdfrwt beam="1">  1        2 0.22070021E+00 0.25043937E+04</pdfrwt>
<pdfrwt beam="2">  1       -2 0.16815730E+00 0.25043937E+04</pdfrwt>
<totfact> 0.27087323E+00</totfact>
</mgrwt>
</event>
<event>
 4    1  0.2043502E-008  0.2492187E+04  0.7816531E-02  0.8405774E-01
         -2   -1    0    0    0  501 -0.00000000000E+00  0.00000000000E+00  0.10215429578E+04  0.10215429578E+04  0.00000000000E+00 0. -1.
          2   -1    0    0  501    0  0.00000000000E+00 -0.00000000000E+00 -0.15200033952E+04  0.15200033952E+04  0.00000000000E+00 0.  1.
    2000013    1    1    2    0    0  0.39356177502E+01 -0.78935429166E+03 -0.41727575109E+03  0.13037310840E+04  0.95000000000E+03 0.  0.
   -2000013    1    1    2    0    0 -0.39356177502E+01  0.78935429166E+03 -0.81184686353E+02  0.12378152690E+04  0.95000000000E+03 0.  0.
<mgrwt>
<rscale>  0 0.24921868E+04</rscale>
<asrwt>0</asrwt>
<pdfrwt beam="2">  1        2 0.23384667E+00 0.24921868E+04</pdfrwt>
<pdfrwt beam="1">  1       -2 0.15716046E+00 0.24921868E+04</pdfrwt>
<totfact> 0.29194319E+00</totfact>
</mgrwt>
</event>
<event>
 4    1  0.2043502E-008  0.2448710E+04  0.7816531E-02  0.8421489E-01
         -2   -1    0    0    0  501 -0.00000000000E+00  0.00000000000E+00  0.55059248946E+03  0.55059248946E+03  0.00000000000E+00 0. -1.
          2   -1    0    0  501    0  0.00000000000E+00 -0.00000000000E+00 -0.27226047864E+04  0.27226047864E+04  0.00000000000E+00 0.  1.
    2000013    1    1    2    0    0 -0.92148363947E+02 -0.75925783647E+03 -0.12298614416E+04  0.17320574323E+04  0.95000000000E+03 0.  0.
   -2000013    1    1    2    0    0  0.92148363947E+02  0.75925783647E+03 -0.94215085532E+03  0.15411398436E+04  0.95000000000E+03 0.  0.
<mgrwt>
<rscale>  0 0.24487105E+04</rscale>
<asrwt>0</asrwt>
<pdfrwt beam="2">  1        2 0.41886226E+00 0.24487105E+04</pdfrwt>
<pdfrwt beam="1">  1       -2 0.84706539E-01 0.24487105E+04</pdfrwt>
<totfact> 0.27999433E+00</totfact>
</mgrwt>
</event>
<event>
 4    1  0.2043502E-008  0.2415066E+04  0.7816531E-02  0.8433885E-01
          2   -1    0    0  501    0  0.00000000000E+00  0.00000000000E+00  0.23173012942E+04  0.23173012942E+04  0.00000000000E+00 0.  1.
         -2   -1    0    0    0  501 -0.00000000000E+00 -0.00000000000E+00 -0.62923863183E+03  0.62923863183E+03  0.00000000000E+00 0. -1.
    2000013    1    1    2    0    0 -0.48774178598E+03 -0.34893480070E+02  0.15761435856E+03  0.10800240232E+04  0.95000000000E+03 0.  0.
   -2000013    1    1    2    0    0  0.48774178598E+03  0.34893480070E+02  0.15304483038E+04  0.18665159028E+04  0.95000000000E+03 0.  0.
<mgrwt>
<rscale>  0 0.24150656E+04</rscale>
<asrwt>0</asrwt>
<pdfrwt beam="1">  1        2 0.35650789E+00 0.24150656E+04</pdfrwt>
<pdfrwt beam="2">  1       -2 0.96805945E-01 0.24150656E+04</pdfrwt>
<totfact> 0.35491891E+00</totfact>
</mgrwt>
</event>
<event>
 4    1  0.2043502E-008  0.2534335E+04  0.7816531E-02  0.8390855E-01
         -2   -1    0    0    0  501 -0.00000000000E+00  0.00000000000E+00  0.10381224374E+04  0.10381224374E+04  0.00000000000E+00 0. -1.
          2   -1    0    0  501    0  0.00000000000E+00 -0.00000000000E+00 -0.15467481291E+04  0.15467481291E+04  0.00000000000E+00 0.  1.
    2000013    1    1    2    0    0  0.63703734109E+03  0.45076251205E+03 -0.56737056825E+03  0.13540357373E+04  0.95000000000E+03 0.  0.
   -2000013    1    1    2    0    0 -0.63703734109E+03 -0.45076251205E+03  0.58744876522E+02  0.12308348292E+04  0.95000000000E+03 0.  0.
<mgrwt>
<rscale>  0 0.25343354E+04</rscale>
<asrwt>0</asrwt>
<pdfrwt beam="2">  1        2 0.23796125E+00 0.25343354E+04</pdfrwt>
<pdfrwt beam="1">  1       -2 0.15971114E+00 0.25343354E+04</pdfrwt>
<totfact> 0.26899052E+00</totfact>
</mgrwt>
</event>
<event>
 4    1  0.2043502E-008  0.2349798E+04  0.7816531E-02  0.8458541E-01
          1   -1    0    0  501    0  0.00000000000E+00  0.00000000000E+00  0.22256621581E+04  0.22256621581E+04  0.00000000000E+00 0.  1.
         -1   -1    0    0    0  501 -0.00000000000E+00 -0.00000000000E+00 -0.62021451382E+03  0.62021451382E+03  0.00000000000E+00 0. -1.
    2000013    1    1    2    0    0 -0.51811361366E+03 -0.33461076071E+03  0.11808593461E+04  0.16362563592E+04  0.95000000000E+03 0.  0.
   -2000013    1    1    2    0    0  0.51811361366E+03  0.33461076071E+03  0.42458829812E+03  0.12096203126E+04  0.95000000000E+03 0.  0.
<mgrwt>
<rscale>  0 0.23497983E+04</rscale>
<asrwt>0</asrwt>
<pdfrwt beam="1">  1        1 0.34240956E+00 0.23497983E+04</pdfrwt>
<pdfrwt beam="2">  1       -1 0.95417619E-01 0.23497983E+04</pdfrwt>
<totfact> 0.19961783E+00</totfact>
</mgrwt>
</event>
<event>
 4    1  0.2043502E-008  0.2604285E+04  0.7816531E-02  0.8366747E-01
         -2   -1    0    0    0  501 -0.00000000000E+00  0.00000000000E+00  0.68713760764E+03  0.68713760764E+03  0.00000000000E+00 0. -1.
          2   -1    0    0  501    0  0.00000000000E+00 -0.00000000000E+00 -0.24675914668E+04  0.24675914668E+04  0.00000000000E+00 0.  1.
    2000013    1    1    2    0    0 -0.17843379508E+03 -0.87157672792E+03 -0.84191981445E+03  0.15501011534E+04  0.95000000000E+03 0.  0.
   -2000013    1    1    2    0    0  0.17843379508E+03  0.87157672792E+03 -0.93853404476E+03  0.16046279211E+04  0.95000000000E+03 0.  0.
<mgrwt>
<rscale>  0 0.26042849E+04</rscale>
<asrwt>0</asrwt>
<pdfrwt beam="2">  1        2 0.37962946E+00 0.26042849E+04</pdfrwt>
<pdfrwt beam="1">  1       -2 0.10571348E+00 0.26042849E+04</pdfrwt>
<totfact> 0.23239663E+00</totfact>
</mgrwt>
</event>
<event>
 4    1  0.2043502E-008  0.4468736E+04  0.7816531E-02  0.7916133E-01
         -1   -1    0    0    0  501 -0.00000000000E+00  0.00000000000E+00  0.17712872516E+04  0.17712872516E+04  0.00000000000E+00 0. -1.
          1   -1    0    0  501    0  0.00000000000E+00 -0.00000000000E+00 -0.28185157039E+04  0.28185157039E+04  0.00000000000E+00 0.  1.
    2000013    1    1    2    0    0 -0.26357139702E+03  0.17462016098E+04 -0.15358137112E+04  0.25258491046E+04  0.95000000000E+03 0.  0.
   -2000013    1    1    2    0    0  0.26357139702E+03 -0.17462016098E+04  0.48858525891E+03  0.20639538509E+04  0.95000000000E+03 0.  0.
<mgrwt>
<rscale>  0 0.44687363E+04</rscale>
<asrwt>0</asrwt>
<pdfrwt beam="2">  1        1 0.43361780E+00 0.44687363E+04</pdfrwt>
<pdfrwt beam="1">  1       -1 0.27250573E+00 0.44687363E+04</pdfrwt>
<totfact> 0.30308568E-02</totfact>
</mgrwt>
</event>
<event>
 4    1  0.2043502E-008  0.2486982E+04  0.7816531E-02  0.8407638E-01
         -2   -1    0    0    0  501 -0.00000000000E+00  0.00000000000E+00  0.11007170034E+04  0.11007170034E+04  0.00000000000E+00 0. -1.
          2   -1    0    0  501    0  0.00000000000E+00 -0.00000000000E+00 -0.14047844311E+04  0.14047844311E+04  0.00000000000E+00 0.  1.
    2000013    1    1    2    0    0  0.55039739836E+03 -0.43292169505E+03 -0.54662828579E+03  0.13006386789E+04  0.95000000000E+03 0.  0.
   -2000013    1    1    2    0    0 -0.55039739836E+03  0.43292169505E+03  0.24256085806E+03  0.12048627557E+04  0.95000000000E+03 0.  0.
<mgrwt>
<rscale>  0 0.24869822E+04</rscale>
<asrwt>0</asrwt>
<pdfrwt beam="2">  1        2 0.21612068E+00 0.24869822E+04</pdfrwt>
<pdfrwt beam="1">  1       -2 0.16934108E+00 0.24869822E+04</pdfrwt>
<totfact> 0.27664489E+00</totfact>
</mgrwt>
</event>
<event>
 4    1  0.2043502E-008  0.2749357E+04  0.7816531E-02  0.8319166E-01
         -2   -1    0    0    0  501 -0.00000000000E+00  0.00000000000E+00  0.79166583903E+03  0.79166583903E+03  0.00000000000E+00 0. -1.
          2   -1    0    0  501    0  0.00000000000E+00 -0.00000000000E+00 -0.23870438661E+04  0.23870438661E+04  0.00000000000E+00 0.  1.
    2000013    1    1    2    0    0  0.94758888154E+03  0.25616233108E+03 -0.97566801143E+03  0.16786815948E+04  0.95000000000E+03 0.  0.
   -2000013    1    1    2    0    0 -0.94758888154E+03 -0.25616233108E+03 -0.61971001568E+03  0.15000281103E+04  0.95000000000E+03 0.  0.
<mgrwt>
<rscale>  0 0.27493571E+04</rscale>
<asrwt>0</asrwt>
<pdfrwt beam="2">  1        2 0.36723752E+00 0.27493571E+04</pdfrwt>
<pdfrwt beam="1">  1       -2 0.12179474E+00 0.27493571E+04</pdfrwt>
<totfact> 0.18078536E+00</totfact>
</mgrwt>
</event>
<event>
 4    1  0.2043502E-008  0.1977303E+04  0.7816531E-02  0.8617306E-01
         -1   -1    0    0    0  501 -0.00000000000E+00  0.00000000000E+00  0.13184478868E+04  0.13184478868E+04  0.00000000000E+00 0. -1.
          1   -1    0    0  501    0  0.00000000000E+00 -0.00000000000E+00 -0.74135057415E+03  0.74135057415E+03  0.00000000000E+00 0.  1.
    2000013    1    1    2    0    0 -0.12909717191E+03  0.22866005346E+03  0.36910945105E+03  0.10524700883E+04  0.95000000000E+03 0.  0.
   -2000013    1    1    2    0    0  0.12909717191E+03 -0.22866005346E+03  0.20798786160E+03  0.10073283727E+04  0.95000000000E+03 0.  0.
<mgrwt>
<rscale>  0 0.19773033E+04</rscale>
<asrwt>0</asrwt>
<pdfrwt beam="2">  1        1 0.11405393E+00 0.19773033E+04</pdfrwt>
<pdfrwt beam="1">  1       -1 0.20283814E+00 0.19773033E+04</pdfrwt>
<totfact> 0.33347863E+00</totfact>
</mgrwt>
</event>
<event>
 4    1  0.2043502E-008  0.2163056E+04  0.7816531E-02  0.8533964E-01
          2   -1    0    0  501    0  0.00000000000E+00  0.00000000000E+00  0.17111216880E+04  0.17111216880E+04  0.00000000000E+00 0.  1.
         -2   -1    0    0    0  501 -0.00000000000E+00 -0.00000000000E+00 -0.68358843064E+03  0.68358843064E+03  0.00000000000E+00 0. -1.
    2000013    1    1    2    0    0 -0.14934611600E+03 -0.47347422523E+03  0.35440296543E+03  0.11289745640E+04  0.95000000000E+03 0.  0.
   -2000013    1    1    2    0    0  0.14934611600E+03  0.47347422523E+03  0.67313029196E+03  0.12657355546E+04  0.95000000000E+03 0.  0.
<mgrwt>
<rscale>  0 0.21630562E+04</rscale>
<asrwt>0</asrwt>
<pdfrwt beam="1">  1        2 0.26324949E+00 0.21630562E+04</pdfrwt>
<pdfrwt beam="2">  1       -2 0.10516745E+00 0.21630562E+04</pdfrwt>
<totfact> 0.64911551E+00</totfact>
</mgrwt>
</event>
<event>
 4    1  0.2043502E-008  0.2350697E+04  0.7816531E-02  0.8458196E-01
          2   -1    0    0  501    0  0.00000000000E+00  0.00000000000E+00  0.25987688720E+04  0.25987688720E+04  0.00000000000E+00 0.  1.
         -2   -1    0    0    0  501 -0.00000000000E+00 -0.00000000000E+00 -0.53157637442E+03  0.53157637442E+03  0.00000000000E+00 0. -1.
    2000013    1    1    2    0    0  0.61046862109E+03 -0.16666478086E+03  0.66050358430E+03  0.13187926567E+04  0.95000000000E+03 0.  0.
   -2000013    1    1    2    0    0 -0.61046862109E+03  0.16666478086E+03  0.14066889133E+04  0.18115525897E+04  0.95000000000E+03 0.  0.
<mgrwt>
<rscale>  0 0.23506970E+04</rscale>
<asrwt>0</asrwt>
<pdfrwt beam="1">  1        2 0.39981059E+00 0.23506970E+04</pdfrwt>
<pdfrwt beam="2">  1       -2 0.81780982E-01 0.23506970E+04</pdfrwt>
<totfact> 0.36199830E+00</totfact>
</mgrwt>
</event>
<event>
 4    1  0.2043502E-008  0.3073709E+04  0.7816531E-02  0.8222990E-01
         -1   -1    0    0    0  501 -0.00000000000E+00  0.00000000000E+00  0.72289399186E+03  0.72289399186E+03  0.00000000000E+00 0. -1.
          1   -1    0    0  501    0  0.00000000000E+00 -0.00000000000E+00 -0.32673144594E+04  0.32673144594E+04  0.00000000000E+00 0.  1.
    2000013    1    1    2    0    0 -0.11834932529E+04 -0.22999040947E+03 -0.11727484026E+04  0.19316807925E+04  0.95000000000E+03 0.  0.
   -2000013    1    1    2    0    0  0.11834932529E+04  0.22999040947E+03 -0.13716720649E+04  0.20585276588E+04  0.95000000000E+03 0.  0.
<mgrwt>
<rscale>  0 0.30737092E+04</rscale>
<asrwt>0</asrwt>
<pdfrwt beam="2">  1        1 0.50266376E+00 0.30737092E+04</pdfrwt>
<pdfrwt beam="1">  1       -1 0.11121446E+00 0.30737092E+04</pdfrwt>
<totfact> 0.23757538E-01</totfact>
</mgrwt>
</event>
<event>
 4    1  0.2043502E-008  0.2325325E+04  0.7816531E-02  0.8468002E-01
         -2   -1    0    0    0  501 -0.00000000000E+00  0.00000000000E+00  0.58658749149E+03  0.58658749149E+03  0.00000000000E+00 0. -1.
          2   -1    0    0  501    0  0.00000000000E+00 -0.00000000000E+00 -0.23044875072E+04  0.23044875072E+04  0.00000000000E+00 0.  1.
    2000013    1    1    2    0    0  0.57654321655E+03 -0.27718604121E+03 -0.61013670492E+03  0.12976906337E+04  0.95000000000E+03 0.  0.
   -2000013    1    1    2    0    0 -0.57654321655E+03  0.27718604121E+03 -0.11077633108E+04  0.15933843650E+04  0.95000000000E+03 0.  0.
<mgrwt>
<rscale>  0 0.23253245E+04</rscale>
<asrwt>0</asrwt>
<pdfrwt beam="2">  1        2 0.35453654E+00 0.23253245E+04</pdfrwt>
<pdfrwt beam="1">  1       -2 0.90244230E-01 0.23253245E+04</pdfrwt>
<totfact> 0.42819338E+00</totfact>
</mgrwt>
</event>
<event>
 4    1  0.2043502E-008  0.3219012E+04  0.7816531E-02  0.8183814E-01
         -2   -1    0    0    0  501 -0.00000000000E+00  0.00000000000E+00  0.22855741048E+04  0.22855741048E+04  0.00000000000E+00 0.  1.
          2   -1    0    0  501    0  0.00000000000E+00 -0.00000000000E+00 -0.11334177725E+04  0.11334177725E+04  0.00000000000E+00 0. -1.
    2000013    1    1    2    0    0  0.12936680941E+04 -0.81175714975E+02  0.67014472352E+03  0.17411951599E+04  0.95000000000E+03 0.  0.
   -2000013    1    1    2    0    0 -0.12936680941E+04  0.81175714975E+02  0.48201160878E+03  0.16777967175E+04  0.95000000000E+03 0.  0.
<mgrwt>
<rscale>  0 0.32190125E+04</rscale>
<asrwt>0</asrwt>
<pdfrwt beam="2">  1        2 0.17437197E+00 0.32190125E+04</pdfrwt>
<pdfrwt beam="1">  1       -2 0.35162678E+00 0.32190125E+04</pdfrwt>
<totfact> 0.26535183E-01</totfact>
</mgrwt>
</event>
<event>
 4    1  0.2043502E-008  0.2411374E+04  0.7816531E-02  0.8435258E-01
         -2   -1    0    0    0  501 -0.00000000000E+00  0.00000000000E+00  0.18163726737E+04  0.18163726737E+04  0.00000000000E+00 0. -1.
          2   -1    0    0  501    0  0.00000000000E+00 -0.00000000000E+00 -0.80032070710E+03  0.80032070710E+03  0.00000000000E+00 0.  1.
    2000013    1    1    2    0    0 -0.50871821203E+03  0.44372876328E+03  0.84335417932E+03  0.14385533380E+04  0.95000000000E+03 0.  0.
   -2000013    1    1    2    0    0  0.50871821203E+03 -0.44372876328E+03  0.17269778727E+03  0.11781400428E+04  0.95000000000E+03 0.  0.
<mgrwt>
<rscale>  0 0.24113736E+04</rscale>
<asrwt>0</asrwt>
<pdfrwt beam="2">  1        2 0.12312626E+00 0.24113736E+04</pdfrwt>
<pdfrwt beam="1">  1       -2 0.27944195E+00 0.24113736E+04</pdfrwt>
<totfact> 0.13128509E+00</totfact>
</mgrwt>
</event>
<event>
 4    1  0.2043502E-008  0.2967118E+04  0.7816531E-02  0.8253183E-01
          1   -1    0    0  501    0  0.00000000000E+00  0.00000000000E+00  0.15363565306E+04  0.15363565306E+04  0.00000000000E+00 0.  1.
         -1   -1    0    0    0  501 -0.00000000000E+00 -0.00000000000E+00 -0.14325756802E+04  0.14325756802E+04  0.00000000000E+00 0. -1.
    2000013    1    1    2    0    0 -0.87089716726E+03 -0.22541146595E+03  0.75172844107E+03  0.15089293734E+04  0.95000000000E+03 0.  0.
   -2000013    1    1    2    0    0  0.87089716726E+03  0.22541146595E+03 -0.64794759064E+03  0.14600028374E+04  0.95000000000E+03 0.  0.
<mgrwt>
<rscale>  0 0.29671178E+04</rscale>
<asrwt>0</asrwt>
<pdfrwt beam="1">  1        1 0.23636254E+00 0.29671178E+04</pdfrwt>
<pdfrwt beam="2">  1       -1 0.22039626E+00 0.29671178E+04</pdfrwt>
<totfact> 0.57628970E-01</totfact>
</mgrwt>
</event>
<event>
 4    1  0.2043502E-008  0.2371639E+04  0.7816531E-02  0.8450198E-01
         -2   -1    0    0    0  501 -0.00000000000E+00  0.00000000000E+00  0.97843605773E+03  0.97843605773E+03  0.00000000000E+00 0. -1.
          2   -1    0    0  501    0  0.00000000000E+00 -0.00000000000E+00 -0.14371584799E+04  0.14371584799E+04  0.00000000000E+00 0.  1.
    2000013    1    1    2    0    0  0.67176841920E+03 -0.18944961482E+03 -0.36020897470E+03  0.12326453144E+04  0.95000000000E+03 0.  0.
   -2000013    1    1    2    0    0 -0.67176841920E+03  0.18944961482E+03 -0.98513447515E+02  0.11829492233E+04  0.95000000000E+03 0.  0.
<mgrwt>
<rscale>  0 0.23716388E+04</rscale>
<asrwt>0</asrwt>
<pdfrwt beam="2">  1        2 0.22110130E+00 0.23716388E+04</pdfrwt>
<pdfrwt beam="1">  1       -2 0.15052863E+00 0.23716388E+04</pdfrwt>
<totfact> 0.36873646E+00</totfact>
</mgrwt>
</event>
<event>
 4    1  0.2043502E-008  0.2625772E+04  0.7816531E-02  0.8359499E-01
          2   -1    0    0  501    0  0.00000000000E+00  0.00000000000E+00  0.28998364034E+04  0.28998364034E+04  0.00000000000E+00 0.  1.
         -2   -1    0    0    0  501 -0.00000000000E+00 -0.00000000000E+00 -0.59440242240E+03  0.59440242240E+03  0.00000000000E+00 0. -1.
    2000013    1    1    2    0    0 -0.89878452361E+03  0.11364891183E+03  0.11806337622E+04  0.17655383812E+04  0.95000000000E+03 0.  0.
   -2000013    1    1    2    0    0  0.89878452361E+03 -0.11364891183E+03  0.11248002189E+04  0.17287004447E+04  0.95000000000E+03 0.  0.
<mgrwt>
<rscale>  0 0.26257721E+04</rscale>
<asrwt>0</asrwt>
<pdfrwt beam="1">  1        2 0.44612867E+00 0.26257721E+04</pdfrwt>
<pdfrwt beam="2">  1       -2 0.91446528E-01 0.26257721E+04</pdfrwt>
<totfact> 0.18062807E+00</totfact>
</mgrwt>
</event>
<event>
 4    1  0.2043502E-008  0.2182676E+04  0.7816531E-02  0.8525674E-01
         -2   -1    0    0    0  501 -0.00000000000E+00  0.00000000000E+00  0.10055520604E+04  0.10055520604E+04  0.00000000000E+00 0. -1.
          2   -1    0    0  501    0  0.00000000000E+00 -0.00000000000E+00 -0.11844424865E+04  0.11844424865E+04  0.00000000000E+00 0.  1.
    2000013    1    1    2    0    0  0.47730122027E+03  0.63476708269E+02 -0.32830400944E+03  0.11145085329E+04  0.95000000000E+03 0.  0.
   -2000013    1    1    2    0    0 -0.47730122027E+03 -0.63476708269E+02  0.14941358336E+03  0.10754860140E+04  0.95000000000E+03 0.  0.
<mgrwt>
<rscale>  0 0.21826760E+04</rscale>
<asrwt>0</asrwt>
<pdfrwt beam="2">  1        2 0.18222192E+00 0.21826760E+04</pdfrwt>
<pdfrwt beam="1">  1       -2 0.15470032E+00 0.21826760E+04</pdfrwt>
<totfact> 0.48884834E+00</totfact>
</mgrwt>
</event>
<event>
 4    1  0.2043502E-008  0.2608710E+04  0.7816531E-02  0.8365249E-01
          2   -1    0    0  501    0  0.00000000000E+00  0.00000000000E+00  0.21659648681E+04  0.21659648681E+04  0.00000000000E+00 0.  1.
         -2   -1    0    0    0  501 -0.00000000000E+00 -0.00000000000E+00 -0.78548920928E+03  0.78548920928E+03  0.00000000000E+00 0. -1.
    2000013    1    1    2    0    0  0.14032985351E+03 -0.67510951817E+03  0.46862234440E+02  0.11748027061E+04  0.95000000000E+03 0.  0.
   -2000013    1    1    2    0    0 -0.14032985351E+03  0.67510951817E+03  0.13336134244E+04  0.17766513713E+04  0.95000000000E+03 0.  0.
<mgrwt>
<rscale>  0 0.26087101E+04</rscale>
<asrwt>0</asrwt>
<pdfrwt beam="1">  1        2 0.33322536E+00 0.26087101E+04</pdfrwt>
<pdfrwt beam="2">  1       -2 0.12084449E+00 0.26087101E+04</pdfrwt>
<totfact> 0.24888823E+00</totfact>
</mgrwt>
</event>
<event>
 4    1  0.2043502E-008  0.2612208E+04  0.7816531E-02  0.8364066E-01
         -2   -1    0    0    0  501 -0.00000000000E+00  0.00000000000E+00  0.58242097188E+03  0.58242097188E+03  0.00000000000E+00 0. -1.
          2   -1    0    0  501    0  0.00000000000E+00 -0.00000000000E+00 -0.29289947285E+04  0.29289947285E+04  0.00000000000E+00 0.  1.
    2000013    1    1    2    0    0 -0.83218549098E+03 -0.50142929333E+02 -0.73078934017E+03  0.14600000221E+04  0.95000000000E+03 0.  0.
   -2000013    1    1    2    0    0  0.83218549098E+03  0.50142929333E+02 -0.16157844165E+04  0.20514156783E+04  0.95000000000E+03 0.  0.
<mgrwt>
<rscale>  0 0.26122082E+04</rscale>
<asrwt>0</asrwt>
<pdfrwt beam="2">  1        2 0.45061459E+00 0.26122082E+04</pdfrwt>
<pdfrwt beam="1">  1       -2 0.89603224E-01 0.26122082E+04</pdfrwt>
<totfact> 0.18185887E+00</totfact>
</mgrwt>
</event>
<event>
 4    1  0.2043502E-008  0.2840701E+04  0.7816531E-02  0.8290742E-01
          2   -1    0    0  501    0  0.00000000000E+00  0.00000000000E+00  0.28618909219E+04  0.28618909219E+04  0.00000000000E+00 0.  1.
         -2   -1    0    0    0  501 -0.00000000000E+00 -0.00000000000E+00 -0.70491720334E+03  0.70491720334E+03  0.00000000000E+00 0. -1.
    2000013    1    1    2    0    0  0.29754526576E+03  0.72695616197E+03  0.19644674700E+04  0.23191875490E+04  0.95000000000E+03 0.  0.
   -2000013    1    1    2    0    0 -0.29754526576E+03 -0.72695616197E+03  0.19250624855E+03  0.12476205763E+04  0.95000000000E+03 0.  0.
<mgrwt>
<rscale>  0 0.28407014E+04</rscale>
<asrwt>0</asrwt>
<pdfrwt beam="1">  1        2 0.44029090E+00 0.28407014E+04</pdfrwt>
<pdfrwt beam="2">  1       -2 0.10844880E+00 0.28407014E+04</pdfrwt>
<totfact> 0.12498717E+00</totfact>
</mgrwt>
</event>
<event>
 4    1  0.2043502E-008  0.2902934E+04  0.7816531E-02  0.8272005E-01
          2   -1    0    0  501    0  0.00000000000E+00  0.00000000000E+00  0.13176393028E+04  0.13176393028E+04  0.00000000000E+00 0.  1.
         -2   -1    0    0    0  501 -0.00000000000E+00 -0.00000000000E+00 -0.15988867172E+04  0.15988867172E+04  0.00000000000E+00 0. -1.
    2000013    1    1    2    0    0 -0.91752538673E+03  0.31967337611E+03 -0.65312205116E+03  0.15076844220E+04  0.95000000000E+03 0.  0.
   -2000013    1    1    2    0    0  0.91752538673E+03 -0.31967337611E+03  0.37187463685E+03  0.14088415980E+04  0.95000000000E+03 0.  0.
<mgrwt>
<rscale>  0 0.29029337E+04</rscale>
<asrwt>0</asrwt>
<pdfrwt beam="1">  1        2 0.20271374E+00 0.29029337E+04</pdfrwt>
<pdfrwt beam="2">  1       -2 0.24598257E+00 0.29029337E+04</pdfrwt>
<totfact> 0.94771754E-01</totfact>
</mgrwt>
</event>
<event>
 4    1  0.2043502E-008  0.3612721E+04  0.7816531E-02  0.8087584E-01
          2   -1    0    0  501    0  0.00000000000E+00  0.00000000000E+00  0.32917501717E+04  0.32917501717E+04  0.00000000000E+00 0.  1.
         -2   -1    0    0    0  501 -0.00000000000E+00 -0.00000000000E+00 -0.99124698938E+03  0.99124698938E+03  0.00000000000E+00 0. -1.
    2000013    1    1    2    0    0 -0.14448543951E+04 -0.43002553885E+03  0.15017599606E+04  0.23303023766E+04  0.95000000000E+03 0.  0.
   -2000013    1    1    2    0    0  0.14448543951E+04  0.43002553885E+03  0.79874322171E+03  0.19526947845E+04  0.95000000000E+03 0.  0.
<mgrwt>
<rscale>  0 0.36127206E+04</rscale>
<asrwt>0</asrwt>
<pdfrwt beam="1">  1        2 0.50642310E+00 0.36127206E+04</pdfrwt>
<pdfrwt beam="2">  1       -2 0.15249954E+00 0.36127206E+04</pdfrwt>
<totfact> 0.26302220E-01</totfact>
</mgrwt>
</event>
<event>
 4    1  0.2043502E-008  0.2288935E+04  0.7816531E-02  0.8482297E-01
         -2   -1    0    0    0  501 -0.00000000000E+00  0.00000000000E+00  0.52444099693E+03  0.52444099693E+03  0.00000000000E+00 0. -1.
          2   -1    0    0  501    0  0.00000000000E+00 -0.00000000000E+00 -0.24975271798E+04  0.24975271798E+04  0.00000000000E+00 0.  1.
    2000013    1    1    2    0    0  0.14021917218E+03  0.61576522385E+03 -0.11081024033E+04  0.15903518992E+04  0.95000000000E+03 0.  0.
   -2000013    1    1    2    0    0 -0.14021917218E+03 -0.61576522385E+03 -0.86498377955E+03  0.14316162775E+04  0.95000000000E+03 0.  0.
<mgrwt>
<rscale>  0 0.22889348E+04</rscale>
<asrwt>0</asrwt>
<pdfrwt beam="2">  1        2 0.38423495E+00 0.22889348E+04</pdfrwt>
<pdfrwt beam="1">  1       -2 0.80683230E-01 0.22889348E+04</pdfrwt>
<totfact> 0.42977382E+00</totfact>
</mgrwt>
</event>
<event>
 4    1  0.2043502E-008  0.2539348E+04  0.7816531E-02  0.8389100E-01
         -2   -1    0    0    0  501 -0.00000000000E+00  0.00000000000E+00  0.11512890844E+04  0.11512890844E+04  0.00000000000E+00 0. -1.
          2   -1    0    0  501    0  0.00000000000E+00 -0.00000000000E+00 -0.14002320463E+04  0.14002320463E+04  0.00000000000E+00 0.  1.
    2000013    1    1    2    0    0  0.62680583204E+03  0.52731777731E+03  0.72996158260E+02  0.12564943408E+04  0.95000000000E+03 0.  0.
   -2000013    1    1    2    0    0 -0.62680583204E+03 -0.52731777731E+03 -0.32193912013E+03  0.12950267898E+04  0.95000000000E+03 0.  0.
<mgrwt>
<rscale>  0 0.25393478E+04</rscale>
<asrwt>0</asrwt>
<pdfrwt beam="2">  1        2 0.21542031E+00 0.25393478E+04</pdfrwt>
<pdfrwt beam="1">  1       -2 0.17712140E+00 0.25393478E+04</pdfrwt>
<totfact> 0.24421128E+00</totfact>
</mgrwt>
</event>
<event>
 4    1  0.2043502E-008  0.3268188E+04  0.7816531E-02  0.8171037E-01
          2   -1    0    0  501    0  0.00000000000E+00  0.00000000000E+00  0.19797984224E+04  0.19797984224E+04  0.00000000000E+00 0.  1.
         -2   -1    0    0    0  501 -0.00000000000E+00 -0.00000000000E+00 -0.13487550786E+04  0.13487550786E+04  0.00000000000E+00 0. -1.
    2000013    1    1    2    0    0 -0.11017563076E+04 -0.65498062839E+03  0.67545644581E+03  0.17325149336E+04  0.95000000000E+03 0.  0.
   -2000013    1    1    2    0    0  0.11017563076E+04  0.65498062839E+03 -0.44413101992E+02  0.15960385674E+04  0.95000000000E+03 0.  0.
<mgrwt>
<rscale>  0 0.32681880E+04</rscale>
<asrwt>0</asrwt>
<pdfrwt beam="1">  1        2 0.30458437E+00 0.32681880E+04</pdfrwt>
<pdfrwt beam="2">  1       -2 0.20750078E+00 0.32681880E+04</pdfrwt>
<totfact> 0.68235532E-01</totfact>
</mgrwt>
</event>
<event>
 4    1  0.2043502E-008  0.3620081E+04  0.7816531E-02  0.8085907E-01
          2   -1    0    0  501    0  0.00000000000E+00  0.00000000000E+00  0.28187242268E+04  0.28187242268E+04  0.00000000000E+00 0.  1.
         -2   -1    0    0    0  501 -0.00000000000E+00 -0.00000000000E+00 -0.11623152064E+04  0.11623152064E+04  0.00000000000E+00 0. -1.
    2000013    1    1    2    0    0 -0.14546792709E+04 -0.48578953245E+03  0.99006294260E+03  0.20578648841E+04  0.95000000000E+03 0.  0.
   -2000013    1    1    2    0    0  0.14546792709E+04  0.48578953245E+03  0.66634607779E+03  0.19231745491E+04  0.95000000000E+03 0.  0.
<mgrwt>
<rscale>  0 0.36200807E+04</rscale>
<asrwt>0</asrwt>
<pdfrwt beam="1">  1        2 0.43364988E+00 0.36200807E+04</pdfrwt>
<pdfrwt beam="2">  1       -2 0.17881773E+00 0.36200807E+04</pdfrwt>
<totfact> 0.33856824E-01</totfact>
</mgrwt>
</event>
<event>
 4    1  0.2043502E-008  0.2657790E+04  0.7816531E-02  0.8348832E-01
         -2   -1    0    0    0  501 -0.00000000000E+00  0.00000000000E+00  0.84918313208E+03  0.84918313208E+03  0.00000000000E+00 0. -1.
          2   -1    0    0  501    0  0.00000000000E+00 -0.00000000000E+00 -0.20796012243E+04  0.20796012243E+04  0.00000000000E+00 0.  1.
    2000013    1    1    2    0    0 -0.72622992592E+03 -0.50447690903E+03 -0.92990641652E+03  0.15966003885E+04  0.95000000000E+03 0.  0.
   -2000013    1    1    2    0    0  0.72622992592E+03  0.50447690903E+03 -0.30051167570E+03  0.13321839679E+04  0.95000000000E+03 0.  0.
<mgrwt>
<rscale>  0 0.26577903E+04</rscale>
<asrwt>0</asrwt>
<pdfrwt beam="2">  1        2 0.31993865E+00 0.26577903E+04</pdfrwt>
<pdfrwt beam="1">  1       -2 0.13064356E+00 0.26577903E+04</pdfrwt>
<totfact> 0.22775996E+00</totfact>
</mgrwt>
</event>
<event>
 4    1  0.2043502E-008  0.2182842E+04  0.7816531E-02  0.8525604E-01
          2   -1    0    0  501    0  0.00000000000E+00  0.00000000000E+00  0.12966514521E+04  0.12966514521E+04  0.00000000000E+00 0.  1.
         -2   -1    0    0    0  501 -0.00000000000E+00 -0.00000000000E+00 -0.91867386209E+03  0.91867386209E+03  0.00000000000E+00 0. -1.
    2000013    1    1    2    0    0 -0.36331684427E+03 -0.38718988986E+03  0.27258357548E+03  0.11219255527E+04  0.95000000000E+03 0.  0.
   -2000013    1    1    2    0    0  0.36331684427E+03  0.38718988986E+03  0.10539401453E+03  0.10933997615E+04  0.95000000000E+03 0.  0.
<mgrwt>
<rscale>  0 0.21828420E+04</rscale>
<asrwt>0</asrwt>
<pdfrwt beam="1">  1        2 0.19948484E+00 0.21828420E+04</pdfrwt>
<pdfrwt beam="2">  1       -2 0.14133444E+00 0.21828420E+04</pdfrwt>
<totfact> 0.53268017E+00</totfact>
</mgrwt>
</event>
<event>
 4    1  0.2043502E-008  0.2936963E+04  0.7816531E-02  0.8261964E-01
         -2   -1    0    0    0  501 -0.00000000000E+00  0.00000000000E+00  0.84823407002E+03  0.84823407002E+03  0.00000000000E+00 0. -1.
          2   -1    0    0  501    0  0.00000000000E+00 -0.00000000000E+00 -0.25422669497E+04  0.25422669497E+04  0.00000000000E+00 0.  1.
    2000013    1    1    2    0    0  0.70238184780E+03  0.64308961792E+03 -0.16695086359E+03  0.13554619536E+04  0.95000000000E+03 0.  0.
   -2000013    1    1    2    0    0 -0.70238184780E+03 -0.64308961792E+03 -0.15270820160E+04  0.20350390661E+04  0.95000000000E+03 0.  0.
<mgrwt>
<rscale>  0 0.29369627E+04</rscale>
<asrwt>0</asrwt>
<pdfrwt beam="2">  1        2 0.39111799E+00 0.29369627E+04</pdfrwt>
<pdfrwt beam="1">  1       -2 0.13049755E+00 0.29369627E+04</pdfrwt>
<totfact> 0.12171300E+00</totfact>
</mgrwt>
</event>
<event>
 4    1  0.2043502E-008  0.2017801E+04  0.7816531E-02  0.8598343E-01
          2   -1    0    0  501    0  0.00000000000E+00  0.00000000000E+00  0.15584721887E+04  0.15584721887E+04  0.00000000000E+00 0.  1.
         -2   -1    0    0    0  501 -0.00000000000E+00 -0.00000000000E+00 -0.65312682177E+03  0.65312682177E+03  0.00000000000E+00 0. -1.
    2000013    1    1    2    0    0 -0.20168641785E+03  0.21843402242E+03  0.63273496137E+03  0.11795102224E+04  0.95000000000E+03 0.  0.
   -2000013    1    1    2    0    0  0.20168641785E+03 -0.21843402242E+03  0.27261040553E+03  0.10320887881E+04  0.95000000000E+03 0.  0.
<mgrwt>
<rscale>  0 0.20178008E+04</rscale>
<asrwt>0</asrwt>
<pdfrwt beam="1">  1        2 0.23976495E+00 0.20178008E+04</pdfrwt>
<pdfrwt beam="2">  1       -2 0.10048105E+00 0.20178008E+04</pdfrwt>
<totfact> 0.89152365E+00</totfact>
</mgrwt>
</event>
<event>
 4    1  0.2043502E-008  0.3307893E+04  0.7816531E-02  0.8160890E-01
         -2   -1    0    0    0  501 -0.00000000000E+00  0.00000000000E+00  0.85142935950E+03  0.85142935950E+03  0.00000000000E+00 0.  1.
          2   -1    0    0  501    0  0.00000000000E+00 -0.00000000000E+00 -0.32128775185E+04  0.32128775185E+04  0.00000000000E+00 0. -1.
    2000013    1    1    2    0    0 -0.12867949371E+04  0.36741750568E+03 -0.92831870258E+03  0.18855005827E+04  0.95000000000E+03 0.  0.
   -2000013    1    1    2    0    0  0.12867949371E+04 -0.36741750568E+03 -0.14331294564E+04  0.21788062953E+04  0.95000000000E+03 0.  0.
<mgrwt>
<rscale>  0 0.33078925E+04</rscale>
<asrwt>0</asrwt>
<pdfrwt beam="2">  1        2 0.49428885E+00 0.33078925E+04</pdfrwt>
<pdfrwt beam="1">  1       -2 0.13098913E+00 0.33078925E+04</pdfrwt>
<totfact> 0.45180463E-01</totfact>
</mgrwt>
</event>
<event>
 4    1  0.2043502E-008  0.2479559E+04  0.7816531E-02  0.8410304E-01
          2   -1    0    0  501    0  0.00000000000E+00  0.00000000000E+00  0.21887503883E+04  0.21887503883E+04  0.00000000000E+00 0. -1.
         -2   -1    0    0    0  501 -0.00000000000E+00 -0.00000000000E+00 -0.70225155987E+03  0.70225155987E+03  0.00000000000E+00 0.  1.
    2000013    1    1    2    0    0  0.26716518070E+03 -0.38600834022E+03  0.14936016384E+04  0.18313179753E+04  0.95000000000E+03 0.  0.
   -2000013    1    1    2    0    0 -0.26716518070E+03  0.38600834022E+03 -0.71028099312E+01  0.10596839729E+04  0.95000000000E+03 0.  0.
<mgrwt>
<rscale>  0 0.24795591E+04</rscale>
<asrwt>0</asrwt>
<pdfrwt beam="1">  1        2 0.33673083E+00 0.24795591E+04</pdfrwt>
<pdfrwt beam="2">  1       -2 0.10803870E+00 0.24795591E+04</pdfrwt>
<totfact> 0.32119664E+00</totfact>
</mgrwt>
</event>
<event>
 4    1  0.2043502E-008  0.2089135E+04  0.7816531E-02  0.8566045E-01
          2   -1    0    0  501    0  0.00000000000E+00  0.00000000000E+00  0.20234861125E+04  0.20234861125E+04  0.00000000000E+00 0.  1.
         -2   -1    0    0    0  501 -0.00000000000E+00 -0.00000000000E+00 -0.53922825674E+03  0.53922825674E+03  0.00000000000E+00 0. -1.
    2000013    1    1    2    0    0 -0.38654914128E+03 -0.17531110956E+03  0.62925595421E+03  0.12159840787E+04  0.95000000000E+03 0.  0.
   -2000013    1    1    2    0    0  0.38654914128E+03  0.17531110956E+03  0.85500190152E+03  0.13467302905E+04  0.95000000000E+03 0.  0.
<mgrwt>
<rscale>  0 0.20891346E+04</rscale>
<asrwt>0</asrwt>
<pdfrwt beam="1">  1        2 0.31130555E+00 0.20891346E+04</pdfrwt>
<pdfrwt beam="2">  1       -2 0.82958194E-01 0.20891346E+04</pdfrwt>
<totfact> 0.76137771E+00</totfact>
</mgrwt>
</event>
<event>
 4    1  0.2043502E-008  0.2364047E+04  0.7816531E-02  0.8453088E-01
         -2   -1    0    0    0  501 -0.00000000000E+00  0.00000000000E+00  0.12043942943E+04  0.12043942943E+04  0.00000000000E+00 0. -1.
          2   -1    0    0  501    0  0.00000000000E+00 -0.00000000000E+00 -0.11600686243E+04  0.11600686243E+04  0.00000000000E+00 0.  1.
    2000013    1    1    2    0    0 -0.26127780884E+03 -0.54207923453E+03  0.38632028222E+03  0.11890581779E+04  0.95000000000E+03 0.  0.
   -2000013    1    1    2    0    0  0.26127780884E+03  0.54207923453E+03 -0.34199461219E+03  0.11754047408E+04  0.95000000000E+03 0.  0.
<mgrwt>
<rscale>  0 0.23640474E+04</rscale>
<asrwt>0</asrwt>
<pdfrwt beam="2">  1        2 0.17847210E+00 0.23640474E+04</pdfrwt>
<pdfrwt beam="1">  1       -2 0.18529143E+00 0.23640474E+04</pdfrwt>
<totfact> 0.30111753E+00</totfact>
</mgrwt>
</event>
<event>
 4    1  0.2043502E-008  0.2493744E+04  0.7816531E-02  0.8405218E-01
         -1   -1    0    0    0  501 -0.00000000000E+00  0.00000000000E+00  0.82849585905E+03  0.82849585905E+03  0.00000000000E+00 0. -1.
          1   -1    0    0  501    0  0.00000000000E+00 -0.00000000000E+00 -0.18765215059E+04  0.18765215059E+04  0.00000000000E+00 0.  1.
    2000013    1    1    2    0    0  0.29026645832E+03  0.32496627762E+03  0.21354381424E+03  0.10667514514E+04  0.95000000000E+03 0.  0.
   -2000013    1    1    2    0    0 -0.29026645832E+03 -0.32496627762E+03 -0.12615694611E+04  0.16382659136E+04  0.95000000000E+03 0.  0.
<mgrwt>
<rscale>  0 0.24937444E+04</rscale>
<asrwt>0</asrwt>
<pdfrwt beam="2">  1        1 0.28869562E+00 0.24937444E+04</pdfrwt>
<pdfrwt beam="1">  1       -1 0.12746090E+00 0.24937444E+04</pdfrwt>
<totfact> 0.17121669E+00</totfact>
</mgrwt>
</event>
<event>
 4    1  0.2043502E-008  0.2370331E+04  0.7816531E-02  0.8450696E-01
         -2   -1    0    0    0  501 -0.00000000000E+00  0.00000000000E+00  0.55559361927E+03  0.55559361927E+03  0.00000000000E+00 0. -1.
          2   -1    0    0  501    0  0.00000000000E+00 -0.00000000000E+00 -0.25281371366E+04  0.25281371366E+04  0.00000000000E+00 0.  1.
    2000013    1    1    2    0    0  0.55336393673E+03  0.14041294322E+03 -0.15323532181E+04  0.18911726061E+04  0.95000000000E+03 0.  0.
   -2000013    1    1    2    0    0 -0.55336393673E+03 -0.14041294322E+03 -0.44019029930E+03  0.11925581498E+04  0.95000000000E+03 0.  0.
<mgrwt>
<rscale>  0 0.23703307E+04</rscale>
<asrwt>0</asrwt>
<pdfrwt beam="2">  1        2 0.38894418E+00 0.23703307E+04</pdfrwt>
<pdfrwt beam="1">  1       -2 0.85475940E-01 0.23703307E+04</pdfrwt>
<totfact> 0.35948858E+00</totfact>
</mgrwt>
</event>
<event>
 4    1  0.2043502E-008  0.5170271E+04  0.7816531E-02  0.7802765E-01
          2   -1    0    0  501    0  0.00000000000E+00  0.00000000000E+00  0.15144865701E+04  0.15144865701E+04  0.00000000000E+00 0.  1.
         -2   -1    0    0    0  501 -0.00000000000E+00 -0.00000000000E+00 -0.44126668274E+04  0.44126668274E+04  0.00000000000E+00 0. -1.
    2000013    1    1    2    0    0  0.24173770790E+03  0.11048083248E+04  0.98314760475E+03  0.17742935965E+04  0.95000000000E+03 0.  0.
   -2000013    1    1    2    0    0 -0.24173770790E+03 -0.11048083248E+04 -0.38813278620E+04  0.41528598010E+04  0.95000000000E+03 0.  0.
<mgrwt>
<rscale>  0 0.51702706E+04</rscale>
<asrwt>0</asrwt>
<pdfrwt beam="1">  1        2 0.23299793E+00 0.51702706E+04</pdfrwt>
<pdfrwt beam="2">  1       -2 0.67887182E+00 0.51702706E+04</pdfrwt>
<totfact> 0.24356792E-03</totfact>
</mgrwt>
</event>
<event>
 4    1  0.2043502E-008  0.2522120E+04  0.7816531E-02  0.8395147E-01
         -2   -1    0    0    0  501 -0.00000000000E+00  0.00000000000E+00  0.49033251007E+03  0.49033251007E+03  0.00000000000E+00 0. -1.
          2   -1    0    0  501    0  0.00000000000E+00 -0.00000000000E+00 -0.32432530887E+04  0.32432530887E+04  0.00000000000E+00 0.  1.
    2000013    1    1    2    0    0  0.60311366816E+03 -0.52629415500E+03 -0.10553918095E+04  0.16300562892E+04  0.95000000000E+03 0.  0.
   -2000013    1    1    2    0    0 -0.60311366816E+03  0.52629415500E+03 -0.16975287691E+04  0.21035293096E+04  0.95000000000E+03 0.  0.
<mgrwt>
<rscale>  0 0.25221201E+04</rscale>
<asrwt>0</asrwt>
<pdfrwt beam="2">  1        2 0.49896200E+00 0.25221201E+04</pdfrwt>
<pdfrwt beam="1">  1       -2 0.75435772E-01 0.25221201E+04</pdfrwt>
<totfact> 0.17056185E+00</totfact>
</mgrwt>
</event>
<event>
 4    1  0.2043502E-008  0.2867059E+04  0.7816531E-02  0.8282747E-01
          2   -1    0    0  501    0  0.00000000000E+00  0.00000000000E+00  0.19966058495E+04  0.19966058495E+04  0.00000000000E+00 0.  1.
         -2   -1    0    0    0  501 -0.00000000000E+00 -0.00000000000E+00 -0.10292497876E+04  0.10292497876E+04  0.00000000000E+00 0. -1.
    2000013    1    1    2    0    0 -0.43803947230E+03  0.61239695709E+03  0.12913058418E+04  0.17711237645E+04  0.95000000000E+03 0.  0.
   -2000013    1    1    2    0    0  0.43803947230E+03 -0.61239695709E+03 -0.32394977987E+03  0.12547318726E+04  0.95000000000E+03 0.  0.
<mgrwt>
<rscale>  0 0.28670585E+04</rscale>
<asrwt>0</asrwt>
<pdfrwt beam="1">  1        2 0.30717013E+00 0.28670585E+04</pdfrwt>
<pdfrwt beam="2">  1       -2 0.15834612E+00 0.28670585E+04</pdfrwt>
<totfact> 0.15048222E+00</totfact>
</mgrwt>
</event>
<event>
 4    1  0.2043502E-008  0.3035538E+04  0.7816531E-02  0.8233655E-01
         -2   -1    0    0    0  501 -0.00000000000E+00  0.00000000000E+00  0.10066714998E+04  0.10066714998E+04  0.00000000000E+00 0. -1.
          2   -1    0    0  501    0  0.00000000000E+00 -0.00000000000E+00 -0.22883554068E+04  0.22883554068E+04  0.00000000000E+00 0.  1.
    2000013    1    1    2    0    0 -0.93723295370E+03  0.50160532240E+03 -0.12060326970E+04  0.18673586627E+04  0.95000000000E+03 0.  0.
   -2000013    1    1    2    0    0  0.93723295370E+03 -0.50160532240E+03 -0.75651210056E+02  0.14276682439E+04  0.95000000000E+03 0.  0.
<mgrwt>
<rscale>  0 0.30355376E+04</rscale>
<asrwt>0</asrwt>
<pdfrwt beam="2">  1        2 0.35205467E+00 0.30355376E+04</pdfrwt>
<pdfrwt beam="1">  1       -2 0.15487254E+00 0.30355376E+04</pdfrwt>
<totfact> 0.10808813E+00</totfact>
</mgrwt>
</event>
<event>
 4    1  0.2043502E-008  0.2274827E+04  0.7816531E-02  0.8487913E-01
         -2   -1    0    0    0  501 -0.00000000000E+00  0.00000000000E+00  0.67371800079E+03  0.67371800079E+03  0.00000000000E+00 0. -1.
          2   -1    0    0  501    0  0.00000000000E+00 -0.00000000000E+00 -0.19202528654E+04  0.19202528654E+04  0.00000000000E+00 0.  1.
    2000013    1    1    2    0    0  0.32535196679E+03  0.53301502074E+03 -0.66358302175E+03  0.13163591233E+04  0.95000000000E+03 0.  0.
   -2000013    1    1    2    0    0 -0.32535196679E+03 -0.53301502074E+03 -0.58295184291E+03  0.12776117430E+04  0.95000000000E+03 0.  0.
<mgrwt>
<rscale>  0 0.22748265E+04</rscale>
<asrwt>0</asrwt>
<pdfrwt beam="2">  1        2 0.29542352E+00 0.22748265E+04</pdfrwt>
<pdfrwt beam="1">  1       -2 0.10364892E+00 0.22748265E+04</pdfrwt>
<totfact> 0.50971453E+00</totfact>
</mgrwt>
</event>
<event>
 4    1  0.2043502E-008  0.3086860E+04  0.7816531E-02  0.8219353E-01
          2   -1    0    0  501    0  0.00000000000E+00  0.00000000000E+00  0.42612658563E+04  0.42612658563E+04  0.00000000000E+00 0.  1.
         -2   -1    0    0    0  501 -0.00000000000E+00 -0.00000000000E+00 -0.55903016362E+03  0.55903016362E+03  0.00000000000E+00 0. -1.
    2000013    1    1    2    0    0  0.80196368531E+03  0.48698589365E+03  0.30600617215E+04  0.33386791928E+04  0.95000000000E+03 0.  0.
   -2000013    1    1    2    0    0 -0.80196368531E+03 -0.48698589365E+03  0.64217397124E+03  0.14816168272E+04  0.95000000000E+03 0.  0.
<mgrwt>
<rscale>  0 0.30868600E+04</rscale>
<asrwt>0</asrwt>
<pdfrwt beam="1">  1        2 0.65557934E+00 0.30868600E+04</pdfrwt>
<pdfrwt beam="2">  1       -2 0.86004643E-01 0.30868600E+04</pdfrwt>
<totfact> 0.20455119E-01</totfact>
</mgrwt>
</event>
<event>
 4    1  0.2043502E-008  0.2286451E+04  0.7816531E-02  0.8483283E-01
          2   -1    0    0  501    0  0.00000000000E+00  0.00000000000E+00  0.73751067010E+03  0.73751067010E+03  0.00000000000E+00 0.  1.
         -2   -1    0    0    0  501 -0.00000000000E+00 -0.00000000000E+00 -0.17721292317E+04  0.17721292317E+04  0.00000000000E+00 0. -1.
    2000013    1    1    2    0    0 -0.32746878269E+03  0.53255983166E+03 -0.38926690428E+03  0.12020334857E+04  0.95000000000E+03 0.  0.
   -2000013    1    1    2    0    0  0.32746878269E+03 -0.53255983166E+03 -0.64535165735E+03  0.13076064162E+04  0.95000000000E+03 0.  0.
<mgrwt>
<rscale>  0 0.22864507E+04</rscale>
<asrwt>0</asrwt>
<pdfrwt beam="1">  1        2 0.11346318E+00 0.22864507E+04</pdfrwt>
<pdfrwt beam="2">  1       -2 0.27263527E+00 0.22864507E+04</pdfrwt>
<totfact> 0.16246165E+00</totfact>
</mgrwt>
</event>
<event>
 4    1  0.2043502E-008  0.2374436E+04  0.7816531E-02  0.8449137E-01
         -2   -1    0    0    0  501 -0.00000000000E+00  0.00000000000E+00  0.17214507264E+04  0.17214507264E+04  0.00000000000E+00 0. -1.
          2   -1    0    0  501    0  0.00000000000E+00 -0.00000000000E+00 -0.81877834385E+03  0.81877834385E+03  0.00000000000E+00 0.  1.
    2000013    1    1    2    0    0 -0.34800990573E+03 -0.61506474786E+03  0.35824896767E+03  0.12370359176E+04  0.95000000000E+03 0.  0.
   -2000013    1    1    2    0    0  0.34800990573E+03  0.61506474786E+03  0.54442341490E+03  0.13031931527E+04  0.95000000000E+03 0.  0.
<mgrwt>
<rscale>  0 0.23744360E+04</rscale>
<asrwt>0</asrwt>
<pdfrwt beam="2">  1        2 0.12596590E+00 0.23744360E+04</pdfrwt>
<pdfrwt beam="1">  1       -2 0.26483857E+00 0.23744360E+04</pdfrwt>
<totfact> 0.15681510E+00</totfact>
</mgrwt>
</event>
<event>
 4    1  0.2043502E-008  0.1980488E+04  0.7816531E-02  0.8615798E-01
         -2   -1    0    0    0  501 -0.00000000000E+00  0.00000000000E+00  0.94166191312E+03  0.94166191312E+03  0.00000000000E+00 0. -1.
          2   -1    0    0  501    0  0.00000000000E+00 -0.00000000000E+00 -0.10413321748E+04  0.10413321748E+04  0.00000000000E+00 0.  1.
    2000013    1    1    2    0    0  0.25064768412E+03  0.11806970496E+03 -0.13483108267E+02  0.98966990001E+03  0.95000000000E+03 0.  0.
   -2000013    1    1    2    0    0 -0.25064768412E+03 -0.11806970496E+03 -0.86187153375E+02  0.99332418786E+03  0.95000000000E+03 0.  0.
<mgrwt>
<rscale>  0 0.19804877E+04</rscale>
<asrwt>0</asrwt>
<pdfrwt beam="2">  1        2 0.16020495E+00 0.19804877E+04</pdfrwt>
<pdfrwt beam="1">  1       -2 0.14487106E+00 0.19804877E+04</pdfrwt>
<totfact> 0.72446086E+00</totfact>
</mgrwt>
</event>
<event>
 4    1  0.2043502E-008  0.3442340E+04  0.7816531E-02  0.8127592E-01
         -1   -1    0    0    0  501 -0.00000000000E+00  0.00000000000E+00  0.17782331134E+04  0.17782331134E+04  0.00000000000E+00 0. -1.
          1   -1    0    0  501    0  0.00000000000E+00 -0.00000000000E+00 -0.16659378794E+04  0.16659378794E+04  0.00000000000E+00 0.  1.
    2000013    1    1    2    0    0  0.11646221683E+04 -0.18801210921E+03 -0.76174215179E+03  0.16954186663E+04  0.95000000000E+03 0.  0.
   -2000013    1    1    2    0    0 -0.11646221683E+04  0.18801210921E+03  0.87403738578E+03  0.17487523266E+04  0.95000000000E+03 0.  0.
<mgrwt>
<rscale>  0 0.34423398E+04</rscale>
<asrwt>0</asrwt>
<pdfrwt beam="2">  1        1 0.25629814E+00 0.34423398E+04</pdfrwt>
<pdfrwt beam="1">  1       -1 0.27357432E+00 0.34423398E+04</pdfrwt>
<totfact> 0.20191769E-01</totfact>
</mgrwt>
</event>
<event>
 4    1  0.2043502E-008  0.2059071E+04  0.7816531E-02  0.8579490E-01
          2   -1    0    0  501    0  0.00000000000E+00  0.00000000000E+00  0.28010665989E+04  0.28010665989E+04  0.00000000000E+00 0.  1.
         -2   -1    0    0    0  501 -0.00000000000E+00 -0.00000000000E+00 -0.37840704062E+03  0.37840704062E+03  0.00000000000E+00 0. -1.
    2000013    1    1    2    0    0 -0.29519919949E+03  0.26403318710E+03  0.11739111043E+04  0.15612249589E+04  0.95000000000E+03 0.  0.
   -2000013    1    1    2    0    0  0.29519919949E+03 -0.26403318710E+03  0.12487484540E+04  0.16182486807E+04  0.95000000000E+03 0.  0.
<mgrwt>
<rscale>  0 0.20590710E+04</rscale>
<asrwt>0</asrwt>
<pdfrwt beam="1">  1        2 0.43093331E+00 0.20590710E+04</pdfrwt>
<pdfrwt beam="2">  1       -2 0.58216470E-01 0.20590710E+04</pdfrwt>
<totfact> 0.59002928E+00</totfact>
</mgrwt>
</event>
<event>
 4    1  0.2043502E-008  0.2789834E+04  0.7816531E-02  0.8306431E-01
          2   -1    0    0  501    0  0.00000000000E+00  0.00000000000E+00  0.92691883853E+03  0.92691883853E+03  0.00000000000E+00 0.  1.
         -2   -1    0    0    0  501 -0.00000000000E+00 -0.00000000000E+00 -0.20992061924E+04  0.20992061924E+04  0.00000000000E+00 0. -1.
    2000013    1    1    2    0    0 -0.41108600620E+03  0.84484831802E+03 -0.15154225357E+03  0.13447027328E+04  0.95000000000E+03 0.  0.
   -2000013    1    1    2    0    0  0.41108600620E+03 -0.84484831802E+03 -0.10207451003E+04  0.16814222982E+04  0.95000000000E+03 0.  0.
<mgrwt>
<rscale>  0 0.27898342E+04</rscale>
<asrwt>0</asrwt>
<pdfrwt beam="1">  1        2 0.14260290E+00 0.27898342E+04</pdfrwt>
<pdfrwt beam="2">  1       -2 0.32295479E+00 0.27898342E+04</pdfrwt>
<totfact> 0.56228973E-01</totfact>
</mgrwt>
</event>
<event>
 4    1  0.2043502E-008  0.2397834E+04  0.7816531E-02  0.8440315E-01
         -2   -1    0    0    0  501 -0.00000000000E+00  0.00000000000E+00  0.10106631388E+04  0.10106631388E+04  0.00000000000E+00 0. -1.
          2   -1    0    0  501    0  0.00000000000E+00 -0.00000000000E+00 -0.14222367385E+04  0.14222367385E+04  0.00000000000E+00 0.  1.
    2000013    1    1    2    0    0  0.54381979767E+03 -0.22492947422E+03  0.23480888219E+03  0.11419143803E+04  0.95000000000E+03 0.  0.
   -2000013    1    1    2    0    0 -0.54381979767E+03  0.22492947422E+03 -0.64638248181E+03  0.12909854970E+04  0.95000000000E+03 0.  0.
<mgrwt>
<rscale>  0 0.23978342E+04</rscale>
<asrwt>0</asrwt>
<pdfrwt beam="2">  1        2 0.21880565E+00 0.23978342E+04</pdfrwt>
<pdfrwt beam="1">  1       -2 0.15548664E+00 0.23978342E+04</pdfrwt>
<totfact> 0.34410878E+00</totfact>
</mgrwt>
</event>
<event>
 4    1  0.2043502E-008  0.2175385E+04  0.7816531E-02  0.8528744E-01
          2   -1    0    0  501    0  0.00000000000E+00  0.00000000000E+00  0.14978778037E+04  0.14978778037E+04  0.00000000000E+00 0.  1.
         -2   -1    0    0    0  501 -0.00000000000E+00 -0.00000000000E+00 -0.78983414045E+03  0.78983414045E+03  0.00000000000E+00 0. -1.
    2000013    1    1    2    0    0  0.32844708924E+03  0.39595331967E+03  0.48670515790E+03  0.11849212769E+04  0.95000000000E+03 0.  0.
   -2000013    1    1    2    0    0 -0.32844708924E+03 -0.39595331967E+03  0.22133850536E+03  0.11027906672E+04  0.95000000000E+03 0.  0.
<mgrwt>
<rscale>  0 0.21753850E+04</rscale>
<asrwt>0</asrwt>
<pdfrwt beam="1">  1        2 0.23044274E+00 0.21753850E+04</pdfrwt>
<pdfrwt beam="2">  1       -2 0.12151295E+00 0.21753850E+04</pdfrwt>
<totfact> 0.60013037E+00</totfact>
</mgrwt>
</event>
<event>
 4    1  0.2043502E-008  0.2843484E+04  0.7816531E-02  0.8289894E-01
          1   -1    0    0  501    0  0.00000000000E+00  0.00000000000E+00  0.26981473430E+04  0.26981473430E+04  0.00000000000E+00 0.  1.
         -1   -1    0    0    0  501 -0.00000000000E+00 -0.00000000000E+00 -0.74916209487E+03  0.74916209487E+03  0.00000000000E+00 0. -1.
    2000013    1    1    2    0    0  0.78087101011E+03  0.12119654755E+03  0.12204153876E+03  0.12417094164E+04  0.95000000000E+03 0.  0.
   -2000013    1    1    2    0    0 -0.78087101011E+03 -0.12119654755E+03  0.18269437094E+04  0.22056000215E+04  0.95000000000E+03 0.  0.
<mgrwt>
<rscale>  0 0.28434836E+04</rscale>
<asrwt>0</asrwt>
<pdfrwt beam="1">  1        1 0.41509959E+00 0.28434836E+04</pdfrwt>
<pdfrwt beam="2">  1       -1 0.11525571E+00 0.28434836E+04</pdfrwt>
<totfact> 0.57934586E-01</totfact>
</mgrwt>
</event>
<event>
 4    1  0.2043502E-008  0.2021387E+04  0.7816531E-02  0.8596686E-01
          1   -1    0    0  501    0  0.00000000000E+00  0.00000000000E+00  0.11074353897E+04  0.11074353897E+04  0.00000000000E+00 0.  1.
         -1   -1    0    0    0  501 -0.00000000000E+00 -0.00000000000E+00 -0.92240284863E+03  0.92240284863E+03  0.00000000000E+00 0. -1.
    2000013    1    1    2    0    0  0.30881741246E+03 -0.84930336694E+02 -0.36160799195E+02  0.10031893937E+04  0.95000000000E+03 0.  0.
   -2000013    1    1    2    0    0 -0.30881741246E+03  0.84930336694E+02  0.22119334027E+03  0.10266488446E+04  0.95000000000E+03 0.  0.
<mgrwt>
<rscale>  0 0.20213872E+04</rscale>
<asrwt>0</asrwt>
<pdfrwt beam="1">  1        1 0.17037467E+00 0.20213872E+04</pdfrwt>
<pdfrwt beam="2">  1       -1 0.14190813E+00 0.20213872E+04</pdfrwt>
<totfact> 0.46885271E+00</totfact>
</mgrwt>
</event>
<event>
 4    1  0.2043502E-008  0.4045832E+04  0.7816531E-02  0.7995364E-01
         -2   -1    0    0    0  501 -0.00000000000E+00  0.00000000000E+00  0.14104518063E+04  0.14104518063E+04  0.00000000000E+00 0.  1.
          2   -1    0    0  501    0  0.00000000000E+00 -0.00000000000E+00 -0.29013318753E+04  0.29013318753E+04  0.00000000000E+00 0. -1.
    2000013    1    1    2    0    0 -0.16161122846E+04  0.61020168430E+03 -0.26229205273E+03  0.19888343654E+04  0.95000000000E+03 0.  0.
   -2000013    1    1    2    0    0  0.16161122846E+04 -0.61020168430E+03 -0.12285880162E+04  0.23229493162E+04  0.95000000000E+03 0.  0.
<mgrwt>
<rscale>  0 0.40458318E+04</rscale>
<asrwt>0</asrwt>
<pdfrwt beam="2">  1        2 0.44635875E+00 0.40458318E+04</pdfrwt>
<pdfrwt beam="1">  1       -2 0.21699259E+00 0.40458318E+04</pdfrwt>
<totfact> 0.16271311E-01</totfact>
</mgrwt>
</event>
<event>
 4    1  0.2043502E-008  0.2901236E+04  0.7816531E-02  0.8272510E-01
          2   -1    0    0  501    0  0.00000000000E+00  0.00000000000E+00  0.34131804674E+04  0.34131804674E+04  0.00000000000E+00 0.  1.
         -2   -1    0    0    0  501 -0.00000000000E+00 -0.00000000000E+00 -0.61651963447E+03  0.61651963447E+03  0.00000000000E+00 0. -1.
    2000013    1    1    2    0    0  0.93757813471E+03 -0.12017840912E+03  0.62711728698E+03  0.14796187686E+04  0.95000000000E+03 0.  0.
   -2000013    1    1    2    0    0 -0.93757813471E+03  0.12017840912E+03  0.21695435460E+04  0.25500813333E+04  0.95000000000E+03 0.  0.
<mgrwt>
<rscale>  0 0.29012361E+04</rscale>
<asrwt>0</asrwt>
<pdfrwt beam="1">  1        2 0.52510468E+00 0.29012361E+04</pdfrwt>
<pdfrwt beam="2">  1       -2 0.94849177E-01 0.29012361E+04</pdfrwt>
<totfact> 0.75344305E-01</totfact>
</mgrwt>
</event>
<event>
 4    1  0.2043502E-008  0.2031012E+04  0.7816531E-02  0.8592257E-01
         -1   -1    0    0    0  501 -0.00000000000E+00  0.00000000000E+00  0.48787703444E+03  0.48787703444E+03  0.00000000000E+00 0. -1.
          1   -1    0    0  501    0  0.00000000000E+00 -0.00000000000E+00 -0.21137543656E+04  0.21137543656E+04  0.00000000000E+00 0.  1.
    2000013    1    1    2    0    0 -0.20408037338E+03 -0.25124534067E+03 -0.10112970629E+04  0.14247788493E+04  0.95000000000E+03 0.  0.
   -2000013    1    1    2    0    0  0.20408037338E+03  0.25124534067E+03 -0.61458026823E+03  0.11768525507E+04  0.95000000000E+03 0.  0.
<mgrwt>
<rscale>  0 0.20310118E+04</rscale>
<asrwt>0</asrwt>
<pdfrwt beam="2">  1        1 0.32519299E+00 0.20310118E+04</pdfrwt>
<pdfrwt beam="1">  1       -1 0.75058004E-01 0.20310118E+04</pdfrwt>
<totfact> 0.41188000E+00</totfact>
</mgrwt>
</event>
<event>
 4    1  0.2043502E-008  0.2414129E+04  0.7816531E-02  0.8434233E-01
         -1   -1    0    0    0  501 -0.00000000000E+00  0.00000000000E+00  0.22069486946E+04  0.22069486946E+04  0.00000000000E+00 0.  1.
          1   -1    0    0  501    0  0.00000000000E+00 -0.00000000000E+00 -0.66018966930E+03  0.66018966930E+03  0.00000000000E+00 0. -1.
    2000013    1    1    2    0    0  0.67451583293E+03 -0.31014299201E+02  0.11462545162E+04  0.16347271673E+04  0.95000000000E+03 0.  0.
   -2000013    1    1    2    0    0 -0.67451583293E+03  0.31014299201E+02  0.40050450908E+03  0.12324111966E+04  0.95000000000E+03 0.  0.
<mgrwt>
<rscale>  0 0.24141290E+04</rscale>
<asrwt>0</asrwt>
<pdfrwt beam="2">  1        1 0.10156764E+00 0.24141290E+04</pdfrwt>
<pdfrwt beam="1">  1       -1 0.33953056E+00 0.24141290E+04</pdfrwt>
<totfact> 0.48557590E-01</totfact>
</mgrwt>
</event>
<event>
 4    1  0.2043502E-008  0.2818373E+04  0.7816531E-02  0.8297587E-01
          2   -1    0    0  501    0  0.00000000000E+00  0.00000000000E+00  0.11627579334E+04  0.11627579334E+04  0.00000000000E+00 0.  1.
         -2   -1    0    0    0  501 -0.00000000000E+00 -0.00000000000E+00 -0.17078415330E+04  0.17078415330E+04  0.00000000000E+00 0. -1.
    2000013    1    1    2    0    0  0.93197939075E+03 -0.35694482240E+03 -0.57350188003E+03  0.14924475192E+04  0.95000000000E+03 0.  0.
   -2000013    1    1    2    0    0 -0.93197939075E+03  0.35694482240E+03  0.28418280487E+02  0.13781519472E+04  0.95000000000E+03 0.  0.
<mgrwt>
<rscale>  0 0.28183728E+04</rscale>
<asrwt>0</asrwt>
<pdfrwt beam="1">  1        2 0.17888584E+00 0.28183728E+04</pdfrwt>
<pdfrwt beam="2">  1       -2 0.26274485E+00 0.28183728E+04</pdfrwt>
<totfact> 0.93010533E-01</totfact>
</mgrwt>
</event>
<event>
 4    1  0.2043502E-008  0.2210083E+04  0.7816531E-02  0.8514243E-01
         -2   -1    0    0    0  501 -0.00000000000E+00  0.00000000000E+00  0.55066477221E+03  0.55066477221E+03  0.00000000000E+00 0. -1.
          2   -1    0    0  501    0  0.00000000000E+00 -0.00000000000E+00 -0.22175319337E+04  0.22175319337E+04  0.00000000000E+00 0.  1.
    2000013    1    1    2    0    0 -0.12977891606E+03  0.46601313570E+03 -0.46910880401E+03  0.11647205157E+04  0.95000000000E+03 0.  0.
   -2000013    1    1    2    0    0  0.12977891606E+03 -0.46601313570E+03 -0.11977583575E+04  0.16034761902E+04  0.95000000000E+03 0.  0.
<mgrwt>
<rscale>  0 0.22100830E+04</rscale>
<asrwt>0</asrwt>
<pdfrwt beam="2">  1        2 0.34115876E+00 0.22100830E+04</pdfrwt>
<pdfrwt beam="1">  1       -2 0.84717657E-01 0.22100830E+04</pdfrwt>
<totfact> 0.55962388E+00</totfact>
</mgrwt>
</event>
<event>
 4    1  0.2043502E-008  0.2629747E+04  0.7816531E-02  0.8358167E-01
          2   -1    0    0  501    0  0.00000000000E+00  0.00000000000E+00  0.21529972705E+04  0.21529972705E+04  0.00000000000E+00 0.  1.
         -2   -1    0    0    0  501 -0.00000000000E+00 -0.00000000000E+00 -0.80301640749E+03  0.80301640749E+03  0.00000000000E+00 0. -1.
    2000013    1    1    2    0    0  0.53269310636E+03  0.72374658697E+03  0.52077969864E+03  0.14075803928E+04  0.95000000000E+03 0.  0.
   -2000013    1    1    2    0    0 -0.53269310636E+03 -0.72374658697E+03  0.82920116440E+03  0.15484332852E+04  0.95000000000E+03 0.  0.
<mgrwt>
<rscale>  0 0.26297469E+04</rscale>
<asrwt>0</asrwt>
<pdfrwt beam="1">  1        2 0.33123035E+00 0.26297469E+04</pdfrwt>
<pdfrwt beam="2">  1       -2 0.12354099E+00 0.26297469E+04</pdfrwt>
<totfact> 0.23910303E+00</totfact>
</mgrwt>
</event>
<event>
 4    1  0.2043502E-008  0.3714883E+04  0.7816531E-02  0.8064672E-01
          2   -1    0    0  501    0  0.00000000000E+00  0.00000000000E+00  0.25433186311E+04  0.25433186311E+04  0.00000000000E+00 0.  1.
         -2   -1    0    0    0  501 -0.00000000000E+00 -0.00000000000E+00 -0.13565301056E+04  0.13565301056E+04  0.00000000000E+00 0. -1.
    2000013    1    1    2    0    0 -0.15430491451E+04 -0.38604525707E+03  0.45429528451E+03  0.19075942467E+04  0.95000000000E+03 0.  0.
   -2000013    1    1    2    0    0  0.15430491451E+04  0.38604525707E+03  0.73249324109E+03  0.19922544900E+04  0.95000000000E+03 0.  0.
<mgrwt>
<rscale>  0 0.37148827E+04</rscale>
<asrwt>0</asrwt>
<pdfrwt beam="1">  1        2 0.39127979E+00 0.37148827E+04</pdfrwt>
<pdfrwt beam="2">  1       -2 0.20869694E+00 0.37148827E+04</pdfrwt>
<totfact> 0.30961083E-01</totfact>
</mgrwt>
</event>
<event>
 4    1  0.2043502E-008  0.3841464E+04  0.7816531E-02  0.8037315E-01
         -1   -1    0    0    0  501 -0.00000000000E+00  0.00000000000E+00  0.20173220707E+04  0.20173220707E+04  0.00000000000E+00 0. -1.
          1   -1    0    0  501    0  0.00000000000E+00 -0.00000000000E+00 -0.18287666796E+04  0.18287666796E+04  0.00000000000E+00 0.  1.
    2000013    1    1    2    0    0  0.13311340836E+04  0.65822142268E+03  0.85778216423E+03  0.19604753584E+04  0.95000000000E+03 0.  0.
   -2000013    1    1    2    0    0 -0.13311340836E+04 -0.65822142268E+03 -0.66922677316E+03  0.18856133919E+04  0.95000000000E+03 0.  0.
<mgrwt>
<rscale>  0 0.38414640E+04</rscale>
<asrwt>0</asrwt>
<pdfrwt beam="2">  1        1 0.28134872E+00 0.38414640E+04</pdfrwt>
<pdfrwt beam="1">  1       -1 0.31035724E+00 0.38414640E+04</pdfrwt>
<totfact> 0.87338493E-02</totfact>
</mgrwt>
</event>
<event>
 4    1  0.2043502E-008  0.2406206E+04  0.7816531E-02  0.8437184E-01
         -2   -1    0    0    0  501 -0.00000000000E+00  0.00000000000E+00  0.93550087959E+03  0.93550087959E+03  0.00000000000E+00 0. -1.
          2   -1    0    0  501    0  0.00000000000E+00 -0.00000000000E+00 -0.15472527920E+04  0.15472527920E+04  0.00000000000E+00 0.  1.
    2000013    1    1    2    0    0  0.93963336718E+01  0.71599634580E+03 -0.49107784002E+03  0.12870106850E+04  0.95000000000E+03 0.  0.
   -2000013    1    1    2    0    0 -0.93963336718E+01 -0.71599634580E+03 -0.12067407239E+03  0.11957429866E+04  0.95000000000E+03 0.  0.
<mgrwt>
<rscale>  0 0.24062056E+04</rscale>
<asrwt>0</asrwt>
<pdfrwt beam="2">  1        2 0.23803889E+00 0.24062056E+04</pdfrwt>
<pdfrwt beam="1">  1       -2 0.14392321E+00 0.24062056E+04</pdfrwt>
<totfact> 0.35860643E+00</totfact>
</mgrwt>
</event>
<event>
 4    1  0.2043502E-008  0.3126917E+04  0.7816531E-02  0.8208390E-01
          2   -1    0    0  501    0  0.00000000000E+00  0.00000000000E+00  0.25211136599E+04  0.25211136599E+04  0.00000000000E+00 0.  1.
         -2   -1    0    0    0  501 -0.00000000000E+00 -0.00000000000E+00 -0.96957221032E+03  0.96957221032E+03  0.00000000000E+00 0. -1.
    2000013    1    1    2    0    0  0.76479918581E+03 -0.69832043304E+03  0.15405477004E+04  0.20852713106E+04  0.95000000000E+03 0.  0.
   -2000013    1    1    2    0    0 -0.76479918581E+03  0.69832043304E+03  0.10993749207E+02  0.14054145596E+04  0.95000000000E+03 0.  0.
<mgrwt>
<rscale>  0 0.31269165E+04</rscale>
<asrwt>0</asrwt>
<pdfrwt beam="1">  1        2 0.38786364E+00 0.31269165E+04</pdfrwt>
<pdfrwt beam="2">  1       -2 0.14916496E+00 0.31269165E+04</pdfrwt>
<totfact> 0.87158780E-01</totfact>
</mgrwt>
</event>
<event>
 4    1  0.2043502E-008  0.2934098E+04  0.7816531E-02  0.8262804E-01
          2   -1    0    0  501    0  0.00000000000E+00  0.00000000000E+00  0.17483153876E+04  0.17483153876E+04  0.00000000000E+00 0.  1.
         -2   -1    0    0    0  501 -0.00000000000E+00 -0.00000000000E+00 -0.12310322785E+04  0.12310322785E+04  0.00000000000E+00 0. -1.
    2000013    1    1    2    0    0 -0.48309688328E+03  0.91732262846E+03  0.68326437401E+03  0.15633980965E+04  0.95000000000E+03 0.  0.
   -2000013    1    1    2    0    0  0.48309688328E+03 -0.91732262846E+03 -0.16598126485E+03  0.14159495696E+04  0.95000000000E+03 0.  0.
<mgrwt>
<rscale>  0 0.29340979E+04</rscale>
<asrwt>0</asrwt>
<pdfrwt beam="1">  1        2 0.26897160E+00 0.29340979E+04</pdfrwt>
<pdfrwt beam="2">  1       -2 0.18938958E+00 0.29340979E+04</pdfrwt>
<totfact> 0.12415982E+00</totfact>
</mgrwt>
</event>
<event>
 4    1  0.2043502E-008  0.2489375E+04  0.7816531E-02  0.8406780E-01
         -1   -1    0    0    0  501 -0.00000000000E+00  0.00000000000E+00  0.97943819959E+03  0.97943819959E+03  0.00000000000E+00 0. -1.
          1   -1    0    0  501    0  0.00000000000E+00 -0.00000000000E+00 -0.15817714197E+04  0.15817714197E+04  0.00000000000E+00 0.  1.
    2000013    1    1    2    0    0  0.55568789207E+03  0.52501337381E+03 -0.55800855197E+03  0.13410076883E+04  0.95000000000E+03 0.  0.
   -2000013    1    1    2    0    0 -0.55568789207E+03 -0.52501337381E+03 -0.44324668112E+02  0.12202019309E+04  0.95000000000E+03 0.  0.
<mgrwt>
<rscale>  0 0.24893753E+04</rscale>
<asrwt>0</asrwt>
<pdfrwt beam="2">  1        1 0.24334945E+00 0.24893753E+04</pdfrwt>
<pdfrwt beam="1">  1       -1 0.15068280E+00 0.24893753E+04</pdfrwt>
<totfact> 0.17602428E+00</totfact>
</mgrwt>
</event>
<event>
 4    1  0.2043502E-008  0.3102761E+04  0.7816531E-02  0.8214981E-01
          2   -1    0    0  501    0  0.00000000000E+00  0.00000000000E+00  0.20183135634E+04  0.20183135634E+04  0.00000000000E+00 0.  1.
         -2   -1    0    0    0  501 -0.00000000000E+00 -0.00000000000E+00 -0.11924716159E+04  0.11924716159E+04  0.00000000000E+00 0. -1.
    2000013    1    1    2    0    0 -0.12053458178E+04  0.22282870717E+03  0.36937917540E+03  0.15941932594E+04  0.95000000000E+03 0.  0.
   -2000013    1    1    2    0    0  0.12053458178E+04 -0.22282870717E+03  0.45646277216E+03  0.16165919199E+04  0.95000000000E+03 0.  0.
<mgrwt>
<rscale>  0 0.31027611E+04</rscale>
<asrwt>0</asrwt>
<pdfrwt beam="1">  1        2 0.31050978E+00 0.31027611E+04</pdfrwt>
<pdfrwt beam="2">  1       -2 0.18345717E+00 0.31027611E+04</pdfrwt>
<totfact> 0.95102421E-01</totfact>
</mgrwt>
</event>
<event>
 4    1  0.2043502E-008  0.2427196E+04  0.7816531E-02  0.8429392E-01
          2   -1    0    0  501    0  0.00000000000E+00  0.00000000000E+00  0.34682355407E+04  0.34682355407E+04  0.00000000000E+00 0.  1.
         -2   -1    0    0    0  501 -0.00000000000E+00 -0.00000000000E+00 -0.42465963483E+03  0.42465963483E+03  0.00000000000E+00 0. -1.
    2000013    1    1    2    0    0  0.96602928152E+01 -0.67059176094E+03  0.96496013112E+03  0.15111037972E+04  0.95000000000E+03 0.  0.
   -2000013    1    1    2    0    0 -0.96602928152E+01  0.67059176094E+03  0.20786157747E+04  0.23817913784E+04  0.95000000000E+03 0.  0.
<mgrwt>
<rscale>  0 0.24271956E+04</rscale>
<asrwt>0</asrwt>
<pdfrwt beam="1">  1        2 0.53357468E+00 0.24271956E+04</pdfrwt>
<pdfrwt beam="2">  1       -2 0.65332254E-01 0.24271956E+04</pdfrwt>
<totfact> 0.16602855E+00</totfact>
</mgrwt>
</event>
<event>
 4    1  0.2043502E-008  0.2445350E+04  0.7816531E-02  0.8422718E-01
         -2   -1    0    0    0  501 -0.00000000000E+00  0.00000000000E+00  0.98341836232E+03  0.98341836232E+03  0.00000000000E+00 0. -1.
          2   -1    0    0  501    0  0.00000000000E+00 -0.00000000000E+00 -0.15201400281E+04  0.15201400281E+04  0.00000000000E+00 0.  1.
    2000013    1    1    2    0    0  0.40909129507E+03 -0.59544186844E+03 -0.54025144046E+03  0.13100680613E+04  0.95000000000E+03 0.  0.
   -2000013    1    1    2    0    0 -0.40909129507E+03  0.59544186844E+03  0.35297746524E+01  0.11934903291E+04  0.95000000000E+03 0.  0.
<mgrwt>
<rscale>  0 0.24453496E+04</rscale>
<asrwt>0</asrwt>
<pdfrwt beam="2">  1        2 0.23386769E+00 0.24453496E+04</pdfrwt>
<pdfrwt beam="1">  1       -2 0.15129513E+00 0.24453496E+04</pdfrwt>
<totfact> 0.32448634E+00</totfact>
</mgrwt>
</event>
<event>
 4    1  0.2043502E-008  0.2662283E+04  0.7816531E-02  0.8347348E-01
          2   -1    0    0  501    0  0.00000000000E+00  0.00000000000E+00  0.15364936782E+04  0.15364936782E+04  0.00000000000E+00 0.  1.
         -2   -1    0    0    0  501 -0.00000000000E+00 -0.00000000000E+00 -0.11532344051E+04  0.11532344051E+04  0.00000000000E+00 0. -1.
    2000013    1    1    2    0    0 -0.58113957188E+02 -0.79933200372E+03 -0.28986339177E+03  0.12762561146E+04  0.95000000000E+03 0.  0.
   -2000013    1    1    2    0    0  0.58113957188E+02  0.79933200372E+03  0.67312266487E+03  0.14134719686E+04  0.95000000000E+03 0.  0.
<mgrwt>
<rscale>  0 0.26622828E+04</rscale>
<asrwt>0</asrwt>
<pdfrwt beam="1">  1        2 0.23638364E+00 0.26622828E+04</pdfrwt>
<pdfrwt beam="2">  1       -2 0.17742068E+00 0.26622828E+04</pdfrwt>
<totfact> 0.20134366E+00</totfact>
</mgrwt>
</event>
<event>
 4    1  0.2043502E-008  0.2213466E+04  0.7816531E-02  0.8512844E-01
          2   -1    0    0  501    0  0.00000000000E+00  0.00000000000E+00  0.15044320065E+04  0.15044320065E+04  0.00000000000E+00 0.  1.
         -2   -1    0    0    0  501 -0.00000000000E+00 -0.00000000000E+00 -0.81416648040E+03  0.81416648040E+03  0.00000000000E+00 0. -1.
    2000013    1    1    2    0    0 -0.35462559131E+03  0.39136518153E+03  0.56343493551E+03  0.12242895662E+04  0.95000000000E+03 0.  0.
   -2000013    1    1    2    0    0  0.35462559131E+03 -0.39136518153E+03  0.12683059064E+03  0.10943089208E+04  0.95000000000E+03 0.  0.
<mgrwt>
<rscale>  0 0.22134662E+04</rscale>
<asrwt>0</asrwt>
<pdfrwt beam="1">  1        2 0.23145108E+00 0.22134662E+04</pdfrwt>
<pdfrwt beam="2">  1       -2 0.12525638E+00 0.22134662E+04</pdfrwt>
<totfact> 0.54977357E+00</totfact>
</mgrwt>
</event>
<event>
 4    1  0.2043502E-008  0.3543823E+04  0.7816531E-02  0.8103482E-01
          2   -1    0    0  501    0  0.00000000000E+00  0.00000000000E+00  0.28240087705E+04  0.28240087705E+04  0.00000000000E+00 0.  1.
         -2   -1    0    0    0  501 -0.00000000000E+00 -0.00000000000E+00 -0.11117775328E+04  0.11117775328E+04  0.00000000000E+00 0. -1.
    2000013    1    1    2    0    0  0.14597866204E+04 -0.26058925196E+03  0.10734248774E+04  0.20624317450E+04  0.95000000000E+03 0.  0.
   -2000013    1    1    2    0    0 -0.14597866204E+04  0.26058925196E+03  0.63880636020E+03  0.18733545583E+04  0.95000000000E+03 0.  0.
<mgrwt>
<rscale>  0 0.35438225E+04</rscale>
<asrwt>0</asrwt>
<pdfrwt beam="1">  1        2 0.43446289E+00 0.35438225E+04</pdfrwt>
<pdfrwt beam="2">  1       -2 0.17104270E+00 0.35438225E+04</pdfrwt>
<totfact> 0.38345205E-01</totfact>
</mgrwt>
</event>
<event>
 4    1  0.2043502E-008  0.2703087E+04  0.7816531E-02  0.8334004E-01
          2   -1    0    0  501    0  0.00000000000E+00  0.00000000000E+00  0.12980057201E+04  0.12980057201E+04  0.00000000000E+00 0.  1.
         -2   -1    0    0    0  501 -0.00000000000E+00 -0.00000000000E+00 -0.14072891441E+04  0.14072891441E+04  0.00000000000E+00 0. -1.
    2000013    1    1    2    0    0 -0.93328803099E+03  0.12723400448E+03  0.13775038921E+03  0.13448755371E+04  0.95000000000E+03 0.  0.
   -2000013    1    1    2    0    0  0.93328803099E+03 -0.12723400448E+03 -0.24703381325E+03  0.13604193271E+04  0.95000000000E+03 0.  0.
<mgrwt>
<rscale>  0 0.27030866E+04</rscale>
<asrwt>0</asrwt>
<pdfrwt beam="1">  1        2 0.19969319E+00 0.27030866E+04</pdfrwt>
<pdfrwt beam="2">  1       -2 0.21650602E+00 0.27030866E+04</pdfrwt>
<totfact> 0.15123386E+00</totfact>
</mgrwt>
</event>
<event>
 4    1  0.2043502E-008  0.3065644E+04  0.7816531E-02  0.8225230E-01
         -2   -1    0    0    0  501 -0.00000000000E+00  0.00000000000E+00  0.12285894897E+04  0.12285894897E+04  0.00000000000E+00 0. -1.
          2   -1    0    0  501    0  0.00000000000E+00 -0.00000000000E+00 -0.19123909109E+04  0.19123909109E+04  0.00000000000E+00 0.  1.
    2000013    1    1    2    0    0 -0.43559572170E+03  0.39949578286E+03 -0.14153607828E+04  0.18041858715E+04  0.95000000000E+03 0.  0.
   -2000013    1    1    2    0    0  0.43559572170E+03 -0.39949578286E+03  0.73155936173E+03  0.13367945291E+04  0.95000000000E+03 0.  0.
<mgrwt>
<rscale>  0 0.30656441E+04</rscale>
<asrwt>0</asrwt>
<pdfrwt beam="2">  1        2 0.29421399E+00 0.30656441E+04</pdfrwt>
<pdfrwt beam="1">  1       -2 0.18901377E+00 0.30656441E+04</pdfrwt>
<totfact> 0.10016403E+00</totfact>
</mgrwt>
</event>
<event>
 4    1  0.2043502E-008  0.4123982E+04  0.7816531E-02  0.7979992E-01
         -2   -1    0    0    0  501 -0.00000000000E+00  0.00000000000E+00  0.14963083467E+04  0.14963083467E+04  0.00000000000E+00 0. -1.
          2   -1    0    0  501    0  0.00000000000E+00 -0.00000000000E+00 -0.28415315110E+04  0.28415315110E+04  0.00000000000E+00 0.  1.
    2000013    1    1    2    0    0 -0.12380529597E+03 -0.17126347260E+04 -0.66424482924E+01  0.19623938387E+04  0.95000000000E+03 0.  0.
   -2000013    1    1    2    0    0  0.12380529597E+03  0.17126347260E+04 -0.13385807160E+04  0.23754460190E+04  0.95000000000E+03 0.  0.
<mgrwt>
<rscale>  0 0.41239822E+04</rscale>
<asrwt>0</asrwt>
<pdfrwt beam="2">  1        2 0.43715869E+00 0.41239822E+04</pdfrwt>
<pdfrwt beam="1">  1       -2 0.23020129E+00 0.41239822E+04</pdfrwt>
<totfact> 0.14523145E-01</totfact>
</mgrwt>
</event>
<event>
 4    1  0.2043502E-008  0.2822111E+04  0.7816531E-02  0.8296437E-01
         -2   -1    0    0    0  501 -0.00000000000E+00  0.00000000000E+00  0.17275754702E+04  0.17275754702E+04  0.00000000000E+00 0. -1.
          2   -1    0    0  501    0  0.00000000000E+00 -0.00000000000E+00 -0.11525268896E+04  0.11525268896E+04  0.00000000000E+00 0.  1.
    2000013    1    1    2    0    0 -0.76288732432E+03 -0.68501913068E+03  0.90347178715E+02  0.14006822951E+04  0.95000000000E+03 0.  0.
   -2000013    1    1    2    0    0  0.76288732432E+03  0.68501913068E+03  0.48470140193E+03  0.14794200648E+04  0.95000000000E+03 0.  0.
<mgrwt>
<rscale>  0 0.28221107E+04</rscale>
<asrwt>0</asrwt>
<pdfrwt beam="2">  1        2 0.17731183E+00 0.28221107E+04</pdfrwt>
<pdfrwt beam="1">  1       -2 0.26578084E+00 0.28221107E+04</pdfrwt>
<totfact> 0.90374248E-01</totfact>
</mgrwt>
</event>
<event>
 4    1  0.2043502E-008  0.2345733E+04  0.7816531E-02  0.8460104E-01
         -2   -1    0    0    0  501 -0.00000000000E+00  0.00000000000E+00  0.70793026360E+03  0.70793026360E+03  0.00000000000E+00 0. -1.
          2   -1    0    0  501    0  0.00000000000E+00 -0.00000000000E+00 -0.19431516511E+04  0.19431516511E+04  0.00000000000E+00 0.  1.
    2000013    1    1    2    0    0 -0.24708149048E+03  0.64031372738E+03 -0.56625400192E+03  0.13016122799E+04  0.95000000000E+03 0.  0.
   -2000013    1    1    2    0    0  0.24708149048E+03 -0.64031372738E+03 -0.66896738559E+03  0.13494696349E+04  0.95000000000E+03 0.  0.
<mgrwt>
<rscale>  0 0.23457330E+04</rscale>
<asrwt>0</asrwt>
<pdfrwt beam="2">  1        2 0.29894641E+00 0.23457330E+04</pdfrwt>
<pdfrwt beam="1">  1       -2 0.10891235E+00 0.23457330E+04</pdfrwt>
<totfact> 0.43680910E+00</totfact>
</mgrwt>
</event>
<event>
 4    1  0.2043502E-008  0.2734662E+04  0.7816531E-02  0.8323845E-01
         -2   -1    0    0    0  501 -0.00000000000E+00  0.00000000000E+00  0.14430844467E+04  0.14430844467E+04  0.00000000000E+00 0. -1.
          2   -1    0    0  501    0  0.00000000000E+00 -0.00000000000E+00 -0.12955544691E+04  0.12955544691E+04  0.00000000000E+00 0.  1.
    2000013    1    1    2    0    0 -0.78663649675E+03  0.53808046818E+03  0.31653642727E+03  0.13823975109E+04  0.95000000000E+03 0.  0.
   -2000013    1    1    2    0    0  0.78663649675E+03 -0.53808046818E+03 -0.16900644968E+03  0.13562414049E+04  0.95000000000E+03 0.  0.
<mgrwt>
<rscale>  0 0.27346623E+04</rscale>
<asrwt>0</asrwt>
<pdfrwt beam="2">  1        2 0.19931607E+00 0.27346623E+04</pdfrwt>
<pdfrwt beam="1">  1       -2 0.22201299E+00 0.27346623E+04</pdfrwt>
<totfact> 0.13963770E+00</totfact>
</mgrwt>
</event>
<event>
 4    1  0.2043502E-008  0.2797040E+04  0.7816531E-02  0.8304188E-01
         -2   -1    0    0    0  501 -0.00000000000E+00  0.00000000000E+00  0.18545267416E+04  0.18545267416E+04  0.00000000000E+00 0. -1.
          2   -1    0    0  501    0  0.00000000000E+00 -0.00000000000E+00 -0.10546399397E+04  0.10546399397E+04  0.00000000000E+00 0.  1.
    2000013    1    1    2    0    0  0.58280413260E+03 -0.28997980301E+03 -0.42534439973E+03  0.12276672194E+04  0.95000000000E+03 0.  0.
   -2000013    1    1    2    0    0 -0.58280413260E+03  0.28997980301E+03  0.12252312016E+04  0.16814994619E+04  0.95000000000E+03 0.  0.
<mgrwt>
<rscale>  0 0.27970398E+04</rscale>
<asrwt>0</asrwt>
<pdfrwt beam="2">  1        2 0.16225230E+00 0.27970398E+04</pdfrwt>
<pdfrwt beam="1">  1       -2 0.28531181E+00 0.27970398E+04</pdfrwt>
<totfact> 0.79093543E-01</totfact>
</mgrwt>
</event>
<event>
 4    1  0.2043502E-008  0.3106626E+04  0.7816531E-02  0.8213922E-01
          1   -1    0    0  501    0  0.00000000000E+00  0.00000000000E+00  0.24126698189E+04  0.24126698189E+04  0.00000000000E+00 0.  1.
         -1   -1    0    0    0  501 -0.00000000000E+00 -0.00000000000E+00 -0.10000459391E+04  0.10000459391E+04  0.00000000000E+00 0. -1.
    2000013    1    1    2    0    0 -0.10789246831E+04 -0.35837157268E+03  0.19367225900E+03  0.14941611693E+04  0.95000000000E+03 0.  0.
   -2000013    1    1    2    0    0  0.10789246831E+04  0.35837157268E+03  0.12189516209E+04  0.19185545887E+04  0.95000000000E+03 0.  0.
<mgrwt>
<rscale>  0 0.31066256E+04</rscale>
<asrwt>0</asrwt>
<pdfrwt beam="1">  1        1 0.37117997E+00 0.31066256E+04</pdfrwt>
<pdfrwt beam="2">  1       -1 0.15385322E+00 0.31066256E+04</pdfrwt>
<totfact> 0.42753727E-01</totfact>
</mgrwt>
</event>
<event>
 4    1  0.2043502E-008  0.3522554E+04  0.7816531E-02  0.8108466E-01
         -2   -1    0    0    0  501 -0.00000000000E+00  0.00000000000E+00  0.11692377584E+04  0.11692377584E+04  0.00000000000E+00 0. -1.
          2   -1    0    0  501    0  0.00000000000E+00 -0.00000000000E+00 -0.26530929047E+04  0.26530929047E+04  0.00000000000E+00 0.  1.
    2000013    1    1    2    0    0  0.57010062122E+03 -0.13559212152E+04 -0.53587430635E+03  0.18311740312E+04  0.95000000000E+03 0.  0.
   -2000013    1    1    2    0    0 -0.57010062122E+03  0.13559212152E+04 -0.94798083990E+03  0.19911566320E+04  0.95000000000E+03 0.  0.
<mgrwt>
<rscale>  0 0.35225538E+04</rscale>
<asrwt>0</asrwt>
<pdfrwt beam="2">  1        2 0.40816814E+00 0.35225538E+04</pdfrwt>
<pdfrwt beam="1">  1       -2 0.17988273E+00 0.35225538E+04</pdfrwt>
<totfact> 0.42179863E-01</totfact>
</mgrwt>
</event>
<event>
 4    1  0.2043502E-008  0.2879819E+04  0.7816531E-02  0.8278907E-01
          2   -1    0    0  501    0  0.00000000000E+00  0.00000000000E+00  0.13698298606E+04  0.13698298606E+04  0.00000000000E+00 0.  1.
         -2   -1    0    0    0  501 -0.00000000000E+00 -0.00000000000E+00 -0.15135741252E+04  0.15135741252E+04  0.00000000000E+00 0. -1.
    2000013    1    1    2    0    0  0.10010376705E+04  0.75081924251E+01  0.33937786968E+03  0.14212002424E+04  0.95000000000E+03 0.  0.
   -2000013    1    1    2    0    0 -0.10010376705E+04 -0.75081924251E+01 -0.48312213424E+03  0.14622037434E+04  0.95000000000E+03 0.  0.
<mgrwt>
<rscale>  0 0.28798188E+04</rscale>
<asrwt>0</asrwt>
<pdfrwt beam="1">  1        2 0.21074306E+00 0.28798188E+04</pdfrwt>
<pdfrwt beam="2">  1       -2 0.23285756E+00 0.28798188E+04</pdfrwt>
<totfact> 0.10682816E+00</totfact>
</mgrwt>
</event>
<event>
 4    1  0.2043502E-008  0.2364364E+04  0.7816531E-02  0.8452967E-01
          2   -1    0    0  501    0  0.00000000000E+00  0.00000000000E+00  0.11859431068E+04  0.11859431068E+04  0.00000000000E+00 0.  1.
         -2   -1    0    0    0  501 -0.00000000000E+00 -0.00000000000E+00 -0.11784324253E+04  0.11784324253E+04  0.00000000000E+00 0. -1.
    2000013    1    1    2    0    0  0.42354304843E+03  0.36568960582E+03 -0.42278662185E+03  0.11808328117E+04  0.95000000000E+03 0.  0.
   -2000013    1    1    2    0    0 -0.42354304843E+03 -0.36568960582E+03  0.43029730331E+03  0.11835427204E+04  0.95000000000E+03 0.  0.
<mgrwt>
<rscale>  0 0.23643636E+04</rscale>
<asrwt>0</asrwt>
<pdfrwt beam="1">  1        2 0.18245278E+00 0.23643636E+04</pdfrwt>
<pdfrwt beam="2">  1       -2 0.18129730E+00 0.23643636E+04</pdfrwt>
<totfact> 0.30936657E+00</totfact>
</mgrwt>
</event>
<event>
 4    1  0.2043502E-008  0.2406703E+04  0.7816531E-02  0.8436998E-01
          2   -1    0    0  501    0  0.00000000000E+00  0.00000000000E+00  0.14943870646E+04  0.14943870646E+04  0.00000000000E+00 0.  1.
         -2   -1    0    0    0  501 -0.00000000000E+00 -0.00000000000E+00 -0.96899593625E+03  0.96899593625E+03  0.00000000000E+00 0. -1.
    2000013    1    1    2    0    0 -0.50228484742E+03 -0.24675543494E+03  0.75610299784E+03  0.13369255985E+04  0.95000000000E+03 0.  0.
   -2000013    1    1    2    0    0  0.50228484742E+03  0.24675543494E+03 -0.23071186947E+03  0.11264574024E+04  0.95000000000E+03 0.  0.
<mgrwt>
<rscale>  0 0.24067031E+04</rscale>
<asrwt>0</asrwt>
<pdfrwt beam="1">  1        2 0.22990570E+00 0.24067031E+04</pdfrwt>
<pdfrwt beam="2">  1       -2 0.14907630E+00 0.24067031E+04</pdfrwt>
<totfact> 0.35006860E+00</totfact>
</mgrwt>
</event>
<event>
 4    1  0.2043502E-008  0.2655961E+04  0.7816531E-02  0.8349437E-01
          2   -1    0    0  501    0  0.00000000000E+00  0.00000000000E+00  0.22548370367E+04  0.22548370367E+04  0.00000000000E+00 0.  1.
         -2   -1    0    0    0  501 -0.00000000000E+00 -0.00000000000E+00 -0.78211079786E+03  0.78211079786E+03  0.00000000000E+00 0. -1.
    2000013    1    1    2    0    0  0.86171343459E+03 -0.29817339788E+03  0.93300581133E+03  0.16138330962E+04  0.95000000000E+03 0.  0.
   -2000013    1    1    2    0    0 -0.86171343459E+03  0.29817339788E+03  0.53972042753E+03  0.14231147383E+04  0.95000000000E+03 0.  0.
<mgrwt>
<rscale>  0 0.26559611E+04</rscale>
<asrwt>0</asrwt>
<pdfrwt beam="1">  1        2 0.34689800E+00 0.26559611E+04</pdfrwt>
<pdfrwt beam="2">  1       -2 0.12032474E+00 0.26559611E+04</pdfrwt>
<totfact> 0.22329453E+00</totfact>
</mgrwt>
</event>
<event>
 4    1  0.2043502E-008  0.2500867E+04  0.7816531E-02  0.8402677E-01
         -2   -1    0    0    0  501 -0.00000000000E+00  0.00000000000E+00  0.99495871678E+03  0.99495871678E+03  0.00000000000E+00 0. -1.
          2   -1    0    0  501    0  0.00000000000E+00 -0.00000000000E+00 -0.15715067047E+04  0.15715067047E+04  0.00000000000E+00 0.  1.
    2000013    1    1    2    0    0  0.64256716048E+03  0.67116639646E+02  0.21832116755E+03  0.11694277794E+04  0.95000000000E+03 0.  0.
   -2000013    1    1    2    0    0 -0.64256716048E+03 -0.67116639646E+02 -0.79486915548E+03  0.13970376421E+04  0.95000000000E+03 0.  0.
<mgrwt>
<rscale>  0 0.25008673E+04</rscale>
<asrwt>0</asrwt>
<pdfrwt beam="2">  1        2 0.24177026E+00 0.25008673E+04</pdfrwt>
<pdfrwt beam="1">  1       -2 0.15307057E+00 0.25008673E+04</pdfrwt>
<totfact> 0.29296151E+00</totfact>
</mgrwt>
</event>
<event>
 4    1  0.2043502E-008  0.2624213E+04  0.7816531E-02  0.8360023E-01
         -2   -1    0    0    0  501 -0.00000000000E+00  0.00000000000E+00  0.64153891052E+03  0.64153891052E+03  0.00000000000E+00 0. -1.
          2   -1    0    0  501    0  0.00000000000E+00 -0.00000000000E+00 -0.26835846329E+04  0.26835846329E+04  0.00000000000E+00 0.  1.
    2000013    1    1    2    0    0  0.23240626707E+02  0.89035278946E+03 -0.81727776198E+03  0.15374365537E+04  0.95000000000E+03 0.  0.
   -2000013    1    1    2    0    0 -0.23240626707E+02 -0.89035278946E+03 -0.12247679604E+04  0.17876869897E+04  0.95000000000E+03 0.  0.
<mgrwt>
<rscale>  0 0.26242134E+04</rscale>
<asrwt>0</asrwt>
<pdfrwt beam="2">  1        2 0.41285917E+00 0.26242134E+04</pdfrwt>
<pdfrwt beam="1">  1       -2 0.98698295E-01 0.26242134E+04</pdfrwt>
<totfact> 0.20423022E+00</totfact>
</mgrwt>
</event>
<event>
 4    1  0.2043502E-008  0.2345155E+04  0.7816531E-02  0.8460327E-01
         -1   -1    0    0    0  501 -0.00000000000E+00  0.00000000000E+00  0.62012189448E+03  0.62012189448E+03  0.00000000000E+00 0. -1.
          1   -1    0    0  501    0  0.00000000000E+00 -0.00000000000E+00 -0.22172058642E+04  0.22172058642E+04  0.00000000000E+00 0.  1.
    2000013    1    1    2    0    0 -0.32996221719E+03  0.43181504325E+03 -0.13076917399E+04  0.17052556943E+04  0.95000000000E+03 0.  0.
   -2000013    1    1    2    0    0  0.32996221719E+03 -0.43181504325E+03 -0.28939222987E+03  0.11320720644E+04  0.95000000000E+03 0.  0.
<mgrwt>
<rscale>  0 0.23451549E+04</rscale>
<asrwt>0</asrwt>
<pdfrwt beam="2">  1        1 0.34110859E+00 0.23451549E+04</pdfrwt>
<pdfrwt beam="1">  1       -1 0.95403370E-01 0.23451549E+04</pdfrwt>
<totfact> 0.20243952E+00</totfact>
</mgrwt>
</event>
<event>
 4    1  0.2043502E-008  0.2175666E+04  0.7816531E-02  0.8528625E-01
          2   -1    0    0  501    0  0.00000000000E+00  0.00000000000E+00  0.13179703754E+04  0.13179703754E+04  0.00000000000E+00 0.  1.
         -2   -1    0    0    0  501 -0.00000000000E+00 -0.00000000000E+00 -0.89788106729E+03  0.89788106729E+03  0.00000000000E+00 0. -1.
    2000013    1    1    2    0    0  0.36889818638E+03  0.36955372259E+03  0.11767875630E+03  0.10904146530E+04  0.95000000000E+03 0.  0.
   -2000013    1    1    2    0    0 -0.36889818638E+03 -0.36955372259E+03  0.30241055184E+03  0.11254367897E+04  0.95000000000E+03 0.  0.
<mgrwt>
<rscale>  0 0.21756660E+04</rscale>
<asrwt>0</asrwt>
<pdfrwt beam="1">  1        2 0.20276467E+00 0.21756660E+04</pdfrwt>
<pdfrwt beam="2">  1       -2 0.13813555E+00 0.21756660E+04</pdfrwt>
<totfact> 0.54972345E+00</totfact>
</mgrwt>
</event>
<event>
 4    1  0.2043502E-008  0.3037423E+04  0.7816531E-02  0.8233124E-01
         -2   -1    0    0    0  501 -0.00000000000E+00  0.00000000000E+00  0.10157686717E+04  0.10157686717E+04  0.00000000000E+00 0. -1.
          2   -1    0    0  501    0  0.00000000000E+00 -0.00000000000E+00 -0.22706795505E+04  0.22706795505E+04  0.00000000000E+00 0.  1.
    2000013    1    1    2    0    0  0.85273440854E+03 -0.65127783375E+03 -0.83585342087E+02  0.14355505208E+04  0.95000000000E+03 0.  0.
   -2000013    1    1    2    0    0 -0.85273440854E+03  0.65127783375E+03 -0.11713255367E+04  0.18508977014E+04  0.95000000000E+03 0.  0.
<mgrwt>
<rscale>  0 0.30374233E+04</rscale>
<asrwt>0</asrwt>
<pdfrwt beam="2">  1        2 0.34933532E+00 0.30374233E+04</pdfrwt>
<pdfrwt beam="1">  1       -2 0.15627210E+00 0.30374233E+04</pdfrwt>
<totfact> 0.10794382E+00</totfact>
</mgrwt>
</event>
<event>
 4    1  0.2043502E-008  0.2294625E+04  0.7816531E-02  0.8480043E-01
         -2   -1    0    0    0  501 -0.00000000000E+00  0.00000000000E+00  0.85530425139E+03  0.85530425139E+03  0.00000000000E+00 0. -1.
          2   -1    0    0  501    0  0.00000000000E+00 -0.00000000000E+00 -0.15390148222E+04  0.15390148222E+04  0.00000000000E+00 0.  1.
    2000013    1    1    2    0    0 -0.49499483733E+03  0.27727019610E+03 -0.65822324511E+03  0.12875000936E+04  0.95000000000E+03 0.  0.
   -2000013    1    1    2    0    0  0.49499483733E+03 -0.27727019610E+03 -0.25487325674E+02  0.11068189800E+04  0.95000000000E+03 0.  0.
<mgrwt>
<rscale>  0 0.22946250E+04</rscale>
<asrwt>0</asrwt>
<pdfrwt beam="2">  1        2 0.23677151E+00 0.22946250E+04</pdfrwt>
<pdfrwt beam="1">  1       -2 0.13158527E+00 0.22946250E+04</pdfrwt>
<totfact> 0.46100250E+00</totfact>
</mgrwt>
</event>
<event>
 4    1  0.2043502E-008  0.2040203E+04  0.7816531E-02  0.8588052E-01
         -2   -1    0    0    0  501 -0.00000000000E+00  0.00000000000E+00  0.21230122450E+03  0.21230122450E+03  0.00000000000E+00 0. -1.
          2   -1    0    0  501    0  0.00000000000E+00 -0.00000000000E+00 -0.49015584681E+04  0.49015584681E+04  0.00000000000E+00 0.  1.
    2000013    1    1    2    0    0 -0.23996401516E+03  0.27735916691E+03 -0.21943189092E+04  0.24191003103E+04  0.95000000000E+03 0.  0.
   -2000013    1    1    2    0    0  0.23996401516E+03 -0.27735916691E+03 -0.24949383344E+04  0.26947593823E+04  0.95000000000E+03 0.  0.
<mgrwt>
<rscale>  0 0.20402028E+04</rscale>
<asrwt>0</asrwt>
<pdfrwt beam="2">  1        2 0.75408589E+00 0.20402028E+04</pdfrwt>
<pdfrwt beam="1">  1       -2 0.32661728E-01 0.20402028E+04</pdfrwt>
<totfact> 0.37521038E-01</totfact>
</mgrwt>
</event>
<event>
 4    1  0.2043502E-008  0.2205256E+04  0.7816531E-02  0.8516244E-01
         -2   -1    0    0    0  501 -0.00000000000E+00  0.00000000000E+00  0.54459941429E+03  0.54459941429E+03  0.00000000000E+00 0. -1.
          2   -1    0    0  501    0  0.00000000000E+00 -0.00000000000E+00 -0.22324447332E+04  0.22324447332E+04  0.00000000000E+00 0.  1.
    2000013    1    1    2    0    0 -0.46891655767E+03 -0.22397520671E+03 -0.58206275073E+03  0.12293675923E+04  0.95000000000E+03 0.  0.
   -2000013    1    1    2    0    0  0.46891655767E+03  0.22397520671E+03 -0.11057825681E+04  0.15476765551E+04  0.95000000000E+03 0.  0.
<mgrwt>
<rscale>  0 0.22052556E+04</rscale>
<asrwt>0</asrwt>
<pdfrwt beam="2">  1        2 0.34345304E+00 0.22052556E+04</pdfrwt>
<pdfrwt beam="1">  1       -2 0.83784523E-01 0.22052556E+04</pdfrwt>
<totfact> 0.56312202E+00</totfact>
</mgrwt>
</event>
<event>
 4    1  0.2043502E-008  0.2022108E+04  0.7816531E-02  0.8596354E-01
         -2   -1    0    0    0  501 -0.00000000000E+00  0.00000000000E+00  0.17170519352E+04  0.17170519352E+04  0.00000000000E+00 0. -1.
          2   -1    0    0  501    0  0.00000000000E+00 -0.00000000000E+00 -0.59534016106E+03  0.59534016106E+03  0.00000000000E+00 0.  1.
    2000013    1    1    2    0    0 -0.55729776721E+02  0.23498532392E+03  0.27748005438E+03  0.10187340630E+04  0.95000000000E+03 0.  0.
   -2000013    1    1    2    0    0  0.55729776721E+02 -0.23498532392E+03  0.84423171977E+03  0.12936580333E+04  0.95000000000E+03 0.  0.
<mgrwt>
<rscale>  0 0.20221078E+04</rscale>
<asrwt>0</asrwt>
<pdfrwt beam="2">  1        2 0.91590794E-01 0.20221078E+04</pdfrwt>
<pdfrwt beam="1">  1       -2 0.26416184E+00 0.20221078E+04</pdfrwt>
<totfact> 0.24432981E+00</totfact>
</mgrwt>
</event>
<event>
 4    1  0.2043502E-008  0.2780058E+04  0.7816531E-02  0.8309486E-01
         -2   -1    0    0    0  501 -0.00000000000E+00  0.00000000000E+00  0.43566369408E+03  0.43566369408E+03  0.00000000000E+00 0. -1.
          2   -1    0    0  501    0  0.00000000000E+00 -0.00000000000E+00 -0.44350286360E+04  0.44350286360E+04  0.00000000000E+00 0.  1.
    2000013    1    1    2    0    0  0.82342082330E+03  0.57869344353E+03 -0.17727784241E+04  0.22490334134E+04  0.95000000000E+03 0.  0.
   -2000013    1    1    2    0    0 -0.82342082330E+03 -0.57869344353E+03 -0.22265865178E+04  0.26216589166E+04  0.95000000000E+03 0.  0.
<mgrwt>
<rscale>  0 0.27800582E+04</rscale>
<asrwt>0</asrwt>
<pdfrwt beam="2">  1        2 0.68231207E+00 0.27800582E+04</pdfrwt>
<pdfrwt beam="1">  1       -2 0.67025186E-01 0.27800582E+04</pdfrwt>
<totfact> 0.25365169E-01</totfact>
</mgrwt>
</event>
<event>
 4    1  0.2043502E-008  0.2065571E+04  0.7816531E-02  0.8576563E-01
          2   -1    0    0  501    0  0.00000000000E+00  0.00000000000E+00  0.30849419466E+04  0.30849419466E+04  0.00000000000E+00 0.  1.
         -2   -1    0    0    0  501 -0.00000000000E+00 -0.00000000000E+00 -0.34575891721E+03  0.34575891721E+03  0.00000000000E+00 0. -1.
    2000013    1    1    2    0    0  0.65665559399E+02  0.39974027909E+03  0.13803464732E+04  0.17239375402E+04  0.95000000000E+03 0.  0.
   -2000013    1    1    2    0    0 -0.65665559399E+02 -0.39974027909E+03  0.13588365562E+04  0.17067633237E+04  0.95000000000E+03 0.  0.
<mgrwt>
<rscale>  0 0.20655713E+04</rscale>
<asrwt>0</asrwt>
<pdfrwt beam="1">  1        2 0.47460644E+00 0.20655713E+04</pdfrwt>
<pdfrwt beam="2">  1       -2 0.53193682E-01 0.20655713E+04</pdfrwt>
<totfact> 0.47488880E+00</totfact>
</mgrwt>
</event>
<event>
 4    1  0.2043502E-008  0.2201622E+04  0.7816531E-02  0.8517753E-01
          2   -1    0    0  501    0  0.00000000000E+00  0.00000000000E+00  0.56894784859E+03  0.56894784859E+03  0.00000000000E+00 0.  1.
         -2   -1    0    0    0  501 -0.00000000000E+00 -0.00000000000E+00 -0.21298692023E+04  0.21298692023E+04  0.00000000000E+00 0. -1.
    2000013    1    1    2    0    0 -0.42318936150E+03  0.26933518117E+03 -0.48612370640E+03  0.11791721390E+04  0.95000000000E+03 0.  0.
   -2000013    1    1    2    0    0  0.42318936150E+03 -0.26933518117E+03 -0.10747976473E+04  0.15196449119E+04  0.95000000000E+03 0.  0.
<mgrwt>
<rscale>  0 0.22016217E+04</rscale>
<asrwt>0</asrwt>
<pdfrwt beam="1">  1        2 0.87530437E-01 0.22016217E+04</pdfrwt>
<pdfrwt beam="2">  1       -2 0.32767219E+00 0.22016217E+04</pdfrwt>
<totfact> 0.10381780E+00</totfact>
</mgrwt>
</event>
<event>
 4    1  0.2043502E-008  0.2721262E+04  0.7816531E-02  0.8328139E-01
          1   -1    0    0  501    0  0.00000000000E+00  0.00000000000E+00  0.60044935149E+03  0.60044935149E+03  0.00000000000E+00 0.  1.
         -1   -1    0    0    0  501 -0.00000000000E+00 -0.00000000000E+00 -0.30832187461E+04  0.30832187461E+04  0.00000000000E+00 0. -1.
    2000013    1    1    2    0    0 -0.13044583427E+03 -0.79335336178E+03 -0.19857645092E+04  0.23435414138E+04  0.95000000000E+03 0.  0.
   -2000013    1    1    2    0    0  0.13044583427E+03  0.79335336178E+03 -0.49700488537E+03  0.13401266837E+04  0.95000000000E+03 0.  0.
<mgrwt>
<rscale>  0 0.27212620E+04</rscale>
<asrwt>0</asrwt>
<pdfrwt beam="1">  1        1 0.92376826E-01 0.27212620E+04</pdfrwt>
<pdfrwt beam="2">  1       -1 0.47434133E+00 0.27212620E+04</pdfrwt>
<totfact> 0.65617123E-02</totfact>
</mgrwt>
</event>
<event>
 4    1  0.2043502E-008  0.2383970E+04  0.7816531E-02  0.8445529E-01
         -2   -1    0    0    0  501 -0.00000000000E+00  0.00000000000E+00  0.53813528632E+03  0.53813528632E+03  0.00000000000E+00 0. -1.
          2   -1    0    0  501    0  0.00000000000E+00 -0.00000000000E+00 -0.26402806920E+04  0.26402806920E+04  0.00000000000E+00 0.  1.
    2000013    1    1    2    0    0 -0.62503083476E+03 -0.33795692777E+03 -0.12056933519E+04  0.16914712200E+04  0.95000000000E+03 0.  0.
   -2000013    1    1    2    0    0  0.62503083476E+03  0.33795692777E+03 -0.89645205381E+03  0.14869447583E+04  0.95000000000E+03 0.  0.
<mgrwt>
<rscale>  0 0.23839700E+04</rscale>
<asrwt>0</asrwt>
<pdfrwt beam="2">  1        2 0.40619703E+00 0.23839700E+04</pdfrwt>
<pdfrwt beam="1">  1       -2 0.82790043E-01 0.23839700E+04</pdfrwt>
<totfact> 0.33189060E+00</totfact>
</mgrwt>
</event>
<event>
 4    1  0.2043502E-008  0.2199741E+04  0.7816531E-02  0.8518536E-01
         -2   -1    0    0    0  501 -0.00000000000E+00  0.00000000000E+00  0.10752792391E+04  0.10752792391E+04  0.00000000000E+00 0. -1.
          2   -1    0    0  501    0  0.00000000000E+00 -0.00000000000E+00 -0.11250244449E+04  0.11250244449E+04  0.00000000000E+00 0.  1.
    2000013    1    1    2    0    0 -0.46542226693E+03 -0.29541511437E+03 -0.82571427719E+02  0.11014563164E+04  0.95000000000E+03 0.  0.
   -2000013    1    1    2    0    0  0.46542226693E+03  0.29541511437E+03  0.32826221906E+02  0.10988473676E+04  0.95000000000E+03 0.  0.
<mgrwt>
<rscale>  0 0.21997413E+04</rscale>
<asrwt>0</asrwt>
<pdfrwt beam="2">  1        2 0.17308068E+00 0.21997413E+04</pdfrwt>
<pdfrwt beam="1">  1       -2 0.16542758E+00 0.21997413E+04</pdfrwt>
<totfact> 0.44180832E+00</totfact>
</mgrwt>
</event>
<event>
 4    1  0.2043502E-008  0.2635614E+04  0.7816531E-02  0.8356204E-01
         -2   -1    0    0    0  501 -0.00000000000E+00  0.00000000000E+00  0.75970945698E+03  0.75970945698E+03  0.00000000000E+00 0. -1.
          2   -1    0    0  501    0  0.00000000000E+00 -0.00000000000E+00 -0.22858934840E+04  0.22858934840E+04  0.00000000000E+00 0.  1.
    2000013    1    1    2    0    0 -0.83439610437E+03 -0.33910531578E+03 -0.58820297790E+03  0.14351627146E+04  0.95000000000E+03 0.  0.
   -2000013    1    1    2    0    0  0.83439610437E+03  0.33910531578E+03 -0.93798104911E+03  0.16104402264E+04  0.95000000000E+03 0.  0.
<mgrwt>
<rscale>  0 0.26356137E+04</rscale>
<asrwt>0</asrwt>
<pdfrwt beam="2">  1        2 0.35167592E+00 0.26356137E+04</pdfrwt>
<pdfrwt beam="1">  1       -2 0.11687838E+00 0.26356137E+04</pdfrwt>
<totfact> 0.23078574E+00</totfact>
</mgrwt>
</event>
<event>
 4    1  0.2043502E-008  0.2089321E+04  0.7816531E-02  0.8565962E-01
         -1   -1    0    0    0  501 -0.00000000000E+00  0.00000000000E+00  0.78596006681E+03  0.78596006681E+03  0.00000000000E+00 0.  1.
          1   -1    0    0  501    0  0.00000000000E+00 -0.00000000000E+00 -0.13885127888E+04  0.13885127888E+04  0.00000000000E+00 0. -1.
    2000013    1    1    2    0    0  0.25167373508E+03 -0.33411497059E+03 -0.42372834672E+03  0.11211682275E+04  0.95000000000E+03 0.  0.
   -2000013    1    1    2    0    0 -0.25167373508E+03  0.33411497059E+03 -0.17882437531E+03  0.10533046282E+04  0.95000000000E+03 0.  0.
<mgrwt>
<rscale>  0 0.20893210E+04</rscale>
<asrwt>0</asrwt>
<pdfrwt beam="2">  1        1 0.21361735E+00 0.20893210E+04</pdfrwt>
<pdfrwt beam="1">  1       -1 0.12091693E+00 0.20893210E+04</pdfrwt>
<totfact> 0.43780784E+00</totfact>
</mgrwt>
</event>
<event>
 4    1  0.2043502E-008  0.2276461E+04  0.7816531E-02  0.8487261E-01
          2   -1    0    0  501    0  0.00000000000E+00  0.00000000000E+00  0.24309871834E+04  0.24309871834E+04  0.00000000000E+00 0.  1.
         -2   -1    0    0    0  501 -0.00000000000E+00 -0.00000000000E+00 -0.53293923785E+03  0.53293923785E+03  0.00000000000E+00 0. -1.
    2000013    1    1    2    0    0  0.37946778156E+03 -0.41681135472E+03  0.13063978446E+04  0.17108193450E+04  0.95000000000E+03 0.  0.
   -2000013    1    1    2    0    0 -0.37946778156E+03  0.41681135472E+03  0.59165010090E+03  0.12531070763E+04  0.95000000000E+03 0.  0.
<mgrwt>
<rscale>  0 0.22764608E+04</rscale>
<asrwt>0</asrwt>
<pdfrwt beam="1">  1        2 0.37399802E+00 0.22764608E+04</pdfrwt>
<pdfrwt beam="2">  1       -2 0.81990654E-01 0.22764608E+04</pdfrwt>
<totfact> 0.45324027E+00</totfact>
</mgrwt>
</event>
<event>
 4    1  0.2043502E-008  0.2668008E+04  0.7816531E-02  0.8345460E-01
          1   -1    0    0  501    0  0.00000000000E+00  0.00000000000E+00  0.89721334011E+03  0.89721334011E+03  0.00000000000E+00 0. -1.
         -1   -1    0    0    0  501 -0.00000000000E+00 -0.00000000000E+00 -0.19834378215E+04  0.19834378215E+04  0.00000000000E+00 0.  1.
    2000013    1    1    2    0    0 -0.86762257604E+03  0.32833954075E+03 -0.68176487427E+03  0.14926081643E+04  0.95000000000E+03 0.  0.
   -2000013    1    1    2    0    0  0.86762257604E+03 -0.32833954075E+03 -0.40445960712E+03  0.13880429973E+04  0.95000000000E+03 0.  0.
<mgrwt>
<rscale>  0 0.26680082E+04</rscale>
<asrwt>0</asrwt>
<pdfrwt beam="1">  1        1 0.13803282E+00 0.26680082E+04</pdfrwt>
<pdfrwt beam="2">  1       -1 0.30514428E+00 0.26680082E+04</pdfrwt>
<totfact> 0.48979362E-01</totfact>
</mgrwt>
</event>
<event>
 4    1  0.2043502E-008  0.3399486E+04  0.7816531E-02  0.8138032E-01
          2   -1    0    0  501    0  0.00000000000E+00  0.00000000000E+00  0.27051446580E+04  0.27051446580E+04  0.00000000000E+00 0.  1.
         -2   -1    0    0    0  501 -0.00000000000E+00 -0.00000000000E+00 -0.10680119548E+04  0.10680119548E+04  0.00000000000E+00 0. -1.
    2000013    1    1    2    0    0  0.54647278572E+03 -0.12973519348E+04  0.89604069788E+03  0.19201936050E+04  0.95000000000E+03 0.  0.
   -2000013    1    1    2    0    0 -0.54647278572E+03  0.12973519348E+04  0.74109200527E+03  0.18529630079E+04  0.95000000000E+03 0.  0.
<mgrwt>
<rscale>  0 0.33994863E+04</rscale>
<asrwt>0</asrwt>
<pdfrwt beam="1">  1        2 0.41617610E+00 0.33994863E+04</pdfrwt>
<pdfrwt beam="2">  1       -2 0.16430953E+00 0.33994863E+04</pdfrwt>
<totfact> 0.51145733E-01</totfact>
</mgrwt>
</event>
<event>
 4    1  0.2043502E-008  0.2556830E+04  0.7816531E-02  0.8383015E-01
          1   -1    0    0  501    0  0.00000000000E+00  0.00000000000E+00  0.12827372167E+04  0.12827372167E+04  0.00000000000E+00 0.  1.
         -1   -1    0    0    0  501 -0.00000000000E+00 -0.00000000000E+00 -0.12741070933E+04  0.12741070933E+04  0.00000000000E+00 0. -1.
    2000013    1    1    2    0    0 -0.58155649255E+03 -0.49589136270E+03 -0.38004163724E+03  0.12771248348E+04  0.95000000000E+03 0.  0.
   -2000013    1    1    2    0    0  0.58155649255E+03  0.49589136270E+03  0.38867176063E+03  0.12797194752E+04  0.95000000000E+03 0.  0.
<mgrwt>
<rscale>  0 0.25568297E+04</rscale>
<asrwt>0</asrwt>
<pdfrwt beam="1">  1        1 0.19734419E+00 0.25568297E+04</pdfrwt>
<pdfrwt beam="2">  1       -1 0.19601648E+00 0.25568297E+04</pdfrwt>
<totfact> 0.13196631E+00</totfact>
</mgrwt>
</event>
<event>
 4    1  0.2043502E-008  0.2411623E+04  0.7816531E-02  0.8435165E-01
          2   -1    0    0  501    0  0.00000000000E+00  0.00000000000E+00  0.33619768705E+04  0.33619768705E+04  0.00000000000E+00 0.  1.
         -2   -1    0    0    0  501 -0.00000000000E+00 -0.00000000000E+00 -0.43247818255E+03  0.43247818255E+03  0.00000000000E+00 0. -1.
    2000013    1    1    2    0    0 -0.66405650352E+03 -0.51640363117E+02  0.19814484458E+04  0.22961436606E+04  0.95000000000E+03 0.  0.
   -2000013    1    1    2    0    0  0.66405650352E+03  0.51640363117E+02  0.94805024218E+03  0.14983113924E+04  0.95000000000E+03 0.  0.
<mgrwt>
<rscale>  0 0.24116232E+04</rscale>
<asrwt>0</asrwt>
<pdfrwt beam="1">  1        2 0.51722719E+00 0.24116232E+04</pdfrwt>
<pdfrwt beam="2">  1       -2 0.66535107E-01 0.24116232E+04</pdfrwt>
<totfact> 0.18897881E+00</totfact>
</mgrwt>
</event>
<event>
 4    1  0.2043502E-008  0.2401740E+04  0.7816531E-02  0.8438852E-01
         -2   -1    0    0    0  501 -0.00000000000E+00  0.00000000000E+00  0.14857876000E+04  0.14857876000E+04  0.00000000000E+00 0. -1.
          2   -1    0    0  501    0  0.00000000000E+00 -0.00000000000E+00 -0.97058913618E+03  0.97058913618E+03  0.00000000000E+00 0.  1.
    2000013    1    1    2    0    0  0.32899927369E+03 -0.54553204482E+03  0.63162830141E+03  0.13066369217E+04  0.95000000000E+03 0.  0.
   -2000013    1    1    2    0    0 -0.32899927369E+03  0.54553204482E+03 -0.11642983756E+03  0.11497398145E+04  0.95000000000E+03 0.  0.
<mgrwt>
<rscale>  0 0.24017405E+04</rscale>
<asrwt>0</asrwt>
<pdfrwt beam="2">  1        2 0.14932140E+00 0.24017405E+04</pdfrwt>
<pdfrwt beam="1">  1       -2 0.22858271E+00 0.24017405E+04</pdfrwt>
<totfact> 0.20645634E+00</totfact>
</mgrwt>
</event>
<event>
 4    1  0.2043502E-008  0.3615029E+04  0.7816531E-02  0.8087058E-01
         -2   -1    0    0    0  501 -0.00000000000E+00  0.00000000000E+00  0.19835900839E+04  0.19835900839E+04  0.00000000000E+00 0. -1.
          2   -1    0    0  501    0  0.00000000000E+00 -0.00000000000E+00 -0.16470688823E+04  0.16470688823E+04  0.00000000000E+00 0.  1.
    2000013    1    1    2    0    0  0.14305943872E+04 -0.31942411265E+01 -0.39809146875E+03  0.17628350239E+04  0.95000000000E+03 0.  0.
   -2000013    1    1    2    0    0 -0.14305943872E+04  0.31942411265E+01  0.73461267040E+03  0.18678239423E+04  0.95000000000E+03 0.  0.
<mgrwt>
<rscale>  0 0.36150295E+04</rscale>
<asrwt>0</asrwt>
<pdfrwt beam="2">  1        2 0.25339521E+00 0.36150295E+04</pdfrwt>
<pdfrwt beam="1">  1       -2 0.30516770E+00 0.36150295E+04</pdfrwt>
<totfact> 0.25243995E-01</totfact>
</mgrwt>
</event>
<event>
 4    1  0.2043502E-008  0.2538535E+04  0.7816531E-02  0.8389385E-01
         -2   -1    0    0    0  501 -0.00000000000E+00  0.00000000000E+00  0.91439006282E+03  0.91439006282E+03  0.00000000000E+00 0. -1.
          2   -1    0    0  501    0  0.00000000000E+00 -0.00000000000E+00 -0.17618735892E+04  0.17618735892E+04  0.00000000000E+00 0.  1.
    2000013    1    1    2    0    0  0.54540075420E+03  0.39323626781E+03  0.11013518149E+03  0.11690707862E+04  0.95000000000E+03 0.  0.
   -2000013    1    1    2    0    0 -0.54540075420E+03 -0.39323626781E+03 -0.95761870782E+03  0.15071928657E+04  0.95000000000E+03 0.  0.
<mgrwt>
<rscale>  0 0.25385348E+04</rscale>
<asrwt>0</asrwt>
<pdfrwt beam="2">  1        2 0.27105747E+00 0.25385348E+04</pdfrwt>
<pdfrwt beam="1">  1       -2 0.14067540E+00 0.25385348E+04</pdfrwt>
<totfact> 0.28573379E+00</totfact>
</mgrwt>
</event>
<event>
 4    1  0.2043502E-008  0.2413423E+04  0.7816531E-02  0.8434495E-01
         -2   -1    0    0    0  501 -0.00000000000E+00  0.00000000000E+00  0.10990986139E+04  0.10990986139E+04  0.00000000000E+00 0. -1.
          2   -1    0    0  501    0  0.00000000000E+00 -0.00000000000E+00 -0.13248611554E+04  0.13248611554E+04  0.00000000000E+00 0.  1.
    2000013    1    1    2    0    0 -0.91059188884E+02 -0.73325549698E+03 -0.24761927068E+02  0.12037726333E+04  0.95000000000E+03 0.  0.
   -2000013    1    1    2    0    0  0.91059188884E+02  0.73325549698E+03 -0.20100061450E+03  0.12201871360E+04  0.95000000000E+03 0.  0.
<mgrwt>
<rscale>  0 0.24134233E+04</rscale>
<asrwt>0</asrwt>
<pdfrwt beam="2">  1        2 0.20382479E+00 0.24134233E+04</pdfrwt>
<pdfrwt beam="1">  1       -2 0.16909210E+00 0.24134233E+04</pdfrwt>
<totfact> 0.31073815E+00</totfact>
</mgrwt>
</event>
<event>
 4    1  0.2043502E-008  0.2867133E+04  0.7816531E-02  0.8282724E-01
          1   -1    0    0  501    0  0.00000000000E+00  0.00000000000E+00  0.20098037875E+04  0.20098037875E+04  0.00000000000E+00 0.  1.
         -1   -1    0    0    0  501 -0.00000000000E+00 -0.00000000000E+00 -0.10225436975E+04  0.10225436975E+04  0.00000000000E+00 0. -1.
    2000013    1    1    2    0    0 -0.57212839802E+03 -0.77494251033E+03 -0.77610387250E+01  0.13529327522E+04  0.95000000000E+03 0.  0.
   -2000013    1    1    2    0    0  0.57212839802E+03  0.77494251033E+03  0.99502112874E+03  0.16794147328E+04  0.95000000000E+03 0.  0.
<mgrwt>
<rscale>  0 0.28671325E+04</rscale>
<asrwt>0</asrwt>
<pdfrwt beam="1">  1        1 0.30920058E+00 0.28671325E+04</pdfrwt>
<pdfrwt beam="2">  1       -1 0.15731442E+00 0.28671325E+04</pdfrwt>
<totfact> 0.77376970E-01</totfact>
</mgrwt>
</event>
<event>
 4    1  0.2043502E-008  0.2109594E+04  0.7816531E-02  0.8557029E-01
          2   -1    0    0  501    0  0.00000000000E+00  0.00000000000E+00  0.13742607410E+04  0.13742607410E+04  0.00000000000E+00 0.  1.
         -2   -1    0    0    0  501 -0.00000000000E+00 -0.00000000000E+00 -0.80959635202E+03  0.80959635202E+03  0.00000000000E+00 0. -1.
    2000013    1    1    2    0    0  0.19880063972E+02 -0.37770810256E+03  0.14300943436E+02  0.10226256131E+04  0.95000000000E+03 0.  0.
   -2000013    1    1    2    0    0 -0.19880063972E+02  0.37770810256E+03  0.55036344556E+03  0.11612314799E+04  0.95000000000E+03 0.  0.
<mgrwt>
<rscale>  0 0.21095938E+04</rscale>
<asrwt>0</asrwt>
<pdfrwt beam="1">  1        2 0.21142473E+00 0.21095938E+04</pdfrwt>
<pdfrwt beam="2">  1       -2 0.12455329E+00 0.21095938E+04</pdfrwt>
<totfact> 0.66711777E+00</totfact>
</mgrwt>
</event>
<event>
 4    1  0.2043502E-008  0.2733463E+04  0.7816531E-02  0.8324228E-01
          2   -1    0    0  501    0  0.00000000000E+00  0.00000000000E+00  0.14953969334E+04  0.14953969334E+04  0.00000000000E+00 0.  1.
         -2   -1    0    0    0  501 -0.00000000000E+00 -0.00000000000E+00 -0.12491366478E+04  0.12491366478E+04  0.00000000000E+00 0. -1.
    2000013    1    1    2    0    0 -0.37176111676E+03  0.71673984772E+03  0.68533786797E+03  0.14227123147E+04  0.95000000000E+03 0.  0.
   -2000013    1    1    2    0    0  0.37176111676E+03 -0.71673984772E+03 -0.43907758238E+03  0.13218212665E+04  0.95000000000E+03 0.  0.
<mgrwt>
<rscale>  0 0.27334631E+04</rscale>
<asrwt>0</asrwt>
<pdfrwt beam="1">  1        2 0.23006107E+00 0.27334631E+04</pdfrwt>
<pdfrwt beam="2">  1       -2 0.19217487E+00 0.27334631E+04</pdfrwt>
<totfact> 0.16748227E+00</totfact>
</mgrwt>
</event>
<event>
 4    1  0.2043502E-008  0.2233352E+04  0.7816531E-02  0.8504673E-01
          2   -1    0    0  501    0  0.00000000000E+00  0.00000000000E+00  0.11315469932E+04  0.11315469932E+04  0.00000000000E+00 0.  1.
         -2   -1    0    0    0  501 -0.00000000000E+00 -0.00000000000E+00 -0.11020002682E+04  0.11020002682E+04  0.00000000000E+00 0. -1.
    2000013    1    1    2    0    0 -0.45461626525E+03  0.29928372832E+03 -0.20483271845E+03  0.11138685475E+04  0.95000000000E+03 0.  0.
   -2000013    1    1    2    0    0  0.45461626525E+03 -0.29928372832E+03  0.23437944352E+03  0.11196787138E+04  0.95000000000E+03 0.  0.
<mgrwt>
<rscale>  0 0.22333518E+04</rscale>
<asrwt>0</asrwt>
<pdfrwt beam="1">  1        2 0.17408415E+00 0.22333518E+04</pdfrwt>
<pdfrwt beam="2">  1       -2 0.16953850E+00 0.22333518E+04</pdfrwt>
<totfact> 0.40784955E+00</totfact>
</mgrwt>
</event>
<event>
 4    1  0.2043502E-008  0.3262661E+04  0.7816531E-02  0.8172462E-01
          4   -1    0    0  501    0  0.00000000000E+00  0.00000000000E+00  0.32591323536E+04  0.32591323536E+04  0.00000000000E+00 0.  1.
         -4   -1    0    0    0  501 -0.00000000000E+00 -0.00000000000E+00 -0.81654836452E+03  0.81654836452E+03  0.00000000000E+00 0. -1.
    2000013    1    1    2    0    0 -0.59260208438E+03 -0.11124170355E+04  0.17364826528E+04  0.23465977276E+04  0.95000000000E+03 0.  0.
   -2000013    1    1    2    0    0  0.59260208438E+03  0.11124170355E+04  0.70610133628E+03  0.17290829906E+04  0.95000000000E+03 0.  0.
<mgrwt>
<rscale>  0 0.32626610E+04</rscale>
<asrwt>0</asrwt>
<pdfrwt beam="1">  1        4 0.50140497E+00 0.32626610E+04</pdfrwt>
<pdfrwt beam="2">  1       -4 0.12562283E+00 0.32626610E+04</pdfrwt>
<totfact> 0.91825533E-04</totfact>
</mgrwt>
</event>
<event>
 4    1  0.2043502E-008  0.3550598E+04  0.7816531E-02  0.8101903E-01
         -2   -1    0    0    0  501 -0.00000000000E+00  0.00000000000E+00  0.10830199631E+04  0.10830199631E+04  0.00000000000E+00 0. -1.
          2   -1    0    0  501    0  0.00000000000E+00 -0.00000000000E+00 -0.29100902690E+04  0.29100902690E+04  0.00000000000E+00 0.  1.
    2000013    1    1    2    0    0  0.76039420786E+03 -0.11575726600E+04 -0.26649424570E+03  0.17004978675E+04  0.95000000000E+03 0.  0.
   -2000013    1    1    2    0    0 -0.76039420786E+03  0.11575726600E+04 -0.15605760602E+04  0.22926123646E+04  0.95000000000E+03 0.  0.
<mgrwt>
<rscale>  0 0.35505976E+04</rscale>
<asrwt>0</asrwt>
<pdfrwt beam="2">  1        2 0.44770618E+00 0.35505976E+04</pdfrwt>
<pdfrwt beam="1">  1       -2 0.16661846E+00 0.35505976E+04</pdfrwt>
<totfact> 0.36503420E-01</totfact>
</mgrwt>
</event>
<event>
 4    1  0.2043502E-008  0.2896535E+04  0.7816531E-02  0.8273909E-01
         -2   -1    0    0    0  501 -0.00000000000E+00  0.00000000000E+00  0.80998442732E+03  0.80998442732E+03  0.00000000000E+00 0. -1.
          2   -1    0    0  501    0  0.00000000000E+00 -0.00000000000E+00 -0.25895294049E+04  0.25895294049E+04  0.00000000000E+00 0.  1.
    2000013    1    1    2    0    0 -0.17553787592E+03  0.92816169803E+03 -0.15354720653E+04  0.20377615530E+04  0.95000000000E+03 0.  0.
   -2000013    1    1    2    0    0  0.17553787592E+03 -0.92816169803E+03 -0.24407291234E+03  0.13617522793E+04  0.95000000000E+03 0.  0.
<mgrwt>
<rscale>  0 0.28965348E+04</rscale>
<asrwt>0</asrwt>
<pdfrwt beam="2">  1        2 0.39838913E+00 0.28965348E+04</pdfrwt>
<pdfrwt beam="1">  1       -2 0.12461299E+00 0.28965348E+04</pdfrwt>
<totfact> 0.12873026E+00</totfact>
</mgrwt>
</event>
<event>
 4    1  0.2043502E-008  0.2697263E+04  0.7816531E-02  0.8335893E-01
         -2   -1    0    0    0  501 -0.00000000000E+00  0.00000000000E+00  0.13707570301E+04  0.13707570301E+04  0.00000000000E+00 0. -1.
          2   -1    0    0  501    0  0.00000000000E+00 -0.00000000000E+00 -0.13268634663E+04  0.13268634663E+04  0.00000000000E+00 0.  1.
    2000013    1    1    2    0    0  0.59406680171E+03  0.75008410681E+03  0.49625204451E+02  0.13492606098E+04  0.95000000000E+03 0.  0.
   -2000013    1    1    2    0    0 -0.59406680171E+03 -0.75008410681E+03 -0.57316406253E+01  0.13483598866E+04  0.95000000000E+03 0.  0.
<mgrwt>
<rscale>  0 0.26972634E+04</rscale>
<asrwt>0</asrwt>
<pdfrwt beam="2">  1        2 0.20413284E+00 0.26972634E+04</pdfrwt>
<pdfrwt beam="1">  1       -2 0.21088570E+00 0.26972634E+04</pdfrwt>
<totfact> 0.15814938E+00</totfact>
</mgrwt>
</event>
<event>
 4    1  0.2043502E-008  0.2645086E+04  0.7816531E-02  0.8353046E-01
          1   -1    0    0  501    0  0.00000000000E+00  0.00000000000E+00  0.12522399073E+04  0.12522399073E+04  0.00000000000E+00 0.  1.
         -1   -1    0    0    0  501 -0.00000000000E+00 -0.00000000000E+00 -0.13967931758E+04  0.13967931758E+04  0.00000000000E+00 0. -1.
    2000013    1    1    2    0    0 -0.87626912691E+03 -0.19865518699E+02 -0.35265498278E+03  0.13398163152E+04  0.95000000000E+03 0.  0.
   -2000013    1    1    2    0    0  0.87626912691E+03  0.19865518699E+02  0.20810171428E+03  0.13092167678E+04  0.95000000000E+03 0.  0.
<mgrwt>
<rscale>  0 0.26450861E+04</rscale>
<asrwt>0</asrwt>
<pdfrwt beam="1">  1        1 0.19265229E+00 0.26450861E+04</pdfrwt>
<pdfrwt beam="2">  1       -1 0.21489126E+00 0.26450861E+04</pdfrwt>
<totfact> 0.10230929E+00</totfact>
</mgrwt>
</event>
<event>
 4    1  0.2043502E-008  0.2514484E+04  0.7816531E-02  0.8397844E-01
          2   -1    0    0  501    0  0.00000000000E+00  0.00000000000E+00  0.82083139656E+03  0.82083139656E+03  0.00000000000E+00 0.  1.
         -2   -1    0    0    0  501 -0.00000000000E+00 -0.00000000000E+00 -0.19256779327E+04  0.19256779327E+04  0.00000000000E+00 0. -1.
    2000013    1    1    2    0    0  0.38280446426E+03  0.57419156282E+03 -0.10432449861E+04  0.15706989876E+04  0.95000000000E+03 0.  0.
   -2000013    1    1    2    0    0 -0.38280446426E+03 -0.57419156282E+03 -0.61601550104E+02  0.11758103417E+04  0.95000000000E+03 0.  0.
<mgrwt>
<rscale>  0 0.25144836E+04</rscale>
<asrwt>0</asrwt>
<pdfrwt beam="1">  1        2 0.12628175E+00 0.25144836E+04</pdfrwt>
<pdfrwt beam="2">  1       -2 0.29625814E+00 0.25144836E+04</pdfrwt>
<totfact> 0.99340878E-01</totfact>
</mgrwt>
</event>
<event>
 4    1  0.2043502E-008  0.2207040E+04  0.7816531E-02  0.8515504E-01
         -2   -1    0    0    0  501 -0.00000000000E+00  0.00000000000E+00  0.68755037622E+03  0.68755037622E+03  0.00000000000E+00 0. -1.
          2   -1    0    0  501    0  0.00000000000E+00 -0.00000000000E+00 -0.17711521134E+04  0.17711521134E+04  0.00000000000E+00 0.  1.
    2000013    1    1    2    0    0  0.48190034265E+03 -0.23227297841E+03 -0.35183513925E+03  0.11456293650E+04  0.95000000000E+03 0.  0.
   -2000013    1    1    2    0    0 -0.48190034265E+03  0.23227297841E+03 -0.73176659794E+03  0.13130731246E+04  0.95000000000E+03 0.  0.
<mgrwt>
<rscale>  0 0.22070399E+04</rscale>
<asrwt>0</asrwt>
<pdfrwt beam="2">  1        2 0.27248494E+00 0.22070399E+04</pdfrwt>
<pdfrwt beam="1">  1       -2 0.10577698E+00 0.22070399E+04</pdfrwt>
<totfact> 0.59066207E+00</totfact>
</mgrwt>
</event>
<event>
 4    1  0.2043502E-008  0.3541576E+04  0.7816531E-02  0.8104007E-01
         -2   -1    0    0    0  501 -0.00000000000E+00  0.00000000000E+00  0.11873721716E+04  0.11873721716E+04  0.00000000000E+00 0. -1.
          2   -1    0    0  501    0  0.00000000000E+00 -0.00000000000E+00 -0.26408653322E+04  0.26408653322E+04  0.00000000000E+00 0.  1.
    2000013    1    1    2    0    0 -0.38745329431E+03 -0.10915839111E+04 -0.17473723418E+04  0.23016267272E+04  0.95000000000E+03 0.  0.
   -2000013    1    1    2    0    0  0.38745329431E+03  0.10915839111E+04  0.29387918117E+03  0.15266107766E+04  0.95000000000E+03 0.  0.
<mgrwt>
<rscale>  0 0.35415759E+04</rscale>
<asrwt>0</asrwt>
<pdfrwt beam="2">  1        2 0.40628697E+00 0.35415759E+04</pdfrwt>
<pdfrwt beam="1">  1       -2 0.18267264E+00 0.35415759E+04</pdfrwt>
<totfact> 0.40968946E-01</totfact>
</mgrwt>
</event>
<event>
 4    1  0.2043502E-008  0.2984556E+04  0.7816531E-02  0.8248155E-01
         -1   -1    0    0    0  501 -0.00000000000E+00  0.00000000000E+00  0.71312210994E+03  0.71312210994E+03  0.00000000000E+00 0. -1.
          1   -1    0    0  501    0  0.00000000000E+00 -0.00000000000E+00 -0.31227377572E+04  0.31227377572E+04  0.00000000000E+00 0.  1.
    2000013    1    1    2    0    0 -0.45553565230E+03  0.10439311863E+04 -0.99327693555E+03  0.17850501738E+04  0.95000000000E+03 0.  0.
   -2000013    1    1    2    0    0  0.45553565230E+03 -0.10439311863E+04 -0.14163387117E+04  0.20508096934E+04  0.95000000000E+03 0.  0.
<mgrwt>
<rscale>  0 0.29845558E+04</rscale>
<asrwt>0</asrwt>
<pdfrwt beam="2">  1        1 0.48042119E+00 0.29845558E+04</pdfrwt>
<pdfrwt beam="1">  1       -1 0.10971110E+00 0.29845558E+04</pdfrwt>
<totfact> 0.31743794E-01</totfact>
</mgrwt>
</event>
<event>
 4    1  0.2043502E-008  0.2710195E+04  0.7816531E-02  0.8331705E-01
         -2   -1    0    0    0  501 -0.00000000000E+00  0.00000000000E+00  0.73108573445E+03  0.73108573445E+03  0.00000000000E+00 0. -1.
          2   -1    0    0  501    0  0.00000000000E+00 -0.00000000000E+00 -0.25117290058E+04  0.25117290058E+04  0.00000000000E+00 0.  1.
    2000013    1    1    2    0    0  0.72925110376E+03 -0.53967694859E+03 -0.49216318181E+03  0.14027768813E+04  0.95000000000E+03 0.  0.
   -2000013    1    1    2    0    0 -0.72925110376E+03  0.53967694859E+03 -0.12884800895E+04  0.18400378589E+04  0.95000000000E+03 0.  0.
<mgrwt>
<rscale>  0 0.27101950E+04</rscale>
<asrwt>0</asrwt>
<pdfrwt beam="2">  1        2 0.38641985E+00 0.27101950E+04</pdfrwt>
<pdfrwt beam="1">  1       -2 0.11247473E+00 0.27101950E+04</pdfrwt>
<totfact> 0.18693824E+00</totfact>
</mgrwt>
</event>
<event>
 4    1  0.2043502E-008  0.3321690E+04  0.7816531E-02  0.8157398E-01
         -2   -1    0    0    0  501 -0.00000000000E+00  0.00000000000E+00  0.12826248832E+04  0.12826248832E+04  0.00000000000E+00 0. -1.
          2   -1    0    0  501    0  0.00000000000E+00 -0.00000000000E+00 -0.21505943608E+04  0.21505943608E+04  0.00000000000E+00 0.  1.
    2000013    1    1    2    0    0 -0.68570156353E+03  0.11313806682E+04 -0.77001142614E+03  0.18015622240E+04  0.95000000000E+03 0.  0.
   -2000013    1    1    2    0    0  0.68570156353E+03 -0.11313806682E+04 -0.97958051463E+02  0.16316570199E+04  0.95000000000E+03 0.  0.
<mgrwt>
<rscale>  0 0.33216898E+04</rscale>
<asrwt>0</asrwt>
<pdfrwt beam="2">  1        2 0.33086067E+00 0.33216898E+04</pdfrwt>
<pdfrwt beam="1">  1       -2 0.19732691E+00 0.33216898E+04</pdfrwt>
<totfact> 0.63570026E-01</totfact>
</mgrwt>
</event>
<event>
 4    1  0.2043502E-008  0.2858632E+04  0.7816531E-02  0.8285293E-01
          2   -1    0    0  501    0  0.00000000000E+00  0.00000000000E+00  0.33205743487E+04  0.33205743487E+04  0.00000000000E+00 0.  1.
         -2   -1    0    0    0  501 -0.00000000000E+00 -0.00000000000E+00 -0.61523825772E+03  0.61523825772E+03  0.00000000000E+00 0. -1.
    2000013    1    1    2    0    0  0.33698737830E+03  0.99501973332E+03  0.10884784184E+04  0.17863118513E+04  0.95000000000E+03 0.  0.
   -2000013    1    1    2    0    0 -0.33698737830E+03 -0.99501973332E+03  0.16168576726E+04  0.21495007551E+04  0.95000000000E+03 0.  0.
<mgrwt>
<rscale>  0 0.28586321E+04</rscale>
<asrwt>0</asrwt>
<pdfrwt beam="1">  1        2 0.51085758E+00 0.28586321E+04</pdfrwt>
<pdfrwt beam="2">  1       -2 0.94652042E-01 0.28586321E+04</pdfrwt>
<totfact> 0.87804515E-01</totfact>
</mgrwt>
</event>
<event>
 4    1  0.2043502E-008  0.2553578E+04  0.7816531E-02  0.8384143E-01
          1   -1    0    0  501    0  0.00000000000E+00  0.00000000000E+00  0.12381425791E+04  0.12381425791E+04  0.00000000000E+00 0.  1.
         -1   -1    0    0    0  501 -0.00000000000E+00 -0.00000000000E+00 -0.13166414849E+04  0.13166414849E+04  0.00000000000E+00 0. -1.
    2000013    1    1    2    0    0  0.61799777308E+03  0.45944308375E+03  0.32791258439E+03  0.12661105235E+04  0.95000000000E+03 0.  0.
   -2000013    1    1    2    0    0 -0.61799777308E+03 -0.45944308375E+03 -0.40641149018E+03  0.12886735405E+04  0.95000000000E+03 0.  0.
<mgrwt>
<rscale>  0 0.25535778E+04</rscale>
<asrwt>0</asrwt>
<pdfrwt beam="1">  1        1 0.19048347E+00 0.25535778E+04</pdfrwt>
<pdfrwt beam="2">  1       -1 0.20256023E+00 0.25535778E+04</pdfrwt>
<totfact> 0.12809202E+00</totfact>
</mgrwt>
</event>
<event>
 4    1  0.2043502E-008  0.2106215E+04  0.7816531E-02  0.8558511E-01
          1   -1    0    0  501    0  0.00000000000E+00  0.00000000000E+00  0.14558569141E+04  0.14558569141E+04  0.00000000000E+00 0. -1.
         -1   -1    0    0    0  501 -0.00000000000E+00 -0.00000000000E+00 -0.76177475212E+03  0.76177475212E+03  0.00000000000E+00 0.  1.
    2000013    1    1    2    0    0  0.26443950262E+03  0.30477594504E+03  0.12689093523E+03  0.10399124659E+04  0.95000000000E+03 0.  0.
   -2000013    1    1    2    0    0 -0.26443950262E+03 -0.30477594504E+03  0.56719122677E+03  0.11777192004E+04  0.95000000000E+03 0.  0.
<mgrwt>
<rscale>  0 0.21062147E+04</rscale>
<asrwt>0</asrwt>
<pdfrwt beam="1">  1        1 0.22397799E+00 0.21062147E+04</pdfrwt>
<pdfrwt beam="2">  1       -1 0.11719612E+00 0.21062147E+04</pdfrwt>
<totfact> 0.42323556E+00</totfact>
</mgrwt>
</event>
<event>
 4    1  0.2043502E-008  0.2214315E+04  0.7816531E-02  0.8512493E-01
         -2   -1    0    0    0  501 -0.00000000000E+00  0.00000000000E+00  0.35550151053E+03  0.35550151053E+03  0.00000000000E+00 0. -1.
          2   -1    0    0  501    0  0.00000000000E+00 -0.00000000000E+00 -0.34480805786E+04  0.34480805786E+04  0.00000000000E+00 0.  1.
    2000013    1    1    2    0    0 -0.34677413940E+03 -0.41609339814E+03 -0.18433705451E+04  0.21433387474E+04  0.95000000000E+03 0.  0.
   -2000013    1    1    2    0    0  0.34677413940E+03  0.41609339814E+03 -0.12492085230E+04  0.16602433417E+04  0.95000000000E+03 0.  0.
<mgrwt>
<rscale>  0 0.22143151E+04</rscale>
<asrwt>0</asrwt>
<pdfrwt beam="2">  1        2 0.53047392E+00 0.22143151E+04</pdfrwt>
<pdfrwt beam="1">  1       -2 0.54692541E-01 0.22143151E+04</pdfrwt>
<totfact> 0.25450670E+00</totfact>
</mgrwt>
</event>
<event>
 4    1  0.2043502E-008  0.2117253E+04  0.7816531E-02  0.8553681E-01
          2   -1    0    0  501    0  0.00000000000E+00  0.00000000000E+00  0.10474368378E+04  0.10474368378E+04  0.00000000000E+00 0.  1.
         -2   -1    0    0    0  501 -0.00000000000E+00 -0.00000000000E+00 -0.10699361102E+04  0.10699361102E+04  0.00000000000E+00 0. -1.
    2000013    1    1    2    0    0 -0.45393810071E+03 -0.42009067827E+02 -0.11306861981E+03  0.10597684058E+04  0.95000000000E+03 0.  0.
   -2000013    1    1    2    0    0  0.45393810071E+03  0.42009067827E+02  0.90569347436E+02  0.10576045422E+04  0.95000000000E+03 0.  0.
<mgrwt>
<rscale>  0 0.21172534E+04</rscale>
<asrwt>0</asrwt>
<pdfrwt beam="1">  1        2 0.16114413E+00 0.21172534E+04</pdfrwt>
<pdfrwt beam="2">  1       -2 0.16460556E+00 0.21172534E+04</pdfrwt>
<totfact> 0.50384338E+00</totfact>
</mgrwt>
</event>
<event>
 4    1  0.2043502E-008  0.3183203E+04  0.7816531E-02  0.8193267E-01
          2   -1    0    0  501    0  0.00000000000E+00  0.00000000000E+00  0.19299245123E+04  0.19299245123E+04  0.00000000000E+00 0. -1.
         -2   -1    0    0    0  501 -0.00000000000E+00 -0.00000000000E+00 -0.13125880329E+04  0.13125880329E+04  0.00000000000E+00 0.  1.
    2000013    1    1    2    0    0  0.62047031353E+03  0.73977999433E+03  0.11599654468E+04  0.17833333081E+04  0.95000000000E+03 0.  0.
   -2000013    1    1    2    0    0 -0.62047031353E+03 -0.73977999433E+03 -0.54262896737E+03  0.14591792372E+04  0.95000000000E+03 0.  0.
<mgrwt>
<rscale>  0 0.31832033E+04</rscale>
<asrwt>0</asrwt>
<pdfrwt beam="1">  1        2 0.29691146E+00 0.31832033E+04</pdfrwt>
<pdfrwt beam="2">  1       -2 0.20193662E+00 0.31832033E+04</pdfrwt>
<totfact> 0.79607474E-01</totfact>
</mgrwt>
</event>
<event>
 4    1  0.2043502E-008  0.2306791E+04  0.7816531E-02  0.8475248E-01
          2   -1    0    0  501    0  0.00000000000E+00  0.00000000000E+00  0.76853953930E+03  0.76853953930E+03  0.00000000000E+00 0.  1.
         -2   -1    0    0    0  501 -0.00000000000E+00 -0.00000000000E+00 -0.17309737098E+04  0.17309737098E+04  0.00000000000E+00 0. -1.
    2000013    1    1    2    0    0 -0.64488095458E+03 -0.95051426709E+02 -0.42271046890E+03  0.12272287317E+04  0.95000000000E+03 0.  0.
   -2000013    1    1    2    0    0  0.64488095458E+03  0.95051426709E+02 -0.53972370163E+03  0.12722845175E+04  0.95000000000E+03 0.  0.
<mgrwt>
<rscale>  0 0.23067915E+04</rscale>
<asrwt>0</asrwt>
<pdfrwt beam="1">  1        2 0.11823685E+00 0.23067915E+04</pdfrwt>
<pdfrwt beam="2">  1       -2 0.26630364E+00 0.23067915E+04</pdfrwt>
<totfact> 0.16802926E+00</totfact>
</mgrwt>
</event>
<event>
 4    1  0.2043502E-008  0.3380809E+04  0.7816531E-02  0.8142633E-01
         -2   -1    0    0    0  501 -0.00000000000E+00  0.00000000000E+00  0.27020981925E+04  0.27020981925E+04  0.00000000000E+00 0. -1.
          2   -1    0    0  501    0  0.00000000000E+00 -0.00000000000E+00 -0.10574992019E+04  0.10574992019E+04  0.00000000000E+00 0.  1.
    2000013    1    1    2    0    0  0.12808246232E+04 -0.53444918255E+03  0.10110814577E+04  0.19623795143E+04  0.95000000000E+03 0.  0.
   -2000013    1    1    2    0    0 -0.12808246232E+04  0.53444918255E+03  0.63351753295E+03  0.17972178801E+04  0.95000000000E+03 0.  0.
<mgrwt>
<rscale>  0 0.33808086E+04</rscale>
<asrwt>0</asrwt>
<pdfrwt beam="2">  1        2 0.16269219E+00 0.33808086E+04</pdfrwt>
<pdfrwt beam="1">  1       -2 0.41570741E+00 0.33808086E+04</pdfrwt>
<totfact> 0.11232985E-01</totfact>
</mgrwt>
</event>
<event>
 4    1  0.2043502E-008  0.3934711E+04  0.7816531E-02  0.8017849E-01
          2   -1    0    0  501    0  0.00000000000E+00  0.00000000000E+00  0.21277271458E+04  0.21277271458E+04  0.00000000000E+00 0.  1.
         -2   -1    0    0    0  501 -0.00000000000E+00 -0.00000000000E+00 -0.18190710424E+04  0.18190710424E+04  0.00000000000E+00 0. -1.
    2000013    1    1    2    0    0 -0.75789471910E+03  0.10791646886E+04  0.12663301227E+04  0.20603623007E+04  0.95000000000E+03 0.  0.
   -2000013    1    1    2    0    0  0.75789471910E+03 -0.10791646886E+04 -0.95767401934E+03  0.18864358875E+04  0.95000000000E+03 0.  0.
<mgrwt>
<rscale>  0 0.39347106E+04</rscale>
<asrwt>0</asrwt>
<pdfrwt beam="1">  1        2 0.32734264E+00 0.39347106E+04</pdfrwt>
<pdfrwt beam="2">  1       -2 0.27985708E+00 0.39347106E+04</pdfrwt>
<totfact> 0.18974186E-01</totfact>
</mgrwt>
</event>
<event>
 4    1  0.2043502E-008  0.3429553E+04  0.7816531E-02  0.8130691E-01
         -2   -1    0    0    0  501 -0.00000000000E+00  0.00000000000E+00  0.25036385923E+04  0.25036385923E+04  0.00000000000E+00 0. -1.
          2   -1    0    0  501    0  0.00000000000E+00 -0.00000000000E+00 -0.11744742131E+04  0.11744742131E+04  0.00000000000E+00 0.  1.
    2000013    1    1    2    0    0 -0.10067820170E+04  0.64267857565E+03 -0.17394928496E+03  0.15360351998E+04  0.95000000000E+03 0.  0.
   -2000013    1    1    2    0    0  0.10067820170E+04 -0.64267857565E+03  0.15031136641E+04  0.21420776056E+04  0.95000000000E+03 0.  0.
<mgrwt>
<rscale>  0 0.34295533E+04</rscale>
<asrwt>0</asrwt>
<pdfrwt beam="2">  1        2 0.18068834E+00 0.34295533E+04</pdfrwt>
<pdfrwt beam="1">  1       -2 0.38517516E+00 0.34295533E+04</pdfrwt>
<totfact> 0.15020550E-01</totfact>
</mgrwt>
</event>
<event>
 4    1  0.2043502E-008  0.2415293E+04  0.7816531E-02  0.8433800E-01
         -2   -1    0    0    0  501 -0.00000000000E+00  0.00000000000E+00  0.60430428982E+03  0.60430428982E+03  0.00000000000E+00 0.  1.
          2   -1    0    0  501    0  0.00000000000E+00 -0.00000000000E+00 -0.24133711600E+04  0.24133711600E+04  0.00000000000E+00 0. -1.
    2000013    1    1    2    0    0 -0.70315518772E+03 -0.20549741378E+03 -0.73116712866E+03  0.14049063225E+04  0.95000000000E+03 0.  0.
   -2000013    1    1    2    0    0  0.70315518772E+03  0.20549741378E+03 -0.10778997415E+04  0.16127691273E+04  0.95000000000E+03 0.  0.
<mgrwt>
<rscale>  0 0.24152934E+04</rscale>
<asrwt>0</asrwt>
<pdfrwt beam="2">  1        2 0.37128786E+00 0.24152934E+04</pdfrwt>
<pdfrwt beam="1">  1       -2 0.92969892E-01 0.24152934E+04</pdfrwt>
<totfact> 0.34378695E+00</totfact>
</mgrwt>
</event>
<event>
 4    1  0.2043502E-008  0.2009346E+04  0.7816531E-02  0.8602263E-01
          2   -1    0    0  501    0  0.00000000000E+00  0.00000000000E+00  0.42213375930E+04  0.42213375930E+04  0.00000000000E+00 0.  1.
         -2   -1    0    0    0  501 -0.00000000000E+00 -0.00000000000E+00 -0.23911093161E+03  0.23911093161E+03  0.00000000000E+00 0. -1.
    2000013    1    1    2    0    0  0.10492285896E+03  0.23420540036E+03  0.15415895036E+04  0.18288956158E+04  0.95000000000E+03 0.  0.
   -2000013    1    1    2    0    0 -0.10492285896E+03 -0.23420540036E+03  0.24406371578E+04  0.26315529088E+04  0.95000000000E+03 0.  0.
<mgrwt>
<rscale>  0 0.20093461E+04</rscale>
<asrwt>0</asrwt>
<pdfrwt beam="1">  1        2 0.64943650E+00 0.20093461E+04</pdfrwt>
<pdfrwt beam="2">  1       -2 0.36786300E-01 0.20093461E+04</pdfrwt>
<totfact> 0.14584251E+00</totfact>
</mgrwt>
</event>
<event>
 4    1  0.2043502E-008  0.2348726E+04  0.7816531E-02  0.8458953E-01
         -2   -1    0    0    0  501 -0.00000000000E+00  0.00000000000E+00  0.44237044146E+03  0.44237044146E+03  0.00000000000E+00 0. -1.
          2   -1    0    0  501    0  0.00000000000E+00 -0.00000000000E+00 -0.31175863515E+04  0.31175863515E+04  0.00000000000E+00 0.  1.
    2000013    1    1    2    0    0  0.41495032032E+03  0.41444411807E+03 -0.18897054139E+04  0.21948654279E+04  0.95000000000E+03 0.  0.
   -2000013    1    1    2    0    0 -0.41495032032E+03 -0.41444411807E+03 -0.78551049612E+03  0.13650913650E+04  0.95000000000E+03 0.  0.
<mgrwt>
<rscale>  0 0.23487257E+04</rscale>
<asrwt>0</asrwt>
<pdfrwt beam="2">  1        2 0.47962866E+00 0.23487257E+04</pdfrwt>
<pdfrwt beam="1">  1       -2 0.68056992E-01 0.23487257E+04</pdfrwt>
<totfact> 0.26196100E+00</totfact>
</mgrwt>
</event>
<event>
 4    1  0.2043502E-008  0.2898125E+04  0.7816531E-02  0.8273435E-01
          2   -1    0    0  501    0  0.00000000000E+00  0.00000000000E+00  0.15313552821E+04  0.15313552821E+04  0.00000000000E+00 0.  1.
         -2   -1    0    0    0  501 -0.00000000000E+00 -0.00000000000E+00 -0.13711922201E+04  0.13711922201E+04  0.00000000000E+00 0. -1.
    2000013    1    1    2    0    0  0.10470976362E+04 -0.15309534200E+03 -0.19860698845E+03  0.14358956715E+04  0.95000000000E+03 0.  0.
   -2000013    1    1    2    0    0 -0.10470976362E+04  0.15309534200E+03  0.35877005046E+03  0.14666518307E+04  0.95000000000E+03 0.  0.
<mgrwt>
<rscale>  0 0.28981252E+04</rscale>
<asrwt>0</asrwt>
<pdfrwt beam="1">  1        2 0.23559312E+00 0.28981252E+04</pdfrwt>
<pdfrwt beam="2">  1       -2 0.21095265E+00 0.28981252E+04</pdfrwt>
<totfact> 0.11878271E+00</totfact>
</mgrwt>
</event>
<event>
 4    1  0.2043502E-008  0.2770269E+04  0.7816531E-02  0.8312559E-01
         -2   -1    0    0    0  501 -0.00000000000E+00  0.00000000000E+00  0.53213318944E+03  0.53213318944E+03  0.00000000000E+00 0. -1.
          2   -1    0    0  501    0  0.00000000000E+00 -0.00000000000E+00 -0.36054832041E+04  0.36054832041E+04  0.00000000000E+00 0.  1.
    2000013    1    1    2    0    0  0.40545760328E+03 -0.91934550174E+03 -0.16571399156E+04  0.21582874506E+04  0.95000000000E+03 0.  0.
   -2000013    1    1    2    0    0 -0.40545760328E+03  0.91934550174E+03 -0.14162100990E+04  0.19793289429E+04  0.95000000000E+03 0.  0.
<mgrwt>
<rscale>  0 0.27702688E+04</rscale>
<asrwt>0</asrwt>
<pdfrwt beam="2">  1        2 0.55468973E+00 0.27702688E+04</pdfrwt>
<pdfrwt beam="1">  1       -2 0.81866643E-01 0.27702688E+04</pdfrwt>
<totfact> 0.78314012E-01</totfact>
</mgrwt>
</event>
<event>
 4    1  0.2043502E-008  0.2726245E+04  0.7816531E-02  0.8326539E-01
          2   -1    0    0  501    0  0.00000000000E+00  0.00000000000E+00  0.11396956118E+04  0.11396956118E+04  0.00000000000E+00 0.  1.
         -2   -1    0    0    0  501 -0.00000000000E+00 -0.00000000000E+00 -0.16303501349E+04  0.16303501349E+04  0.00000000000E+00 0. -1.
    2000013    1    1    2    0    0 -0.28720166847E+03 -0.36891625755E+03  0.62696370649E+03  0.12305151331E+04  0.95000000000E+03 0.  0.
   -2000013    1    1    2    0    0  0.28720166847E+03  0.36891625755E+03 -0.11176182296E+04  0.15395306137E+04  0.95000000000E+03 0.  0.
<mgrwt>
<rscale>  0 0.27262450E+04</rscale>
<asrwt>0</asrwt>
<pdfrwt beam="1">  1        2 0.17533779E+00 0.27262450E+04</pdfrwt>
<pdfrwt beam="2">  1       -2 0.25082310E+00 0.27262450E+04</pdfrwt>
<totfact> 0.11452593E+00</totfact>
</mgrwt>
</event>
<event>
 4    1  0.2043502E-008  0.2071854E+04  0.7816531E-02  0.8573744E-01
         -1   -1    0    0    0  501 -0.00000000000E+00  0.00000000000E+00  0.73804128025E+03  0.73804128025E+03  0.00000000000E+00 0. -1.
          1   -1    0    0  501    0  0.00000000000E+00 -0.00000000000E+00 -0.14540438300E+04  0.14540438300E+04  0.00000000000E+00 0.  1.
    2000013    1    1    2    0    0 -0.27462267398E+03  0.19681723322E+03 -0.10653305719E+03  0.10139052858E+04  0.95000000000E+03 0.  0.
   -2000013    1    1    2    0    0  0.27462267398E+03 -0.19681723322E+03 -0.60946949258E+03  0.11781798245E+04  0.95000000000E+03 0.  0.
<mgrwt>
<rscale>  0 0.20718536E+04</rscale>
<asrwt>0</asrwt>
<pdfrwt beam="2">  1        1 0.22369905E+00 0.20718536E+04</pdfrwt>
<pdfrwt beam="1">  1       -1 0.11354481E+00 0.20718536E+04</pdfrwt>
<totfact> 0.45941032E+00</totfact>
</mgrwt>
</event>
<event>
 4    1  0.2043502E-008  0.2355696E+04  0.7816531E-02  0.8456279E-01
          1   -1    0    0  501    0  0.00000000000E+00  0.00000000000E+00  0.12092957171E+04  0.12092957171E+04  0.00000000000E+00 0.  1.
         -1   -1    0    0    0  501 -0.00000000000E+00 -0.00000000000E+00 -0.11472180222E+04  0.11472180222E+04  0.00000000000E+00 0. -1.
    2000013    1    1    2    0    0  0.50242593505E+03 -0.44069237744E+03  0.22651458941E+03  0.11834062916E+04  0.95000000000E+03 0.  0.
   -2000013    1    1    2    0    0 -0.50242593505E+03  0.44069237744E+03 -0.16443689450E+03  0.11731074478E+04  0.95000000000E+03 0.  0.
<mgrwt>
<rscale>  0 0.23556959E+04</rscale>
<asrwt>0</asrwt>
<pdfrwt beam="1">  1        1 0.18604549E+00 0.23556959E+04</pdfrwt>
<pdfrwt beam="2">  1       -1 0.17649508E+00 0.23556959E+04</pdfrwt>
<totfact> 0.20876585E+00</totfact>
</mgrwt>
</event>
<event>
 4    1  0.2043502E-008  0.2339476E+04  0.7816531E-02  0.8462517E-01
         -2   -1    0    0    0  501 -0.00000000000E+00  0.00000000000E+00  0.55915465560E+03  0.55915465560E+03  0.00000000000E+00 0. -1.
          2   -1    0    0  501    0  0.00000000000E+00 -0.00000000000E+00 -0.24470638084E+04  0.24470638084E+04  0.00000000000E+00 0.  1.
    2000013    1    1    2    0    0  0.78813476180E+02  0.65816416309E+03 -0.11527239550E+04  0.16342166766E+04  0.95000000000E+03 0.  0.
   -2000013    1    1    2    0    0 -0.78813476180E+02 -0.65816416309E+03 -0.73518519783E+03  0.13720017874E+04  0.95000000000E+03 0.  0.
<mgrwt>
<rscale>  0 0.23394761E+04</rscale>
<asrwt>0</asrwt>
<pdfrwt beam="2">  1        2 0.37647135E+00 0.23394761E+04</pdfrwt>
<pdfrwt beam="1">  1       -2 0.86023794E-01 0.23394761E+04</pdfrwt>
<totfact> 0.39572898E+00</totfact>
</mgrwt>
</event>
<event>
 4    1  0.2043502E-008  0.3374859E+04  0.7816531E-02  0.8144104E-01
         -1   -1    0    0    0  501 -0.00000000000E+00  0.00000000000E+00  0.87890653025E+03  0.87890653025E+03  0.00000000000E+00 0.  1.
          1   -1    0    0  501    0  0.00000000000E+00 -0.00000000000E+00 -0.32397291486E+04  0.32397291486E+04  0.00000000000E+00 0. -1.
    2000013    1    1    2    0    0 -0.76481395848E+02  0.13738616713E+04 -0.14575596541E+04  0.22181806601E+04  0.95000000000E+03 0.  0.
   -2000013    1    1    2    0    0  0.76481395848E+02 -0.13738616713E+04 -0.90326296423E+03  0.19004550187E+04  0.95000000000E+03 0.  0.
<mgrwt>
<rscale>  0 0.33748595E+04</rscale>
<asrwt>0</asrwt>
<pdfrwt beam="2">  1        1 0.49841986E+00 0.33748595E+04</pdfrwt>
<pdfrwt beam="1">  1       -1 0.13521639E+00 0.33748595E+04</pdfrwt>
<totfact> 0.14990031E-01</totfact>
</mgrwt>
</event>
<event>
 4    1  0.2043502E-008  0.2108242E+04  0.7816531E-02  0.8557621E-01
         -2   -1    0    0    0  501 -0.00000000000E+00  0.00000000000E+00  0.16530362512E+04  0.16530362512E+04  0.00000000000E+00 0. -1.
          2   -1    0    0  501    0  0.00000000000E+00 -0.00000000000E+00 -0.67219990111E+03  0.67219990111E+03  0.00000000000E+00 0.  1.
    2000013    1    1    2    0    0 -0.25458468222E+02 -0.45111935754E+03  0.56451971900E+03  0.11938757563E+04  0.95000000000E+03 0.  0.
   -2000013    1    1    2    0    0  0.25458468222E+02  0.45111935754E+03  0.41631663110E+03  0.11313603960E+04  0.95000000000E+03 0.  0.
<mgrwt>
<rscale>  0 0.21082417E+04</rscale>
<asrwt>0</asrwt>
<pdfrwt beam="2">  1        2 0.10341537E+00 0.21082417E+04</pdfrwt>
<pdfrwt beam="1">  1       -2 0.25431327E+00 0.21082417E+04</pdfrwt>
<totfact> 0.24003862E+00</totfact>
</mgrwt>
</event>
<event>
 4    1  0.2043502E-008  0.2284024E+04  0.7816531E-02  0.8484247E-01
          1   -1    0    0  501    0  0.00000000000E+00  0.00000000000E+00  0.17491694345E+04  0.17491694345E+04  0.00000000000E+00 0.  1.
         -1   -1    0    0    0  501 -0.00000000000E+00 -0.00000000000E+00 -0.74560626438E+03  0.74560626438E+03  0.00000000000E+00 0. -1.
    2000013    1    1    2    0    0  0.23271850923E+03 -0.51751583916E+03  0.19339867372E+03  0.11233359227E+04  0.95000000000E+03 0.  0.
   -2000013    1    1    2    0    0 -0.23271850923E+03  0.51751583916E+03  0.81016449638E+03  0.13714397761E+04  0.95000000000E+03 0.  0.
<mgrwt>
<rscale>  0 0.22840242E+04</rscale>
<asrwt>0</asrwt>
<pdfrwt beam="1">  1        1 0.26910299E+00 0.22840242E+04</pdfrwt>
<pdfrwt beam="2">  1       -1 0.11470866E+00 0.22840242E+04</pdfrwt>
<totfact> 0.27574892E+00</totfact>
</mgrwt>
</event>
<event>
 4    1  0.2043502E-008  0.2001542E+04  0.7816531E-02  0.8605900E-01
          2   -1    0    0  501    0  0.00000000000E+00  0.00000000000E+00  0.16143555683E+04  0.16143555683E+04  0.00000000000E+00 0.  1.
         -2   -1    0    0    0  501 -0.00000000000E+00 -0.00000000000E+00 -0.62039781889E+03  0.62039781889E+03  0.00000000000E+00 0. -1.
    2000013    1    1    2    0    0 -0.12832495917E+03 -0.27993790448E+03  0.56942473240E+03  0.11495986480E+04  0.95000000000E+03 0.  0.
   -2000013    1    1    2    0    0  0.12832495917E+03  0.27993790448E+03  0.42453301698E+03  0.10851547392E+04  0.95000000000E+03 0.  0.
<mgrwt>
<rscale>  0 0.20015421E+04</rscale>
<asrwt>0</asrwt>
<pdfrwt beam="1">  1        2 0.24836239E+00 0.20015421E+04</pdfrwt>
<pdfrwt beam="2">  1       -2 0.95445819E-01 0.20015421E+04</pdfrwt>
<totfact> 0.93753374E+00</totfact>
</mgrwt>
</event>
<event>
 4    1  0.2043502E-008  0.3093868E+04  0.7816531E-02  0.8217423E-01
          2   -1    0    0  501    0  0.00000000000E+00  0.00000000000E+00  0.63938621088E+03  0.63938621088E+03  0.00000000000E+00 0.  1.
         -2   -1    0    0    0  501 -0.00000000000E+00 -0.00000000000E+00 -0.37426596522E+04  0.37426596522E+04  0.00000000000E+00 0. -1.
    2000013    1    1    2    0    0 -0.40369468033E+03 -0.60503649765E+03 -0.29404446315E+04  0.31745477141E+04  0.95000000000E+03 0.  0.
   -2000013    1    1    2    0    0  0.40369468033E+03  0.60503649765E+03 -0.16282880984E+03  0.12074981490E+04  0.95000000000E+03 0.  0.
<mgrwt>
<rscale>  0 0.30938681E+04</rscale>
<asrwt>0</asrwt>
<pdfrwt beam="1">  1        2 0.98367110E-01 0.30938681E+04</pdfrwt>
<pdfrwt beam="2">  1       -2 0.57579379E+00 0.30938681E+04</pdfrwt>
<totfact> 0.24763378E-02</totfact>
</mgrwt>
</event>
<event>
 4    1  0.2043502E-008  0.2547141E+04  0.7816531E-02  0.8386381E-01
         -2   -1    0    0    0  501 -0.00000000000E+00  0.00000000000E+00  0.15113710075E+04  0.15113710075E+04  0.00000000000E+00 0. -1.
          2   -1    0    0  501    0  0.00000000000E+00 -0.00000000000E+00 -0.10731857347E+04  0.10731857347E+04  0.00000000000E+00 0.  1.
    2000013    1    1    2    0    0  0.65231123056E+03 -0.27002346300E+03 -0.25798315196E+03  0.12113950300E+04  0.95000000000E+03 0.  0.
   -2000013    1    1    2    0    0 -0.65231123056E+03  0.27002346300E+03  0.69616842478E+03  0.13731617122E+04  0.95000000000E+03 0.  0.
<mgrwt>
<rscale>  0 0.25471410E+04</rscale>
<asrwt>0</asrwt>
<pdfrwt beam="2">  1        2 0.16510550E+00 0.25471410E+04</pdfrwt>
<pdfrwt beam="1">  1       -2 0.23251862E+00 0.25471410E+04</pdfrwt>
<totfact> 0.16581149E+00</totfact>
</mgrwt>
</event>
<event>
 4    1  0.2043502E-008  0.2192598E+04  0.7816531E-02  0.8521516E-01
          2   -1    0    0  501    0  0.00000000000E+00  0.00000000000E+00  0.16627797764E+04  0.16627797764E+04  0.00000000000E+00 0.  1.
         -2   -1    0    0    0  501 -0.00000000000E+00 -0.00000000000E+00 -0.72280826111E+03  0.72280826111E+03  0.00000000000E+00 0. -1.
    2000013    1    1    2    0    0 -0.18711675691E+03 -0.47883366723E+03  0.26621340488E+03  0.11125034555E+04  0.95000000000E+03 0.  0.
   -2000013    1    1    2    0    0  0.18711675691E+03  0.47883366723E+03  0.67375811040E+03  0.12730845820E+04  0.95000000000E+03 0.  0.
<mgrwt>
<rscale>  0 0.21925975E+04</rscale>
<asrwt>0</asrwt>
<pdfrwt beam="1">  1        2 0.25581227E+00 0.21925975E+04</pdfrwt>
<pdfrwt beam="2">  1       -2 0.11120127E+00 0.21925975E+04</pdfrwt>
<totfact> 0.60210943E+00</totfact>
</mgrwt>
</event>
<event>
 4    1  0.2043502E-008  0.3308184E+04  0.7816531E-02  0.8160816E-01
         -2   -1    0    0    0  501 -0.00000000000E+00  0.00000000000E+00  0.95638020417E+03  0.95638020417E+03  0.00000000000E+00 0. -1.
          2   -1    0    0  501    0  0.00000000000E+00 -0.00000000000E+00 -0.28608088755E+04  0.28608088755E+04  0.00000000000E+00 0.  1.
    2000013    1    1    2    0    0  0.13285086887E+04 -0.12006476802E+03 -0.12207696509E+04  0.20425791111E+04  0.95000000000E+03 0.  0.
   -2000013    1    1    2    0    0 -0.13285086887E+04  0.12006476802E+03 -0.68365902037E+03  0.17746099686E+04  0.95000000000E+03 0.  0.
<mgrwt>
<rscale>  0 0.33081844E+04</rscale>
<asrwt>0</asrwt>
<pdfrwt beam="2">  1        2 0.44012444E+00 0.33081844E+04</pdfrwt>
<pdfrwt beam="1">  1       -2 0.14713542E+00 0.33081844E+04</pdfrwt>
<totfact> 0.55853116E-01</totfact>
</mgrwt>
</event>
<event>
 4    1  0.2043502E-008  0.2182111E+04  0.7816531E-02  0.8525911E-01
          2   -1    0    0  501    0  0.00000000000E+00  0.00000000000E+00  0.14322347740E+04  0.14322347740E+04  0.00000000000E+00 0.  1.
         -2   -1    0    0    0  501 -0.00000000000E+00 -0.00000000000E+00 -0.83115049081E+03  0.83115049081E+03  0.00000000000E+00 0. -1.
    2000013    1    1    2    0    0  0.37713856279E+03  0.22466097057E+03 -0.19488999775E+02  0.10467023781E+04  0.95000000000E+03 0.  0.
   -2000013    1    1    2    0    0 -0.37713856279E+03 -0.22466097057E+03  0.62057328299E+03  0.12166828867E+04  0.95000000000E+03 0.  0.
<mgrwt>
<rscale>  0 0.21821115E+04</rscale>
<asrwt>0</asrwt>
<pdfrwt beam="1">  1        2 0.22034381E+00 0.21821115E+04</pdfrwt>
<pdfrwt beam="2">  1       -2 0.12786931E+00 0.21821115E+04</pdfrwt>
<totfact> 0.57503012E+00</totfact>
</mgrwt>
</event>
<event>
 4    1  0.2043502E-008  0.2283412E+04  0.7816531E-02  0.8484490E-01
          3   -1    0    0  501    0  0.00000000000E+00  0.00000000000E+00  0.36681076922E+03  0.36681076922E+03  0.00000000000E+00 0.  1.
         -3   -1    0    0    0  501 -0.00000000000E+00 -0.00000000000E+00 -0.35535839133E+04  0.35535839133E+04  0.00000000000E+00 0. -1.
    2000013    1    1    2    0    0 -0.26318492124E+03 -0.54695420413E+03 -0.19032273997E+04  0.22120578064E+04  0.95000000000E+03 0.  0.
   -2000013    1    1    2    0    0  0.26318492124E+03  0.54695420413E+03 -0.12835457444E+04  0.17083368761E+04  0.95000000000E+03 0.  0.
<mgrwt>
<rscale>  0 0.22834122E+04</rscale>
<asrwt>0</asrwt>
<pdfrwt beam="1">  1        3 0.56432424E-01 0.22834122E+04</pdfrwt>
<pdfrwt beam="2">  1       -3 0.54670523E+00 0.22834122E+04</pdfrwt>
<totfact> 0.12668955E-02</totfact>
</mgrwt>
</event>
<event>
 4    1  0.2043502E-008  0.2173420E+04  0.7816531E-02  0.8529573E-01
          2   -1    0    0  501    0  0.00000000000E+00  0.00000000000E+00  0.18391555941E+04  0.18391555941E+04  0.00000000000E+00 0.  1.
         -2   -1    0    0    0  501 -0.00000000000E+00 -0.00000000000E+00 -0.64210910899E+03  0.64210910899E+03  0.00000000000E+00 0. -1.
    2000013    1    1    2    0    0 -0.20366713709E+03 -0.45541325355E+03  0.79479590517E+03  0.13353209596E+04  0.95000000000E+03 0.  0.
   -2000013    1    1    2    0    0  0.20366713709E+03  0.45541325355E+03  0.40225057998E+03  0.11459437435E+04  0.95000000000E+03 0.  0.
<mgrwt>
<rscale>  0 0.21734199E+04</rscale>
<asrwt>0</asrwt>
<pdfrwt beam="1">  1        2 0.28294701E+00 0.21734199E+04</pdfrwt>
<pdfrwt beam="2">  1       -2 0.98786017E-01 0.21734199E+04</pdfrwt>
<totfact> 0.63922555E+00</totfact>
</mgrwt>
</event>
<event>
 4    1  0.2043502E-008  0.2723802E+04  0.7816531E-02  0.8327323E-01
          1   -1    0    0  501    0  0.00000000000E+00  0.00000000000E+00  0.11982811315E+04  0.11982811315E+04  0.00000000000E+00 0. -1.
         -1   -1    0    0    0  501 -0.00000000000E+00 -0.00000000000E+00 -0.15478623981E+04  0.15478623981E+04  0.00000000000E+00 0.  1.
    2000013    1    1    2    0    0 -0.47922735718E+03 -0.50147474640E+03  0.51723472668E+03  0.12849776432E+04  0.95000000000E+03 0.  0.
   -2000013    1    1    2    0    0  0.47922735718E+03  0.50147474640E+03 -0.86681599328E+03  0.14611658863E+04  0.95000000000E+03 0.  0.
<mgrwt>
<rscale>  0 0.27238020E+04</rscale>
<asrwt>0</asrwt>
<pdfrwt beam="1">  1        1 0.18435095E+00 0.27238020E+04</pdfrwt>
<pdfrwt beam="2">  1       -1 0.23813267E+00 0.27238020E+04</pdfrwt>
<totfact> 0.77880442E-01</totfact>
</mgrwt>
</event>
<event>
 4    1  0.2043502E-008  0.2649191E+04  0.7816531E-02  0.8351682E-01
         -2   -1    0    0    0  501 -0.00000000000E+00  0.00000000000E+00  0.83299958287E+03  0.83299958287E+03  0.00000000000E+00 0. -1.
          2   -1    0    0  501    0  0.00000000000E+00 -0.00000000000E+00 -0.21063073982E+04  0.21063073982E+04  0.00000000000E+00 0.  1.
    2000013    1    1    2    0    0  0.35131876048E+03  0.63408746630E+03 -0.12706901816E+04  0.17443180111E+04  0.95000000000E+03 0.  0.
   -2000013    1    1    2    0    0 -0.35131876048E+03 -0.63408746630E+03 -0.26176337952E+01  0.11949889700E+04  0.95000000000E+03 0.  0.
<mgrwt>
<rscale>  0 0.26491910E+04</rscale>
<asrwt>0</asrwt>
<pdfrwt beam="2">  1        2 0.32404729E+00 0.26491910E+04</pdfrwt>
<pdfrwt beam="1">  1       -2 0.12815378E+00 0.26491910E+04</pdfrwt>
<totfact> 0.23120984E+00</totfact>
</mgrwt>
</event>
<event>
 4    1  0.2043502E-008  0.2106441E+04  0.7816531E-02  0.8558411E-01
          2   -1    0    0  501    0  0.00000000000E+00  0.00000000000E+00  0.15682809986E+04  0.15682809986E+04  0.00000000000E+00 0.  1.
         -2   -1    0    0    0  501 -0.00000000000E+00 -0.00000000000E+00 -0.70731818351E+03  0.70731818351E+03  0.00000000000E+00 0. -1.
    2000013    1    1    2    0    0 -0.32727363733E+03  0.28038226188E+03  0.58722403646E+03  0.11971024666E+04  0.95000000000E+03 0.  0.
   -2000013    1    1    2    0    0  0.32727363733E+03 -0.28038226188E+03  0.27373877860E+03  0.10784967155E+04  0.95000000000E+03 0.  0.
<mgrwt>
<rscale>  0 0.21064412E+04</rscale>
<asrwt>0</asrwt>
<pdfrwt beam="1">  1        2 0.24127400E+00 0.21064412E+04</pdfrwt>
<pdfrwt beam="2">  1       -2 0.10881818E+00 0.21064412E+04</pdfrwt>
<totfact> 0.72179408E+00</totfact>
</mgrwt>
</event>
<event>
 4    1  0.2043502E-008  0.3862726E+04  0.7816531E-02  0.8032827E-01
         -2   -1    0    0    0  501 -0.00000000000E+00  0.00000000000E+00  0.11286820565E+04  0.11286820565E+04  0.00000000000E+00 0. -1.
          2   -1    0    0  501    0  0.00000000000E+00 -0.00000000000E+00 -0.33048833291E+04  0.33048833291E+04  0.00000000000E+00 0.  1.
    2000013    1    1    2    0    0 -0.79791505239E+02 -0.16021118613E+04 -0.50902986430E+03  0.19325476717E+04  0.95000000000E+03 0.  0.
   -2000013    1    1    2    0    0  0.79791505239E+02  0.16021118613E+04 -0.16671714083E+04  0.25010177139E+04  0.95000000000E+03 0.  0.
<mgrwt>
<rscale>  0 0.38627257E+04</rscale>
<asrwt>0</asrwt>
<pdfrwt beam="2">  1        2 0.50844359E+00 0.38627257E+04</pdfrwt>
<pdfrwt beam="1">  1       -2 0.17364339E+00 0.38627257E+04</pdfrwt>
<totfact> 0.17689759E-01</totfact>
</mgrwt>
</event>
<event>
 4    1  0.2043502E-008  0.2957642E+04  0.7816531E-02  0.8255931E-01
         -2   -1    0    0    0  501 -0.00000000000E+00  0.00000000000E+00  0.13002510917E+04  0.13002510917E+04  0.00000000000E+00 0. -1.
          2   -1    0    0  501    0  0.00000000000E+00 -0.00000000000E+00 -0.16819152524E+04  0.16819152524E+04  0.00000000000E+00 0.  1.
    2000013    1    1    2    0    0 -0.23982454820E+03  0.97422265593E+03 -0.72225686421E+03  0.15590960763E+04  0.95000000000E+03 0.  0.
   -2000013    1    1    2    0    0  0.23982454820E+03 -0.97422265593E+03  0.34059270355E+03  0.14230702677E+04  0.95000000000E+03 0.  0.
<mgrwt>
<rscale>  0 0.29576424E+04</rscale>
<asrwt>0</asrwt>
<pdfrwt beam="2">  1        2 0.25875619E+00 0.29576424E+04</pdfrwt>
<pdfrwt beam="1">  1       -2 0.20003863E+00 0.29576424E+04</pdfrwt>
<totfact> 0.11461546E+00</totfact>
</mgrwt>
</event>
<event>
 4    1  0.2043502E-008  0.2197066E+04  0.7816531E-02  0.8519650E-01
          2   -1    0    0  501    0  0.00000000000E+00  0.00000000000E+00  0.16023541681E+04  0.16023541681E+04  0.00000000000E+00 0.  1.
         -2   -1    0    0    0  501 -0.00000000000E+00 -0.00000000000E+00 -0.75312643165E+03  0.75312643165E+03  0.00000000000E+00 0. -1.
    2000013    1    1    2    0    0 -0.96016522049E+02 -0.13800758079E+03  0.98786069260E+03  0.13808091877E+04  0.95000000000E+03 0.  0.
   -2000013    1    1    2    0    0  0.96016522049E+02  0.13800758079E+03 -0.13863295617E+03  0.97467141201E+03  0.95000000000E+03 0.  0.
<mgrwt>
<rscale>  0 0.21970665E+04</rscale>
<asrwt>0</asrwt>
<pdfrwt beam="1">  1        2 0.24651602E+00 0.21970665E+04</pdfrwt>
<pdfrwt beam="2">  1       -2 0.11586561E+00 0.21970665E+04</pdfrwt>
<totfact> 0.58855548E+00</totfact>
</mgrwt>
</event>
<event>
 4    1  0.2043502E-008  0.2356394E+04  0.7816531E-02  0.8456012E-01
         -2   -1    0    0    0  501 -0.00000000000E+00  0.00000000000E+00  0.77590233493E+03  0.77590233493E+03  0.00000000000E+00 0. -1.
          2   -1    0    0  501    0  0.00000000000E+00 -0.00000000000E+00 -0.17890756343E+04  0.17890756343E+04  0.00000000000E+00 0.  1.
    2000013    1    1    2    0    0  0.36945772393E+03  0.47178901750E+03 -0.89383625939E+03  0.14354536375E+04  0.95000000000E+03 0.  0.
   -2000013    1    1    2    0    0 -0.36945772393E+03 -0.47178901750E+03 -0.11933703994E+03  0.11295243317E+04  0.95000000000E+03 0.  0.
<mgrwt>
<rscale>  0 0.23563938E+04</rscale>
<asrwt>0</asrwt>
<pdfrwt beam="2">  1        2 0.27524240E+00 0.23563938E+04</pdfrwt>
<pdfrwt beam="1">  1       -2 0.11936959E+00 0.23563938E+04</pdfrwt>
<totfact> 0.42487155E+00</totfact>
</mgrwt>
</event>
<event>
 4    1  0.2043502E-008  0.2682459E+04  0.7816531E-02  0.8340719E-01
         -2   -1    0    0    0  501 -0.00000000000E+00  0.00000000000E+00  0.14578828172E+04  0.14578828172E+04  0.00000000000E+00 0. -1.
          2   -1    0    0  501    0  0.00000000000E+00 -0.00000000000E+00 -0.12339101828E+04  0.12339101828E+04  0.00000000000E+00 0.  1.
    2000013    1    1    2    0    0  0.87796778870E+03  0.40409282574E+01 -0.24358079600E+03  0.13163112745E+04  0.95000000000E+03 0.  0.
   -2000013    1    1    2    0    0 -0.87796778870E+03 -0.40409282574E+01  0.46755343044E+03  0.13754817256E+04  0.95000000000E+03 0.  0.
<mgrwt>
<rscale>  0 0.26824589E+04</rscale>
<asrwt>0</asrwt>
<pdfrwt beam="2">  1        2 0.18983234E+00 0.26824589E+04</pdfrwt>
<pdfrwt beam="1">  1       -2 0.22428966E+00 0.26824589E+04</pdfrwt>
<totfact> 0.14749128E+00</totfact>
</mgrwt>
</event>
<event>
 4    1  0.2043502E-008  0.2483012E+04  0.7816531E-02  0.8409063E-01
          1   -1    0    0  501    0  0.00000000000E+00  0.00000000000E+00  0.56103932520E+03  0.56103932520E+03  0.00000000000E+00 0. -1.
         -1   -1    0    0    0  501 -0.00000000000E+00 -0.00000000000E+00 -0.27472898398E+04  0.27472898398E+04  0.00000000000E+00 0.  1.
    2000013    1    1    2    0    0  0.50564766032E+01  0.72044175403E+03 -0.63200492338E+03  0.13494414074E+04  0.95000000000E+03 0.  0.
   -2000013    1    1    2    0    0 -0.50564766032E+01 -0.72044175403E+03 -0.15542455912E+04  0.19588877576E+04  0.95000000000E+03 0.  0.
<mgrwt>
<rscale>  0 0.24830124E+04</rscale>
<asrwt>0</asrwt>
<pdfrwt beam="1">  1        1 0.86313741E-01 0.24830124E+04</pdfrwt>
<pdfrwt beam="2">  1       -1 0.42265998E+00 0.24830124E+04</pdfrwt>
<totfact> 0.16767190E-01</totfact>
</mgrwt>
</event>
<event>
 4    1  0.2043502E-008  0.2991138E+04  0.7816531E-02  0.8246266E-01
         -2   -1    0    0    0  501 -0.00000000000E+00  0.00000000000E+00  0.11840290213E+04  0.11840290213E+04  0.00000000000E+00 0. -1.
          2   -1    0    0  501    0  0.00000000000E+00 -0.00000000000E+00 -0.18890814626E+04  0.18890814626E+04  0.00000000000E+00 0.  1.
    2000013    1    1    2    0    0  0.11334633838E+04 -0.14059766351E+03 -0.17540586495E+03  0.14959191699E+04  0.95000000000E+03 0.  0.
   -2000013    1    1    2    0    0 -0.11334633838E+04  0.14059766351E+03 -0.52964657635E+03  0.15771913141E+04  0.95000000000E+03 0.  0.
<mgrwt>
<rscale>  0 0.29911384E+04</rscale>
<asrwt>0</asrwt>
<pdfrwt beam="2">  1        2 0.29062791E+00 0.29911384E+04</pdfrwt>
<pdfrwt beam="1">  1       -2 0.18215832E+00 0.29911384E+04</pdfrwt>
<totfact> 0.11559425E+00</totfact>
</mgrwt>
</event>
<event>
 4    1  0.2043502E-008  0.3409933E+04  0.7816531E-02  0.8135473E-01
         -2   -1    0    0    0  501 -0.00000000000E+00  0.00000000000E+00  0.14803228463E+04  0.14803228463E+04  0.00000000000E+00 0. -1.
          2   -1    0    0  501    0  0.00000000000E+00 -0.00000000000E+00 -0.19637002954E+04  0.19637002954E+04  0.00000000000E+00 0.  1.
    2000013    1    1    2    0    0 -0.10279898082E+04  0.77013810818E+03 -0.84306956927E+03  0.18064169092E+04  0.95000000000E+03 0.  0.
   -2000013    1    1    2    0    0  0.10279898082E+04 -0.77013810818E+03  0.35969212009E+03  0.16376062325E+04  0.95000000000E+03 0.  0.
<mgrwt>
<rscale>  0 0.34099328E+04</rscale>
<asrwt>0</asrwt>
<pdfrwt beam="2">  1        2 0.30210774E+00 0.34099328E+04</pdfrwt>
<pdfrwt beam="1">  1       -2 0.22774198E+00 0.34099328E+04</pdfrwt>
<totfact> 0.51179964E-01</totfact>
</mgrwt>
</event>
<event>
 4    1  0.2043502E-008  0.2273718E+04  0.7816531E-02  0.8488356E-01
          2   -1    0    0  501    0  0.00000000000E+00  0.00000000000E+00  0.13457653590E+04  0.13457653590E+04  0.00000000000E+00 0.  1.
         -2   -1    0    0    0  501 -0.00000000000E+00 -0.00000000000E+00 -0.96038159915E+03  0.96038159915E+03  0.00000000000E+00 0. -1.
    2000013    1    1    2    0    0 -0.29899644258E+03 -0.20418807917E+03  0.70872794286E+03  0.12393090580E+04  0.95000000000E+03 0.  0.
   -2000013    1    1    2    0    0  0.29899644258E+03  0.20418807917E+03 -0.32334418303E+03  0.10668379001E+04  0.95000000000E+03 0.  0.
<mgrwt>
<rscale>  0 0.22737179E+04</rscale>
<asrwt>0</asrwt>
<pdfrwt beam="1">  1        2 0.20704083E+00 0.22737179E+04</pdfrwt>
<pdfrwt beam="2">  1       -2 0.14775101E+00 0.22737179E+04</pdfrwt>
<totfact> 0.44062719E+00</totfact>
</mgrwt>
</event>
<event>
 4    1  0.2043502E-008  0.2174632E+04  0.7816531E-02  0.8529062E-01
         -2   -1    0    0    0  501 -0.00000000000E+00  0.00000000000E+00  0.48182570153E+03  0.48182570153E+03  0.00000000000E+00 0. -1.
          2   -1    0    0  501    0  0.00000000000E+00 -0.00000000000E+00 -0.24537001230E+04  0.24537001230E+04  0.00000000000E+00 0.  1.
    2000013    1    1    2    0    0 -0.16386682974E+03 -0.41747386245E+03 -0.13644355667E+04  0.17220107954E+04  0.95000000000E+03 0.  0.
   -2000013    1    1    2    0    0  0.16386682974E+03  0.41747386245E+03 -0.60743885479E+03  0.12135150292E+04  0.95000000000E+03 0.  0.
<mgrwt>
<rscale>  0 0.21746317E+04</rscale>
<asrwt>0</asrwt>
<pdfrwt beam="2">  1        2 0.37749233E+00 0.21746317E+04</pdfrwt>
<pdfrwt beam="1">  1       -2 0.74127031E-01 0.21746317E+04</pdfrwt>
<totfact> 0.55582034E+00</totfact>
</mgrwt>
</event>
<event>
 4    1  0.2043502E-008  0.2977917E+04  0.7816531E-02  0.8250065E-01
          2   -1    0    0  501    0  0.00000000000E+00  0.00000000000E+00  0.29675986804E+04  0.29675986804E+04  0.00000000000E+00 0.  1.
         -2   -1    0    0    0  501 -0.00000000000E+00 -0.00000000000E+00 -0.74706763721E+03  0.74706763721E+03  0.00000000000E+00 0. -1.
    2000013    1    1    2    0    0 -0.55795650678E+03  0.93509423376E+03  0.66262242716E+03  0.15897437436E+04  0.95000000000E+03 0.  0.
   -2000013    1    1    2    0    0  0.55795650678E+03 -0.93509423376E+03  0.15579086160E+04  0.21249225740E+04  0.95000000000E+03 0.  0.
<mgrwt>
<rscale>  0 0.29779167E+04</rscale>
<asrwt>0</asrwt>
<pdfrwt beam="1">  1        2 0.45655364E+00 0.29779167E+04</pdfrwt>
<pdfrwt beam="2">  1       -2 0.11493348E+00 0.29779167E+04</pdfrwt>
<totfact> 0.92328020E-01</totfact>
</mgrwt>
</event>
<event>
 4    1  0.2043502E-008  0.3154551E+04  0.7816531E-02  0.8200924E-01
         -2   -1    0    0    0  501 -0.00000000000E+00  0.00000000000E+00  0.11195046732E+04  0.11195046732E+04  0.00000000000E+00 0. -1.
          2   -1    0    0  501    0  0.00000000000E+00 -0.00000000000E+00 -0.22222311500E+04  0.22222311500E+04  0.00000000000E+00 0.  1.
    2000013    1    1    2    0    0  0.25916042809E+03 -0.10342287795E+04 -0.12608072467E+04  0.19049745954E+04  0.95000000000E+03 0.  0.
   -2000013    1    1    2    0    0 -0.25916042809E+03  0.10342287795E+04  0.15808076987E+03  0.14367612278E+04  0.95000000000E+03 0.  0.
<mgrwt>
<rscale>  0 0.31545511E+04</rscale>
<asrwt>0</asrwt>
<pdfrwt beam="2">  1        2 0.34188171E+00 0.31545511E+04</pdfrwt>
<pdfrwt beam="1">  1       -2 0.17223149E+00 0.31545511E+04</pdfrwt>
<totfact> 0.87142829E-01</totfact>
</mgrwt>
</event>
<event>
 4    1  0.2043502E-008  0.2486848E+04  0.7816531E-02  0.8407686E-01
          2   -1    0    0  501    0  0.00000000000E+00  0.00000000000E+00  0.23099772735E+04  0.23099772735E+04  0.00000000000E+00 0.  1.
         -2   -1    0    0    0  501 -0.00000000000E+00 -0.00000000000E+00 -0.66931559673E+03  0.66931559673E+03  0.00000000000E+00 0. -1.
    2000013    1    1    2    0    0  0.32441942757E+03 -0.24932563563E+03 -0.63829617646E+01  0.10343848316E+04  0.95000000000E+03 0.  0.
   -2000013    1    1    2    0    0 -0.32441942757E+03  0.24932563563E+03  0.16470446386E+04  0.19449080387E+04  0.95000000000E+03 0.  0.
<mgrwt>
<rscale>  0 0.24868485E+04</rscale>
<asrwt>0</asrwt>
<pdfrwt beam="1">  1        2 0.35538112E+00 0.24868485E+04</pdfrwt>
<pdfrwt beam="2">  1       -2 0.10297163E+00 0.24868485E+04</pdfrwt>
<totfact> 0.30770543E+00</totfact>
</mgrwt>
</event>
<event>
 4    1  0.2043502E-008  0.2652606E+04  0.7816531E-02  0.8350549E-01
          2   -1    0    0  501    0  0.00000000000E+00  0.00000000000E+00  0.15872142743E+04  0.15872142743E+04  0.00000000000E+00 0.  1.
         -2   -1    0    0    0  501 -0.00000000000E+00 -0.00000000000E+00 -0.11082807393E+04  0.11082807393E+04  0.00000000000E+00 0. -1.
    2000013    1    1    2    0    0  0.74994995036E+03 -0.27404372051E+03 -0.23613293844E+03  0.12632433073E+04  0.95000000000E+03 0.  0.
   -2000013    1    1    2    0    0 -0.74994995036E+03  0.27404372051E+03  0.71506647344E+03  0.14322517063E+04  0.95000000000E+03 0.  0.
<mgrwt>
<rscale>  0 0.26526055E+04</rscale>
<asrwt>0</asrwt>
<pdfrwt beam="1">  1        2 0.24418681E+00 0.26526055E+04</pdfrwt>
<pdfrwt beam="2">  1       -2 0.17050473E+00 0.26526055E+04</pdfrwt>
<totfact> 0.21109828E+00</totfact>
</mgrwt>
</event>
<event>
 4    1  0.2043502E-008  0.2143641E+04  0.7816531E-02  0.8542259E-01
          1   -1    0    0  501    0  0.00000000000E+00  0.00000000000E+00  0.13652287103E+04  0.13652287103E+04  0.00000000000E+00 0.  1.
         -1   -1    0    0    0  501 -0.00000000000E+00 -0.00000000000E+00 -0.84146993646E+03  0.84146993646E+03  0.00000000000E+00 0. -1.
    2000013    1    1    2    0    0  0.34756660776E+03  0.22046127234E+03  0.54733263064E+03  0.11711015020E+04  0.95000000000E+03 0.  0.
   -2000013    1    1    2    0    0 -0.34756660776E+03 -0.22046127234E+03 -0.23573856826E+02  0.10355971447E+04  0.95000000000E+03 0.  0.
<mgrwt>
<rscale>  0 0.21436407E+04</rscale>
<asrwt>0</asrwt>
<pdfrwt beam="1">  1        1 0.21003518E+00 0.21436407E+04</pdfrwt>
<pdfrwt beam="2">  1       -1 0.12945691E+00 0.21436407E+04</pdfrwt>
<totfact> 0.38175255E+00</totfact>
</mgrwt>
</event>
<event>
 4    1  0.2043502E-008  0.2280833E+04  0.7816531E-02  0.8485517E-01
         -2   -1    0    0    0  501 -0.00000000000E+00  0.00000000000E+00  0.30130663815E+03  0.30130663815E+03  0.00000000000E+00 0. -1.
          2   -1    0    0  501    0  0.00000000000E+00 -0.00000000000E+00 -0.43163669390E+04  0.43163669390E+04  0.00000000000E+00 0.  1.
    2000013    1    1    2    0    0  0.39969589392E+03 -0.20015851474E+03 -0.29089230790E+04  0.30925965980E+04  0.95000000000E+03 0.  0.
   -2000013    1    1    2    0    0 -0.39969589392E+03  0.20015851474E+03 -0.11061372218E+04  0.15250769791E+04  0.95000000000E+03 0.  0.
<mgrwt>
<rscale>  0 0.22808332E+04</rscale>
<asrwt>0</asrwt>
<pdfrwt beam="2">  1        2 0.66405643E+00 0.22808332E+04</pdfrwt>
<pdfrwt beam="1">  1       -2 0.46354869E-01 0.22808332E+04</pdfrwt>
<totfact> 0.74069014E-01</totfact>
</mgrwt>
</event>
<event>
 4    1  0.2043502E-008  0.2314973E+04  0.7816531E-02  0.8472041E-01
          2   -1    0    0  501    0  0.00000000000E+00  0.00000000000E+00  0.19090189039E+04  0.19090189039E+04  0.00000000000E+00 0.  1.
         -2   -1    0    0    0  501 -0.00000000000E+00 -0.00000000000E+00 -0.70181346703E+03  0.70181346703E+03  0.00000000000E+00 0. -1.
    2000013    1    1    2    0    0 -0.34463118516E+03 -0.54433570819E+03  0.43555198578E+03  0.12277123235E+04  0.95000000000E+03 0.  0.
   -2000013    1    1    2    0    0  0.34463118516E+03  0.54433570819E+03  0.77165345109E+03  0.13831200474E+04  0.95000000000E+03 0.  0.
<mgrwt>
<rscale>  0 0.23149732E+04</rscale>
<asrwt>0</asrwt>
<pdfrwt beam="1">  1        2 0.29369521E+00 0.23149732E+04</pdfrwt>
<pdfrwt beam="2">  1       -2 0.10797130E+00 0.23149732E+04</pdfrwt>
<totfact> 0.46715297E+00</totfact>
</mgrwt>
</event>
<event>
 4    1  0.2043502E-008  0.2137775E+04  0.7816531E-02  0.8544783E-01
         -2   -1    0    0    0  501 -0.00000000000E+00  0.00000000000E+00  0.16768138897E+04  0.16768138897E+04  0.00000000000E+00 0. -1.
          2   -1    0    0  501    0  0.00000000000E+00 -0.00000000000E+00 -0.68136371939E+03  0.68136371939E+03  0.00000000000E+00 0.  1.
    2000013    1    1    2    0    0 -0.24470390634E+03 -0.36399405992E+03  0.73851542915E+03  0.12807328826E+04  0.95000000000E+03 0.  0.
   -2000013    1    1    2    0    0  0.24470390634E+03  0.36399405992E+03  0.25693474115E+03  0.10774447265E+04  0.95000000000E+03 0.  0.
<mgrwt>
<rscale>  0 0.21377747E+04</rscale>
<asrwt>0</asrwt>
<pdfrwt beam="2">  1        2 0.10482519E+00 0.21377747E+04</pdfrwt>
<pdfrwt beam="1">  1       -2 0.25797137E+00 0.21377747E+04</pdfrwt>
<totfact> 0.22358280E+00</totfact>
</mgrwt>
</event>
<event>
 4    1  0.2043502E-008  0.2868255E+04  0.7816531E-02  0.8282386E-01
         -2   -1    0    0    0  501 -0.00000000000E+00  0.00000000000E+00  0.86663982829E+03  0.86663982829E+03  0.00000000000E+00 0. -1.
          2   -1    0    0  501    0  0.00000000000E+00 -0.00000000000E+00 -0.23732133215E+04  0.23732133215E+04  0.00000000000E+00 0.  1.
    2000013    1    1    2    0    0 -0.10077950706E+04 -0.27327552429E+03 -0.10388002653E+04  0.17526940428E+04  0.95000000000E+03 0.  0.
   -2000013    1    1    2    0    0  0.10077950706E+04  0.27327552429E+03 -0.46777322788E+03  0.14871591069E+04  0.95000000000E+03 0.  0.
<mgrwt>
<rscale>  0 0.28682547E+04</rscale>
<asrwt>0</asrwt>
<pdfrwt beam="2">  1        2 0.36510974E+00 0.28682547E+04</pdfrwt>
<pdfrwt beam="1">  1       -2 0.13332920E+00 0.28682547E+04</pdfrwt>
<totfact> 0.14511555E+00</totfact>
</mgrwt>
</event>
<event>
 4    1  0.2043502E-008  0.2423098E+04  0.7816531E-02  0.8430906E-01
         -2   -1    0    0    0  501 -0.00000000000E+00  0.00000000000E+00  0.12788203376E+04  0.12788203376E+04  0.00000000000E+00 0. -1.
          2   -1    0    0  501    0  0.00000000000E+00 -0.00000000000E+00 -0.11478164400E+04  0.11478164400E+04  0.00000000000E+00 0.  1.
    2000013    1    1    2    0    0  0.70053244418E+03 -0.15582857393E+03 -0.15915300927E+03  0.12011902140E+04  0.95000000000E+03 0.  0.
   -2000013    1    1    2    0    0 -0.70053244418E+03  0.15582857393E+03  0.29015690691E+03  0.12254465637E+04  0.95000000000E+03 0.  0.
<mgrwt>
<rscale>  0 0.24230980E+04</rscale>
<asrwt>0</asrwt>
<pdfrwt beam="2">  1        2 0.17658714E+00 0.24230980E+04</pdfrwt>
<pdfrwt beam="1">  1       -2 0.19674159E+00 0.24230980E+04</pdfrwt>
<totfact> 0.25541193E+00</totfact>
</mgrwt>
</event>
<event>
 4    1  0.2043502E-008  0.2367167E+04  0.7816531E-02  0.8451899E-01
         -2   -1    0    0    0  501 -0.00000000000E+00  0.00000000000E+00  0.86908493588E+03  0.86908493588E+03  0.00000000000E+00 0. -1.
          2   -1    0    0  501    0  0.00000000000E+00 -0.00000000000E+00 -0.16118909113E+04  0.16118909113E+04  0.00000000000E+00 0.  1.
    2000013    1    1    2    0    0  0.41168037349E+03  0.57194051665E+03 -0.32726627385E+03  0.12272733593E+04  0.95000000000E+03 0.  0.
   -2000013    1    1    2    0    0 -0.41168037349E+03 -0.57194051665E+03 -0.41553970160E+03  0.12537024879E+04  0.95000000000E+03 0.  0.
<mgrwt>
<rscale>  0 0.23671672E+04</rscale>
<asrwt>0</asrwt>
<pdfrwt beam="2">  1        2 0.24798321E+00 0.23671672E+04</pdfrwt>
<pdfrwt beam="1">  1       -2 0.13370538E+00 0.23671672E+04</pdfrwt>
<totfact> 0.40045691E+00</totfact>
</mgrwt>
</event>
<event>
 4    1  0.2043502E-008  0.2284071E+04  0.7816531E-02  0.8484228E-01
         -2   -1    0    0    0  501 -0.00000000000E+00  0.00000000000E+00  0.86879405123E+03  0.86879405123E+03  0.00000000000E+00 0. -1.
          2   -1    0    0  501    0  0.00000000000E+00 -0.00000000000E+00 -0.15012132127E+04  0.15012132127E+04  0.00000000000E+00 0.  1.
    2000013    1    1    2    0    0 -0.52550855575E+03 -0.24821437667E+02 -0.68302074541E+03  0.12828845172E+04  0.95000000000E+03 0.  0.
   -2000013    1    1    2    0    0  0.52550855575E+03  0.24821437667E+02  0.50601583981E+02  0.10871227466E+04  0.95000000000E+03 0.  0.
<mgrwt>
<rscale>  0 0.22840710E+04</rscale>
<asrwt>0</asrwt>
<pdfrwt beam="2">  1        2 0.23095588E+00 0.22840710E+04</pdfrwt>
<pdfrwt beam="1">  1       -2 0.13366062E+00 0.22840710E+04</pdfrwt>
<totfact> 0.46568684E+00</totfact>
</mgrwt>
</event>
<event>
 4    1  0.2043502E-008  0.1988542E+04  0.7816531E-02  0.8611997E-01
          2   -1    0    0  501    0  0.00000000000E+00  0.00000000000E+00  0.15040979680E+04  0.15040979680E+04  0.00000000000E+00 0.  1.
         -2   -1    0    0    0  501 -0.00000000000E+00 -0.00000000000E+00 -0.65725400504E+03  0.65725400504E+03  0.00000000000E+00 0. -1.
    2000013    1    1    2    0    0 -0.22917574666E+03 -0.15992022064E+03  0.52050630135E+03  0.11187148026E+04  0.95000000000E+03 0.  0.
   -2000013    1    1    2    0    0  0.22917574666E+03  0.15992022064E+03  0.32633766163E+03  0.10426371705E+04  0.95000000000E+03 0.  0.
<mgrwt>
<rscale>  0 0.19885416E+04</rscale>
<asrwt>0</asrwt>
<pdfrwt beam="1">  1        2 0.23139969E+00 0.19885416E+04</pdfrwt>
<pdfrwt beam="2">  1       -2 0.10111600E+00 0.19885416E+04</pdfrwt>
<totfact> 0.94468231E+00</totfact>
</mgrwt>
</event>
<event>
 4    1  0.2043502E-008  0.3329504E+04  0.7816531E-02  0.8155429E-01
         -2   -1    0    0    0  501 -0.00000000000E+00  0.00000000000E+00  0.14390389834E+04  0.14390389834E+04  0.00000000000E+00 0. -1.
          2   -1    0    0  501    0  0.00000000000E+00 -0.00000000000E+00 -0.19258675543E+04  0.19258675543E+04  0.00000000000E+00 0.  1.
    2000013    1    1    2    0    0  0.13474157471E+04 -0.22017284918E+03 -0.17271901269E+03  0.16722252051E+04  0.95000000000E+03 0.  0.
   -2000013    1    1    2    0    0 -0.13474157471E+04  0.22017284918E+03 -0.31410955817E+03  0.16926813326E+04  0.95000000000E+03 0.  0.
<mgrwt>
<rscale>  0 0.33295036E+04</rscale>
<asrwt>0</asrwt>
<pdfrwt beam="2">  1        2 0.29628731E+00 0.33295036E+04</pdfrwt>
<pdfrwt beam="1">  1       -2 0.22139061E+00 0.33295036E+04</pdfrwt>
<totfact> 0.59287572E-01</totfact>
</mgrwt>
</event>
<event>
 4    1  0.2043502E-008  0.2402816E+04  0.7816531E-02  0.8438450E-01
         -2   -1    0    0    0  501 -0.00000000000E+00  0.00000000000E+00  0.70234246641E+03  0.70234246641E+03  0.00000000000E+00 0. -1.
          2   -1    0    0  501    0  0.00000000000E+00 -0.00000000000E+00 -0.20550963806E+04  0.20550963806E+04  0.00000000000E+00 0.  1.
    2000013    1    1    2    0    0 -0.61774398442E+03 -0.34439525790E+03 -0.90779629936E+03  0.14922499272E+04  0.95000000000E+03 0.  0.
   -2000013    1    1    2    0    0  0.61774398442E+03  0.34439525790E+03 -0.44495761485E+03  0.12651889199E+04  0.95000000000E+03 0.  0.
<mgrwt>
<rscale>  0 0.24028162E+04</rscale>
<asrwt>0</asrwt>
<pdfrwt beam="2">  1        2 0.31616867E+00 0.24028162E+04</pdfrwt>
<pdfrwt beam="1">  1       -2 0.10805269E+00 0.24028162E+04</pdfrwt>
<totfact> 0.38392440E+00</totfact>
</mgrwt>
</event>
<event>
 4    1  0.2043502E-008  0.2881474E+04  0.7816531E-02  0.8278411E-01
          2   -1    0    0  501    0  0.00000000000E+00  0.00000000000E+00  0.11872801185E+04  0.11872801185E+04  0.00000000000E+00 0.  1.
         -2   -1    0    0    0  501 -0.00000000000E+00 -0.00000000000E+00 -0.17483014812E+04  0.17483014812E+04  0.00000000000E+00 0. -1.
    2000013    1    1    2    0    0 -0.60571256007E+01  0.53050954488E+03 -0.12425661514E+04  0.16516499952E+04  0.95000000000E+03 0.  0.
   -2000013    1    1    2    0    0  0.60571256007E+01 -0.53050954488E+03  0.68154478873E+03  0.12839316045E+04  0.95000000000E+03 0.  0.
<mgrwt>
<rscale>  0 0.28814743E+04</rscale>
<asrwt>0</asrwt>
<pdfrwt beam="1">  1        2 0.18265848E+00 0.28814743E+04</pdfrwt>
<pdfrwt beam="2">  1       -2 0.26896946E+00 0.28814743E+04</pdfrwt>
<totfact> 0.81933078E-01</totfact>
</mgrwt>
</event>
<event>
 4    1  0.2043502E-008  0.3678628E+04  0.7816531E-02  0.8072715E-01
          2   -1    0    0  501    0  0.00000000000E+00  0.00000000000E+00  0.27084750280E+04  0.27084750280E+04  0.00000000000E+00 0.  1.
         -2   -1    0    0    0  501 -0.00000000000E+00 -0.00000000000E+00 -0.12490701163E+04  0.12490701163E+04  0.00000000000E+00 0. -1.
    2000013    1    1    2    0    0 -0.30014329390E+03  0.98354069402E+03 -0.55370157360E+03  0.15054978334E+04  0.95000000000E+03 0.  0.
   -2000013    1    1    2    0    0  0.30014329390E+03 -0.98354069402E+03  0.20131064853E+04  0.24520473109E+04  0.95000000000E+03 0.  0.
<mgrwt>
<rscale>  0 0.36786276E+04</rscale>
<asrwt>0</asrwt>
<pdfrwt beam="1">  1        2 0.41668846E+00 0.36786276E+04</pdfrwt>
<pdfrwt beam="2">  1       -2 0.19216463E+00 0.36786276E+04</pdfrwt>
<totfact> 0.31856333E-01</totfact>
</mgrwt>
</event>
<event>
 4    1  0.2043502E-008  0.4340748E+04  0.7816531E-02  0.7939126E-01
         -2   -1    0    0    0  501 -0.00000000000E+00  0.00000000000E+00  0.13016916194E+04  0.13016916194E+04  0.00000000000E+00 0. -1.
          2   -1    0    0  501    0  0.00000000000E+00 -0.00000000000E+00 -0.36187708751E+04  0.36187708751E+04  0.00000000000E+00 0.  1.
    2000013    1    1    2    0    0  0.72007749251E+03 -0.17799069271E+04 -0.76351116183E+03  0.22742096558E+04  0.95000000000E+03 0.  0.
   -2000013    1    1    2    0    0 -0.72007749251E+03  0.17799069271E+04 -0.15535680939E+04  0.26462528387E+04  0.95000000000E+03 0.  0.
<mgrwt>
<rscale>  0 0.43407482E+04</rscale>
<asrwt>0</asrwt>
<pdfrwt beam="2">  1        2 0.55673398E+00 0.43407482E+04</pdfrwt>
<pdfrwt beam="1">  1       -2 0.20026025E+00 0.43407482E+04</pdfrwt>
<totfact> 0.67886568E-02</totfact>
</mgrwt>
</event>
<event>
 4    1  0.2043502E-008  0.2850259E+04  0.7816531E-02  0.8287833E-01
          2   -1    0    0  501    0  0.00000000000E+00  0.00000000000E+00  0.51160348760E+04  0.51160348760E+04  0.00000000000E+00 0. -1.
         -2   -1    0    0    0  501 -0.00000000000E+00 -0.00000000000E+00 -0.39698599456E+03  0.39698599456E+03  0.00000000000E+00 0.  1.
    2000013    1    1    2    0    0 -0.18232357815E+03  0.71120861994E+03  0.87453585766E+03  0.14853863318E+04  0.95000000000E+03 0.  0.
   -2000013    1    1    2    0    0  0.18232357815E+03 -0.71120861994E+03  0.38445130238E+04  0.40276345388E+04  0.95000000000E+03 0.  0.
<mgrwt>
<rscale>  0 0.28502591E+04</rscale>
<asrwt>0</asrwt>
<pdfrwt beam="1">  1        2 0.78708224E+00 0.28502591E+04</pdfrwt>
<pdfrwt beam="2">  1       -2 0.61074772E-01 0.28502591E+04</pdfrwt>
<totfact> 0.52393046E-02</totfact>
</mgrwt>
</event>
<event>
 4    1  0.2043502E-008  0.3351813E+04  0.7816531E-02  0.8149835E-01
         -2   -1    0    0    0  501 -0.00000000000E+00  0.00000000000E+00  0.91714615618E+03  0.91714615618E+03  0.00000000000E+00 0. -1.
          2   -1    0    0  501    0  0.00000000000E+00 -0.00000000000E+00 -0.30623927926E+04  0.30623927926E+04  0.00000000000E+00 0.  1.
    2000013    1    1    2    0    0  0.13785535332E+04  0.16303119651E+02 -0.11605633443E+04  0.20371752286E+04  0.95000000000E+03 0.  0.
   -2000013    1    1    2    0    0 -0.13785535332E+04 -0.16303119651E+02 -0.98468329204E+03  0.19423637202E+04  0.95000000000E+03 0.  0.
<mgrwt>
<rscale>  0 0.33518125E+04</rscale>
<asrwt>0</asrwt>
<pdfrwt beam="2">  1        2 0.47113735E+00 0.33518125E+04</pdfrwt>
<pdfrwt beam="1">  1       -2 0.14109941E+00 0.33518125E+04</pdfrwt>
<totfact> 0.46506447E-01</totfact>
</mgrwt>
</event>
<event>
 4    1  0.2043502E-008  0.2172965E+04  0.7816531E-02  0.8529766E-01
         -2   -1    0    0    0  501 -0.00000000000E+00  0.00000000000E+00  0.12686099132E+04  0.12686099132E+04  0.00000000000E+00 0. -1.
          2   -1    0    0  501    0  0.00000000000E+00 -0.00000000000E+00 -0.93050236934E+03  0.93050236934E+03  0.00000000000E+00 0.  1.
    2000013    1    1    2    0    0 -0.10166485270E+03 -0.50088189607E+03  0.29993945427E+03  0.11196794596E+04  0.95000000000E+03 0.  0.
   -2000013    1    1    2    0    0  0.10166485270E+03  0.50088189607E+03  0.38168089575E+02  0.10794328229E+04  0.95000000000E+03 0.  0.
<mgrwt>
<rscale>  0 0.21729653E+04</rscale>
<asrwt>0</asrwt>
<pdfrwt beam="2">  1        2 0.14315421E+00 0.21729653E+04</pdfrwt>
<pdfrwt beam="1">  1       -2 0.19517076E+00 0.21729653E+04</pdfrwt>
<totfact> 0.36665224E+00</totfact>
</mgrwt>
</event>
<event>
 4    1  0.2043502E-008  0.3719213E+04  0.7816531E-02  0.8063717E-01
         -2   -1    0    0    0  501 -0.00000000000E+00  0.00000000000E+00  0.18179677410E+04  0.18179677410E+04  0.00000000000E+00 0. -1.
          2   -1    0    0  501    0  0.00000000000E+00 -0.00000000000E+00 -0.19021990516E+04  0.19021990516E+04  0.00000000000E+00 0.  1.
    2000013    1    1    2    0    0  0.76565959040E+03  0.12479970296E+04  0.59984742056E+03  0.18455481902E+04  0.95000000000E+03 0.  0.
   -2000013    1    1    2    0    0 -0.76565959040E+03 -0.12479970296E+04 -0.68407873116E+03  0.18746186025E+04  0.95000000000E+03 0.  0.
<mgrwt>
<rscale>  0 0.37192131E+04</rscale>
<asrwt>0</asrwt>
<pdfrwt beam="2">  1        2 0.29264601E+00 0.37192131E+04</pdfrwt>
<pdfrwt beam="1">  1       -2 0.27968735E+00 0.37192131E+04</pdfrwt>
<totfact> 0.25852023E-01</totfact>
</mgrwt>
</event>
<event>
 4    1  0.2043502E-008  0.3079368E+04  0.7816531E-02  0.8221423E-01
         -2   -1    0    0    0  501 -0.00000000000E+00  0.00000000000E+00  0.18867060628E+04  0.18867060628E+04  0.00000000000E+00 0. -1.
          2   -1    0    0  501    0  0.00000000000E+00 -0.00000000000E+00 -0.12564897744E+04  0.12564897744E+04  0.00000000000E+00 0.  1.
    2000013    1    1    2    0    0 -0.85961370571E+03  0.85336350829E+03  0.34676509806E+03  0.15779451935E+04  0.95000000000E+03 0.  0.
   -2000013    1    1    2    0    0  0.85961370571E+03 -0.85336350829E+03  0.28345119032E+03  0.15652506437E+04  0.95000000000E+03 0.  0.
<mgrwt>
<rscale>  0 0.30793680E+04</rscale>
<asrwt>0</asrwt>
<pdfrwt beam="2">  1        2 0.19330612E+00 0.30793680E+04</pdfrwt>
<pdfrwt beam="1">  1       -2 0.29026247E+00 0.30793680E+04</pdfrwt>
<totfact> 0.54352819E-01</totfact>
</mgrwt>
</event>
<event>
 4    1  0.2043502E-008  0.2368513E+04  0.7816531E-02  0.8451387E-01
         -2   -1    0    0    0  501 -0.00000000000E+00  0.00000000000E+00  0.11218714486E+04  0.11218714486E+04  0.00000000000E+00 0. -1.
          2   -1    0    0  501    0  0.00000000000E+00 -0.00000000000E+00 -0.12501105060E+04  0.12501105060E+04  0.00000000000E+00 0.  1.
    2000013    1    1    2    0    0  0.57963205837E+03  0.40348185969E+03 -0.98700527383E+02  0.11878605677E+04  0.95000000000E+03 0.  0.
   -2000013    1    1    2    0    0 -0.57963205837E+03 -0.40348185969E+03 -0.29538529963E+02  0.11841213869E+04  0.95000000000E+03 0.  0.
<mgrwt>
<rscale>  0 0.23685129E+04</rscale>
<asrwt>0</asrwt>
<pdfrwt beam="2">  1        2 0.19232469E+00 0.23685129E+04</pdfrwt>
<pdfrwt beam="1">  1       -2 0.17259561E+00 0.23685129E+04</pdfrwt>
<totfact> 0.32574132E+00</totfact>
</mgrwt>
</event>
<event>
 4    1  0.2043502E-008  0.3687647E+04  0.7816531E-02  0.8070705E-01
          2   -1    0    0  501    0  0.00000000000E+00  0.00000000000E+00  0.12207721405E+04  0.12207721405E+04  0.00000000000E+00 0.  1.
         -2   -1    0    0    0  501 -0.00000000000E+00 -0.00000000000E+00 -0.27848653280E+04  0.27848653280E+04  0.00000000000E+00 0. -1.
    2000013    1    1    2    0    0 -0.13460852378E+04  0.74621311623E+03 -0.11712850918E+04  0.21548058494E+04  0.95000000000E+03 0.  0.
   -2000013    1    1    2    0    0  0.13460852378E+04 -0.74621311623E+03 -0.39280809579E+03  0.18508316191E+04  0.95000000000E+03 0.  0.
<mgrwt>
<rscale>  0 0.36876475E+04</rscale>
<asrwt>0</asrwt>
<pdfrwt beam="1">  1        2 0.18781110E+00 0.36876475E+04</pdfrwt>
<pdfrwt beam="2">  1       -2 0.42844082E+00 0.36876475E+04</pdfrwt>
<totfact> 0.71765387E-02</totfact>
</mgrwt>
</event>
<event>
 4    1  0.2043502E-008  0.2194597E+04  0.7816531E-02  0.8520680E-01
         -2   -1    0    0    0  501 -0.00000000000E+00  0.00000000000E+00  0.40716694774E+03  0.40716694774E+03  0.00000000000E+00 0. -1.
          2   -1    0    0  501    0  0.00000000000E+00 -0.00000000000E+00 -0.29571764458E+04  0.29571764458E+04  0.00000000000E+00 0.  1.
    2000013    1    1    2    0    0  0.41782782660E+03 -0.21928007062E+03 -0.17056164005E+04  0.20085544921E+04  0.95000000000E+03 0.  0.
   -2000013    1    1    2    0    0 -0.41782782660E+03  0.21928007062E+03 -0.84439309753E+03  0.13557889014E+04  0.95000000000E+03 0.  0.
<mgrwt>
<rscale>  0 0.21945975E+04</rscale>
<asrwt>0</asrwt>
<pdfrwt beam="2">  1        2 0.45495024E+00 0.21945975E+04</pdfrwt>
<pdfrwt beam="1">  1       -2 0.62641067E-01 0.21945975E+04</pdfrwt>
<totfact> 0.40063236E+00</totfact>
</mgrwt>
</event>
<event>
 4    1  0.2043502E-008  0.2147480E+04  0.7816531E-02  0.8540612E-01
          2   -1    0    0  501    0  0.00000000000E+00  0.00000000000E+00  0.14685332391E+04  0.14685332391E+04  0.00000000000E+00 0.  1.
         -2   -1    0    0    0  501 -0.00000000000E+00 -0.00000000000E+00 -0.78508079950E+03  0.78508079950E+03  0.00000000000E+00 0. -1.
    2000013    1    1    2    0    0 -0.27931105068E+03 -0.36134398800E+03  0.12708627647E+03  0.10617132675E+04  0.95000000000E+03 0.  0.
   -2000013    1    1    2    0    0  0.27931105068E+03  0.36134398800E+03  0.55636616313E+03  0.11919007711E+04  0.95000000000E+03 0.  0.
<mgrwt>
<rscale>  0 0.21474797E+04</rscale>
<asrwt>0</asrwt>
<pdfrwt beam="1">  1        2 0.22592819E+00 0.21474797E+04</pdfrwt>
<pdfrwt beam="2">  1       -2 0.12078166E+00 0.21474797E+04</pdfrwt>
<totfact> 0.63445077E+00</totfact>
</mgrwt>
</event>
<event>
 4    1  0.2043502E-008  0.2501010E+04  0.7816531E-02  0.8402626E-01
         -2   -1    0    0    0  501 -0.00000000000E+00  0.00000000000E+00  0.41743374929E+03  0.41743374929E+03  0.00000000000E+00 0. -1.
          2   -1    0    0  501    0  0.00000000000E+00 -0.00000000000E+00 -0.37461335990E+04  0.37461335990E+04  0.00000000000E+00 0.  1.
    2000013    1    1    2    0    0  0.77898825424E+03 -0.48556941289E+02 -0.12844278732E+04  0.17780425862E+04  0.95000000000E+03 0.  0.
   -2000013    1    1    2    0    0 -0.77898825424E+03  0.48556941289E+02 -0.20442719765E+04  0.23855247621E+04  0.95000000000E+03 0.  0.
<mgrwt>
<rscale>  0 0.25010099E+04</rscale>
<asrwt>0</asrwt>
<pdfrwt beam="2">  1        2 0.57632826E+00 0.25010099E+04</pdfrwt>
<pdfrwt beam="1">  1       -2 0.64220576E-01 0.25010099E+04</pdfrwt>
<totfact> 0.10800481E+00</totfact>
</mgrwt>
</event>
<event>
 4    1  0.2043502E-008  0.2263924E+04  0.7816531E-02  0.8492283E-01
          2   -1    0    0  501    0  0.00000000000E+00  0.00000000000E+00  0.16689529507E+04  0.16689529507E+04  0.00000000000E+00 0.  1.
         -2   -1    0    0    0  501 -0.00000000000E+00 -0.00000000000E+00 -0.76774986879E+03  0.76774986879E+03  0.00000000000E+00 0. -1.
    2000013    1    1    2    0    0 -0.55965968499E+03 -0.25616029198E+03  0.45185242733E+03  0.12188140442E+04  0.95000000000E+03 0.  0.
   -2000013    1    1    2    0    0  0.55965968499E+03  0.25616029198E+03  0.44935065453E+03  0.12178887753E+04  0.95000000000E+03 0.  0.
<mgrwt>
<rscale>  0 0.22639244E+04</rscale>
<asrwt>0</asrwt>
<pdfrwt beam="1">  1        2 0.25676199E+00 0.22639244E+04</pdfrwt>
<pdfrwt beam="2">  1       -2 0.11811536E+00 0.22639244E+04</pdfrwt>
<totfact> 0.51253944E+00</totfact>
</mgrwt>
</event>
<event>
 4    1  0.2043502E-008  0.2537988E+04  0.7816531E-02  0.8389576E-01
          2   -1    0    0  501    0  0.00000000000E+00  0.00000000000E+00  0.81280095282E+03  0.81280095282E+03  0.00000000000E+00 0.  1.
         -2   -1    0    0    0  501 -0.00000000000E+00 -0.00000000000E+00 -0.19812303163E+04  0.19812303163E+04  0.00000000000E+00 0. -1.
    2000013    1    1    2    0    0 -0.80843849943E+03  0.14745982005E+03 -0.38566238182E+03  0.13139835154E+04  0.95000000000E+03 0.  0.
   -2000013    1    1    2    0    0  0.80843849943E+03 -0.14745982005E+03 -0.78276698168E+03  0.14800477538E+04  0.95000000000E+03 0.  0.
<mgrwt>
<rscale>  0 0.25379881E+04</rscale>
<asrwt>0</asrwt>
<pdfrwt beam="1">  1        2 0.12504630E+00 0.25379881E+04</pdfrwt>
<pdfrwt beam="2">  1       -2 0.30480466E+00 0.25379881E+04</pdfrwt>
<totfact> 0.89062462E-01</totfact>
</mgrwt>
</event>
<event>
 4    1  0.2043502E-008  0.3024718E+04  0.7816531E-02  0.8236707E-01
         -2   -1    0    0    0  501 -0.00000000000E+00  0.00000000000E+00  0.17383745276E+04  0.17383745276E+04  0.00000000000E+00 0. -1.
          2   -1    0    0  501    0  0.00000000000E+00 -0.00000000000E+00 -0.13157291957E+04  0.13157291957E+04  0.00000000000E+00 0.  1.
    2000013    1    1    2    0    0 -0.10058591808E+04 -0.45803753325E+03  0.61920138851E+03  0.15834965844E+04  0.95000000000E+03 0.  0.
   -2000013    1    1    2    0    0  0.10058591808E+04  0.45803753325E+03 -0.19655605659E+03  0.14706071388E+04  0.95000000000E+03 0.  0.
<mgrwt>
<rscale>  0 0.30247182E+04</rscale>
<asrwt>0</asrwt>
<pdfrwt beam="2">  1        2 0.20241988E+00 0.30247182E+04</pdfrwt>
<pdfrwt beam="1">  1       -2 0.26744224E+00 0.30247182E+04</pdfrwt>
<totfact> 0.69472056E-01</totfact>
</mgrwt>
</event>
<event>
 4    1  0.2043502E-008  0.2367323E+04  0.7816531E-02  0.8451840E-01
         -2   -1    0    0    0  501 -0.00000000000E+00  0.00000000000E+00  0.78287336255E+03  0.78287336255E+03  0.00000000000E+00 0. -1.
          2   -1    0    0  501    0  0.00000000000E+00 -0.00000000000E+00 -0.17896315770E+04  0.17896315770E+04  0.00000000000E+00 0.  1.
    2000013    1    1    2    0    0  0.20829131944E+03 -0.66574426938E+03 -0.62219064675E+03  0.13327497540E+04  0.95000000000E+03 0.  0.
   -2000013    1    1    2    0    0 -0.20829131944E+03  0.66574426938E+03 -0.38456756774E+03  0.12397551856E+04  0.95000000000E+03 0.  0.
<mgrwt>
<rscale>  0 0.23673233E+04</rscale>
<asrwt>0</asrwt>
<pdfrwt beam="2">  1        2 0.27532793E+00 0.23673233E+04</pdfrwt>
<pdfrwt beam="1">  1       -2 0.12044206E+00 0.23673233E+04</pdfrwt>
<totfact> 0.41485782E+00</totfact>
</mgrwt>
</event>
<event>
 4    1  0.2043502E-008  0.3584008E+04  0.7816531E-02  0.8094165E-01
          2   -1    0    0  501    0  0.00000000000E+00  0.00000000000E+00  0.39643501332E+04  0.39643501332E+04  0.00000000000E+00 0. -1.
         -2   -1    0    0    0  501 -0.00000000000E+00 -0.00000000000E+00 -0.81003884712E+03  0.81003884712E+03  0.00000000000E+00 0.  1.
    2000013    1    1    2    0    0 -0.68494950908E+01 -0.13763115218E+04  0.71950636592E+03  0.18205685187E+04  0.95000000000E+03 0.  0.
   -2000013    1    1    2    0    0  0.68494950908E+01  0.13763115218E+04  0.24348049201E+04  0.29538204616E+04  0.95000000000E+03 0.  0.
<mgrwt>
<rscale>  0 0.35840076E+04</rscale>
<asrwt>0</asrwt>
<pdfrwt beam="1">  1        2 0.60990001E+00 0.35840076E+04</pdfrwt>
<pdfrwt beam="2">  1       -2 0.12462136E+00 0.35840076E+04</pdfrwt>
<totfact> 0.14371805E-01</totfact>
</mgrwt>
</event>
<event>
 4    1  0.2043502E-008  0.2478582E+04  0.7816531E-02  0.8410656E-01
         -2   -1    0    0    0  501 -0.00000000000E+00  0.00000000000E+00  0.46511692617E+03  0.46511692617E+03  0.00000000000E+00 0. -1.
          2   -1    0    0  501    0  0.00000000000E+00 -0.00000000000E+00 -0.33020564901E+04  0.33020564901E+04  0.00000000000E+00 0.  1.
    2000013    1    1    2    0    0  0.56748336799E+03  0.55122660438E+03 -0.15496938414E+04  0.19824074113E+04  0.95000000000E+03 0.  0.
   -2000013    1    1    2    0    0 -0.56748336799E+03 -0.55122660438E+03 -0.12872457226E+04  0.17847660050E+04  0.95000000000E+03 0.  0.
<mgrwt>
<rscale>  0 0.24785821E+04</rscale>
<asrwt>0</asrwt>
<pdfrwt beam="2">  1        2 0.50800868E+00 0.24785821E+04</pdfrwt>
<pdfrwt beam="1">  1       -2 0.71556451E-01 0.24785821E+04</pdfrwt>
<totfact> 0.17588157E+00</totfact>
</mgrwt>
</event>
<event>
 4    1  0.2043502E-008  0.3394440E+04  0.7816531E-02  0.8139272E-01
         -2   -1    0    0    0  501 -0.00000000000E+00  0.00000000000E+00  0.12018299070E+04  0.12018299070E+04  0.00000000000E+00 0.  1.
          2   -1    0    0  501    0  0.00000000000E+00 -0.00000000000E+00 -0.23968079649E+04  0.23968079649E+04  0.00000000000E+00 0. -1.
    2000013    1    1    2    0    0 -0.38851787834E+03 -0.11655605240E+04 -0.13231954776E+04  0.20402999164E+04  0.95000000000E+03 0.  0.
   -2000013    1    1    2    0    0  0.38851787834E+03  0.11655605240E+04  0.12821741975E+03  0.15583379555E+04  0.95000000000E+03 0.  0.
<mgrwt>
<rscale>  0 0.33944399E+04</rscale>
<asrwt>0</asrwt>
<pdfrwt beam="2">  1        2 0.36873969E+00 0.33944399E+04</pdfrwt>
<pdfrwt beam="1">  1       -2 0.18489691E+00 0.33944399E+04</pdfrwt>
<totfact> 0.55526206E-01</totfact>
</mgrwt>
</event>
<event>
 4    1  0.2043502E-008  0.2628308E+04  0.7816531E-02  0.8358649E-01
         -2   -1    0    0    0  501 -0.00000000000E+00  0.00000000000E+00  0.11598796720E+04  0.11598796720E+04  0.00000000000E+00 0. -1.
          2   -1    0    0  501    0  0.00000000000E+00 -0.00000000000E+00 -0.14889482713E+04  0.14889482713E+04  0.00000000000E+00 0.  1.
    2000013    1    1    2    0    0 -0.68849848120E+03  0.50564333316E+03  0.14575823455E+03  0.12858657791E+04  0.95000000000E+03 0.  0.
   -2000013    1    1    2    0    0  0.68849848120E+03 -0.50564333316E+03 -0.47482683386E+03  0.13629621642E+04  0.95000000000E+03 0.  0.
<mgrwt>
<rscale>  0 0.26283081E+04</rscale>
<asrwt>0</asrwt>
<pdfrwt beam="2">  1        2 0.22906897E+00 0.26283081E+04</pdfrwt>
<pdfrwt beam="1">  1       -2 0.17844303E+00 0.26283081E+04</pdfrwt>
<totfact> 0.21128800E+00</totfact>
</mgrwt>
</event>
<event>
 4    1  0.2043502E-008  0.2786663E+04  0.7816531E-02  0.8307421E-01
         -2   -1    0    0    0  501 -0.00000000000E+00  0.00000000000E+00  0.75823148492E+03  0.75823148492E+03  0.00000000000E+00 0. -1.
          2   -1    0    0  501    0  0.00000000000E+00 -0.00000000000E+00 -0.25603966252E+04  0.25603966252E+04  0.00000000000E+00 0.  1.
    2000013    1    1    2    0    0  0.20442722755E+03  0.69563673619E+03 -0.17541938741E+04  0.21225920729E+04  0.95000000000E+03 0.  0.
   -2000013    1    1    2    0    0 -0.20442722755E+03 -0.69563673619E+03 -0.47971266265E+02  0.11960360373E+04  0.95000000000E+03 0.  0.
<mgrwt>
<rscale>  0 0.27866635E+04</rscale>
<asrwt>0</asrwt>
<pdfrwt beam="2">  1        2 0.39390717E+00 0.27866635E+04</pdfrwt>
<pdfrwt beam="1">  1       -2 0.11665100E+00 0.27866635E+04</pdfrwt>
<totfact> 0.15920171E+00</totfact>
</mgrwt>
</event>
<event>
 4    1  0.2043502E-008  0.2300234E+04  0.7816531E-02  0.8477829E-01
          2   -1    0    0  501    0  0.00000000000E+00  0.00000000000E+00  0.12162395161E+04  0.12162395161E+04  0.00000000000E+00 0. -1.
         -2   -1    0    0    0  501 -0.00000000000E+00 -0.00000000000E+00 -0.10875896279E+04  0.10875896279E+04  0.00000000000E+00 0.  1.
    2000013    1    1    2    0    0  0.30793595135E+03  0.42085838576E+03  0.45005427281E+03  0.11734543789E+04  0.95000000000E+03 0.  0.
   -2000013    1    1    2    0    0 -0.30793595135E+03 -0.42085838576E+03 -0.32140438468E+03  0.11303747651E+04  0.95000000000E+03 0.  0.
<mgrwt>
<rscale>  0 0.23002343E+04</rscale>
<asrwt>0</asrwt>
<pdfrwt beam="1">  1        2 0.18711377E+00 0.23002343E+04</pdfrwt>
<pdfrwt beam="2">  1       -2 0.16732148E+00 0.23002343E+04</pdfrwt>
<totfact> 0.37406859E+00</totfact>
</mgrwt>
</event>
<event>
 4    1  0.2043502E-008  0.2408268E+04  0.7816531E-02  0.8436415E-01
          1   -1    0    0  501    0  0.00000000000E+00  0.00000000000E+00  0.23239383228E+04  0.23239383228E+04  0.00000000000E+00 0.  1.
         -1   -1    0    0    0  501 -0.00000000000E+00 -0.00000000000E+00 -0.62391447742E+03  0.62391447742E+03  0.00000000000E+00 0. -1.
    2000013    1    1    2    0    0  0.32581905483E+03  0.55847925709E+03  0.40972349422E+03  0.12200124913E+04  0.95000000000E+03 0.  0.
   -2000013    1    1    2    0    0 -0.32581905483E+03 -0.55847925709E+03  0.12903003512E+04  0.17278403090E+04  0.95000000000E+03 0.  0.
<mgrwt>
<rscale>  0 0.24082681E+04</rscale>
<asrwt>0</asrwt>
<pdfrwt beam="1">  1        1 0.35752897E+00 0.24082681E+04</pdfrwt>
<pdfrwt beam="2">  1       -1 0.95986844E-01 0.24082681E+04</pdfrwt>
<totfact> 0.16783649E+00</totfact>
</mgrwt>
</event>
<event>
 4    1  0.2043502E-008  0.4098382E+04  0.7816531E-02  0.7984989E-01
         -2   -1    0    0    0  501 -0.00000000000E+00  0.00000000000E+00  0.21921822495E+04  0.21921822495E+04  0.00000000000E+00 0. -1.
          2   -1    0    0  501    0  0.00000000000E+00 -0.00000000000E+00 -0.19155268413E+04  0.19155268413E+04  0.00000000000E+00 0.  1.
    2000013    1    1    2    0    0 -0.12742890930E+04 -0.12138537840E+04 -0.30926473175E+03  0.20237090640E+04  0.95000000000E+03 0.  0.
   -2000013    1    1    2    0    0  0.12742890930E+04  0.12138537840E+04  0.58592013989E+03  0.20840000268E+04  0.95000000000E+03 0.  0.
<mgrwt>
<rscale>  0 0.40983821E+04</rscale>
<asrwt>0</asrwt>
<pdfrwt beam="2">  1        2 0.29469644E+00 0.40983821E+04</pdfrwt>
<pdfrwt beam="1">  1       -2 0.33725881E+00 0.40983821E+04</pdfrwt>
<totfact> 0.10896464E-01</totfact>
</mgrwt>
</event>
<event>
 4    1  0.2043502E-008  0.2246464E+04  0.7816531E-02  0.8499334E-01
         -1   -1    0    0    0  501 -0.00000000000E+00  0.00000000000E+00  0.95459170450E+03  0.95459170450E+03  0.00000000000E+00 0. -1.
          1   -1    0    0  501    0  0.00000000000E+00 -0.00000000000E+00 -0.13216648112E+04  0.13216648112E+04  0.00000000000E+00 0.  1.
    2000013    1    1    2    0    0 -0.17608053932E+03 -0.54869801335E+03 -0.16805242345E+02  0.11112408750E+04  0.95000000000E+03 0.  0.
   -2000013    1    1    2    0    0  0.17608053932E+03  0.54869801335E+03 -0.35026786436E+03  0.11650156407E+04  0.95000000000E+03 0.  0.
<mgrwt>
<rscale>  0 0.22464641E+04</rscale>
<asrwt>0</asrwt>
<pdfrwt beam="2">  1        1 0.20333305E+00 0.22464641E+04</pdfrwt>
<pdfrwt beam="1">  1       -1 0.14686026E+00 0.22464641E+04</pdfrwt>
<totfact> 0.29275308E+00</totfact>
</mgrwt>
</event>
<event>
 4    1  0.2043502E-008  0.2540725E+04  0.7816531E-02  0.8388619E-01
         -2   -1    0    0    0  501 -0.00000000000E+00  0.00000000000E+00  0.21752966075E+04  0.21752966075E+04  0.00000000000E+00 0. -1.
          2   -1    0    0  501    0  0.00000000000E+00 -0.00000000000E+00 -0.74188551880E+03  0.74188551880E+03  0.00000000000E+00 0.  1.
    2000013    1    1    2    0    0 -0.28189438554E+03 -0.79299337594E+03  0.65362816638E+03  0.14275968334E+04  0.95000000000E+03 0.  0.
   -2000013    1    1    2    0    0  0.28189438554E+03  0.79299337594E+03  0.77978292237E+03  0.14895852929E+04  0.95000000000E+03 0.  0.
<mgrwt>
<rscale>  0 0.25407251E+04</rscale>
<asrwt>0</asrwt>
<pdfrwt beam="2">  1        2 0.11413623E+00 0.25407251E+04</pdfrwt>
<pdfrwt beam="1">  1       -2 0.33466101E+00 0.25407251E+04</pdfrwt>
<totfact> 0.65664880E-01</totfact>
</mgrwt>
</event>
<event>
 4    1  0.2043502E-008  0.3027221E+04  0.7816531E-02  0.8236000E-01
          1   -1    0    0  501    0  0.00000000000E+00  0.00000000000E+00  0.14933751189E+04  0.14933751189E+04  0.00000000000E+00 0.  1.
         -1   -1    0    0    0  501 -0.00000000000E+00 -0.00000000000E+00 -0.15341198878E+04  0.15341198878E+04  0.00000000000E+00 0. -1.
    2000013    1    1    2    0    0 -0.10700941131E+04 -0.48356047562E+03  0.77536050862E+02  0.15124298277E+04  0.95000000000E+03 0.  0.
   -2000013    1    1    2    0    0  0.10700941131E+04  0.48356047562E+03 -0.11828081978E+03  0.15150651791E+04  0.95000000000E+03 0.  0.
<mgrwt>
<rscale>  0 0.30272208E+04</rscale>
<asrwt>0</asrwt>
<pdfrwt beam="1">  1        1 0.22975002E+00 0.30272208E+04</pdfrwt>
<pdfrwt beam="2">  1       -1 0.23601844E+00 0.30272208E+04</pdfrwt>
<totfact> 0.48345162E-01</totfact>
</mgrwt>
</event>
<event>
 4    1  0.2043502E-008  0.2009511E+04  0.7816531E-02  0.8602187E-01
         -2   -1    0    0    0  501 -0.00000000000E+00  0.00000000000E+00  0.16708731246E+04  0.16708731246E+04  0.00000000000E+00 0. -1.
          2   -1    0    0  501    0  0.00000000000E+00 -0.00000000000E+00 -0.60419533663E+03  0.60419533663E+03  0.00000000000E+00 0.  1.
    2000013    1    1    2    0    0 -0.11575533470E+03 -0.27086518857E+03  0.69451232533E+03  0.12131012398E+04  0.95000000000E+03 0.  0.
   -2000013    1    1    2    0    0  0.11575533470E+03  0.27086518857E+03  0.37216546265E+03  0.10619672215E+04  0.95000000000E+03 0.  0.
<mgrwt>
<rscale>  0 0.20095111E+04</rscale>
<asrwt>0</asrwt>
<pdfrwt beam="2">  1        2 0.92953129E-01 0.20095111E+04</pdfrwt>
<pdfrwt beam="1">  1       -2 0.25705740E+00 0.20095111E+04</pdfrwt>
<totfact> 0.26550060E+00</totfact>
</mgrwt>
</event>
<event>
 4    1  0.2043502E-008  0.2635010E+04  0.7816531E-02  0.8356406E-01
         -2   -1    0    0    0  501 -0.00000000000E+00  0.00000000000E+00  0.72217544456E+03  0.72217544456E+03  0.00000000000E+00 0. -1.
          2   -1    0    0  501    0  0.00000000000E+00 -0.00000000000E+00 -0.24035972832E+04  0.24035972832E+04  0.00000000000E+00 0.  1.
    2000013    1    1    2    0    0  0.64966617362E+03 -0.63654408756E+03 -0.93308921982E+03  0.16125786817E+04  0.95000000000E+03 0.  0.
   -2000013    1    1    2    0    0 -0.64966617362E+03  0.63654408756E+03 -0.74833261878E+03  0.15131940460E+04  0.95000000000E+03 0.  0.
<mgrwt>
<rscale>  0 0.26350096E+04</rscale>
<asrwt>0</asrwt>
<pdfrwt beam="2">  1        2 0.36978419E+00 0.26350096E+04</pdfrwt>
<pdfrwt beam="1">  1       -2 0.11110392E+00 0.26350096E+04</pdfrwt>
<totfact> 0.22375399E+00</totfact>
</mgrwt>
</event>
<event>
 4    1  0.2043502E-008  0.2202721E+04  0.7816531E-02  0.8517296E-01
         -2   -1    0    0    0  501 -0.00000000000E+00  0.00000000000E+00  0.11590166905E+04  0.11590166905E+04  0.00000000000E+00 0. -1.
          2   -1    0    0  501    0  0.00000000000E+00 -0.00000000000E+00 -0.10465724887E+04  0.10465724887E+04  0.00000000000E+00 0.  1.
    2000013    1    1    2    0    0  0.52303908929E+03 -0.19037151750E+03  0.82405310523E+02  0.11041294484E+04  0.95000000000E+03 0.  0.
   -2000013    1    1    2    0    0 -0.52303908929E+03  0.19037151750E+03  0.30038891201E+02  0.11014597308E+04  0.95000000000E+03 0.  0.
<mgrwt>
<rscale>  0 0.22027210E+04</rscale>
<asrwt>0</asrwt>
<pdfrwt beam="2">  1        2 0.16101115E+00 0.22027210E+04</pdfrwt>
<pdfrwt beam="1">  1       -2 0.17831026E+00 0.22027210E+04</pdfrwt>
<totfact> 0.40042226E+00</totfact>
</mgrwt>
</event>
<event>
 4    1  0.2043502E-008  0.2568736E+04  0.7816531E-02  0.8378899E-01
         -2   -1    0    0    0  501 -0.00000000000E+00  0.00000000000E+00  0.47518038915E+03  0.47518038915E+03  0.00000000000E+00 0. -1.
          2   -1    0    0  501    0  0.00000000000E+00 -0.00000000000E+00 -0.34715259360E+04  0.34715259360E+04  0.00000000000E+00 0.  1.
    2000013    1    1    2    0    0  0.29684891494E+03 -0.64218169011E+03 -0.73521905860E+03  0.13941175221E+04  0.95000000000E+03 0.  0.
   -2000013    1    1    2    0    0 -0.29684891494E+03  0.64218169011E+03 -0.22611264883E+04  0.25525888030E+04  0.95000000000E+03 0.  0.
<mgrwt>
<rscale>  0 0.25687359E+04</rscale>
<asrwt>0</asrwt>
<pdfrwt beam="2">  1        2 0.53408091E+00 0.25687359E+04</pdfrwt>
<pdfrwt beam="1">  1       -2 0.73104675E-01 0.25687359E+04</pdfrwt>
<totfact> 0.12764882E+00</totfact>
</mgrwt>
</event>
<event>
 4    1  0.2043502E-008  0.2947741E+04  0.7816531E-02  0.8258813E-01
         -2   -1    0    0    0  501 -0.00000000000E+00  0.00000000000E+00  0.61194492419E+03  0.61194492419E+03  0.00000000000E+00 0. -1.
          2   -1    0    0  501    0  0.00000000000E+00 -0.00000000000E+00 -0.35498203816E+04  0.35498203816E+04  0.00000000000E+00 0.  1.
    2000013    1    1    2    0    0  0.10030219316E+04 -0.51145463949E+03 -0.15344895077E+04  0.21271569976E+04  0.95000000000E+03 0.  0.
   -2000013    1    1    2    0    0 -0.10030219316E+04  0.51145463949E+03 -0.14033859497E+04  0.20346083081E+04  0.95000000000E+03 0.  0.
<mgrwt>
<rscale>  0 0.29477412E+04</rscale>
<asrwt>0</asrwt>
<pdfrwt beam="2">  1        2 0.54612621E+00 0.29477412E+04</pdfrwt>
<pdfrwt beam="1">  1       -2 0.94145374E-01 0.29477412E+04</pdfrwt>
<totfact> 0.61320713E-01</totfact>
</mgrwt>
</event>
<event>
 4    1  0.2043502E-008  0.2361142E+04  0.7816531E-02  0.8454196E-01
          2   -1    0    0  501    0  0.00000000000E+00  0.00000000000E+00  0.25905326195E+04  0.25905326195E+04  0.00000000000E+00 0.  1.
         -2   -1    0    0    0  501 -0.00000000000E+00 -0.00000000000E+00 -0.53801607390E+03  0.53801607390E+03  0.00000000000E+00 0. -1.
    2000013    1    1    2    0    0  0.99287682986E+02  0.50223913204E+03  0.16605322663E+04  0.19803963233E+04  0.95000000000E+03 0.  0.
   -2000013    1    1    2    0    0 -0.99287682986E+02 -0.50223913204E+03  0.39198427924E+03  0.11481523701E+04  0.95000000000E+03 0.  0.
<mgrwt>
<rscale>  0 0.23611423E+04</rscale>
<asrwt>0</asrwt>
<pdfrwt beam="1">  1        2 0.39854347E+00 0.23611423E+04</pdfrwt>
<pdfrwt beam="2">  1       -2 0.82771705E-01 0.23611423E+04</pdfrwt>
<totfact> 0.35589209E+00</totfact>
</mgrwt>
</event>
<event>
 4    1  0.2043502E-008  0.2411618E+04  0.7816531E-02  0.8435167E-01
          2   -1    0    0  501    0  0.00000000000E+00  0.00000000000E+00  0.15472310730E+04  0.15472310730E+04  0.00000000000E+00 0.  1.
         -2   -1    0    0    0  501 -0.00000000000E+00 -0.00000000000E+00 -0.93972704526E+03  0.93972704526E+03  0.00000000000E+00 0. -1.
    2000013    1    1    2    0    0 -0.68565858827E+03  0.25319714791E+03  0.43914880257E+03  0.12765532367E+04  0.95000000000E+03 0.  0.
   -2000013    1    1    2    0    0  0.68565858827E+03 -0.25319714791E+03  0.16835522515E+03  0.12104048815E+04  0.95000000000E+03 0.  0.
<mgrwt>
<rscale>  0 0.24116176E+04</rscale>
<asrwt>0</asrwt>
<pdfrwt beam="1">  1        2 0.23803555E+00 0.24116176E+04</pdfrwt>
<pdfrwt beam="2">  1       -2 0.14457339E+00 0.24116176E+04</pdfrwt>
<totfact> 0.35424333E+00</totfact>
</mgrwt>
</event>
<event>
 4    1  0.2043502E-008  0.3053569E+04  0.7816531E-02  0.8228597E-01
         -2   -1    0    0    0  501 -0.00000000000E+00  0.00000000000E+00  0.15678184106E+04  0.15678184106E+04  0.00000000000E+00 0. -1.
          2   -1    0    0  501    0  0.00000000000E+00 -0.00000000000E+00 -0.14868242805E+04  0.14868242805E+04  0.00000000000E+00 0.  1.
    2000013    1    1    2    0    0 -0.69465690943E+03  0.80211868841E+03 -0.50981264810E+03  0.15127298332E+04  0.95000000000E+03 0.  0.
   -2000013    1    1    2    0    0  0.69465690943E+03 -0.80211868841E+03  0.59080677823E+03  0.15419128579E+04  0.95000000000E+03 0.  0.
<mgrwt>
<rscale>  0 0.30535687E+04</rscale>
<asrwt>0</asrwt>
<pdfrwt beam="2">  1        2 0.22874220E+00 0.30535687E+04</pdfrwt>
<pdfrwt beam="1">  1       -2 0.24120283E+00 0.30535687E+04</pdfrwt>
<totfact> 0.80142136E-01</totfact>
</mgrwt>
</event>
<event>
 4    1  0.2043502E-008  0.2354175E+04  0.7816531E-02  0.8456862E-01
          2   -1    0    0  501    0  0.00000000000E+00  0.00000000000E+00  0.38575764827E+04  0.38575764827E+04  0.00000000000E+00 0.  1.
         -2   -1    0    0    0  501 -0.00000000000E+00 -0.00000000000E+00 -0.35917236710E+03  0.35917236710E+03  0.00000000000E+00 0. -1.
    2000013    1    1    2    0    0  0.64485020849E+03  0.23522880367E+03  0.19443542457E+04  0.22702814395E+04  0.95000000000E+03 0.  0.
   -2000013    1    1    2    0    0 -0.64485020849E+03 -0.23522880367E+03  0.15540498698E+04  0.19464674103E+04  0.95000000000E+03 0.  0.
<mgrwt>
<rscale>  0 0.23541749E+04</rscale>
<asrwt>0</asrwt>
<pdfrwt beam="1">  1        2 0.59347328E+00 0.23541749E+04</pdfrwt>
<pdfrwt beam="2">  1       -2 0.55257290E-01 0.23541749E+04</pdfrwt>
<totfact> 0.12379776E+00</totfact>
</mgrwt>
</event>
<event>
 4    1  0.2043502E-008  0.3391182E+04  0.7816531E-02  0.8140074E-01
         -1   -1    0    0    0  501 -0.00000000000E+00  0.00000000000E+00  0.92989454048E+03  0.92989454048E+03  0.00000000000E+00 0.  1.
          1   -1    0    0  501    0  0.00000000000E+00 -0.00000000000E+00 -0.30917795953E+04  0.30917795953E+04  0.00000000000E+00 0. -1.
    2000013    1    1    2    0    0 -0.31280312956E+03 -0.13207360733E+04 -0.15090902291E+04  0.22409914977E+04  0.95000000000E+03 0.  0.
   -2000013    1    1    2    0    0  0.31280312956E+03  0.13207360733E+04 -0.65279482574E+03  0.17806826381E+04  0.95000000000E+03 0.  0.
<mgrwt>
<rscale>  0 0.33911821E+04</rscale>
<asrwt>0</asrwt>
<pdfrwt beam="2">  1        1 0.47565839E+00 0.33911821E+04</pdfrwt>
<pdfrwt beam="1">  1       -1 0.14306070E+00 0.33911821E+04</pdfrwt>
<totfact> 0.16668737E-01</totfact>
</mgrwt>
</event>
<event>
 4    1  0.2043502E-008  0.2426648E+04  0.7816531E-02  0.8429594E-01
          2   -1    0    0  501    0  0.00000000000E+00  0.00000000000E+00  0.86169451665E+03  0.86169451665E+03  0.00000000000E+00 0.  1.
         -2   -1    0    0    0  501 -0.00000000000E+00 -0.00000000000E+00 -0.17084414795E+04  0.17084414795E+04  0.00000000000E+00 0. -1.
    2000013    1    1    2    0    0  0.18381546426E+03 -0.45880897696E+03  0.18075879505E+03  0.10860329388E+04  0.95000000000E+03 0.  0.
   -2000013    1    1    2    0    0 -0.18381546426E+03  0.45880897696E+03 -0.10275057579E+04  0.14841030574E+04  0.95000000000E+03 0.  0.
<mgrwt>
<rscale>  0 0.24266476E+04</rscale>
<asrwt>0</asrwt>
<pdfrwt beam="1">  1        2 0.13256839E+00 0.24266476E+04</pdfrwt>
<pdfrwt beam="2">  1       -2 0.26283715E+00 0.24266476E+04</pdfrwt>
<totfact> 0.14981622E+00</totfact>
</mgrwt>
</event>
<event>
 4    1  0.2043502E-008  0.2987315E+04  0.7816531E-02  0.8247363E-01
         -2   -1    0    0    0  501 -0.00000000000E+00  0.00000000000E+00  0.99963261467E+03  0.99963261467E+03  0.00000000000E+00 0. -1.
          2   -1    0    0  501    0  0.00000000000E+00 -0.00000000000E+00 -0.22318321492E+04  0.22318321492E+04  0.00000000000E+00 0.  1.
    2000013    1    1    2    0    0 -0.57727931398E+03 -0.63774283685E+03  0.21376675828E+03  0.12992934846E+04  0.95000000000E+03 0.  0.
   -2000013    1    1    2    0    0  0.57727931398E+03  0.63774283685E+03 -0.14459662928E+04  0.19321712792E+04  0.95000000000E+03 0.  0.
<mgrwt>
<rscale>  0 0.29873147E+04</rscale>
<asrwt>0</asrwt>
<pdfrwt beam="2">  1        2 0.34335879E+00 0.29873147E+04</pdfrwt>
<pdfrwt beam="1">  1       -2 0.15378963E+00 0.29873147E+04</pdfrwt>
<totfact> 0.11902713E+00</totfact>
</mgrwt>
</event>
<event>
 4    1  0.2043502E-008  0.2860962E+04  0.7816531E-02  0.8284588E-01
          2   -1    0    0  501    0  0.00000000000E+00  0.00000000000E+00  0.42977659253E+04  0.42977659253E+04  0.00000000000E+00 0.  1.
         -2   -1    0    0    0  501 -0.00000000000E+00 -0.00000000000E+00 -0.47612544121E+03  0.47612544121E+03  0.00000000000E+00 0. -1.
    2000013    1    1    2    0    0 -0.45451292105E+03  0.88034858851E+03  0.12388358315E+04  0.18490023932E+04  0.95000000000E+03 0.  0.
   -2000013    1    1    2    0    0  0.45451292105E+03 -0.88034858851E+03  0.25828046525E+04  0.29248889732E+04  0.95000000000E+03 0.  0.
<mgrwt>
<rscale>  0 0.28609619E+04</rscale>
<asrwt>0</asrwt>
<pdfrwt beam="1">  1        2 0.66119473E+00 0.28609619E+04</pdfrwt>
<pdfrwt beam="2">  1       -2 0.73250071E-01 0.28609619E+04</pdfrwt>
<totfact> 0.27776189E-01</totfact>
</mgrwt>
</event>
<event>
 4    1  0.2043502E-008  0.2365552E+04  0.7816531E-02  0.8452514E-01
         -2   -1    0    0    0  501 -0.00000000000E+00  0.00000000000E+00  0.36702708420E+03  0.36702708420E+03  0.00000000000E+00 0. -1.
          2   -1    0    0  501    0  0.00000000000E+00 -0.00000000000E+00 -0.38115968623E+04  0.38115968623E+04  0.00000000000E+00 0.  1.
    2000013    1    1    2    0    0 -0.50957519610E+03 -0.25794251605E+03 -0.99340730053E+03  0.14884754908E+04  0.95000000000E+03 0.  0.
   -2000013    1    1    2    0    0  0.50957519610E+03  0.25794251605E+03 -0.24511624776E+04  0.26901484557E+04  0.95000000000E+03 0.  0.
<mgrwt>
<rscale>  0 0.23655522E+04</rscale>
<asrwt>0</asrwt>
<pdfrwt beam="2">  1        2 0.58639949E+00 0.23655522E+04</pdfrwt>
<pdfrwt beam="1">  1       -2 0.56465708E-01 0.23655522E+04</pdfrwt>
<totfact> 0.12819692E+00</totfact>
</mgrwt>
</event>
<event>
 4    1  0.2043502E-008  0.2314856E+04  0.7816531E-02  0.8472087E-01
         -2   -1    0    0    0  501 -0.00000000000E+00  0.00000000000E+00  0.58834932520E+03  0.58834932520E+03  0.00000000000E+00 0. -1.
          2   -1    0    0  501    0  0.00000000000E+00 -0.00000000000E+00 -0.22769451204E+04  0.22769451204E+04  0.00000000000E+00 0.  1.
    2000013    1    1    2    0    0 -0.63639171770E+02 -0.21537883122E+03 -0.16140184396E+04  0.18862644322E+04  0.95000000000E+03 0.  0.
   -2000013    1    1    2    0    0  0.63639171770E+02  0.21537883122E+03 -0.74577355658E+02  0.97903001338E+03  0.95000000000E+03 0.  0.
<mgrwt>
<rscale>  0 0.23148556E+04</rscale>
<asrwt>0</asrwt>
<pdfrwt beam="2">  1        2 0.35029925E+00 0.23148556E+04</pdfrwt>
<pdfrwt beam="1">  1       -2 0.90515281E-01 0.23148556E+04</pdfrwt>
<totfact> 0.44118810E+00</totfact>
</mgrwt>
</event>
<event>
 4    1  0.2043502E-008  0.3089574E+04  0.7816531E-02  0.8218605E-01
         -2   -1    0    0    0  501 -0.00000000000E+00  0.00000000000E+00  0.68867660425E+03  0.68867660425E+03  0.00000000000E+00 0. -1.
          2   -1    0    0  501    0  0.00000000000E+00 -0.00000000000E+00 -0.34651486321E+04  0.34651486321E+04  0.00000000000E+00 0.  1.
    2000013    1    1    2    0    0  0.57214511324E+03 -0.84461801343E+03 -0.49324491068E+03  0.14786886627E+04  0.95000000000E+03 0.  0.
   -2000013    1    1    2    0    0 -0.57214511324E+03  0.84461801343E+03 -0.22832271172E+04  0.26751365737E+04  0.95000000000E+03 0.  0.
<mgrwt>
<rscale>  0 0.30895739E+04</rscale>
<asrwt>0</asrwt>
<pdfrwt beam="2">  1        2 0.53309979E+00 0.30895739E+04</pdfrwt>
<pdfrwt beam="1">  1       -2 0.10595025E+00 0.30895739E+04</pdfrwt>
<totfact> 0.52500551E-01</totfact>
</mgrwt>
</event>
<event>
 4    1  0.2043502E-008  0.2347535E+04  0.7816531E-02  0.8459411E-01
         -2   -1    0    0    0  501 -0.00000000000E+00  0.00000000000E+00  0.75707821619E+03  0.75707821619E+03  0.00000000000E+00 0. -1.
          2   -1    0    0  501    0  0.00000000000E+00 -0.00000000000E+00 -0.18197981844E+04  0.18197981844E+04  0.00000000000E+00 0.  1.
    2000013    1    1    2    0    0 -0.53672700924E+03 -0.35001905393E+03 -0.25227695449E+03  0.11733426108E+04  0.95000000000E+03 0.  0.
   -2000013    1    1    2    0    0  0.53672700924E+03  0.35001905393E+03 -0.81044301369E+03  0.14035337898E+04  0.95000000000E+03 0.  0.
<mgrwt>
<rscale>  0 0.23475345E+04</rscale>
<asrwt>0</asrwt>
<pdfrwt beam="2">  1        2 0.27996895E+00 0.23475345E+04</pdfrwt>
<pdfrwt beam="1">  1       -2 0.11647357E+00 0.23475345E+04</pdfrwt>
<totfact> 0.43429510E+00</totfact>
</mgrwt>
</event>
<event>
 4    1  0.2043502E-008  0.2030035E+04  0.7816531E-02  0.8592705E-01
         -2   -1    0    0    0  501 -0.00000000000E+00  0.00000000000E+00  0.49438184534E+03  0.49438184534E+03  0.00000000000E+00 0. -1.
          2   -1    0    0  501    0  0.00000000000E+00 -0.00000000000E+00 -0.20839376510E+04  0.20839376510E+04  0.00000000000E+00 0.  1.
    2000013    1    1    2    0    0  0.32044934206E+03 -0.12510629554E+03 -0.67149726150E+03  0.12131561887E+04  0.95000000000E+03 0.  0.
   -2000013    1    1    2    0    0 -0.32044934206E+03  0.12510629554E+03 -0.91805854421E+03  0.13651633077E+04  0.95000000000E+03 0.  0.
<mgrwt>
<rscale>  0 0.20300354E+04</rscale>
<asrwt>0</asrwt>
<pdfrwt beam="2">  1        2 0.32060579E+00 0.20300354E+04</pdfrwt>
<pdfrwt beam="1">  1       -2 0.76058746E-01 0.20300354E+04</pdfrwt>
<totfact> 0.86045486E+00</totfact>
</mgrwt>
</event>
<event>
 4    1  0.2043502E-008  0.2400421E+04  0.7816531E-02  0.8439346E-01
          2   -1    0    0  501    0  0.00000000000E+00  0.00000000000E+00  0.11022636200E+04  0.11022636200E+04  0.00000000000E+00 0.  1.
         -2   -1    0    0    0  501 -0.00000000000E+00 -0.00000000000E+00 -0.13068611499E+04  0.13068611499E+04  0.00000000000E+00 0. -1.
    2000013    1    1    2    0    0  0.62218391186E+03 -0.12763535431E+03 -0.47051033295E+03  0.12358331511E+04  0.95000000000E+03 0.  0.
   -2000013    1    1    2    0    0 -0.62218391186E+03  0.12763535431E+03  0.26591280305E+03  0.11732916188E+04  0.95000000000E+03 0.  0.
<mgrwt>
<rscale>  0 0.24004212E+04</rscale>
<asrwt>0</asrwt>
<pdfrwt beam="1">  1        2 0.16957902E+00 0.24004212E+04</pdfrwt>
<pdfrwt beam="2">  1       -2 0.20105556E+00 0.24004212E+04</pdfrwt>
<totfact> 0.25557023E+00</totfact>
</mgrwt>
</event>
<event>
 4    1  0.2043502E-008  0.2275297E+04  0.7816531E-02  0.8487725E-01
          1   -1    0    0  501    0  0.00000000000E+00  0.00000000000E+00  0.12029405094E+04  0.12029405094E+04  0.00000000000E+00 0. -1.
         -1   -1    0    0    0  501 -0.00000000000E+00 -0.00000000000E+00 -0.10759003640E+04  0.10759003640E+04  0.00000000000E+00 0.  1.
    2000013    1    1    2    0    0  0.44060234376E+03 -0.39636320730E+03  0.26510430808E+03  0.11506582949E+04  0.95000000000E+03 0.  0.
   -2000013    1    1    2    0    0 -0.44060234376E+03  0.39636320730E+03 -0.13806416270E+03  0.11281825785E+04  0.95000000000E+03 0.  0.
<mgrwt>
<rscale>  0 0.22752970E+04</rscale>
<asrwt>0</asrwt>
<pdfrwt beam="1">  1        1 0.18506777E+00 0.22752970E+04</pdfrwt>
<pdfrwt beam="2">  1       -1 0.16552313E+00 0.22752970E+04</pdfrwt>
<totfact> 0.25581481E+00</totfact>
</mgrwt>
</event>
<event>
 4    1  0.2043502E-008  0.2624367E+04  0.7816531E-02  0.8359971E-01
         -2   -1    0    0    0  501 -0.00000000000E+00  0.00000000000E+00  0.80407751801E+03  0.80407751801E+03  0.00000000000E+00 0. -1.
          2   -1    0    0  501    0  0.00000000000E+00 -0.00000000000E+00 -0.21413679071E+04  0.21413679071E+04  0.00000000000E+00 0.  1.
    2000013    1    1    2    0    0 -0.68623455988E+03  0.52454287527E+03 -0.36485915044E+03  0.13347978494E+04  0.95000000000E+03 0.  0.
   -2000013    1    1    2    0    0  0.68623455988E+03 -0.52454287527E+03 -0.97243123865E+03  0.16106475757E+04  0.95000000000E+03 0.  0.
<mgrwt>
<rscale>  0 0.26243672E+04</rscale>
<asrwt>0</asrwt>
<pdfrwt beam="2">  1        2 0.32944121E+00 0.26243672E+04</pdfrwt>
<pdfrwt beam="1">  1       -2 0.12370424E+00 0.26243672E+04</pdfrwt>
<totfact> 0.24202832E+00</totfact>
</mgrwt>
</event>
<event>
 4    1  0.2043502E-008  0.2269325E+04  0.7816531E-02  0.8490115E-01
         -2   -1    0    0    0  501 -0.00000000000E+00  0.00000000000E+00  0.93929097343E+03  0.93929097343E+03  0.00000000000E+00 0. -1.
          2   -1    0    0  501    0  0.00000000000E+00 -0.00000000000E+00 -0.13706711117E+04  0.13706711117E+04  0.00000000000E+00 0.  1.
    2000013    1    1    2    0    0 -0.51375953529E+03 -0.30359222540E+03 -0.38856025952E+03  0.11872641554E+04  0.95000000000E+03 0.  0.
   -2000013    1    1    2    0    0  0.51375953529E+03  0.30359222540E+03 -0.42819878776E+02  0.11226979297E+04  0.95000000000E+03 0.  0.
<mgrwt>
<rscale>  0 0.22693250E+04</rscale>
<asrwt>0</asrwt>
<pdfrwt beam="2">  1        2 0.21087248E+00 0.22693250E+04</pdfrwt>
<pdfrwt beam="1">  1       -2 0.14450630E+00 0.22693250E+04</pdfrwt>
<totfact> 0.45211763E+00</totfact>
</mgrwt>
</event>
<event>
 4    1  0.2043502E-008  0.3407749E+04  0.7816531E-02  0.8136007E-01
          2   -1    0    0  501    0  0.00000000000E+00  0.00000000000E+00  0.26201712414E+04  0.26201712414E+04  0.00000000000E+00 0.  1.
         -2   -1    0    0    0  501 -0.00000000000E+00 -0.00000000000E+00 -0.11080148665E+04  0.11080148665E+04  0.00000000000E+00 0. -1.
    2000013    1    1    2    0    0 -0.44863363563E+03  0.85517002741E+02 -0.70849637746E+03  0.12700600040E+04  0.95000000000E+03 0.  0.
   -2000013    1    1    2    0    0  0.44863363563E+03 -0.85517002741E+02  0.22206527523E+04  0.24581261039E+04  0.95000000000E+03 0.  0.
<mgrwt>
<rscale>  0 0.34077492E+04</rscale>
<asrwt>0</asrwt>
<pdfrwt beam="1">  1        2 0.40310327E+00 0.34077492E+04</pdfrwt>
<pdfrwt beam="2">  1       -2 0.17046383E+00 0.34077492E+04</pdfrwt>
<totfact> 0.51843363E-01</totfact>
</mgrwt>
</event>
<event>
 4    1  0.2043502E-008  0.3267558E+04  0.7816531E-02  0.8171200E-01
         -2   -1    0    0    0  501 -0.00000000000E+00  0.00000000000E+00  0.11467046705E+04  0.11467046705E+04  0.00000000000E+00 0. -1.
          2   -1    0    0  501    0  0.00000000000E+00 -0.00000000000E+00 -0.23277425767E+04  0.23277425767E+04  0.00000000000E+00 0.  1.
    2000013    1    1    2    0    0 -0.77611177657E+03 -0.22146642910E+03 -0.17134818354E+04  0.21189423940E+04  0.95000000000E+03 0.  0.
   -2000013    1    1    2    0    0  0.77611177657E+03  0.22146642910E+03  0.53244392927E+03  0.13555048531E+04  0.95000000000E+03 0.  0.
<mgrwt>
<rscale>  0 0.32675577E+04</rscale>
<asrwt>0</asrwt>
<pdfrwt beam="2">  1        2 0.35811424E+00 0.32675577E+04</pdfrwt>
<pdfrwt beam="1">  1       -2 0.17641610E+00 0.32675577E+04</pdfrwt>
<totfact> 0.70303534E-01</totfact>
</mgrwt>
</event>
<event>
 4    1  0.2043502E-008  0.4312218E+04  0.7816531E-02  0.7944363E-01
         -1   -1    0    0    0  501 -0.00000000000E+00  0.00000000000E+00  0.29342632806E+04  0.29342632806E+04  0.00000000000E+00 0.  1.
          1   -1    0    0  501    0  0.00000000000E+00 -0.00000000000E+00 -0.15843179058E+04  0.15843179058E+04  0.00000000000E+00 0. -1.
    2000013    1    1    2    0    0  0.43224874503E+03 -0.12474488481E+04 -0.80815496039E+03  0.18161998916E+04  0.95000000000E+03 0.  0.
   -2000013    1    1    2    0    0 -0.43224874503E+03  0.12474488481E+04  0.21581003351E+04  0.27023812948E+04  0.95000000000E+03 0.  0.
<mgrwt>
<rscale>  0 0.43122179E+04</rscale>
<asrwt>0</asrwt>
<pdfrwt beam="2">  1        1 0.24374122E+00 0.43122179E+04</pdfrwt>
<pdfrwt beam="1">  1       -1 0.45142512E+00 0.43122179E+04</pdfrwt>
<totfact> 0.13815241E-02</totfact>
</mgrwt>
</event>
<event>
 4    1  0.2043502E-008  0.2028489E+04  0.7816531E-02  0.8593416E-01
          2   -1    0    0  501    0  0.00000000000E+00  0.00000000000E+00  0.54605682233E+04  0.54605682233E+04  0.00000000000E+00 0.  1.
         -2   -1    0    0    0  501 -0.00000000000E+00 -0.00000000000E+00 -0.18838542415E+03  0.18838542415E+03  0.00000000000E+00 0. -1.
    2000013    1    1    2    0    0 -0.27439763189E+03 -0.17512908681E+03  0.22400292237E+04  0.24548309882E+04  0.95000000000E+03 0.  0.
   -2000013    1    1    2    0    0  0.27439763189E+03  0.17512908681E+03  0.30321535754E+04  0.31941226593E+04  0.95000000000E+03 0.  0.
<mgrwt>
<rscale>  0 0.20284886E+04</rscale>
<asrwt>0</asrwt>
<pdfrwt beam="1">  1        2 0.84008730E+00 0.20284886E+04</pdfrwt>
<pdfrwt beam="2">  1       -2 0.28982377E-01 0.20284886E+04</pdfrwt>
<totfact> 0.74125146E-02</totfact>
</mgrwt>
</event>
<event>
 4    1  0.2043502E-008  0.3347781E+04  0.7816531E-02  0.8150843E-01
          1   -1    0    0  501    0  0.00000000000E+00  0.00000000000E+00  0.13621883830E+04  0.13621883830E+04  0.00000000000E+00 0.  1.
         -1   -1    0    0    0  501 -0.00000000000E+00 -0.00000000000E+00 -0.20569171912E+04  0.20569171912E+04  0.00000000000E+00 0. -1.
    2000013    1    1    2    0    0  0.57892629429E+03 -0.96840251378E+03 -0.11557128362E+04  0.18738012816E+04  0.95000000000E+03 0.  0.
   -2000013    1    1    2    0    0 -0.57892629429E+03  0.96840251378E+03  0.46098402799E+03  0.15453042927E+04  0.95000000000E+03 0.  0.
<mgrwt>
<rscale>  0 0.33477806E+04</rscale>
<asrwt>0</asrwt>
<pdfrwt beam="1">  1        1 0.20956744E+00 0.33477806E+04</pdfrwt>
<pdfrwt beam="2">  1       -1 0.31644880E+00 0.33477806E+04</pdfrwt>
<totfact> 0.17422945E-01</totfact>
</mgrwt>
</event>
<event>
 4    1  0.2043502E-008  0.2458592E+04  0.7816531E-02  0.8417888E-01
         -2   -1    0    0    0  501 -0.00000000000E+00  0.00000000000E+00  0.85771315392E+03  0.85771315392E+03  0.00000000000E+00 0. -1.
          2   -1    0    0  501    0  0.00000000000E+00 -0.00000000000E+00 -0.17618576019E+04  0.17618576019E+04  0.00000000000E+00 0.  1.
    2000013    1    1    2    0    0 -0.76657718020E+03  0.93220977398E+01 -0.60625719851E+03  0.13630022984E+04  0.95000000000E+03 0.  0.
   -2000013    1    1    2    0    0  0.76657718020E+03 -0.93220977398E+01 -0.29788724944E+03  0.12565684574E+04  0.95000000000E+03 0.  0.
<mgrwt>
<rscale>  0 0.24585918E+04</rscale>
<asrwt>0</asrwt>
<pdfrwt beam="2">  1        2 0.27105502E+00 0.24585918E+04</pdfrwt>
<pdfrwt beam="1">  1       -2 0.13195587E+00 0.24585918E+04</pdfrwt>
<totfact> 0.33907507E+00</totfact>
</mgrwt>
</event>
<event>
 4    1  0.2043502E-008  0.2189450E+04  0.7816531E-02  0.8522832E-01
          1   -1    0    0  501    0  0.00000000000E+00  0.00000000000E+00  0.24356040208E+04  0.24356040208E+04  0.00000000000E+00 0.  1.
         -1   -1    0    0    0  501 -0.00000000000E+00 -0.00000000000E+00 -0.49204329529E+03  0.49204329529E+03  0.00000000000E+00 0. -1.
    2000013    1    1    2    0    0  0.19725880087E+03 -0.23681037905E+03  0.37239133492E+03  0.10659106419E+04  0.95000000000E+03 0.  0.
   -2000013    1    1    2    0    0 -0.19725880087E+03  0.23681037905E+03  0.15711693906E+04  0.18617366742E+04  0.95000000000E+03 0.  0.
<mgrwt>
<rscale>  0 0.21894498E+04</rscale>
<asrwt>0</asrwt>
<pdfrwt beam="1">  1        1 0.37470830E+00 0.21894498E+04</pdfrwt>
<pdfrwt beam="2">  1       -1 0.75698970E-01 0.21894498E+04</pdfrwt>
<totfact> 0.24022287E+00</totfact>
</mgrwt>
</event>
<event>
 4    1  0.2043502E-008  0.2307284E+04  0.7816531E-02  0.8475055E-01
          2   -1    0    0  501    0  0.00000000000E+00  0.00000000000E+00  0.19118080148E+04  0.19118080148E+04  0.00000000000E+00 0.  1.
         -2   -1    0    0    0  501 -0.00000000000E+00 -0.00000000000E+00 -0.69614174462E+03  0.69614174462E+03  0.00000000000E+00 0. -1.
    2000013    1    1    2    0    0 -0.60452751483E+03 -0.20057154257E+02  0.32517933522E+03  0.11722190093E+04  0.95000000000E+03 0.  0.
   -2000013    1    1    2    0    0  0.60452751483E+03  0.20057154257E+02  0.89048693499E+03  0.14357307502E+04  0.95000000000E+03 0.  0.
<mgrwt>
<rscale>  0 0.23072836E+04</rscale>
<asrwt>0</asrwt>
<pdfrwt beam="1">  1        2 0.29412431E+00 0.23072836E+04</pdfrwt>
<pdfrwt beam="2">  1       -2 0.10709873E+00 0.23072836E+04</pdfrwt>
<totfact> 0.47499280E+00</totfact>
</mgrwt>
</event>
<event>
 4    1  0.2043502E-008  0.2856019E+04  0.7816531E-02  0.8286085E-01
          2   -1    0    0  501    0  0.00000000000E+00  0.00000000000E+00  0.20722102896E+04  0.20722102896E+04  0.00000000000E+00 0.  1.
         -2   -1    0    0    0  501 -0.00000000000E+00 -0.00000000000E+00 -0.98407571041E+03  0.98407571041E+03  0.00000000000E+00 0. -1.
    2000013    1    1    2    0    0  0.96425687370E+03 -0.35119867454E+03  0.23469317547E+03  0.14179960205E+04  0.95000000000E+03 0.  0.
   -2000013    1    1    2    0    0 -0.96425687370E+03  0.35119867454E+03  0.85344140375E+03  0.16382899796E+04  0.95000000000E+03 0.  0.
<mgrwt>
<rscale>  0 0.28560195E+04</rscale>
<asrwt>0</asrwt>
<pdfrwt beam="1">  1        2 0.31880158E+00 0.28560195E+04</pdfrwt>
<pdfrwt beam="2">  1       -2 0.15139626E+00 0.28560195E+04</pdfrwt>
<totfact> 0.15420500E+00</totfact>
</mgrwt>
</event>
<event>
 4    1  0.2043502E-008  0.2267649E+04  0.7816531E-02  0.8490787E-01
          2   -1    0    0  501    0  0.00000000000E+00  0.00000000000E+00  0.16035272936E+04  0.16035272936E+04  0.00000000000E+00 0.  1.
         -2   -1    0    0    0  501 -0.00000000000E+00 -0.00000000000E+00 -0.80170659344E+03  0.80170659344E+03  0.00000000000E+00 0. -1.
    2000013    1    1    2    0    0  0.15625277307E+03  0.58085603520E+03  0.55552770383E+03  0.12541609516E+04  0.95000000000E+03 0.  0.
   -2000013    1    1    2    0    0 -0.15625277307E+03 -0.58085603520E+03  0.24629299633E+03  0.11510729355E+04  0.95000000000E+03 0.  0.
<mgrwt>
<rscale>  0 0.22676494E+04</rscale>
<asrwt>0</asrwt>
<pdfrwt beam="1">  1        2 0.24669651E+00 0.22676494E+04</pdfrwt>
<pdfrwt beam="2">  1       -2 0.12333948E+00 0.22676494E+04</pdfrwt>
<totfact> 0.50043239E+00</totfact>
</mgrwt>
</event>
<event>
 4    1  0.2043502E-008  0.2881501E+04  0.7816531E-02  0.8278403E-01
         -1   -1    0    0    0  501 -0.00000000000E+00  0.00000000000E+00  0.18326084421E+04  0.18326084421E+04  0.00000000000E+00 0. -1.
          1   -1    0    0  501    0  0.00000000000E+00 -0.00000000000E+00 -0.11326815719E+04  0.11326815719E+04  0.00000000000E+00 0.  1.
    2000013    1    1    2    0    0 -0.90234791088E+03  0.21371503643E+03  0.92602299402E+03  0.16186180694E+04  0.95000000000E+03 0.  0.
   -2000013    1    1    2    0    0  0.90234791088E+03 -0.21371503643E+03 -0.22609612378E+03  0.13466719446E+04  0.95000000000E+03 0.  0.
<mgrwt>
<rscale>  0 0.28815009E+04</rscale>
<asrwt>0</asrwt>
<pdfrwt beam="2">  1        1 0.17425870E+00 0.28815009E+04</pdfrwt>
<pdfrwt beam="1">  1       -1 0.28193976E+00 0.28815009E+04</pdfrwt>
<totfact> 0.44540188E-01</totfact>
</mgrwt>
</event>
<event>
 4    1  0.2043502E-008  0.2222910E+04  0.7816531E-02  0.8508952E-01
          2   -1    0    0  501    0  0.00000000000E+00  0.00000000000E+00  0.14639073684E+04  0.14639073684E+04  0.00000000000E+00 0. -1.
         -2   -1    0    0    0  501 -0.00000000000E+00 -0.00000000000E+00 -0.84385970650E+03  0.84385970650E+03  0.00000000000E+00 0.  1.
    2000013    1    1    2    0    0 -0.56987980803E+03  0.88121601559E+02  0.32812590178E+03  0.11587471768E+04  0.95000000000E+03 0.  0.
   -2000013    1    1    2    0    0  0.56987980803E+03 -0.88121601559E+02  0.29192176012E+03  0.11490198981E+04  0.95000000000E+03 0.  0.
<mgrwt>
<rscale>  0 0.22229102E+04</rscale>
<asrwt>0</asrwt>
<pdfrwt beam="1">  1        2 0.22521652E+00 0.22229102E+04</pdfrwt>
<pdfrwt beam="2">  1       -2 0.12982457E+00 0.22229102E+04</pdfrwt>
<totfact> 0.52910676E+00</totfact>
</mgrwt>
</event>
<event>
 4    1  0.2043502E-008  0.2843178E+04  0.7816531E-02  0.8289987E-01
         -2   -1    0    0    0  501 -0.00000000000E+00  0.00000000000E+00  0.97497121231E+03  0.97497121231E+03  0.00000000000E+00 0. -1.
          2   -1    0    0  501    0  0.00000000000E+00 -0.00000000000E+00 -0.20727942748E+04  0.20727942748E+04  0.00000000000E+00 0.  1.
    2000013    1    1    2    0    0 -0.46208804033E+03  0.39028815871E+03  0.38101669694E+03  0.11889171238E+04  0.95000000000E+03 0.  0.
   -2000013    1    1    2    0    0  0.46208804033E+03 -0.39028815871E+03 -0.14788397595E+04  0.18588483634E+04  0.95000000000E+03 0.  0.
<mgrwt>
<rscale>  0 0.28431776E+04</rscale>
<asrwt>0</asrwt>
<pdfrwt beam="2">  1        2 0.31889142E+00 0.28431776E+04</pdfrwt>
<pdfrwt beam="1">  1       -2 0.14999557E+00 0.28431776E+04</pdfrwt>
<totfact> 0.15810874E+00</totfact>
</mgrwt>
</event>
<event>
 4    1  0.2043502E-008  0.2037985E+04  0.7816531E-02  0.8589064E-01
          2   -1    0    0  501    0  0.00000000000E+00  0.00000000000E+00  0.59090937163E+03  0.59090937163E+03  0.00000000000E+00 0.  1.
         -2   -1    0    0    0  501 -0.00000000000E+00 -0.00000000000E+00 -0.17572001308E+04  0.17572001308E+04  0.00000000000E+00 0. -1.
    2000013    1    1    2    0    0 -0.32714890961E+03  0.31028234458E+02 -0.77544720903E+03  0.12695698226E+04  0.95000000000E+03 0.  0.
   -2000013    1    1    2    0    0  0.32714890961E+03 -0.31028234458E+02 -0.39084355017E+03  0.10785396799E+04  0.95000000000E+03 0.  0.
<mgrwt>
<rscale>  0 0.20379853E+04</rscale>
<asrwt>0</asrwt>
<pdfrwt beam="1">  1        2 0.90909137E-01 0.20379853E+04</pdfrwt>
<pdfrwt beam="2">  1       -2 0.27033847E+00 0.20379853E+04</pdfrwt>
<totfact> 0.22575734E+00</totfact>
</mgrwt>
</event>
<event>
 4    1  0.2043502E-008  0.2191337E+04  0.7816531E-02  0.8522043E-01
          2   -1    0    0  501    0  0.00000000000E+00  0.00000000000E+00  0.13569615460E+04  0.13569615460E+04  0.00000000000E+00 0.  1.
         -2   -1    0    0    0  501 -0.00000000000E+00 -0.00000000000E+00 -0.88468908350E+03  0.88468908350E+03  0.00000000000E+00 0. -1.
    2000013    1    1    2    0    0  0.21559617523E+03 -0.46575155781E+03  0.45901781001E+02  0.10807465928E+04  0.95000000000E+03 0.  0.
   -2000013    1    1    2    0    0 -0.21559617523E+03  0.46575155781E+03  0.42637068153E+03  0.11609040367E+04  0.95000000000E+03 0.  0.
<mgrwt>
<rscale>  0 0.21913366E+04</rscale>
<asrwt>0</asrwt>
<pdfrwt beam="1">  1        2 0.20876331E+00 0.21913366E+04</pdfrwt>
<pdfrwt beam="2">  1       -2 0.13610601E+00 0.21913366E+04</pdfrwt>
<totfact> 0.54147770E+00</totfact>
</mgrwt>
</event>
<event>
 4    1  0.2043502E-008  0.2958435E+04  0.7816531E-02  0.8255701E-01
          2   -1    0    0  501    0  0.00000000000E+00  0.00000000000E+00  0.22057138388E+04  0.22057138388E+04  0.00000000000E+00 0.  1.
         -2   -1    0    0    0  501 -0.00000000000E+00 -0.00000000000E+00 -0.99200739996E+03  0.99200739996E+03  0.00000000000E+00 0. -1.
    2000013    1    1    2    0    0 -0.19796619333E+03  0.10802129699E+04  0.91168087610E+03  0.17145590377E+04  0.95000000000E+03 0.  0.
   -2000013    1    1    2    0    0  0.19796619333E+03 -0.10802129699E+04  0.30202556269E+03  0.14831622010E+04  0.95000000000E+03 0.  0.
<mgrwt>
<rscale>  0 0.29584350E+04</rscale>
<asrwt>0</asrwt>
<pdfrwt beam="1">  1        2 0.33934059E+00 0.29584350E+04</pdfrwt>
<pdfrwt beam="2">  1       -2 0.15261652E+00 0.29584350E+04</pdfrwt>
<totfact> 0.12597612E+00</totfact>
</mgrwt>
</event>
<event>
 4    1  0.2043502E-008  0.2240406E+04  0.7816531E-02  0.8501796E-01
          2   -1    0    0  501    0  0.00000000000E+00  0.00000000000E+00  0.19997983210E+04  0.19997983210E+04  0.00000000000E+00 0.  1.
         -2   -1    0    0    0  501 -0.00000000000E+00 -0.00000000000E+00 -0.62749062523E+03  0.62749062523E+03  0.00000000000E+00 0. -1.
    2000013    1    1    2    0    0  0.43900699008E+03 -0.39695189626E+03  0.63297091978E+03  0.12858655181E+04  0.95000000000E+03 0.  0.
   -2000013    1    1    2    0    0 -0.43900699008E+03  0.39695189626E+03  0.73933677598E+03  0.13414234282E+04  0.95000000000E+03 0.  0.
<mgrwt>
<rscale>  0 0.22404059E+04</rscale>
<asrwt>0</asrwt>
<pdfrwt beam="1">  1        2 0.30766128E+00 0.22404059E+04</pdfrwt>
<pdfrwt beam="2">  1       -2 0.96537020E-01 0.22404059E+04</pdfrwt>
<totfact> 0.54644734E+00</totfact>
</mgrwt>
</event>
<event>
 4    1  0.2043502E-008  0.2433059E+04  0.7816531E-02  0.8427230E-01
         -2   -1    0    0    0  501 -0.00000000000E+00  0.00000000000E+00  0.65310729859E+03  0.65310729859E+03  0.00000000000E+00 0. -1.
          2   -1    0    0  501    0  0.00000000000E+00 -0.00000000000E+00 -0.22660040110E+04  0.22660040110E+04  0.00000000000E+00 0.  1.
    2000013    1    1    2    0    0 -0.26898398516E+03  0.44021175849E+03 -0.14758566509E+04  0.18294238521E+04  0.95000000000E+03 0.  0.
   -2000013    1    1    2    0    0  0.26898398516E+03 -0.44021175849E+03 -0.13704006151E+03  0.10896874575E+04  0.95000000000E+03 0.  0.
<mgrwt>
<rscale>  0 0.24330588E+04</rscale>
<asrwt>0</asrwt>
<pdfrwt beam="2">  1        2 0.34861600E+00 0.24330588E+04</pdfrwt>
<pdfrwt beam="1">  1       -2 0.10047805E+00 0.24330588E+04</pdfrwt>
<totfact> 0.34706432E+00</totfact>
</mgrwt>
</event>
<event>
 4    1  0.2043502E-008  0.2400480E+04  0.7816531E-02  0.8439324E-01
          2   -1    0    0  501    0  0.00000000000E+00  0.00000000000E+00  0.78639426398E+03  0.78639426398E+03  0.00000000000E+00 0.  1.
         -2   -1    0    0    0  501 -0.00000000000E+00 -0.00000000000E+00 -0.18318747917E+04  0.18318747917E+04  0.00000000000E+00 0. -1.
    2000013    1    1    2    0    0 -0.43688657357E+03  0.41652672118E+03 -0.97734130589E+03  0.14906577125E+04  0.95000000000E+03 0.  0.
   -2000013    1    1    2    0    0  0.43688657357E+03 -0.41652672118E+03 -0.68139221793E+02  0.11276113431E+04  0.95000000000E+03 0.  0.
<mgrwt>
<rscale>  0 0.24004798E+04</rscale>
<asrwt>0</asrwt>
<pdfrwt beam="1">  1        2 0.12098374E+00 0.24004798E+04</pdfrwt>
<pdfrwt beam="2">  1       -2 0.28182689E+00 0.24004798E+04</pdfrwt>
<totfact> 0.13007593E+00</totfact>
</mgrwt>
</event>
<event>
 4    1  0.2043502E-008  0.2163452E+04  0.7816531E-02  0.8533796E-01
          2   -1    0    0  501    0  0.00000000000E+00  0.00000000000E+00  0.15008240591E+04  0.15008240591E+04  0.00000000000E+00 0.  1.
         -2   -1    0    0    0  501 -0.00000000000E+00 -0.00000000000E+00 -0.77965902494E+03  0.77965902494E+03  0.00000000000E+00 0. -1.
    2000013    1    1    2    0    0  0.70671855809E+02 -0.50785056579E+03  0.43303428687E+03  0.11631532152E+04  0.95000000000E+03 0.  0.
   -2000013    1    1    2    0    0 -0.70671855809E+02  0.50785056579E+03  0.28813074733E+03  0.11173298689E+04  0.95000000000E+03 0.  0.
<mgrwt>
<rscale>  0 0.21634519E+04</rscale>
<asrwt>0</asrwt>
<pdfrwt beam="1">  1        2 0.23089601E+00 0.21634519E+04</pdfrwt>
<pdfrwt beam="2">  1       -2 0.11994754E+00 0.21634519E+04</pdfrwt>
<totfact> 0.61806521E+00</totfact>
</mgrwt>
</event>
<event>
 4    1  0.2043502E-008  0.2335276E+04  0.7816531E-02  0.8464141E-01
         -1   -1    0    0    0  501 -0.00000000000E+00  0.00000000000E+00  0.10615750182E+04  0.10615750182E+04  0.00000000000E+00 0.  1.
          1   -1    0    0  501    0  0.00000000000E+00 -0.00000000000E+00 -0.12842973347E+04  0.12842973347E+04  0.00000000000E+00 0. -1.
    2000013    1    1    2    0    0  0.52577703036E+03  0.42561966480E+03 -0.16893073811E+03  0.11784019599E+04  0.95000000000E+03 0.  0.
   -2000013    1    1    2    0    0 -0.52577703036E+03 -0.42561966480E+03 -0.53791578365E+02  0.11674703930E+04  0.95000000000E+03 0.  0.
<mgrwt>
<rscale>  0 0.23352755E+04</rscale>
<asrwt>0</asrwt>
<pdfrwt beam="2">  1        1 0.19758421E+00 0.23352755E+04</pdfrwt>
<pdfrwt beam="1">  1       -1 0.16331923E+00 0.23352755E+04</pdfrwt>
<totfact> 0.23078909E+00</totfact>
</mgrwt>
</event>
<event>
 4    1  0.2043502E-008  0.2741686E+04  0.7816531E-02  0.8321605E-01
          2   -1    0    0  501    0  0.00000000000E+00  0.00000000000E+00  0.23922127820E+04  0.23922127820E+04  0.00000000000E+00 0.  1.
         -2   -1    0    0    0  501 -0.00000000000E+00 -0.00000000000E+00 -0.78555311251E+03  0.78555311251E+03  0.00000000000E+00 0. -1.
    2000013    1    1    2    0    0 -0.77316083296E+03  0.34832538256E+03  0.13916026745E+04  0.18863102209E+04  0.95000000000E+03 0.  0.
   -2000013    1    1    2    0    0  0.77316083296E+03 -0.34832538256E+03  0.21505699496E+03  0.12914556736E+04  0.95000000000E+03 0.  0.
<mgrwt>
<rscale>  0 0.27416858E+04</rscale>
<asrwt>0</asrwt>
<pdfrwt beam="1">  1        2 0.36803273E+00 0.27416858E+04</pdfrwt>
<pdfrwt beam="2">  1       -2 0.12085433E+00 0.27416858E+04</pdfrwt>
<totfact> 0.18317695E+00</totfact>
</mgrwt>
</event>
<event>
 4    1  0.2043502E-008  0.2506980E+04  0.7816531E-02  0.8400503E-01
         -2   -1    0    0    0  501 -0.00000000000E+00  0.00000000000E+00  0.14169238529E+04  0.14169238529E+04  0.00000000000E+00 0. -1.
          2   -1    0    0  501    0  0.00000000000E+00 -0.00000000000E+00 -0.11089075836E+04  0.11089075836E+04  0.00000000000E+00 0.  1.
    2000013    1    1    2    0    0 -0.69951089555E+03 -0.72967920166E+02  0.57439590366E+03  0.13141805296E+04  0.95000000000E+03 0.  0.
   -2000013    1    1    2    0    0  0.69951089555E+03  0.72967920166E+02 -0.26637963438E+03  0.12116509068E+04  0.95000000000E+03 0.  0.
<mgrwt>
<rscale>  0 0.25069803E+04</rscale>
<asrwt>0</asrwt>
<pdfrwt beam="2">  1        2 0.17060116E+00 0.25069803E+04</pdfrwt>
<pdfrwt beam="1">  1       -2 0.21798829E+00 0.25069803E+04</pdfrwt>
<totfact> 0.19515629E+00</totfact>
</mgrwt>
</event>
<event>
 4    1  0.2043502E-008  0.2298351E+04  0.7816531E-02  0.8478571E-01
         -2   -1    0    0    0  501 -0.00000000000E+00  0.00000000000E+00  0.98996125002E+03  0.98996125002E+03  0.00000000000E+00 0. -1.
          2   -1    0    0  501    0  0.00000000000E+00 -0.00000000000E+00 -0.13339964416E+04  0.13339964416E+04  0.00000000000E+00 0.  1.
    2000013    1    1    2    0    0 -0.82668069410E+02  0.45455578334E+03  0.28540484462E+03  0.10942627176E+04  0.95000000000E+03 0.  0.
   -2000013    1    1    2    0    0  0.82668069410E+02 -0.45455578334E+03 -0.62944003620E+03  0.12296949740E+04  0.95000000000E+03 0.  0.
<mgrwt>
<rscale>  0 0.22983514E+04</rscale>
<asrwt>0</asrwt>
<pdfrwt beam="2">  1        2 0.20523022E+00 0.22983514E+04</pdfrwt>
<pdfrwt beam="1">  1       -2 0.15230173E+00 0.22983514E+04</pdfrwt>
<totfact> 0.41214037E+00</totfact>
</mgrwt>
</event>
<event>
 4    1  0.2043502E-008  0.2750653E+04  0.7816531E-02  0.8318754E-01
         -2   -1    0    0    0  501 -0.00000000000E+00  0.00000000000E+00  0.19423850462E+04  0.19423850462E+04  0.00000000000E+00 0.  1.
          2   -1    0    0  501    0  0.00000000000E+00 -0.00000000000E+00 -0.97381478301E+03  0.97381478301E+03  0.00000000000E+00 0. -1.
    2000013    1    1    2    0    0 -0.72467198282E+03 -0.27726556247E+03  0.11438166797E+04  0.16771530257E+04  0.95000000000E+03 0.  0.
   -2000013    1    1    2    0    0  0.72467198282E+03  0.27726556247E+03 -0.17524641649E+03  0.12390468035E+04  0.95000000000E+03 0.  0.
<mgrwt>
<rscale>  0 0.27506532E+04</rscale>
<asrwt>0</asrwt>
<pdfrwt beam="2">  1        2 0.14981766E+00 0.27506532E+04</pdfrwt>
<pdfrwt beam="1">  1       -2 0.29882847E+00 0.27506532E+04</pdfrwt>
<totfact> 0.73940954E-01</totfact>
</mgrwt>
</event>
<event>
 4    1  0.2043502E-008  0.2651856E+04  0.7816531E-02  0.8350797E-01
         -2   -1    0    0    0  501 -0.00000000000E+00  0.00000000000E+00  0.11340984692E+04  0.11340984692E+04  0.00000000000E+00 0. -1.
          2   -1    0    0  501    0  0.00000000000E+00 -0.00000000000E+00 -0.15502047881E+04  0.15502047881E+04  0.00000000000E+00 0.  1.
    2000013    1    1    2    0    0  0.88873217105E+03 -0.11562120535E+03 -0.43970202332E+03  0.13780605953E+04  0.95000000000E+03 0.  0.
   -2000013    1    1    2    0    0 -0.88873217105E+03  0.11562120535E+03  0.23595704421E+02  0.13062426621E+04  0.95000000000E+03 0.  0.
<mgrwt>
<rscale>  0 0.26518559E+04</rscale>
<asrwt>0</asrwt>
<pdfrwt beam="2">  1        2 0.23849305E+00 0.26518559E+04</pdfrwt>
<pdfrwt beam="1">  1       -2 0.17447669E+00 0.26518559E+04</pdfrwt>
<totfact> 0.20759706E+00</totfact>
</mgrwt>
</event>
<event>
 4    1  0.2043502E-008  0.3086035E+04  0.7816531E-02  0.8219581E-01
          2   -1    0    0  501    0  0.00000000000E+00  0.00000000000E+00  0.34109873870E+04  0.34109873870E+04  0.00000000000E+00 0.  1.
         -2   -1    0    0    0  501 -0.00000000000E+00 -0.00000000000E+00 -0.69800976085E+03  0.69800976085E+03  0.00000000000E+00 0. -1.
    2000013    1    1    2    0    0  0.72701208386E+03  0.78550006612E+03  0.58832043086E+03  0.15473131077E+04  0.95000000000E+03 0.  0.
   -2000013    1    1    2    0    0 -0.72701208386E+03 -0.78550006612E+03  0.21246571953E+04  0.25616840401E+04  0.95000000000E+03 0.  0.
<mgrwt>
<rscale>  0 0.30860347E+04</rscale>
<asrwt>0</asrwt>
<pdfrwt beam="1">  1        2 0.52476728E+00 0.30860347E+04</pdfrwt>
<pdfrwt beam="2">  1       -2 0.10738612E+00 0.30860347E+04</pdfrwt>
<totfact> 0.55409286E-01</totfact>
</mgrwt>
</event>
<event>
 4    1  0.2043502E-008  0.2365198E+04  0.7816531E-02  0.8452649E-01
         -2   -1    0    0    0  501 -0.00000000000E+00  0.00000000000E+00  0.76507685106E+03  0.76507685106E+03  0.00000000000E+00 0. -1.
          2   -1    0    0  501    0  0.00000000000E+00 -0.00000000000E+00 -0.18279735986E+04  0.18279735986E+04  0.00000000000E+00 0.  1.
    2000013    1    1    2    0    0 -0.34789657083E+03  0.27044102605E+03  0.70907839619E+02  0.10496181659E+04  0.95000000000E+03 0.  0.
   -2000013    1    1    2    0    0  0.34789657083E+03 -0.27044102605E+03 -0.11338045872E+04  0.15434322838E+04  0.95000000000E+03 0.  0.
<mgrwt>
<rscale>  0 0.23651979E+04</rscale>
<asrwt>0</asrwt>
<pdfrwt beam="2">  1        2 0.28122671E+00 0.23651979E+04</pdfrwt>
<pdfrwt beam="1">  1       -2 0.11770413E+00 0.23651979E+04</pdfrwt>
<totfact> 0.41823982E+00</totfact>
</mgrwt>
</event>
<event>
 4    1  0.2043502E-008  0.2320741E+04  0.7816531E-02  0.8469788E-01
         -2   -1    0    0    0  501 -0.00000000000E+00  0.00000000000E+00  0.17093505650E+04  0.17093505650E+04  0.00000000000E+00 0. -1.
          2   -1    0    0  501    0  0.00000000000E+00 -0.00000000000E+00 -0.78770258731E+03  0.78770258731E+03  0.00000000000E+00 0.  1.
    2000013    1    1    2    0    0  0.40389105217E+03 -0.37193237911E+03  0.86699203437E+03  0.13984408691E+04  0.95000000000E+03 0.  0.
   -2000013    1    1    2    0    0 -0.40389105217E+03  0.37193237911E+03  0.54655943288E+02  0.10986122832E+04  0.95000000000E+03 0.  0.
<mgrwt>
<rscale>  0 0.23207411E+04</rscale>
<asrwt>0</asrwt>
<pdfrwt beam="2">  1        2 0.12118501E+00 0.23207411E+04</pdfrwt>
<pdfrwt beam="1">  1       -2 0.26297701E+00 0.23207411E+04</pdfrwt>
<totfact> 0.17025728E+00</totfact>
</mgrwt>
</event>
<event>
 4    1  0.2043502E-008  0.3276330E+04  0.7816531E-02  0.8168944E-01
          2   -1    0    0  501    0  0.00000000000E+00  0.00000000000E+00  0.90959666212E+03  0.90959666212E+03  0.00000000000E+00 0.  1.
         -2   -1    0    0    0  501 -0.00000000000E+00 -0.00000000000E+00 -0.29503021253E+04  0.29503021253E+04  0.00000000000E+00 0. -1.
    2000013    1    1    2    0    0  0.74758350861E+03  0.10703917292E+04 -0.13461299829E+04  0.21021858831E+04  0.95000000000E+03 0.  0.
   -2000013    1    1    2    0    0 -0.74758350861E+03 -0.10703917292E+04 -0.69457548032E+03  0.17577129044E+04  0.95000000000E+03 0.  0.
<mgrwt>
<rscale>  0 0.32763302E+04</rscale>
<asrwt>0</asrwt>
<pdfrwt beam="1">  1        2 0.13993795E+00 0.32763302E+04</pdfrwt>
<pdfrwt beam="2">  1       -2 0.45389264E+00 0.32763302E+04</pdfrwt>
<totfact> 0.78961436E-02</totfact>
</mgrwt>
</event>
<event>
 4    1  0.2043502E-008  0.2445743E+04  0.7816531E-02  0.8422574E-01
          2   -1    0    0  501    0  0.00000000000E+00  0.00000000000E+00  0.15792654802E+04  0.15792654802E+04  0.00000000000E+00 0.  1.
         -2   -1    0    0    0  501 -0.00000000000E+00 -0.00000000000E+00 -0.94690504265E+03  0.94690504265E+03  0.00000000000E+00 0. -1.
    2000013    1    1    2    0    0  0.67842100784E+03  0.23773987329E+03  0.31173004869E+02  0.11917411915E+04  0.95000000000E+03 0.  0.
   -2000013    1    1    2    0    0 -0.67842100784E+03 -0.23773987329E+03  0.60118743268E+03  0.13344293314E+04  0.95000000000E+03 0.  0.
<mgrwt>
<rscale>  0 0.24457428E+04</rscale>
<asrwt>0</asrwt>
<pdfrwt beam="1">  1        2 0.24296392E+00 0.24457428E+04</pdfrwt>
<pdfrwt beam="2">  1       -2 0.14567770E+00 0.24457428E+04</pdfrwt>
<totfact> 0.33220545E+00</totfact>
</mgrwt>
</event>
<event>
 4    1  0.2043502E-008  0.3658920E+04  0.7816531E-02  0.8077127E-01
          2   -1    0    0  501    0  0.00000000000E+00  0.00000000000E+00  0.21610707164E+04  0.21610707164E+04  0.00000000000E+00 0.  1.
         -2   -1    0    0    0  501 -0.00000000000E+00 -0.00000000000E+00 -0.15487342060E+04  0.15487342060E+04  0.00000000000E+00 0. -1.
    2000013    1    1    2    0    0  0.15559534060E+04 -0.43310089614E+02  0.45503444672E+03  0.18794741587E+04  0.95000000000E+03 0.  0.
   -2000013    1    1    2    0    0 -0.15559534060E+04  0.43310089614E+02  0.15730206366E+03  0.18303307637E+04  0.95000000000E+03 0.  0.
<mgrwt>
<rscale>  0 0.36589201E+04</rscale>
<asrwt>0</asrwt>
<pdfrwt beam="1">  1        2 0.33247242E+00 0.36589201E+04</pdfrwt>
<pdfrwt beam="2">  1       -2 0.23826680E+00 0.36589201E+04</pdfrwt>
<totfact> 0.33449384E-01</totfact>
</mgrwt>
</event>
<event>
 4    1  0.2043502E-008  0.3055015E+04  0.7816531E-02  0.8228193E-01
         -2   -1    0    0    0  501 -0.00000000000E+00  0.00000000000E+00  0.15561537671E+04  0.15561537671E+04  0.00000000000E+00 0. -1.
          2   -1    0    0  501    0  0.00000000000E+00 -0.00000000000E+00 -0.14993884987E+04  0.14993884987E+04  0.00000000000E+00 0.  1.
    2000013    1    1    2    0    0 -0.92760105619E+03 -0.64450471864E+03  0.42208620980E+03  0.15350852811E+04  0.95000000000E+03 0.  0.
   -2000013    1    1    2    0    0  0.92760105619E+03  0.64450471864E+03 -0.36532094141E+03  0.15204569846E+04  0.95000000000E+03 0.  0.
<mgrwt>
<rscale>  0 0.30550149E+04</rscale>
<asrwt>0</asrwt>
<pdfrwt beam="2">  1        2 0.23067516E+00 0.30550149E+04</pdfrwt>
<pdfrwt beam="1">  1       -2 0.23940827E+00 0.30550149E+04</pdfrwt>
<totfact> 0.80875886E-01</totfact>
</mgrwt>
</event>
<event>
 4    1  0.2043502E-008  0.2245493E+04  0.7816531E-02  0.8499728E-01
         -2   -1    0    0    0  501 -0.00000000000E+00  0.00000000000E+00  0.55379007361E+03  0.55379007361E+03  0.00000000000E+00 0. -1.
          2   -1    0    0  501    0  0.00000000000E+00 -0.00000000000E+00 -0.22762414723E+04  0.22762414723E+04  0.00000000000E+00 0.  1.
    2000013    1    1    2    0    0  0.15219669217E+03  0.57773491651E+03 -0.90337504723E+03  0.14406692691E+04  0.95000000000E+03 0.  0.
   -2000013    1    1    2    0    0 -0.15219669217E+03 -0.57773491651E+03 -0.81907635148E+03  0.13893622769E+04  0.95000000000E+03 0.  0.
<mgrwt>
<rscale>  0 0.22454932E+04</rscale>
<asrwt>0</asrwt>
<pdfrwt beam="2">  1        2 0.35019100E+00 0.22454932E+04</pdfrwt>
<pdfrwt beam="1">  1       -2 0.85198472E-01 0.22454932E+04</pdfrwt>
<totfact> 0.51034391E+00</totfact>
</mgrwt>
</event>
<event>
 4    1  0.2043502E-008  0.2214225E+04  0.7816531E-02  0.8512531E-01
          2   -1    0    0  501    0  0.00000000000E+00  0.00000000000E+00  0.13627216372E+04  0.13627216372E+04  0.00000000000E+00 0.  1.
         -2   -1    0    0    0  501 -0.00000000000E+00 -0.00000000000E+00 -0.89944835607E+03  0.89944835607E+03  0.00000000000E+00 0. -1.
    2000013    1    1    2    0    0 -0.28562436052E+03 -0.83142915860E+02 -0.26331587180E+03  0.10297229084E+04  0.95000000000E+03 0.  0.
   -2000013    1    1    2    0    0  0.28562436052E+03  0.83142915860E+02  0.72658915293E+03  0.12324470848E+04  0.95000000000E+03 0.  0.
<mgrwt>
<rscale>  0 0.22142247E+04</rscale>
<asrwt>0</asrwt>
<pdfrwt beam="1">  1        2 0.20964948E+00 0.22142247E+04</pdfrwt>
<pdfrwt beam="2">  1       -2 0.13837667E+00 0.22142247E+04</pdfrwt>
<totfact> 0.51391602E+00</totfact>
</mgrwt>
</event>
<event>
 4    1  0.2043502E-008  0.2546317E+04  0.7816531E-02  0.8386668E-01
          2   -1    0    0  501    0  0.00000000000E+00  0.00000000000E+00  0.93542871387E+03  0.93542871387E+03  0.00000000000E+00 0.  1.
         -2   -1    0    0    0  501 -0.00000000000E+00 -0.00000000000E+00 -0.17328233619E+04  0.17328233619E+04  0.00000000000E+00 0. -1.
    2000013    1    1    2    0    0 -0.49471439458E+03  0.65394512798E+03 -0.62355675274E+03  0.14013242260E+04  0.95000000000E+03 0.  0.
   -2000013    1    1    2    0    0  0.49471439458E+03 -0.65394512798E+03 -0.17383789530E+03  0.12669278497E+04  0.95000000000E+03 0.  0.
<mgrwt>
<rscale>  0 0.25463171E+04</rscale>
<asrwt>0</asrwt>
<pdfrwt beam="1">  1        2 0.14391211E+00 0.25463171E+04</pdfrwt>
<pdfrwt beam="2">  1       -2 0.26658821E+00 0.25463171E+04</pdfrwt>
<totfact> 0.12541084E+00</totfact>
</mgrwt>
</event>
<event>
 4    1  0.2043502E-008  0.2224756E+04  0.7816531E-02  0.8508194E-01
          2   -1    0    0  501    0  0.00000000000E+00  0.00000000000E+00  0.14247311044E+04  0.14247311044E+04  0.00000000000E+00 0.  1.
         -2   -1    0    0    0  501 -0.00000000000E+00 -0.00000000000E+00 -0.86850383053E+03  0.86850383053E+03  0.00000000000E+00 0. -1.
    2000013    1    1    2    0    0  0.37232661290E+03 -0.44273136441E+03  0.29428914138E+03  0.11505408582E+04  0.95000000000E+03 0.  0.
   -2000013    1    1    2    0    0 -0.37232661290E+03  0.44273136441E+03  0.26193813251E+03  0.11426940767E+04  0.95000000000E+03 0.  0.
<mgrwt>
<rscale>  0 0.22247556E+04</rscale>
<asrwt>0</asrwt>
<pdfrwt beam="1">  1        2 0.21918940E+00 0.22247556E+04</pdfrwt>
<pdfrwt beam="2">  1       -2 0.13361597E+00 0.22247556E+04</pdfrwt>
<totfact> 0.51760569E+00</totfact>
</mgrwt>
</event>
<event>
 4    1  0.2043502E-008  0.2290612E+04  0.7816531E-02  0.8481632E-01
         -2   -1    0    0    0  501 -0.00000000000E+00  0.00000000000E+00  0.90532270286E+03  0.90532270286E+03  0.00000000000E+00 0. -1.
          2   -1    0    0  501    0  0.00000000000E+00 -0.00000000000E+00 -0.14489038080E+04  0.14489038080E+04  0.00000000000E+00 0.  1.
    2000013    1    1    2    0    0  0.33757956650E+03 -0.41279826136E+03  0.91382736814E+02  0.10932580541E+04  0.95000000000E+03 0.  0.
   -2000013    1    1    2    0    0 -0.33757956650E+03  0.41279826136E+03 -0.63496384196E+03  0.12609684567E+04  0.95000000000E+03 0.  0.
<mgrwt>
<rscale>  0 0.22906117E+04</rscale>
<asrwt>0</asrwt>
<pdfrwt beam="2">  1        2 0.22290828E+00 0.22906117E+04</pdfrwt>
<pdfrwt beam="1">  1       -2 0.13928042E+00 0.22906117E+04</pdfrwt>
<totfact> 0.44823286E+00</totfact>
</mgrwt>
</event>
<event>
 4    1  0.2043502E-008  0.2211604E+04  0.7816531E-02  0.8513614E-01
          2   -1    0    0  501    0  0.00000000000E+00  0.00000000000E+00  0.54397532736E+03  0.54397532736E+03  0.00000000000E+00 0.  1.
         -2   -1    0    0    0  501 -0.00000000000E+00 -0.00000000000E+00 -0.22478916841E+04  0.22478916841E+04  0.00000000000E+00 0. -1.
    2000013    1    1    2    0    0 -0.47410920466E+03  0.28935893825E+03 -0.98902577438E+03  0.14795878195E+04  0.95000000000E+03 0.  0.
   -2000013    1    1    2    0    0  0.47410920466E+03 -0.28935893825E+03 -0.71489058240E+03  0.13122791921E+04  0.95000000000E+03 0.  0.
<mgrwt>
<rscale>  0 0.22116036E+04</rscale>
<asrwt>0</asrwt>
<pdfrwt beam="1">  1        2 0.83688514E-01 0.22116036E+04</pdfrwt>
<pdfrwt beam="2">  1       -2 0.34582948E+00 0.22116036E+04</pdfrwt>
<totfact> 0.84292456E-01</totfact>
</mgrwt>
</event>
<event>
 4    1  0.2043502E-008  0.2329394E+04  0.7816531E-02  0.8466421E-01
          2   -1    0    0  501    0  0.00000000000E+00  0.00000000000E+00  0.99060385882E+03  0.99060385882E+03  0.00000000000E+00 0.  1.
         -2   -1    0    0    0  501 -0.00000000000E+00 -0.00000000000E+00 -0.13693862129E+04  0.13693862129E+04  0.00000000000E+00 0. -1.
    2000013    1    1    2    0    0  0.54359213390E+03  0.39405713136E+03 -0.24711172915E+03  0.11892592810E+04  0.95000000000E+03 0.  0.
   -2000013    1    1    2    0    0 -0.54359213390E+03 -0.39405713136E+03 -0.13167062492E+03  0.11707307907E+04  0.95000000000E+03 0.  0.
<mgrwt>
<rscale>  0 0.23293941E+04</rscale>
<asrwt>0</asrwt>
<pdfrwt beam="1">  1        2 0.15240059E+00 0.23293941E+04</pdfrwt>
<pdfrwt beam="2">  1       -2 0.21067480E+00 0.23293941E+04</pdfrwt>
<totfact> 0.26184094E+00</totfact>
</mgrwt>
</event>
<event>
 4    1  0.2043502E-008  0.3406293E+04  0.7816531E-02  0.8136364E-01
          2   -1    0    0  501    0  0.00000000000E+00  0.00000000000E+00  0.28055936088E+04  0.28055936088E+04  0.00000000000E+00 0.  1.
         -2   -1    0    0    0  501 -0.00000000000E+00 -0.00000000000E+00 -0.10339015894E+04  0.10339015894E+04  0.00000000000E+00 0. -1.
    2000013    1    1    2    0    0  0.11561946258E+04 -0.10882586365E+03 -0.22618587559E+02  0.15005467943E+04  0.95000000000E+03 0.  0.
   -2000013    1    1    2    0    0 -0.11561946258E+04  0.10882586365E+03  0.17943106070E+04  0.23389484038E+04  0.95000000000E+03 0.  0.
<mgrwt>
<rscale>  0 0.34062928E+04</rscale>
<asrwt>0</asrwt>
<pdfrwt beam="1">  1        2 0.43162978E+00 0.34062928E+04</pdfrwt>
<pdfrwt beam="2">  1       -2 0.15906178E+00 0.34062928E+04</pdfrwt>
<totfact> 0.48605225E-01</totfact>
</mgrwt>
</event>
<event>
 4    1  0.2043502E-008  0.2036797E+04  0.7816531E-02  0.8589607E-01
         -2   -1    0    0    0  501 -0.00000000000E+00  0.00000000000E+00  0.35402175391E+03  0.35402175391E+03  0.00000000000E+00 0. -1.
          2   -1    0    0  501    0  0.00000000000E+00 -0.00000000000E+00 -0.29295816499E+04  0.29295816499E+04  0.00000000000E+00 0.  1.
    2000013    1    1    2    0    0 -0.17651123209E+03  0.24423457182E+03 -0.16252872501E+04  0.19065322936E+04  0.95000000000E+03 0.  0.
   -2000013    1    1    2    0    0  0.17651123209E+03 -0.24423457182E+03 -0.95027264588E+03  0.13770711102E+04  0.95000000000E+03 0.  0.
<mgrwt>
<rscale>  0 0.20367971E+04</rscale>
<asrwt>0</asrwt>
<pdfrwt beam="2">  1        2 0.45070485E+00 0.20367971E+04</pdfrwt>
<pdfrwt beam="1">  1       -2 0.54464887E-01 0.20367971E+04</pdfrwt>
<totfact> 0.56718575E+00</totfact>
</mgrwt>
</event>
<event>
 4    1  0.2043502E-008  0.3092549E+04  0.7816531E-02  0.8217786E-01
         -2   -1    0    0    0  501 -0.00000000000E+00  0.00000000000E+00  0.10583561997E+04  0.10583561997E+04  0.00000000000E+00 0. -1.
          2   -1    0    0  501    0  0.00000000000E+00 -0.00000000000E+00 -0.22591304726E+04  0.22591304726E+04  0.00000000000E+00 0.  1.
    2000013    1    1    2    0    0 -0.52723300114E+02  0.10329732043E+04  0.93707767025E+02  0.14075135995E+04  0.95000000000E+03 0.  0.
   -2000013    1    1    2    0    0  0.52723300114E+02 -0.10329732043E+04 -0.12944820399E+04  0.19099730728E+04  0.95000000000E+03 0.  0.
<mgrwt>
<rscale>  0 0.30925489E+04</rscale>
<asrwt>0</asrwt>
<pdfrwt beam="2">  1        2 0.34755853E+00 0.30925489E+04</pdfrwt>
<pdfrwt beam="1">  1       -2 0.16282403E+00 0.30925489E+04</pdfrwt>
<totfact> 0.97545146E-01</totfact>
</mgrwt>
</event>
<event>
 4    1  0.2043502E-008  0.2822377E+04  0.7816531E-02  0.8296355E-01
          2   -1    0    0  501    0  0.00000000000E+00  0.00000000000E+00  0.22092040475E+04  0.22092040475E+04  0.00000000000E+00 0.  1.
         -2   -1    0    0    0  501 -0.00000000000E+00 -0.00000000000E+00 -0.90143477662E+03  0.90143477662E+03  0.00000000000E+00 0. -1.
    2000013    1    1    2    0    0 -0.37901795766E+03 -0.81735799207E+03  0.12341818031E+04  0.17992869206E+04  0.95000000000E+03 0.  0.
   -2000013    1    1    2    0    0  0.37901795766E+03  0.81735799207E+03  0.73587467740E+02  0.13113519035E+04  0.95000000000E+03 0.  0.
<mgrwt>
<rscale>  0 0.28223773E+04</rscale>
<asrwt>0</asrwt>
<pdfrwt beam="1">  1        2 0.33987754E+00 0.28223773E+04</pdfrwt>
<pdfrwt beam="2">  1       -2 0.13868227E+00 0.28223773E+04</pdfrwt>
<totfact> 0.16312687E+00</totfact>
</mgrwt>
</event>
<event>
 4    1  0.2043502E-008  0.2781699E+04  0.7816531E-02  0.8308973E-01
         -2   -1    0    0    0  501 -0.00000000000E+00  0.00000000000E+00  0.69183351538E+03  0.69183351538E+03  0.00000000000E+00 0. -1.
          2   -1    0    0  501    0  0.00000000000E+00 -0.00000000000E+00 -0.27961384168E+04  0.27961384168E+04  0.00000000000E+00 0.  1.
    2000013    1    1    2    0    0  0.85032530304E+03  0.38215299923E+03 -0.54611687686E+03  0.14386930454E+04  0.95000000000E+03 0.  0.
   -2000013    1    1    2    0    0 -0.85032530304E+03 -0.38215299923E+03 -0.15581880246E+04  0.20492788868E+04  0.95000000000E+03 0.  0.
<mgrwt>
<rscale>  0 0.27816990E+04</rscale>
<asrwt>0</asrwt>
<pdfrwt beam="2">  1        2 0.43017514E+00 0.27816990E+04</pdfrwt>
<pdfrwt beam="1">  1       -2 0.10643592E+00 0.27816990E+04</pdfrwt>
<totfact> 0.14409027E+00</totfact>
</mgrwt>
</event>
<event>
 4    1  0.2043502E-008  0.2782513E+04  0.7816531E-02  0.8308718E-01
         -2   -1    0    0    0  501 -0.00000000000E+00  0.00000000000E+00  0.13414301157E+04  0.13414301157E+04  0.00000000000E+00 0. -1.
          2   -1    0    0  501    0  0.00000000000E+00 -0.00000000000E+00 -0.14429334889E+04  0.14429334889E+04  0.00000000000E+00 0.  1.
    2000013    1    1    2    0    0  0.91076643484E+03  0.43927693723E+03 -0.15394501196E+03  0.13959436927E+04  0.95000000000E+03 0.  0.
   -2000013    1    1    2    0    0 -0.91076643484E+03 -0.43927693723E+03  0.52441638785E+02  0.13884199119E+04  0.95000000000E+03 0.  0.
<mgrwt>
<rscale>  0 0.27825128E+04</rscale>
<asrwt>0</asrwt>
<pdfrwt beam="2">  1        2 0.22198977E+00 0.27825128E+04</pdfrwt>
<pdfrwt beam="1">  1       -2 0.20637386E+00 0.27825128E+04</pdfrwt>
<totfact> 0.14403786E+00</totfact>
</mgrwt>
</event>
<event>
 4    1  0.2043502E-008  0.4363793E+04  0.7816531E-02  0.7934926E-01
         -2   -1    0    0    0  501 -0.00000000000E+00  0.00000000000E+00  0.24348638697E+04  0.24348638697E+04  0.00000000000E+00 0. -1.
          2   -1    0    0  501    0  0.00000000000E+00 -0.00000000000E+00 -0.19552106824E+04  0.19552106824E+04  0.00000000000E+00 0.  1.
    2000013    1    1    2    0    0 -0.10920551846E+04  0.15510413521E+04  0.75265947248E+03  0.22510686537E+04  0.95000000000E+03 0.  0.
   -2000013    1    1    2    0    0  0.10920551846E+04 -0.15510413521E+04 -0.27300628519E+03  0.21390058985E+04  0.95000000000E+03 0.  0.
<mgrwt>
<rscale>  0 0.43637928E+04</rscale>
<asrwt>0</asrwt>
<pdfrwt beam="2">  1        2 0.30080164E+00 0.43637928E+04</pdfrwt>
<pdfrwt beam="1">  1       -2 0.37459444E+00 0.43637928E+04</pdfrwt>
<totfact> 0.58795302E-02</totfact>
</mgrwt>
</event>
<event>
 4    1  0.2043502E-008  0.3016101E+04  0.7816531E-02  0.8239148E-01
         -2   -1    0    0    0  501 -0.00000000000E+00  0.00000000000E+00  0.14552267545E+04  0.14552267545E+04  0.00000000000E+00 0. -1.
          2   -1    0    0  501    0  0.00000000000E+00 -0.00000000000E+00 -0.15627916654E+04  0.15627916654E+04  0.00000000000E+00 0.  1.
    2000013    1    1    2    0    0  0.98607455429E+03 -0.46628440087E+03 -0.48061204316E+03  0.15242218031E+04  0.95000000000E+03 0.  0.
   -2000013    1    1    2    0    0 -0.98607455429E+03  0.46628440087E+03  0.37304713226E+03  0.14937966167E+04  0.95000000000E+03 0.  0.
<mgrwt>
<rscale>  0 0.30161010E+04</rscale>
<asrwt>0</asrwt>
<pdfrwt beam="2">  1        2 0.24042949E+00 0.30161010E+04</pdfrwt>
<pdfrwt beam="1">  1       -2 0.22388104E+00 0.30161010E+04</pdfrwt>
<totfact> 0.93440716E-01</totfact>
</mgrwt>
</event>
<event>
 4    1  0.2043502E-008  0.2137141E+04  0.7816531E-02  0.8545057E-01
          2   -1    0    0  501    0  0.00000000000E+00  0.00000000000E+00  0.28258265171E+04  0.28258265171E+04  0.00000000000E+00 0.  1.
         -2   -1    0    0    0  501 -0.00000000000E+00 -0.00000000000E+00 -0.40407384654E+03  0.40407384654E+03  0.00000000000E+00 0. -1.
    2000013    1    1    2    0    0 -0.32887114899E+03  0.73149159625E+02  0.67476165358E+03  0.12129758123E+04  0.95000000000E+03 0.  0.
   -2000013    1    1    2    0    0  0.32887114899E+03 -0.73149159625E+02  0.17469910170E+04  0.20169245513E+04  0.95000000000E+03 0.  0.
<mgrwt>
<rscale>  0 0.21371407E+04</rscale>
<asrwt>0</asrwt>
<pdfrwt beam="1">  1        2 0.43474253E+00 0.21371407E+04</pdfrwt>
<pdfrwt beam="2">  1       -2 0.62165209E-01 0.21371407E+04</pdfrwt>
<totfact> 0.49271193E+00</totfact>
</mgrwt>
</event>
<event>
 4    1  0.2043502E-008  0.3874573E+04  0.7816531E-02  0.8030338E-01
          2   -1    0    0  501    0  0.00000000000E+00  0.00000000000E+00  0.29966467548E+04  0.29966467548E+04  0.00000000000E+00 0.  1.
         -2   -1    0    0    0  501 -0.00000000000E+00 -0.00000000000E+00 -0.12524262626E+04  0.12524262626E+04  0.00000000000E+00 0. -1.
    2000013    1    1    2    0    0  0.99766571934E+03 -0.73851445373E+03 -0.38299236722E+03  0.16093239696E+04  0.95000000000E+03 0.  0.
   -2000013    1    1    2    0    0 -0.99766571934E+03  0.73851445373E+03  0.21272128594E+04  0.26397490478E+04  0.95000000000E+03 0.  0.
<mgrwt>
<rscale>  0 0.38745731E+04</rscale>
<asrwt>0</asrwt>
<pdfrwt beam="1">  1        2 0.46102258E+00 0.38745731E+04</pdfrwt>
<pdfrwt beam="2">  1       -2 0.19268096E+00 0.38745731E+04</pdfrwt>
<totfact> 0.20723650E-01</totfact>
</mgrwt>
</event>
<event>
 4    1  0.2043502E-008  0.2121096E+04  0.7816531E-02  0.8552007E-01
          1   -1    0    0  501    0  0.00000000000E+00  0.00000000000E+00  0.93420407276E+03  0.93420407276E+03  0.00000000000E+00 0.  1.
         -1   -1    0    0    0  501 -0.00000000000E+00 -0.00000000000E+00 -0.12039787118E+04  0.12039787118E+04  0.00000000000E+00 0. -1.
    2000013    1    1    2    0    0  0.94103213182E+02 -0.45740602636E+03 -0.20010882541E+03  0.10773203932E+04  0.95000000000E+03 0.  0.
   -2000013    1    1    2    0    0 -0.94103213182E+02  0.45740602636E+03 -0.69665813605E+02  0.10608623913E+04  0.95000000000E+03 0.  0.
<mgrwt>
<rscale>  0 0.21210958E+04</rscale>
<asrwt>0</asrwt>
<pdfrwt beam="1">  1        1 0.14372370E+00 0.21210958E+04</pdfrwt>
<pdfrwt beam="2">  1       -1 0.18522749E+00 0.21210958E+04</pdfrwt>
<totfact> 0.29917091E+00</totfact>
</mgrwt>
</event>
<event>
 4    1  0.2043502E-008  0.1960742E+04  0.7816531E-02  0.8625198E-01
         -2   -1    0    0    0  501 -0.00000000000E+00  0.00000000000E+00  0.54239214206E+03  0.54239214206E+03  0.00000000000E+00 0. -1.
          2   -1    0    0  501    0  0.00000000000E+00 -0.00000000000E+00 -0.17720155543E+04  0.17720155543E+04  0.00000000000E+00 0.  1.
    2000013    1    1    2    0    0 -0.68199414972E+02 -0.93981828180E+02 -0.36401758575E+03  0.10239592506E+04  0.95000000000E+03 0.  0.
   -2000013    1    1    2    0    0  0.68199414972E+02  0.93981828180E+02 -0.86560582650E+03  0.12904484457E+04  0.95000000000E+03 0.  0.
<mgrwt>
<rscale>  0 0.19607420E+04</rscale>
<asrwt>0</asrwt>
<pdfrwt beam="2">  1        2 0.27261778E+00 0.19607420E+04</pdfrwt>
<pdfrwt beam="1">  1       -2 0.83444945E-01 0.19607420E+04</pdfrwt>
<totfact> 0.10473229E+01</totfact>
</mgrwt>
</event>
<event>
 4    1  0.2043502E-008  0.2194681E+04  0.7816531E-02  0.8520645E-01
          2   -1    0    0  501    0  0.00000000000E+00  0.00000000000E+00  0.19076129360E+04  0.19076129360E+04  0.00000000000E+00 0.  1.
         -2   -1    0    0    0  501 -0.00000000000E+00 -0.00000000000E+00 -0.63123731375E+03  0.63123731375E+03  0.00000000000E+00 0. -1.
    2000013    1    1    2    0    0  0.49172055666E+03  0.19456987439E+03  0.46656504565E+03  0.11831438981E+04  0.95000000000E+03 0.  0.
   -2000013    1    1    2    0    0 -0.49172055666E+03 -0.19456987439E+03  0.80981057662E+03  0.13557063516E+04  0.95000000000E+03 0.  0.
<mgrwt>
<rscale>  0 0.21946813E+04</rscale>
<asrwt>0</asrwt>
<pdfrwt beam="1">  1        2 0.29347891E+00 0.21946813E+04</pdfrwt>
<pdfrwt beam="2">  1       -2 0.97113434E-01 0.21946813E+04</pdfrwt>
<totfact> 0.60863430E+00</totfact>
</mgrwt>
</event>
<event>
 4    1  0.2043502E-008  0.2716409E+04  0.7816531E-02  0.8329700E-01
         -2   -1    0    0    0  501 -0.00000000000E+00  0.00000000000E+00  0.17515115929E+04  0.17515115929E+04  0.00000000000E+00 0. -1.
          2   -1    0    0  501    0  0.00000000000E+00 -0.00000000000E+00 -0.10532158838E+04  0.10532158838E+04  0.00000000000E+00 0.  1.
    2000013    1    1    2    0    0 -0.96020366714E+03 -0.10005760870E+03  0.24478116734E+03  0.13763794634E+04  0.95000000000E+03 0.  0.
   -2000013    1    1    2    0    0  0.96020366714E+03  0.10005760870E+03  0.45351454182E+03  0.14283480133E+04  0.95000000000E+03 0.  0.
<mgrwt>
<rscale>  0 0.27164093E+04</rscale>
<asrwt>0</asrwt>
<pdfrwt beam="2">  1        2 0.16203321E+00 0.27164093E+04</pdfrwt>
<pdfrwt beam="1">  1       -2 0.26946332E+00 0.27164093E+04</pdfrwt>
<totfact> 0.99682415E-01</totfact>
</mgrwt>
</event>
<event>
 4    1  0.2043502E-008  0.2322310E+04  0.7816531E-02  0.8469176E-01
         -2   -1    0    0    0  501 -0.00000000000E+00  0.00000000000E+00  0.15280077652E+04  0.15280077652E+04  0.00000000000E+00 0. -1.
          2   -1    0    0  501    0  0.00000000000E+00 -0.00000000000E+00 -0.88237814504E+03  0.88237814504E+03  0.00000000000E+00 0.  1.
    2000013    1    1    2    0    0 -0.39382390249E+03  0.53910814702E+03  0.31579079775E+03  0.12033115508E+04  0.95000000000E+03 0.  0.
   -2000013    1    1    2    0    0  0.39382390249E+03 -0.53910814702E+03  0.32983882238E+03  0.12070743594E+04  0.95000000000E+03 0.  0.
<mgrwt>
<rscale>  0 0.23223098E+04</rscale>
<asrwt>0</asrwt>
<pdfrwt beam="2">  1        2 0.13575048E+00 0.23223098E+04</pdfrwt>
<pdfrwt beam="1">  1       -2 0.23507812E+00 0.23223098E+04</pdfrwt>
<totfact> 0.21675196E+00</totfact>
</mgrwt>
</event>
<event>
 4    1  0.2043502E-008  0.2159182E+04  0.7816531E-02  0.8535612E-01
         -2   -1    0    0    0  501 -0.00000000000E+00  0.00000000000E+00  0.40590213444E+03  0.40590213444E+03  0.00000000000E+00 0. -1.
          2   -1    0    0  501    0  0.00000000000E+00 -0.00000000000E+00 -0.28714220532E+04  0.28714220532E+04  0.00000000000E+00 0.  1.
    2000013    1    1    2    0    0  0.50764723937E+03  0.58223043316E+02 -0.11662388092E+04  0.15886184572E+04  0.95000000000E+03 0.  0.
   -2000013    1    1    2    0    0 -0.50764723937E+03 -0.58223043316E+02 -0.12992811096E+04  0.16887057305E+04  0.95000000000E+03 0.  0.
<mgrwt>
<rscale>  0 0.21591816E+04</rscale>
<asrwt>0</asrwt>
<pdfrwt beam="2">  1        2 0.44175725E+00 0.21591816E+04</pdfrwt>
<pdfrwt beam="1">  1       -2 0.62446481E-01 0.21591816E+04</pdfrwt>
<totfact> 0.45688564E+00</totfact>
</mgrwt>
</event>
<event>
 4    1  0.2043502E-008  0.2787863E+04  0.7816531E-02  0.8307046E-01
          2   -1    0    0  501    0  0.00000000000E+00  0.00000000000E+00  0.13229609967E+04  0.13229609967E+04  0.00000000000E+00 0.  1.
         -2   -1    0    0    0  501 -0.00000000000E+00 -0.00000000000E+00 -0.14687089781E+04  0.14687089781E+04  0.00000000000E+00 0. -1.
    2000013    1    1    2    0    0  0.10121202940E+04 -0.12460351416E+03 -0.98031362868E+02  0.13971484078E+04  0.95000000000E+03 0.  0.
   -2000013    1    1    2    0    0 -0.10121202940E+04  0.12460351416E+03 -0.47716618501E+02  0.13945215670E+04  0.95000000000E+03 0.  0.
<mgrwt>
<rscale>  0 0.27878628E+04</rscale>
<asrwt>0</asrwt>
<pdfrwt beam="1">  1        2 0.20353246E+00 0.27878628E+04</pdfrwt>
<pdfrwt beam="2">  1       -2 0.22595523E+00 0.27878628E+04</pdfrwt>
<totfact> 0.12656161E+00</totfact>
</mgrwt>
</event>
<event>
 4    1  0.2043502E-008  0.2523928E+04  0.7816531E-02  0.8394510E-01
         -2   -1    0    0    0  501 -0.00000000000E+00  0.00000000000E+00  0.74749306823E+03  0.74749306823E+03  0.00000000000E+00 0. -1.
          2   -1    0    0  501    0  0.00000000000E+00 -0.00000000000E+00 -0.21305252864E+04  0.21305252864E+04  0.00000000000E+00 0.  1.
    2000013    1    1    2    0    0  0.47448207840E+03  0.27360979362E+03 -0.14036814752E+04  0.17812403672E+04  0.95000000000E+03 0.  0.
   -2000013    1    1    2    0    0 -0.47448207840E+03 -0.27360979362E+03  0.20649257044E+02  0.10967779874E+04  0.95000000000E+03 0.  0.
<mgrwt>
<rscale>  0 0.25239278E+04</rscale>
<asrwt>0</asrwt>
<pdfrwt beam="2">  1        2 0.32777312E+00 0.25239278E+04</pdfrwt>
<pdfrwt beam="1">  1       -2 0.11499893E+00 0.25239278E+04</pdfrwt>
<totfact> 0.29648889E+00</totfact>
</mgrwt>
</event>
<event>
 4    1  0.2043502E-008  0.2456900E+04  0.7816531E-02  0.8418503E-01
         -2   -1    0    0    0  501 -0.00000000000E+00  0.00000000000E+00  0.50512656110E+03  0.50512656110E+03  0.00000000000E+00 0. -1.
          2   -1    0    0  501    0  0.00000000000E+00 -0.00000000000E+00 -0.29875479557E+04  0.29875479557E+04  0.00000000000E+00 0.  1.
    2000013    1    1    2    0    0 -0.11683877748E+03 -0.68399097412E+03 -0.73841641696E+03  0.13889757944E+04  0.95000000000E+03 0.  0.
   -2000013    1    1    2    0    0  0.11683877748E+03  0.68399097412E+03 -0.17440049777E+04  0.21036987224E+04  0.95000000000E+03 0.  0.
<mgrwt>
<rscale>  0 0.24569003E+04</rscale>
<asrwt>0</asrwt>
<pdfrwt beam="2">  1        2 0.45962275E+00 0.24569003E+04</pdfrwt>
<pdfrwt beam="1">  1       -2 0.77711780E-01 0.24569003E+04</pdfrwt>
<totfact> 0.23414390E+00</totfact>
</mgrwt>
</event>
<event>
 4    1  0.2043502E-008  0.3192756E+04  0.7816531E-02  0.8190733E-01
          2   -1    0    0  501    0  0.00000000000E+00  0.00000000000E+00  0.30699810829E+04  0.30699810829E+04  0.00000000000E+00 0.  1.
         -2   -1    0    0    0  501 -0.00000000000E+00 -0.00000000000E+00 -0.83011038652E+03  0.83011038652E+03  0.00000000000E+00 0. -1.
    2000013    1    1    2    0    0  0.77094553394E+03  0.10220387519E+04  0.12221586123E+04  0.20087538177E+04  0.95000000000E+03 0.  0.
   -2000013    1    1    2    0    0 -0.77094553394E+03 -0.10220387519E+04  0.10177120841E+04  0.18913376517E+04  0.95000000000E+03 0.  0.
<mgrwt>
<rscale>  0 0.31927563E+04</rscale>
<asrwt>0</asrwt>
<pdfrwt beam="1">  1        2 0.47230478E+00 0.31927563E+04</pdfrwt>
<pdfrwt beam="2">  1       -2 0.12770929E+00 0.31927563E+04</pdfrwt>
<totfact> 0.60147613E-01</totfact>
</mgrwt>
</event>
<event>
 4    1  0.2043502E-008  0.2472980E+04  0.7816531E-02  0.8412675E-01
          1   -1    0    0  501    0  0.00000000000E+00  0.00000000000E+00  0.17970908258E+04  0.17970908258E+04  0.00000000000E+00 0.  1.
         -1   -1    0    0    0  501 -0.00000000000E+00 -0.00000000000E+00 -0.85076775463E+03  0.85076775463E+03  0.00000000000E+00 0. -1.
    2000013    1    1    2    0    0  0.71758216305E+03  0.32484846364E+03  0.55579584898E+03  0.13534621202E+04  0.95000000000E+03 0.  0.
   -2000013    1    1    2    0    0 -0.71758216305E+03 -0.32484846364E+03  0.39052722222E+03  0.12943964603E+04  0.95000000000E+03 0.  0.
<mgrwt>
<rscale>  0 0.24729795E+04</rscale>
<asrwt>0</asrwt>
<pdfrwt beam="1">  1        1 0.27647551E+00 0.24729795E+04</pdfrwt>
<pdfrwt beam="2">  1       -1 0.13088735E+00 0.24729795E+04</pdfrwt>
<totfact> 0.18165289E+00</totfact>
</mgrwt>
</event>
<event>
 4    1  0.2043502E-008  0.3425221E+04  0.7816531E-02  0.8131744E-01
          2   -1    0    0  501    0  0.00000000000E+00  0.00000000000E+00  0.33008304736E+04  0.33008304736E+04  0.00000000000E+00 0.  1.
         -2   -1    0    0    0  501 -0.00000000000E+00 -0.00000000000E+00 -0.88857479215E+03  0.88857479215E+03  0.00000000000E+00 0. -1.
    2000013    1    1    2    0    0 -0.66963919831E+03  0.12572586854E+04  0.12521967728E+04  0.21212290814E+04  0.95000000000E+03 0.  0.
   -2000013    1    1    2    0    0  0.66963919831E+03 -0.12572586854E+04  0.11600589086E+04  0.20681761843E+04  0.95000000000E+03 0.  0.
<mgrwt>
<rscale>  0 0.34252210E+04</rscale>
<asrwt>0</asrwt>
<pdfrwt beam="1">  1        2 0.50782007E+00 0.34252210E+04</pdfrwt>
<pdfrwt beam="2">  1       -2 0.13670382E+00 0.34252210E+04</pdfrwt>
<totfact> 0.35093744E-01</totfact>
</mgrwt>
</event>
<event>
 4    1  0.2043502E-008  0.2572655E+04  0.7816531E-02  0.8377550E-01
         -2   -1    0    0    0  501 -0.00000000000E+00  0.00000000000E+00  0.74538304747E+03  0.74538304747E+03  0.00000000000E+00 0. -1.
          2   -1    0    0  501    0  0.00000000000E+00 -0.00000000000E+00 -0.22198489876E+04  0.22198489876E+04  0.00000000000E+00 0.  1.
    2000013    1    1    2    0    0 -0.65351559849E+02 -0.36999886086E+03 -0.16381532948E+04  0.19305999587E+04  0.95000000000E+03 0.  0.
   -2000013    1    1    2    0    0  0.65351559849E+02  0.36999886086E+03  0.16368735462E+03  0.10346320764E+04  0.95000000000E+03 0.  0.
<mgrwt>
<rscale>  0 0.25726545E+04</rscale>
<asrwt>0</asrwt>
<pdfrwt beam="2">  1        2 0.34151523E+00 0.25726545E+04</pdfrwt>
<pdfrwt beam="1">  1       -2 0.11467431E+00 0.25726545E+04</pdfrwt>
<totfact> 0.26487955E+00</totfact>
</mgrwt>
</event>
<event>
 4    1  0.2043502E-008  0.2184482E+04  0.7816531E-02  0.8524915E-01
         -2   -1    0    0    0  501 -0.00000000000E+00  0.00000000000E+00  0.39743703774E+03  0.39743703774E+03  0.00000000000E+00 0. -1.
          2   -1    0    0  501    0  0.00000000000E+00 -0.00000000000E+00 -0.30017080657E+04  0.30017080657E+04  0.00000000000E+00 0.  1.
    2000013    1    1    2    0    0 -0.25266503336E+03  0.30951435447E+03 -0.18650082077E+04  0.21308201167E+04  0.95000000000E+03 0.  0.
   -2000013    1    1    2    0    0  0.25266503336E+03 -0.30951435447E+03 -0.73926282024E+03  0.12683249868E+04  0.95000000000E+03 0.  0.
<mgrwt>
<rscale>  0 0.21844816E+04</rscale>
<asrwt>0</asrwt>
<pdfrwt beam="2">  1        2 0.46180125E+00 0.21844816E+04</pdfrwt>
<pdfrwt beam="1">  1       -2 0.61144158E-01 0.21844816E+04</pdfrwt>
<totfact> 0.39604588E+00</totfact>
</mgrwt>
</event>
<event>
 4    1  0.2043502E-008  0.2005259E+04  0.7816531E-02  0.8604166E-01
          2   -1    0    0  501    0  0.00000000000E+00  0.00000000000E+00  0.13006880061E+04  0.13006880061E+04  0.00000000000E+00 0.  1.
         -2   -1    0    0    0  501 -0.00000000000E+00 -0.00000000000E+00 -0.77287211598E+03  0.77287211598E+03  0.00000000000E+00 0. -1.
    2000013    1    1    2    0    0 -0.42325123704E+02  0.29240870968E+03  0.39252796025E+03  0.10695197376E+04  0.95000000000E+03 0.  0.
   -2000013    1    1    2    0    0  0.42325123704E+02 -0.29240870968E+03  0.13528792984E+03  0.10040403844E+04  0.95000000000E+03 0.  0.
<mgrwt>
<rscale>  0 0.20052586E+04</rscale>
<asrwt>0</asrwt>
<pdfrwt beam="1">  1        2 0.20010585E+00 0.20052586E+04</pdfrwt>
<pdfrwt beam="2">  1       -2 0.11890340E+00 0.20052586E+04</pdfrwt>
<totfact> 0.83339222E+00</totfact>
</mgrwt>
</event>
<event>
 4    1  0.2043502E-008  0.2292261E+04  0.7816531E-02  0.8480979E-01
         -2   -1    0    0    0  501 -0.00000000000E+00  0.00000000000E+00  0.50204532124E+03  0.50204532124E+03  0.00000000000E+00 0. -1.
          2   -1    0    0  501    0  0.00000000000E+00 -0.00000000000E+00 -0.26165267380E+04  0.26165267380E+04  0.00000000000E+00 0.  1.
    2000013    1    1    2    0    0 -0.14811429637E+03 -0.59429937258E+03 -0.13153211014E+04  0.17342719478E+04  0.95000000000E+03 0.  0.
   -2000013    1    1    2    0    0  0.14811429637E+03  0.59429937258E+03 -0.79916031541E+03  0.13843001115E+04  0.95000000000E+03 0.  0.
<mgrwt>
<rscale>  0 0.22922609E+04</rscale>
<asrwt>0</asrwt>
<pdfrwt beam="2">  1        2 0.40254258E+00 0.22922609E+04</pdfrwt>
<pdfrwt beam="1">  1       -2 0.77237740E-01 0.22922609E+04</pdfrwt>
<totfact> 0.40380721E+00</totfact>
</mgrwt>
</event>
<event>
 4    1  0.2043502E-008  0.2780697E+04  0.7816531E-02  0.8309286E-01
          1   -1    0    0  501    0  0.00000000000E+00  0.00000000000E+00  0.16424211553E+04  0.16424211553E+04  0.00000000000E+00 0.  1.
         -1   -1    0    0    0  501 -0.00000000000E+00 -0.00000000000E+00 -0.11769631351E+04  0.11769631351E+04  0.00000000000E+00 0. -1.
    2000013    1    1    2    0    0 -0.49115653634E+03  0.88052034410E+03  0.11268271430E+03  0.13898734524E+04  0.95000000000E+03 0.  0.
   -2000013    1    1    2    0    0  0.49115653634E+03 -0.88052034410E+03  0.35277530588E+03  0.14295108380E+04  0.95000000000E+03 0.  0.
<mgrwt>
<rscale>  0 0.27806971E+04</rscale>
<asrwt>0</asrwt>
<pdfrwt beam="1">  1        1 0.25268018E+00 0.27806971E+04</pdfrwt>
<pdfrwt beam="2">  1       -1 0.18107125E+00 0.27806971E+04</pdfrwt>
<totfact> 0.92523429E-01</totfact>
</mgrwt>
</event>
<event>
 4    1  0.2043502E-008  0.2110891E+04  0.7816531E-02  0.8556461E-01
         -2   -1    0    0    0  501 -0.00000000000E+00  0.00000000000E+00  0.17705682661E+04  0.17705682661E+04  0.00000000000E+00 0. -1.
          2   -1    0    0  501    0  0.00000000000E+00 -0.00000000000E+00 -0.62915693391E+03  0.62915693391E+03  0.00000000000E+00 0.  1.
    2000013    1    1    2    0    0 -0.11373769196E+03  0.23753303176E+03  0.99925770920E+03  0.14037001721E+04  0.95000000000E+03 0.  0.
   -2000013    1    1    2    0    0  0.11373769196E+03 -0.23753303176E+03  0.14215362302E+03  0.99602502794E+03  0.95000000000E+03 0.  0.
<mgrwt>
<rscale>  0 0.21108911E+04</rscale>
<asrwt>0</asrwt>
<pdfrwt beam="2">  1        2 0.96793376E-01 0.21108911E+04</pdfrwt>
<pdfrwt beam="1">  1       -2 0.27239511E+00 0.21108911E+04</pdfrwt>
<totfact> 0.20199049E+00</totfact>
</mgrwt>
</event>
<event>
 4    1  0.2043502E-008  0.2365342E+04  0.7816531E-02  0.8452594E-01
         -2   -1    0    0    0  501 -0.00000000000E+00  0.00000000000E+00  0.98331090660E+03  0.98331090660E+03  0.00000000000E+00 0. -1.
          2   -1    0    0  501    0  0.00000000000E+00 -0.00000000000E+00 -0.14224496662E+04  0.14224496662E+04  0.00000000000E+00 0.  1.
    2000013    1    1    2    0    0 -0.63317056776E+03  0.19937691696E+03 -0.45929628067E+03  0.12466391604E+04  0.95000000000E+03 0.  0.
   -2000013    1    1    2    0    0  0.63317056776E+03 -0.19937691696E+03  0.20157521086E+02  0.11591214123E+04  0.95000000000E+03 0.  0.
<mgrwt>
<rscale>  0 0.23653416E+04</rscale>
<asrwt>0</asrwt>
<pdfrwt beam="2">  1        2 0.21883841E+00 0.23653416E+04</pdfrwt>
<pdfrwt beam="1">  1       -2 0.15127860E+00 0.23653416E+04</pdfrwt>
<totfact> 0.37118536E+00</totfact>
</mgrwt>
</event>
<event>
 4    1  0.2043502E-008  0.2025144E+04  0.7816531E-02  0.8594955E-01
          1   -1    0    0  501    0  0.00000000000E+00  0.00000000000E+00  0.12846653825E+04  0.12846653825E+04  0.00000000000E+00 0.  1.
         -1   -1    0    0    0  501 -0.00000000000E+00 -0.00000000000E+00 -0.79810797612E+03  0.79810797612E+03  0.00000000000E+00 0. -1.
    2000013    1    1    2    0    0  0.29788915878E+03 -0.18178329025E+03  0.27610200326E+03  0.10490545418E+04  0.95000000000E+03 0.  0.
   -2000013    1    1    2    0    0 -0.29788915878E+03  0.18178329025E+03  0.21045540314E+03  0.10337188168E+04  0.95000000000E+03 0.  0.
<mgrwt>
<rscale>  0 0.20251436E+04</rscale>
<asrwt>0</asrwt>
<pdfrwt beam="1">  1        1 0.19764083E+00 0.20251436E+04</pdfrwt>
<pdfrwt beam="2">  1       -1 0.12278584E+00 0.20251436E+04</pdfrwt>
<totfact> 0.50244150E+00</totfact>
</mgrwt>
</event>
<event>
 4    1  0.2043502E-008  0.3039117E+04  0.7816531E-02  0.8232648E-01
          2   -1    0    0  501    0  0.00000000000E+00  0.00000000000E+00  0.64782989223E+03  0.64782989223E+03  0.00000000000E+00 0.  1.
         -2   -1    0    0    0  501 -0.00000000000E+00 -0.00000000000E+00 -0.35642972515E+04  0.35642972515E+04  0.00000000000E+00 0. -1.
    2000013    1    1    2    0    0  0.11770413803E+04  0.12997552587E+03 -0.13680043737E+04  0.20435890034E+04  0.95000000000E+03 0.  0.
   -2000013    1    1    2    0    0 -0.11770413803E+04 -0.12997552587E+03 -0.15484629856E+04  0.21685381403E+04  0.95000000000E+03 0.  0.
<mgrwt>
<rscale>  0 0.30391172E+04</rscale>
<asrwt>0</asrwt>
<pdfrwt beam="1">  1        2 0.99666139E-01 0.30391172E+04</pdfrwt>
<pdfrwt beam="2">  1       -2 0.54835341E+00 0.30391172E+04</pdfrwt>
<totfact> 0.33296480E-02</totfact>
</mgrwt>
</event>
<event>
 4    1  0.2043502E-008  0.3577134E+04  0.7816531E-02  0.8095750E-01
         -1   -1    0    0    0  501 -0.00000000000E+00  0.00000000000E+00  0.13988127186E+04  0.13988127186E+04  0.00000000000E+00 0. -1.
          1   -1    0    0  501    0  0.00000000000E+00 -0.00000000000E+00 -0.22869187790E+04  0.22869187790E+04  0.00000000000E+00 0.  1.
    2000013    1    1    2    0    0  0.12171977357E+04 -0.59928675569E+03 -0.11396453877E+04  0.20104742110E+04  0.95000000000E+03 0.  0.
   -2000013    1    1    2    0    0 -0.12171977357E+04  0.59928675569E+03  0.25153932723E+03  0.16752572866E+04  0.95000000000E+03 0.  0.
<mgrwt>
<rscale>  0 0.35771335E+04</rscale>
<asrwt>0</asrwt>
<pdfrwt beam="2">  1        1 0.35183366E+00 0.35771335E+04</pdfrwt>
<pdfrwt beam="1">  1       -1 0.21520196E+00 0.35771335E+04</pdfrwt>
<totfact> 0.18257006E-01</totfact>
</mgrwt>
</event>
<event>
 4    1  0.2043502E-008  0.2484757E+04  0.7816531E-02  0.8408436E-01
         -2   -1    0    0    0  501 -0.00000000000E+00  0.00000000000E+00  0.81392657995E+03  0.81392657995E+03  0.00000000000E+00 0. -1.
          2   -1    0    0  501    0  0.00000000000E+00 -0.00000000000E+00 -0.18963685264E+04  0.18963685264E+04  0.00000000000E+00 0.  1.
    2000013    1    1    2    0    0  0.49556129796E+03 -0.62628182708E+03 -0.47956772876E+03  0.13305243829E+04  0.95000000000E+03 0.  0.
   -2000013    1    1    2    0    0 -0.49556129796E+03  0.62628182708E+03 -0.60287421769E+03  0.13797707235E+04  0.95000000000E+03 0.  0.
<mgrwt>
<rscale>  0 0.24847573E+04</rscale>
<asrwt>0</asrwt>
<pdfrwt beam="2">  1        2 0.29174900E+00 0.24847573E+04</pdfrwt>
<pdfrwt beam="1">  1       -2 0.12521948E+00 0.24847573E+04</pdfrwt>
<totfact> 0.32522874E+00</totfact>
</mgrwt>
</event>
<event>
 4    1  0.2043502E-008  0.2639223E+04  0.7816531E-02  0.8354999E-01
         -2   -1    0    0    0  501 -0.00000000000E+00  0.00000000000E+00  0.41842873669E+03  0.41842873669E+03  0.00000000000E+00 0. -1.
          2   -1    0    0  501    0  0.00000000000E+00 -0.00000000000E+00 -0.41616976588E+04  0.41616976588E+04  0.00000000000E+00 0.  1.
    2000013    1    1    2    0    0  0.15780687540E+03 -0.23606094421E+03 -0.36048803063E+03  0.10550257815E+04  0.95000000000E+03 0.  0.
   -2000013    1    1    2    0    0 -0.15780687540E+03  0.23606094421E+03 -0.33827808915E+04  0.35251006140E+04  0.95000000000E+03 0.  0.
<mgrwt>
<rscale>  0 0.26392225E+04</rscale>
<asrwt>0</asrwt>
<pdfrwt beam="2">  1        2 0.64026121E+00 0.26392225E+04</pdfrwt>
<pdfrwt beam="1">  1       -2 0.64373649E-01 0.26392225E+04</pdfrwt>
<totfact> 0.49438771E-01</totfact>
</mgrwt>
</event>
<event>
 4    1  0.2043502E-008  0.2371545E+04  0.7816531E-02  0.8450234E-01
          1   -1    0    0  501    0  0.00000000000E+00  0.00000000000E+00  0.13589789387E+04  0.13589789387E+04  0.00000000000E+00 0. -1.
         -1   -1    0    0    0  501 -0.00000000000E+00 -0.00000000000E+00 -0.10346419440E+04  0.10346419440E+04  0.00000000000E+00 0.  1.
    2000013    1    1    2    0    0 -0.12567062388E+03 -0.66873879752E+03 -0.41081107135E+02  0.11692700041E+04  0.95000000000E+03 0.  0.
   -2000013    1    1    2    0    0  0.12567062388E+03  0.66873879752E+03  0.36541810186E+03  0.12243508787E+04  0.95000000000E+03 0.  0.
<mgrwt>
<rscale>  0 0.23715452E+04</rscale>
<asrwt>0</asrwt>
<pdfrwt beam="1">  1        1 0.20907368E+00 0.23715452E+04</pdfrwt>
<pdfrwt beam="2">  1       -1 0.15917568E+00 0.23715452E+04</pdfrwt>
<totfact> 0.21873877E+00</totfact>
</mgrwt>
</event>
<event>
 4    1  0.2043502E-008  0.2527842E+04  0.7816531E-02  0.8393133E-01
          1   -1    0    0  501    0  0.00000000000E+00  0.00000000000E+00  0.22904105654E+04  0.22904105654E+04  0.00000000000E+00 0. -1.
         -1   -1    0    0    0  501 -0.00000000000E+00 -0.00000000000E+00 -0.69747148289E+03  0.69747148289E+03  0.00000000000E+00 0.  1.
    2000013    1    1    2    0    0 -0.62188125749E+03  0.54431287982E+03  0.92585955400E+03  0.15629231342E+04  0.95000000000E+03 0.  0.
   -2000013    1    1    2    0    0  0.62188125749E+03 -0.54431287982E+03  0.66707952847E+03  0.14249589141E+04  0.95000000000E+03 0.  0.
<mgrwt>
<rscale>  0 0.25278418E+04</rscale>
<asrwt>0</asrwt>
<pdfrwt beam="1">  1        1 0.35237085E+00 0.25278418E+04</pdfrwt>
<pdfrwt beam="2">  1       -1 0.10730331E+00 0.25278418E+04</pdfrwt>
<totfact> 0.13546782E+00</totfact>
</mgrwt>
</event>
<event>
 4    1  0.2043502E-008  0.2343035E+04  0.7816531E-02  0.8461144E-01
          2   -1    0    0  501    0  0.00000000000E+00  0.00000000000E+00  0.10330388328E+04  0.10330388328E+04  0.00000000000E+00 0.  1.
         -2   -1    0    0    0  501 -0.00000000000E+00 -0.00000000000E+00 -0.13285592736E+04  0.13285592736E+04  0.00000000000E+00 0. -1.
    2000013    1    1    2    0    0 -0.10986665198E+03  0.67656921330E+03 -0.15954644199E+03  0.11822739314E+04  0.95000000000E+03 0.  0.
   -2000013    1    1    2    0    0  0.10986665198E+03 -0.67656921330E+03 -0.13597399876E+03  0.11793241751E+04  0.95000000000E+03 0.  0.
<mgrwt>
<rscale>  0 0.23430351E+04</rscale>
<asrwt>0</asrwt>
<pdfrwt beam="1">  1        2 0.15892905E+00 0.23430351E+04</pdfrwt>
<pdfrwt beam="2">  1       -2 0.20439373E+00 0.23430351E+04</pdfrwt>
<totfact> 0.26978866E+00</totfact>
</mgrwt>
</event>
<event>
 4    1  0.2043502E-008  0.2107460E+04  0.7816531E-02  0.8557964E-01
          2   -1    0    0  501    0  0.00000000000E+00  0.00000000000E+00  0.13486159627E+04  0.13486159627E+04  0.00000000000E+00 0.  1.
         -2   -1    0    0    0  501 -0.00000000000E+00 -0.00000000000E+00 -0.82332328093E+03  0.82332328093E+03  0.00000000000E+00 0. -1.
    2000013    1    1    2    0    0 -0.15186931360E+03  0.17592499793E+03  0.66686198906E+03  0.11837308840E+04  0.95000000000E+03 0.  0.
   -2000013    1    1    2    0    0  0.15186931360E+03 -0.17592499793E+03 -0.14156930726E+03  0.98820835964E+03  0.95000000000E+03 0.  0.
<mgrwt>
<rscale>  0 0.21074600E+04</rscale>
<asrwt>0</asrwt>
<pdfrwt beam="1">  1        2 0.20747938E+00 0.21074600E+04</pdfrwt>
<pdfrwt beam="2">  1       -2 0.12666512E+00 0.21074600E+04</pdfrwt>
<totfact> 0.66177224E+00</totfact>
</mgrwt>
</event>
<event>
 4    1  0.2043502E-008  0.2927161E+04  0.7816531E-02  0.8264842E-01
         -2   -1    0    0    0  501 -0.00000000000E+00  0.00000000000E+00  0.19680501716E+04  0.19680501716E+04  0.00000000000E+00 0. -1.
          2   -1    0    0  501    0  0.00000000000E+00 -0.00000000000E+00 -0.10884211503E+04  0.10884211503E+04  0.00000000000E+00 0.  1.
    2000013    1    1    2    0    0  0.16490752531E+03 -0.10794543111E+04  0.21307837849E+03  0.14629827399E+04  0.95000000000E+03 0.  0.
   -2000013    1    1    2    0    0 -0.16490752531E+03  0.10794543111E+04  0.66655064283E+03  0.15934885821E+04  0.95000000000E+03 0.  0.
<mgrwt>
<rscale>  0 0.29271607E+04</rscale>
<asrwt>0</asrwt>
<pdfrwt beam="2">  1        2 0.16744941E+00 0.29271607E+04</pdfrwt>
<pdfrwt beam="1">  1       -2 0.30277695E+00 0.29271607E+04</pdfrwt>
<totfact> 0.58289986E-01</totfact>
</mgrwt>
</event>
<event>
 4    1  0.2043502E-008  0.2406855E+04  0.7816531E-02  0.8436942E-01
         -1   -1    0    0    0  501 -0.00000000000E+00  0.00000000000E+00  0.75167621693E+03  0.75167621693E+03  0.00000000000E+00 0. -1.
          1   -1    0    0  501    0  0.00000000000E+00 -0.00000000000E+00 -0.19266774783E+04  0.19266774783E+04  0.00000000000E+00 0.  1.
    2000013    1    1    2    0    0 -0.22297409225E+03 -0.69098220805E+03 -0.43588246794E+03  0.12726615353E+04  0.95000000000E+03 0.  0.
   -2000013    1    1    2    0    0  0.22297409225E+03  0.69098220805E+03 -0.73911879345E+03  0.14056921599E+04  0.95000000000E+03 0.  0.
<mgrwt>
<rscale>  0 0.24068549E+04</rscale>
<asrwt>0</asrwt>
<pdfrwt beam="2">  1        1 0.29641192E+00 0.24068549E+04</pdfrwt>
<pdfrwt beam="1">  1       -1 0.11564250E+00 0.24068549E+04</pdfrwt>
<totfact> 0.20266807E+00</totfact>
</mgrwt>
</event>
<event>
 4    1  0.2043502E-008  0.2077221E+04  0.7816531E-02  0.8571345E-01
         -2   -1    0    0    0  501 -0.00000000000E+00  0.00000000000E+00  0.82436230226E+03  0.82436230226E+03  0.00000000000E+00 0. -1.
          2   -1    0    0  501    0  0.00000000000E+00 -0.00000000000E+00 -0.13085411120E+04  0.13085411120E+04  0.00000000000E+00 0.  1.
    2000013    1    1    2    0    0 -0.16350376340E+03 -0.29282932672E+03 -0.50130348873E+03  0.11252944873E+04  0.95000000000E+03 0.  0.
   -2000013    1    1    2    0    0  0.16350376340E+03  0.29282932672E+03  0.17124678962E+02  0.10076089270E+04  0.95000000000E+03 0.  0.
<mgrwt>
<rscale>  0 0.20772212E+04</rscale>
<asrwt>0</asrwt>
<pdfrwt beam="2">  1        2 0.20131402E+00 0.20772212E+04</pdfrwt>
<pdfrwt beam="1">  1       -2 0.12682497E+00 0.20772212E+04</pdfrwt>
<totfact> 0.69768594E+00</totfact>
</mgrwt>
</event>
<event>
 4    1  0.2043502E-008  0.2493953E+04  0.7816531E-02  0.8405143E-01
          2   -1    0    0  501    0  0.00000000000E+00  0.00000000000E+00  0.12700308703E+04  0.12700308703E+04  0.00000000000E+00 0.  1.
         -2   -1    0    0    0  501 -0.00000000000E+00 -0.00000000000E+00 -0.12243403463E+04  0.12243403463E+04  0.00000000000E+00 0. -1.
    2000013    1    1    2    0    0  0.68995213745E+03 -0.28542733038E+03  0.33103220357E+03  0.12528308077E+04  0.95000000000E+03 0.  0.
   -2000013    1    1    2    0    0 -0.68995213745E+03  0.28542733038E+03 -0.28534167956E+03  0.12415404089E+04  0.95000000000E+03 0.  0.
<mgrwt>
<rscale>  0 0.24939527E+04</rscale>
<asrwt>0</asrwt>
<pdfrwt beam="1">  1        2 0.19538936E+00 0.24939527E+04</pdfrwt>
<pdfrwt beam="2">  1       -2 0.18836005E+00 0.24939527E+04</pdfrwt>
<totfact> 0.24421798E+00</totfact>
</mgrwt>
</event>
<event>
 4    1  0.2043502E-008  0.2897715E+04  0.7816531E-02  0.8273558E-01
         -2   -1    0    0    0  501 -0.00000000000E+00  0.00000000000E+00  0.79463265861E+03  0.79463265861E+03  0.00000000000E+00 0. -1.
          2   -1    0    0  501    0  0.00000000000E+00 -0.00000000000E+00 -0.26417081856E+04  0.26417081856E+04  0.00000000000E+00 0.  1.
    2000013    1    1    2    0    0 -0.11160435494E+03  0.10695311101E+04 -0.68536993151E+03  0.15901522791E+04  0.95000000000E+03 0.  0.
   -2000013    1    1    2    0    0  0.11160435494E+03 -0.10695311101E+04 -0.11617055955E+04  0.18461885652E+04  0.95000000000E+03 0.  0.
<mgrwt>
<rscale>  0 0.28977147E+04</rscale>
<asrwt>0</asrwt>
<pdfrwt beam="2">  1        2 0.40641664E+00 0.28977147E+04</pdfrwt>
<pdfrwt beam="1">  1       -2 0.12225118E+00 0.28977147E+04</pdfrwt>
<totfact> 0.12580778E+00</totfact>
</mgrwt>
</event>
<event>
 4    1  0.2043502E-008  0.2694011E+04  0.7816531E-02  0.8336951E-01
          2   -1    0    0  501    0  0.00000000000E+00  0.00000000000E+00  0.19125985382E+04  0.19125985382E+04  0.00000000000E+00 0.  1.
         -2   -1    0    0    0  501 -0.00000000000E+00 -0.00000000000E+00 -0.94866960425E+03  0.94866960425E+03  0.00000000000E+00 0. -1.
    2000013    1    1    2    0    0  0.59931001857E+03 -0.68857428255E+03  0.18416936299E+03  0.13303102628E+04  0.95000000000E+03 0.  0.
   -2000013    1    1    2    0    0 -0.59931001857E+03  0.68857428255E+03  0.77975957100E+03  0.15309578797E+04  0.95000000000E+03 0.  0.
<mgrwt>
<rscale>  0 0.26940112E+04</rscale>
<asrwt>0</asrwt>
<pdfrwt beam="1">  1        2 0.29424593E+00 0.26940112E+04</pdfrwt>
<pdfrwt beam="2">  1       -2 0.14594917E+00 0.26940112E+04</pdfrwt>
<totfact> 0.21127078E+00</totfact>
</mgrwt>
</event>
<event>
 4    1  0.2043502E-008  0.2719522E+04  0.7816531E-02  0.8328699E-01
         -1   -1    0    0    0  501 -0.00000000000E+00  0.00000000000E+00  0.13708554397E+04  0.13708554397E+04  0.00000000000E+00 0. -1.
          1   -1    0    0  501    0  0.00000000000E+00 -0.00000000000E+00 -0.13487558649E+04  0.13487558649E+04  0.00000000000E+00 0.  1.
    2000013    1    1    2    0    0  0.22799084447E+03  0.81302410754E+03 -0.47214448675E+03  0.13558792133E+04  0.95000000000E+03 0.  0.
   -2000013    1    1    2    0    0 -0.22799084447E+03 -0.81302410754E+03  0.49424406159E+03  0.13637320914E+04  0.95000000000E+03 0.  0.
<mgrwt>
<rscale>  0 0.27195215E+04</rscale>
<asrwt>0</asrwt>
<pdfrwt beam="2">  1        1 0.20750090E+00 0.27195215E+04</pdfrwt>
<pdfrwt beam="1">  1       -1 0.21090084E+00 0.27195215E+04</pdfrwt>
<totfact> 0.92272819E-01</totfact>
</mgrwt>
</event>
<event>
 4    1  0.2043502E-008  0.2206792E+04  0.7816531E-02  0.8515607E-01
         -2   -1    0    0    0  501 -0.00000000000E+00  0.00000000000E+00  0.21862517213E+04  0.21862517213E+04  0.00000000000E+00 0. -1.
          2   -1    0    0  501    0  0.00000000000E+00 -0.00000000000E+00 -0.55688122309E+03  0.55688122309E+03  0.00000000000E+00 0.  1.
    2000013    1    1    2    0    0 -0.57123783195E+02 -0.55804248034E+03  0.79287010427E+03  0.13586086775E+04  0.95000000000E+03 0.  0.
   -2000013    1    1    2    0    0  0.57123783195E+02  0.55804248034E+03  0.83650039399E+03  0.13845242669E+04  0.95000000000E+03 0.  0.
<mgrwt>
<rscale>  0 0.22067918E+04</rscale>
<asrwt>0</asrwt>
<pdfrwt beam="2">  1        2 0.85674035E-01 0.22067918E+04</pdfrwt>
<pdfrwt beam="1">  1       -2 0.33634641E+00 0.22067918E+04</pdfrwt>
<totfact> 0.94025260E-01</totfact>
</mgrwt>
</event>
<event>
 4    1  0.2043502E-008  0.2364324E+04  0.7816531E-02  0.8452982E-01
          2   -1    0    0  501    0  0.00000000000E+00  0.00000000000E+00  0.23128454630E+04  0.23128454630E+04  0.00000000000E+00 0.  1.
         -2   -1    0    0    0  501 -0.00000000000E+00 -0.00000000000E+00 -0.60423701424E+03  0.60423701424E+03  0.00000000000E+00 0. -1.
    2000013    1    1    2    0    0  0.59191886444E+03 -0.36508388655E+02  0.38724282269E+03  0.11849716487E+04  0.95000000000E+03 0.  0.
   -2000013    1    1    2    0    0 -0.59191886444E+03  0.36508388655E+02  0.13213656261E+04  0.17321108285E+04  0.95000000000E+03 0.  0.
<mgrwt>
<rscale>  0 0.23643239E+04</rscale>
<asrwt>0</asrwt>
<pdfrwt beam="1">  1        2 0.35582237E+00 0.23643239E+04</pdfrwt>
<pdfrwt beam="2">  1       -2 0.92959542E-01 0.23643239E+04</pdfrwt>
<totfact> 0.39413550E+00</totfact>
</mgrwt>
</event>
<event>
 4    1  0.2043502E-008  0.2551592E+04  0.7816531E-02  0.8384833E-01
         -2   -1    0    0    0  501 -0.00000000000E+00  0.00000000000E+00  0.17145063646E+04  0.17145063646E+04  0.00000000000E+00 0. -1.
          2   -1    0    0  501    0  0.00000000000E+00 -0.00000000000E+00 -0.94934362563E+03  0.94934362563E+03  0.00000000000E+00 0.  1.
    2000013    1    1    2    0    0  0.54228983927E+02  0.45302171893E+03  0.11332322284E+04  0.15475415161E+04  0.95000000000E+03 0.  0.
   -2000013    1    1    2    0    0 -0.54228983927E+02 -0.45302171893E+03 -0.36806948940E+03  0.11163084742E+04  0.95000000000E+03 0.  0.
<mgrwt>
<rscale>  0 0.25515922E+04</rscale>
<asrwt>0</asrwt>
<pdfrwt beam="2">  1        2 0.14605287E+00 0.25515922E+04</pdfrwt>
<pdfrwt beam="1">  1       -2 0.26377021E+00 0.25515922E+04</pdfrwt>
<totfact> 0.12768892E+00</totfact>
</mgrwt>
</event>
<event>
 4    1  0.2043502E-008  0.3734075E+04  0.7816531E-02  0.8060452E-01
          2   -1    0    0  501    0  0.00000000000E+00  0.00000000000E+00  0.22847818552E+04  0.22847818552E+04  0.00000000000E+00 0.  1.
         -2   -1    0    0    0  501 -0.00000000000E+00 -0.00000000000E+00 -0.15256724506E+04  0.15256724506E+04  0.00000000000E+00 0. -1.
    2000013    1    1    2    0    0  0.71449242382E+03 -0.71588715490E+03  0.16542390399E+04  0.21591666548E+04  0.95000000000E+03 0.  0.
   -2000013    1    1    2    0    0 -0.71449242382E+03  0.71588715490E+03 -0.89512963526E+03  0.16512876509E+04  0.95000000000E+03 0.  0.
<mgrwt>
<rscale>  0 0.37340748E+04</rscale>
<asrwt>0</asrwt>
<pdfrwt beam="1">  1        2 0.35150490E+00 0.37340748E+04</pdfrwt>
<pdfrwt beam="2">  1       -2 0.23471884E+00 0.37340748E+04</pdfrwt>
<totfact> 0.29784918E-01</totfact>
</mgrwt>
</event>
<event>
 4    1  0.2043502E-008  0.2403449E+04  0.7816531E-02  0.8438213E-01
          2   -1    0    0  501    0  0.00000000000E+00  0.00000000000E+00  0.14155732816E+04  0.14155732816E+04  0.00000000000E+00 0.  1.
         -2   -1    0    0    0  501 -0.00000000000E+00 -0.00000000000E+00 -0.10201817127E+04  0.10201817127E+04  0.00000000000E+00 0. -1.
    2000013    1    1    2    0    0  0.57575882685E+03  0.30188657222E+03 -0.15191690483E+03  0.11611255208E+04  0.95000000000E+03 0.  0.
   -2000013    1    1    2    0    0 -0.57575882685E+03 -0.30188657222E+03  0.54730847377E+03  0.12746294735E+04  0.95000000000E+03 0.  0.
<mgrwt>
<rscale>  0 0.24034492E+04</rscale>
<asrwt>0</asrwt>
<pdfrwt beam="1">  1        2 0.21778051E+00 0.24034492E+04</pdfrwt>
<pdfrwt beam="2">  1       -2 0.15695103E+00 0.24034492E+04</pdfrwt>
<totfact> 0.33829835E+00</totfact>
</mgrwt>
</event>
<event>
 4    1  0.2043502E-008  0.2144551E+04  0.7816531E-02  0.8541869E-01
         -2   -1    0    0    0  501 -0.00000000000E+00  0.00000000000E+00  0.46521380951E+03  0.46521380951E+03  0.00000000000E+00 0. -1.
          2   -1    0    0  501    0  0.00000000000E+00 -0.00000000000E+00 -0.24714963230E+04  0.24714963230E+04  0.00000000000E+00 0.  1.
    2000013    1    1    2    0    0  0.91747088692E+02 -0.44424032153E+03 -0.72415252137E+03  0.12777573579E+04  0.95000000000E+03 0.  0.
   -2000013    1    1    2    0    0 -0.91747088692E+02  0.44424032153E+03 -0.12821299921E+04  0.16589527746E+04  0.95000000000E+03 0.  0.
<mgrwt>
<rscale>  0 0.21445505E+04</rscale>
<asrwt>0</asrwt>
<pdfrwt beam="2">  1        2 0.38023020E+00 0.21445505E+04</pdfrwt>
<pdfrwt beam="1">  1       -2 0.71571356E-01 0.21445505E+04</pdfrwt>
<totfact> 0.58798397E+00</totfact>
</mgrwt>
</event>
<event>
 4    1  0.2043502E-008  0.2834839E+04  0.7816531E-02  0.8292533E-01
          2   -1    0    0  501    0  0.00000000000E+00  0.00000000000E+00  0.17974665186E+04  0.17974665186E+04  0.00000000000E+00 0.  1.
         -2   -1    0    0    0  501 -0.00000000000E+00 -0.00000000000E+00 -0.11177278663E+04  0.11177278663E+04  0.00000000000E+00 0. -1.
    2000013    1    1    2    0    0 -0.90263439884E+02 -0.10334724164E+04  0.51906630087E+03  0.14993807218E+04  0.95000000000E+03 0.  0.
   -2000013    1    1    2    0    0  0.90263439884E+02  0.10334724164E+04  0.16067235150E+03  0.14158136631E+04  0.95000000000E+03 0.  0.
<mgrwt>
<rscale>  0 0.28348393E+04</rscale>
<asrwt>0</asrwt>
<pdfrwt beam="1">  1        2 0.27653331E+00 0.28348393E+04</pdfrwt>
<pdfrwt beam="2">  1       -2 0.17195813E+00 0.28348393E+04</pdfrwt>
<totfact> 0.15507224E+00</totfact>
</mgrwt>
</event>
<event>
 4    1  0.2043502E-008  0.2285002E+04  0.7816531E-02  0.8483858E-01
         -2   -1    0    0    0  501 -0.00000000000E+00  0.00000000000E+00  0.42801264850E+03  0.42801264850E+03  0.00000000000E+00 0.  1.
          2   -1    0    0  501    0  0.00000000000E+00 -0.00000000000E+00 -0.30496954741E+04  0.30496954741E+04  0.00000000000E+00 0. -1.
    2000013    1    1    2    0    0 -0.47673168228E+03  0.37350797826E+03 -0.15997232412E+04  0.19566286707E+04  0.95000000000E+03 0.  0.
   -2000013    1    1    2    0    0  0.47673168228E+03 -0.37350797826E+03 -0.10219595844E+04  0.15210794518E+04  0.95000000000E+03 0.  0.
<mgrwt>
<rscale>  0 0.22850017E+04</rscale>
<asrwt>0</asrwt>
<pdfrwt beam="2">  1        2 0.46918392E+00 0.22850017E+04</pdfrwt>
<pdfrwt beam="1">  1       -2 0.65848099E-01 0.22850017E+04</pdfrwt>
<totfact> 0.31250198E+00</totfact>
</mgrwt>
</event>
<event>
 4    1  0.2043502E-008  0.2279172E+04  0.7816531E-02  0.8486179E-01
         -2   -1    0    0    0  501 -0.00000000000E+00  0.00000000000E+00  0.10548724527E+04  0.10548724527E+04  0.00000000000E+00 0.  1.
          2   -1    0    0  501    0  0.00000000000E+00 -0.00000000000E+00 -0.12311026860E+04  0.12311026860E+04  0.00000000000E+00 0. -1.
    2000013    1    1    2    0    0  0.54062254887E+03 -0.16693798285E+02  0.23472278228E+03  0.11180993729E+04  0.95000000000E+03 0.  0.
   -2000013    1    1    2    0    0 -0.54062254887E+03  0.16693798285E+02 -0.41095301562E+03  0.11678757658E+04  0.95000000000E+03 0.  0.
<mgrwt>
<rscale>  0 0.22791721E+04</rscale>
<asrwt>0</asrwt>
<pdfrwt beam="2">  1        2 0.18940041E+00 0.22791721E+04</pdfrwt>
<pdfrwt beam="1">  1       -2 0.16228807E+00 0.22791721E+04</pdfrwt>
<totfact> 0.39940428E+00</totfact>
</mgrwt>
</event>
<event>
 4    1  0.2043502E-008  0.4954037E+04  0.7816531E-02  0.7835637E-01
          1   -1    0    0  501    0  0.00000000000E+00  0.00000000000E+00  0.27718322723E+04  0.27718322723E+04  0.00000000000E+00 0. -1.
         -1   -1    0    0    0  501 -0.00000000000E+00 -0.00000000000E+00 -0.22135617360E+04  0.22135617360E+04  0.00000000000E+00 0.  1.
    2000013    1    1    2    0    0  0.11581751827E+04  0.16692331665E+04 -0.77890557121E+03  0.23742162931E+04  0.95000000000E+03 0.  0.
   -2000013    1    1    2    0    0 -0.11581751827E+04 -0.16692331665E+04  0.13371761075E+04  0.26111777152E+04  0.95000000000E+03 0.  0.
<mgrwt>
<rscale>  0 0.49540375E+04</rscale>
<asrwt>0</asrwt>
<pdfrwt beam="1">  1        1 0.42643573E+00 0.49540375E+04</pdfrwt>
<pdfrwt beam="2">  1       -1 0.34054796E+00 0.49540375E+04</pdfrwt>
<totfact> 0.11349050E-02</totfact>
</mgrwt>
</event>
<event>
 4    1  0.2043502E-008  0.2714619E+04  0.7816531E-02  0.8330277E-01
          2   -1    0    0  501    0  0.00000000000E+00  0.00000000000E+00  0.45816894274E+04  0.45816894274E+04  0.00000000000E+00 0.  1.
         -2   -1    0    0    0  501 -0.00000000000E+00 -0.00000000000E+00 -0.40209830754E+03  0.40209830754E+03  0.00000000000E+00 0. -1.
    2000013    1    1    2    0    0  0.59438512165E+03  0.73666347632E+03  0.17054687092E+04  0.21695829711E+04  0.95000000000E+03 0.  0.
   -2000013    1    1    2    0    0 -0.59438512165E+03 -0.73666347632E+03  0.24741224106E+04  0.28142047638E+04  0.95000000000E+03 0.  0.
<mgrwt>
<rscale>  0 0.27146194E+04</rscale>
<asrwt>0</asrwt>
<pdfrwt beam="1">  1        2 0.70487526E+00 0.27146194E+04</pdfrwt>
<pdfrwt beam="2">  1       -2 0.61861281E-01 0.27146194E+04</pdfrwt>
<totfact> 0.21759778E-01</totfact>
</mgrwt>
</event>
<event>
 4    1  0.2043502E-008  0.3006608E+04  0.7816531E-02  0.8241846E-01
          2   -1    0    0  501    0  0.00000000000E+00  0.00000000000E+00  0.19625540396E+04  0.19625540396E+04  0.00000000000E+00 0.  1.
         -2   -1    0    0    0  501 -0.00000000000E+00 -0.00000000000E+00 -0.11515217401E+04  0.11515217401E+04  0.00000000000E+00 0. -1.
    2000013    1    1    2    0    0  0.87048100287E+03 -0.30083111236E+03  0.11445953802E+04  0.17495242550E+04  0.95000000000E+03 0.  0.
   -2000013    1    1    2    0    0 -0.87048100287E+03  0.30083111236E+03 -0.33356308072E+03  0.13645515246E+04  0.95000000000E+03 0.  0.
<mgrwt>
<rscale>  0 0.30066085E+04</rscale>
<asrwt>0</asrwt>
<pdfrwt beam="1">  1        2 0.30193139E+00 0.30066085E+04</pdfrwt>
<pdfrwt beam="2">  1       -2 0.17715719E+00 0.30066085E+04</pdfrwt>
<totfact> 0.11381130E+00</totfact>
</mgrwt>
</event>
<event>
 4    1  0.2043502E-008  0.2377025E+04  0.7816531E-02  0.8448155E-01
         -2   -1    0    0    0  501 -0.00000000000E+00  0.00000000000E+00  0.22311864032E+04  0.22311864032E+04  0.00000000000E+00 0. -1.
          2   -1    0    0  501    0  0.00000000000E+00 -0.00000000000E+00 -0.63309918515E+03  0.63309918515E+03  0.00000000000E+00 0.  1.
    2000013    1    1    2    0    0 -0.66409422546E+03 -0.18723534531E+03  0.57690693270E+03  0.13082048096E+04  0.95000000000E+03 0.  0.
   -2000013    1    1    2    0    0  0.66409422546E+03  0.18723534531E+03  0.10211802854E+04  0.15560807788E+04  0.95000000000E+03 0.  0.
<mgrwt>
<rscale>  0 0.23770253E+04</rscale>
<asrwt>0</asrwt>
<pdfrwt beam="2">  1        2 0.97399876E-01 0.23770253E+04</pdfrwt>
<pdfrwt beam="1">  1       -2 0.34325944E+00 0.23770253E+04</pdfrwt>
<totfact> 0.71841112E-01</totfact>
</mgrwt>
</event>
<event>
 4    1  0.2043502E-008  0.2933721E+04  0.7816531E-02  0.8262915E-01
         -2   -1    0    0    0  501 -0.00000000000E+00  0.00000000000E+00  0.12728420016E+04  0.12728420016E+04  0.00000000000E+00 0. -1.
          2   -1    0    0  501    0  0.00000000000E+00 -0.00000000000E+00 -0.16904526304E+04  0.16904526304E+04  0.00000000000E+00 0.  1.
    2000013    1    1    2    0    0 -0.70874581340E+03 -0.54687731642E+03 -0.88471741062E+03  0.15769021288E+04  0.95000000000E+03 0.  0.
   -2000013    1    1    2    0    0  0.70874581340E+03  0.54687731642E+03  0.46710678182E+03  0.13863925032E+04  0.95000000000E+03 0.  0.
<mgrwt>
<rscale>  0 0.29337206E+04</rscale>
<asrwt>0</asrwt>
<pdfrwt beam="2">  1        2 0.26006963E+00 0.29337206E+04</pdfrwt>
<pdfrwt beam="1">  1       -2 0.19582185E+00 0.29337206E+04</pdfrwt>
<totfact> 0.12111310E+00</totfact>
</mgrwt>
</event>
<event>
 4    1  0.2043502E-008  0.2690421E+04  0.7816531E-02  0.8338120E-01
         -2   -1    0    0    0  501 -0.00000000000E+00  0.00000000000E+00  0.51634408306E+03  0.51634408306E+03  0.00000000000E+00 0. -1.
          2   -1    0    0  501    0  0.00000000000E+00 -0.00000000000E+00 -0.35046230680E+04  0.35046230680E+04  0.00000000000E+00 0.  1.
    2000013    1    1    2    0    0  0.53964357942E+03 -0.55403895311E+03 -0.23248145976E+04  0.26278198697E+04  0.95000000000E+03 0.  0.
   -2000013    1    1    2    0    0 -0.53964357942E+03  0.55403895311E+03 -0.66346438740E+03  0.13931472814E+04  0.95000000000E+03 0.  0.
<mgrwt>
<rscale>  0 0.26904211E+04</rscale>
<asrwt>0</asrwt>
<pdfrwt beam="2">  1        2 0.53917278E+00 0.26904211E+04</pdfrwt>
<pdfrwt beam="1">  1       -2 0.79437552E-01 0.26904211E+04</pdfrwt>
<totfact> 0.99524368E-01</totfact>
</mgrwt>
</event>
<event>
 4    1  0.2043502E-008  0.2130644E+04  0.7816531E-02  0.8547863E-01
          1   -1    0    0  501    0  0.00000000000E+00  0.00000000000E+00  0.10549731257E+04  0.10549731257E+04  0.00000000000E+00 0.  1.
         -1   -1    0    0    0  501 -0.00000000000E+00 -0.00000000000E+00 -0.10757724175E+04  0.10757724175E+04  0.00000000000E+00 0. -1.
    2000013    1    1    2    0    0 -0.26454083121E+03  0.38373677696E+03 -0.13359327620E+03  0.10665753273E+04  0.95000000000E+03 0.  0.
   -2000013    1    1    2    0    0  0.26454083121E+03 -0.38373677696E+03  0.11279398436E+03  0.10641702158E+04  0.95000000000E+03 0.  0.
<mgrwt>
<rscale>  0 0.21306440E+04</rscale>
<asrwt>0</asrwt>
<pdfrwt beam="1">  1        1 0.16230356E+00 0.21306440E+04</pdfrwt>
<pdfrwt beam="2">  1       -1 0.16550345E+00 0.21306440E+04</pdfrwt>
<totfact> 0.33431676E+00</totfact>
</mgrwt>
</event>
<event>
 4    1  0.2043502E-008  0.3843930E+04  0.7816531E-02  0.8036793E-01
          2   -1    0    0  501    0  0.00000000000E+00  0.00000000000E+00  0.16755671158E+04  0.16755671158E+04  0.00000000000E+00 0.  1.
         -2   -1    0    0    0  501 -0.00000000000E+00 -0.00000000000E+00 -0.22045968225E+04  0.22045968225E+04  0.00000000000E+00 0. -1.
    2000013    1    1    2    0    0 -0.12220769636E+04 -0.56110564998E+03 -0.12653945528E+04  0.20765440110E+04  0.95000000000E+03 0.  0.
   -2000013    1    1    2    0    0  0.12220769636E+04  0.56110564998E+03  0.73636484610E+03  0.18036199273E+04  0.95000000000E+03 0.  0.
<mgrwt>
<rscale>  0 0.38439302E+04</rscale>
<asrwt>0</asrwt>
<pdfrwt beam="1">  1        2 0.25777956E+00 0.38439302E+04</pdfrwt>
<pdfrwt beam="2">  1       -2 0.33916874E+00 0.38439302E+04</pdfrwt>
<totfact> 0.14708268E-01</totfact>
</mgrwt>
</event>
<event>
 4    1  0.2043502E-008  0.2753371E+04  0.7816531E-02  0.8317893E-01
          2   -1    0    0  501    0  0.00000000000E+00  0.00000000000E+00  0.20348080719E+04  0.20348080719E+04  0.00000000000E+00 0.  1.
         -2   -1    0    0    0  501 -0.00000000000E+00 -0.00000000000E+00 -0.93142104644E+03  0.93142104644E+03  0.00000000000E+00 0. -1.
    2000013    1    1    2    0    0 -0.98544932954E+03  0.25261371950E+02  0.70786435440E+03  0.15412074689E+04  0.95000000000E+03 0.  0.
   -2000013    1    1    2    0    0  0.98544932954E+03 -0.25261371950E+02  0.39552267105E+03  0.14250216494E+04  0.95000000000E+03 0.  0.
<mgrwt>
<rscale>  0 0.27533711E+04</rscale>
<asrwt>0</asrwt>
<pdfrwt beam="1">  1        2 0.31304740E+00 0.27533711E+04</pdfrwt>
<pdfrwt beam="2">  1       -2 0.14329555E+00 0.27533711E+04</pdfrwt>
<totfact> 0.18865002E+00</totfact>
</mgrwt>
</event>
<event>
 4    1  0.2043502E-008  0.3086962E+04  0.7816531E-02  0.8219325E-01
         -2   -1    0    0    0  501 -0.00000000000E+00  0.00000000000E+00  0.96643939121E+03  0.96643939121E+03  0.00000000000E+00 0. -1.
          2   -1    0    0  501    0  0.00000000000E+00 -0.00000000000E+00 -0.24650621368E+04  0.24650621368E+04  0.00000000000E+00 0.  1.
    2000013    1    1    2    0    0  0.40499868991E+03  0.65880302685E+03 -0.17931539152E+04  0.21716229716E+04  0.95000000000E+03 0.  0.
   -2000013    1    1    2    0    0 -0.40499868991E+03 -0.65880302685E+03  0.29453116965E+03  0.12598785564E+04  0.95000000000E+03 0.  0.
<mgrwt>
<rscale>  0 0.30869617E+04</rscale>
<asrwt>0</asrwt>
<pdfrwt beam="2">  1        2 0.37924033E+00 0.30869617E+04</pdfrwt>
<pdfrwt beam="1">  1       -2 0.14868298E+00 0.30869617E+04</pdfrwt>
<totfact> 0.95053169E-01</totfact>
</mgrwt>
</event>
<event>
 4    1  0.2043502E-008  0.2610283E+04  0.7816531E-02  0.8364717E-01
          2   -1    0    0  501    0  0.00000000000E+00  0.00000000000E+00  0.23511577643E+04  0.23511577643E+04  0.00000000000E+00 0. -1.
         -2   -1    0    0    0  501 -0.00000000000E+00 -0.00000000000E+00 -0.72449161700E+03  0.72449161700E+03  0.00000000000E+00 0.  1.
    2000013    1    1    2    0    0  0.36198897394E+03 -0.65462455567E+03  0.23450417348E+03  0.12316905186E+04  0.95000000000E+03 0.  0.
   -2000013    1    1    2    0    0 -0.36198897394E+03  0.65462455567E+03  0.13921619739E+04  0.18439588628E+04  0.95000000000E+03 0.  0.
<mgrwt>
<rscale>  0 0.26102828E+04</rscale>
<asrwt>0</asrwt>
<pdfrwt beam="1">  1        2 0.36171658E+00 0.26102828E+04</pdfrwt>
<pdfrwt beam="2">  1       -2 0.11146025E+00 0.26102828E+04</pdfrwt>
<totfact> 0.23839113E+00</totfact>
</mgrwt>
</event>
<event>
 4    1  0.2043502E-008  0.4007909E+04  0.7816531E-02  0.8002953E-01
         -2   -1    0    0    0  501 -0.00000000000E+00  0.00000000000E+00  0.22973084597E+04  0.22973084597E+04  0.00000000000E+00 0. -1.
          2   -1    0    0  501    0  0.00000000000E+00 -0.00000000000E+00 -0.17480606617E+04  0.17480606617E+04  0.00000000000E+00 0.  1.
    2000013    1    1    2    0    0 -0.74126358755E+03 -0.11295491673E+04  0.14201238354E+04  0.21782113615E+04  0.95000000000E+03 0.  0.
   -2000013    1    1    2    0    0  0.74126358755E+03  0.11295491673E+04 -0.87087603739E+03  0.18671577598E+04  0.95000000000E+03 0.  0.
<mgrwt>
<rscale>  0 0.40079095E+04</rscale>
<asrwt>0</asrwt>
<pdfrwt beam="2">  1        2 0.26893241E+00 0.40079095E+04</pdfrwt>
<pdfrwt beam="1">  1       -2 0.35343207E+00 0.40079095E+04</pdfrwt>
<totfact> 0.10757265E-01</totfact>
</mgrwt>
</event>
<event>
 4    1  0.2043502E-008  0.2455297E+04  0.7816531E-02  0.8419086E-01
         -2   -1    0    0    0  501 -0.00000000000E+00  0.00000000000E+00  0.69669935161E+03  0.69669935161E+03  0.00000000000E+00 0. -1.
          2   -1    0    0  501    0  0.00000000000E+00 -0.00000000000E+00 -0.21632301121E+04  0.21632301121E+04  0.00000000000E+00 0.  1.
    2000013    1    1    2    0    0 -0.35182269751E+03  0.28678112232E+03  0.21268474248E+01  0.10528661577E+04  0.95000000000E+03 0.  0.
   -2000013    1    1    2    0    0  0.35182269751E+03 -0.28678112232E+03 -0.14686576079E+04  0.18070633060E+04  0.95000000000E+03 0.  0.
<mgrwt>
<rscale>  0 0.24552971E+04</rscale>
<asrwt>0</asrwt>
<pdfrwt beam="2">  1        2 0.33280463E+00 0.24552971E+04</pdfrwt>
<pdfrwt beam="1">  1       -2 0.10718452E+00 0.24552971E+04</pdfrwt>
<totfact> 0.33908178E+00</totfact>
</mgrwt>
</event>
<event>
 4    1  0.2043502E-008  0.2488767E+04  0.7816531E-02  0.8406998E-01
         -2   -1    0    0    0  501 -0.00000000000E+00  0.00000000000E+00  0.28123804935E+04  0.28123804935E+04  0.00000000000E+00 0.  1.
          2   -1    0    0  501    0  0.00000000000E+00 -0.00000000000E+00 -0.55059793925E+03  0.55059793925E+03  0.00000000000E+00 0. -1.
    2000013    1    1    2    0    0  0.67193671409E+03  0.30310775048E+03  0.69802795801E+03  0.13903655226E+04  0.95000000000E+03 0.  0.
   -2000013    1    1    2    0    0 -0.67193671409E+03 -0.30310775048E+03  0.15637545962E+04  0.19726129102E+04  0.95000000000E+03 0.  0.
<mgrwt>
<rscale>  0 0.24887675E+04</rscale>
<asrwt>0</asrwt>
<pdfrwt beam="2">  1        2 0.84707377E-01 0.24887675E+04</pdfrwt>
<pdfrwt beam="1">  1       -2 0.43267391E+00 0.24887675E+04</pdfrwt>
<totfact> 0.22181057E-01</totfact>
</mgrwt>
</event>
<event>
 4    1  0.2043502E-008  0.2140337E+04  0.7816531E-02  0.8543680E-01
          4   -1    0    0  501    0  0.00000000000E+00  0.00000000000E+00  0.89139408098E+03  0.89139408098E+03  0.00000000000E+00 0.  1.
         -4   -1    0    0    0  501 -0.00000000000E+00 -0.00000000000E+00 -0.12847966579E+04  0.12847966579E+04  0.00000000000E+00 0. -1.
    2000013    1    1    2    0    0  0.41659683651E+02 -0.48716756480E+03 -0.13491849559E+03  0.10769265369E+04  0.95000000000E+03 0.  0.
   -2000013    1    1    2    0    0 -0.41659683651E+02  0.48716756480E+03 -0.25848408131E+03  0.10992642020E+04  0.95000000000E+03 0.  0.
<mgrwt>
<rscale>  0 0.21403365E+04</rscale>
<asrwt>0</asrwt>
<pdfrwt beam="1">  1        4 0.13713755E+00 0.21403365E+04</pdfrwt>
<pdfrwt beam="2">  1       -4 0.19766102E+00 0.21403365E+04</pdfrwt>
<totfact> 0.94446102E-02</totfact>
</mgrwt>
</event>
<event>
 4    1  0.2043502E-008  0.2222403E+04  0.7816531E-02  0.8509161E-01
         -2   -1    0    0    0  501 -0.00000000000E+00  0.00000000000E+00  0.63786245310E+03  0.63786245310E+03  0.00000000000E+00 0. -1.
          2   -1    0    0  501    0  0.00000000000E+00 -0.00000000000E+00 -0.19357913903E+04  0.19357913903E+04  0.00000000000E+00 0.  1.
    2000013    1    1    2    0    0 -0.55309084129E+03 -0.12025806287E+03 -0.52265117040E+03  0.12231253927E+04  0.95000000000E+03 0.  0.
   -2000013    1    1    2    0    0  0.55309084129E+03  0.12025806287E+03 -0.77527776684E+03  0.13505284507E+04  0.95000000000E+03 0.  0.
<mgrwt>
<rscale>  0 0.22224029E+04</rscale>
<asrwt>0</asrwt>
<pdfrwt beam="2">  1        2 0.29781405E+00 0.22224029E+04</pdfrwt>
<pdfrwt beam="1">  1       -2 0.98132688E-01 0.22224029E+04</pdfrwt>
<totfact> 0.57152638E+00</totfact>
</mgrwt>
</event>
<event>
 4    1  0.2043502E-008  0.2343532E+04  0.7816531E-02  0.8460952E-01
          2   -1    0    0  501    0  0.00000000000E+00  0.00000000000E+00  0.71804788410E+03  0.71804788410E+03  0.00000000000E+00 0.  1.
         -2   -1    0    0    0  501 -0.00000000000E+00 -0.00000000000E+00 -0.19121783509E+04  0.19121783509E+04  0.00000000000E+00 0. -1.
    2000013    1    1    2    0    0  0.65937146815E+03  0.97833439393E+02 -0.41542209051E+03  0.12326465950E+04  0.95000000000E+03 0.  0.
   -2000013    1    1    2    0    0 -0.65937146815E+03 -0.97833439393E+02 -0.77870837633E+03  0.13975796400E+04  0.95000000000E+03 0.  0.
<mgrwt>
<rscale>  0 0.23435321E+04</rscale>
<asrwt>0</asrwt>
<pdfrwt beam="1">  1        2 0.11046891E+00 0.23435321E+04</pdfrwt>
<pdfrwt beam="2">  1       -2 0.29418128E+00 0.23435321E+04</pdfrwt>
<totfact> 0.12365481E+00</totfact>
</mgrwt>
</event>
<event>
 4    1  0.2043502E-008  0.3416215E+04  0.7816531E-02  0.8133938E-01
         -2   -1    0    0    0  501 -0.00000000000E+00  0.00000000000E+00  0.14615568939E+04  0.14615568939E+04  0.00000000000E+00 0. -1.
          2   -1    0    0  501    0  0.00000000000E+00 -0.00000000000E+00 -0.19962487838E+04  0.19962487838E+04  0.00000000000E+00 0.  1.
    2000013    1    1    2    0    0  0.12210708646E+04  0.15851342478E+03 -0.98233859722E+03  0.18394645095E+04  0.95000000000E+03 0.  0.
   -2000013    1    1    2    0    0 -0.12210708646E+04 -0.15851342478E+03  0.44764670727E+03  0.16183411682E+04  0.95000000000E+03 0.  0.
<mgrwt>
<rscale>  0 0.34162150E+04</rscale>
<asrwt>0</asrwt>
<pdfrwt beam="2">  1        2 0.30711520E+00 0.34162150E+04</pdfrwt>
<pdfrwt beam="1">  1       -2 0.22485491E+00 0.34162150E+04</pdfrwt>
<totfact> 0.51157117E-01</totfact>
</mgrwt>
</event>
<event>
 4    1  0.2043502E-008  0.2318026E+04  0.7816531E-02  0.8470847E-01
         -2   -1    0    0    0  501 -0.00000000000E+00  0.00000000000E+00  0.57019047746E+03  0.57019047746E+03  0.00000000000E+00 0. -1.
          2   -1    0    0  501    0  0.00000000000E+00 -0.00000000000E+00 -0.23558995601E+04  0.23558995601E+04  0.00000000000E+00 0.  1.
    2000013    1    1    2    0    0  0.17398697056E+03 -0.62618317526E+03 -0.10642450991E+04  0.15676397755E+04  0.95000000000E+03 0.  0.
   -2000013    1    1    2    0    0 -0.17398697056E+03  0.62618317526E+03 -0.72146398362E+03  0.13584502621E+04  0.95000000000E+03 0.  0.
<mgrwt>
<rscale>  0 0.23180263E+04</rscale>
<asrwt>0</asrwt>
<pdfrwt beam="2">  1        2 0.36244607E+00 0.23180263E+04</pdfrwt>
<pdfrwt beam="1">  1       -2 0.87721615E-01 0.23180263E+04</pdfrwt>
<totfact> 0.42755766E+00</totfact>
</mgrwt>
</event>
<event>
 4    1  0.2043502E-008  0.2075738E+04  0.7816531E-02  0.8572007E-01
         -2   -1    0    0    0  501 -0.00000000000E+00  0.00000000000E+00  0.97270297894E+03  0.97270297894E+03  0.00000000000E+00 0. -1.
          2   -1    0    0  501    0  0.00000000000E+00 -0.00000000000E+00 -0.11074009088E+04  0.11074009088E+04  0.00000000000E+00 0.  1.
    2000013    1    1    2    0    0  0.38153467878E+03 -0.31735024432E+00 -0.23830481540E+03  0.10511222559E+04  0.95000000000E+03 0.  0.
   -2000013    1    1    2    0    0 -0.38153467878E+03  0.31735024432E+00  0.10360688558E+03  0.10289816318E+04  0.95000000000E+03 0.  0.
<mgrwt>
<rscale>  0 0.20757381E+04</rscale>
<asrwt>0</asrwt>
<pdfrwt beam="2">  1        2 0.17036937E+00 0.20757381E+04</pdfrwt>
<pdfrwt beam="1">  1       -2 0.14964661E+00 0.20757381E+04</pdfrwt>
<totfact> 0.60017652E+00</totfact>
</mgrwt>
</event>
<event>
 4    1  0.2043502E-008  0.2534846E+04  0.7816531E-02  0.8390676E-01
         -2   -1    0    0    0  501 -0.00000000000E+00  0.00000000000E+00  0.48325315221E+03  0.48325315221E+03  0.00000000000E+00 0. -1.
          2   -1    0    0  501    0  0.00000000000E+00 -0.00000000000E+00 -0.33240576375E+04  0.33240576375E+04  0.00000000000E+00 0.  1.
    2000013    1    1    2    0    0 -0.55116871248E+03  0.45363162346E+03 -0.20824586468E+04  0.23976452229E+04  0.95000000000E+03 0.  0.
   -2000013    1    1    2    0    0  0.55116871248E+03 -0.45363162346E+03 -0.75834583852E+03  0.14096655668E+04  0.95000000000E+03 0.  0.
<mgrwt>
<rscale>  0 0.25348462E+04</rscale>
<asrwt>0</asrwt>
<pdfrwt beam="2">  1        2 0.51139348E+00 0.25348462E+04</pdfrwt>
<pdfrwt beam="1">  1       -2 0.74346639E-01 0.25348462E+04</pdfrwt>
<totfact> 0.15550147E+00</totfact>
</mgrwt>
</event>
<event>
 4    1  0.2043502E-008  0.2418577E+04  0.7816531E-02  0.8432581E-01
          2   -1    0    0  501    0  0.00000000000E+00  0.00000000000E+00  0.15179447008E+04  0.15179447008E+04  0.00000000000E+00 0.  1.
         -2   -1    0    0    0  501 -0.00000000000E+00 -0.00000000000E+00 -0.96339403543E+03  0.96339403543E+03  0.00000000000E+00 0. -1.
    2000013    1    1    2    0    0  0.59892780282E+03  0.44580465689E+03  0.32777213692E+03  0.12519548230E+04  0.95000000000E+03 0.  0.
   -2000013    1    1    2    0    0 -0.59892780282E+03 -0.44580465689E+03  0.22677852844E+03  0.12293839132E+04  0.95000000000E+03 0.  0.
<mgrwt>
<rscale>  0 0.24185772E+04</rscale>
<asrwt>0</asrwt>
<pdfrwt beam="1">  1        2 0.23352995E+00 0.24185772E+04</pdfrwt>
<pdfrwt beam="2">  1       -2 0.14821447E+00 0.24185772E+04</pdfrwt>
<totfact> 0.34441994E+00</totfact>
</mgrwt>
</event>
<event>
 4    1  0.2043502E-008  0.2125653E+04  0.7816531E-02  0.8550027E-01
          2   -1    0    0  501    0  0.00000000000E+00  0.00000000000E+00  0.17158415696E+04  0.17158415696E+04  0.00000000000E+00 0.  1.
         -2   -1    0    0    0  501 -0.00000000000E+00 -0.00000000000E+00 -0.65833568096E+03  0.65833568096E+03  0.00000000000E+00 0. -1.
    2000013    1    1    2    0    0 -0.46216201373E+03 -0.10318823347E+03  0.58846559859E+03  0.12136858322E+04  0.95000000000E+03 0.  0.
   -2000013    1    1    2    0    0  0.46216201373E+03  0.10318823347E+03  0.46904029003E+03  0.11604914184E+04  0.95000000000E+03 0.  0.
<mgrwt>
<rscale>  0 0.21256526E+04</rscale>
<asrwt>0</asrwt>
<pdfrwt beam="1">  1        2 0.26397562E+00 0.21256526E+04</pdfrwt>
<pdfrwt beam="2">  1       -2 0.10128241E+00 0.21256526E+04</pdfrwt>
<totfact> 0.70819996E+00</totfact>
</mgrwt>
</event>
<event>
 4    1  0.2043502E-008  0.2784548E+04  0.7816531E-02  0.8308082E-01
         -2   -1    0    0    0  501 -0.00000000000E+00  0.00000000000E+00  0.18692274755E+04  0.18692274755E+04  0.00000000000E+00 0. -1.
          2   -1    0    0  501    0  0.00000000000E+00 -0.00000000000E+00 -0.10370200539E+04  0.10370200539E+04  0.00000000000E+00 0.  1.
    2000013    1    1    2    0    0  0.90975810678E+03  0.33077890106E+03  0.87955210656E+02  0.13591580531E+04  0.95000000000E+03 0.  0.
   -2000013    1    1    2    0    0 -0.90975810678E+03 -0.33077890106E+03  0.74425221098E+03  0.15470894763E+04  0.95000000000E+03 0.  0.
<mgrwt>
<rscale>  0 0.27845476E+04</rscale>
<asrwt>0</asrwt>
<pdfrwt beam="2">  1        2 0.15954155E+00 0.27845476E+04</pdfrwt>
<pdfrwt beam="1">  1       -2 0.28757346E+00 0.27845476E+04</pdfrwt>
<totfact> 0.78684767E-01</totfact>
</mgrwt>
</event>
<event>
 4    1  0.2043502E-008  0.2419997E+04  0.7816531E-02  0.8432055E-01
         -2   -1    0    0    0  501 -0.00000000000E+00  0.00000000000E+00  0.30780837483E+03  0.30780837483E+03  0.00000000000E+00 0. -1.
          2   -1    0    0  501    0  0.00000000000E+00 -0.00000000000E+00 -0.47565182104E+04  0.47565182104E+04  0.00000000000E+00 0.  1.
    2000013    1    1    2    0    0  0.47866324787E+03 -0.29834618158E+03 -0.11917667751E+04  0.16250959957E+04  0.95000000000E+03 0.  0.
   -2000013    1    1    2    0    0 -0.47866324787E+03  0.29834618158E+03 -0.32569430605E+04  0.34392305896E+04  0.95000000000E+03 0.  0.
<mgrwt>
<rscale>  0 0.24199968E+04</rscale>
<asrwt>0</asrwt>
<pdfrwt beam="2">  1        2 0.73177205E+00 0.24199968E+04</pdfrwt>
<pdfrwt beam="1">  1       -2 0.47355134E-01 0.24199968E+04</pdfrwt>
<totfact> 0.25500546E-01</totfact>
</mgrwt>
</event>
<event>
 4    1  0.2043502E-008  0.2218797E+04  0.7816531E-02  0.8510645E-01
         -2   -1    0    0    0  501 -0.00000000000E+00  0.00000000000E+00  0.48234461578E+03  0.48234461578E+03  0.00000000000E+00 0. -1.
          2   -1    0    0  501    0  0.00000000000E+00 -0.00000000000E+00 -0.25516295944E+04  0.25516295944E+04  0.00000000000E+00 0.  1.
    2000013    1    1    2    0    0  0.22031963043E+03 -0.47222951609E+03 -0.13603106171E+04  0.17391050660E+04  0.95000000000E+03 0.  0.
   -2000013    1    1    2    0    0 -0.22031963043E+03  0.47222951609E+03 -0.70897436153E+03  0.12948691442E+04  0.95000000000E+03 0.  0.
<mgrwt>
<rscale>  0 0.22187968E+04</rscale>
<asrwt>0</asrwt>
<pdfrwt beam="2">  1        2 0.39255840E+00 0.22187968E+04</pdfrwt>
<pdfrwt beam="1">  1       -2 0.74206863E-01 0.22187968E+04</pdfrwt>
<totfact> 0.48474185E+00</totfact>
</mgrwt>
</event>
<event>
 4    1  0.2043502E-008  0.2706338E+04  0.7816531E-02  0.8332951E-01
          2   -1    0    0  501    0  0.00000000000E+00  0.00000000000E+00  0.25207628926E+04  0.25207628926E+04  0.00000000000E+00 0.  1.
         -2   -1    0    0    0  501 -0.00000000000E+00 -0.00000000000E+00 -0.72639380108E+03  0.72639380108E+03  0.00000000000E+00 0. -1.
    2000013    1    1    2    0    0  0.51878514750E+03  0.80173504707E+03  0.74236677947E+03  0.15380265115E+04  0.95000000000E+03 0.  0.
   -2000013    1    1    2    0    0 -0.51878514750E+03 -0.80173504707E+03  0.10520023121E+04  0.17091301822E+04  0.95000000000E+03 0.  0.
<mgrwt>
<rscale>  0 0.27063381E+04</rscale>
<asrwt>0</asrwt>
<pdfrwt beam="1">  1        2 0.38780967E+00 0.27063381E+04</pdfrwt>
<pdfrwt beam="2">  1       -2 0.11175289E+00 0.27063381E+04</pdfrwt>
<totfact> 0.18766473E+00</totfact>
</mgrwt>
</event>
<event>
 4    1  0.2043502E-008  0.4306412E+04  0.7816531E-02  0.7945433E-01
         -2   -1    0    0    0  501 -0.00000000000E+00  0.00000000000E+00  0.12796058175E+04  0.12796058175E+04  0.00000000000E+00 0. -1.
          2   -1    0    0  501    0  0.00000000000E+00 -0.00000000000E+00 -0.36232223586E+04  0.36232223586E+04  0.00000000000E+00 0.  1.
    2000013    1    1    2    0    0  0.10738952215E+04  0.36495287628E+03 -0.29528723856E+04  0.33027862290E+04  0.95000000000E+03 0.  0.
   -2000013    1    1    2    0    0 -0.10738952215E+04 -0.36495287628E+03  0.60925584450E+03  0.16000419472E+04  0.95000000000E+03 0.  0.
<mgrwt>
<rscale>  0 0.43064122E+04</rscale>
<asrwt>0</asrwt>
<pdfrwt beam="2">  1        2 0.55741881E+00 0.43064122E+04</pdfrwt>
<pdfrwt beam="1">  1       -2 0.19686244E+00 0.43064122E+04</pdfrwt>
<totfact> 0.71149433E-02</totfact>
</mgrwt>
</event>
<event>
 4    1  0.2043502E-008  0.2831804E+04  0.7816531E-02  0.8293462E-01
         -2   -1    0    0    0  501 -0.00000000000E+00  0.00000000000E+00  0.21991456852E+04  0.21991456852E+04  0.00000000000E+00 0. -1.
          2   -1    0    0  501    0  0.00000000000E+00 -0.00000000000E+00 -0.91161690975E+03  0.91161690975E+03  0.00000000000E+00 0.  1.
    2000013    1    1    2    0    0 -0.11787921916E+03  0.79706833463E+03 -0.95643229587E+02  0.12493442551E+04  0.95000000000E+03 0.  0.
   -2000013    1    1    2    0    0  0.11787921916E+03 -0.79706833463E+03  0.13831720050E+04  0.18614183398E+04  0.95000000000E+03 0.  0.
<mgrwt>
<rscale>  0 0.28318039E+04</rscale>
<asrwt>0</asrwt>
<pdfrwt beam="2">  1        2 0.14024876E+00 0.28318039E+04</pdfrwt>
<pdfrwt beam="1">  1       -2 0.33833011E+00 0.28318039E+04</pdfrwt>
<totfact> 0.46030630E-01</totfact>
</mgrwt>
</event>
<event>
 4    1  0.2043502E-008  0.2554733E+04  0.7816531E-02  0.8383742E-01
          2   -1    0    0  501    0  0.00000000000E+00  0.00000000000E+00  0.30082979244E+04  0.30082979244E+04  0.00000000000E+00 0.  1.
         -2   -1    0    0    0  501 -0.00000000000E+00 -0.00000000000E+00 -0.54238803146E+03  0.54238803146E+03  0.00000000000E+00 0. -1.
    2000013    1    1    2    0    0  0.10055356082E+03 -0.59546519046E+03  0.20720297015E+04  0.23580705875E+04  0.95000000000E+03 0.  0.
   -2000013    1    1    2    0    0 -0.10055356082E+03  0.59546519046E+03  0.39388019139E+03  0.11926153683E+04  0.95000000000E+03 0.  0.
<mgrwt>
<rscale>  0 0.25547327E+04</rscale>
<asrwt>0</asrwt>
<pdfrwt beam="1">  1        2 0.46281506E+00 0.25547327E+04</pdfrwt>
<pdfrwt beam="2">  1       -2 0.83444314E-01 0.25547327E+04</pdfrwt>
<totfact> 0.19195282E+00</totfact>
</mgrwt>
</event>
<event>
 4    1  0.2043502E-008  0.2007978E+04  0.7816531E-02  0.8602900E-01
          2   -1    0    0  501    0  0.00000000000E+00  0.00000000000E+00  0.79456811122E+03  0.79456811122E+03  0.00000000000E+00 0.  1.
         -2   -1    0    0    0  501 -0.00000000000E+00 -0.00000000000E+00 -0.12686057252E+04  0.12686057252E+04  0.00000000000E+00 0. -1.
    2000013    1    1    2    0    0  0.14087731325E+03 -0.28672860523E+03 -0.29722949158E+03  0.10454210066E+04  0.95000000000E+03 0.  0.
   -2000013    1    1    2    0    0 -0.14087731325E+03  0.28672860523E+03 -0.17680812242E+03  0.10177528298E+04  0.95000000000E+03 0.  0.
<mgrwt>
<rscale>  0 0.20079777E+04</rscale>
<asrwt>0</asrwt>
<pdfrwt beam="1">  1        2 0.12224125E+00 0.20079777E+04</pdfrwt>
<pdfrwt beam="2">  1       -2 0.19517011E+00 0.20079777E+04</pdfrwt>
<totfact> 0.46173269E+00</totfact>
</mgrwt>
</event>
<event>
 4    1  0.2043502E-008  0.2566469E+04  0.7816531E-02  0.8379681E-01
         -2   -1    0    0    0  501 -0.00000000000E+00  0.00000000000E+00  0.10313892158E+04  0.10313892158E+04  0.00000000000E+00 0. -1.
          2   -1    0    0  501    0  0.00000000000E+00 -0.00000000000E+00 -0.15965760250E+04  0.15965760250E+04  0.00000000000E+00 0.  1.
    2000013    1    1    2    0    0 -0.57865773720E+02  0.86058559511E+03 -0.26688702462E+03  0.13106047071E+04  0.95000000000E+03 0.  0.
   -2000013    1    1    2    0    0  0.57865773720E+02 -0.86058559511E+03 -0.29829978463E+03  0.13173605337E+04  0.95000000000E+03 0.  0.
<mgrwt>
<rscale>  0 0.25664694E+04</rscale>
<asrwt>0</asrwt>
<pdfrwt beam="2">  1        2 0.24562708E+00 0.25664694E+04</pdfrwt>
<pdfrwt beam="1">  1       -2 0.15867526E+00 0.25664694E+04</pdfrwt>
<totfact> 0.25604137E+00</totfact>
</mgrwt>
</event>
<event>
 4    1  0.2043502E-008  0.2767255E+04  0.7816531E-02  0.8313507E-01
          2   -1    0    0  501    0  0.00000000000E+00  0.00000000000E+00  0.66315477636E+03  0.66315477636E+03  0.00000000000E+00 0.  1.
         -2   -1    0    0    0  501 -0.00000000000E+00 -0.00000000000E+00 -0.28868445750E+04  0.28868445750E+04  0.00000000000E+00 0. -1.
    2000013    1    1    2    0    0 -0.83693466331E+03 -0.50776424578E+03 -0.14089608544E+04  0.19611106163E+04  0.95000000000E+03 0.  0.
   -2000013    1    1    2    0    0  0.83693466331E+03  0.50776424578E+03 -0.81472894418E+03  0.15888887351E+04  0.95000000000E+03 0.  0.
<mgrwt>
<rscale>  0 0.27672548E+04</rscale>
<asrwt>0</asrwt>
<pdfrwt beam="1">  1        2 0.10202381E+00 0.27672548E+04</pdfrwt>
<pdfrwt beam="2">  1       -2 0.44412993E+00 0.27672548E+04</pdfrwt>
<totfact> 0.14505753E-01</totfact>
</mgrwt>
</event>
<event>
 4    1  0.2043502E-008  0.2795726E+04  0.7816531E-02  0.8304596E-01
          2   -1    0    0  501    0  0.00000000000E+00  0.00000000000E+00  0.86285136862E+03  0.86285136862E+03  0.00000000000E+00 0.  1.
         -2   -1    0    0    0  501 -0.00000000000E+00 -0.00000000000E+00 -0.22646090056E+04  0.22646090056E+04  0.00000000000E+00 0. -1.
    2000013    1    1    2    0    0  0.10107940718E+04  0.17217195908E+03 -0.71559844887E+03  0.15703276661E+04  0.95000000000E+03 0.  0.
   -2000013    1    1    2    0    0 -0.10107940718E+04 -0.17217195908E+03 -0.68615918807E+03  0.15571327080E+04  0.95000000000E+03 0.  0.
<mgrwt>
<rscale>  0 0.27957260E+04</rscale>
<asrwt>0</asrwt>
<pdfrwt beam="1">  1        2 0.13274636E+00 0.27957260E+04</pdfrwt>
<pdfrwt beam="2">  1       -2 0.34840139E+00 0.27957260E+04</pdfrwt>
<totfact> 0.43093774E-01</totfact>
</mgrwt>
</event>
<event>
 4    1  0.2043502E-008  0.2087175E+04  0.7816531E-02  0.8566914E-01
          2   -1    0    0  501    0  0.00000000000E+00  0.00000000000E+00  0.13781881484E+04  0.13781881484E+04  0.00000000000E+00 0.  1.
         -2   -1    0    0    0  501 -0.00000000000E+00 -0.00000000000E+00 -0.79022248712E+03  0.79022248712E+03  0.00000000000E+00 0. -1.
    2000013    1    1    2    0    0 -0.25543078107E+03  0.34827742715E+03  0.28799516698E+03  0.10825817597E+04  0.95000000000E+03 0.  0.
   -2000013    1    1    2    0    0  0.25543078107E+03 -0.34827742715E+03  0.29997049432E+03  0.10858288759E+04  0.95000000000E+03 0.  0.
<mgrwt>
<rscale>  0 0.20871754E+04</rscale>
<asrwt>0</asrwt>
<pdfrwt beam="1">  1        2 0.21202895E+00 0.20871754E+04</pdfrwt>
<pdfrwt beam="2">  1       -2 0.12157269E+00 0.20871754E+04</pdfrwt>
<totfact> 0.70642353E+00</totfact>
</mgrwt>
</event>
<event>
 4    1  0.2043502E-008  0.2109176E+04  0.7816531E-02  0.8557212E-01
          2   -1    0    0  501    0  0.00000000000E+00  0.00000000000E+00  0.85042376176E+03  0.85042376176E+03  0.00000000000E+00 0.  1.
         -2   -1    0    0    0  501 -0.00000000000E+00 -0.00000000000E+00 -0.13077672179E+04  0.13077672179E+04  0.00000000000E+00 0. -1.
    2000013    1    1    2    0    0 -0.50301900441E+02 -0.41966800771E+03 -0.40884543802E+03  0.11172762013E+04  0.95000000000E+03 0.  0.
   -2000013    1    1    2    0    0  0.50301900441E+02  0.41966800771E+03 -0.48498018069E+02  0.10409147783E+04  0.95000000000E+03 0.  0.
<mgrwt>
<rscale>  0 0.21091764E+04</rscale>
<asrwt>0</asrwt>
<pdfrwt beam="1">  1        2 0.13083443E+00 0.21091764E+04</pdfrwt>
<pdfrwt beam="2">  1       -2 0.20119496E+00 0.21091764E+04</pdfrwt>
<totfact> 0.38133861E+00</totfact>
</mgrwt>
</event>
<event>
 4    1  0.2043502E-008  0.2098435E+04  0.7816531E-02  0.8561933E-01
         -2   -1    0    0    0  501 -0.00000000000E+00  0.00000000000E+00  0.41083250111E+03  0.41083250111E+03  0.00000000000E+00 0. -1.
          2   -1    0    0  501    0  0.00000000000E+00 -0.00000000000E+00 -0.26795772923E+04  0.26795772923E+04  0.00000000000E+00 0.  1.
    2000013    1    1    2    0    0  0.19082221640E+03  0.19753072699E+03 -0.61802463964E+03  0.11661414844E+04  0.95000000000E+03 0.  0.
   -2000013    1    1    2    0    0 -0.19082221640E+03 -0.19753072699E+03 -0.16507201515E+04  0.19242683090E+04  0.95000000000E+03 0.  0.
<mgrwt>
<rscale>  0 0.20984351E+04</rscale>
<asrwt>0</asrwt>
<pdfrwt beam="2">  1        2 0.41224266E+00 0.20984351E+04</pdfrwt>
<pdfrwt beam="1">  1       -2 0.63205000E-01 0.20984351E+04</pdfrwt>
<totfact> 0.58394693E+00</totfact>
</mgrwt>
</event>
<event>
 4    1  0.2043502E-008  0.2288975E+04  0.7816531E-02  0.8482281E-01
         -2   -1    0    0    0  501 -0.00000000000E+00  0.00000000000E+00  0.15372595785E+04  0.15372595785E+04  0.00000000000E+00 0. -1.
          2   -1    0    0  501    0  0.00000000000E+00 -0.00000000000E+00 -0.85206928370E+03  0.85206928370E+03  0.00000000000E+00 0.  1.
    2000013    1    1    2    0    0 -0.59905598044E+03  0.18772448005E+03  0.22247108016E+03  0.11602163288E+04  0.95000000000E+03 0.  0.
   -2000013    1    1    2    0    0  0.59905598044E+03 -0.18772448005E+03  0.46271921461E+03  0.12291125334E+04  0.95000000000E+03 0.  0.
<mgrwt>
<rscale>  0 0.22889750E+04</rscale>
<asrwt>0</asrwt>
<pdfrwt beam="2">  1        2 0.13108758E+00 0.22889750E+04</pdfrwt>
<pdfrwt beam="1">  1       -2 0.23650147E+00 0.22889750E+04</pdfrwt>
<totfact> 0.22347737E+00</totfact>
</mgrwt>
</event>
<event>
 4    1  0.2043502E-008  0.2342854E+04  0.7816531E-02  0.8461214E-01
          2   -1    0    0  501    0  0.00000000000E+00  0.00000000000E+00  0.11543435325E+04  0.11543435325E+04  0.00000000000E+00 0.  1.
         -2   -1    0    0    0  501 -0.00000000000E+00 -0.00000000000E+00 -0.11887630732E+04  0.11887630732E+04  0.00000000000E+00 0. -1.
    2000013    1    1    2    0    0  0.40318018429E+03  0.20394054019E+03  0.49820490214E+03  0.11639820142E+04  0.95000000000E+03 0.  0.
   -2000013    1    1    2    0    0 -0.40318018429E+03 -0.20394054019E+03 -0.53262444283E+03  0.11791245914E+04  0.95000000000E+03 0.  0.
<mgrwt>
<rscale>  0 0.23428538E+04</rscale>
<asrwt>0</asrwt>
<pdfrwt beam="1">  1        2 0.17759131E+00 0.23428538E+04</pdfrwt>
<pdfrwt beam="2">  1       -2 0.18288663E+00 0.23428538E+04</pdfrwt>
<totfact> 0.31577954E+00</totfact>
</mgrwt>
</event>
<event>
 4    1  0.2043502E-008  0.2104580E+04  0.7816531E-02  0.8559229E-01
         -2   -1    0    0    0  501 -0.00000000000E+00  0.00000000000E+00  0.32374272840E+03  0.32374272840E+03  0.00000000000E+00 0. -1.
          2   -1    0    0  501    0  0.00000000000E+00 -0.00000000000E+00 -0.34203518314E+04  0.34203518314E+04  0.00000000000E+00 0.  1.
    2000013    1    1    2    0    0 -0.36218674988E+03  0.26905107875E+03 -0.14854995369E+04  0.18201034583E+04  0.95000000000E+03 0.  0.
   -2000013    1    1    2    0    0  0.36218674988E+03 -0.26905107875E+03 -0.16111095661E+04  0.19239911015E+04  0.95000000000E+03 0.  0.
<mgrwt>
<rscale>  0 0.21045798E+04</rscale>
<asrwt>0</asrwt>
<pdfrwt beam="2">  1        2 0.52620796E+00 0.21045798E+04</pdfrwt>
<pdfrwt beam="1">  1       -2 0.49806575E-01 0.21045798E+04</pdfrwt>
<totfact> 0.32570595E+00</totfact>
</mgrwt>
</event>
<event>
 4    1  0.2043502E-008  0.3402572E+04  0.7816531E-02  0.8137275E-01
          2   -1    0    0  501    0  0.00000000000E+00  0.00000000000E+00  0.19532026492E+04  0.19532026492E+04  0.00000000000E+00 0.  1.
         -2   -1    0    0    0  501 -0.00000000000E+00 -0.00000000000E+00 -0.14818609374E+04  0.14818609374E+04  0.00000000000E+00 0. -1.
    2000013    1    1    2    0    0  0.48382614456E+03 -0.11694837323E+04 -0.39486889632E+03  0.16310123800E+04  0.95000000000E+03 0.  0.
   -2000013    1    1    2    0    0 -0.48382614456E+03  0.11694837323E+04  0.86621060808E+03  0.18040512066E+04  0.95000000000E+03 0.  0.
<mgrwt>
<rscale>  0 0.34025724E+04</rscale>
<asrwt>0</asrwt>
<pdfrwt beam="1">  1        2 0.30049272E+00 0.34025724E+04</pdfrwt>
<pdfrwt beam="2">  1       -2 0.22797860E+00 0.34025724E+04</pdfrwt>
<totfact> 0.51726528E-01</totfact>
</mgrwt>
</event>
<event>
 4    1  0.2043502E-008  0.2809580E+04  0.7816531E-02  0.8300300E-01
         -2   -1    0    0    0  501 -0.00000000000E+00  0.00000000000E+00  0.12276639304E+04  0.12276639304E+04  0.00000000000E+00 0. -1.
          2   -1    0    0  501    0  0.00000000000E+00 -0.00000000000E+00 -0.16074711844E+04  0.16074711844E+04  0.00000000000E+00 0.  1.
    2000013    1    1    2    0    0 -0.86216140208E+03 -0.56884283617E+03 -0.25396283059E+03  0.14261492120E+04  0.95000000000E+03 0.  0.
   -2000013    1    1    2    0    0  0.86216140208E+03  0.56884283617E+03 -0.12584442333E+03  0.14089859028E+04  0.95000000000E+03 0.  0.
<mgrwt>
<rscale>  0 0.28095796E+04</rscale>
<asrwt>0</asrwt>
<pdfrwt beam="2">  1        2 0.24730326E+00 0.28095796E+04</pdfrwt>
<pdfrwt beam="1">  1       -2 0.18887137E+00 0.28095796E+04</pdfrwt>
<totfact> 0.15149857E+00</totfact>
</mgrwt>
</event>
<event>
 4    1  0.2043502E-008  0.2767647E+04  0.7816531E-02  0.8313384E-01
         -2   -1    0    0    0  501 -0.00000000000E+00  0.00000000000E+00  0.86164567453E+03  0.86164567453E+03  0.00000000000E+00 0. -1.
          2   -1    0    0  501    0  0.00000000000E+00 -0.00000000000E+00 -0.22224540799E+04  0.22224540799E+04  0.00000000000E+00 0.  1.
    2000013    1    1    2    0    0  0.41155615763E+03 -0.81656936543E+03 -0.11482995022E+04  0.17485009998E+04  0.95000000000E+03 0.  0.
   -2000013    1    1    2    0    0 -0.41155615763E+03  0.81656936543E+03 -0.21250890312E+03  0.13355987546E+04  0.95000000000E+03 0.  0.
<mgrwt>
<rscale>  0 0.27676473E+04</rscale>
<asrwt>0</asrwt>
<pdfrwt beam="2">  1        2 0.34191601E+00 0.27676473E+04</pdfrwt>
<pdfrwt beam="1">  1       -2 0.13256087E+00 0.27676473E+04</pdfrwt>
<totfact> 0.18084389E+00</totfact>
</mgrwt>
</event>
<event>
 4    1  0.2043502E-008  0.2718749E+04  0.7816531E-02  0.8328947E-01
         -4   -1    0    0    0  501 -0.00000000000E+00  0.00000000000E+00  0.19759521643E+04  0.19759521643E+04  0.00000000000E+00 0. -1.
          4   -1    0    0  501    0  0.00000000000E+00 -0.00000000000E+00 -0.93519455574E+03  0.93519455574E+03  0.00000000000E+00 0.  1.
    2000013    1    1    2    0    0  0.20588842987E+03  0.93403792236E+03  0.33312369853E+03  0.13886282024E+04  0.95000000000E+03 0.  0.
   -2000013    1    1    2    0    0 -0.20588842987E+03 -0.93403792236E+03  0.70763391005E+03  0.15225185177E+04  0.95000000000E+03 0.  0.
<mgrwt>
<rscale>  0 0.27187495E+04</rscale>
<asrwt>0</asrwt>
<pdfrwt beam="2">  1        4 0.14387609E+00 0.27187495E+04</pdfrwt>
<pdfrwt beam="1">  1       -4 0.30399264E+00 0.27187495E+04</pdfrwt>
<totfact> 0.16920239E-02</totfact>
</mgrwt>
</event>
<event>
 4    1  0.2043502E-008  0.3676800E+04  0.7816531E-02  0.8073123E-01
         -2   -1    0    0    0  501 -0.00000000000E+00  0.00000000000E+00  0.11737427244E+04  0.11737427244E+04  0.00000000000E+00 0. -1.
          2   -1    0    0  501    0  0.00000000000E+00 -0.00000000000E+00 -0.28794343964E+04  0.28794343964E+04  0.00000000000E+00 0.  1.
    2000013    1    1    2    0    0 -0.14556147398E+04 -0.58435737364E+03 -0.70942238088E+03  0.19662319104E+04  0.95000000000E+03 0.  0.
   -2000013    1    1    2    0    0  0.14556147398E+04  0.58435737364E+03 -0.99626929114E+03  0.20869452104E+04  0.95000000000E+03 0.  0.
<mgrwt>
<rscale>  0 0.36768003E+04</rscale>
<asrwt>0</asrwt>
<pdfrwt beam="2">  1        2 0.44298991E+00 0.36768003E+04</pdfrwt>
<pdfrwt beam="1">  1       -2 0.18057580E+00 0.36768003E+04</pdfrwt>
<totfact> 0.30086001E-01</totfact>
</mgrwt>
</event>
<event>
 4    1  0.2043502E-008  0.2573918E+04  0.7816531E-02  0.8377115E-01
         -1   -1    0    0    0  501 -0.00000000000E+00  0.00000000000E+00  0.16200725909E+04  0.16200725909E+04  0.00000000000E+00 0. -1.
          1   -1    0    0  501    0  0.00000000000E+00 -0.00000000000E+00 -0.10223386711E+04  0.10223386711E+04  0.00000000000E+00 0.  1.
    2000013    1    1    2    0    0 -0.73068822363E+03  0.33637016223E+03  0.63422893997E+03  0.13970671117E+04  0.95000000000E+03 0.  0.
   -2000013    1    1    2    0    0  0.73068822363E+03 -0.33637016223E+03 -0.36495020143E+02  0.12453441503E+04  0.95000000000E+03 0.  0.
<mgrwt>
<rscale>  0 0.25739175E+04</rscale>
<asrwt>0</asrwt>
<pdfrwt beam="2">  1        1 0.15728287E+00 0.25739175E+04</pdfrwt>
<pdfrwt beam="1">  1       -1 0.24924194E+00 0.25739175E+04</pdfrwt>
<totfact> 0.90484702E-01</totfact>
</mgrwt>
</event>
<event>
 4    1  0.2043502E-008  0.2606256E+04  0.7816531E-02  0.8366079E-01
          2   -1    0    0  501    0  0.00000000000E+00  0.00000000000E+00  0.49107263993E+03  0.49107263993E+03  0.00000000000E+00 0. -1.
         -2   -1    0    0    0  501 -0.00000000000E+00 -0.00000000000E+00 -0.34580272729E+04  0.34580272729E+04  0.00000000000E+00 0.  1.
    2000013    1    1    2    0    0  0.24375720824E+03  0.81241807144E+03 -0.10652003979E+04  0.16602989451E+04  0.95000000000E+03 0.  0.
   -2000013    1    1    2    0    0 -0.24375720824E+03 -0.81241807144E+03 -0.19017542350E+04  0.22888009677E+04  0.95000000000E+03 0.  0.
<mgrwt>
<rscale>  0 0.26062560E+04</rscale>
<asrwt>0</asrwt>
<pdfrwt beam="1">  1        2 0.75549638E-01 0.26062560E+04</pdfrwt>
<pdfrwt beam="2">  1       -2 0.53200419E+00 0.26062560E+04</pdfrwt>
<totfact> 0.58833599E-02</totfact>
</mgrwt>
</event>
<event>
 4    1  0.2043502E-008  0.2395621E+04  0.7816531E-02  0.8441145E-01
         -2   -1    0    0    0  501 -0.00000000000E+00  0.00000000000E+00  0.18478964709E+04  0.18478964709E+04  0.00000000000E+00 0. -1.
          2   -1    0    0  501    0  0.00000000000E+00 -0.00000000000E+00 -0.77642313470E+03  0.77642313470E+03  0.00000000000E+00 0.  1.
    2000013    1    1    2    0    0 -0.32826064419E+03  0.61260164060E+03  0.29271672958E+03  0.12129381288E+04  0.95000000000E+03 0.  0.
   -2000013    1    1    2    0    0  0.32826064419E+03 -0.61260164060E+03  0.77875660661E+03  0.14113814768E+04  0.95000000000E+03 0.  0.
<mgrwt>
<rscale>  0 0.23956206E+04</rscale>
<asrwt>0</asrwt>
<pdfrwt beam="2">  1        2 0.11944971E+00 0.23956206E+04</pdfrwt>
<pdfrwt beam="1">  1       -2 0.28429176E+00 0.23956206E+04</pdfrwt>
<totfact> 0.12783839E+00</totfact>
</mgrwt>
</event>
<event>
 4    1  0.2043502E-008  0.2346463E+04  0.7816531E-02  0.8459823E-01
         -2   -1    0    0    0  501 -0.00000000000E+00  0.00000000000E+00  0.22019685321E+04  0.22019685321E+04  0.00000000000E+00 0. -1.
          2   -1    0    0  501    0  0.00000000000E+00 -0.00000000000E+00 -0.62510990315E+03  0.62510990315E+03  0.00000000000E+00 0.  1.
    2000013    1    1    2    0    0  0.58253742965E+03  0.86997284290E+02  0.35897377740E+03  0.11740019409E+04  0.95000000000E+03 0.  0.
   -2000013    1    1    2    0    0 -0.58253742965E+03 -0.86997284290E+02  0.12178848515E+04  0.16530764943E+04  0.95000000000E+03 0.  0.
<mgrwt>
<rscale>  0 0.23464632E+04</rscale>
<asrwt>0</asrwt>
<pdfrwt beam="2">  1        2 0.96170756E-01 0.23464632E+04</pdfrwt>
<pdfrwt beam="1">  1       -2 0.33876438E+00 0.23464632E+04</pdfrwt>
<totfact> 0.78058509E-01</totfact>
</mgrwt>
</event>
<event>
 4    1  0.2043502E-008  0.2383350E+04  0.7816531E-02  0.8445763E-01
          2   -1    0    0  501    0  0.00000000000E+00  0.00000000000E+00  0.26331055980E+04  0.26331055980E+04  0.00000000000E+00 0.  1.
         -2   -1    0    0    0  501 -0.00000000000E+00 -0.00000000000E+00 -0.53932110538E+03  0.53932110538E+03  0.00000000000E+00 0. -1.
    2000013    1    1    2    0    0  0.71092530723E+03 -0.98875732837E+02  0.98170717464E+03  0.15431915564E+04  0.95000000000E+03 0.  0.
   -2000013    1    1    2    0    0 -0.71092530723E+03  0.98875732837E+02  0.11120773180E+04  0.16292351470E+04  0.95000000000E+03 0.  0.
<mgrwt>
<rscale>  0 0.23833501E+04</rscale>
<asrwt>0</asrwt>
<pdfrwt beam="1">  1        2 0.40509316E+00 0.23833501E+04</pdfrwt>
<pdfrwt beam="2">  1       -2 0.82972479E-01 0.23833501E+04</pdfrwt>
<totfact> 0.33349117E+00</totfact>
</mgrwt>
</event>
<event>
 4    1  0.2043502E-008  0.2189859E+04  0.7816531E-02  0.8522661E-01
          1   -1    0    0  501    0  0.00000000000E+00  0.00000000000E+00  0.19009479108E+04  0.19009479108E+04  0.00000000000E+00 0.  1.
         -1   -1    0    0    0  501 -0.00000000000E+00 -0.00000000000E+00 -0.63066992027E+03  0.63066992027E+03  0.00000000000E+00 0. -1.
    2000013    1    1    2    0    0  0.37274221432E+03  0.34290636376E+03  0.86591541460E+03  0.13816045157E+04  0.95000000000E+03 0.  0.
   -2000013    1    1    2    0    0 -0.37274221432E+03 -0.34290636376E+03  0.40436257593E+03  0.11500133153E+04  0.95000000000E+03 0.  0.
<mgrwt>
<rscale>  0 0.21898591E+04</rscale>
<asrwt>0</asrwt>
<pdfrwt beam="1">  1        1 0.29245352E+00 0.21898591E+04</pdfrwt>
<pdfrwt beam="2">  1       -1 0.97026142E-01 0.21898591E+04</pdfrwt>
<totfact> 0.32406354E+00</totfact>
</mgrwt>
</event>
<event>
 4    1  0.2043502E-008  0.3015757E+04  0.7816531E-02  0.8239246E-01
         -2   -1    0    0    0  501 -0.00000000000E+00  0.00000000000E+00  0.11444168498E+04  0.11444168498E+04  0.00000000000E+00 0. -1.
          2   -1    0    0  501    0  0.00000000000E+00 -0.00000000000E+00 -0.19867743811E+04  0.19867743811E+04  0.00000000000E+00 0.  1.
    2000013    1    1    2    0    0 -0.66644290775E+03  0.91040976202E+03 -0.95805251431E+02  0.14780631686E+04  0.95000000000E+03 0.  0.
   -2000013    1    1    2    0    0  0.66644290775E+03 -0.91040976202E+03 -0.74655227990E+03  0.16531280624E+04  0.95000000000E+03 0.  0.
<mgrwt>
<rscale>  0 0.30157573E+04</rscale>
<asrwt>0</asrwt>
<pdfrwt beam="2">  1        2 0.30565760E+00 0.30157573E+04</pdfrwt>
<pdfrwt beam="1">  1       -2 0.17606413E+00 0.30157573E+04</pdfrwt>
<totfact> 0.11220867E+00</totfact>
</mgrwt>
</event>
<event>
 4    1  0.2043502E-008  0.3213762E+04  0.7816531E-02  0.8185192E-01
          1   -1    0    0  501    0  0.00000000000E+00  0.00000000000E+00  0.13431278108E+04  0.13431278108E+04  0.00000000000E+00 0.  1.
         -1   -1    0    0    0  501 -0.00000000000E+00 -0.00000000000E+00 -0.19224282888E+04  0.19224282888E+04  0.00000000000E+00 0. -1.
    2000013    1    1    2    0    0 -0.78696290209E+03  0.10278570218E+04 -0.35200892741E+03  0.16438403059E+04  0.95000000000E+03 0.  0.
   -2000013    1    1    2    0    0  0.78696290209E+03 -0.10278570218E+04 -0.22729155062E+03  0.16217157937E+04  0.95000000000E+03 0.  0.
<mgrwt>
<rscale>  0 0.32137622E+04</rscale>
<asrwt>0</asrwt>
<pdfrwt beam="1">  1        1 0.20663505E+00 0.32137622E+04</pdfrwt>
<pdfrwt beam="2">  1       -1 0.29575820E+00 0.32137622E+04</pdfrwt>
<totfact> 0.24775358E-01</totfact>
</mgrwt>
</event>
<event>
 4    1  0.2043502E-008  0.2475392E+04  0.7816531E-02  0.8411805E-01
          2   -1    0    0  501    0  0.00000000000E+00  0.00000000000E+00  0.11105087910E+04  0.11105087910E+04  0.00000000000E+00 0.  1.
         -2   -1    0    0    0  501 -0.00000000000E+00 -0.00000000000E+00 -0.13794499462E+04  0.13794499462E+04  0.00000000000E+00 0. -1.
    2000013    1    1    2    0    0 -0.34212125011E+03  0.71570506449E+03 -0.14504925404E+03  0.12461219745E+04  0.95000000000E+03 0.  0.
   -2000013    1    1    2    0    0  0.34212125011E+03 -0.71570506449E+03 -0.12389190111E+03  0.12438367627E+04  0.95000000000E+03 0.  0.
<mgrwt>
<rscale>  0 0.24753919E+04</rscale>
<asrwt>0</asrwt>
<pdfrwt beam="1">  1        2 0.17084751E+00 0.24753919E+04</pdfrwt>
<pdfrwt beam="2">  1       -2 0.21222307E+00 0.24753919E+04</pdfrwt>
<totfact> 0.21250648E+00</totfact>
</mgrwt>
</event>
<event>
 4    1  0.2043502E-008  0.2174206E+04  0.7816531E-02  0.8529241E-01
         -2   -1    0    0    0  501 -0.00000000000E+00  0.00000000000E+00  0.81433466286E+03  0.81433466286E+03  0.00000000000E+00 0. -1.
          2   -1    0    0  501    0  0.00000000000E+00 -0.00000000000E+00 -0.14512374338E+04  0.14512374338E+04  0.00000000000E+00 0.  1.
    2000013    1    1    2    0    0  0.51435305329E+03  0.64939164712E+02 -0.42531226688E+03  0.11628270219E+04  0.95000000000E+03 0.  0.
   -2000013    1    1    2    0    0 -0.51435305329E+03 -0.64939164712E+02 -0.21159050410E+03  0.11027450748E+04  0.95000000000E+03 0.  0.
<mgrwt>
<rscale>  0 0.21742060E+04</rscale>
<asrwt>0</asrwt>
<pdfrwt beam="2">  1        2 0.22326729E+00 0.21742060E+04</pdfrwt>
<pdfrwt beam="1">  1       -2 0.12528226E+00 0.21742060E+04</pdfrwt>
<totfact> 0.59089635E+00</totfact>
</mgrwt>
</event>
<event>
 4    1  0.2043502E-008  0.2395265E+04  0.7816531E-02  0.8441278E-01
         -2   -1    0    0    0  501 -0.00000000000E+00  0.00000000000E+00  0.82244192862E+03  0.82244192862E+03  0.00000000000E+00 0. -1.
          2   -1    0    0  501    0  0.00000000000E+00 -0.00000000000E+00 -0.17439814572E+04  0.17439814572E+04  0.00000000000E+00 0.  1.
    2000013    1    1    2    0    0 -0.37643357802E+02  0.67870084501E+03 -0.74378781748E+03  0.13848365163E+04  0.95000000000E+03 0.  0.
   -2000013    1    1    2    0    0  0.37643357802E+02 -0.67870084501E+03 -0.17775171107E+03  0.11815868695E+04  0.95000000000E+03 0.  0.
<mgrwt>
<rscale>  0 0.23952649E+04</rscale>
<asrwt>0</asrwt>
<pdfrwt beam="2">  1        2 0.26830484E+00 0.23952649E+04</pdfrwt>
<pdfrwt beam="1">  1       -2 0.12652953E+00 0.23952649E+04</pdfrwt>
<totfact> 0.38783069E+00</totfact>
</mgrwt>
</event>
<event>
 4    1  0.2043502E-008  0.3178472E+04  0.7816531E-02  0.8194526E-01
         -2   -1    0    0    0  501 -0.00000000000E+00  0.00000000000E+00  0.11516011863E+04  0.11516011863E+04  0.00000000000E+00 0. -1.
          2   -1    0    0  501    0  0.00000000000E+00 -0.00000000000E+00 -0.21931815370E+04  0.21931815370E+04  0.00000000000E+00 0.  1.
    2000013    1    1    2    0    0 -0.10271153802E+04  0.75321232412E+03 -0.55192991124E+03  0.16820884152E+04  0.95000000000E+03 0.  0.
   -2000013    1    1    2    0    0  0.10271153802E+04 -0.75321232412E+03 -0.48965043949E+03  0.16626943082E+04  0.95000000000E+03 0.  0.
<mgrwt>
<rscale>  0 0.31784716E+04</rscale>
<asrwt>0</asrwt>
<pdfrwt beam="2">  1        2 0.33741255E+00 0.31784716E+04</pdfrwt>
<pdfrwt beam="1">  1       -2 0.17716941E+00 0.31784716E+04</pdfrwt>
<totfact> 0.83377685E-01</totfact>
</mgrwt>
</event>
<event>
 4    1  0.2043502E-008  0.2163931E+04  0.7816531E-02  0.8533592E-01
         -2   -1    0    0    0  501 -0.00000000000E+00  0.00000000000E+00  0.56235650478E+03  0.56235650478E+03  0.00000000000E+00 0. -1.
          2   -1    0    0  501    0  0.00000000000E+00 -0.00000000000E+00 -0.20816858973E+04  0.20816858973E+04  0.00000000000E+00 0.  1.
    2000013    1    1    2    0    0 -0.21110243450E+03 -0.45665969736E+03 -0.90954828346E+03  0.14081478605E+04  0.95000000000E+03 0.  0.
   -2000013    1    1    2    0    0  0.21110243450E+03  0.45665969736E+03 -0.60978110911E+03  0.12358945416E+04  0.95000000000E+03 0.  0.
<mgrwt>
<rscale>  0 0.21639312E+04</rscale>
<asrwt>0</asrwt>
<pdfrwt beam="2">  1        2 0.32025937E+00 0.21639312E+04</pdfrwt>
<pdfrwt beam="1">  1       -2 0.86516386E-01 0.21639312E+04</pdfrwt>
<totfact> 0.63815373E+00</totfact>
</mgrwt>
</event>
<event>
 4    1  0.2043502E-008  0.2057624E+04  0.7816531E-02  0.8580144E-01
         -1   -1    0    0    0  501 -0.00000000000E+00  0.00000000000E+00  0.10173293876E+04  0.10173293876E+04  0.00000000000E+00 0.  1.
          1   -1    0    0  501    0  0.00000000000E+00 -0.00000000000E+00 -0.10404239543E+04  0.10404239543E+04  0.00000000000E+00 0. -1.
    2000013    1    1    2    0    0 -0.32662143614E+02  0.34353186027E+03 -0.20358257880E+03  0.10310319205E+04  0.95000000000E+03 0.  0.
   -2000013    1    1    2    0    0  0.32662143614E+02 -0.34353186027E+03  0.18048801207E+03  0.10267214214E+04  0.95000000000E+03 0.  0.
<mgrwt>
<rscale>  0 0.20576237E+04</rscale>
<asrwt>0</asrwt>
<pdfrwt beam="2">  1        1 0.16006522E+00 0.20576237E+04</pdfrwt>
<pdfrwt beam="1">  1       -1 0.15651221E+00 0.20576237E+04</pdfrwt>
<totfact> 0.40371233E+00</totfact>
</mgrwt>
</event>
<event>
 4    1  0.2043502E-008  0.2013651E+04  0.7816531E-02  0.8600265E-01
         -1   -1    0    0    0  501 -0.00000000000E+00  0.00000000000E+00  0.10002166600E+04  0.10002166600E+04  0.00000000000E+00 0. -1.
          1   -1    0    0  501    0  0.00000000000E+00 -0.00000000000E+00 -0.10134784987E+04  0.10134784987E+04  0.00000000000E+00 0.  1.
    2000013    1    1    2    0    0 -0.18278664608E+03 -0.14204612540E+03  0.23339515867E+03  0.10052668103E+04  0.95000000000E+03 0.  0.
   -2000013    1    1    2    0    0  0.18278664608E+03  0.14204612540E+03 -0.24665699736E+03  0.10084283485E+04  0.95000000000E+03 0.  0.
<mgrwt>
<rscale>  0 0.20136515E+04</rscale>
<asrwt>0</asrwt>
<pdfrwt beam="2">  1        1 0.15591977E+00 0.20136515E+04</pdfrwt>
<pdfrwt beam="1">  1       -1 0.15387949E+00 0.20136515E+04</pdfrwt>
<totfact> 0.44548707E+00</totfact>
</mgrwt>
</event>
<event>
 4    1  0.2043502E-008  0.2148529E+04  0.7816531E-02  0.8540162E-01
          2   -1    0    0  501    0  0.00000000000E+00  0.00000000000E+00  0.18795464998E+04  0.18795464998E+04  0.00000000000E+00 0.  1.
         -2   -1    0    0    0  501 -0.00000000000E+00 -0.00000000000E+00 -0.61400142424E+03  0.61400142424E+03  0.00000000000E+00 0. -1.
    2000013    1    1    2    0    0 -0.47769624146E+03 -0.74134125129E+02  0.78785128792E+03  0.13254807503E+04  0.95000000000E+03 0.  0.
   -2000013    1    1    2    0    0  0.47769624146E+03  0.74134125129E+02  0.47769378769E+03  0.11680671738E+04  0.95000000000E+03 0.  0.
<mgrwt>
<rscale>  0 0.21485290E+04</rscale>
<asrwt>0</asrwt>
<pdfrwt beam="1">  1        2 0.28916100E+00 0.21485290E+04</pdfrwt>
<pdfrwt beam="2">  1       -2 0.94461758E-01 0.21485290E+04</pdfrwt>
<totfact> 0.67571156E+00</totfact>
</mgrwt>
</event>
<event>
 4    1  0.2043502E-008  0.3030242E+04  0.7816531E-02  0.8235147E-01
         -2   -1    0    0    0  501 -0.00000000000E+00  0.00000000000E+00  0.13872089856E+04  0.13872089856E+04  0.00000000000E+00 0. -1.
          2   -1    0    0  501    0  0.00000000000E+00 -0.00000000000E+00 -0.16548274449E+04  0.16548274449E+04  0.00000000000E+00 0.  1.
    2000013    1    1    2    0    0  0.11136880107E+04 -0.29264604161E+03  0.12633025308E+03  0.14981328458E+04  0.95000000000E+03 0.  0.
   -2000013    1    1    2    0    0 -0.11136880107E+04  0.29264604161E+03 -0.39394871236E+03  0.15439035847E+04  0.95000000000E+03 0.  0.
<mgrwt>
<rscale>  0 0.30302419E+04</rscale>
<asrwt>0</asrwt>
<pdfrwt beam="2">  1        2 0.25458884E+00 0.30302419E+04</pdfrwt>
<pdfrwt beam="1">  1       -2 0.21341677E+00 0.30302419E+04</pdfrwt>
<totfact> 0.96611334E-01</totfact>
</mgrwt>
</event>
<event>
 4    1  0.2043502E-008  0.3335241E+04  0.7816531E-02  0.8153986E-01
         -2   -1    0    0    0  501 -0.00000000000E+00  0.00000000000E+00  0.12019320250E+04  0.12019320250E+04  0.00000000000E+00 0. -1.
          2   -1    0    0  501    0  0.00000000000E+00 -0.00000000000E+00 -0.23137395954E+04  0.23137395954E+04  0.00000000000E+00 0.  1.
    2000013    1    1    2    0    0  0.11247326447E+04 -0.77822045510E+03 -0.64904169687E+03  0.17872900501E+04  0.95000000000E+03 0.  0.
   -2000013    1    1    2    0    0 -0.11247326447E+04  0.77822045510E+03 -0.46276587352E+03  0.17283815703E+04  0.95000000000E+03 0.  0.
<mgrwt>
<rscale>  0 0.33352408E+04</rscale>
<asrwt>0</asrwt>
<pdfrwt beam="2">  1        2 0.35595994E+00 0.33352408E+04</pdfrwt>
<pdfrwt beam="1">  1       -2 0.18491262E+00 0.33352408E+04</pdfrwt>
<totfact> 0.62218001E-01</totfact>
</mgrwt>
</event>
<event>
 4    1  0.2043502E-008  0.2053321E+04  0.7816531E-02  0.8582089E-01
         -1   -1    0    0    0  501 -0.00000000000E+00  0.00000000000E+00  0.10623234608E+04  0.10623234608E+04  0.00000000000E+00 0. -1.
          1   -1    0    0  501    0  0.00000000000E+00 -0.00000000000E+00 -0.99219497963E+03  0.99219497963E+03  0.00000000000E+00 0.  1.
    2000013    1    1    2    0    0  0.13193283442E+03 -0.35295453061E+03  0.13283933735E+03  0.10305966539E+04  0.95000000000E+03 0.  0.
   -2000013    1    1    2    0    0 -0.13193283442E+03  0.35295453061E+03 -0.62710856172E+02  0.10239217865E+04  0.95000000000E+03 0.  0.
<mgrwt>
<rscale>  0 0.20533212E+04</rscale>
<asrwt>0</asrwt>
<pdfrwt beam="2">  1        1 0.15264538E+00 0.20533212E+04</pdfrwt>
<pdfrwt beam="1">  1       -1 0.16343438E+00 0.20533212E+04</pdfrwt>
<totfact> 0.39014761E+00</totfact>
</mgrwt>
</event>
<event>
 4    1  0.2043502E-008  0.2071746E+04  0.7816531E-02  0.8573792E-01
         -2   -1    0    0    0  501 -0.00000000000E+00  0.00000000000E+00  0.80751943769E+03  0.80751943769E+03  0.00000000000E+00 0.  1.
          2   -1    0    0  501    0  0.00000000000E+00 -0.00000000000E+00 -0.13288017280E+04  0.13288017280E+04  0.00000000000E+00 0. -1.
    2000013    1    1    2    0    0 -0.34175260279E+03 -0.22659153880E+03 -0.31110165553E+03  0.10804734180E+04  0.95000000000E+03 0.  0.
   -2000013    1    1    2    0    0  0.34175260279E+03  0.22659153880E+03 -0.21018063473E+03  0.10558477476E+04  0.95000000000E+03 0.  0.
<mgrwt>
<rscale>  0 0.20717463E+04</rscale>
<asrwt>0</asrwt>
<pdfrwt beam="2">  1        2 0.20443104E+00 0.20717463E+04</pdfrwt>
<pdfrwt beam="1">  1       -2 0.12423376E+00 0.20717463E+04</pdfrwt>
<totfact> 0.71550552E+00</totfact>
</mgrwt>
</event>
<event>
 4    1  0.2043502E-008  0.2624415E+04  0.7816531E-02  0.8359955E-01
         -2   -1    0    0    0  501 -0.00000000000E+00  0.00000000000E+00  0.10413895165E+04  0.10413895165E+04  0.00000000000E+00 0. -1.
          2   -1    0    0  501    0  0.00000000000E+00 -0.00000000000E+00 -0.16534531525E+04  0.16534531525E+04  0.00000000000E+00 0.  1.
    2000013    1    1    2    0    0  0.76000426275E+03  0.30170872798E+03  0.92658326276E+02  0.12568692061E+04  0.95000000000E+03 0.  0.
   -2000013    1    1    2    0    0 -0.76000426275E+03 -0.30170872798E+03 -0.70472196223E+03  0.14379734629E+04  0.95000000000E+03 0.  0.
<mgrwt>
<rscale>  0 0.26244152E+04</rscale>
<asrwt>0</asrwt>
<pdfrwt beam="2">  1        2 0.25437741E+00 0.26244152E+04</pdfrwt>
<pdfrwt beam="1">  1       -2 0.16021377E+00 0.26244152E+04</pdfrwt>
<totfact> 0.23069154E+00</totfact>
</mgrwt>
</event>
<event>
 4    1  0.2043502E-008  0.2287430E+04  0.7816531E-02  0.8482894E-01
         -2   -1    0    0    0  501 -0.00000000000E+00  0.00000000000E+00  0.76804145035E+03  0.76804145035E+03  0.00000000000E+00 0. -1.
          2   -1    0    0  501    0  0.00000000000E+00 -0.00000000000E+00 -0.17031424551E+04  0.17031424551E+04  0.00000000000E+00 0.  1.
    2000013    1    1    2    0    0  0.31770542137E+03  0.50919658434E+03 -0.23744712067E+03  0.11485203661E+04  0.95000000000E+03 0.  0.
   -2000013    1    1    2    0    0 -0.31770542137E+03 -0.50919658434E+03 -0.69765388407E+03  0.13226635393E+04  0.95000000000E+03 0.  0.
<mgrwt>
<rscale>  0 0.22874300E+04</rscale>
<asrwt>0</asrwt>
<pdfrwt beam="2">  1        2 0.26202191E+00 0.22874300E+04</pdfrwt>
<pdfrwt beam="1">  1       -2 0.11816022E+00 0.22874300E+04</pdfrwt>
<totfact> 0.48914738E+00</totfact>
</mgrwt>
</event>
<event>
 4    1  0.2043502E-008  0.1955649E+04  0.7816531E-02  0.8627642E-01
         -2   -1    0    0    0  501 -0.00000000000E+00  0.00000000000E+00  0.66045054695E+03  0.66045054695E+03  0.00000000000E+00 0. -1.
          2   -1    0    0  501    0  0.00000000000E+00 -0.00000000000E+00 -0.14477094908E+04  0.14477094908E+04  0.00000000000E+00 0.  1.
    2000013    1    1    2    0    0  0.72511101859E+02 -0.21692743938E+03 -0.43287095679E+03  0.10687341293E+04  0.95000000000E+03 0.  0.
   -2000013    1    1    2    0    0 -0.72511101859E+02  0.21692743938E+03 -0.35438798705E+03  0.10394259085E+04  0.95000000000E+03 0.  0.
<mgrwt>
<rscale>  0 0.19556488E+04</rscale>
<asrwt>0</asrwt>
<pdfrwt beam="2">  1        2 0.22272453E+00 0.19556488E+04</pdfrwt>
<pdfrwt beam="1">  1       -2 0.10160778E+00 0.19556488E+04</pdfrwt>
<totfact> 0.10078346E+01</totfact>
</mgrwt>
</event>
<event>
 4    1  0.2043502E-008  0.3496760E+04  0.7816531E-02  0.8114558E-01
          2   -1    0    0  501    0  0.00000000000E+00  0.00000000000E+00  0.17424964910E+04  0.17424964910E+04  0.00000000000E+00 0.  1.
         -2   -1    0    0    0  501 -0.00000000000E+00 -0.00000000000E+00 -0.17542837259E+04  0.17542837259E+04  0.00000000000E+00 0. -1.
    2000013    1    1    2    0    0  0.27906061740E+03 -0.13138193099E+04 -0.59778990082E+03  0.17503853212E+04  0.95000000000E+03 0.  0.
   -2000013    1    1    2    0    0 -0.27906061740E+03  0.13138193099E+04  0.58600266591E+03  0.17463948957E+04  0.95000000000E+03 0.  0.
<mgrwt>
<rscale>  0 0.34967604E+04</rscale>
<asrwt>0</asrwt>
<pdfrwt beam="1">  1        2 0.26807638E+00 0.34967604E+04</pdfrwt>
<pdfrwt beam="2">  1       -2 0.26988980E+00 0.34967604E+04</pdfrwt>
<totfact> 0.37055525E-01</totfact>
</mgrwt>
</event>
<event>
 4    1  0.2043502E-008  0.4217447E+04  0.7816531E-02  0.7962062E-01
          2   -1    0    0  501    0  0.00000000000E+00  0.00000000000E+00  0.20761414354E+04  0.20761414354E+04  0.00000000000E+00 0. -1.
         -2   -1    0    0    0  501 -0.00000000000E+00 -0.00000000000E+00 -0.21418165215E+04  0.21418165215E+04  0.00000000000E+00 0.  1.
    2000013    1    1    2    0    0  0.11313770781E+04 -0.65506461797E+03 -0.13876568226E+04  0.21300739902E+04  0.95000000000E+03 0.  0.
   -2000013    1    1    2    0    0 -0.11313770781E+04  0.65506461797E+03  0.13219817364E+04  0.20878839666E+04  0.95000000000E+03 0.  0.
<mgrwt>
<rscale>  0 0.42174466E+04</rscale>
<asrwt>0</asrwt>
<pdfrwt beam="1">  1        2 0.31940637E+00 0.42174466E+04</pdfrwt>
<pdfrwt beam="2">  1       -2 0.32951024E+00 0.42174466E+04</pdfrwt>
<totfact> 0.98180620E-02</totfact>
</mgrwt>
</event>
<event>
 4    1  0.2043502E-008  0.2410297E+04  0.7816531E-02  0.8435658E-01
         -1   -1    0    0    0  501 -0.00000000000E+00  0.00000000000E+00  0.12102877366E+04  0.12102877366E+04  0.00000000000E+00 0. -1.
          1   -1    0    0  501    0  0.00000000000E+00 -0.00000000000E+00 -0.12000313659E+04  0.12000313659E+04  0.00000000000E+00 0.  1.
    2000013    1    1    2    0    0 -0.40290336107E+03  0.55964666276E+03 -0.26754210366E+03  0.12039992868E+04  0.95000000000E+03 0.  0.
   -2000013    1    1    2    0    0  0.40290336107E+03 -0.55964666276E+03  0.27779847436E+03  0.12063198157E+04  0.95000000000E+03 0.  0.
<mgrwt>
<rscale>  0 0.24102973E+04</rscale>
<asrwt>0</asrwt>
<pdfrwt beam="2">  1        1 0.18462021E+00 0.24102973E+04</pdfrwt>
<pdfrwt beam="1">  1       -1 0.18619811E+00 0.24102973E+04</pdfrwt>
<totfact> 0.17981861E+00</totfact>
</mgrwt>
</event>
<event>
 4    1  0.2043502E-008  0.2550681E+04  0.7816531E-02  0.8385149E-01
         -2   -1    0    0    0  501 -0.00000000000E+00  0.00000000000E+00  0.10732224697E+04  0.10732224697E+04  0.00000000000E+00 0. -1.
          2   -1    0    0  501    0  0.00000000000E+00 -0.00000000000E+00 -0.15155229373E+04  0.15155229373E+04  0.00000000000E+00 0.  1.
    2000013    1    1    2    0    0  0.71702894649E+03 -0.25921274618E+03 -0.60450586045E+03  0.13598709840E+04  0.95000000000E+03 0.  0.
   -2000013    1    1    2    0    0 -0.71702894649E+03  0.25921274618E+03  0.16220539292E+03  0.12288744229E+04  0.95000000000E+03 0.  0.
<mgrwt>
<rscale>  0 0.25506809E+04</rscale>
<asrwt>0</asrwt>
<pdfrwt beam="2">  1        2 0.23315738E+00 0.25506809E+04</pdfrwt>
<pdfrwt beam="1">  1       -2 0.16511115E+00 0.25506809E+04</pdfrwt>
<totfact> 0.25536817E+00</totfact>
</mgrwt>
</event>
<event>
 4    1  0.2043502E-008  0.2293546E+04  0.7816531E-02  0.8480470E-01
          2   -1    0    0  501    0  0.00000000000E+00  0.00000000000E+00  0.28890972202E+04  0.28890972202E+04  0.00000000000E+00 0.  1.
         -2   -1    0    0    0  501 -0.00000000000E+00 -0.00000000000E+00 -0.45518994054E+03  0.45518994054E+03  0.00000000000E+00 0. -1.
    2000013    1    1    2    0    0 -0.17434191315E+03  0.56739698180E+03  0.15748748993E+04  0.19326317254E+04  0.95000000000E+03 0.  0.
   -2000013    1    1    2    0    0  0.17434191315E+03 -0.56739698180E+03  0.85903238041E+03  0.14116554354E+04  0.95000000000E+03 0.  0.
<mgrwt>
<rscale>  0 0.22935457E+04</rscale>
<asrwt>0</asrwt>
<pdfrwt beam="1">  1        2 0.44447649E+00 0.22935457E+04</pdfrwt>
<pdfrwt beam="2">  1       -2 0.70029223E-01 0.22935457E+04</pdfrwt>
<totfact> 0.34392458E+00</totfact>
</mgrwt>
</event>
<event>
 4    1  0.2043502E-008  0.5150639E+04  0.7816531E-02  0.7805681E-01
         -2   -1    0    0    0  501 -0.00000000000E+00  0.00000000000E+00  0.32360057207E+04  0.32360057207E+04  0.00000000000E+00 0. -1.
          2   -1    0    0  501    0  0.00000000000E+00 -0.00000000000E+00 -0.20495240261E+04  0.20495240261E+04  0.00000000000E+00 0.  1.
    2000013    1    1    2    0    0  0.15606109636E+04 -0.14447486543E+04  0.17206328143E+04  0.28958388310E+04  0.95000000000E+03 0.  0.
   -2000013    1    1    2    0    0 -0.15606109636E+04  0.14447486543E+04 -0.53415111970E+03  0.23896909157E+04  0.95000000000E+03 0.  0.
<mgrwt>
<rscale>  0 0.51506394E+04</rscale>
<asrwt>0</asrwt>
<pdfrwt beam="2">  1        2 0.31531139E+00 0.51506394E+04</pdfrwt>
<pdfrwt beam="1">  1       -2 0.49784704E+00 0.51506394E+04</pdfrwt>
<totfact> 0.77299346E-03</totfact>
</mgrwt>
</event>
<event>
 4    1  0.2043502E-008  0.2599798E+04  0.7816531E-02  0.8368270E-01
         -2   -1    0    0    0  501 -0.00000000000E+00  0.00000000000E+00  0.63953778510E+03  0.63953778510E+03  0.00000000000E+00 0. -1.
          2   -1    0    0  501    0  0.00000000000E+00 -0.00000000000E+00 -0.26421237824E+04  0.26421237824E+04  0.00000000000E+00 0.  1.
    2000013    1    1    2    0    0 -0.73001207470E+03 -0.46817298532E+03 -0.12378961338E+04  0.17852143881E+04  0.95000000000E+03 0.  0.
   -2000013    1    1    2    0    0  0.73001207470E+03  0.46817298532E+03 -0.76468986350E+03  0.14964471794E+04  0.95000000000E+03 0.  0.
<mgrwt>
<rscale>  0 0.25997984E+04</rscale>
<asrwt>0</asrwt>
<pdfrwt beam="2">  1        2 0.40648059E+00 0.25997984E+04</pdfrwt>
<pdfrwt beam="1">  1       -2 0.98390427E-01 0.25997984E+04</pdfrwt>
<totfact> 0.21816716E+00</totfact>
</mgrwt>
</event>
<event>
 4    1  0.2043502E-008  0.2752725E+04  0.7816531E-02  0.8318097E-01
         -2   -1    0    0    0  501 -0.00000000000E+00  0.00000000000E+00  0.19561306196E+04  0.19561306196E+04  0.00000000000E+00 0. -1.
          2   -1    0    0  501    0  0.00000000000E+00 -0.00000000000E+00 -0.96842916212E+03  0.96842916212E+03  0.00000000000E+00 0.  1.
    2000013    1    1    2    0    0 -0.29276990667E+03  0.89780620583E+03  0.82999274034E+03  0.15758039696E+04  0.95000000000E+03 0.  0.
   -2000013    1    1    2    0    0  0.29276990667E+03 -0.89780620583E+03  0.15770871718E+03  0.13487558122E+04  0.95000000000E+03 0.  0.
<mgrwt>
<rscale>  0 0.27527251E+04</rscale>
<asrwt>0</asrwt>
<pdfrwt beam="2">  1        2 0.14898910E+00 0.27527251E+04</pdfrwt>
<pdfrwt beam="1">  1       -2 0.30094317E+00 0.27527251E+04</pdfrwt>
<totfact> 0.72340195E-01</totfact>
</mgrwt>
</event>
<event>
 4    1  0.2043502E-008  0.2607700E+04  0.7816531E-02  0.8365590E-01
          2   -1    0    0  501    0  0.00000000000E+00  0.00000000000E+00  0.15215437009E+04  0.15215437009E+04  0.00000000000E+00 0.  1.
         -2   -1    0    0    0  501 -0.00000000000E+00 -0.00000000000E+00 -0.11173025594E+04  0.11173025594E+04  0.00000000000E+00 0. -1.
    2000013    1    1    2    0    0 -0.32695663852E+03  0.64427290664E+03  0.73330582472E+03  0.14007946510E+04  0.95000000000E+03 0.  0.
   -2000013    1    1    2    0    0  0.32695663852E+03 -0.64427290664E+03 -0.32906468319E+03  0.12380516094E+04  0.95000000000E+03 0.  0.
<mgrwt>
<rscale>  0 0.26076999E+04</rscale>
<asrwt>0</asrwt>
<pdfrwt beam="1">  1        2 0.23408365E+00 0.26076999E+04</pdfrwt>
<pdfrwt beam="2">  1       -2 0.17189270E+00 0.26076999E+04</pdfrwt>
<totfact> 0.22551052E+00</totfact>
</mgrwt>
</event>
<event>
 4    1  0.2043502E-008  0.2274254E+04  0.7816531E-02  0.8488142E-01
         -2   -1    0    0    0  501 -0.00000000000E+00  0.00000000000E+00  0.55219828617E+03  0.55219828617E+03  0.00000000000E+00 0. -1.
          2   -1    0    0  501    0  0.00000000000E+00 -0.00000000000E+00 -0.23416542635E+04  0.23416542635E+04  0.00000000000E+00 0.  1.
    2000013    1    1    2    0    0 -0.79163729496E+02 -0.61659031356E+03 -0.97627306440E+03  0.14973508631E+04  0.95000000000E+03 0.  0.
   -2000013    1    1    2    0    0  0.79163729496E+02  0.61659031356E+03 -0.81318291295E+03  0.13965016866E+04  0.95000000000E+03 0.  0.
<mgrwt>
<rscale>  0 0.22742537E+04</rscale>
<asrwt>0</asrwt>
<pdfrwt beam="2">  1        2 0.36025450E+00 0.22742537E+04</pdfrwt>
<pdfrwt beam="1">  1       -2 0.84953582E-01 0.22742537E+04</pdfrwt>
<totfact> 0.47046955E+00</totfact>
</mgrwt>
</event>
<event>
 4    1  0.2043502E-008  0.3217993E+04  0.7816531E-02  0.8184081E-01
          2   -1    0    0  501    0  0.00000000000E+00  0.00000000000E+00  0.28149074483E+04  0.28149074483E+04  0.00000000000E+00 0.  1.
         -2   -1    0    0    0  501 -0.00000000000E+00 -0.00000000000E+00 -0.91970003354E+03  0.91970003354E+03  0.00000000000E+00 0. -1.
    2000013    1    1    2    0    0 -0.93410174392E+03 -0.88270063320E+03  0.11636760279E+04  0.19769543176E+04  0.95000000000E+03 0.  0.
   -2000013    1    1    2    0    0  0.93410174392E+03  0.88270063320E+03  0.73153138678E+03  0.17576531642E+04  0.95000000000E+03 0.  0.
<mgrwt>
<rscale>  0 0.32179935E+04</rscale>
<asrwt>0</asrwt>
<pdfrwt beam="1">  1        2 0.43306268E+00 0.32179935E+04</pdfrwt>
<pdfrwt beam="2">  1       -2 0.14149231E+00 0.32179935E+04</pdfrwt>
<totfact> 0.66496805E-01</totfact>
</mgrwt>
</event>
<event>
 4    1  0.2043502E-008  0.2560316E+04  0.7816531E-02  0.8381807E-01
         -2   -1    0    0    0  501 -0.00000000000E+00  0.00000000000E+00  0.13075864370E+04  0.13075864370E+04  0.00000000000E+00 0.  1.
          2   -1    0    0  501    0  0.00000000000E+00 -0.00000000000E+00 -0.12533046235E+04  0.12533046235E+04  0.00000000000E+00 0. -1.
    2000013    1    1    2    0    0  0.65176824607E+03 -0.52494610049E+03 -0.16246400885E+03  0.12764265781E+04  0.95000000000E+03 0.  0.
   -2000013    1    1    2    0    0 -0.65176824607E+03  0.52494610049E+03  0.21674582237E+03  0.12844644824E+04  0.95000000000E+03 0.  0.
<mgrwt>
<rscale>  0 0.25603157E+04</rscale>
<asrwt>0</asrwt>
<pdfrwt beam="2">  1        2 0.19281609E+00 0.25603157E+04</pdfrwt>
<pdfrwt beam="1">  1       -2 0.20116715E+00 0.25603157E+04</pdfrwt>
<totfact> 0.20420372E+00</totfact>
</mgrwt>
</event>
<event>
 4    1  0.2043502E-008  0.2789822E+04  0.7816531E-02  0.8306435E-01
          2   -1    0    0  501    0  0.00000000000E+00  0.00000000000E+00  0.22399909440E+04  0.22399909440E+04  0.00000000000E+00 0.  1.
         -2   -1    0    0    0  501 -0.00000000000E+00 -0.00000000000E+00 -0.86865358953E+03  0.86865358953E+03  0.00000000000E+00 0. -1.
    2000013    1    1    2    0    0  0.26137029586E+03  0.72420260790E+03 -0.62222355952E+02  0.12244000451E+04  0.95000000000E+03 0.  0.
   -2000013    1    1    2    0    0 -0.26137029586E+03 -0.72420260790E+03  0.14335597104E+04  0.18842444884E+04  0.95000000000E+03 0.  0.
<mgrwt>
<rscale>  0 0.27898216E+04</rscale>
<asrwt>0</asrwt>
<pdfrwt beam="1">  1        2 0.34461399E+00 0.27898216E+04</pdfrwt>
<pdfrwt beam="2">  1       -2 0.13363901E+00 0.27898216E+04</pdfrwt>
<totfact> 0.17284281E+00</totfact>
</mgrwt>
</event>
<event>
 4    1  0.2043502E-008  0.2659834E+04  0.7816531E-02  0.8348156E-01
          1   -1    0    0  501    0  0.00000000000E+00  0.00000000000E+00  0.14653349456E+04  0.14653349456E+04  0.00000000000E+00 0.  1.
         -1   -1    0    0    0  501 -0.00000000000E+00 -0.00000000000E+00 -0.12070133020E+04  0.12070133020E+04  0.00000000000E+00 0. -1.
    2000013    1    1    2    0    0 -0.60201450855E+03  0.56952572631E+03  0.55470736902E+03  0.13773094375E+04  0.95000000000E+03 0.  0.
   -2000013    1    1    2    0    0  0.60201450855E+03 -0.56952572631E+03 -0.29638572540E+03  0.12950388101E+04  0.95000000000E+03 0.  0.
<mgrwt>
<rscale>  0 0.26598337E+04</rscale>
<asrwt>0</asrwt>
<pdfrwt beam="1">  1        1 0.22543614E+00 0.26598337E+04</pdfrwt>
<pdfrwt beam="2">  1       -1 0.18569436E+00 0.26598337E+04</pdfrwt>
<totfact> 0.11482648E+00</totfact>
</mgrwt>
</event>
<event>
 4    1  0.2043502E-008  0.2281873E+04  0.7816531E-02  0.8485103E-01
          2   -1    0    0  501    0  0.00000000000E+00  0.00000000000E+00  0.41367710764E+04  0.41367710764E+04  0.00000000000E+00 0.  1.
         -2   -1    0    0    0  501 -0.00000000000E+00 -0.00000000000E+00 -0.31467447654E+03  0.31467447654E+03  0.00000000000E+00 0. -1.
    2000013    1    1    2    0    0  0.46097169482E+03  0.43213288887E+03  0.19141548632E+04  0.22283901313E+04  0.95000000000E+03 0.  0.
   -2000013    1    1    2    0    0 -0.46097169482E+03 -0.43213288887E+03  0.19079417367E+04  0.22230554216E+04  0.95000000000E+03 0.  0.
<mgrwt>
<rscale>  0 0.22818732E+04</rscale>
<asrwt>0</asrwt>
<pdfrwt beam="1">  1        2 0.63642628E+00 0.22818732E+04</pdfrwt>
<pdfrwt beam="2">  1       -2 0.48411461E-01 0.22818732E+04</pdfrwt>
<totfact> 0.97372207E-01</totfact>
</mgrwt>
</event>
<event>
 4    1  0.2043502E-008  0.3188444E+04  0.7816531E-02  0.8191876E-01
          2   -1    0    0  501    0  0.00000000000E+00  0.00000000000E+00  0.11457686860E+04  0.11457686860E+04  0.00000000000E+00 0.  1.
         -2   -1    0    0    0  501 -0.00000000000E+00 -0.00000000000E+00 -0.22181990331E+04  0.22181990331E+04  0.00000000000E+00 0. -1.
    2000013    1    1    2    0    0  0.10083568637E+04 -0.43915642659E+03  0.15514546442E+03  0.14615786146E+04  0.95000000000E+03 0.  0.
   -2000013    1    1    2    0    0 -0.10083568637E+04  0.43915642659E+03 -0.12275758116E+04  0.19023891045E+04  0.95000000000E+03 0.  0.
<mgrwt>
<rscale>  0 0.31884435E+04</rscale>
<asrwt>0</asrwt>
<pdfrwt beam="1">  1        2 0.17627211E+00 0.31884435E+04</pdfrwt>
<pdfrwt beam="2">  1       -2 0.34126139E+00 0.31884435E+04</pdfrwt>
<totfact> 0.30383782E-01</totfact>
</mgrwt>
</event>
<event>
 4    1  0.2043502E-008  0.2002929E+04  0.7816531E-02  0.8605253E-01
          2   -1    0    0  501    0  0.00000000000E+00  0.00000000000E+00  0.17073067054E+04  0.17073067054E+04  0.00000000000E+00 0.  1.
         -2   -1    0    0    0  501 -0.00000000000E+00 -0.00000000000E+00 -0.58743438396E+03  0.58743438396E+03  0.00000000000E+00 0. -1.
    2000013    1    1    2    0    0 -0.21486846221E+03  0.23190704961E+03  0.53480061206E+03  0.11351039734E+04  0.95000000000E+03 0.  0.
   -2000013    1    1    2    0    0  0.21486846221E+03 -0.23190704961E+03  0.58507170943E+03  0.11596371160E+04  0.95000000000E+03 0.  0.
<mgrwt>
<rscale>  0 0.20029285E+04</rscale>
<asrwt>0</asrwt>
<pdfrwt beam="1">  1        2 0.26266257E+00 0.20029285E+04</pdfrwt>
<pdfrwt beam="2">  1       -2 0.90374521E-01 0.20029285E+04</pdfrwt>
<totfact> 0.94456635E+00</totfact>
</mgrwt>
</event>
<event>
 4    1  0.2043502E-008  0.2501638E+04  0.7816531E-02  0.8402402E-01
         -2   -1    0    0    0  501 -0.00000000000E+00  0.00000000000E+00  0.79287270128E+03  0.79287270128E+03  0.00000000000E+00 0.  1.
          2   -1    0    0  501    0  0.00000000000E+00 -0.00000000000E+00 -0.19732649601E+04  0.19732649601E+04  0.00000000000E+00 0. -1.
    2000013    1    1    2    0    0  0.32516074573E+03 -0.68562521002E+03 -0.91490553612E+03  0.15216318803E+04  0.95000000000E+03 0.  0.
   -2000013    1    1    2    0    0 -0.32516074573E+03  0.68562521002E+03 -0.26548672271E+03  0.12445057811E+04  0.95000000000E+03 0.  0.
<mgrwt>
<rscale>  0 0.25016378E+04</rscale>
<asrwt>0</asrwt>
<pdfrwt beam="2">  1        2 0.30357922E+00 0.25016378E+04</pdfrwt>
<pdfrwt beam="1">  1       -2 0.12198042E+00 0.25016378E+04</pdfrwt>
<totfact> 0.31431155E+00</totfact>
</mgrwt>
</event>
<event>
 4    1  0.2043502E-008  0.2305383E+04  0.7816531E-02  0.8475802E-01
         -2   -1    0    0    0  501 -0.00000000000E+00  0.00000000000E+00  0.69559461250E+03  0.69559461250E+03  0.00000000000E+00 0. -1.
          2   -1    0    0  501    0  0.00000000000E+00 -0.00000000000E+00 -0.19101610545E+04  0.19101610545E+04  0.00000000000E+00 0.  1.
    2000013    1    1    2    0    0  0.56956362087E+03  0.31561165451E+03 -0.55445729494E+03  0.12782551884E+04  0.95000000000E+03 0.  0.
   -2000013    1    1    2    0    0 -0.56956362087E+03 -0.31561165451E+03 -0.66010914702E+03  0.13275004786E+04  0.95000000000E+03 0.  0.
<mgrwt>
<rscale>  0 0.23053830E+04</rscale>
<asrwt>0</asrwt>
<pdfrwt beam="2">  1        2 0.29387093E+00 0.23053830E+04</pdfrwt>
<pdfrwt beam="1">  1       -2 0.10701456E+00 0.23053830E+04</pdfrwt>
<totfact> 0.47697176E+00</totfact>
</mgrwt>
</event>
<event>
 4    1  0.2043502E-008  0.2641732E+04  0.7816531E-02  0.8354163E-01
          2   -1    0    0  501    0  0.00000000000E+00  0.00000000000E+00  0.17236671639E+04  0.17236671639E+04  0.00000000000E+00 0.  1.
         -2   -1    0    0    0  501 -0.00000000000E+00 -0.00000000000E+00 -0.10121944605E+04  0.10121944605E+04  0.00000000000E+00 0. -1.
    2000013    1    1    2    0    0  0.70271266091E+03  0.39596214969E+03 -0.97576274296E+02  0.12500448940E+04  0.95000000000E+03 0.  0.
   -2000013    1    1    2    0    0 -0.70271266091E+03 -0.39596214969E+03  0.80904897770E+03  0.14858167303E+04  0.95000000000E+03 0.  0.
<mgrwt>
<rscale>  0 0.26417315E+04</rscale>
<asrwt>0</asrwt>
<pdfrwt beam="1">  1        2 0.26517956E+00 0.26417315E+04</pdfrwt>
<pdfrwt beam="2">  1       -2 0.15572223E+00 0.26417315E+04</pdfrwt>
<totfact> 0.22740614E+00</totfact>
</mgrwt>
</event>
<event>
 4    1  0.2043502E-008  0.2907471E+04  0.7816531E-02  0.8270658E-01
          2   -1    0    0  501    0  0.00000000000E+00  0.00000000000E+00  0.11650067556E+04  0.11650067556E+04  0.00000000000E+00 0.  1.
         -2   -1    0    0    0  501 -0.00000000000E+00 -0.00000000000E+00 -0.18140212625E+04  0.18140212625E+04  0.00000000000E+00 0. -1.
    2000013    1    1    2    0    0 -0.62735717939E+03  0.45895259066E+03 -0.11225424130E+04  0.16633748766E+04  0.95000000000E+03 0.  0.
   -2000013    1    1    2    0    0  0.62735717939E+03 -0.45895259066E+03  0.47352790614E+03  0.13156531416E+04  0.95000000000E+03 0.  0.
<mgrwt>
<rscale>  0 0.29074711E+04</rscale>
<asrwt>0</asrwt>
<pdfrwt beam="1">  1        2 0.17923181E+00 0.29074711E+04</pdfrwt>
<pdfrwt beam="2">  1       -2 0.27908019E+00 0.29074711E+04</pdfrwt>
<totfact> 0.73153691E-01</totfact>
</mgrwt>
</event>
<event>
 4    1  0.2043502E-008  0.3632455E+04  0.7816531E-02  0.8083098E-01
          2   -1    0    0  501    0  0.00000000000E+00  0.00000000000E+00  0.13749480459E+04  0.13749480459E+04  0.00000000000E+00 0. -1.
         -2   -1    0    0    0  501 -0.00000000000E+00 -0.00000000000E+00 -0.23991323464E+04  0.23991323464E+04  0.00000000000E+00 0.  1.
    2000013    1    1    2    0    0  0.13692107334E+04  0.36709012888E+03  0.13399616944E+03  0.17117091367E+04  0.95000000000E+03 0.  0.
   -2000013    1    1    2    0    0 -0.13692107334E+04 -0.36709012888E+03 -0.11581804700E+04  0.20623712557E+04  0.95000000000E+03 0.  0.
<mgrwt>
<rscale>  0 0.36324550E+04</rscale>
<asrwt>0</asrwt>
<pdfrwt beam="1">  1        2 0.21153047E+00 0.36324550E+04</pdfrwt>
<pdfrwt beam="2">  1       -2 0.36909728E+00 0.36324550E+04</pdfrwt>
<totfact> 0.14297553E-01</totfact>
</mgrwt>
</event>
<event>
 4    1  0.2043502E-008  0.2774193E+04  0.7816531E-02  0.8311325E-01
         -2   -1    0    0    0  501 -0.00000000000E+00  0.00000000000E+00  0.24014843272E+04  0.24014843272E+04  0.00000000000E+00 0. -1.
          2   -1    0    0  501    0  0.00000000000E+00 -0.00000000000E+00 -0.80118636630E+03  0.80118636630E+03  0.00000000000E+00 0.  1.
    2000013    1    1    2    0    0 -0.99003067879E+03 -0.12394622367E+03  0.61395243771E+03  0.15082973868E+04  0.95000000000E+03 0.  0.
   -2000013    1    1    2    0    0  0.99003067879E+03  0.12394622367E+03  0.98634552321E+03  0.16943733067E+04  0.95000000000E+03 0.  0.
<mgrwt>
<rscale>  0 0.27741929E+04</rscale>
<asrwt>0</asrwt>
<pdfrwt beam="2">  1        2 0.12325944E+00 0.27741929E+04</pdfrwt>
<pdfrwt beam="1">  1       -2 0.36945913E+00 0.27741929E+04</pdfrwt>
<totfact> 0.35078873E-01</totfact>
</mgrwt>
</event>
<event>
 4    1  0.2043502E-008  0.3910995E+04  0.7816531E-02  0.8022746E-01
          2   -1    0    0  501    0  0.00000000000E+00  0.00000000000E+00  0.14321673414E+04  0.14321673414E+04  0.00000000000E+00 0. -1.
         -2   -1    0    0    0  501 -0.00000000000E+00 -0.00000000000E+00 -0.26700590185E+04  0.26700590185E+04  0.00000000000E+00 0.  1.
    2000013    1    1    2    0    0  0.47702007635E+03 -0.67499945997E+03 -0.21881930030E+04  0.25246506773E+04  0.95000000000E+03 0.  0.
   -2000013    1    1    2    0    0 -0.47702007635E+03  0.67499945997E+03  0.95030132587E+03  0.15775756825E+04  0.95000000000E+03 0.  0.
<mgrwt>
<rscale>  0 0.39109954E+04</rscale>
<asrwt>0</asrwt>
<pdfrwt beam="1">  1        2 0.22033344E+00 0.39109954E+04</pdfrwt>
<pdfrwt beam="2">  1       -2 0.41077831E+00 0.39109954E+04</pdfrwt>
<totfact> 0.69471059E-02</totfact>
</mgrwt>
</event>
<event>
 4    1  0.2043502E-008  0.3600262E+04  0.7816531E-02  0.8090432E-01
         -2   -1    0    0    0  501 -0.00000000000E+00  0.00000000000E+00  0.11465931991E+04  0.11465931991E+04  0.00000000000E+00 0. -1.
          2   -1    0    0  501    0  0.00000000000E+00 -0.00000000000E+00 -0.28261735152E+04  0.28261735152E+04  0.00000000000E+00 0.  1.
    2000013    1    1    2    0    0 -0.13689824445E+04 -0.61006080432E+03 -0.11739130706E+04  0.21276416558E+04  0.95000000000E+03 0.  0.
   -2000013    1    1    2    0    0  0.13689824445E+04  0.61006080432E+03 -0.50566724550E+03  0.18451250585E+04  0.95000000000E+03 0.  0.
<mgrwt>
<rscale>  0 0.36002618E+04</rscale>
<asrwt>0</asrwt>
<pdfrwt beam="2">  1        2 0.43479592E+00 0.36002618E+04</pdfrwt>
<pdfrwt beam="1">  1       -2 0.17639896E+00 0.36002618E+04</pdfrwt>
<totfact> 0.34887345E-01</totfact>
</mgrwt>
</event>
<event>
 4    1  0.2043502E-008  0.2731848E+04  0.7816531E-02  0.8324745E-01
          1   -1    0    0  501    0  0.00000000000E+00  0.00000000000E+00  0.11169332250E+04  0.11169332250E+04  0.00000000000E+00 0.  1.
         -1   -1    0    0    0  501 -0.00000000000E+00 -0.00000000000E+00 -0.16704211245E+04  0.16704211245E+04  0.00000000000E+00 0. -1.
    2000013    1    1    2    0    0  0.76579930962E+03 -0.56715286494E+03 -0.51632954435E+03  0.14412519395E+04  0.95000000000E+03 0.  0.
   -2000013    1    1    2    0    0 -0.76579930962E+03  0.56715286494E+03 -0.37158355116E+02  0.13461024100E+04  0.95000000000E+03 0.  0.
<mgrwt>
<rscale>  0 0.27318484E+04</rscale>
<asrwt>0</asrwt>
<pdfrwt beam="1">  1        1 0.17183588E+00 0.27318484E+04</pdfrwt>
<pdfrwt beam="2">  1       -1 0.25698786E+00 0.27318484E+04</pdfrwt>
<totfact> 0.67296211E-01</totfact>
</mgrwt>
</event>
<event>
 4    1  0.2043502E-008  0.3594767E+04  0.7816531E-02  0.8091691E-01
         -2   -1    0    0    0  501 -0.00000000000E+00  0.00000000000E+00  0.19596326562E+04  0.19596326562E+04  0.00000000000E+00 0. -1.
          2   -1    0    0  501    0  0.00000000000E+00 -0.00000000000E+00 -0.16485676305E+04  0.16485676305E+04  0.00000000000E+00 0.  1.
    2000013    1    1    2    0    0 -0.10683889113E+04  0.10787101160E+04  0.32533919864E+01  0.17909720726E+04  0.95000000000E+03 0.  0.
   -2000013    1    1    2    0    0  0.10683889113E+04 -0.10787101160E+04  0.30781163375E+03  0.18172282141E+04  0.95000000000E+03 0.  0.
<mgrwt>
<rscale>  0 0.35947667E+04</rscale>
<asrwt>0</asrwt>
<pdfrwt beam="2">  1        2 0.25362579E+00 0.35947667E+04</pdfrwt>
<pdfrwt beam="1">  1       -2 0.30148195E+00 0.35947667E+04</pdfrwt>
<totfact> 0.26586000E-01</totfact>
</mgrwt>
</event>
<event>
 4    1  0.2043502E-008  0.2160753E+04  0.7816531E-02  0.8534944E-01
         -2   -1    0    0    0  501 -0.00000000000E+00  0.00000000000E+00  0.72609945275E+03  0.72609945275E+03  0.00000000000E+00 0. -1.
          2   -1    0    0  501    0  0.00000000000E+00 -0.00000000000E+00 -0.16075112200E+04  0.16075112200E+04  0.00000000000E+00 0.  1.
    2000013    1    1    2    0    0  0.37550829375E+03  0.33102753084E+03 -0.31233896442E+03  0.11183207650E+04  0.95000000000E+03 0.  0.
   -2000013    1    1    2    0    0 -0.37550829375E+03 -0.33102753084E+03 -0.56907280283E+03  0.12152899077E+04  0.95000000000E+03 0.  0.
<mgrwt>
<rscale>  0 0.21607527E+04</rscale>
<asrwt>0</asrwt>
<pdfrwt beam="2">  1        2 0.24730942E+00 0.21607527E+04</pdfrwt>
<pdfrwt beam="1">  1       -2 0.11170761E+00 0.21607527E+04</pdfrwt>
<totfact> 0.64105812E+00</totfact>
</mgrwt>
</event>
<event>
 4    1  0.2043502E-008  0.2600795E+04  0.7816531E-02  0.8367931E-01
          2   -1    0    0  501    0  0.00000000000E+00  0.00000000000E+00  0.18311416680E+04  0.18311416680E+04  0.00000000000E+00 0. -1.
         -2   -1    0    0    0  501 -0.00000000000E+00 -0.00000000000E+00 -0.92348564330E+03  0.92348564330E+03  0.00000000000E+00 0.  1.
    2000013    1    1    2    0    0  0.25647423219E+03 -0.50045392085E+03  0.11817179663E+04  0.16171550670E+04  0.95000000000E+03 0.  0.
   -2000013    1    1    2    0    0 -0.25647423219E+03  0.50045392085E+03 -0.27406194168E+03  0.11374722443E+04  0.95000000000E+03 0.  0.
<mgrwt>
<rscale>  0 0.26007945E+04</rscale>
<asrwt>0</asrwt>
<pdfrwt beam="1">  1        2 0.28171410E+00 0.26007945E+04</pdfrwt>
<pdfrwt beam="2">  1       -2 0.14207471E+00 0.26007945E+04</pdfrwt>
<totfact> 0.25354169E+00</totfact>
</mgrwt>
</event>
<event>
 4    1  0.2043502E-008  0.2839875E+04  0.7816531E-02  0.8290995E-01
         -2   -1    0    0    0  501 -0.00000000000E+00  0.00000000000E+00  0.33547454785E+04  0.33547454785E+04  0.00000000000E+00 0. -1.
          2   -1    0    0  501    0  0.00000000000E+00 -0.00000000000E+00 -0.60100597662E+03  0.60100597662E+03  0.00000000000E+00 0.  1.
    2000013    1    1    2    0    0  0.62652704907E+03  0.84788007110E+03  0.13102805583E+04  0.19315206185E+04  0.95000000000E+03 0.  0.
   -2000013    1    1    2    0    0 -0.62652704907E+03 -0.84788007110E+03  0.14434589436E+04  0.20242308366E+04  0.95000000000E+03 0.  0.
<mgrwt>
<rscale>  0 0.28398747E+04</rscale>
<asrwt>0</asrwt>
<pdfrwt beam="2">  1        2 0.92462460E-01 0.28398747E+04</pdfrwt>
<pdfrwt beam="1">  1       -2 0.51611468E+00 0.28398747E+04</pdfrwt>
<totfact> 0.56249132E-02</totfact>
</mgrwt>
</event>
<event>
 4    1  0.2043502E-008  0.2808461E+04  0.7816531E-02  0.8300646E-01
         -2   -1    0    0    0  501 -0.00000000000E+00  0.00000000000E+00  0.72602262209E+03  0.72602262209E+03  0.00000000000E+00 0. -1.
          2   -1    0    0  501    0  0.00000000000E+00 -0.00000000000E+00 -0.27159811450E+04  0.27159811450E+04  0.00000000000E+00 0.  1.
    2000013    1    1    2    0    0  0.91812698474E+03 -0.97256367410E+02 -0.42413122658E+03  0.13909720552E+04  0.95000000000E+03 0.  0.
   -2000013    1    1    2    0    0 -0.91812698474E+03  0.97256367410E+02 -0.15658272964E+04  0.20510317119E+04  0.95000000000E+03 0.  0.
<mgrwt>
<rscale>  0 0.28084613E+04</rscale>
<asrwt>0</asrwt>
<pdfrwt beam="2">  1        2 0.41784326E+00 0.28084613E+04</pdfrwt>
<pdfrwt beam="1">  1       -2 0.11169579E+00 0.28084613E+04</pdfrwt>
<totfact> 0.14295673E+00</totfact>
</mgrwt>
</event>
<event>
 4    1  0.2043502E-008  0.3184101E+04  0.7816531E-02  0.8193029E-01
         -1   -1    0    0    0  501 -0.00000000000E+00  0.00000000000E+00  0.61460903242E+03  0.61460903242E+03  0.00000000000E+00 0. -1.
          1   -1    0    0  501    0  0.00000000000E+00 -0.00000000000E+00 -0.41239621936E+04  0.41239621936E+04  0.00000000000E+00 0.  1.
    2000013    1    1    2    0    0 -0.44963305451E+03  0.11677437692E+04 -0.21379532631E+04  0.26531376801E+04  0.95000000000E+03 0.  0.
   -2000013    1    1    2    0    0  0.44963305451E+03 -0.11677437692E+04 -0.13713998980E+04  0.20854335459E+04  0.95000000000E+03 0.  0.
<mgrwt>
<rscale>  0 0.31841008E+04</rscale>
<asrwt>0</asrwt>
<pdfrwt beam="2">  1        1 0.63445573E+00 0.31841008E+04</pdfrwt>
<pdfrwt beam="1">  1       -1 0.94555234E-01 0.31841008E+04</pdfrwt>
<totfact> 0.67257336E-02</totfact>
</mgrwt>
</event>
<event>
 4    1  0.2043502E-008  0.2154196E+04  0.7816531E-02  0.8537738E-01
          2   -1    0    0  501    0  0.00000000000E+00  0.00000000000E+00  0.18949244721E+04  0.18949244721E+04  0.00000000000E+00 0.  1.
         -2   -1    0    0    0  501 -0.00000000000E+00 -0.00000000000E+00 -0.61223558679E+03  0.61223558679E+03  0.00000000000E+00 0. -1.
    2000013    1    1    2    0    0  0.49707412160E+03  0.99195462250E+02  0.67252548997E+03  0.12695325741E+04  0.95000000000E+03 0.  0.
   -2000013    1    1    2    0    0 -0.49707412160E+03 -0.99195462250E+02  0.61016339539E+03  0.12376274848E+04  0.95000000000E+03 0.  0.
<mgrwt>
<rscale>  0 0.21541961E+04</rscale>
<asrwt>0</asrwt>
<pdfrwt beam="1">  1        2 0.29152684E+00 0.21541961E+04</pdfrwt>
<pdfrwt beam="2">  1       -2 0.94190091E-01 0.21541961E+04</pdfrwt>
<totfact> 0.66671629E+00</totfact>
</mgrwt>
</event>
<event>
 4    1  0.2043502E-008  0.4330091E+04  0.7816531E-02  0.7941077E-01
         -2   -1    0    0    0  501 -0.00000000000E+00  0.00000000000E+00  0.23490509763E+04  0.23490509763E+04  0.00000000000E+00 0. -1.
          2   -1    0    0  501    0  0.00000000000E+00 -0.00000000000E+00 -0.19954532246E+04  0.19954532246E+04  0.00000000000E+00 0.  1.
    2000013    1    1    2    0    0 -0.18417868916E+04  0.66363221443E+02  0.80204117251E+03  0.22231403630E+04  0.95000000000E+03 0.  0.
   -2000013    1    1    2    0    0  0.18417868916E+04 -0.66363221443E+02 -0.44844342076E+03  0.21213638379E+04  0.95000000000E+03 0.  0.
<mgrwt>
<rscale>  0 0.43300907E+04</rscale>
<asrwt>0</asrwt>
<pdfrwt beam="2">  1        2 0.30699280E+00 0.43300907E+04</pdfrwt>
<pdfrwt beam="1">  1       -2 0.36139246E+00 0.43300907E+04</pdfrwt>
<totfact> 0.68009933E-02</totfact>
</mgrwt>
</event>
<event>
 4    1  0.2043502E-008  0.2204007E+04  0.7816531E-02  0.8516762E-01
          2   -1    0    0  501    0  0.00000000000E+00  0.00000000000E+00  0.85092889057E+03  0.85092889057E+03  0.00000000000E+00 0. -1.
         -2   -1    0    0    0  501 -0.00000000000E+00 -0.00000000000E+00 -0.14271594367E+04  0.14271594367E+04  0.00000000000E+00 0.  1.
    2000013    1    1    2    0    0  0.24356975816E+03 -0.37465491783E+03 -0.63436562560E+03  0.12266263822E+04  0.95000000000E+03 0.  0.
   -2000013    1    1    2    0    0 -0.24356975816E+03  0.37465491783E+03  0.58135079435E+02  0.10514619451E+04  0.95000000000E+03 0.  0.
<mgrwt>
<rscale>  0 0.22040065E+04</rscale>
<asrwt>0</asrwt>
<pdfrwt beam="1">  1        2 0.13091214E+00 0.22040065E+04</pdfrwt>
<pdfrwt beam="2">  1       -2 0.21956299E+00 0.22040065E+04</pdfrwt>
<totfact> 0.28793321E+00</totfact>
</mgrwt>
</event>
<event>
 4    1  0.2043502E-008  0.2416852E+04  0.7816531E-02  0.8433221E-01
          2   -1    0    0  501    0  0.00000000000E+00  0.00000000000E+00  0.12052861745E+04  0.12052861745E+04  0.00000000000E+00 0.  1.
         -2   -1    0    0    0  501 -0.00000000000E+00 -0.00000000000E+00 -0.12115739451E+04  0.12115739451E+04  0.00000000000E+00 0. -1.
    2000013    1    1    2    0    0 -0.55358044750E+03 -0.27934496553E+03 -0.41944855355E+03  0.12095131296E+04  0.95000000000E+03 0.  0.
   -2000013    1    1    2    0    0  0.55358044750E+03  0.27934496553E+03  0.41316078291E+03  0.12073469900E+04  0.95000000000E+03 0.  0.
<mgrwt>
<rscale>  0 0.24168519E+04</rscale>
<asrwt>0</asrwt>
<pdfrwt beam="1">  1        2 0.18542864E+00 0.24168519E+04</pdfrwt>
<pdfrwt beam="2">  1       -2 0.18639599E+00 0.24168519E+04</pdfrwt>
<totfact> 0.27679963E+00</totfact>
</mgrwt>
</event>
<event>
 4    1  0.2043502E-008  0.3290560E+04  0.7816531E-02  0.8165302E-01
         -2   -1    0    0    0  501 -0.00000000000E+00  0.00000000000E+00  0.16421650791E+04  0.16421650791E+04  0.00000000000E+00 0. -1.
          2   -1    0    0  501    0  0.00000000000E+00 -0.00000000000E+00 -0.16484008071E+04  0.16484008071E+04  0.00000000000E+00 0.  1.
    2000013    1    1    2    0    0 -0.41733118520E+03 -0.11564575354E+04 -0.54430909090E+03  0.16463085178E+04  0.95000000000E+03 0.  0.
   -2000013    1    1    2    0    0  0.41733118520E+03  0.11564575354E+04  0.53807336288E+03  0.16442573683E+04  0.95000000000E+03 0.  0.
<mgrwt>
<rscale>  0 0.32905600E+04</rscale>
<asrwt>0</asrwt>
<pdfrwt beam="2">  1        2 0.25360012E+00 0.32905600E+04</pdfrwt>
<pdfrwt beam="1">  1       -2 0.25264078E+00 0.32905600E+04</pdfrwt>
<totfact> 0.54218306E-01</totfact>
</mgrwt>
</event>
<event>
 4    1  0.2043502E-008  0.4089008E+04  0.7816531E-02  0.7986828E-01
         -2   -1    0    0    0  501 -0.00000000000E+00  0.00000000000E+00  0.12959505121E+04  0.12959505121E+04  0.00000000000E+00 0. -1.
          2   -1    0    0  501    0  0.00000000000E+00 -0.00000000000E+00 -0.32254287016E+04  0.32254287016E+04  0.00000000000E+00 0.  1.
    2000013    1    1    2    0    0  0.10662939822E+04  0.11921576959E+04 -0.26961332652E+02  0.18604971760E+04  0.95000000000E+03 0.  0.
   -2000013    1    1    2    0    0 -0.10662939822E+04 -0.11921576959E+04 -0.19025168568E+04  0.26608820378E+04  0.95000000000E+03 0.  0.
<mgrwt>
<rscale>  0 0.40890077E+04</rscale>
<asrwt>0</asrwt>
<pdfrwt beam="2">  1        2 0.49621979E+00 0.40890077E+04</pdfrwt>
<pdfrwt beam="1">  1       -2 0.19937700E+00 0.40890077E+04</pdfrwt>
<totfact> 0.13109605E-01</totfact>
</mgrwt>
</event>
<event>
 4    1  0.2043502E-008  0.2508529E+04  0.7816531E-02  0.8399953E-01
         -2   -1    0    0    0  501 -0.00000000000E+00  0.00000000000E+00  0.69089322047E+03  0.69089322047E+03  0.00000000000E+00 0. -1.
          2   -1    0    0  501    0  0.00000000000E+00 -0.00000000000E+00 -0.22770234196E+04  0.22770234196E+04  0.00000000000E+00 0.  1.
    2000013    1    1    2    0    0  0.19733768884E+03  0.76101204244E+03 -0.10644085731E+04  0.16289711792E+04  0.95000000000E+03 0.  0.
   -2000013    1    1    2    0    0 -0.19733768884E+03 -0.76101204244E+03 -0.52172162608E+03  0.13389454609E+04  0.95000000000E+03 0.  0.
<mgrwt>
<rscale>  0 0.25085295E+04</rscale>
<asrwt>0</asrwt>
<pdfrwt beam="2">  1        2 0.35031130E+00 0.25085295E+04</pdfrwt>
<pdfrwt beam="1">  1       -2 0.10629126E+00 0.25085295E+04</pdfrwt>
<totfact> 0.29715178E+00</totfact>
</mgrwt>
</event>
<event>
 4    1  0.2043502E-008  0.2866168E+04  0.7816531E-02  0.8283015E-01
          2   -1    0    0  501    0  0.00000000000E+00  0.00000000000E+00  0.96898456489E+03  0.96898456489E+03  0.00000000000E+00 0.  1.
         -2   -1    0    0    0  501 -0.00000000000E+00 -0.00000000000E+00 -0.21194653669E+04  0.21194653669E+04  0.00000000000E+00 0. -1.
    2000013    1    1    2    0    0 -0.20774362182E+03  0.10509536701E+04 -0.51087338139E+03  0.15202475591E+04  0.95000000000E+03 0.  0.
   -2000013    1    1    2    0    0  0.20774362182E+03 -0.10509536701E+04 -0.63960742062E+03  0.15682023727E+04  0.95000000000E+03 0.  0.
<mgrwt>
<rscale>  0 0.28661676E+04</rscale>
<asrwt>0</asrwt>
<pdfrwt beam="1">  1        2 0.14907455E+00 0.28661676E+04</pdfrwt>
<pdfrwt beam="2">  1       -2 0.32607159E+00 0.28661676E+04</pdfrwt>
<totfact> 0.50133566E-01</totfact>
</mgrwt>
</event>
<event>
 4    1  0.2043502E-008  0.3240775E+04  0.7816531E-02  0.8178131E-01
         -2   -1    0    0    0  501 -0.00000000000E+00  0.00000000000E+00  0.12238286913E+04  0.12238286913E+04  0.00000000000E+00 0. -1.
          2   -1    0    0  501    0  0.00000000000E+00 -0.00000000000E+00 -0.21454435424E+04  0.21454435424E+04  0.00000000000E+00 0.  1.
    2000013    1    1    2    0    0 -0.34441173520E+03  0.10938377176E+04 -0.11249274590E+04  0.18662963815E+04  0.95000000000E+03 0.  0.
   -2000013    1    1    2    0    0  0.34441173520E+03 -0.10938377176E+04  0.20331260793E+03  0.15029758522E+04  0.95000000000E+03 0.  0.
<mgrwt>
<rscale>  0 0.32407748E+04</rscale>
<asrwt>0</asrwt>
<pdfrwt beam="2">  1        2 0.33006823E+00 0.32407748E+04</pdfrwt>
<pdfrwt beam="1">  1       -2 0.18828134E+00 0.32407748E+04</pdfrwt>
<totfact> 0.74033461E-01</totfact>
</mgrwt>
</event>
<event>
 4    1  0.2043502E-008  0.1984081E+04  0.7816531E-02  0.8614100E-01
          2   -1    0    0  501    0  0.00000000000E+00  0.00000000000E+00  0.91052663407E+03  0.91052663407E+03  0.00000000000E+00 0.  1.
         -2   -1    0    0    0  501 -0.00000000000E+00 -0.00000000000E+00 -0.10808519264E+04  0.10808519264E+04  0.00000000000E+00 0. -1.
    2000013    1    1    2    0    0  0.17523757076E+03  0.22327109641E+03 -0.11824259599E+03  0.99851865291E+03  0.95000000000E+03 0.  0.
   -2000013    1    1    2    0    0 -0.17523757076E+03 -0.22327109641E+03 -0.52082696296E+02  0.99285990752E+03  0.95000000000E+03 0.  0.
<mgrwt>
<rscale>  0 0.19840811E+04</rscale>
<asrwt>0</asrwt>
<pdfrwt beam="1">  1        2 0.14008102E+00 0.19840811E+04</pdfrwt>
<pdfrwt beam="2">  1       -2 0.16628491E+00 0.19840811E+04</pdfrwt>
<totfact> 0.60790071E+00</totfact>
</mgrwt>
</event>
<event>
 4    1  0.2043502E-008  0.2421527E+04  0.7816531E-02  0.8431488E-01
          2   -1    0    0  501    0  0.00000000000E+00  0.00000000000E+00  0.33391338920E+04  0.33391338920E+04  0.00000000000E+00 0.  1.
         -2   -1    0    0    0  501 -0.00000000000E+00 -0.00000000000E+00 -0.43902048145E+03  0.43902048145E+03  0.00000000000E+00 0. -1.
    2000013    1    1    2    0    0  0.18977856025E+03  0.71916273934E+03  0.12921933092E+04  0.17679011556E+04  0.95000000000E+03 0.  0.
   -2000013    1    1    2    0    0 -0.18977856025E+03 -0.71916273934E+03  0.16079201013E+04  0.20102532178E+04  0.95000000000E+03 0.  0.
<mgrwt>
<rscale>  0 0.24215269E+04</rscale>
<asrwt>0</asrwt>
<pdfrwt beam="1">  1        2 0.51371289E+00 0.24215269E+04</pdfrwt>
<pdfrwt beam="2">  1       -2 0.67541615E-01 0.24215269E+04</pdfrwt>
<totfact> 0.18936890E+00</totfact>
</mgrwt>
</event>
<event>
 4    1  0.2043502E-008  0.2138025E+04  0.7816531E-02  0.8544676E-01
          1   -1    0    0  501    0  0.00000000000E+00  0.00000000000E+00  0.11153977559E+04  0.11153977559E+04  0.00000000000E+00 0.  1.
         -1   -1    0    0    0  501 -0.00000000000E+00 -0.00000000000E+00 -0.10245559686E+04  0.10245559686E+04  0.00000000000E+00 0. -1.
    2000013    1    1    2    0    0  0.33439433118E+03 -0.35424996280E+03  0.10001204401E+03  0.10722942758E+04  0.95000000000E+03 0.  0.
   -2000013    1    1    2    0    0 -0.33439433118E+03  0.35424996280E+03 -0.91702566788E+01  0.10676594487E+04  0.95000000000E+03 0.  0.
<mgrwt>
<rscale>  0 0.21380247E+04</rscale>
<asrwt>0</asrwt>
<pdfrwt beam="1">  1        1 0.17159965E+00 0.21380247E+04</pdfrwt>
<pdfrwt beam="2">  1       -1 0.15762400E+00 0.21380247E+04</pdfrwt>
<totfact> 0.34479175E+00</totfact>
</mgrwt>
</event>
<event>
 4    1  0.2043502E-008  0.2800436E+04  0.7816531E-02  0.8303133E-01
          2   -1    0    0  501    0  0.00000000000E+00  0.00000000000E+00  0.21136793088E+04  0.21136793088E+04  0.00000000000E+00 0.  1.
         -2   -1    0    0    0  501 -0.00000000000E+00 -0.00000000000E+00 -0.92758155823E+03  0.92758155823E+03  0.00000000000E+00 0. -1.
    2000013    1    1    2    0    0 -0.96056675391E+03  0.96387542791E+02  0.20735847983E+03  0.13702104168E+04  0.95000000000E+03 0.  0.
   -2000013    1    1    2    0    0  0.96056675391E+03 -0.96387542791E+02  0.97873927070E+03  0.16710504502E+04  0.95000000000E+03 0.  0.
<mgrwt>
<rscale>  0 0.28004356E+04</rscale>
<asrwt>0</asrwt>
<pdfrwt beam="1">  1        2 0.32518143E+00 0.28004356E+04</pdfrwt>
<pdfrwt beam="2">  1       -2 0.14270486E+00 0.28004356E+04</pdfrwt>
<totfact> 0.17163870E+00</totfact>
</mgrwt>
</event>
<event>
 4    1  0.2043502E-008  0.2627591E+04  0.7816531E-02  0.8358889E-01
          1   -1    0    0  501    0  0.00000000000E+00  0.00000000000E+00  0.77079055826E+03  0.77079055826E+03  0.00000000000E+00 0.  1.
         -1   -1    0    0    0  501 -0.00000000000E+00 -0.00000000000E+00 -0.22393354239E+04  0.22393354239E+04  0.00000000000E+00 0. -1.
    2000013    1    1    2    0    0  0.90225385695E+03  0.79544848648E+02 -0.66978108229E+03  0.14735997094E+04  0.95000000000E+03 0.  0.
   -2000013    1    1    2    0    0 -0.90225385695E+03 -0.79544848648E+02 -0.79876378337E+03  0.15365262728E+04  0.95000000000E+03 0.  0.
<mgrwt>
<rscale>  0 0.26275910E+04</rscale>
<asrwt>0</asrwt>
<pdfrwt beam="1">  1        1 0.11858316E+00 0.26275910E+04</pdfrwt>
<pdfrwt beam="2">  1       -1 0.34451314E+00 0.26275910E+04</pdfrwt>
<totfact> 0.34827816E-01</totfact>
</mgrwt>
</event>
<event>
 4    1  0.2043502E-008  0.2600741E+04  0.7816531E-02  0.8367950E-01
         -2   -1    0    0    0  501 -0.00000000000E+00  0.00000000000E+00  0.94072352004E+03  0.94072352004E+03  0.00000000000E+00 0. -1.
          2   -1    0    0  501    0  0.00000000000E+00 -0.00000000000E+00 -0.17975136899E+04  0.17975136899E+04  0.00000000000E+00 0.  1.
    2000013    1    1    2    0    0  0.19478935337E+03 -0.80153983983E+03 -0.82300190256E+02  0.12608260500E+04  0.95000000000E+03 0.  0.
   -2000013    1    1    2    0    0 -0.19478935337E+03  0.80153983983E+03 -0.77448997961E+03  0.14774111599E+04  0.95000000000E+03 0.  0.
<mgrwt>
<rscale>  0 0.26007410E+04</rscale>
<asrwt>0</asrwt>
<pdfrwt beam="2">  1        2 0.27654057E+00 0.26007410E+04</pdfrwt>
<pdfrwt beam="1">  1       -2 0.14472670E+00 0.26007410E+04</pdfrwt>
<totfact> 0.25216716E+00</totfact>
</mgrwt>
</event>
<event>
 4    1  0.2043502E-008  0.2029294E+04  0.7816531E-02  0.8593046E-01
         -2   -1    0    0    0  501 -0.00000000000E+00  0.00000000000E+00  0.79722652133E+03  0.79722652133E+03  0.00000000000E+00 0. -1.
          2   -1    0    0  501    0  0.00000000000E+00 -0.00000000000E+00 -0.12913622107E+04  0.12913622107E+04  0.00000000000E+00 0.  1.
    2000013    1    1    2    0    0  0.11211054649E+03 -0.29332117647E+03 -0.73614221391E+02  0.10032572655E+04  0.95000000000E+03 0.  0.
   -2000013    1    1    2    0    0 -0.11211054649E+03  0.29332117647E+03 -0.42052146797E+03  0.10853314665E+04  0.95000000000E+03 0.  0.
<mgrwt>
<rscale>  0 0.20292937E+04</rscale>
<asrwt>0</asrwt>
<pdfrwt beam="2">  1        2 0.19867111E+00 0.20292937E+04</pdfrwt>
<pdfrwt beam="1">  1       -2 0.12265024E+00 0.20292937E+04</pdfrwt>
<totfact> 0.77961335E+00</totfact>
</mgrwt>
</event>
<event>
 4    1  0.2043502E-008  0.3029289E+04  0.7816531E-02  0.8235416E-01
          2   -1    0    0  501    0  0.00000000000E+00  0.00000000000E+00  0.25890073263E+04  0.25890073263E+04  0.00000000000E+00 0.  1.
         -2   -1    0    0    0  501 -0.00000000000E+00 -0.00000000000E+00 -0.88611094567E+03  0.88611094567E+03  0.00000000000E+00 0. -1.
    2000013    1    1    2    0    0  0.11492760458E+04  0.16503601870E+03  0.10909173890E+04  0.18549051368E+04  0.95000000000E+03 0.  0.
   -2000013    1    1    2    0    0 -0.11492760458E+04 -0.16503601870E+03  0.61197899156E+03  0.16202131351E+04  0.95000000000E+03 0.  0.
<mgrwt>
<rscale>  0 0.30292888E+04</rscale>
<asrwt>0</asrwt>
<pdfrwt beam="1">  1        2 0.39830882E+00 0.30292888E+04</pdfrwt>
<pdfrwt beam="2">  1       -2 0.13632476E+00 0.30292888E+04</pdfrwt>
<totfact> 0.10146358E+00</totfact>
</mgrwt>
</event>
<event>
 4    1  0.2043502E-008  0.2319531E+04  0.7816531E-02  0.8470260E-01
          2   -1    0    0  501    0  0.00000000000E+00  0.00000000000E+00  0.35691281775E+04  0.35691281775E+04  0.00000000000E+00 0.  1.
         -2   -1    0    0    0  501 -0.00000000000E+00 -0.00000000000E+00 -0.37685846628E+03  0.37685846628E+03  0.00000000000E+00 0. -1.
    2000013    1    1    2    0    0 -0.16042664582E+03  0.46491931965E+03  0.83406273049E+03  0.13564834392E+04  0.95000000000E+03 0.  0.
   -2000013    1    1    2    0    0  0.16042664582E+03 -0.46491931965E+03  0.23582069808E+04  0.25895032046E+04  0.95000000000E+03 0.  0.
<mgrwt>
<rscale>  0 0.23195311E+04</rscale>
<asrwt>0</asrwt>
<pdfrwt beam="1">  1        2 0.54909662E+00 0.23195311E+04</pdfrwt>
<pdfrwt beam="2">  1       -2 0.57978228E-01 0.23195311E+04</pdfrwt>
<totfact> 0.18360763E+00</totfact>
</mgrwt>
</event>
<event>
 4    1  0.2043502E-008  0.2298191E+04  0.7816531E-02  0.8478635E-01
          2   -1    0    0  501    0  0.00000000000E+00  0.00000000000E+00  0.88815766813E+03  0.88815766813E+03  0.00000000000E+00 0. -1.
         -2   -1    0    0    0  501 -0.00000000000E+00 -0.00000000000E+00 -0.14866956281E+04  0.14866956281E+04  0.00000000000E+00 0.  1.
    2000013    1    1    2    0    0 -0.47874175585E+03 -0.42610570457E+03 -0.21182723377E+03  0.11653885692E+04  0.95000000000E+03 0.  0.
   -2000013    1    1    2    0    0  0.47874175585E+03  0.42610570457E+03 -0.38671072625E+03  0.12094647271E+04  0.95000000000E+03 0.  0.
<mgrwt>
<rscale>  0 0.22981907E+04</rscale>
<asrwt>0</asrwt>
<pdfrwt beam="1">  1        2 0.13663964E+00 0.22981907E+04</pdfrwt>
<pdfrwt beam="2">  1       -2 0.22872240E+00 0.22981907E+04</pdfrwt>
<totfact> 0.23581797E+00</totfact>
</mgrwt>
</event>
<event>
 4    1  0.2043502E-008  0.2026672E+04  0.7816531E-02  0.8594251E-01
          1   -1    0    0  501    0  0.00000000000E+00  0.00000000000E+00  0.29299919671E+04  0.29299919671E+04  0.00000000000E+00 0.  1.
         -1   -1    0    0    0  501 -0.00000000000E+00 -0.00000000000E+00 -0.35046159284E+03  0.35046159284E+03  0.00000000000E+00 0. -1.
    2000013    1    1    2    0    0  0.70091572758E+02 -0.27301709912E+03  0.94678714218E+03  0.13705316697E+04  0.95000000000E+03 0.  0.
   -2000013    1    1    2    0    0 -0.70091572758E+02  0.27301709912E+03  0.16327432321E+04  0.19099218903E+04  0.95000000000E+03 0.  0.
<mgrwt>
<rscale>  0 0.20266718E+04</rscale>
<asrwt>0</asrwt>
<pdfrwt beam="1">  1        1 0.45076798E+00 0.20266718E+04</pdfrwt>
<pdfrwt beam="2">  1       -1 0.53917170E-01 0.20266718E+04</pdfrwt>
<totfact> 0.21632359E+00</totfact>
</mgrwt>
</event>
<event>
 4    1  0.2043502E-008  0.2477044E+04  0.7816531E-02  0.8411210E-01
         -2   -1    0    0    0  501 -0.00000000000E+00  0.00000000000E+00  0.12033829250E+04  0.12033829250E+04  0.00000000000E+00 0. -1.
          2   -1    0    0  501    0  0.00000000000E+00 -0.00000000000E+00 -0.12746869220E+04  0.12746869220E+04  0.00000000000E+00 0.  1.
    2000013    1    1    2    0    0  0.74928106743E+03 -0.22577405530E+03 -0.17369623834E+03  0.12430070093E+04  0.95000000000E+03 0.  0.
   -2000013    1    1    2    0    0 -0.74928106743E+03  0.22577405530E+03  0.10239224135E+03  0.12350628377E+04  0.95000000000E+03 0.  0.
<mgrwt>
<rscale>  0 0.24770438E+04</rscale>
<asrwt>0</asrwt>
<pdfrwt beam="2">  1        2 0.19610568E+00 0.24770438E+04</pdfrwt>
<pdfrwt beam="1">  1       -2 0.18513583E+00 0.24770438E+04</pdfrwt>
<totfact> 0.25556474E+00</totfact>
</mgrwt>
</event>
<event>
 4    1  0.2043502E-008  0.2152253E+04  0.7816531E-02  0.8538568E-01
         -2   -1    0    0    0  501 -0.00000000000E+00  0.00000000000E+00  0.17684679029E+04  0.17684679029E+04  0.00000000000E+00 0. -1.
          2   -1    0    0  501    0  0.00000000000E+00 -0.00000000000E+00 -0.65483159132E+03  0.65483159132E+03  0.00000000000E+00 0.  1.
    2000013    1    1    2    0    0 -0.50047564074E+03 -0.50511177203E+02  0.61335544767E+03  0.12376316702E+04  0.95000000000E+03 0.  0.
   -2000013    1    1    2    0    0  0.50047564074E+03  0.50511177203E+02  0.50028086389E+03  0.11856678240E+04  0.95000000000E+03 0.  0.
<mgrwt>
<rscale>  0 0.21522534E+04</rscale>
<asrwt>0</asrwt>
<pdfrwt beam="2">  1        2 0.10074332E+00 0.21522534E+04</pdfrwt>
<pdfrwt beam="1">  1       -2 0.27207198E+00 0.21522534E+04</pdfrwt>
<totfact> 0.19247112E+00</totfact>
</mgrwt>
</event>
<event>
 4    1  0.2043502E-008  0.3656173E+04  0.7816531E-02  0.8077744E-01
         -2   -1    0    0    0  501 -0.00000000000E+00  0.00000000000E+00  0.12826484557E+04  0.12826484557E+04  0.00000000000E+00 0. -1.
          2   -1    0    0  501    0  0.00000000000E+00 -0.00000000000E+00 -0.26054691424E+04  0.26054691424E+04  0.00000000000E+00 0.  1.
    2000013    1    1    2    0    0  0.90796467007E+03 -0.32082925495E+03 -0.19690814140E+04  0.23889564391E+04  0.95000000000E+03 0.  0.
   -2000013    1    1    2    0    0 -0.90796467007E+03  0.32082925495E+03  0.64626072728E+03  0.14991611590E+04  0.95000000000E+03 0.  0.
<mgrwt>
<rscale>  0 0.36561734E+04</rscale>
<asrwt>0</asrwt>
<pdfrwt beam="2">  1        2 0.40084141E+00 0.36561734E+04</pdfrwt>
<pdfrwt beam="1">  1       -2 0.19733053E+00 0.36561734E+04</pdfrwt>
<totfact> 0.33937743E-01</totfact>
</mgrwt>
</event>
<event>
 4    1  0.2043502E-008  0.2048301E+04  0.7816531E-02  0.8584365E-01
         -2   -1    0    0    0  501 -0.00000000000E+00  0.00000000000E+00  0.60151657358E+03  0.60151657358E+03  0.00000000000E+00 0. -1.
          2   -1    0    0  501    0  0.00000000000E+00 -0.00000000000E+00 -0.17437335668E+04  0.17437335668E+04  0.00000000000E+00 0.  1.
    2000013    1    1    2    0    0  0.36193105608E+03 -0.51062184162E+02 -0.44165458498E+03  0.11095765897E+04  0.95000000000E+03 0.  0.
   -2000013    1    1    2    0    0 -0.36193105608E+03  0.51062184162E+02 -0.70056240829E+03  0.12356735507E+04  0.95000000000E+03 0.  0.
<mgrwt>
<rscale>  0 0.20483014E+04</rscale>
<asrwt>0</asrwt>
<pdfrwt beam="2">  1        2 0.26826670E+00 0.20483014E+04</pdfrwt>
<pdfrwt beam="1">  1       -2 0.92541012E-01 0.20483014E+04</pdfrwt>
<totfact> 0.85020911E+00</totfact>
</mgrwt>
</event>
<event>
 4    1  0.2043502E-008  0.2566080E+04  0.7816531E-02  0.8379815E-01
          2   -1    0    0  501    0  0.00000000000E+00  0.00000000000E+00  0.35335135683E+04  0.35335135683E+04  0.00000000000E+00 0.  1.
         -2   -1    0    0    0  501 -0.00000000000E+00 -0.00000000000E+00 -0.46587952766E+03  0.46587952766E+03  0.00000000000E+00 0. -1.
    2000013    1    1    2    0    0  0.33546386662E+02  0.28647343362E+03  0.26715699614E+03  0.10281367851E+04  0.95000000000E+03 0.  0.
   -2000013    1    1    2    0    0 -0.33546386662E+02 -0.28647343362E+03  0.28004770445E+04  0.29712563109E+04  0.95000000000E+03 0.  0.
<mgrwt>
<rscale>  0 0.25660800E+04</rscale>
<asrwt>0</asrwt>
<pdfrwt beam="1">  1        2 0.54361746E+00 0.25660800E+04</pdfrwt>
<pdfrwt beam="2">  1       -2 0.71673776E-01 0.25660800E+04</pdfrwt>
<totfact> 0.12068074E+00</totfact>
</mgrwt>
</event>
<event>
 4    1  0.2043502E-008  0.2209997E+04  0.7816531E-02  0.8514278E-01
          2   -1    0    0  501    0  0.00000000000E+00  0.00000000000E+00  0.99339208188E+03  0.99339208188E+03  0.00000000000E+00 0.  1.
         -2   -1    0    0    0  501 -0.00000000000E+00 -0.00000000000E+00 -0.12291442614E+04  0.12291442614E+04  0.00000000000E+00 0. -1.
    2000013    1    1    2    0    0 -0.18318796336E+03  0.29016377169E+03  0.33273905849E+03  0.10634698516E+04  0.95000000000E+03 0.  0.
   -2000013    1    1    2    0    0  0.18318796336E+03 -0.29016377169E+03 -0.56849123800E+03  0.11590664916E+04  0.95000000000E+03 0.  0.
<mgrwt>
<rscale>  0 0.22099974E+04</rscale>
<asrwt>0</asrwt>
<pdfrwt beam="1">  1        2 0.15282955E+00 0.22099974E+04</pdfrwt>
<pdfrwt beam="2">  1       -2 0.18909912E+00 0.22099974E+04</pdfrwt>
<totfact> 0.36505841E+00</totfact>
</mgrwt>
</event>
<event>
 4    1  0.2043502E-008  0.2558649E+04  0.7816531E-02  0.8382384E-01
         -1   -1    0    0    0  501 -0.00000000000E+00  0.00000000000E+00  0.63463628810E+03  0.63463628810E+03  0.00000000000E+00 0. -1.
          1   -1    0    0  501    0  0.00000000000E+00 -0.00000000000E+00 -0.25789130007E+04  0.25789130007E+04  0.00000000000E+00 0.  1.
    2000013    1    1    2    0    0  0.43174322911E+03  0.12392939038E+03 -0.18885650051E+04  0.21612354079E+04  0.95000000000E+03 0.  0.
   -2000013    1    1    2    0    0 -0.43174322911E+03 -0.12392939038E+03 -0.55711707503E+02  0.10523138809E+04  0.95000000000E+03 0.  0.
<mgrwt>
<rscale>  0 0.25586495E+04</rscale>
<asrwt>0</asrwt>
<pdfrwt beam="2">  1        1 0.39675584E+00 0.25586495E+04</pdfrwt>
<pdfrwt beam="1">  1       -1 0.97636354E-01 0.25586495E+04</pdfrwt>
<totfact> 0.10616280E+00</totfact>
</mgrwt>
</event>
<event>
 4    1  0.2043502E-008  0.2423246E+04  0.7816531E-02  0.8430852E-01
         -1   -1    0    0    0  501 -0.00000000000E+00  0.00000000000E+00  0.10342857625E+04  0.10342857625E+04  0.00000000000E+00 0. -1.
          1   -1    0    0  501    0  0.00000000000E+00 -0.00000000000E+00 -0.14193659549E+04  0.14193659549E+04  0.00000000000E+00 0.  1.
    2000013    1    1    2    0    0 -0.58992312758E+03  0.33282388107E+03  0.13828412299E+03  0.11749057541E+04  0.95000000000E+03 0.  0.
   -2000013    1    1    2    0    0  0.58992312758E+03 -0.33282388107E+03 -0.52336431536E+03  0.12787459634E+04  0.95000000000E+03 0.  0.
<mgrwt>
<rscale>  0 0.24232458E+04</rscale>
<asrwt>0</asrwt>
<pdfrwt beam="2">  1        1 0.21836399E+00 0.24232458E+04</pdfrwt>
<pdfrwt beam="1">  1       -1 0.15912089E+00 0.24232458E+04</pdfrwt>
<totfact> 0.19763344E+00</totfact>
</mgrwt>
</event>
<event>
 4    1  0.2043502E-008  0.2125283E+04  0.7816531E-02  0.8550187E-01
          2   -1    0    0  501    0  0.00000000000E+00  0.00000000000E+00  0.13509932117E+04  0.13509932117E+04  0.00000000000E+00 0.  1.
         -2   -1    0    0    0  501 -0.00000000000E+00 -0.00000000000E+00 -0.83583504306E+03  0.83583504306E+03  0.00000000000E+00 0. -1.
    2000013    1    1    2    0    0  0.27304883057E+02  0.41343841289E+03  0.49895831554E+03  0.11502766096E+04  0.95000000000E+03 0.  0.
   -2000013    1    1    2    0    0 -0.27304883057E+02 -0.41343841289E+03  0.16199853099E+02  0.10365516452E+04  0.95000000000E+03 0.  0.
<mgrwt>
<rscale>  0 0.21252835E+04</rscale>
<asrwt>0</asrwt>
<pdfrwt beam="1">  1        2 0.20784511E+00 0.21252835E+04</pdfrwt>
<pdfrwt beam="2">  1       -2 0.12859001E+00 0.21252835E+04</pdfrwt>
<totfact> 0.63411759E+00</totfact>
</mgrwt>
</event>
<event>
 4    1  0.2043502E-008  0.2343443E+04  0.7816531E-02  0.8460986E-01
         -2   -1    0    0    0  501 -0.00000000000E+00  0.00000000000E+00  0.30639304663E+03  0.30639304663E+03  0.00000000000E+00 0. -1.
          2   -1    0    0  501    0  0.00000000000E+00 -0.00000000000E+00 -0.44809480460E+04  0.44809480460E+04  0.00000000000E+00 0.  1.
    2000013    1    1    2    0    0  0.17066303779E+02  0.26407434418E+03 -0.79460172592E+03  0.12664590087E+04  0.95000000000E+03 0.  0.
   -2000013    1    1    2    0    0 -0.17066303779E+02 -0.26407434418E+03 -0.33799532734E+04  0.35208820839E+04  0.95000000000E+03 0.  0.
<mgrwt>
<rscale>  0 0.23434430E+04</rscale>
<asrwt>0</asrwt>
<pdfrwt beam="2">  1        2 0.68937658E+00 0.23434430E+04</pdfrwt>
<pdfrwt beam="1">  1       -2 0.47137395E-01 0.23434430E+04</pdfrwt>
<totfact> 0.49930544E-01</totfact>
</mgrwt>
</event>
<event>
 4    1  0.2043502E-008  0.2830457E+04  0.7816531E-02  0.8293874E-01
         -1   -1    0    0    0  501 -0.00000000000E+00  0.00000000000E+00  0.19990813358E+04  0.19990813358E+04  0.00000000000E+00 0. -1.
          1   -1    0    0  501    0  0.00000000000E+00 -0.00000000000E+00 -0.10018963352E+04  0.10018963352E+04  0.00000000000E+00 0.  1.
    2000013    1    1    2    0    0  0.13491337154E+03 -0.98945027358E+03  0.15805943490E+03  0.13873342231E+04  0.95000000000E+03 0.  0.
   -2000013    1    1    2    0    0 -0.13491337154E+03  0.98945027358E+03  0.83912556577E+03  0.16136434479E+04  0.95000000000E+03 0.  0.
<mgrwt>
<rscale>  0 0.28304574E+04</rscale>
<asrwt>0</asrwt>
<pdfrwt beam="2">  1        1 0.15413790E+00 0.28304574E+04</pdfrwt>
<pdfrwt beam="1">  1       -1 0.30755098E+00 0.28304574E+04</pdfrwt>
<totfact> 0.38406417E-01</totfact>
</mgrwt>
</event>
<event>
 4    1  0.2043502E-008  0.2270712E+04  0.7816531E-02  0.8489559E-01
          2   -1    0    0  501    0  0.00000000000E+00  0.00000000000E+00  0.11757089839E+04  0.11757089839E+04  0.00000000000E+00 0.  1.
         -2   -1    0    0    0  501 -0.00000000000E+00 -0.00000000000E+00 -0.10963878636E+04  0.10963878636E+04  0.00000000000E+00 0. -1.
    2000013    1    1    2    0    0  0.60983577770E+02 -0.60703774829E+03  0.15939656035E+03  0.11402285245E+04  0.95000000000E+03 0.  0.
   -2000013    1    1    2    0    0 -0.60983577770E+02  0.60703774829E+03 -0.80075439999E+02  0.11318683230E+04  0.95000000000E+03 0.  0.
<mgrwt>
<rscale>  0 0.22707118E+04</rscale>
<asrwt>0</asrwt>
<pdfrwt beam="1">  1        2 0.18087831E+00 0.22707118E+04</pdfrwt>
<pdfrwt beam="2">  1       -2 0.16867506E+00 0.22707118E+04</pdfrwt>
<totfact> 0.38775908E+00</totfact>
</mgrwt>
</event>
<event>
 4    1  0.2043502E-008  0.3615811E+04  0.7816531E-02  0.8086879E-01
         -2   -1    0    0    0  501 -0.00000000000E+00  0.00000000000E+00  0.10912152305E+04  0.10912152305E+04  0.00000000000E+00 0. -1.
          2   -1    0    0  501    0  0.00000000000E+00 -0.00000000000E+00 -0.29953054125E+04  0.29953054125E+04  0.00000000000E+00 0.  1.
    2000013    1    1    2    0    0 -0.13679889292E+04  0.19575275395E+02 -0.17465919424E+04  0.24134747388E+04  0.95000000000E+03 0.  0.
   -2000013    1    1    2    0    0  0.13679889292E+04 -0.19575275395E+02 -0.15749823962E+03  0.16730459041E+04  0.95000000000E+03 0.  0.
<mgrwt>
<rscale>  0 0.36158113E+04</rscale>
<asrwt>0</asrwt>
<pdfrwt beam="2">  1        2 0.46081622E+00 0.36158113E+04</pdfrwt>
<pdfrwt beam="1">  1       -2 0.16787927E+00 0.36158113E+04</pdfrwt>
<totfact> 0.31470873E-01</totfact>
</mgrwt>
</event>
<event>
 4    1  0.2043502E-008  0.3644052E+04  0.7816531E-02  0.8080475E-01
          1   -1    0    0  501    0  0.00000000000E+00  0.00000000000E+00  0.22385140179E+04  0.22385140179E+04  0.00000000000E+00 0.  1.
         -1   -1    0    0    0  501 -0.00000000000E+00 -0.00000000000E+00 -0.14830280257E+04  0.14830280257E+04  0.00000000000E+00 0. -1.
    2000013    1    1    2    0    0  0.75718064800E+03  0.12796864030E+04 -0.86184661552E+02  0.17665920920E+04  0.95000000000E+03 0.  0.
   -2000013    1    1    2    0    0 -0.75718064800E+03 -0.12796864030E+04  0.84167065375E+03  0.19549499516E+04  0.95000000000E+03 0.  0.
<mgrwt>
<rscale>  0 0.36440522E+04</rscale>
<asrwt>0</asrwt>
<pdfrwt beam="1">  1        1 0.34438677E+00 0.36440522E+04</pdfrwt>
<pdfrwt beam="2">  1       -1 0.22815816E+00 0.36440522E+04</pdfrwt>
<totfact> 0.16048663E-01</totfact>
</mgrwt>
</event>
<event>
 4    1  0.2043502E-008  0.2455261E+04  0.7816531E-02  0.8419100E-01
         -2   -1    0    0    0  501 -0.00000000000E+00  0.00000000000E+00  0.13872746492E+04  0.13872746492E+04  0.00000000000E+00 0. -1.
          2   -1    0    0  501    0  0.00000000000E+00 -0.00000000000E+00 -0.10863579562E+04  0.10863579562E+04  0.00000000000E+00 0.  1.
    2000013    1    1    2    0    0  0.27082472358E+03 -0.46460691777E+03 -0.41532288915E+03  0.11679891785E+04  0.95000000000E+03 0.  0.
   -2000013    1    1    2    0    0 -0.27082472358E+03  0.46460691777E+03  0.71623958223E+03  0.13056434269E+04  0.95000000000E+03 0.  0.
<mgrwt>
<rscale>  0 0.24552612E+04</rscale>
<asrwt>0</asrwt>
<pdfrwt beam="2">  1        2 0.16713199E+00 0.24552612E+04</pdfrwt>
<pdfrwt beam="1">  1       -2 0.21342687E+00 0.24552612E+04</pdfrwt>
<totfact> 0.21641637E+00</totfact>
</mgrwt>
</event>
<event>
 4    1  0.2043502E-008  0.2683441E+04  0.7816531E-02  0.8340398E-01
          2   -1    0    0  501    0  0.00000000000E+00  0.00000000000E+00  0.24491768111E+04  0.24491768111E+04  0.00000000000E+00 0.  1.
         -2   -1    0    0    0  501 -0.00000000000E+00 -0.00000000000E+00 -0.73502790412E+03  0.73502790412E+03  0.00000000000E+00 0. -1.
    2000013    1    1    2    0    0 -0.40848028968E+03 -0.64556533994E+03  0.15221098006E+04  0.19501099969E+04  0.95000000000E+03 0.  0.
   -2000013    1    1    2    0    0  0.40848028968E+03  0.64556533994E+03  0.19203910637E+03  0.12340947182E+04  0.95000000000E+03 0.  0.
<mgrwt>
<rscale>  0 0.26834406E+04</rscale>
<asrwt>0</asrwt>
<pdfrwt beam="1">  1        2 0.37679643E+00 0.26834406E+04</pdfrwt>
<pdfrwt beam="2">  1       -2 0.11308122E+00 0.26834406E+04</pdfrwt>
<totfact> 0.20098995E+00</totfact>
</mgrwt>
</event>
<event>
 4    1  0.2043502E-008  0.2197003E+04  0.7816531E-02  0.8519677E-01
         -2   -1    0    0    0  501 -0.00000000000E+00  0.00000000000E+00  0.14425786042E+04  0.14425786042E+04  0.00000000000E+00 0. -1.
          2   -1    0    0  501    0  0.00000000000E+00 -0.00000000000E+00 -0.83649209337E+03  0.83649209337E+03  0.00000000000E+00 0.  1.
    2000013    1    1    2    0    0  0.19030593784E+03 -0.39530021455E+03  0.64978504124E+03  0.12317464063E+04  0.95000000000E+03 0.  0.
   -2000013    1    1    2    0    0 -0.19030593784E+03  0.39530021455E+03 -0.43698530389E+02  0.10473242913E+04  0.95000000000E+03 0.  0.
<mgrwt>
<rscale>  0 0.21970030E+04</rscale>
<asrwt>0</asrwt>
<pdfrwt beam="2">  1        2 0.12869109E+00 0.21970030E+04</pdfrwt>
<pdfrwt beam="1">  1       -2 0.22193517E+00 0.21970030E+04</pdfrwt>
<totfact> 0.28487275E+00</totfact>
</mgrwt>
</event>
<event>
 4    1  0.2043502E-008  0.2297606E+04  0.7816531E-02  0.8478866E-01
         -2   -1    0    0    0  501 -0.00000000000E+00  0.00000000000E+00  0.11566171619E+04  0.11566171619E+04  0.00000000000E+00 0. -1.
          2   -1    0    0  501    0  0.00000000000E+00 -0.00000000000E+00 -0.11410417214E+04  0.11410417214E+04  0.00000000000E+00 0.  1.
    2000013    1    1    2    0    0  0.61480533942E+03 -0.19487816400E+03  0.43640087873E+02  0.11490724788E+04  0.95000000000E+03 0.  0.
   -2000013    1    1    2    0    0 -0.61480533942E+03  0.19487816400E+03 -0.28064647350E+02  0.11485864045E+04  0.95000000000E+03 0.  0.
<mgrwt>
<rscale>  0 0.22976061E+04</rscale>
<asrwt>0</asrwt>
<pdfrwt beam="2">  1        2 0.17554488E+00 0.22976061E+04</pdfrwt>
<pdfrwt beam="1">  1       -2 0.17794110E+00 0.22976061E+04</pdfrwt>
<totfact> 0.34932871E+00</totfact>
</mgrwt>
</event>
<event>
 4    1  0.2043502E-008  0.3254957E+04  0.7816531E-02  0.8174452E-01
          2   -1    0    0  501    0  0.00000000000E+00  0.00000000000E+00  0.10439203379E+04  0.10439203379E+04  0.00000000000E+00 0.  1.
         -2   -1    0    0    0  501 -0.00000000000E+00 -0.00000000000E+00 -0.25372492244E+04  0.25372492244E+04  0.00000000000E+00 0. -1.
    2000013    1    1    2    0    0 -0.51609158312E+03 -0.12136082165E+04 -0.65467495825E+03  0.17522256494E+04  0.95000000000E+03 0.  0.
   -2000013    1    1    2    0    0  0.51609158312E+03  0.12136082165E+04 -0.83865392823E+03  0.18289439129E+04  0.95000000000E+03 0.  0.
<mgrwt>
<rscale>  0 0.32549569E+04</rscale>
<asrwt>0</asrwt>
<pdfrwt beam="1">  1        2 0.16060313E+00 0.32549569E+04</pdfrwt>
<pdfrwt beam="2">  1       -2 0.39034604E+00 0.32549569E+04</pdfrwt>
<totfact> 0.16972667E-01</totfact>
</mgrwt>
</event>
<event>
 4    1  0.2043502E-008  0.3317616E+04  0.7816531E-02  0.8158427E-01
         -2   -1    0    0    0  501 -0.00000000000E+00  0.00000000000E+00  0.14191016919E+04  0.14191016919E+04  0.00000000000E+00 0. -1.
          2   -1    0    0  501    0  0.00000000000E+00 -0.00000000000E+00 -0.19390046111E+04  0.19390046111E+04  0.00000000000E+00 0.  1.
    2000013    1    1    2    0    0 -0.86657321763E+03 -0.44117825946E+03 -0.12221088502E+04  0.18280146170E+04  0.95000000000E+03 0.  0.
   -2000013    1    1    2    0    0  0.86657321763E+03  0.44117825946E+03  0.70220593094E+03  0.15300916860E+04  0.95000000000E+03 0.  0.
<mgrwt>
<rscale>  0 0.33176164E+04</rscale>
<asrwt>0</asrwt>
<pdfrwt beam="2">  1        2 0.29830840E+00 0.33176164E+04</pdfrwt>
<pdfrwt beam="1">  1       -2 0.21832334E+00 0.33176164E+04</pdfrwt>
<totfact> 0.61028985E-01</totfact>
</mgrwt>
</event>
<event>
 4    1  0.2043502E-008  0.3227730E+04  0.7816531E-02  0.8181532E-01
          2   -1    0    0  501    0  0.00000000000E+00  0.00000000000E+00  0.22879309737E+04  0.22879309737E+04  0.00000000000E+00 0.  1.
         -2   -1    0    0    0  501 -0.00000000000E+00 -0.00000000000E+00 -0.11383913420E+04  0.11383913420E+04  0.00000000000E+00 0. -1.
    2000013    1    1    2    0    0 -0.11900323588E+04  0.42526909498E+03  0.23074669000E+03  0.15977405462E+04  0.95000000000E+03 0.  0.
   -2000013    1    1    2    0    0  0.11900323588E+04 -0.42526909498E+03  0.91879294164E+03  0.18285817695E+04  0.95000000000E+03 0.  0.
<mgrwt>
<rscale>  0 0.32277304E+04</rscale>
<asrwt>0</asrwt>
<pdfrwt beam="1">  1        2 0.35198938E+00 0.32277304E+04</pdfrwt>
<pdfrwt beam="2">  1       -2 0.17513713E+00 0.32277304E+04</pdfrwt>
<totfact> 0.75854081E-01</totfact>
</mgrwt>
</event>
<event>
 4    1  0.2043502E-008  0.4085352E+04  0.7816531E-02  0.7987546E-01
         -1   -1    0    0    0  501 -0.00000000000E+00  0.00000000000E+00  0.18294241270E+04  0.18294241270E+04  0.00000000000E+00 0.  1.
          1   -1    0    0  501    0  0.00000000000E+00 -0.00000000000E+00 -0.22807867219E+04  0.22807867219E+04  0.00000000000E+00 0. -1.
    2000013    1    1    2    0    0  0.12843913743E+04 -0.79221669690E+03  0.77675367970E+03  0.19450230786E+04  0.95000000000E+03 0.  0.
   -2000013    1    1    2    0    0 -0.12843913743E+04  0.79221669690E+03 -0.12281162746E+04  0.21651877704E+04  0.95000000000E+03 0.  0.
<mgrwt>
<rscale>  0 0.40853525E+04</rscale>
<asrwt>0</asrwt>
<pdfrwt beam="2">  1        1 0.35089026E+00 0.40853525E+04</pdfrwt>
<pdfrwt beam="1">  1       -1 0.28144987E+00 0.40853525E+04</pdfrwt>
<totfact> 0.64946189E-02</totfact>
</mgrwt>
</event>
<event>
 4    1  0.2043502E-008  0.2313476E+04  0.7816531E-02  0.8472627E-01
          1   -1    0    0  501    0  0.00000000000E+00  0.00000000000E+00  0.77446301039E+03  0.77446301039E+03  0.00000000000E+00 0. -1.
         -1   -1    0    0    0  501 -0.00000000000E+00 -0.00000000000E+00 -0.17277041733E+04  0.17277041733E+04  0.00000000000E+00 0.  1.
    2000013    1    1    2    0    0 -0.56872497279E+03  0.30480090360E+03 -0.32678899546E+03  0.11940028195E+04  0.95000000000E+03 0.  0.
   -2000013    1    1    2    0    0  0.56872497279E+03 -0.30480090360E+03 -0.62645216742E+03  0.13081643641E+04  0.95000000000E+03 0.  0.
<mgrwt>
<rscale>  0 0.23134762E+04</rscale>
<asrwt>0</asrwt>
<pdfrwt beam="1">  1        1 0.11914816E+00 0.23134762E+04</pdfrwt>
<pdfrwt beam="2">  1       -1 0.26580064E+00 0.23134762E+04</pdfrwt>
<totfact> 0.11566175E+00</totfact>
</mgrwt>
</event>
<event>
 4    1  0.2043502E-008  0.2097685E+04  0.7816531E-02  0.8562264E-01
         -2   -1    0    0    0  501 -0.00000000000E+00  0.00000000000E+00  0.10977866181E+04  0.10977866181E+04  0.00000000000E+00 0. -1.
          2   -1    0    0  501    0  0.00000000000E+00 -0.00000000000E+00 -0.10020803771E+04  0.10020803771E+04  0.00000000000E+00 0.  1.
    2000013    1    1    2    0    0 -0.25059528278E+03 -0.34582921666E+03  0.17116643286E+03  0.10555537838E+04  0.95000000000E+03 0.  0.
   -2000013    1    1    2    0    0  0.25059528278E+03  0.34582921666E+03 -0.75460191832E+02  0.10443132113E+04  0.95000000000E+03 0.  0.
<mgrwt>
<rscale>  0 0.20976848E+04</rscale>
<asrwt>0</asrwt>
<pdfrwt beam="2">  1        2 0.15416621E+00 0.20976848E+04</pdfrwt>
<pdfrwt beam="1">  1       -2 0.16889025E+00 0.20976848E+04</pdfrwt>
<totfact> 0.50229083E+00</totfact>
</mgrwt>
</event>
<event>
 4    1  0.2043502E-008  0.2497696E+04  0.7816531E-02  0.8403807E-01
          2   -1    0    0  501    0  0.00000000000E+00  0.00000000000E+00  0.15865422727E+04  0.15865422727E+04  0.00000000000E+00 0.  1.
         -2   -1    0    0    0  501 -0.00000000000E+00 -0.00000000000E+00 -0.98303146038E+03  0.98303146038E+03  0.00000000000E+00 0. -1.
    2000013    1    1    2    0    0 -0.77050919854E+03  0.11785993590E+03  0.72761458337E+02  0.12310035009E+04  0.95000000000E+03 0.  0.
   -2000013    1    1    2    0    0  0.77050919854E+03 -0.11785993590E+03  0.53074935395E+03  0.13385702321E+04  0.95000000000E+03 0.  0.
<mgrwt>
<rscale>  0 0.24976957E+04</rscale>
<asrwt>0</asrwt>
<pdfrwt beam="1">  1        2 0.24408343E+00 0.24976957E+04</pdfrwt>
<pdfrwt beam="2">  1       -2 0.15123561E+00 0.24976957E+04</pdfrwt>
<totfact> 0.29679164E+00</totfact>
</mgrwt>
</event>
<event>
 4    1  0.2043502E-008  0.2389006E+04  0.7816531E-02  0.8443631E-01
         -2   -1    0    0    0  501 -0.00000000000E+00  0.00000000000E+00  0.80188511837E+03  0.80188511837E+03  0.00000000000E+00 0. -1.
          2   -1    0    0  501    0  0.00000000000E+00 -0.00000000000E+00 -0.17793545719E+04  0.17793545719E+04  0.00000000000E+00 0.  1.
    2000013    1    1    2    0    0 -0.51720359902E+03  0.49232921865E+03 -0.61861700039E+03  0.13398039467E+04  0.95000000000E+03 0.  0.
   -2000013    1    1    2    0    0  0.51720359902E+03 -0.49232921865E+03 -0.35885245317E+03  0.12414357436E+04  0.95000000000E+03 0.  0.
<mgrwt>
<rscale>  0 0.23890064E+04</rscale>
<asrwt>0</asrwt>
<pdfrwt beam="2">  1        2 0.27374685E+00 0.23890064E+04</pdfrwt>
<pdfrwt beam="1">  1       -2 0.12336694E+00 0.23890064E+04</pdfrwt>
<totfact> 0.39519909E+00</totfact>
</mgrwt>
</event>
<event>
 4    1  0.2043502E-008  0.2394827E+04  0.7816531E-02  0.8441443E-01
         -4   -1    0    0    0  501 -0.00000000000E+00  0.00000000000E+00  0.54887143336E+03  0.54887143336E+03  0.00000000000E+00 0. -1.
          4   -1    0    0  501    0  0.00000000000E+00 -0.00000000000E+00 -0.26122680865E+04  0.26122680865E+04  0.00000000000E+00 0.  1.
    2000013    1    1    2    0    0 -0.50168783032E+02  0.68158533489E+03 -0.13662149172E+04  0.17989215313E+04  0.95000000000E+03 0.  0.
   -2000013    1    1    2    0    0  0.50168783032E+02 -0.68158533489E+03 -0.69718173586E+03  0.13622179886E+04  0.95000000000E+03 0.  0.
<mgrwt>
<rscale>  0 0.23948272E+04</rscale>
<asrwt>0</asrwt>
<pdfrwt beam="2">  1        4 0.40188738E+00 0.23948272E+04</pdfrwt>
<pdfrwt beam="1">  1       -4 0.84441762E-01 0.23948272E+04</pdfrwt>
<totfact> 0.14585392E-02</totfact>
</mgrwt>
</event>
<event>
 4    1  0.2043502E-008  0.2028344E+04  0.7816531E-02  0.8593483E-01
         -2   -1    0    0    0  501 -0.00000000000E+00  0.00000000000E+00  0.31301751828E+03  0.31301751828E+03  0.00000000000E+00 0. -1.
          2   -1    0    0  501    0  0.00000000000E+00 -0.00000000000E+00 -0.32859009497E+04  0.32859009497E+04  0.00000000000E+00 0.  1.
    2000013    1    1    2    0    0 -0.25157391272E+03 -0.87553214734E+02 -0.10699895598E+04  0.14554492973E+04  0.95000000000E+03 0.  0.
   -2000013    1    1    2    0    0  0.25157391272E+03  0.87553214734E+02 -0.19028938716E+04  0.21434691707E+04  0.95000000000E+03 0.  0.
<mgrwt>
<rscale>  0 0.20283437E+04</rscale>
<asrwt>0</asrwt>
<pdfrwt beam="2">  1        2 0.50552322E+00 0.20283437E+04</pdfrwt>
<pdfrwt beam="1">  1       -2 0.48156541E-01 0.20283437E+04</pdfrwt>
<totfact> 0.43263778E+00</totfact>
</mgrwt>
</event>
<event>
 4    1  0.2043502E-008  0.2131409E+04  0.7816531E-02  0.8547532E-01
          2   -1    0    0  501    0  0.00000000000E+00  0.00000000000E+00  0.16826487414E+04  0.16826487414E+04  0.00000000000E+00 0.  1.
         -2   -1    0    0    0  501 -0.00000000000E+00 -0.00000000000E+00 -0.67496350824E+03  0.67496350824E+03  0.00000000000E+00 0. -1.
    2000013    1    1    2    0    0 -0.39953468064E+01  0.42085528897E+03  0.76581378186E+03  0.12907772409E+04  0.95000000000E+03 0.  0.
   -2000013    1    1    2    0    0  0.39953468064E+01 -0.42085528897E+03  0.24187145132E+03  0.10668350088E+04  0.95000000000E+03 0.  0.
<mgrwt>
<rscale>  0 0.21314094E+04</rscale>
<asrwt>0</asrwt>
<pdfrwt beam="1">  1        2 0.25886903E+00 0.21314094E+04</pdfrwt>
<pdfrwt beam="2">  1       -2 0.10384054E+00 0.21314094E+04</pdfrwt>
<totfact> 0.69588774E+00</totfact>
</mgrwt>
</event>
<event>
 4    1  0.2043502E-008  0.2988654E+04  0.7816531E-02  0.8246978E-01
         -2   -1    0    0    0  501 -0.00000000000E+00  0.00000000000E+00  0.10505232409E+04  0.10505232409E+04  0.00000000000E+00 0. -1.
          2   -1    0    0  501    0  0.00000000000E+00 -0.00000000000E+00 -0.21256203888E+04  0.21256203888E+04  0.00000000000E+00 0.  1.
    2000013    1    1    2    0    0  0.73993107416E+03  0.87547151308E+03 -0.40076828521E+03  0.15417728702E+04  0.95000000000E+03 0.  0.
   -2000013    1    1    2    0    0 -0.73993107416E+03 -0.87547151308E+03 -0.67432886272E+03  0.16343707596E+04  0.95000000000E+03 0.  0.
<mgrwt>
<rscale>  0 0.29886543E+04</rscale>
<asrwt>0</asrwt>
<pdfrwt beam="2">  1        2 0.32701852E+00 0.29886543E+04</pdfrwt>
<pdfrwt beam="1">  1       -2 0.16161896E+00 0.29886543E+04</pdfrwt>
<totfact> 0.11937273E+00</totfact>
</mgrwt>
</event>
<event>
 4    1  0.2043502E-008  0.2275510E+04  0.7816531E-02  0.8487640E-01
         -2   -1    0    0    0  501 -0.00000000000E+00  0.00000000000E+00  0.67979374975E+03  0.67979374975E+03  0.00000000000E+00 0. -1.
          2   -1    0    0  501    0  0.00000000000E+00 -0.00000000000E+00 -0.19042341672E+04  0.19042341672E+04  0.00000000000E+00 0.  1.
    2000013    1    1    2    0    0 -0.96980468111E+02  0.58759613071E+03 -0.39286746849E+03  0.11880737653E+04  0.95000000000E+03 0.  0.
   -2000013    1    1    2    0    0  0.96980468111E+02 -0.58759613071E+03 -0.83157294896E+03  0.13959541516E+04  0.95000000000E+03 0.  0.
<mgrwt>
<rscale>  0 0.22755100E+04</rscale>
<asrwt>0</asrwt>
<pdfrwt beam="2">  1        2 0.29295910E+00 0.22755100E+04</pdfrwt>
<pdfrwt beam="1">  1       -2 0.10458366E+00 0.22755100E+04</pdfrwt>
<totfact> 0.50915571E+00</totfact>
</mgrwt>
</event>
<event>
 4    1  0.2043502E-008  0.2877813E+04  0.7816531E-02  0.8279510E-01
         -2   -1    0    0    0  501 -0.00000000000E+00  0.00000000000E+00  0.12712451996E+04  0.12712451996E+04  0.00000000000E+00 0. -1.
          2   -1    0    0  501    0  0.00000000000E+00 -0.00000000000E+00 -0.16286801560E+04  0.16286801560E+04  0.00000000000E+00 0.  1.
    2000013    1    1    2    0    0 -0.11426263287E+03  0.95206399411E+03 -0.68101526655E+03  0.15118741983E+04  0.95000000000E+03 0.  0.
   -2000013    1    1    2    0    0  0.11426263287E+03 -0.95206399411E+03  0.32358031016E+03  0.13880511573E+04  0.95000000000E+03 0.  0.
<mgrwt>
<rscale>  0 0.28778129E+04</rscale>
<asrwt>0</asrwt>
<pdfrwt beam="2">  1        2 0.25056618E+00 0.28778129E+04</pdfrwt>
<pdfrwt beam="1">  1       -2 0.19557618E+00 0.28778129E+04</pdfrwt>
<totfact> 0.13221163E+00</totfact>
</mgrwt>
</event>
<event>
 4    1  0.2043502E-008  0.2691396E+04  0.7816531E-02  0.8337802E-01
          2   -1    0    0  501    0  0.00000000000E+00  0.00000000000E+00  0.32243784201E+04  0.32243784201E+04  0.00000000000E+00 0.  1.
         -2   -1    0    0    0  501 -0.00000000000E+00 -0.00000000000E+00 -0.56162844211E+03  0.56162844211E+03  0.00000000000E+00 0. -1.
    2000013    1    1    2    0    0  0.34954812621E+02  0.93022893580E+03  0.10435840650E+04  0.16905961708E+04  0.95000000000E+03 0.  0.
   -2000013    1    1    2    0    0 -0.34954812621E+02 -0.93022893580E+03  0.16191659130E+04  0.20954106914E+04  0.95000000000E+03 0.  0.
<mgrwt>
<rscale>  0 0.26913956E+04</rscale>
<asrwt>0</asrwt>
<pdfrwt beam="1">  1        2 0.49605821E+00 0.26913956E+04</pdfrwt>
<pdfrwt beam="2">  1       -2 0.86404377E-01 0.26913956E+04</pdfrwt>
<totfact> 0.12734918E+00</totfact>
</mgrwt>
</event>
<event>
 4    1  0.2043502E-008  0.2840836E+04  0.7816531E-02  0.8290701E-01
         -2   -1    0    0    0  501 -0.00000000000E+00  0.00000000000E+00  0.22405747373E+04  0.22405747373E+04  0.00000000000E+00 0. -1.
          2   -1    0    0  501    0  0.00000000000E+00 -0.00000000000E+00 -0.90047773560E+03  0.90047773560E+03  0.00000000000E+00 0.  1.
    2000013    1    1    2    0    0  0.91655006225E+03 -0.35622710924E+03  0.10955925129E+04  0.17520801135E+04  0.95000000000E+03 0.  0.
   -2000013    1    1    2    0    0 -0.91655006225E+03  0.35622710924E+03  0.24450448881E+03  0.13889723593E+04  0.95000000000E+03 0.  0.
<mgrwt>
<rscale>  0 0.28408363E+04</rscale>
<asrwt>0</asrwt>
<pdfrwt beam="2">  1        2 0.13853504E+00 0.28408363E+04</pdfrwt>
<pdfrwt beam="1">  1       -2 0.34470380E+00 0.28408363E+04</pdfrwt>
<totfact> 0.42685241E-01</totfact>
</mgrwt>
</event>
<event>
 4    1  0.2043502E-008  0.2854517E+04  0.7816531E-02  0.8286540E-01
          1   -1    0    0  501    0  0.00000000000E+00  0.00000000000E+00  0.16624453277E+04  0.16624453277E+04  0.00000000000E+00 0. -1.
         -1   -1    0    0    0  501 -0.00000000000E+00 -0.00000000000E+00 -0.12253438638E+04  0.12253438638E+04  0.00000000000E+00 0.  1.
    2000013    1    1    2    0    0  0.96040172089E+03  0.34600092139E+03  0.52619906104E+03  0.14904608532E+04  0.95000000000E+03 0.  0.
   -2000013    1    1    2    0    0 -0.96040172089E+03 -0.34600092139E+03 -0.89097597092E+02  0.13973283383E+04  0.95000000000E+03 0.  0.
<mgrwt>
<rscale>  0 0.28545172E+04</rscale>
<asrwt>0</asrwt>
<pdfrwt beam="1">  1        1 0.25576082E+00 0.28545172E+04</pdfrwt>
<pdfrwt beam="2">  1       -1 0.18851444E+00 0.28545172E+04</pdfrwt>
<totfact> 0.78866131E-01</totfact>
</mgrwt>
</event>
<event>
 4    1  0.2043502E-008  0.3465754E+04  0.7816531E-02  0.8121954E-01
          1   -1    0    0  501    0  0.00000000000E+00  0.00000000000E+00  0.44745798541E+04  0.44745798541E+04  0.00000000000E+00 0. -1.
         -1   -1    0    0    0  501 -0.00000000000E+00 -0.00000000000E+00 -0.67109371398E+03  0.67109371398E+03  0.00000000000E+00 0.  1.
    2000013    1    1    2    0    0  0.12475714015E+04  0.73441296400E+03  0.18014216006E+04  0.24986829705E+04  0.95000000000E+03 0.  0.
   -2000013    1    1    2    0    0 -0.12475714015E+04 -0.73441296400E+03  0.20020645395E+04  0.26469905977E+04  0.95000000000E+03 0.  0.
<mgrwt>
<rscale>  0 0.34657538E+04</rscale>
<asrwt>0</asrwt>
<pdfrwt beam="1">  1        1 0.68839688E+00 0.34657538E+04</pdfrwt>
<pdfrwt beam="2">  1       -1 0.10324519E+00 0.34657538E+04</pdfrwt>
<totfact> 0.24687003E-02</totfact>
</mgrwt>
</event>
<event>
 4    1  0.2043502E-008  0.2331060E+04  0.7816531E-02  0.8465774E-01
         -2   -1    0    0    0  501 -0.00000000000E+00  0.00000000000E+00  0.48986687447E+03  0.48986687447E+03  0.00000000000E+00 0. -1.
          2   -1    0    0  501    0  0.00000000000E+00 -0.00000000000E+00 -0.27731221513E+04  0.27731221513E+04  0.00000000000E+00 0.  1.
    2000013    1    1    2    0    0 -0.18011308582E+03 -0.63870277307E+03 -0.96691350684E+03  0.15092394395E+04  0.95000000000E+03 0.  0.
   -2000013    1    1    2    0    0  0.18011308582E+03  0.63870277307E+03 -0.13163417700E+04  0.17537495863E+04  0.95000000000E+03 0.  0.
<mgrwt>
<rscale>  0 0.23310604E+04</rscale>
<asrwt>0</asrwt>
<pdfrwt beam="2">  1        2 0.42663418E+00 0.23310604E+04</pdfrwt>
<pdfrwt beam="1">  1       -2 0.75364133E-01 0.23310604E+04</pdfrwt>
<totfact> 0.34301837E+00</totfact>
</mgrwt>
</event>
<event>
 4    1  0.2043502E-008  0.3566002E+04  0.7816531E-02  0.8098324E-01
          2   -1    0    0  501    0  0.00000000000E+00  0.00000000000E+00  0.23086314396E+04  0.23086314396E+04  0.00000000000E+00 0.  1.
         -2   -1    0    0    0  501 -0.00000000000E+00 -0.00000000000E+00 -0.13770463594E+04  0.13770463594E+04  0.00000000000E+00 0. -1.
    2000013    1    1    2    0    0 -0.11096028109E+04  0.10055947645E+04  0.65680076427E+03  0.18911177838E+04  0.95000000000E+03 0.  0.
   -2000013    1    1    2    0    0  0.11096028109E+04 -0.10055947645E+04  0.27478431593E+03  0.17945600153E+04  0.95000000000E+03 0.  0.
<mgrwt>
<rscale>  0 0.35660020E+04</rscale>
<asrwt>0</asrwt>
<pdfrwt beam="1">  1        2 0.35517407E+00 0.35660020E+04</pdfrwt>
<pdfrwt beam="2">  1       -2 0.21185329E+00 0.35660020E+04</pdfrwt>
<totfact> 0.40816553E-01</totfact>
</mgrwt>
</event>
<event>
 4    1  0.2043502E-008  0.2697035E+04  0.7816531E-02  0.8335968E-01
          2   -1    0    0  501    0  0.00000000000E+00  0.00000000000E+00  0.25675180534E+04  0.25675180534E+04  0.00000000000E+00 0.  1.
         -2   -1    0    0    0  501 -0.00000000000E+00 -0.00000000000E+00 -0.70827118391E+03  0.70827118391E+03  0.00000000000E+00 0. -1.
    2000013    1    1    2    0    0 -0.24838840339E+03  0.81284692522E+03  0.14640180176E+04  0.19412021221E+04  0.95000000000E+03 0.  0.
   -2000013    1    1    2    0    0  0.24838840339E+03 -0.81284692522E+03  0.39522885183E+03  0.13345871152E+04  0.95000000000E+03 0.  0.
<mgrwt>
<rscale>  0 0.26970347E+04</rscale>
<asrwt>0</asrwt>
<pdfrwt beam="1">  1        2 0.39500277E+00 0.26970347E+04</pdfrwt>
<pdfrwt beam="2">  1       -2 0.10896480E+00 0.26970347E+04</pdfrwt>
<totfact> 0.18751661E+00</totfact>
</mgrwt>
</event>
<event>
 4    1  0.2043502E-008  0.2406035E+04  0.7816531E-02  0.8437248E-01
         -2   -1    0    0    0  501 -0.00000000000E+00  0.00000000000E+00  0.58331114330E+03  0.58331114330E+03  0.00000000000E+00 0. -1.
          2   -1    0    0  501    0  0.00000000000E+00 -0.00000000000E+00 -0.24810953706E+04  0.24810953706E+04  0.00000000000E+00 0.  1.
    2000013    1    1    2    0    0  0.63978001834E+03  0.36544929755E+03 -0.89368459419E+03  0.14980132893E+04  0.95000000000E+03 0.  0.
   -2000013    1    1    2    0    0 -0.63978001834E+03 -0.36544929755E+03 -0.10040996331E+04  0.15663932246E+04  0.95000000000E+03 0.  0.
<mgrwt>
<rscale>  0 0.24060346E+04</rscale>
<asrwt>0</asrwt>
<pdfrwt beam="2">  1        2 0.38170698E+00 0.24060346E+04</pdfrwt>
<pdfrwt beam="1">  1       -2 0.89740176E-01 0.24060346E+04</pdfrwt>
<totfact> 0.34132832E+00</totfact>
</mgrwt>
</event>
<event>
 4    1  0.2043502E-008  0.2262231E+04  0.7816531E-02  0.8492963E-01
          2   -1    0    0  501    0  0.00000000000E+00  0.00000000000E+00  0.15974539765E+04  0.15974539765E+04  0.00000000000E+00 0.  1.
         -2   -1    0    0    0  501 -0.00000000000E+00 -0.00000000000E+00 -0.80091366234E+03  0.80091366234E+03  0.00000000000E+00 0. -1.
    2000013    1    1    2    0    0 -0.50676613910E+03 -0.34284176713E+03  0.34452094097E+03  0.11813327540E+04  0.95000000000E+03 0.  0.
   -2000013    1    1    2    0    0  0.50676613910E+03  0.34284176713E+03  0.45201937315E+03  0.12170348848E+04  0.95000000000E+03 0.  0.
<mgrwt>
<rscale>  0 0.22622314E+04</rscale>
<asrwt>0</asrwt>
<pdfrwt beam="1">  1        2 0.24576215E+00 0.22622314E+04</pdfrwt>
<pdfrwt beam="2">  1       -2 0.12321749E+00 0.22622314E+04</pdfrwt>
<totfact> 0.50584164E+00</totfact>
</mgrwt>
</event>
<event>
 4    1  0.2043502E-008  0.3079512E+04  0.7816531E-02  0.8221383E-01
          2   -1    0    0  501    0  0.00000000000E+00  0.00000000000E+00  0.12684894731E+04  0.12684894731E+04  0.00000000000E+00 0.  1.
         -2   -1    0    0    0  501 -0.00000000000E+00 -0.00000000000E+00 -0.18690332775E+04  0.18690332775E+04  0.00000000000E+00 0. -1.
    2000013    1    1    2    0    0  0.11246010849E+03  0.10710194679E+04  0.26572793965E+03  0.14604250459E+04  0.95000000000E+03 0.  0.
   -2000013    1    1    2    0    0 -0.11246010849E+03 -0.10710194679E+04 -0.86627174409E+03  0.16770977048E+04  0.95000000000E+03 0.  0.
<mgrwt>
<rscale>  0 0.30795123E+04</rscale>
<asrwt>0</asrwt>
<pdfrwt beam="1">  1        2 0.19515223E+00 0.30795123E+04</pdfrwt>
<pdfrwt beam="2">  1       -2 0.28754358E+00 0.30795123E+04</pdfrwt>
<totfact> 0.55560186E-01</totfact>
</mgrwt>
</event>
<event>
 4    1  0.2043502E-008  0.2197076E+04  0.7816531E-02  0.8519646E-01
          2   -1    0    0  501    0  0.00000000000E+00  0.00000000000E+00  0.32695927742E+04  0.32695927742E+04  0.00000000000E+00 0.  1.
         -2   -1    0    0    0  501 -0.00000000000E+00 -0.00000000000E+00 -0.36909346103E+03  0.36909346103E+03  0.00000000000E+00 0. -1.
    2000013    1    1    2    0    0  0.40382871464E+03 -0.36812879952E+03  0.13253352341E+04  0.17197703121E+04  0.95000000000E+03 0.  0.
   -2000013    1    1    2    0    0 -0.40382871464E+03  0.36812879952E+03  0.15751640791E+04  0.19189159231E+04  0.95000000000E+03 0.  0.
<mgrwt>
<rscale>  0 0.21970756E+04</rscale>
<asrwt>0</asrwt>
<pdfrwt beam="1">  1        2 0.50301425E+00 0.21970756E+04</pdfrwt>
<pdfrwt beam="2">  1       -2 0.56783612E-01 0.21970756E+04</pdfrwt>
<totfact> 0.31104141E+00</totfact>
</mgrwt>
</event>
<event>
 4    1  0.2043502E-008  0.2152131E+04  0.7816531E-02  0.8538621E-01
         -2   -1    0    0    0  501 -0.00000000000E+00  0.00000000000E+00  0.45886778971E+03  0.45886778971E+03  0.00000000000E+00 0. -1.
          2   -1    0    0  501    0  0.00000000000E+00 -0.00000000000E+00 -0.25234211035E+04  0.25234211035E+04  0.00000000000E+00 0.  1.
    2000013    1    1    2    0    0  0.33220113240E+03  0.35297549881E+03 -0.12305261449E+04  0.16283868976E+04  0.95000000000E+03 0.  0.
   -2000013    1    1    2    0    0 -0.33220113240E+03 -0.35297549881E+03 -0.83402716889E+03  0.13539019956E+04  0.95000000000E+03 0.  0.
<mgrwt>
<rscale>  0 0.21521307E+04</rscale>
<asrwt>0</asrwt>
<pdfrwt beam="2">  1        2 0.38821864E+00 0.21521307E+04</pdfrwt>
<pdfrwt beam="1">  1       -2 0.70595044E-01 0.21521307E+04</pdfrwt>
<totfact> 0.56506271E+00</totfact>
</mgrwt>
</event>
<event>
 4    1  0.2043502E-008  0.2016360E+04  0.7816531E-02  0.8599010E-01
         -2   -1    0    0    0  501 -0.00000000000E+00  0.00000000000E+00  0.59888869086E+03  0.59888869086E+03  0.00000000000E+00 0. -1.
          2   -1    0    0  501    0  0.00000000000E+00 -0.00000000000E+00 -0.16971877871E+04  0.16971877871E+04  0.00000000000E+00 0.  1.
    2000013    1    1    2    0    0 -0.27665076702E+03 -0.17986550646E+03 -0.46831360356E+03  0.11093713889E+04  0.95000000000E+03 0.  0.
   -2000013    1    1    2    0    0  0.27665076702E+03  0.17986550646E+03 -0.62998549266E+03  0.11867050890E+04  0.95000000000E+03 0.  0.
<mgrwt>
<rscale>  0 0.20163597E+04</rscale>
<asrwt>0</asrwt>
<pdfrwt beam="2">  1        2 0.26110581E+00 0.20163597E+04</pdfrwt>
<pdfrwt beam="1">  1       -2 0.92136723E-01 0.20163597E+04</pdfrwt>
<totfact> 0.91404219E+00</totfact>
</mgrwt>
</event>
<event>
 4    1  0.2043502E-008  0.2446487E+04  0.7816531E-02  0.8422302E-01
          2   -1    0    0  501    0  0.00000000000E+00  0.00000000000E+00  0.13911057616E+04  0.13911057616E+04  0.00000000000E+00 0.  1.
         -2   -1    0    0    0  501 -0.00000000000E+00 -0.00000000000E+00 -0.10756372577E+04  0.10756372577E+04  0.00000000000E+00 0. -1.
    2000013    1    1    2    0    0 -0.69820741738E+03  0.28526596669E+03 -0.15449185420E+01  0.12130015071E+04  0.95000000000E+03 0.  0.
   -2000013    1    1    2    0    0  0.69820741738E+03 -0.28526596669E+03  0.31701342248E+03  0.12537415122E+04  0.95000000000E+03 0.  0.
<mgrwt>
<rscale>  0 0.24464874E+04</rscale>
<asrwt>0</asrwt>
<pdfrwt beam="1">  1        2 0.21401627E+00 0.24464874E+04</pdfrwt>
<pdfrwt beam="2">  1       -2 0.16548266E+00 0.24464874E+04</pdfrwt>
<totfact> 0.30126396E+00</totfact>
</mgrwt>
</event>
<event>
 4    1  0.2043502E-008  0.2110807E+04  0.7816531E-02  0.8556498E-01
         -1   -1    0    0    0  501 -0.00000000000E+00  0.00000000000E+00  0.65529594353E+03  0.65529594353E+03  0.00000000000E+00 0. -1.
          1   -1    0    0  501    0  0.00000000000E+00 -0.00000000000E+00 -0.16998068853E+04  0.16998068853E+04  0.00000000000E+00 0.  1.
    2000013    1    1    2    0    0 -0.13690443621E+03 -0.35161450012E+03 -0.81533734608E+03  0.13075360681E+04  0.95000000000E+03 0.  0.
   -2000013    1    1    2    0    0  0.13690443621E+03  0.35161450012E+03 -0.22917359571E+03  0.10475667608E+04  0.95000000000E+03 0.  0.
<mgrwt>
<rscale>  0 0.21108070E+04</rscale>
<asrwt>0</asrwt>
<pdfrwt beam="2">  1        1 0.26150875E+00 0.21108070E+04</pdfrwt>
<pdfrwt beam="1">  1       -1 0.10081476E+00 0.21108070E+04</pdfrwt>
<totfact> 0.40975322E+00</totfact>
</mgrwt>
</event>
<event>
 4    1  0.2043502E-008  0.3001243E+04  0.7816531E-02  0.8243376E-01
         -2   -1    0    0    0  501 -0.00000000000E+00  0.00000000000E+00  0.96536445574E+03  0.96536445574E+03  0.00000000000E+00 0. -1.
          2   -1    0    0  501    0  0.00000000000E+00 -0.00000000000E+00 -0.23326571613E+04  0.23326571613E+04  0.00000000000E+00 0.  1.
    2000013    1    1    2    0    0  0.36479651869E+03  0.10942688590E+04 -0.53272063710E+03  0.15864400755E+04  0.95000000000E+03 0.  0.
   -2000013    1    1    2    0    0 -0.36479651869E+03 -0.10942688590E+04 -0.83457206846E+03  0.17115815416E+04  0.95000000000E+03 0.  0.
<mgrwt>
<rscale>  0 0.30012426E+04</rscale>
<asrwt>0</asrwt>
<pdfrwt beam="2">  1        2 0.35887033E+00 0.30012426E+04</pdfrwt>
<pdfrwt beam="1">  1       -2 0.14851761E+00 0.30012426E+04</pdfrwt>
<totfact> 0.11435805E+00</totfact>
</mgrwt>
</event>
<event>
 4    1  0.2043502E-008  0.2373273E+04  0.7816531E-02  0.8449578E-01
          2   -1    0    0  501    0  0.00000000000E+00  0.00000000000E+00  0.24300663197E+04  0.24300663197E+04  0.00000000000E+00 0.  1.
         -2   -1    0    0    0  501 -0.00000000000E+00 -0.00000000000E+00 -0.57945188424E+03  0.57945188424E+03  0.00000000000E+00 0. -1.
    2000013    1    1    2    0    0  0.64737572420E+03  0.11222232865E+03  0.12700715720E+04  0.17167617707E+04  0.95000000000E+03 0.  0.
   -2000013    1    1    2    0    0 -0.64737572420E+03 -0.11222232865E+03  0.58054286343E+03  0.12927564332E+04  0.95000000000E+03 0.  0.
<mgrwt>
<rscale>  0 0.23732733E+04</rscale>
<asrwt>0</asrwt>
<pdfrwt beam="1">  1        2 0.37385635E+00 0.23732733E+04</pdfrwt>
<pdfrwt beam="2">  1       -2 0.89146445E-01 0.23732733E+04</pdfrwt>
<totfact> 0.37190676E+00</totfact>
</mgrwt>
</event>
<event>
 4    1  0.2043502E-008  0.2455604E+04  0.7816531E-02  0.8418975E-01
          2   -1    0    0  501    0  0.00000000000E+00  0.00000000000E+00  0.30285365290E+04  0.30285365290E+04  0.00000000000E+00 0.  1.
         -2   -1    0    0    0  501 -0.00000000000E+00 -0.00000000000E+00 -0.49776437728E+03  0.49776437728E+03  0.00000000000E+00 0. -1.
    2000013    1    1    2    0    0  0.43168045179E+03 -0.41331242995E+03  0.55050902212E+03  0.12500941407E+04  0.95000000000E+03 0.  0.
   -2000013    1    1    2    0    0 -0.43168045179E+03  0.41331242995E+03  0.19802631296E+04  0.22762067656E+04  0.95000000000E+03 0.  0.
<mgrwt>
<rscale>  0 0.24556039E+04</rscale>
<asrwt>0</asrwt>
<pdfrwt beam="1">  1        2 0.46592869E+00 0.24556039E+04</pdfrwt>
<pdfrwt beam="2">  1       -2 0.76579137E-01 0.24556039E+04</pdfrwt>
<totfact> 0.22805891E+00</totfact>
</mgrwt>
</event>
<event>
 4    1  0.2043502E-008  0.2021316E+04  0.7816531E-02  0.8596719E-01
         -2   -1    0    0    0  501 -0.00000000000E+00  0.00000000000E+00  0.89941425036E+03  0.89941425036E+03  0.00000000000E+00 0. -1.
          2   -1    0    0  501    0  0.00000000000E+00 -0.00000000000E+00 -0.11356610294E+04  0.11356610294E+04  0.00000000000E+00 0.  1.
    2000013    1    1    2    0    0  0.23238475153E+03  0.16893218072E+03 -0.31018079405E+03  0.10398331017E+04  0.95000000000E+03 0.  0.
   -2000013    1    1    2    0    0 -0.23238475153E+03 -0.16893218072E+03  0.73934014995E+02  0.99524217806E+03  0.95000000000E+03 0.  0.
<mgrwt>
<rscale>  0 0.20213161E+04</rscale>
<asrwt>0</asrwt>
<pdfrwt beam="2">  1        2 0.17471708E+00 0.20213161E+04</pdfrwt>
<pdfrwt beam="1">  1       -2 0.13837142E+00 0.20213161E+04</pdfrwt>
<totfact> 0.71136196E+00</totfact>
</mgrwt>
</event>
<event>
 4    1  0.2043502E-008  0.3175350E+04  0.7816531E-02  0.8195358E-01
         -2   -1    0    0    0  501 -0.00000000000E+00  0.00000000000E+00  0.96070241133E+03  0.96070241133E+03  0.00000000000E+00 0. -1.
          2   -1    0    0  501    0  0.00000000000E+00 -0.00000000000E+00 -0.26238223136E+04  0.26238223136E+04  0.00000000000E+00 0.  1.
    2000013    1    1    2    0    0  0.29774572813E+03  0.11384701251E+04 -0.28613769714E+03  0.15392015872E+04  0.95000000000E+03 0.  0.
   -2000013    1    1    2    0    0 -0.29774572813E+03 -0.11384701251E+04 -0.13769822052E+04  0.20453231377E+04  0.95000000000E+03 0.  0.
<mgrwt>
<rscale>  0 0.31753503E+04</rscale>
<asrwt>0</asrwt>
<pdfrwt beam="2">  1        2 0.40366496E+00 0.31753503E+04</pdfrwt>
<pdfrwt beam="1">  1       -2 0.14780037E+00 0.31753503E+04</pdfrwt>
<totfact> 0.77439219E-01</totfact>
</mgrwt>
</event>
<event>
 4    1  0.2043502E-008  0.2481963E+04  0.7816531E-02  0.8409440E-01
          2   -1    0    0  501    0  0.00000000000E+00  0.00000000000E+00  0.12633128786E+04  0.12633128786E+04  0.00000000000E+00 0.  1.
         -2   -1    0    0    0  501 -0.00000000000E+00 -0.00000000000E+00 -0.12190450265E+04  0.12190450265E+04  0.00000000000E+00 0. -1.
    2000013    1    1    2    0    0 -0.60122089130E+03  0.20008505717E+03  0.50804521205E+03  0.12498442014E+04  0.95000000000E+03 0.  0.
   -2000013    1    1    2    0    0  0.60122089130E+03 -0.20008505717E+03 -0.46377735994E+03  0.12325137037E+04  0.95000000000E+03 0.  0.
<mgrwt>
<rscale>  0 0.24819632E+04</rscale>
<asrwt>0</asrwt>
<pdfrwt beam="1">  1        2 0.19435583E+00 0.24819632E+04</pdfrwt>
<pdfrwt beam="2">  1       -2 0.18754539E+00 0.24819632E+04</pdfrwt>
<totfact> 0.24983838E+00</totfact>
</mgrwt>
</event>
<event>
 4    1  0.2043502E-008  0.2736761E+04  0.7816531E-02  0.8323175E-01
          1   -1    0    0  501    0  0.00000000000E+00  0.00000000000E+00  0.37215968749E+04  0.37215968749E+04  0.00000000000E+00 0. -1.
         -1   -1    0    0    0  501 -0.00000000000E+00 -0.00000000000E+00 -0.50313476005E+03  0.50313476005E+03  0.00000000000E+00 0.  1.
    2000013    1    1    2    0    0  0.10137682836E+03 -0.84151209792E+03  0.83500096854E+03  0.15225460551E+04  0.95000000000E+03 0.  0.
   -2000013    1    1    2    0    0 -0.10137682836E+03  0.84151209792E+03  0.23834611463E+04  0.27021855799E+04  0.95000000000E+03 0.  0.
<mgrwt>
<rscale>  0 0.27367607E+04</rscale>
<asrwt>0</asrwt>
<pdfrwt beam="1">  1        1 0.57255335E+00 0.27367607E+04</pdfrwt>
<pdfrwt beam="2">  1       -1 0.77405350E-01 0.27367607E+04</pdfrwt>
<totfact> 0.24121732E-01</totfact>
</mgrwt>
</event>
<event>
 4    1  0.2043502E-008  0.2456293E+04  0.7816531E-02  0.8418724E-01
         -1   -1    0    0    0  501 -0.00000000000E+00  0.00000000000E+00  0.14167998892E+04  0.14167998892E+04  0.00000000000E+00 0. -1.
          1   -1    0    0  501    0  0.00000000000E+00 -0.00000000000E+00 -0.10646131183E+04  0.10646131183E+04  0.00000000000E+00 0.  1.
    2000013    1    1    2    0    0 -0.75514102342E+03 -0.20577577061E+02  0.36558120284E+03  0.12676004961E+04  0.95000000000E+03 0.  0.
   -2000013    1    1    2    0    0  0.75514102342E+03  0.20577577061E+02 -0.13394432011E+02  0.12138125114E+04  0.95000000000E+03 0.  0.
<mgrwt>
<rscale>  0 0.24562929E+04</rscale>
<asrwt>0</asrwt>
<pdfrwt beam="2">  1        1 0.16378663E+00 0.24562929E+04</pdfrwt>
<pdfrwt beam="1">  1       -1 0.21796921E+00 0.24562929E+04</pdfrwt>
<totfact> 0.13658196E+00</totfact>
</mgrwt>
</event>
<event>
 4    1  0.2043502E-008  0.2382335E+04  0.7816531E-02  0.8446147E-01
         -1   -1    0    0    0  501 -0.00000000000E+00  0.00000000000E+00  0.68865144618E+03  0.68865144618E+03  0.00000000000E+00 0.  1.
          1   -1    0    0  501    0  0.00000000000E+00 -0.00000000000E+00 -0.20603747148E+04  0.20603747148E+04  0.00000000000E+00 0. -1.
    2000013    1    1    2    0    0  0.26515186952E+03  0.64396373038E+03 -0.89028883293E+03  0.14765192197E+04  0.95000000000E+03 0.  0.
   -2000013    1    1    2    0    0 -0.26515186952E+03 -0.64396373038E+03 -0.48143443573E+03  0.12725069414E+04  0.95000000000E+03 0.  0.
<mgrwt>
<rscale>  0 0.23823350E+04</rscale>
<asrwt>0</asrwt>
<pdfrwt beam="2">  1        1 0.31698072E+00 0.23823350E+04</pdfrwt>
<pdfrwt beam="1">  1       -1 0.10594638E+00 0.23823350E+04</pdfrwt>
<totfact> 0.20284270E+00</totfact>
</mgrwt>
</event>
<event>
 4    1  0.2043502E-008  0.2139236E+04  0.7816531E-02  0.8544154E-01
          2   -1    0    0  501    0  0.00000000000E+00  0.00000000000E+00  0.11989822173E+04  0.11989822173E+04  0.00000000000E+00 0.  1.
         -2   -1    0    0    0  501 -0.00000000000E+00 -0.00000000000E+00 -0.95421156810E+03  0.95421156810E+03  0.00000000000E+00 0. -1.
    2000013    1    1    2    0    0  0.47799745016E+03 -0.92032917091E+02  0.53889259066E+02  0.10688104006E+04  0.95000000000E+03 0.  0.
   -2000013    1    1    2    0    0 -0.47799745016E+03  0.92032917091E+02  0.19088139017E+03  0.10843833848E+04  0.95000000000E+03 0.  0.
<mgrwt>
<rscale>  0 0.21392360E+04</rscale>
<asrwt>0</asrwt>
<pdfrwt beam="1">  1        2 0.18445880E+00 0.21392360E+04</pdfrwt>
<pdfrwt beam="2">  1       -2 0.14680178E+00 0.21392360E+04</pdfrwt>
<totfact> 0.55271836E+00</totfact>
</mgrwt>
</event>
<event>
 4    1  0.2043502E-008  0.2696957E+04  0.7816531E-02  0.8335993E-01
         -2   -1    0    0    0  501 -0.00000000000E+00  0.00000000000E+00  0.18758556426E+04  0.18758556426E+04  0.00000000000E+00 0. -1.
          2   -1    0    0  501    0  0.00000000000E+00 -0.00000000000E+00 -0.96936794000E+03  0.96936794000E+03  0.00000000000E+00 0.  1.
    2000013    1    1    2    0    0 -0.86028141804E+03 -0.27005397605E+03  0.11485965743E+03  0.13148026503E+04  0.95000000000E+03 0.  0.
   -2000013    1    1    2    0    0  0.86028141804E+03  0.27005397605E+03  0.79162804516E+03  0.15304209323E+04  0.95000000000E+03 0.  0.
<mgrwt>
<rscale>  0 0.26969570E+04</rscale>
<asrwt>0</asrwt>
<pdfrwt beam="2">  1        2 0.14913353E+00 0.26969570E+04</pdfrwt>
<pdfrwt beam="1">  1       -2 0.28859317E+00 0.26969570E+04</pdfrwt>
<totfact> 0.86351134E-01</totfact>
</mgrwt>
</event>
<event>
 4    1  0.2043502E-008  0.2346433E+04  0.7816531E-02  0.8459835E-01
          1   -1    0    0  501    0  0.00000000000E+00  0.00000000000E+00  0.74056866738E+03  0.74056866738E+03  0.00000000000E+00 0. -1.
         -1   -1    0    0    0  501 -0.00000000000E+00 -0.00000000000E+00 -0.18586214503E+04  0.18586214503E+04  0.00000000000E+00 0.  1.
    2000013    1    1    2    0    0 -0.20790475242E+02 -0.57232269112E+03 -0.98221493479E+03  0.14816314268E+04  0.95000000000E+03 0.  0.
   -2000013    1    1    2    0    0  0.20790475242E+02  0.57232269112E+03 -0.13583784812E+03  0.11175586909E+04  0.95000000000E+03 0.  0.
<mgrwt>
<rscale>  0 0.23464329E+04</rscale>
<asrwt>0</asrwt>
<pdfrwt beam="1">  1        1 0.11393364E+00 0.23464329E+04</pdfrwt>
<pdfrwt beam="2">  1       -1 0.28594176E+00 0.23464329E+04</pdfrwt>
<totfact> 0.91618698E-01</totfact>
</mgrwt>
</event>
<event>
 4    1  0.2043502E-008  0.2374808E+04  0.7816531E-02  0.8448996E-01
         -2   -1    0    0    0  501 -0.00000000000E+00  0.00000000000E+00  0.41547844883E+03  0.41547844883E+03  0.00000000000E+00 0. -1.
          2   -1    0    0  501    0  0.00000000000E+00 -0.00000000000E+00 -0.33935038442E+04  0.33935038442E+04  0.00000000000E+00 0.  1.
    2000013    1    1    2    0    0 -0.45181859579E+03 -0.52529364041E+03 -0.12237397099E+04  0.16970893700E+04  0.95000000000E+03 0.  0.
   -2000013    1    1    2    0    0  0.45181859579E+03  0.52529364041E+03 -0.17542856854E+04  0.21118929230E+04  0.95000000000E+03 0.  0.
<mgrwt>
<rscale>  0 0.23748075E+04</rscale>
<asrwt>0</asrwt>
<pdfrwt beam="2">  1        2 0.52207747E+00 0.23748075E+04</pdfrwt>
<pdfrwt beam="1">  1       -2 0.63919766E-01 0.23748075E+04</pdfrwt>
<totfact> 0.19676368E+00</totfact>
</mgrwt>
</event>
<event>
 4    1  0.2043502E-008  0.2450454E+04  0.7816531E-02  0.8420852E-01
         -2   -1    0    0    0  501 -0.00000000000E+00  0.00000000000E+00  0.72179751482E+03  0.72179751482E+03  0.00000000000E+00 0. -1.
          2   -1    0    0  501    0  0.00000000000E+00 -0.00000000000E+00 -0.20797820093E+04  0.20797820093E+04  0.00000000000E+00 0.  1.
    2000013    1    1    2    0    0 -0.75428407935E+03  0.14893574615E+03 -0.77836746662E+03  0.14489590201E+04  0.95000000000E+03 0.  0.
   -2000013    1    1    2    0    0  0.75428407935E+03 -0.14893574615E+03 -0.57961702783E+03  0.13526205040E+04  0.95000000000E+03 0.  0.
<mgrwt>
<rscale>  0 0.24504542E+04</rscale>
<asrwt>0</asrwt>
<pdfrwt beam="2">  1        2 0.31996646E+00 0.24504542E+04</pdfrwt>
<pdfrwt beam="1">  1       -2 0.11104577E+00 0.24504542E+04</pdfrwt>
<totfact> 0.34675779E+00</totfact>
</mgrwt>
</event>
<event>
 4    1  0.2043502E-008  0.2142372E+04  0.7816531E-02  0.8542804E-01
         -2   -1    0    0    0  501 -0.00000000000E+00  0.00000000000E+00  0.67862026976E+03  0.67862026976E+03  0.00000000000E+00 0. -1.
          2   -1    0    0  501    0  0.00000000000E+00 -0.00000000000E+00 -0.16908421161E+04  0.16908421161E+04  0.00000000000E+00 0.  1.
    2000013    1    1    2    0    0 -0.20560955568E+03  0.25817599715E+03 -0.98224115007E+02  0.10104840977E+04  0.95000000000E+03 0.  0.
   -2000013    1    1    2    0    0  0.20560955568E+03 -0.25817599715E+03 -0.91399773134E+03  0.13589782882E+04  0.95000000000E+03 0.  0.
<mgrwt>
<rscale>  0 0.21423723E+04</rscale>
<asrwt>0</asrwt>
<pdfrwt beam="2">  1        2 0.26012955E+00 0.21423723E+04</pdfrwt>
<pdfrwt beam="1">  1       -2 0.10440312E+00 0.21423723E+04</pdfrwt>
<totfact> 0.67913657E+00</totfact>
</mgrwt>
</event>
<event>
 4    1  0.2043502E-008  0.2176721E+04  0.7816531E-02  0.8528180E-01
         -2   -1    0    0    0  501 -0.00000000000E+00  0.00000000000E+00  0.49219004154E+03  0.49219004154E+03  0.00000000000E+00 0.  1.
          2   -1    0    0  501    0  0.00000000000E+00 -0.00000000000E+00 -0.24066496006E+04  0.24066496006E+04  0.00000000000E+00 0. -1.
    2000013    1    1    2    0    0 -0.94276007490E+02  0.52016392837E+03 -0.88971027888E+03  0.14048284089E+04  0.95000000000E+03 0.  0.
   -2000013    1    1    2    0    0  0.94276007490E+02 -0.52016392837E+03 -0.10247492802E+04  0.14940112333E+04  0.95000000000E+03 0.  0.
<mgrwt>
<rscale>  0 0.21767214E+04</rscale>
<asrwt>0</asrwt>
<pdfrwt beam="2">  1        2 0.37025378E+00 0.21767214E+04</pdfrwt>
<pdfrwt beam="1">  1       -2 0.75721545E-01 0.21767214E+04</pdfrwt>
<totfact> 0.56415494E+00</totfact>
</mgrwt>
</event>
<event>
 4    1  0.2043502E-008  0.2758558E+04  0.7816531E-02  0.8316251E-01
          1   -1    0    0  501    0  0.00000000000E+00  0.00000000000E+00  0.17233194350E+04  0.17233194350E+04  0.00000000000E+00 0.  1.
         -1   -1    0    0    0  501 -0.00000000000E+00 -0.00000000000E+00 -0.11039221398E+04  0.11039221398E+04  0.00000000000E+00 0. -1.
    2000013    1    1    2    0    0  0.23230226074E+03  0.85362775692E+03 -0.16802471807E+03  0.13089602720E+04  0.95000000000E+03 0.  0.
   -2000013    1    1    2    0    0 -0.23230226074E+03 -0.85362775692E+03  0.78742201323E+03  0.15182813029E+04  0.95000000000E+03 0.  0.
<mgrwt>
<rscale>  0 0.27585579E+04</rscale>
<asrwt>0</asrwt>
<pdfrwt beam="1">  1        1 0.26512607E+00 0.27585579E+04</pdfrwt>
<pdfrwt beam="2">  1       -1 0.16983418E+00 0.27585579E+04</pdfrwt>
<totfact> 0.98499969E-01</totfact>
</mgrwt>
</event>
<event>
 4    1  0.2043502E-008  0.2608187E+04  0.7816531E-02  0.8365425E-01
         -2   -1    0    0    0  501 -0.00000000000E+00  0.00000000000E+00  0.53875498753E+03  0.53875498753E+03  0.00000000000E+00 0. -1.
          2   -1    0    0  501    0  0.00000000000E+00 -0.00000000000E+00 -0.31566486014E+04  0.31566486014E+04  0.00000000000E+00 0.  1.
    2000013    1    1    2    0    0  0.31738419008E+03  0.79092589947E+03 -0.16887668000E+04  0.21167734426E+04  0.95000000000E+03 0.  0.
   -2000013    1    1    2    0    0 -0.31738419008E+03 -0.79092589947E+03 -0.92912681382E+03  0.15786301463E+04  0.95000000000E+03 0.  0.
<mgrwt>
<rscale>  0 0.26081872E+04</rscale>
<asrwt>0</asrwt>
<pdfrwt beam="2">  1        2 0.48563825E+00 0.26081872E+04</pdfrwt>
<pdfrwt beam="1">  1       -2 0.82885382E-01 0.26081872E+04</pdfrwt>
<totfact> 0.15607413E+00</totfact>
</mgrwt>
</event>
<event>
 4    1  0.2043502E-008  0.2289767E+04  0.7816531E-02  0.8481967E-01
          2   -1    0    0  501    0  0.00000000000E+00  0.00000000000E+00  0.22482294026E+04  0.22482294026E+04  0.00000000000E+00 0.  1.
         -2   -1    0    0    0  501 -0.00000000000E+00 -0.00000000000E+00 -0.58301803593E+03  0.58301803593E+03  0.00000000000E+00 0. -1.
    2000013    1    1    2    0    0  0.41230139390E+03  0.33709064816E+03  0.12691293888E+04  0.16723671696E+04  0.95000000000E+03 0.  0.
   -2000013    1    1    2    0    0 -0.41230139390E+03 -0.33709064816E+03  0.39608197785E+03  0.11588802689E+04  0.95000000000E+03 0.  0.
<mgrwt>
<rscale>  0 0.22897671E+04</rscale>
<asrwt>0</asrwt>
<pdfrwt beam="1">  1        2 0.34588144E+00 0.22897671E+04</pdfrwt>
<pdfrwt beam="2">  1       -2 0.89695083E-01 0.22897671E+04</pdfrwt>
<totfact> 0.46870034E+00</totfact>
</mgrwt>
</event>
<event>
 4    1  0.2043502E-008  0.2040014E+04  0.7816531E-02  0.8588138E-01
         -2   -1    0    0    0  501 -0.00000000000E+00  0.00000000000E+00  0.57313379086E+03  0.57313379086E+03  0.00000000000E+00 0. -1.
          2   -1    0    0  501    0  0.00000000000E+00 -0.00000000000E+00 -0.18153070028E+04  0.18153070028E+04  0.00000000000E+00 0.  1.
    2000013    1    1    2    0    0 -0.31579863114E+03  0.18707501789E+03 -0.55498120586E+03  0.11598404962E+04  0.95000000000E+03 0.  0.
   -2000013    1    1    2    0    0  0.31579863114E+03 -0.18707501789E+03 -0.68719200609E+03  0.12286002975E+04  0.95000000000E+03 0.  0.
<mgrwt>
<rscale>  0 0.20400135E+04</rscale>
<asrwt>0</asrwt>
<pdfrwt beam="2">  1        2 0.27927800E+00 0.20400135E+04</pdfrwt>
<pdfrwt beam="1">  1       -2 0.88174431E-01 0.20400135E+04</pdfrwt>
<totfact> 0.86810499E+00</totfact>
</mgrwt>
</event>
<event>
 4    1  0.2043502E-008  0.2119646E+04  0.7816531E-02  0.8552638E-01
          2   -1    0    0  501    0  0.00000000000E+00  0.00000000000E+00  0.23441789043E+04  0.23441789043E+04  0.00000000000E+00 0.  1.
         -2   -1    0    0    0  501 -0.00000000000E+00 -0.00000000000E+00 -0.47915472289E+03  0.47915472289E+03  0.00000000000E+00 0. -1.
    2000013    1    1    2    0    0 -0.20069210838E+03 -0.34130810870E+03  0.59566014094E+03  0.11891507688E+04  0.95000000000E+03 0.  0.
   -2000013    1    1    2    0    0  0.20069210838E+03  0.34130810870E+03  0.12693640405E+04  0.16341828584E+04  0.95000000000E+03 0.  0.
<mgrwt>
<rscale>  0 0.21196456E+04</rscale>
<asrwt>0</asrwt>
<pdfrwt beam="1">  1        2 0.36064290E+00 0.21196456E+04</pdfrwt>
<pdfrwt beam="2">  1       -2 0.73716113E-01 0.21196456E+04</pdfrwt>
<totfact> 0.65315299E+00</totfact>
</mgrwt>
</event>
<event>
 4    1  0.2043502E-008  0.2529707E+04  0.7816531E-02  0.8392478E-01
          1   -1    0    0  501    0  0.00000000000E+00  0.00000000000E+00  0.15655763771E+04  0.15655763771E+04  0.00000000000E+00 0. -1.
         -1   -1    0    0    0  501 -0.00000000000E+00 -0.00000000000E+00 -0.10218950918E+04  0.10218950918E+04  0.00000000000E+00 0.  1.
    2000013    1    1    2    0    0 -0.34064344004E+03  0.73512535518E+03  0.64966051667E+02  0.12502671030E+04  0.95000000000E+03 0.  0.
   -2000013    1    1    2    0    0  0.34064344004E+03 -0.73512535518E+03  0.47871523369E+03  0.13372043658E+04  0.95000000000E+03 0.  0.
<mgrwt>
<rscale>  0 0.25297073E+04</rscale>
<asrwt>0</asrwt>
<pdfrwt beam="1">  1        1 0.24085791E+00 0.25297073E+04</pdfrwt>
<pdfrwt beam="2">  1       -1 0.15721463E+00 0.25297073E+04</pdfrwt>
<totfact> 0.16025262E+00</totfact>
</mgrwt>
</event>
<event>
 4    1  0.2043502E-008  0.3134802E+04  0.7816531E-02  0.8206251E-01
          2   -1    0    0  501    0  0.00000000000E+00  0.00000000000E+00  0.15555742971E+04  0.15555742971E+04  0.00000000000E+00 0.  1.
         -2   -1    0    0    0  501 -0.00000000000E+00 -0.00000000000E+00 -0.15793175875E+04  0.15793175875E+04  0.00000000000E+00 0. -1.
    2000013    1    1    2    0    0 -0.26826625883E+03  0.97698333436E+03 -0.73837897619E+03  0.15729484206E+04  0.95000000000E+03 0.  0.
   -2000013    1    1    2    0    0  0.26826625883E+03 -0.97698333436E+03  0.71463568578E+03  0.15619434640E+04  0.95000000000E+03 0.  0.
<mgrwt>
<rscale>  0 0.31348020E+04</rscale>
<asrwt>0</asrwt>
<pdfrwt beam="1">  1        2 0.23931912E+00 0.31348020E+04</pdfrwt>
<pdfrwt beam="2">  1       -2 0.24297194E+00 0.31348020E+04</pdfrwt>
<totfact> 0.70998487E-01</totfact>
</mgrwt>
</event>
<event>
 4    1  0.2043502E-008  0.2247592E+04  0.7816531E-02  0.8498876E-01
         -2   -1    0    0    0  501 -0.00000000000E+00  0.00000000000E+00  0.30643800622E+03  0.30643800622E+03  0.00000000000E+00 0. -1.
          2   -1    0    0  501    0  0.00000000000E+00 -0.00000000000E+00 -0.41212811703E+04  0.41212811703E+04  0.00000000000E+00 0.  1.
    2000013    1    1    2    0    0 -0.47550821339E+03 -0.35559446278E+03 -0.17327505350E+04  0.20633661574E+04  0.95000000000E+03 0.  0.
   -2000013    1    1    2    0    0  0.47550821339E+03  0.35559446278E+03 -0.20820926291E+04  0.23643530191E+04  0.95000000000E+03 0.  0.
<mgrwt>
<rscale>  0 0.22475918E+04</rscale>
<asrwt>0</asrwt>
<pdfrwt beam="2">  1        2 0.63404327E+00 0.22475918E+04</pdfrwt>
<pdfrwt beam="1">  1       -2 0.47144308E-01 0.22475918E+04</pdfrwt>
<totfact> 0.10623277E+00</totfact>
</mgrwt>
</event>
<event>
 4    1  0.2043502E-008  0.2209559E+04  0.7816531E-02  0.8514460E-01
          2   -1    0    0  501    0  0.00000000000E+00  0.00000000000E+00  0.19013473128E+04  0.19013473128E+04  0.00000000000E+00 0.  1.
         -2   -1    0    0    0  501 -0.00000000000E+00 -0.00000000000E+00 -0.64193315900E+03  0.64193315900E+03  0.00000000000E+00 0. -1.
    2000013    1    1    2    0    0 -0.10719302210E+03  0.25437453736E+03  0.63658481590E+02  0.99133705243E+03  0.95000000000E+03 0.  0.
   -2000013    1    1    2    0    0  0.10719302210E+03 -0.25437453736E+03  0.11957556722E+04  0.15519434193E+04  0.95000000000E+03 0.  0.
<mgrwt>
<rscale>  0 0.22095591E+04</rscale>
<asrwt>0</asrwt>
<pdfrwt beam="1">  1        2 0.29251497E+00 0.22095591E+04</pdfrwt>
<pdfrwt beam="2">  1       -2 0.98758948E-01 0.22095591E+04</pdfrwt>
<totfact> 0.58899873E+00</totfact>
</mgrwt>
</event>
<event>
 4    1  0.2043502E-008  0.2575951E+04  0.7816531E-02  0.8376416E-01
         -2   -1    0    0    0  501 -0.00000000000E+00  0.00000000000E+00  0.14685037709E+04  0.14685037709E+04  0.00000000000E+00 0. -1.
          2   -1    0    0  501    0  0.00000000000E+00 -0.00000000000E+00 -0.11296399375E+04  0.11296399375E+04  0.00000000000E+00 0.  1.
    2000013    1    1    2    0    0 -0.59447876322E+03  0.51286360691E+03 -0.20788522132E+03  0.12498601300E+04  0.95000000000E+03 0.  0.
   -2000013    1    1    2    0    0  0.59447876322E+03 -0.51286360691E+03  0.54674905466E+03  0.13482835785E+04  0.95000000000E+03 0.  0.
<mgrwt>
<rscale>  0 0.25759507E+04</rscale>
<asrwt>0</asrwt>
<pdfrwt beam="2">  1        2 0.17379076E+00 0.25759507E+04</pdfrwt>
<pdfrwt beam="1">  1       -2 0.22592366E+00 0.25759507E+04</pdfrwt>
<totfact> 0.16789592E+00</totfact>
</mgrwt>
</event>
<event>
 4    1  0.2043502E-008  0.2956375E+04  0.7816531E-02  0.8256299E-01
          2   -1    0    0  501    0  0.00000000000E+00  0.00000000000E+00  0.21125595671E+04  0.21125595671E+04  0.00000000000E+00 0.  1.
         -2   -1    0    0    0  501 -0.00000000000E+00 -0.00000000000E+00 -0.10343083888E+04  0.10343083888E+04  0.00000000000E+00 0. -1.
    2000013    1    1    2    0    0 -0.10097228620E+04 -0.28084527424E+03  0.82380452551E+02  0.14169336135E+04  0.95000000000E+03 0.  0.
   -2000013    1    1    2    0    0  0.10097228620E+04  0.28084527424E+03  0.99587072575E+03  0.17299343423E+04  0.95000000000E+03 0.  0.
<mgrwt>
<rscale>  0 0.29563749E+04</rscale>
<asrwt>0</asrwt>
<pdfrwt beam="1">  1        2 0.32500916E+00 0.29563749E+04</pdfrwt>
<pdfrwt beam="2">  1       -2 0.15912437E+00 0.29563749E+04</pdfrwt>
<totfact> 0.12699843E+00</totfact>
</mgrwt>
</event>
<event>
 4    1  0.2043502E-008  0.2082723E+04  0.7816531E-02  0.8568892E-01
         -2   -1    0    0    0  501 -0.00000000000E+00  0.00000000000E+00  0.18478503239E+04  0.18478503239E+04  0.00000000000E+00 0. -1.
          2   -1    0    0  501    0  0.00000000000E+00 -0.00000000000E+00 -0.58686250699E+03  0.58686250699E+03  0.00000000000E+00 0.  1.
    2000013    1    1    2    0    0  0.38366314309E+03 -0.50951215591E+02  0.84007081755E+03  0.13259006042E+04  0.95000000000E+03 0.  0.
   -2000013    1    1    2    0    0 -0.38366314309E+03  0.50951215591E+02  0.42091699938E+03  0.11088122267E+04  0.95000000000E+03 0.  0.
<mgrwt>
<rscale>  0 0.20827233E+04</rscale>
<asrwt>0</asrwt>
<pdfrwt beam="2">  1        2 0.90286540E-01 0.20827233E+04</pdfrwt>
<pdfrwt beam="1">  1       -2 0.28428466E+00 0.20827233E+04</pdfrwt>
<totfact> 0.18649430E+00</totfact>
</mgrwt>
</event>
<event>
 4    1  0.2043502E-008  0.3369697E+04  0.7816531E-02  0.8145384E-01
          2   -1    0    0  501    0  0.00000000000E+00  0.00000000000E+00  0.24387822072E+04  0.24387822072E+04  0.00000000000E+00 0.  1.
         -2   -1    0    0    0  501 -0.00000000000E+00 -0.00000000000E+00 -0.11639884044E+04  0.11639884044E+04  0.00000000000E+00 0. -1.
    2000013    1    1    2    0    0  0.58844920441E+03  0.12584444052E+04  0.55280808808E+03  0.17714546478E+04  0.95000000000E+03 0.  0.
   -2000013    1    1    2    0    0 -0.58844920441E+03 -0.12584444052E+04  0.72198571473E+03  0.18313159638E+04  0.95000000000E+03 0.  0.
<mgrwt>
<rscale>  0 0.33696968E+04</rscale>
<asrwt>0</asrwt>
<pdfrwt beam="1">  1        2 0.37519726E+00 0.33696968E+04</pdfrwt>
<pdfrwt beam="2">  1       -2 0.17907514E+00 0.33696968E+04</pdfrwt>
<totfact> 0.57710829E-01</totfact>
</mgrwt>
</event>
<event>
 4    1  0.2043502E-008  0.2724847E+04  0.7816531E-02  0.8326988E-01
         -2   -1    0    0    0  501 -0.00000000000E+00  0.00000000000E+00  0.10845196243E+04  0.10845196243E+04  0.00000000000E+00 0. -1.
          2   -1    0    0  501    0  0.00000000000E+00 -0.00000000000E+00 -0.17115393653E+04  0.17115393653E+04  0.00000000000E+00 0.  1.
    2000013    1    1    2    0    0  0.27949493554E+03  0.83067359356E+03 -0.75553676334E+03  0.14971545808E+04  0.95000000000E+03 0.  0.
   -2000013    1    1    2    0    0 -0.27949493554E+03 -0.83067359356E+03  0.12851702236E+03  0.12989044088E+04  0.95000000000E+03 0.  0.
<mgrwt>
<rscale>  0 0.27248472E+04</rscale>
<asrwt>0</asrwt>
<pdfrwt beam="2">  1        2 0.26331375E+00 0.27248472E+04</pdfrwt>
<pdfrwt beam="1">  1       -2 0.16684917E+00 0.27248472E+04</pdfrwt>
<totfact> 0.18995955E+00</totfact>
</mgrwt>
</event>
<event>
 4    1  0.2043502E-008  0.3101140E+04  0.7816531E-02  0.8215425E-01
         -1   -1    0    0    0  501 -0.00000000000E+00  0.00000000000E+00  0.15048701449E+04  0.15048701449E+04  0.00000000000E+00 0. -1.
          1   -1    0    0  501    0  0.00000000000E+00 -0.00000000000E+00 -0.15976579521E+04  0.15976579521E+04  0.00000000000E+00 0.  1.
    2000013    1    1    2    0    0 -0.51412296206E+03  0.56518364519E+02 -0.11578595837E+04  0.15845048315E+04  0.95000000000E+03 0.  0.
   -2000013    1    1    2    0    0  0.51412296206E+03 -0.56518364519E+02  0.10650717765E+04  0.15180232655E+04  0.95000000000E+03 0.  0.
<mgrwt>
<rscale>  0 0.31011403E+04</rscale>
<asrwt>0</asrwt>
<pdfrwt beam="2">  1        1 0.24579353E+00 0.31011403E+04</pdfrwt>
<pdfrwt beam="1">  1       -1 0.23151848E+00 0.31011403E+04</pdfrwt>
<totfact> 0.43585779E-01</totfact>
</mgrwt>
</event>
<event>
 4    1  0.2043502E-008  0.3126510E+04  0.7816531E-02  0.8208500E-01
          2   -1    0    0  501    0  0.00000000000E+00  0.00000000000E+00  0.16784865415E+04  0.16784865415E+04  0.00000000000E+00 0.  1.
         -2   -1    0    0    0  501 -0.00000000000E+00 -0.00000000000E+00 -0.14559344639E+04  0.14559344639E+04  0.00000000000E+00 0. -1.
    2000013    1    1    2    0    0 -0.53983207660E+03 -0.88629285087E+03  0.79441983691E+03  0.16157154965E+04  0.95000000000E+03 0.  0.
   -2000013    1    1    2    0    0  0.53983207660E+03  0.88629285087E+03 -0.57186775935E+03  0.15187055088E+04  0.95000000000E+03 0.  0.
<mgrwt>
<rscale>  0 0.31265101E+04</rscale>
<asrwt>0</asrwt>
<pdfrwt beam="1">  1        2 0.25822870E+00 0.31265101E+04</pdfrwt>
<pdfrwt beam="2">  1       -2 0.22398992E+00 0.31265101E+04</pdfrwt>
<totfact> 0.79655025E-01</totfact>
</mgrwt>
</event>
<event>
 4    1  0.2043502E-008  0.2915788E+04  0.7816531E-02  0.8268196E-01
          2   -1    0    0  501    0  0.00000000000E+00  0.00000000000E+00  0.16101309653E+04  0.16101309653E+04  0.00000000000E+00 0.  1.
         -2   -1    0    0    0  501 -0.00000000000E+00 -0.00000000000E+00 -0.13200505008E+04  0.13200505008E+04  0.00000000000E+00 0. -1.
    2000013    1    1    2    0    0 -0.79727715270E+02 -0.11028987150E+04  0.15967588452E+03  0.14665396252E+04  0.95000000000E+03 0.  0.
   -2000013    1    1    2    0    0  0.79727715270E+02  0.11028987150E+04  0.13040458007E+03  0.14636418409E+04  0.95000000000E+03 0.  0.
<mgrwt>
<rscale>  0 0.29157875E+04</rscale>
<asrwt>0</asrwt>
<pdfrwt beam="1">  1        2 0.24771246E+00 0.29157875E+04</pdfrwt>
<pdfrwt beam="2">  1       -2 0.20308469E+00 0.29157875E+04</pdfrwt>
<totfact> 0.12046357E+00</totfact>
</mgrwt>
</event>
<event>
 4    1  0.2043502E-008  0.3444001E+04  0.7816531E-02  0.8127191E-01
          2   -1    0    0  501    0  0.00000000000E+00  0.00000000000E+00  0.26379531350E+04  0.26379531350E+04  0.00000000000E+00 0.  1.
         -2   -1    0    0    0  501 -0.00000000000E+00 -0.00000000000E+00 -0.11240860769E+04  0.11240860769E+04  0.00000000000E+00 0. -1.
    2000013    1    1    2    0    0  0.13501830925E+04 -0.48965029640E+03  0.75050867506E+03  0.18784342063E+04  0.95000000000E+03 0.  0.
   -2000013    1    1    2    0    0 -0.13501830925E+04  0.48965029640E+03  0.76335838305E+03  0.18836050056E+04  0.95000000000E+03 0.  0.
<mgrwt>
<rscale>  0 0.34440014E+04</rscale>
<asrwt>0</asrwt>
<pdfrwt beam="1">  1        2 0.40583894E+00 0.34440014E+04</pdfrwt>
<pdfrwt beam="2">  1       -2 0.17293632E+00 0.34440014E+04</pdfrwt>
<totfact> 0.48463424E-01</totfact>
</mgrwt>
</event>
<event>
 4    1  0.2043502E-008  0.2016881E+04  0.7816531E-02  0.8598769E-01
         -1   -1    0    0    0  501 -0.00000000000E+00  0.00000000000E+00  0.13700926249E+04  0.13700926249E+04  0.00000000000E+00 0. -1.
          1   -1    0    0  501    0  0.00000000000E+00 -0.00000000000E+00 -0.74225053356E+03  0.74225053356E+03  0.00000000000E+00 0.  1.
    2000013    1    1    2    0    0  0.18114603354E+03 -0.25498974086E+03  0.44893477166E+03  0.10963010912E+04  0.95000000000E+03 0.  0.
   -2000013    1    1    2    0    0 -0.18114603354E+03  0.25498974086E+03  0.17890731970E+03  0.10160420673E+04  0.95000000000E+03 0.  0.
<mgrwt>
<rscale>  0 0.20168807E+04</rscale>
<asrwt>0</asrwt>
<pdfrwt beam="2">  1        1 0.11419239E+00 0.20168807E+04</pdfrwt>
<pdfrwt beam="1">  1       -1 0.21078348E+00 0.20168807E+04</pdfrwt>
<totfact> 0.29278653E+00</totfact>
</mgrwt>
</event>
<event>
 4    1  0.2043502E-008  0.2231294E+04  0.7816531E-02  0.8505515E-01
          2   -1    0    0  501    0  0.00000000000E+00  0.00000000000E+00  0.20269975427E+04  0.20269975427E+04  0.00000000000E+00 0.  1.
         -2   -1    0    0    0  501 -0.00000000000E+00 -0.00000000000E+00 -0.61404507630E+03  0.61404507630E+03  0.00000000000E+00 0. -1.
    2000013    1    1    2    0    0  0.10436347166E+03 -0.27179275354E+03  0.13069956006E+04  0.16417979581E+04  0.95000000000E+03 0.  0.
   -2000013    1    1    2    0    0 -0.10436347166E+03  0.27179275354E+03  0.10595686584E+03  0.99924466099E+03  0.95000000000E+03 0.  0.
<mgrwt>
<rscale>  0 0.22312937E+04</rscale>
<asrwt>0</asrwt>
<pdfrwt beam="1">  1        2 0.31184577E+00 0.22312937E+04</pdfrwt>
<pdfrwt beam="2">  1       -2 0.94468474E-01 0.22312937E+04</pdfrwt>
<totfact> 0.55558204E+00</totfact>
</mgrwt>
</event>
<event>
 4    1  0.2043502E-008  0.2558153E+04  0.7816531E-02  0.8382556E-01
         -2   -1    0    0    0  501 -0.00000000000E+00  0.00000000000E+00  0.79836740296E+03  0.79836740296E+03  0.00000000000E+00 0. -1.
          2   -1    0    0  501    0  0.00000000000E+00 -0.00000000000E+00 -0.20492275104E+04  0.20492275104E+04  0.00000000000E+00 0.  1.
    2000013    1    1    2    0    0 -0.62742544825E+03 -0.36235190281E+03 -0.11705679631E+03  0.12004848554E+04  0.95000000000E+03 0.  0.
   -2000013    1    1    2    0    0  0.62742544825E+03  0.36235190281E+03 -0.11338033111E+04  0.16471100579E+04  0.95000000000E+03 0.  0.
<mgrwt>
<rscale>  0 0.25581528E+04</rscale>
<asrwt>0</asrwt>
<pdfrwt beam="2">  1        2 0.31526577E+00 0.25581528E+04</pdfrwt>
<pdfrwt beam="1">  1       -2 0.12282575E+00 0.25581528E+04</pdfrwt>
<totfact> 0.27894927E+00</totfact>
</mgrwt>
</event>
<event>
 4    1  0.2043502E-008  0.2506682E+04  0.7816531E-02  0.8400609E-01
          2   -1    0    0  501    0  0.00000000000E+00  0.00000000000E+00  0.53727840549E+03  0.53727840549E+03  0.00000000000E+00 0.  1.
         -2   -1    0    0    0  501 -0.00000000000E+00 -0.00000000000E+00 -0.29237415389E+04  0.29237415389E+04  0.00000000000E+00 0. -1.
    2000013    1    1    2    0    0 -0.27632658203E+03  0.73924259215E+03 -0.14878367646E+04  0.19336479069E+04  0.95000000000E+03 0.  0.
   -2000013    1    1    2    0    0  0.27632658203E+03 -0.73924259215E+03 -0.89862636880E+03  0.15273720374E+04  0.95000000000E+03 0.  0.
<mgrwt>
<rscale>  0 0.25066816E+04</rscale>
<asrwt>0</asrwt>
<pdfrwt beam="1">  1        2 0.82658216E-01 0.25066816E+04</pdfrwt>
<pdfrwt beam="2">  1       -2 0.44980639E+00 0.25066816E+04</pdfrwt>
<totfact> 0.17547580E-01</totfact>
</mgrwt>
</event>
<event>
 4    1  0.2043502E-008  0.2184547E+04  0.7816531E-02  0.8524888E-01
          2   -1    0    0  501    0  0.00000000000E+00  0.00000000000E+00  0.23370857310E+04  0.23370857310E+04  0.00000000000E+00 0.  1.
         -2   -1    0    0    0  501 -0.00000000000E+00 -0.00000000000E+00 -0.51049104990E+03  0.51049104990E+03  0.00000000000E+00 0. -1.
    2000013    1    1    2    0    0 -0.13161436828E+03 -0.45172464211E+03  0.12561570367E+04  0.16437177358E+04  0.95000000000E+03 0.  0.
   -2000013    1    1    2    0    0  0.13161436828E+03  0.45172464211E+03  0.57043764440E+03  0.12038590451E+04  0.95000000000E+03 0.  0.
<mgrwt>
<rscale>  0 0.21845470E+04</rscale>
<asrwt>0</asrwt>
<pdfrwt beam="1">  1        2 0.35955165E+00 0.21845470E+04</pdfrwt>
<pdfrwt beam="2">  1       -2 0.78537086E-01 0.21845470E+04</pdfrwt>
<totfact> 0.56945297E+00</totfact>
</mgrwt>
</event>
<event>
 4    1  0.2043502E-008  0.3017062E+04  0.7816531E-02  0.8238876E-01
         -2   -1    0    0    0  501 -0.00000000000E+00  0.00000000000E+00  0.74795375463E+03  0.74795375463E+03  0.00000000000E+00 0. -1.
          2   -1    0    0  501    0  0.00000000000E+00 -0.00000000000E+00 -0.30425211161E+04  0.30425211161E+04  0.00000000000E+00 0.  1.
    2000013    1    1    2    0    0 -0.83001435337E+03  0.42145077470E+03 -0.25305038521E+03  0.13539125082E+04  0.95000000000E+03 0.  0.
   -2000013    1    1    2    0    0  0.83001435337E+03 -0.42145077470E+03 -0.20415169763E+04  0.24365623626E+04  0.95000000000E+03 0.  0.
<mgrwt>
<rscale>  0 0.30170615E+04</rscale>
<asrwt>0</asrwt>
<pdfrwt beam="2">  1        2 0.46808018E+00 0.30170615E+04</pdfrwt>
<pdfrwt beam="1">  1       -2 0.11506981E+00 0.30170615E+04</pdfrwt>
<totfact> 0.82337491E-01</totfact>
</mgrwt>
</event>
<event>
 4    1  0.2043502E-008  0.2384234E+04  0.7816531E-02  0.8445430E-01
         -2   -1    0    0    0  501 -0.00000000000E+00  0.00000000000E+00  0.77392002977E+03  0.77392002977E+03  0.00000000000E+00 0. -1.
          2   -1    0    0  501    0  0.00000000000E+00 -0.00000000000E+00 -0.18362914618E+04  0.18362914618E+04  0.00000000000E+00 0.  1.
    2000013    1    1    2    0    0  0.41177835074E+03 -0.58827589002E+03 -0.59127716983E+03  0.13295633210E+04  0.95000000000E+03 0.  0.
   -2000013    1    1    2    0    0 -0.41177835074E+03  0.58827589002E+03 -0.47109426218E+03  0.12806481706E+04  0.95000000000E+03 0.  0.
<mgrwt>
<rscale>  0 0.23842338E+04</rscale>
<asrwt>0</asrwt>
<pdfrwt beam="2">  1        2 0.28250638E+00 0.23842338E+04</pdfrwt>
<pdfrwt beam="1">  1       -2 0.11906462E+00 0.23842338E+04</pdfrwt>
<totfact> 0.40161283E+00</totfact>
</mgrwt>
</event>
<event>
 4    1  0.2043502E-008  0.2572744E+04  0.7816531E-02  0.8377519E-01
         -2   -1    0    0    0  501 -0.00000000000E+00  0.00000000000E+00  0.93955446920E+03  0.93955446920E+03  0.00000000000E+00 0. -1.
          2   -1    0    0  501    0  0.00000000000E+00 -0.00000000000E+00 -0.17612100449E+04  0.17612100449E+04  0.00000000000E+00 0.  1.
    2000013    1    1    2    0    0  0.70625499687E+03 -0.50272805505E+03 -0.38263725803E+03  0.13418058314E+04  0.95000000000E+03 0.  0.
   -2000013    1    1    2    0    0 -0.70625499687E+03  0.50272805505E+03 -0.43901831763E+03  0.13589586827E+04  0.95000000000E+03 0.  0.
<mgrwt>
<rscale>  0 0.25727439E+04</rscale>
<asrwt>0</asrwt>
<pdfrwt beam="2">  1        2 0.27095539E+00 0.25727439E+04</pdfrwt>
<pdfrwt beam="1">  1       -2 0.14454684E+00 0.25727439E+04</pdfrwt>
<totfact> 0.26562931E+00</totfact>
</mgrwt>
</event>
<event>
 4    1  0.2043502E-008  0.3207628E+04  0.7816531E-02  0.8186806E-01
         -2   -1    0    0    0  501 -0.00000000000E+00  0.00000000000E+00  0.77286656083E+03  0.77286656083E+03  0.00000000000E+00 0.  1.
          2   -1    0    0  501    0  0.00000000000E+00 -0.00000000000E+00 -0.33281543368E+04  0.33281543368E+04  0.00000000000E+00 0. -1.
    2000013    1    1    2    0    0 -0.27885866970E+02  0.11369031887E+04 -0.20620276658E+04  0.25392488213E+04  0.95000000000E+03 0.  0.
   -2000013    1    1    2    0    0  0.27885866970E+02 -0.11369031887E+04 -0.49326011012E+03  0.15617720763E+04  0.95000000000E+03 0.  0.
<mgrwt>
<rscale>  0 0.32076279E+04</rscale>
<asrwt>0</asrwt>
<pdfrwt beam="2">  1        2 0.51202374E+00 0.32076279E+04</pdfrwt>
<pdfrwt beam="1">  1       -2 0.11890255E+00 0.32076279E+04</pdfrwt>
<totfact> 0.48705327E-01</totfact>
</mgrwt>
</event>
<event>
 4    1  0.2043502E-008  0.2837945E+04  0.7816531E-02  0.8291584E-01
         -1   -1    0    0    0  501 -0.00000000000E+00  0.00000000000E+00  0.11884119905E+04  0.11884119905E+04  0.00000000000E+00 0. -1.
          1   -1    0    0  501    0  0.00000000000E+00 -0.00000000000E+00 -0.16942638339E+04  0.16942638339E+04  0.00000000000E+00 0.  1.
    2000013    1    1    2    0    0  0.38058960956E+03  0.80790895981E+03  0.31573557817E+03  0.13415492140E+04  0.95000000000E+03 0.  0.
   -2000013    1    1    2    0    0 -0.38058960956E+03 -0.80790895981E+03 -0.82158742154E+03  0.15411266105E+04  0.95000000000E+03 0.  0.
<mgrwt>
<rscale>  0 0.28379454E+04</rscale>
<asrwt>0</asrwt>
<pdfrwt beam="2">  1        1 0.26065598E+00 0.28379454E+04</pdfrwt>
<pdfrwt beam="1">  1       -1 0.18283261E+00 0.28379454E+04</pdfrwt>
<totfact> 0.82424879E-01</totfact>
</mgrwt>
</event>
<event>
 4    1  0.2043502E-008  0.2086264E+04  0.7816531E-02  0.8567318E-01
         -2   -1    0    0    0  501 -0.00000000000E+00  0.00000000000E+00  0.32192276663E+03  0.32192276663E+03  0.00000000000E+00 0. -1.
          2   -1    0    0  501    0  0.00000000000E+00 -0.00000000000E+00 -0.33800795872E+04  0.33800795872E+04  0.00000000000E+00 0.  1.
    2000013    1    1    2    0    0 -0.39513493473E+03 -0.78096186502E+02 -0.12576726365E+04  0.16267978029E+04  0.95000000000E+03 0.  0.
   -2000013    1    1    2    0    0  0.39513493473E+03  0.78096186502E+02 -0.18004841841E+04  0.20752045509E+04  0.95000000000E+03 0.  0.
<mgrwt>
<rscale>  0 0.20862642E+04</rscale>
<asrwt>0</asrwt>
<pdfrwt beam="2">  1        2 0.52001225E+00 0.20862642E+04</pdfrwt>
<pdfrwt beam="1">  1       -2 0.49526579E-01 0.20862642E+04</pdfrwt>
<totfact> 0.35153079E+00</totfact>
</mgrwt>
</event>
<event>
 4    1  0.2043502E-008  0.2630722E+04  0.7816531E-02  0.8357840E-01
         -2   -1    0    0    0  501 -0.00000000000E+00  0.00000000000E+00  0.66168907835E+03  0.66168907835E+03  0.00000000000E+00 0. -1.
          2   -1    0    0  501    0  0.00000000000E+00 -0.00000000000E+00 -0.26147838583E+04  0.26147838583E+04  0.00000000000E+00 0.  1.
    2000013    1    1    2    0    0  0.67198633040E+03  0.60831870394E+03 -0.87961970151E+03  0.15804581909E+04  0.95000000000E+03 0.  0.
   -2000013    1    1    2    0    0 -0.67198633040E+03 -0.60831870394E+03 -0.10734750784E+04  0.16960147457E+04  0.95000000000E+03 0.  0.
<mgrwt>
<rscale>  0 0.26307215E+04</rscale>
<asrwt>0</asrwt>
<pdfrwt beam="2">  1        2 0.40227443E+00 0.26307215E+04</pdfrwt>
<pdfrwt beam="1">  1       -2 0.10179832E+00 0.26307215E+04</pdfrwt>
<totfact> 0.20830696E+00</totfact>
</mgrwt>
</event>
<event>
 4    1  0.2043502E-008  0.2464130E+04  0.7816531E-02  0.8415877E-01
         -2   -1    0    0    0  501 -0.00000000000E+00  0.00000000000E+00  0.75311744909E+03  0.75311744909E+03  0.00000000000E+00 0. -1.
          2   -1    0    0  501    0  0.00000000000E+00 -0.00000000000E+00 -0.20156005458E+04  0.20156005458E+04  0.00000000000E+00 0.  1.
    2000013    1    1    2    0    0 -0.41862881194E+03 -0.52163867475E+03 -0.10919580940E+04  0.15944370380E+04  0.95000000000E+03 0.  0.
   -2000013    1    1    2    0    0  0.41862881194E+03  0.52163867475E+03 -0.17052500277E+03  0.11742809569E+04  0.95000000000E+03 0.  0.
<mgrwt>
<rscale>  0 0.24641298E+04</rscale>
<asrwt>0</asrwt>
<pdfrwt beam="2">  1        2 0.31009239E+00 0.24641298E+04</pdfrwt>
<pdfrwt beam="1">  1       -2 0.11586422E+00 0.24641298E+04</pdfrwt>
<totfact> 0.33914795E+00</totfact>
</mgrwt>
</event>
<event>
 4    1  0.2043502E-008  0.2322919E+04  0.7816531E-02  0.8468939E-01
          2   -1    0    0  501    0  0.00000000000E+00  0.00000000000E+00  0.11286163752E+04  0.11286163752E+04  0.00000000000E+00 0.  1.
         -2   -1    0    0    0  501 -0.00000000000E+00 -0.00000000000E+00 -0.11952582194E+04  0.11952582194E+04  0.00000000000E+00 0. -1.
    2000013    1    1    2    0    0  0.64636803087E+03 -0.15704595162E+03 -0.96852458642E+02  0.11637591937E+04  0.95000000000E+03 0.  0.
   -2000013    1    1    2    0    0 -0.64636803087E+03  0.15704595162E+03  0.30210614457E+02  0.11601154009E+04  0.95000000000E+03 0.  0.
<mgrwt>
<rscale>  0 0.23229189E+04</rscale>
<asrwt>0</asrwt>
<pdfrwt beam="1">  1        2 0.17363329E+00 0.23229189E+04</pdfrwt>
<pdfrwt beam="2">  1       -2 0.18388588E+00 0.23229189E+04</pdfrwt>
<totfact> 0.32278657E+00</totfact>
</mgrwt>
</event>
<event>
 4    1  0.2043502E-008  0.2317996E+04  0.7816531E-02  0.8470859E-01
         -1   -1    0    0    0  501 -0.00000000000E+00  0.00000000000E+00  0.48148128861E+03  0.48148128861E+03  0.00000000000E+00 0. -1.
          1   -1    0    0  501    0  0.00000000000E+00 -0.00000000000E+00 -0.27898825609E+04  0.27898825609E+04  0.00000000000E+00 0.  1.
    2000013    1    1    2    0    0  0.58752552755E+03  0.27401045857E+03 -0.95209392376E+03  0.14930675861E+04  0.95000000000E+03 0.  0.
   -2000013    1    1    2    0    0 -0.58752552755E+03 -0.27401045857E+03 -0.13563073486E+04  0.17782962635E+04  0.95000000000E+03 0.  0.
<mgrwt>
<rscale>  0 0.23179959E+04</rscale>
<asrwt>0</asrwt>
<pdfrwt beam="2">  1        1 0.42921271E+00 0.23179959E+04</pdfrwt>
<pdfrwt beam="1">  1       -1 0.74074043E-01 0.23179959E+04</pdfrwt>
<totfact> 0.14034554E+00</totfact>
</mgrwt>
</event>
<event>
 4    1  0.2043502E-008  0.2393848E+04  0.7816531E-02  0.8441810E-01
         -2   -1    0    0    0  501 -0.00000000000E+00  0.00000000000E+00  0.74831603623E+03  0.74831603623E+03  0.00000000000E+00 0. -1.
          2   -1    0    0  501    0  0.00000000000E+00 -0.00000000000E+00 -0.19144679745E+04  0.19144679745E+04  0.00000000000E+00 0.  1.
    2000013    1    1    2    0    0  0.56487382656E+03  0.34642519487E+03 -0.91869125187E+03  0.14783729137E+04  0.95000000000E+03 0.  0.
   -2000013    1    1    2    0    0 -0.56487382656E+03 -0.34642519487E+03 -0.24746068641E+03  0.11844110971E+04  0.95000000000E+03 0.  0.
<mgrwt>
<rscale>  0 0.23938480E+04</rscale>
<asrwt>0</asrwt>
<pdfrwt beam="2">  1        2 0.29453353E+00 0.23938480E+04</pdfrwt>
<pdfrwt beam="1">  1       -2 0.11512555E+00 0.23938480E+04</pdfrwt>
<totfact> 0.39440196E+00</totfact>
</mgrwt>
</event>
<event>
 4    1  0.2043502E-008  0.2286784E+04  0.7816531E-02  0.8483150E-01
         -2   -1    0    0    0  501 -0.00000000000E+00  0.00000000000E+00  0.73072241940E+03  0.73072241940E+03  0.00000000000E+00 0. -1.
          2   -1    0    0  501    0  0.00000000000E+00 -0.00000000000E+00 -0.17891126452E+04  0.17891126452E+04  0.00000000000E+00 0.  1.
    2000013    1    1    2    0    0 -0.54468928856E+03  0.14762120146E+03 -0.85302667050E+03  0.13959344328E+04  0.95000000000E+03 0.  0.
   -2000013    1    1    2    0    0  0.54468928856E+03 -0.14762120146E+03 -0.20536355526E+03  0.11239006317E+04  0.95000000000E+03 0.  0.
<mgrwt>
<rscale>  0 0.22867835E+04</rscale>
<asrwt>0</asrwt>
<pdfrwt beam="2">  1        2 0.27524810E+00 0.22867835E+04</pdfrwt>
<pdfrwt beam="1">  1       -2 0.11241884E+00 0.22867835E+04</pdfrwt>
<totfact> 0.49493197E+00</totfact>
</mgrwt>
</event>
<event>
 4    1  0.2043502E-008  0.2620340E+04  0.7816531E-02  0.8361325E-01
         -2   -1    0    0    0  501 -0.00000000000E+00  0.00000000000E+00  0.84351577483E+03  0.84351577483E+03  0.00000000000E+00 0. -1.
          2   -1    0    0  501    0  0.00000000000E+00 -0.00000000000E+00 -0.20349883783E+04  0.20349883783E+04  0.00000000000E+00 0.  1.
    2000013    1    1    2    0    0  0.83703931647E+03  0.33585441443E+03 -0.62290768680E+03  0.14504988767E+04  0.95000000000E+03 0.  0.
   -2000013    1    1    2    0    0 -0.83703931647E+03 -0.33585441443E+03 -0.56856491663E+03  0.14280052764E+04  0.95000000000E+03 0.  0.
<mgrwt>
<rscale>  0 0.26203395E+04</rscale>
<asrwt>0</asrwt>
<pdfrwt beam="2">  1        2 0.31307513E+00 0.26203395E+04</pdfrwt>
<pdfrwt beam="1">  1       -2 0.12977166E+00 0.26203395E+04</pdfrwt>
<totfact> 0.24609193E+00</totfact>
</mgrwt>
</event>
<event>
 4    1  0.2043502E-008  0.2382854E+04  0.7816531E-02  0.8445951E-01
         -2   -1    0    0    0  501 -0.00000000000E+00  0.00000000000E+00  0.51162742590E+03  0.51162742590E+03  0.00000000000E+00 0. -1.
          2   -1    0    0  501    0  0.00000000000E+00 -0.00000000000E+00 -0.27744765820E+04  0.27744765820E+04  0.00000000000E+00 0.  1.
    2000013    1    1    2    0    0  0.57577506818E+03 -0.41043197794E+03 -0.13113748917E+04  0.17669678674E+04  0.95000000000E+03 0.  0.
   -2000013    1    1    2    0    0 -0.57577506818E+03  0.41043197794E+03 -0.95147426435E+03  0.15191361405E+04  0.95000000000E+03 0.  0.
<mgrwt>
<rscale>  0 0.23828540E+04</rscale>
<asrwt>0</asrwt>
<pdfrwt beam="2">  1        2 0.42684255E+00 0.23828540E+04</pdfrwt>
<pdfrwt beam="1">  1       -2 0.78711913E-01 0.23828540E+04</pdfrwt>
<totfact> 0.30936825E+00</totfact>
</mgrwt>
</event>
<event>
 4    1  0.2043502E-008  0.2821736E+04  0.7816531E-02  0.8296552E-01
          2   -1    0    0  501    0  0.00000000000E+00  0.00000000000E+00  0.33523957291E+04  0.33523957291E+04  0.00000000000E+00 0.  1.
         -2   -1    0    0    0  501 -0.00000000000E+00 -0.00000000000E+00 -0.59376912753E+03  0.59376912753E+03  0.00000000000E+00 0. -1.
    2000013    1    1    2    0    0  0.96336976440E+03  0.22702961053E+03  0.91881908470E+03  0.16511669381E+04  0.95000000000E+03 0.  0.
   -2000013    1    1    2    0    0 -0.96336976440E+03 -0.22702961053E+03  0.18398075168E+04  0.22949979185E+04  0.95000000000E+03 0.  0.
<mgrwt>
<rscale>  0 0.28217364E+04</rscale>
<asrwt>0</asrwt>
<pdfrwt beam="1">  1        2 0.51575318E+00 0.28217364E+04</pdfrwt>
<pdfrwt beam="2">  1       -2 0.91349099E-01 0.28217364E+04</pdfrwt>
<totfact> 0.91064354E-01</totfact>
</mgrwt>
</event>
<event>
 4    1  0.2043502E-008  0.3318024E+04  0.7816531E-02  0.8158324E-01
         -2   -1    0    0    0  501 -0.00000000000E+00  0.00000000000E+00  0.12107309536E+04  0.12107309536E+04  0.00000000000E+00 0. -1.
          2   -1    0    0  501    0  0.00000000000E+00 -0.00000000000E+00 -0.22732724906E+04  0.22732724906E+04  0.00000000000E+00 0.  1.
    2000013    1    1    2    0    0  0.21526470348E+03  0.83307581386E+03 -0.16372735928E+04  0.20793073418E+04  0.95000000000E+03 0.  0.
   -2000013    1    1    2    0    0 -0.21526470348E+03 -0.83307581386E+03  0.57473205572E+03  0.14046961024E+04  0.95000000000E+03 0.  0.
<mgrwt>
<rscale>  0 0.33180243E+04</rscale>
<asrwt>0</asrwt>
<pdfrwt beam="2">  1        2 0.34973422E+00 0.33180243E+04</pdfrwt>
<pdfrwt beam="1">  1       -2 0.18626630E+00 0.33180243E+04</pdfrwt>
<totfact> 0.64311605E-01</totfact>
</mgrwt>
</event>
<event>
 4    1  0.2043502E-008  0.2560784E+04  0.7816531E-02  0.8381645E-01
         -2   -1    0    0    0  501 -0.00000000000E+00  0.00000000000E+00  0.65905392960E+03  0.65905392960E+03  0.00000000000E+00 0. -1.
          2   -1    0    0  501    0  0.00000000000E+00 -0.00000000000E+00 -0.24875101346E+04  0.24875101346E+04  0.00000000000E+00 0.  1.
    2000013    1    1    2    0    0  0.78569463592E+03 -0.31111819864E+03 -0.10997357826E+04  0.16810798274E+04  0.95000000000E+03 0.  0.
   -2000013    1    1    2    0    0 -0.78569463592E+03  0.31111819864E+03 -0.72872042241E+03  0.14654842369E+04  0.95000000000E+03 0.  0.
<mgrwt>
<rscale>  0 0.25607837E+04</rscale>
<asrwt>0</asrwt>
<pdfrwt beam="2">  1        2 0.38269386E+00 0.25607837E+04</pdfrwt>
<pdfrwt beam="1">  1       -2 0.10139291E+00 0.25607837E+04</pdfrwt>
<totfact> 0.25100811E+00</totfact>
</mgrwt>
</event>
<event>
 4    1  0.2043502E-008  0.3591354E+04  0.7816531E-02  0.8092475E-01
          2   -1    0    0  501    0  0.00000000000E+00  0.00000000000E+00  0.19802661090E+04  0.19802661090E+04  0.00000000000E+00 0.  1.
         -2   -1    0    0    0  501 -0.00000000000E+00 -0.00000000000E+00 -0.16282945850E+04  0.16282945850E+04  0.00000000000E+00 0. -1.
    2000013    1    1    2    0    0  0.96340662764E+03 -0.98458401428E+01  0.13621956532E+04  0.19199807989E+04  0.95000000000E+03 0.  0.
   -2000013    1    1    2    0    0 -0.96340662764E+03  0.98458401428E+01 -0.10102241292E+04  0.16885798950E+04  0.95000000000E+03 0.  0.
<mgrwt>
<rscale>  0 0.35913544E+04</rscale>
<asrwt>0</asrwt>
<pdfrwt beam="1">  1        2 0.30465632E+00 0.35913544E+04</pdfrwt>
<pdfrwt beam="2">  1       -2 0.25050686E+00 0.35913544E+04</pdfrwt>
<totfact> 0.35659781E-01</totfact>
</mgrwt>
</event>
<event>
 4    1  0.2043502E-008  0.2406206E+04  0.7816531E-02  0.8437184E-01
         -2   -1    0    0    0  501 -0.00000000000E+00  0.00000000000E+00  0.73372673198E+03  0.73372673198E+03  0.00000000000E+00 0. -1.
          2   -1    0    0  501    0  0.00000000000E+00 -0.00000000000E+00 -0.19727469821E+04  0.19727469821E+04  0.00000000000E+00 0.  1.
    2000013    1    1    2    0    0 -0.30120530920E+02 -0.66170972956E+03 -0.98604317337E+03  0.15210352239E+04  0.95000000000E+03 0.  0.
   -2000013    1    1    2    0    0  0.30120530920E+02  0.66170972956E+03 -0.25297707671E+03  0.11854384901E+04  0.95000000000E+03 0.  0.
<mgrwt>
<rscale>  0 0.24062063E+04</rscale>
<asrwt>0</asrwt>
<pdfrwt beam="2">  1        2 0.30349954E+00 0.24062063E+04</pdfrwt>
<pdfrwt beam="1">  1       -2 0.11288104E+00 0.24062063E+04</pdfrwt>
<totfact> 0.38367211E+00</totfact>
</mgrwt>
</event>
<event>
 4    1  0.2043502E-008  0.2238142E+04  0.7816531E-02  0.8502718E-01
          1   -1    0    0  501    0  0.00000000000E+00  0.00000000000E+00  0.13723557055E+04  0.13723557055E+04  0.00000000000E+00 0.  1.
         -1   -1    0    0    0  501 -0.00000000000E+00 -0.00000000000E+00 -0.91253308711E+03  0.91253308711E+03  0.00000000000E+00 0. -1.
    2000013    1    1    2    0    0  0.47605035480E+03  0.23547687575E+03 -0.35806983728E+02  0.10889698983E+04  0.95000000000E+03 0.  0.
   -2000013    1    1    2    0    0 -0.47605035480E+03 -0.23547687575E+03  0.49562960217E+03  0.11959188943E+04  0.95000000000E+03 0.  0.
<mgrwt>
<rscale>  0 0.22381421E+04</rscale>
<asrwt>0</asrwt>
<pdfrwt beam="1">  1        1 0.21113165E+00 0.22381421E+04</pdfrwt>
<pdfrwt beam="2">  1       -1 0.14038971E+00 0.22381421E+04</pdfrwt>
<totfact> 0.30385954E+00</totfact>
</mgrwt>
</event>
<event>
 4    1  0.2043502E-008  0.2774172E+04  0.7816531E-02  0.8311332E-01
         -2   -1    0    0    0  501 -0.00000000000E+00  0.00000000000E+00  0.14894311289E+04  0.14894311289E+04  0.00000000000E+00 0. -1.
          2   -1    0    0  501    0  0.00000000000E+00 -0.00000000000E+00 -0.12917737414E+04  0.12917737414E+04  0.00000000000E+00 0.  1.
    2000013    1    1    2    0    0 -0.32347766096E+03  0.72316388096E+03  0.72803760739E+03  0.14353196695E+04  0.95000000000E+03 0.  0.
   -2000013    1    1    2    0    0  0.32347766096E+03 -0.72316388096E+03 -0.53038021991E+03  0.13458852007E+04  0.95000000000E+03 0.  0.
<mgrwt>
<rscale>  0 0.27741723E+04</rscale>
<asrwt>0</asrwt>
<pdfrwt beam="2">  1        2 0.19873442E+00 0.27741723E+04</pdfrwt>
<pdfrwt beam="1">  1       -2 0.22914325E+00 0.27741723E+04</pdfrwt>
<totfact> 0.12617335E+00</totfact>
</mgrwt>
</event>
<event>
 4    1  0.2043502E-008  0.3147846E+04  0.7816531E-02  0.8202728E-01
         -2   -1    0    0    0  501 -0.00000000000E+00  0.00000000000E+00  0.96084260750E+03  0.96084260750E+03  0.00000000000E+00 0. -1.
          2   -1    0    0  501    0  0.00000000000E+00 -0.00000000000E+00 -0.25781894751E+04  0.25781894751E+04  0.00000000000E+00 0.  1.
    2000013    1    1    2    0    0 -0.37718887567E+03  0.48932686735E+03  0.41931761253E+03  0.12083209388E+04  0.95000000000E+03 0.  0.
   -2000013    1    1    2    0    0  0.37718887567E+03 -0.48932686735E+03 -0.20366644802E+04  0.23307111438E+04  0.95000000000E+03 0.  0.
<mgrwt>
<rscale>  0 0.31478464E+04</rscale>
<asrwt>0</asrwt>
<pdfrwt beam="2">  1        2 0.39664453E+00 0.31478464E+04</pdfrwt>
<pdfrwt beam="1">  1       -2 0.14782194E+00 0.31478464E+04</pdfrwt>
<totfact> 0.82530724E-01</totfact>
</mgrwt>
</event>
<event>
 4    1  0.2043502E-008  0.2213066E+04  0.7816531E-02  0.8513009E-01
          1   -1    0    0  501    0  0.00000000000E+00  0.00000000000E+00  0.21883177939E+04  0.21883177939E+04  0.00000000000E+00 0.  1.
         -1   -1    0    0    0  501 -0.00000000000E+00 -0.00000000000E+00 -0.55952376403E+03  0.55952376403E+03  0.00000000000E+00 0. -1.
    2000013    1    1    2    0    0 -0.53774374922E+03 -0.17893827768E+03  0.84791133843E+03  0.13937865277E+04  0.95000000000E+03 0.  0.
   -2000013    1    1    2    0    0  0.53774374922E+03  0.17893827768E+03  0.78088269147E+03  0.13540550302E+04  0.95000000000E+03 0.  0.
<mgrwt>
<rscale>  0 0.22130665E+04</rscale>
<asrwt>0</asrwt>
<pdfrwt beam="1">  1        1 0.33666427E+00 0.22130665E+04</pdfrwt>
<pdfrwt beam="2">  1       -1 0.86080580E-01 0.22130665E+04</pdfrwt>
<totfact> 0.26910595E+00</totfact>
</mgrwt>
</event>
<event>
 4    1  0.2043502E-008  0.2139663E+04  0.7816531E-02  0.8543970E-01
         -2   -1    0    0    0  501 -0.00000000000E+00  0.00000000000E+00  0.29751794879E+03  0.29751794879E+03  0.00000000000E+00 0. -1.
          2   -1    0    0  501    0  0.00000000000E+00 -0.00000000000E+00 -0.38469597471E+04  0.38469597471E+04  0.00000000000E+00 0.  1.
    2000013    1    1    2    0    0 -0.15728129154E+02 -0.49170733095E+03 -0.17669488956E+04  0.20655826958E+04  0.95000000000E+03 0.  0.
   -2000013    1    1    2    0    0  0.15728129154E+02  0.49170733095E+03 -0.17824929027E+04  0.20788950001E+04  0.95000000000E+03 0.  0.
<mgrwt>
<rscale>  0 0.21396631E+04</rscale>
<asrwt>0</asrwt>
<pdfrwt beam="2">  1        2 0.59183993E+00 0.21396631E+04</pdfrwt>
<pdfrwt beam="1">  1       -2 0.45771994E-01 0.21396631E+04</pdfrwt>
<totfact> 0.18921896E+00</totfact>
</mgrwt>
</event>
<event>
 4    1  0.2043502E-008  0.2354311E+04  0.7816531E-02  0.8456810E-01
         -2   -1    0    0    0  501 -0.00000000000E+00  0.00000000000E+00  0.49160646697E+03  0.49160646697E+03  0.00000000000E+00 0. -1.
          2   -1    0    0  501    0  0.00000000000E+00 -0.00000000000E+00 -0.28187085933E+04  0.28187085933E+04  0.00000000000E+00 0.  1.
    2000013    1    1    2    0    0  0.41567918883E+03  0.22346933125E+03 -0.18811509157E+04  0.21596195261E+04  0.95000000000E+03 0.  0.
   -2000013    1    1    2    0    0 -0.41567918883E+03 -0.22346933125E+03 -0.44595121066E+03  0.11506955342E+04  0.95000000000E+03 0.  0.
<mgrwt>
<rscale>  0 0.23543113E+04</rscale>
<asrwt>0</asrwt>
<pdfrwt beam="2">  1        2 0.43364748E+00 0.23543113E+04</pdfrwt>
<pdfrwt beam="1">  1       -2 0.75631763E-01 0.23543113E+04</pdfrwt>
<totfact> 0.31877819E+00</totfact>
</mgrwt>
</event>
<event>
 4    1  0.2043502E-008  0.2721783E+04  0.7816531E-02  0.8327971E-01
         -2   -1    0    0    0  501 -0.00000000000E+00  0.00000000000E+00  0.10197712648E+04  0.10197712648E+04  0.00000000000E+00 0. -1.
          2   -1    0    0  501    0  0.00000000000E+00 -0.00000000000E+00 -0.18161190730E+04  0.18161190730E+04  0.00000000000E+00 0.  1.
    2000013    1    1    2    0    0 -0.21098647680E+03 -0.77550550524E+03 -0.97227474026E+03  0.15791587167E+04  0.95000000000E+03 0.  0.
   -2000013    1    1    2    0    0  0.21098647680E+03  0.77550550524E+03  0.17592693207E+03  0.12567316211E+04  0.95000000000E+03 0.  0.
<mgrwt>
<rscale>  0 0.27217833E+04</rscale>
<asrwt>0</asrwt>
<pdfrwt beam="2">  1        2 0.27940293E+00 0.27217833E+04</pdfrwt>
<pdfrwt beam="1">  1       -2 0.15688789E+00 0.27217833E+04</pdfrwt>
<totfact> 0.19670776E+00</totfact>
</mgrwt>
</event>
<event>
 4    1  0.2043502E-008  0.2705204E+04  0.7816531E-02  0.8333318E-01
          2   -1    0    0  501    0  0.00000000000E+00  0.00000000000E+00  0.23260349666E+04  0.23260349666E+04  0.00000000000E+00 0.  1.
         -2   -1    0    0    0  501 -0.00000000000E+00 -0.00000000000E+00 -0.78654558429E+03  0.78654558429E+03  0.00000000000E+00 0. -1.
    2000013    1    1    2    0    0  0.79904970617E+03 -0.32727263422E+01  0.13877960905E+04  0.18619798959E+04  0.95000000000E+03 0.  0.
   -2000013    1    1    2    0    0 -0.79904970617E+03  0.32727263422E+01  0.15169329180E+03  0.12506006551E+04  0.95000000000E+03 0.  0.
<mgrwt>
<rscale>  0 0.27052043E+04</rscale>
<asrwt>0</asrwt>
<pdfrwt beam="1">  1        2 0.35785153E+00 0.27052043E+04</pdfrwt>
<pdfrwt beam="2">  1       -2 0.12100701E+00 0.27052043E+04</pdfrwt>
<totfact> 0.19980198E+00</totfact>
</mgrwt>
</event>
<event>
 4    1  0.2043502E-008  0.2666950E+04  0.7816531E-02  0.8345809E-01
         -2   -1    0    0    0  501 -0.00000000000E+00  0.00000000000E+00  0.71301043694E+03  0.71301043694E+03  0.00000000000E+00 0. -1.
          2   -1    0    0  501    0  0.00000000000E+00 -0.00000000000E+00 -0.24938707844E+04  0.24938707844E+04  0.00000000000E+00 0.  1.
    2000013    1    1    2    0    0  0.68017661349E+03 -0.43876318438E+03 -0.32578611859E+03  0.12898798210E+04  0.95000000000E+03 0.  0.
   -2000013    1    1    2    0    0 -0.68017661349E+03  0.43876318438E+03 -0.14550742289E+04  0.19170014004E+04  0.95000000000E+03 0.  0.
<mgrwt>
<rscale>  0 0.26669502E+04</rscale>
<asrwt>0</asrwt>
<pdfrwt beam="2">  1        2 0.38367243E+00 0.26669502E+04</pdfrwt>
<pdfrwt beam="1">  1       -2 0.10969391E+00 0.26669502E+04</pdfrwt>
<totfact> 0.20417670E+00</totfact>
</mgrwt>
</event>
<event>
 4    1  0.2043502E-008  0.2357751E+04  0.7816531E-02  0.8455492E-01
         -2   -1    0    0    0  501 -0.00000000000E+00  0.00000000000E+00  0.12167554480E+04  0.12167554480E+04  0.00000000000E+00 0.  1.
          2   -1    0    0  501    0  0.00000000000E+00 -0.00000000000E+00 -0.11421751940E+04  0.11421751940E+04  0.00000000000E+00 0. -1.
    2000013    1    1    2    0    0 -0.51351234876E+03  0.32092639425E+03  0.38468016146E+03  0.11904484489E+04  0.95000000000E+03 0.  0.
   -2000013    1    1    2    0    0  0.51351234876E+03 -0.32092639425E+03 -0.31009990745E+03  0.11684821930E+04  0.95000000000E+03 0.  0.
<mgrwt>
<rscale>  0 0.23577514E+04</rscale>
<asrwt>0</asrwt>
<pdfrwt beam="2">  1        2 0.17571926E+00 0.23577514E+04</pdfrwt>
<pdfrwt beam="1">  1       -2 0.18719315E+00 0.23577514E+04</pdfrwt>
<totfact> 0.29985543E+00</totfact>
</mgrwt>
</event>
<event>
 4    1  0.2043502E-008  0.2296029E+04  0.7816531E-02  0.8479489E-01
         -2   -1    0    0    0  501 -0.00000000000E+00  0.00000000000E+00  0.35081315224E+03  0.35081315224E+03  0.00000000000E+00 0. -1.
          2   -1    0    0  501    0  0.00000000000E+00 -0.00000000000E+00 -0.37568053606E+04  0.37568053606E+04  0.00000000000E+00 0.  1.
    2000013    1    1    2    0    0  0.61442079983E+03  0.18314617161E+03 -0.15845791465E+04  0.19556192142E+04  0.95000000000E+03 0.  0.
   -2000013    1    1    2    0    0 -0.61442079983E+03 -0.18314617161E+03 -0.18214130619E+04  0.21519992987E+04  0.95000000000E+03 0.  0.
<mgrwt>
<rscale>  0 0.22960285E+04</rscale>
<asrwt>0</asrwt>
<pdfrwt beam="2">  1        2 0.57797003E+00 0.22960285E+04</pdfrwt>
<pdfrwt beam="1">  1       -2 0.53971256E-01 0.22960285E+04</pdfrwt>
<totfact> 0.15591391E+00</totfact>
</mgrwt>
</event>
<event>
 4    1  0.2043502E-008  0.2501426E+04  0.7816531E-02  0.8402478E-01
         -2   -1    0    0    0  501 -0.00000000000E+00  0.00000000000E+00  0.14147555063E+04  0.14147555063E+04  0.00000000000E+00 0. -1.
          2   -1    0    0  501    0  0.00000000000E+00 -0.00000000000E+00 -0.11056913905E+04  0.11056913905E+04  0.00000000000E+00 0.  1.
    2000013    1    1    2    0    0  0.23175900061E+03 -0.67916416278E+03 -0.23153519471E+03  0.12128828224E+04  0.95000000000E+03 0.  0.
   -2000013    1    1    2    0    0 -0.23175900061E+03  0.67916416278E+03  0.54059931041E+03  0.13075640744E+04  0.95000000000E+03 0.  0.
<mgrwt>
<rscale>  0 0.25014260E+04</rscale>
<asrwt>0</asrwt>
<pdfrwt beam="2">  1        2 0.17010637E+00 0.25014260E+04</pdfrwt>
<pdfrwt beam="1">  1       -2 0.21765469E+00 0.25014260E+04</pdfrwt>
<totfact> 0.19709900E+00</totfact>
</mgrwt>
</event>
<event>
 4    1  0.2043502E-008  0.2785089E+04  0.7816531E-02  0.8307913E-01
         -2   -1    0    0    0  501 -0.00000000000E+00  0.00000000000E+00  0.13549880757E+04  0.13549880757E+04  0.00000000000E+00 0. -1.
          2   -1    0    0  501    0  0.00000000000E+00 -0.00000000000E+00 -0.14311421390E+04  0.14311421390E+04  0.00000000000E+00 0.  1.
    2000013    1    1    2    0    0 -0.11622565438E+03  0.90837685856E+03  0.40708773424E+03  0.13808972964E+04  0.95000000000E+03 0.  0.
   -2000013    1    1    2    0    0  0.11622565438E+03 -0.90837685856E+03 -0.48324179752E+03  0.14052329183E+04  0.95000000000E+03 0.  0.
<mgrwt>
<rscale>  0 0.27850893E+04</rscale>
<asrwt>0</asrwt>
<pdfrwt beam="2">  1        2 0.22017571E+00 0.27850893E+04</pdfrwt>
<pdfrwt beam="1">  1       -2 0.20845970E+00 0.27850893E+04</pdfrwt>
<totfact> 0.14177917E+00</totfact>
</mgrwt>
</event>
<event>
 4    1  0.2043502E-008  0.4806949E+04  0.7816531E-02  0.7858997E-01
         -1   -1    0    0    0  501 -0.00000000000E+00  0.00000000000E+00  0.18543598294E+04  0.18543598294E+04  0.00000000000E+00 0. -1.
          1   -1    0    0  501    0  0.00000000000E+00 -0.00000000000E+00 -0.31151937573E+04  0.31151937573E+04  0.00000000000E+00 0.  1.
    2000013    1    1    2    0    0  0.18420755520E+04  0.67721874781E+03 -0.16757190674E+04  0.27499821753E+04  0.95000000000E+03 0.  0.
   -2000013    1    1    2    0    0 -0.18420755520E+04 -0.67721874781E+03  0.41488513953E+03  0.22195714114E+04  0.95000000000E+03 0.  0.
<mgrwt>
<rscale>  0 0.48069492E+04</rscale>
<asrwt>0</asrwt>
<pdfrwt beam="2">  1        1 0.47926057E+00 0.48069492E+04</pdfrwt>
<pdfrwt beam="1">  1       -1 0.28528613E+00 0.48069492E+04</pdfrwt>
<totfact> 0.14823792E-02</totfact>
</mgrwt>
</event>
<event>
 4    1  0.2043502E-008  0.3444095E+04  0.7816531E-02  0.8127168E-01
          2   -1    0    0  501    0  0.00000000000E+00  0.00000000000E+00  0.12124292256E+04  0.12124292256E+04  0.00000000000E+00 0. -1.
         -2   -1    0    0    0  501 -0.00000000000E+00 -0.00000000000E+00 -0.24458722105E+04  0.24458722105E+04  0.00000000000E+00 0.  1.
    2000013    1    1    2    0    0  0.51999660085E+03 -0.11174620655E+04 -0.14000349730E+04  0.20932548479E+04  0.95000000000E+03 0.  0.
   -2000013    1    1    2    0    0 -0.51999660085E+03  0.11174620655E+04  0.16659198811E+03  0.15650465882E+04  0.95000000000E+03 0.  0.
<mgrwt>
<rscale>  0 0.34440946E+04</rscale>
<asrwt>0</asrwt>
<pdfrwt beam="1">  1        2 0.18652758E+00 0.34440946E+04</pdfrwt>
<pdfrwt beam="2">  1       -2 0.37628803E+00 0.34440946E+04</pdfrwt>
<totfact> 0.16249572E-01</totfact>
</mgrwt>
</event>
<event>
 4    1  0.2043502E-008  0.2307313E+04  0.7816531E-02  0.8475043E-01
          2   -1    0    0  501    0  0.00000000000E+00  0.00000000000E+00  0.27288892242E+04  0.27288892242E+04  0.00000000000E+00 0. -1.
         -2   -1    0    0    0  501 -0.00000000000E+00 -0.00000000000E+00 -0.48771613508E+03  0.48771613508E+03  0.00000000000E+00 0.  1.
    2000013    1    1    2    0    0 -0.98145610840E+02  0.58863825651E+03  0.74574506205E+03  0.13471314916E+04  0.95000000000E+03 0.  0.
   -2000013    1    1    2    0    0  0.98145610840E+02 -0.58863825651E+03  0.14954280270E+04  0.18694738677E+04  0.95000000000E+03 0.  0.
<mgrwt>
<rscale>  0 0.23073130E+04</rscale>
<asrwt>0</asrwt>
<pdfrwt beam="1">  1        2 0.41982910E+00 0.23073130E+04</pdfrwt>
<pdfrwt beam="2">  1       -2 0.75033253E-01 0.23073130E+04</pdfrwt>
<totfact> 0.36895611E+00</totfact>
</mgrwt>
</event>
<event>
 4    1  0.2043502E-008  0.2231298E+04  0.7816531E-02  0.8505513E-01
          2   -1    0    0  501    0  0.00000000000E+00  0.00000000000E+00  0.87464659634E+03  0.87464659634E+03  0.00000000000E+00 0.  1.
         -2   -1    0    0    0  501 -0.00000000000E+00 -0.00000000000E+00 -0.14230577181E+04  0.14230577181E+04  0.00000000000E+00 0. -1.
    2000013    1    1    2    0    0 -0.57610540106E+02  0.43687564086E+03 -0.67035367546E+03  0.12434039368E+04  0.95000000000E+03 0.  0.
   -2000013    1    1    2    0    0  0.57610540106E+02 -0.43687564086E+03  0.12194255366E+03  0.10543003776E+04  0.95000000000E+03 0.  0.
<mgrwt>
<rscale>  0 0.22312979E+04</rscale>
<asrwt>0</asrwt>
<pdfrwt beam="1">  1        2 0.13456102E+00 0.22312979E+04</pdfrwt>
<pdfrwt beam="2">  1       -2 0.21893195E+00 0.22312979E+04</pdfrwt>
<totfact> 0.27918713E+00</totfact>
</mgrwt>
</event>
<event>
 4    1  0.2043502E-008  0.2606432E+04  0.7816531E-02  0.8366020E-01
          2   -1    0    0  501    0  0.00000000000E+00  0.00000000000E+00  0.19242082194E+04  0.19242082194E+04  0.00000000000E+00 0.  1.
         -2   -1    0    0    0  501 -0.00000000000E+00 -0.00000000000E+00 -0.88263386434E+03  0.88263386434E+03  0.00000000000E+00 0. -1.
    2000013    1    1    2    0    0 -0.48855402643E+03  0.68124528100E+03  0.84935565462E+03  0.15253475662E+04  0.95000000000E+03 0.  0.
   -2000013    1    1    2    0    0  0.48855402643E+03 -0.68124528100E+03  0.19221870040E+03  0.12814945175E+04  0.95000000000E+03 0.  0.
<mgrwt>
<rscale>  0 0.26064315E+04</rscale>
<asrwt>0</asrwt>
<pdfrwt beam="1">  1        2 0.29603203E+00 0.26064315E+04</pdfrwt>
<pdfrwt beam="2">  1       -2 0.13578983E+00 0.26064315E+04</pdfrwt>
<totfact> 0.25299034E+00</totfact>
</mgrwt>
</event>
<event>
 4    1  0.2043502E-008  0.2646205E+04  0.7816531E-02  0.8352674E-01
          2   -1    0    0  501    0  0.00000000000E+00  0.00000000000E+00  0.35119217214E+04  0.35119217214E+04  0.00000000000E+00 0.  1.
         -2   -1    0    0    0  501 -0.00000000000E+00 -0.00000000000E+00 -0.49847348248E+03  0.49847348248E+03  0.00000000000E+00 0. -1.
    2000013    1    1    2    0    0  0.10937494522E+03 -0.82168992642E+03  0.21147558893E+04  0.24620783264E+04  0.95000000000E+03 0.  0.
   -2000013    1    1    2    0    0 -0.10937494522E+03  0.82168992642E+03  0.89869234954E+03  0.15483168774E+04  0.95000000000E+03 0.  0.
<mgrwt>
<rscale>  0 0.26462047E+04</rscale>
<asrwt>0</asrwt>
<pdfrwt beam="1">  1        2 0.54029563E+00 0.26462047E+04</pdfrwt>
<pdfrwt beam="2">  1       -2 0.76688230E-01 0.26462047E+04</pdfrwt>
<totfact> 0.10684174E+00</totfact>
</mgrwt>
</event>
<event>
 4    1  0.2043502E-008  0.2275077E+04  0.7816531E-02  0.8487813E-01
         -2   -1    0    0    0  501 -0.00000000000E+00  0.00000000000E+00  0.46675718520E+03  0.46675718520E+03  0.00000000000E+00 0. -1.
          2   -1    0    0  501    0  0.00000000000E+00 -0.00000000000E+00 -0.27723066504E+04  0.27723066504E+04  0.00000000000E+00 0.  1.
    2000013    1    1    2    0    0 -0.49681036819E+03  0.30384050032E+03 -0.14785365672E+04  0.18514075651E+04  0.95000000000E+03 0.  0.
   -2000013    1    1    2    0    0  0.49681036819E+03 -0.30384050032E+03 -0.82701289800E+03  0.13876562705E+04  0.95000000000E+03 0.  0.
<mgrwt>
<rscale>  0 0.22750772E+04</rscale>
<asrwt>0</asrwt>
<pdfrwt beam="2">  1        2 0.42650871E+00 0.22750772E+04</pdfrwt>
<pdfrwt beam="1">  1       -2 0.71808799E-01 0.22750772E+04</pdfrwt>
<totfact> 0.38391421E+00</totfact>
</mgrwt>
</event>
<event>
 4    1  0.2043502E-008  0.3375350E+04  0.7816531E-02  0.8143983E-01
          2   -1    0    0  501    0  0.00000000000E+00  0.00000000000E+00  0.19221678319E+04  0.19221678319E+04  0.00000000000E+00 0.  1.
         -2   -1    0    0    0  501 -0.00000000000E+00 -0.00000000000E+00 -0.14817887570E+04  0.14817887570E+04  0.00000000000E+00 0. -1.
    2000013    1    1    2    0    0 -0.19970223263E+03  0.13536888488E+04 -0.53016425672E+02  0.16666328997E+04  0.95000000000E+03 0.  0.
   -2000013    1    1    2    0    0  0.19970223263E+03 -0.13536888488E+04  0.49339550056E+03  0.17373236892E+04  0.95000000000E+03 0.  0.
<mgrwt>
<rscale>  0 0.33753499E+04</rscale>
<asrwt>0</asrwt>
<pdfrwt beam="1">  1        2 0.29571813E+00 0.33753499E+04</pdfrwt>
<pdfrwt beam="2">  1       -2 0.22796750E+00 0.33753499E+04</pdfrwt>
<totfact> 0.53949906E-01</totfact>
</mgrwt>
</event>
<event>
 4    1  0.2043502E-008  0.3603885E+04  0.7816531E-02  0.8089602E-01
         -2   -1    0    0    0  501 -0.00000000000E+00  0.00000000000E+00  0.78670913085E+03  0.78670913085E+03  0.00000000000E+00 0. -1.
          2   -1    0    0  501    0  0.00000000000E+00 -0.00000000000E+00 -0.41273145385E+04  0.41273145385E+04  0.00000000000E+00 0.  1.
    2000013    1    1    2    0    0  0.56467611454E+02  0.13866376850E+04 -0.25524408530E+04  0.30566987043E+04  0.95000000000E+03 0.  0.
   -2000013    1    1    2    0    0 -0.56467611454E+02 -0.13866376850E+04 -0.78816455457E+03  0.18573249650E+04  0.95000000000E+03 0.  0.
<mgrwt>
<rscale>  0 0.36038846E+04</rscale>
<asrwt>0</asrwt>
<pdfrwt beam="2">  1        2 0.63497146E+00 0.36038846E+04</pdfrwt>
<pdfrwt beam="1">  1       -2 0.12103218E+00 0.36038846E+04</pdfrwt>
<totfact> 0.11328434E-01</totfact>
</mgrwt>
</event>
<event>
 4    1  0.2043502E-008  0.1959279E+04  0.7816531E-02  0.8625899E-01
         -2   -1    0    0    0  501 -0.00000000000E+00  0.00000000000E+00  0.56756319368E+03  0.56756319368E+03  0.00000000000E+00 0. -1.
          2   -1    0    0  501    0  0.00000000000E+00 -0.00000000000E+00 -0.16909025131E+04  0.16909025131E+04  0.00000000000E+00 0.  1.
    2000013    1    1    2    0    0 -0.19767190942E+03  0.10450650364E+03 -0.46387161031E+03  0.10805890356E+04  0.95000000000E+03 0.  0.
   -2000013    1    1    2    0    0  0.19767190942E+03 -0.10450650364E+03 -0.65946770910E+03  0.11778766711E+04  0.95000000000E+03 0.  0.
<mgrwt>
<rscale>  0 0.19592795E+04</rscale>
<asrwt>0</asrwt>
<pdfrwt beam="2">  1        2 0.26013885E+00 0.19592795E+04</pdfrwt>
<pdfrwt beam="1">  1       -2 0.87317414E-01 0.19592795E+04</pdfrwt>
<totfact> 0.10478595E+01</totfact>
</mgrwt>
</event>
<event>
 4    1  0.2043502E-008  0.2181146E+04  0.7816531E-02  0.8526317E-01
          2   -1    0    0  501    0  0.00000000000E+00  0.00000000000E+00  0.18578920590E+04  0.18578920590E+04  0.00000000000E+00 0.  1.
         -2   -1    0    0    0  501 -0.00000000000E+00 -0.00000000000E+00 -0.64016075695E+03  0.64016075695E+03  0.00000000000E+00 0. -1.
    2000013    1    1    2    0    0  0.67944084065E+02 -0.36547382705E+03  0.16727797389E+03  0.10337646915E+04  0.95000000000E+03 0.  0.
   -2000013    1    1    2    0    0 -0.67944084065E+02  0.36547382705E+03  0.10504533282E+04  0.14642881245E+04  0.95000000000E+03 0.  0.
<mgrwt>
<rscale>  0 0.21811461E+04</rscale>
<asrwt>0</asrwt>
<pdfrwt beam="1">  1        2 0.28582955E+00 0.21811461E+04</pdfrwt>
<pdfrwt beam="2">  1       -2 0.98486271E-01 0.21811461E+04</pdfrwt>
<totfact> 0.62819015E+00</totfact>
</mgrwt>
</event>
<event>
 4    1  0.2043502E-008  0.2262551E+04  0.7816531E-02  0.8492835E-01
          1   -1    0    0  501    0  0.00000000000E+00  0.00000000000E+00  0.17744502802E+04  0.17744502802E+04  0.00000000000E+00 0. -1.
         -1   -1    0    0    0  501 -0.00000000000E+00 -0.00000000000E+00 -0.72122844947E+03  0.72122844947E+03  0.00000000000E+00 0.  1.
    2000013    1    1    2    0    0 -0.47967191834E+03  0.16009561636E+03  0.91120310073E+03  0.14101442644E+04  0.95000000000E+03 0.  0.
   -2000013    1    1    2    0    0  0.47967191834E+03 -0.16009561636E+03  0.14201872998E+03  0.10855344653E+04  0.95000000000E+03 0.  0.
<mgrwt>
<rscale>  0 0.22625508E+04</rscale>
<asrwt>0</asrwt>
<pdfrwt beam="1">  1        1 0.27299235E+00 0.22625508E+04</pdfrwt>
<pdfrwt beam="2">  1       -1 0.11095822E+00 0.22625508E+04</pdfrwt>
<totfact> 0.28745116E+00</totfact>
</mgrwt>
</event>
<event>
 4    1  0.2043502E-008  0.2070830E+04  0.7816531E-02  0.8574203E-01
          2   -1    0    0  501    0  0.00000000000E+00  0.00000000000E+00  0.58355554614E+03  0.58355554614E+03  0.00000000000E+00 0.  1.
         -2   -1    0    0    0  501 -0.00000000000E+00 -0.00000000000E+00 -0.18371594160E+04  0.18371594160E+04  0.00000000000E+00 0. -1.
    2000013    1    1    2    0    0  0.22686464660E+03 -0.32826158551E+03 -0.74579095509E+03  0.12719777455E+04  0.95000000000E+03 0.  0.
   -2000013    1    1    2    0    0 -0.22686464660E+03  0.32826158551E+03 -0.50781291473E+03  0.11487372166E+04  0.95000000000E+03 0.  0.
<mgrwt>
<rscale>  0 0.20708303E+04</rscale>
<asrwt>0</asrwt>
<pdfrwt beam="1">  1        2 0.89777776E-01 0.20708303E+04</pdfrwt>
<pdfrwt beam="2">  1       -2 0.28263991E+00 0.20708303E+04</pdfrwt>
<totfact> 0.19234069E+00</totfact>
</mgrwt>
</event>
<event>
 4    1  0.2043502E-008  0.2099005E+04  0.7816531E-02  0.8561682E-01
         -1   -1    0    0    0  501 -0.00000000000E+00  0.00000000000E+00  0.49792063127E+03  0.49792063127E+03  0.00000000000E+00 0. -1.
          1   -1    0    0  501    0  0.00000000000E+00 -0.00000000000E+00 -0.22121095689E+04  0.22121095689E+04  0.00000000000E+00 0.  1.
    2000013    1    1    2    0    0  0.27627993910E+03 -0.35003603704E+03 -0.84423771666E+03  0.13468827544E+04  0.95000000000E+03 0.  0.
   -2000013    1    1    2    0    0 -0.27627993910E+03  0.35003603704E+03 -0.86995122099E+03  0.13631474458E+04  0.95000000000E+03 0.  0.
<mgrwt>
<rscale>  0 0.20990045E+04</rscale>
<asrwt>0</asrwt>
<pdfrwt beam="2">  1        1 0.34032456E+00 0.20990045E+04</pdfrwt>
<pdfrwt beam="1">  1       -1 0.76603173E-01 0.20990045E+04</pdfrwt>
<totfact> 0.33620040E+00</totfact>
</mgrwt>
</event>
<event>
 4    1  0.2043502E-008  0.3295313E+04  0.7816531E-02  0.8164089E-01
         -2   -1    0    0    0  501 -0.00000000000E+00  0.00000000000E+00  0.17591868720E+04  0.17591868720E+04  0.00000000000E+00 0. -1.
          2   -1    0    0  501    0  0.00000000000E+00 -0.00000000000E+00 -0.15431973067E+04  0.15431973067E+04  0.00000000000E+00 0.  1.
    2000013    1    1    2    0    0  0.79267745679E+03 -0.84096322000E+03  0.79992235326E+03  0.16964470104E+04  0.95000000000E+03 0.  0.
   -2000013    1    1    2    0    0 -0.79267745679E+03  0.84096322000E+03 -0.58393278795E+03  0.16059371684E+04  0.95000000000E+03 0.  0.
<mgrwt>
<rscale>  0 0.32953133E+04</rscale>
<asrwt>0</asrwt>
<pdfrwt beam="2">  1        2 0.23741497E+00 0.32953133E+04</pdfrwt>
<pdfrwt beam="1">  1       -2 0.27064413E+00 0.32953133E+04</pdfrwt>
<totfact> 0.48161217E-01</totfact>
</mgrwt>
</event>
<event>
 4    1  0.2043502E-008  0.2051373E+04  0.7816531E-02  0.8582972E-01
         -2   -1    0    0    0  501 -0.00000000000E+00  0.00000000000E+00  0.68744340351E+03  0.68744340351E+03  0.00000000000E+00 0. -1.
          2   -1    0    0  501    0  0.00000000000E+00 -0.00000000000E+00 -0.15303547837E+04  0.15303547837E+04  0.00000000000E+00 0.  1.
    2000013    1    1    2    0    0  0.18863116775E+03 -0.21544070908E+03 -0.70241587969E+03  0.12156827237E+04  0.95000000000E+03 0.  0.
   -2000013    1    1    2    0    0 -0.18863116775E+03  0.21544070908E+03 -0.14049550049E+03  0.10021154635E+04  0.95000000000E+03 0.  0.
<mgrwt>
<rscale>  0 0.20513725E+04</rscale>
<asrwt>0</asrwt>
<pdfrwt beam="2">  1        2 0.23543920E+00 0.20513725E+04</pdfrwt>
<pdfrwt beam="1">  1       -2 0.10576052E+00 0.20513725E+04</pdfrwt>
<totfact> 0.81574132E+00</totfact>
</mgrwt>
</event>
<event>
 4    1  0.2043502E-008  0.3649436E+04  0.7816531E-02  0.8079261E-01
          2   -1    0    0  501    0  0.00000000000E+00  0.00000000000E+00  0.15101935244E+04  0.15101935244E+04  0.00000000000E+00 0.  1.
         -2   -1    0    0    0  501 -0.00000000000E+00 -0.00000000000E+00 -0.22047472048E+04  0.22047472048E+04  0.00000000000E+00 0. -1.
    2000013    1    1    2    0    0 -0.22243022423E+03 -0.12494585016E+04 -0.12670847887E+04  0.20294397290E+04  0.95000000000E+03 0.  0.
   -2000013    1    1    2    0    0  0.22243022423E+03  0.12494585016E+04  0.57253110827E+03  0.16855010002E+04  0.95000000000E+03 0.  0.
<mgrwt>
<rscale>  0 0.36494355E+04</rscale>
<asrwt>0</asrwt>
<pdfrwt beam="1">  1        2 0.23233746E+00 0.36494355E+04</pdfrwt>
<pdfrwt beam="2">  1       -2 0.33919188E+00 0.36494355E+04</pdfrwt>
<totfact> 0.18492208E-01</totfact>
</mgrwt>
</event>
<event>
 4    1  0.2043502E-008  0.2734212E+04  0.7816531E-02  0.8323989E-01
         -2   -1    0    0    0  501 -0.00000000000E+00  0.00000000000E+00  0.14760506037E+04  0.14760506037E+04  0.00000000000E+00 0. -1.
          2   -1    0    0  501    0  0.00000000000E+00 -0.00000000000E+00 -0.12662024736E+04  0.12662024736E+04  0.00000000000E+00 0.  1.
    2000013    1    1    2    0    0 -0.75055785487E+03  0.44151948224E+03 -0.35270982464E+03  0.13361065703E+04  0.95000000000E+03 0.  0.
   -2000013    1    1    2    0    0  0.75055785487E+03 -0.44151948224E+03  0.56255795478E+03  0.14061465070E+04  0.95000000000E+03 0.  0.
<mgrwt>
<rscale>  0 0.27342121E+04</rscale>
<asrwt>0</asrwt>
<pdfrwt beam="2">  1        2 0.19480038E+00 0.27342121E+04</pdfrwt>
<pdfrwt beam="1">  1       -2 0.22708471E+00 0.27342121E+04</pdfrwt>
<totfact> 0.13498634E+00</totfact>
</mgrwt>
</event>
<event>
 4    1  0.2043502E-008  0.3625346E+04  0.7816531E-02  0.8084711E-01
         -2   -1    0    0    0  501 -0.00000000000E+00  0.00000000000E+00  0.14294254008E+04  0.14294254008E+04  0.00000000000E+00 0. -1.
          2   -1    0    0  501    0  0.00000000000E+00 -0.00000000000E+00 -0.22986738077E+04  0.22986738077E+04  0.00000000000E+00 0.  1.
    2000013    1    1    2    0    0  0.71875127894E+03  0.10550928873E+04 -0.13272463597E+04  0.20721745344E+04  0.95000000000E+03 0.  0.
   -2000013    1    1    2    0    0 -0.71875127894E+03 -0.10550928873E+04  0.45799795276E+03  0.16559246742E+04  0.95000000000E+03 0.  0.
<mgrwt>
<rscale>  0 0.36253456E+04</rscale>
<asrwt>0</asrwt>
<pdfrwt beam="2">  1        2 0.35364212E+00 0.36253456E+04</pdfrwt>
<pdfrwt beam="1">  1       -2 0.21991160E+00 0.36253456E+04</pdfrwt>
<totfact> 0.36555554E-01</totfact>
</mgrwt>
</event>
<event>
 4    1  0.2043502E-008  0.2419678E+04  0.7816531E-02  0.8432173E-01
          2   -1    0    0  501    0  0.00000000000E+00  0.00000000000E+00  0.82323681225E+03  0.82323681225E+03  0.00000000000E+00 0.  1.
         -2   -1    0    0    0  501 -0.00000000000E+00 -0.00000000000E+00 -0.17779949170E+04  0.17779949170E+04  0.00000000000E+00 0. -1.
    2000013    1    1    2    0    0 -0.53924550261E+03  0.20544819935E+03 -0.99094311595E+03  0.14891148155E+04  0.95000000000E+03 0.  0.
   -2000013    1    1    2    0    0  0.53924550261E+03 -0.20544819935E+03  0.36185011253E+02  0.11121169137E+04  0.95000000000E+03 0.  0.
<mgrwt>
<rscale>  0 0.24196784E+04</rscale>
<asrwt>0</asrwt>
<pdfrwt beam="1">  1        2 0.12665182E+00 0.24196784E+04</pdfrwt>
<pdfrwt beam="2">  1       -2 0.27353767E+00 0.24196784E+04</pdfrwt>
<totfact> 0.13723957E+00</totfact>
</mgrwt>
</event>
<event>
 4    1  0.2043502E-008  0.2043801E+04  0.7816531E-02  0.8586412E-01
          2   -1    0    0  501    0  0.00000000000E+00  0.00000000000E+00  0.20931864088E+04  0.20931864088E+04  0.00000000000E+00 0.  1.
         -2   -1    0    0    0  501 -0.00000000000E+00 -0.00000000000E+00 -0.49889540662E+03  0.49889540662E+03  0.00000000000E+00 0. -1.
    2000013    1    1    2    0    0 -0.62707213393E+02  0.36023893792E+03  0.91112575041E+03  0.13661458268E+04  0.95000000000E+03 0.  0.
   -2000013    1    1    2    0    0  0.62707213393E+02 -0.36023893792E+03  0.68316525178E+03  0.12259359886E+04  0.95000000000E+03 0.  0.
<mgrwt>
<rscale>  0 0.20438014E+04</rscale>
<asrwt>0</asrwt>
<pdfrwt beam="1">  1        2 0.32202867E+00 0.20438014E+04</pdfrwt>
<pdfrwt beam="2">  1       -2 0.76753141E-01 0.20438014E+04</pdfrwt>
<totfact> 0.83229562E+00</totfact>
</mgrwt>
</event>
<event>
 4    1  0.2043502E-008  0.2150308E+04  0.7816531E-02  0.8539400E-01
         -2   -1    0    0    0  501 -0.00000000000E+00  0.00000000000E+00  0.67360022049E+03  0.67360022049E+03  0.00000000000E+00 0. -1.
          2   -1    0    0  501    0  0.00000000000E+00 -0.00000000000E+00 -0.17160864680E+04  0.17160864680E+04  0.00000000000E+00 0.  1.
    2000013    1    1    2    0    0  0.34639710963E+03  0.31416364610E+03 -0.72845782692E+03  0.12852394951E+04  0.95000000000E+03 0.  0.
   -2000013    1    1    2    0    0 -0.34639710963E+03 -0.31416364610E+03 -0.31402842057E+03  0.11044471934E+04  0.95000000000E+03 0.  0.
<mgrwt>
<rscale>  0 0.21503081E+04</rscale>
<asrwt>0</asrwt>
<pdfrwt beam="2">  1        2 0.26401330E+00 0.21503081E+04</pdfrwt>
<pdfrwt beam="1">  1       -2 0.10363080E+00 0.21503081E+04</pdfrwt>
<totfact> 0.66888391E+00</totfact>
</mgrwt>
</event>
<event>
 4    1  0.2043502E-008  0.2198705E+04  0.7816531E-02  0.8518967E-01
         -1   -1    0    0    0  501 -0.00000000000E+00  0.00000000000E+00  0.62000547366E+03  0.62000547366E+03  0.00000000000E+00 0.  1.
          1   -1    0    0  501    0  0.00000000000E+00 -0.00000000000E+00 -0.19492996353E+04  0.19492996353E+04  0.00000000000E+00 0. -1.
    2000013    1    1    2    0    0 -0.49969447682E+03 -0.39794903777E+02 -0.39110010115E+03  0.11431261932E+04  0.95000000000E+03 0.  0.
   -2000013    1    1    2    0    0  0.49969447682E+03  0.39794903777E+02 -0.93819406048E+03  0.14261789157E+04  0.95000000000E+03 0.  0.
<mgrwt>
<rscale>  0 0.21987055E+04</rscale>
<asrwt>0</asrwt>
<pdfrwt beam="2">  1        1 0.29989225E+00 0.21987055E+04</pdfrwt>
<pdfrwt beam="1">  1       -1 0.95385458E-01 0.21987055E+04</pdfrwt>
<totfact> 0.31203436E+00</totfact>
</mgrwt>
</event>
<event>
 4    1  0.2043502E-008  0.2919842E+04  0.7816531E-02  0.8266998E-01
         -2   -1    0    0    0  501 -0.00000000000E+00  0.00000000000E+00  0.77880088311E+03  0.77880088311E+03  0.00000000000E+00 0. -1.
          2   -1    0    0  501    0  0.00000000000E+00 -0.00000000000E+00 -0.27367320755E+04  0.27367320755E+04  0.00000000000E+00 0.  1.
    2000013    1    1    2    0    0 -0.70578414270E+03  0.80552638086E+03 -0.13234597714E+04  0.19496281114E+04  0.95000000000E+03 0.  0.
   -2000013    1    1    2    0    0  0.70578414270E+03 -0.80552638086E+03 -0.63447142097E+03  0.15659048472E+04  0.95000000000E+03 0.  0.
<mgrwt>
<rscale>  0 0.29198420E+04</rscale>
<asrwt>0</asrwt>
<pdfrwt beam="2">  1        2 0.42103571E+00 0.29198420E+04</pdfrwt>
<pdfrwt beam="1">  1       -2 0.11981552E+00 0.29198420E+04</pdfrwt>
<totfact> 0.11590920E+00</totfact>
</mgrwt>
</event>
<event>
 4    1  0.2043502E-008  0.2381081E+04  0.7816531E-02  0.8446621E-01
         -2   -1    0    0    0  501 -0.00000000000E+00  0.00000000000E+00  0.11525993649E+04  0.11525993649E+04  0.00000000000E+00 0. -1.
          2   -1    0    0  501    0  0.00000000000E+00 -0.00000000000E+00 -0.12297304047E+04  0.12297304047E+04  0.00000000000E+00 0.  1.
    2000013    1    1    2    0    0 -0.65758719735E+03 -0.14616016678E+03  0.20875387623E+03  0.11831575961E+04  0.95000000000E+03 0.  0.
   -2000013    1    1    2    0    0  0.65758719735E+03  0.14616016678E+03 -0.28588491598E+03  0.11991721735E+04  0.95000000000E+03 0.  0.
<mgrwt>
<rscale>  0 0.23810808E+04</rscale>
<asrwt>0</asrwt>
<pdfrwt beam="2">  1        2 0.18918929E+00 0.23810808E+04</pdfrwt>
<pdfrwt beam="1">  1       -2 0.17732298E+00 0.23810808E+04</pdfrwt>
<totfact> 0.30994681E+00</totfact>
</mgrwt>
</event>
<event>
 4    1  0.2043502E-008  0.2532419E+04  0.7816531E-02  0.8391526E-01
          2   -1    0    0  501    0  0.00000000000E+00  0.00000000000E+00  0.13361826782E+04  0.13361826782E+04  0.00000000000E+00 0.  1.
         -2   -1    0    0    0  501 -0.00000000000E+00 -0.00000000000E+00 -0.11999002123E+04  0.11999002123E+04  0.00000000000E+00 0. -1.
    2000013    1    1    2    0    0 -0.58386627613E+03  0.52786512171E+03  0.35358781952E+03  0.12833805987E+04  0.95000000000E+03 0.  0.
   -2000013    1    1    2    0    0  0.58386627613E+03 -0.52786512171E+03 -0.21730535366E+03  0.12527022918E+04  0.95000000000E+03 0.  0.
<mgrwt>
<rscale>  0 0.25324185E+04</rscale>
<asrwt>0</asrwt>
<pdfrwt beam="1">  1        2 0.20556657E+00 0.25324185E+04</pdfrwt>
<pdfrwt beam="2">  1       -2 0.18460003E+00 0.25324185E+04</pdfrwt>
<totfact> 0.23622070E+00</totfact>
</mgrwt>
</event>
<event>
 4    1  0.2043502E-008  0.2538970E+04  0.7816531E-02  0.8389232E-01
          2   -1    0    0  501    0  0.00000000000E+00  0.00000000000E+00  0.17209449535E+04  0.17209449535E+04  0.00000000000E+00 0.  1.
         -2   -1    0    0    0  501 -0.00000000000E+00 -0.00000000000E+00 -0.93645805154E+03  0.93645805154E+03  0.00000000000E+00 0. -1.
    2000013    1    1    2    0    0  0.76363832173E+03  0.21918113501E+03  0.68438499034E+03  0.14149440524E+04  0.95000000000E+03 0.  0.
   -2000013    1    1    2    0    0 -0.76363832173E+03 -0.21918113501E+03  0.10010191162E+03  0.12424589527E+04  0.95000000000E+03 0.  0.
<mgrwt>
<rscale>  0 0.25389705E+04</rscale>
<asrwt>0</asrwt>
<pdfrwt beam="1">  1        2 0.26476076E+00 0.25389705E+04</pdfrwt>
<pdfrwt beam="2">  1       -2 0.14407047E+00 0.25389705E+04</pdfrwt>
<totfact> 0.28289998E+00</totfact>
</mgrwt>
</event>
<event>
 4    1  0.2043502E-008  0.2244646E+04  0.7816531E-02  0.8500072E-01
          2   -1    0    0  501    0  0.00000000000E+00  0.00000000000E+00  0.16987036297E+04  0.16987036297E+04  0.00000000000E+00 0.  1.
         -2   -1    0    0    0  501 -0.00000000000E+00 -0.00000000000E+00 -0.74151201754E+03  0.74151201754E+03  0.00000000000E+00 0. -1.
    2000013    1    1    2    0    0  0.50023526344E+03 -0.28770239314E+03  0.64736740671E+03  0.12863096614E+04  0.95000000000E+03 0.  0.
   -2000013    1    1    2    0    0 -0.50023526344E+03  0.28770239314E+03  0.30982420545E+03  0.11539059858E+04  0.95000000000E+03 0.  0.
<mgrwt>
<rscale>  0 0.22446462E+04</rscale>
<asrwt>0</asrwt>
<pdfrwt beam="1">  1        2 0.26133902E+00 0.22446462E+04</pdfrwt>
<pdfrwt beam="2">  1       -2 0.11407877E+00 0.22446462E+04</pdfrwt>
<totfact> 0.53802103E+00</totfact>
</mgrwt>
</event>
<event>
 4    1  0.2043502E-008  0.2700961E+04  0.7816531E-02  0.8334693E-01
          2   -1    0    0  501    0  0.00000000000E+00  0.00000000000E+00  0.17099356625E+04  0.17099356625E+04  0.00000000000E+00 0.  1.
         -2   -1    0    0    0  501 -0.00000000000E+00 -0.00000000000E+00 -0.10665886756E+04  0.10665886756E+04  0.00000000000E+00 0. -1.
    2000013    1    1    2    0    0 -0.38594862896E+03 -0.76075451401E+03 -0.13062936709E+03  0.12834593123E+04  0.95000000000E+03 0.  0.
   -2000013    1    1    2    0    0  0.38594862896E+03  0.76075451401E+03  0.77397635397E+03  0.14930650258E+04  0.95000000000E+03 0.  0.
<mgrwt>
<rscale>  0 0.27009613E+04</rscale>
<asrwt>0</asrwt>
<pdfrwt beam="1">  1        2 0.26306702E+00 0.27009613E+04</pdfrwt>
<pdfrwt beam="2">  1       -2 0.16409057E+00 0.27009613E+04</pdfrwt>
<totfact> 0.19970029E+00</totfact>
</mgrwt>
</event>
<event>
 4    1  0.2043502E-008  0.2378998E+04  0.7816531E-02  0.8447408E-01
         -2   -1    0    0    0  501 -0.00000000000E+00  0.00000000000E+00  0.47577824843E+03  0.47577824843E+03  0.00000000000E+00 0. -1.
          2   -1    0    0  501    0  0.00000000000E+00 -0.00000000000E+00 -0.29738820083E+04  0.29738820083E+04  0.00000000000E+00 0.  1.
    2000013    1    1    2    0    0 -0.11287782129E+03 -0.70202947989E+03 -0.13688154278E+04  0.18115580224E+04  0.95000000000E+03 0.  0.
   -2000013    1    1    2    0    0  0.11287782129E+03  0.70202947989E+03 -0.11292883321E+04  0.16381022343E+04  0.95000000000E+03 0.  0.
<mgrwt>
<rscale>  0 0.23789984E+04</rscale>
<asrwt>0</asrwt>
<pdfrwt beam="2">  1        2 0.45752030E+00 0.23789984E+04</pdfrwt>
<pdfrwt beam="1">  1       -2 0.73196656E-01 0.23789984E+04</pdfrwt>
<totfact> 0.27457317E+00</totfact>
</mgrwt>
</event>
<event>
 4    1  0.2043502E-008  0.1985072E+04  0.7816531E-02  0.8613632E-01
          2   -1    0    0  501    0  0.00000000000E+00  0.00000000000E+00  0.92876109675E+03  0.92876109675E+03  0.00000000000E+00 0.  1.
         -2   -1    0    0    0  501 -0.00000000000E+00 -0.00000000000E+00 -0.10606904936E+04  0.10606904936E+04  0.00000000000E+00 0. -1.
    2000013    1    1    2    0    0 -0.24748733705E+03 -0.39678203336E+02  0.75071460017E+02  0.98537305927E+03  0.95000000000E+03 0.  0.
   -2000013    1    1    2    0    0  0.24748733705E+03  0.39678203336E+02 -0.20700085686E+03  0.10040785311E+04  0.95000000000E+03 0.  0.
<mgrwt>
<rscale>  0 0.19850724E+04</rscale>
<asrwt>0</asrwt>
<pdfrwt beam="1">  1        2 0.14288632E+00 0.19850724E+04</pdfrwt>
<pdfrwt beam="2">  1       -2 0.16318315E+00 0.19850724E+04</pdfrwt>
<totfact> 0.62247045E+00</totfact>
</mgrwt>
</event>
<event>
 4    1  0.2043502E-008  0.2306272E+04  0.7816531E-02  0.8475452E-01
          2   -1    0    0  501    0  0.00000000000E+00  0.00000000000E+00  0.28940464615E+04  0.28940464615E+04  0.00000000000E+00 0.  1.
         -2   -1    0    0    0  501 -0.00000000000E+00 -0.00000000000E+00 -0.45946850844E+03  0.45946850844E+03  0.00000000000E+00 0. -1.
    2000013    1    1    2    0    0 -0.11996782540E+03 -0.46174228665E+03  0.56761258484E+03  0.12051067442E+04  0.95000000000E+03 0.  0.
   -2000013    1    1    2    0    0  0.11996782540E+03  0.46174228665E+03  0.18669653682E+04  0.21484082258E+04  0.95000000000E+03 0.  0.
<mgrwt>
<rscale>  0 0.23062725E+04</rscale>
<asrwt>0</asrwt>
<pdfrwt beam="1">  1        2 0.44523791E+00 0.23062725E+04</pdfrwt>
<pdfrwt beam="2">  1       -2 0.70687465E-01 0.23062725E+04</pdfrwt>
<totfact> 0.33424271E+00</totfact>
</mgrwt>
</event>
<event>
 4    1  0.2043502E-008  0.2738572E+04  0.7816531E-02  0.8322597E-01
          2   -1    0    0  501    0  0.00000000000E+00  0.00000000000E+00  0.17447123711E+04  0.17447123711E+04  0.00000000000E+00 0.  1.
         -2   -1    0    0    0  501 -0.00000000000E+00 -0.00000000000E+00 -0.10746436789E+04  0.10746436789E+04  0.00000000000E+00 0. -1.
    2000013    1    1    2    0    0 -0.15416801702E+03 -0.53011012619E+02 -0.66621123636E+03  0.11717147078E+04  0.95000000000E+03 0.  0.
   -2000013    1    1    2    0    0  0.15416801702E+03  0.53011012619E+02  0.13362799286E+04  0.16476413422E+04  0.95000000000E+03 0.  0.
<mgrwt>
<rscale>  0 0.27385720E+04</rscale>
<asrwt>0</asrwt>
<pdfrwt beam="1">  1        2 0.26841729E+00 0.27385720E+04</pdfrwt>
<pdfrwt beam="2">  1       -2 0.16532980E+00 0.27385720E+04</pdfrwt>
<totfact> 0.18650934E+00</totfact>
</mgrwt>
</event>
<event>
 4    1  0.2043502E-008  0.1966643E+04  0.7816531E-02  0.8622377E-01
         -2   -1    0    0    0  501 -0.00000000000E+00  0.00000000000E+00  0.15142450305E+04  0.15142450305E+04  0.00000000000E+00 0. -1.
          2   -1    0    0  501    0  0.00000000000E+00 -0.00000000000E+00 -0.63855014554E+03  0.63855014554E+03  0.00000000000E+00 0.  1.
    2000013    1    1    2    0    0  0.24268875485E+03 -0.71610162298E+02  0.41607681281E+03  0.10675419248E+04  0.95000000000E+03 0.  0.
   -2000013    1    1    2    0    0 -0.24268875485E+03  0.71610162298E+02  0.45961807218E+03  0.10852532513E+04  0.95000000000E+03 0.  0.
<mgrwt>
<rscale>  0 0.19666432E+04</rscale>
<asrwt>0</asrwt>
<pdfrwt beam="2">  1        2 0.98238484E-01 0.19666432E+04</pdfrwt>
<pdfrwt beam="1">  1       -2 0.23296077E+00 0.19666432E+04</pdfrwt>
<totfact> 0.35063796E+00</totfact>
</mgrwt>
</event>
<event>
 4    1  0.2043502E-008  0.2768617E+04  0.7816531E-02  0.8313078E-01
          2   -1    0    0  501    0  0.00000000000E+00  0.00000000000E+00  0.23877788331E+04  0.23877788331E+04  0.00000000000E+00 0.  1.
         -2   -1    0    0    0  501 -0.00000000000E+00 -0.00000000000E+00 -0.80254910923E+03  0.80254910923E+03  0.00000000000E+00 0. -1.
    2000013    1    1    2    0    0 -0.57607211398E+03  0.34383550688E+03  0.16577963446E+04  0.20250606550E+04  0.95000000000E+03 0.  0.
   -2000013    1    1    2    0    0  0.57607211398E+03 -0.34383550688E+03 -0.72566620806E+02  0.11652672873E+04  0.95000000000E+03 0.  0.
<mgrwt>
<rscale>  0 0.27686168E+04</rscale>
<asrwt>0</asrwt>
<pdfrwt beam="1">  1        2 0.36735059E+00 0.27686168E+04</pdfrwt>
<pdfrwt beam="2">  1       -2 0.12346909E+00 0.27686168E+04</pdfrwt>
<totfact> 0.17427277E+00</totfact>
</mgrwt>
</event>
<event>
 4    1  0.2043502E-008  0.2227546E+04  0.7816531E-02  0.8507050E-01
         -2   -1    0    0    0  501 -0.00000000000E+00  0.00000000000E+00  0.53123825870E+03  0.53123825870E+03  0.00000000000E+00 0.  1.
          2   -1    0    0  501    0  0.00000000000E+00 -0.00000000000E+00 -0.23350924306E+04  0.23350924306E+04  0.00000000000E+00 0. -1.
    2000013    1    1    2    0    0 -0.15776155778E+03  0.39986449857E+03 -0.39826031393E+03  0.11161951460E+04  0.95000000000E+03 0.  0.
   -2000013    1    1    2    0    0  0.15776155778E+03 -0.39986449857E+03 -0.14055938579E+04  0.17501355433E+04  0.95000000000E+03 0.  0.
<mgrwt>
<rscale>  0 0.22275461E+04</rscale>
<asrwt>0</asrwt>
<pdfrwt beam="2">  1        2 0.35924500E+00 0.22275461E+04</pdfrwt>
<pdfrwt beam="1">  1       -2 0.81728961E-01 0.22275461E+04</pdfrwt>
<totfact> 0.52009566E+00</totfact>
</mgrwt>
</event>
<event>
 4    1  0.2043502E-008  0.2056085E+04  0.7816531E-02  0.8580839E-01
         -1   -1    0    0    0  501 -0.00000000000E+00  0.00000000000E+00  0.99590166613E+03  0.99590166613E+03  0.00000000000E+00 0. -1.
          1   -1    0    0  501    0  0.00000000000E+00 -0.00000000000E+00 -0.10612210561E+04  0.10612210561E+04  0.00000000000E+00 0.  1.
    2000013    1    1    2    0    0  0.51464444957E+02 -0.31412319279E+03 -0.26310142198E+03  0.10358785294E+04  0.95000000000E+03 0.  0.
   -2000013    1    1    2    0    0 -0.51464444957E+02  0.31412319279E+03  0.19778203198E+03  0.10212441929E+04  0.95000000000E+03 0.  0.
<mgrwt>
<rscale>  0 0.20560854E+04</rscale>
<asrwt>0</asrwt>
<pdfrwt beam="2">  1        1 0.16326478E+00 0.20560854E+04</pdfrwt>
<pdfrwt beam="1">  1       -1 0.15321564E+00 0.20560854E+04</pdfrwt>
<totfact> 0.41261453E+00</totfact>
</mgrwt>
</event>
<event>
 4    1  0.2043502E-008  0.3629296E+04  0.7816531E-02  0.8083814E-01
         -2   -1    0    0    0  501 -0.00000000000E+00  0.00000000000E+00  0.12083710451E+04  0.12083710451E+04  0.00000000000E+00 0. -1.
          2   -1    0    0  501    0  0.00000000000E+00 -0.00000000000E+00 -0.27251124739E+04  0.27251124739E+04  0.00000000000E+00 0.  1.
    2000013    1    1    2    0    0  0.95823531473E+03  0.77711369061E+03 -0.17683128026E+04  0.23561729084E+04  0.95000000000E+03 0.  0.
   -2000013    1    1    2    0    0 -0.95823531473E+03 -0.77711369061E+03  0.25157137376E+03  0.15773106107E+04  0.95000000000E+03 0.  0.
<mgrwt>
<rscale>  0 0.36292958E+04</rscale>
<asrwt>0</asrwt>
<pdfrwt beam="2">  1        2 0.41924806E+00 0.36292958E+04</pdfrwt>
<pdfrwt beam="1">  1       -2 0.18590324E+00 0.36292958E+04</pdfrwt>
<totfact> 0.34447783E-01</totfact>
</mgrwt>
</event>
<event>
 4    1  0.2043502E-008  0.2819684E+04  0.7816531E-02  0.8297183E-01
         -2   -1    0    0    0  501 -0.00000000000E+00  0.00000000000E+00  0.28933854592E+04  0.28933854592E+04  0.00000000000E+00 0. -1.
          2   -1    0    0  501    0  0.00000000000E+00 -0.00000000000E+00 -0.68696482806E+03  0.68696482806E+03  0.00000000000E+00 0.  1.
    2000013    1    1    2    0    0 -0.19235367200E+03  0.10209147468E+04  0.10057833624E+04  0.17301349738E+04  0.95000000000E+03 0.  0.
   -2000013    1    1    2    0    0  0.19235367200E+03 -0.10209147468E+04  0.12006372688E+04  0.18502153135E+04  0.95000000000E+03 0.  0.
<mgrwt>
<rscale>  0 0.28196837E+04</rscale>
<asrwt>0</asrwt>
<pdfrwt beam="2">  1        2 0.10568690E+00 0.28196837E+04</pdfrwt>
<pdfrwt beam="1">  1       -2 0.44513622E+00 0.28196837E+04</pdfrwt>
<totfact> 0.13607368E-01</totfact>
</mgrwt>
</event>
<event>
 4    1  0.2043502E-008  0.2607611E+04  0.7816531E-02  0.8365621E-01
         -2   -1    0    0    0  501 -0.00000000000E+00  0.00000000000E+00  0.86973546199E+03  0.86973546199E+03  0.00000000000E+00 0. -1.
          2   -1    0    0  501    0  0.00000000000E+00 -0.00000000000E+00 -0.19545123298E+04  0.19545123298E+04  0.00000000000E+00 0.  1.
    2000013    1    1    2    0    0 -0.37290534058E+03 -0.76998562163E+03 -0.81952207505E+03  0.15185692879E+04  0.95000000000E+03 0.  0.
   -2000013    1    1    2    0    0  0.37290534058E+03  0.76998562163E+03 -0.26525479277E+03  0.13056785039E+04  0.95000000000E+03 0.  0.
<mgrwt>
<rscale>  0 0.26076109E+04</rscale>
<asrwt>0</asrwt>
<pdfrwt beam="2">  1        2 0.30069420E+00 0.26076109E+04</pdfrwt>
<pdfrwt beam="1">  1       -2 0.13380546E+00 0.26076109E+04</pdfrwt>
<totfact> 0.25267457E+00</totfact>
</mgrwt>
</event>
<event>
 4    1  0.2043502E-008  0.2800800E+04  0.7816531E-02  0.8303020E-01
         -2   -1    0    0    0  501 -0.00000000000E+00  0.00000000000E+00  0.30123019605E+04  0.30123019605E+04  0.00000000000E+00 0. -1.
          2   -1    0    0  501    0  0.00000000000E+00 -0.00000000000E+00 -0.65103714741E+03  0.65103714741E+03  0.00000000000E+00 0.  1.
    2000013    1    1    2    0    0 -0.76402745403E+03 -0.55478254578E+03  0.64596744707E+03  0.14870425570E+04  0.95000000000E+03 0.  0.
   -2000013    1    1    2    0    0  0.76402745403E+03  0.55478254578E+03  0.17152973660E+04  0.21762965509E+04  0.95000000000E+03 0.  0.
<mgrwt>
<rscale>  0 0.28008002E+04</rscale>
<asrwt>0</asrwt>
<pdfrwt beam="2">  1        2 0.10015956E+00 0.28008002E+04</pdfrwt>
<pdfrwt beam="1">  1       -2 0.46343106E+00 0.28008002E+04</pdfrwt>
<totfact> 0.11032459E-01</totfact>
</mgrwt>
</event>
<event>
 4    1  0.2043502E-008  0.2835743E+04  0.7816531E-02  0.8292257E-01
          2   -1    0    0  501    0  0.00000000000E+00  0.00000000000E+00  0.28382421908E+04  0.28382421908E+04  0.00000000000E+00 0.  1.
         -2   -1    0    0    0  501 -0.00000000000E+00 -0.00000000000E+00 -0.70831165340E+03  0.70831165340E+03  0.00000000000E+00 0. -1.
    2000013    1    1    2    0    0  0.53717020331E+03 -0.68260283406E+03  0.18084110409E+04  0.22197632643E+04  0.95000000000E+03 0.  0.
   -2000013    1    1    2    0    0 -0.53717020331E+03  0.68260283406E+03  0.32151949645E+03  0.13267905799E+04  0.95000000000E+03 0.  0.
<mgrwt>
<rscale>  0 0.28357433E+04</rscale>
<asrwt>0</asrwt>
<pdfrwt beam="1">  1        2 0.43665264E+00 0.28357433E+04</pdfrwt>
<pdfrwt beam="2">  1       -2 0.10897102E+00 0.28357433E+04</pdfrwt>
<totfact> 0.12777408E+00</totfact>
</mgrwt>
</event>
<event>
 4    1  0.2043502E-008  0.3152312E+04  0.7816531E-02  0.8201526E-01
         -2   -1    0    0    0  501 -0.00000000000E+00  0.00000000000E+00  0.99395325222E+03  0.99395325222E+03  0.00000000000E+00 0. -1.
          2   -1    0    0  501    0  0.00000000000E+00 -0.00000000000E+00 -0.24993806270E+04  0.24993806270E+04  0.00000000000E+00 0.  1.
    2000013    1    1    2    0    0  0.11116832374E+04 -0.47905256551E+03 -0.37457115078E+03  0.15837091045E+04  0.95000000000E+03 0.  0.
   -2000013    1    1    2    0    0 -0.11116832374E+04  0.47905256551E+03 -0.11308562240E+04  0.19096247747E+04  0.95000000000E+03 0.  0.
<mgrwt>
<rscale>  0 0.31523119E+04</rscale>
<asrwt>0</asrwt>
<pdfrwt beam="2">  1        2 0.38452010E+00 0.31523119E+04</pdfrwt>
<pdfrwt beam="1">  1       -2 0.15291588E+00 0.31523119E+04</pdfrwt>
<totfact> 0.83821015E-01</totfact>
</mgrwt>
</event>
<event>
 4    1  0.2043502E-008  0.2980952E+04  0.7816531E-02  0.8249191E-01
         -2   -1    0    0    0  501 -0.00000000000E+00  0.00000000000E+00  0.60690930698E+03  0.60690930698E+03  0.00000000000E+00 0. -1.
          2   -1    0    0  501    0  0.00000000000E+00 -0.00000000000E+00 -0.36603790602E+04  0.36603790602E+04  0.00000000000E+00 0.  1.
    2000013    1    1    2    0    0  0.99593125780E+03 -0.54093840576E+03 -0.17927228238E+04  0.23239725799E+04  0.95000000000E+03 0.  0.
   -2000013    1    1    2    0    0 -0.99593125780E+03  0.54093840576E+03 -0.12607469294E+04  0.19433157873E+04  0.95000000000E+03 0.  0.
<mgrwt>
<rscale>  0 0.29809516E+04</rscale>
<asrwt>0</asrwt>
<pdfrwt beam="2">  1        2 0.56313526E+00 0.29809516E+04</pdfrwt>
<pdfrwt beam="1">  1       -2 0.93370660E-01 0.29809516E+04</pdfrwt>
<totfact> 0.51895534E-01</totfact>
</mgrwt>
</event>
<event>
 4    1  0.2043502E-008  0.3040072E+04  0.7816531E-02  0.8232380E-01
         -2   -1    0    0    0  501 -0.00000000000E+00  0.00000000000E+00  0.80557612672E+03  0.80557612672E+03  0.00000000000E+00 0. -1.
          2   -1    0    0  501    0  0.00000000000E+00 -0.00000000000E+00 -0.28681450786E+04  0.28681450786E+04  0.00000000000E+00 0.  1.
    2000013    1    1    2    0    0  0.11413929054E+04 -0.88976797502E+01 -0.63942380812E+03  0.16168548913E+04  0.95000000000E+03 0.  0.
   -2000013    1    1    2    0    0 -0.11413929054E+04  0.88976797502E+01 -0.14231451437E+04  0.20568663139E+04  0.95000000000E+03 0.  0.
<mgrwt>
<rscale>  0 0.30400718E+04</rscale>
<asrwt>0</asrwt>
<pdfrwt beam="2">  1        2 0.44125309E+00 0.30400718E+04</pdfrwt>
<pdfrwt beam="1">  1       -2 0.12393479E+00 0.30400718E+04</pdfrwt>
<totfact> 0.87799110E-01</totfact>
</mgrwt>
</event>
<event>
 4    1  0.2043502E-008  0.2544687E+04  0.7816531E-02  0.8387236E-01
          2   -1    0    0  501    0  0.00000000000E+00  0.00000000000E+00  0.10141840838E+04  0.10141840838E+04  0.00000000000E+00 0.  1.
         -2   -1    0    0    0  501 -0.00000000000E+00 -0.00000000000E+00 -0.15962173130E+04  0.15962173130E+04  0.00000000000E+00 0. -1.
    2000013    1    1    2    0    0  0.27475622557E+03  0.75953838507E+03 -0.55046829664E+03  0.13630498478E+04  0.95000000000E+03 0.  0.
   -2000013    1    1    2    0    0 -0.27475622557E+03 -0.75953838507E+03 -0.31564932543E+02  0.12473515490E+04  0.95000000000E+03 0.  0.
<mgrwt>
<rscale>  0 0.25446872E+04</rscale>
<asrwt>0</asrwt>
<pdfrwt beam="1">  1        2 0.15602832E+00 0.25446872E+04</pdfrwt>
<pdfrwt beam="2">  1       -2 0.24557189E+00 0.25446872E+04</pdfrwt>
<totfact> 0.14996852E+00</totfact>
</mgrwt>
</event>
<event>
 4    1  0.2043502E-008  0.3045640E+04  0.7816531E-02  0.8230817E-01
         -2   -1    0    0    0  501 -0.00000000000E+00  0.00000000000E+00  0.10030156497E+04  0.10030156497E+04  0.00000000000E+00 0. -1.
          2   -1    0    0  501    0  0.00000000000E+00 -0.00000000000E+00 -0.23120085892E+04  0.23120085892E+04  0.00000000000E+00 0.  1.
    2000013    1    1    2    0    0  0.66890421758E+03 -0.69510322246E+03  0.10420758361E+03  0.13579250946E+04  0.95000000000E+03 0.  0.
   -2000013    1    1    2    0    0 -0.66890421758E+03  0.69510322246E+03 -0.14132005230E+04  0.19570991443E+04  0.95000000000E+03 0.  0.
<mgrwt>
<rscale>  0 0.30456400E+04</rscale>
<asrwt>0</asrwt>
<pdfrwt beam="2">  1        2 0.35569362E+00 0.30456400E+04</pdfrwt>
<pdfrwt beam="1">  1       -2 0.15431010E+00 0.30456400E+04</pdfrwt>
<totfact> 0.10573433E+00</totfact>
</mgrwt>
</event>
<event>
 4    1  0.2043502E-008  0.2475719E+04  0.7816531E-02  0.8411687E-01
         -2   -1    0    0    0  501 -0.00000000000E+00  0.00000000000E+00  0.11287637225E+04  0.11287637225E+04  0.00000000000E+00 0. -1.
          2   -1    0    0  501    0  0.00000000000E+00 -0.00000000000E+00 -0.13574992774E+04  0.13574992774E+04  0.00000000000E+00 0.  1.
    2000013    1    1    2    0    0  0.24147217680E+03  0.73550723149E+03 -0.28980075813E+03  0.12592712889E+04  0.95000000000E+03 0.  0.
   -2000013    1    1    2    0    0 -0.24147217680E+03 -0.73550723149E+03  0.61065203235E+02  0.12269917110E+04  0.95000000000E+03 0.  0.
<mgrwt>
<rscale>  0 0.24757188E+04</rscale>
<asrwt>0</asrwt>
<pdfrwt beam="2">  1        2 0.20884604E+00 0.24757188E+04</pdfrwt>
<pdfrwt beam="1">  1       -2 0.17365596E+00 0.24757188E+04</pdfrwt>
<totfact> 0.27474442E+00</totfact>
</mgrwt>
</event>
<event>
 4    1  0.2043502E-008  0.2742668E+04  0.7816531E-02  0.8321292E-01
          3   -1    0    0  501    0  0.00000000000E+00  0.00000000000E+00  0.11369183806E+04  0.11369183806E+04  0.00000000000E+00 0.  1.
         -3   -1    0    0    0  501 -0.00000000000E+00 -0.00000000000E+00 -0.16540824394E+04  0.16540824394E+04  0.00000000000E+00 0. -1.
    2000013    1    1    2    0    0  0.72009816935E+03 -0.66989161782E+03 -0.36414327223E+03  0.14150605909E+04  0.95000000000E+03 0.  0.
   -2000013    1    1    2    0    0 -0.72009816935E+03  0.66989161782E+03 -0.15302078655E+03  0.13759402292E+04  0.95000000000E+03 0.  0.
<mgrwt>
<rscale>  0 0.27426678E+04</rscale>
<asrwt>0</asrwt>
<pdfrwt beam="1">  1        3 0.17491052E+00 0.27426678E+04</pdfrwt>
<pdfrwt beam="2">  1       -3 0.25447422E+00 0.27426678E+04</pdfrwt>
<totfact> 0.33642896E-02</totfact>
</mgrwt>
</event>
<event>
 4    1  0.2043502E-008  0.3471762E+04  0.7816531E-02  0.8120515E-01
          2   -1    0    0  501    0  0.00000000000E+00  0.00000000000E+00  0.27388400296E+04  0.27388400296E+04  0.00000000000E+00 0.  1.
         -2   -1    0    0    0  501 -0.00000000000E+00 -0.00000000000E+00 -0.11002039398E+04  0.11002039398E+04  0.00000000000E+00 0. -1.
    2000013    1    1    2    0    0  0.10872565451E+04 -0.33583334796E+03  0.18181308683E+04  0.23458496726E+04  0.95000000000E+03 0.  0.
   -2000013    1    1    2    0    0 -0.10872565451E+04  0.33583334796E+03 -0.17949477845E+03  0.14931942968E+04  0.95000000000E+03 0.  0.
<mgrwt>
<rscale>  0 0.34717619E+04</rscale>
<asrwt>0</asrwt>
<pdfrwt beam="1">  1        2 0.42136000E+00 0.34717619E+04</pdfrwt>
<pdfrwt beam="2">  1       -2 0.16926215E+00 0.34717619E+04</pdfrwt>
<totfact> 0.44709517E-01</totfact>
</mgrwt>
</event>
<event>
 4    1  0.2043502E-008  0.2836031E+04  0.7816531E-02  0.8292169E-01
          2   -1    0    0  501    0  0.00000000000E+00  0.00000000000E+00  0.13993541367E+04  0.13993541367E+04  0.00000000000E+00 0.  1.
         -2   -1    0    0    0  501 -0.00000000000E+00 -0.00000000000E+00 -0.14369259720E+04  0.14369259720E+04  0.00000000000E+00 0. -1.
    2000013    1    1    2    0    0 -0.10647742462E+03  0.10439717001E+04  0.65209252407E+02  0.14170273812E+04  0.95000000000E+03 0.  0.
   -2000013    1    1    2    0    0  0.10647742462E+03 -0.10439717001E+04 -0.10278108777E+03  0.14192527275E+04  0.95000000000E+03 0.  0.
<mgrwt>
<rscale>  0 0.28360312E+04</rscale>
<asrwt>0</asrwt>
<pdfrwt beam="1">  1        2 0.21528525E+00 0.28360312E+04</pdfrwt>
<pdfrwt beam="2">  1       -2 0.22106554E+00 0.28360312E+04</pdfrwt>
<totfact> 0.12228115E+00</totfact>
</mgrwt>
</event>
<event>
 4    1  0.2043502E-008  0.3278941E+04  0.7816531E-02  0.8168275E-01
          2   -1    0    0  501    0  0.00000000000E+00  0.00000000000E+00  0.13865856752E+04  0.13865856752E+04  0.00000000000E+00 0.  1.
         -2   -1    0    0    0  501 -0.00000000000E+00 -0.00000000000E+00 -0.19384759741E+04  0.19384759741E+04  0.00000000000E+00 0. -1.
    2000013    1    1    2    0    0  0.91079981938E+03  0.56661310177E+03 -0.10838675509E+04  0.17966289505E+04  0.95000000000E+03 0.  0.
   -2000013    1    1    2    0    0 -0.91079981938E+03 -0.56661310177E+03  0.53197725202E+03  0.15284326988E+04  0.95000000000E+03 0.  0.
<mgrwt>
<rscale>  0 0.32789407E+04</rscale>
<asrwt>0</asrwt>
<pdfrwt beam="1">  1        2 0.21332088E+00 0.32789407E+04</pdfrwt>
<pdfrwt beam="2">  1       -2 0.29822707E+00 0.32789407E+04</pdfrwt>
<totfact> 0.40154268E-01</totfact>
</mgrwt>
</event>
<event>
 4    1  0.2043502E-008  0.2883251E+04  0.7816531E-02  0.8277878E-01
         -2   -1    0    0    0  501 -0.00000000000E+00  0.00000000000E+00  0.15704430989E+04  0.15704430989E+04  0.00000000000E+00 0. -1.
          2   -1    0    0  501    0  0.00000000000E+00 -0.00000000000E+00 -0.13233747623E+04  0.13233747623E+04  0.00000000000E+00 0.  1.
    2000013    1    1    2    0    0  0.94525737072E+03  0.45489664735E+02 -0.40774868765E+03  0.14015490711E+04  0.95000000000E+03 0.  0.
   -2000013    1    1    2    0    0 -0.94525737072E+03 -0.45489664735E+02  0.65481702424E+03  0.14922687900E+04  0.95000000000E+03 0.  0.
<mgrwt>
<rscale>  0 0.28832515E+04</rscale>
<asrwt>0</asrwt>
<pdfrwt beam="2">  1        2 0.20359612E+00 0.28832515E+04</pdfrwt>
<pdfrwt beam="1">  1       -2 0.24160663E+00 0.28832515E+04</pdfrwt>
<totfact> 0.10024582E+00</totfact>
</mgrwt>
</event>
<event>
 4    1  0.2043502E-008  0.2045979E+04  0.7816531E-02  0.8585420E-01
          2   -1    0    0  501    0  0.00000000000E+00  0.00000000000E+00  0.17009940613E+04  0.17009940613E+04  0.00000000000E+00 0.  1.
         -2   -1    0    0    0  501 -0.00000000000E+00 -0.00000000000E+00 -0.61523316274E+03  0.61523316274E+03  0.00000000000E+00 0. -1.
    2000013    1    1    2    0    0 -0.66260200937E+02 -0.32894873588E+03  0.74351962782E+03  0.12521657726E+04  0.95000000000E+03 0.  0.
   -2000013    1    1    2    0    0  0.66260200937E+02  0.32894873588E+03  0.34224127073E+03  0.10640614514E+04  0.95000000000E+03 0.  0.
<mgrwt>
<rscale>  0 0.20459794E+04</rscale>
<asrwt>0</asrwt>
<pdfrwt beam="1">  1        2 0.26169139E+00 0.20459794E+04</pdfrwt>
<pdfrwt beam="2">  1       -2 0.94651257E-01 0.20459794E+04</pdfrwt>
<totfact> 0.85225022E+00</totfact>
</mgrwt>
</event>
<event>
 4    1  0.2043502E-008  0.2575111E+04  0.7816531E-02  0.8376705E-01
          1   -1    0    0  501    0  0.00000000000E+00  0.00000000000E+00  0.21615579697E+04  0.21615579697E+04  0.00000000000E+00 0. -1.
         -1   -1    0    0    0  501 -0.00000000000E+00 -0.00000000000E+00 -0.76694635543E+03  0.76694635543E+03  0.00000000000E+00 0.  1.
    2000013    1    1    2    0    0  0.17465643705E+03  0.56538150966E+03 -0.26548836030E+02  0.11195382812E+04  0.95000000000E+03 0.  0.
   -2000013    1    1    2    0    0 -0.17465643705E+03 -0.56538150966E+03  0.14211604503E+04  0.18089660439E+04  0.95000000000E+03 0.  0.
<mgrwt>
<rscale>  0 0.25751109E+04</rscale>
<asrwt>0</asrwt>
<pdfrwt beam="1">  1        1 0.33254738E+00 0.25751109E+04</pdfrwt>
<pdfrwt beam="2">  1       -1 0.11799175E+00 0.25751109E+04</pdfrwt>
<totfact> 0.13173856E+00</totfact>
</mgrwt>
</event>
<event>
 4    1  0.2043502E-008  0.2861651E+04  0.7816531E-02  0.8284380E-01
         -2   -1    0    0    0  501 -0.00000000000E+00  0.00000000000E+00  0.10629668900E+04  0.10629668900E+04  0.00000000000E+00 0. -1.
          2   -1    0    0  501    0  0.00000000000E+00 -0.00000000000E+00 -0.19259885440E+04  0.19259885440E+04  0.00000000000E+00 0.  1.
    2000013    1    1    2    0    0 -0.10675350488E+04  0.18088006029E+02 -0.35911808620E+03  0.14735752632E+04  0.95000000000E+03 0.  0.
   -2000013    1    1    2    0    0  0.10675350488E+04 -0.18088006029E+02 -0.50390356777E+03  0.15153801708E+04  0.95000000000E+03 0.  0.
<mgrwt>
<rscale>  0 0.28616513E+04</rscale>
<asrwt>0</asrwt>
<pdfrwt beam="2">  1        2 0.29630593E+00 0.28616513E+04</pdfrwt>
<pdfrwt beam="1">  1       -2 0.16353337E+00 0.28616513E+04</pdfrwt>
<totfact> 0.15090861E+00</totfact>
</mgrwt>
</event>
<event>
 4    1  0.2043502E-008  0.2382523E+04  0.7816531E-02  0.8446076E-01
          2   -1    0    0  501    0  0.00000000000E+00  0.00000000000E+00  0.62468843772E+03  0.62468843772E+03  0.00000000000E+00 0.  1.
         -2   -1    0    0    0  501 -0.00000000000E+00 -0.00000000000E+00 -0.22716979232E+04  0.22716979232E+04  0.00000000000E+00 0. -1.
    2000013    1    1    2    0    0  0.43877039944E+02  0.63651784602E+03 -0.42118377977E+03  0.12194162289E+04  0.95000000000E+03 0.  0.
   -2000013    1    1    2    0    0 -0.43877039944E+02 -0.63651784602E+03 -0.12258257057E+04  0.16769701320E+04  0.95000000000E+03 0.  0.
<mgrwt>
<rscale>  0 0.23825226E+04</rscale>
<asrwt>0</asrwt>
<pdfrwt beam="1">  1        2 0.96105914E-01 0.23825226E+04</pdfrwt>
<pdfrwt beam="2">  1       -2 0.34949199E+00 0.23825226E+04</pdfrwt>
<totfact> 0.66697814E-01</totfact>
</mgrwt>
</event>
<event>
 4    1  0.2043502E-008  0.2461729E+04  0.7816531E-02  0.8416748E-01
         -2   -1    0    0    0  501 -0.00000000000E+00  0.00000000000E+00  0.13643788838E+04  0.13643788838E+04  0.00000000000E+00 0. -1.
          2   -1    0    0  501    0  0.00000000000E+00 -0.00000000000E+00 -0.11104151157E+04  0.11104151157E+04  0.00000000000E+00 0.  1.
    2000013    1    1    2    0    0 -0.60180566138E+03  0.36723727499E+03  0.46862916197E+03  0.12724568997E+04  0.95000000000E+03 0.  0.
   -2000013    1    1    2    0    0  0.60180566138E+03 -0.36723727499E+03 -0.21466539389E+03  0.12023370998E+04  0.95000000000E+03 0.  0.
<mgrwt>
<rscale>  0 0.24617286E+04</rscale>
<asrwt>0</asrwt>
<pdfrwt beam="2">  1        2 0.17083309E+00 0.24617286E+04</pdfrwt>
<pdfrwt beam="1">  1       -2 0.20990444E+00 0.24617286E+04</pdfrwt>
<totfact> 0.22021030E+00</totfact>
</mgrwt>
</event>
<event>
 4    1  0.2043502E-008  0.2569559E+04  0.7816531E-02  0.8378615E-01
          2   -1    0    0  501    0  0.00000000000E+00  0.00000000000E+00  0.37072107440E+04  0.37072107440E+04  0.00000000000E+00 0.  1.
         -2   -1    0    0    0  501 -0.00000000000E+00 -0.00000000000E+00 -0.44525630096E+03  0.44525630096E+03  0.00000000000E+00 0. -1.
    2000013    1    1    2    0    0  0.26896379051E+03 -0.63202411932E+03  0.78143019884E+03  0.14088751413E+04  0.95000000000E+03 0.  0.
   -2000013    1    1    2    0    0 -0.26896379051E+03  0.63202411932E+03  0.24805242442E+04  0.27435919037E+04  0.95000000000E+03 0.  0.
<mgrwt>
<rscale>  0 0.25695595E+04</rscale>
<asrwt>0</asrwt>
<pdfrwt beam="1">  1        2 0.57034009E+00 0.25695595E+04</pdfrwt>
<pdfrwt beam="2">  1       -2 0.68500972E-01 0.25695595E+04</pdfrwt>
<totfact> 0.99794445E-01</totfact>
</mgrwt>
</event>
<event>
 4    1  0.2043502E-008  0.4269001E+04  0.7816531E-02  0.7952375E-01
         -2   -1    0    0    0  501 -0.00000000000E+00  0.00000000000E+00  0.14053484096E+04  0.14053484096E+04  0.00000000000E+00 0. -1.
          2   -1    0    0  501    0  0.00000000000E+00 -0.00000000000E+00 -0.32419659326E+04  0.32419659326E+04  0.00000000000E+00 0.  1.
    2000013    1    1    2    0    0 -0.19928304446E+03  0.17224201176E+04 -0.42564590288E+02  0.19775632829E+04  0.95000000000E+03 0.  0.
   -2000013    1    1    2    0    0  0.19928304446E+03 -0.17224201176E+04 -0.17940529327E+04  0.26697510593E+04  0.95000000000E+03 0.  0.
<mgrwt>
<rscale>  0 0.42690007E+04</rscale>
<asrwt>0</asrwt>
<pdfrwt beam="2">  1        2 0.49876399E+00 0.42690007E+04</pdfrwt>
<pdfrwt beam="1">  1       -2 0.21620745E+00 0.42690007E+04</pdfrwt>
<totfact> 0.98056281E-02</totfact>
</mgrwt>
</event>
<event>
 4    1  0.2043502E-008  0.2573973E+04  0.7816531E-02  0.8377096E-01
          2   -1    0    0  501    0  0.00000000000E+00  0.00000000000E+00  0.23570296950E+04  0.23570296950E+04  0.00000000000E+00 0.  1.
         -2   -1    0    0    0  501 -0.00000000000E+00 -0.00000000000E+00 -0.70272104684E+03  0.70272104684E+03  0.00000000000E+00 0. -1.
    2000013    1    1    2    0    0 -0.44114169351E+03 -0.45084641231E+03  0.15363829230E+04  0.19133324247E+04  0.95000000000E+03 0.  0.
   -2000013    1    1    2    0    0  0.44114169351E+03  0.45084641231E+03  0.11792572514E+03  0.11464183171E+04  0.95000000000E+03 0.  0.
<mgrwt>
<rscale>  0 0.25739731E+04</rscale>
<asrwt>0</asrwt>
<pdfrwt beam="1">  1        2 0.36261995E+00 0.25739731E+04</pdfrwt>
<pdfrwt beam="2">  1       -2 0.10811093E+00 0.25739731E+04</pdfrwt>
<totfact> 0.25547232E+00</totfact>
</mgrwt>
</event>
<event>
 4    1  0.2043502E-008  0.3530670E+04  0.7816531E-02  0.8106560E-01
          2   -1    0    0  501    0  0.00000000000E+00  0.00000000000E+00  0.44554793965E+04  0.44554793965E+04  0.00000000000E+00 0.  1.
         -2   -1    0    0    0  501 -0.00000000000E+00 -0.00000000000E+00 -0.69945501241E+03  0.69945501241E+03  0.00000000000E+00 0. -1.
    2000013    1    1    2    0    0 -0.65699014346E+03  0.12730034585E+04  0.12908391821E+04  0.21496370968E+04  0.95000000000E+03 0.  0.
   -2000013    1    1    2    0    0  0.65699014346E+03 -0.12730034585E+04  0.24651852020E+04  0.30052973121E+04  0.95000000000E+03 0.  0.
<mgrwt>
<rscale>  0 0.35306698E+04</rscale>
<asrwt>0</asrwt>
<pdfrwt beam="1">  1        2 0.68545835E+00 0.35306698E+04</pdfrwt>
<pdfrwt beam="2">  1       -2 0.10760847E+00 0.35306698E+04</pdfrwt>
<totfact> 0.76842766E-02</totfact>
</mgrwt>
</event>
<event>
 4    1  0.2043502E-008  0.2432105E+04  0.7816531E-02  0.8427581E-01
          2   -1    0    0  501    0  0.00000000000E+00  0.00000000000E+00  0.19333026996E+04  0.19333026996E+04  0.00000000000E+00 0.  1.
         -2   -1    0    0    0  501 -0.00000000000E+00 -0.00000000000E+00 -0.76490025330E+03  0.76490025330E+03  0.00000000000E+00 0. -1.
    2000013    1    1    2    0    0 -0.35383907381E+03 -0.65677768090E+03  0.42839039863E+03  0.12816307370E+04  0.95000000000E+03 0.  0.
   -2000013    1    1    2    0    0  0.35383907381E+03  0.65677768090E+03  0.74001204769E+03  0.14165722160E+04  0.95000000000E+03 0.  0.
<mgrwt>
<rscale>  0 0.24321050E+04</rscale>
<asrwt>0</asrwt>
<pdfrwt beam="1">  1        2 0.29743118E+00 0.24321050E+04</pdfrwt>
<pdfrwt beam="2">  1       -2 0.11767696E+00 0.24321050E+04</pdfrwt>
<totfact> 0.36374372E+00</totfact>
</mgrwt>
</event>
<event>
 4    1  0.2043502E-008  0.2976638E+04  0.7816531E-02  0.8250434E-01
         -2   -1    0    0    0  501 -0.00000000000E+00  0.00000000000E+00  0.11077590405E+04  0.11077590405E+04  0.00000000000E+00 0. -1.
          2   -1    0    0  501    0  0.00000000000E+00 -0.00000000000E+00 -0.19996169486E+04  0.19996169486E+04  0.00000000000E+00 0.  1.
    2000013    1    1    2    0    0  0.18406616173E+03 -0.10834994103E+04 -0.78378296023E+03  0.16506565521E+04  0.95000000000E+03 0.  0.
   -2000013    1    1    2    0    0 -0.18406616173E+03  0.10834994103E+04 -0.10807494787E+03  0.14567194371E+04  0.95000000000E+03 0.  0.
<mgrwt>
<rscale>  0 0.29766382E+04</rscale>
<asrwt>0</asrwt>
<pdfrwt beam="2">  1        2 0.30763338E+00 0.29766382E+04</pdfrwt>
<pdfrwt beam="1">  1       -2 0.17042447E+00 0.29766382E+04</pdfrwt>
<totfact> 0.12135305E+00</totfact>
</mgrwt>
</event>
<event>
 4    1  0.2043502E-008  0.2170139E+04  0.7816531E-02  0.8530961E-01
         -2   -1    0    0    0  501 -0.00000000000E+00  0.00000000000E+00  0.54649238865E+03  0.54649238865E+03  0.00000000000E+00 0. -1.
          2   -1    0    0  501    0  0.00000000000E+00 -0.00000000000E+00 -0.21544236365E+04  0.21544236365E+04  0.00000000000E+00 0.  1.
    2000013    1    1    2    0    0 -0.46651163139E+03 -0.96046403447E+01 -0.50643305648E+03  0.11733285099E+04  0.95000000000E+03 0.  0.
   -2000013    1    1    2    0    0  0.46651163139E+03  0.96046403447E+01 -0.11014981914E+04  0.15275875153E+04  0.95000000000E+03 0.  0.
<mgrwt>
<rscale>  0 0.21701393E+04</rscale>
<asrwt>0</asrwt>
<pdfrwt beam="2">  1        2 0.33144979E+00 0.21701393E+04</pdfrwt>
<pdfrwt beam="1">  1       -2 0.84075752E-01 0.21701393E+04</pdfrwt>
<totfact> 0.61991655E+00</totfact>
</mgrwt>
</event>
<event>
 4    1  0.2043502E-008  0.2344489E+04  0.7816531E-02  0.8460584E-01
          2   -1    0    0  501    0  0.00000000000E+00  0.00000000000E+00  0.16174904781E+04  0.16174904781E+04  0.00000000000E+00 0.  1.
         -2   -1    0    0    0  501 -0.00000000000E+00 -0.00000000000E+00 -0.84956105791E+03  0.84956105791E+03  0.00000000000E+00 0. -1.
    2000013    1    1    2    0    0  0.54645639324E+03 -0.11312932816E+02  0.82153273534E+03  0.13697293920E+04  0.95000000000E+03 0.  0.
   -2000013    1    1    2    0    0 -0.54645639324E+03  0.11312932816E+02 -0.53603315192E+02  0.10973221439E+04  0.95000000000E+03 0.  0.
<mgrwt>
<rscale>  0 0.23444888E+04</rscale>
<asrwt>0</asrwt>
<pdfrwt beam="1">  1        2 0.24884469E+00 0.23444888E+04</pdfrwt>
<pdfrwt beam="2">  1       -2 0.13070170E+00 0.23444888E+04</pdfrwt>
<totfact> 0.42202280E+00</totfact>
</mgrwt>
</event>
<event>
 4    1  0.2043502E-008  0.2168719E+04  0.7816531E-02  0.8531562E-01
         -2   -1    0    0    0  501 -0.00000000000E+00  0.00000000000E+00  0.80984432099E+03  0.80984432099E+03  0.00000000000E+00 0. -1.
          2   -1    0    0  501    0  0.00000000000E+00 -0.00000000000E+00 -0.14519274819E+04  0.14519274819E+04  0.00000000000E+00 0.  1.
    2000013    1    1    2    0    0  0.12009288558E+03 -0.23762306783E+02  0.20904686947E+03  0.98040172482E+03  0.95000000000E+03 0.  0.
   -2000013    1    1    2    0    0 -0.12009288558E+03  0.23762306783E+02 -0.85113003041E+03  0.12813700781E+04  0.95000000000E+03 0.  0.
<mgrwt>
<rscale>  0 0.21687187E+04</rscale>
<asrwt>0</asrwt>
<pdfrwt beam="2">  1        2 0.22337346E+00 0.21687187E+04</pdfrwt>
<pdfrwt beam="1">  1       -2 0.12459144E+00 0.21687187E+04</pdfrwt>
<totfact> 0.59888798E+00</totfact>
</mgrwt>
</event>
<event>
 4    1  0.2043502E-008  0.2537254E+04  0.7816531E-02  0.8389833E-01
         -2   -1    0    0    0  501 -0.00000000000E+00  0.00000000000E+00  0.99470382806E+03  0.99470382806E+03  0.00000000000E+00 0. -1.
          2   -1    0    0  501    0  0.00000000000E+00 -0.00000000000E+00 -0.16179836274E+04  0.16179836274E+04  0.00000000000E+00 0.  1.
    2000013    1    1    2    0    0 -0.31905684318E+03  0.76791971683E+03 -0.43949470874E+03  0.13368446281E+04  0.95000000000E+03 0.  0.
   -2000013    1    1    2    0    0  0.31905684318E+03 -0.76791971683E+03 -0.18378509063E+03  0.12758428274E+04  0.95000000000E+03 0.  0.
<mgrwt>
<rscale>  0 0.25372540E+04</rscale>
<asrwt>0</asrwt>
<pdfrwt beam="2">  1        2 0.24892056E+00 0.25372540E+04</pdfrwt>
<pdfrwt beam="1">  1       -2 0.15303136E+00 0.25372540E+04</pdfrwt>
<totfact> 0.27527693E+00</totfact>
</mgrwt>
</event>
<event>
 4    1  0.2043502E-008  0.3090079E+04  0.7816531E-02  0.8218466E-01
         -2   -1    0    0    0  501 -0.00000000000E+00  0.00000000000E+00  0.93898133160E+03  0.93898133160E+03  0.00000000000E+00 0. -1.
          2   -1    0    0  501    0  0.00000000000E+00 -0.00000000000E+00 -0.25422735265E+04  0.25422735265E+04  0.00000000000E+00 0.  1.
    2000013    1    1    2    0    0 -0.48641403227E+03  0.25918800430E+03  0.42259601701E+03  0.11768026283E+04  0.95000000000E+03 0.  0.
   -2000013    1    1    2    0    0  0.48641403227E+03 -0.25918800430E+03 -0.20258882119E+04  0.23044522299E+04  0.95000000000E+03 0.  0.
<mgrwt>
<rscale>  0 0.30900792E+04</rscale>
<asrwt>0</asrwt>
<pdfrwt beam="2">  1        2 0.39111900E+00 0.30900792E+04</pdfrwt>
<pdfrwt beam="1">  1       -2 0.14445867E+00 0.30900792E+04</pdfrwt>
<totfact> 0.92471566E-01</totfact>
</mgrwt>
</event>
<event>
 4    1  0.2043502E-008  0.2749398E+04  0.7816531E-02  0.8319153E-01
          2   -1    0    0  501    0  0.00000000000E+00  0.00000000000E+00  0.14760970012E+04  0.14760970012E+04  0.00000000000E+00 0.  1.
         -2   -1    0    0    0  501 -0.00000000000E+00 -0.00000000000E+00 -0.12802662353E+04  0.12802662353E+04  0.00000000000E+00 0. -1.
    2000013    1    1    2    0    0  0.10646160796E+03  0.94167228219E+03 -0.20153245410E+03  0.13569068100E+04  0.95000000000E+03 0.  0.
   -2000013    1    1    2    0    0 -0.10646160796E+03 -0.94167228219E+03  0.39736322006E+03  0.13994564265E+04  0.95000000000E+03 0.  0.
<mgrwt>
<rscale>  0 0.27493979E+04</rscale>
<asrwt>0</asrwt>
<pdfrwt beam="1">  1        2 0.22709185E+00 0.27493979E+04</pdfrwt>
<pdfrwt beam="2">  1       -2 0.19696404E+00 0.27493979E+04</pdfrwt>
<totfact> 0.15938206E+00</totfact>
</mgrwt>
</event>
<event>
 4    1  0.2043502E-008  0.2723221E+04  0.7816531E-02  0.8327510E-01
          1   -1    0    0  501    0  0.00000000000E+00  0.00000000000E+00  0.31214609353E+04  0.31214609353E+04  0.00000000000E+00 0. -1.
         -1   -1    0    0    0  501 -0.00000000000E+00 -0.00000000000E+00 -0.59394716607E+03  0.59394716607E+03  0.00000000000E+00 0.  1.
    2000013    1    1    2    0    0 -0.53314386746E+03  0.81452823582E+03  0.13476861373E+04  0.19147993511E+04  0.95000000000E+03 0.  0.
   -2000013    1    1    2    0    0  0.53314386746E+03 -0.81452823582E+03  0.11798276319E+04  0.18006087502E+04  0.95000000000E+03 0.  0.
<mgrwt>
<rscale>  0 0.27232208E+04</rscale>
<asrwt>0</asrwt>
<pdfrwt beam="1">  1        1 0.48022475E+00 0.27232208E+04</pdfrwt>
<pdfrwt beam="2">  1       -1 0.91376489E-01 0.27232208E+04</pdfrwt>
<totfact> 0.49496168E-01</totfact>
</mgrwt>
</event>
<event>
 4    1  0.2043502E-008  0.3533198E+04  0.7816531E-02  0.8105967E-01
          2   -1    0    0  501    0  0.00000000000E+00  0.00000000000E+00  0.20473899720E+04  0.20473899720E+04  0.00000000000E+00 0.  1.
         -2   -1    0    0    0  501 -0.00000000000E+00 -0.00000000000E+00 -0.15243169915E+04  0.15243169915E+04  0.00000000000E+00 0. -1.
    2000013    1    1    2    0    0  0.16628186721E+03 -0.14109046886E+04 -0.19063010022E+03  0.17196341282E+04  0.95000000000E+03 0.  0.
   -2000013    1    1    2    0    0 -0.16628186721E+03  0.14109046886E+04  0.71370308075E+03  0.18520728353E+04  0.95000000000E+03 0.  0.
<mgrwt>
<rscale>  0 0.35331976E+04</rscale>
<asrwt>0</asrwt>
<pdfrwt beam="1">  1        2 0.31498307E+00 0.35331976E+04</pdfrwt>
<pdfrwt beam="2">  1       -2 0.23451031E+00 0.35331976E+04</pdfrwt>
<totfact> 0.41286368E-01</totfact>
</mgrwt>
</event>
<event>
 4    1  0.2043502E-008  0.2516449E+04  0.7816531E-02  0.8397149E-01
         -1   -1    0    0    0  501 -0.00000000000E+00  0.00000000000E+00  0.60090959210E+03  0.60090959210E+03  0.00000000000E+00 0.  1.
          1   -1    0    0  501    0  0.00000000000E+00 -0.00000000000E+00 -0.26345534189E+04  0.26345534189E+04  0.00000000000E+00 0. -1.
    2000013    1    1    2    0    0  0.34656080322E+02 -0.76420290312E+03 -0.14139869721E+04  0.18673688116E+04  0.95000000000E+03 0.  0.
   -2000013    1    1    2    0    0 -0.34656080322E+02  0.76420290312E+03 -0.61965685470E+03  0.13680941995E+04  0.95000000000E+03 0.  0.
<mgrwt>
<rscale>  0 0.25164486E+04</rscale>
<asrwt>0</asrwt>
<pdfrwt beam="2">  1        1 0.40531591E+00 0.25164486E+04</pdfrwt>
<pdfrwt beam="1">  1       -1 0.92447629E-01 0.25164486E+04</pdfrwt>
<totfact> 0.11014408E+00</totfact>
</mgrwt>
</event>
<event>
 4    1  0.2043502E-008  0.2473982E+04  0.7816531E-02  0.8412314E-01
         -2   -1    0    0    0  501 -0.00000000000E+00  0.00000000000E+00  0.40475477848E+04  0.40475477848E+04  0.00000000000E+00 0. -1.
          2   -1    0    0  501    0  0.00000000000E+00 -0.00000000000E+00 -0.37804276302E+03  0.37804276302E+03  0.00000000000E+00 0.  1.
    2000013    1    1    2    0    0 -0.19026758950E+02 -0.77579880753E+03  0.15495420425E+04  0.19763112985E+04  0.95000000000E+03 0.  0.
   -2000013    1    1    2    0    0  0.19026758950E+02  0.77579880753E+03  0.21199629793E+04  0.24492792493E+04  0.95000000000E+03 0.  0.
<mgrwt>
<rscale>  0 0.24739815E+04</rscale>
<asrwt>0</asrwt>
<pdfrwt beam="2">  1        2 0.58160428E-01 0.24739815E+04</pdfrwt>
<pdfrwt beam="1">  1       -2 0.62269963E+00 0.24739815E+04</pdfrwt>
<totfact> 0.31038634E-02</totfact>
</mgrwt>
</event>
<event>
 4    1  0.2043502E-008  0.3477183E+04  0.7816531E-02  0.8119219E-01
          2   -1    0    0  501    0  0.00000000000E+00  0.00000000000E+00  0.12596604245E+04  0.12596604245E+04  0.00000000000E+00 0.  1.
         -2   -1    0    0    0  501 -0.00000000000E+00 -0.00000000000E+00 -0.23996156948E+04  0.23996156948E+04  0.00000000000E+00 0. -1.
    2000013    1    1    2    0    0  0.12251987476E+04 -0.28728257264E+03 -0.13408381540E+04  0.20697802306E+04  0.95000000000E+03 0.  0.
   -2000013    1    1    2    0    0 -0.12251987476E+04  0.28728257264E+03  0.20088288366E+03  0.15894958888E+04  0.95000000000E+03 0.  0.
<mgrwt>
<rscale>  0 0.34771833E+04</rscale>
<asrwt>0</asrwt>
<pdfrwt beam="1">  1        2 0.19379391E+00 0.34771833E+04</pdfrwt>
<pdfrwt beam="2">  1       -2 0.36917164E+00 0.34771833E+04</pdfrwt>
<totfact> 0.16880012E-01</totfact>
</mgrwt>
</event>
<event>
 4    1  0.2043502E-008  0.2592692E+04  0.7816531E-02  0.8370688E-01
         -2   -1    0    0    0  501 -0.00000000000E+00  0.00000000000E+00  0.54065562139E+03  0.54065562139E+03  0.00000000000E+00 0. -1.
          2   -1    0    0  501    0  0.00000000000E+00 -0.00000000000E+00 -0.31082870634E+04  0.31082870634E+04  0.00000000000E+00 0.  1.
    2000013    1    1    2    0    0  0.48784933335E+03 -0.66403608115E+03 -0.17268033066E+04  0.21361859818E+04  0.95000000000E+03 0.  0.
   -2000013    1    1    2    0    0 -0.48784933335E+03  0.66403608115E+03 -0.84082813535E+03  0.15127567030E+04  0.95000000000E+03 0.  0.
<mgrwt>
<rscale>  0 0.25926919E+04</rscale>
<asrwt>0</asrwt>
<pdfrwt beam="2">  1        2 0.47819802E+00 0.25926919E+04</pdfrwt>
<pdfrwt beam="1">  1       -2 0.83177787E-01 0.25926919E+04</pdfrwt>
<totfact> 0.16655376E+00</totfact>
</mgrwt>
</event>
<event>
 4    1  0.2043502E-008  0.2120232E+04  0.7816531E-02  0.8552383E-01
         -2   -1    0    0    0  501 -0.00000000000E+00  0.00000000000E+00  0.51042444666E+03  0.51042444666E+03  0.00000000000E+00 0. -1.
          2   -1    0    0  501    0  0.00000000000E+00 -0.00000000000E+00 -0.22017880694E+04  0.22017880694E+04  0.00000000000E+00 0.  1.
    2000013    1    1    2    0    0  0.18666672748E+03 -0.42239413983E+03 -0.73065870571E+03  0.12843766662E+04  0.95000000000E+03 0.  0.
   -2000013    1    1    2    0    0 -0.18666672748E+03  0.42239413983E+03 -0.96070491708E+03  0.14278358499E+04  0.95000000000E+03 0.  0.
<mgrwt>
<rscale>  0 0.21202325E+04</rscale>
<asrwt>0</asrwt>
<pdfrwt beam="2">  1        2 0.33873662E+00 0.21202325E+04</pdfrwt>
<pdfrwt beam="1">  1       -2 0.78526838E-01 0.21202325E+04</pdfrwt>
<totfact> 0.68307859E+00</totfact>
</mgrwt>
</event>
<event>
 4    1  0.2043502E-008  0.2546648E+04  0.7816531E-02  0.8386553E-01
         -2   -1    0    0    0  501 -0.00000000000E+00  0.00000000000E+00  0.61558443805E+03  0.61558443805E+03  0.00000000000E+00 0. -1.
          2   -1    0    0  501    0  0.00000000000E+00 -0.00000000000E+00 -0.26338450013E+04  0.26338450013E+04  0.00000000000E+00 0.  1.
    2000013    1    1    2    0    0  0.65009245176E+02  0.83853956948E+03 -0.87242235666E+03  0.15398037472E+04  0.95000000000E+03 0.  0.
   -2000013    1    1    2    0    0 -0.65009245176E+02 -0.83853956948E+03 -0.11458382066E+04  0.17096256922E+04  0.95000000000E+03 0.  0.
<mgrwt>
<rscale>  0 0.25466480E+04</rscale>
<asrwt>0</asrwt>
<pdfrwt beam="2">  1        2 0.40520692E+00 0.25466480E+04</pdfrwt>
<pdfrwt beam="1">  1       -2 0.94705298E-01 0.25466480E+04</pdfrwt>
<totfact> 0.24239874E+00</totfact>
</mgrwt>
</event>
<event>
 4    1  0.2043502E-008  0.3204237E+04  0.7816531E-02  0.8187699E-01
         -2   -1    0    0    0  501 -0.00000000000E+00  0.00000000000E+00  0.15147085162E+04  0.15147085162E+04  0.00000000000E+00 0. -1.
          2   -1    0    0  501    0  0.00000000000E+00 -0.00000000000E+00 -0.16945723638E+04  0.16945723638E+04  0.00000000000E+00 0.  1.
    2000013    1    1    2    0    0  0.11300627011E+04  0.30999393339E+03  0.45049625982E+03  0.15743521929E+04  0.95000000000E+03 0.  0.
   -2000013    1    1    2    0    0 -0.11300627011E+04 -0.30999393339E+03 -0.63036010747E+03  0.16349286872E+04  0.95000000000E+03 0.  0.
<mgrwt>
<rscale>  0 0.32042367E+04</rscale>
<asrwt>0</asrwt>
<pdfrwt beam="2">  1        2 0.26070344E+00 0.32042367E+04</pdfrwt>
<pdfrwt beam="1">  1       -2 0.23303208E+00 0.32042367E+04</pdfrwt>
<totfact> 0.68042052E-01</totfact>
</mgrwt>
</event>
<event>
 4    1  0.2043502E-008  0.2770244E+04  0.7816531E-02  0.8312566E-01
          2   -1    0    0  501    0  0.00000000000E+00  0.00000000000E+00  0.18020065934E+04  0.18020065934E+04  0.00000000000E+00 0.  1.
         -2   -1    0    0    0  501 -0.00000000000E+00 -0.00000000000E+00 -0.10646815818E+04  0.10646815818E+04  0.00000000000E+00 0. -1.
    2000013    1    1    2    0    0 -0.81861087565E+03 -0.57416138577E+03  0.23663477499E+03  0.13993859651E+04  0.95000000000E+03 0.  0.
   -2000013    1    1    2    0    0  0.81861087565E+03  0.57416138577E+03  0.50069023656E+03  0.14673022101E+04  0.95000000000E+03 0.  0.
<mgrwt>
<rscale>  0 0.27702442E+04</rscale>
<asrwt>0</asrwt>
<pdfrwt beam="1">  1        2 0.27723178E+00 0.27702442E+04</pdfrwt>
<pdfrwt beam="2">  1       -2 0.16379717E+00 0.27702442E+04</pdfrwt>
<totfact> 0.17737139E+00</totfact>
</mgrwt>
</event>
<event>
 4    1  0.2043502E-008  0.3241579E+04  0.7816531E-02  0.8177922E-01
          2   -1    0    0  501    0  0.00000000000E+00  0.00000000000E+00  0.14176213921E+04  0.14176213921E+04  0.00000000000E+00 0.  1.
         -2   -1    0    0    0  501 -0.00000000000E+00 -0.00000000000E+00 -0.18530747718E+04  0.18530747718E+04  0.00000000000E+00 0. -1.
    2000013    1    1    2    0    0 -0.12307017851E+04 -0.23819355854E+03  0.17706195335E+03  0.15827867799E+04  0.95000000000E+03 0.  0.
   -2000013    1    1    2    0    0  0.12307017851E+04  0.23819355854E+03 -0.61251533304E+03  0.16879093840E+04  0.95000000000E+03 0.  0.
<mgrwt>
<rscale>  0 0.32415789E+04</rscale>
<asrwt>0</asrwt>
<pdfrwt beam="1">  1        2 0.21809560E+00 0.32415789E+04</pdfrwt>
<pdfrwt beam="2">  1       -2 0.28508842E+00 0.32415789E+04</pdfrwt>
<totfact> 0.46515480E-01</totfact>
</mgrwt>
</event>
<event>
 4    1  0.2043502E-008  0.3268517E+04  0.7816531E-02  0.8170953E-01
         -2   -1    0    0    0  501 -0.00000000000E+00  0.00000000000E+00  0.81015940268E+03  0.81015940268E+03  0.00000000000E+00 0. -1.
          2   -1    0    0  501    0  0.00000000000E+00 -0.00000000000E+00 -0.32966353797E+04  0.32966353797E+04  0.00000000000E+00 0.  1.
    2000013    1    1    2    0    0 -0.10450380282E+04 -0.78488224705E+03 -0.15514077918E+04  0.22399800800E+04  0.95000000000E+03 0.  0.
   -2000013    1    1    2    0    0  0.10450380282E+04  0.78488224705E+03 -0.93506818517E+03  0.18668147024E+04  0.95000000000E+03 0.  0.
<mgrwt>
<rscale>  0 0.32685166E+04</rscale>
<asrwt>0</asrwt>
<pdfrwt beam="2">  1        2 0.50717467E+00 0.32685166E+04</pdfrwt>
<pdfrwt beam="1">  1       -2 0.12463991E+00 0.32685166E+04</pdfrwt>
<totfact> 0.45228539E-01</totfact>
</mgrwt>
</event>
<event>
 4    1  0.2043502E-008  0.1947651E+04  0.7816531E-02  0.8631494E-01
          1   -1    0    0  501    0  0.00000000000E+00  0.00000000000E+00  0.83913603739E+03  0.83913603739E+03  0.00000000000E+00 0.  1.
         -1   -1    0    0    0  501 -0.00000000000E+00 -0.00000000000E+00 -0.11301341957E+04  0.11301341957E+04  0.00000000000E+00 0. -1.
    2000013    1    1    2    0    0  0.10102341603E+03  0.18414626860E+03 -0.10355668145E+03  0.97843730770E+03  0.95000000000E+03 0.  0.
   -2000013    1    1    2    0    0 -0.10102341603E+03 -0.18414626860E+03 -0.18744147688E+03  0.99083292541E+03  0.95000000000E+03 0.  0.
<mgrwt>
<rscale>  0 0.19476512E+04</rscale>
<asrwt>0</asrwt>
<pdfrwt beam="1">  1        1 0.12909785E+00 0.19476512E+04</pdfrwt>
<pdfrwt beam="2">  1       -1 0.17386680E+00 0.19476512E+04</pdfrwt>
<totfact> 0.43943992E+00</totfact>
</mgrwt>
</event>
<event>
 4    1  0.2043502E-008  0.2436936E+04  0.7816531E-02  0.8425803E-01
          2   -1    0    0  501    0  0.00000000000E+00  0.00000000000E+00  0.11695328160E+04  0.11695328160E+04  0.00000000000E+00 0.  1.
         -2   -1    0    0    0  501 -0.00000000000E+00 -0.00000000000E+00 -0.12694507822E+04  0.12694507822E+04  0.00000000000E+00 0. -1.
    2000013    1    1    2    0    0 -0.56022879889E+03 -0.48639090885E+02 -0.56608819266E+03  0.12406360909E+04  0.95000000000E+03 0.  0.
   -2000013    1    1    2    0    0  0.56022879889E+03  0.48639090885E+02  0.46617022647E+03  0.11983475073E+04  0.95000000000E+03 0.  0.
<mgrwt>
<rscale>  0 0.24369361E+04</rscale>
<asrwt>0</asrwt>
<pdfrwt beam="1">  1        2 0.17992813E+00 0.24369361E+04</pdfrwt>
<pdfrwt beam="2">  1       -2 0.19530012E+00 0.24369361E+04</pdfrwt>
<totfact> 0.25302404E+00</totfact>
</mgrwt>
</event>
<event>
 4    1  0.2043502E-008  0.3700225E+04  0.7816531E-02  0.8067912E-01
         -2   -1    0    0    0  501 -0.00000000000E+00  0.00000000000E+00  0.12057038471E+04  0.12057038471E+04  0.00000000000E+00 0. -1.
          2   -1    0    0  501    0  0.00000000000E+00 -0.00000000000E+00 -0.28389368235E+04  0.28389368235E+04  0.00000000000E+00 0.  1.
    2000013    1    1    2    0    0 -0.10482889548E+04  0.11666218174E+04 -0.10854803964E+04  0.21308880517E+04  0.95000000000E+03 0.  0.
   -2000013    1    1    2    0    0  0.10482889548E+04 -0.11666218174E+04 -0.54775258000E+03  0.19137526190E+04  0.95000000000E+03 0.  0.
<mgrwt>
<rscale>  0 0.37002254E+04</rscale>
<asrwt>0</asrwt>
<pdfrwt beam="2">  1        2 0.43675951E+00 0.37002254E+04</pdfrwt>
<pdfrwt beam="1">  1       -2 0.18549290E+00 0.37002254E+04</pdfrwt>
<totfact> 0.29419821E-01</totfact>
</mgrwt>
</event>
<event>
 4    1  0.2043502E-008  0.2882920E+04  0.7816531E-02  0.8277977E-01
         -2   -1    0    0    0  501 -0.00000000000E+00  0.00000000000E+00  0.16402090551E+04  0.16402090551E+04  0.00000000000E+00 0. -1.
          2   -1    0    0  501    0  0.00000000000E+00 -0.00000000000E+00 -0.12667938985E+04  0.12667938985E+04  0.00000000000E+00 0.  1.
    2000013    1    1    2    0    0  0.36857362731E+03 -0.41872621819E+03 -0.75064309928E+03  0.13330953556E+04  0.95000000000E+03 0.  0.
   -2000013    1    1    2    0    0 -0.36857362731E+03  0.41872621819E+03  0.11240582558E+04  0.15739075980E+04  0.95000000000E+03 0.  0.
<mgrwt>
<rscale>  0 0.28829199E+04</rscale>
<asrwt>0</asrwt>
<pdfrwt beam="2">  1        2 0.19489137E+00 0.28829199E+04</pdfrwt>
<pdfrwt beam="1">  1       -2 0.25233986E+00 0.28829199E+04</pdfrwt>
<totfact> 0.92892186E-01</totfact>
</mgrwt>
</event>
<event>
 4    1  0.2043502E-008  0.3204720E+04  0.7816531E-02  0.8187572E-01
          2   -1    0    0  501    0  0.00000000000E+00  0.00000000000E+00  0.38773834796E+04  0.38773834796E+04  0.00000000000E+00 0.  1.
         -2   -1    0    0    0  501 -0.00000000000E+00 -0.00000000000E+00 -0.66218833226E+03  0.66218833226E+03  0.00000000000E+00 0. -1.
    2000013    1    1    2    0    0  0.11914718256E+04  0.48159815497E+03  0.17722818566E+04  0.23864251242E+04  0.95000000000E+03 0.  0.
   -2000013    1    1    2    0    0 -0.11914718256E+04 -0.48159815497E+03  0.14429132907E+04  0.21531466877E+04  0.95000000000E+03 0.  0.
<mgrwt>
<rscale>  0 0.32047203E+04</rscale>
<asrwt>0</asrwt>
<pdfrwt beam="1">  1        2 0.59652052E+00 0.32047203E+04</pdfrwt>
<pdfrwt beam="2">  1       -2 0.10187513E+00 0.32047203E+04</pdfrwt>
<totfact> 0.28434522E-01</totfact>
</mgrwt>
</event>
<event>
 4    1  0.2043502E-008  0.2405204E+04  0.7816531E-02  0.8437558E-01
         -2   -1    0    0    0  501 -0.00000000000E+00  0.00000000000E+00  0.83967487921E+03  0.83967487921E+03  0.00000000000E+00 0. -1.
          2   -1    0    0  501    0  0.00000000000E+00 -0.00000000000E+00 -0.17223941991E+04  0.17223941991E+04  0.00000000000E+00 0.  1.
    2000013    1    1    2    0    0  0.36661719230E+03 -0.20275702832E+03 -0.10877577690E+04  0.15037405169E+04  0.95000000000E+03 0.  0.
   -2000013    1    1    2    0    0 -0.36661719230E+03  0.20275702832E+03  0.20503844911E+03  0.10583285614E+04  0.95000000000E+03 0.  0.
<mgrwt>
<rscale>  0 0.24052036E+04</rscale>
<asrwt>0</asrwt>
<pdfrwt beam="2">  1        2 0.26498372E+00 0.24052036E+04</pdfrwt>
<pdfrwt beam="1">  1       -2 0.12918075E+00 0.24052036E+04</pdfrwt>
<totfact> 0.37805664E+00</totfact>
</mgrwt>
</event>
<event>
 4    1  0.2043502E-008  0.2173881E+04  0.7816531E-02  0.8529379E-01
          2   -1    0    0  501    0  0.00000000000E+00  0.00000000000E+00  0.18990104757E+04  0.18990104757E+04  0.00000000000E+00 0.  1.
         -2   -1    0    0    0  501 -0.00000000000E+00 -0.00000000000E+00 -0.62213414362E+03  0.62213414362E+03  0.00000000000E+00 0. -1.
    2000013    1    1    2    0    0 -0.46860692203E+03  0.14545895067E+01  0.92096064444E+03  0.14036605971E+04  0.95000000000E+03 0.  0.
   -2000013    1    1    2    0    0  0.46860692203E+03 -0.14545895067E+01  0.35591568763E+03  0.11174840222E+04  0.95000000000E+03 0.  0.
<mgrwt>
<rscale>  0 0.21738806E+04</rscale>
<asrwt>0</asrwt>
<pdfrwt beam="1">  1        2 0.29215546E+00 0.21738806E+04</pdfrwt>
<pdfrwt beam="2">  1       -2 0.95712946E-01 0.21738806E+04</pdfrwt>
<totfact> 0.63779693E+00</totfact>
</mgrwt>
</event>
<event>
 4    1  0.2043502E-008  0.2572326E+04  0.7816531E-02  0.8377662E-01
         -2   -1    0    0    0  501 -0.00000000000E+00  0.00000000000E+00  0.72465276308E+03  0.72465276308E+03  0.00000000000E+00 0. -1.
          2   -1    0    0  501    0  0.00000000000E+00 -0.00000000000E+00 -0.22827704188E+04  0.22827704188E+04  0.00000000000E+00 0.  1.
    2000013    1    1    2    0    0 -0.36428390672E+03 -0.62718632306E+03 -0.13344341118E+04  0.17914463004E+04  0.95000000000E+03 0.  0.
   -2000013    1    1    2    0    0  0.36428390672E+03  0.62718632306E+03 -0.22368354397E+03  0.12159768815E+04  0.95000000000E+03 0.  0.
<mgrwt>
<rscale>  0 0.25723265E+04</rscale>
<asrwt>0</asrwt>
<pdfrwt beam="2">  1        2 0.35119546E+00 0.25723265E+04</pdfrwt>
<pdfrwt beam="1">  1       -2 0.11148504E+00 0.25723265E+04</pdfrwt>
<totfact> 0.26140683E+00</totfact>
</mgrwt>
</event>
<event>
 4    1  0.2043502E-008  0.3424345E+04  0.7816531E-02  0.8131957E-01
         -2   -1    0    0    0  501 -0.00000000000E+00  0.00000000000E+00  0.11170646126E+04  0.11170646126E+04  0.00000000000E+00 0.  1.
          2   -1    0    0  501    0  0.00000000000E+00 -0.00000000000E+00 -0.26243193839E+04  0.26243193839E+04  0.00000000000E+00 0. -1.
    2000013    1    1    2    0    0 -0.12989209332E+04  0.34005819479E+03 -0.23399012904E+03  0.16613508199E+04  0.95000000000E+03 0.  0.
   -2000013    1    1    2    0    0  0.12989209332E+04 -0.34005819479E+03 -0.12732646422E+04  0.20800331765E+04  0.95000000000E+03 0.  0.
<mgrwt>
<rscale>  0 0.34243448E+04</rscale>
<asrwt>0</asrwt>
<pdfrwt beam="2">  1        2 0.40374144E+00 0.34243448E+04</pdfrwt>
<pdfrwt beam="1">  1       -2 0.17185610E+00 0.34243448E+04</pdfrwt>
<totfact> 0.50325479E-01</totfact>
</mgrwt>
</event>
<event>
 4    1  0.2043502E-008  0.2723911E+04  0.7816531E-02  0.8327288E-01
         -2   -1    0    0    0  501 -0.00000000000E+00  0.00000000000E+00  0.16754299099E+04  0.16754299099E+04  0.00000000000E+00 0. -1.
          2   -1    0    0  501    0  0.00000000000E+00 -0.00000000000E+00 -0.11071325702E+04  0.11071325702E+04  0.00000000000E+00 0.  1.
    2000013    1    1    2    0    0  0.85695139218E+03 -0.46690003278E+03  0.27612504009E+03  0.13896425321E+04  0.95000000000E+03 0.  0.
   -2000013    1    1    2    0    0 -0.85695139218E+03  0.46690003278E+03  0.29217229959E+03  0.13929199481E+04  0.95000000000E+03 0.  0.
<mgrwt>
<rscale>  0 0.27239112E+04</rscale>
<asrwt>0</asrwt>
<pdfrwt beam="2">  1        2 0.17032809E+00 0.27239112E+04</pdfrwt>
<pdfrwt beam="1">  1       -2 0.25775845E+00 0.27239112E+04</pdfrwt>
<totfact> 0.10873384E+00</totfact>
</mgrwt>
</event>
<event>
 4    1  0.2043502E-008  0.3062361E+04  0.7816531E-02  0.8226144E-01
         -2   -1    0    0    0  501 -0.00000000000E+00  0.00000000000E+00  0.12340882161E+04  0.12340882161E+04  0.00000000000E+00 0. -1.
          2   -1    0    0  501    0  0.00000000000E+00 -0.00000000000E+00 -0.18997941821E+04  0.18997941821E+04  0.00000000000E+00 0.  1.
    2000013    1    1    2    0    0 -0.10370887692E+04  0.60535241381E+03 -0.33591501956E+03  0.15675916434E+04  0.95000000000E+03 0.  0.
   -2000013    1    1    2    0    0  0.10370887692E+04 -0.60535241381E+03 -0.32979094649E+03  0.15662907548E+04  0.95000000000E+03 0.  0.
<mgrwt>
<rscale>  0 0.30623609E+04</rscale>
<asrwt>0</asrwt>
<pdfrwt beam="2">  1        2 0.29227603E+00 0.30623609E+04</pdfrwt>
<pdfrwt beam="1">  1       -2 0.18985972E+00 0.30623609E+04</pdfrwt>
<totfact> 0.10049266E+00</totfact>
</mgrwt>
</event>
<event>
 4    1  0.2043502E-008  0.2061105E+04  0.7816531E-02  0.8578573E-01
         -2   -1    0    0    0  501 -0.00000000000E+00  0.00000000000E+00  0.60177711454E+03  0.60177711454E+03  0.00000000000E+00 0. -1.
          2   -1    0    0  501    0  0.00000000000E+00 -0.00000000000E+00 -0.17648360768E+04  0.17648360768E+04  0.00000000000E+00 0.  1.
    2000013    1    1    2    0    0  0.38451316633E+03  0.10650084322E+03 -0.56019727504E+03  0.11728230010E+04  0.95000000000E+03 0.  0.
   -2000013    1    1    2    0    0 -0.38451316633E+03 -0.10650084322E+03 -0.60286168725E+03  0.11937901904E+04  0.95000000000E+03 0.  0.
<mgrwt>
<rscale>  0 0.20611045E+04</rscale>
<asrwt>0</asrwt>
<pdfrwt beam="2">  1        2 0.27151324E+00 0.20611045E+04</pdfrwt>
<pdfrwt beam="1">  1       -2 0.92581095E-01 0.20611045E+04</pdfrwt>
<totfact> 0.82586297E+00</totfact>
</mgrwt>
</event>
<event>
 4    1  0.2043502E-008  0.2086865E+04  0.7816531E-02  0.8567051E-01
         -2   -1    0    0    0  501 -0.00000000000E+00  0.00000000000E+00  0.13217892186E+04  0.13217892186E+04  0.00000000000E+00 0. -1.
          2   -1    0    0  501    0  0.00000000000E+00 -0.00000000000E+00 -0.82369535604E+03  0.82369535604E+03  0.00000000000E+00 0.  1.
    2000013    1    1    2    0    0 -0.36419783403E+03 -0.74000797813E+02  0.47460769461E+03  0.11251082811E+04  0.95000000000E+03 0.  0.
   -2000013    1    1    2    0    0  0.36419783403E+03  0.74000797813E+02  0.23486167965E+02  0.10203762936E+04  0.95000000000E+03 0.  0.
<mgrwt>
<rscale>  0 0.20868652E+04</rscale>
<asrwt>0</asrwt>
<pdfrwt beam="2">  1        2 0.12672236E+00 0.20868652E+04</pdfrwt>
<pdfrwt beam="1">  1       -2 0.20335219E+00 0.20868652E+04</pdfrwt>
<totfact> 0.38621136E+00</totfact>
</mgrwt>
</event>
<event>
 4    1  0.2043502E-008  0.2854708E+04  0.7816531E-02  0.8286482E-01
          2   -1    0    0  501    0  0.00000000000E+00  0.00000000000E+00  0.14756023096E+04  0.14756023096E+04  0.00000000000E+00 0.  1.
         -2   -1    0    0    0  501 -0.00000000000E+00 -0.00000000000E+00 -0.13806831880E+04  0.13806831880E+04  0.00000000000E+00 0. -1.
    2000013    1    1    2    0    0  0.66902045616E+03 -0.82864514465E+03  0.71930272821E+02  0.14289559513E+04  0.95000000000E+03 0.  0.
   -2000013    1    1    2    0    0 -0.66902045616E+03  0.82864514465E+03  0.22988848747E+02  0.14273295463E+04  0.95000000000E+03 0.  0.
<mgrwt>
<rscale>  0 0.28547079E+04</rscale>
<asrwt>0</asrwt>
<pdfrwt beam="1">  1        2 0.22701574E+00 0.28547079E+04</pdfrwt>
<pdfrwt beam="2">  1       -2 0.21241280E+00 0.28547079E+04</pdfrwt>
<totfact> 0.12543207E+00</totfact>
</mgrwt>
</event>
<event>
 4    1  0.2043502E-008  0.2650439E+04  0.7816531E-02  0.8351267E-01
         -2   -1    0    0    0  501 -0.00000000000E+00  0.00000000000E+00  0.56497178734E+03  0.56497178734E+03  0.00000000000E+00 0. -1.
          2   -1    0    0  501    0  0.00000000000E+00 -0.00000000000E+00 -0.31084864947E+04  0.31084864947E+04  0.00000000000E+00 0.  1.
    2000013    1    1    2    0    0  0.70877199680E+03 -0.40956498584E+03 -0.67787472988E+03  0.14255228411E+04  0.95000000000E+03 0.  0.
   -2000013    1    1    2    0    0 -0.70877199680E+03  0.40956498584E+03 -0.18656399775E+04  0.22479354409E+04  0.95000000000E+03 0.  0.
<mgrwt>
<rscale>  0 0.26504393E+04</rscale>
<asrwt>0</asrwt>
<pdfrwt beam="2">  1        2 0.47822869E+00 0.26504393E+04</pdfrwt>
<pdfrwt beam="1">  1       -2 0.86918737E-01 0.26504393E+04</pdfrwt>
<totfact> 0.14987456E+00</totfact>
</mgrwt>
</event>
<event>
 4    1  0.2043502E-008  0.2892252E+04  0.7816531E-02  0.8275186E-01
          2   -1    0    0  501    0  0.00000000000E+00  0.00000000000E+00  0.25979073670E+04  0.25979073670E+04  0.00000000000E+00 0.  1.
         -2   -1    0    0    0  501 -0.00000000000E+00 -0.00000000000E+00 -0.80498661713E+03  0.80498661713E+03  0.00000000000E+00 0. -1.
    2000013    1    1    2    0    0  0.98110606080E+03  0.38449529194E+03  0.12258431226E+04  0.18749925582E+04  0.95000000000E+03 0.  0.
   -2000013    1    1    2    0    0 -0.98110606080E+03 -0.38449529194E+03  0.56707762729E+03  0.15279014260E+04  0.95000000000E+03 0.  0.
<mgrwt>
<rscale>  0 0.28922522E+04</rscale>
<asrwt>0</asrwt>
<pdfrwt beam="1">  1        2 0.39967805E+00 0.28922522E+04</pdfrwt>
<pdfrwt beam="2">  1       -2 0.12384410E+00 0.28922522E+04</pdfrwt>
<totfact> 0.12931660E+00</totfact>
</mgrwt>
</event>
<event>
 4    1  0.2043502E-008  0.2213375E+04  0.7816531E-02  0.8512882E-01
         -2   -1    0    0    0  501 -0.00000000000E+00  0.00000000000E+00  0.39581626229E+03  0.39581626229E+03  0.00000000000E+00 0. -1.
          2   -1    0    0  501    0  0.00000000000E+00 -0.00000000000E+00 -0.30942579940E+04  0.30942579940E+04  0.00000000000E+00 0.  1.
    2000013    1    1    2    0    0 -0.55699372368E+03 -0.22320793398E+02 -0.11799988110E+04  0.16141986929E+04  0.95000000000E+03 0.  0.
   -2000013    1    1    2    0    0  0.55699372368E+03  0.22320793398E+02 -0.15184429207E+04  0.18758755634E+04  0.95000000000E+03 0.  0.
<mgrwt>
<rscale>  0 0.22133754E+04</rscale>
<asrwt>0</asrwt>
<pdfrwt beam="2">  1        2 0.47603967E+00 0.22133754E+04</pdfrwt>
<pdfrwt beam="1">  1       -2 0.60894813E-01 0.22133754E+04</pdfrwt>
<totfact> 0.34830452E+00</totfact>
</mgrwt>
</event>
<event>
 4    1  0.2043502E-008  0.3114397E+04  0.7816531E-02  0.8211798E-01
          1   -1    0    0  501    0  0.00000000000E+00  0.00000000000E+00  0.58313497213E+03  0.58313497213E+03  0.00000000000E+00 0.  1.
         -1   -1    0    0    0  501 -0.00000000000E+00 -0.00000000000E+00 -0.41583301607E+04  0.41583301607E+04  0.00000000000E+00 0. -1.
    2000013    1    1    2    0    0 -0.63569918965E+03  0.30582580154E+03 -0.33287378832E+04  0.35327947543E+04  0.95000000000E+03 0.  0.
   -2000013    1    1    2    0    0  0.63569918965E+03 -0.30582580154E+03 -0.24645730532E+03  0.12086703785E+04  0.95000000000E+03 0.  0.
<mgrwt>
<rscale>  0 0.31143974E+04</rscale>
<asrwt>0</asrwt>
<pdfrwt beam="1">  1        1 0.89713074E-01 0.31143974E+04</pdfrwt>
<pdfrwt beam="2">  1       -1 0.63974309E+00 0.31143974E+04</pdfrwt>
<totfact> 0.94218551E-03</totfact>
</mgrwt>
</event>
<event>
 4    1  0.2043502E-008  0.2559263E+04  0.7816531E-02  0.8382172E-01
         -2   -1    0    0    0  501 -0.00000000000E+00  0.00000000000E+00  0.62452869037E+03  0.62452869037E+03  0.00000000000E+00 0. -1.
          2   -1    0    0  501    0  0.00000000000E+00 -0.00000000000E+00 -0.26219078842E+04  0.26219078842E+04  0.00000000000E+00 0.  1.
    2000013    1    1    2    0    0  0.38580335016E+03 -0.95583754262E+02 -0.35146883978E+02  0.10303959348E+04  0.95000000000E+03 0.  0.
   -2000013    1    1    2    0    0 -0.38580335016E+03  0.95583754262E+02 -0.19622323098E+04  0.22160406397E+04  0.95000000000E+03 0.  0.
<mgrwt>
<rscale>  0 0.25592629E+04</rscale>
<asrwt>0</asrwt>
<pdfrwt beam="2">  1        2 0.40337044E+00 0.25592629E+04</pdfrwt>
<pdfrwt beam="1">  1       -2 0.96081337E-01 0.25592629E+04</pdfrwt>
<totfact> 0.23792920E+00</totfact>
</mgrwt>
</event>
<event>
 4    1  0.2043502E-008  0.2357561E+04  0.7816531E-02  0.8455565E-01
          2   -1    0    0  501    0  0.00000000000E+00  0.00000000000E+00  0.14067483573E+04  0.14067483573E+04  0.00000000000E+00 0.  1.
         -2   -1    0    0    0  501 -0.00000000000E+00 -0.00000000000E+00 -0.98775540701E+03  0.98775540701E+03  0.00000000000E+00 0. -1.
    2000013    1    1    2    0    0  0.25766285922E+03 -0.61842360289E+03  0.11023557634E+02  0.11625228688E+04  0.95000000000E+03 0.  0.
   -2000013    1    1    2    0    0 -0.25766285922E+03  0.61842360289E+03  0.40796939267E+03  0.12319808955E+04  0.95000000000E+03 0.  0.
<mgrwt>
<rscale>  0 0.23575609E+04</rscale>
<asrwt>0</asrwt>
<pdfrwt beam="1">  1        2 0.21642282E+00 0.23575609E+04</pdfrwt>
<pdfrwt beam="2">  1       -2 0.15196237E+00 0.23575609E+04</pdfrwt>
<totfact> 0.37465211E+00</totfact>
</mgrwt>
</event>
<event>
 4    1  0.2043502E-008  0.2247492E+04  0.7816531E-02  0.8498917E-01
          2   -1    0    0  501    0  0.00000000000E+00  0.00000000000E+00  0.18455865877E+04  0.18455865877E+04  0.00000000000E+00 0.  1.
         -2   -1    0    0    0  501 -0.00000000000E+00 -0.00000000000E+00 -0.68422956916E+03  0.68422956916E+03  0.00000000000E+00 0. -1.
    2000013    1    1    2    0    0  0.32702919236E+03 -0.47870207862E+03  0.75578763238E+03  0.13452950301E+04  0.95000000000E+03 0.  0.
   -2000013    1    1    2    0    0 -0.32702919236E+03  0.47870207862E+03  0.40556938613E+03  0.11845211267E+04  0.95000000000E+03 0.  0.
<mgrwt>
<rscale>  0 0.22474919E+04</rscale>
<asrwt>0</asrwt>
<pdfrwt beam="1">  1        2 0.28393640E+00 0.22474919E+04</pdfrwt>
<pdfrwt beam="2">  1       -2 0.10526609E+00 0.22474919E+04</pdfrwt>
<totfact> 0.54152932E+00</totfact>
</mgrwt>
</event>
<event>
 4    1  0.2043502E-008  0.2720297E+04  0.7816531E-02  0.8328449E-01
         -2   -1    0    0    0  501 -0.00000000000E+00  0.00000000000E+00  0.95590302846E+03  0.95590302846E+03  0.00000000000E+00 0. -1.
          2   -1    0    0  501    0  0.00000000000E+00 -0.00000000000E+00 -0.19353474393E+04  0.19353474393E+04  0.00000000000E+00 0.  1.
    2000013    1    1    2    0    0  0.67595200561E+03  0.70865589343E+02  0.25089857720E+03  0.11947314099E+04  0.95000000000E+03 0.  0.
   -2000013    1    1    2    0    0 -0.67595200561E+03 -0.70865589343E+02 -0.12303429880E+04  0.16965190579E+04  0.95000000000E+03 0.  0.
<mgrwt>
<rscale>  0 0.27202974E+04</rscale>
<asrwt>0</asrwt>
<pdfrwt beam="2">  1        2 0.29774576E+00 0.27202974E+04</pdfrwt>
<pdfrwt beam="1">  1       -2 0.14706200E+00 0.27202974E+04</pdfrwt>
<totfact> 0.20071206E+00</totfact>
</mgrwt>
</event>
<event>
 4    1  0.2043502E-008  0.2718166E+04  0.7816531E-02  0.8329135E-01
          2   -1    0    0  501    0  0.00000000000E+00  0.00000000000E+00  0.15102384652E+04  0.15102384652E+04  0.00000000000E+00 0.  1.
         -2   -1    0    0    0  501 -0.00000000000E+00 -0.00000000000E+00 -0.12230565612E+04  0.12230565612E+04  0.00000000000E+00 0. -1.
    2000013    1    1    2    0    0  0.32125722395E+03 -0.10846846224E+03  0.10595037596E+04  0.14628806609E+04  0.95000000000E+03 0.  0.
   -2000013    1    1    2    0    0 -0.32125722395E+03  0.10846846224E+03 -0.77232185565E+03  0.12704143655E+04  0.95000000000E+03 0.  0.
<mgrwt>
<rscale>  0 0.27181663E+04</rscale>
<asrwt>0</asrwt>
<pdfrwt beam="1">  1        2 0.23234438E+00 0.27181663E+04</pdfrwt>
<pdfrwt beam="2">  1       -2 0.18816255E+00 0.27181663E+04</pdfrwt>
<totfact> 0.17501412E+00</totfact>
</mgrwt>
</event>
<event>
 4    1  0.2043502E-008  0.2230642E+04  0.7816531E-02  0.8505782E-01
          1   -1    0    0  501    0  0.00000000000E+00  0.00000000000E+00  0.16395507904E+04  0.16395507904E+04  0.00000000000E+00 0.  1.
         -1   -1    0    0    0  501 -0.00000000000E+00 -0.00000000000E+00 -0.75870812903E+03  0.75870812903E+03  0.00000000000E+00 0. -1.
    2000013    1    1    2    0    0 -0.36451878416E+03 -0.21317145986E+03  0.87465736503E+03  0.13586175038E+04  0.95000000000E+03 0.  0.
   -2000013    1    1    2    0    0  0.36451878416E+03  0.21317145986E+03  0.61852963381E+01  0.10396414157E+04  0.95000000000E+03 0.  0.
<mgrwt>
<rscale>  0 0.22306416E+04</rscale>
<asrwt>0</asrwt>
<pdfrwt beam="1">  1        1 0.25223858E+00 0.22306416E+04</pdfrwt>
<pdfrwt beam="2">  1       -1 0.11672433E+00 0.22306416E+04</pdfrwt>
<totfact> 0.31563920E+00</totfact>
</mgrwt>
</event>
<event>
 4    1  0.2043502E-008  0.2675459E+04  0.7816531E-02  0.8343012E-01
         -2   -1    0    0    0  501 -0.00000000000E+00  0.00000000000E+00  0.72112147586E+03  0.72112147586E+03  0.00000000000E+00 0. -1.
          2   -1    0    0  501    0  0.00000000000E+00 -0.00000000000E+00 -0.24815785857E+04  0.24815785857E+04  0.00000000000E+00 0.  1.
    2000013    1    1    2    0    0 -0.45843717808E+03  0.56230779098E+03 -0.15991310470E+04  0.19965156658E+04  0.95000000000E+03 0.  0.
   -2000013    1    1    2    0    0  0.45843717808E+03 -0.56230779098E+03 -0.16132606277E+03  0.12061843958E+04  0.95000000000E+03 0.  0.
<mgrwt>
<rscale>  0 0.26754585E+04</rscale>
<asrwt>0</asrwt>
<pdfrwt beam="2">  1        2 0.38178132E+00 0.26754585E+04</pdfrwt>
<pdfrwt beam="1">  1       -2 0.11094177E+00 0.26754585E+04</pdfrwt>
<totfact> 0.20179431E+00</totfact>
</mgrwt>
</event>
<event>
 4    1  0.2043502E-008  0.2560149E+04  0.7816531E-02  0.8381865E-01
         -2   -1    0    0    0  501 -0.00000000000E+00  0.00000000000E+00  0.12079414192E+04  0.12079414192E+04  0.00000000000E+00 0. -1.
          2   -1    0    0  501    0  0.00000000000E+00 -0.00000000000E+00 -0.13565155370E+04  0.13565155370E+04  0.00000000000E+00 0.  1.
    2000013    1    1    2    0    0  0.98783806251E+02  0.47223397416E+03 -0.78493695960E+03  0.13234006186E+04  0.95000000000E+03 0.  0.
   -2000013    1    1    2    0    0 -0.98783806251E+02 -0.47223397416E+03  0.63636284182E+03  0.12410563376E+04  0.95000000000E+03 0.  0.
<mgrwt>
<rscale>  0 0.25601495E+04</rscale>
<asrwt>0</asrwt>
<pdfrwt beam="2">  1        2 0.20869470E+00 0.25601495E+04</pdfrwt>
<pdfrwt beam="1">  1       -2 0.18583714E+00 0.25601495E+04</pdfrwt>
<totfact> 0.22498070E+00</totfact>
</mgrwt>
</event>
<event>
 4    1  0.2043502E-008  0.2659001E+04  0.7816531E-02  0.8348432E-01
         -2   -1    0    0    0  501 -0.00000000000E+00  0.00000000000E+00  0.96676658538E+03  0.96676658538E+03  0.00000000000E+00 0. -1.
          2   -1    0    0  501    0  0.00000000000E+00 -0.00000000000E+00 -0.18283332675E+04  0.18283332675E+04  0.00000000000E+00 0.  1.
    2000013    1    1    2    0    0  0.79701375398E+03  0.28162536711E+03 -0.83862079205E+03  0.15232624870E+04  0.95000000000E+03 0.  0.
   -2000013    1    1    2    0    0 -0.79701375398E+03 -0.28162536711E+03 -0.22945890082E+02  0.12718373659E+04  0.95000000000E+03 0.  0.
<mgrwt>
<rscale>  0 0.26590009E+04</rscale>
<asrwt>0</asrwt>
<pdfrwt beam="2">  1        2 0.28128204E+00 0.26590009E+04</pdfrwt>
<pdfrwt beam="1">  1       -2 0.14873332E+00 0.26590009E+04</pdfrwt>
<totfact> 0.22450134E+00</totfact>
</mgrwt>
</event>
<event>
 4    1  0.2043502E-008  0.3423838E+04  0.7816531E-02  0.8132080E-01
         -2   -1    0    0    0  501 -0.00000000000E+00  0.00000000000E+00  0.68901402357E+03  0.68901402357E+03  0.00000000000E+00 0. -1.
          2   -1    0    0  501    0  0.00000000000E+00 -0.00000000000E+00 -0.42534204997E+04  0.42534204997E+04  0.00000000000E+00 0.  1.
    2000013    1    1    2    0    0  0.93824701235E+03 -0.81134317458E+03 -0.77215970824E+03  0.17427896655E+04  0.95000000000E+03 0.  0.
   -2000013    1    1    2    0    0 -0.93824701235E+03  0.81134317458E+03 -0.27922467679E+04  0.31996448578E+04  0.95000000000E+03 0.  0.
<mgrwt>
<rscale>  0 0.34238378E+04</rscale>
<asrwt>0</asrwt>
<pdfrwt beam="2">  1        2 0.65437238E+00 0.34238378E+04</pdfrwt>
<pdfrwt beam="1">  1       -2 0.10600216E+00 0.34238378E+04</pdfrwt>
<totfact> 0.12360748E-01</totfact>
</mgrwt>
</event>
<event>
 4    1  0.2043502E-008  0.2417240E+04  0.7816531E-02  0.8433077E-01
          2   -1    0    0  501    0  0.00000000000E+00  0.00000000000E+00  0.17277278702E+04  0.17277278702E+04  0.00000000000E+00 0.  1.
         -2   -1    0    0    0  501 -0.00000000000E+00 -0.00000000000E+00 -0.84548192767E+03  0.84548192767E+03  0.00000000000E+00 0. -1.
    2000013    1    1    2    0    0 -0.70376848953E+03 -0.23944641370E+03  0.52105458946E+03  0.13140101054E+04  0.95000000000E+03 0.  0.
   -2000013    1    1    2    0    0  0.70376848953E+03  0.23944641370E+03  0.36119135303E+03  0.12591996924E+04  0.95000000000E+03 0.  0.
<mgrwt>
<rscale>  0 0.24172403E+04</rscale>
<asrwt>0</asrwt>
<pdfrwt beam="1">  1        2 0.26580429E+00 0.24172403E+04</pdfrwt>
<pdfrwt beam="2">  1       -2 0.13007414E+00 0.24172403E+04</pdfrwt>
<totfact> 0.36862147E+00</totfact>
</mgrwt>
</event>
<event>
 4    1  0.2043502E-008  0.2544468E+04  0.7816531E-02  0.8387313E-01
          2   -1    0    0  501    0  0.00000000000E+00  0.00000000000E+00  0.12604742638E+04  0.12604742638E+04  0.00000000000E+00 0.  1.
         -2   -1    0    0    0  501 -0.00000000000E+00 -0.00000000000E+00 -0.12841031847E+04  0.12841031847E+04  0.00000000000E+00 0. -1.
    2000013    1    1    2    0    0 -0.68400810744E+03 -0.47118086121E+03  0.15005827005E+03  0.12707855757E+04  0.95000000000E+03 0.  0.
   -2000013    1    1    2    0    0  0.68400810744E+03  0.47118086121E+03 -0.17368719099E+03  0.12737918728E+04  0.95000000000E+03 0.  0.
<mgrwt>
<rscale>  0 0.25444677E+04</rscale>
<asrwt>0</asrwt>
<pdfrwt beam="1">  1        2 0.19391912E+00 0.25444677E+04</pdfrwt>
<pdfrwt beam="2">  1       -2 0.19755434E+00 0.25444677E+04</pdfrwt>
<totfact> 0.21388798E+00</totfact>
</mgrwt>
</event>
<event>
 4    1  0.2043502E-008  0.2718624E+04  0.7816531E-02  0.8328987E-01
          2   -1    0    0  501    0  0.00000000000E+00  0.00000000000E+00  0.64184481717E+03  0.64184481717E+03  0.00000000000E+00 0.  1.
         -2   -1    0    0    0  501 -0.00000000000E+00 -0.00000000000E+00 -0.28787786041E+04  0.28787786041E+04  0.00000000000E+00 0. -1.
    2000013    1    1    2    0    0 -0.46514203624E+03 -0.85362603392E+03 -0.11365323866E+04  0.17717901640E+04  0.95000000000E+03 0.  0.
   -2000013    1    1    2    0    0  0.46514203624E+03  0.85362603392E+03 -0.11004014004E+04  0.17488332572E+04  0.95000000000E+03 0.  0.
<mgrwt>
<rscale>  0 0.27186240E+04</rscale>
<asrwt>0</asrwt>
<pdfrwt beam="1">  1        2 0.98745357E-01 0.27186240E+04</pdfrwt>
<pdfrwt beam="2">  1       -2 0.44288901E+00 0.27186240E+04</pdfrwt>
<totfact> 0.15456963E-01</totfact>
</mgrwt>
</event>
<event>
 4    1  0.2043502E-008  0.2199601E+04  0.7816531E-02  0.8518594E-01
          2   -1    0    0  501    0  0.00000000000E+00  0.00000000000E+00  0.11148175073E+04  0.11148175073E+04  0.00000000000E+00 0.  1.
         -2   -1    0    0    0  501 -0.00000000000E+00 -0.00000000000E+00 -0.10849852881E+04  0.10849852881E+04  0.00000000000E+00 0. -1.
    2000013    1    1    2    0    0  0.11000036206E+03 -0.50836955272E+03  0.20603813947E+03  0.11024932638E+04  0.95000000000E+03 0.  0.
   -2000013    1    1    2    0    0 -0.11000036206E+03  0.50836955272E+03 -0.17620592024E+03  0.10973095316E+04  0.95000000000E+03 0.  0.
<mgrwt>
<rscale>  0 0.21996005E+04</rscale>
<asrwt>0</asrwt>
<pdfrwt beam="1">  1        2 0.17151039E+00 0.21996005E+04</pdfrwt>
<pdfrwt beam="2">  1       -2 0.16692081E+00 0.21996005E+04</pdfrwt>
<totfact> 0.43723214E+00</totfact>
</mgrwt>
</event>
<event>
 4    1  0.2043502E-008  0.3077889E+04  0.7816531E-02  0.8221832E-01
          2   -1    0    0  501    0  0.00000000000E+00  0.00000000000E+00  0.91688539589E+03  0.91688539589E+03  0.00000000000E+00 0.  1.
         -2   -1    0    0    0  501 -0.00000000000E+00 -0.00000000000E+00 -0.25830383017E+04  0.25830383017E+04  0.00000000000E+00 0. -1.
    2000013    1    1    2    0    0  0.51105353139E+03  0.10717915292E+04 -0.56413584181E+03  0.16219315775E+04  0.95000000000E+03 0.  0.
   -2000013    1    1    2    0    0 -0.51105353139E+03 -0.10717915292E+04 -0.11020170640E+04  0.18779921201E+04  0.95000000000E+03 0.  0.
<mgrwt>
<rscale>  0 0.30778889E+04</rscale>
<asrwt>0</asrwt>
<pdfrwt beam="1">  1        2 0.14105929E+00 0.30778889E+04</pdfrwt>
<pdfrwt beam="2">  1       -2 0.39739050E+00 0.30778889E+04</pdfrwt>
<totfact> 0.18740276E-01</totfact>
</mgrwt>
</event>
<event>
 4    1  0.2043502E-008  0.3793973E+04  0.7816531E-02  0.8047449E-01
          2   -1    0    0  501    0  0.00000000000E+00  0.00000000000E+00  0.22737116409E+04  0.22737116409E+04  0.00000000000E+00 0.  1.
         -2   -1    0    0    0  501 -0.00000000000E+00 -0.00000000000E+00 -0.15826802873E+04  0.15826802873E+04  0.00000000000E+00 0. -1.
    2000013    1    1    2    0    0 -0.14310181405E+04  0.39266952806E+03 -0.36893969898E+03  0.18001718746E+04  0.95000000000E+03 0.  0.
   -2000013    1    1    2    0    0  0.14310181405E+04 -0.39266952806E+03  0.10599710526E+04  0.20562200537E+04  0.95000000000E+03 0.  0.
<mgrwt>
<rscale>  0 0.37939734E+04</rscale>
<asrwt>0</asrwt>
<pdfrwt beam="1">  1        2 0.34980179E+00 0.37939734E+04</pdfrwt>
<pdfrwt beam="2">  1       -2 0.24348928E+00 0.37939734E+04</pdfrwt>
<totfact> 0.26530985E-01</totfact>
</mgrwt>
</event>
<event>
 4    1  0.2043502E-008  0.2568799E+04  0.7816531E-02  0.8378877E-01
          2   -1    0    0  501    0  0.00000000000E+00  0.00000000000E+00  0.10484018195E+04  0.10484018195E+04  0.00000000000E+00 0.  1.
         -2   -1    0    0    0  501 -0.00000000000E+00 -0.00000000000E+00 -0.15735211802E+04  0.15735211802E+04  0.00000000000E+00 0. -1.
    2000013    1    1    2    0    0 -0.26879615204E+03  0.67986004158E+03 -0.73331514557E+03  0.14052445162E+04  0.95000000000E+03 0.  0.
   -2000013    1    1    2    0    0  0.26879615204E+03 -0.67986004158E+03  0.20819578484E+03  0.12166784835E+04  0.95000000000E+03 0.  0.
<mgrwt>
<rscale>  0 0.25687993E+04</rscale>
<asrwt>0</asrwt>
<pdfrwt beam="1">  1        2 0.16129259E+00 0.25687993E+04</pdfrwt>
<pdfrwt beam="2">  1       -2 0.24208018E+00 0.25687993E+04</pdfrwt>
<totfact> 0.14961590E+00</totfact>
</mgrwt>
</event>
<event>
 4    1  0.2043502E-008  0.2652170E+04  0.7816531E-02  0.8350693E-01
         -2   -1    0    0    0  501 -0.00000000000E+00  0.00000000000E+00  0.11872858951E+04  0.11872858951E+04  0.00000000000E+00 0. -1.
          2   -1    0    0  501    0  0.00000000000E+00 -0.00000000000E+00 -0.14811099921E+04  0.14811099921E+04  0.00000000000E+00 0.  1.
    2000013    1    1    2    0    0  0.81940408388E+02  0.86016743013E+03 -0.47969047586E+03  0.13708410524E+04  0.95000000000E+03 0.  0.
   -2000013    1    1    2    0    0 -0.81940408388E+02 -0.86016743013E+03  0.18586637888E+03  0.12975548347E+04  0.95000000000E+03 0.  0.
<mgrwt>
<rscale>  0 0.26521697E+04</rscale>
<asrwt>0</asrwt>
<pdfrwt beam="2">  1        2 0.22786308E+00 0.26521697E+04</pdfrwt>
<pdfrwt beam="1">  1       -2 0.18265937E+00 0.26521697E+04</pdfrwt>
<totfact> 0.19922566E+00</totfact>
</mgrwt>
</event>
<event>
 4    1  0.2043502E-008  0.3967770E+04  0.7816531E-02  0.8011080E-01
         -1   -1    0    0    0  501 -0.00000000000E+00  0.00000000000E+00  0.17801506161E+04  0.17801506161E+04  0.00000000000E+00 0. -1.
          1   -1    0    0  501    0  0.00000000000E+00 -0.00000000000E+00 -0.22109363355E+04  0.22109363355E+04  0.00000000000E+00 0.  1.
    2000013    1    1    2    0    0 -0.14513963188E+04 -0.86771534392E+03 -0.63475834493E+03  0.20408085037E+04  0.95000000000E+03 0.  0.
   -2000013    1    1    2    0    0  0.14513963188E+04  0.86771534392E+03  0.20397262555E+03  0.19502784479E+04  0.95000000000E+03 0.  0.
<mgrwt>
<rscale>  0 0.39677700E+04</rscale>
<asrwt>0</asrwt>
<pdfrwt beam="2">  1        1 0.34014405E+00 0.39677700E+04</pdfrwt>
<pdfrwt beam="1">  1       -1 0.27386933E+00 0.39677700E+04</pdfrwt>
<totfact> 0.81955003E-02</totfact>
</mgrwt>
</event>
<event>
 4    1  0.2043502E-008  0.2091109E+04  0.7816531E-02  0.8565170E-01
         -2   -1    0    0    0  501 -0.00000000000E+00  0.00000000000E+00  0.11731061694E+04  0.11731061694E+04  0.00000000000E+00 0. -1.
          2   -1    0    0  501    0  0.00000000000E+00 -0.00000000000E+00 -0.93187176390E+03  0.93187176390E+03  0.00000000000E+00 0.  1.
    2000013    1    1    2    0    0  0.42358274251E+03  0.10140977965E+03  0.89133065794E+02  0.10488808257E+04  0.95000000000E+03 0.  0.
   -2000013    1    1    2    0    0 -0.42358274251E+03 -0.10140977965E+03  0.15210133975E+03  0.10560971076E+04  0.95000000000E+03 0.  0.
<mgrwt>
<rscale>  0 0.20911093E+04</rscale>
<asrwt>0</asrwt>
<pdfrwt beam="2">  1        2 0.14336489E+00 0.20911093E+04</pdfrwt>
<pdfrwt beam="1">  1       -2 0.18047787E+00 0.20911093E+04</pdfrwt>
<totfact> 0.46306535E+00</totfact>
</mgrwt>
</event>
<event>
 4    1  0.2043502E-008  0.2367714E+04  0.7816531E-02  0.8451691E-01
         -2   -1    0    0    0  501 -0.00000000000E+00  0.00000000000E+00  0.73637715406E+03  0.73637715406E+03  0.00000000000E+00 0. -1.
          2   -1    0    0  501    0  0.00000000000E+00 -0.00000000000E+00 -0.19032607083E+04  0.19032607083E+04  0.00000000000E+00 0.  1.
    2000013    1    1    2    0    0  0.65587573962E+03 -0.17115154276E+03 -0.80515855365E+03  0.14178314896E+04  0.95000000000E+03 0.  0.
   -2000013    1    1    2    0    0 -0.65587573962E+03  0.17115154276E+03 -0.36172500057E+03  0.12218063727E+04  0.95000000000E+03 0.  0.
<mgrwt>
<rscale>  0 0.23677143E+04</rscale>
<asrwt>0</asrwt>
<pdfrwt beam="2">  1        2 0.29280934E+00 0.23677143E+04</pdfrwt>
<pdfrwt beam="1">  1       -2 0.11328879E+00 0.23677143E+04</pdfrwt>
<totfact> 0.41700159E+00</totfact>
</mgrwt>
</event>
<event>
 4    1  0.2043502E-008  0.2613435E+04  0.7816531E-02  0.8363652E-01
         -1   -1    0    0    0  501 -0.00000000000E+00  0.00000000000E+00  0.11155307329E+04  0.11155307329E+04  0.00000000000E+00 0. -1.
          1   -1    0    0  501    0  0.00000000000E+00 -0.00000000000E+00 -0.15306704933E+04  0.15306704933E+04  0.00000000000E+00 0.  1.
    2000013    1    1    2    0    0  0.60993674210E+03  0.14099750159E+03 -0.85836223902E+03  0.14251978312E+04  0.95000000000E+03 0.  0.
   -2000013    1    1    2    0    0 -0.60993674210E+03 -0.14099750159E+03  0.44322247864E+03  0.12210033949E+04  0.95000000000E+03 0.  0.
<mgrwt>
<rscale>  0 0.26134345E+04</rscale>
<asrwt>0</asrwt>
<pdfrwt beam="2">  1        1 0.23548777E+00 0.26134345E+04</pdfrwt>
<pdfrwt beam="1">  1       -1 0.17162011E+00 0.26134345E+04</pdfrwt>
<totfact> 0.13120656E+00</totfact>
</mgrwt>
</event>
<event>
 4    1  0.2043502E-008  0.4142391E+04  0.7816531E-02  0.7976422E-01
          2   -1    0    0  501    0  0.00000000000E+00  0.00000000000E+00  0.12686377634E+04  0.12686377634E+04  0.00000000000E+00 0.  1.
         -2   -1    0    0    0  501 -0.00000000000E+00 -0.00000000000E+00 -0.33814628661E+04  0.33814628661E+04  0.00000000000E+00 0. -1.
    2000013    1    1    2    0    0 -0.16517965088E+04  0.14527383902E+03 -0.19529298853E+04  0.27323929680E+04  0.95000000000E+03 0.  0.
   -2000013    1    1    2    0    0  0.16517965088E+04 -0.14527383902E+03 -0.15989521740E+03  0.19177076616E+04  0.95000000000E+03 0.  0.
<mgrwt>
<rscale>  0 0.41423913E+04</rscale>
<asrwt>0</asrwt>
<pdfrwt beam="1">  1        2 0.19517504E+00 0.41423913E+04</pdfrwt>
<pdfrwt beam="2">  1       -2 0.52022505E+00 0.41423913E+04</pdfrwt>
<totfact> 0.16791795E-02</totfact>
</mgrwt>
</event>
<event>
 4    1  0.2043502E-008  0.2265218E+04  0.7816531E-02  0.8491763E-01
         -2   -1    0    0    0  501 -0.00000000000E+00  0.00000000000E+00  0.11347611637E+04  0.11347611637E+04  0.00000000000E+00 0. -1.
          2   -1    0    0  501    0  0.00000000000E+00 -0.00000000000E+00 -0.11304613395E+04  0.11304613395E+04  0.00000000000E+00 0.  1.
    2000013    1    1    2    0    0  0.56169424663E+03  0.16269976475E+03  0.19793582343E+03  0.11329828906E+04  0.95000000000E+03 0.  0.
   -2000013    1    1    2    0    0 -0.56169424663E+03 -0.16269976475E+03 -0.19363599919E+03  0.11322396126E+04  0.95000000000E+03 0.  0.
<mgrwt>
<rscale>  0 0.22652184E+04</rscale>
<asrwt>0</asrwt>
<pdfrwt beam="2">  1        2 0.17391713E+00 0.22652184E+04</pdfrwt>
<pdfrwt beam="1">  1       -2 0.17457864E+00 0.22652184E+04</pdfrwt>
<totfact> 0.37529107E+00</totfact>
</mgrwt>
</event>
<event>
 4    1  0.2043502E-008  0.2693611E+04  0.7816531E-02  0.8337081E-01
          2   -1    0    0  501    0  0.00000000000E+00  0.00000000000E+00  0.18858784535E+04  0.18858784535E+04  0.00000000000E+00 0. -1.
         -2   -1    0    0    0  501 -0.00000000000E+00 -0.00000000000E+00 -0.96182507771E+03  0.96182507771E+03  0.00000000000E+00 0.  1.
    2000013    1    1    2    0    0  0.63215700427E+03 -0.66335307834E+03  0.74516353179E+03  0.15157270446E+04  0.95000000000E+03 0.  0.
   -2000013    1    1    2    0    0 -0.63215700427E+03  0.66335307834E+03  0.17888984398E+03  0.13319764866E+04  0.95000000000E+03 0.  0.
<mgrwt>
<rscale>  0 0.26936111E+04</rscale>
<asrwt>0</asrwt>
<pdfrwt beam="1">  1        2 0.29013515E+00 0.26936111E+04</pdfrwt>
<pdfrwt beam="2">  1       -2 0.14797309E+00 0.26936111E+04</pdfrwt>
<totfact> 0.21082300E+00</totfact>
</mgrwt>
</event>
<event>
 4    1  0.2043502E-008  0.2114481E+04  0.7816531E-02  0.8554891E-01
          2   -1    0    0  501    0  0.00000000000E+00  0.00000000000E+00  0.10673055948E+04  0.10673055948E+04  0.00000000000E+00 0.  1.
         -2   -1    0    0    0  501 -0.00000000000E+00 -0.00000000000E+00 -0.10472707762E+04  0.10472707762E+04  0.00000000000E+00 0. -1.
    2000013    1    1    2    0    0 -0.41026183531E+03  0.18721363329E+03  0.11908302521E+03  0.10583215414E+04  0.95000000000E+03 0.  0.
   -2000013    1    1    2    0    0  0.41026183531E+03 -0.18721363329E+03 -0.99048206577E+02  0.10562548297E+04  0.95000000000E+03 0.  0.
<mgrwt>
<rscale>  0 0.21144815E+04</rscale>
<asrwt>0</asrwt>
<pdfrwt beam="1">  1        2 0.16420086E+00 0.21144815E+04</pdfrwt>
<pdfrwt beam="2">  1       -2 0.16111858E+00 0.21144815E+04</pdfrwt>
<totfact> 0.51932377E+00</totfact>
</mgrwt>
</event>
<event>
 4    1  0.2043502E-008  0.2781959E+04  0.7816531E-02  0.8308891E-01
         -2   -1    0    0    0  501 -0.00000000000E+00  0.00000000000E+00  0.41327331764E+03  0.41327331764E+03  0.00000000000E+00 0. -1.
          2   -1    0    0  501    0  0.00000000000E+00 -0.00000000000E+00 -0.46817064590E+04  0.46817064590E+04  0.00000000000E+00 0.  1.
    2000013    1    1    2    0    0  0.30128892265E+03  0.81609289633E+03 -0.30955751049E+04  0.33528894793E+04  0.95000000000E+03 0.  0.
   -2000013    1    1    2    0    0 -0.30128892265E+03 -0.81609289633E+03 -0.11728580364E+04  0.17420902973E+04  0.95000000000E+03 0.  0.
<mgrwt>
<rscale>  0 0.27819593E+04</rscale>
<asrwt>0</asrwt>
<pdfrwt beam="2">  1        2 0.72026248E+00 0.27819593E+04</pdfrwt>
<pdfrwt beam="1">  1       -2 0.63580515E-01 0.27819593E+04</pdfrwt>
<totfact> 0.16049872E-01</totfact>
</mgrwt>
</event>
<event>
 4    1  0.2043502E-008  0.2541931E+04  0.7816531E-02  0.8388198E-01
          2   -1    0    0  501    0  0.00000000000E+00  0.00000000000E+00  0.32534798219E+04  0.32534798219E+04  0.00000000000E+00 0.  1.
         -2   -1    0    0    0  501 -0.00000000000E+00 -0.00000000000E+00 -0.49650017163E+03  0.49650017163E+03  0.00000000000E+00 0. -1.
    2000013    1    1    2    0    0  0.35082922922E+03  0.55069184809E+03  0.21681415073E+04  0.24555407256E+04  0.95000000000E+03 0.  0.
   -2000013    1    1    2    0    0 -0.35082922922E+03 -0.55069184809E+03  0.58883814299E+03  0.12944392679E+04  0.95000000000E+03 0.  0.
<mgrwt>
<rscale>  0 0.25419310E+04</rscale>
<asrwt>0</asrwt>
<pdfrwt beam="1">  1        2 0.50053534E+00 0.25419310E+04</pdfrwt>
<pdfrwt beam="2">  1       -2 0.76384644E-01 0.25419310E+04</pdfrwt>
<totfact> 0.16304826E+00</totfact>
</mgrwt>
</event>
<event>
 4    1  0.2043502E-008  0.2892522E+04  0.7816531E-02  0.8275106E-01
         -2   -1    0    0    0  501 -0.00000000000E+00  0.00000000000E+00  0.48152800095E+03  0.48152800095E+03  0.00000000000E+00 0. -1.
          2   -1    0    0  501    0  0.00000000000E+00 -0.00000000000E+00 -0.43438204473E+04  0.43438204473E+04  0.00000000000E+00 0.  1.
    2000013    1    1    2    0    0 -0.84411325715E+03 -0.59946841961E+03 -0.25024497677E+04  0.28699554729E+04  0.95000000000E+03 0.  0.
   -2000013    1    1    2    0    0  0.84411325715E+03  0.59946841961E+03 -0.13598426787E+04  0.19553929753E+04  0.95000000000E+03 0.  0.
<mgrwt>
<rscale>  0 0.28925222E+04</rscale>
<asrwt>0</asrwt>
<pdfrwt beam="2">  1        2 0.66828006E+00 0.28925222E+04</pdfrwt>
<pdfrwt beam="1">  1       -2 0.74081232E-01 0.28925222E+04</pdfrwt>
<totfact> 0.24532290E-01</totfact>
</mgrwt>
</event>
<event>
 4    1  0.2043502E-008  0.3674049E+04  0.7816531E-02  0.8073737E-01
          2   -1    0    0  501    0  0.00000000000E+00  0.00000000000E+00  0.13472334826E+04  0.13472334826E+04  0.00000000000E+00 0.  1.
         -2   -1    0    0    0  501 -0.00000000000E+00 -0.00000000000E+00 -0.25048809845E+04  0.25048809845E+04  0.00000000000E+00 0. -1.
    2000013    1    1    2    0    0  0.42314388059E+03  0.15067699374E+04 -0.42067166787E+03  0.18785289564E+04  0.95000000000E+03 0.  0.
   -2000013    1    1    2    0    0 -0.42314388059E+03 -0.15067699374E+04 -0.73697583406E+03  0.19735855107E+04  0.95000000000E+03 0.  0.
<mgrwt>
<rscale>  0 0.36740493E+04</rscale>
<asrwt>0</asrwt>
<pdfrwt beam="1">  1        2 0.20726669E+00 0.36740493E+04</pdfrwt>
<pdfrwt beam="2">  1       -2 0.38536630E+00 0.36740493E+04</pdfrwt>
<totfact> 0.11612979E-01</totfact>
</mgrwt>
</event>
<event>
 4    1  0.2043502E-008  0.3029658E+04  0.7816531E-02  0.8235312E-01
          1   -1    0    0  501    0  0.00000000000E+00  0.00000000000E+00  0.19162301258E+04  0.19162301258E+04  0.00000000000E+00 0.  1.
         -1   -1    0    0    0  501 -0.00000000000E+00 -0.00000000000E+00 -0.11975114959E+04  0.11975114959E+04  0.00000000000E+00 0. -1.
    2000013    1    1    2    0    0  0.11008772554E+04  0.36534591571E+03  0.13702408993E+03  0.15055510522E+04  0.95000000000E+03 0.  0.
   -2000013    1    1    2    0    0 -0.11008772554E+04 -0.36534591571E+03  0.58169453999E+03  0.16081905694E+04  0.95000000000E+03 0.  0.
<mgrwt>
<rscale>  0 0.30296585E+04</rscale>
<asrwt>0</asrwt>
<pdfrwt beam="1">  1        1 0.29480463E+00 0.30296585E+04</pdfrwt>
<pdfrwt beam="2">  1       -1 0.18423254E+00 0.30296585E+04</pdfrwt>
<totfact> 0.55970600E-01</totfact>
</mgrwt>
</event>
<event>
 4    1  0.2043502E-008  0.2694869E+04  0.7816531E-02  0.8336672E-01
          1   -1    0    0  501    0  0.00000000000E+00  0.00000000000E+00  0.29183450537E+04  0.29183450537E+04  0.00000000000E+00 0.  1.
         -1   -1    0    0    0  501 -0.00000000000E+00 -0.00000000000E+00 -0.62212634679E+03  0.62212634679E+03  0.00000000000E+00 0. -1.
    2000013    1    1    2    0    0  0.42446893334E+03  0.54922861121E+03  0.28534986129E+03  0.12106818269E+04  0.95000000000E+03 0.  0.
   -2000013    1    1    2    0    0 -0.42446893334E+03 -0.54922861121E+03  0.20108688457E+04  0.23297895736E+04  0.95000000000E+03 0.  0.
<mgrwt>
<rscale>  0 0.26948687E+04</rscale>
<asrwt>0</asrwt>
<pdfrwt beam="1">  1        1 0.44897616E+00 0.26948687E+04</pdfrwt>
<pdfrwt beam="2">  1       -1 0.95711747E-01 0.26948687E+04</pdfrwt>
<totfact> 0.62996632E-01</totfact>
</mgrwt>
</event>
<event>
 4    1  0.2043502E-008  0.2940175E+04  0.7816531E-02  0.8261024E-01
          2   -1    0    0  501    0  0.00000000000E+00  0.00000000000E+00  0.24211459737E+04  0.24211459737E+04  0.00000000000E+00 0.  1.
         -2   -1    0    0    0  501 -0.00000000000E+00 -0.00000000000E+00 -0.89261737707E+03  0.89261737707E+03  0.00000000000E+00 0. -1.
    2000013    1    1    2    0    0 -0.23492763828E+03 -0.10708186404E+04  0.10329062153E+04  0.17807972387E+04  0.95000000000E+03 0.  0.
   -2000013    1    1    2    0    0  0.23492763828E+03  0.10708186404E+04  0.49562238133E+03  0.15329661121E+04  0.95000000000E+03 0.  0.
<mgrwt>
<rscale>  0 0.29401748E+04</rscale>
<asrwt>0</asrwt>
<pdfrwt beam="1">  1        2 0.37248399E+00 0.29401748E+04</pdfrwt>
<pdfrwt beam="2">  1       -2 0.13732575E+00 0.29401748E+04</pdfrwt>
<totfact> 0.12554727E+00</totfact>
</mgrwt>
</event>
<event>
 4    1  0.2043502E-008  0.2256816E+04  0.7816531E-02  0.8495145E-01
         -2   -1    0    0    0  501 -0.00000000000E+00  0.00000000000E+00  0.57789649068E+03  0.57789649068E+03  0.00000000000E+00 0. -1.
          2   -1    0    0  501    0  0.00000000000E+00 -0.00000000000E+00 -0.22033441712E+04  0.22033441712E+04  0.00000000000E+00 0.  1.
    2000013    1    1    2    0    0  0.32130478675E+03  0.15853221893E+03 -0.14195168966E+04  0.17452499678E+04  0.95000000000E+03 0.  0.
   -2000013    1    1    2    0    0 -0.32130478675E+03 -0.15853221893E+03 -0.20593078394E+03  0.10359906941E+04  0.95000000000E+03 0.  0.
<mgrwt>
<rscale>  0 0.22568162E+04</rscale>
<asrwt>0</asrwt>
<pdfrwt beam="2">  1        2 0.33897603E+00 0.22568162E+04</pdfrwt>
<pdfrwt beam="1">  1       -2 0.88907150E-01 0.22568162E+04</pdfrwt>
<totfact> 0.50841225E+00</totfact>
</mgrwt>
</event>
<event>
 4    1  0.2043502E-008  0.2141737E+04  0.7816531E-02  0.8543078E-01
         -2   -1    0    0    0  501 -0.00000000000E+00  0.00000000000E+00  0.81963354542E+03  0.81963354542E+03  0.00000000000E+00 0. -1.
          2   -1    0    0  501    0  0.00000000000E+00 -0.00000000000E+00 -0.13991116774E+04  0.13991116774E+04  0.00000000000E+00 0.  1.
    2000013    1    1    2    0    0 -0.44853532349E+03 -0.17813735595E+03 -0.17941089705E+03  0.10805577837E+04  0.95000000000E+03 0.  0.
   -2000013    1    1    2    0    0  0.44853532349E+03  0.17813735595E+03 -0.40006723491E+03  0.11381874391E+04  0.95000000000E+03 0.  0.
<mgrwt>
<rscale>  0 0.21417366E+04</rscale>
<asrwt>0</asrwt>
<pdfrwt beam="2">  1        2 0.21524795E+00 0.21417366E+04</pdfrwt>
<pdfrwt beam="1">  1       -2 0.12609747E+00 0.21417366E+04</pdfrwt>
<totfact> 0.62422287E+00</totfact>
</mgrwt>
</event>
<event>
 4    1  0.2043502E-008  0.2456235E+04  0.7816531E-02  0.8418745E-01
          1   -1    0    0  501    0  0.00000000000E+00  0.00000000000E+00  0.41447630034E+03  0.41447630034E+03  0.00000000000E+00 0.  1.
         -1   -1    0    0    0  501 -0.00000000000E+00 -0.00000000000E+00 -0.36389852659E+04  0.36389852659E+04  0.00000000000E+00 0. -1.
    2000013    1    1    2    0    0 -0.67620394191E+03 -0.13093398173E+03 -0.22104137615E+04  0.25025635807E+04  0.95000000000E+03 0.  0.
   -2000013    1    1    2    0    0  0.67620394191E+03  0.13093398173E+03 -0.10140952041E+04  0.15508979856E+04  0.95000000000E+03 0.  0.
<mgrwt>
<rscale>  0 0.24562355E+04</rscale>
<asrwt>0</asrwt>
<pdfrwt beam="1">  1        1 0.63765587E-01 0.24562355E+04</pdfrwt>
<pdfrwt beam="2">  1       -1 0.55984387E+00 0.24562355E+04</pdfrwt>
<totfact> 0.33634900E-02</totfact>
</mgrwt>
</event>
<event>
 4    1  0.2043502E-008  0.3002781E+04  0.7816531E-02  0.8242937E-01
          2   -1    0    0  501    0  0.00000000000E+00  0.00000000000E+00  0.23225647866E+04  0.23225647866E+04  0.00000000000E+00 0.  1.
         -2   -1    0    0    0  501 -0.00000000000E+00 -0.00000000000E+00 -0.97055360304E+03  0.97055360304E+03  0.00000000000E+00 0. -1.
    2000013    1    1    2    0    0  0.10316575183E+04 -0.19898383798E+03  0.13012097334E+03  0.14224427126E+04  0.95000000000E+03 0.  0.
   -2000013    1    1    2    0    0 -0.10316575183E+04  0.19898383798E+03  0.12218902102E+04  0.18706756771E+04  0.95000000000E+03 0.  0.
<mgrwt>
<rscale>  0 0.30027811E+04</rscale>
<asrwt>0</asrwt>
<pdfrwt beam="1">  1        2 0.35731766E+00 0.30027811E+04</pdfrwt>
<pdfrwt beam="2">  1       -2 0.14931594E+00 0.30027811E+04</pdfrwt>
<totfact> 0.11423368E+00</totfact>
</mgrwt>
</event>
<event>
 4    1  0.2043502E-008  0.2174156E+04  0.7816531E-02  0.8529263E-01
          2   -1    0    0  501    0  0.00000000000E+00  0.00000000000E+00  0.35152397469E+04  0.35152397469E+04  0.00000000000E+00 0. -1.
         -2   -1    0    0    0  501 -0.00000000000E+00 -0.00000000000E+00 -0.33617569855E+03  0.33617569855E+03  0.00000000000E+00 0.  1.
    2000013    1    1    2    0    0 -0.26730850031E+03 -0.43442696828E+03  0.18340795651E+04  0.21275639770E+04  0.95000000000E+03 0.  0.
   -2000013    1    1    2    0    0  0.26730850031E+03  0.43442696828E+03  0.13449844833E+04  0.17238514685E+04  0.95000000000E+03 0.  0.
<mgrwt>
<rscale>  0 0.21741556E+04</rscale>
<asrwt>0</asrwt>
<pdfrwt beam="1">  1        2 0.54080609E+00 0.21741556E+04</pdfrwt>
<pdfrwt beam="2">  1       -2 0.51719341E-01 0.21741556E+04</pdfrwt>
<totfact> 0.25753028E+00</totfact>
</mgrwt>
</event>
<event>
 4    1  0.2043502E-008  0.2666527E+04  0.7816531E-02  0.8345948E-01
          2   -1    0    0  501    0  0.00000000000E+00  0.00000000000E+00  0.28209291360E+04  0.28209291360E+04  0.00000000000E+00 0.  1.
         -2   -1    0    0    0  501 -0.00000000000E+00 -0.00000000000E+00 -0.63014420919E+03  0.63014420919E+03  0.00000000000E+00 0. -1.
    2000013    1    1    2    0    0  0.78461662845E+03  0.49339656365E+03  0.12592467401E+04  0.18295534360E+04  0.95000000000E+03 0.  0.
   -2000013    1    1    2    0    0 -0.78461662845E+03 -0.49339656365E+03  0.93153818666E+03  0.16215199092E+04  0.95000000000E+03 0.  0.
<mgrwt>
<rscale>  0 0.26665274E+04</rscale>
<asrwt>0</asrwt>
<pdfrwt beam="1">  1        2 0.43398909E+00 0.26665274E+04</pdfrwt>
<pdfrwt beam="2">  1       -2 0.96945264E-01 0.26665274E+04</pdfrwt>
<totfact> 0.17553588E+00</totfact>
</mgrwt>
</event>
<event>
 4    1  0.2043502E-008  0.3714302E+04  0.7816531E-02  0.8064800E-01
         -2   -1    0    0    0  501 -0.00000000000E+00  0.00000000000E+00  0.20504297441E+04  0.20504297441E+04  0.00000000000E+00 0. -1.
          2   -1    0    0  501    0  0.00000000000E+00 -0.00000000000E+00 -0.16820907973E+04  0.16820907973E+04  0.00000000000E+00 0.  1.
    2000013    1    1    2    0    0 -0.10847239653E+04  0.11461435083E+04 -0.54139230923E+02  0.18427430854E+04  0.95000000000E+03 0.  0.
   -2000013    1    1    2    0    0  0.10847239653E+04 -0.11461435083E+04  0.42247817775E+03  0.18897774560E+04  0.95000000000E+03 0.  0.
<mgrwt>
<rscale>  0 0.37143016E+04</rscale>
<asrwt>0</asrwt>
<pdfrwt beam="2">  1        2 0.25878320E+00 0.37143016E+04</pdfrwt>
<pdfrwt beam="1">  1       -2 0.31545073E+00 0.37143016E+04</pdfrwt>
<totfact> 0.20693906E-01</totfact>
</mgrwt>
</event>
<event>
 4    1  0.2043502E-008  0.3172223E+04  0.7816531E-02  0.8196192E-01
          1   -1    0    0  501    0  0.00000000000E+00  0.00000000000E+00  0.31017121695E+04  0.31017121695E+04  0.00000000000E+00 0. -1.
         -1   -1    0    0    0  501 -0.00000000000E+00 -0.00000000000E+00 -0.81108428304E+03  0.81108428304E+03  0.00000000000E+00 0.  1.
    2000013    1    1    2    0    0  0.72059917587E+03 -0.73448890558E+03  0.20638143106E+04  0.24941063797E+04  0.95000000000E+03 0.  0.
   -2000013    1    1    2    0    0 -0.72059917587E+03  0.73448890558E+03  0.22681357593E+03  0.14186900729E+04  0.95000000000E+03 0.  0.
<mgrwt>
<rscale>  0 0.31722232E+04</rscale>
<asrwt>0</asrwt>
<pdfrwt beam="1">  1        1 0.47718648E+00 0.31722232E+04</pdfrwt>
<pdfrwt beam="2">  1       -1 0.12478220E+00 0.31722232E+04</pdfrwt>
<totfact> 0.23696990E-01</totfact>
</mgrwt>
</event>
<event>
 4    1  0.2043502E-008  0.2534576E+04  0.7816531E-02  0.8390770E-01
          2   -1    0    0  501    0  0.00000000000E+00  0.00000000000E+00  0.25330309263E+04  0.25330309263E+04  0.00000000000E+00 0.  1.
         -2   -1    0    0    0  501 -0.00000000000E+00 -0.00000000000E+00 -0.63403030435E+03  0.63403030435E+03  0.00000000000E+00 0. -1.
    2000013    1    1    2    0    0  0.46183357766E+03  0.66831909168E+03  0.12103458411E+04  0.17399361244E+04  0.95000000000E+03 0.  0.
   -2000013    1    1    2    0    0 -0.46183357766E+03 -0.66831909168E+03  0.68865478075E+03  0.14271251062E+04  0.95000000000E+03 0.  0.
<mgrwt>
<rscale>  0 0.25345756E+04</rscale>
<asrwt>0</asrwt>
<pdfrwt beam="1">  1        2 0.38969706E+00 0.25345756E+04</pdfrwt>
<pdfrwt beam="2">  1       -2 0.97543125E-01 0.25345756E+04</pdfrwt>
<totfact> 0.25941980E+00</totfact>
</mgrwt>
</event>
<event>
 4    1  0.2043502E-008  0.2806320E+04  0.7816531E-02  0.8301309E-01
          2   -1    0    0  501    0  0.00000000000E+00  0.00000000000E+00  0.25444421990E+04  0.25444421990E+04  0.00000000000E+00 0.  1.
         -2   -1    0    0    0  501 -0.00000000000E+00 -0.00000000000E+00 -0.77378769444E+03  0.77378769444E+03  0.00000000000E+00 0. -1.
    2000013    1    1    2    0    0  0.10129682122E+04  0.19389813894E+03  0.94627575607E+03  0.16916379322E+04  0.95000000000E+03 0.  0.
   -2000013    1    1    2    0    0 -0.10129682122E+04 -0.19389813894E+03  0.82437874847E+03  0.16265919612E+04  0.95000000000E+03 0.  0.
<mgrwt>
<rscale>  0 0.28063201E+04</rscale>
<asrwt>0</asrwt>
<pdfrwt beam="1">  1        2 0.39145264E+00 0.28063201E+04</pdfrwt>
<pdfrwt beam="2">  1       -2 0.11904426E+00 0.28063201E+04</pdfrwt>
<totfact> 0.15447449E+00</totfact>
</mgrwt>
</event>
<event>
 4    1  0.2043502E-008  0.2619053E+04  0.7816531E-02  0.8361758E-01
          2   -1    0    0  501    0  0.00000000000E+00  0.00000000000E+00  0.96181428627E+03  0.96181428627E+03  0.00000000000E+00 0.  1.
         -2   -1    0    0    0  501 -0.00000000000E+00 -0.00000000000E+00 -0.17829424416E+04  0.17829424416E+04  0.00000000000E+00 0. -1.
    2000013    1    1    2    0    0  0.39839551187E+03 -0.79874538329E+03 -0.27947515913E+03  0.13331614815E+04  0.95000000000E+03 0.  0.
   -2000013    1    1    2    0    0 -0.39839551187E+03  0.79874538329E+03 -0.54165299618E+03  0.14115952463E+04  0.95000000000E+03 0.  0.
<mgrwt>
<rscale>  0 0.26190529E+04</rscale>
<asrwt>0</asrwt>
<pdfrwt beam="1">  1        2 0.14797143E+00 0.26190529E+04</pdfrwt>
<pdfrwt beam="2">  1       -2 0.27429884E+00 0.26190529E+04</pdfrwt>
<totfact> 0.10745577E+00</totfact>
</mgrwt>
</event>
<event>
 4    1  0.2043502E-008  0.2448656E+04  0.7816531E-02  0.8421509E-01
         -1   -1    0    0    0  501 -0.00000000000E+00  0.00000000000E+00  0.68107181359E+03  0.68107181359E+03  0.00000000000E+00 0.  1.
          1   -1    0    0  501    0  0.00000000000E+00 -0.00000000000E+00 -0.22009125048E+04  0.22009125048E+04  0.00000000000E+00 0. -1.
    2000013    1    1    2    0    0 -0.72795086148E+03 -0.24988152572E+03 -0.68431702193E+03  0.14011220575E+04  0.95000000000E+03 0.  0.
   -2000013    1    1    2    0    0  0.72795086148E+03  0.24988152572E+03 -0.83552366926E+03  0.14808622608E+04  0.95000000000E+03 0.  0.
<mgrwt>
<rscale>  0 0.24486563E+04</rscale>
<asrwt>0</asrwt>
<pdfrwt beam="2">  1        1 0.33860192E+00 0.24486563E+04</pdfrwt>
<pdfrwt beam="1">  1       -1 0.10478028E+00 0.24486563E+04</pdfrwt>
<totfact> 0.16603662E+00</totfact>
</mgrwt>
</event>
<event>
 4    1  0.2043502E-008  0.2059065E+04  0.7816531E-02  0.8579493E-01
         -2   -1    0    0    0  501 -0.00000000000E+00  0.00000000000E+00  0.62067687725E+03  0.62067687725E+03  0.00000000000E+00 0. -1.
          2   -1    0    0  501    0  0.00000000000E+00 -0.00000000000E+00 -0.17077112841E+04  0.17077112841E+04  0.00000000000E+00 0.  1.
    2000013    1    1    2    0    0  0.15968961959E+03  0.32127910040E+03 -0.35189475520E+03  0.10747329686E+04  0.95000000000E+03 0.  0.
   -2000013    1    1    2    0    0 -0.15968961959E+03 -0.32127910040E+03 -0.73513965161E+03  0.12536551928E+04  0.95000000000E+03 0.  0.
<mgrwt>
<rscale>  0 0.20590647E+04</rscale>
<asrwt>0</asrwt>
<pdfrwt beam="2">  1        2 0.26272481E+00 0.20590647E+04</pdfrwt>
<pdfrwt beam="1">  1       -2 0.95488751E-01 0.20590647E+04</pdfrwt>
<totfact> 0.82683105E+00</totfact>
</mgrwt>
</event>
<event>
 4    1  0.2043502E-008  0.2351594E+04  0.7816531E-02  0.8457852E-01
          2   -1    0    0  501    0  0.00000000000E+00  0.00000000000E+00  0.32965608386E+04  0.32965608386E+04  0.00000000000E+00 0.  1.
         -2   -1    0    0    0  501 -0.00000000000E+00 -0.00000000000E+00 -0.41937614526E+03  0.41937614526E+03  0.00000000000E+00 0. -1.
    2000013    1    1    2    0    0  0.41823846877E+03 -0.54895970715E+03  0.15349546922E+04  0.19325801624E+04  0.95000000000E+03 0.  0.
   -2000013    1    1    2    0    0 -0.41823846877E+03  0.54895970715E+03  0.13422300011E+04  0.17833568215E+04  0.95000000000E+03 0.  0.
<mgrwt>
<rscale>  0 0.23515943E+04</rscale>
<asrwt>0</asrwt>
<pdfrwt beam="1">  1        2 0.50716319E+00 0.23515943E+04</pdfrwt>
<pdfrwt beam="2">  1       -2 0.64519409E-01 0.23515943E+04</pdfrwt>
<totfact> 0.22458388E+00</totfact>
</mgrwt>
</event>
<event>
 4    1  0.2043502E-008  0.2104571E+04  0.7816531E-02  0.8559232E-01
         -2   -1    0    0    0  501 -0.00000000000E+00  0.00000000000E+00  0.31976912633E+03  0.31976912633E+03  0.00000000000E+00 0.  1.
          2   -1    0    0  501    0  0.00000000000E+00 -0.00000000000E+00 -0.34628259706E+04  0.34628259706E+04  0.00000000000E+00 0. -1.
    2000013    1    1    2    0    0 -0.41121879587E+03  0.17548888471E+03 -0.14456183908E+04  0.17866756221E+04  0.95000000000E+03 0.  0.
   -2000013    1    1    2    0    0  0.41121879587E+03 -0.17548888471E+03 -0.16974384535E+04  0.19959194748E+04  0.95000000000E+03 0.  0.
<mgrwt>
<rscale>  0 0.21045711E+04</rscale>
<asrwt>0</asrwt>
<pdfrwt beam="2">  1        2 0.53274248E+00 0.21045711E+04</pdfrwt>
<pdfrwt beam="1">  1       -2 0.49195248E-01 0.21045711E+04</pdfrwt>
<totfact> 0.31228839E+00</totfact>
</mgrwt>
</event>
<event>
 4    1  0.2043502E-008  0.2158191E+04  0.7816531E-02  0.8536034E-01
         -2   -1    0    0    0  501 -0.00000000000E+00  0.00000000000E+00  0.81914297199E+03  0.81914297199E+03  0.00000000000E+00 0. -1.
          2   -1    0    0  501    0  0.00000000000E+00 -0.00000000000E+00 -0.14215425715E+04  0.14215425715E+04  0.00000000000E+00 0.  1.
    2000013    1    1    2    0    0  0.47068441622E+03 -0.14576165719E+03 -0.44489664755E+03  0.11589751108E+04  0.95000000000E+03 0.  0.
   -2000013    1    1    2    0    0 -0.47068441622E+03  0.14576165719E+03 -0.15750295196E+03  0.10817104327E+04  0.95000000000E+03 0.  0.
<mgrwt>
<rscale>  0 0.21581905E+04</rscale>
<asrwt>0</asrwt>
<pdfrwt beam="2">  1        2 0.21869885E+00 0.21581905E+04</pdfrwt>
<pdfrwt beam="1">  1       -2 0.12602200E+00 0.21581905E+04</pdfrwt>
<totfact> 0.60614376E+00</totfact>
</mgrwt>
</event>
<event>
 4    1  0.2043502E-008  0.2620065E+04  0.7816531E-02  0.8361417E-01
          2   -1    0    0  501    0  0.00000000000E+00  0.00000000000E+00  0.29085938586E+04  0.29085938586E+04  0.00000000000E+00 0.  1.
         -2   -1    0    0    0  501 -0.00000000000E+00 -0.00000000000E+00 -0.59003936429E+03  0.59003936429E+03  0.00000000000E+00 0. -1.
    2000013    1    1    2    0    0 -0.89350322772E+03 -0.93618444331E+02  0.10510218122E+04  0.16775754173E+04  0.95000000000E+03 0.  0.
   -2000013    1    1    2    0    0  0.89350322772E+03  0.93618444331E+02  0.12675326821E+04  0.18210578056E+04  0.95000000000E+03 0.  0.
<mgrwt>
<rscale>  0 0.26200648E+04</rscale>
<asrwt>0</asrwt>
<pdfrwt beam="1">  1        2 0.44747597E+00 0.26200648E+04</pdfrwt>
<pdfrwt beam="2">  1       -2 0.90775289E-01 0.26200648E+04</pdfrwt>
<totfact> 0.18155511E+00</totfact>
</mgrwt>
</event>
<event>
 4    1  0.2043502E-008  0.2139082E+04  0.7816531E-02  0.8544220E-01
          2   -1    0    0  501    0  0.00000000000E+00  0.00000000000E+00  0.19395111890E+04  0.19395111890E+04  0.00000000000E+00 0.  1.
         -2   -1    0    0    0  501 -0.00000000000E+00 -0.00000000000E+00 -0.58979681214E+03  0.58979681214E+03  0.00000000000E+00 0. -1.
    2000013    1    1    2    0    0  0.19024636246E+03  0.44129886783E+03  0.79589953583E+03  0.13292458164E+04  0.95000000000E+03 0.  0.
   -2000013    1    1    2    0    0 -0.19024636246E+03 -0.44129886783E+03  0.55381484101E+03  0.12000621848E+04  0.95000000000E+03 0.  0.
<mgrwt>
<rscale>  0 0.21390816E+04</rscale>
<asrwt>0</asrwt>
<pdfrwt beam="1">  1        2 0.29838633E+00 0.21390816E+04</pdfrwt>
<pdfrwt beam="2">  1       -2 0.90737972E-01 0.21390816E+04</pdfrwt>
<totfact> 0.68769078E+00</totfact>
</mgrwt>
</event>
<event>
 4    1  0.2043502E-008  0.2238595E+04  0.7816531E-02  0.8502534E-01
         -2   -1    0    0    0  501 -0.00000000000E+00  0.00000000000E+00  0.39457526236E+03  0.39457526236E+03  0.00000000000E+00 0. -1.
          2   -1    0    0  501    0  0.00000000000E+00 -0.00000000000E+00 -0.31751273951E+04  0.31751273951E+04  0.00000000000E+00 0.  1.
    2000013    1    1    2    0    0 -0.45264115286E+03 -0.37033120391E+03 -0.15355308565E+04  0.18979947906E+04  0.95000000000E+03 0.  0.
   -2000013    1    1    2    0    0  0.45264115286E+03  0.37033120391E+03 -0.12450212762E+04  0.16717078669E+04  0.95000000000E+03 0.  0.
<mgrwt>
<rscale>  0 0.22385948E+04</rscale>
<asrwt>0</asrwt>
<pdfrwt beam="2">  1        2 0.48848115E+00 0.22385948E+04</pdfrwt>
<pdfrwt beam="1">  1       -2 0.60703885E-01 0.22385948E+04</pdfrwt>
<totfact> 0.31040637E+00</totfact>
</mgrwt>
</event>
<event>
 4    1  0.2043502E-008  0.2574210E+04  0.7816531E-02  0.8377015E-01
         -1   -1    0    0    0  501 -0.00000000000E+00  0.00000000000E+00  0.19538959659E+04  0.19538959659E+04  0.00000000000E+00 0. -1.
          1   -1    0    0  501    0  0.00000000000E+00 -0.00000000000E+00 -0.84786474369E+03  0.84786474369E+03  0.00000000000E+00 0.  1.
    2000013    1    1    2    0    0  0.45739253052E+03  0.73422397403E+03  0.46979256529E+03  0.13680269827E+04  0.95000000000E+03 0.  0.
   -2000013    1    1    2    0    0 -0.45739253052E+03 -0.73422397403E+03  0.63623865691E+03  0.14337337269E+04  0.95000000000E+03 0.  0.
<mgrwt>
<rscale>  0 0.25742102E+04</rscale>
<asrwt>0</asrwt>
<pdfrwt beam="2">  1        1 0.13044073E+00 0.25742102E+04</pdfrwt>
<pdfrwt beam="1">  1       -1 0.30059938E+00 0.25742102E+04</pdfrwt>
<totfact> 0.58107801E-01</totfact>
</mgrwt>
</event>
<event>
 4    1  0.2043502E-008  0.2360574E+04  0.7816531E-02  0.8454413E-01
         -2   -1    0    0    0  501 -0.00000000000E+00  0.00000000000E+00  0.64776991633E+03  0.64776991633E+03  0.00000000000E+00 0. -1.
          2   -1    0    0  501    0  0.00000000000E+00 -0.00000000000E+00 -0.21505736620E+04  0.21505736620E+04  0.00000000000E+00 0.  1.
    2000013    1    1    2    0    0  0.38440964757E+03  0.53474693830E+03 -0.10340563147E+04  0.15509666428E+04  0.95000000000E+03 0.  0.
   -2000013    1    1    2    0    0 -0.38440964757E+03 -0.53474693830E+03 -0.46874743095E+03  0.12473769355E+04  0.95000000000E+03 0.  0.
<mgrwt>
<rscale>  0 0.23605736E+04</rscale>
<asrwt>0</asrwt>
<pdfrwt beam="2">  1        2 0.33085749E+00 0.23605736E+04</pdfrwt>
<pdfrwt beam="1">  1       -2 0.99656910E-01 0.23605736E+04</pdfrwt>
<totfact> 0.41351761E+00</totfact>
</mgrwt>
</event>
<event>
 4    1  0.2043502E-008  0.3471267E+04  0.7816531E-02  0.8120633E-01
         -2   -1    0    0    0  501 -0.00000000000E+00  0.00000000000E+00  0.15882743378E+04  0.15882743378E+04  0.00000000000E+00 0. -1.
          2   -1    0    0  501    0  0.00000000000E+00 -0.00000000000E+00 -0.18966649801E+04  0.18966649801E+04  0.00000000000E+00 0.  1.
    2000013    1    1    2    0    0 -0.77601451163E+03  0.80855958338E+03  0.77354237415E+03  0.16603719242E+04  0.95000000000E+03 0.  0.
   -2000013    1    1    2    0    0  0.77601451163E+03 -0.80855958338E+03 -0.10819330164E+04  0.18245673937E+04  0.95000000000E+03 0.  0.
<mgrwt>
<rscale>  0 0.34712674E+04</rscale>
<asrwt>0</asrwt>
<pdfrwt beam="2">  1        2 0.29179461E+00 0.34712674E+04</pdfrwt>
<pdfrwt beam="1">  1       -2 0.24434990E+00 0.34712674E+04</pdfrwt>
<totfact> 0.43735310E-01</totfact>
</mgrwt>
</event>
<event>
 4    1  0.2043502E-008  0.2563446E+04  0.7816531E-02  0.8380725E-01
         -2   -1    0    0    0  501 -0.00000000000E+00  0.00000000000E+00  0.57148967456E+03  0.57148967456E+03  0.00000000000E+00 0. -1.
          2   -1    0    0  501    0  0.00000000000E+00 -0.00000000000E+00 -0.28746163512E+04  0.28746163512E+04  0.00000000000E+00 0.  1.
    2000013    1    1    2    0    0 -0.12090544436E+01 -0.74921117363E+03 -0.58280914973E+03  0.13429390714E+04  0.95000000000E+03 0.  0.
   -2000013    1    1    2    0    0  0.12090544436E+01  0.74921117363E+03 -0.17203175269E+04  0.21031669544E+04  0.95000000000E+03 0.  0.
<mgrwt>
<rscale>  0 0.25634458E+04</rscale>
<asrwt>0</asrwt>
<pdfrwt beam="2">  1        2 0.44224867E+00 0.25634458E+04</pdfrwt>
<pdfrwt beam="1">  1       -2 0.87921487E-01 0.25634458E+04</pdfrwt>
<totfact> 0.20604283E+00</totfact>
</mgrwt>
</event>
<event>
 4    1  0.2043502E-008  0.2216174E+04  0.7816531E-02  0.8511726E-01
          2   -1    0    0  501    0  0.00000000000E+00  0.00000000000E+00  0.12092506268E+04  0.12092506268E+04  0.00000000000E+00 0.  1.
         -2   -1    0    0    0  501 -0.00000000000E+00 -0.00000000000E+00 -0.10153861287E+04  0.10153861287E+04  0.00000000000E+00 0. -1.
    2000013    1    1    2    0    0  0.38659782907E+03  0.37260386181E+03 -0.96325150070E+02  0.10954770896E+04  0.95000000000E+03 0.  0.
   -2000013    1    1    2    0    0 -0.38659782907E+03 -0.37260386181E+03  0.29018964819E+03  0.11291596659E+04  0.95000000000E+03 0.  0.
<mgrwt>
<rscale>  0 0.22161736E+04</rscale>
<asrwt>0</asrwt>
<pdfrwt beam="1">  1        2 0.18603856E+00 0.22161736E+04</pdfrwt>
<pdfrwt beam="2">  1       -2 0.15621325E+00 0.22161736E+04</pdfrwt>
<totfact> 0.45891894E+00</totfact>
</mgrwt>
</event>
<event>
 4    1  0.2043502E-008  0.2638349E+04  0.7816531E-02  0.8355290E-01
          2   -1    0    0  501    0  0.00000000000E+00  0.00000000000E+00  0.25241446189E+04  0.25241446189E+04  0.00000000000E+00 0.  1.
         -2   -1    0    0    0  501 -0.00000000000E+00 -0.00000000000E+00 -0.68943009848E+03  0.68943009848E+03  0.00000000000E+00 0. -1.
    2000013    1    1    2    0    0  0.19964481460E+03 -0.33798773653E+03 -0.89727294607E+02  0.10318162382E+04  0.95000000000E+03 0.  0.
   -2000013    1    1    2    0    0 -0.19964481460E+03  0.33798773653E+03  0.19244418151E+04  0.21817584792E+04  0.95000000000E+03 0.  0.
<mgrwt>
<rscale>  0 0.26383489E+04</rscale>
<asrwt>0</asrwt>
<pdfrwt beam="1">  1        2 0.38832994E+00 0.26383489E+04</pdfrwt>
<pdfrwt beam="2">  1       -2 0.10606617E+00 0.26383489E+04</pdfrwt>
<totfact> 0.21316903E+00</totfact>
</mgrwt>
</event>
<event>
 4    1  0.2043502E-008  0.4234076E+04  0.7816531E-02  0.7958922E-01
         -2   -1    0    0    0  501 -0.00000000000E+00  0.00000000000E+00  0.18553863580E+04  0.18553863580E+04  0.00000000000E+00 0. -1.
          2   -1    0    0  501    0  0.00000000000E+00 -0.00000000000E+00 -0.24155885120E+04  0.24155885120E+04  0.00000000000E+00 0.  1.
    2000013    1    1    2    0    0 -0.18122306935E+04  0.76490973613E+02 -0.82267242131E+03  0.22066537718E+04  0.95000000000E+03 0.  0.
   -2000013    1    1    2    0    0  0.18122306935E+04 -0.76490973613E+02  0.26247026732E+03  0.20643210983E+04  0.95000000000E+03 0.  0.
<mgrwt>
<rscale>  0 0.42340760E+04</rscale>
<asrwt>0</asrwt>
<pdfrwt beam="2">  1        2 0.37162900E+00 0.42340760E+04</pdfrwt>
<pdfrwt beam="1">  1       -2 0.28544405E+00 0.42340760E+04</pdfrwt>
<totfact> 0.11761621E-01</totfact>
</mgrwt>
</event>
<event>
 4    1  0.2043502E-008  0.2166890E+04  0.7816531E-02  0.8532337E-01
          2   -1    0    0  501    0  0.00000000000E+00  0.00000000000E+00  0.19315080028E+04  0.19315080028E+04  0.00000000000E+00 0.  1.
         -2   -1    0    0    0  501 -0.00000000000E+00 -0.00000000000E+00 -0.60773938595E+03  0.60773938595E+03  0.00000000000E+00 0. -1.
    2000013    1    1    2    0    0  0.28696206588E+03 -0.30633962292E+03  0.30039077992E+03  0.10811687253E+04  0.95000000000E+03 0.  0.
   -2000013    1    1    2    0    0 -0.28696206588E+03  0.30633962292E+03  0.10233778369E+04  0.14580786635E+04  0.95000000000E+03 0.  0.
<mgrwt>
<rscale>  0 0.21668904E+04</rscale>
<asrwt>0</asrwt>
<pdfrwt beam="1">  1        2 0.29715507E+00 0.21668904E+04</pdfrwt>
<pdfrwt beam="2">  1       -2 0.93498368E-01 0.21668904E+04</pdfrwt>
<totfact> 0.64659540E+00</totfact>
</mgrwt>
</event>
<event>
 4    1  0.2043502E-008  0.2659728E+04  0.7816531E-02  0.8348191E-01
         -2   -1    0    0    0  501 -0.00000000000E+00  0.00000000000E+00  0.12433298343E+04  0.12433298343E+04  0.00000000000E+00 0. -1.
          2   -1    0    0  501    0  0.00000000000E+00 -0.00000000000E+00 -0.14224212776E+04  0.14224212776E+04  0.00000000000E+00 0.  1.
    2000013    1    1    2    0    0  0.89690256588E+03 -0.19107681587E+03  0.69224630699E+02  0.13222089894E+04  0.95000000000E+03 0.  0.
   -2000013    1    1    2    0    0 -0.89690256588E+03  0.19107681587E+03 -0.24831607406E+03  0.13435421225E+04  0.95000000000E+03 0.  0.
<mgrwt>
<rscale>  0 0.26597284E+04</rscale>
<asrwt>0</asrwt>
<pdfrwt beam="2">  1        2 0.21883404E+00 0.26597284E+04</pdfrwt>
<pdfrwt beam="1">  1       -2 0.19128151E+00 0.26597284E+04</pdfrwt>
<totfact> 0.18794620E+00</totfact>
</mgrwt>
</event>
<event>
 4    1  0.2043502E-008  0.2488435E+04  0.7816531E-02  0.8407117E-01
          2   -1    0    0  501    0  0.00000000000E+00  0.00000000000E+00  0.22379043399E+04  0.22379043399E+04  0.00000000000E+00 0.  1.
         -2   -1    0    0    0  501 -0.00000000000E+00 -0.00000000000E+00 -0.69175308687E+03  0.69175308687E+03  0.00000000000E+00 0. -1.
    2000013    1    1    2    0    0  0.59710273845E+03  0.28005911880E+03  0.13133726154E+04  0.17499749761E+04  0.95000000000E+03 0.  0.
   -2000013    1    1    2    0    0 -0.59710273845E+03 -0.28005911880E+03  0.23277863771E+03  0.11796824507E+04  0.95000000000E+03 0.  0.
<mgrwt>
<rscale>  0 0.24884350E+04</rscale>
<asrwt>0</asrwt>
<pdfrwt beam="1">  1        2 0.34429297E+00 0.24884350E+04</pdfrwt>
<pdfrwt beam="2">  1       -2 0.10642355E+00 0.24884350E+04</pdfrwt>
<totfact> 0.31226706E+00</totfact>
</mgrwt>
</event>
<event>
 4    1  0.2043502E-008  0.3138251E+04  0.7816531E-02  0.8205318E-01
         -2   -1    0    0    0  501 -0.00000000000E+00  0.00000000000E+00  0.19009754072E+04  0.19009754072E+04  0.00000000000E+00 0. -1.
          2   -1    0    0  501    0  0.00000000000E+00 -0.00000000000E+00 -0.12952059299E+04  0.12952059299E+04  0.00000000000E+00 0.  1.
    2000013    1    1    2    0    0  0.11042011459E+04 -0.50879147249E+02 -0.28905470613E+03  0.14859008989E+04  0.95000000000E+03 0.  0.
   -2000013    1    1    2    0    0 -0.11042011459E+04  0.50879147249E+02  0.89482418348E+03  0.17102804383E+04  0.95000000000E+03 0.  0.
<mgrwt>
<rscale>  0 0.31382509E+04</rscale>
<asrwt>0</asrwt>
<pdfrwt beam="2">  1        2 0.19926245E+00 0.31382509E+04</pdfrwt>
<pdfrwt beam="1">  1       -2 0.29245776E+00 0.31382509E+04</pdfrwt>
<totfact> 0.49770068E-01</totfact>
</mgrwt>
</event>
<event>
 4    1  0.2043502E-008  0.2373575E+04  0.7816531E-02  0.8449464E-01
         -2   -1    0    0    0  501 -0.00000000000E+00  0.00000000000E+00  0.15092209464E+04  0.15092209464E+04  0.00000000000E+00 0. -1.
          2   -1    0    0  501    0  0.00000000000E+00 -0.00000000000E+00 -0.93323922046E+03  0.93323922046E+03  0.00000000000E+00 0.  1.
    2000013    1    1    2    0    0  0.46147305405E+03 -0.47953760857E+03  0.54637675414E+03  0.12821627257E+04  0.95000000000E+03 0.  0.
   -2000013    1    1    2    0    0 -0.46147305405E+03  0.47953760857E+03  0.29604971794E+02  0.11602974412E+04  0.95000000000E+03 0.  0.
<mgrwt>
<rscale>  0 0.23735747E+04</rscale>
<asrwt>0</asrwt>
<pdfrwt beam="2">  1        2 0.14357526E+00 0.23735747E+04</pdfrwt>
<pdfrwt beam="1">  1       -2 0.23218784E+00 0.23735747E+04</pdfrwt>
<totfact> 0.20790246E+00</totfact>
</mgrwt>
</event>
<event>
 4    1  0.2043502E-008  0.4141252E+04  0.7816531E-02  0.7976642E-01
          1   -1    0    0  501    0  0.00000000000E+00  0.00000000000E+00  0.25490834819E+04  0.25490834819E+04  0.00000000000E+00 0. -1.
         -1   -1    0    0    0  501 -0.00000000000E+00 -0.00000000000E+00 -0.16819738282E+04  0.16819738282E+04  0.00000000000E+00 0.  1.
    2000013    1    1    2    0    0 -0.12038893324E+04  0.13909761466E+04  0.46294560546E+03  0.21215519788E+04  0.95000000000E+03 0.  0.
   -2000013    1    1    2    0    0  0.12038893324E+04 -0.13909761466E+04  0.40416404818E+03  0.21095053313E+04  0.95000000000E+03 0.  0.
<mgrwt>
<rscale>  0 0.41412518E+04</rscale>
<asrwt>0</asrwt>
<pdfrwt beam="1">  1        1 0.39216669E+00 0.41412518E+04</pdfrwt>
<pdfrwt beam="2">  1       -1 0.25876520E+00 0.41412518E+04</pdfrwt>
<totfact> 0.59220626E-02</totfact>
</mgrwt>
</event>
<event>
 4    1  0.2043502E-008  0.2165432E+04  0.7816531E-02  0.8532955E-01
         -1   -1    0    0    0  501 -0.00000000000E+00  0.00000000000E+00  0.63439161023E+03  0.63439161023E+03  0.00000000000E+00 0. -1.
          1   -1    0    0  501    0  0.00000000000E+00 -0.00000000000E+00 -0.18478711919E+04  0.18478711919E+04  0.00000000000E+00 0.  1.
    2000013    1    1    2    0    0  0.26212148553E+03 -0.69961624301E+01 -0.11206887428E+04  0.14923806075E+04  0.95000000000E+03 0.  0.
   -2000013    1    1    2    0    0 -0.26212148553E+03  0.69961624301E+01 -0.92790838905E+02  0.98988219463E+03  0.95000000000E+03 0.  0.
<mgrwt>
<rscale>  0 0.21654320E+04</rscale>
<asrwt>0</asrwt>
<pdfrwt beam="2">  1        1 0.28428788E+00 0.21654320E+04</pdfrwt>
<pdfrwt beam="1">  1       -1 0.97598709E-01 0.21654320E+04</pdfrwt>
<totfact> 0.34818152E+00</totfact>
</mgrwt>
</event>
<event>
 4    1  0.2043502E-008  0.2906777E+04  0.7816531E-02  0.8270864E-01
          2   -1    0    0  501    0  0.00000000000E+00  0.00000000000E+00  0.28969591558E+04  0.28969591558E+04  0.00000000000E+00 0.  1.
         -2   -1    0    0    0  501 -0.00000000000E+00 -0.00000000000E+00 -0.72915712611E+03  0.72915712611E+03  0.00000000000E+00 0. -1.
    2000013    1    1    2    0    0  0.51865052953E+03  0.96975278337E+03  0.11094537448E+04  0.18283343361E+04  0.95000000000E+03 0.  0.
   -2000013    1    1    2    0    0 -0.51865052953E+03 -0.96975278337E+03  0.10583482849E+04  0.17977819458E+04  0.95000000000E+03 0.  0.
<mgrwt>
<rscale>  0 0.29067772E+04</rscale>
<asrwt>0</asrwt>
<pdfrwt beam="1">  1        2 0.44568602E+00 0.29067772E+04</pdfrwt>
<pdfrwt beam="2">  1       -2 0.11217802E+00 0.29067772E+04</pdfrwt>
<totfact> 0.10898350E+00</totfact>
</mgrwt>
</event>
<event>
 4    1  0.2043502E-008  0.2278793E+04  0.7816531E-02  0.8486330E-01
          2   -1    0    0  501    0  0.00000000000E+00  0.00000000000E+00  0.42997958731E+04  0.42997958731E+04  0.00000000000E+00 0. -1.
         -2   -1    0    0    0  501 -0.00000000000E+00 -0.00000000000E+00 -0.30192707162E+03  0.30192707162E+03  0.00000000000E+00 0.  1.
    2000013    1    1    2    0    0  0.53704296214E+03  0.28321629719E+03  0.16665157019E+04  0.20120639152E+04  0.95000000000E+03 0.  0.
   -2000013    1    1    2    0    0 -0.53704296214E+03 -0.28321629719E+03  0.23313530995E+04  0.25896590295E+04  0.95000000000E+03 0.  0.
<mgrwt>
<rscale>  0 0.22787933E+04</rscale>
<asrwt>0</asrwt>
<pdfrwt beam="1">  1        2 0.66150701E+00 0.22787933E+04</pdfrwt>
<pdfrwt beam="2">  1       -2 0.46450322E-01 0.22787933E+04</pdfrwt>
<totfact> 0.76358032E-01</totfact>
</mgrwt>
</event>
<event>
 4    1  0.2043502E-008  0.2844478E+04  0.7816531E-02  0.8289591E-01
          2   -1    0    0  501    0  0.00000000000E+00  0.00000000000E+00  0.14520680740E+04  0.14520680740E+04  0.00000000000E+00 0.  1.
         -2   -1    0    0    0  501 -0.00000000000E+00 -0.00000000000E+00 -0.13930228533E+04  0.13930228533E+04  0.00000000000E+00 0. -1.
    2000013    1    1    2    0    0 -0.18755676728E+03 -0.10413653415E+04  0.41262727707E+01  0.14220184041E+04  0.95000000000E+03 0.  0.
   -2000013    1    1    2    0    0  0.18755676728E+03  0.10413653415E+04  0.54918947887E+02  0.14230725232E+04  0.95000000000E+03 0.  0.
<mgrwt>
<rscale>  0 0.28444782E+04</rscale>
<asrwt>0</asrwt>
<pdfrwt beam="1">  1        2 0.22339509E+00 0.28444782E+04</pdfrwt>
<pdfrwt beam="2">  1       -2 0.21431121E+00 0.28444782E+04</pdfrwt>
<totfact> 0.12588140E+00</totfact>
</mgrwt>
</event>
<event>
 4    1  0.2043502E-008  0.3066341E+04  0.7816531E-02  0.8225037E-01
          2   -1    0    0  501    0  0.00000000000E+00  0.00000000000E+00  0.20520786062E+04  0.20520786062E+04  0.00000000000E+00 0.  1.
         -2   -1    0    0    0  501 -0.00000000000E+00 -0.00000000000E+00 -0.11454780683E+04  0.11454780683E+04  0.00000000000E+00 0. -1.
    2000013    1    1    2    0    0 -0.54136173800E+03  0.88377010832E+03 -0.18441560422E+03  0.14179672954E+04  0.95000000000E+03 0.  0.
   -2000013    1    1    2    0    0  0.54136173800E+03 -0.88377010832E+03  0.10910161421E+04  0.17795893791E+04  0.95000000000E+03 0.  0.
<mgrwt>
<rscale>  0 0.30663405E+04</rscale>
<asrwt>0</asrwt>
<pdfrwt beam="1">  1        2 0.31570440E+00 0.30663405E+04</pdfrwt>
<pdfrwt beam="2">  1       -2 0.17622740E+00 0.30663405E+04</pdfrwt>
<totfact> 0.10249224E+00</totfact>
</mgrwt>
</event>
<event>
 4    1  0.2043502E-008  0.2576484E+04  0.7816531E-02  0.8376233E-01
         -2   -1    0    0    0  501 -0.00000000000E+00  0.00000000000E+00  0.51267977666E+03  0.51267977666E+03  0.00000000000E+00 0. -1.
          2   -1    0    0  501    0  0.00000000000E+00 -0.00000000000E+00 -0.32370441453E+04  0.32370441453E+04  0.00000000000E+00 0.  1.
    2000013    1    1    2    0    0  0.29011535623E+03 -0.10260158565E+03 -0.17771447633E+03  0.10142861728E+04  0.95000000000E+03 0.  0.
   -2000013    1    1    2    0    0 -0.29011535623E+03  0.10260158565E+03 -0.25466498923E+04  0.27354377491E+04  0.95000000000E+03 0.  0.
<mgrwt>
<rscale>  0 0.25764837E+04</rscale>
<asrwt>0</asrwt>
<pdfrwt beam="2">  1        2 0.49800680E+00 0.25764837E+04</pdfrwt>
<pdfrwt beam="1">  1       -2 0.78873810E-01 0.25764837E+04</pdfrwt>
<totfact> 0.15513312E+00</totfact>
</mgrwt>
</event>
<event>
 4    1  0.2043502E-008  0.2236183E+04  0.7816531E-02  0.8503517E-01
         -2   -1    0    0    0  501 -0.00000000000E+00  0.00000000000E+00  0.67289842143E+03  0.67289842143E+03  0.00000000000E+00 0. -1.
          2   -1    0    0  501    0  0.00000000000E+00 -0.00000000000E+00 -0.18578273753E+04  0.18578273753E+04  0.00000000000E+00 0.  1.
    2000013    1    1    2    0    0  0.38186033868E+03 -0.95980842284E+02 -0.95797592651E+02  0.10328149975E+04  0.95000000000E+03 0.  0.
   -2000013    1    1    2    0    0 -0.38186033868E+03  0.95980842284E+02 -0.10891313612E+04  0.14979107992E+04  0.95000000000E+03 0.  0.
<mgrwt>
<rscale>  0 0.22361835E+04</rscale>
<asrwt>0</asrwt>
<pdfrwt beam="2">  1        2 0.28581959E+00 0.22361835E+04</pdfrwt>
<pdfrwt beam="1">  1       -2 0.10352284E+00 0.22361835E+04</pdfrwt>
<totfact> 0.55542741E+00</totfact>
</mgrwt>
</event>
<event>
 4    1  0.2043502E-008  0.2038693E+04  0.7816531E-02  0.8588741E-01
         -2   -1    0    0    0  501 -0.00000000000E+00  0.00000000000E+00  0.79632412914E+03  0.79632412914E+03  0.00000000000E+00 0. -1.
          2   -1    0    0  501    0  0.00000000000E+00 -0.00000000000E+00 -0.13048302185E+04  0.13048302185E+04  0.00000000000E+00 0.  1.
    2000013    1    1    2    0    0 -0.35027958436E+03  0.77863477602E+02 -0.34533062650E+03  0.10726191076E+04  0.95000000000E+03 0.  0.
   -2000013    1    1    2    0    0  0.35027958436E+03 -0.77863477602E+02 -0.16317546287E+03  0.10285352401E+04  0.95000000000E+03 0.  0.
<mgrwt>
<rscale>  0 0.20386935E+04</rscale>
<asrwt>0</asrwt>
<pdfrwt beam="2">  1        2 0.20074311E+00 0.20386935E+04</pdfrwt>
<pdfrwt beam="1">  1       -2 0.12251141E+00 0.20386935E+04</pdfrwt>
<totfact> 0.76720513E+00</totfact>
</mgrwt>
</event>
<event>
 4    1  0.2043502E-008  0.2492770E+04  0.7816531E-02  0.8405566E-01
          2   -1    0    0  501    0  0.00000000000E+00  0.00000000000E+00  0.26913420711E+04  0.26913420711E+04  0.00000000000E+00 0.  1.
         -2   -1    0    0    0  501 -0.00000000000E+00 -0.00000000000E+00 -0.57721246468E+03  0.57721246468E+03  0.00000000000E+00 0. -1.
    2000013    1    1    2    0    0  0.72585984269E+03  0.35227273130E+03  0.10606799734E+04  0.16366155915E+04  0.95000000000E+03 0.  0.
   -2000013    1    1    2    0    0 -0.72585984269E+03 -0.35227273130E+03  0.10534496330E+04  0.16319389442E+04  0.95000000000E+03 0.  0.
<mgrwt>
<rscale>  0 0.24927705E+04</rscale>
<asrwt>0</asrwt>
<pdfrwt beam="1">  1        2 0.41405262E+00 0.24927705E+04</pdfrwt>
<pdfrwt beam="2">  1       -2 0.88801919E-01 0.24927705E+04</pdfrwt>
<totfact> 0.26136119E+00</totfact>
</mgrwt>
</event>
<event>
 4    1  0.2043502E-008  0.2961769E+04  0.7816531E-02  0.8254733E-01
          2   -1    0    0  501    0  0.00000000000E+00  0.00000000000E+00  0.12387106000E+04  0.12387106000E+04  0.00000000000E+00 0.  1.
         -2   -1    0    0    0  501 -0.00000000000E+00 -0.00000000000E+00 -0.17704049543E+04  0.17704049543E+04  0.00000000000E+00 0. -1.
    2000013    1    1    2    0    0 -0.71126904491E+03  0.27582599132E+03  0.58935445140E+03  0.13534483001E+04  0.95000000000E+03 0.  0.
   -2000013    1    1    2    0    0  0.71126904491E+03 -0.27582599132E+03 -0.11210488057E+04  0.16556672542E+04  0.95000000000E+03 0.  0.
<mgrwt>
<rscale>  0 0.29617693E+04</rscale>
<asrwt>0</asrwt>
<pdfrwt beam="1">  1        2 0.19057086E+00 0.29617693E+04</pdfrwt>
<pdfrwt beam="2">  1       -2 0.27236999E+00 0.29617693E+04</pdfrwt>
<totfact> 0.72302757E-01</totfact>
</mgrwt>
</event>
<event>
 4    1  0.2043502E-008  0.2358511E+04  0.7816531E-02  0.8455202E-01
         -2   -1    0    0    0  501 -0.00000000000E+00  0.00000000000E+00  0.13561319438E+04  0.13561319438E+04  0.00000000000E+00 0. -1.
          2   -1    0    0  501    0  0.00000000000E+00 -0.00000000000E+00 -0.10254485297E+04  0.10254485297E+04  0.00000000000E+00 0.  1.
    2000013    1    1    2    0    0 -0.33403178343E+03 -0.59460589327E+03  0.31851628029E+03  0.12120585883E+04  0.95000000000E+03 0.  0.
   -2000013    1    1    2    0    0  0.33403178343E+03  0.59460589327E+03  0.12167133790E+02  0.11695218851E+04  0.95000000000E+03 0.  0.
<mgrwt>
<rscale>  0 0.23585110E+04</rscale>
<asrwt>0</asrwt>
<pdfrwt beam="2">  1        2 0.15776131E+00 0.23585110E+04</pdfrwt>
<pdfrwt beam="1">  1       -2 0.20863568E+00 0.23585110E+04</pdfrwt>
<totfact> 0.25574619E+00</totfact>
</mgrwt>
</event>
<event>
 4    1  0.2043502E-008  0.2899572E+04  0.7816531E-02  0.8273005E-01
          2   -1    0    0  501    0  0.00000000000E+00  0.00000000000E+00  0.21209650054E+04  0.21209650054E+04  0.00000000000E+00 0.  1.
         -2   -1    0    0    0  501 -0.00000000000E+00 -0.00000000000E+00 -0.99100156693E+03  0.99100156693E+03  0.00000000000E+00 0. -1.
    2000013    1    1    2    0    0 -0.14953376463E+03  0.20154905710E+03  0.17090872822E+04  0.19714110955E+04  0.95000000000E+03 0.  0.
   -2000013    1    1    2    0    0  0.14953376463E+03 -0.20154905710E+03 -0.57912384380E+03  0.11405554768E+04  0.95000000000E+03 0.  0.
<mgrwt>
<rscale>  0 0.28995721E+04</rscale>
<asrwt>0</asrwt>
<pdfrwt beam="1">  1        2 0.32630231E+00 0.28995721E+04</pdfrwt>
<pdfrwt beam="2">  1       -2 0.15246178E+00 0.28995721E+04</pdfrwt>
<totfact> 0.14163308E+00</totfact>
</mgrwt>
</event>
<event>
 4    1  0.2043502E-008  0.2665422E+04  0.7816531E-02  0.8346312E-01
         -2   -1    0    0    0  501 -0.00000000000E+00  0.00000000000E+00  0.63027270799E+03  0.63027270799E+03  0.00000000000E+00 0. -1.
          2   -1    0    0  501    0  0.00000000000E+00 -0.00000000000E+00 -0.28180164670E+04  0.28180164670E+04  0.00000000000E+00 0.  1.
    2000013    1    1    2    0    0  0.46777158283E+03  0.78451836388E+03 -0.83727440443E+03  0.15613480539E+04  0.95000000000E+03 0.  0.
   -2000013    1    1    2    0    0 -0.46777158283E+03 -0.78451836388E+03 -0.13504693546E+04  0.18869411211E+04  0.95000000000E+03 0.  0.
<mgrwt>
<rscale>  0 0.26654222E+04</rscale>
<asrwt>0</asrwt>
<pdfrwt beam="2">  1        2 0.43354100E+00 0.26654222E+04</pdfrwt>
<pdfrwt beam="1">  1       -2 0.96965030E-01 0.26654222E+04</pdfrwt>
<totfact> 0.17618440E+00</totfact>
</mgrwt>
</event>
<event>
 4    1  0.2043502E-008  0.2390425E+04  0.7816531E-02  0.8443097E-01
         -2   -1    0    0    0  501 -0.00000000000E+00  0.00000000000E+00  0.51206773261E+03  0.51206773261E+03  0.00000000000E+00 0. -1.
          2   -1    0    0  501    0  0.00000000000E+00 -0.00000000000E+00 -0.27897344997E+04  0.27897344997E+04  0.00000000000E+00 0.  1.
    2000013    1    1    2    0    0  0.32800437538E+02 -0.54312169319E+03 -0.18012285524E+04  0.21078380726E+04  0.95000000000E+03 0.  0.
   -2000013    1    1    2    0    0 -0.32800437538E+02  0.54312169319E+03 -0.47643821471E+03  0.11939641597E+04  0.95000000000E+03 0.  0.
<mgrwt>
<rscale>  0 0.23904251E+04</rscale>
<asrwt>0</asrwt>
<pdfrwt beam="2">  1        2 0.42918992E+00 0.23904251E+04</pdfrwt>
<pdfrwt beam="1">  1       -2 0.78779651E-01 0.23904251E+04</pdfrwt>
<totfact> 0.30210399E+00</totfact>
</mgrwt>
</event>
<event>
 4    1  0.2043502E-008  0.3523662E+04  0.7816531E-02  0.8108205E-01
         -2   -1    0    0    0  501 -0.00000000000E+00  0.00000000000E+00  0.87830081789E+03  0.87830081789E+03  0.00000000000E+00 0. -1.
          2   -1    0    0  501    0  0.00000000000E+00 -0.00000000000E+00 -0.35341525786E+04  0.35341525786E+04  0.00000000000E+00 0.  1.
    2000013    1    1    2    0    0 -0.11300904104E+04  0.18649083764E+03 -0.25090602982E+04  0.29171504500E+04  0.95000000000E+03 0.  0.
   -2000013    1    1    2    0    0  0.11300904104E+04 -0.18649083764E+03 -0.14679146252E+03  0.14953029464E+04  0.95000000000E+03 0.  0.
<mgrwt>
<rscale>  0 0.35236624E+04</rscale>
<asrwt>0</asrwt>
<pdfrwt beam="2">  1        2 0.54371577E+00 0.35236624E+04</pdfrwt>
<pdfrwt beam="1">  1       -2 0.13512321E+00 0.35236624E+04</pdfrwt>
<totfact> 0.24787891E-01</totfact>
</mgrwt>
</event>
<event>
 4    1  0.2043502E-008  0.2782553E+04  0.7816531E-02  0.8308706E-01
         -2   -1    0    0    0  501 -0.00000000000E+00  0.00000000000E+00  0.13649908698E+04  0.13649908698E+04  0.00000000000E+00 0. -1.
          2   -1    0    0  501    0  0.00000000000E+00 -0.00000000000E+00 -0.14180679340E+04  0.14180679340E+04  0.00000000000E+00 0.  1.
    2000013    1    1    2    0    0  0.16850178260E+03  0.94572437796E+03  0.30573016731E+03  0.13851925444E+04  0.95000000000E+03 0.  0.
   -2000013    1    1    2    0    0 -0.16850178260E+03 -0.94572437796E+03 -0.35880723150E+03  0.13978662594E+04  0.95000000000E+03 0.  0.
<mgrwt>
<rscale>  0 0.27825526E+04</rscale>
<asrwt>0</asrwt>
<pdfrwt beam="2">  1        2 0.21816430E+00 0.27825526E+04</pdfrwt>
<pdfrwt beam="1">  1       -2 0.20999860E+00 0.27825526E+04</pdfrwt>
<totfact> 0.14100915E+00</totfact>
</mgrwt>
</event>
<event>
 4    1  0.2043502E-008  0.3851425E+04  0.7816531E-02  0.8035208E-01
         -2   -1    0    0    0  501 -0.00000000000E+00  0.00000000000E+00  0.18488408054E+04  0.18488408054E+04  0.00000000000E+00 0. -1.
          2   -1    0    0  501    0  0.00000000000E+00 -0.00000000000E+00 -0.20057800493E+04  0.20057800493E+04  0.00000000000E+00 0.  1.
    2000013    1    1    2    0    0 -0.10711827204E+04  0.62363094493E+03  0.10491952102E+04  0.18813980347E+04  0.95000000000E+03 0.  0.
   -2000013    1    1    2    0    0  0.10711827204E+04 -0.62363094493E+03 -0.12061344541E+04  0.19732228200E+04  0.95000000000E+03 0.  0.
<mgrwt>
<rscale>  0 0.38514247E+04</rscale>
<asrwt>0</asrwt>
<pdfrwt beam="2">  1        2 0.30858155E+00 0.38514247E+04</pdfrwt>
<pdfrwt beam="1">  1       -2 0.28443705E+00 0.38514247E+04</pdfrwt>
<totfact> 0.20952911E-01</totfact>
</mgrwt>
</event>
<event>
 4    1  0.2043502E-008  0.2648248E+04  0.7816531E-02  0.8351995E-01
          2   -1    0    0  501    0  0.00000000000E+00  0.00000000000E+00  0.12147398644E+04  0.12147398644E+04  0.00000000000E+00 0. -1.
         -2   -1    0    0    0  501 -0.00000000000E+00 -0.00000000000E+00 -0.14433574514E+04  0.14433574514E+04  0.00000000000E+00 0.  1.
    2000013    1    1    2    0    0  0.36586667922E+03 -0.79590711422E+03 -0.40430773813E+03  0.13539908820E+04  0.95000000000E+03 0.  0.
   -2000013    1    1    2    0    0 -0.36586667922E+03  0.79590711422E+03  0.17569015108E+03  0.13041064338E+04  0.95000000000E+03 0.  0.
<mgrwt>
<rscale>  0 0.26482476E+04</rscale>
<asrwt>0</asrwt>
<pdfrwt beam="1">  1        2 0.18688306E+00 0.26482476E+04</pdfrwt>
<pdfrwt beam="2">  1       -2 0.22205499E+00 0.26482476E+04</pdfrwt>
<totfact> 0.15685098E+00</totfact>
</mgrwt>
</event>
<event>
 4    1  0.2043502E-008  0.2679454E+04  0.7816531E-02  0.8341702E-01
          2   -1    0    0  501    0  0.00000000000E+00  0.00000000000E+00  0.21430300595E+04  0.21430300595E+04  0.00000000000E+00 0.  1.
         -2   -1    0    0    0  501 -0.00000000000E+00 -0.00000000000E+00 -0.83753770241E+03  0.83753770241E+03  0.00000000000E+00 0. -1.
    2000013    1    1    2    0    0  0.73943568295E+03  0.57120847581E+03  0.80737971117E+03  0.15580135590E+04  0.95000000000E+03 0.  0.
   -2000013    1    1    2    0    0 -0.73943568295E+03 -0.57120847581E+03  0.49811264589E+03  0.14225542029E+04  0.95000000000E+03 0.  0.
<mgrwt>
<rscale>  0 0.26794540E+04</rscale>
<asrwt>0</asrwt>
<pdfrwt beam="1">  1        2 0.32969693E+00 0.26794540E+04</pdfrwt>
<pdfrwt beam="2">  1       -2 0.12885196E+00 0.26794540E+04</pdfrwt>
<totfact> 0.21696059E+00</totfact>
</mgrwt>
</event>
<event>
 4    1  0.2043502E-008  0.3164102E+04  0.7816531E-02  0.8198363E-01
          2   -1    0    0  501    0  0.00000000000E+00  0.00000000000E+00  0.11264360086E+04  0.11264360086E+04  0.00000000000E+00 0. -1.
         -2   -1    0    0    0  501 -0.00000000000E+00 -0.00000000000E+00 -0.22219505772E+04  0.22219505772E+04  0.00000000000E+00 0.  1.
    2000013    1    1    2    0    0 -0.12406114660E+04 -0.22548934258E+03 -0.65579593260E+03  0.17095410373E+04  0.95000000000E+03 0.  0.
   -2000013    1    1    2    0    0  0.12406114660E+04  0.22548934258E+03 -0.43971863601E+03  0.16388455485E+04  0.95000000000E+03 0.  0.
<mgrwt>
<rscale>  0 0.31641019E+04</rscale>
<asrwt>0</asrwt>
<pdfrwt beam="1">  1        2 0.17329785E+00 0.31641019E+04</pdfrwt>
<pdfrwt beam="2">  1       -2 0.34183855E+00 0.31641019E+04</pdfrwt>
<totfact> 0.31023857E-01</totfact>
</mgrwt>
</event>
<event>
 4    1  0.2043502E-008  0.3402143E+04  0.7816531E-02  0.8137381E-01
         -2   -1    0    0    0  501 -0.00000000000E+00  0.00000000000E+00  0.25066643162E+04  0.25066643162E+04  0.00000000000E+00 0. -1.
          2   -1    0    0  501    0  0.00000000000E+00 -0.00000000000E+00 -0.11543803170E+04  0.11543803170E+04  0.00000000000E+00 0.  1.
    2000013    1    1    2    0    0 -0.54895770636E+03  0.12876415029E+04  0.86794372451E+03  0.19013683263E+04  0.95000000000E+03 0.  0.
   -2000013    1    1    2    0    0  0.54895770636E+03 -0.12876415029E+04  0.48434027469E+03  0.17596763069E+04  0.95000000000E+03 0.  0.
<mgrwt>
<rscale>  0 0.34021428E+04</rscale>
<asrwt>0</asrwt>
<pdfrwt beam="2">  1        2 0.17759697E+00 0.34021428E+04</pdfrwt>
<pdfrwt beam="1">  1       -2 0.38564066E+00 0.34021428E+04</pdfrwt>
<totfact> 0.15374113E-01</totfact>
</mgrwt>
</event>
<event>
 4    1  0.2043502E-008  0.2523305E+04  0.7816531E-02  0.8394730E-01
         -2   -1    0    0    0  501 -0.00000000000E+00  0.00000000000E+00  0.82763220484E+03  0.82763220484E+03  0.00000000000E+00 0. -1.
          2   -1    0    0  501    0  0.00000000000E+00 -0.00000000000E+00 -0.19232786971E+04  0.19232786971E+04  0.00000000000E+00 0.  1.
    2000013    1    1    2    0    0 -0.27221794175E+03  0.77258951268E+03 -0.69518293067E+03  0.14341465999E+04  0.95000000000E+03 0.  0.
   -2000013    1    1    2    0    0  0.27221794175E+03 -0.77258951268E+03 -0.40046356158E+03  0.13167643020E+04  0.95000000000E+03 0.  0.
<mgrwt>
<rscale>  0 0.25233053E+04</rscale>
<asrwt>0</asrwt>
<pdfrwt beam="2">  1        2 0.29588903E+00 0.25233053E+04</pdfrwt>
<pdfrwt beam="1">  1       -2 0.12732803E+00 0.25233053E+04</pdfrwt>
<totfact> 0.30033479E+00</totfact>
</mgrwt>
</event>
<event>
 4    1  0.2043502E-008  0.2106118E+04  0.7816531E-02  0.8558553E-01
          2   -1    0    0  501    0  0.00000000000E+00  0.00000000000E+00  0.14034121859E+04  0.14034121859E+04  0.00000000000E+00 0.  1.
         -2   -1    0    0    0  501 -0.00000000000E+00 -0.00000000000E+00 -0.79016898539E+03  0.79016898539E+03  0.00000000000E+00 0. -1.
    2000013    1    1    2    0    0 -0.29905583965E+03  0.31781490339E+03  0.43833304439E+03  0.11336121761E+04  0.95000000000E+03 0.  0.
   -2000013    1    1    2    0    0  0.29905583965E+03 -0.31781490339E+03  0.17491015615E+03  0.10599689952E+04  0.95000000000E+03 0.  0.
<mgrwt>
<rscale>  0 0.21061175E+04</rscale>
<asrwt>0</asrwt>
<pdfrwt beam="1">  1        2 0.21590957E+00 0.21061175E+04</pdfrwt>
<pdfrwt beam="2">  1       -2 0.12156446E+00 0.21061175E+04</pdfrwt>
<totfact> 0.68232438E+00</totfact>
</mgrwt>
</event>
<event>
 4    1  0.2043502E-008  0.2842900E+04  0.7816531E-02  0.8290072E-01
         -1   -1    0    0    0  501 -0.00000000000E+00  0.00000000000E+00  0.10176843242E+04  0.10176843242E+04  0.00000000000E+00 0. -1.
          1   -1    0    0  501    0  0.00000000000E+00 -0.00000000000E+00 -0.19854088033E+04  0.19854088033E+04  0.00000000000E+00 0.  1.
    2000013    1    1    2    0    0 -0.36995623324E+03  0.98407310724E+03 -0.36457469409E+03  0.14631070373E+04  0.95000000000E+03 0.  0.
   -2000013    1    1    2    0    0  0.36995623324E+03 -0.98407310724E+03 -0.60314978499E+03  0.15399860902E+04  0.95000000000E+03 0.  0.
<mgrwt>
<rscale>  0 0.28428995E+04</rscale>
<asrwt>0</asrwt>
<pdfrwt beam="2">  1        1 0.30544750E+00 0.28428995E+04</pdfrwt>
<pdfrwt beam="1">  1       -1 0.15656682E+00 0.28428995E+04</pdfrwt>
<totfact> 0.81620607E-01</totfact>
</mgrwt>
</event>
<event>
 4    1  0.2043502E-008  0.3512499E+04  0.7816531E-02  0.8110834E-01
         -2   -1    0    0    0  501 -0.00000000000E+00  0.00000000000E+00  0.97532657446E+03  0.97532657446E+03  0.00000000000E+00 0. -1.
          2   -1    0    0  501    0  0.00000000000E+00 -0.00000000000E+00 -0.31624413834E+04  0.31624413834E+04  0.00000000000E+00 0.  1.
    2000013    1    1    2    0    0  0.95878995299E+03  0.11231525281E+04 -0.10533779214E+04  0.20476461658E+04  0.95000000000E+03 0.  0.
   -2000013    1    1    2    0    0 -0.95878995299E+03 -0.11231525281E+04 -0.11337368876E+04  0.20901217921E+04  0.95000000000E+03 0.  0.
<mgrwt>
<rscale>  0 0.35124995E+04</rscale>
<asrwt>0</asrwt>
<pdfrwt beam="2">  1        2 0.48652944E+00 0.35124995E+04</pdfrwt>
<pdfrwt beam="1">  1       -2 0.15005024E+00 0.35124995E+04</pdfrwt>
<totfact> 0.33676529E-01</totfact>
</mgrwt>
</event>
<event>
 4    1  0.2043502E-008  0.2679181E+04  0.7816531E-02  0.8341792E-01
         -2   -1    0    0    0  501 -0.00000000000E+00  0.00000000000E+00  0.78542936139E+03  0.78542936139E+03  0.00000000000E+00 0. -1.
          2   -1    0    0  501    0  0.00000000000E+00 -0.00000000000E+00 -0.22847404543E+04  0.22847404543E+04  0.00000000000E+00 0.  1.
    2000013    1    1    2    0    0 -0.43280760625E+03  0.75712811227E+03 -0.11651057193E+04  0.17379691423E+04  0.95000000000E+03 0.  0.
   -2000013    1    1    2    0    0  0.43280760625E+03 -0.75712811227E+03 -0.33420537358E+03  0.13322006734E+04  0.95000000000E+03 0.  0.
<mgrwt>
<rscale>  0 0.26791806E+04</rscale>
<asrwt>0</asrwt>
<pdfrwt beam="2">  1        2 0.35149853E+00 0.26791806E+04</pdfrwt>
<pdfrwt beam="1">  1       -2 0.12083529E+00 0.26791806E+04</pdfrwt>
<totfact> 0.21209300E+00</totfact>
</mgrwt>
</event>
<event>
 4    1  0.2043502E-008  0.2495318E+04  0.7816531E-02  0.8404656E-01
         -1   -1    0    0    0  501 -0.00000000000E+00  0.00000000000E+00  0.68505218754E+03  0.68505218754E+03  0.00000000000E+00 0. -1.
          1   -1    0    0  501    0  0.00000000000E+00 -0.00000000000E+00 -0.22723121154E+04  0.22723121154E+04  0.00000000000E+00 0.  1.
    2000013    1    1    2    0    0 -0.46012888020E+03 -0.63906133794E+03 -0.57498569733E+03  0.13613326310E+04  0.95000000000E+03 0.  0.
   -2000013    1    1    2    0    0  0.46012888020E+03  0.63906133794E+03 -0.10122742305E+04  0.15960316719E+04  0.95000000000E+03 0.  0.
<mgrwt>
<rscale>  0 0.24953175E+04</rscale>
<asrwt>0</asrwt>
<pdfrwt beam="2">  1        1 0.34958649E+00 0.24953175E+04</pdfrwt>
<pdfrwt beam="1">  1       -1 0.10539264E+00 0.24953175E+04</pdfrwt>
<totfact> 0.14579334E+00</totfact>
</mgrwt>
</event>
<event>
 4    1  0.2043502E-008  0.2022476E+04  0.7816531E-02  0.8596184E-01
          2   -1    0    0  501    0  0.00000000000E+00  0.00000000000E+00  0.23102218125E+04  0.23102218125E+04  0.00000000000E+00 0.  1.
         -2   -1    0    0    0  501 -0.00000000000E+00 -0.00000000000E+00 -0.44264237097E+03  0.44264237097E+03  0.00000000000E+00 0. -1.
    2000013    1    1    2    0    0  0.11273760739E+03 -0.18264737222E+03  0.56344012650E+03  0.11251820328E+04  0.95000000000E+03 0.  0.
   -2000013    1    1    2    0    0 -0.11273760739E+03  0.18264737222E+03  0.13041393150E+04  0.16276821507E+04  0.95000000000E+03 0.  0.
<mgrwt>
<rscale>  0 0.20224758E+04</rscale>
<asrwt>0</asrwt>
<pdfrwt beam="1">  1        2 0.35541873E+00 0.20224758E+04</pdfrwt>
<pdfrwt beam="2">  1       -2 0.68098828E-01 0.20224758E+04</pdfrwt>
<totfact> 0.81899748E+00</totfact>
</mgrwt>
</event>
<event>
 4    1  0.2043502E-008  0.3329382E+04  0.7816531E-02  0.8155459E-01
         -2   -1    0    0    0  501 -0.00000000000E+00  0.00000000000E+00  0.25760603756E+04  0.25760603756E+04  0.00000000000E+00 0. -1.
          2   -1    0    0  501    0  0.00000000000E+00 -0.00000000000E+00 -0.10757499023E+04  0.10757499023E+04  0.00000000000E+00 0.  1.
    2000013    1    1    2    0    0 -0.12788316607E+04  0.46435386951E+03  0.60438744121E+03  0.17660178684E+04  0.95000000000E+03 0.  0.
   -2000013    1    1    2    0    0  0.12788316607E+04 -0.46435386951E+03  0.89592303213E+03  0.18857924095E+04  0.95000000000E+03 0.  0.
<mgrwt>
<rscale>  0 0.33293823E+04</rscale>
<asrwt>0</asrwt>
<pdfrwt beam="2">  1        2 0.16549999E+00 0.33293823E+04</pdfrwt>
<pdfrwt beam="1">  1       -2 0.39631698E+00 0.33293823E+04</pdfrwt>
<totfact> 0.14730790E-01</totfact>
</mgrwt>
</event>
<event>
 4    1  0.2043502E-008  0.2222084E+04  0.7816531E-02  0.8509292E-01
         -2   -1    0    0    0  501 -0.00000000000E+00  0.00000000000E+00  0.14362617596E+04  0.14362617596E+04  0.00000000000E+00 0. -1.
          2   -1    0    0  501    0  0.00000000000E+00 -0.00000000000E+00 -0.85946356489E+03  0.85946356489E+03  0.00000000000E+00 0.  1.
    2000013    1    1    2    0    0  0.12509649404E+03 -0.52434040397E+03  0.49844106251E+03  0.12006354504E+04  0.95000000000E+03 0.  0.
   -2000013    1    1    2    0    0 -0.12509649404E+03  0.52434040397E+03  0.78357132182E+02  0.10950898740E+04  0.95000000000E+03 0.  0.
<mgrwt>
<rscale>  0 0.22220843E+04</rscale>
<asrwt>0</asrwt>
<pdfrwt beam="2">  1        2 0.13222516E+00 0.22220843E+04</pdfrwt>
<pdfrwt beam="1">  1       -2 0.22096335E+00 0.22220843E+04</pdfrwt>
<totfact> 0.27786540E+00</totfact>
</mgrwt>
</event>
<event>
 4    1  0.2043502E-008  0.2555397E+04  0.7816531E-02  0.8383512E-01
          2   -1    0    0  501    0  0.00000000000E+00  0.00000000000E+00  0.87639475417E+03  0.87639475417E+03  0.00000000000E+00 0.  1.
         -2   -1    0    0    0  501 -0.00000000000E+00 -0.00000000000E+00 -0.18627605535E+04  0.18627605535E+04  0.00000000000E+00 0. -1.
    2000013    1    1    2    0    0 -0.49635227978E+03  0.32818227384E+03  0.16405116180E+03  0.11329086345E+04  0.95000000000E+03 0.  0.
   -2000013    1    1    2    0    0  0.49635227978E+03 -0.32818227384E+03 -0.11504169611E+04  0.16062466731E+04  0.95000000000E+03 0.  0.
<mgrwt>
<rscale>  0 0.25553971E+04</rscale>
<asrwt>0</asrwt>
<pdfrwt beam="1">  1        2 0.13482996E+00 0.25553971E+04</pdfrwt>
<pdfrwt beam="2">  1       -2 0.28657854E+00 0.25553971E+04</pdfrwt>
<totfact> 0.10372974E+00</totfact>
</mgrwt>
</event>
<event>
 4    1  0.2043502E-008  0.2368681E+04  0.7816531E-02  0.8451323E-01
         -2   -1    0    0    0  501 -0.00000000000E+00  0.00000000000E+00  0.53848705711E+03  0.53848705711E+03  0.00000000000E+00 0. -1.
          2   -1    0    0  501    0  0.00000000000E+00 -0.00000000000E+00 -0.26048201493E+04  0.26048201493E+04  0.00000000000E+00 0.  1.
    2000013    1    1    2    0    0 -0.35969493540E+03  0.47908037040E+03 -0.15319307655E+04  0.18995289727E+04  0.95000000000E+03 0.  0.
   -2000013    1    1    2    0    0  0.35969493540E+03 -0.47908037040E+03 -0.53440232667E+03  0.12437782337E+04  0.95000000000E+03 0.  0.
<mgrwt>
<rscale>  0 0.23686806E+04</rscale>
<asrwt>0</asrwt>
<pdfrwt beam="2">  1        2 0.40074156E+00 0.23686806E+04</pdfrwt>
<pdfrwt beam="1">  1       -2 0.82844164E-01 0.23686806E+04</pdfrwt>
<totfact> 0.34817344E+00</totfact>
</mgrwt>
</event>
<event>
 4    1  0.2043502E-008  0.2567577E+04  0.7816531E-02  0.8379299E-01
         -2   -1    0    0    0  501 -0.00000000000E+00  0.00000000000E+00  0.87695588804E+03  0.87695588804E+03  0.00000000000E+00 0. -1.
          2   -1    0    0  501    0  0.00000000000E+00 -0.00000000000E+00 -0.18793571051E+04  0.18793571051E+04  0.00000000000E+00 0.  1.
    2000013    1    1    2    0    0  0.31055023978E+03 -0.57741718996E+03 -0.11044326486E+04  0.15975367094E+04  0.95000000000E+03 0.  0.
   -2000013    1    1    2    0    0 -0.31055023978E+03  0.57741718996E+03  0.10203143151E+03  0.11587762837E+04  0.95000000000E+03 0.  0.
<mgrwt>
<rscale>  0 0.25675773E+04</rscale>
<asrwt>0</asrwt>
<pdfrwt beam="2">  1        2 0.28913186E+00 0.25675773E+04</pdfrwt>
<pdfrwt beam="1">  1       -2 0.13491629E+00 0.25675773E+04</pdfrwt>
<totfact> 0.27326263E+00</totfact>
</mgrwt>
</event>
<event>
 4    1  0.2043502E-008  0.2419683E+04  0.7816531E-02  0.8432171E-01
         -2   -1    0    0    0  501 -0.00000000000E+00  0.00000000000E+00  0.69417591924E+03  0.69417591924E+03  0.00000000000E+00 0. -1.
          2   -1    0    0  501    0  0.00000000000E+00 -0.00000000000E+00 -0.21085669985E+04  0.21085669985E+04  0.00000000000E+00 0.  1.
    2000013    1    1    2    0    0  0.36899109227E+03  0.27527745645E+03 -0.22631085219E+02  0.10559092150E+04  0.95000000000E+03 0.  0.
   -2000013    1    1    2    0    0 -0.36899109227E+03 -0.27527745645E+03 -0.13917599941E+04  0.17468337028E+04  0.95000000000E+03 0.  0.
<mgrwt>
<rscale>  0 0.24196830E+04</rscale>
<asrwt>0</asrwt>
<pdfrwt beam="2">  1        2 0.32439492E+00 0.24196830E+04</pdfrwt>
<pdfrwt beam="1">  1       -2 0.10679630E+00 0.24196830E+04</pdfrwt>
<totfact> 0.36814513E+00</totfact>
</mgrwt>
</event>
<event>
 4    1  0.2043502E-008  0.2919857E+04  0.7816531E-02  0.8266994E-01
          2   -1    0    0  501    0  0.00000000000E+00  0.00000000000E+00  0.20126344052E+04  0.20126344052E+04  0.00000000000E+00 0.  1.
         -2   -1    0    0    0  501 -0.00000000000E+00 -0.00000000000E+00 -0.10590053499E+04  0.10590053499E+04  0.00000000000E+00 0. -1.
    2000013    1    1    2    0    0 -0.10086302546E+04 -0.45912802242E+03  0.44786929363E+03  0.15268334669E+04  0.95000000000E+03 0.  0.
   -2000013    1    1    2    0    0  0.10086302546E+04  0.45912802242E+03  0.50575976167E+03  0.15448062882E+04  0.95000000000E+03 0.  0.
<mgrwt>
<rscale>  0 0.29198566E+04</rscale>
<asrwt>0</asrwt>
<pdfrwt beam="1">  1        2 0.30963606E+00 0.29198566E+04</pdfrwt>
<pdfrwt beam="2">  1       -2 0.16292390E+00 0.29198566E+04</pdfrwt>
<totfact> 0.13579908E+00</totfact>
</mgrwt>
</event>
<event>
 4    1  0.2043502E-008  0.1956801E+04  0.7816531E-02  0.8627088E-01
          2   -1    0    0  501    0  0.00000000000E+00  0.00000000000E+00  0.12989245352E+04  0.12989245352E+04  0.00000000000E+00 0.  1.
         -2   -1    0    0    0  501 -0.00000000000E+00 -0.00000000000E+00 -0.73696897588E+03  0.73696897588E+03  0.00000000000E+00 0. -1.
    2000013    1    1    2    0    0 -0.15613379074E+03  0.15167337477E+03  0.37038433799E+03  0.10426251153E+04  0.95000000000E+03 0.  0.
   -2000013    1    1    2    0    0  0.15613379074E+03 -0.15167337477E+03  0.19157122133E+03  0.99326839579E+03  0.95000000000E+03 0.  0.
<mgrwt>
<rscale>  0 0.19568005E+04</rscale>
<asrwt>0</asrwt>
<pdfrwt beam="1">  1        2 0.19983454E+00 0.19568005E+04</pdfrwt>
<pdfrwt beam="2">  1       -2 0.11337984E+00 0.19568005E+04</pdfrwt>
<totfact> 0.94233555E+00</totfact>
</mgrwt>
</event>
<event>
 4    1  0.2043502E-008  0.3402560E+04  0.7816531E-02  0.8137278E-01
         -2   -1    0    0    0  501 -0.00000000000E+00  0.00000000000E+00  0.34371487803E+04  0.34371487803E+04  0.00000000000E+00 0. -1.
          2   -1    0    0  501    0  0.00000000000E+00 -0.00000000000E+00 -0.84207964014E+03  0.84207964014E+03  0.00000000000E+00 0.  1.
    2000013    1    1    2    0    0  0.29593954193E+03 -0.13277871029E+04  0.82486198211E+03  0.18529695337E+04  0.95000000000E+03 0.  0.
   -2000013    1    1    2    0    0 -0.29593954193E+03  0.13277871029E+04  0.17702071580E+04  0.24262588867E+04  0.95000000000E+03 0.  0.
<mgrwt>
<rscale>  0 0.34025596E+04</rscale>
<asrwt>0</asrwt>
<pdfrwt beam="2">  1        2 0.12955072E+00 0.34025596E+04</pdfrwt>
<pdfrwt beam="1">  1       -2 0.52879211E+00 0.34025596E+04</pdfrwt>
<totfact> 0.29515383E-02</totfact>
</mgrwt>
</event>
<event>
 4    1  0.2043502E-008  0.3050893E+04  0.7816531E-02  0.8229346E-01
          2   -1    0    0  501    0  0.00000000000E+00  0.00000000000E+00  0.23591790353E+04  0.23591790353E+04  0.00000000000E+00 0.  1.
         -2   -1    0    0    0  501 -0.00000000000E+00 -0.00000000000E+00 -0.98635434593E+03  0.98635434593E+03  0.00000000000E+00 0. -1.
    2000013    1    1    2    0    0 -0.10072900289E+04  0.63970232646E+03  0.65879637504E+03  0.16614346007E+04  0.95000000000E+03 0.  0.
   -2000013    1    1    2    0    0  0.10072900289E+04 -0.63970232646E+03  0.71402831433E+03  0.16840987805E+04  0.95000000000E+03 0.  0.
<mgrwt>
<rscale>  0 0.30508927E+04</rscale>
<asrwt>0</asrwt>
<pdfrwt beam="1">  1        2 0.36295062E+00 0.30508927E+04</pdfrwt>
<pdfrwt beam="2">  1       -2 0.15174682E+00 0.30508927E+04</pdfrwt>
<totfact> 0.10388927E+00</totfact>
</mgrwt>
</event>
<event>
 4    1  0.2043502E-008  0.2868120E+04  0.7816531E-02  0.8282426E-01
          2   -1    0    0  501    0  0.00000000000E+00  0.00000000000E+00  0.11192940565E+04  0.11192940565E+04  0.00000000000E+00 0.  1.
         -2   -1    0    0    0  501 -0.00000000000E+00 -0.00000000000E+00 -0.18373438084E+04  0.18373438084E+04  0.00000000000E+00 0. -1.
    2000013    1    1    2    0    0 -0.10317043504E+03 -0.73946074209E+03  0.43720007016E+03  0.12849475589E+04  0.95000000000E+03 0.  0.
   -2000013    1    1    2    0    0  0.10317043504E+03  0.73946074209E+03 -0.11552498220E+04  0.16716903060E+04  0.95000000000E+03 0.  0.
<mgrwt>
<rscale>  0 0.28681199E+04</rscale>
<asrwt>0</asrwt>
<pdfrwt beam="1">  1        2 0.17219909E+00 0.28681199E+04</pdfrwt>
<pdfrwt beam="2">  1       -2 0.28266828E+00 0.28681199E+04</pdfrwt>
<totfact> 0.74403806E-01</totfact>
</mgrwt>
</event>
<event>
 4    1  0.2043502E-008  0.2200102E+04  0.7816531E-02  0.8518385E-01
         -2   -1    0    0    0  501 -0.00000000000E+00  0.00000000000E+00  0.58346884533E+03  0.58346884533E+03  0.00000000000E+00 0. -1.
          2   -1    0    0  501    0  0.00000000000E+00 -0.00000000000E+00 -0.20739970670E+04  0.20739970670E+04  0.00000000000E+00 0.  1.
    2000013    1    1    2    0    0 -0.52154186616E+03  0.18850858733E+03 -0.75546111988E+03  0.13344522881E+04  0.95000000000E+03 0.  0.
   -2000013    1    1    2    0    0  0.52154186616E+03 -0.18850858733E+03 -0.73506710175E+03  0.13230136242E+04  0.95000000000E+03 0.  0.
<mgrwt>
<rscale>  0 0.22001024E+04</rscale>
<asrwt>0</asrwt>
<pdfrwt beam="2">  1        2 0.31907647E+00 0.22001024E+04</pdfrwt>
<pdfrwt beam="1">  1       -2 0.89764438E-01 0.22001024E+04</pdfrwt>
<totfact> 0.59039439E+00</totfact>
</mgrwt>
</event>
<event>
 4    1  0.2043502E-008  0.2049276E+04  0.7816531E-02  0.8583923E-01
          2   -1    0    0  501    0  0.00000000000E+00  0.00000000000E+00  0.90064465125E+03  0.90064465125E+03  0.00000000000E+00 0.  1.
         -2   -1    0    0    0  501 -0.00000000000E+00 -0.00000000000E+00 -0.11657012276E+04  0.11657012276E+04  0.00000000000E+00 0. -1.
    2000013    1    1    2    0    0  0.34599932787E+03 -0.15286265053E+03 -0.19864929371E+03  0.10416544853E+04  0.95000000000E+03 0.  0.
   -2000013    1    1    2    0    0 -0.34599932787E+03  0.15286265053E+03 -0.66407282621E+02  0.10246913935E+04  0.95000000000E+03 0.  0.
<mgrwt>
<rscale>  0 0.20492756E+04</rscale>
<asrwt>0</asrwt>
<pdfrwt beam="1">  1        2 0.13856072E+00 0.20492756E+04</pdfrwt>
<pdfrwt beam="2">  1       -2 0.17933865E+00 0.20492756E+04</pdfrwt>
<totfact> 0.49653587E+00</totfact>
</mgrwt>
</event>
<event>
 4    1  0.2043502E-008  0.2604636E+04  0.7816531E-02  0.8366628E-01
         -2   -1    0    0    0  501 -0.00000000000E+00  0.00000000000E+00  0.64939990043E+03  0.64939990043E+03  0.00000000000E+00 0. -1.
          2   -1    0    0  501    0  0.00000000000E+00 -0.00000000000E+00 -0.26116921512E+04  0.26116921512E+04  0.00000000000E+00 0.  1.
    2000013    1    1    2    0    0  0.60691491317E+03 -0.59563861433E+03 -0.64894042620E+03  0.14306483661E+04  0.95000000000E+03 0.  0.
   -2000013    1    1    2    0    0 -0.60691491317E+03  0.59563861433E+03 -0.13133518246E+04  0.18304436855E+04  0.95000000000E+03 0.  0.
<mgrwt>
<rscale>  0 0.26046363E+04</rscale>
<asrwt>0</asrwt>
<pdfrwt beam="2">  1        2 0.40179879E+00 0.26046363E+04</pdfrwt>
<pdfrwt beam="1">  1       -2 0.99907676E-01 0.26046363E+04</pdfrwt>
<totfact> 0.21920987E+00</totfact>
</mgrwt>
</event>
<event>
 4    1  0.2043502E-008  0.1946297E+04  0.7816531E-02  0.8632148E-01
         -2   -1    0    0    0  501 -0.00000000000E+00  0.00000000000E+00  0.28159717527E+03  0.28159717527E+03  0.00000000000E+00 0. -1.
          2   -1    0    0  501    0  0.00000000000E+00 -0.00000000000E+00 -0.33630253561E+04  0.33630253561E+04  0.00000000000E+00 0.  1.
    2000013    1    1    2    0    0 -0.19828487712E+03  0.12245693064E+02 -0.14076204089E+04  0.17097842159E+04  0.95000000000E+03 0.  0.
   -2000013    1    1    2    0    0  0.19828487712E+03 -0.12245693064E+02 -0.16738077720E+04  0.19348383155E+04  0.95000000000E+03 0.  0.
<mgrwt>
<rscale>  0 0.19462974E+04</rscale>
<asrwt>0</asrwt>
<pdfrwt beam="2">  1        2 0.51738847E+00 0.19462974E+04</pdfrwt>
<pdfrwt beam="1">  1       -2 0.43322646E-01 0.19462974E+04</pdfrwt>
<totfact> 0.47870386E+00</totfact>
</mgrwt>
</event>
<event>
 4    1  0.2043502E-008  0.2356847E+04  0.7816531E-02  0.8455838E-01
         -2   -1    0    0    0  501 -0.00000000000E+00  0.00000000000E+00  0.76839060778E+03  0.76839060778E+03  0.00000000000E+00 0.  1.
          2   -1    0    0  501    0  0.00000000000E+00 -0.00000000000E+00 -0.18072611637E+04  0.18072611637E+04  0.00000000000E+00 0. -1.
    2000013    1    1    2    0    0 -0.14492282270E+02 -0.42846044640E+03  0.81520260539E+02  0.10454348058E+04  0.95000000000E+03 0.  0.
   -2000013    1    1    2    0    0  0.14492282270E+02  0.42846044640E+03 -0.11203908165E+04  0.15302169657E+04  0.95000000000E+03 0.  0.
<mgrwt>
<rscale>  0 0.23568475E+04</rscale>
<asrwt>0</asrwt>
<pdfrwt beam="2">  1        2 0.27804018E+00 0.23568475E+04</pdfrwt>
<pdfrwt beam="1">  1       -2 0.11821394E+00 0.23568475E+04</pdfrwt>
<totfact> 0.42521977E+00</totfact>
</mgrwt>
</event>
<event>
 4    1  0.2043502E-008  0.2228105E+04  0.7816531E-02  0.8506820E-01
          2   -1    0    0  501    0  0.00000000000E+00  0.00000000000E+00  0.32611127793E+04  0.32611127793E+04  0.00000000000E+00 0.  1.
         -2   -1    0    0    0  501 -0.00000000000E+00 -0.00000000000E+00 -0.38057955665E+03  0.38057955665E+03  0.00000000000E+00 0. -1.
    2000013    1    1    2    0    0 -0.25097367929E+03  0.41721885991E+03  0.19611194650E+04  0.22328342798E+04  0.95000000000E+03 0.  0.
   -2000013    1    1    2    0    0  0.25097367929E+03 -0.41721885991E+03  0.91941375759E+03  0.14088580562E+04  0.95000000000E+03 0.  0.
<mgrwt>
<rscale>  0 0.22281049E+04</rscale>
<asrwt>0</asrwt>
<pdfrwt beam="1">  1        2 0.50170964E+00 0.22281049E+04</pdfrwt>
<pdfrwt beam="2">  1       -2 0.58550703E-01 0.22281049E+04</pdfrwt>
<totfact> 0.29461951E+00</totfact>
</mgrwt>
</event>
<event>
 4    1  0.2043502E-008  0.3540827E+04  0.7816531E-02  0.8104182E-01
          2   -1    0    0  501    0  0.00000000000E+00  0.00000000000E+00  0.38903872267E+04  0.38903872267E+04  0.00000000000E+00 0.  1.
         -2   -1    0    0    0  501 -0.00000000000E+00 -0.00000000000E+00 -0.80566900317E+03  0.80566900317E+03  0.00000000000E+00 0. -1.
    2000013    1    1    2    0    0  0.28148556676E+03 -0.11270590641E+04  0.27881738354E+04  0.31663716767E+04  0.95000000000E+03 0.  0.
   -2000013    1    1    2    0    0 -0.28148556676E+03  0.11270590641E+04  0.29654438812E+03  0.15296845532E+04  0.95000000000E+03 0.  0.
<mgrwt>
<rscale>  0 0.35408272E+04</rscale>
<asrwt>0</asrwt>
<pdfrwt beam="1">  1        2 0.59852110E+00 0.35408272E+04</pdfrwt>
<pdfrwt beam="2">  1       -2 0.12394908E+00 0.35408272E+04</pdfrwt>
<totfact> 0.16734315E-01</totfact>
</mgrwt>
</event>
<event>
 4    1  0.2043502E-008  0.3052404E+04  0.7816531E-02  0.8228923E-01
          2   -1    0    0  501    0  0.00000000000E+00  0.00000000000E+00  0.11987385380E+04  0.11987385380E+04  0.00000000000E+00 0.  1.
         -2   -1    0    0    0  501 -0.00000000000E+00 -0.00000000000E+00 -0.19431195136E+04  0.19431195136E+04  0.00000000000E+00 0. -1.
    2000013    1    1    2    0    0 -0.95007821562E+03 -0.72394124471E+03 -0.37966294029E+03  0.15726994277E+04  0.95000000000E+03 0.  0.
   -2000013    1    1    2    0    0  0.95007821562E+03  0.72394124471E+03 -0.36471803534E+03  0.15691586239E+04  0.95000000000E+03 0.  0.
<mgrwt>
<rscale>  0 0.30524038E+04</rscale>
<asrwt>0</asrwt>
<pdfrwt beam="1">  1        2 0.18442131E+00 0.30524038E+04</pdfrwt>
<pdfrwt beam="2">  1       -2 0.29894146E+00 0.30524038E+04</pdfrwt>
<totfact> 0.52169629E-01</totfact>
</mgrwt>
</event>
<event>
 4    1  0.2043502E-008  0.2175642E+04  0.7816531E-02  0.8528635E-01
         -2   -1    0    0    0  501 -0.00000000000E+00  0.00000000000E+00  0.59651156484E+03  0.59651156484E+03  0.00000000000E+00 0. -1.
          2   -1    0    0  501    0  0.00000000000E+00 -0.00000000000E+00 -0.19837913675E+04  0.19837913675E+04  0.00000000000E+00 0.  1.
    2000013    1    1    2    0    0  0.52174689324E+03  0.48254772473E+02 -0.78782135568E+03  0.13407873926E+04  0.95000000000E+03 0.  0.
   -2000013    1    1    2    0    0 -0.52174689324E+03 -0.48254772473E+02 -0.59945844702E+03  0.12395155398E+04  0.95000000000E+03 0.  0.
<mgrwt>
<rscale>  0 0.21756420E+04</rscale>
<asrwt>0</asrwt>
<pdfrwt beam="2">  1        2 0.30519867E+00 0.21756420E+04</pdfrwt>
<pdfrwt beam="1">  1       -2 0.91771011E-01 0.21756420E+04</pdfrwt>
<totfact> 0.63107162E+00</totfact>
</mgrwt>
</event>
<event>
 4    1  0.2043502E-008  0.2380554E+04  0.7816531E-02  0.8446820E-01
          2   -1    0    0  501    0  0.00000000000E+00  0.00000000000E+00  0.73711141855E+03  0.73711141855E+03  0.00000000000E+00 0.  1.
         -2   -1    0    0    0  501 -0.00000000000E+00 -0.00000000000E+00 -0.19220421918E+04  0.19220421918E+04  0.00000000000E+00 0. -1.
    2000013    1    1    2    0    0  0.56954102617E+03 -0.38063487228E+03 -0.82942185626E+03  0.14351656706E+04  0.95000000000E+03 0.  0.
   -2000013    1    1    2    0    0 -0.56954102617E+03  0.38063487228E+03 -0.35550891696E+03  0.12239879397E+04  0.95000000000E+03 0.  0.
<mgrwt>
<rscale>  0 0.23805539E+04</rscale>
<asrwt>0</asrwt>
<pdfrwt beam="1">  1        2 0.11340176E+00 0.23805539E+04</pdfrwt>
<pdfrwt beam="2">  1       -2 0.29569879E+00 0.23805539E+04</pdfrwt>
<totfact> 0.11667537E+00</totfact>
</mgrwt>
</event>
<event>
 4    1  0.2043502E-008  0.2091212E+04  0.7816531E-02  0.8565125E-01
         -2   -1    0    0    0  501 -0.00000000000E+00  0.00000000000E+00  0.27334118164E+03  0.27334118164E+03  0.00000000000E+00 0.  1.
          2   -1    0    0  501    0  0.00000000000E+00 -0.00000000000E+00 -0.39997330401E+04  0.39997330401E+04  0.00000000000E+00 0. -1.
    2000013    1    1    2    0    0 -0.42303127879E+03 -0.53967305861E+02 -0.20562228426E+04  0.23048688273E+04  0.95000000000E+03 0.  0.
   -2000013    1    1    2    0    0  0.42303127879E+03  0.53967305861E+02 -0.16701690159E+04  0.19682053944E+04  0.95000000000E+03 0.  0.
<mgrwt>
<rscale>  0 0.20912119E+04</rscale>
<asrwt>0</asrwt>
<pdfrwt beam="2">  1        2 0.61534357E+00 0.20912119E+04</pdfrwt>
<pdfrwt beam="1">  1       -2 0.42052488E-01 0.20912119E+04</pdfrwt>
<totfact> 0.17069322E+00</totfact>
</mgrwt>
</event>
<event>
 4    1  0.2043502E-008  0.2812735E+04  0.7816531E-02  0.8299325E-01
          1   -1    0    0  501    0  0.00000000000E+00  0.00000000000E+00  0.11473003577E+04  0.11473003577E+04  0.00000000000E+00 0. -1.
         -1   -1    0    0    0  501 -0.00000000000E+00 -0.00000000000E+00 -0.17239338676E+04  0.17239338676E+04  0.00000000000E+00 0.  1.
    2000013    1    1    2    0    0 -0.41954615044E+03  0.72410270042E+03  0.33681361005E+03  0.13100714107E+04  0.95000000000E+03 0.  0.
   -2000013    1    1    2    0    0  0.41954615044E+03 -0.72410270042E+03 -0.91344711992E+03  0.15611628147E+04  0.95000000000E+03 0.  0.
<mgrwt>
<rscale>  0 0.28127353E+04</rscale>
<asrwt>0</asrwt>
<pdfrwt beam="1">  1        1 0.17650775E+00 0.28127353E+04</pdfrwt>
<pdfrwt beam="2">  1       -1 0.26522059E+00 0.28127353E+04</pdfrwt>
<totfact> 0.56080311E-01</totfact>
</mgrwt>
</event>
<event>
 4    1  0.2043502E-008  0.2549360E+04  0.7816531E-02  0.8385609E-01
         -2   -1    0    0    0  501 -0.00000000000E+00  0.00000000000E+00  0.74877080990E+03  0.74877080990E+03  0.00000000000E+00 0. -1.
          2   -1    0    0  501    0  0.00000000000E+00 -0.00000000000E+00 -0.21699689211E+04  0.21699689211E+04  0.00000000000E+00 0.  1.
    2000013    1    1    2    0    0  0.74065576296E+03  0.32499552499E+03 -0.10094053930E+04  0.16048651961E+04  0.95000000000E+03 0.  0.
   -2000013    1    1    2    0    0 -0.74065576296E+03 -0.32499552499E+03 -0.41179271821E+03  0.13138745348E+04  0.95000000000E+03 0.  0.
<mgrwt>
<rscale>  0 0.25493602E+04</rscale>
<asrwt>0</asrwt>
<pdfrwt beam="2">  1        2 0.33384137E+00 0.25493602E+04</pdfrwt>
<pdfrwt beam="1">  1       -2 0.11519551E+00 0.25493602E+04</pdfrwt>
<totfact> 0.27999554E+00</totfact>
</mgrwt>
</event>
<event>
 4    1  0.2043502E-008  0.2707774E+04  0.7816531E-02  0.8332487E-01
          2   -1    0    0  501    0  0.00000000000E+00  0.00000000000E+00  0.41484791547E+04  0.41484791547E+04  0.00000000000E+00 0.  1.
         -2   -1    0    0    0  501 -0.00000000000E+00 -0.00000000000E+00 -0.44185095754E+03  0.44185095754E+03  0.00000000000E+00 0. -1.
    2000013    1    1    2    0    0 -0.76757415611E+03 -0.54911481409E+03  0.15150621366E+04  0.20220312663E+04  0.95000000000E+03 0.  0.
   -2000013    1    1    2    0    0  0.76757415611E+03  0.54911481409E+03  0.21915660606E+04  0.25682988460E+04  0.95000000000E+03 0.  0.
<mgrwt>
<rscale>  0 0.27077736E+04</rscale>
<asrwt>0</asrwt>
<pdfrwt beam="1">  1        2 0.63822753E+00 0.27077736E+04</pdfrwt>
<pdfrwt beam="2">  1       -2 0.67977073E-01 0.27077736E+04</pdfrwt>
<totfact> 0.44820627E-01</totfact>
</mgrwt>
</event>
<event>
 4    1  0.2043502E-008  0.3031867E+04  0.7816531E-02  0.8234689E-01
          2   -1    0    0  501    0  0.00000000000E+00  0.00000000000E+00  0.39643030149E+04  0.39643030149E+04  0.00000000000E+00 0.  1.
         -2   -1    0    0    0  501 -0.00000000000E+00 -0.00000000000E+00 -0.57968671146E+03  0.57968671146E+03  0.00000000000E+00 0. -1.
    2000013    1    1    2    0    0 -0.11238914639E+04 -0.27727289520E+03  0.20455206331E+04  0.25350871664E+04  0.95000000000E+03 0.  0.
   -2000013    1    1    2    0    0  0.11238914639E+04  0.27727289520E+03  0.13390956703E+04  0.20089025599E+04  0.95000000000E+03 0.  0.
<mgrwt>
<rscale>  0 0.30318666E+04</rscale>
<asrwt>0</asrwt>
<pdfrwt beam="1">  1        2 0.60989275E+00 0.30318666E+04</pdfrwt>
<pdfrwt beam="2">  1       -2 0.89182573E-01 0.30318666E+04</pdfrwt>
<totfact> 0.33657338E-01</totfact>
</mgrwt>
</event>
<event>
 4    1  0.2043502E-008  0.2735108E+04  0.7816531E-02  0.8323703E-01
          2   -1    0    0  501    0  0.00000000000E+00  0.00000000000E+00  0.55865589646E+03  0.55865589646E+03  0.00000000000E+00 0.  1.
         -2   -1    0    0    0  501 -0.00000000000E+00 -0.00000000000E+00 -0.33476852036E+04  0.33476852036E+04  0.00000000000E+00 0. -1.
    2000013    1    1    2    0    0 -0.38784713945E+03  0.52215323167E+03 -0.34049596226E+03  0.12006277113E+04  0.95000000000E+03 0.  0.
   -2000013    1    1    2    0    0  0.38784713945E+03 -0.52215323167E+03 -0.24485333449E+04  0.27057133887E+04  0.95000000000E+03 0.  0.
<mgrwt>
<rscale>  0 0.27351081E+04</rscale>
<asrwt>0</asrwt>
<pdfrwt beam="1">  1        2 0.85947060E-01 0.27351081E+04</pdfrwt>
<pdfrwt beam="2">  1       -2 0.51502850E+00 0.27351081E+04</pdfrwt>
<totfact> 0.62849830E-02</totfact>
</mgrwt>
</event>
<event>
 4    1  0.2043502E-008  0.2885471E+04  0.7816531E-02  0.8277214E-01
          1   -1    0    0  501    0  0.00000000000E+00  0.00000000000E+00  0.11821642484E+04  0.11821642484E+04  0.00000000000E+00 0.  1.
         -1   -1    0    0    0  501 -0.00000000000E+00 -0.00000000000E+00 -0.17607412235E+04  0.17607412235E+04  0.00000000000E+00 0. -1.
    2000013    1    1    2    0    0 -0.10142430826E+04  0.17431815356E+03 -0.64246059137E+03  0.15408865827E+04  0.95000000000E+03 0.  0.
   -2000013    1    1    2    0    0  0.10142430826E+04 -0.17431815356E+03  0.63883616253E+02  0.14020188892E+04  0.95000000000E+03 0.  0.
<mgrwt>
<rscale>  0 0.28854707E+04</rscale>
<asrwt>0</asrwt>
<pdfrwt beam="1">  1        1 0.18187142E+00 0.28854707E+04</pdfrwt>
<pdfrwt beam="2">  1       -1 0.27088327E+00 0.28854707E+04</pdfrwt>
<totfact> 0.48258529E-01</totfact>
</mgrwt>
</event>
<event>
 4    1  0.2043502E-008  0.3419969E+04  0.7816531E-02  0.8133023E-01
          2   -1    0    0  501    0  0.00000000000E+00  0.00000000000E+00  0.28457867811E+04  0.28457867811E+04  0.00000000000E+00 0. -1.
         -2   -1    0    0    0  501 -0.00000000000E+00 -0.00000000000E+00 -0.10275001909E+04  0.10275001909E+04  0.00000000000E+00 0.  1.
    2000013    1    1    2    0    0  0.81880130816E+03  0.11585230016E+04  0.80208682307E+03  0.18863865986E+04  0.95000000000E+03 0.  0.
   -2000013    1    1    2    0    0 -0.81880130816E+03 -0.11585230016E+04  0.10161997671E+04  0.19869003735E+04  0.95000000000E+03 0.  0.
<mgrwt>
<rscale>  0 0.34199687E+04</rscale>
<asrwt>0</asrwt>
<pdfrwt beam="1">  1        2 0.43781335E+00 0.34199687E+04</pdfrwt>
<pdfrwt beam="2">  1       -2 0.15807695E+00 0.34199687E+04</pdfrwt>
<totfact> 0.46672622E-01</totfact>
</mgrwt>
</event>
<event>
 4    1  0.2043502E-008  0.2207370E+04  0.7816531E-02  0.8515367E-01
         -2   -1    0    0    0  501 -0.00000000000E+00  0.00000000000E+00  0.65034354033E+03  0.65034354033E+03  0.00000000000E+00 0. -1.
          2   -1    0    0  501    0  0.00000000000E+00 -0.00000000000E+00 -0.18730423413E+04  0.18730423413E+04  0.00000000000E+00 0.  1.
    2000013    1    1    2    0    0  0.27654473459E+03  0.23385562370E+03 -0.11023186784E+04  0.14995905814E+04  0.95000000000E+03 0.  0.
   -2000013    1    1    2    0    0 -0.27654473459E+03 -0.23385562370E+03 -0.12038012258E+03  0.10237953003E+04  0.95000000000E+03 0.  0.
<mgrwt>
<rscale>  0 0.22073704E+04</rscale>
<asrwt>0</asrwt>
<pdfrwt beam="2">  1        2 0.28816036E+00 0.22073704E+04</pdfrwt>
<pdfrwt beam="1">  1       -2 0.10005285E+00 0.22073704E+04</pdfrwt>
<totfact> 0.59230127E+00</totfact>
</mgrwt>
</event>
<event>
 4    1  0.2043502E-008  0.2138997E+04  0.7816531E-02  0.8544257E-01
         -2   -1    0    0    0  501 -0.00000000000E+00  0.00000000000E+00  0.10523414574E+04  0.10523414574E+04  0.00000000000E+00 0. -1.
          2   -1    0    0  501    0  0.00000000000E+00 -0.00000000000E+00 -0.10869349565E+04  0.10869349565E+04  0.00000000000E+00 0.  1.
    2000013    1    1    2    0    0 -0.46125824309E+03  0.16145802571E+03  0.32698339940E+02  0.10688297537E+04  0.95000000000E+03 0.  0.
   -2000013    1    1    2    0    0  0.46125824309E+03 -0.16145802571E+03 -0.67291839086E+02  0.10704466603E+04  0.95000000000E+03 0.  0.
<mgrwt>
<rscale>  0 0.21389967E+04</rscale>
<asrwt>0</asrwt>
<pdfrwt beam="2">  1        2 0.16722076E+00 0.21389967E+04</pdfrwt>
<pdfrwt beam="1">  1       -2 0.16189869E+00 0.21389967E+04</pdfrwt>
<totfact> 0.49728578E+00</totfact>
</mgrwt>
</event>
<event>
 4    1  0.2043502E-008  0.3137624E+04  0.7816531E-02  0.8205488E-01
         -2   -1    0    0    0  501 -0.00000000000E+00  0.00000000000E+00  0.22236117283E+04  0.22236117283E+04  0.00000000000E+00 0. -1.
          2   -1    0    0  501    0  0.00000000000E+00 -0.00000000000E+00 -0.11068347352E+04  0.11068347352E+04  0.00000000000E+00 0.  1.
    2000013    1    1    2    0    0  0.86135458952E+03  0.77996086587E+03  0.10429517411E+04  0.18277086790E+04  0.95000000000E+03 0.  0.
   -2000013    1    1    2    0    0 -0.86135458952E+03 -0.77996086587E+03  0.73825252026E+02  0.15027377845E+04  0.95000000000E+03 0.  0.
<mgrwt>
<rscale>  0 0.31376237E+04</rscale>
<asrwt>0</asrwt>
<pdfrwt beam="2">  1        2 0.17028227E+00 0.31376237E+04</pdfrwt>
<pdfrwt beam="1">  1       -2 0.34209411E+00 0.31376237E+04</pdfrwt>
<totfact> 0.31848351E-01</totfact>
</mgrwt>
</event>
<event>
 4    1  0.2043502E-008  0.2809792E+04  0.7816531E-02  0.8300235E-01
         -2   -1    0    0    0  501 -0.00000000000E+00  0.00000000000E+00  0.91064973957E+03  0.91064973957E+03  0.00000000000E+00 0. -1.
          2   -1    0    0  501    0  0.00000000000E+00 -0.00000000000E+00 -0.21673899171E+04  0.21673899171E+04  0.00000000000E+00 0.  1.
    2000013    1    1    2    0    0 -0.87514111335E+03 -0.54672294615E+03 -0.71638414032E+03  0.15749552961E+04  0.95000000000E+03 0.  0.
   -2000013    1    1    2    0    0  0.87514111335E+03  0.54672294615E+03 -0.54035603719E+03  0.15030843606E+04  0.95000000000E+03 0.  0.
<mgrwt>
<rscale>  0 0.28097922E+04</rscale>
<asrwt>0</asrwt>
<pdfrwt beam="2">  1        2 0.33344460E+00 0.28097922E+04</pdfrwt>
<pdfrwt beam="1">  1       -2 0.14009996E+00 0.28097922E+04</pdfrwt>
<totfact> 0.16789140E+00</totfact>
</mgrwt>
</event>
<event>
 4    1  0.2043502E-008  0.2596968E+04  0.7816531E-02  0.8369232E-01
          2   -1    0    0  501    0  0.00000000000E+00  0.00000000000E+00  0.15402977079E+04  0.15402977079E+04  0.00000000000E+00 0.  1.
         -2   -1    0    0    0  501 -0.00000000000E+00 -0.00000000000E+00 -0.10946330110E+04  0.10946330110E+04  0.00000000000E+00 0. -1.
    2000013    1    1    2    0    0 -0.64445044206E+03  0.17722368128E+03 -0.36602747300E+03  0.12178672820E+04  0.95000000000E+03 0.  0.
   -2000013    1    1    2    0    0  0.64445044206E+03 -0.17722368128E+03  0.81169216991E+03  0.14170634369E+04  0.95000000000E+03 0.  0.
<mgrwt>
<rscale>  0 0.25969680E+04</rscale>
<asrwt>0</asrwt>
<pdfrwt beam="1">  1        2 0.23696888E+00 0.25969680E+04</pdfrwt>
<pdfrwt beam="2">  1       -2 0.16840508E+00 0.25969680E+04</pdfrwt>
<totfact> 0.23324384E+00</totfact>
</mgrwt>
</event>
<event>
 4    1  0.2043502E-008  0.3519321E+04  0.7816531E-02  0.8109226E-01
         -2   -1    0    0    0  501 -0.00000000000E+00  0.00000000000E+00  0.95157217672E+03  0.95157217672E+03  0.00000000000E+00 0. -1.
          2   -1    0    0  501    0  0.00000000000E+00 -0.00000000000E+00 -0.32539883683E+04  0.32539883683E+04  0.00000000000E+00 0.  1.
    2000013    1    1    2    0    0 -0.69237242065E+03  0.62628107904E+03  0.22292744810E+03  0.13504829529E+04  0.95000000000E+03 0.  0.
   -2000013    1    1    2    0    0  0.69237242065E+03 -0.62628107904E+03 -0.25253436397E+04  0.28550775921E+04  0.95000000000E+03 0.  0.
<mgrwt>
<rscale>  0 0.35193208E+04</rscale>
<asrwt>0</asrwt>
<pdfrwt beam="2">  1        2 0.50061360E+00 0.35193208E+04</pdfrwt>
<pdfrwt beam="1">  1       -2 0.14639572E+00 0.35193208E+04</pdfrwt>
<totfact> 0.31291727E-01</totfact>
</mgrwt>
</event>
<event>
 4    1  0.2043502E-008  0.3165900E+04  0.7816531E-02  0.8197881E-01
         -2   -1    0    0    0  501 -0.00000000000E+00  0.00000000000E+00  0.15731936011E+04  0.15731936011E+04  0.00000000000E+00 0. -1.
          2   -1    0    0  501    0  0.00000000000E+00 -0.00000000000E+00 -0.15927666282E+04  0.15927666282E+04  0.00000000000E+00 0.  1.
    2000013    1    1    2    0    0  0.11101007703E+04  0.52599775851E+03  0.29719313930E+03  0.15810822636E+04  0.95000000000E+03 0.  0.
   -2000013    1    1    2    0    0 -0.11101007703E+04 -0.52599775851E+03 -0.31676616640E+03  0.15848779658E+04  0.95000000000E+03 0.  0.
<mgrwt>
<rscale>  0 0.31658997E+04</rscale>
<asrwt>0</asrwt>
<pdfrwt beam="2">  1        2 0.24504102E+00 0.31658997E+04</pdfrwt>
<pdfrwt beam="1">  1       -2 0.24202979E+00 0.31658997E+04</pdfrwt>
<totfact> 0.68405922E-01</totfact>
</mgrwt>
</event>
<event>
 4    1  0.2043502E-008  0.3837133E+04  0.7816531E-02  0.8038233E-01
          2   -1    0    0  501    0  0.00000000000E+00  0.00000000000E+00  0.42564952842E+04  0.42564952842E+04  0.00000000000E+00 0.  1.
         -2   -1    0    0    0  501 -0.00000000000E+00 -0.00000000000E+00 -0.86477209298E+03  0.86477209298E+03  0.00000000000E+00 0. -1.
    2000013    1    1    2    0    0 -0.21400570504E+03  0.74557331101E+03  0.36649801323E+04  0.38647454475E+04  0.95000000000E+03 0.  0.
   -2000013    1    1    2    0    0  0.21400570504E+03 -0.74557331101E+03 -0.27325694108E+03  0.12565219297E+04  0.95000000000E+03 0.  0.
<mgrwt>
<rscale>  0 0.38371335E+04</rscale>
<asrwt>0</asrwt>
<pdfrwt beam="1">  1        2 0.65484542E+00 0.38371335E+04</pdfrwt>
<pdfrwt beam="2">  1       -2 0.13304186E+00 0.38371335E+04</pdfrwt>
<totfact> 0.67583634E-02</totfact>
</mgrwt>
</event>
<event>
 4    1  0.2043502E-008  0.2458295E+04  0.7816531E-02  0.8417996E-01
         -2   -1    0    0    0  501 -0.00000000000E+00  0.00000000000E+00  0.99808744277E+03  0.99808744277E+03  0.00000000000E+00 0. -1.
          2   -1    0    0  501    0  0.00000000000E+00 -0.00000000000E+00 -0.15136981324E+04  0.15136981324E+04  0.00000000000E+00 0.  1.
    2000013    1    1    2    0    0 -0.63618205493E+03 -0.42996730240E+03 -0.11806836547E+03  0.12272080619E+04  0.95000000000E+03 0.  0.
   -2000013    1    1    2    0    0  0.63618205493E+03  0.42996730240E+03 -0.39754232412E+03  0.12845775133E+04  0.95000000000E+03 0.  0.
<mgrwt>
<rscale>  0 0.24582946E+04</rscale>
<asrwt>0</asrwt>
<pdfrwt beam="2">  1        2 0.23287664E+00 0.24582946E+04</pdfrwt>
<pdfrwt beam="1">  1       -2 0.15355191E+00 0.24582946E+04</pdfrwt>
<totfact> 0.31420889E+00</totfact>
</mgrwt>
</event>
<event>
 4    1  0.2043502E-008  0.2787169E+04  0.7816531E-02  0.8307263E-01
         -2   -1    0    0    0  501 -0.00000000000E+00  0.00000000000E+00  0.53269654462E+03  0.53269654462E+03  0.00000000000E+00 0. -1.
          2   -1    0    0  501    0  0.00000000000E+00 -0.00000000000E+00 -0.36457486462E+04  0.36457486462E+04  0.00000000000E+00 0.  1.
    2000013    1    1    2    0    0  0.82779018990E+02  0.10101930137E+04 -0.13906969397E+04  0.19656755249E+04  0.95000000000E+03 0.  0.
   -2000013    1    1    2    0    0 -0.82779018990E+02 -0.10101930137E+04 -0.17223551619E+04  0.22127696659E+04  0.95000000000E+03 0.  0.
<mgrwt>
<rscale>  0 0.27871690E+04</rscale>
<asrwt>0</asrwt>
<pdfrwt beam="2">  1        2 0.56088444E+00 0.27871690E+04</pdfrwt>
<pdfrwt beam="1">  1       -2 0.81953309E-01 0.27871690E+04</pdfrwt>
<totfact> 0.72951577E-01</totfact>
</mgrwt>
</event>
<event>
 4    1  0.2043502E-008  0.2546681E+04  0.7816531E-02  0.8386542E-01
         -2   -1    0    0    0  501 -0.00000000000E+00  0.00000000000E+00  0.44391228834E+03  0.44391228834E+03  0.00000000000E+00 0. -1.
          2   -1    0    0  501    0  0.00000000000E+00 -0.00000000000E+00 -0.36525134478E+04  0.36525134478E+04  0.00000000000E+00 0.  1.
    2000013    1    1    2    0    0 -0.49036804833E+03 -0.53544130251E+03 -0.23086432544E+04  0.25999022842E+04  0.95000000000E+03 0.  0.
   -2000013    1    1    2    0    0  0.49036804833E+03  0.53544130251E+03 -0.89995790501E+03  0.14965234519E+04  0.95000000000E+03 0.  0.
<mgrwt>
<rscale>  0 0.25466807E+04</rscale>
<asrwt>0</asrwt>
<pdfrwt beam="2">  1        2 0.56192514E+00 0.25466807E+04</pdfrwt>
<pdfrwt beam="1">  1       -2 0.68294199E-01 0.25466807E+04</pdfrwt>
<totfact> 0.11040262E+00</totfact>
</mgrwt>
</event>
<event>
 4    1  0.2043502E-008  0.2723384E+04  0.7816531E-02  0.8327457E-01
          2   -1    0    0  501    0  0.00000000000E+00  0.00000000000E+00  0.11661803730E+04  0.11661803730E+04  0.00000000000E+00 0.  1.
         -2   -1    0    0    0  501 -0.00000000000E+00 -0.00000000000E+00 -0.15899812094E+04  0.15899812094E+04  0.00000000000E+00 0. -1.
    2000013    1    1    2    0    0  0.32227832993E+03  0.88291051759E+03 -0.47640901544E+03  0.14187529221E+04  0.95000000000E+03 0.  0.
   -2000013    1    1    2    0    0 -0.32227832993E+03 -0.88291051759E+03  0.52608178987E+02  0.13374086602E+04  0.95000000000E+03 0.  0.
<mgrwt>
<rscale>  0 0.27233838E+04</rscale>
<asrwt>0</asrwt>
<pdfrwt beam="1">  1        2 0.17941237E+00 0.27233838E+04</pdfrwt>
<pdfrwt beam="2">  1       -2 0.24461249E+00 0.27233838E+04</pdfrwt>
<totfact> 0.12055918E+00</totfact>
</mgrwt>
</event>
<event>
 4    1  0.2043502E-008  0.2338015E+04  0.7816531E-02  0.8463081E-01
         -1   -1    0    0    0  501 -0.00000000000E+00  0.00000000000E+00  0.87612552072E+03  0.87612552072E+03  0.00000000000E+00 0. -1.
          1   -1    0    0  501    0  0.00000000000E+00 -0.00000000000E+00 -0.15597982003E+04  0.15597982003E+04  0.00000000000E+00 0.  1.
    2000013    1    1    2    0    0 -0.34045748937E+03  0.54737234201E+03 -0.57140702132E+03  0.12823937644E+04  0.95000000000E+03 0.  0.
   -2000013    1    1    2    0    0  0.34045748937E+03 -0.54737234201E+03 -0.11226565825E+03  0.11535299566E+04  0.95000000000E+03 0.  0.
<mgrwt>
<rscale>  0 0.23380154E+04</rscale>
<asrwt>0</asrwt>
<pdfrwt beam="2">  1        1 0.23996895E+00 0.23380154E+04</pdfrwt>
<pdfrwt beam="1">  1       -1 0.13478854E+00 0.23380154E+04</pdfrwt>
<totfact> 0.24781336E+00</totfact>
</mgrwt>
</event>
<event>
 4    1  0.2043502E-008  0.2393963E+04  0.7816531E-02  0.8441767E-01
         -2   -1    0    0    0  501 -0.00000000000E+00  0.00000000000E+00  0.13191051706E+04  0.13191051706E+04  0.00000000000E+00 0. -1.
          2   -1    0    0  501    0  0.00000000000E+00 -0.00000000000E+00 -0.10861636875E+04  0.10861636875E+04  0.00000000000E+00 0.  1.
    2000013    1    1    2    0    0 -0.64460422143E+03  0.17556932181E+03  0.40753697100E+03  0.12308231277E+04  0.95000000000E+03 0.  0.
   -2000013    1    1    2    0    0  0.64460422143E+03 -0.17556932181E+03 -0.17459548791E+03  0.11744457303E+04  0.95000000000E+03 0.  0.
<mgrwt>
<rscale>  0 0.23939625E+04</rscale>
<asrwt>0</asrwt>
<pdfrwt beam="2">  1        2 0.16710210E+00 0.23939625E+04</pdfrwt>
<pdfrwt beam="1">  1       -2 0.20293926E+00 0.23939625E+04</pdfrwt>
<totfact> 0.25431931E+00</totfact>
</mgrwt>
</event>
<event>
 4    1  0.2043502E-008  0.2257319E+04  0.7816531E-02  0.8494942E-01
         -2   -1    0    0    0  501 -0.00000000000E+00  0.00000000000E+00  0.40748728888E+03  0.40748728888E+03  0.00000000000E+00 0. -1.
          2   -1    0    0  501    0  0.00000000000E+00 -0.00000000000E+00 -0.31261642208E+04  0.31261642208E+04  0.00000000000E+00 0.  1.
    2000013    1    1    2    0    0  0.22322891882E+03  0.55913579884E+03 -0.15070878093E+04  0.18804993105E+04  0.95000000000E+03 0.  0.
   -2000013    1    1    2    0    0 -0.22322891882E+03 -0.55913579884E+03 -0.12115891226E+04  0.16531521992E+04  0.95000000000E+03 0.  0.
<mgrwt>
<rscale>  0 0.22573189E+04</rscale>
<asrwt>0</asrwt>
<pdfrwt beam="2">  1        2 0.48094833E+00 0.22573189E+04</pdfrwt>
<pdfrwt beam="1">  1       -2 0.62690353E-01 0.22573189E+04</pdfrwt>
<totfact> 0.31118749E+00</totfact>
</mgrwt>
</event>
<event>
 4    1  0.2043502E-008  0.3134584E+04  0.7816531E-02  0.8206310E-01
         -2   -1    0    0    0  501 -0.00000000000E+00  0.00000000000E+00  0.64595471008E+03  0.64595471008E+03  0.00000000000E+00 0. -1.
          2   -1    0    0  501    0  0.00000000000E+00 -0.00000000000E+00 -0.38027502989E+04  0.38027502989E+04  0.00000000000E+00 0.  1.
    2000013    1    1    2    0    0  0.10643744099E+04 -0.41825471289E+03 -0.87437446920E+03  0.17247784210E+04  0.95000000000E+03 0.  0.
   -2000013    1    1    2    0    0 -0.10643744099E+04  0.41825471289E+03 -0.22824211197E+04  0.27239265880E+04  0.95000000000E+03 0.  0.
<mgrwt>
<rscale>  0 0.31345842E+04</rscale>
<asrwt>0</asrwt>
<pdfrwt beam="2">  1        2 0.58503849E+00 0.31345842E+04</pdfrwt>
<pdfrwt beam="1">  1       -2 0.99377651E-01 0.31345842E+04</pdfrwt>
<totfact> 0.34643822E-01</totfact>
</mgrwt>
</event>
<event>
 4    1  0.2043502E-008  0.3456916E+04  0.7816531E-02  0.8124077E-01
          2   -1    0    0  501    0  0.00000000000E+00  0.00000000000E+00  0.41191127314E+04  0.41191127314E+04  0.00000000000E+00 0.  1.
         -2   -1    0    0    0  501 -0.00000000000E+00 -0.00000000000E+00 -0.72529392862E+03  0.72529392862E+03  0.00000000000E+00 0. -1.
    2000013    1    1    2    0    0 -0.28209773038E+03  0.12635124786E+04  0.25931537303E+04  0.30500801927E+04  0.95000000000E+03 0.  0.
   -2000013    1    1    2    0    0  0.28209773038E+03 -0.12635124786E+04  0.80066507244E+03  0.17943264673E+04  0.95000000000E+03 0.  0.
<mgrwt>
<rscale>  0 0.34569162E+04</rscale>
<asrwt>0</asrwt>
<pdfrwt beam="1">  1        2 0.63370964E+00 0.34569162E+04</pdfrwt>
<pdfrwt beam="2">  1       -2 0.11158368E+00 0.34569162E+04</pdfrwt>
<totfact> 0.14229812E-01</totfact>
</mgrwt>
</event>
<event>
 4    1  0.2043502E-008  0.3366502E+04  0.7816531E-02  0.8146177E-01
         -2   -1    0    0    0  501 -0.00000000000E+00  0.00000000000E+00  0.16107296452E+04  0.16107296452E+04  0.00000000000E+00 0. -1.
          2   -1    0    0  501    0  0.00000000000E+00 -0.00000000000E+00 -0.17590377895E+04  0.17590377895E+04  0.00000000000E+00 0.  1.
    2000013    1    1    2    0    0 -0.10229835066E+04  0.62710587486E+03 -0.77560281964E+03  0.17157554508E+04  0.95000000000E+03 0.  0.
   -2000013    1    1    2    0    0  0.10229835066E+04 -0.62710587486E+03  0.62729467535E+03  0.16540119839E+04  0.95000000000E+03 0.  0.
<mgrwt>
<rscale>  0 0.33665022E+04</rscale>
<asrwt>0</asrwt>
<pdfrwt beam="2">  1        2 0.27062120E+00 0.33665022E+04</pdfrwt>
<pdfrwt beam="1">  1       -2 0.24780456E+00 0.33665022E+04</pdfrwt>
<totfact> 0.50077581E-01</totfact>
</mgrwt>
</event>
<event>
 4    1  0.2043502E-008  0.2521045E+04  0.7816531E-02  0.8395526E-01
          2   -1    0    0  501    0  0.00000000000E+00  0.00000000000E+00  0.27711609902E+04  0.27711609902E+04  0.00000000000E+00 0.  1.
         -2   -1    0    0    0  501 -0.00000000000E+00 -0.00000000000E+00 -0.57337580583E+03  0.57337580583E+03  0.00000000000E+00 0. -1.
    2000013    1    1    2    0    0  0.24609478117E+03 -0.77203546476E+03  0.13279660462E+04  0.18227987327E+04  0.95000000000E+03 0.  0.
   -2000013    1    1    2    0    0 -0.24609478117E+03  0.77203546476E+03  0.86981913813E+03  0.15217380633E+04  0.95000000000E+03 0.  0.
<mgrwt>
<rscale>  0 0.25210448E+04</rscale>
<asrwt>0</asrwt>
<pdfrwt beam="1">  1        2 0.42633245E+00 0.25210448E+04</pdfrwt>
<pdfrwt beam="2">  1       -2 0.88211664E-01 0.25210448E+04</pdfrwt>
<totfact> 0.23718201E+00</totfact>
</mgrwt>
</event>
<event>
 4    1  0.2043502E-008  0.4336175E+04  0.7816531E-02  0.7939963E-01
          2   -1    0    0  501    0  0.00000000000E+00  0.00000000000E+00  0.17185362415E+04  0.17185362415E+04  0.00000000000E+00 0.  1.
         -2   -1    0    0    0  501 -0.00000000000E+00 -0.00000000000E+00 -0.27352365717E+04  0.27352365717E+04  0.00000000000E+00 0. -1.
    2000013    1    1    2    0    0  0.23678791569E+03 -0.19296979126E+04 -0.36940154091E+03  0.21951674308E+04  0.95000000000E+03 0.  0.
   -2000013    1    1    2    0    0 -0.23678791569E+03  0.19296979126E+04 -0.64729878928E+03  0.22586053824E+04  0.95000000000E+03 0.  0.
<mgrwt>
<rscale>  0 0.43361749E+04</rscale>
<asrwt>0</asrwt>
<pdfrwt beam="1">  1        2 0.26439019E+00 0.43361749E+04</pdfrwt>
<pdfrwt beam="2">  1       -2 0.42080562E+00 0.43361749E+04</pdfrwt>
<totfact> 0.39830680E-02</totfact>
</mgrwt>
</event>
<event>
 4    1  0.2043502E-008  0.2297993E+04  0.7816531E-02  0.8478713E-01
         -2   -1    0    0    0  501 -0.00000000000E+00  0.00000000000E+00  0.10635674070E+04  0.10635674070E+04  0.00000000000E+00 0. -1.
          2   -1    0    0  501    0  0.00000000000E+00 -0.00000000000E+00 -0.12412874721E+04  0.12412874721E+04  0.00000000000E+00 0.  1.
    2000013    1    1    2    0    0 -0.56870206697E+03  0.30580562010E+03 -0.61323001945E+02  0.11503041462E+04  0.95000000000E+03 0.  0.
   -2000013    1    1    2    0    0  0.56870206697E+03 -0.30580562010E+03 -0.11639706315E+03  0.11545507328E+04  0.95000000000E+03 0.  0.
<mgrwt>
<rscale>  0 0.22979929E+04</rscale>
<asrwt>0</asrwt>
<pdfrwt beam="2">  1        2 0.19096730E+00 0.22979929E+04</pdfrwt>
<pdfrwt beam="1">  1       -2 0.16362576E+00 0.22979929E+04</pdfrwt>
<totfact> 0.38452808E+00</totfact>
</mgrwt>
</event>
<event>
 4    1  0.2043502E-008  0.2352312E+04  0.7816531E-02  0.8457576E-01
          2   -1    0    0  501    0  0.00000000000E+00  0.00000000000E+00  0.12436562783E+04  0.12436562783E+04  0.00000000000E+00 0.  1.
         -2   -1    0    0    0  501 -0.00000000000E+00 -0.00000000000E+00 -0.11123196820E+04  0.11123196820E+04  0.00000000000E+00 0. -1.
    2000013    1    1    2    0    0 -0.33544022047E+03 -0.11453067487E+03  0.66258808337E+03  0.12112639618E+04  0.95000000000E+03 0.  0.
   -2000013    1    1    2    0    0  0.33544022047E+03  0.11453067487E+03 -0.53125148702E+03  0.11447119985E+04  0.95000000000E+03 0.  0.
<mgrwt>
<rscale>  0 0.23523124E+04</rscale>
<asrwt>0</asrwt>
<pdfrwt beam="1">  1        2 0.19133174E+00 0.23523124E+04</pdfrwt>
<pdfrwt beam="2">  1       -2 0.17112610E+00 0.23523124E+04</pdfrwt>
<totfact> 0.33702284E+00</totfact>
</mgrwt>
</event>
<event>
 4    1  0.2043502E-008  0.2709587E+04  0.7816531E-02  0.8331901E-01
         -2   -1    0    0    0  501 -0.00000000000E+00  0.00000000000E+00  0.48966271866E+03  0.48966271866E+03  0.00000000000E+00 0. -1.
          2   -1    0    0  501    0  0.00000000000E+00 -0.00000000000E+00 -0.37484269119E+04  0.37484269119E+04  0.00000000000E+00 0.  1.
    2000013    1    1    2    0    0 -0.52863961425E+03  0.30765729024E+03 -0.27986540355E+04  0.30181247921E+04  0.95000000000E+03 0.  0.
   -2000013    1    1    2    0    0  0.52863961425E+03 -0.30765729024E+03 -0.46011015778E+03  0.12199648385E+04  0.95000000000E+03 0.  0.
<mgrwt>
<rscale>  0 0.27095866E+04</rscale>
<asrwt>0</asrwt>
<pdfrwt beam="2">  1        2 0.57668106E+00 0.27095866E+04</pdfrwt>
<pdfrwt beam="1">  1       -2 0.75332727E-01 0.27095866E+04</pdfrwt>
<totfact> 0.74512290E-01</totfact>
</mgrwt>
</event>
<event>
 4    1  0.2043502E-008  0.2148388E+04  0.7816531E-02  0.8540223E-01
         -2   -1    0    0    0  501 -0.00000000000E+00  0.00000000000E+00  0.41047538803E+03  0.41047538803E+03  0.00000000000E+00 0. -1.
          2   -1    0    0  501    0  0.00000000000E+00 -0.00000000000E+00 -0.28111130495E+04  0.28111130495E+04  0.00000000000E+00 0.  1.
    2000013    1    1    2    0    0 -0.37335408300E+03  0.12809435663E+02 -0.69884655360E+03  0.12371110938E+04  0.95000000000E+03 0.  0.
   -2000013    1    1    2    0    0  0.37335408300E+03 -0.12809435663E+02 -0.17017911079E+04  0.19844773438E+04  0.95000000000E+03 0.  0.
<mgrwt>
<rscale>  0 0.21483880E+04</rscale>
<asrwt>0</asrwt>
<pdfrwt beam="2">  1        2 0.43247893E+00 0.21483880E+04</pdfrwt>
<pdfrwt beam="1">  1       -2 0.63150060E-01 0.21483880E+04</pdfrwt>
<totfact> 0.48585893E+00</totfact>
</mgrwt>
</event>
<event>
 4    1  0.2043502E-008  0.2397178E+04  0.7816531E-02  0.8440561E-01
         -2   -1    0    0    0  501 -0.00000000000E+00  0.00000000000E+00  0.10635815633E+04  0.10635815633E+04  0.00000000000E+00 0. -1.
          2   -1    0    0  501    0  0.00000000000E+00 -0.00000000000E+00 -0.13507335481E+04  0.13507335481E+04  0.00000000000E+00 0.  1.
    2000013    1    1    2    0    0  0.16585799048E+03 -0.45495172112E+03 -0.69486964973E+03  0.12727269038E+04  0.95000000000E+03 0.  0.
   -2000013    1    1    2    0    0 -0.16585799048E+03  0.45495172112E+03  0.40771766488E+03  0.11415882076E+04  0.95000000000E+03 0.  0.
<mgrwt>
<rscale>  0 0.23971778E+04</rscale>
<asrwt>0</asrwt>
<pdfrwt beam="2">  1        2 0.20780516E+00 0.23971778E+04</pdfrwt>
<pdfrwt beam="1">  1       -2 0.16362793E+00 0.23971778E+04</pdfrwt>
<totfact> 0.32917602E+00</totfact>
</mgrwt>
</event>
<event>
 4    1  0.2043502E-008  0.2037601E+04  0.7816531E-02  0.8589240E-01
         -2   -1    0    0    0  501 -0.00000000000E+00  0.00000000000E+00  0.86650961481E+03  0.86650961481E+03  0.00000000000E+00 0. -1.
          2   -1    0    0  501    0  0.00000000000E+00 -0.00000000000E+00 -0.11978569645E+04  0.11978569645E+04  0.00000000000E+00 0.  1.
    2000013    1    1    2    0    0  0.26639483283E+03 -0.11295101605E+03  0.64757231018E+02  0.99519728595E+03  0.95000000000E+03 0.  0.
   -2000013    1    1    2    0    0 -0.26639483283E+03  0.11295101605E+03 -0.39610458067E+03  0.10691692933E+04  0.95000000000E+03 0.  0.
<mgrwt>
<rscale>  0 0.20376011E+04</rscale>
<asrwt>0</asrwt>
<pdfrwt beam="2">  1        2 0.18428569E+00 0.20376011E+04</pdfrwt>
<pdfrwt beam="1">  1       -2 0.13330917E+00 0.20376011E+04</pdfrwt>
<totfact> 0.71696910E+00</totfact>
</mgrwt>
</event>
<event>
 4    1  0.2043502E-008  0.2223427E+04  0.7816531E-02  0.8508740E-01
         -2   -1    0    0    0  501 -0.00000000000E+00  0.00000000000E+00  0.76628422621E+03  0.76628422621E+03  0.00000000000E+00 0. -1.
          2   -1    0    0  501    0  0.00000000000E+00 -0.00000000000E+00 -0.16128572004E+04  0.16128572004E+04  0.00000000000E+00 0.  1.
    2000013    1    1    2    0    0  0.34914571324E+02  0.39658294781E+03 -0.87079844500E+03  0.13488094727E+04  0.95000000000E+03 0.  0.
   -2000013    1    1    2    0    0 -0.34914571324E+02 -0.39658294781E+03  0.24225470836E+02  0.10303319539E+04  0.95000000000E+03 0.  0.
<mgrwt>
<rscale>  0 0.22234271E+04</rscale>
<asrwt>0</asrwt>
<pdfrwt beam="2">  1        2 0.24813187E+00 0.22234271E+04</pdfrwt>
<pdfrwt beam="1">  1       -2 0.11788988E+00 0.22234271E+04</pdfrwt>
<totfact> 0.55530090E+00</totfact>
</mgrwt>
</event>
<event>
 4    1  0.2043502E-008  0.4320310E+04  0.7816531E-02  0.7942873E-01
          1   -1    0    0  501    0  0.00000000000E+00  0.00000000000E+00  0.27701794769E+04  0.27701794769E+04  0.00000000000E+00 0.  1.
         -1   -1    0    0    0  501 -0.00000000000E+00 -0.00000000000E+00 -0.16844644220E+04  0.16844644220E+04  0.00000000000E+00 0. -1.
    2000013    1    1    2    0    0 -0.13052742819E+04  0.77044873215E+03 -0.70576096699E+03  0.19230004530E+04  0.95000000000E+03 0.  0.
   -2000013    1    1    2    0    0  0.13052742819E+04 -0.77044873215E+03  0.17914760219E+04  0.25316434459E+04  0.95000000000E+03 0.  0.
<mgrwt>
<rscale>  0 0.43203096E+04</rscale>
<asrwt>0</asrwt>
<pdfrwt beam="1">  1        1 0.42618146E+00 0.43203096E+04</pdfrwt>
<pdfrwt beam="2">  1       -1 0.25914837E+00 0.43203096E+04</pdfrwt>
<totfact> 0.40550114E-02</totfact>
</mgrwt>
</event>
<event>
 4    1  0.2043502E-008  0.2306016E+04  0.7816531E-02  0.8475553E-01
         -2   -1    0    0    0  501 -0.00000000000E+00  0.00000000000E+00  0.10870812802E+04  0.10870812802E+04  0.00000000000E+00 0. -1.
          2   -1    0    0  501    0  0.00000000000E+00 -0.00000000000E+00 -0.12229323647E+04  0.12229323647E+04  0.00000000000E+00 0.  1.
    2000013    1    1    2    0    0 -0.62166275950E+03  0.22797553171E+02 -0.26812841293E+03  0.11667806824E+04  0.95000000000E+03 0.  0.
   -2000013    1    1    2    0    0  0.62166275950E+03 -0.22797553171E+02  0.13227732840E+03  0.11432329625E+04  0.95000000000E+03 0.  0.
<mgrwt>
<rscale>  0 0.23060155E+04</rscale>
<asrwt>0</asrwt>
<pdfrwt beam="2">  1        2 0.18814344E+00 0.23060155E+04</pdfrwt>
<pdfrwt beam="1">  1       -2 0.16724327E+00 0.23060155E+04</pdfrwt>
<totfact> 0.37095922E+00</totfact>
</mgrwt>
</event>
<event>
 4    1  0.2043502E-008  0.3199579E+04  0.7816531E-02  0.8188928E-01
          2   -1    0    0  501    0  0.00000000000E+00  0.00000000000E+00  0.38547521781E+04  0.38547521781E+04  0.00000000000E+00 0.  1.
         -2   -1    0    0    0  501 -0.00000000000E+00 -0.00000000000E+00 -0.66394067781E+03  0.66394067781E+03  0.00000000000E+00 0. -1.
    2000013    1    1    2    0    0  0.10343083019E+04 -0.67048492280E+03  0.10717515619E+04  0.18895753771E+04  0.95000000000E+03 0.  0.
   -2000013    1    1    2    0    0 -0.10343083019E+04  0.67048492280E+03  0.21190599384E+04  0.26291174789E+04  0.95000000000E+03 0.  0.
<mgrwt>
<rscale>  0 0.31995792E+04</rscale>
<asrwt>0</asrwt>
<pdfrwt beam="1">  1        2 0.59303878E+00 0.31995792E+04</pdfrwt>
<pdfrwt beam="2">  1       -2 0.10214472E+00 0.31995792E+04</pdfrwt>
<totfact> 0.29435853E-01</totfact>
</mgrwt>
</event>
<event>
 4    1  0.2043502E-008  0.2656831E+04  0.7816531E-02  0.8349149E-01
          2   -1    0    0  501    0  0.00000000000E+00  0.00000000000E+00  0.14309487759E+04  0.14309487759E+04  0.00000000000E+00 0.  1.
         -2   -1    0    0    0  501 -0.00000000000E+00 -0.00000000000E+00 -0.12332288573E+04  0.12332288573E+04  0.00000000000E+00 0. -1.
    2000013    1    1    2    0    0  0.61123600203E+03  0.54904863432E+03 -0.33491395492E+03  0.12998966152E+04  0.95000000000E+03 0.  0.
   -2000013    1    1    2    0    0 -0.61123600203E+03 -0.54904863432E+03  0.53263387354E+03  0.13642810181E+04  0.95000000000E+03 0.  0.
<mgrwt>
<rscale>  0 0.26568307E+04</rscale>
<asrwt>0</asrwt>
<pdfrwt beam="1">  1        2 0.22014597E+00 0.26568307E+04</pdfrwt>
<pdfrwt beam="2">  1       -2 0.18972752E+00 0.26568307E+04</pdfrwt>
<totfact> 0.19041280E+00</totfact>
</mgrwt>
</event>
<event>
 4    1  0.2043502E-008  0.3756057E+04  0.7816531E-02  0.8055651E-01
          2   -1    0    0  501    0  0.00000000000E+00  0.00000000000E+00  0.22648413929E+04  0.22648413929E+04  0.00000000000E+00 0.  1.
         -2   -1    0    0    0  501 -0.00000000000E+00 -0.00000000000E+00 -0.15572790924E+04  0.15572790924E+04  0.00000000000E+00 0. -1.
    2000013    1    1    2    0    0  0.29353206329E+03  0.98693196175E+03 -0.91893482868E+03  0.16754512791E+04  0.95000000000E+03 0.  0.
   -2000013    1    1    2    0    0 -0.29353206329E+03 -0.98693196175E+03  0.16264971293E+04  0.21466692062E+04  0.95000000000E+03 0.  0.
<mgrwt>
<rscale>  0 0.37560565E+04</rscale>
<asrwt>0</asrwt>
<pdfrwt beam="1">  1        2 0.34843714E+00 0.37560565E+04</pdfrwt>
<pdfrwt beam="2">  1       -2 0.23958140E+00 0.37560565E+04</pdfrwt>
<totfact> 0.28464215E-01</totfact>
</mgrwt>
</event>
<event>
 4    1  0.2043502E-008  0.2902113E+04  0.7816531E-02  0.8272249E-01
          2   -1    0    0  501    0  0.00000000000E+00  0.00000000000E+00  0.28889065901E+04  0.28889065901E+04  0.00000000000E+00 0.  1.
         -2   -1    0    0    0  501 -0.00000000000E+00 -0.00000000000E+00 -0.72884497762E+03  0.72884497762E+03  0.00000000000E+00 0. -1.
    2000013    1    1    2    0    0 -0.10051628797E+04 -0.42474484935E+03  0.12183096192E+04  0.18914383231E+04  0.95000000000E+03 0.  0.
   -2000013    1    1    2    0    0  0.10051628797E+04  0.42474484935E+03  0.94175199329E+03  0.17263132446E+04  0.95000000000E+03 0.  0.
<mgrwt>
<rscale>  0 0.29021131E+04</rscale>
<asrwt>0</asrwt>
<pdfrwt beam="1">  1        2 0.44444716E+00 0.29021131E+04</pdfrwt>
<pdfrwt beam="2">  1       -2 0.11213000E+00 0.29021131E+04</pdfrwt>
<totfact> 0.11039164E+00</totfact>
</mgrwt>
</event>
<event>
 4    1  0.2043502E-008  0.2919877E+04  0.7816531E-02  0.8266988E-01
         -2   -1    0    0    0  501 -0.00000000000E+00  0.00000000000E+00  0.22558603599E+04  0.22558603599E+04  0.00000000000E+00 0. -1.
          2   -1    0    0  501    0  0.00000000000E+00 -0.00000000000E+00 -0.94483681687E+03  0.94483681687E+03  0.00000000000E+00 0.  1.
    2000013    1    1    2    0    0  0.11018244705E+04  0.93708197129E+02  0.74127677977E+03  0.16354784175E+04  0.95000000000E+03 0.  0.
   -2000013    1    1    2    0    0 -0.11018244705E+04 -0.93708197129E+02  0.56974676328E+03  0.15652187592E+04  0.95000000000E+03 0.  0.
<mgrwt>
<rscale>  0 0.29198767E+04</rscale>
<asrwt>0</asrwt>
<pdfrwt beam="2">  1        2 0.14535951E+00 0.29198767E+04</pdfrwt>
<pdfrwt beam="1">  1       -2 0.34705544E+00 0.29198767E+04</pdfrwt>
<totfact> 0.38278223E-01</totfact>
</mgrwt>
</event>
<event>
 4    1  0.2043502E-008  0.2283233E+04  0.7816531E-02  0.8484562E-01
         -2   -1    0    0    0  501 -0.00000000000E+00  0.00000000000E+00  0.14189032101E+04  0.14189032101E+04  0.00000000000E+00 0. -1.
          2   -1    0    0  501    0  0.00000000000E+00 -0.00000000000E+00 -0.91851813353E+03  0.91851813353E+03  0.00000000000E+00 0.  1.
    2000013    1    1    2    0    0 -0.49610786737E+03  0.39321652884E+03  0.25714138587E+03  0.11701982511E+04  0.95000000000E+03 0.  0.
   -2000013    1    1    2    0    0  0.49610786737E+03 -0.39321652884E+03  0.24324369070E+03  0.11672230925E+04  0.95000000000E+03 0.  0.
<mgrwt>
<rscale>  0 0.22832331E+04</rscale>
<asrwt>0</asrwt>
<pdfrwt beam="2">  1        2 0.14131048E+00 0.22832331E+04</pdfrwt>
<pdfrwt beam="1">  1       -2 0.21829280E+00 0.22832331E+04</pdfrwt>
<totfact> 0.26202551E+00</totfact>
</mgrwt>
</event>
<event>
 4    1  0.2043502E-008  0.2477013E+04  0.7816531E-02  0.8411221E-01
          2   -1    0    0  501    0  0.00000000000E+00  0.00000000000E+00  0.87723780089E+03  0.87723780089E+03  0.00000000000E+00 0.  1.
         -2   -1    0    0    0  501 -0.00000000000E+00 -0.00000000000E+00 -0.17485549465E+04  0.17485549465E+04  0.00000000000E+00 0. -1.
    2000013    1    1    2    0    0 -0.19973453202E+03  0.72698811757E+03 -0.16959960406E+03  0.12246099918E+04  0.95000000000E+03 0.  0.
   -2000013    1    1    2    0    0  0.19973453202E+03 -0.72698811757E+03 -0.70171754153E+03  0.14011827556E+04  0.95000000000E+03 0.  0.
<mgrwt>
<rscale>  0 0.24770131E+04</rscale>
<asrwt>0</asrwt>
<pdfrwt beam="1">  1        2 0.13495966E+00 0.24770131E+04</pdfrwt>
<pdfrwt beam="2">  1       -2 0.26900845E+00 0.24770131E+04</pdfrwt>
<totfact> 0.13345345E+00</totfact>
</mgrwt>
</event>
<event>
 4    1  0.2043502E-008  0.3700739E+04  0.7816531E-02  0.8067798E-01
         -2   -1    0    0    0  501 -0.00000000000E+00  0.00000000000E+00  0.12410387598E+04  0.12410387598E+04  0.00000000000E+00 0. -1.
          2   -1    0    0  501    0  0.00000000000E+00 -0.00000000000E+00 -0.27588720578E+04  0.27588720578E+04  0.00000000000E+00 0.  1.
    2000013    1    1    2    0    0  0.77998688733E+03 -0.44428033712E+03  0.65678000903E+03  0.14627455495E+04  0.95000000000E+03 0.  0.
   -2000013    1    1    2    0    0 -0.77998688733E+03  0.44428033712E+03 -0.21746133071E+04  0.25371652681E+04  0.95000000000E+03 0.  0.
<mgrwt>
<rscale>  0 0.37007389E+04</rscale>
<asrwt>0</asrwt>
<pdfrwt beam="2">  1        2 0.42444185E+00 0.37007389E+04</pdfrwt>
<pdfrwt beam="1">  1       -2 0.19092904E+00 0.37007389E+04</pdfrwt>
<totfact> 0.30231347E-01</totfact>
</mgrwt>
</event>
<event>
 4    1  0.2043502E-008  0.2586969E+04  0.7816531E-02  0.8372641E-01
          2   -1    0    0  501    0  0.00000000000E+00  0.00000000000E+00  0.19928092016E+04  0.19928092016E+04  0.00000000000E+00 0.  1.
         -2   -1    0    0    0  501 -0.00000000000E+00 -0.00000000000E+00 -0.83956967384E+03  0.83956967384E+03  0.00000000000E+00 0. -1.
    2000013    1    1    2    0    0 -0.61483159363E+02 -0.70842531763E+03  0.13051355877E+02  0.11867253041E+04  0.95000000000E+03 0.  0.
   -2000013    1    1    2    0    0  0.61483159363E+02  0.70842531763E+03  0.11401881719E+04  0.16456535714E+04  0.95000000000E+03 0.  0.
<mgrwt>
<rscale>  0 0.25869690E+04</rscale>
<asrwt>0</asrwt>
<pdfrwt beam="1">  1        2 0.30658603E+00 0.25869690E+04</pdfrwt>
<pdfrwt beam="2">  1       -2 0.12916457E+00 0.25869690E+04</pdfrwt>
<totfact> 0.26360188E+00</totfact>
</mgrwt>
</event>
<event>
 4    1  0.2043502E-008  0.2804044E+04  0.7816531E-02  0.8302014E-01
         -2   -1    0    0    0  501 -0.00000000000E+00  0.00000000000E+00  0.11913871840E+04  0.11913871840E+04  0.00000000000E+00 0. -1.
          2   -1    0    0  501    0  0.00000000000E+00 -0.00000000000E+00 -0.16498966433E+04  0.16498966433E+04  0.00000000000E+00 0.  1.
    2000013    1    1    2    0    0  0.60754757533E+03  0.82903459293E+03 -0.31252460495E+03  0.14340795101E+04  0.95000000000E+03 0.  0.
   -2000013    1    1    2    0    0 -0.60754757533E+03 -0.82903459293E+03 -0.14598485438E+03  0.14072043172E+04  0.95000000000E+03 0.  0.
<mgrwt>
<rscale>  0 0.28040440E+04</rscale>
<asrwt>0</asrwt>
<pdfrwt beam="2">  1        2 0.25383025E+00 0.28040440E+04</pdfrwt>
<pdfrwt beam="1">  1       -2 0.18329034E+00 0.28040440E+04</pdfrwt>
<totfact> 0.15660284E+00</totfact>
</mgrwt>
</event>
<event>
 4    1  0.2043502E-008  0.2695321E+04  0.7816531E-02  0.8336525E-01
          2   -1    0    0  501    0  0.00000000000E+00  0.00000000000E+00  0.23625346563E+04  0.23625346563E+04  0.00000000000E+00 0.  1.
         -2   -1    0    0    0  501 -0.00000000000E+00 -0.00000000000E+00 -0.76874574829E+03  0.76874574829E+03  0.00000000000E+00 0. -1.
    2000013    1    1    2    0    0 -0.64067449418E+03 -0.27812230327E+02 -0.26595730644E+02  0.11464923290E+04  0.95000000000E+03 0.  0.
   -2000013    1    1    2    0    0  0.64067449418E+03  0.27812230327E+02  0.16203846387E+04  0.19847880756E+04  0.95000000000E+03 0.  0.
<mgrwt>
<rscale>  0 0.26953207E+04</rscale>
<asrwt>0</asrwt>
<pdfrwt beam="1">  1        2 0.36346687E+00 0.26953207E+04</pdfrwt>
<pdfrwt beam="2">  1       -2 0.11826858E+00 0.26953207E+04</pdfrwt>
<totfact> 0.20176135E+00</totfact>
</mgrwt>
</event>
<event>
 4    1  0.2043502E-008  0.2131540E+04  0.7816531E-02  0.8547476E-01
         -2   -1    0    0    0  501 -0.00000000000E+00  0.00000000000E+00  0.12841698178E+04  0.12841698178E+04  0.00000000000E+00 0. -1.
          2   -1    0    0  501    0  0.00000000000E+00 -0.00000000000E+00 -0.88451336857E+03  0.88451336857E+03  0.00000000000E+00 0.  1.
    2000013    1    1    2    0    0 -0.24453085923E+03  0.39115984597E+03  0.34572864358E+03  0.11112288969E+04  0.95000000000E+03 0.  0.
   -2000013    1    1    2    0    0  0.24453085923E+03 -0.39115984597E+03  0.53927805669E+02  0.10574542895E+04  0.95000000000E+03 0.  0.
<mgrwt>
<rscale>  0 0.21315397E+04</rscale>
<asrwt>0</asrwt>
<pdfrwt beam="2">  1        2 0.13607898E+00 0.21315397E+04</pdfrwt>
<pdfrwt beam="1">  1       -2 0.19756459E+00 0.21315397E+04</pdfrwt>
<totfact> 0.38095075E+00</totfact>
</mgrwt>
</event>
